/*--------------------------------*- C++ -*----------------------------------*\
| =========                 |                                                 |
| \\      /  F ield         | OpenFOAM: The Open Source CFD Toolbox           |
|  \\    /   O peration     | Version:  v1606+                                |
|   \\  /    A nd           | Web:      www.OpenFOAM.com                      |
|    \\/     M anipulation  |                                                 |
\*---------------------------------------------------------------------------*/
FoamFile
{
    version     2.0;
    format      ascii;
    class       surfaceScalarField;
    location    "1.67";
    object      phi.air;
}
// * * * * * * * * * * * * * * * * * * * * * * * * * * * * * * * * * * * * * //

dimensions      [0 3 -1 0 0 0 0];

internalField   nonuniform List<scalar> 
11770
(
-6.6016e-06
0.000104072
-1.23463e-05
0.00010029
-1.45219e-05
9.52879e-05
-1.5174e-05
9.33357e-05
-1.55726e-05
9.18163e-05
-1.20628e-05
8.70655e-05
-4.95066e-06
8.23715e-05
1.62964e-06
8.13919e-05
4.74403e-06
8.33747e-05
6.2915e-06
8.50039e-05
6.74864e-06
8.77567e-05
3.44629e-06
9.1475e-05
-3.78484e-07
9.19984e-05
-4.08996e-06
9.16512e-05
-8.1685e-06
9.20172e-05
-8.97021e-06
9.0143e-05
-7.84806e-06
8.86812e-05
-7.3041e-06
8.75231e-05
-6.84181e-06
8.70581e-05
-2.7424e-06
8.5963e-05
3.89725e-06
8.51469e-05
8.43746e-06
8.77326e-05
1.23569e-05
8.90147e-05
1.49184e-05
9.0141e-05
1.84211e-05
8.89178e-05
2.1736e-05
8.83641e-05
1.33522e-05
9.73806e-05
1.4455e-06
0.000100627
2.94136e-06
8.99312e-05
9.22997e-05
-4.92668e-06
9.58295e-05
-1.22088e-05
9.57639e-05
-1.58352e-05
8.98879e-05
-2.00959e-05
8.94852e-05
-2.16951e-05
8.59626e-05
-1.95607e-05
7.74462e-05
-1.27761e-05
6.72191e-05
-2.19287e-06
6.15665e-05
5.83482e-06
6.44069e-05
1.0591e-05
6.94654e-05
7.30904e-06
7.90837e-05
3.87198e-06
8.38565e-05
1.45927e-07
8.46201e-05
-3.10565e-06
8.37734e-05
-4.51654e-06
8.25438e-05
-9.60891e-06
8.24936e-05
-1.54801e-05
8.15917e-05
-1.38221e-05
7.47107e-05
-7.91339e-06
6.99137e-05
-2.21341e-06
6.9112e-05
3.10557e-06
7.04369e-05
7.98745e-06
7.41591e-05
1.02224e-05
7.72937e-05
1.21301e-05
7.82087e-05
1.40956e-05
7.67786e-05
1.30509e-05
7.78634e-05
8.14236e-06
8.93139e-05
5.61914e-06
9.30348e-05
1.53276e-06
8.40118e-05
8.44164e-05
-3.07145e-06
9.46309e-05
-5.19127e-06
9.56207e-05
-1.06905e-05
9.34442e-05
-1.8176e-05
9.62151e-05
-2.00074e-05
9.1869e-05
-2.15731e-05
8.59747e-05
-1.63071e-05
7.2251e-05
-4.7933e-06
6.0311e-05
7.0652e-06
6.25546e-05
1.59656e-05
6.7155e-05
1.36497e-05
8.3792e-05
6.4292e-06
9.20346e-05
5.63199e-07
9.17464e-05
-4.20586e-06
9.01756e-05
-7.08557e-06
8.76766e-05
-1.25725e-05
9.0463e-05
-1.93559e-05
9.0933e-05
-1.60303e-05
7.67723e-05
-6.40622e-06
6.79042e-05
9.68486e-07
6.97979e-05
2.94875e-06
7.43672e-05
5.1985e-06
7.36966e-05
6.16594e-06
7.42974e-05
7.68444e-06
7.3646e-05
8.32489e-06
7.21432e-05
4.4159e-06
7.72003e-05
6.48175e-06
8.61005e-05
8.73553e-06
9.11131e-05
3.87047e-06
8.8422e-05
8.73777e-05
3.74909e-06
8.82848e-05
5.00881e-06
9.07362e-05
2.09469e-06
9.12614e-05
-1.6983e-06
9.34201e-05
-7.76125e-06
8.99558e-05
-1.42953e-05
8.51392e-05
-1.42293e-05
7.0462e-05
-6.54641e-06
5.40447e-05
-3.41141e-07
5.94173e-05
8.68353e-06
6.57594e-05
1.23912e-05
8.30087e-05
6.98219e-06
9.61205e-05
2.53865e-07
9.661e-05
-4.36278e-06
9.30319e-05
-6.64055e-06
8.886e-05
-1.12053e-05
9.40069e-05
-1.47494e-05
9.39697e-05
-1.14657e-05
7.50933e-05
-3.8685e-06
6.41663e-05
-1.42193e-06
7.00656e-05
-9.0667e-06
8.01665e-05
-1.19798e-05
7.34721e-05
-9.14683e-06
6.92537e-05
-6.03442e-06
6.85442e-05
-9.52201e-07
6.55854e-05
4.46604e-06
6.9957e-05
7.21064e-06
8.00115e-05
5.79941e-06
8.796e-05
2.0533e-06
8.88785e-05
8.66326e-05
5.15109e-06
8.13685e-05
8.12021e-06
8.54052e-05
1.09393e-05
8.59128e-05
1.3088e-05
8.80967e-05
1.07842e-05
8.81483e-05
5.85186e-06
8.55622e-05
-4.11338e-07
7.41374e-05
-8.38584e-07
5.67069e-05
-1.9946e-06
6.14338e-05
-2.80097e-06
7.10809e-05
2.70096e-06
8.53774e-05
1.89869e-06
9.9588e-05
-2.91091e-06
0.000100901
-4.557e-06
9.47724e-05
-4.37545e-06
8.89351e-05
-6.0657e-06
9.5339e-05
-4.35559e-06
9.3392e-05
-2.7977e-06
7.41902e-05
-4.73391e-07
6.48069e-05
-4.49902e-06
7.67422e-05
-2.23325e-05
9.70235e-05
-2.58593e-05
7.88671e-05
-2.32823e-05
7.12871e-05
-2.13195e-05
7.24351e-05
-1.58872e-05
6.64161e-05
-6.59242e-06
6.54669e-05
-3.04974e-08
7.44813e-05
1.66634e-06
8.48062e-05
3.71818e-07
8.9006e-05
8.5958e-05
7.30848e-06
7.49352e-05
1.32826e-05
7.9605e-05
1.96203e-05
7.99209e-05
2.59787e-05
8.31877e-05
3.29019e-05
8.49836e-05
3.24373e-05
8.96544e-05
2.17208e-05
8.86978e-05
6.18048e-06
7.74068e-05
-2.26535e-06
7.29732e-05
-1.28147e-05
8.19357e-05
-1.13513e-05
9.27421e-05
-6.74843e-06
0.000104109
-6.76045e-06
0.000104957
-6.08139e-06
9.67078e-05
-3.93278e-06
8.9521e-05
-1.61216e-07
9.45228e-05
6.80533e-06
9.08147e-05
9.64162e-06
7.48328e-05
6.75948e-06
6.87605e-05
1.12525e-06
8.46125e-05
-1.88595e-05
0.00011665
-2.12887e-05
8.7597e-05
-2.48849e-05
8.4725e-05
-2.9813e-05
8.85271e-05
-3.19252e-05
7.87079e-05
-2.87118e-05
7.12667e-05
-1.89701e-05
7.34589e-05
-7.42353e-06
8.01959e-05
-2.72429e-06
8.81724e-05
8.63762e-05
7.72747e-06
7.31855e-05
1.73686e-05
7.67184e-05
2.70411e-05
7.82365e-05
3.59505e-05
8.53408e-05
4.58043e-05
8.92519e-05
4.77917e-05
9.9305e-05
3.79767e-05
0.000105668
1.05003e-05
0.000108881
-5.49096e-06
9.46543e-05
-1.65725e-05
9.3142e-05
-2.0853e-05
0.00010082
-1.42025e-05
0.000108578
-8.83822e-06
0.000108993
-6.92167e-06
0.000100323
-4.36544e-06
9.15309e-05
3.97847e-06
9.1979e-05
1.45857e-05
8.68927e-05
1.74201e-05
7.6789e-05
1.27435e-05
7.37209e-05
1.29121e-05
8.72536e-05
5.94925e-06
0.000127253
-1.57547e-06
0.000102105
-1.60638e-05
0.000104368
-3.67605e-05
0.000110745
-4.62149e-05
9.43303e-05
-4.55373e-05
8.08828e-05
-3.51751e-05
7.61007e-05
-1.89622e-05
7.87906e-05
-6.7818e-06
8.76409e-05
8.87298e-05
1.02905e-05
7.08266e-05
2.2811e-05
7.4698e-05
3.44819e-05
7.94825e-05
4.27225e-05
8.96132e-05
4.46468e-05
9.45898e-05
4.41225e-05
0.000100666
3.88332e-05
0.000105631
1.89591e-05
0.000118471
-8.34871e-06
0.00011474
-1.79675e-05
0.000103138
-2.15618e-05
0.000104019
-1.74354e-05
0.000108931
-1.03495e-05
0.000109213
-6.43172e-06
0.000102034
-3.40186e-06
9.28265e-05
5.63276e-06
8.85861e-05
1.52116e-05
8.30569e-05
1.74322e-05
7.78167e-05
1.59503e-05
7.6475e-05
2.21453e-05
8.48501e-05
2.85509e-05
0.000125753
9.7053e-06
0.000115374
-1.32308e-05
0.000112777
-3.33054e-05
0.000111507
-4.38405e-05
9.05403e-05
-4.74752e-05
7.67657e-05
-4.47408e-05
7.28534e-05
-3.2612e-05
7.50174e-05
-1.30716e-05
8.2326e-05
9.01852e-05
1.88527e-05
5.93591e-05
2.72316e-05
6.94886e-05
3.02432e-05
7.39691e-05
3.17281e-05
7.75937e-05
3.13739e-05
7.89642e-05
3.45122e-05
8.20931e-05
3.93929e-05
8.72328e-05
4.02446e-05
0.000104405
1.86966e-05
0.000119959
-3.20191e-06
0.000114245
-1.02592e-05
0.000108567
-1.17523e-05
0.000109654
-1.10811e-05
0.000109147
-7.33474e-06
0.00010042
-3.61478e-06
9.13788e-05
3.45748e-06
8.46876e-05
1.056e-05
7.94768e-05
1.49142e-05
7.69328e-05
1.72232e-05
7.68423e-05
2.03802e-05
8.51806e-05
1.78931e-05
0.000124861
-7.23244e-06
0.000126289
-2.77536e-05
0.000119005
-3.66826e-05
0.000107341
-4.62774e-05
8.37289e-05
-4.82505e-05
6.12471e-05
-4.09898e-05
5.02627e-05
-2.81385e-05
5.20178e-05
-1.28284e-05
6.1812e-05
7.39918e-05
1.23723e-05
4.20451e-05
1.59532e-05
5.32492e-05
1.86806e-05
5.61321e-05
2.25671e-05
6.02743e-05
2.85708e-05
6.26031e-05
3.89556e-05
6.34561e-05
5.31296e-05
6.6673e-05
6.91186e-05
8.26721e-05
6.96571e-05
0.000110444
4.80204e-05
0.000121797
2.47575e-05
0.000118411
6.87382e-06
0.000115675
-2.18817e-06
0.000110434
-4.38274e-06
0.000100984
-5.39626e-06
9.10345e-05
-5.49253e-07
8.28665e-05
6.44526e-06
7.79062e-05
1.2342e-05
7.62587e-05
1.20503e-05
7.90454e-05
-4.86013e-06
0.000102771
-2.49871e-05
0.00013816
-4.39827e-05
0.000137862
-5.02166e-05
0.00012074
-4.94089e-05
0.000102566
-5.25772e-05
8.13618e-05
-4.92734e-05
5.2198e-05
-4.03701e-05
3.43726e-05
-2.81948e-05
3.09658e-05
-1.58342e-05
3.85966e-05
4.60571e-05
2.52048e-06
3.03031e-05
3.63517e-06
4.34811e-05
7.85052e-06
4.61588e-05
1.58092e-05
4.83494e-05
2.71531e-05
4.86484e-05
4.36226e-05
4.57688e-05
6.29694e-05
4.64265e-05
8.33173e-05
6.02804e-05
9.87709e-05
9.03971e-05
0.000100328
0.000111804
8.15567e-05
0.000123733
5.3935e-05
0.000126507
3.15006e-05
0.000115542
1.71005e-05
0.000100084
7.30069e-06
9.1399e-05
4.87146e-06
8.13037e-05
4.68193e-06
7.76682e-05
1.99729e-06
7.81256e-05
-1.3255e-05
9.16794e-05
-4.73321e-05
0.00012719
-6.60144e-05
0.000150628
-6.83973e-05
0.000138032
-6.38325e-05
0.000114385
-5.90666e-05
9.52852e-05
-5.30199e-05
7.35964e-05
-4.2752e-05
4.15191e-05
-3.23435e-05
2.36642e-05
-2.25778e-05
2.05085e-05
-1.68354e-05
3.0771e-05
2.8012e-05
9.55145e-07
2.73008e-05
2.92184e-06
3.96621e-05
9.56343e-06
3.89095e-05
1.7193e-05
4.01318e-05
2.67073e-05
3.89967e-05
4.04029e-05
3.33545e-05
5.77778e-05
3.06618e-05
7.77232e-05
3.97775e-05
9.80383e-05
6.69775e-05
0.000107113
9.74832e-05
0.000105967
0.000118061
9.65352e-05
0.000127869
8.16563e-05
0.00012088
6.27249e-05
0.000107364
4.41434e-05
9.68529e-05
2.68318e-05
8.36923e-05
1.04209e-05
7.84285e-05
-1.07723e-05
8.40072e-05
-4.11941e-05
0.000107258
-6.89697e-05
0.000141358
-8.21964e-05
0.000155564
-8.02167e-05
0.000134068
-6.94493e-05
0.000104176
-5.53094e-05
8.1161e-05
-4.19844e-05
5.90146e-05
-3.10995e-05
2.95275e-05
-2.22558e-05
1.51473e-05
-1.54331e-05
1.46813e-05
-1.26005e-05
2.67816e-05
1.79515e-05
3.45845e-06
2.4611e-05
5.40364e-06
3.8195e-05
1.05815e-05
3.48314e-05
1.63845e-05
3.55725e-05
2.28992e-05
3.43646e-05
3.01076e-05
2.85636e-05
3.98561e-05
2.31562e-05
5.54392e-05
2.44928e-05
7.86154e-05
4.13084e-05
9.31509e-05
7.8344e-05
9.93223e-05
0.000107851
9.93381e-05
0.000125248
9.60567e-05
0.000121981
8.75258e-05
0.000112738
7.46264e-05
0.000104
5.26599e-05
9.71737e-05
2.40814e-05
9.67846e-05
-8.04048e-06
0.000105224
-3.75004e-05
0.000125818
-5.6178e-05
0.00014981
-6.89958e-05
0.000156867
-7.32928e-05
0.000131903
-6.18789e-05
9.33971e-05
-4.24776e-05
6.36876e-05
-2.79355e-05
4.35825e-05
-1.8533e-05
1.88029e-05
-1.22853e-05
8.34011e-06
-8.87684e-06
1.0855e-05
-4.26389e-06
1.93278e-05
1.56334e-05
1.08717e-06
2.47161e-05
3.93644e-06
3.6702e-05
8.04613e-06
3.20808e-05
1.30116e-05
3.22405e-05
1.82846e-05
3.10558e-05
2.1475e-05
2.69527e-05
2.34203e-05
2.21682e-05
2.91529e-05
1.92957e-05
4.51121e-05
2.39296e-05
6.70596e-05
5.33871e-05
8.08791e-05
9.08857e-05
8.63258e-05
0.000117913
8.71779e-05
0.000120217
8.48924e-05
0.000114427
7.74118e-05
0.000110412
6.09616e-05
0.000111685
3.76009e-05
0.000117907
1.18942e-05
0.000128614
-9.32704e-06
0.000144524
-2.33029e-05
0.000159914
-3.65399e-05
0.000161211
-5.00884e-05
0.000133846
-4.73455e-05
8.68432e-05
-3.00559e-05
4.75698e-05
-1.56032e-05
2.86535e-05
-7.07106e-06
9.79521e-06
-4.21297e-06
4.69412e-06
-4.32253e-06
8.79626e-06
-3.19849e-07
1.37171e-05
1.56464e-05
-9.25679e-07
2.57261e-05
2.58007e-06
3.42079e-05
5.9118e-06
2.99594e-05
9.76267e-06
2.97255e-05
1.3168e-05
2.87741e-05
1.41981e-05
2.64e-05
1.30814e-05
2.32755e-05
1.19653e-05
2.02697e-05
1.71282e-05
1.86693e-05
3.70441e-05
3.30796e-05
5.66395e-05
6.97627e-05
6.94596e-05
0.000103745
7.48226e-05
0.000114209
7.72873e-05
0.000111886
7.45944e-05
0.000112699
6.42544e-05
0.000121223
4.79569e-05
0.000133482
2.98367e-05
0.000146125
1.51951e-05
0.000158709
5.71954e-06
0.000168549
-4.75861e-06
0.000167919
-2.24146e-05
0.000140532
-3.15827e-05
8.66482e-05
-1.8771e-05
3.30566e-05
-5.90015e-06
1.59295e-05
-2.71194e-07
4.80017e-06
-6.77511e-07
4.22802e-06
-1.39726e-06
7.74438e-06
5.33771e-07
1.19673e-05
1.73498e-05
-9.84721e-07
2.66453e-05
2.64301e-06
3.086e-05
4.77296e-06
2.80963e-05
7.01208e-06
2.77653e-05
8.73126e-06
2.72051e-05
8.72652e-06
2.61658e-05
6.77009e-06
2.46981e-05
3.34622e-06
2.3057e-05
1.14592e-06
2.09527e-05
1.15662e-05
2.38067e-05
3.37313e-05
4.88751e-05
5.08196e-05
8.65352e-05
6.2083e-05
0.000103044
6.98401e-05
0.00010474
7.27763e-05
0.000109713
6.88488e-05
0.000124579
5.71249e-05
0.000144174
4.18382e-05
0.00016031
2.78613e-05
0.000171805
1.81473e-05
0.000177595
1.03538e-05
0.000174569
-6.04913e-06
0.000150402
-1.65332e-05
8.7461e-05
-7.4407e-06
2.13524e-05
-1.05078e-07
9.95223e-06
2.08484e-06
3.95904e-06
1.15858e-06
4.66285e-06
1.09775e-06
7.82728e-06
1.30358e-06
1.2921e-05
2.06039e-05
-2.02368e-07
2.63792e-05
2.42051e-06
2.76302e-05
3.68158e-06
2.63081e-05
4.71628e-06
2.61523e-05
5.17662e-06
2.6142e-05
4.49336e-06
2.61687e-05
2.35823e-06
2.61133e-05
-1.2427e-06
2.59933e-05
-6.28555e-06
2.55608e-05
-6.41643e-06
2.60338e-05
1.09608e-05
3.53544e-05
3.26732e-05
6.71051e-05
4.62764e-05
9.06807e-05
5.86193e-05
9.3987e-05
6.76488e-05
0.000101908
7.04975e-05
0.000122355
6.32909e-05
0.000151136
4.86989e-05
0.000173644
3.22003e-05
0.000186726
1.83826e-05
0.000190041
7.5544e-06
0.000184129
-3.34359e-06
0.000158035
-3.27844e-06
8.27888e-05
2.91971e-06
1.55674e-05
3.99074e-06
1.00284e-05
4.28354e-06
5.6366e-06
3.7294e-06
5.987e-06
3.4355e-06
8.93877e-06
3.51222e-06
1.49628e-05
2.57418e-05
5.10128e-07
2.54187e-05
2.01498e-06
2.53251e-05
2.67869e-06
2.48092e-05
3.0012e-06
2.49956e-05
2.75229e-06
2.56098e-05
1.58337e-06
2.6602e-05
-7.66644e-07
2.77744e-05
-4.35066e-06
2.90134e-05
-9.52458e-06
3.02801e-05
-1.39809e-05
3.16813e-05
-9.29187e-06
3.58561e-05
1.08822e-05
5.29423e-05
2.75971e-05
7.7431e-05
4.03691e-05
8.46144e-05
5.30346e-05
9.32198e-05
6.11821e-05
0.00011791
5.8783e-05
0.000156418
4.76737e-05
0.00018559
3.01161e-05
0.000203715
1.23128e-05
0.000206823
-2.03672e-06
0.000197337
-7.02166e-06
0.000161948
8.24264e-06
7.09732e-05
1.07228e-05
1.62112e-05
8.29919e-06
1.19458e-05
7.43488e-06
8.52925e-06
7.06097e-06
8.28809e-06
6.96391e-06
1.09818e-05
8.38982e-06
1.74706e-05
3.16538e-05
7.60218e-07
2.42378e-05
1.66033e-06
2.37586e-05
2.03181e-06
2.37004e-05
2.02576e-06
2.43e-05
1.4501e-06
2.55682e-05
-7.8488e-08
2.75873e-05
-2.85045e-06
3.00557e-05
-6.80154e-06
3.26495e-05
-1.19612e-05
3.53467e-05
-1.77125e-05
3.79891e-05
-1.95077e-05
4.19834e-05
-9.84213e-06
5.18254e-05
6.4059e-06
6.90393e-05
1.95001e-05
7.79374e-05
3.2378e-05
8.78305e-05
4.12298e-05
0.000116381
4.17484e-05
0.000162707
3.22154e-05
0.000200645
1.85059e-05
0.0002211
2.63589e-06
0.000225238
-7.43752e-06
0.000209668
-2.45417e-06
0.00016136
1.85998e-05
6.0113e-05
1.58565e-05
2.22547e-05
1.21172e-05
1.46758e-05
1.10521e-05
1.06388e-05
1.21269e-05
1.00039e-05
1.23565e-05
1.24598e-05
7.00043e-06
2.52072e-05
4.07673e-05
8.74812e-07
2.29543e-05
1.57263e-06
2.25339e-05
1.91156e-06
2.27927e-05
1.90549e-06
2.38034e-05
1.32427e-06
2.57911e-05
-4.47648e-07
2.91232e-05
-3.91587e-06
3.3308e-05
-8.61392e-06
3.735e-05
-1.40344e-05
4.10806e-05
-1.95218e-05
4.3989e-05
-2.30775e-05
4.76642e-05
-1.90707e-05
5.52729e-05
-8.94607e-06
6.86196e-05
1.75918e-06
7.76714e-05
9.13126e-06
9.19189e-05
1.01286e-05
0.000125605
1.03228e-05
0.000172519
4.77472e-06
0.000216181
-2.24247e-06
0.000237768
-8.84419e-06
0.000241144
-7.56379e-06
0.000217853
1.41837e-05
0.000153383
2.57498e-05
5.97616e-05
1.82274e-05
3.27572e-05
1.41786e-05
1.96107e-05
1.39784e-05
1.17163e-05
1.61539e-05
9.57142e-06
1.54283e-05
1.71553e-05
3.51476e-06
3.57971e-05
4.33136e-05
1.05713e-06
2.1597e-05
1.84745e-06
2.13284e-05
2.447e-06
2.17543e-05
2.80899e-06
2.31049e-05
2.74399e-06
2.59659e-05
9.38952e-07
3.1251e-05
-3.961e-06
3.83337e-05
-1.03335e-05
4.38559e-05
-1.64579e-05
4.75078e-05
-2.05627e-05
4.85838e-05
-2.25037e-05
5.01831e-05
-1.9178e-05
5.409e-05
-9.63637e-06
6.4063e-05
-4.33802e-06
8.15375e-05
-1.22548e-05
0.000108853
-2.54829e-05
0.000144163
-2.93911e-05
0.000183882
-2.72503e-05
0.000223768
-2.31736e-05
0.000245966
-1.53965e-05
0.000246908
1.63643e-06
0.000216308
3.42546e-05
0.000141072
3.02437e-05
7.45613e-05
1.50733e-05
5.06261e-05
1.03829e-05
2.75723e-05
1.22294e-05
1.27819e-05
1.20086e-05
1.19645e-05
6.29651e-06
2.45063e-05
-2.49589e-07
4.06406e-05
4.07985e-05
1.30799e-06
2.00804e-05
2.48637e-06
1.98456e-05
3.66426e-06
2.01797e-05
5.02636e-06
2.16086e-05
6.29386e-06
2.51527e-05
5.25484e-06
3.24758e-05
-3.42618e-06
4.51377e-05
-1.36804e-05
5.22512e-05
-2.14422e-05
5.41936e-05
-2.31052e-05
5.02328e-05
-2.17483e-05
4.85592e-05
-1.49925e-05
4.67296e-05
-5.09278e-06
5.45434e-05
-1.50642e-05
8.84761e-05
-3.97113e-05
0.000119607
-5.92128e-05
0.000149465
-6.43683e-05
0.000181472
-5.3252e-05
0.000212627
-3.38405e-05
0.000231899
-1.18246e-05
0.000233215
1.7281e-05
0.000198929
4.15909e-05
0.000129002
2.22115e-05
8.77204e-05
4.39381e-06
5.98188e-05
1.80892e-06
2.87434e-05
2.71007e-06
1.4661e-05
-1.09806e-06
1.80009e-05
-5.38918e-06
2.84517e-05
-2.73046e-06
3.81819e-05
3.82223e-05
1.38428e-06
1.84073e-05
3.30878e-06
1.78401e-05
5.36935e-06
1.76861e-05
8.21312e-06
1.82787e-05
1.01625e-05
2.20574e-05
1.39678e-05
3.74137e-05
2.71807e-06
5.89366e-05
-1.51175e-05
6.62928e-05
-2.74904e-05
6.22678e-05
-2.81445e-05
4.96443e-05
-2.64537e-05
4.52254e-05
-2.14909e-05
4.18598e-05
-2.17957e-05
5.96764e-05
-4.28175e-05
9.79123e-05
-6.06043e-05
0.000120386
-7.1343e-05
0.000142229
-7.35445e-05
0.000166013
-6.11111e-05
0.000186933
-3.85356e-05
0.000200415
-1.05349e-05
0.000198448
1.56961e-05
0.000165882
1.80904e-05
0.000115978
4.18169e-06
8.80716e-05
5.73192e-07
5.7004e-05
-4.69095e-07
2.7357e-05
-3.52916e-06
1.65807e-05
-6.72613e-06
2.03357e-05
-6.0382e-06
2.80204e-05
-2.89585e-06
3.60999e-05
3.64713e-05
7.1035e-07
1.74674e-05
3.9739e-06
1.74237e-05
6.47997e-06
1.51489e-05
1.05236e-05
1.34824e-05
2.42279e-05
1.48273e-05
3.02501e-05
2.66203e-05
2.65262e-05
5.30091e-05
8.09842e-06
7.37445e-05
-1.79903e-05
7.62377e-05
-3.50146e-05
5.79087e-05
-4.51806e-05
5.365e-05
-5.51154e-05
5.81903e-05
-7.05912e-05
7.65886e-05
-7.70068e-05
0.000102029
-7.17585e-05
0.000111944
-6.63589e-05
0.000130611
-6.27707e-05
0.000152064
-5.55703e-05
0.00016638
-4.17907e-05
0.000172595
-2.46387e-05
0.000167076
-1.26645e-05
0.000140041
-1.30337e-05
0.000104556
-5.25864e-06
7.67439e-05
6.73112e-06
4.56749e-05
7.30109e-06
2.63999e-05
2.02023e-06
2.07494e-05
-1.64772e-06
2.36198e-05
-2.3302e-06
2.89918e-05
-1.59537e-06
3.5744e-05
3.54805e-05
2.98606e-07
1.94382e-05
2.15175e-06
2.05508e-05
4.70774e-06
1.63651e-05
1.09154e-05
1.42214e-05
1.92566e-05
9.65244e-06
2.38866e-05
1.54363e-05
3.0711e-05
4.03252e-05
2.54733e-05
7.1634e-05
-6.95105e-07
9.22128e-05
-3.99678e-05
8.28143e-05
-7.53714e-05
7.44753e-05
-9.94807e-05
7.62524e-05
-0.0001077
8.52438e-05
-9.4357e-05
9.38854e-05
-7.95941e-05
0.000101674
-6.64364e-05
0.000118863
-5.90691e-05
0.000142925
-5.47214e-05
0.000157352
-4.84095e-05
0.000159793
-3.99237e-05
0.000150764
-2.87822e-05
0.000122328
-1.59059e-05
8.86984e-05
3.79505e-06
5.93065e-05
1.48452e-05
3.71918e-05
1.42564e-05
2.79452e-05
8.78122e-06
2.62315e-05
3.83509e-06
2.82778e-05
9.48269e-07
3.1616e-05
-2.83771e-08
3.65109e-05
3.53853e-05
-3.97093e-07
2.20031e-05
-1.86926e-06
2.35649e-05
-1.56482e-06
1.97725e-05
-9.60434e-08
1.65294e-05
-3.13449e-06
1.1184e-05
1.56898e-06
1.03563e-05
1.4893e-05
2.71425e-05
1.99279e-05
6.52948e-05
1.983e-06
0.000107265
-3.47301e-05
0.000114048
-7.83749e-05
0.000105099
-0.000107488
9.23435e-05
-0.000111291
8.67968e-05
-9.80712e-05
8.5538e-05
-8.22433e-05
9.28286e-05
-6.67064e-05
0.000108473
-5.82733e-05
0.000136442
-5.41291e-05
0.000152771
-4.949e-05
0.000153577
-3.89057e-05
0.000138568
-2.04825e-05
0.000104216
-2.43131e-08
7.16197e-05
1.71602e-05
4.62198e-05
2.12175e-05
3.53993e-05
1.7807e-05
3.21259e-05
1.21248e-05
3.18123e-05
6.94298e-06
3.30049e-05
3.17934e-06
3.48824e-05
1.2124e-06
3.80191e-05
3.61916e-05
-1.76264e-06
2.39225e-05
-3.93048e-06
2.39744e-05
-6.09344e-06
2.13297e-05
-9.16448e-06
1.85728e-05
-1.28631e-05
1.46551e-05
-1.37377e-05
1.17687e-05
-3.04257e-06
1.85878e-05
9.12146e-06
5.49188e-05
2.35022e-06
0.000113287
-2.24635e-05
0.00013794
-5.47643e-05
0.000132384
-8.14844e-05
0.000108738
-9.27664e-05
9.19535e-05
-8.78173e-05
8.25958e-05
-7.45402e-05
8.5817e-05
-6.45168e-05
0.000105336
-5.65521e-05
0.000132842
-5.0233e-05
0.000147813
-4.33051e-05
0.000146697
-2.5674e-05
0.0001232
-2.51317e-06
8.62579e-05
1.8122e-05
5.70941e-05
2.5028e-05
4.3484e-05
2.31353e-05
3.92743e-05
1.80629e-05
3.75258e-05
1.26582e-05
3.69188e-05
8.01859e-06
3.71804e-05
4.33861e-06
3.8061e-05
1.9111e-06
3.99195e-05
3.76152e-05
-2.49084e-06
2.6408e-05
-4.75695e-06
2.57029e-05
-7.56608e-06
2.37098e-05
-1.12094e-05
2.16972e-05
-1.64398e-05
1.94953e-05
-2.12145e-05
1.7529e-05
-1.79417e-05
1.84774e-05
-1.51571e-06
4.29473e-05
6.31068e-06
0.000107857
-8.42279e-06
0.000152017
-2.90033e-05
0.000151434
-5.34992e-05
0.000126549
-7.11939e-05
0.000101636
-7.48441e-05
8.43042e-05
-6.91651e-05
8.48131e-05
-6.22643e-05
0.000105302
-5.33717e-05
0.000129309
-4.03879e-05
0.000138634
-2.71719e-05
0.000137788
-5.70513e-06
0.000108368
1.53884e-05
7.32566e-05
2.54775e-05
5.3927e-05
2.49295e-05
4.77e-05
2.06387e-05
4.43894e-05
1.57435e-05
4.22463e-05
1.1324e-05
4.09624e-05
7.55501e-06
4.05392e-05
4.47281e-06
4.08018e-05
2.1354e-06
4.18452e-05
3.94071e-05
-2.65549e-06
2.92952e-05
-5.08692e-06
2.80866e-05
-8.27502e-06
2.65453e-05
-1.23296e-05
2.51879e-05
-1.77663e-05
2.44035e-05
-2.40244e-05
2.43253e-05
-2.60309e-05
2.50304e-05
-1.09017e-05
3.49028e-05
7.92515e-06
9.53684e-05
3.45347e-06
0.000157459
-8.30092e-06
0.000164161
-2.98716e-05
0.000144817
-4.95724e-05
0.000114076
-6.08108e-05
9.18019e-05
-6.17647e-05
8.76884e-05
-5.49756e-05
0.000102604
-4.22542e-05
0.00012217
-2.56119e-05
0.000128617
-5.81779e-06
0.000126535
1.33122e-05
9.90848e-05
2.50143e-05
7.11224e-05
2.57844e-05
5.82924e-05
2.18528e-05
5.26635e-05
1.72336e-05
4.88219e-05
1.30655e-05
4.60655e-05
9.46123e-06
4.41666e-05
6.39983e-06
4.31955e-05
3.92555e-06
4.30171e-05
2.04028e-06
4.35274e-05
4.13553e-05
-2.93808e-06
3.24936e-05
-5.8625e-06
3.10791e-05
-9.2056e-06
2.96349e-05
-1.3115e-05
2.86374e-05
-1.81546e-05
2.89537e-05
-2.45111e-05
3.04897e-05
-2.93914e-05
3.27731e-05
-2.11656e-05
3.65427e-05
2.99141e-06
8.12501e-05
9.819e-06
0.000155245
6.14079e-06
0.000171576
-9.24978e-06
0.000160117
-2.84857e-05
0.000128995
-4.41321e-05
0.000102524
-4.63467e-05
8.8687e-05
-3.78883e-05
9.77615e-05
-2.18438e-05
0.000113386
-5.07126e-06
0.000121114
1.55172e-05
0.000117259
2.8334e-05
9.76266e-05
2.88748e-05
7.7089e-05
2.39636e-05
6.46146e-05
1.88641e-05
5.76252e-05
1.45383e-05
5.28754e-05
1.08958e-05
4.93817e-05
7.78449e-06
4.68761e-05
5.18964e-06
4.53701e-05
3.14001e-06
4.4762e-05
1.73335e-06
4.47806e-05
4.29842e-05
-3.16377e-06
3.60814e-05
-6.61833e-06
3.4714e-05
-1.00144e-05
3.29247e-05
-1.34748e-05
3.18303e-05
-1.80849e-05
3.31497e-05
-2.43364e-05
3.64404e-05
-3.19405e-05
4.08707e-05
-3.14686e-05
4.51588e-05
-7.60487e-06
7.09065e-05
7.29719e-06
0.000149953
8.67624e-06
0.000176479
1.82507e-06
0.000170633
-1.43427e-05
0.000143192
-2.39902e-05
0.000108626
-2.43458e-05
9.07693e-05
-1.9633e-05
0.000100646
-7.95479e-06
0.000111154
8.62949e-06
0.000114712
2.68057e-05
0.000109819
3.4404e-05
9.73599e-05
2.9412e-05
8.38935e-05
2.20321e-05
7.20308e-05
1.64689e-05
6.30716e-05
1.23143e-05
5.68528e-05
9.02355e-06
5.24294e-05
6.30969e-06
4.9265e-05
4.11514e-06
4.71936e-05
2.45001e-06
4.60837e-05
1.39409e-06
4.55694e-05
4.40956e-05
-3.01692e-06
3.96451e-05
-7.45305e-06
3.93586e-05
-1.08872e-05
3.65621e-05
-1.34132e-05
3.47861e-05
-1.73598e-05
3.71452e-05
-2.37027e-05
4.25076e-05
-3.33259e-05
4.98263e-05
-4.07535e-05
5.68268e-05
-2.65419e-05
7.27496e-05
-6.14247e-06
0.000144781
-3.17554e-07
0.000179763
2.85521e-06
0.000174561
-2.25718e-07
0.000149575
-2.89194e-06
0.000116585
-6.84277e-06
0.000102311
-8.16453e-06
0.00010862
-1.18487e-06
0.000112801
1.13728e-05
0.000112226
2.43011e-05
0.000105646
2.95034e-05
9.6131e-05
2.60733e-05
8.7512e-05
1.95561e-05
7.79989e-05
1.41216e-05
6.8275e-05
1.02077e-05
6.06226e-05
7.27566e-06
5.51656e-05
4.97286e-06
5.12967e-05
3.16054e-06
4.86609e-05
1.86166e-06
4.69964e-05
1.07086e-06
4.59622e-05
4.4718e-05
-1.49261e-06
4.20483e-05
-8.89849e-06
4.65242e-05
-1.21636e-05
4.0528e-05
-1.28465e-05
3.7472e-05
-1.55103e-05
4.12058e-05
-2.21384e-05
4.90139e-05
-3.27821e-05
5.9261e-05
-4.74071e-05
7.20546e-05
-4.5998e-05
8.38217e-05
-2.12675e-05
0.000138002
-1.02537e-05
0.000180523
1.30017e-06
0.000173552
1.2711e-05
0.000152313
1.35965e-05
0.00012881
5.17292e-06
0.00011882
4.41895e-07
0.000121956
1.79964e-06
0.000121353
7.34729e-06
0.00011593
1.32025e-05
0.000106293
1.6778e-05
9.58436e-05
1.75843e-05
8.74707e-05
1.49743e-05
7.97994e-05
1.11432e-05
7.13979e-05
7.94789e-06
6.34877e-05
5.55693e-06
5.73086e-05
3.72953e-06
5.28351e-05
2.29887e-06
4.97191e-05
1.31999e-06
4.75126e-05
7.38634e-07
4.60044e-05
4.48613e-05
3.51647e-06
3.97326e-05
-1.16486e-05
5.86678e-05
-1.36893e-05
4.18573e-05
-1.52262e-05
4.23809e-05
-1.6434e-05
5.45661e-05
-2.18741e-05
6.38217e-05
-3.00086e-05
7.43786e-05
-4.77771e-05
9.09842e-05
-5.18762e-05
9.66744e-05
-2.95101e-05
0.000130643
-1.41156e-05
0.000176847
6.47499e-06
0.000168457
2.44094e-05
0.000153967
2.68265e-05
0.000142323
1.6719e-05
0.000136773
8.85088e-06
0.00013579
4.43441e-06
0.000130745
3.78931e-06
0.000120862
4.54286e-06
0.000108742
5.94707e-06
9.71888e-05
8.09476e-06
8.7801e-05
8.89703e-06
7.9928e-05
7.49017e-06
7.22785e-05
5.51987e-06
6.48431e-05
3.87831e-06
5.85358e-05
2.59838e-06
5.37339e-05
1.53132e-06
5.03366e-05
8.10472e-07
4.76656e-05
3.99403e-07
4.5738e-05
4.45292e-05
4.57669e-06
3.57652e-05
-1.80324e-05
7.65816e-05
-1.94336e-05
5.07763e-05
-2.13588e-05
5.22817e-05
-2.2544e-05
5.75238e-05
-2.05882e-05
6.13701e-05
-2.1882e-05
7.3664e-05
-3.00877e-05
9.40034e-05
-4.38715e-05
0.000110155
-2.97057e-05
0.000128697
-6.49711e-06
0.000162306
2.25498e-05
0.000157287
3.81197e-05
0.000156047
3.64477e-05
0.000151526
2.63658e-05
0.000149729
1.45728e-05
0.000149099
4.77301e-06
0.00014172
-2.836e-07
0.000127348
-1.43973e-06
0.000111591
-9.85948e-07
9.82329e-05
7.01996e-07
8.78015e-05
2.74748e-06
7.9366e-05
3.52595e-06
7.18766e-05
3.07701e-06
6.48633e-05
2.35202e-06
5.87344e-05
1.69113e-06
5.38969e-05
8.93483e-07
5.05527e-05
3.39541e-07
4.75255e-05
4.72232e-08
4.52351e-05
4.37467e-05
-3.04734e-06
4.0375e-05
-2.10806e-05
8.99749e-05
-3.61192e-05
6.27539e-05
-3.47666e-05
5.10792e-05
-2.76126e-05
4.79766e-05
-1.77155e-05
4.97874e-05
-9.32139e-06
6.29569e-05
-5.16813e-06
8.54856e-05
-1.61673e-05
0.000113951
-1.70827e-05
0.000123139
1.68181e-05
0.000137975
3.91205e-05
0.000148904
4.69878e-05
0.000155572
4.44634e-05
0.000157071
3.39702e-05
0.000159328
1.77766e-05
0.000161489
3.96022e-06
0.000151863
-4.78148e-06
0.00013444
-6.70993e-06
0.000113793
-5.87952e-06
9.83838e-05
-4.45961e-06
8.71961e-05
-2.4484e-06
7.82733e-05
-5.08974e-07
7.05445e-05
5.48255e-07
6.36923e-05
9.61484e-07
5.78229e-05
1.05079e-06
5.32128e-05
4.01316e-07
5.0466e-05
-7.722e-08
4.71933e-05
-3.61617e-07
4.46567e-05
4.25258e-05
-5.3582e-06
4.64034e-05
-1.23024e-05
9.17754e-05
-2.53864e-05
6.96749e-05
-2.32018e-05
4.60889e-05
-1.40039e-05
4.03584e-05
-4.54168e-06
4.39069e-05
7.34818e-06
5.57204e-05
2.02699e-05
7.68518e-05
2.32557e-05
0.000112745
1.2872e-05
0.00012742
3.71194e-05
0.000120947
4.89837e-05
0.000142853
5.30444e-05
0.000154349
4.9504e-05
0.000158297
3.59659e-05
0.000164895
1.85665e-05
0.000168004
5.26002e-06
0.000155181
-6.4764e-06
0.000137684
-1.04191e-05
0.000115532
-9.81203e-06
9.7713e-05
-8.22907e-06
8.63236e-05
-6.60631e-06
7.70115e-05
-4.38179e-06
6.87537e-05
-2.27041e-06
6.16249e-05
-5.95259e-07
5.57478e-05
5.14167e-07
5.14686e-05
9.25873e-08
5.00653e-05
-3.33995e-07
4.67817e-05
-1.10786e-06
4.45809e-05
4.09183e-05
-4.41473e-06
5.3562e-05
-2.26549e-06
8.99387e-05
4.99068e-07
6.90262e-05
2.25316e-06
4.56669e-05
4.43894e-06
4.0177e-05
6.81787e-06
4.51459e-05
1.30036e-05
5.46309e-05
2.69599e-05
7.0816e-05
3.75702e-05
0.00011002
4.90072e-05
0.000127347
5.67819e-05
0.000122468
5.82601e-05
0.000145435
5.48369e-05
0.000156566
4.31956e-05
0.000161077
2.71147e-05
0.000169119
1.68602e-05
0.000170982
9.04086e-06
0.000158409
-9.16601e-07
0.000140253
-8.14613e-06
0.000116379
-1.109e-05
9.91179e-05
-1.14268e-05
8.65124e-05
-1.01824e-05
7.64502e-05
-8.15121e-06
6.69586e-05
-5.65241e-06
5.92027e-05
-2.95978e-06
5.28156e-05
-3.83867e-07
4.84284e-05
2.65139e-07
4.87568e-05
7.16733e-08
4.61369e-05
-2.50708e-06
4.65891e-05
3.84149e-05
-1.01169e-05
6.71485e-05
1.08705e-05
7.87597e-05
2.02225e-05
6.63419e-05
2.11129e-05
4.92754e-05
1.81928e-05
4.58409e-05
1.5004e-05
5.03458e-05
1.52988e-05
5.67677e-05
2.21137e-05
6.80516e-05
4.00039e-05
9.86281e-05
7.29372e-05
0.00011979
7.10616e-05
0.000140876
6.02472e-05
0.000159343
4.18279e-05
0.000165232
2.32881e-05
0.000168715
1.61524e-05
0.000170572
1.67716e-05
0.00016909
1.73823e-05
0.000159354
1.51027e-05
0.000145366
5.84964e-06
0.000124216
-7.87988e-06
0.00011033
-1.41001e-05
9.24564e-05
-1.46761e-05
7.79689e-05
-1.22627e-05
6.57093e-05
-9.79126e-06
5.70004e-05
-6.89752e-06
4.98934e-05
-2.93242e-06
4.44679e-05
1.01527e-06
4.49993e-05
2.72256e-06
4.48141e-05
-5.34979e-06
5.86059e-05
3.42926e-05
-1.02979e-05
7.88817e-05
1.69626e-05
6.12343e-05
3.03243e-05
5.82833e-05
3.15899e-05
5.29901e-05
2.61955e-05
5.32939e-05
2.05215e-05
5.73134e-05
1.84642e-05
5.98638e-05
2.16826e-05
6.41789e-05
4.57093e-05
8.53891e-05
7.853e-05
0.000110792
6.84511e-05
0.000151942
4.07271e-05
0.000171029
1.78102e-05
0.000171196
4.39877e-06
0.000170466
9.52882e-06
0.000164887
1.82892e-05
0.00016181
2.59127e-05
0.000155089
2.92843e-05
0.000146553
2.47033e-05
0.000131772
-2.358e-07
0.000134983
-1.80054e-05
0.00011421
-2.18687e-05
7.979e-05
-1.78047e-05
6.34366e-05
-1.4759e-05
5.49833e-05
-1.21949e-05
4.77002e-05
-8.13031e-06
4.09889e-05
2.07776e-07
3.71321e-05
7.62802e-06
3.78607e-05
-1.1693e-05
7.50729e-05
3.11722e-05
3.99925e-06
7.40498e-05
2.33563e-05
4.5391e-05
3.59283e-05
4.92948e-05
3.76267e-05
5.38044e-05
3.20921e-05
6.07878e-05
2.2564e-05
6.93359e-05
1.85432e-05
6.6009e-05
2.60708e-05
5.87964e-05
5.66568e-05
6.54623e-05
8.60355e-05
9.52697e-05
6.64023e-05
0.000153474
3.31437e-05
0.000167795
1.11331e-05
0.000168019
1.4375e-06
0.000165093
7.11517e-06
0.000153626
1.84247e-05
0.000150199
2.61916e-05
0.000147815
2.60759e-05
0.000145826
1.7741e-05
0.000141609
-1.23795e-05
0.000155255
-3.89952e-05
0.000126148
-2.84858e-05
7.12197e-05
-2.38079e-05