/*--------------------------------*- C++ -*----------------------------------*\
| =========                 |                                                 |
| \\      /  F ield         | OpenFOAM: The Open Source CFD Toolbox           |
|  \\    /   O peration     | Version:  v1606+                                |
|   \\  /    A nd           | Web:      www.OpenFOAM.com                      |
|    \\/     M anipulation  |                                                 |
\*---------------------------------------------------------------------------*/
FoamFile
{
    version     2.0;
    format      ascii;
    class       volVectorField;
    location    "1.67";
    object      U.particlesMean;
}
// * * * * * * * * * * * * * * * * * * * * * * * * * * * * * * * * * * * * * //

dimensions      [0 1 -1 0 0 0 0];

internalField   nonuniform List<vector> 
6000
(
(-0.006869 -0.341014 0)
(0.000720826 -0.373147 0)
(0.0119215 -0.37462 0)
(0.0190227 -0.383222 0)
(0.0214886 -0.397757 0)
(0.0204956 -0.414945 0)
(0.0180402 -0.431445 0)
(0.013195 -0.441463 0)
(0.00852479 -0.443374 0)
(0.00459675 -0.4487 0)
(0.000970001 -0.449991 0)
(-0.00151673 -0.452261 0)
(-0.00349554 -0.456021 0)
(-0.00613853 -0.459505 0)
(-0.00887231 -0.460598 0)
(-0.0117272 -0.459897 0)
(-0.0142546 -0.458402 0)
(-0.0162511 -0.457626 0)
(-0.0183888 -0.46115 0)
(-0.0221173 -0.456105 0)
(-0.0283009 -0.445418 0)
(-0.0345044 -0.427647 0)
(-0.038299 -0.411962 0)
(-0.039549 -0.398855 0)
(-0.0390588 -0.38484 0)
(-0.0351413 -0.370512 0)
(-0.0272202 -0.359083 0)
(-0.015658 -0.355774 0)
(-0.00206591 -0.35925 0)
(0.00591606 -0.333575 0)
(0.020422 0.0294232 0)
(0.0154369 0.050951 0)
(0.0271602 0.0514429 0)
(0.0393443 0.0562383 0)
(0.0467408 0.0638562 0)
(0.0468109 0.0698763 0)
(0.0377905 0.0708249 0)
(0.0244764 0.0701922 0)
(0.0131991 0.069399 0)
(0.00523948 0.068537 0)
(-0.00124011 0.0671275 0)
(-0.00496289 0.0663338 0)
(-0.00765139 0.0623668 0)
(-0.010782 0.0584107 0)
(-0.0131152 0.0547204 0)
(-0.0144206 0.0547986 0)
(-0.0161596 0.0580439 0)
(-0.0202257 0.061577 0)
(-0.0278092 0.0671326 0)
(-0.0375351 0.0701698 0)
(-0.0474692 0.0682171 0)
(-0.0552253 0.0690571 0)
(-0.0639708 0.0686369 0)
(-0.068991 0.0632485 0)
(-0.0673035 0.055402 0)
(-0.0574766 0.0489996 0)
(-0.0410906 0.0438051 0)
(-0.0237269 0.0447194 0)
(-0.0108427 0.0484922 0)
(-0.0181833 0.0319207 0)
(0.00517051 -0.0515253 0)
(0.00846081 -0.0596313 0)
(0.0204655 -0.0666243 0)
(0.0315442 -0.0621007 0)
(0.0414596 -0.0485765 0)
(0.0466035 -0.0318964 0)
(0.042969 -0.0201257 0)
(0.0336818 -0.015906 0)
(0.0239243 -0.0214891 0)
(0.0145186 -0.0254586 0)
(0.00549965 -0.0309196 0)
(-0.00159795 -0.0350363 0)
(-0.0071634 -0.0347136 0)
(-0.0124523 -0.0346476 0)
(-0.0153482 -0.036194 0)
(-0.0179108 -0.0367916 0)
(-0.0210889 -0.0350809 0)
(-0.0265424 -0.0316138 0)
(-0.0356993 -0.0259071 0)
(-0.0464755 -0.022448 0)
(-0.057664 -0.020291 0)
(-0.0649146 -0.0209414 0)
(-0.0680392 -0.0237458 0)
(-0.0695403 -0.0334125 0)
(-0.0646508 -0.0494542 0)
(-0.0505921 -0.0647757 0)
(-0.0339591 -0.0713042 0)
(-0.0198486 -0.0701501 0)
(-0.00667323 -0.0564686 0)
(-0.0072453 -0.0462866 0)
(0.0078106 -0.0538423 0)
(0.00938862 -0.0589629 0)
(0.0137555 -0.0603017 0)
(0.0188857 -0.0544994 0)
(0.0321607 -0.0425526 0)
(0.0423007 -0.028229 0)
(0.0485483 -0.0143522 0)
(0.0473729 -0.00623426 0)
(0.0395134 -0.00230333 0)
(0.0272784 -0.0018875 0)
(0.0146374 -0.00410589 0)
(0.00203422 -0.00509294 0)
(-0.00904917 -0.00698424 0)
(-0.014436 -0.0144894 0)
(-0.0150449 -0.0210399 0)
(-0.0155348 -0.0205941 0)
(-0.0179624 -0.0137692 0)
(-0.0253462 -0.00532894 0)
(-0.0390987 0.00133736 0)
(-0.0540421 0.00282674 0)
(-0.065709 0.000330526 0)
(-0.0718991 -0.00593167 0)
(-0.0721698 -0.0142767 0)
(-0.0688493 -0.0281425 0)
(-0.0561006 -0.0481298 0)
(-0.0395896 -0.0630867 0)
(-0.0260453 -0.0688098 0)
(-0.0186961 -0.0665584 0)
(-0.0121721 -0.0595137 0)
(-0.00935598 -0.0530885 0)
(0.000986965 -0.0692459 0)
(0.00396691 -0.0760898 0)
(0.0076241 -0.0791579 0)
(0.0114411 -0.0779937 0)
(0.022477 -0.0677469 0)
(0.036348 -0.0533844 0)
(0.0476315 -0.0340341 0)
(0.0537314 -0.019961 0)
(0.051168 -0.00978919 0)
(0.0387591 -0.00538531 0)
(0.024506 -0.00610851 0)
(0.00779571 -0.00813196 0)
(-0.00523705 -0.0149584 0)
(-0.0108034 -0.0293481 0)
(-0.01009 -0.0386544 0)
(-0.00862156 -0.0371389 0)
(-0.00989182 -0.0259512 0)
(-0.0166905 -0.0109244 0)
(-0.0310276 0.000158528 0)
(-0.0471305 0.000150998 0)
(-0.0588154 -0.00705109 0)
(-0.0644444 -0.0169471 0)
(-0.0673621 -0.031862 0)
(-0.0647132 -0.0530209 0)
(-0.0515072 -0.078738 0)
(-0.0362408 -0.0930447 0)
(-0.0223212 -0.0955854 0)
(-0.0150422 -0.0870371 0)
(-0.00885326 -0.0772896 0)
(-0.00389994 -0.0694045 0)
(-0.000432531 -0.0699912 0)
(0.000868535 -0.0768909 0)
(0.0041927 -0.0830926 0)
(0.0119349 -0.0862301 0)
(0.0198658 -0.0786559 0)
(0.033992 -0.0655864 0)
(0.0446309 -0.0465178 0)
(0.0541797 -0.0273625 0)
(0.0539163 -0.010666 0)
(0.0452215 -0.00310133 0)
(0.0312358 -0.00400377 0)
(0.0140433 -0.00908191 0)
(0.000136953 -0.0215273 0)
(-0.00472723 -0.038259 0)
(-0.00412083 -0.048435 0)
(-0.000835895 -0.0461169 0)
(-7.96735e-05 -0.0333816 0)
(-0.00453056 -0.0177421 0)
(-0.0131272 -0.00438087 0)
(-0.0268493 0.00141081 0)
(-0.0398445 -0.0012998 0)
(-0.0510776 -0.0127201 0)
(-0.0586091 -0.0336881 0)
(-0.0599693 -0.0635132 0)
(-0.0494626 -0.0925229 0)
(-0.0343337 -0.10745 0)
(-0.0220821 -0.107425 0)
(-0.0115008 -0.0946607 0)
(-0.00625498 -0.0801493 0)
(-0.00137744 -0.0725191 0)
(-0.000817 -0.0640391 0)
(0.000571229 -0.0784596 0)
(0.00599156 -0.0900583 0)
(0.014561 -0.0954707 0)
(0.0247705 -0.0928445 0)
(0.0369993 -0.0765152 0)
(0.0425752 -0.054105 0)
(0.0506665 -0.0331619 0)
(0.0507779 -0.0106874 0)
(0.0418081 -0.00178653 0)
(0.0310064 -0.00354495 0)
(0.0191385 -0.00885404 0)
(0.0107394 -0.0216089 0)
(0.0055921 -0.0402925 0)
(0.00382276 -0.0534984 0)
(0.00597406 -0.0525152 0)
(0.00709816 -0.0393349 0)
(0.00442038 -0.021369 0)
(-0.00341192 -0.00548556 0)
(-0.0127723 0.00196745 0)
(-0.0233589 0.00354141 0)
(-0.0353607 -0.00732336 0)
(-0.045594 -0.0332766 0)
(-0.0498702 -0.0695562 0)
(-0.0452573 -0.102495 0)
(-0.0328574 -0.118112 0)
(-0.0211494 -0.118389 0)
(-0.0112364 -0.105914 0)
(-0.00450164 -0.0871546 0)
(0.00175257 -0.0706626 0)
(0.000296127 -0.059898 0)
(0.00356172 -0.0768669 0)
(0.0082446 -0.0909741 0)
(0.0190353 -0.103396 0)
(0.0306655 -0.103481 0)
(0.0390816 -0.0861284 0)
(0.0368078 -0.0562452 0)
(0.0377019 -0.0331948 0)
(0.0391534 -0.00861944 0)
(0.0335057 0.00413338 0)
(0.0238158 0.00176628 0)
(0.0182105 -0.00659646 0)
(0.0166771 -0.0208409 0)
(0.0146822 -0.0409694 0)
(0.0119558 -0.0548078 0)
(0.0114138 -0.0549086 0)
(0.0122993 -0.0434455 0)
(0.0107313 -0.023066 0)
(0.00628817 -0.00668153 0)
(-0.000317045 0.00651214 0)
(-0.0102482 0.0113191 0)
(-0.0208817 -0.000844463 0)
(-0.0303458 -0.0289602 0)
(-0.0379313 -0.0657165 0)
(-0.0382103 -0.102307 0)
(-0.0318985 -0.119856 0)
(-0.0254265 -0.120274 0)
(-0.0145341 -0.108899 0)
(-0.00702767 -0.0898417 0)
(0.0015971 -0.0690839 0)
(0.000802703 -0.0602518 0)
(0.00733182 -0.0731034 0)
(0.0114943 -0.0901756 0)
(0.0218639 -0.105534 0)
(0.0315076 -0.10444 0)
(0.0360781 -0.0874383 0)
(0.0270464 -0.0515469 0)
(0.0216008 -0.0250557 0)
(0.0257264 -0.00385026 0)
(0.0263787 0.00963287 0)
(0.0156831 0.0133565 0)
(0.0124771 0.000449421 0)
(0.0172946 -0.019402 0)
(0.0195767 -0.0394999 0)
(0.0182096 -0.0525246 0)
(0.0155911 -0.0535241 0)
(0.0159519 -0.042701 0)
(0.0143815 -0.0192308 0)
(0.0126379 -0.00143231 0)
(0.00876823 0.0174777 0)
(0.000687087 0.0248544 0)
(-0.00970916 0.00852814 0)
(-0.0116546 -0.0208281 0)
(-0.0156423 -0.0578803 0)
(-0.0222815 -0.0951663 0)
(-0.028215 -0.115815 0)
(-0.0279363 -0.117962 0)
(-0.0202652 -0.106986 0)
(-0.0121398 -0.0878893 0)
(0.00148257 -0.0703551 0)
(0.00348792 -0.0590884 0)
(0.0135774 -0.068246 0)
(0.0192702 -0.0845991 0)
(0.0269515 -0.0999202 0)
(0.0293219 -0.0973273 0)
(0.0241926 -0.0737268 0)
(0.0138424 -0.0374156 0)
(0.0073631 -0.014159 0)
(0.0104686 0.00478209 0)
(0.0163074 0.0187318 0)
(0.0121257 0.0184313 0)
(0.0141653 0.00585931 0)
(0.0186937 -0.0158339 0)
(0.0196874 -0.0371604 0)
(0.019879 -0.0521618 0)
(0.0168161 -0.0527095 0)
(0.0170713 -0.0397512 0)
(0.0154301 -0.0149926 0)
(0.0200854 0.00694667 0)
(0.0157632 0.0281334 0)
(0.0081366 0.0319115 0)
(0.00623866 0.016253 0)
(0.00599189 -0.015668 0)
(0.00678169 -0.0512651 0)
(1.57427e-05 -0.0840387 0)
(-0.0164018 -0.106821 0)
(-0.0252665 -0.111801 0)
(-0.0230887 -0.101365 0)
(-0.0174698 -0.0831825 0)
(-0.00180579 -0.0667288 0)
(0.00392802 -0.0596672 0)
(0.0159473 -0.0689271 0)
(0.0243216 -0.0845293 0)
(0.0314107 -0.0960959 0)
(0.0210607 -0.0893529 0)
(0.0103097 -0.0620239 0)
(0.000111562 -0.0277581 0)
(-0.00259476 -0.00488081 0)
(-0.00295934 0.0119115 0)
(0.00417963 0.0288357 0)
(0.00475111 0.027033 0)
(0.00668066 0.0112086 0)
(0.0155205 -0.01662 0)
(0.0235206 -0.0381381 0)
(0.0217035 -0.0499377 0)
(0.0159815 -0.0506726 0)
(0.0166199 -0.0370697 0)
(0.0179796 -0.0130003 0)
(0.0269255 0.014609 0)
(0.0200754 0.0296674 0)
(0.0187347 0.0337031 0)
(0.0234355 0.0180429 0)
(0.0221778 -0.00757561 0)
(0.0252887 -0.0403205 0)
(0.0186649 -0.0729058 0)
(-0.0010075 -0.097525 0)
(-0.0183908 -0.107104 0)
(-0.0198617 -0.0985688 0)
(-0.0179076 -0.083606 0)
(-0.00585911 -0.064554 0)
(0.00331473 -0.0627746 0)
(0.0137972 -0.0753917 0)
(0.0219567 -0.0868367 0)
(0.026578 -0.0950108 0)
(0.0130141 -0.0865262 0)
(-0.00659254 -0.0586315 0)
(-0.0145907 -0.02332 0)
(-0.0161329 0.000227464 0)
(-0.013416 0.0146148 0)
(-0.00710265 0.0292285 0)
(-0.00150098 0.0272241 0)
(-0.000527601 0.0102082 0)
(0.00802423 -0.0189298 0)
(0.0181206 -0.0389494 0)
(0.0200964 -0.048275 0)
(0.0164026 -0.0456047 0)
(0.0162315 -0.0317699 0)
(0.0196084 -0.0109723 0)
(0.0307366 0.0157707 0)
(0.0262064 0.0318251 0)
(0.0253168 0.0347656 0)
(0.0314802 0.0184952 0)
(0.0326884 -0.0063145 0)
(0.0337968 -0.0353121 0)
(0.0296895 -0.0655572 0)
(0.0116282 -0.0898986 0)
(-0.00815354 -0.101698 0)
(-0.0117069 -0.096542 0)
(-0.0109673 -0.0871549 0)
(-0.00533437 -0.0665805 0)
(0.00194125 -0.0651369 0)
(0.0102449 -0.079599 0)
(0.0161858 -0.0906789 0)
(0.0168554 -0.095752 0)
(-0.00176743 -0.0739013 0)
(-0.0229567 -0.0439864 0)
(-0.0271223 -0.0142284 0)
(-0.0250026 0.00662157 0)
(-0.0231446 0.0190727 0)
(-0.0158165 0.0330103 0)
(-0.0101771 0.0307806 0)
(-0.00875262 0.00926966 0)
(0.000320635 -0.0171875 0)
(0.0122034 -0.0369941 0)
(0.0149977 -0.0446575 0)
(0.0128144 -0.0425544 0)
(0.0156478 -0.0321078 0)
(0.0257576 -0.0134461 0)
(0.0338253 0.0185318 0)
(0.0293107 0.037188 0)
(0.0311335 0.0385344 0)
(0.0411531 0.019653 0)
(0.0426719 -0.00431784 0)
(0.0433057 -0.0346099 0)
(0.0399849 -0.0620867 0)
(0.0189703 -0.0816055 0)
(0.00157835 -0.0948393 0)
(-0.00480062 -0.0953309 0)
(-0.00382464 -0.0882484 0)
(-0.00112549 -0.0698712 0)
(0.00085264 -0.0663777 0)
(0.00596836 -0.0816584 0)
(0.00866987 -0.0894806 0)
(0.00476603 -0.0895116 0)
(-0.0145832 -0.0587362 0)
(-0.0311839 -0.0342875 0)
(-0.0303747 -0.0129769 0)
(-0.0286828 0.00669874 0)
(-0.0276468 0.0175121 0)
(-0.0207451 0.0308718 0)
(-0.0106044 0.0289431 0)
(-0.00695731 0.0074347 0)
(-0.00173346 -0.020238 0)
(0.0114178 -0.036912 0)
(0.0127644 -0.0437155 0)
(0.00805978 -0.0410453 0)
(0.00926514 -0.0326225 0)
(0.0206069 -0.0173378 0)
(0.0274461 0.0188748 0)
(0.0294775 0.0412948 0)
(0.034119 0.0406309 0)
(0.0439027 0.0205847 0)
(0.0480243 -0.00583002 0)
(0.0501072 -0.0325208 0)
(0.0436267 -0.057032 0)
(0.0254834 -0.0757217 0)
(0.00943368 -0.0865814 0)
(0.00225446 -0.0923104 0)
(0.000275893 -0.0884182 0)
(0.00115702 -0.0701214 0)
(0.00104676 -0.0649439 0)
(0.00345227 -0.0800058 0)
(0.0042373 -0.0842671 0)
(-0.00323717 -0.083478 0)
(-0.0303101 -0.0473256 0)
(-0.0349584 -0.0286376 0)
(-0.0330441 -0.0112804 0)
(-0.0328222 0.00597184 0)
(-0.0293923 0.0182886 0)
(-0.0223765 0.0301457 0)
(-0.0112948 0.0262617 0)
(-0.00277846 0.00247432 0)
(0.00250574 -0.0240833 0)
(0.0140186 -0.0368692 0)
(0.0143845 -0.0438041 0)
(0.00976514 -0.0406993 0)
(0.00653267 -0.0334203 0)
(0.013201 -0.0220051 0)
(0.0175679 0.0227598 0)
(0.0252277 0.0475543 0)
(0.0307909 0.0467309 0)
(0.0381021 0.0242641 0)
(0.0460345 -0.00661755 0)
(0.0466068 -0.0309016 0)
(0.044158 -0.0519899 0)
(0.0305921 -0.0706813 0)
(0.0183146 -0.0812644 0)
(0.0101081 -0.0851712 0)
(0.00533889 -0.085 0)
(0.00162279 -0.0680932 0)
(0.00025462 -0.0618636 0)
(0.00132476 -0.0772975 0)
(0.00168773 -0.0819652 0)
(-0.00358797 -0.0754061 0)
(-0.0278701 -0.042741 0)
(-0.0324829 -0.0249309 0)
(-0.038357 -0.00880873 0)
(-0.0370486 0.006415 0)
(-0.0299777 0.0201297 0)
(-0.0203522 0.0277322 0)
(-0.0079673 0.022026 0)
(0.0029322 -0.00347469 0)
(0.00354899 -0.0307839 0)
(0.0127023 -0.0431645 0)
(0.019709 -0.0454058 0)
(0.0159879 -0.0421454 0)
(0.0137416 -0.0355689 0)
(0.0103711 -0.0246469 0)
(0.00983226 0.0185108 0)
(0.0204423 0.0467042 0)
(0.0252423 0.049148 0)
(0.0325031 0.0268952 0)
(0.0376656 -0.00452425 0)
(0.0330048 -0.0281227 0)
(0.0376584 -0.0504645 0)
(0.0312233 -0.0661054 0)
(0.0237754 -0.0706069 0)
(0.0134731 -0.0782747 0)
(0.00753542 -0.0771674 0)
(0.00227777 -0.0618438 0)
(-0.000743095 -0.0581187 0)
(-0.000286641 -0.0735493 0)
(-0.000768958 -0.0794515 0)
(-0.005399 -0.0723132 0)
(-0.0199399 -0.0473642 0)
(-0.0269739 -0.0267954 0)
(-0.0340997 -0.0122107 0)
(-0.040313 0.00629488 0)
(-0.0301859 0.0241567 0)
(-0.0172167 0.0283335 0)
(-0.00341143 0.0225418 0)
(0.00800056 0.00138381 0)
(0.0191143 -0.0334495 0)
(0.0132701 -0.0404938 0)
(0.0206436 -0.0407502 0)
(0.0197145 -0.0407761 0)
(0.0215283 -0.0355904 0)
(0.0105372 -0.0297085 0)
(0.00635438 0.0106282 0)
(0.0137578 0.0467651 0)
(0.022699 0.0500373 0)
(0.0321488 0.0258002 0)
(0.0331498 -0.00321975 0)
(0.0299178 -0.0279861 0)
(0.0306128 -0.0555527 0)
(0.0244766 -0.0647806 0)
(0.0178603 -0.0613797 0)
(0.0109448 -0.0651443 0)
(0.00436235 -0.0683276 0)
(0.000266063 -0.0529121 0)
(-1.39108e-05 -0.0584362 0)
(0.0021017 -0.0749322 0)
(0.00198538 -0.0757038 0)
(-0.00342456 -0.0657182 0)
(-0.0181373 -0.0500991 0)
(-0.0287431 -0.0338592 0)
(-0.0357503 -0.0165367 0)
(-0.0373755 0.00220558 0)
(-0.0283935 0.0258778 0)
(-0.0148381 0.0266206 0)
(0.0010128 0.0187783 0)
(0.0139996 0.000829027 0)
(0.0259707 -0.0283614 0)
(0.0239869 -0.0422912 0)
(0.0246097 -0.0442857 0)
(0.0234857 -0.0393836 0)
(0.0278853 -0.0362671 0)
(0.0154918 -0.0329847 0)
(0.0017105 0.00855752 0)
(0.00972966 0.0380177 0)
(0.0207582 0.0432593 0)
(0.0330258 0.022876 0)
(0.0336804 -0.00449172 0)
(0.0311082 -0.0330187 0)
(0.0226842 -0.0563017 0)
(0.0134033 -0.0571714 0)
(0.00450516 -0.0503246 0)
(0.00224215 -0.0549324 0)
(-0.00129206 -0.0617241 0)
(-0.00371807 -0.046469 0)
(0.00118846 -0.0544187 0)
(0.00417184 -0.0836021 0)
(-0.000166925 -0.0788598 0)
(-0.00236288 -0.0630808 0)
(-0.0136819 -0.0528004 0)
(-0.0260884 -0.0387956 0)
(-0.0346032 -0.0291244 0)
(-0.0359464 -0.00698197 0)
(-0.0265037 0.015066 0)
(-0.0125696 0.0123229 0)
(0.0040076 0.00447171 0)
(0.0189835 -0.0114757 0)
(0.0275886 -0.0387392 0)
(0.0324952 -0.0543683 0)
(0.0324101 -0.0581687 0)
(0.026859 -0.0475482 0)
(0.0266991 -0.0440361 0)
(0.0169405 -0.030102 0)
(-2.98973e-05 0.00392035 0)
(0.0125677 0.025718 0)
(0.021176 0.0272864 0)
(0.037279 0.0131294 0)
(0.0373094 -0.0209301 0)
(0.0276348 -0.0489666 0)
(0.0117246 -0.0578723 0)
(0.00127038 -0.0504719 0)
(-0.0065137 -0.0488417 0)
(-0.00449914 -0.0574057 0)
(-0.00693852 -0.0588017 0)
(-0.00760463 -0.0431918 0)
(0.00244284 -0.047135 0)
(0.00619011 -0.0789924 0)
(-0.00237536 -0.0883318 0)
(-0.00995687 -0.0765243 0)
(-0.0200208 -0.0678997 0)
(-0.0293471 -0.0569102 0)
(-0.0396569 -0.0461584 0)
(-0.0374993 -0.0284969 0)
(-0.0221007 -0.0110323 0)
(-0.00635727 -0.01872 0)
(0.00981374 -0.0281937 0)
(0.0209667 -0.0414688 0)
(0.0313326 -0.0682238 0)
(0.0330388 -0.0794471 0)
(0.0333516 -0.0754274 0)
(0.0280434 -0.0611562 0)
(0.0220592 -0.0476948 0)
(0.0134763 -0.0301514 0)
(0.00376755 -0.00247661 0)
(0.0171381 0.0165619 0)
(0.0239526 0.0181829 0)
(0.0394979 -0.00321378 0)
(0.0342227 -0.0460088 0)
(0.0222496 -0.0645107 0)
(0.00892304 -0.0660218 0)
(-0.00203704 -0.060705 0)
(-0.00839082 -0.0629732 0)
(-0.00929148 -0.0714198 0)
(-0.0134758 -0.0659022 0)
(-0.0135545 -0.0492584 0)
(0.00524834 -0.0529448 0)
(0.00494075 -0.0829882 0)
(-0.0083804 -0.100016 0)
(-0.0186783 -0.0958877 0)
(-0.0253849 -0.0899022 0)
(-0.0294918 -0.070645 0)
(-0.0347292 -0.057511 0)
(-0.0338326 -0.0580805 0)
(-0.0177043 -0.0457427 0)
(-0.000314907 -0.0490378 0)
(0.0120181 -0.0557076 0)
(0.024148 -0.0718489 0)
(0.0274593 -0.0940426 0)
(0.0254674 -0.10214 0)
(0.025797 -0.0906379 0)
(0.0214367 -0.073944 0)
(0.0139621 -0.047964 0)
(0.00801223 -0.0299444 0)
(0.00317859 -0.0132627 0)
(0.0131023 0.00548485 0)
(0.026967 -0.00122916 0)
(0.0286671 -0.0249096 0)
(0.0273697 -0.0481208 0)
(0.0164733 -0.0633001 0)
(0.00613745 -0.0687223 0)
(-0.000821996 -0.078453 0)
(-0.00358361 -0.0887202 0)
(-0.00718794 -0.0936202 0)
(-0.0144147 -0.085557 0)
(-0.0146908 -0.0702577 0)
(0.00821904 -0.0927755 0)
(0.000613926 -0.112422 0)
(-0.0175271 -0.106812 0)
(-0.026556 -0.0883634 0)
(-0.029208 -0.0809836 0)
(-0.0297052 -0.0694103 0)
(-0.0237978 -0.0606578 0)
(-0.0226997 -0.07221 0)
(-0.0173615 -0.0747056 0)
(-0.00142793 -0.0675136 0)
(0.0102327 -0.0693023 0)
(0.0213059 -0.0807083 0)
(0.0239149 -0.104085 0)
(0.0231418 -0.109482 0)
(0.0260831 -0.0957359 0)
(0.0193691 -0.0776286 0)
(0.00841324 -0.0448481 0)
(0.00402125 -0.0246436 0)
(0.00331996 -0.0147798 0)
(0.0107038 -0.00519029 0)
(0.0183194 -0.0139478 0)
(0.0176275 -0.0306658 0)
(0.015151 -0.0454894 0)
(0.00697386 -0.0628378 0)
(0.00417088 -0.0727632 0)
(0.00310955 -0.0829596 0)
(0.00230037 -0.0951613 0)
(0.000866145 -0.106769 0)
(-0.00358367 -0.115388 0)
(-0.00892051 -0.10825 0)
(0.00184182 -0.112646 0)
(-0.00621032 -0.118266 0)
(-0.01421 -0.103146 0)
(-0.0189856 -0.0858048 0)
(-0.0218868 -0.0768872 0)
(-0.0207544 -0.0731113 0)
(-0.0151436 -0.066021 0)
(-0.0108543 -0.073471 0)
(-0.0104317 -0.0791524 0)
(-0.00922021 -0.0840925 0)
(0.00760387 -0.0817926 0)
(0.0201744 -0.0860704 0)
(0.0246945 -0.10435 0)
(0.0251901 -0.103749 0)
(0.0257097 -0.0894645 0)
(0.0161298 -0.0652309 0)
(0.00451583 -0.040425 0)
(0.00308553 -0.0195955 0)
(0.00631044 -0.0154209 0)
(0.00862561 -0.0169233 0)
(0.0128154 -0.0196794 0)
(0.00901645 -0.0316502 0)
(0.0065418 -0.0417722 0)
(0.00308837 -0.0603677 0)
(0.000915467 -0.0761281 0)
(0.00227065 -0.0843555 0)
(0.00244752 -0.0956506 0)
(0.00280579 -0.108777 0)
(0.00284757 -0.12127 0)
(-0.00319009 -0.124118 0)
(-0.00167129 -0.112699 0)
(-0.00867157 -0.1137 0)
(-0.0121949 -0.0993599 0)
(-0.0158465 -0.0832515 0)
(-0.013886 -0.0772908 0)
(-0.0101521 -0.0770154 0)
(-0.00676341 -0.0745187 0)
(0.00088323 -0.0746001 0)
(0.00185055 -0.077283 0)
(-0.000262291 -0.0830961 0)
(0.00610522 -0.0827002 0)
(0.0199856 -0.0852483 0)
(0.0233791 -0.098025 0)
(0.0230219 -0.0958048 0)
(0.0225251 -0.0795585 0)
(0.0142174 -0.0485639 0)
(0.00136982 -0.0288958 0)
(0.00482256 -0.0168669 0)
(0.0125998 -0.0139699 0)
(0.0106444 -0.020495 0)
(0.00787882 -0.022007 0)
(0.00138801 -0.0321377 0)
(-0.000745696 -0.0408958 0)
(-0.00342992 -0.0617515 0)
(-0.00792145 -0.0793064 0)
(-0.00278151 -0.0833714 0)
(0.00189258 -0.0922185 0)
(0.0025683 -0.105868 0)
(0.00286665 -0.116901 0)
(0.000318347 -0.120987 0)
(-0.000641067 -0.105522 0)
(-0.00593199 -0.107168 0)
(-0.010999 -0.0943419 0)
(-0.00975084 -0.0822836 0)
(-0.00301164 -0.0791667 0)
(0.00301493 -0.0805781 0)
(0.00674017 -0.0804359 0)
(0.00594721 -0.0775542 0)
(0.0104311 -0.0746181 0)
(0.0110921 -0.0790307 0)
(0.00893051 -0.0850068 0)
(0.011886 -0.087604 0)
(0.0176274 -0.0909487 0)
(0.0201259 -0.0846919 0)
(0.018979 -0.0647936 0)
(0.00798752 -0.0362721 0)
(-0.00161735 -0.0176365 0)
(0.00608771 -0.01218 0)
(0.0164877 -0.0131748 0)
(0.0159314 -0.0183404 0)
(0.00737288 -0.0228365 0)
(-0.000918001 -0.0289166 0)
(-0.00447141 -0.0390057 0)
(-0.0071293 -0.0567208 0)
(-0.0100032 -0.0766664 0)
(-0.00967799 -0.0848923 0)
(-0.00177183 -0.0894276 0)
(0.00187672 -0.100201 0)
(-0.000962672 -0.110999 0)
(0.00124595 -0.112999 0)
(-0.00257233 -0.10197 0)
(-0.00667533 -0.0969447 0)
(-0.00730819 -0.0882722 0)
(0.00152717 -0.0849297 0)
(0.0103863 -0.0846132 0)
(0.0139542 -0.0827873 0)
(0.01766 -0.0824967 0)
(0.0168357 -0.0782048 0)
(0.0179219 -0.074165 0)
(0.0161728 -0.0745039 0)
(0.0149705 -0.0758736 0)
(0.0117647 -0.0806682 0)
(0.0129089 -0.0852474 0)
(0.0170875 -0.0767075 0)
(0.0135951 -0.0498785 0)
(0.00404551 -0.0256004 0)
(-0.000424127 -0.00812551 0)
(0.00804044 -0.00728941 0)
(0.0184874 -0.0112081 0)
(0.0197854 -0.01693 0)
(0.0120714 -0.022176 0)
(-0.00031632 -0.0276867 0)
(-0.0032003 -0.0365701 0)
(-0.00740402 -0.0508624 0)
(-0.00984503 -0.0677809 0)
(-0.0149694 -0.0834618 0)
(-0.0088597 -0.0867967 0)
(0.000318476 -0.0925738 0)
(-0.000431735 -0.0992872 0)
(0.0011143 -0.102542 0)
(-0.00896873 -0.0942131 0)
(-0.00224274 -0.0895961 0)
(0.00226298 -0.0899988 0)
(0.0164128 -0.0910566 0)
(0.0227963 -0.0880529 0)
(0.0256234 -0.084763 0)
(0.0260594 -0.0842591 0)
(0.0269315 -0.0746308 0)
(0.0222717 -0.0717554 0)
(0.0201321 -0.0741883 0)
(0.017103 -0.0724213 0)
(0.0139333 -0.075268 0)
(0.0112041 -0.0785588 0)
(0.0120197 -0.0692159 0)
(0.0108304 -0.0439012 0)
(0.00574046 -0.0216815 0)
(0.00474934 -0.000462911 0)
(0.0120216 -0.00297193 0)
(0.02183 -0.00927074 0)
(0.0209734 -0.0146735 0)
(0.0159748 -0.0204326 0)
(0.00694449 -0.0233484 0)
(0.000876472 -0.0318996 0)
(-0.00907955 -0.0442123 0)
(-0.00727144 -0.0550266 0)
(-0.010666 -0.0744083 0)
(-0.0142931 -0.0870719 0)
(-0.00580936 -0.0908659 0)
(-0.00288799 -0.089048 0)
(0.00398348 -0.0906536 0)
(-0.0117939 -0.0810304 0)
(-0.00370831 -0.083043 0)
(0.00681165 -0.0931703 0)
(0.0203089 -0.0925416 0)
(0.0267321 -0.0871328 0)
(0.0286537 -0.0825151 0)
(0.0298756 -0.0822087 0)
(0.0337387 -0.0726275 0)
(0.027119 -0.0643786 0)
(0.0213168 -0.0706695 0)
(0.0170221 -0.0699888 0)
(0.0124559 -0.0712436 0)
(0.0109377 -0.0708163 0)
(0.00905202 -0.0653213 0)
(0.0103127 -0.040428 0)
(0.00669405 -0.0203937 0)
(0.0116232 0.0058056 0)
(0.0181164 0.00149962 0)
(0.0223785 -0.00790781 0)
(0.0197365 -0.0121765 0)
(0.0159818 -0.0164549 0)
(0.0143126 -0.0199893 0)
(0.00585754 -0.0273835 0)
(-0.0100415 -0.0376499 0)
(-0.00689727 -0.0479537 0)
(-0.00707482 -0.0626245 0)
(-0.0112502 -0.0800703 0)
(-0.00920954 -0.0898076 0)
(-0.0058497 -0.0855328 0)
(0.00369093 -0.0779062 0)
(-0.00436218 -0.0656901 0)
(0.000915768 -0.0812257 0)
(0.00784088 -0.090021 0)
(0.0178798 -0.0916114 0)
(0.0231386 -0.0834499 0)
(0.0247642 -0.0781764 0)
(0.027359 -0.0791452 0)
(0.0295926 -0.0744899 0)
(0.0277288 -0.0622914 0)
(0.0238799 -0.0686298 0)
(0.0149011 -0.0686937 0)
(0.00936021 -0.0700894 0)
(0.00785631 -0.0663758 0)
(0.00672257 -0.0609198 0)
(0.00739678 -0.0359306 0)
(0.0122284 -0.0173732 0)
(0.0178803 0.011872 0)
(0.0228815 0.00537304 0)
(0.0214062 -0.00778636 0)
(0.0178268 -0.0099599 0)
(0.0139791 -0.0119598 0)
(0.0133624 -0.0155836 0)
(0.0106447 -0.0237959 0)
(-0.00629081 -0.0330993 0)
(-0.00659785 -0.0449209 0)
(-0.00561946 -0.0577823 0)
(-0.00919366 -0.0771484 0)
(-0.008056 -0.090289 0)
(-0.00862271 -0.0899217 0)
(-0.00298199 -0.0723436 0)
(0.00249123 -0.0658698 0)
(0.00449042 -0.0808315 0)
(0.00904047 -0.0863707 0)
(0.0155663 -0.085844 0)
(0.0201901 -0.0785111 0)
(0.0228038 -0.0740995 0)
(0.0243642 -0.0743644 0)
(0.0237456 -0.07231 0)
(0.0223806 -0.0598847 0)
(0.02126 -0.0650613 0)
(0.0130531 -0.0670778 0)
(0.00484809 -0.0676603 0)
(0.0032854 -0.0643457 0)
(0.00442675 -0.0588236 0)
(0.00559591 -0.037004 0)
(0.0136342 -0.0142173 0)
(0.0193767 0.0124595 0)
(0.0258882 0.00909952 0)
(0.0219182 -0.00549706 0)
(0.0153384 -0.00842221 0)
(0.0117761 -0.00849447 0)
(0.00891666 -0.0117156 0)
(0.0110108 -0.0204008 0)
(-0.00417258 -0.0326395 0)
(-0.00628228 -0.0441385 0)
(-0.00524927 -0.0569299 0)
(-0.00713293 -0.0749712 0)
(-0.00797675 -0.0935673 0)
(-0.00932097 -0.0973941 0)
(-0.00726932 -0.0823227 0)
(0.00662304 -0.0699524 0)
(0.00754519 -0.0848807 0)
(0.00920212 -0.0876184 0)
(0.0142292 -0.0835834 0)
(0.0197944 -0.0765601 0)
(0.0230146 -0.0715835 0)
(0.0239767 -0.0680376 0)
(0.0185901 -0.0697057 0)
(0.0151324 -0.0628439 0)
(0.0147899 -0.0655083 0)
(0.0109518 -0.0722435 0)
(-0.00166547 -0.0683214 0)
(-0.00252154 -0.0648547 0)
(-0.000320105 -0.0602096 0)
(-0.000804644 -0.0441422 0)
(0.00679194 -0.0143452 0)
(0.0179311 0.0113057 0)
(0.025913 0.0104081 0)
(0.0255373 0.00166755 0)
(0.0133093 -0.0085571 0)
(0.00692501 -0.0145394 0)
(0.00447008 -0.0103994 0)
(0.00542504 -0.0161116 0)
(-0.00241028 -0.0283161 0)
(-0.00637775 -0.0437922 0)
(-0.00642435 -0.0579038 0)
(-0.00806887 -0.0780455 0)
(-0.010171 -0.0986321 0)
(-0.0092277 -0.106697 0)
(-0.00853915 -0.0916703 0)
(0.00830687 -0.0800091 0)
(0.00942329 -0.0905814 0)
(0.0100121 -0.0888723 0)
(0.0145191 -0.0823762 0)
(0.0184186 -0.0753179 0)
(0.0218218 -0.0698303 0)
(0.020547 -0.0660434 0)
(0.0153368 -0.065611 0)
(0.00977319 -0.064815 0)
(0.00745499 -0.0650224 0)
(0.00772385 -0.0759921 0)
(-0.00529519 -0.0788824 0)
(-0.00890897 -0.0674928 0)
(-0.00646235 -0.0633013 0)
(-0.00632271 -0.0527881 0)
(-0.00108172 -0.0257672 0)
(0.0161394 0.0023871 0)
(0.0281985 0.00658471 0)
(0.0314136 0.00150541 0)
(0.0173994 -0.0195182 0)
(0.00396461 -0.0131115 0)
(0.00263043 -0.00388658 0)
(0.0023611 -0.0086944 0)
(0.00384877 -0.0220614 0)
(-0.00313903 -0.0393298 0)
(-0.00625989 -0.0574443 0)
(-0.00893553 -0.0797034 0)
(-0.0106905 -0.102748 0)
(-0.00927109 -0.113898 0)
(-0.00833638 -0.103143 0)
(0.00824374 -0.087792 0)
(0.00953795 -0.0925501 0)
(0.00991739 -0.0874083 0)
(0.0130552 -0.0803458 0)
(0.0158288 -0.0741744 0)
(0.0193744 -0.0666526 0)
(0.0163435 -0.0597973 0)
(0.00955211 -0.0592726 0)
(0.00229911 -0.062033 0)
(0.000343522 -0.0641225 0)
(0.00267181 -0.0765947 0)
(-0.00681592 -0.0830128 0)
(-0.0150822 -0.0805177 0)
(-0.0125466 -0.0670227 0)
(-0.00973817 -0.058731 0)
(-0.00286451 -0.0392935 0)
(0.0116088 -0.0150059 0)
(0.0299528 -0.00913001 0)
(0.0318054 -0.0177352 0)
(0.0221067 -0.0122882 0)
(0.0088597 -0.00367807 0)
(0.00338666 0.00588539 0)
(0.00239264 0.00330003 0)
(0.00635298 -0.0127568 0)
(0.00773624 -0.0314363 0)
(-0.00177571 -0.0518392 0)
(-0.00851166 -0.0797581 0)
(-0.00932745 -0.105655 0)
(-0.00880684 -0.120264 0)
(-0.00762895 -0.112744 0)
(0.00833273 -0.0930623 0)
(0.00978069 -0.094112 0)
(0.00978777 -0.0879721 0)
(0.0108716 -0.078751 0)
(0.0106711 -0.0724371 0)
(0.0115733 -0.0608158 0)
(0.00879617 -0.0502713 0)
(0.00256449 -0.0503246 0)
(-0.00304862 -0.0577045 0)
(-0.00555064 -0.061769 0)
(-0.00010583 -0.0752547 0)
(-0.00868278 -0.0808282 0)
(-0.0170995 -0.0832486 0)
(-0.0161772 -0.0739749 0)
(-0.0133274 -0.0647833 0)
(-0.00338579 -0.0484235 0)
(0.0111832 -0.0356409 0)
(0.022724 -0.0557634 0)
(0.0234477 -0.0359727 0)
(0.0232554 -0.00928849 0)
(0.0153898 0.00802263 0)
(0.0090507 0.0186266 0)
(0.004379 0.0139006 0)
(0.00972804 -0.00158094 0)
(0.0140642 -0.0236794 0)
(0.00993622 -0.0427281 0)
(-0.00310066 -0.0760963 0)
(-0.00915179 -0.108754 0)
(-0.00865299 -0.124392 0)
(-0.00609227 -0.120673 0)
(0.0100311 -0.100057 0)
(0.00957238 -0.0990786 0)
(0.0102696 -0.0888543 0)
(0.0112766 -0.076287 0)
(0.00373891 -0.0682998 0)
(-0.000692328 -0.0569244 0)
(-0.00157789 -0.0474231 0)
(-0.0025904 -0.0496492 0)
(-0.0118971 -0.0614657 0)
(-0.0124708 -0.062676 0)
(-0.00494079 -0.0763606 0)
(-0.00751562 -0.0791669 0)
(-0.0195357 -0.0827289 0)
(-0.0188056 -0.0790408 0)
(-0.017574 -0.0701408 0)
(-0.00554934 -0.0569807 0)
(0.00680695 -0.0590002 0)
(0.014169 -0.0771929 0)
(0.0134094 -0.0498119 0)
(0.0186988 -0.0153858 0)
(0.0161417 0.0136572 0)
(0.0136051 0.0292993 0)
(0.00883069 0.0253917 0)
(0.0145842 0.00772852 0)
(0.0173847 -0.0123838 0)
(0.0152607 -0.0374601 0)
(0.00925369 -0.068075 0)
(-0.00843445 -0.105175 0)
(-0.00938826 -0.123491 0)
(-0.00495839 -0.126152 0)
(0.00835638 -0.109379 0)
(0.0088645 -0.10231 0)
(0.00988543 -0.0881012 0)
(0.00764453 -0.068354 0)
(-0.00581915 -0.0593089 0)
(-0.00683579 -0.0520738 0)
(-0.00599673 -0.059993 0)
(-0.0067266 -0.0808278 0)
(-0.0175011 -0.0952469 0)
(-0.0193699 -0.0863485 0)
(-0.0134626 -0.0839247 0)
(-0.00821438 -0.0790175 0)
(-0.019807 -0.0846309 0)
(-0.0216694 -0.0834941 0)
(-0.0209692 -0.073355 0)
(-0.00984347 -0.062399 0)
(0.0021699 -0.0750081 0)
(0.0034083 -0.0948956 0)
(0.00268262 -0.057402 0)
(0.0118846 -0.0276082 0)
(0.013386 0.0113296 0)
(0.0147148 0.0302913 0)
(0.0141223 0.0283053 0)
(0.0214288 0.0168623 0)
(0.0218309 -0.000573874 0)
(0.0162866 -0.0303232 0)
(0.00194448 -0.0725237 0)
(-0.0102453 -0.10324 0)
(-0.00911119 -0.121326 0)
(-0.00382942 -0.126199 0)
(0.00168624 -0.1203 0)
(0.00820701 -0.104504 0)
(0.00565125 -0.0843225 0)
(0.000809691 -0.0601483 0)
(-0.00715296 -0.0554821 0)
(-0.00553575 -0.0666031 0)
(-0.0154517 -0.0830031 0)
(-0.00951431 -0.112645 0)
(-0.010627 -0.127892 0)
(-0.0167462 -0.117772 0)
(-0.0144028 -0.0974667 0)
(-0.00884237 -0.0840811 0)
(-0.0183594 -0.0867834 0)
(-0.0259932 -0.0857942 0)
(-0.024487 -0.0735385 0)
(-0.0163397 -0.0651083 0)
(-0.00436881 -0.0823378 0)
(-0.00805507 -0.1052 0)
(-0.00621606 -0.0592551 0)
(0.00475107 -0.0317794 0)
(0.0101796 0.00756928 0)
(0.0170301 0.028772 0)
(0.016776 0.0290387 0)
(0.0246814 0.0190571 0)
(0.0236812 0.00184688 0)
(0.0124632 -0.0319542 0)
(-0.00723791 -0.0762478 0)
(-0.0101417 -0.100846 0)
(-0.00956217 -0.122803 0)
(-0.00376359 -0.127903 0)
(-0.00622253 -0.124333 0)
(0.00206438 -0.105959 0)
(-0.00538779 -0.0768225 0)
(-0.0141984 -0.0645792 0)
(-0.0141654 -0.077833 0)
(-0.0106997 -0.10224 0)
(-0.0100125 -0.13142 0)
(-0.00506841 -0.157604 0)
(8.1801e-05 -0.167662 0)
(-0.00304483 -0.147409 0)
(-0.00994271 -0.106397 0)
(-0.00942746 -0.0899114 0)
(-0.0190694 -0.0917872 0)
(-0.0271803 -0.0851728 0)
(-0.0266435 -0.0734494 0)
(-0.0222344 -0.0661773 0)
(-0.00857472 -0.0907279 0)
(-0.0185176 -0.112556 0)
(-0.0194019 -0.0647473 0)
(-0.00835495 -0.0380686 0)
(0.00420344 -0.00253718 0)
(0.0158993 0.0259626 0)
(0.018142 0.0295667 0)
(0.0254533 0.0176421 0)
(0.0278077 0.00493241 0)
(0.0198384 -0.0241723 0)
(-0.00179159 -0.0681218 0)
(-0.00641653 -0.0975962 0)
(-0.00775734 -0.122906 0)
(-0.00280989 -0.131861 0)
(-0.0114878 -0.119973 0)
(-0.00338277 -0.107058 0)
(-0.0212878 -0.0826307 0)