/*--------------------------------*- C++ -*----------------------------------*\
| =========                 |                                                 |
| \\      /  F ield         | OpenFOAM: The Open Source CFD Toolbox           |
|  \\    /   O peration     | Version:  v1606+                                |
|   \\  /    A nd           | Web:      www.OpenFOAM.com                      |
|    \\/     M anipulation  |                                                 |
\*---------------------------------------------------------------------------*/
FoamFile
{
    version     2.0;
    format      ascii;
    class       volScalarField;
    location    "0.56";
    object      nut.particles;
}
// * * * * * * * * * * * * * * * * * * * * * * * * * * * * * * * * * * * * * //

dimensions      [0 2 -1 0 0 0 0];

internalField   nonuniform List<scalar> 
6000
(
1.56181e-05
1.23407e-05
1.23874e-05
1.24788e-05
1.29385e-05
1.34918e-05
1.41595e-05
1.48148e-05
1.53135e-05
1.53915e-05
1.50403e-05
1.4587e-05
1.36212e-05
1.34415e-05
1.33289e-05
1.33505e-05
1.35687e-05
1.36656e-05
1.46587e-05
1.504e-05
1.53625e-05
1.5256e-05
1.47761e-05
1.41305e-05
1.34595e-05
1.28854e-05
1.23949e-05
1.23098e-05
1.22526e-05
1.54749e-05
8.61635e-06
8.45468e-06
8.24558e-06
8.33549e-06
8.5607e-06
8.95569e-06
9.30062e-06
9.58799e-06
9.68248e-06
9.37273e-06
8.25478e-06
7.51049e-06
7.31202e-06
7.21491e-06
7.19407e-06
7.18863e-06
7.22402e-06
7.33594e-06
7.55249e-06
8.44044e-06
9.46127e-06
9.69266e-06
9.58747e-06
9.29805e-06
8.94176e-06
8.54243e-06
8.32395e-06
8.22752e-06
8.39084e-06
8.55017e-06
1.45577e-05
1.3475e-05
1.32639e-05
1.35719e-05
1.43842e-05
1.5098e-05
1.56809e-05
1.59452e-05
1.62919e-05
1.65113e-05
1.53747e-05
1.31368e-05
1.1694e-05
1.10295e-05
1.07858e-05
1.08248e-05
1.11475e-05
1.18881e-05
1.34931e-05
1.56599e-05
1.65965e-05
1.60682e-05
1.58707e-05
1.56043e-05
1.50245e-05
1.43138e-05
1.3504e-05
1.32013e-05
1.33586e-05
1.43812e-05
7.11922e-06
7.98738e-06
7.93315e-06
7.48161e-06
6.72902e-06
6.02536e-06
5.60425e-06
5.43234e-06
5.76338e-06
7.22753e-06
1.05202e-05
1.36923e-05
1.15751e-05
1.03915e-05
1.00762e-05
1.01439e-05
1.05356e-05
1.1929e-05
1.34404e-05
9.77536e-06
6.79894e-06
5.59757e-06
5.33037e-06
5.57699e-06
6.06504e-06
6.81819e-06
7.65187e-06
8.20805e-06
8.30047e-06
7.39842e-06
2.60751e-06
2.75554e-06
2.71468e-06
2.43858e-06
2.09447e-06
1.83617e-06
1.73092e-06
1.72231e-06
1.80297e-06
2.03749e-06
2.88451e-06
5.74174e-06
1.16891e-05
1.12598e-05
1.04916e-05
1.05659e-05
1.15883e-05
1.06961e-05
4.96907e-06
2.67717e-06
1.97859e-06
1.78375e-06
1.71153e-06
1.72685e-06
1.84583e-06
2.11809e-06
2.47942e-06
2.78871e-06
2.85882e-06
2.69066e-06
1.87314e-06
1.65464e-06
1.50441e-06
1.38539e-06
1.24305e-06
1.13118e-06
1.11842e-06
1.1614e-06
1.20769e-06
1.24415e-06
1.29722e-06
1.71286e-06
3.8067e-06
9.02491e-06
1.04826e-05
1.05936e-05
7.73959e-06
3.23099e-06
1.596e-06
1.28864e-06
1.24854e-06
1.21091e-06
1.16551e-06
1.12207e-06
1.14146e-06
1.26176e-06
1.40079e-06
1.51814e-06
1.68161e-06
1.90774e-06
1.69095e-06
1.77092e-06
1.64295e-06
1.54801e-06
1.3576e-06
1.19375e-06
1.1197e-06
1.12749e-06
1.17667e-06
1.20256e-06
1.20862e-06
1.2085e-06
1.55534e-06
3.11471e-06
5.32725e-06
4.77601e-06
2.59614e-06
1.45188e-06
1.21605e-06
1.21553e-06
1.20853e-06
1.1798e-06
1.12918e-06
1.13173e-06
1.21045e-06
1.38344e-06
1.56845e-06
1.65307e-06
1.80422e-06
1.709e-06
2.01596e-06
2.285e-06
2.43075e-06
2.25333e-06
1.92485e-06
1.61076e-06
1.31825e-06
1.151e-06
1.15413e-06
1.18455e-06
1.17772e-06
1.16757e-06
1.22597e-06
1.72437e-06
2.63116e-06
2.40878e-06
1.55176e-06
1.20051e-06
1.17732e-06
1.18458e-06
1.19104e-06
1.15385e-06
1.16496e-06
1.35414e-06
1.62025e-06
1.92086e-06
2.25338e-06
2.40947e-06
2.32387e-06
2.04519e-06
3.24757e-06
3.46458e-06
4.02008e-06
3.77331e-06
3.21648e-06
2.51934e-06
1.84539e-06
1.3787e-06
1.15391e-06
1.16025e-06
1.15124e-06
1.13618e-06
1.14618e-06
1.5089e-06
2.23533e-06
2.08708e-06
1.41449e-06
1.14175e-06
1.14619e-06
1.15879e-06
1.16265e-06
1.17358e-06
1.42941e-06
1.90813e-06
2.54095e-06
3.12757e-06
3.69627e-06
3.96246e-06
3.46316e-06
3.26175e-06
6.03308e-06
6.49084e-06
7.34323e-06
7.03734e-06
5.83348e-06
4.17269e-06
2.92843e-06
1.99398e-06
1.34757e-06
1.16598e-06
1.1332e-06
1.1214e-06
1.14703e-06
1.4886e-06
2.07364e-06
1.99547e-06
1.41758e-06
1.14245e-06
1.12954e-06
1.15299e-06
1.18965e-06
1.42363e-06
2.12091e-06
2.94001e-06
4.18427e-06
5.79771e-06
7.03071e-06
7.38037e-06
6.54916e-06
6.02897e-06
1.15456e-05
1.31648e-05
6.2941e-05
5.69892e-05
1.23927e-05
8.7069e-06
5.28318e-06
3.21615e-06
1.93747e-06
1.36851e-06
1.23793e-06
1.15763e-06
1.2595e-06
1.60801e-06
2.19417e-06
2.10138e-06
1.52734e-06
1.25232e-06
1.17842e-06
1.30228e-06
1.46057e-06
2.1007e-06
3.33675e-06
5.40644e-06
8.94332e-06
1.46797e-05
8.04982e-05
9.29604e-05
1.65866e-05
1.16739e-05
0.000579737
0.00200346
0.00349677
0.00367918
0.00241559
0.000614699
1.20497e-05
6.18188e-06
3.23944e-06
1.99838e-06
1.61096e-06
1.40941e-06
1.59415e-06
1.95391e-06
2.62341e-06
2.55455e-06
1.91477e-06
1.57857e-06
1.4583e-06
1.72934e-06
2.168e-06
3.50687e-06
6.53274e-06
1.285e-05
0.000844174
0.00308063
0.00455697
0.00434862
0.00256219
0.000741396
0.00674612
0.0128799
0.0160611
0.0163684
0.0140979
0.00903137
0.002603
1.46995e-05
6.51343e-06
3.39692e-06
2.5016e-06
2.07046e-06
2.30041e-06
2.76617e-06
3.36018e-06
3.35872e-06
2.76124e-06
2.28901e-06
2.15407e-06
2.68077e-06
3.68455e-06
7.03111e-06
3.06214e-05
0.00337938
0.01028
0.0153731
0.0174417
0.0172039
0.0141942
0.00793342
0.0227203
0.0280712
0.0278661
0.025176
0.0237543
0.0210997
0.0148747
0.00372986
1.44314e-05
6.68294e-06
4.30337e-06
3.48162e-06
3.6897e-06
4.26534e-06
3.88689e-06
3.83537e-06
4.23372e-06
3.72468e-06
3.67422e-06
4.55094e-06
7.23934e-06
1.91925e-05
0.00492947
0.0155822
0.0203756
0.0219273
0.0235615
0.0264344
0.0275066
0.0231169
0.0334318
0.0334158
0.026281
0.0186799
0.0163768
0.0164744
0.0163684
0.0157309
0.00333806
1.46632e-05
7.85829e-06
6.4327e-06
6.32241e-06
6.62991e-06
5.88001e-06
5.7084e-06
6.50068e-06
6.62305e-06
6.8733e-06
8.37424e-06
1.5945e-05
0.00459631
0.0155025
0.0155881
0.015496
0.0143636
0.0173761
0.0244006
0.0323394
0.0327397
0.0334874
0.0334196
0.0196043
0.0083586
0.0046673
0.00302809
0.00748946
0.0126076
0.0126217
0.00204353
1.55453e-05
1.20296e-05
1.21399e-05
1.62382e-05
1.70494e-05
1.59702e-05
1.48463e-05
1.32688e-05
1.31094e-05
1.67908e-05
0.00275005
0.0112805
0.0113374
0.00672815
0.0035614
0.00494742
0.00874619
0.0190269
0.032777
0.0328449
0.0334875
0.0332779
0.0189589
0.00719112
0.00271553
0.000576552
0.000570974
0.00273415
0.0101736
0.0101364
0.00124517
7.28995e-05
0.000101691
0.00272715
0.00634777
0.00510716
0.00190692
0.000153707
0.00013746
0.00160844
0.00871334
0.0087139
0.00208549
0.000661572
0.000972784
0.00384343
0.00819272
0.0196459
0.0327168
0.0328459
0.0332232
0.00921649
0.0154521
0.00926754
0.00511994
0.000633495
3.99904e-05
4.30767e-05
0.00303463
0.009487
0.0065429
0.000819797
0.000577546
0.00662379
0.0209958
0.0193343
0.00496161
0.000497596
0.000914652
0.00637003
0.00839379
0.00234697
3.8472e-05
0.00014367
0.00173405
0.00621781
0.0100797
0.0183632
0.0193017
0.0327237
0.00702355
0.000557012
0.00397288
0.00648894
0.00519906
0.000667566
3.88521e-05
2.83981e-05
0.000414764
0.00642552
0.0089204
0.00135256
0.000724028
0.00793738
0.0222761
0.0221904
0.00705403
0.000779824
0.00143638
0.00816553
0.00547265
0.000308077
3.86331e-05
0.00018605
0.00210877
0.00593158
0.0069006
0.00773655
0.00225799
0.0178806
2.02957e-05
5.26602e-05
0.00377899
0.00273261
0.00228488
0.000204345
2.94885e-05
2.82383e-05
0.000106936
0.00454987
0.00914846
0.00201816
0.00136805
0.0132168
0.0222452
0.0223685
0.0127399
0.00163335
0.0022016
0.0082924
0.00373267
7.14865e-05
3.80317e-05
0.000108549
0.000858415
0.00289919
0.00236353
0.00385517
5.40897e-05
2.52949e-05
4.97178e-06
1.26638e-05
4.26381e-05
0.000194851
0.000707845
0.000115086
4.27463e-05
2.78667e-05
9.23006e-05
0.00400053
0.00921312
0.00381798
0.00417328
0.0184654
0.0223861
0.0222817
0.0189362
0.00493711
0.0041211
0.00836041
0.00344514
7.16908e-05
3.80586e-05
0.000118502
0.000452319
0.000689201
3.80395e-05
3.21831e-05
9.38726e-06
4.2053e-06
1.91748e-06
1.4667e-06
2.8246e-06
1.05704e-05
2.4363e-05
3.29521e-05
8.7859e-05
0.000119861
0.000111486
0.00345678
0.0100199
0.00811788
0.0120488
0.019314
0.0206391
0.0224264
0.0217555
0.0132581
0.008384
0.00894172
0.00322579
0.000113654
0.000125455
5.03837e-05
3.47518e-05
1.99749e-05
7.83256e-06
2.26228e-06
1.25626e-06
1.91115e-06
2.27397e-06
1.05617e-06
8.71617e-07
1.17265e-06
1.94646e-06
6.47977e-06
1.54745e-05
3.33844e-05
0.000187435
0.00197428
0.0110648
0.0141758
0.019049
0.0191853
0.00702255
0.007812
0.0216491
0.0215385
0.0137964
0.00906693
0.00153742
6.33439e-05
2.70017e-05
1.04296e-05
4.00938e-06
1.54927e-06
1.1e-06
8.70883e-07
1.13862e-06
2.45768e-06
2.52439e-06
1.17322e-06
8.55511e-07
8.11754e-07
7.87274e-07
9.08457e-07
1.21066e-06
2.11167e-06
1.42238e-05
0.000821669
0.0114255
0.0161019
0.018966
0.00627335
3.17132e-05
3.66327e-05
0.0116836
0.0214308
0.0158387
0.00667811
0.000300651
1.1246e-05
1.61123e-06
9.80308e-07
8.12067e-07
7.79951e-07
8.1111e-07
8.6382e-07
1.20516e-06
2.59645e-06
2.50864e-06
1.18302e-06
8.69039e-07
8.10844e-07
7.67407e-07
7.35618e-07
7.11631e-07
6.84279e-07
1.04973e-06
1.10732e-05
0.00535251
0.00703041
0.0113299
4.43163e-05
4.09147e-06
4.80738e-06
5.17207e-05
0.0211312
0.0103629
0.00310968
9.42105e-06
9.74844e-07
6.6868e-07
6.98933e-07
7.28325e-07
7.66037e-07
8.11046e-07
8.74905e-07
1.20231e-06
2.52249e-06
2.25397e-06
1.12965e-06
8.70342e-07
8.0939e-07
7.65709e-07
7.34676e-07
6.98474e-07
6.57735e-07
6.12213e-07
1.0387e-06
1.30228e-05
6.64878e-05
0.00121868
7.25961e-06
1.33062e-06
1.36927e-06
1.01841e-05
0.0192405
0.000246548
1.11045e-05
9.03584e-07
6.01403e-07
6.49986e-07
6.92338e-07
7.26775e-07
7.61622e-07
8.09001e-07
8.76979e-07
1.14522e-06
2.24084e-06
2.04943e-06
1.11397e-06
8.77338e-07
8.06897e-07
7.57442e-07
7.20644e-07
6.83792e-07
6.49969e-07
5.99237e-07
6.17473e-07
1.65264e-06
1.11294e-05
1.1143e-05
1.72336e-06
1.18486e-06
1.17536e-06
2.01013e-06
1.65306e-05
1.21534e-05
1.45754e-06
5.91086e-07
5.90208e-07
6.39303e-07
6.77115e-07
7.15544e-07
7.5228e-07
8.05657e-07
8.83923e-07
1.13266e-06
2.05027e-06
1.92224e-06
1.09936e-06
8.75087e-07
7.88531e-07
7.41752e-07
7.05402e-07
6.78211e-07
6.39555e-07
5.87142e-07
5.80018e-07
9.96161e-07
2.17569e-06
2.40761e-06
1.48139e-06
1.05467e-06
1.05486e-06
1.52674e-06
2.89163e-06
2.23648e-06
9.37809e-07
5.6403e-07
5.76167e-07
6.30981e-07
6.67647e-07
6.99623e-07
7.38703e-07
7.88082e-07
8.79882e-07
1.11367e-06
1.91843e-06
1.70632e-06
1.08823e-06
8.70505e-07
7.78903e-07
7.296e-07
6.971e-07
6.69523e-07
6.34247e-07
5.85056e-07
5.52253e-07
8.77769e-07
2.1369e-06
2.45093e-06
1.36091e-06
9.20432e-07
9.19733e-07
1.36521e-06
2.60362e-06
2.21177e-06
8.46108e-07
5.41521e-07
5.73426e-07
6.23856e-07
6.6212e-07
6.89523e-07
7.25521e-07
7.77402e-07
8.75916e-07
1.10449e-06
1.71512e-06
1.5882e-06
1.0748e-06
8.48458e-07
7.55346e-07
7.11448e-07
6.88972e-07
6.65521e-07
6.35981e-07
5.82529e-07
5.38106e-07
7.76462e-07
2.16108e-06
2.56242e-06
1.27223e-06
8.17687e-07
8.12125e-07
1.22972e-06
2.65256e-06
2.29628e-06
7.74294e-07
5.25786e-07
5.71052e-07
6.24836e-07
6.57409e-07
6.83196e-07
7.07446e-07
7.54944e-07
8.52145e-07
1.08749e-06
1.59319e-06
1.44712e-06
1.04748e-06
8.31036e-07
7.42104e-07
7.06162e-07
6.84022e-07
6.68012e-07
6.39703e-07
5.8621e-07
5.36397e-07
7.19509e-07
2.21916e-06
2.64562e-06
1.18287e-06
7.43347e-07
7.34156e-07
1.10196e-06
2.67285e-06
2.46755e-06
7.38059e-07
5.27098e-07
5.73104e-07
6.2884e-07
6.59657e-07
6.78523e-07
7.01541e-07
7.41465e-07
8.36238e-07
1.06311e-06
1.45706e-06
1.3657e-06
1.02128e-06
8.106e-07
7.29711e-07
6.99615e-07
6.86819e-07
6.74089e-07
6.44165e-07
5.94764e-07
5.44002e-07
6.90458e-07
2.301e-06
2.69873e-06
1.10572e-06
6.85632e-07
6.82034e-07
1.00077e-06
2.65693e-06
2.68632e-06
7.33526e-07
5.37351e-07
5.81204e-07
6.32549e-07
6.6661e-07
6.81665e-07
6.95661e-07
7.27494e-07
8.13633e-07
1.03578e-06
1.37625e-06
1.31959e-06
9.9156e-07
7.95865e-07
7.27477e-07
7.02312e-07
6.93067e-07
6.80262e-07
6.552e-07
6.03326e-07
5.4998e-07
6.81111e-07
2.53365e-06
2.89692e-06
1.05514e-06
6.46307e-07
6.41095e-07
9.43965e-07
2.81313e-06
3.05757e-06
7.39341e-07
5.42334e-07
5.90161e-07
6.43276e-07
6.73075e-07
6.88373e-07
6.98501e-07
7.25485e-07
7.96388e-07
9.99325e-07
1.32458e-06
1.31099e-06
9.57505e-07
7.77831e-07
7.23245e-07
7.08073e-07
6.99757e-07
6.90424e-07
6.65088e-07
6.10625e-07
5.62424e-07
7.0228e-07
2.66699e-06
2.95986e-06
1.00031e-06
6.23762e-07
6.11661e-07
8.90567e-07
2.80015e-06
3.27848e-06
7.76847e-07
5.5726e-07
5.97443e-07
6.53418e-07
6.84231e-07
6.96135e-07
7.05015e-07
7.21386e-07
7.78247e-07
9.59913e-07
1.30389e-06
1.27817e-06
8.86911e-07
7.50899e-07
7.21723e-07
7.12885e-07
7.0652e-07
6.96551e-07
6.7089e-07
6.17997e-07
5.70934e-07
7.14943e-07
2.75058e-06
3.15147e-06
9.87699e-07
6.20177e-07
6.08758e-07
8.50074e-07
2.80681e-06
3.43686e-06
8.21597e-07
5.68233e-07
6.05218e-07
6.59527e-07
6.91628e-07
7.04072e-07
7.10647e-07
7.21462e-07
7.53431e-07
8.9324e-07
1.26609e-06
1.17694e-06
7.97873e-07
7.2546e-07
7.16355e-07
7.14621e-07
7.09462e-07
6.99683e-07
6.74312e-07
6.21359e-07
5.75929e-07
7.17712e-07
2.79141e-06
3.54555e-06
1.04026e-06
6.31929e-07
6.19587e-07
8.76497e-07
3.05789e-06
3.50196e-06
8.38422e-07
5.72567e-07
6.08955e-07
6.6416e-07
6.95069e-07
7.0743e-07
7.13132e-07
7.17942e-07
7.30651e-07
8.09055e-07
1.17383e-06
1.08962e-06
7.53966e-07
7.09469e-07
7.05559e-07
7.14638e-07
7.10532e-07
6.9925e-07
6.73873e-07
6.22246e-07
5.76362e-07
7.01046e-07
2.72031e-06
4.00287e-06
1.1742e-06
6.58371e-07
6.40519e-07
9.48313e-07
3.46846e-06
3.52621e-06
8.37251e-07
5.73555e-07
6.09234e-07
6.64024e-07
6.95417e-07
7.085e-07
7.13252e-07
7.09672e-07
7.14517e-07
7.62704e-07
1.094e-06
1.04143e-06
7.31196e-07
6.9492e-07
6.9777e-07
7.12121e-07
7.07667e-07
6.94689e-07
6.68318e-07
6.15331e-07
5.71468e-07
6.61248e-07
2.62577e-06
4.27483e-06
1.36245e-06
6.90422e-07
6.68506e-07
1.07938e-06
4.06539e-06
3.54137e-06
7.88469e-07
5.68097e-07
6.01969e-07
6.57434e-07
6.90886e-07
7.06052e-07
7.11823e-07
7.01783e-07
7.00229e-07
7.38017e-07
1.04031e-06
1.00352e-06
7.0471e-07
6.79002e-07
6.91129e-07
7.04472e-07
6.99958e-07
6.86267e-07
6.54704e-07
6.02742e-07
5.60766e-07
6.06507e-07
2.38259e-06
4.52047e-06
1.6248e-06
7.13535e-07
7.0059e-07
1.27296e-06
4.39691e-06
3.42291e-06
7.0387e-07
5.57424e-07
5.90233e-07
6.43313e-07
6.82259e-07
6.99013e-07
7.05803e-07
6.94175e-07
6.86109e-07
7.12652e-07
1.00149e-06
9.56479e-07
6.76486e-07
6.64015e-07
6.85595e-07
6.91386e-07
6.845e-07
6.69236e-07
6.31754e-07
5.82356e-07
5.4438e-07
5.57617e-07
1.85672e-06
4.92298e-06
2.05471e-06
8.01426e-07
7.54756e-07
1.59408e-06
4.79247e-06
2.90422e-06
6.1814e-07
5.42415e-07
5.719e-07
6.21021e-07
6.65643e-07
6.85698e-07
6.93973e-07
6.88268e-07
6.70712e-07
6.85611e-07
9.55392e-07
8.97952e-07
6.47911e-07
6.54963e-07
6.77924e-07
6.75671e-07
6.65989e-07
6.46413e-07
6.06698e-07
5.62556e-07
5.29416e-07
5.25275e-07
1.26005e-06
5.30095e-06
2.78057e-06
9.62996e-07
8.77519e-07
2.13344e-06
5.3295e-06
2.07621e-06
5.58945e-07
5.27976e-07
5.54281e-07
5.9807e-07
6.41802e-07
6.68095e-07
6.79147e-07
6.82059e-07
6.59629e-07
6.60589e-07
8.97294e-07
8.45674e-07
6.28811e-07
6.51664e-07
6.6621e-07
6.6357e-07
6.49828e-07
6.2326e-07
5.87414e-07
5.48479e-07
5.18698e-07
5.11327e-07
8.74668e-07
5.13307e-06
3.77431e-06
1.19776e-06
1.07071e-06
2.97019e-06
5.58072e-06
1.37869e-06
5.30262e-07
5.17394e-07
5.4151e-07
5.79671e-07
6.19208e-07
6.50684e-07
6.66466e-07
6.69688e-07
6.54186e-07
6.37918e-07
8.43271e-07
8.0935e-07
6.21358e-07
6.51562e-07
6.59692e-07
6.54127e-07
6.32597e-07
6.00973e-07
5.68901e-07
5.3613e-07
5.11744e-07
5.058e-07
7.39096e-07
4.17015e-06
4.14444e-06
1.45172e-06
1.31259e-06
3.60368e-06
5.35379e-06
1.01416e-06
5.23985e-07
5.11135e-07
5.30611e-07
5.63094e-07
5.96735e-07
6.31276e-07
6.56518e-07
6.62583e-07
6.52724e-07
6.26032e-07
8.03346e-07
7.83773e-07
6.22939e-07
6.52495e-07
6.5346e-07
6.38111e-07
6.08043e-07
5.76424e-07
5.52935e-07
5.25921e-07
5.09042e-07
5.17737e-07
7.29069e-07
3.37617e-06
4.15597e-06
1.58795e-06
1.47739e-06
3.65337e-06
4.32302e-06
9.3885e-07
5.45136e-07
5.13727e-07
5.23356e-07
5.48801e-07
5.72668e-07
6.05682e-07
6.39628e-07
6.56434e-07
6.53707e-07
6.22658e-07
7.73162e-07
7.62115e-07
6.26886e-07
6.49561e-07
6.40782e-07
6.15369e-07
5.84884e-07
5.60001e-07
5.46038e-07
5.29128e-07
5.24123e-07
5.63293e-07
8.84831e-07
3.14076e-06
3.31242e-06
1.57352e-06
1.51501e-06
3.05937e-06
3.67325e-06
1.0655e-06
6.04319e-07
5.37067e-07
5.31075e-07
5.43781e-07
5.56315e-07
5.81899e-07
6.1408e-07
6.41505e-07
6.5151e-07
6.24555e-07
7.47351e-07
7.34728e-07
6.25084e-07
6.42846e-07
6.27797e-07
5.97022e-07
5.71288e-07
5.57163e-07
5.52617e-07
5.51489e-07
5.66684e-07
6.54916e-07
1.16412e-06
2.95181e-06
2.66162e-06
1.52594e-06
1.5232e-06
2.70024e-06
3.24556e-06
1.31894e-06
7.01362e-07
5.8793e-07
5.57496e-07
5.51808e-07
5.54367e-07
5.68164e-07
5.93103e-07
6.25181e-07
6.42075e-07
6.25538e-07
7.19941e-07
7.08567e-07
6.25568e-07
6.27995e-07
6.11839e-07
5.85744e-07
5.68501e-07
5.64768e-07
5.72285e-07
5.89997e-07
6.33381e-07
7.60876e-07
1.42073e-06
2.85497e-06
2.50178e-06
1.60231e-06
1.61503e-06
2.57423e-06
3.10241e-06
1.61481e-06
8.40113e-07
6.58648e-07
6.0073e-07
5.74059e-07
5.61774e-07
5.62732e-07
5.79819e-07
6.06039e-07
6.23004e-07
6.22407e-07
6.94997e-07
6.88531e-07
6.21044e-07
6.09647e-07
5.97776e-07
5.77405e-07
5.76697e-07
5.8921e-07
6.11516e-07
6.46953e-07
7.1646e-07
9.45347e-07
1.7156e-06
2.83314e-06
2.45527e-06
1.75612e-06
1.77918e-06
2.58626e-06
3.10247e-06
1.93341e-06
1.04481e-06
7.47519e-07
6.63945e-07
6.16224e-07
5.85155e-07
5.68847e-07
5.68438e-07
5.88574e-07
6.03992e-07
6.16882e-07
6.74454e-07
6.58721e-07
6.1254e-07
5.97446e-07
5.86526e-07
5.78751e-07
5.99612e-07
6.31799e-07
6.71993e-07
7.27025e-07
8.25429e-07
1.21225e-06
2.08458e-06
2.92105e-06
2.55189e-06
2.00863e-06
2.04056e-06
2.71321e-06
3.20865e-06
2.35067e-06
1.35201e-06
8.9103e-07
7.48101e-07
6.79508e-07
6.29283e-07
5.91805e-07
5.69245e-07
5.73141e-07
5.90554e-07
6.10184e-07
6.53648e-07
6.40333e-07
6.184e-07
5.94849e-07
5.81236e-07
5.9966e-07
6.4882e-07
6.98878e-07
7.53271e-07
8.28882e-07
1.07245e-06
1.6296e-06
2.57032e-06
3.10908e-06
2.78403e-06
2.38827e-06
2.42422e-06
2.95395e-06
3.38722e-06
2.85685e-06
1.80461e-06
1.16576e-06
8.74144e-07
7.65498e-07
7.00727e-07
6.44507e-07
5.97064e-07
5.64795e-07
5.82071e-07
6.11835e-07
6.37366e-07
6.4091e-07
6.37211e-07
6.06723e-07
6.03656e-07
6.58057e-07
7.29133e-07
7.86563e-07
8.87791e-07
1.10258e-06
1.52175e-06
2.28765e-06
3.21549e-06
3.47692e-06
3.21201e-06
2.93294e-06
2.96175e-06
3.33766e-06
3.67948e-06
3.44617e-06
2.46165e-06
1.63582e-06
1.17436e-06
9.28567e-07
7.96005e-07
7.39686e-07
6.74612e-07
5.99239e-07
5.84707e-07
6.25907e-07
6.37537e-07
6.58033e-07
6.75109e-07
6.47466e-07
6.78547e-07
7.67676e-07
8.52543e-07
1.00414e-06
1.24865e-06
1.66234e-06
2.34219e-06
3.31122e-06
4.10072e-06
4.14459e-06
3.93131e-06
3.75378e-06
3.76794e-06
3.98159e-06
4.22717e-06
4.21096e-06
3.44686e-06
2.48072e-06
1.78692e-06
1.35344e-06
1.08803e-06
9.26401e-07
8.23566e-07
7.29859e-07
6.25044e-07
6.48145e-07
6.55543e-07
6.77707e-07
7.28165e-07
7.2584e-07
8.24787e-07
1.00902e-06
1.22645e-06
1.54865e-06
2.05428e-06
2.82411e-06
3.87321e-06
4.9651e-06
5.50555e-06
5.43714e-06
5.28509e-06
5.21669e-06
5.2263e-06
5.29573e-06
5.44295e-06
5.55148e-06
5.1524e-06
4.1759e-06
3.15088e-06
2.35462e-06
1.80354e-06
1.44197e-06
1.21652e-06
1.00286e-06
7.87522e-07
6.91063e-07
6.7181e-07
7.12868e-07
7.67136e-07
8.73766e-07
1.27295e-06
1.67891e-06
2.16743e-06
2.88161e-06
3.94233e-06
5.35738e-06
6.86392e-06
7.9298e-06
8.24632e-06
8.2416e-06
8.2827e-06
8.4227e-06
8.5229e-06
8.53507e-06
8.5999e-06
8.73865e-06
8.69899e-06
7.90589e-06
6.49156e-06
4.97201e-06
3.70718e-06
2.76451e-06
2.09272e-06
1.6042e-06
1.1431e-06
7.95119e-07
6.9894e-07
7.91958e-07
8.64355e-07
1.31201e-06
2.3687e-06
3.3944e-06
4.58652e-06
6.24754e-06
8.34734e-06
1.05313e-05
1.90983e-05
6.99183e-05
0.000124989
0.000185367
0.000266892
0.000371331
0.000461184
0.000504739
0.000521035
0.00051729
0.000459478
0.000251659
5.44486e-05
1.15672e-05
8.96615e-06
6.61295e-06
4.65218e-06
3.09978e-06
1.94924e-06
1.07283e-06
7.71923e-07
9.77564e-07
1.16052e-06
2.54665e-06
5.02256e-06
7.56883e-06
1.02586e-05
2.07888e-05
0.00020103
0.000685192
0.00140457
0.0022538
0.00320285
0.00427726
0.00542809
0.00657785
0.00762139
0.00847719
0.00903678
0.00913531
0.00860122
0.00724562
0.00515932
0.00275554
0.00089189
0.000112392
1.15979e-05
7.59618e-06
4.18691e-06
1.96841e-06
1.08615e-06
1.40149e-06
2.20325e-06
5.69573e-06
1.07708e-05
9.9072e-05
0.00054037
0.00139549
0.00265384
0.00421867
0.00600192
0.00796606
0.0100373
0.012067
0.0139452
0.0156488
0.017196
0.0185486
0.019557
0.0200326
0.0199493
0.0193004
0.0179336
0.0154105
0.0112399
0.00616161
0.00194366
0.000166683
1.04265e-05
5.10951e-06
2.31816e-06
2.86689e-06
5.75317e-06
1.25904e-05
0.000378561
0.00153068
0.00295056
0.00472395
0.00678446
0.00903403
0.0113893
0.0137401
0.0159389
0.0178652
0.0194918
0.0208627
0.0219766
0.0227803
0.0233331
0.0236604
0.0239516
0.0242284
0.0242671
0.0243072
0.0228641
0.0191692
0.0124464
0.00478798
0.00047361
1.39664e-05
7.31494e-06
8.47385e-06
1.55185e-05
0.000460562
0.00188397
0.00385274
0.00614782
0.00868107
0.011334
0.0139769
0.0164672
0.0186612
0.0204555
0.0218219
0.0227915
0.02343
0.0235932
0.0234944
0.0232778
0.0232406
0.0232971
0.0236137
0.0241765
0.0248739
0.0257488
0.0257627
0.0246199
0.0172543
0.00741446
0.00124911
2.08946e-05
2.49104e-05
0.00141211
0.00279035
0.00426158
0.00683506
0.010044
0.0132655
0.0162784
0.0189583
0.0211791
0.0228555
0.0239677
0.0245549
0.0246679
0.0244003
0.0236311
0.0228632
0.0219585
0.0209834
0.0201604
0.0196245
0.0197544
0.0203006
0.0225393
0.0257883
0.0295788
0.0296594
0.0228179
0.00834895
0.000445951
0.000190348
0.00366094
0.00685503
0.0082422
0.011096
0.0148898
0.0184648
0.0214282
0.0237309
0.0253552
0.0263085
0.0266411
0.0264367
0.025728
0.0245522
0.023057
0.0210918
0.01874
0.0162499
0.0137444
0.0112001
0.00949861
0.00860819
0.0101552
0.0152344
0.0255308
0.0318933
0.0318118
0.0198134
0.00080096
0.000189173
0.00515514
0.012021
0.0140509
0.0168195
0.0205336
0.0238936
0.0263692
0.0280183
0.0289469
0.0292352
0.0289823
0.028213
0.0269193
0.0250619
0.0227077
0.0193895
0.0153418
0.0110665
0.00675149
0.0031023
0.00143698
0.000809974
0.0010221
0.00199703
0.0105928
0.0296226
0.0320034
0.0315679
0.00272484
0.000188463
0.00698157
0.0181395
0.0213912
0.0235389
0.0264391
0.0290463
0.0307899
0.0317885
0.0322091
0.0321552
0.0316932
0.030781
0.0293616
0.0272715
0.0244379
0.0206109
0.0155936
0.00906915
0.00323702
0.000559519
8.90632e-05
1.90727e-05
1.72512e-05
1.7729e-05
0.000566746
0.0122888
0.0318347
0.0319043
0.0095788
0.000188145
0.0101098
0.0264076
0.0299249
0.0304469
0.0319223
0.0335264
0.0346096
0.0352251
0.0355098
0.0355407
0.0353513
0.0348996
0.0340898
0.0326919
0.0303717
0.0266968
0.0209251
0.0127838
0.00424604
0.000515436
1.61028e-05
1.25801e-05
1.29789e-05
1.16379e-05
1.3125e-05
0.000218823
0.0229231
0.0319306
0.0210046
0.000295799
0.0167786
0.0382235
0.0385657
0.03652
0.0364098
0.037163
0.0379248
0.0385424
0.0390655
0.039542
0.0399878
0.0404754
0.0408949
0.0411497
0.0409227
0.0395176
0.0356382
0.0273939
0.0128299
0.00145954
3.11117e-05
1.31457e-05
1.21377e-05
1.14748e-05
9.98818e-06
9.71831e-06
0.00156885
0.0316307
0.0320223
0.000973096
0.0284297
0.0496688
0.0452755
0.0407194
0.0395803
0.0400728
0.0409324
0.0418747
0.0427994
0.0436613
0.0443873
0.0453035
0.0465275
0.0482158
0.0504248
0.0527589
0.054393
0.0533702
0.0413972
0.0131666
0.000707887
2.01421e-05
1.28803e-05
1.09505e-05
9.5941e-06
9.53276e-06
1.10693e-05
0.00459375
0.0317832
0.00371346
0.0373038
0.0513033
0.0482216
0.0432757
0.0418175
0.0425656
0.0439079
0.0452629
0.0462222
0.0464438
0.0462738
0.0459705
0.0464008
0.0478933
0.0505299
0.0549251
0.0613208
0.0694376
0.0744323
0.0570657
0.0166212
0.00127752
1.66527e-05
1.17777e-05
9.21671e-06
9.02623e-06
8.91191e-06
1.37412e-05
0.00805868
0.00831144
0.0382657
0.0514834
0.0492977
0.044769
0.0436957
0.0451567
0.0472061
0.0485575
0.0483361
0.0465246
0.0444923
0.0423986
0.0411484
0.0415727
0.0441686
0.0488454
0.0558749
0.0659239
0.0758117
0.0772736
0.0726932
0.0265336
0.00198028
1.4912e-05
1.06694e-05
9.31555e-06
9.87089e-06
9.85648e-06
0.00088741
0.0121975
0.0379938
0.0515265
0.0496834
0.0458652
0.045892
0.0484834
0.0509769
0.0508374
0.04769
0.0426209
0.0362335
0.0303403
0.0267102
0.025763
0.0278344
0.0325283
0.0401453
0.0517526
0.0690906
0.0773079
0.0777036
0.077333
0.0363714
0.00306091
2.16892e-05
1.14056e-05
1.39073e-05
1.13764e-05
0.000221278
0.0157854
0.0385267
0.0519366
0.0499727
0.0473502
0.0491651
0.0530026
0.0541719
0.0501214
0.0416785
0.0300153
0.0191377
0.0117847
0.00874705
0.00780134
0.00896612
0.0119322
0.0176351
0.0274683
0.0448071
0.0695416
0.0776517
0.0777452
0.0775964
0.0451278
0.00558941
0.000165863
7.90707e-05
1.50496e-05
8.16681e-05
0.019189
0.0395885
0.0519282
0.0507288
0.0503032
0.0543749
0.0579932
0.0542778
0.0430957
0.0262436
0.0111608
0.00373968
0.00127713
0.000780719
0.000628952
0.000854073
0.00142493
0.00281764
0.0067843
0.0160056
0.0372238
0.0682444
0.0776892
0.0777618
0.0776659
0.0483017
0.00908769
0.0017545
0.00047424
8.18917e-05
0.0221288
0.0408632
0.0524417
0.0532577
0.0559583
0.0611303
0.0604784
0.0478598
0.0259716
0.00780475
0.000885247
0.000121865
3.51589e-05
2.83334e-05
2.83744e-05
4.4775e-05
6.25006e-05
8.69185e-05
0.000526227
0.00175994
0.00883913
0.0322068
0.0677933
0.0777344
0.0777856
0.0771582
0.0457607
0.0121877
0.00303049
0.000102266
0.0246758
0.043161
0.0554177
0.0591201
0.0636133
0.0650482
0.0555962
0.0294202
0.00703521
0.000480509
1.387e-05
1.33273e-05
1.33512e-05
2.31445e-05
2.43935e-05
2.51814e-05
2.28184e-05
2.03905e-05
2.07684e-05
3.48137e-05
0.000410405
0.0058134
0.031215
0.0692512
0.0777847
0.077993
0.0758825
0.0431971
0.010686
0.000165691
0.0280612
0.0483491
0.0621999
0.0666618
0.0688137
0.0650135
0.0364236
0.0075093
0.000293879
1.39186e-05
1.34062e-05
1.30394e-05
1.97632e-05
4.81496e-05
4.47562e-05
3.99613e-05
3.62176e-05
2.02567e-05
1.30983e-05
1.3083e-05
1.33529e-05
0.000125391
0.00539272
0.0344965
0.0732324
0.0779997
0.0780911
0.0761808
0.0309805
0.000667908
0.0342034
0.0568576
0.0688656
0.0689404
0.068751
0.0469506
0.00929052
0.000192326
1.19965e-05
1.18764e-05
1.33204e-05
1.69255e-05
8.15309e-05
0.000192117
0.000186025
0.000135341
9.50885e-05
3.26343e-05
1.31029e-05
1.30507e-05
1.25886e-05
1.20051e-05
0.000108638
0.00710925
0.0426135
0.0765539
0.0780955
0.0781244
0.0591793
0.00480154
0.0436443
0.0648823
0.068941
0.0689304
0.0591926
0.0134449
0.00012701
1.1822e-05
1.20038e-05
1.26757e-05
3.05202e-05
0.000105607
0.000314565
0.00060323
0.000657007
0.000476042
0.000265702
5.33294e-05
1.34602e-05
1.31625e-05
1.24741e-05
1.19567e-05
1.22874e-05
0.000214886
0.0106127
0.0572621
0.0781187
0.078104
0.0757602
0.0200727
0.0540106
0.0688592
0.0689842
0.0683645
0.0228418
0.000258405
1.08862e-05
1.13882e-05
1.23911e-05
1.75713e-05
0.000215566
0.000530517
0.000763894
0.00115563
0.00135529
0.0010756
0.000568576
9.16944e-05
1.4235e-05
1.32728e-05
1.22209e-05
1.15457e-05
1.1311e-05
1.23173e-05
0.000188753
0.0176037
0.0758113
0.078192
0.0780319
0.0420652
0.0627505
0.0689146
0.0685766
0.0351672
0.00266485
1.04769e-05
1.15109e-05
1.16697e-05
1.2872e-05
4.90176e-05
0.000464346
0.00112309
0.00130509
0.00174185
0.00216384
0.00190526
0.0010567
0.000146225
1.57354e-05
1.37393e-05
1.2098e-05
1.05795e-05
9.84393e-06
9.77592e-06
1.00116e-05
0.000606743
0.0312603
0.0779854
0.0781141
0.0663984
0.0688597
0.0685942
0.0448685
0.0064345
8.48903e-05
1.0815e-05
1.12623e-05
1.14511e-05
1.24666e-05
4.76874e-05
0.000695398
0.00186732
0.00198907
0.00250063
0.00311888
0.00288954
0.00174481
0.000236356
3.56445e-05
1.54548e-05
1.22208e-05
1.04968e-05
8.99042e-06
8.19186e-06
8.23078e-06
1.06487e-05
0.00179698
0.0489558
0.0779385
0.0778675
0.0676781
0.0474706
0.0113477
0.000650249
1.28722e-05
1.24155e-05
1.09067e-05
1.09495e-05
1.18745e-05
4.22009e-05
0.00128986
0.00312203
0.00296631
0.00364752
0.00434534
0.00400903
0.00267669
0.000545077
9.19196e-05
4.24347e-05
1.27383e-05
1.08335e-05
8.99923e-06
8.01862e-06
8.00681e-06
8.00187e-06
1.10196e-05
0.00550037
0.0544039
0.0777955
0.0453543
0.0168835
0.00263216
0.000933138
1.35246e-05
1.44026e-05
1.0497e-05
9.56106e-06
1.11161e-05
8.8962e-05
0.00272295
0.0049955
0.00441452
0.00550821
0.00611022
0.00558086
0.00422468
0.00156016
0.000351052
0.000146298
1.37668e-05
1.0862e-05
9.18153e-06
7.87161e-06
7.46278e-06
7.30815e-06
1.01878e-05
7.70925e-05
0.00615446
0.0538766
0.0218307
0.00562479
0.00221983
0.00138676
5.25532e-05
1.31428e-05
9.3931e-06
8.78236e-06
1.06818e-05
0.000479494
0.00577099
0.00748888
0.00699407
0.00876182
0.00914611
0.0085351
0.00733718
0.00454186
0.00174855
0.000620764
2.28467e-05
1.11272e-05
9.38128e-06
8.07221e-06
8.34439e-06
9.62014e-06
9.86206e-06
1.15395e-05
2.62699e-05
0.00943302
0.013347
0.00505302
0.00286588
0.000570871
8.92381e-05
1.034e-05
8.44502e-06
8.42989e-06
1.20038e-05
0.00278643
0.0109608
0.011522
0.0122953
0.0146414
0.0148645
0.0144866
0.0137322
0.011635
0.007378
0.00347897
0.000275248
1.24251e-05
1.0062e-05
9.01087e-06
1.28818e-05
0.000164681
1.12271e-05
1.15114e-05
1.13556e-05
0.000923422
0.0113863
0.0039914
0.001523
8.02239e-05
1.41169e-05
8.72783e-06
8.2418e-06
9.16034e-06
0.000368693
0.0113077
0.0189878
0.0190843
0.0216109
0.0235321
0.0235108
0.0234921
0.0234498
0.0230436
0.0202571
0.0144118
0.00433246
0.000192349
1.24756e-05
1.19544e-05
2.03605e-05
0.000939081
0.000425858
1.30405e-05
1.09477e-05
4.8171e-05
0.00515111
0.000436624
0.000163862
1.20663e-05
9.43792e-06
8.5587e-06
8.38812e-06
1.5382e-05
0.00791793
0.0265675
0.0293668
0.0293874
0.0309243
0.030689
0.0294981
0.0291066
0.0295183
0.031053
0.0317558
0.0315438
0.0229123
0.0065253
0.00036773
3.72104e-05
1.9841e-05
0.000973091
0.00359734
0.00076649
2.35725e-05
3.38754e-05
0.000357673
1.09973e-05
1.21968e-05
9.08454e-06
8.94474e-06
8.53738e-06
1.23912e-05
0.00501167
0.0325723
0.0402352
0.0374109
0.0346785
0.0315777