/*--------------------------------*- C++ -*----------------------------------*\
| =========                 |                                                 |
| \\      /  F ield         | OpenFOAM: The Open Source CFD Toolbox           |
|  \\    /   O peration     | Version:  v1606+                                |
|   \\  /    A nd           | Web:      www.OpenFOAM.com                      |
|    \\/     M anipulation  |                                                 |
\*---------------------------------------------------------------------------*/
FoamFile
{
    version     2.0;
    format      ascii;
    class       surfaceScalarField;
    location    "0.56";
    object      phi.particles;
}
// * * * * * * * * * * * * * * * * * * * * * * * * * * * * * * * * * * * * * //

dimensions      [0 3 -1 0 0 0 0];

internalField   nonuniform List<scalar> 
11770
(
6.15514e-07
-1.49968e-05
2.34707e-06
-1.5905e-05
4.21004e-06
-1.60376e-05
6.06358e-06
-1.54926e-05
7.25644e-06
-1.52676e-05
7.72132e-06
-1.56004e-05
7.37509e-06
-1.60052e-05
6.21637e-06
-1.64206e-05
4.42634e-06
-1.68317e-05
2.47226e-06
-1.69938e-05
9.2038e-07
-1.68501e-05
4.3688e-08
-1.68249e-05
-2.73553e-07
-1.79288e-05
-2.90697e-07
-1.95604e-05
-2.31298e-07
-2.05232e-05
-1.4816e-07
-2.03175e-05
-1.71321e-07
-1.93586e-05
-5.62133e-07
-1.76123e-05
-1.52179e-06
-1.67454e-05
-3.10122e-06
-1.67912e-05
-5.00599e-06
-1.69191e-05
-6.71369e-06
-1.67344e-05
-7.78047e-06
-1.63715e-05
-8.04869e-06
-1.59704e-05
-7.52466e-06
-1.55568e-05
-6.28445e-06
-1.51831e-05
-4.38705e-06
-1.54164e-05
-2.50693e-06
-1.60261e-05
-7.40412e-07
-1.58875e-05
-1.50167e-05
1.85468e-06
-1.75995e-06
2.70314e-06
-2.38976e-06
5.18373e-06
-3.25379e-06
7.59161e-06
-3.3049e-06
9.05171e-06
-2.00118e-06
9.64389e-06
-1.01366e-06
9.59803e-06
1.29054e-09
8.92167e-06
9.89935e-07
7.48988e-06
2.36608e-06
5.18786e-06
4.95371e-06
2.97279e-06
7.37171e-06
1.71445e-06
7.32176e-06
1.07104e-06
5.88978e-06
4.86224e-07
4.66277e-06
-2.86019e-07
4.33788e-06
-1.05541e-06
4.342e-06
-1.64695e-06
4.80518e-06
-2.35443e-06
6.18606e-06
-3.72995e-06
7.43043e-06
-5.95535e-06
7.05467e-06
-8.11346e-06
4.40704e-06
-9.39954e-06
1.89766e-06
-9.97899e-06
6.2982e-07
-9.97072e-06
-2.44453e-07
-9.33319e-06
-1.17087e-06
-7.79386e-06
-2.12246e-06
-5.31193e-06
-3.34898e-06
-2.81847e-06
-3.17153e-06
-1.9492e-06
-2.26994e-06
-1.78474e-06
-4.9781e-07
-1.54794e-05
2.11509e-06
-1.71628e-05
5.38719e-06
-1.79472e-05
7.8426e-06
-1.79086e-05
9.27905e-06
-1.73237e-05
1.00447e-05
-1.70249e-05
1.0439e-05
-1.6681e-05
1.03313e-05
-1.5568e-05
9.08124e-06
-1.31854e-05
5.94549e-06
-8.96979e-06
2.59499e-06
-4.17224e-06
1.26966e-06
-1.88844e-06
1.29145e-06
-1.84758e-06
9.47295e-07
-1.95915e-06
-2.89317e-07
-1.35821e-06
-1.50551e-06
-1.42824e-06
-1.82489e-06
-1.99643e-06
-1.88895e-06
-1.8446e-06
-3.43664e-06
-2.25234e-06
-6.82267e-06
-5.04303e-06
-9.67658e-06
-9.9182e-06
-1.06828e-05
-1.38818e-05
-1.06881e-05
-1.60512e-05
-1.02247e-05
-1.69982e-05
-9.40374e-06
-1.7228e-05
-7.93327e-06
-1.74575e-05
-5.44488e-06
-1.79531e-05
-2.10855e-06
-1.79122e-05
5.43903e-07
-1.69839e-05
-1.52895e-05
1.23875e-06
-2.29304e-05
2.7974e-06
-2.40769e-05
4.54204e-06
-2.5091e-05
6.29864e-06
-2.54468e-05
8.02199e-06
-2.53261e-05
9.39092e-06
-2.50762e-05
1.05101e-05
-2.47188e-05
1.15115e-05
-2.36756e-05
1.21591e-05
-2.17697e-05
1.14133e-05
-1.8469e-05
8.26096e-06
-1.34576e-05
4.31301e-06
-8.06441e-06
2.14289e-06
-5.22541e-06
1.11852e-06
-4.10706e-06
-3.12366e-07
-3.22247e-06
-1.75036e-06
-3.29731e-06
-2.92025e-06
-4.26722e-06
-5.39561e-06
-5.70856e-06
-9.33171e-06
-8.98408e-06
-1.20231e-05
-1.44403e-05
-1.23902e-05
-1.91791e-05
-1.15882e-05
-2.22525e-05
-1.05171e-05
-2.39972e-05
-9.36337e-06
-2.49515e-05
-7.96326e-06
-2.5233e-05
-6.2165e-06
-2.54428e-05
-4.43181e-06
-2.55196e-05
-2.67295e-06
-2.51268e-05
-1.12672e-06
-2.3968e-05
-2.28338e-05
1.12331e-06
-2.39701e-05
2.28182e-06
-2.51146e-05
3.7868e-06
-2.69334e-05
5.40289e-06
-2.67397e-05
7.1894e-06
-2.6318e-05
8.87176e-06
-2.57129e-05
1.02628e-05
-2.52648e-05
1.1653e-05
-2.43096e-05
1.29898e-05
-2.30287e-05
1.44633e-05
-2.10521e-05
1.48646e-05
-1.88816e-05
1.16746e-05
-1.43301e-05
6.47374e-06
-1.00988e-05
2.42003e-06
-7.53615e-06
-4.5462e-07
-6.51352e-06
-3.46191e-06
-6.59973e-06
-7.81411e-06
-7.92045e-06
-1.29014e-05
-1.07977e-05
-1.54235e-05
-1.52146e-05
-1.45716e-05
-1.94036e-05
-1.30162e-05
-2.1342e-05
-1.16398e-05
-2.32855e-05
-1.02042e-05
-2.44629e-05
-8.769e-06
-2.53726e-05
-7.05151e-06
-2.57729e-05
-5.24278e-06
-2.63694e-05
-3.62248e-06
-2.6775e-05
-2.1446e-06
-2.70044e-05
-1.00514e-06
-2.51922e-05
-2.40618e-05
5.16953e-07
-1.88342e-05
7.65211e-07
-2.17966e-05
1.99642e-06
-2.33655e-05
3.18394e-06
-2.29382e-05
4.80267e-06
-2.26359e-05
7.02859e-06
-2.19873e-05
9.06822e-06
-2.16588e-05
1.0848e-05
-2.08242e-05
1.23788e-05
-1.97292e-05
1.42693e-05
-1.82037e-05
1.65343e-05
-1.75133e-05
1.63889e-05
-1.45142e-05
1.1998e-05
-1.1271e-05
5.34396e-06
-9.04475e-06
-8.27518e-07
-8.25475e-06
-7.07216e-06
-8.31372e-06
-1.34153e-05
-9.49322e-06
-1.70615e-05
-1.17365e-05
-1.65878e-05
-1.50638e-05
-1.41816e-05
-1.76817e-05
-1.23431e-05
-1.83613e-05
-1.07723e-05
-1.98657e-05
-8.95238e-06
-2.08763e-05
-6.80556e-06
-2.16667e-05
-4.53147e-06
-2.20298e-05
-2.90423e-06
-2.27219e-05
-1.75186e-06
-2.29524e-05
-5.62859e-07
-2.33697e-05
-3.24836e-07
-2.19331e-05
-1.87211e-05
1.95891e-06
-1.36737e-05
1.35912e-06
-1.69128e-05
1.02487e-06
-1.71495e-05
9.50997e-07
-1.73584e-05
2.09064e-06
-1.77483e-05
4.41002e-06
-1.74842e-05
7.11134e-06
-1.73827e-05
9.31599e-06
-1.67878e-05
1.10586e-05
-1.56795e-05
1.28662e-05
-1.42501e-05
1.52163e-05
-1.35858e-05
1.63229e-05
-1.13074e-05
1.38621e-05
-8.49127e-06
7.32816e-06
-7.15442e-06
-1.2346e-06
-6.75376e-06
-9.45187e-06
-6.77853e-06
-1.50657e-05
-7.54968e-06
-1.66156e-05
-8.93249e-06
-1.50494e-05
-1.17774e-05
-1.27353e-05
-1.35991e-05
-1.09872e-05
-1.44123e-05
-9.13795e-06
-1.57643e-05
-6.82732e-06
-1.67717e-05
-4.00534e-06
-1.74489e-05
-1.65146e-06
-1.76523e-05
-5.16094e-07
-1.8039e-05
-6.11832e-07
-1.7507e-05
-1.00117e-06
-1.72049e-05
-1.81686e-06
-1.69768e-05
-1.32227e-05
1.85143e-06
-9.69067e-06
1.63715e-06
-1.04809e-05
6.01641e-07
-1.0168e-05
-9.63143e-09
-1.03148e-05
9.66467e-08
-1.10827e-05
1.25952e-06
-1.22405e-05
3.74271e-06
-1.27102e-05
6.57149e-06
-1.17621e-05
8.92881e-06
-1.10435e-05
1.06616e-05
-9.68722e-06
1.29583e-05
-8.67736e-06
1.49342e-05
-7.10126e-06
1.38162e-05
-4.4804e-06
8.019e-06
-3.01708e-06
-1.55403e-06
-2.47338e-06
-1.03767e-05
-2.45848e-06
-1.49237e-05
-3.2838e-06
-1.5161e-05
-4.91993e-06
-1.27755e-05
-7.72788e-06
-1.05176e-05
-8.74835e-06
-8.78328e-06
-9.87359e-06
-6.26751e-06
-1.11319e-05
-3.31299e-06
-1.16915e-05
-7.5933e-07
-1.30614e-05
4.76021e-07
-1.22545e-05
4.75392e-07
-1.11597e-05
-2.68388e-07
-1.03705e-05
-1.28166e-06
-1.01815e-05
-1.79702e-06
-1.04544e-05
-9.4496e-06
1.22013e-06
-4.95969e-06
2.13462e-06
-4.59647e-06
1.41119e-06
-3.77933e-06
9.33233e-08
-3.09385e-06
-1.33227e-06
-3.51093e-06
-1.79934e-06
-5.48416e-06
-4.42126e-07
-7.35112e-06
2.69278e-06
-7.46255e-06
6.10183e-06
-5.68858e-06
8.24452e-06
-4.65493e-06
1.08351e-05
-3.43602e-06
1.35683e-05
-2.30385e-06
1.35248e-05
6.87249e-07
8.65059e-06
2.23369e-06
-1.30791e-06
3.1626e-06
-1.04201e-05
3.24652e-06
-1.42166e-05
1.92339e-06
-1.36934e-05
1.07224e-07
-1.06583e-05
-2.98601e-06
-8.05492e-06
-3.7079e-06
-5.83028e-06
-4.89441e-06
-2.27305e-06
-5.80007e-06
8.85136e-07
-7.47569e-06
1.88137e-06
-7.46787e-06
1.13173e-06
-5.27164e-06
-3.00616e-07
-3.31721e-06
-1.62529e-06
-2.97849e-06
-2.39695e-06
-3.68911e-06
-1.45845e-06
-4.55942e-06
-4.98685e-06
1.94475e-06
-1.4598e-06
2.69873e-06
-7.87377e-07
2.13037e-06
8.02317e-07
6.5426e-07
2.33123e-06
-1.19928e-06
3.16667e-06
-2.76632e-06
2.58579e-06
-3.33281e-06
-1.54251e-08
-1.77307e-06
-2.32935e-06
2.0215e-06
-1.01557e-06
5.28282e-06
6.87765e-07
8.56439e-06
1.79367e-06
1.19428e-05
2.71308e-06
1.21646e-05
6.59617e-06
7.83408e-06
8.23115e-06
-1.38811e-06
9.91545e-06
-9.98065e-06
9.8453e-06
-1.33421e-05
7.71957e-06
-1.1933e-05
5.18537e-06
-8.21988e-06
2.30647e-06
-5.20099e-06
1.35992e-06
-1.46376e-06
3.64528e-07
2.14048e-06
-1.22884e-06
3.29698e-06
-2.31545e-06
2.79955e-06
2.457e-07
1.3119e-06
2.68412e-06
-5.3192e-07
3.18381e-06
-2.03884e-06
2.3596e-06
-2.64569e-06
8.37032e-07
-1.98487e-06
-7.92014e-07
-1.53559e-06
2.09336e-06
-2.81514e-07
2.67648e-06
1.14035e-06
2.42771e-06
3.1605e-06
1.5845e-06
5.18876e-06
-2.41833e-07
7.06526e-06
-3.10839e-06
8.27748e-06
-5.01684e-06
7.63662e-06
-5.11138e-06
4.81762e-06
-1.94778e-06
3.5451e-06
2.87262e-06
5.25899e-06
6.30548e-06
6.68525e-06
1.06772e-05
7.8003e-06
1.27861e-05
1.11224e-05
8.25392e-06
1.47797e-05
-2.04422e-06
1.77786e-05
-1.12457e-05
1.74866e-05
-1.38096e-05
1.38449e-05
-1.03384e-05
9.18209e-06
-5.85448e-06
7.25094e-06
-2.43663e-06
6.09257e-06
2.2344e-06
4.75631e-06
5.1193e-06
3.36493e-06
5.26765e-06
4.93134e-06
3.31466e-06
7.63712e-06
4.59778e-07
8.11936e-06
-1.26799e-06
6.88738e-06
-2.09278e-06
5.09371e-06
-2.40942e-06
3.14149e-06
-1.99649e-06
1.15318e-06
-3.23791e-07
1.40586e-06
2.58583e-07
1.64007e-06
2.18852e-06
1.46886e-06
4.37308e-06
1.07939e-06
6.58415e-06
4.23731e-07
8.78668e-06
-1.14678e-06
1.09198e-05
-4.6409e-06
1.26228e-05
-6.96665e-06
1.19824e-05
-5.53935e-06
9.54649e-06
-7.1302e-07
9.54522e-06
4.13376e-06
1.11644e-05
9.41544e-06
1.24831e-05
1.3606e-05
1.46847e-05
9.93452e-06
2.15199e-05
-1.54014e-06
2.61053e-05
-1.19948e-05
2.56206e-05
-1.38726e-05
1.98862e-05
-8.86203e-06
1.30007e-05
-3.51377e-06
1.15648e-05
1.47154e-06
1.0299e-05
6.12935e-06
9.0907e-06
7.2444e-06
9.44934e-06
4.80542e-06
1.18658e-05
1.36419e-06
1.22683e-05
-3.3921e-08
1.05949e-05
-6.69594e-07
8.57185e-06
-1.0966e-06
6.48806e-06
-1.33615e-06
4.36713e-06
-1.21873e-06
2.23319e-06
2.84918e-07
6.34164e-07
7.49751e-07
5.35663e-07
3.03451e-06
8.82415e-08
5.39694e-06
-5.43696e-07
7.7554e-06
-1.21372e-06
1.00957e-05
-1.93521e-06
1.24614e-05
-3.26621e-06
1.47906e-05
-6.59531e-06
1.66302e-05
-8.51858e-06
1.57975e-05
-4.55626e-06
1.41113e-05
1.33507e-06
1.42415e-05
7.70931e-06
1.61726e-05
1.32116e-05
1.81882e-05
1.10502e-05
2.72378e-05
-1.17182e-06
3.38706e-05
-1.22933e-05
3.2913e-05
-1.27685e-05
2.52702e-05
-6.83449e-06
1.66797e-05
-3.83644e-07
1.51944e-05
5.33302e-06
1.3256e-05
8.78463e-06
1.37395e-05
6.77239e-06
1.55154e-05
3.57264e-06
1.61269e-05
2.389e-06
1.43334e-05
1.65006e-06
1.21567e-05
9.14437e-07
9.93096e-06
1.97946e-07
7.70534e-06
-3.33148e-07
5.42174e-06
-5.11935e-07
3.09586e-06
8.00875e-07
6.39705e-08
1.23692e-06
-3.94684e-07
3.82999e-06
-1.26442e-06
6.42599e-06
-2.47841e-06
8.9579e-06
-3.72328e-06
1.13697e-05
-4.7947e-06
1.37695e-05
-5.71311e-06
1.62897e-05
-7.11076e-06
1.84595e-05
-9.79497e-06
1.97199e-05
-8.79031e-06
1.84394e-05
-2.68897e-06
1.61793e-05
4.98308e-06
1.78088e-05
1.13352e-05
2.06491e-05
1.10026e-05
3.14773e-05
-9.35788e-07
4.32102e-05
-1.16574e-05
4.21495e-05
-1.03434e-05
2.92744e-05
-3.81821e-06
1.92007e-05
3.73786e-06
1.66429e-05
9.58151e-06
1.53439e-05
1.01223e-05
1.79653e-05
7.41955e-06
1.91124e-05
6.17954e-06
1.78535e-05
5.26695e-06
1.57956e-05
4.10468e-06
1.34736e-05
2.71363e-06
1.12496e-05
1.39165e-06
8.93469e-06
4.46165e-07
6.44709e-06
-4.78429e-08
3.8628e-06
1.26436e-06
-3.7421e-07
1.64288e-06
-1.08387e-06
4.53759e-06
-2.32343e-06
7.51668e-06
-4.26013e-06
1.04543e-05
-6.46648e-06
1.30115e-05
-8.42884e-06
1.51327e-05
-9.8983e-06
1.74317e-05
-1.08244e-05
1.95297e-05
-1.20923e-05
2.06543e-05
-1.32036e-05
2.04065e-05
-8.42866e-06
1.77258e-05
5.25459e-07
1.65179e-05
6.73259e-06
2.27274e-05
7.46016e-06
3.30327e-05
3.59088e-08
3.67085e-05
-6.49391e-06
3.66827e-05
-4.99261e-06
3.10372e-05
9.45019e-07
2.13265e-05
9.57789e-06
1.55379e-05
1.3853e-05
1.70262e-05
1.23142e-05
1.97579e-05
1.11246e-05
2.00188e-05
1.01803e-05
1.89031e-05
8.69046e-06
1.69316e-05
6.66042e-06
1.49514e-05
4.2825e-06
1.30476e-05
2.27021e-06
1.05057e-05
9.98215e-07
7.5615e-06
3.25761e-07
4.57234e-06
1.65898e-06
-9.3374e-07
1.94084e-06
-1.76515e-06
5.1639e-06
-3.0276e-06
8.88694e-06
-5.45259e-06
1.28235e-05
-9.09654e-06
1.62455e-05
-1.25975e-05
1.82993e-05
-1.42881e-05
1.9018e-05
-1.50468e-05
2.03927e-05
-1.57583e-05
2.0774e-05
-1.65509e-05
1.98284e-05
-1.43206e-05
1.78147e-05
-8.32025e-06
1.57925e-05
-4.19275e-06
2.29251e-05
-3.273e-06
2.53061e-05
-2.84833e-07
1.86687e-05
4.11175e-06
1.89773e-05
6.43022e-06
2.42927e-05
1.01057e-05
2.14556e-05
1.52268e-05
1.50099e-05
1.6964e-05
1.69794e-05
1.61826e-05
1.91109e-05
1.5306e-05
2.00877e-05
1.43579e-05
1.97711e-05
1.23815e-05
1.86159e-05
8.81912e-06
1.82706e-05
5.23154e-06
1.62652e-05
2.84576e-06
1.28541e-05
1.5942e-06
8.95919e-06
8.41233e-07
5.27474e-06
1.96884e-06
-2.06004e-06
2.11464e-06
-3.76908e-06
6.01388e-06
-5.31249e-06
1.06472e-05
-7.47646e-06
1.56337e-05
-1.14066e-05
2.00188e-05
-1.60757e-05
2.32033e-05
-1.82958e-05
2.20144e-05
-1.84331e-05
2.1581e-05
-1.82389e-05
2.08975e-05
-1.80065e-05
1.90564e-05
-1.70491e-05
1.66036e-05
-1.31219e-05
1.58589e-05
-6.94498e-06
1.95038e-05
-2.60081e-06
1.60685e-05
-3.92963e-07
1.30491e-05
2.225e-06
1.267e-05
7.28834e-06
1.53551e-05
1.36845e-05
1.81351e-05
1.75299e-05
1.48554e-05
1.85827e-05
1.56573e-05
1.87224e-05
1.82205e-05
1.88124e-05
2.01835e-05
1.82872e-05
2.09032e-05
1.51204e-05
2.21671e-05
1.02758e-05
2.29607e-05
6.95781e-06
1.99057e-05
4.87805e-06
1.55896e-05
3.41625e-06
1.06499e-05
1.86988e-06
6.00308e-06
2.23999e-06
-3.58531e-06
2.86595e-06
-8.17006e-06
7.94887e-06
-1.10056e-05
1.24672e-05
-1.288e-05
1.75183e-05
-1.52664e-05
2.18264e-05
-1.96913e-05
2.52949e-05
-2.19458e-05
2.44321e-05
-2.05864e-05
2.26235e-05
-1.92193e-05
2.08681e-05
-1.81395e-05
1.81219e-05
-1.6606e-05
1.5226e-05
-1.16372e-05
1.40547e-05
-5.23903e-06
1.48954e-05
-1.98741e-06
1.26321e-05
-1.63913e-07
1.16773e-05
1.75586e-06
1.12927e-05
5.5634e-06
1.16385e-05
1.22809e-05
1.3487e-05
1.7054e-05
1.28735e-05
1.86179e-05
1.4243e-05
1.97172e-05
1.72386e-05
2.11404e-05
2.01051e-05
2.1537e-05
2.20853e-05
1.80234e-05
2.52738e-05
1.37888e-05
2.55092e-05
1.16444e-05
2.21237e-05
9.63763e-06
1.77192e-05
7.08778e-06
1.24885e-05
3.35823e-06
7.21486e-06
2.85454e-06
-9.45976e-06
5.05859e-06
-1.65508e-05
1.23461e-05
-1.87072e-05
1.40849e-05
-1.93253e-05
1.85161e-05
-2.04599e-05
2.21188e-05
-2.34547e-05
2.43099e-05
-2.453e-05
2.4595e-05
-2.1613e-05
2.29669e-05
-1.88699e-05
2.00569e-05
-1.7231e-05
1.6703e-05
-1.54463e-05
1.33419e-05
-1.02796e-05
1.08304e-05
-3.97772e-06
1.00722e-05
-1.27803e-06
9.63199e-06
4.97732e-08
9.88686e-06
1.43314e-06
9.56367e-06
4.29168e-06
8.69371e-06
1.06233e-05
8.66745e-06
1.57036e-05
9.65296e-06
1.75748e-05
1.23209e-05
1.92932e-05
1.57305e-05
2.22152e-05
1.92339e-05
2.41281e-05
2.26361e-05
2.17417e-05
2.55351e-05
1.89335e-05
2.5729e-05
1.77996e-05
2.32185e-05
1.64808e-05
1.92552e-05
1.26467e-05
1.44458e-05
5.89985e-06
1.07909e-05
5.1998e-06
-1.05114e-05
-7.72865e-06
-1.91408e-05
-2.56002e-06
-2.2766e-05
1.1655e-05
-2.37172e-05
1.99724e-05
-2.38787e-05
2.16673e-05
-2.49228e-05
2.41066e-05
-2.47243e-05
2.50283e-05
-2.11644e-05
2.2669e-05
-1.73064e-05
1.84047e-05
-1.51736e-05
1.47454e-05
-1.30205e-05
1.10003e-05
-8.04476e-06
7.29062e-06
-2.98081e-06
5.97796e-06
-9.30046e-07
7.16016e-06
2.26141e-07
8.01329e-06
1.41945e-06
7.73201e-06
3.52713e-06
6.38303e-06
8.37815e-06
5.04223e-06
1.31452e-05
6.3916e-06
1.54139e-05
1.00391e-05
1.76751e-05
1.36195e-05
2.17769e-05
1.73482e-05
2.51389e-05
2.24606e-05
2.47687e-05
2.55157e-05
2.3561e-05
2.54753e-05
2.32416e-05
2.35185e-05
2.19236e-05
2.09618e-05
1.79821e-05
1.25208e-05
1.10576e-05
-7.1304e-06
-1.20434e-05
2.45877e-06
-3.43084e-05
-7.07816e-06
-3.98828e-05
-2.23578e-05
-1.7513e-05
-2.60104e-05
5.82719e-06
-2.44136e-05
1.14782e-05
-2.37642e-05
2.21418e-05
-2.30009e-05
2.46635e-05
-1.89886e-05
2.23061e-05
-1.44491e-05
1.6419e-05
-1.21787e-05
1.26658e-05
-9.74013e-06
8.73368e-06
-5.96531e-06
4.91015e-06
-2.63776e-06
3.77997e-06
-8.54778e-07
5.45615e-06
3.35752e-07
6.58538e-06
1.51944e-06
6.29241e-06
3.32099e-06
4.81807e-06
6.46734e-06
3.21992e-06
1.00509e-05
4.36028e-06
1.25311e-05
7.99348e-06
1.48958e-05
1.15474e-05
1.97174e-05
1.51767e-05
2.42488e-05
2.16501e-05
2.54421e-05
2.37016e-05
2.6031e-05
2.09592e-05
2.71548e-05
1.0896e-05
2.34389e-05
5.72238e-06
7.77943e-06
-1.72398e-05
-2.28144e-06
-4.47049e-05
-3.84341e-05
1.14953e-06
-4.79668e-05
-2.27184e-06
-6.0706e-05
-1.32556e-05
-5.33283e-05
-2.17229e-05
-3.47386e-05
-2.38471e-05
-2.61959e-05
-2.39053e-05
-1.37227e-06
-2.1566e-05
6.54633e-06
-1.61878e-05
9.19529e-06
-1.13432e-05
1.40862e-05
-9.01611e-06
1.06555e-05
-6.70833e-06
6.81541e-06
-4.21996e-06
3.83537e-06
-2.09287e-06
2.72632e-06
-7.26128e-07
3.92661e-06
3.80056e-07
5.63511e-06
1.46715e-06
5.37901e-06
2.80618e-06
3.36909e-06
4.89191e-06
2.18907e-06
7.35124e-06
3.47097e-06
9.6559e-06
6.49853e-06
1.20104e-05
9.79371e-06
1.73425e-05
1.1905e-05
2.36182e-05
4.11309e-06
2.62944e-05
3.81044e-07
2.54267e-05
-8.75485e-06
2.23281e-05
-3.03538e-05
1.45106e-05
-3.63235e-05
4.2653e-06
-5.36446e-05
-1.32963e-07
-6.13506e-05
-4.76747e-05
-2.73912e-06
-4.52334e-05
-4.35838e-06
-5.87663e-05
-4.72239e-06
-6.20871e-05
-6.06024e-06
-6.27228e-05
-1.09963e-05
-6.20938e-05
-1.64325e-05
-4.72642e-05
-1.85456e-05
-3.96733e-05
-1.63907e-05
-3.57041e-05
-1.03115e-05
-1.14658e-05
-6.17537e-06
7.51567e-06
-4.07541e-06
4.72653e-06
-2.33992e-06
3.28877e-06
-1.04412e-06
1.4814e-06
-1.31978e-07
1.66072e-06
3.53448e-07
2.05613e-06
7.82565e-07
2.41529e-06
1.67966e-06
1.18168e-06
3.08758e-06
5.29424e-07
4.95664e-06
2.79601e-06
7.32292e-06
5.04039e-06
1.17027e-05
7.03698e-06
1.67914e-05
-1.51259e-05
1.74935e-05
-4.28218e-05
1.44836e-05
-4.76418e-05
8.96164e-06
-5.40445e-05
4.87253e-06
-6.46444e-05
4.29158e-06
-6.38395e-05
4.4681e-06
-6.2274e-05
3.23373e-06
-5.81011e-05
-4.39346e-05
-3.52341e-06
-4.04012e-05
-3.78276e-06
-5.41266e-05
-1.56416e-06
-5.94978e-05
3.87237e-07
-6.43907e-05
1.45758e-06
-6.87005e-05
1.69048e-06
-7.13002e-05
1.1144e-06
-7.18132e-05
-4.42036e-06
-7.37844e-05
-8.18928e-06
-5.82639e-05
-4.45164e-06
-1.89538e-05
-1.40613e-06
-8.70571e-07
1.83032e-07
2.59043e-06
1.3913e-06
-7.60406e-07
2.13433e-06
-6.54453e-06
7.08597e-09
-3.61978e-05
-2.25275e-06
-3.47906e-05
-7.27729e-07
-4.31143e-06
4.4266e-07
-3.55416e-06
2.22191e-06
1.49696e-06
6.2119e-06
3.78242e-08
9.24437e-06
-2.34121e-05
3.18366e-06
-6.11451e-05
-3.1162e-06
-7.67252e-05
-3.21512e-06
-7.48385e-05
-2.29342e-06
-7.25722e-05
-8.03898e-07
-6.90889e-05
1.23157e-06
-6.45592e-05
3.28248e-06
-5.94713e-05
2.89809e-06
-5.35102e-05
-3.92308e-05
-9.77871e-07
-3.73742e-05
-1.73954e-06
-5.08288e-05
-3.61014e-07
-5.70426e-05
1.81615e-06
-6.19779e-05
4.43324e-06
-6.61436e-05
6.77828e-06
-6.97652e-05
8.42871e-06
-7.37816e-05
7.98807e-06
-7.80121e-05
2.89582e-06
-8.11542e-05
-3.86359e-06
-6.70432e-05
-4.73718e-07
-3.22033e-05
4.22137e-06
-1.95554e-06
9.6922e-06
-5.13456e-06
6.74837e-06
-4.46448e-05
-6.59234e-07
-7.36982e-05
-5.32921e-06
-7.2937e-05
-6.22217e-06
-3.25894e-05
-2.99219e-06
-1.3163e-05
2.82788e-07
-4.08266e-06
3.71248e-06
-3.73024e-05
-2.99278e-06
-7.16008e-05
-8.67686e-06
-8.22903e-05
-9.11413e-06
-7.89539e-05
-7.1587e-06
-7.43236e-05
-4.59877e-06
-7.02663e-05
-2.056e-06
-6.66338e-05
2.66672e-07
-6.22226e-05
1.79882e-06
-5.6906e-05
1.06502e-06
-5.01987e-05
-3.62858e-05
-1.95217e-06
-3.37568e-05
-1.90015e-06
-4.71812e-05
8.17818e-07
-5.44462e-05
3.73691e-06
-6.00738e-05
6.21292e-06
-6.44176e-05
8.27473e-06
-6.81552e-05
1.02168e-05
-7.13406e-05
1.20269e-05
-7.54209e-05
1.10921e-05
-8.04435e-05
2.08283e-06
-8.82466e-05
-1.78256e-06
-7.94759e-05
9.32768e-06
-5.01081e-05
1.16301e-05
-4.81616e-05
2.29232e-06
-8.0576e-05
-2.21931e-07
-7.73166e-05
-2.87332e-06
-7.74471e-05
-1.31832e-05
-7.06686e-05
-8.92051e-06
-3.78624e-05
-2.62092e-06
-5.14981e-05
-4.28986e-06
-8.49122e-05
-1.18105e-05
-8.86861e-05
-1.23345e-05
-8.13018e-05
-1.05318e-05
-7.6331e-05
-8.65457e-06
-7.21824e-05
-6.48818e-06
-6.86876e-05
-3.99393e-06
-6.48605e-05
-1.18926e-06
-6.03547e-05
1.55746e-06
-5.44e-05
1.84204e-06
-4.65741e-05
-3.26763e-05
-1.14691e-07
-3.04645e-05
5.07705e-07
-4.41858e-05
2.9104e-06
-5.24471e-05
5.43772e-06
-5.84523e-05
7.97165e-06
-6.26892e-05
1.01583e-05
-6.60094e-05
1.21769e-05
-6.88678e-05
1.35074e-05
-7.3278e-05
1.46221e-05
-7.75843e-05
1.22835e-05
-8.52195e-05
5.1438e-06
-9.48867e-05
8.52608e-07
-9.48255e-05
3.54633e-07
-9.05014e-05
5.57548e-11
-8.52864e-05
7.71326e-09
-7.76241e-05
-2.72995e-07
-7.7638e-05
-6.81792e-06
-8.5272e-05
-7.60218e-06
-7.71581e-05
-6.20267e-06
-9.50409e-05
-1.29234e-05
-9.50981e-05
-1.49767e-05
-8.57172e-05
-1.37252e-05
-7.86876e-05
-1.22983e-05
-7.41472e-05
-1.03605e-05
-6.9775e-05
-8.17554e-06
-6.67157e-05
-5.55799e-06
-6.31434e-05
-2.93178e-06
-5.87357e-05
-6.35801e-07
-5.24249e-05
-1.40689e-07
-4.36492e-05
-2.93574e-05
-1.68248e-07
-2.72913e-05
7.57969e-07
-4.11562e-05
3.87197e-06
-5.05716e-05
7.25863e-06
-5.68915e-05
1.00483e-05
-6.1148e-05
1.23442e-05
-6.39105e-05
1.41189e-05
-6.68043e-05
1.49802e-05
-7.03868e-05
1.57722e-05
-7.47929e-05
1.48032e-05
-8.22502e-05
9.57517e-06
-9.16549e-05
3.58809e-06
-9.42152e-05
9.58046e-07
-9.09483e-05
4.6662e-07
-8.43602e-05
3.05426e-07
-7.74188e-05
-2.75762e-08
-7.72842e-05
-1.02741e-06
-8.42589e-05
-4.28002e-06
-9.10996e-05
-1.03764e-05
-9.45568e-05
-1.52885e-05
-9.20793e-05
-1.59582e-05
-8.31056e-05
-1.50083e-05
-7.59928e-05
-1.40739e-05
-7.14959e-05
-1.22685e-05
-6.75368e-05
-1.01151e-05
-6.45147e-05
-7.40809e-06
-6.15769e-05
-4.08618e-06
-5.71886e-05
-8.45468e-07
-5.06029e-05
2.37876e-07
-4.06775e-05
-2.61798e-05
1.12332e-06
-2.38561e-05
2.83806e-06
-3.8504e-05
6.18293e-06
-4.8934e-05
9.28503e-06
-5.55428e-05
1.1856e-05
-5.95339e-05
1.40784e-05
-6.20025e-05
1.55556e-05
-6.43804e-05
1.63896e-05
-6.74262e-05
1.71285e-05
-7.258e-05
1.5841e-05
-7.88383e-05
1.08063e-05
-8.84706e-05
4.89824e-06
-9.14861e-05
1.90126e-06
-8.88217e-05
9.31292e-07
-8.29356e-05
4.78811e-07
-7.65865e-05
-1.45477e-07
-7.63602e-05
-1.72407e-06
-8.25323e-05
-5.37918e-06
-8.87813e-05
-1.13536e-05
-9.18059e-05
-1.61018e-05
-8.90982e-05
-1.70778e-05
-8.00133e-05
-1.62088e-05
-7.38475e-05
-1.54398e-05
-6.85246e-05
-1.40168e-05
-6.52438e-05
-1.17913e-05
-6.25285e-05
-9.18564e-06
-5.99602e-05
-6.10062e-06
-5.58117e-05
-2.84933e-06
-4.90224e-05
-1.15902e-06
-3.81377e-05
-2.28546e-05
1.59539e-06
-2.0662e-05
3.99538e-06
-3.65629e-05
7.95682e-06
-4.745e-05
1.12635e-05
-5.41247e-05
1.3989e-05
-5.76631e-05
1.57046e-05
-5.98166e-05
1.68345e-05
-6.1472e-05
1.74109e-05
-6.48516e-05
1.75667e-05
-6.9603e-05
1.70093e-05
-7.57403e-05
1.27121e-05
-8.55539e-05
6.5992e-06
-8.89083e-05
2.9072e-06
-8.65353e-05
1.32032e-06
-8.11699e-05
6.21632e-07
-7.53271e-05
-2.9453e-07
-7.50277e-05
-2.45468e-06
-8.04982e-05
-6.65225e-06
-8.62697e-05
-1.27356e-05
-8.91342e-05
-1.68691e-05
-8.62936e-05
-1.74969e-05
-7.71668e-05
-1.70919e-05
-7.1024e-05
-1.63812e-05
-6.59723e-05
-1.54145e-05
-6.2317e-05
-1.37888e-05
-6.03653e-05
-1.11471e-05
-5.80254e-05
-7.89062e-06
-5.43653e-05
-3.97547e-06
-4.74802e-05
-1.54752e-06
-3.61647e-05
-1.96285e-05
2.9225e-06
-1.85089e-05
6.29234e-06
-3.52727e-05
1.03508e-05
-4.64211e-05
1.33047e-05
-5.2772e-05
1.54379e-05
-5.59112e-05
1.71364e-05
-5.73077e-05
1.81722e-05
-5.88457e-05
1.79634e-05
-6.16771e-05
1.81431e-05
-6.64117e-05
1.80984e-05
-7.30391e-05
1.41421e-05
-8.2447e-05
7.76699e-06
-8.60263e-05
3.47463e-06
-8.38284e-05
1.5425e-06
-7.9027e-05
6.4034e-07
-7.37321e-05
-4.08476e-07
-7.34064e-05
-2.80107e-06
-7.81261e-05
-7.54359e-06
-8.33477e-05
-1.39311e-05
-8.60945e-05
-1.77429e-05
-8.3378e-05
-1.77164e-05
-7.46401e-05
-1.75408e-05
-6.78706e-05
-1.77181e-05
-6.29202e-05
-1.67479e-05
-5.95612e-05
-1.51548e-05
-5.77755e-05
-1.29939e-05
-5.61887e-05
-1.00768e-05
-5.29566e-05
-6.14479e-06
-4.64096e-05
-2.86321e-06
-3.48435e-05
-1.73411e-05
4.30095e-06
-1.88104e-05
8.59248e-06
-3.59812e-05
1.25801e-05
-4.61771e-05
1.51058e-05
-5.14801e-05
1.69761e-05
-5.37477e-05
1.83014e-05
-5.46668e-05
1.86006e-05
-5.59725e-05
1.85599e-05
-5.8283e-05
1.86558e-05
-6.3543e-05
1.77511e-05
-7.01588e-05
1.38278e-05
-7.90653e-05
7.85162e-06
-8.27771e-05
3.58176e-06
-8.08489e-05
1.49338e-06
-7.67244e-05
6.22004e-07
-7.18549e-05
-2.81655e-07
-7.15204e-05
-2.54264e-06
-7.57191e-05
-6.99375e-06
-8.02444e-05
-1.31135e-05
-8.27123e-05
-1.73488e-05
-8.00847e-05
-1.83197e-05
-7.18963e-05
-1.79569e-05
-6.51964e-05
-1.79471e-05
-5.94334e-05
-1.77631e-05
-5.66483e-05
-1.65939e-05
-5.50524e-05
-1.47811e-05
-5.39452e-05
-1.22695e-05
-5.15092e-05
-8.39568e-06
-4.59995e-05
-4.18117e-06
-3.53128e-05
-1.73234e-05
6.23288e-06
-2.29672e-05
1.05018e-05
-3.89946e-05
1.39394e-05
-4.67833e-05
1.62166e-05
-5.04837e-05
1.78385e-05
-5.15445e-05
1.88109e-05
-5.19241e-05
1.91652e-05
-5.29315e-05
1.88348e-05
-5.5206e-05
1.86212e-05
-6.03405e-05
1.87719e-05
-6.71873e-05
1.53961e-05
-7.6107e-05
8.96893e-06
-7.97022e-05
4.08247e-06
-7.78574e-05
1.61132e-06
-7.41979e-05
5.86018e-07
-6.97018e-05
-3.99028e-07
-6.93806e-05
-2.94169e-06
-7.33087e-05
-7.91823e-06
-7.7327e-05
-1.43265e-05
-7.95745e-05
-1.80037e-05
-7.71199e-05
-1.81405e-05
-6.90084e-05
-1.81989e-05
-6.21842e-05
-1.8442e-05
-5.63963e-05
-1.82954e-05
-5.34736e-05
-1.74542e-05
-5.22717e-05
-1.58461e-05
-5.16035e-05
-1.36433e-05
-5.0352e-05
-1.02569e-05
-4.63564e-05
-6.04212e-06
-3.78768e-05
-2.092e-05
7.68998e-06
-3.10153e-05
1.13325e-05
-4.35677e-05
1.43063e-05
-4.77982e-05
1.64991e-05
-4.94699e-05
1.79551e-05
-4.9363e-05
1.89353e-05
-4.91263e-05
1.89919e-05
-5.00335e-05
1.87403e-05
-5.21925e-05
1.90989e-05
-5.74794e-05
1.89012e-05
-6.43473e-05
1.52285e-05
-7.29881e-05
8.87186e-06
-7.63507e-05
4.03549e-06
-7.46912e-05
1.59284e-06
-7.13942e-05
5.48639e-07
-6.72858e-05
-4.3413e-07
-6.69752e-05
-2.96295e-06
-7.0668e-05
-7.92823e-06
-7.41365e-05
-1.42718e-05
-7.6181e-05
-1.81324e-05
-7.39726e-05
-1.84561e-05
-6.62719e-05
-1.80827e-05
-5.92921e-05
-1.83457e-05
-5.33581e-05
-1.83526e-05
-5.0546e-05
-1.75867e-05
-4.94204e-05
-1.62266e-05
-4.92657e-05
-1.40357e-05
-4.91981e-05
-1.11716e-05
-4.70901e-05
-7.61835e-06
-4.20028e-05
-2.83373e-05
7.20015e-06
-3.90162e-05
1.05905e-05
-4.73852e-05
1.37219e-05
-4.87199e-05
1.57626e-05
-4.84876e-05
1.73181e-05
-4.72968e-05
1.83281e-05
-4.65391e-05
1.87085e-05
-4.72439e-05
1.88654e-05
-4.94684e-05
1.93222e-05
-5.48561e-05
1.93781e-05
-6.17139e-05
1.56727e-05
-6.98707e-05
9.11328e-06
-7.29686e-05
4.23492e-06
-7.15205e-05
1.7932e-06
-6.83548e-05
5.79015e-07
-6.4652e-05
-5.42655e-07
-6.43394e-05
-2.9501e-06
-6.7759e-05
-7.70529e-06
-7.08834e-05
-1.4201e-05
-7.27937e-05
-1.84209e-05
-7.07807e-05
-1.88122e-05
-6.36006e-05
-1.82584e-05
-5.66794e-05
-1.80266e-05
-5.055e-05
-1.78781e-05
-4.77476e-05
-1.70514e-05
-4.67942e-05
-1.55581e-05
-4.705e-05
-1.36057e-05
-4.81118e-05
-1.05962e-05
-4.78644e-05
-7.29175e-06
-4.57828e-05
-3.60655e-05
5.84219e-06
-4.39014e-05
9.24211e-06
-4.9208e-05
1.23108e-05
-4.91451e-05
1.44518e-05
-4.74399e-05
1.61277e-05
-4.54693e-05
1.75e-05
-4.41677e-05
1.82228e-05
-4.48028e-05
1.88408e-05
-4.72132e-05
1.98956e-05
-5.26766e-05
2.01269e-05
-5.91682e-05
1.64207e-05
-6.67566e-05
9.67406e-06
-6.97627e-05
4.57704e-06
-6.83326e-05
2.06195e-06
-6.50921e-05
6.08062e-07
-6.17773e-05
-7.97394e-07
-6.14516e-05
-3.335e-06
-6.45023e-05
-8.34279e-06
-6.76622e-05
-1.49813e-05
-6.95642e-05
-1.90902e-05
-6.76431e-05
-1.93027e-05
-6.09491e-05
-1.83204e-05
-5.44178e-05
-1.76741e-05
-4.83814e-05
-1.71151e-05
-4.52631e-05
-1.59601e-05
-4.42742e-05
-1.43456e-05
-4.50993e-05
-1.2297e-05
-4.70089e-05
-9.30174e-06
-4.83241e-05
-5.94512e-06
-4.77827e-05
-4.11641e-05
5.39527e-06
-4.6478e-05
8.14057e-06
-4.98035e-05
1.06034e-05
-4.89308e-05
1.2848e-05
-4.61222e-05
1.46917e-05
-4.38137e-05
1.63914e-05
-4.22265e-05
1.77406e-05
-4.27674e-05
1.90363e-05
-4.5593e-05
2.04663e-05
-5.09291e-05
2.08112e-05
-5.66967e-05
1.7242e-05
-6.35923e-05
1.0463e-05
-6.6471e-05
5.10466e-06
-6.50263e-05
2.35341e-06
-6.18174e-05
6.2184e-07
-5.8775e-05
-1.02216e-06
-5.84057e-05
-3.6488e-06
-6.11065e-05
-8.74219e-06
-6.43517e-05
-1.55379e-05
-6.61661e-05
-1.98069e-05
-6.44655e-05
-2.00043e-05
-5.83067e-05
-1.86158e-05
-5.24662e-05
-1.73017e-05
-4.67782e-05
-1.61418e-05
-4.32006e-05
-1.45863e-05
-4.2141e-05
-1.27797e-05
-4.33421e-05
-1.06552e-05
-4.57095e-05
-8.2339e-06
-4.8156e-05
-5.40231e-06
-4.85014e-05
-4.40162e-05
5.43435e-06
-4.80861e-05
7.17502e-06
-4.95498e-05
9.12478e-06
-4.79096e-05
1.12083e-05
-4.44583e-05
1.31228e-05
-4.22315e-05
1.52646e-05
-4.07223e-05
1.72322e-05
-4.13355e-05
1.9129e-05
-4.45797e-05
2.10834e-05
-4.93486e-05
2.17556e-05
-5.4379e-05
1.84458e-05
-6.0478e-05
1.15409e-05
-6.3147e-05
5.65491e-06
-6.16561e-05
2.53121e-06
-5.85315e-05
6.01264e-07
-5.57384e-05
-1.17497e-06
-5.52625e-05
-4.06014e-06
-5.77691e-05
-9.66495e-06
-6.0926e-05
-1.66951e-05
-6.27728e-05
-2.08169e-05
-6.1239e-05
-2.0764e-05
-5.57509e-05
-1.89052e-05
-5.06339e-05
-1.6947e-05
-4.56938e-05
-1.50885e-05
-4.17177e-05
-1.30883e-05
-4.04724e-05
-1.11923e-05
-4.16836e-05
-9.22381e-06
-4.40684e-05
-7.37028e-06
-4.72234e-05
-5.50099e-06
-4.83853e-05
-4.56885e-05
4.80886e-06
-4.89821e-05
6.01535e-06
-4.85666e-05
7.70357e-06
-4.59901e-05
9.6307e-06
-4.24286e-05
1.16446e-05
-4.04674e-05
1.40484e-05
-3.94369e-05
1.65389e-05
-4.04437e-05
1.91207e-05
-4.38077e-05
2.16171e-05
-4.79165e-05
2.26207e-05
-5.21241e-05
1.97521e-05
-5.72227e-05
1.28992e-05
-5.97894e-05
6.45238e-06
-5.83811e-05
2.84294e-06
-5.51095e-05
6.32837e-07
-5.24792e-05
-1.42438e-06
-5.2049e-05
-4.72329e-06
-5.43739e-05
-1.08527e-05
-5.74734e-05
-1.80203e-05
-5.93761e-05
-2.18452e-05
-5.78224e-05
-2.14641e-05
-5.32649e-05
-1.90793e-05
-4.89843e-05
-1.64404e-05
-4.4775e-05
-1.39836e-05
-4.08258e-05
-1.164e-05
-3.91318e-05
-9.65078e-06
-3.99051e-05
-7.77338e-06
-4.20246e-05
-6.24646e-06
-4.55212e-05
-5.08809e-06
-4.74275e-05
-4.66486e-05
3.66365e-06
-4.88856e-05
4.84512e-06
-4.68795e-05
6.42209e-06
-4.32704e-05
7.98842e-06
-3.98547e-05
9.95826e-06
-3.80753e-05
1.25434e-05
-3.79713e-05
1.53713e-05
-3.9857e-05
1.85695e-05
-4.30965e-05
2.18033e-05
-4.66137e-05
2.34713e-05
-4.99292e-05
2.15085e-05
-5.40036e-05
1.49185e-05
-5.63024e-05
7.6678e-06
-5.50047e-05
3.32195e-06
-5.14156e-05
7.23919e-07
-4.86498e-05
-1.78082e-06
-4.84324e-05
-5.74878e-06