/*--------------------------------*- C++ -*----------------------------------*\
| =========                 |                                                 |
| \\      /  F ield         | OpenFOAM: The Open Source CFD Toolbox           |
|  \\    /   O peration     | Version:  v1606+                                |
|   \\  /    A nd           | Web:      www.OpenFOAM.com                      |
|    \\/     M anipulation  |                                                 |
\*---------------------------------------------------------------------------*/
FoamFile
{
    version     2.0;
    format      ascii;
    class       volVectorField;
    location    "0.56";
    object      U;
}
// * * * * * * * * * * * * * * * * * * * * * * * * * * * * * * * * * * * * * //

dimensions      [0 1 -1 0 0 0 0];

internalField   nonuniform List<vector> 
6000
(
(-0.00350528 -0.0258525 0)
(0.0246415 -0.0472167 0)
(0.0435791 -0.0351961 0)
(0.0635665 -0.0207388 0)
(0.0723499 -0.0287345 0)
(0.0717642 -0.0417284 0)
(0.0620335 -0.0565758 0)
(0.0445722 -0.0660325 0)
(0.0232763 -0.0735243 0)
(0.0026383 -0.0886447 0)
(-0.0197263 -0.10657 0)
(-0.0388434 -0.115988 0)
(-0.0448572 -0.112331 0)
(-0.0345085 -0.116125 0)
(-0.0128606 -0.118561 0)
(0.0119212 -0.117479 0)
(0.0332843 -0.117505 0)
(0.0414343 -0.112038 0)
(0.0320698 -0.115466 0)
(0.0117139 -0.104233 0)
(-0.00985305 -0.0852267 0)
(-0.0307694 -0.0701251 0)
(-0.0521991 -0.06399 0)
(-0.0687337 -0.0552805 0)
(-0.0775118 -0.0407551 0)
(-0.0770671 -0.0270629 0)
(-0.0674545 -0.0195198 0)
(-0.0460931 -0.0363963 0)
(-0.0266252 -0.0478269 0)
(0.00261859 -0.0245378 0)
(0.0214988 0.629082 0)
(0.0252928 0.627359 0)
(0.0588232 0.623672 0)
(0.0932098 0.626086 0)
(0.114067 0.654217 0)
(0.115487 0.680945 0)
(0.10443 0.706837 0)
(0.0814369 0.721914 0)
(0.049542 0.724721 0)
(0.00760132 0.727013 0)
(-0.0414577 0.744463 0)
(-0.0682158 0.725506 0)
(-0.0656424 0.68263 0)
(-0.0440377 0.648142 0)
(-0.0148428 0.631586 0)
(0.0156269 0.632451 0)
(0.0435526 0.652536 0)
(0.0621854 0.689948 0)
(0.0606032 0.732561 0)
(0.0295004 0.742767 0)
(-0.0190154 0.725839 0)
(-0.0590899 0.724719 0)
(-0.0899041 0.720325 0)
(-0.111597 0.704804 0)
(-0.122036 0.678895 0)
(-0.119537 0.651656 0)
(-0.0972624 0.623108 0)
(-0.0616312 0.621666 0)
(-0.0276374 0.625818 0)
(-0.0224045 0.62414 0)
(-0.0184203 0.420918 0)
(0.00638724 0.377993 0)
(0.0646269 0.373583 0)
(0.109616 0.391787 0)
(0.135099 0.423608 0)
(0.137955 0.448365 0)
(0.125965 0.467072 0)
(0.100067 0.489344 0)
(0.0559982 0.515785 0)
(-0.00871534 0.545442 0)
(-0.0767665 0.542105 0)
(-0.0956619 0.47822 0)
(-0.0728008 0.423925 0)
(-0.0407384 0.394065 0)
(-0.0119381 0.385351 0)
(0.0126706 0.385784 0)
(0.0408637 0.397346 0)
(0.0715302 0.432121 0)
(0.0905737 0.488472 0)
(0.0646553 0.544184 0)
(-0.00563781 0.538908 0)
(-0.066617 0.511793 0)
(-0.108319 0.484983 0)
(-0.132812 0.464321 0)
(-0.143578 0.446533 0)
(-0.139638 0.422276 0)
(-0.113882 0.390612 0)
(-0.0678745 0.371985 0)
(-0.00751517 0.377229 0)
(0.0185379 0.420566 0)
(0.00271538 0.449545 0)
(0.0277011 0.341357 0)
(0.0764052 0.337296 0)
(0.118357 0.364088 0)
(0.152805 0.420724 0)
(0.163712 0.478718 0)
(0.152062 0.523143 0)
(0.12546 0.566431 0)
(0.0841679 0.60245 0)
(0.0263799 0.617926 0)
(-0.0417636 0.592036 0)
(-0.100079 0.513795 0)
(-0.110646 0.452794 0)
(-0.0654861 0.409121 0)
(-0.0191925 0.399452 0)
(0.0233749 0.400418 0)
(0.0685549 0.416154 0)
(0.10728 0.463014 0)
(0.0866779 0.524083 0)
(0.025788 0.597636 0)
(-0.039525 0.617787 0)
(-0.0941563 0.598496 0)
(-0.132105 0.563828 0)
(-0.15715 0.519435 0)
(-0.167036 0.474086 0)
(-0.154662 0.416614 0)
(-0.119527 0.359734 0)
(-0.0773042 0.33139 0)
(-0.0278357 0.33555 0)
(-0.00194651 0.443905 0)
(0.0313974 0.491509 0)
(0.0696509 0.354227 0)
(0.11297 0.34414 0)
(0.162866 0.380841 0)
(0.21199 0.466232 0)
(0.23892 0.564455 0)
(0.232797 0.632675 0)
(0.205267 0.689955 0)
(0.170549 0.746721 0)
(0.118726 0.788841 0)
(0.0498021 0.733203 0)
(-0.0299778 0.550998 0)
(-0.0786042 0.391411 0)
(-0.0794261 0.351176 0)
(-0.0254966 0.339755 0)
(0.0333646 0.342075 0)
(0.0782001 0.359226 0)
(0.0646205 0.408524 0)
(0.0119203 0.584232 0)
(-0.0686656 0.746064 0)
(-0.132126 0.782607 0)
(-0.179859 0.73646 0)
(-0.211594 0.683018 0)
(-0.236204 0.62727 0)
(-0.239977 0.558625 0)
(-0.211233 0.461031 0)
(-0.161384 0.376856 0)
(-0.112874 0.339043 0)
(-0.0703866 0.34676 0)
(-0.0309948 0.487801 0)
(0.0255225 0.39795 0)
(0.0533297 0.32824 0)
(0.103246 0.305719 0)
(0.156196 0.335663 0)
(0.216889 0.419235 0)
(0.275978 0.533945 0)
(0.3055 0.621906 0)
(0.296313 0.687746 0)
(0.276626 0.749507 0)
(0.254629 0.813738 0)
(0.229284 0.859074 0)
(0.134003 0.762651 0)
(0.0211343 0.481567 0)
(-0.0222439 0.299617 0)
(-0.0159168 0.270067 0)
(0.0171914 0.27247 0)
(0.0107021 0.329024 0)
(-0.0452378 0.527733 0)
(-0.162339 0.787827 0)
(-0.239706 0.84805 0)
(-0.260987 0.798494 0)
(-0.280859 0.735738 0)
(-0.299665 0.676378 0)
(-0.304278 0.612153 0)
(-0.271707 0.526399 0)
(-0.212323 0.413434 0)
(-0.152751 0.333989 0)
(-0.102546 0.305879 0)
(-0.0535878 0.321911 0)
(-0.0243505 0.393771 0)
(0.0199698 0.393784 0)
(0.0208882 0.265807 0)
(0.0541867 0.237856 0)
(0.0883674 0.250475 0)
(0.145602 0.319283 0)
(0.228504 0.437604 0)
(0.307162 0.567068 0)
(0.337243 0.673884 0)
(0.318787 0.73859 0)
(0.296416 0.787248 0)
(0.287286 0.812924 0)
(0.270252 0.820136 0)
(0.159562 0.657671 0)
(0.0543063 0.386597 0)
(0.00390996 0.273358 0)
(-0.0182335 0.294159 0)
(-0.0773776 0.441934 0)
(-0.189463 0.693561 0)
(-0.282183 0.815083 0)
(-0.28933 0.802388 0)
(-0.301041 0.774632 0)
(-0.3214 0.72563 0)
(-0.33712 0.661804 0)
(-0.299319 0.552614 0)
(-0.218903 0.429325 0)
(-0.138788 0.314805 0)
(-0.0843143 0.249388 0)
(-0.0516035 0.239885 0)
(-0.0188422 0.258452 0)
(-0.020235 0.392285 0)
(0.0193047 0.368996 0)
(0.0254352 0.263048 0)
(0.0205913 0.213936 0)
(0.0313574 0.21401 0)
(0.0594654 0.253396 0)
(0.121656 0.343447 0)
(0.220047 0.491746 0)
(0.311965 0.662351 0)
(0.32878 0.772772 0)
(0.301174 0.817497 0)
(0.268102 0.835239 0)
(0.255324 0.833419 0)
(0.200306 0.739827 0)
(0.107708 0.497414 0)
(0.0210341 0.345469 0)
(-0.0545912 0.3693 0)
(-0.135441 0.546332 0)
(-0.219318 0.759526 0)
(-0.262571 0.825269 0)
(-0.273615 0.824559 0)
(-0.306418 0.803924 0)
(-0.32942 0.757309 0)
(-0.303189 0.641553 0)
(-0.206781 0.471783 0)
(-0.11184 0.336981 0)
(-0.0531153 0.253115 0)
(-0.029582 0.213513 0)
(-0.0183413 0.215934 0)
(-0.0224268 0.256938 0)
(-0.0220003 0.368052 0)
(0.00892207 0.329623 0)
(0.0294347 0.273973 0)
(0.0167811 0.217973 0)
(0.00625324 0.216243 0)
(0.000560101 0.230033 0)
(0.0160094 0.268213 0)
(0.0768439 0.375494 0)
(0.189513 0.569481 0)
(0.283336 0.770362 0)
(0.280554 0.849425 0)
(0.236137 0.865488 0)
(0.206576 0.863406 0)
(0.165355 0.792208 0)
(0.109422 0.567107 0)
(0.0321491 0.409792 0)
(-0.0648453 0.430278 0)
(-0.129064 0.606418 0)
(-0.179768 0.804889 0)
(-0.216089 0.852441 0)
(-0.245327 0.852354 0)
(-0.283636 0.834858 0)
(-0.275125 0.742815 0)
(-0.172822 0.542481 0)
(-0.0684295 0.359638 0)
(-0.0177544 0.268099 0)
(-0.00335563 0.237183 0)
(-0.00921506 0.219301 0)
(-0.018703 0.220262 0)
(-0.0310581 0.271132 0)
(-0.0101554 0.32646 0)
(0.013169 0.314145 0)
(0.027398 0.271662 0)
(0.0186312 0.235715 0)
(-0.00335034 0.236944 0)
(-0.0261451 0.244857 0)
(-0.041429 0.266453 0)
(-0.0311807 0.313558 0)
(0.0296108 0.437545 0)
(0.145456 0.701681 0)
(0.21234 0.87241 0)
(0.187305 0.915224 0)
(0.153068 0.911021 0)
(0.119393 0.835005 0)
(0.0911258 0.625428 0)
(0.0304332 0.490163 0)
(-0.0636125 0.504574 0)
(-0.111658 0.655014 0)
(-0.134927 0.843927 0)
(-0.161597 0.901762 0)
(-0.197569 0.89504 0)
(-0.206224 0.844213 0)
(-0.126282 0.66351 0)
(-0.021637 0.415509 0)
(0.0305335 0.314995 0)
(0.0386109 0.267844 0)
(0.0254441 0.24796 0)
(0.00406884 0.23795 0)
(-0.0171797 0.235147 0)
(-0.0256061 0.267783 0)
(-0.013481 0.312325 0)
(0.014069 0.288395 0)
(0.022939 0.264578 0)
(0.013915 0.252371 0)
(-0.00714791 0.260527 0)
(-0.032771 0.273447 0)
(-0.0645977 0.289873 0)
(-0.0946097 0.309271 0)
(-0.082118 0.378592 0)
(-0.0228728 0.579598 0)
(0.085021 0.833528 0)
(0.114799 0.934502 0)
(0.0892651 0.962232 0)
(0.0925525 0.849745 0)
(0.0874816 0.666406 0)
(0.0309214 0.568509 0)
(-0.0709598 0.575024 0)
(-0.107217 0.684379 0)
(-0.101434 0.850723 0)
(-0.094017 0.953005 0)
(-0.115496 0.897619 0)
(-0.0695053 0.791527 0)
(0.0297169 0.543725 0)
(0.083654 0.371158 0)
(0.0933871 0.310335 0)
(0.0635713 0.289617 0)
(0.0340498 0.273381 0)
(0.00997187 0.260181 0)
(-0.0108001 0.251518 0)
(-0.0207754 0.26211 0)
(-0.014257 0.286606 0)
(0.0101255 0.273529 0)
(0.0107374 0.265175 0)
(-0.000475419 0.2683 0)
(-0.0203511 0.281119 0)
(-0.0441315 0.297449 0)
(-0.0697712 0.31704 0)
(-0.101864 0.340717 0)
(-0.149074 0.37434 0)
(-0.131576 0.506047 0)
(-0.0638058 0.748397 0)
(0.0177535 0.904807 0)
(0.0239214 0.972586 0)
(0.0693049 0.819961 0)
(0.0913002 0.688279 0)
(0.0431028 0.649945 0)
(-0.0700555 0.64618 0)
(-0.100094 0.685837 0)
(-0.0678526 0.820487 0)
(-0.0204179 0.952013 0)
(-0.00756694 0.859712 0)
(0.0763063 0.705323 0)
(0.133139 0.483633 0)
(0.147328 0.369498 0)
(0.0995424 0.33803 0)
(0.0714853 0.314565 0)
(0.0468181 0.295931 0)
(0.0234935 0.280442 0)
(0.00332005 0.268025 0)
(-0.00893448 0.26465 0)
(-0.00961534 0.273176 0)
(0.00503096 0.269057 0)
(-0.000967293 0.273892 0)
(-0.01605 0.287041 0)
(-0.0384702 0.305003 0)
(-0.065449 0.325363 0)
(-0.0952069 0.348037 0)
(-0.124722 0.372323 0)
(-0.156511 0.410067 0)
(-0.198708 0.480353 0)
(-0.16902 0.671909 0)
(-0.0783892 0.843017 0)
(-0.0320949 0.927042 0)
(0.0393183 0.775073 0)
(0.0841492 0.679958 0)
(0.0543686 0.725993 0)
(-0.0663532 0.714006 0)
(-0.0850106 0.665469 0)
(-0.0319365 0.77129 0)
(0.0431164 0.89991 0)
(0.0943672 0.80167 0)
(0.172775 0.639127 0)
(0.196754 0.464711 0)
(0.154352 0.403145 0)
(0.126282 0.36764 0)
(0.0978053 0.344744 0)
(0.068341 0.323668 0)
(0.0411199 0.304698 0)
(0.0181467 0.287628 0)
(0.00221154 0.27467 0)
(-0.0044474 0.269367 0)
(3.48091e-05 0.270625 0)
(-0.0111153 0.286995 0)
(-0.0297697 0.308303 0)
(-0.0564583 0.33236 0)
(-0.088993 0.356601 0)
(-0.125216 0.383076 0)
(-0.16345 0.410262 0)
(-0.197089 0.441323 0)
(-0.222446 0.498533 0)
(-0.238592 0.614872 0)
(-0.163923 0.76824 0)
(-0.0839972 0.850664 0)
(-0.000490161 0.723377 0)
(0.0514309 0.652087 0)
(0.0481319 0.774545 0)
(-0.0453416 0.76214 0)
(-0.0459225 0.63885 0)
(0.0106435 0.708934 0)
(0.0975875 0.817543 0)
(0.179724 0.736276 0)
(0.24114 0.589492 0)
(0.221106 0.484787 0)
(0.197089 0.432555 0)
(0.164816 0.404031 0)
(0.127958 0.378985 0)
(0.0917613 0.355456 0)
(0.0583245 0.33277 0)
(0.0309808 0.309785 0)
(0.0117616 0.288564 0)
(0.00030243 0.271832 0)
(-0.00440681 0.279535 0)
(-0.0196907 0.304072 0)
(-0.0407248 0.332721 0)
(-0.0714018 0.363831 0)
(-0.110905 0.391986 0)
(-0.157081 0.424246 0)
(-0.205587 0.453954 0)
(-0.247 0.478795 0)
(-0.273135 0.509416 0)
(-0.275735 0.58635 0)
(-0.254411 0.700208 0)
(-0.138515 0.752322 0)
(-0.0701426 0.677685 0)
(-0.0380067 0.652237 0)
(-0.00740225 0.849701 0)
(0.0329231 0.848151 0)
(0.0579558 0.643843 0)
(0.0820211 0.653865 0)
(0.153162 0.716656 0)
(0.265562 0.675197 0)
(0.276971 0.569277 0)
(0.271339 0.497469 0)
(0.244854 0.469804 0)
(0.204395 0.445498 0)
(0.158544 0.41833 0)
(0.113046 0.391808 0)
(0.0723039 0.365082 0)
(0.0410561 0.334838 0)
(0.0197891 0.305672 0)
(0.00456616 0.281089 0)
(-0.00881525 0.295548 0)
(-0.0303041 0.325731 0)
(-0.0543884 0.360394 0)
(-0.0859356 0.401486 0)
(-0.129679 0.435263 0)
(-0.190317 0.472873 0)
(-0.245929 0.499597 0)
(-0.291183 0.52019 0)
(-0.322383 0.529265 0)
(-0.323754 0.555379 0)
(-0.297303 0.634797 0)
(-0.221631 0.654118 0)
(-0.169164 0.671255 0)
(-0.158268 0.650809 0)
(-0.0817017 0.61387 0)
(0.0976212 0.62946 0)
(0.18635 0.652947 0)
(0.186679 0.644356 0)
(0.233252 0.626932 0)
(0.300593 0.614685 0)
(0.324606 0.542836 0)
(0.320562 0.521374 0)
(0.286905 0.511436 0)
(0.241919 0.489391 0)
(0.18781 0.464766 0)
(0.130087 0.43725 0)
(0.0858743 0.404205 0)
(0.0534731 0.36303 0)
(0.0299591 0.326552 0)
(0.00893046 0.297335 0)
(-0.0146233 0.320922 0)
(-0.0533376 0.357128 0)
(-0.0914551 0.392233 0)
(-0.123437 0.44454 0)
(-0.157998 0.492239 0)
(-0.214178 0.545201 0)
(-0.277656 0.558372 0)
(-0.324084 0.565057 0)
(-0.351002 0.544891 0)
(-0.346886 0.537539 0)
(-0.309526 0.565408 0)
(-0.255503 0.610492 0)
(-0.199701 0.63931 0)
(-0.117624 0.5248 0)
(-0.0462232 0.48383 0)
(0.0472118 0.484636 0)
(0.128044 0.529766 0)
(0.20997 0.617043 0)
(0.259874 0.588423 0)
(0.312532 0.54918 0)
(0.347905 0.529872 0)
(0.348531 0.538929 0)
(0.31987 0.559452 0)
(0.272863 0.546117 0)
(0.204141 0.534417 0)
(0.1563 0.491165 0)
(0.118733 0.447234 0)
(0.085117 0.394951 0)
(0.0512915 0.356153 0)
(0.0153806 0.323213 0)
(-0.0280892 0.359301 0)
(-0.0984225 0.411197 0)
(-0.168315 0.429641 0)
(-0.199489 0.478547 0)
(-0.22441 0.522551 0)
(-0.250601 0.595903 0)
(-0.316964 0.632901 0)
(-0.347646 0.626165 0)
(-0.358124 0.55601 0)
(-0.347168 0.516312 0)
(-0.303999 0.508698 0)
(-0.252767 0.554807 0)
(-0.155937 0.574842 0)
(-0.0813021 0.482404 0)
(-0.0268531 0.45 0)
(0.0296169 0.448282 0)
(0.0880261 0.478668 0)
(0.17051 0.559708 0)
(0.259483 0.535741 0)
(0.30736 0.496423 0)
(0.347652 0.509316 0)
(0.354917 0.554542 0)
(0.345455 0.622602 0)
(0.302809 0.618736 0)
(0.240183 0.576968 0)
(0.21637 0.525608 0)
(0.183897 0.48424 0)
(0.148705 0.430569 0)
(0.0909021 0.402941 0)
(0.0267929 0.365065 0)
(-0.0805134 0.441476 0)
(-0.23033 0.506641 0)
(-0.274886 0.465522 0)
(-0.288836 0.50141 0)
(-0.30119 0.537904 0)
(-0.316513 0.611217 0)
(-0.352818 0.654345 0)
(-0.355576 0.637079 0)
(-0.347309 0.565715 0)
(-0.331718 0.484911 0)
(-0.290961 0.455818 0)
(-0.245441 0.486585 0)
(-0.136133 0.497705 0)
(-0.0629999 0.423803 0)
(-0.0175796 0.403438 0)
(0.0234162 0.399997 0)
(0.0696411 0.415671 0)
(0.145865 0.477568 0)
(0.250528 0.470032 0)
(0.294351 0.446461 0)
(0.332716 0.480267 0)
(0.345815 0.568762 0)
(0.356364 0.637099 0)
(0.339933 0.642758 0)
(0.304247 0.597142 0)
(0.291281 0.548606 0)
(0.268788 0.51613 0)
(0.245426 0.470139 0)
(0.171568 0.474549 0)
(0.0616343 0.427397 0)
(-0.11206 0.669214 0)
(-0.272778 0.632231 0)
(-0.319007 0.494973 0)
(-0.349962 0.519126 0)
(-0.358482 0.549939 0)
(-0.369255 0.617854 0)
(-0.375675 0.654965 0)
(-0.364865 0.629582 0)
(-0.332792 0.557877 0)
(-0.303585 0.448393 0)
(-0.265594 0.405047 0)
(-0.219245 0.409492 0)
(-0.112524 0.404873 0)
(-0.0510762 0.364043 0)
(-0.0126468 0.36338 0)
(0.021462 0.359797 0)
(0.0604908 0.355433 0)
(0.122864 0.38798 0)
(0.222507 0.395925 0)
(0.268601 0.397547 0)
(0.30573 0.444385 0)
(0.336719 0.563003 0)
(0.371037 0.632469 0)
(0.376783 0.645699 0)
(0.367806 0.607417 0)
(0.361262 0.563475 0)
(0.35018 0.539739 0)
(0.311444 0.507397 0)
(0.24642 0.615006 0)
(0.12219 0.609445 0)
(-0.058782 0.802011 0)
(-0.103178 0.574487 0)
(-0.288803 0.529619 0)
(-0.384602 0.575808 0)
(-0.384421 0.567693 0)
(-0.384101 0.63317 0)
(-0.373935 0.648476 0)
(-0.358432 0.604774 0)
(-0.302333 0.526665 0)
(-0.26727 0.409284 0)
(-0.2297 0.355824 0)
(-0.178803 0.337227 0)
(-0.0954753 0.326566 0)
(-0.0423142 0.317633 0)
(-0.0094367 0.331679 0)
(0.0190801 0.327282 0)
(0.0533624 0.307964 0)
(0.107182 0.313895 0)
(0.185403 0.327575 0)
(0.235049 0.349984 0)
(0.271898 0.403668 0)
(0.310135 0.526385 0)
(0.370798 0.607792 0)
(0.388297 0.643413 0)
(0.397722 0.616315 0)
(0.399705 0.585461 0)
(0.398547 0.591601 0)
(0.316158 0.557242 0)
(0.133645 0.54763 0)
(0.0744605 0.743971 0)
(0.0048461 0.956412 0)
(-0.10828 0.932468 0)
(-0.315687 0.726932 0)
(-0.416857 0.570613 0)
(-0.399519 0.4948 0)
(-0.38891 0.606029 0)
(-0.373752 0.632988 0)
(-0.338906 0.597475 0)
(-0.272855 0.486113 0)
(-0.234396 0.371792 0)
(-0.194794 0.30672 0)
(-0.142615 0.278125 0)
(-0.0794863 0.264051 0)
(-0.0292798 0.275517 0)
(-0.00259723 0.311189 0)
(0.0112274 0.304353 0)
(0.0395972 0.264748 0)
(0.0918588 0.251983 0)
(0.155126 0.27004 0)
(0.205801 0.303658 0)
(0.243425 0.366047 0)
(0.283226 0.481156 0)
(0.361429 0.596006 0)
(0.39895 0.624801 0)
(0.413865 0.578778 0)
(0.428828 0.498769 0)
(0.450469 0.616984 0)
(0.365966 0.785588 0)
(0.166411 0.989547 0)
(0.0155328 1.00072 0)
(-0.0134338 0.992032 0)
(-0.0896194 1.07447 0)
(-0.223124 1.04714 0)
(-0.367941 0.867886 0)
(-0.472249 0.663533 0)
(-0.478377 0.591807 0)
(-0.421843 0.515291 0)
(-0.383594 0.453335 0)
(-0.296896 0.464585 0)
(-0.218195 0.330368 0)
(-0.168889 0.253515 0)
(-0.115329 0.226865 0)
(-0.0592003 0.20874 0)
(-0.00271641 0.227194 0)
(0.0125026 0.31075 0)
(-0.00872182 0.298099 0)
(0.0107105 0.215816 0)
(0.0711057 0.192597 0)
(0.132769 0.21688 0)
(0.187248 0.253728 0)
(0.237493 0.322239 0)
(0.321938 0.441706 0)
(0.409782 0.410767 0)
(0.464475 0.536352 0)
(0.497119 0.587403 0)
(0.48236 0.714536 0)
(0.371016 0.867409 0)
(0.24301 0.997917 0)
(0.121161 1.02882 0)
(0.0350352 0.977893 0)
(-0.0949837 1.01199 0)
(-0.186953 1.03585 0)
(-0.252101 0.956702 0)
(-0.330936 0.8244 0)
(-0.442019 0.742702 0)
(-0.52599 0.746431 0)
(-0.57154 0.728679 0)
(-0.587213 0.550366 0)
(-0.456108 0.236234 0)
(-0.246106 0.277078 0)
(-0.149445 0.19366 0)
(-0.0917772 0.180243 0)
(-0.0331447 0.148589 0)
(0.0310055 0.17388 0)
(0.0428176 0.414565 0)
(-0.0479293 0.390921 0)
(-0.030069 0.160237 0)
(0.0415332 0.122699 0)
(0.109482 0.163867 0)
(0.170644 0.1969 0)
(0.282202 0.273912 0)
(0.50031 0.239116 0)
(0.631803 0.579517 0)
(0.599991 0.745493 0)
(0.54988 0.732789 0)
(0.463255 0.726976 0)
(0.365885 0.816435 0)
(0.284219 0.949733 0)
(0.205802 1.04409 0)
(0.0960523 1.05147 0)
(-0.108146 1.18734 0)
(-0.234524 1.1439 0)
(-0.321492 1.04315 0)
(-0.407489 0.887809 0)
(-0.502247 0.746812 0)
(-0.580867 0.663714 0)
(-0.62726 0.605762 0)
(-0.670451 0.524136 0)
(-0.750395 0.321466 0)
(-0.486554 0.000675456 0)
(-0.206227 0.09643 0)
(-0.0847784 0.129791 0)
(0.0164289 0.0674356 0)
(0.139466 0.125999 0)
(0.125348 0.47082 0)
(-0.125244 0.404442 0)
(-0.112973 0.120594 0)
(0.00239498 0.0318304 0)
(0.0879917 0.113923 0)
(0.222157 0.113003 0)
(0.52811 -0.0359645 0)
(0.751221 0.2981 0)
(0.669323 0.487057 0)
(0.63789 0.591085 0)
(0.600171 0.65532 0)
(0.523254 0.750087 0)
(0.4331 0.893029 0)
(0.342937 1.04867 0)
(0.245909 1.16594 0)
(0.110098 1.2379 0)
(-0.105082 1.36024 0)
(-0.241393 1.26595 0)
(-0.338259 1.14345 0)
(-0.420066 0.990417 0)
(-0.500252 0.845745 0)
(-0.572489 0.73154 0)
(-0.62614 0.619196 0)
(-0.663051 0.453711 0)
(-0.749085 0.197263 0)
(-0.796533 -0.118121 0)
(-0.544867 -0.295563 0)
(-0.208717 0.0651304 0)
(0.115559 0.050743 0)
(0.11258 -0.0395933 0)
(0.0553907 0.713931 0)
(-0.0739374 0.672831 0)
(-0.111935 -0.017569 0)
(-0.0825919 -0.0709381 0)
(0.139135 0.035876 0)
(0.54094 -0.350142 0)
(0.790214 -0.107156 0)
(0.721239 0.189767 0)
(0.649236 0.440948 0)
(0.621584 0.61326 0)
(0.576108 0.728348 0)
(0.507526 0.846518 0)
(0.430546 0.99292 0)
(0.347385 1.15272 0)
(0.245199 1.29388 0)
(0.105053 1.41089 0)
(-0.0901909 1.52615 0)
(-0.219194 1.38498 0)
(-0.306989 1.22682 0)
(-0.369725 1.05948 0)
(-0.425585 0.914965 0)
(-0.48172 0.79947 0)
(-0.535098 0.683981 0)
(-0.579632 0.517272 0)
(-0.654977 0.247316 0)
(-0.773848 -0.117154 0)
(-0.733491 -0.44716 0)
(-0.471549 -0.588235 0)
(-0.240875 -0.466062 0)
(-0.151646 0.115613 0)
(-0.0770355 0.649795 0)
(0.034309 0.633433 0)
(0.109638 0.0443911 0)
(0.111885 -0.337219 0)
(0.429514 -0.62442 0)
(0.710349 -0.454913 0)
(0.734714 -0.12096 0)
(0.627794 0.234585 0)
(0.56487 0.497364 0)
(0.526279 0.66704 0)
(0.479139 0.788117 0)
(0.427087 0.910267 0)
(0.373504 1.06037 0)
(0.310926 1.23762 0)
(0.221357 1.41516 0)
(0.0908422 1.57894 0)
(-0.0776234 1.66489 0)
(-0.18726 1.4876 0)
(-0.25182 1.29254 0)
(-0.286601 1.10631 0)
(-0.315702 0.959789 0)
(-0.352072 0.847139 0)
(-0.392634 0.732164 0)
(-0.432754 0.571845 0)
(-0.489847 0.320195 0)
(-0.592523 -0.0634552 0)
(-0.572146 -0.463865 0)
(-0.500504 -0.576292 0)
(-0.397899 -0.470137 0)
(-0.284911 -0.0259253 0)
(-0.107407 0.480591 0)
(0.0872244 0.480914 0)
(0.244452 -0.0434675 0)
(0.35509 -0.529232 0)
(0.474413 -0.63519 0)
(0.544604 -0.497205 0)
(0.560527 -0.0811205 0)
(0.471401 0.296185 0)
(0.423615 0.544421 0)
(0.388542 0.709984 0)
(0.35163 0.832235 0)
(0.317226 0.953053 0)
(0.288784 1.10676 0)
(0.253682 1.304 0)
(0.189499 1.51913 0)
(0.0791202 1.71972 0)
(-0.0641972 1.78612 0)
(-0.146031 1.56598 0)
(-0.176229 1.32789 0)
(-0.182268 1.12355 0)
(-0.190005 0.981036 0)
(-0.211954 0.877866 0)
(-0.244036 0.768741 0)
(-0.279355 0.61331 0)
(-0.319099 0.369502 0)
(-0.408614 -0.00686077 0)
(-0.415373 -0.469343 0)
(-0.357516 -0.672538 0)
(-0.298429 -0.618925 0)
(-0.235041 -0.183857 0)
(-0.0865634 0.313297 0)
(0.0879981 0.321677 0)
(0.222405 -0.176364 0)
(0.269822 -0.6387 0)
(0.3227 -0.711105 0)
(0.385458 -0.501828 0)
(0.383806 -0.0351483 0)
(0.30882 0.335989 0)
(0.276642 0.580099 0)
(0.245257 0.742468 0)
(0.215949 0.86099 0)
(0.195101 0.973692 0)
(0.186824 1.12422 0)
(0.179849 1.33883 0)
(0.148981 1.59659 0)
(0.0664264 1.84228 0)
(-0.0540936 1.87407 0)
(-0.0981055 1.60436 0)
(-0.0855562 1.3306 0)
(-0.0650054 1.11909 0)
(-0.0589998 0.990489 0)
(-0.0743238 0.902127 0)
(-0.106251 0.802772 0)
(-0.140527 0.648141 0)
(-0.176214 0.408265 0)
(-0.251265 0.0449221 0)
(-0.280477 -0.44782 0)
(-0.231446 -0.707737 0)
(-0.203993 -0.67894 0)
(-0.18027 -0.284874 0)
(-0.0664898 0.177515 0)
(0.0761783 0.192729 0)
(0.177258 -0.257608 0)
(0.183546 -0.692352 0)
(0.200095 -0.742052 0)
(0.254078 -0.488919 0)
(0.237189 0.00397213 0)
(0.174247 0.366001 0)
(0.145299 0.610576 0)
(0.113475 0.773077 0)
(0.0835568 0.88353 0)
(0.0685858 0.983278 0)
(0.0736744 1.12113 0)
(0.0925627 1.34327 0)
(0.103133 1.63727 0)
(0.0563786 1.93414 0)
(-0.0408597 1.94059 0)
(-0.0299877 1.59929 0)
(0.0250983 1.29831 0)
(0.0617441 1.09678 0)
(0.0696494 0.992612 0)
(0.049661 0.926131 0)
(0.0144275 0.837701 0)
(-0.027323 0.686702 0)
(-0.068028 0.450424 0)
(-0.13085 0.0909974 0)
(-0.175 -0.424914 0)
(-0.136995 -0.727655 0)
(-0.13747 -0.708688 0)
(-0.138054 -0.349965 0)
(-0.0532461 0.0715181 0)
(0.0612461 0.0919652 0)
(0.138103 -0.303869 0)
(0.123128 -0.712704 0)
(0.11021 -0.757637 0)
(0.153457 -0.476019 0)
(0.124813 0.0357137 0)
(0.073035 0.400049 0)
(0.0369546 0.644649 0)
(-0.00213503 0.806694 0)
(-0.0364027 0.906561 0)
(-0.0556958 0.98591 0)
(-0.0484645 1.09994 0)
(-0.0131988 1.31271 0)
(0.0387431 1.63495 0)
(0.0449321 2.00349 0)
(0.000109035 1.95259 0)
(0.068799 1.54176 0)
(0.152828 1.24182 0)
(0.18853 1.07488 0)
(0.185078 1.00373 0)
(0.153822 0.959231 0)
(0.108858 0.880184 0)
(0.0574099 0.734627 0)
(0.0115562 0.493107 0)
(-0.0470565 0.133998 0)
(-0.102849 -0.388294 0)
(-0.0778915 -0.723695 0)
(-0.0925669 -0.713154 0)
(-0.107309 -0.390668 0)
(-0.0435951 -0.0101216 0)
(0.0469313 0.0104064 0)
(0.107948 -0.330879 0)
(0.0858747 -0.708245 0)
(0.0604648 -0.749908 0)
(0.0855872 -0.451635 0)
(0.0458641 0.0671811 0)
(-0.00376301 0.436082 0)
(-0.0444988 0.689335 0)
(-0.0941048 0.847145 0)
(-0.137985 0.938911 0)
(-0.168916 0.996806 0)
(-0.17216 1.07889 0)
(-0.137239 1.25861 0)
(-0.0557625 1.58257 0)
(0.00589751 2.02479 0)
(0.0553957 1.88542 0)
(0.187427 1.44212 0)
(0.269988 1.18034 0)
(0.29292 1.0642 0)
(0.271816 1.02885 0)
(0.227941 1.00292 0)
(0.173131 0.933089 0)
(0.117999 0.787368 0)
(0.0654571 0.543211 0)
(0.0103971 0.180331 0)
(-0.0430819 -0.35172 0)
(-0.0247561 -0.712817 0)
(-0.0539377 -0.707631 0)
(-0.0801902 -0.414866 0)
(-0.0346349 -0.0720609 0)
(0.0341961 -0.0495339 0)
(0.0795202 -0.348712 0)
(0.0509145 -0.69873 0)
(0.0138048 -0.734519 0)
(0.0298007 -0.421021 0)
(-0.010749 0.10447 0)
(-0.0575777 0.478173 0)
(-0.104633 0.738815 0)
(-0.158038 0.89919 0)
(-0.212733 0.98185 0)
(-0.256296 1.02215 0)
(-0.277474 1.06867 0)
(-0.254365 1.1985 0)
(-0.173519 1.488 0)
(-0.0471541 1.96812 0)
(0.118195 1.70579 0)
(0.270663 1.32096 0)
(0.342084 1.13155 0)
(0.349391 1.07143 0)
(0.316613 1.06897 0)
(0.264488 1.05743 0)
(0.208358 0.989879 0)
(0.152223 0.842826 0)
(0.102074 0.593783 0)
(0.049245 0.223883 0)
(-0.00525638 -0.318208 0)
(-0.000414576 -0.690654 0)
(-0.0357354 -0.689051 0)
(-0.0646675 -0.423792 0)
(-0.0282949 -0.119219 0)
(0.0264635 -0.0937116 0)
(0.0642972 -0.355903 0)
(0.0346294 -0.678356 0)
(-0.00734025 -0.711154 0)
(-0.0072173 -0.3944 0)
(-0.0536385 0.135897 0)
(-0.0952952 0.521228 0)
(-0.140178 0.789948 0)
(-0.194369 0.955171 0)
(-0.251068 1.03634 0)
(-0.304613 1.06191 0)
(-0.339073 1.07501 0)
(-0.332008 1.14972 0)
(-0.262941 1.37099 0)
(-0.112027 1.80155 0)
(0.13379 1.4794 0)
(0.274467 1.2029 0)
(0.345811 1.09703 0)
(0.348988 1.08871 0)
(0.315524 1.11428 0)
(0.266895 1.11056 0)
(0.217299 1.04407 0)
(0.170646 0.893709 0)
(0.126986 0.640654 0)
(0.0785616 0.268996 0)
(0.022701 -0.277134 0)
(0.0161393 -0.658498 0)
(-0.0216184 -0.667662 0)
(-0.0499576 -0.431055 0)
(-0.0205676 -0.156367 0)
(0.0194182 -0.131687 0)
(0.0532295 -0.360974 0)
(0.0266701 -0.65452 0)
(-0.0152303 -0.678774 0)
(-0.0177368 -0.336623 0)
(-0.0760184 0.173349 0)
(-0.116762 0.561179 0)
(-0.157333 0.838466 0)
(-0.203822 1.00931 0)
(-0.255912 1.0913 0)
(-0.308117 1.11068 0)
(-0.344655 1.09492 0)
(-0.343285 1.11743 0)
(-0.274341 1.25414 0)
(-0.133743 1.57661 0)
(0.106661 1.29238 0)
(0.231028 1.09944 0)
(0.30634 1.06427 0)
(0.312603 1.10355 0)
(0.283275 1.15544 0)
(0.24578 1.15516 0)
(0.210843 1.087 0)
(0.178052 0.93334 0)
(0.146799 0.681349 0)
(0.105877 0.313213 0)
(0.0461915 -0.231757 0)
(0.0316991 -0.624987 0)
(-0.00838503 -0.643841 0)
(-0.0352863 -0.436956 0)
(-0.0130545 -0.18081 0)
(0.0106114 -0.157278 0)
(0.0377067 -0.369564 0)
(0.0136821 -0.632215 0)
(-0.0309289 -0.649245 0)
(-0.034145 -0.299804 0)
(-0.0890394 0.213996 0)
(-0.130446 0.600024 0)
(-0.163148 0.877368 0)
(-0.197372 1.05421 0)
(-0.236673 1.13989 0)
(-0.279309 1.1559 0)
(-0.311833 1.11213 0)
(-0.308086 1.08649 0)
(-0.232544 1.14998 0)
(-0.108668 1.38693 0)
(0.084337 1.14912 0)
(0.192194 1.0031 0)
(0.25256 1.02347 0)
(0.257022 1.11405 0)
(0.234552 1.18515 0)
(0.212695 1.18285 0)
(0.195755 1.11283 0)
(0.18142 0.956733 0)
(0.16475 0.710353 0)
(0.134437 0.35296 0)
(0.0687007 -0.177918 0)
(0.0461869 -0.58804 0)
(0.00414046 -0.617343 0)
(-0.0222017 -0.442548 0)
(-0.00803542 -0.192176 0)
(0.00243055 -0.169933 0)
(0.0244682 -0.376644 0)
(0.00290621 -0.607459 0)
(-0.0421398 -0.61457 0)
(-0.0498862 -0.254625 0)
(-0.104338 0.25724 0)
(-0.14385 0.633111 0)
(-0.165811 0.903791 0)
(-0.183435 1.08349 0)
(-0.205417 1.17364 0)
(-0.230926 1.19085 0)
(-0.256778 1.12476 0)
(-0.25395 1.04503 0)
(-0.191104 1.05316 0)
(-0.082647 1.24223 0)
(0.0848208 1.02108 0)
(0.171292 0.928147 0)
(0.205351 1.00467 0)
(0.197273 1.12777 0)
(0.180044 1.20234 0)
(0.174879 1.19467 0)
(0.176639 1.11968 0)
(0.182453 0.964178 0)
(0.181511 0.727693 0)
(0.164886 0.388336 0)
(0.0929768 -0.113963 0)
(0.0628578 -0.546573 0)
(0.0144386 -0.585797 0)
(-0.0108245 -0.446213 0)
(-0.00618853 -0.197812 0)
(-0.00594096 -0.176031 0)
(0.0128485 -0.385286 0)
(-0.0088317 -0.580069 0)
(-0.0585501 -0.576874 0)
(-0.079453 -0.22555 0)
(-0.134471 0.29648 0)
(-0.162522 0.657386 0)
(-0.169188 0.916159 0)
(-0.16681 1.09409 0)
(-0.169098 1.18894 0)
(-0.176411 1.2088 0)
(-0.197487 1.14204 0)
(-0.206827 1.02559 0)
(-0.166672 0.974881 0)
(-0.0789808 1.11951 0)
(0.0918109 0.894334 0)
(0.160055 0.879875 0)
(0.163531 1.0053 0)
(0.138861 1.14664 0)
(0.125896 1.20533 0)
(0.133968 1.18884 0)
(0.153183 1.10532 0)
(0.180004 0.952956 0)
(0.195801 0.730449 0)
(0.194056 0.415897 0)
(0.12246 -0.0419457 0)
(0.0804701 -0.497572 0)
(0.0247176 -0.552215 0)
(-0.00169182 -0.444807 0)
(-0.00227221 -0.179128 0)
(-0.0054745 -0.17841 0)
(0.00323165 -0.393385 0)
(-0.0180734 -0.546806 0)
(-0.0733986 -0.535284 0)
(-0.103878 -0.156732 0)
(-0.17335 0.328118 0)
(-0.182987 0.665735 0)
(-0.171393 0.909818 0)
(-0.147644 1.08284 0)
(-0.130316 1.18663 0)
(-0.124004 1.21453 0)
(-0.141409 1.16584 0)
(-0.165087 1.02087 0)
(-0.15441 0.921543 0)
(-0.0860498 1.00052 0)
(0.0930389 0.762728 0)
(0.147875 0.858404 0)
(0.119656 1.03294 0)
(0.0831302 1.17214 0)
(0.0735611 1.20188 0)
(0.0891249 1.17172 0)
(0.124313 1.07208 0)
(0.170921 0.921178 0)
(0.204824 0.718925 0)
(0.218008 0.433011 0)
(0.160728 0.0304397 0)
(0.100454 -0.429849 0)
(0.0392976 -0.518084 0)
(0.00679293 -0.437057 0)
(0.00201597 -0.183117 0)
(4.52427e-05 -0.154934 0)
(-0.00414371 -0.394563 0)
(-0.0295615 -0.511915 0)
(-0.0942003 -0.484643 0)
(-0.133921 -0.080002 0)
(-0.205012 0.349651 0)
(-0.198135 0.658668 0)
(-0.167962 0.882225 0)
(-0.124142 1.05072 0)
(-0.0896218 1.17058 0)
(-0.0764807 1.21438 0)
(-0.0879384 1.19361 0)
(-0.123525 1.0437 0)
(-0.146872 0.895516 0)
(-0.0916236 0.875851 0)
(0.081568 0.638864 0)
(0.123312 0.865563 0)
(0.0643326 1.07929 0)
(0.0282302 1.19352 0)
(0.0215445 1.1979 0)
(0.0448379 1.14379 0)
(0.0965387 1.02181 0)
(0.157845 0.872174 0)
(0.208321 0.690553 0)
(0.234529 0.437951 0)
(0.199268 0.0894394 0)
(0.11831 -0.339167 0)
(0.0639525 -0.481397 0)
(0.0205317 -0.418373 0)
(0.00402751 -0.17727 0)
(-0.000607063 -0.143673 0)
(-0.0131824 -0.383526 0)
(-0.0472994 -0.473956 0)
(-0.115928 -0.41524 0)
(-0.168787 -0.00908016 0)
(-0.226437 0.362128 0)
(-0.206057 0.634772 0)
(-0.159249 0.836066 0)
(-0.101153 1.00207 0)
(-0.0504507 1.14305 0)
(-0.0301501 1.2126 0)
(-0.0368983 1.21122 0)
(-0.0761452 1.0913 0)
(-0.129793 0.895747 0)
(-0.0877984 0.751245 0)
(0.0544879 0.537395 0)
(0.0781171 0.900628 0)
(-0.00159708 1.12856 0)
(-0.0268204 1.21289 0)
(-0.0235259 1.18793 0)
(0.0141794 1.0993 0)
(0.0780898 0.957922 0)
(0.146763 0.808626 0)
(0.206889 0.646705 0)
(0.242117 0.431673 0)
(0.226532 0.134003 0)
(0.142229 -0.237656 0)
(0.101854 -0.444541 0)
(0.0401639 -0.388879 0)
(0.00906241 -0.161477 0)
(-0.00630632 -0.124006 0)
(-0.0299848 -0.360881 0)
(-0.080514 -0.434831 0)
(-0.140355 -0.331192 0)
(-0.203587 0.0469783 0)
(-0.238514 0.364083 0)
(-0.208542 0.596194 0)
(-0.152164 0.776447 0)
(-0.0869675 0.940565 0)
(-0.0249563 1.10026 0)
(0.0108231 1.20589 0)
(0.0125277 1.23193 0)
(-0.0190181 1.14481 0)
(-0.0958173 0.924144 0)
(-0.0672048 0.640703 0)
(0.0149617 0.480625 0)
(0.010794 0.958121 0)
(-0.064401 1.1741 0)
(-0.0687484 1.21875 0)
(-0.049701 1.15987 0)
(0.00177544 1.04087 0)
(0.0714487 0.888828 0)
(0.142128 0.740784 0)
(0.201837 0.59665 0)
(0.239192 0.416617 0)
(0.236034 0.165679 0)
(0.172187 -0.157009 0)
(0.136279 -0.395786 0)
(0.0600285 -0.342104 0)
(0.0153167 -0.128058 0)
(-0.0141218 -0.0956854 0)
(-0.0509156 -0.320016 0)