/*--------------------------------*- C++ -*----------------------------------*\
| =========                 |                                                 |
| \\      /  F ield         | OpenFOAM: The Open Source CFD Toolbox           |
|  \\    /   O peration     | Version:  2.4.0                                 |
|   \\  /    A nd           | Web:      www.OpenFOAM.org                      |
|    \\/     M anipulation  |                                                 |
\*---------------------------------------------------------------------------*/
FoamFile
{
    version     2.0;
    format      ascii;
    class       volVectorField;
    location    "1.5";
    object      U;
}
// * * * * * * * * * * * * * * * * * * * * * * * * * * * * * * * * * * * * * //

dimensions      [0 1 -1 0 0 0 0];

internalField   nonuniform List<vector> 
3072
(
(0.00630004 0.133523 0)
(0.0167862 0.133232 0)
(0.0265287 0.133293 -4.89777e-26)
(0.0358312 0.133251 -2.07642e-26)
(0.0441746 0.132567 8.1332e-27)
(0.0533843 0.13066 1.44994e-26)
(0.0647666 0.128121 -4.8998e-26)
(0.0758951 0.126507 -2.76804e-26)
(0.0866509 0.124934 1.24878e-26)
(0.0955687 0.123005 -3.34907e-25)
(0.101521 0.119518 -1.91743e-25)
(0.110673 0.111666 -2.17456e-25)
(0.005437 0.149575 1.03897e-26)
(0.0176514 0.150585 -5.6673e-27)
(0.029776 0.152311 -4.59508e-26)
(0.0411514 0.154004 0)
(0.0517312 0.155701 2.20856e-26)
(0.0647396 0.157048 1.1685e-25)
(0.0799539 0.156678 0)
(0.0938741 0.154811 0)
(0.105829 0.152332 0)
(0.1145 0.14993 -5.22911e-25)
(0.12296 0.147977 -4.08226e-25)
(0.137569 0.141326 6.76102e-26)
(0.00868984 0.165163 1.0779e-26)
(0.0252828 0.166902 0)
(0.0405907 0.169565 0)
(0.0547414 0.172501 1.26895e-25)
(0.0689739 0.175552 3.44293e-26)
(0.0844993 0.177263 1.80492e-25)
(0.0995624 0.177227 8.41392e-26)
(0.113794 0.175678 0)
(0.126621 0.172992 0)
(0.138534 0.170547 -3.24294e-25)
(0.152314 0.167274 -2.84479e-25)
(0.167389 0.159954 4.70899e-25)
(0.0117924 0.180966 2.58223e-28)
(0.0329169 0.182993 7.37262e-26)
(0.0514659 0.186054 2.38234e-26)
(0.0682011 0.18953 1.70552e-25)
(0.0842563 0.19252 1.84037e-26)
(0.10013 0.193983 2.35109e-25)
(0.115401 0.193761 3.06826e-25)
(0.12994 0.191856 3.94786e-25)
(0.143699 0.188659 1.87292e-25)
(0.157229 0.184659 1.19381e-25)
(0.170919 0.179444 -8.08546e-25)
(0.183803 0.172226 -1.36472e-25)
(0.0149523 0.196629 0)
(0.0403968 0.198339 6.11318e-26)
(0.0619302 0.200897 1.32066e-25)
(0.0806299 0.203893 -6.12053e-26)
(0.0973359 0.2064 -3.84716e-25)
(0.113069 0.207329 3.20263e-25)
(0.127987 0.206458 3.3062e-25)
(0.141928 0.203629 3.42886e-25)
(0.155266 0.198878 9.86543e-26)
(0.168402 0.192875 1.44029e-25)
(0.181068 0.185959 -2.76864e-25)
(0.192468 0.178056 -6.1592e-25)
(0.0176288 0.212219 3.62552e-27)
(0.0466773 0.213023 1.77254e-26)
(0.0708207 0.214057 2.33506e-34)
(0.0912536 0.215863 0)
(0.108016 0.217673 -2.52937e-25)
(0.123169 0.217835 -2.54602e-25)
(0.137234 0.216309 0)
(0.149521 0.212529 1.18917e-25)
(0.161303 0.205761 1.58359e-25)
(0.173314 0.197394 0)
(0.184727 0.188658 -6.35258e-25)
(0.194741 0.179587 -1.35039e-24)
(0.0195551 0.227847 0)
(0.051093 0.227572 1.42266e-25)
(0.0773914 0.225984 -4.48699e-25)
(0.0998419 0.22543 0)
(0.116076 0.226181 9.00788e-26)
(0.130503 0.22552 -8.56205e-25)
(0.143886 0.224017 1.67205e-25)
(0.1533 0.220135 -1.27822e-25)
(0.162507 0.211104 -1.56231e-25)
(0.173234 0.199861 -7.03198e-25)
(0.183487 0.189118 -1.03322e-25)
(0.192037 0.178655 -7.6033e-25)
(0.0208997 0.243654 0)
(0.0530914 0.243227 1.55208e-25)
(0.0798116 0.238296 -3.20127e-25)
(0.104277 0.232844 -3.1047e-25)
(0.119479 0.231024 0)
(0.134936 0.229612 -7.68866e-25)
(0.149111 0.229764 -1.11252e-25)
(0.153824 0.227281 -3.22974e-25)
(0.159351 0.216179 -4.57809e-26)
(0.169236 0.201531 1.32122e-25)
(0.178706 0.188491 7.45585e-25)
(0.185728 0.176739 4.3376e-26)
(0.0233703 0.260095 0)
(0.0552043 0.262354 1.73146e-25)
(0.0792666 0.256264 3.69586e-25)
(0.103901 0.239915 -3.39184e-25)
(0.122396 0.227426 -7.99597e-25)
(0.144829 0.228928 0)
(0.155598 0.234238 0)
(0.149452 0.231903 0)
(0.151634 0.221043 0)
(0.162333 0.204168 5.86064e-25)
(0.171322 0.188309 1.04562e-25)
(0.176603 0.174897 1.72737e-25)
(0.0287058 0.277124 0)
(0.0596651 0.285194 1.85006e-25)
(0.0766622 0.2822 8.21409e-25)
(0.0968286 0.262739 -6.67024e-25)
(0.124312 0.236284 -1.33992e-24)
(0.152333 0.229175 6.60305e-25)
(0.152753 0.228145 0)
(0.137123 0.221958 8.05353e-25)
(0.147787 0.217728 1.14264e-24)
(0.159328 0.209721 0)
(0.161903 0.191698 -1.11018e-24)
(0.16317 0.172549 5.08267e-26)
(0.0375193 0.29413 0)
(0.0681007 0.307116 -1.79178e-25)
(0.0756118 0.305102 -4.4088e-34)
(0.086874 0.287373 -9.49647e-25)
(0.114803 0.250759 -7.76171e-25)
(0.138306 0.214273 -1.21827e-25)
(0.128644 0.194479 8.5171e-25)
(0.116431 0.191948 2.85886e-24)
(0.133815 0.189108 1.15768e-24)
(0.141413 0.190459 3.19482e-25)
(0.141033 0.185263 -8.50955e-25)
(0.144998 0.168998 -7.99893e-25)
(0.0426784 0.308923 9.93783e-26)
(0.0721192 0.316609 2.33e-25)
(0.0673385 0.310542 -5.67924e-25)
(0.0676027 0.293494 0)
(0.0835074 0.257146 0)
(0.0992168 0.204229 -1.49203e-24)
(0.10175 0.168135 -2.09307e-25)
(0.0952595 0.160489 1.20227e-24)
(0.117197 0.151999 0)
(0.121876 0.155008 -8.81795e-25)
(0.112876 0.160616 0)
(0.119295 0.150743 -1.80158e-24)
(0.11995 0.104542 1.36627e-25)
(0.127693 0.0978135 5.68834e-26)
(0.134185 0.0902105 7.4822e-26)
(0.139677 0.0814546 2.0229e-25)
(0.143482 0.0721898 6.42741e-26)
(0.145368 0.0620813 0)
(0.146568 0.0505009 0)
(0.14928 0.0376731 -9.14046e-26)
(0.147673 0.0331017 -9.74301e-26)
(0.146533 0.0193603 0)
(0.143165 0.0165918 0)
(0.136654 0.009032 1.31422e-26)
(0.150174 0.134535 -1.54727e-35)
(0.159311 0.128259 0)
(0.166501 0.120448 6.11222e-25)
(0.171335 0.110724 2.83824e-25)
(0.173173 0.100587 1.36871e-25)
(0.172829 0.0895174 -7.04873e-26)
(0.170875 0.0757991 -9.10792e-26)
(0.165536 0.0584117 6.80815e-26)
(0.157371 0.0528123 0)
(0.150944 0.0352269 0)
(0.145024 0.0292756 0)
(0.146961 0.0147266 -1.59461e-26)
(0.178484 0.152049 -4.18129e-25)
(0.186387 0.144845 1.99151e-25)
(0.192108 0.137444 3.21827e-25)
(0.195232 0.129327 -6.78534e-26)
(0.195614 0.120462 -8.31582e-26)
(0.193744 0.110406 0)
(0.189713 0.0982113 0)
(0.182994 0.0830714 2.29437e-25)
(0.176579 0.0702467 -1.40118e-25)
(0.172762 0.0505576 0)
(0.168656 0.0345261 0)
(0.166246 0.0130808 -1.2156e-26)
(0.193962 0.164484 -6.48871e-25)
(0.201534 0.157185 4.80928e-25)
(0.206855 0.150251 -4.97533e-26)
(0.209936 0.143319 -7.29607e-26)
(0.21063 0.136193 0)
(0.209026 0.128105 -3.24306e-25)
(0.205129 0.117941 0)
(0.199076 0.104591 -1.44556e-25)
(0.191775 0.0881894 -1.42953e-25)
(0.184576 0.0668484 0)
(0.180881 0.0444545 6.32719e-26)
(0.180568 0.017471 -4.51834e-26)
(0.201786 0.170001 -7.58035e-25)
(0.209078 0.162549 0)
(0.214452 0.156039 0)
(0.217864 0.15039 0)
(0.219231 0.145225 0)
(0.218535 0.139656 -1.1433e-36)
(0.215809 0.132193 3.80064e-25)
(0.211543 0.120716 -5.91889e-25)
(0.206612 0.103272 0)
(0.20564 0.0778 1.45343e-25)
(0.205287 0.0524706 7.3299e-26)
(0.199824 0.0230366 -1.12714e-25)
(0.20296 0.170709 6.83782e-25)
(0.209682 0.162613 6.61828e-25)
(0.214953 0.156093 -5.92207e-27)
(0.218621 0.151281 -1.13378e-27)
(0.220522 0.147868 -6.99848e-25)
(0.220538 0.144932 4.2221e-25)
(0.218479 0.140719 4.67752e-25)
(0.214389 0.131769 6.64722e-26)
(0.20966 0.113165 3.13888e-25)
(0.211674 0.0817853 1.14349e-25)
(0.21593 0.059981 1.74732e-25)
(0.21453 0.0330117 -2.09251e-37)
(0.198723 0.168533 7.77177e-25)
(0.204564 0.159065 -7.5065e-26)
(0.209612 0.151889 0)
(0.213575 0.147391 0)
(0.216186 0.145431 -6.30248e-25)
(0.217257 0.1452 3.80114e-26)
(0.216321 0.145205 -6.38255e-25)
(0.212833 0.14174 4.29929e-25)
(0.204581 0.124868 3.52765e-25)
(0.202087 0.0811823 0)
(0.215282 0.0517155 2.11629e-25)
(0.227729 0.0334214 1.31495e-25)
(0.190263 0.165285 -1.19785e-25)
(0.194968 0.153508 -6.89657e-25)
(0.199831 0.14476 -6.82554e-25)
(0.204426 0.139815 -4.88672e-26)
(0.208514 0.138686 -7.90177e-26)
(0.212003 0.140599 -6.92887e-25)
(0.214714 0.144629 -7.12505e-25)
(0.215874 0.148119 -3.9439e-25)
(0.214019 0.139096 0)
(0.20602 0.0882656 1.17735e-25)
(0.212681 0.0376922 2.02885e-25)
(0.235044 0.0182174 9.71476e-26)
(0.178133 0.162184 -8.66448e-26)
(0.181486 0.14712 -5.64572e-26)
(0.186115 0.135479 -6.27846e-25)
(0.191669 0.128918 5.68541e-25)
(0.197908 0.127587 3.95319e-26)
(0.204756 0.130257 -6.26955e-25)
(0.213048 0.136579 0)
(0.222168 0.1459 -3.97097e-25)
(0.230067 0.14837 0)
(0.227038 0.102444 0)
(0.232385 0.0291369 0)
(0.2526 0.00362546 2.45608e-26)
(0.161605 0.158928 6.72126e-26)
(0.164565 0.141142 1.158e-24)
(0.168541 0.12497 -1.06424e-24)
(0.174541 0.1149 -6.28286e-25)
(0.182721 0.112014 -2.31368e-26)
(0.192617 0.113732 0)
(0.206435 0.119343 0)
(0.22516 0.131106 -6.60355e-25)
(0.245927 0.146721 0)
(0.253225 0.117899 5.22154e-26)
(0.252375 0.0258772 1.03309e-25)
(0.268218 -0.0077504 -1.30606e-26)
(0.145968 0.155711 1.06233e-24)
(0.149976 0.13871 9.08177e-25)
(0.148174 0.11872 -9.59432e-25)
(0.152068 0.0989222 -1.39663e-25)
(0.161209 0.0930885 8.0092e-25)
(0.172478 0.0928041 -3.68866e-25)
(0.187801 0.0941075 3.17067e-25)
(0.212336 0.100639 -3.43808e-25)
(0.241601 0.125076 0)
(0.269336 0.119546 -1.09104e-24)
(0.267562 0.0278816 1.35766e-28)
(0.280116 -0.0208334 -1.69411e-26)
(0.123656 0.144224 1.87804e-24)
(0.129276 0.133176 0)
(0.126262 0.118428 0)
(0.129783 0.089647 5.77142e-25)
(0.139988 0.0755937 2.64777e-25)
(0.14895 0.0741386 -2.87935e-25)
(0.157201 0.0696299 2.35242e-25)
(0.170612 0.065524 4.96854e-28)
(0.190491 0.080989 -2.18154e-25)
(0.239455 0.094495 -5.4546e-25)
(0.255694 0.0266856 0)
(0.273836 -0.0419984 -1.99335e-28)
(0.133394 -0.00590951 2.6472e-27)
(0.132486 -0.0157508 0)
(0.131567 -0.0250011 4.97264e-26)
(0.130437 -0.0341197 0)
(0.129041 -0.0432392 1.25114e-26)
(0.127361 -0.0524373 5.37491e-27)
(0.125375 -0.061771 0)
(0.123055 -0.0712809 -1.84582e-26)
(0.12036 -0.0809843 -4.51119e-26)
(0.117221 -0.0908585 -8.14082e-26)
(0.11354 -0.100818 1.99048e-25)
(0.109196 -0.110691 2.05805e-25)
(0.149521 -0.00432839 -1.26122e-26)
(0.149767 -0.0148165 -5.80321e-27)
(0.150167 -0.026023 5.09221e-26)
(0.150501 -0.0375989 0)
(0.150668 -0.0495265 -5.02319e-27)
(0.150553 -0.061882 1.1805e-26)
(0.150059 -0.0747371 0)
(0.149089 -0.0881019 -2.4572e-25)
(0.147538 -0.101892 2.75253e-25)
(0.145293 -0.115903 6.29899e-26)
(0.142238 -0.129803 5.27132e-25)
(0.138278 -0.143141 2.55278e-25)
(0.165063 -0.00678077 -1.08564e-26)
(0.165863 -0.0206561 0)
(0.166969 -0.0346309 1.03075e-25)
(0.167989 -0.0487393 0)
(0.168651 -0.0631697 0)
(0.16879 -0.078074 -2.1042e-25)
(0.168274 -0.0935028 3.37907e-26)
(0.167003 -0.109368 -3.58867e-25)
(0.164901 -0.125428 2.88952e-25)
(0.161924 -0.1413 0)
(0.158076 -0.156495 -5.76593e-35)
(0.153411 -0.170477 3.26213e-25)
(0.180886 -0.00882801 -2.48528e-26)
(0.182049 -0.025992 -5.63503e-26)
(0.183528 -0.0425907 1.1809e-25)
(0.184721 -0.0589218 -2.35299e-26)
(0.185242 -0.0753621 -4.67138e-26)
(0.184898 -0.0921244 -2.78988e-25)
(0.183565 -0.109219 0)
(0.181189 -0.126467 0)
(0.177797 -0.143509 -3.24311e-25)
(0.173482 -0.159875 0)
(0.168411 -0.175056 -6.95706e-25)
(0.162809 -0.188595 3.55501e-25)
(0.19665 -0.0112715 -2.75168e-26)
(0.19812 -0.0317601 -1.32783e-25)
(0.199677 -0.0506687 1.31316e-25)
(0.200604 -0.0686456 0)
(0.200425 -0.0863633 0)
(0.198995 -0.104134 -3.08157e-25)
(0.196243 -0.121941 0)
(0.192205 -0.139562 1.14147e-25)
(0.187042 -0.156583 -7.0774e-26)
(0.180994 -0.172524 1.59423e-25)
(0.17437 -0.186938 -2.58686e-25)
(0.167517 -0.19951 1.40967e-25)
(0.212457 -0.0140019 3.0161e-26)
(0.214313 -0.0376179 -6.84624e-26)
(0.21575 -0.0583373 1.44385e-25)
(0.216074 -0.0772623 -2.51474e-25)
(0.214724 -0.0955082 8.00106e-26)
(0.21174 -0.11354 -2.17787e-34)
(0.207158 -0.131292 -1.30021e-25)
(0.201107 -0.148561 -8.85747e-25)
(0.193904 -0.164914 0)
(0.185906 -0.17988 0)
(0.177508 -0.193085 -8.44163e-25)
(0.169107 -0.204344 -2.27484e-25)
(0.228373 -0.0171733 2.92982e-27)
(0.230917 -0.0435187 1.65175e-25)
(0.232084 -0.065373 0)
(0.231506 -0.084431 -3.33242e-25)
(0.228519 -0.102465 -3.46729e-25)
(0.223589 -0.120173 -3.55438e-25)
(0.216912 -0.137317 -7.2537e-25)
(0.208648 -0.153769 -1.46733e-24)
(0.199296 -0.169099 8.61103e-25)
(0.189298 -0.182792 1.62723e-25)
(0.179053 -0.194505 -1.55796e-24)
(0.168907 -0.204117 -8.52289e-25)
(0.244491 -0.0211492 -6.93892e-26)
(0.248277 -0.0495051 1.63475e-25)
(0.248907 -0.0715654 0)
(0.247062 -0.0898023 3.61189e-25)
(0.241863 -0.106897 -3.71868e-25)
(0.234605 -0.12394 -8.88304e-25)
(0.225711 -0.140136 -9.35353e-25)
(0.215144 -0.155524 -8.70986e-25)
(0.203672 -0.169731 5.72973e-25)
(0.191824 -0.182048 -7.18935e-25)
(0.179896 -0.19209 -1.32332e-24)
(0.168039 -0.199696 -5.81038e-25)
(0.260941 -0.0266442 -2.62837e-26)
(0.266645 -0.055636 1.63377e-25)
(0.265971 -0.0765613 3.19569e-25)
(0.2623 -0.0928755 3.86357e-25)
(0.254172 -0.108309 0)
(0.244227 -0.124704 0)
(0.233229 -0.139825 -7.57607e-25)
(0.220368 -0.154034 -8.47579e-25)
(0.206892 -0.167251 -1.34372e-25)
(0.193565 -0.178287 -6.87532e-25)
(0.180443 -0.186599 -6.66268e-25)
(0.167294 -0.191904 0)
(0.277886 -0.0342243 -5.06098e-26)
(0.285641 -0.0612762 2.25763e-25)
(0.281553 -0.0792829 4.19982e-34)
(0.275232 -0.0927236 0)
(0.263605 -0.105931 -8.11963e-25)
(0.250947 -0.122254 0)
(0.238533 -0.136374 -8.41206e-25)
(0.223594 -0.149294 -9.19081e-25)
(0.208252 -0.161877 -1.45646e-24)
(0.194 -0.171977 0)
(0.180518 -0.178653 0)
(0.166887 -0.181604 1.18471e-24)
(0.294492 -0.0435596 9.38835e-34)
(0.300911 -0.0641267 -1.98151e-25)
(0.289505 -0.0771561 -8.02007e-25)
(0.280179 -0.0877916 7.74039e-25)
(0.265832 -0.0988212 -8.41512e-25)
(0.251725 -0.116556 -5.31245e-26)
(0.239964 -0.129836 6.93244e-25)
(0.223729 -0.141189 1.39884e-24)
(0.206713 -0.153714 -1.20034e-24)
(0.192221 -0.16355 1.13053e-24)
(0.179494 -0.168768 -1.10534e-24)
(0.166467 -0.169586 1.05179e-24)
(0.293087 -0.0356025 -5.41361e-26)
(0.293983 -0.0510857 -1.62587e-25)
(0.275931 -0.06292 -8.24096e-25)
(0.266259 -0.074749 7.01101e-25)
(0.253134 -0.0859953 0)
(0.241563 -0.10817 6.14e-25)
(0.235073 -0.120675 6.16611e-25)
(0.21955 -0.129793 2.43697e-24)
(0.201337 -0.143078 1.11355e-24)
(0.187421 -0.153823 9.40126e-25)
(0.176763 -0.157663 -9.73907e-25)
(0.165796 -0.156606 0)
(0.104066 -0.120212 -1.32001e-25)
(0.0980499 -0.129023 -1.86981e-26)
(0.0910968 -0.13674 2.7332e-25)
(0.083206 -0.143033 -6.57489e-26)
(0.0742806 -0.147482 -1.06572e-25)
(0.0644643 -0.14957 6.4228e-26)
(0.0540984 -0.149283 -6.41295e-26)
(0.0434494 -0.147003 -3.91163e-26)
(0.0327141 -0.143359 -2.38809e-26)
(0.0220834 -0.13924 0)
(0.0118498 -0.135689 0)
(0.00277883 -0.133711 4.1126e-27)
(0.133357 -0.155378 1.79187e-25)
(0.127461 -0.165946 1.25853e-25)
(0.120592 -0.174292 6.08004e-25)
(0.112715 -0.179907 0)
(0.103891 -0.18265 -1.44459e-25)
(0.0942164 -0.182536 0)
(0.083606 -0.179627 7.6041e-35)
(0.0718325 -0.174335 1.13407e-25)
(0.0586216 -0.167429 3.86828e-27)
(0.043725 -0.159999 0)
(0.0270979 -0.153482 0)
(0.00915043 -0.149581 1.82279e-26)
(0.148039 -0.182725 2.54353e-25)
(0.142093 -0.192786 -4.57297e-25)
(0.135691 -0.200307 3.3186e-25)
(0.128902 -0.205056 0)
(0.121738 -0.206884 -3.14717e-25)
(0.113926 -0.205867 -3.2422e-26)
(0.104975 -0.202186 1.09797e-25)
(0.0941424 -0.196152 1.196e-25)
(0.0804866 -0.188335 -1.60396e-25)
(0.0630131 -0.179595 0)
(0.0409752 -0.171311 -5.52081e-26)
(0.0145811 -0.165821 1.12565e-26)
(0.156943 -0.200135 3.59529e-25)
(0.151076 -0.209441 -2.29777e-34)
(0.145404 -0.216377 -5.69483e-26)
(0.139996 -0.220895 -8.69815e-26)
(0.134756 -0.222977 0)
(0.129306 -0.222633 -3.29229e-25)
(0.122901 -0.219867 6.58597e-25)
(0.114334 -0.214754 2.18229e-25)
(0.101949 -0.207598 -2.5899e-25)
(0.0837686 -0.19884 0)
(0.0575529 -0.189513 -1.64349e-25)
(0.0221063 -0.18217 -8.41288e-27)
(0.160812 -0.210096 -7.63672e-26)
(0.154626 -0.218667 2.61444e-25)
(0.149237 -0.225259 0)
(0.144776 -0.229968 0)
(0.141186 -0.232829 -3.4721e-25)
(0.138041 -0.233855 -3.39303e-25)
(0.134514 -0.2329 6.6901e-25)
(0.129099 -0.229771 0)
(0.11953 -0.224646 -1.74104e-25)
(0.103034 -0.217491 -1.77011e-25)
(0.0753074 -0.208491 -5.05365e-35)
(0.0317477 -0.199145 3.85795e-26)
(0.161136 -0.213726 -4.8164e-26)
(0.154067 -0.221377 9.15982e-26)
(0.148287 -0.227441 -7.36114e-25)
(0.144015 -0.23217 -4.39227e-26)
(0.141316 -0.235701 3.18683e-25)
(0.13988 -0.238157 6.71141e-25)
(0.13892 -0.239393 6.60419e-25)
(0.136885 -0.238855 0)
(0.130816 -0.236976 0)
(0.117949 -0.233576 -2.05845e-25)
(0.09242 -0.227578 3.22915e-25)
(0.0439434 -0.217003 5.09338e-26)
(0.159258 -0.211917 -5.45945e-26)
(0.150703 -0.218214 6.27554e-25)
(0.143764 -0.223134 -6.89381e-25)
(0.138669 -0.227113 6.90445e-25)
(0.135779 -0.230472 6.85856e-25)
(0.135037 -0.233705 6.95838e-25)
(0.135913 -0.237055 -3.17051e-25)
(0.137454 -0.239171 -1.11447e-26)
(0.134422 -0.241284 -2.86206e-26)
(0.125375 -0.243978 0)
(0.105645 -0.244951 2.61102e-25)
(0.0588747 -0.235834 6.77513e-26)
(0.156495 -0.205409 0)
(0.146028 -0.209765 6.62048e-25)
(0.13736 -0.212512 0)
(0.130421 -0.21433 5.99386e-25)
(0.126002 -0.215665 -7.50043e-26)
(0.124438 -0.217564 -6.46368e-25)
(0.12561 -0.222046 -5.59634e-36)
(0.131116 -0.226113 0)
(0.129547 -0.232216 4.51273e-25)
(0.122023 -0.243159 -1.76043e-26)
(0.110276 -0.256112 -2.05186e-26)
(0.0758041 -0.254651 1.025e-25)
(0.154026 -0.19506 -1.93424e-26)
(0.141714 -0.197183 -3.35635e-26)
(0.131602 -0.196912 5.966e-25)
(0.122583 -0.19513 -5.87434e-25)
(0.115778 -0.192247 6.01531e-26)
(0.111423 -0.188485 1.09653e-25)
(0.107808 -0.187624 4.87457e-25)
(0.110108 -0.193713 0)
(0.109428 -0.206466 3.37542e-25)
(0.101083 -0.22532 0)
(0.0971722 -0.251215 -3.31541e-25)
(0.0870181 -0.267451 2.32601e-25)
(0.152435 -0.182031 0)
(0.138824 -0.182664 1.08527e-24)
(0.128899 -0.179984 1.59675e-24)
(0.119157 -0.175171 -5.67706e-25)
(0.111638 -0.168974 -2.97461e-27)
(0.105346 -0.160909 5.73654e-25)
(0.094371 -0.151525 0)
(0.0868719 -0.156905 0)
(0.0849087 -0.173525 0)
(0.0734387 -0.198978 0)
(0.0665057 -0.225761 -1.89002e-25)
(0.0683695 -0.262542 2.44174e-25)
(0.151235 -0.167433 2.20958e-26)
(0.136446 -0.16849 9.71707e-25)
(0.129109 -0.165646 1.57495e-34)
(0.120333 -0.160828 -9.78712e-25)
(0.114282 -0.155472 -8.06024e-25)
(0.111532 -0.146672 -1.08923e-25)
(0.0986759 -0.13385 5.41826e-25)
(0.0770139 -0.13815 0)
(0.064715 -0.15729 8.97802e-26)
(0.0514797 -0.185867 1.45268e-25)
(0.0382307 -0.211325 1.40892e-25)
(0.0292573 -0.263405 -4.20434e-34)
(0.150387 -0.151588 0)
(0.132687 -0.155656 0)
(0.129765 -0.155868 1.14895e-34)
(0.124252 -0.153207 -1.05876e-24)
(0.11825 -0.151413 -5.07352e-25)
(0.119689 -0.144431 0)
(0.109398 -0.14356 4.88377e-25)
(0.0790981 -0.153471 0)
(0.0541894 -0.16497 -2.38736e-26)
(0.032667 -0.183989 9.56571e-27)
(0.00692247 -0.207068 5.18825e-26)
(-0.0166383 -0.260889 2.60325e-26)
(-0.00612465 -0.133485 -4.13663e-37)
(-0.0161403 -0.132862 -4.47798e-27)
(-0.0254687 -0.132222 1.02016e-27)
(-0.0345725 -0.131244 4.94844e-26)
(-0.0435854 -0.129832 0)
(-0.0525435 -0.127915 -5.20058e-26)
(-0.0614449 -0.12545 0)
(-0.0702709 -0.122416 -5.48054e-26)
(-0.0789912 -0.118806 -1.482e-25)
(-0.0875619 -0.114616 -1.64088e-26)
(-0.0959169 -0.109837 -1.50439e-25)
(-0.10396 -0.104455 -1.75598e-25)
(-0.00490339 -0.149587 -2.98833e-26)
(-0.0156958 -0.150074 -3.62979e-27)
(-0.0267165 -0.150654 5.4152e-27)
(-0.037733 -0.15096 9.75309e-26)
(-0.0487475 -0.150775 6.06812e-27)
(-0.0598008 -0.149954 2.24936e-26)
(-0.0709151 -0.148406 2.16668e-25)
(-0.0820769 -0.14608 -8.48508e-26)
(-0.0932312 -0.142955 -2.0138e-25)
(-0.104275 -0.139027 -3.06451e-25)
(-0.115049 -0.134304 -4.90493e-25)
(-0.125335 -0.128799 -4.49328e-26)
(-0.00756415 -0.165091 -2.03849e-26)
(-0.0216235 -0.166013 0)
(-0.0349281 -0.167121 0)
(-0.0477617 -0.167912 1.0215e-25)
(-0.060368 -0.168042 0)
(-0.0729055 -0.16732 3.36878e-25)
(-0.0854471 -0.165632 2.34885e-25)
(-0.0979854 -0.162932 -5.10299e-26)
(-0.11044 -0.159223 1.13309e-25)
(-0.122662 -0.154555 -6.17727e-25)
(-0.134436 -0.149014 -2.15293e-25)
(-0.145488 -0.142711 3.68322e-25)
(-0.00975697 -0.180905 4.63427e-26)
(-0.0269167 -0.182185 5.27368e-26)
(-0.042365 -0.183675 -1.10732e-25)
(-0.0567436 -0.184699 1.16673e-25)
(-0.0705457 -0.184822 0)
(-0.0840653 -0.183818 5.83376e-25)
(-0.0974409 -0.181568 1.07107e-25)
(-0.11069 -0.178048 0)
(-0.123734 -0.173324 5.07049e-25)
(-0.136421 -0.167535 -4.12452e-25)
(-0.148529 -0.160887 -6.89287e-26)
(-0.159785 -0.153617 -7.28009e-25)
(-0.0123341 -0.19666 5.12917e-26)
(-0.0327058 -0.19833 -1.65148e-35)
(-0.0500918 -0.20008 -2.45629e-25)
(-0.065615 -0.201116 0)
(-0.0800988 -0.200925 4.44306e-26)
(-0.0940125 -0.199283 3.50977e-25)
(-0.107588 -0.196086 0)
(-0.1209 -0.19136 3.08717e-25)
(-0.133907 -0.185241 4.09924e-25)
(-0.146499 -0.17797 1.28319e-25)
(-0.158489 -0.169884 0)
(-0.169624 -0.161359 -6.68005e-25)
(-0.0152221 -0.212424 2.62795e-26)
(-0.038769 -0.214548 -2.03682e-25)
(-0.0577295 -0.216436 -1.34722e-25)
(-0.0738844 -0.217261 3.37384e-25)
(-0.0884782 -0.216461 1.32318e-25)
(-0.102198 -0.213872 -2.32779e-25)
(-0.115394 -0.209433 0)
(-0.128229 -0.203229 -3.30633e-25)
(-0.140723 -0.195465 1.02434e-25)
(-0.152843 -0.18647 1.36375e-25)
(-0.164475 -0.176716 -6.14974e-25)
(-0.17536 -0.166728 1.66792e-25)
(-0.0184567 -0.228204 3.38124e-26)
(-0.0449925 -0.230888 -1.23425e-25)
(-0.065002 -0.232704 0)
(-0.0811686 -0.232989 2.4184e-25)
(-0.0952584 -0.231207 2.97679e-25)
(-0.108217 -0.22734 2.86218e-25)
(-0.12053 -0.221398 5.09177e-25)
(-0.132465 -0.213529 -8.07198e-25)
(-0.144109 -0.203983 -1.52222e-25)
(-0.155533 -0.193135 7.05246e-25)
(-0.16675 -0.181592 -1.47713e-24)
(-0.177443 -0.170072 -9.55951e-26)
(-0.0221078 -0.243998 6.02911e-26)
(-0.0511685 -0.247338 -1.96923e-26)
(-0.0714657 -0.248621 0)
(-0.0869038 -0.247803 -3.24795e-25)
(-0.0998543 -0.244513 5.93537e-25)
(-0.111531 -0.238981 5.9246e-25)
(-0.122554 -0.231297 8.26452e-25)
(-0.133277 -0.221651 2.78079e-25)
(-0.143858 -0.210287 9.54798e-25)
(-0.154456 -0.197551 1.62208e-24)
(-0.165373 -0.184174 -5.94035e-25)
(-0.176139 -0.171218 0)
(-0.0263861 -0.259782 6.90181e-26)
(-0.0569337 -0.26364 0)
(-0.0763997 -0.263342 0)
(-0.090258 -0.26047 -3.34932e-25)
(-0.101475 -0.255006 3.36107e-25)
(-0.111429 -0.247444 6.89423e-25)
(-0.120905 -0.23789 0)
(-0.130227 -0.226545 -1.06661e-25)
(-0.139623 -0.213505 5.32588e-25)
(-0.149276 -0.198907 6.74534e-25)
(-0.160118 -0.183603 6.67231e-25)
(-0.171445 -0.169392 -1.28365e-24)
(-0.0311975 -0.275471 -8.03207e-26)
(-0.0611533 -0.278756 -2.85076e-26)
(-0.0783262 -0.274546 3.50981e-25)
(-0.0898953 -0.26825 6.548e-25)
(-0.0990252 -0.260036 0)
(-0.106966 -0.250358 6.62763e-25)
(-0.114883 -0.23918 7.7427e-25)
(-0.122946 -0.226709 6.78679e-25)
(-0.131254 -0.212664 -1.33982e-24)
(-0.139728 -0.196524 0)
(-0.150673 -0.179035 1.84118e-24)
(-0.163262 -0.1636 -1.15471e-24)
(-0.0354638 -0.289814 -2.92666e-26)
(-0.0611686 -0.288204 3.61395e-26)
(-0.0745415 -0.276209 3.44554e-25)
(-0.0839145 -0.265566 6.07915e-25)
(-0.0909879 -0.254795 1.63371e-25)
(-0.0967842 -0.243567 8.39645e-25)
(-0.102896 -0.231884 7.61593e-25)
(-0.110341 -0.219875 -6.32149e-25)
(-0.118586 -0.206872 -1.1283e-24)
(-0.126259 -0.190525 9.56951e-25)
(-0.137242 -0.170661 1.07109e-24)
(-0.152017 -0.15346 0)
(-0.0151547 -0.284874 -3.06711e-25)
(-0.0440888 -0.278339 -4.06437e-25)
(-0.0582796 -0.258597 2.72372e-27)
(-0.0690415 -0.245171 -4.12652e-25)
(-0.0751699 -0.232803 0)
(-0.0789877 -0.222034 5.42549e-25)
(-0.0855435 -0.212204 1.32108e-24)
(-0.0939507 -0.203021 -1.02923e-24)
(-0.102007 -0.194673 -4.70773e-26)
(-0.109147 -0.182241 6.40005e-25)
(-0.12114 -0.16082 -8.82077e-25)
(-0.139544 -0.140359 -7.32592e-25)
(-0.111561 -0.0984536 -6.09856e-26)
(-0.118566 -0.0918217 -1.84839e-25)
(-0.124815 -0.084551 1.25204e-25)
(-0.130113 -0.0765974 7.69065e-26)
(-0.134191 -0.0679693 -8.95121e-26)
(-0.136835 -0.0587893 0)
(-0.138032 -0.0492542 2.5364e-26)
(-0.137983 -0.0395339 -3.8716e-27)
(-0.137025 -0.0297638 0)
(-0.135629 -0.0200905 -4.42997e-26)
(-0.134324 -0.0107727 0)
(-0.133541 -0.0025232 0)
(-0.134864 -0.122534 -3.32841e-26)
(-0.143324 -0.115526 -4.27114e-25)
(-0.150382 -0.107773 -5.0001e-26)
(-0.15579 -0.0993188 -3.27302e-25)
(-0.159438 -0.0902404 0)
(-0.161277 -0.0805683 0)
(-0.16132 -0.0702816 -5.65165e-28)
(-0.159788 -0.0592917 -4.27026e-27)
(-0.157122 -0.047489 0)
(-0.153954 -0.0347955 -3.32498e-26)
(-0.151082 -0.0212692 -2.81283e-26)
(-0.149332 -0.007155 1.26618e-27)
(-0.155516 -0.135764 -2.81291e-25)
(-0.164217 -0.128292 -4.00362e-35)
(-0.171336 -0.120407 0)
(-0.176652 -0.112191 3.15438e-35)
(-0.180019 -0.103613 1.05806e-26)
(-0.181452 -0.0945353 3.49006e-26)
(-0.181058 -0.0846861 2.57653e-25)
(-0.179031 -0.0736614 0)
(-0.175727 -0.0609654 0)
(-0.171717 -0.0461348 0)
(-0.167826 -0.0289958 -5.07767e-26)
(-0.165347 -0.00990999 -1.0673e-26)
(-0.169903 -0.145964 -3.15535e-25)
(-0.178635 -0.138134 6.33179e-25)
(-0.185787 -0.130278 0)
(-0.191255 -0.122449 6.26098e-25)
(-0.194973 -0.114592 0)
(-0.196928 -0.106487 0)
(-0.197156 -0.097681 2.94785e-25)
(-0.195724 -0.0874657 -4.68497e-26)
(-0.192792 -0.0748793 -4.19067e-26)
(-0.188743 -0.0588292 0)
(-0.184332 -0.0384834 6.08004e-26)
(-0.1812 -0.0138356 3.90782e-26)
(-0.179644 -0.15274 -7.21086e-25)
(-0.188352 -0.144302 2.54267e-25)
(-0.195629 -0.136236 -1.91989e-26)
(-0.201452 -0.128623 2.88152e-25)
(-0.205825 -0.121408 3.08394e-25)
(-0.208758 -0.114334 0)
(-0.210234 -0.106882 3.21601e-25)
(-0.210177 -0.0981501 0)
(-0.208493 -0.0867517 0)
(-0.205241 -0.0708083 -1.49418e-25)
(-0.200878 -0.0483549 5.11187e-26)
(-0.197202 -0.0183093 8.76207e-26)
(-0.185218 -0.156941 -5.51821e-25)
(-0.19387 -0.147664 7.54822e-25)
(-0.201256 -0.139101 0)
(-0.207441 -0.131351 0)
(-0.212514 -0.124396 9.81655e-25)
(-0.216558 -0.118026 -8.37077e-27)
(-0.219587 -0.111789 9.00054e-35)
(-0.221458 -0.104769 5.92617e-26)
(-0.221861 -0.0953416 3.96125e-25)
(-0.220455 -0.0808853 -1.68622e-25)
(-0.217115 -0.0579253 0)
(-0.213323 -0.0232818 -3.66325e-26)
(-0.187207 -0.159073 7.17251e-25)
(-0.19582 -0.148867 1.41078e-24)
(-0.203253 -0.139616 -6.40718e-27)
(-0.20966 -0.131408 -7.00702e-25)
(-0.215252 -0.124238 1.33424e-24)
(-0.220233 -0.118008 6.75032e-25)
(-0.224749 -0.112425 3.44167e-25)
(-0.228738 -0.106767 3.53079e-25)
(-0.231819 -0.0994847 3.63004e-25)
(-0.233334 -0.087539 0)
(-0.23239 -0.0659433 -1.6173e-25)
(-0.229505 -0.028376 -1.63773e-25)
(-0.186041 -0.159216 6.43525e-25)
(-0.19473 -0.148267 1.24398e-24)
(-0.202195 -0.138401 6.39205e-25)
(-0.208667 -0.129627 -6.44243e-25)
(-0.214511 -0.121911 6.69736e-25)
(-0.220097 -0.115267 6.2764e-25)
(-0.225755 -0.109579 -2.58606e-27)
(-0.231648 -0.104445 3.54021e-25)
(-0.23755 -0.0987129 -3.73678e-25)
(-0.24277 -0.0894879 0)
(-0.245734 -0.070824 -2.06245e-25)
(-0.245538 -0.0328136 -9.81445e-26)
(-0.181878 -0.156859 0)
(-0.190853 -0.145671 6.02754e-25)
(-0.198406 -0.135579 5.95165e-25)
(-0.204862 -0.126434 -2.95527e-27)
(-0.210747 -0.118154 6.37572e-25)
(-0.216615 -0.11079 6.18472e-25)
(-0.222974 -0.104352 -6.44263e-25)
(-0.230277 -0.0987382 0)
(-0.238651 -0.0933473 -3.68921e-25)
(-0.247794 -0.0860044 -2.42419e-26)
(-0.255922 -0.0708448 -2.24457e-25)
(-0.260921 -0.0352622 4.23798e-27)
(-0.174728 -0.151182 0)
(-0.184206 -0.140512 0)
(-0.191892 -0.130841 0)
(-0.1983 -0.121799 1.08219e-24)
(-0.204123 -0.113235 5.02409e-26)
(-0.21006 -0.105188 6.13246e-25)
(-0.216748 -0.0977062 0)
(-0.224878 -0.0908356 6.29276e-25)
(-0.235007 -0.0843781 0)
(-0.24759 -0.0771197 3.89502e-25)
(-0.261484 -0.06437 -2.17769e-25)
(-0.274567 -0.0335114 -3.68133e-28)
(-0.164984 -0.141776 0)
(-0.175026 -0.132423 0)
(-0.182726 -0.123889 -9.35133e-25)
(-0.188966 -0.1155 9.41344e-25)
(-0.194655 -0.107096 -1.50483e-24)
(-0.200534 -0.098672 -4.98184e-25)
(-0.207265 -0.0902457 2.03431e-26)
(-0.215643 -0.0818362 5.93716e-25)
(-0.226554 -0.0732688 -5.94548e-25)
(-0.241284 -0.0638495 3.38695e-25)
(-0.260354 -0.0503564 2.05496e-25)
(-0.283896 -0.0243598 1.23544e-25)
(-0.154192 -0.129693 0)
(-0.164336 -0.122041 0)
(-0.171608 -0.11508 -7.94908e-25)
(-0.177392 -0.107728 -7.99183e-25)
(-0.182745 -0.0998236 -7.79165e-25)
(-0.188374 -0.0913843 -4.25197e-25)
(-0.194854 -0.0823516 -4.33512e-25)
(-0.202817 -0.0726543 0)
(-0.213267 -0.061812 -4.6257e-25)
(-0.227877 -0.0486598 2.44892e-25)
(-0.249293 -0.0282882 9.64281e-26)
(-0.279898 0.000651248 1.56603e-25)
(-0.13426 0.00832799 -8.89545e-27)
(-0.137595 0.0213213 0)
(-0.143286 0.0334652 0)
(-0.149297 0.0455125 8.42288e-26)
(-0.15371 0.0564223 8.73825e-26)
(-0.154659 0.0646597 0)
(-0.151116 0.0719286 0)
(-0.143716 0.0785488 -7.41141e-26)
(-0.133857 0.0831085 -2.30216e-25)
(-0.122446 0.087243 -7.09366e-26)
(-0.111061 0.0918433 1.61468e-25)
(-0.100803 0.096557 5.5411e-26)
(-0.150612 0.0134831 6.93432e-27)
(-0.157249 0.0345873 0)
(-0.166714 0.051936 0)
(-0.176346 0.065571 8.48717e-26)
(-0.18295 0.0727002 -3.30147e-25)
(-0.184825 0.0745495 5.32025e-26)
(-0.183078 0.0780732 9.88592e-26)
(-0.17946 0.0829226 -4.47541e-25)
(-0.172481 0.0872979 -3.32166e-25)
(-0.160408 0.0935882 -6.13459e-25)
(-0.145339 0.101332 0)
(-0.131065 0.107378 5.75759e-36)
(-0.16551 0.0217433 9.9989e-27)
(-0.17065 0.0508575 0)
(-0.177535 0.0701483 0)
(-0.183442 0.0807231 1.43843e-25)
(-0.188297 0.0794382 -2.42848e-25)
(-0.192038 0.0765427 3.4351e-25)
(-0.192089 0.0809548 0)
(-0.190054 0.0840877 -4.1803e-25)
(-0.187444 0.0880408 -4.64012e-25)
(-0.181914 0.0957908 -3.74431e-25)
(-0.170674 0.105794 -4.12756e-26)
(-0.156038 0.112902 2.13233e-25)
(-0.180801 0.0276591 1.10569e-26)
(-0.183732 0.063234 -3.04691e-26)
(-0.188562 0.084153 0)
(-0.194674 0.0914048 8.73849e-26)
(-0.199864 0.0847277 -1.51909e-25)
(-0.199082 0.083561 2.96365e-25)
(-0.198236 0.0864049 0)
(-0.197051 0.0909479 2.98302e-25)
(-0.195423 0.0975597 -4.11633e-25)
(-0.192108 0.106256 -6.09537e-26)
(-0.186018 0.116008 1.15174e-25)
(-0.177855 0.125797 7.24199e-25)
(-0.195559 0.0301338 1.47923e-26)
(-0.193754 0.0690131 -3.63603e-26)
(-0.19236 0.0904978 -7.69133e-26)
(-0.192109 0.0941057 0)
(-0.194776 0.0847356 2.96689e-25)
(-0.197516 0.0843958 -2.9789e-25)
(-0.198517 0.0885768 -3.10739e-25)
(-0.198721 0.0957471 3.08777e-25)
(-0.198594 0.104899 0)
(-0.196988 0.11564 0)
(-0.193415 0.127295 0)
(-0.187756 0.13931 1.35596e-24)
(-0.210806 0.0291705 -4.22241e-26)
(-0.205264 0.0684979 0)