/*--------------------------------*- C++ -*----------------------------------*\
| =========                 |                                                 |
| \\      /  F ield         | OpenFOAM: The Open Source CFD Toolbox           |
|  \\    /   O peration     | Version:  v1606+                                |
|   \\  /    A nd           | Web:      www.OpenFOAM.com                      |
|    \\/     M anipulation  |                                                 |
\*---------------------------------------------------------------------------*/
FoamFile
{
    version     2.0;
    format      ascii;
    class       volVectorField;
    location    "1.33";
    object      U.particlesMean;
}
// * * * * * * * * * * * * * * * * * * * * * * * * * * * * * * * * * * * * * //

dimensions      [0 1 -1 0 0 0 0];

internalField   nonuniform List<vector> 
6000
(
(-0.00738519 -0.335968 0)
(-8.1791e-05 -0.366875 0)
(0.0107127 -0.372146 0)
(0.0152584 -0.383639 0)
(0.0157107 -0.397043 0)
(0.0131104 -0.408555 0)
(0.0103849 -0.418355 0)
(0.00587479 -0.42548 0)
(0.00143273 -0.424916 0)
(-0.00146669 -0.431079 0)
(-0.00371576 -0.437148 0)
(-0.00471162 -0.442342 0)
(-0.00583532 -0.445062 0)
(-0.00721712 -0.448829 0)
(-0.00861324 -0.448988 0)
(-0.00986156 -0.448498 0)
(-0.0105747 -0.447513 0)
(-0.0108448 -0.447047 0)
(-0.0109979 -0.452128 0)
(-0.0125703 -0.449988 0)
(-0.0156915 -0.442187 0)
(-0.0190455 -0.428682 0)
(-0.0219863 -0.419486 0)
(-0.025093 -0.412476 0)
(-0.0283305 -0.401346 0)
(-0.0301043 -0.38639 0)
(-0.0262576 -0.368803 0)
(-0.0170392 -0.358449 0)
(-0.0029269 -0.357387 0)
(0.00619021 -0.332216 0)
(0.0179158 0.0294988 0)
(0.0132147 0.047519 0)
(0.0261364 0.0488453 0)
(0.0370432 0.0566679 0)
(0.0417462 0.0643287 0)
(0.0376029 0.0685463 0)
(0.0244097 0.0664302 0)
(0.0103079 0.0648297 0)
(0.000312176 0.0645945 0)
(-0.00316151 0.0657815 0)
(-0.00620284 0.0678219 0)
(-0.00926687 0.0670706 0)
(-0.0114667 0.0614841 0)
(-0.0134435 0.057441 0)
(-0.0135022 0.0531517 0)
(-0.012482 0.0525698 0)
(-0.0118457 0.0548642 0)
(-0.0114223 0.0580919 0)
(-0.012019 0.0654808 0)
(-0.015583 0.0685236 0)
(-0.0201322 0.0661266 0)
(-0.0259328 0.0681776 0)
(-0.0387271 0.071232 0)
(-0.0511528 0.0688156 0)
(-0.056478 0.063182 0)
(-0.0530785 0.0563742 0)
(-0.0402771 0.0466565 0)
(-0.0263668 0.0425388 0)
(-0.0127671 0.0457315 0)
(-0.0176942 0.0295571 0)
(0.00472136 -0.0498582 0)
(0.00787299 -0.0629146 0)
(0.0217073 -0.0654459 0)
(0.0318016 -0.0574502 0)
(0.0399513 -0.0408414 0)
(0.0395529 -0.0213477 0)
(0.030643 -0.0124608 0)
(0.0172868 -0.0144331 0)
(0.00859171 -0.025199 0)
(0.00264408 -0.0315991 0)
(-0.00272965 -0.0364564 0)
(-0.0066198 -0.0396842 0)
(-0.0105101 -0.040611 0)
(-0.013641 -0.0417058 0)
(-0.0134745 -0.0439522 0)
(-0.0127728 -0.0450238 0)
(-0.0133463 -0.0455084 0)
(-0.0157888 -0.0452028 0)
(-0.0190724 -0.0413686 0)
(-0.0227516 -0.0376786 0)
(-0.0281455 -0.0307941 0)
(-0.0338358 -0.0215426 0)
(-0.041643 -0.0161905 0)
(-0.0510738 -0.0226533 0)
(-0.0535043 -0.0396225 0)
(-0.0452492 -0.0578722 0)
(-0.0324464 -0.0682088 0)
(-0.0219585 -0.0706081 0)
(-0.00831704 -0.0648638 0)
(-0.00635205 -0.0520599 0)
(0.0105319 -0.0581088 0)
(0.00924967 -0.0662616 0)
(0.0141803 -0.0645252 0)
(0.0183353 -0.0556997 0)
(0.0304145 -0.0395126 0)
(0.034933 -0.020962 0)
(0.034355 -0.00887708 0)
(0.0291797 -0.00742015 0)
(0.0231751 -0.00937843 0)
(0.0148876 -0.0095726 0)
(0.00567605 -0.0109073 0)
(-0.0042131 -0.0112838 0)
(-0.0128249 -0.0142488 0)
(-0.0151203 -0.0233134 0)
(-0.0119504 -0.0314235 0)
(-0.00802834 -0.0313065 0)
(-0.00666924 -0.0252633 0)
(-0.0115715 -0.0181085 0)
(-0.0217066 -0.0134563 0)
(-0.0317301 -0.0127867 0)
(-0.0384406 -0.0123569 0)
(-0.0429344 -0.0100163 0)
(-0.0461908 -0.00881944 0)
(-0.0490568 -0.0184527 0)
(-0.0423642 -0.0388869 0)
(-0.0291783 -0.0565358 0)
(-0.0192509 -0.0662129 0)
(-0.0148892 -0.068652 0)
(-0.0108777 -0.0672546 0)
(-0.00949793 -0.058585 0)
(0.00617372 -0.0732472 0)
(0.00423082 -0.0808171 0)
(0.00700058 -0.0808111 0)
(0.00749111 -0.0780696 0)
(0.0171045 -0.0632111 0)
(0.026424 -0.0435977 0)
(0.0307498 -0.0266498 0)
(0.031793 -0.0209 0)
(0.0284916 -0.0208674 0)
(0.0211812 -0.020381 0)
(0.0113827 -0.0202078 0)
(-0.00194611 -0.0196496 0)
(-0.012039 -0.0275673 0)
(-0.0142494 -0.0459606 0)
(-0.00869588 -0.0585882 0)
(-0.00156292 -0.0579221 0)
(0.00238795 -0.0465856 0)
(-0.00141844 -0.0316807 0)
(-0.0140109 -0.0214958 0)
(-0.027229 -0.0224947 0)
(-0.0356293 -0.0255889 0)
(-0.0397603 -0.0253314 0)
(-0.0429078 -0.0268202 0)
(-0.0410707 -0.0403597 0)
(-0.0321212 -0.0668562 0)
(-0.0189386 -0.083381 0)
(-0.00843704 -0.0884033 0)
(-0.00638418 -0.0847636 0)
(-0.00433575 -0.0817564 0)
(-0.00538908 -0.0733895 0)
(0.00321837 -0.0730393 0)
(-0.00198735 -0.0763529 0)
(-0.0029536 -0.0806256 0)
(0.00104625 -0.0836702 0)
(0.00713134 -0.0733842 0)
(0.0189668 -0.0542665 0)
(0.0256189 -0.0374422 0)
(0.0311934 -0.0294449 0)
(0.0284473 -0.0231663 0)
(0.0205025 -0.0219024 0)
(0.00925542 -0.0234866 0)
(-0.00497943 -0.0280005 0)
(-0.0134577 -0.0417295 0)
(-0.0134269 -0.0609235 0)
(-0.00731711 -0.0747584 0)
(0.00245816 -0.0742112 0)
(0.00915473 -0.0607013 0)
(0.00863292 -0.04387 0)
(0.00163282 -0.0308811 0)
(-0.0101518 -0.0258195 0)
(-0.023248 -0.025304 0)
(-0.0349976 -0.0275214 0)
(-0.0404675 -0.0333932 0)
(-0.0346372 -0.0509996 0)
(-0.0226907 -0.0766464 0)
(-0.0093128 -0.0908023 0)
(-0.0010948 -0.091933 0)
(0.00301754 -0.0845184 0)
(0.00160994 -0.0770554 0)
(-0.00239349 -0.0724407 0)
(-0.00236676 -0.0618453 0)
(-0.00684484 -0.0725555 0)
(-0.00807807 -0.0816854 0)
(-0.00488405 -0.086118 0)
(0.00283775 -0.0830669 0)
(0.0147954 -0.0619509 0)
(0.0218336 -0.0435768 0)
(0.0309002 -0.0356454 0)
(0.0284539 -0.0237943 0)
(0.0169566 -0.0214736 0)
(0.00588938 -0.0248881 0)
(-0.0051535 -0.0302613 0)
(-0.0103521 -0.045156 0)
(-0.0100418 -0.0679478 0)
(-0.00516503 -0.0841093 0)
(0.003801 -0.0842113 0)
(0.0104761 -0.0695454 0)
(0.0121249 -0.0494734 0)
(0.00845973 -0.033526 0)
(0.000635889 -0.0273359 0)
(-0.0115853 -0.0233283 0)
(-0.025268 -0.0255131 0)
(-0.0336896 -0.0365793 0)
(-0.0260123 -0.056858 0)
(-0.0155198 -0.0832503 0)
(-0.00421356 -0.0949563 0)
(0.00414714 -0.0945568 0)
(0.00671513 -0.0857759 0)
(0.0056958 -0.0746179 0)
(0.00195648 -0.062777 0)
(-0.00275392 -0.0503458 0)
(-0.00704774 -0.0622219 0)
(-0.00893473 -0.073805 0)
(-0.00501556 -0.0827745 0)
(0.00104458 -0.0827793 0)
(0.0099696 -0.0667763 0)
(0.0156487 -0.0456394 0)
(0.0215675 -0.0368588 0)
(0.0225405 -0.0225756 0)
(0.0139774 -0.0145423 0)
(0.00205482 -0.0183 0)
(-0.00308654 -0.0266339 0)
(-0.00301179 -0.0434012 0)
(-0.00226553 -0.0683616 0)
(-0.000536191 -0.0851683 0)
(0.00338489 -0.0858942 0)
(0.00883947 -0.073163 0)
(0.012489 -0.0512179 0)
(0.0143679 -0.0345016 0)
(0.00992681 -0.0207392 0)
(-0.00223678 -0.013508 0)
(-0.014798 -0.01867 0)
(-0.0215177 -0.0349701 0)
(-0.017478 -0.0569846 0)
(-0.00957984 -0.0830677 0)
(-0.00262901 -0.0945771 0)
(0.000953772 -0.0910457 0)
(0.00522224 -0.0801443 0)
(0.00497296 -0.0666907 0)
(0.00196555 -0.0526895 0)
(-0.00330997 -0.0431245 0)
(-0.00373224 -0.0512398 0)
(-0.00496283 -0.0651675 0)
(-0.00341224 -0.0777877 0)
(-0.00231112 -0.07972 0)
(0.00371424 -0.0691751 0)
(0.00639232 -0.0454162 0)
(0.0111034 -0.0322402 0)
(0.0171302 -0.0197078 0)
(0.0167137 -0.00650031 0)
(0.00333278 -0.00119095 0)
(-0.00140816 -0.0141374 0)
(0.00370361 -0.0377961 0)
(0.00621834 -0.0633796 0)
(0.00570895 -0.0798307 0)
(0.00438851 -0.081183 0)
(0.00744857 -0.069188 0)
(0.00982639 -0.0437885 0)
(0.0142346 -0.0261676 0)
(0.0146352 -0.00528159 0)
(0.00425783 0.00495963 0)
(-0.0087052 -0.00797561 0)
(-0.0092821 -0.0307734 0)
(-0.00507679 -0.0567941 0)
(-0.00249027 -0.0812757 0)
(-0.00226207 -0.0920678 0)
(-0.00282177 -0.0874608 0)
(0.000150891 -0.0738056 0)
(0.00128449 -0.059001 0)
(0.00290656 -0.0489802 0)
(0.000403895 -0.0365684 0)
(0.00343518 -0.0419499 0)
(0.00394711 -0.0538579 0)
(0.00106084 -0.0695498 0)
(-0.00274336 -0.0740591 0)
(-0.00189286 -0.0633053 0)
(0.000415115 -0.0399123 0)
(0.00720492 -0.028143 0)
(0.0139407 -0.0129736 0)
(0.0193224 0.00567229 0)
(0.012109 0.00966895 0)
(0.0111754 -0.00248064 0)
(0.0130668 -0.028609 0)
(0.0112865 -0.0559025 0)
(0.00951281 -0.0757233 0)
(0.00490702 -0.0775517 0)
(0.00578777 -0.0636113 0)
(0.00595434 -0.0364082 0)
(0.0161033 -0.0139617 0)
(0.0156825 0.00905944 0)
(0.00610665 0.0157496 0)
(0.00297051 0.00267083 0)
(0.00271951 -0.0264236 0)
(0.00731568 -0.0523836 0)
(0.00629364 -0.0737148 0)
(-9.97926e-05 -0.085938 0)
(-0.0063879 -0.0815864 0)
(-0.00512565 -0.0657087 0)
(-0.00353213 -0.0506588 0)
(0.000611023 -0.0425513 0)
(0.00177313 -0.0340344 0)
(0.00660011 -0.0392924 0)
(0.01044 -0.0503024 0)
(0.0104533 -0.0649312 0)
(-0.00177571 -0.0698419 0)
(-0.0050832 -0.0554463 0)
(-0.000952235 -0.0347434 0)
(0.00765221 -0.023615 0)
(0.0104311 -0.00674278 0)
(0.0181129 0.0186019 0)
(0.0150851 0.0230653 0)
(0.0117112 0.00777771 0)
(0.0172462 -0.0251732 0)
(0.0219145 -0.0521768 0)
(0.0154924 -0.0684438 0)
(0.00512108 -0.0716686 0)
(0.00460819 -0.0581027 0)
(0.00620966 -0.032443 0)
(0.0187483 -0.00265091 0)
(0.012772 0.0135749 0)
(0.0114754 0.0209177 0)
(0.0164824 0.00691599 0)
(0.0141205 -0.0170353 0)
(0.0184643 -0.0424378 0)
(0.0145973 -0.064065 0)
(0.0021209 -0.0799809 0)
(-0.00889595 -0.078785 0)
(-0.00846324 -0.0619532 0)
(-0.00633399 -0.047446 0)
(-0.00120174 -0.0393035 0)
(0.00376826 -0.0337137 0)
(0.00710946 -0.0399213 0)
(0.0119806 -0.0494392 0)
(0.0152123 -0.0623782 0)
(0.00407216 -0.0657731 0)
(-0.0065303 -0.0565352 0)
(-0.000955584 -0.0390352 0)
(0.00429579 -0.0223166 0)
(0.00863075 -0.00403439 0)
(0.015104 0.0217731 0)
(0.018067 0.0273355 0)
(0.0118687 0.0108362 0)
(0.0159944 -0.0231507 0)
(0.0215207 -0.0486457 0)
(0.0180859 -0.0620327 0)
(0.00829443 -0.0618368 0)
(0.00462426 -0.0491559 0)
(0.00689159 -0.0279083 0)
(0.0193995 0.00111799 0)
(0.0139325 0.019 0)
(0.0134381 0.0253061 0)
(0.0203487 0.00979146 0)
(0.020435 -0.0143143 0)
(0.0206755 -0.0379304 0)
(0.0170178 -0.0577859 0)
(0.00370043 -0.0738882 0)
(-0.00959188 -0.0757295 0)
(-0.00815967 -0.0606109 0)
(-0.00540295 -0.0483123 0)
(-0.00269255 -0.0393713 0)
(0.0040787 -0.0348959 0)
(0.00516927 -0.0417028 0)
(0.010215 -0.0509115 0)
(0.0127995 -0.0624453 0)
(0.00429552 -0.0594982 0)
(-0.00430736 -0.0557319 0)
(-0.00251953 -0.0371339 0)
(0.00326217 -0.0159127 0)
(0.00546679 0.00397775 0)
(0.0109074 0.0315155 0)
(0.0130955 0.0370314 0)
(0.00899259 0.0151088 0)
(0.0121018 -0.0166437 0)
(0.0196723 -0.0417458 0)
(0.0163349 -0.0534484 0)
(0.00741061 -0.0547551 0)
(0.0059878 -0.0473866 0)
(0.0149667 -0.0298221 0)
(0.0226702 0.00555223 0)
(0.0161579 0.0282793 0)
(0.0171391 0.0331715 0)
(0.0277037 0.0145882 0)
(0.0276398 -0.00980319 0)
(0.0248788 -0.0350463 0)
(0.0221362 -0.0556192 0)
(0.00356958 -0.0679929 0)
(-0.00939876 -0.0714245 0)
(-0.00789903 -0.0607863 0)
(-0.0033714 -0.050354 0)
(-0.00250538 -0.0400442 0)
(0.00336602 -0.03501 0)
(0.0029854 -0.0420708 0)
(0.00730797 -0.0498863 0)
(0.00749614 -0.0586184 0)
(0.00196295 -0.0548291 0)
(-0.00362253 -0.0525332 0)
(-0.000745082 -0.0377806 0)
(0.00194646 -0.0146456 0)
(0.00153515 0.00530901 0)
(0.00603592 0.033068 0)
(0.0141338 0.0391271 0)
(0.0133722 0.0170361 0)
(0.0130695 -0.016083 0)
(0.0223436 -0.0369852 0)
(0.0174027 -0.0470535 0)
(0.00535904 -0.0485518 0)
(0.00126524 -0.0453462 0)
(0.0111083 -0.0331389 0)
(0.016708 0.00751789 0)
(0.0156483 0.0348276 0)
(0.0183648 0.0380901 0)
(0.0275435 0.0191853 0)
(0.0310403 -0.00671524 0)
(0.0278054 -0.0291134 0)
(0.0256431 -0.0490922 0)
(0.00597021 -0.0633293 0)
(-0.00729955 -0.065372 0)
(-0.00755918 -0.0589874 0)
(-0.00219954 -0.050529 0)
(-0.0012234 -0.037961 0)
(0.00299454 -0.0328792 0)
(0.0024065 -0.0409467 0)
(0.0056091 -0.0449731 0)
(0.00315475 -0.0534284 0)
(-0.00407714 -0.0513907 0)
(-0.00478763 -0.0495352 0)
(-0.00257341 -0.0350509 0)
(-0.00359163 -0.0119366 0)
(-0.00427014 0.00910473 0)
(0.000882814 0.0351558 0)
(0.0134995 0.0397571 0)
(0.0197662 0.0146564 0)
(0.0209418 -0.0164845 0)
(0.0280283 -0.0318506 0)
(0.0228008 -0.0421492 0)
(0.0119577 -0.0449713 0)
(0.0026799 -0.044364 0)
(0.00671709 -0.0388844 0)
(0.00710425 0.0111567 0)
(0.0117402 0.0429971 0)
(0.0142308 0.0479598 0)
(0.0197643 0.0273765 0)
(0.0252066 -0.00280551 0)
(0.0224689 -0.0240253 0)
(0.0256608 -0.0435237 0)
(0.00899853 -0.0589498 0)
(-0.00139539 -0.0621843 0)
(-0.0041077 -0.0551524 0)
(-7.82975e-05 -0.0484172 0)
(-0.000741695 -0.0344866 0)
(0.00197278 -0.0295701 0)
(0.00112362 -0.0377215 0)
(0.00641654 -0.0403181 0)
(0.00735429 -0.0519554 0)
(0.000821413 -0.0516199 0)
(-0.00184192 -0.0474009 0)
(-0.0108188 -0.0310065 0)
(-0.0121434 -0.00912128 0)
(-0.00969429 0.0137331 0)
(-0.00273342 0.0351444 0)
(0.0131915 0.0378935 0)
(0.0254091 0.0108034 0)
(0.0223807 -0.0207332 0)
(0.0281259 -0.0354175 0)
(0.0330702 -0.0413439 0)
(0.0243161 -0.0454244 0)
(0.0175985 -0.0471057 0)
(0.00937971 -0.0428208 0)
(0.00329086 0.00634726 0)
(0.00998097 0.0439594 0)
(0.0087787 0.0537578 0)
(0.0134184 0.0344099 0)
(0.0137158 0.00332719 0)
(0.0115008 -0.0193903 0)
(0.01998 -0.0413573 0)
(0.0107951 -0.0545557 0)
(0.00436297 -0.0522924 0)
(-0.0014808 -0.0515124 0)
(0.0021244 -0.0430691 0)
(-0.000392515 -0.0288132 0)
(0.00121331 -0.0258144 0)
(0.000616513 -0.0329743 0)
(0.00590187 -0.0392132 0)
(0.00708443 -0.0502942 0)
(0.00105561 -0.0517729 0)
(0.000851041 -0.0505642 0)
(-0.00949437 -0.0351119 0)
(-0.0212805 -0.00835897 0)
(-0.0160576 0.0191966 0)
(-0.00601394 0.0373439 0)
(0.0114267 0.0395555 0)
(0.0282706 0.0183221 0)
(0.041228 -0.0216584 0)
(0.0299713 -0.0298579 0)
(0.037233 -0.0347922 0)
(0.0342065 -0.0438484 0)
(0.0349525 -0.0468618 0)
(0.0173458 -0.0459013 0)
(0.00567002 0.00134026 0)
(0.00636618 0.0490113 0)
(0.00902917 0.0584629 0)
(0.0158142 0.0352384 0)
(0.0123169 0.0054724 0)
(0.0128241 -0.0191225 0)
(0.0123035 -0.0473609 0)
(0.00402792 -0.0544499 0)
(-0.00306705 -0.0442734 0)
(-0.00404633 -0.0410789 0)
(-0.0016335 -0.0385256 0)
(-0.00243082 -0.0228666 0)
(0.00225249 -0.0282758 0)
(0.00507632 -0.0357515 0)
(0.0116425 -0.0373742 0)
(0.00924825 -0.0431013 0)
(-0.000683604 -0.0511483 0)
(-0.0064051 -0.0577824 0)
(-0.0165472 -0.0397274 0)
(-0.0240188 -0.0127176 0)
(-0.0204372 0.0218678 0)
(-0.0104401 0.0373869 0)
(0.00963484 0.0351816 0)
(0.0299364 0.017281 0)
(0.0484627 -0.0155625 0)
(0.0449903 -0.0327258 0)
(0.0462578 -0.0403963 0)
(0.0444553 -0.0428625 0)
(0.0484719 -0.0464736 0)
(0.0290507 -0.046927 0)
(0.00548045 0.00345946 0)
(0.00811711 0.0424871 0)
(0.0130066 0.0518058 0)
(0.0209726 0.0311391 0)
(0.0216327 0.00324886 0)
(0.0191258 -0.0235507 0)
(0.00755652 -0.0476356 0)
(-0.00447874 -0.0462355 0)
(-0.0163271 -0.0349047 0)
(-0.0140122 -0.0332429 0)
(-0.00800373 -0.0362909 0)
(-0.0067298 -0.0211768 0)
(0.00277553 -0.0260567 0)
(0.00863996 -0.048625 0)
(0.0100187 -0.0446722 0)
(0.0110782 -0.039081 0)
(0.000264954 -0.0489538 0)
(-0.00935488 -0.0612164 0)
(-0.0222493 -0.0536999 0)
(-0.0298668 -0.0232037 0)
(-0.0248549 0.00965484 0)
(-0.0145598 0.0225224 0)
(0.00793766 0.0186303 0)
(0.0312661 0.00074121 0)
(0.0486443 -0.0302381 0)
(0.0575602 -0.0484611 0)
(0.0587971 -0.05682 0)
(0.0526557 -0.0505059 0)
(0.0520435 -0.0528636 0)
(0.0357633 -0.039923 0)
(0.00792646 0.000557542 0)
(0.0161305 0.0292546 0)
(0.0209291 0.0326306 0)
(0.0337749 0.0180124 0)
(0.0334301 -0.0134368 0)
(0.0215914 -0.0412939 0)
(0.000768128 -0.0500608 0)
(-0.0128517 -0.0388507 0)
(-0.0248919 -0.0342083 0)
(-0.0213295 -0.0388289 0)
(-0.0141314 -0.0371863 0)
(-0.0105489 -0.0223957 0)
(0.00256206 -0.0179844 0)
(0.0120772 -0.0443463 0)
(0.00901733 -0.0595588 0)
(0.0046768 -0.0581733 0)
(-0.00790907 -0.0633929 0)
(-0.0234771 -0.0772051 0)
(-0.0376178 -0.0738179 0)
(-0.039699 -0.0494713 0)
(-0.0271174 -0.0219325 0)
(-0.0124 -0.0134702 0)
(0.0100046 -0.0199341 0)
(0.0294537 -0.0364457 0)
(0.0497961 -0.0684462 0)
(0.0573595 -0.0797322 0)
(0.0604918 -0.0766828 0)
(0.0563686 -0.0653284 0)
(0.0496033 -0.0545706 0)
(0.0356667 -0.0364579 0)
(0.016879 -0.00348187 0)
(0.0266954 0.0198844 0)
(0.030898 0.0209409 0)
(0.0435826 0.0021218 0)
(0.0365119 -0.0401584 0)
(0.0211837 -0.0603548 0)
(0.00449628 -0.0608239 0)
(-0.0104671 -0.0511099 0)
(-0.0211069 -0.0506923 0)
(-0.0239311 -0.057562 0)
(-0.0213128 -0.0486751 0)
(-0.0161177 -0.0334247 0)
(0.00738382 -0.0209824 0)
(0.0114818 -0.0500653 0)
(0.00251548 -0.0757009 0)
(-0.00672076 -0.0824744 0)
(-0.0167187 -0.0847562 0)
(-0.0292731 -0.0833679 0)
(-0.0426523 -0.0852881 0)
(-0.0448873 -0.0866622 0)
(-0.0295254 -0.0666826 0)
(-0.0116378 -0.0545674 0)
(0.00855694 -0.055772 0)
(0.0282596 -0.0739502 0)
(0.0410574 -0.100424 0)
(0.0448737 -0.108494 0)
(0.0494862 -0.0956894 0)
(0.0476272 -0.0817524 0)
(0.0400488 -0.0548665 0)
(0.0304036 -0.0345246 0)
(0.0179455 -0.0137512 0)
(0.0260544 0.008784 0)
(0.0382376 -0.000265105 0)
(0.0343823 -0.0213154 0)
(0.0342827 -0.040115 0)
(0.021045 -0.0582044 0)
(0.0068949 -0.0632335 0)
(-0.00443708 -0.071701 0)
(-0.0107281 -0.0807248 0)
(-0.0173208 -0.0846678 0)
(-0.0232937 -0.0737566 0)
(-0.0162468 -0.0581183 0)
(0.0133694 -0.0667443 0)
(0.00643935 -0.0855347 0)
(-0.0097952 -0.0837385 0)
(-0.0182649 -0.0731717 0)
(-0.0239754 -0.0705126 0)
(-0.0305941 -0.0667884 0)
(-0.035494 -0.0815131 0)
(-0.0391672 -0.102926 0)
(-0.0373064 -0.104491 0)
(-0.0199318 -0.0843872 0)
(0.000518709 -0.0748722 0)
(0.018555 -0.0872635 0)
(0.0304131 -0.113707 0)
(0.0374707 -0.119386 0)
(0.0457825 -0.106273 0)
(0.0410193 -0.0913561 0)
(0.0307411 -0.0542295 0)
(0.0239445 -0.0288011 0)
(0.019103 -0.0144687 0)
(0.0256461 -0.00366902 0)
(0.0288759 -0.0123782 0)
(0.0256864 -0.0238682 0)
(0.0256306 -0.0368092 0)
(0.0152653 -0.056115 0)
(0.00905731 -0.0660791 0)
(0.00535687 -0.0747896 0)
(0.00205061 -0.0859449 0)
(-0.00313857 -0.0980966 0)
(-0.0110907 -0.1068 0)
(-0.0137566 -0.0945611 0)
(0.00552711 -0.0904552 0)
(-0.00423635 -0.0909337 0)
(-0.010399 -0.0758881 0)
(-0.0156629 -0.0655962 0)
(-0.0201794 -0.0626027 0)
(-0.0217901 -0.0632782 0)
(-0.0236597 -0.0782327 0)
(-0.0281163 -0.0978017 0)
(-0.0340029 -0.107874 0)
(-0.033888 -0.105802 0)
(-0.0103666 -0.0934133 0)
(0.0102764 -0.0965031 0)
(0.0249312 -0.116275 0)
(0.0331155 -0.1161 0)
(0.0380583 -0.104235 0)
(0.0307183 -0.083232 0)
(0.0215264 -0.0555567 0)
(0.0193312 -0.0265312 0)
(0.0219728 -0.0169923 0)
(0.0233372 -0.0185082 0)
(0.0230811 -0.0186305 0)
(0.0211202 -0.0252683 0)
(0.0202848 -0.0341938 0)
(0.0145686 -0.0537155 0)
(0.0104678 -0.0691491 0)
(0.0106028 -0.0744512 0)
(0.00802259 -0.0839038 0)
(0.00487485 -0.0964599 0)
(0.00128592 -0.110544 0)
(-0.00732661 -0.111721 0)
(0.000139821 -0.0886133 0)
(-0.00860094 -0.084035 0)
(-0.0115417 -0.0700594 0)
(-0.0162287 -0.058833 0)
(-0.0161188 -0.0591592 0)
(-0.012022 -0.0658901 0)
(-0.0115842 -0.0769674 0)
(-0.0140699 -0.093039 0)
(-0.020769 -0.103696 0)
(-0.0269449 -0.104604 0)
(-0.0188537 -0.0975585 0)
(0.00375278 -0.0984212 0)
(0.0160049 -0.112745 0)
(0.0219366 -0.11157 0)
(0.0264129 -0.0993061 0)
(0.0218046 -0.0720233 0)
(0.0121637 -0.0495952 0)
(0.0171359 -0.0289129 0)
(0.0268685 -0.0192057 0)
(0.0243924 -0.0257097 0)
(0.0188863 -0.0235783 0)
(0.0152334 -0.0283542 0)
(0.0139986 -0.0348077 0)
(0.0106558 -0.0560322 0)
(0.0049511 -0.0726018 0)
(0.00990673 -0.071454 0)
(0.0130929 -0.0769039 0)
(0.00966055 -0.0902926 0)
(0.00530444 -0.102353 0)
(-0.000814088 -0.108385 0)
(0.000376517 -0.0781248 0)
(-0.00666144 -0.0751783 0)
(-0.0127746 -0.0625269 0)
(-0.0116328 -0.0561423 0)
(-0.00441334 -0.0609227 0)
(0.000446844 -0.0699089 0)
(0.0018073 -0.0779365 0)
(-0.00367249 -0.0909249 0)
(-0.0108205 -0.0997709 0)
(-0.0149263 -0.103152 0)
(-0.0195551 -0.105791 0)
(-0.012694 -0.105902 0)
(0.00164456 -0.109286 0)
(0.0108388 -0.103987 0)
(0.014758 -0.088998 0)
(0.0071555 -0.0665586 0)
(0.00212088 -0.0445978 0)
(0.0134301 -0.0296187 0)
(0.0270871 -0.0231938 0)
(0.028499 -0.0277015 0)
(0.0195781 -0.0270431 0)
(0.013019 -0.0286676 0)
(0.0115093 -0.0355058 0)
(0.00929902 -0.051555 0)
(0.0055345 -0.0698916 0)
(0.00469268 -0.0736552 0)
(0.0120199 -0.0733661 0)
(0.0128583 -0.082249 0)
(0.0041523 -0.0946637 0)
(0.00154642 -0.0998218 0)
(-0.00250013 -0.0721061 0)
(-0.00844684 -0.0622613 0)
(-0.0101885 -0.0544855 0)
(-3.94728e-05 -0.0585659 0)
(0.00872823 -0.0675061 0)
(0.0108012 -0.0735657 0)
(0.0125933 -0.0805681 0)
(0.0104704 -0.0857778 0)
(-0.000252869 -0.09778 0)
(-0.00765086 -0.100047 0)
(-0.0130114 -0.0995963 0)
(-0.0159939 -0.101741 0)
(-0.00940169 -0.106651 0)
(0.00118131 -0.100101 0)
(0.00160351 -0.0779286 0)
(-0.00512652 -0.0622099 0)
(-0.00321763 -0.042282 0)
(0.0101445 -0.0312891 0)
(0.0259347 -0.0274816 0)
(0.0312487 -0.0302897 0)
(0.0249636 -0.0309818 0)
(0.0144099 -0.0315457 0)
(0.0136246 -0.0349553 0)
(0.00921882 -0.044475 0)
(0.00658867 -0.0586195 0)
(-0.000600856 -0.0734762 0)
(0.00499607 -0.0721756 0)
(0.012948 -0.0750085 0)
(0.00721593 -0.0814595 0)
(0.00354431 -0.089562 0)
(-0.0112915 -0.0614275 0)
(-0.00392829 -0.0517803 0)
(-0.000408682 -0.0540492 0)
(0.0149936 -0.0627862 0)
(0.0204956 -0.0694154 0)
(0.0206299 -0.0755118 0)
(0.0190645 -0.0827178 0)
(0.0200294 -0.0781664 0)
(0.00814963 -0.0925351 0)
(-0.000410642 -0.0990321 0)
(-0.00900996 -0.0969727 0)
(-0.0138247 -0.0977742 0)
(-0.014248 -0.101768 0)
(-0.00950796 -0.0956423 0)
(-0.00737297 -0.077136 0)
(-0.0103086 -0.0657966 0)
(-0.00398738 -0.0418929 0)
(0.00898194 -0.0331055 0)
(0.025186 -0.0310307 0)
(0.0312031 -0.0319241 0)
(0.0309693 -0.0316468 0)
(0.0235152 -0.0270747 0)
(0.0177795 -0.0280539 0)
(0.00637188 -0.0332012 0)
(0.00902745 -0.0388998 0)
(0.00425616 -0.0600313 0)
(-0.00199253 -0.0743625 0)
(0.00590025 -0.0748339 0)
(0.00550065 -0.0710984 0)
(0.0081551 -0.0764274 0)
(-0.0146865 -0.0431162 0)
(-0.00594208 -0.0420316 0)
(0.00446817 -0.0558041 0)
(0.0173261 -0.0594865 0)
(0.0222113 -0.0615941 0)
(0.0218273 -0.0674009 0)
(0.0207636 -0.0763407 0)
(0.0227994 -0.0713027 0)
(0.0148522 -0.0791521 0)
(0.00352289 -0.0915917 0)
(-0.00688304 -0.0915209 0)
(-0.0139454 -0.0931229 0)
(-0.015023 -0.0949521 0)
(-0.01575 -0.0955697 0)
(-0.012146 -0.0791227 0)
(-0.0152056 -0.0691519 0)
(-0.00428371 -0.0396077 0)
(0.00911247 -0.0334829 0)
(0.0232896 -0.0326361 0)
(0.0305745 -0.0287277 0)
(0.0313338 -0.0257059 0)
(0.0319155 -0.0209075 0)
(0.0228723 -0.0193516 0)
(0.0038662 -0.0208544 0)
(0.00758461 -0.0254079 0)
(0.00640908 -0.040291 0)
(2.43137e-05 -0.0622978 0)
(0.000215072 -0.074246 0)
(0.00167181 -0.0672015 0)
(0.00868494 -0.0604857 0)
(-0.00520305 -0.0229025 0)
(-0.000277782 -0.0382335 0)
(0.00539111 -0.0499902 0)
(0.013874 -0.0541611 0)
(0.0173068 -0.0510201 0)
(0.0159227 -0.0564629 0)
(0.0157252 -0.0676478 0)
(0.0167585 -0.0700363 0)
(0.0148529 -0.0704347 0)
(0.00545399 -0.0852452 0)
(-0.00622463 -0.0850593 0)
(-0.0149838 -0.0877183 0)
(-0.0168689 -0.0892852 0)
(-0.0191059 -0.0935548 0)
(-0.0180449 -0.0751045 0)
(-0.0139214 -0.0652134 0)
(-0.00414924 -0.0369557 0)
(0.0087944 -0.0343858 0)
(0.0202867 -0.0323268 0)
(0.0262106 -0.0254693 0)
(0.0279457 -0.018992 0)
(0.0298463 -0.0134851 0)
(0.0275042 -0.0120239 0)
(0.00692521 -0.0114453 0)
(0.00575336 -0.0171509 0)
(0.00539745 -0.0289602 0)
(-0.000742886 -0.0521675 0)
(-0.000811427 -0.0697328 0)
(-0.00288093 -0.0704413 0)
(6.14992e-05 -0.0505591 0)
(0.00378553 -0.0218611 0)
(0.00423894 -0.0365872 0)
(0.00741107 -0.0424721 0)
(0.0118178 -0.0422011 0)
(0.0135794 -0.0394384 0)
(0.0131392 -0.0458813 0)
(0.0119637 -0.0574667 0)
(0.00910254 -0.0643322 0)
(0.00745411 -0.0620196 0)
(0.00102027 -0.0783627 0)
(-0.00852117 -0.0801048 0)
(-0.0170583 -0.0810524 0)
(-0.020089 -0.0833895 0)
(-0.0208301 -0.0887583 0)
(-0.0219397 -0.0742791 0)
(-0.0130663 -0.0606057 0)
(-0.0055153 -0.0377463 0)
(0.00638066 -0.0365054 0)
(0.0146437 -0.0329296 0)
(0.0188315 -0.023952 0)
(0.0229762 -0.0138919 0)
(0.0229262 -0.00709577 0)
(0.0263906 -0.00545456 0)
(0.00790559 -0.00715525 0)
(0.00420954 -0.0117356 0)
(0.00354853 -0.0227168 0)
(-0.00113647 -0.0429672 0)
(-0.0039017 -0.0658762 0)
(-0.00560035 -0.0728526 0)
(-0.00627628 -0.0581282 0)
(0.00887946 -0.0267225 0)
(0.00806017 -0.039928 0)
(0.00916741 -0.0391327 0)
(0.0120302 -0.0352797 0)
(0.0142789 -0.0326045 0)
(0.01409 -0.0377472 0)
(0.0122262 -0.0454888 0)
(0.00373964 -0.0582103 0)
(-0.00159655 -0.0605914 0)
(-0.00548115 -0.075606 0)
(-0.0112814 -0.084592 0)
(-0.0207426 -0.0782164 0)
(-0.0240515 -0.0790119 0)
(-0.0251132 -0.0850219 0)
(-0.0273356 -0.0772376 0)
(-0.0188666 -0.056494 0)
(-0.00962982 -0.0378902 0)
(0.000926419 -0.0394289 0)
(0.00812923 -0.0340987 0)
(0.0103078 -0.0254662 0)
(0.0132045 -0.0214331 0)
(0.0153352 -0.0046407 0)
(0.017751 0.00145107 0)
(0.00843343 0.000804522 0)
(0.00224127 -0.00768747 0)
(0.00015794 -0.0192813 0)
(-0.00411863 -0.0406599 0)
(-0.0083481 -0.0648329 0)
(-0.00753457 -0.0763291 0)
(-0.00917006 -0.0637355 0)
(0.01097 -0.0387106 0)
(0.0104126 -0.0456869 0)
(0.0118492 -0.0373896 0)
(0.0139575 -0.0307739 0)
(0.0137991 -0.0277952 0)
(0.0137481 -0.0315133 0)
(0.0099442 -0.0401448 0)
(0.00147774 -0.0509306 0)
(-0.0075317 -0.0597932 0)
(-0.0124888 -0.072053 0)
(-0.0136431 -0.087764 0)
(-0.0232131 -0.0892405 0)
(-0.0291103 -0.0773849 0)
(-0.0293878 -0.0812496 0)
(-0.0318862 -0.0762812 0)
(-0.0284673 -0.058598 0)
(-0.0152008 -0.0438483 0)
(-0.00299281 -0.0452613 0)
(0.00437121 -0.0444203 0)
(0.00378749 -0.0452209 0)
(0.0037378 -0.020585 0)
(0.00936401 0.00421712 0)
(0.0115124 0.0121562 0)
(0.014178 0.0111436 0)
(0.00453258 0.0011975 0)
(-0.00120396 -0.0146628 0)
(-0.0063408 -0.0376593 0)
(-0.00949981 -0.0636597 0)
(-0.00863951 -0.0787966 0)
(-0.0105066 -0.071539 0)
(0.011105 -0.0487953 0)
(0.0111451 -0.0470639 0)
(0.0130166 -0.0341334 0)
(0.0130449 -0.0269206 0)
(0.012068 -0.0248935 0)
(0.0130463 -0.0253912 0)
(0.00673184 -0.0293602 0)
(-0.00390761 -0.040137 0)
(-0.0153977 -0.0537466 0)
(-0.0193015 -0.0684046 0)
(-0.0177852 -0.0860779 0)
(-0.0233899 -0.0918708 0)
(-0.0327975 -0.087537 0)
(-0.0345801 -0.0778603 0)
(-0.0351988 -0.0723296 0)
(-0.0307764 -0.0600749 0)
(-0.0211017 -0.0535374 0)
(-0.005969 -0.0620733 0)
(-0.00318718 -0.0719302 0)
(-0.0058632 -0.051335 0)
(-0.00169575 -0.0146476 0)
(0.00462241 0.0165308 0)
(0.00775678 0.0283925 0)
(0.0136491 0.024172 0)
(0.0155374 0.0134419 0)
(0.00224502 -0.00503645 0)
(-0.00678843 -0.0336598 0)
(-0.00851369 -0.0619849 0)
(-0.00864653 -0.0810631 0)
(-0.0112351 -0.077977 0)
(0.0121193 -0.0561261 0)
(0.0124256 -0.0481465 0)
(0.0133931 -0.0346893 0)
(0.0114365 -0.0239906 0)
(0.00755966 -0.0209885 0)
(0.0064628 -0.0162517 0)
(0.000550603 -0.0151827 0)
(-0.0103214 -0.0263353 0)
(-0.0199573 -0.0457966 0)
(-0.0247592 -0.0610458 0)
(-0.0212719 -0.0828476 0)
(-0.025474 -0.0870699 0)
(-0.0341064 -0.0849372 0)
(-0.0386937 -0.0774321 0)
(-0.0378313 -0.0695317 0)
(-0.0316375 -0.0596175 0)
(-0.0214442 -0.0633922 0)
(-0.0172523 -0.109789 0)
(-0.0190701 -0.0919214 0)
(-0.0150062 -0.0522404 0)
(-0.00925537 -0.010461 0)
(4.09462e-05 0.026446 0)
(0.00297255 0.0413916 0)
(0.011967 0.0390952 0)
(0.0195799 0.0248975 0)
(0.0142221 0.0079302 0)
(-0.000948351 -0.026541 0)
(-0.00845418 -0.0624651 0)
(-0.00873815 -0.0825134 0)
(-0.0106947 -0.0840449 0)
(0.0148474 -0.0658818 0)
(0.0128433 -0.0529527 0)
(0.0133642 -0.0362324 0)
(0.0125661 -0.0203895 0)
(0.00164359 -0.0146607 0)
(-0.00445609 -0.00984213 0)
(-0.0074973 -0.00970461 0)
(-0.0128985 -0.0228866 0)
(-0.0283095 -0.0476069 0)
(-0.0309408 -0.0580818 0)
(-0.0250543 -0.0799392 0)
(-0.028447 -0.082108 0)
(-0.0361291 -0.0804122 0)
(-0.0403858 -0.0745252 0)
(-0.0402762 -0.0683936 0)
(-0.0335775 -0.0623954 0)
(-0.0247966 -0.0835494 0)
(-0.0271509 -0.124612 0)
(-0.0336293 -0.101282 0)
(-0.026519 -0.0573108 0)
(-0.0199358 -0.00866417 0)
(-0.00901885 0.0321466 0)
(-0.00271537 0.0513618 0)
(0.0106482 0.0502402 0)
(0.019209 0.039988 0)
(0.0180004 0.0159052 0)
(0.0133124 -0.0148046 0)
(-0.00742745 -0.0565743 0)
(-0.00981734 -0.0789742 0)
(-0.0100844 -0.0893553 0)
(0.014056 -0.077455 0)
(0.0108952 -0.0577842 0)
(0.0116087 -0.0356801 0)
(0.00913519 -0.0110593 0)
(-0.00692386 -0.00318578 0)
(-0.00757918 -0.00191822 0)
(-0.00834875 -0.0232333 0)
(-0.0140493 -0.0593792 0)
(-0.0318668 -0.086759 0)
(-0.0375642 -0.0825907 0)
(-0.0344788 -0.0839366 0)
(-0.0311051 -0.0776369 0)
(-0.037774 -0.0754281 0)
(-0.0417271 -0.0710323 0)
(-0.0413919 -0.0666814 0)
(-0.0354419 -0.0643837 0)
(-0.0268499 -0.0976229 0)
(-0.0361667 -0.138936 0)
(-0.045229 -0.102475 0)
(-0.0363791 -0.0670897 0)
(-0.030045 -0.0111768 0)
(-0.018107 0.0313439 0)
(-0.00666959 0.0515813 0)
(0.0110316 0.0603079 0)
(0.0199801 0.0552165 0)
(0.016669 0.0252576 0)
(0.00254542 -0.0201672 0)
(-0.00982942 -0.0538209 0)
(-0.00927952 -0.0762321 0)
(-0.00893908 -0.090526 0)
(0.00736235 -0.0937657 0)
(0.00864568 -0.0621835 0)
(0.00588235 -0.0322379 0)
(0.00315663 -0.00078985 0)
(-0.00480986 0.00206763 0)
(-0.00237141 -0.0178964 0)
(-0.0156693 -0.0489513 0)
(-0.0131739 -0.0958815 0)
(-0.0193446 -0.123957 0)
(-0.032825 -0.116067 0)
(-0.0355725 -0.0939142 0)
(-0.0300089 -0.0760661 0)
(-0.0360983 -0.0720861 0)
(-0.0402772 -0.0677624 0)
(-0.0409597 -0.0645244 0)
(-0.0370278 -0.0657497 0)
(-0.0285691 -0.104126 0)
(-0.0434057 -0.146844 0)
(-0.0513877 -0.0983298 0)
(-0.0428624 -0.0662824 0)
(-0.0370984 -0.0111696 0)
(-0.0224253 0.0291605 0)
(-0.0114043 0.0505878 0)
(0.00784084 0.0616145 0)
(0.0178081 0.0569189 0)
(0.00895228 0.0222671 0)
(-0.0108442 -0.0259872 0)
(-0.0114908 -0.0512726 0)
(-0.00983873 -0.0791479 0)
(-0.00887738 -0.0958219 0)
(-0.000191501 -0.102646 0)
(0.00206174 -0.0657002 0)
(-0.00616418 -0.0239398 0)
(-0.0119783 -0.006734 0)
(-0.0098533 -0.0252859 0)
(-0.00606513 -0.0606992 0)
(-0.00582259 -0.107051 0)
(-0.00305966 -0.148355 0)
(-0.00170983 -0.168875 0)
(-0.014346 -0.146851 0)
(-0.026758 -0.0965509 0)
(-0.0243946 -0.0725753 0)
(-0.0300274 -0.0684205 0)
(-0.0354376 -0.0649573 0)
(-0.036833 -0.063186 0)
(-0.0356235 -0.0663695 0)
(-0.025732 -0.112982 0)
(-0.0474907 -0.153978 0)
(-0.0595337 -0.100455 0)
(-0.0534386 -0.0683573 0)
(-0.0425077 -0.0185532 0)
(-0.0275156 0.0282991 0)
(-0.0154451 0.0498841 0)
(0.00470852 0.059396 0)
(0.0201847 0.057947 0)
(0.0149915 0.0303431 0)
(-0.00653639 -0.0177217 0)
(-0.00901288 -0.0491366 0)
(-0.00779274 -0.08176 0)
(-0.00631332 -0.103193 0)