/*--------------------------------*- C++ -*----------------------------------*\
| =========                 |                                                 |
| \\      /  F ield         | OpenFOAM: The Open Source CFD Toolbox           |
|  \\    /   O peration     | Version:  2.4.0                                 |
|   \\  /    A nd           | Web:      www.OpenFOAM.org                      |
|    \\/     M anipulation  |                                                 |
\*---------------------------------------------------------------------------*/
FoamFile
{
    version     2.0;
    format      ascii;
    class       surfaceScalarField;
    location    "1.4";
    object      phiAlpha;
}
// * * * * * * * * * * * * * * * * * * * * * * * * * * * * * * * * * * * * * //

dimensions      [0 3 -1 0 0 0 0];

internalField   nonuniform List<scalar> 
5952
(
3.82225e-08
-3.82225e-08
8.18224e-08
-4.35998e-08
1.72765e-07
-9.09431e-08
3.75659e-07
-2.01851e-07
5.02831e-07
-1.34204e-07
2.00367e-07
1.20023e-07
1.92765e-07
-3.14273e-09
4.02285e-08
1.6306e-07
-2.1121e-07
2.58188e-07
-7.25435e-08
2.28734e-08
-5.41754e-08
1.34089e-08
5.43446e-09
-9.87932e-08
5.36853e-08
-9.19079e-08
4.52133e-07
-4.62838e-07
5.75866e-07
-1.2808e-07
1.5419e-07
2.1209e-07
-2.30063e-07
2.44468e-07
-3.69488e-07
2.8343e-07
-7.08558e-07
5.91147e-08
-1.11085e-06
-2.31591e-08
-4.34276e-07
2.71645e-07
-2.45122e-07
2.76359e-08
-3.81237e-07
3.63582e-08
5.72494e-08
-2.42858e-07
1.61915e-07
-3.47732e-07
3.22176e-07
-6.26866e-07
2.48877e-07
-6.16014e-08
-2.16046e-07
6.71597e-07
-3.04447e-07
5.74793e-07
-2.10176e-08
7.84272e-16
-7.58978e-08
-2.38025e-09
-4.68392e-07
-8.39877e-09
-9.5375e-09
1.34225e-07
-5.1261e-09
4.90881e-12
5.91618e-11
6.43634e-10
5.73086e-08
-1.32666e-15
1.35682e-07
-7.10373e-07
6.17427e-08
-5.58349e-07
-2.53423e-07
2.5019e-07
-5.76692e-07
9.8738e-07
-3.8604e-11
4.18527e-07
-3.86042e-11
1.02361e-15
-5.91682e-09
3.9044e-11
-6.1441e-08
1.0651e-15
-9.9759e-09
3.62864e-08
3.33161e-10
2.42469e-08
-2.79558e-05
2.79313e-05
6.52422e-06
-0.000137034
-3.01307e-08
-6.3142e-07
-3.00802e-07
-2.90447e-07
-8.63833e-07
8.07328e-07
-4.28094e-07
3.95023e-07
-7.8017e-16
-9.56627e-09
-8.82145e-16
1.10955e-15
-9.84855e-16
3.90441e-11
-1.14744e-15
1.04818e-15
-2.01147e-07
2.37433e-07
-0.000102889
6.36435e-05
-0.000597758
0.00012556
-3.90215e-06
-0.000583676
-4.29049e-07
-3.03461e-08
-7.75484e-07
3.05566e-08
-2.51416e-07
-9.79583e-09
-4.65498e-08
-1.01797e-09
-1.09625e-07
6.24575e-08
-8.29944e-08
1.37605e-07
1.40424e-08
6.28995e-08
1.40424e-08
1.64271e-15
-0.000243903
0.000129593
-0.000755784
0.000325299
-0.000755604
0.000129329
-5.70689e-05
-0.000717455
-3.51852e-08
-2.67288e-09
-4.76291e-08
-1.22904e-08
-8.73142e-09
3.39966e-08
-9.74939e-09
5.09662e-16
-8.58154e-08
4.92399e-08
-4.04108e-08
1.70171e-07
2.11415e-08
7.16606e-08
-2.71821e-05
2.72032e-05
-0.000528428
0.000542489
-0.000524933
0.000325852
-0.000519482
0.000109817
-5.30132e-05
-0.000516974
-3.338e-09
-6.75309e-08
-3.59728e-08
-4.96755e-09
-3.8503e-09
1.37963e-07
-3.8503e-09
4.84074e-16
-1.75264e-08
-1.01303e-09
2.37728e-09
4.87083e-08
-3.72092e-08
1.69126e-08
-0.000317888
0.00036169
-0.000456968
0.000669415
-0.00042497
0.00028285
-0.00010565
2.4664e-05
-1.46009e-05
-0.00020325
-2.32387e-09
-6.52071e-08
-4.04861e-08
6.9737e-09
-5.91659e-17
1.59546e-07
-1.01803e-16
5.00387e-16
-1.60326e-18
-1.01304e-09
4.87766e-08
-6.82358e-11
-2.7164e-05
2.68853e-06
-0.000329014
0.000496483
-0.000340425
0.000631106
-3.12663e-05
9.72325e-05
-6.00125e-06
3.71944e-07
-2.80324e-06
-2.41107e-05
-1.86392e-08
-2.30898e-09
-1.16655e-08
2.29224e-16
-4.73735e-12
-1.46576e-09
-4.73734e-12
4.76447e-16
1.3099e-11
4.73762e-09
3.07285e-08
3.71732e-09
-8.71383e-06
6.27777e-07
-0.000146421
0.000272329
-0.00012021
0.000397831
-2.87486e-06
-8.36822e-07
-1.89733e-06
3.50328e-07
-4.507e-06
-1.2647e-07
-1.02268e-16
2.02912e-08
-8.36708e-17
4.15131e-16
7.82089e-17
-1.46576e-09
6.4507e-17
5.02596e-16
1.61885e-09
6.37401e-09
2.55429e-09
3.37453e-08
6.30331e-07
1.37763e-15
4.40615e-06
-1.61133e-08
1.43173e-06
1.59578e-15
-6.93674e-07
4.94001e-16
-2.11341e-06
8.8769e-06
-8.6072e-05
4.8934e-06
-8.085e-08
1.01141e-07
2.79603e-09
4.326e-06
-2.12969e-09
1.97403e-08
9.80891e-10
7.48352e-09
2.50559e-09
6.81058e-09
4.57468e-09
2.88158e-08
1.68541e-16
4.57467e-09
1.95506e-16
-1.61133e-08
2.24073e-16
8.23648e-16
2.03618e-16
4.64536e-16
3.698e-05
-5.46258e-07
6.45271e-05
-0.000105675
-8.36708e-08
6.20712e-09
-2.50698e-10
-3.74286e-14
-2.49029e-10
-1.66931e-12
-3.28296e-11
-4.23118e-10
-5.05802e-13
-1.79052e-10
-5.05726e-13
-1.57938e-16
2.23466e-13
-7.40686e-12
1.21153e-09
-1.21131e-09
-1.81266e-08
-5.93188e-09
-3.29125e-08
-1.34955e-08
1.15369e-08
-4.44494e-08
1.15369e-08
-5.34179e-11
1.3373e-08
-5.34555e-11
-9.0457e-17
-8.93552e-10
2.26792e-12
-4.45524e-09
4.31869e-10
-4.73841e-11
-1.46135e-09
-4.73841e-11
-2.62932e-16
-3.37318e-10
-3.23519e-16
-1.71159e-09
9.15505e-10
-1.41866e-09
-1.60278e-09
1.01256e-09
-1.89133e-08
-1.02277e-08
-8.17073e-08
-2.40626e-08
-1.31122e-15
1.3373e-08
-1.201e-15
-7.77183e-16
-1.11567e-15
2.26752e-12
-6.50227e-09
6.93414e-09
-6.91568e-16
1.12222e-09
-6.12838e-16
-3.68799e-16
-5.63754e-16
-3.95884e-16
-6.18318e-16
9.15505e-10
-1.60278e-09
-4.87112e-16
-6.7145e-09
-8.32381e-09
-6.84038e-08
-9.46203e-08
-9.24664e-08
-0.00023423
-4.21679e-05
-0.000167191
-0.00019002
-5.67107e-05
-0.000157865
-2.49808e-06
-7.56125e-05
-7.57611e-16
-2.49696e-06
-6.40422e-16
-5.24252e-16
-1.78516e-07
1.78516e-07
-1.42104e-09
-7.96995e-07
-1.42104e-09
-4.96926e-16
-1.09866e-09
-7.10039e-13
-2.62656e-08
-1.56244e-08
-1.18732e-07
-0.000544484
-9.52658e-05
-0.000452958
-0.000279738
-0.000405038
-0.000312857
-0.000222152
-0.000358641
-4.18251e-05
-0.000317972
-6.12103e-05
-9.02947e-05
-1.55369e-05
-0.000175753
-1.84849e-16
-1.39442e-05
-9.00755e-17
-5.92e-16
-8.18348e-17
-7.10025e-13
-1.56244e-08
-5.06974e-16
-1.32966e-07
-0.000630004
-0.000181104
-0.000509454
-0.000415306
-0.00036254
-0.000461002
-0.000247023
-0.00048775
-8.39027e-05
-0.000480216
-2.55875e-05
-0.000261655
-4.20025e-06
-0.000250366
-1.12665e-14
-2.03825e-05
-1.11856e-14
-6.71497e-16
1.09004e-13
3.33813e-14
1.08993e-13
-5.02231e-16
-1.7166e-10
-0.000464811
-0.000245287
-0.000382474
-0.000491839
-0.000247067
-0.000615101
-0.00013977
-0.000608686
-5.68125e-05
-0.000565291
6.81978e-06
-0.000181439
1.80947e-06
-1.19758e-05
-3.1796e-07
-4.11785e-06
-6.90984e-14
-3.1796e-07
2.78911e-14
-8.42397e-10
4.41041e-17
2.73344e-14
-1.7166e-10
-0.00025193
-0.000152488
-0.000175651
-0.000241384
-8.93483e-05
-0.000268582
9.86773e-06
-0.000552888
5.84431e-05
-0.000459754
1.67598e-05
-8.67204e-05
1.11479e-07
-1.28708e-06
4.39289e-07
-2.2412e-07
-2.29898e-08
-5.4294e-08
-1.19924e-09
-6.35692e-08
1.07608e-09
-6.9827e-08
-1.56077e-09
-1.08784e-05
-8.84899e-06
-1.58833e-06
-1.0969e-05
6.88084e-06
-1.14062e-05
4.03432e-05
-1.23106e-05
3.769e-05
-2.83665e-16
-1.18308e-06
-5.77113e-05
2.32448e-07
-1.11246e-05
-4.14764e-10
-3.11223e-10
2.54758e-08
-1.53958e-09
7.58464e-08
-5.04547e-08
4.5427e-08
-1.85256e-08
-1.5692e-09
-1.23251e-17
-8.97546e-06
6.11684e-17
-1.0969e-05
9.63662e-17
-1.14062e-05
1.22651e-16
-1.23106e-05
1.26713e-16
-3.91625e-16
1.52657e-05
-2.68561e-16
-4.29538e-07
-3.92435e-06
-2.21171e-10
-5.09506e-07
8.31901e-09
-2.1223e-08
6.07477e-08
-1.79822e-09
2.98398e-08
-9.76528e-09
3.78663e-08
5.84515e-06
-7.37161e-05
1.72426e-05
-9.16874e-05
1.53767e-05
-9.1615e-05
6.20918e-17
-3.45995e-05
2.25753e-16
-4.54255e-16
2.49251e-16
-3.89525e-16
3.22928e-07
-3.15065e-09
5.10763e-07
-2.50551e-10
1.44607e-08
-2.23245e-09
1.26625e-08
-7.90213e-18
1.20956e-07
7.45721e-09
1.58823e-07
5.57321e-05
-0.000213454
2.81786e-05
-0.000210006
3.06639e-05
-0.000167754
-2.57358e-07
-4.22668e-05
3.64037e-16
-2.57358e-07
3.86287e-16
-5.7513e-16
6.85191e-12
-3.1575e-09
5.88529e-10
-7.44293e-09
3.29715e-09
-1.22565e-10
3.29733e-09
-1.81876e-13
1.19204e-07
2.38431e-09
3.35801e-07
9.38058e-12
-3.92826e-13
4.52093e-12
-4.09756e-13
4.69406e-12
-1.73365e-13
1.82845e-10
4.01132e-12
2.25495e-10
6.50125e-12
1.9285e-10
3.26444e-11
1.24883e-10
6.79662e-11
3.87188e-11
8.61638e-11
-1.22051e-14
2.19615e-11
-1.18839e-14
3.15336e-15
-7.49399e-15
1.71136e-15
1.10938e-15
-7.50541e-15
2.45946e-13
-6.38786e-13
2.90404e-12
-6.93541e-12
3.00231e-11
-2.72926e-11
4.77892e-11
5.55252e-11
-4.09087e-11
1.08404e-10
-1.17099e-10
1.10905e-10
-8.3973e-11
6.67108e-12
-2.01946e-11
3.52728e-16
-2.65652e-14
6.87756e-15
-2.55468e-14
3.25824e-15
-2.28991e-14
7.39654e-15
3.87613e-15
-1.36847e-14
3.46105e-12
-4.09987e-12
4.43644e-11
-7.24456e-11
-9.94275e-12
1.73988e-11
-8.50999e-11
1.20709e-10
-1.11445e-10
1.20897e-10
-6.7058e-12
7.539e-12
-5.33376e-14
2.604e-14
-4.75873e-14
1.99879e-15
-4.66657e-14
1.73687e-14
-5.93897e-14
2.71487e-14
-7.27076e-14
3.12461e-14
1.26215e-14
-7.61971e-14
-7.32291e-12
-5.26972e-13
-8.01668e-11
-2.9185e-11
-1.49956e-10
7.78403e-11
-1.30757e-10
2.78855e-11
-7.61077e-12
1.93203e-13
-8.28196e-14
2.43461e-14
-8.43988e-14
4.05819e-14
-1.39338e-13
5.80129e-14
-2.55592e-13
1.18855e-13
-3.69822e-13
1.09958e-13
-4.29805e-13
6.43741e-14
-4.93043e-15
-3.66345e-13
-3.29854e-13
-1.98057e-13
-4.69433e-11
-1.2014e-15
-2.36522e-11
5.66034e-13
-2.05337e-13
-5.20537e-14
-5.04875e-14
1.05974e-14
-7.79568e-14
6.54837e-14
-1.42323e-13
1.28711e-13
-3.0385e-13
2.08749e-13
-5.56849e-13
2.83859e-13
-7.00443e-13
1.95492e-13
-6.73296e-13
1.42998e-13
-2.09146e-14
-5.18877e-13
-5.81735e-15
-7.97407e-14
-1.29561e-14
6.0208e-15
-2.9907e-14
5.74003e-15
-3.87232e-14
3.89366e-14
-6.69957e-14
4.66721e-14
-1.69934e-13
1.33432e-13
-4.18783e-13
2.76994e-13
-6.77802e-13
2.78729e-13
-8.39757e-13
2.98401e-13
-8.51621e-13
2.45684e-13
-5.80296e-13
9.72112e-14
8.2072e-15
-2.01721e-13
-1.15303e-14
2.12827e-11
-1.82669e-14
1.26653e-14
-3.62491e-14
2.38659e-14
-5.58654e-14
1.03313e-13
-1.46325e-13
1.98716e-13
-3.62135e-13
4.54553e-13
-3.14482e-13
3.89281e-13
-2.21911e-13
2.30786e-13
-1.87728e-13
1.68188e-13
-2.28622e-13
1.94348e-13
-1.92721e-13
5.17612e-14
1.61674e-10
-1.61873e-10
-1.87881e-14
4.01266e-11
-2.25908e-14
1.65639e-14
-4.40407e-14
6.31136e-14
-2.41498e-13
4.21406e-13
-6.98155e-13
1.33151e-12
-5.90666e-13
1.5596e-12
-1.39411e-13
3.75675e-13
-1.44251e-13
2.21289e-13
-6.47922e-11
6.48305e-11
6.85458e-12
-7.69503e-12
-8.09735e-10
7.63361e-10
-1.72521e-08
-9.05374e-09
-2.04852e-14
4.03716e-11
-2.47144e-14
2.06887e-14
-1.31293e-13
1.8873e-13
-8.34497e-13
1.31316e-12
-1.05567e-12
2.20538e-12
3.53088e-13
1.97318e-12
-2.3176e-13
4.2911e-13
-7.64108e-09
6.04855e-09
-2.10547e-08
9.40456e-09
-1.06888e-08
-5.58364e-09
-2.21284e-08
-4.14828e-09
-2.69914e-08
-1.49466e-08
-2.02475e-14
-1.98466e-12
-1.99008e-14
2.04603e-14
-8.81223e-14
2.37033e-13
-5.36485e-13
1.44501e-12
-6.45416e-13
2.70875e-12
2.70598e-13
1.85213e-12
-2.70347e-09
2.70473e-09
-5.72813e-08
6.49918e-08
-5.56598e-08
1.72499e-08
-4.58819e-08
-2.2547e-09
-1.41566e-08
-5.44267e-09
-1.02248e-08
-3.56855e-09
9.39278e-13
1.61302e-12
1.86515e-14
1.32043e-12
-2.13736e-14
2.96622e-13
-3.38066e-13
1.20125e-12
3.81507e-14
2.21382e-12
1.79807e-12
9.04337e-13
-2.64717e-08
3.80721e-08
-4.45524e-08
7.48783e-08
-5.08829e-10
7.90285e-10
-1.44118e-14
-2.76351e-09
-6.56386e-15
-5.44268e-09
-1.02248e-08
1.14865e-15
-7.00433e-14
2.4195e-12
9.23179e-14
1.96377e-12
1.30801e-13
1.15594e-12
1.962e-13
9.5799e-13
1.35671e-12
8.86812e-13
-5.44097e-10
7.98696e-11
-3.12041e-08
5.05248e-08
-8.41756e-09
8.16046e-08
-5.55437e-09
7.79522e-10
-1.77018e-09
-3.77666e-09
2.10954e-10
-5.29493e-09
8.58822e-10
-8.55271e-09
-8.68569e-15
4.78586e-16
-2.3386e-10
6.35739e-13
-6.47343e-10
-7.88679e-15
-6.46861e-10
-1.19165e-14
-4.82115e-10
-2.61088e-14
-7.80201e-15
-3.99013e-14
-2.78429e-15
-5.01787e-15
-1.83751e-15
-1.00952e-15
-3.1074e-17
-1.90209e-15
-4.00331e-16
-3.02853e-16
2.50128e-11
-2.55116e-11
2.50123e-11
-2.47071e-14
6.30106e-16
-1.96318e-15
-3.62718e-15
-1.79251e-15
-7.99083e-15
-1.64965e-15
-1.21272e-14
-1.4624e-15
-2.62302e-14
-1.89294e-14
-2.25361e-14
-2.3287e-14
-3.93056e-14
-2.42073e-14
-2.14276e-14
3.95717e-15
-3.90892e-14
9.30834e-15
-6.38053e-15
-2.50224e-11
-1.57376e-13
-9.07814e-14
-8.23795e-14
4.32414e-15
-8.03339e-14
-1.83089e-14
-7.81351e-14
-2.97851e-14
-9.05802e-14
-5.50596e-14
-9.49506e-14
-8.94423e-14
-1.44285e-13
-2.48541e-14
-1.46507e-13
-1.20707e-13
-1.66805e-13
-8.63477e-14
-7.29523e-14
-2.22464e-13
-2.89111e-15
-8.37047e-14
-6.21637e-16
-1.59659e-13
-9.14109e-14
-2.43038e-13
-3.05899e-14
-2.14395e-13
-4.20815e-14
-2.31907e-13
-5.00933e-14
-3.29854e-13
-1.19769e-14
-1.48861e-13
-2.77801e-13
-1.80626e-13
-2.33667e-14
-2.1044e-13
-1.66798e-13
-3.1925e-13
-1.80358e-13
-3.58214e-13
-5.2697e-13
-1.43169e-13
-7.75848e-13
-3.65345e-14
-4.54716e-13
-1.21379e-13
-1.91327e-13
1.18868e-14
-1.55781e-13
-1.20722e-14
-1.3368e-13
-7.16366e-14
-3.28419e-13
1.81486e-13
-8.55162e-14
-1.68484e-13
-1.11123e-13
-1.19115e-14
-1.55224e-13
-1.31017e-13
-2.21246e-13
-1.68204e-13
-4.77541e-13
-5.99384e-13
-5.38022e-13
-1.43792e-12
-1.24602e-13
-1.75579e-12
-6.38543e-13
-1.81594e-13
3.76881e-14
-1.51414e-13
-2.73255e-14
-1.54067e-11
1.51823e-11
-9.10634e-13
-7.16958e-11
-5.9728e-14
-7.47272e-14
-6.99859e-15
-2.72751e-14
-1.41276e-14
-6.04753e-14
-2.17642e-14
-6.77282e-14
-1.96556e-13
-1.28251e-13
-1.52156e-13
-1.44931e-12
-6.95047e-14
-2.09147e-12
-2.15524e-12
-1.74734e-09
-3.43184e-09
-4.29266e-09
-9.76343e-09
-8.04222e-10
-1.63671e-08
-3.38402e-14
-5.29076e-10
-2.21682e-14
-8.67725e-14
4.42717e-15
-2.42626e-14
1.08497e-14
-3.32509e-14
1.11664e-14
-3.72669e-14
3.00042e-14
-5.0475e-14
9.29297e-14
-2.01597e-13
-7.57592e-14
-2.15373e-12
-2.85203e-12
-1.47587e-08
-2.42813e-08
-1.77234e-08
-3.40403e-08
-5.31397e-10
-3.62264e-08
-2.29746e-16
-8.42778e-10
4.64618e-15
-9.19269e-14
2.03777e-14
-4.04204e-14
2.60754e-14
-3.91927e-14
3.20708e-14
-3.12567e-14
3.07984e-14
-4.17497e-14
1.08163e-13
-4.90742e-14
3.29367e-13
-7.97477e-13
-2.52299e-12
-1.30337e-08
-2.36367e-08
-4.03728e-09
-3.21107e-08
-1.22199e-10
-1.39204e-09
-5.90789e-12
-7.29016e-14
-1.81196e-14
-5.98212e-12
7.43522e-14
-5.68117e-13
2.49134e-13
-1.37956e-12
8.06779e-14
-4.40109e-13
4.72168e-14
-7.81446e-14
3.66896e-14
-3.04467e-14
2.17535e-13
-7.48885e-14
-1.71342e-12
1.53899e-09
-2.03307e-09
1.392e-09
-3.98821e-14
1.02305e-14
-4.69246e-14
1.55494e-14
-4.01777e-14
3.34303e-12
-7.70843e-14
2.07776e-12
-2.18372e-12
3.09604e-12
-4.15498e-12
8.61778e-13
-1.61348e-12
5.70783e-14
-2.19159e-13
4.88594e-14
-1.59155e-14
7.48131e-14
-1.25676e-14
-4.4753e-13
5.83115e-15
-2.03308e-09
1.0648e-14
-4.45721e-14
1.38483e-14
-5.05256e-14
2.18056e-14
-4.84983e-14
4.09907e-13
-5.02407e-14
4.8118e-12
-1.42737e-12
5.98454e-12
-1.7743e-12
2.59892e-12
-1.18652e-12
7.52684e-14
-2.42931e-13
5.96134e-14
-2.58908e-15
5.31257e-14
1.29901e-15
1.75644e-13
-2.23798e-14
-1.74651e-09
-3.69497e-14
-3.03547e-14
1.16706e-13
-8.57846e-13
5.37243e-14
-3.52484e-13
5.81868e-14
-2.49674e-14
1.98329e-12
-1.14944e-13
2.41151e-12
-3.65557e-14
1.95306e-12
-2.30599e-14
3.06515e-13
-2.07752e-14
6.86087e-14
1.32532e-14
5.84843e-14
1.78313e-14
6.32969e-13
5.09236e-10
-3.30761e-10
7.49773e-10
-2.40537e-10
9.01273e-10
-1.515e-10
7.41802e-11
-2.0437e-11
2.95107e-16
-1.94966e-14
2.5836e-16
9.78734e-18
6.70308e-16
1.18045e-14
2.18779e-16
4.51529e-16
-0.000147135
0.000180375
-0.000241458
0.000283455
-0.000321552
7.70376e-05
4.68729e-05
-0.000713866
5.96179e-11
-4.70824e-17
1.5846e-10
7.234e-11
7.64387e-11
-4.42717e-13
1.05853e-12
6.47896e-17
7.99475e-16
2.75839e-15
-4.96559e-06
4.96559e-06
-0.000176395
0.00016478
-0.000512323
0.000370569
-0.000773059
0.000431607
-0.000878281
0.000391145
-0.000406367
0.000165318
1.66599e-05
-3.21687e-05
2.417e-17
-7.12524e-17
4.44216e-17
7.234e-11
3.48601e-17
-4.42735e-13
-6.28429e-18
9.1018e-17
1.71007e-08
-1.71007e-08
-0.000229249
0.000167328
-0.000728288
0.000559812
-0.000901521
0.000543802
-0.000925902
0.000455988
-0.00093519
0.000401912
-1.66589e-05
0.000179888
1.0022e-09
-4.86109e-19
5.65624e-17
-1.27814e-16
2.98334e-11
-7.7504e-09
1.89181e-15
3.45794e-13
1.79911e-15
9.95142e-17
-9.03316e-05
1.25923e-05
-0.00067244
0.0004815
-0.000766175
0.000653547
-0.000758964
0.00053659
-0.000757478
0.000454502
-0.000765121
0.000409555
-0.000371243
0.000298642
3.00011e-05
1.59825e-17
-3.94023e-09
3.94023e-09
-8.11973e-08
-3.71474e-08
9.16557e-08
2.05413e-07
9.16557e-08
1.58729e-16
-0.000126862
4.63232e-05
-0.000609163
0.000473943
-0.000504356
0.000425143
-0.000485351
0.000148827
-0.000579919
0.000136877
-0.000618315
0.000232291
-0.000220773
0.000141599
8.18866e-06
5.438e-19
1.19471e-07
-7.13049e-06
-6.40197e-11
-3.24566e-10
-9.93432e-17
2.05349e-07
-7.20177e-05
7.20177e-05
-0.000309222
0.000532456
-0.000304219
0.000474595
-4.04199e-05
1.10637e-05
-2.79724e-05
7.20874e-06
-8.93549e-05
8.9921e-17
-9.79241e-05
-8.34978e-10
-2.25222e-05
-1.37439e-08
-1.34297e-07
-8.17603e-09
-2.08083e-07
-3.49889e-05
-5.68325e-06
5.35582e-06
-8.59073e-05
0.000171785
-0.000488677
0.000980449
-0.000650301
0.001029
-0.000245443
0.000704741
-7.20874e-06
5.58079e-05
-6.20106e-17
8.17414e-18
-1.02359e-16
2.79516e-17
-1.125e-16
-8.34978e-10
-5.48954e-11
-1.3689e-08
-2.32797e-08
-1.1204e-07
-1.03686e-05
-4.7783e-05
-1.1733e-05
0.000139755
-0.000333564
0.000564371
-0.000502687
0.00117326
-0.000505739
0.00103205
-0.000385514
0.000829183
8.53217e-16
0.000242141
-3.67398e-17
-6.58339e-16
-1.18346e-09
1.18346e-09
-8.24369e-09
3.06018e-09
-2.0576e-08
3.04905e-08
1.04546e-07
-6.71784e-08
-3.85579e-05
-4.53737e-05
-0.000137408
0.000479872
-0.000404848
0.00107118
-0.000426188
0.0011946
-0.000419815
0.00102568
-0.000396052
0.000910052
-4.1219e-08
0.000240797
-4.1219e-08
2.22952e-20
-4.12905e-08
4.05771e-09
-9.34834e-09
-7.97443e-09
3.89845e-08
3.06965e-09
2.1445e-07
-4.19711e-09
-7.54542e-05
-1.70928e-05
-0.000188957
0.000563243
-0.00024918
0.00113154
-0.000273856
0.00121928
-0.000319817
0.00107164
-0.000230788
0.000831574
-5.60338e-09
5.43928e-05
-5.60338e-09
3.08485e-20
4.9905e-11
-3.75727e-11
-7.79916e-09
-6.39184e-11
1.60975e-08
-4.55876e-11
2.10722e-07
2.19209e-08
-9.62141e-05
8.55052e-06
-0.000200837
0.000622103
-0.000226455
0.00115716
-0.000265135
0.00124508
-0.000299721
0.000950065
-5.43928e-05
0.000166752
-9.247e-19
7.29147e-17
-2.89165e-11
2.89165e-11
-1.84044e-11
-1.08176e-11
-1.6104e-12
-4.10454e-11
7.48094e-11
-5.7059e-11
9.79803e-08
1.16068e-07
-0.000219707
0.000115486
8.49716e-05
0.000317425
1.15774e-05
0.00123056
-4.31369e-05
0.00126112
-2.49518e-05
0.000211959
-2.47179e-09
1.64483e-06
-2.43116e-09
-4.06255e-11
-2.65325e-10
2.61083e-09
-1.56834e-10
-9.18275e-11
1.87488e-11
-9.43112e-10
3.78168e-09
-3.74336e-09
6.04541e-08
4.39701e-08
-0.000738775
2.49089e-05
-0.000759686
2.0911e-05
-0.000477596
-9.63985e-09
-0.000227316
1.17616e-06
-0.000478984
-3.25009e-06
-0.000542866
-1.56508e-06
-0.000511214
-2.87136e-05
-0.000417841
-5.5702e-05
-0.000250166
-0.00011567
-0.000134175
-7.95688e-05
8.43678e-07
-9.30135e-05
8.43678e-07
-1.08185e-05
7.07624e-16
-2.33179e-07
-2.43882e-08
-6.30954e-07
-2.26297e-07
-1.51906e-07
-8.26692e-07
-2.28654e-16
-3.402e-06
-2.44099e-16
-1.56508e-06
-2.75511e-05
-1.16248e-06
-6.63798e-05
-8.41716e-06
-0.000131479
-2.33453e-05
-0.000129351
-2.85557e-05
-7.26651e-05
-9.72597e-05
-6.30184e-05
-1.05035e-16
4.52305e-20
-2.43882e-08
4.54354e-18
-8.18128e-06
-1.27807e-07
-3.42958e-05
-6.97505e-06
-1.32965e-05
-5.54087e-05
-8.60725e-06
-2.56263e-05
-1.88961e-07
-2.22752e-05
-1.26342e-15
-8.60612e-06
-1.01633e-15
-2.33453e-05
-2.56116e-05
-2.94418e-06
-4.62931e-05
8.56335e-06
-1.81858e-05
-1.0225e-17
-3.03536e-18
-1.03806e-16
7.49379e-19
-1.27807e-07
-1.08148e-17
-0.000146882
-5.79266e-06
-0.000279249
-0.000151697
-0.000321927
-0.000121128
-0.000194208
-0.000193884
-0.00015988
-0.000212137
-0.000134925
-0.000277979
-4.29351e-05
-0.00032766
-1.5928e-06
-0.000202695
-1.97786e-05
-1.73602e-23
-1.37484e-19
-5.47884e-17
5.55378e-17
4.4117e-10
-4.4117e-10
-4.14625e-05
-5.684e-07
-0.000212828
-6.56711e-06
-0.000237721
-6.51959e-05
-0.000258295
-1.31527e-05
-0.000154207
-0.000272953
-0.00010251
-0.000479948
-0.000118921
-0.000502105
-2.55215e-05
-0.000623575
-0.000291712
-8.17642e-09
1.56056e-14
1.69523e-09
-4.46915e-09
-5.41325e-07
-1.21317e-09
2.66205e-09
-3.87857e-08
-6.56444e-06
-8.66463e-16
2.2638e-07
-2.01683e-06
-1.29263e-05
-8.63378e-16
-8.96019e-06
-1.86578e-05
2.0832e-05
-4.36537e-16
9.83823e-05
-0.000535572
4.78939e-05
-0.000578774
-0.000802544
-9.06061e-08
2.72432e-08
-2.34711e-08
-4.5596e-10
-2.1573e-10
-4.87699e-10
1.96139e-13
-3.50511e-08
-1.65647e-16
-1.51081e-16
-9.86439e-17
-2.01683e-06
-5.35912e-17
-1.12887e-15
4.1602e-17
-1.86578e-05
7.88769e-17
-5.37566e-16
0.000151809
-0.00015537
0.000105353
-0.000525586
-0.000697191
-5.02819e-10
1.04259e-08
-1.84651e-10
-5.99982e-10
1.235e-11
-4.61599e-10
2.97287e-08
5.9141e-08
3.02895e-07
-2.73167e-07
9.33236e-06
-7.56791e-05
5.57919e-05
-0.000449673
1.1413e-05
-0.000312864
9.32829e-06
2.08475e-06
0.000100596
-5.98945e-05
0.000135359
-0.000379695
-0.000561832
-5.13e-10
6.66766e-09
-1.86028e-10
-9.19969e-10
1.99766e-11
-1.55008e-10
5.91555e-08
-1.91763e-16
8.06443e-05
-6.79102e-05
0.00044681
-0.000585086
0.000508232
-0.000799008
0.000349949
-0.000674764
6.9563e-05
-0.000276245
5.51035e-05
-9.4799e-05
0.000249787
-0.000242207
-0.000312045
1.68506e-10
4.40366e-08
1.55008e-10
-2.1191e-08
3.05919e-16
-8.09347e-16
5.80375e-16
-4.99775e-16
0.00050534
-0.000401417
0.00076447
-0.000817335
0.000854097
-0.000886979
0.000811063
-0.000633428
0.000447077
-0.000402963
0.000230639
-0.000152389
0.000310998
-5.87561e-05
-8.68456e-06
6.5135e-08
9.71847e-08
2.44123e-16
-7.93877e-09
5.99913e-16
-8.98476e-16
5.14982e-05
-5.14982e-05
0.00102451
-0.000910615
0.00105652
-0.000847607
0.00107554
-0.0009078
0.000909407
-0.000465595
0.000846282
-0.000341633
0.000511403
-0.000102097
0.00045528
9.39656e-05
0.000436049
2.70513e-08
5.40022e-09
2.45425e-09
4.64403e-10
1.11694e-05
-1.11669e-05
0.000484557
-0.000152325
0.0010735
-0.00100393
0.00113555
-0.000911553
0.000842601
-0.000749936
0.000675865
-0.000111859
0.000758886
-1.59684e-05
0.000695314
3.94024e-05
0.000529691
0.000226413
0.000965739
0.00012465
-9.86093e-05
0.000242812
-0.000106653
0.000293703
-3.88848e-05
0.000287234
3.12373e-05
0.00027362
1.36136e-05
0.000180591
2.03421e-05
0.000109724
7.08666e-05
0.000124818
5.02412e-05
-2.2005e-05
0.000134104
-0.000404888
0.000373623
-0.000284141
0.000118375
7.11097e-05
-0.000355251
8.32946e-05
-0.000163503
4.91212e-05
-4.86927e-05
2.59135e-05
-1.07471e-05
4.37711e-05
9.56598e-06
2.59223e-05
2.6847e-05
-6.669e-05
0.000100909
-0.000417844
0.000424364
-0.000715013
0.000345809
-0.000844553
0.000259381
-0.000792772
0.000325595
-0.000728603
0.000123257
0.000152816
-0.000748237
2.32413e-05
-0.00030699
8.26822e-06
-3.32291e-05
-5.94348e-07
-2.12679e-06
-2.48602e-05
3.43223e-05
-0.000220095
0.000226454
-0.000540171
0.000447206
-0.000584668
0.000468861
-0.000625434
0.000386575
-0.000662139
0.000296087
-0.00059287
0.000256288
-0.000569227
9.92402e-05
0.000137717
-0.000554128
-0.000131983
-0.00021398
-5.43624e-05
-8.43514e-05
-4.81341e-05
4.31651e-05
-0.000370516
0.000367053
-0.000744351
0.000572653
-0.000832044
0.000529421
-0.000851228
0.00048196
-0.00084588
0.000373878
-0.000834396
0.000284603
-0.000750669
0.000172561
-0.000682531
3.11029e-05
5.30932e-05
-0.000597907
-0.000112079
-0.000129242
-0.000149135
-7.27066e-05
-0.000384379
0.000368393
-0.000651818
0.000670791
-0.000685716
0.000611035
-0.000688448
0.000526418
-0.000697105
0.000492269
-0.000701871
0.000358565
-0.000686119
0.000268851
-0.000640029
0.00012647
-0.000597682
-1.12445e-05
-3.21424e-05
-0.000512446
-8.65427e-05
-4.26994e-05
-0.00041708
0.000214132
-0.000691183
0.000642496
-0.000803803
0.000783412
-0.00080729
0.000620104
-0.000818908
0.00055212
-0.000857299
0.000528876
-0.000875486
0.000367951
-0.000826897
0.000220262
-0.000732343
3.19163e-05
-0.000651833
-9.17537e-05
-0.000167115
-0.00051686
-0.000157051
9.16859e-05
-0.000467273
0.000496058
-0.000608037
0.000783259
-0.000617812
0.000793188
-0.000659536
0.000665283
-0.000763317
0.000666326
-0.000832202
0.000602859
-0.000877943
0.000413692
-0.00083096
0.000173279
-0.000705344
-9.37001e-05
-0.000578854
-0.000218244
-0.000254319
-0.00049165
-0.000135076
0.00017314
-0.000322708
0.000668326
-0.00042224
0.000882791
-0.000497965
0.000867622
-0.000621419
0.000788796
-0.000723841
0.000768749
-0.00077959
0.000658608
-0.000840011
0.000474113
-0.000799681
0.000132948
-0.000698648
-0.000194733
-0.000525045
-0.000391846
-0.000362004
-0.00041736
-5.54791e-05
0.000105416
-0.000243436
0.000840711
-0.000361789
0.00100114
-0.000463614
0.000969466
-0.000544121
0.000869039
-0.000719406
0.000944033
-0.000925972
0.000865174
-0.000860921
0.000448186
-0.000736046
1.29461e-05
-0.000731887
-0.000306088
-0.000469489
-0.000655339
-0.000572717
-0.000258776
-5.43628e-05
0.000102522
-5.42058e-05
0.000840631
-0.000156821
0.00110382
-0.000252429
0.00106505
-0.00042713
0.00104322
-0.000658636
0.00117554
-0.000494889
0.00074088
-7.40508e-05
6.67626e-05
-7.44542e-05
-5.7929e-07
-0.000441717
-0.00012794
-0.000346429
-0.000843891
-0.000766753
-0.000152393
3.03765e-05
7.21457e-05
-6.20116e-05
0.000712578
-0.000107562
0.00114945
-0.000234198
0.00119235
-0.000333235
0.00114171
-0.000485604
0.00133732
-6.70698e-05
0.000396484
-7.56497e-07
4.49367e-07
-1.16229e-06
-1.73504e-07
-0.000157045
-9.31522e-05
-0.000108883
-0.00101553
-0.000903977
2.83411e-05
-5.6834e-05
0.00012898
0.000116863
0.000221378
0.000125277
0.00108377
3.63177e-05
0.00128131
-9.17569e-05
0.00126978
-0.000218752
0.00148434
-4.70128e-07
0.000254017
-5.19973e-07
4.99208e-07
-4.03158e-07
-2.90315e-07
-6.56901e-06
-0.000225636
7.98742e-05
-0.00115296
0.00013345
-0.000957553
-0.000372782
1.75308e-05
-0.000411299
3.60609e-05
-0.000364321
-2.33826e-05
-0.000356725
1.43e-06
-0.00034332
-2.24839e-05
-0.000519241
-3.22293e-05
-0.000446692
-7.25489e-05
-0.000373887
-6.80949e-05
-0.000309012
-6.20136e-05
-0.000167495
-0.000110797
9.83538e-06
-0.000133439
9.83538e-06
-0.000755208
1.35011e-05
-0.00077571
5.05138e-05
-0.000680345
-5.03412e-05
-0.000569135
-2.33642e-05
-0.000365479
-6.34257e-05
-0.00023687
-2.32421e-05
-0.000201905
-4.18171e-05
-0.000206531
-3.52048e-05
-0.000150612
-5.6666e-05
-7.19305e-05
-3.38231e-05
-7.85081e-05
-6.27638e-05
-3.31097e-05
-0.000550064
9.43716e-06
-0.000536082
3.65318e-05
-0.000522174
-6.42487e-05
-0.000537582
-7.95648e-06
-0.000243871
-0.000108628
-8.3805e-05
-8.97117e-05
-5.35863e-05
-6.28526e-05
-4.39813e-05
-5.3993e-05
-3.36978e-05
-5.77662e-05
-2.37268e-05
-5.29774e-05
-2.2722e-05
-5.45853e-05
-6.05426e-05
-0.000540131
-4.83068e-05
-0.0005177
1.41332e-05
-0.000437919
-0.000144054
-0.000373439
-7.24459e-05
-0.000325938
-0.00015614
-0.000245625
-0.000148014
-0.000129992
-0.000269021
-0.000169141
-0.000191246
-0.000166267
-0.000296532
-0.000106963
-0.00037064
-5.01198e-05
-0.000455545
-0.000485622
-0.000440415
-0.000120306
-0.00044636
2.01374e-05
-0.00040495
-0.000185475
-0.000291723
-0.000185689
-0.000233745
-0.000214167
-0.000220291
-0.000161469
-0.00015454
-0.000334771
-0.000149009
-0.000196778
-0.000164905
-0.000280636
-0.000162804
-0.00037274
-0.000124068
-0.000494281
-0.00060969
-0.000384733
-0.000252433
-0.000324138
-4.04459e-05
-0.00035108
-0.000158535
-0.000286925
-0.000249878
-0.000156115
-0.000345005
-0.000123535
-0.000194064
-1.36041e-05
-0.0004447
4.06953e-05
-0.000251076
3.78933e-05
-0.000277834
5.22866e-05
-0.000387133
2.73893e-05
-0.000469384
-0.000582301
-0.000340846
-0.000403237
-0.000167035
-0.000214257
-0.000174465
-0.000151106
-0.000195218
-0.000229126
-0.00014069
-0.000399533
-0.000108788
-0.000225965
-2.39654e-05
-0.000529525
2.69674e-05
-0.000302007
5.54003e-06
-0.000256405
-9.13089e-06
-0.000372462
-2.11143e-05
-0.0004574
-0.000600749
-0.000333212
-0.000487386
-0.000150318
-0.000397151
-5.66108e-05
-0.000244813
2.74792e-08
-0.000285764
6.38936e-05
-0.0004634
6.10561e-05
-0.000223129
0.00012281
-0.000591285
0.000177921
-0.000357121
0.000197457
-0.000275941
0.00014473
-0.000319734
7.65059e-05
-0.000389177
-0.000484039
-0.000169805
-0.000576357
-6.09528e-05
-0.000506003
2.71138e-06
-0.000308477
6.80492e-05
-0.000351102
0.000132924
-0.000528274
0.000163629
-0.000253836
0.000203662
-0.000631318
0.000185714
-0.000339174
0.000159189
-0.000249418
6.74943e-05
-0.000228039
6.88822e-07
-0.000322371
-0.000483354
-3.63119e-05
-0.000692437
5.51143e-05
-0.000597429
0.000121986
-0.000375349
0.000210332
-0.000439447
0.000244657
-0.0005626
0.000310578
-0.000319757
0.000356975
-0.000633284
0.000311569
-0.000293768
0.00036542
-0.000303269
0.000308833
-0.000171451
0.000225408
-0.000238946
-0.00027779
8.80119e-05
-0.000752108
0.00014995
-0.000659367
0.000228347
-0.000453746
0.00032037
-0.00053147
0.000350189
-0.000592418
0.000399925
-0.000369493
0.000232152
-0.000188154
0.000356464
-8.10316e-05
0.000455506
-0.00012762
0.00038789
-7.48444e-05
0.000298846
-0.000149903
2.90578e-07
0.00016723
-0.000785888
0.000202673
-0.000694811
0.000308514
-0.000559587
0.000419059
-0.000642015
0.000349769
-0.000535642
0.00015449
-9.11068e-05
1.75818e-05
-6.26865e-07
4.49057e-05
-2.47857e-16
0.000148428
-2.7876e-16
0.00045716
4.99838e-06
0.000344914
2.27879e-06
0.000345205
0.000258035
0.000320668
-0.000477326
1.9947e-05
0.000164571
5.96137e-10
1.99643e-05
1.38447e-09
8.54839e-09
6.33571e-09
9.68409e-09
1.06947e-08
2.81273e-08
4.34327e-08
4.03387e-07
6.26368e-16
6.61458e-08
4.26964e-16
9.18579e-16
4.53853e-16
4.95788e-16
0.000100194
-8.88131e-06
-0.000101093
8.726e-05
0.000416026
8.32962e-05
-0.000156217
0.000322444
0.000264643
0.000101949
0.000154662
-2.01607e-08
3.93975e-05
-1.34209e-08
1.21042e-08
6.53587e-08
1.20878e-07
9.90707e-08
4.23463e-07
3.74726e-08
9.18207e-08
3.74726e-08
6.83209e-16
3.6592e-05
5.50614e-05
0.000100155
-2.02898e-05
2.25055e-06
2.09477e-05
8.34538e-05
-1.83412e-07
-1.47222e-06
0.000304216
4.34513e-05
0.000147716
0.000213858
1.09648e-06
6.57312e-05
-2.33388e-08
1.14257e-06
9.70412e-08
1.43482e-07
1.39483e-07
3.24732e-07
7.75244e-09
1.12342e-08
7.72371e-09
2.87278e-11
0.000103091
5.42035e-05
8.04329e-05
-9.83612e-06
-7.49026e-05
2.59625e-05
2.5466e-15
-1.83412e-07
1.20304e-15
4.59453e-05