/*--------------------------------*- C++ -*----------------------------------*\
| =========                 |                                                 |
| \\      /  F ield         | OpenFOAM: The Open Source CFD Toolbox           |
|  \\    /   O peration     | Version:  v1606+                                |
|   \\  /    A nd           | Web:      www.OpenFOAM.com                      |
|    \\/     M anipulation  |                                                 |
\*---------------------------------------------------------------------------*/
FoamFile
{
    version     2.0;
    format      ascii;
    class       volVectorField;
    location    "1.62";
    object      U.particles;
}
// * * * * * * * * * * * * * * * * * * * * * * * * * * * * * * * * * * * * * //

dimensions      [0 1 -1 0 0 0 0];

internalField   nonuniform List<vector> 
6000
(
(-0.00121383 -0.419129 0)
(0.00827572 -0.446431 0)
(0.0228824 -0.412388 0)
(0.0436454 -0.396242 0)
(0.0498866 -0.400524 0)
(0.0539254 -0.415064 0)
(0.051281 -0.442486 0)
(0.0341369 -0.468579 0)
(0.0182453 -0.483721 0)
(0.00694527 -0.489882 0)
(-0.00188816 -0.481108 0)
(-0.00284156 -0.472342 0)
(-0.00409402 -0.500052 0)
(-0.00871585 -0.502975 0)
(-0.00598335 -0.50066 0)
(-0.00592423 -0.497414 0)
(-0.0124397 -0.495492 0)
(-0.023066 -0.48402 0)
(-0.0353691 -0.461128 0)
(-0.0564014 -0.431357 0)
(-0.0914868 -0.410526 0)
(-0.118572 -0.38246 0)
(-0.121718 -0.346354 0)
(-0.108525 -0.325153 0)
(-0.0870717 -0.328761 0)
(-0.0546129 -0.322446 0)
(-0.0259803 -0.355393 0)
(-0.00201843 -0.398508 0)
(-0.00127041 -0.428576 0)
(-0.00463633 -0.369538 0)
(0.044701 -0.0183125 0)
(0.0433435 0.0311474 0)
(0.0436242 0.0219884 0)
(0.0658911 0.00926648 0)
(0.0875905 0.0146584 0)
(0.109986 0.031099 0)
(0.127336 0.0625791 0)
(0.115657 0.0819028 0)
(0.0864607 0.121763 0)
(0.0348905 0.161789 0)
(-0.000163865 0.16478 0)
(-0.00171781 0.143283 0)
(0.00672607 0.117486 0)
(0.0103302 0.108654 0)
(9.54896e-05 0.113615 0)
(-0.0171777 0.111318 0)
(-0.0346613 0.126094 0)
(-0.070278 0.148552 0)
(-0.118533 0.113842 0)
(-0.168677 0.0930046 0)
(-0.208897 0.0794161 0)
(-0.220575 0.044598 0)
(-0.187611 -0.00485881 0)
(-0.143718 -0.0151186 0)
(-0.10295 -0.0203601 0)
(-0.0595526 -0.0261848 0)
(-0.0215886 0.00596086 0)
(0.0156626 0.0496713 0)
(0.0136446 0.0307775 0)
(-0.020003 0.0171914 0)
(0.00889199 -0.105966 0)
(0.0239792 -0.0715006 0)
(0.0321523 -0.110393 0)
(0.061691 -0.12125 0)
(0.0867925 -0.123839 0)
(0.123489 -0.127872 0)
(0.146611 -0.105412 0)
(0.157119 -0.0453268 0)
(0.11741 0.0216542 0)
(0.0588609 0.065537 0)
(0.0273255 0.0480767 0)
(0.0146687 0.00883806 0)
(0.0197276 0.00490483 0)
(0.0151293 0.0244817 0)
(-0.00804633 0.0415159 0)
(-0.0400707 0.0513982 0)
(-0.0549519 0.0750118 0)
(-0.0683975 0.0929702 0)
(-0.131745 0.098261 0)
(-0.225805 0.0717188 0)
(-0.282969 0.017871 0)
(-0.269139 -0.0726179 0)
(-0.207488 -0.109111 0)
(-0.147481 -0.106883 0)
(-0.0907004 -0.101093 0)
(-0.0524028 -0.0969223 0)
(-0.0146096 -0.0775496 0)
(0.0257265 -0.050896 0)
(0.0257322 0.0431126 0)
(-0.0057438 0.0316315 0)
(-0.00799086 -0.00387844 0)
(0.00755059 0.00142923 0)
(0.00424088 -0.0385291 0)
(0.0289087 -0.0746265 0)
(0.0573182 -0.109921 0)
(0.106231 -0.144242 0)
(0.157145 -0.135472 0)
(0.201402 -0.0687168 0)
(0.195695 0.0117395 0)
(0.138536 0.0655857 0)
(0.0719419 0.079788 0)
(0.0312537 0.0601699 0)
(0.0179997 0.0515035 0)
(0.00951564 0.0603197 0)
(-0.0139856 0.0753367 0)
(-0.048926 0.0849151 0)
(-0.0655413 0.0977207 0)
(-0.073633 0.115782 0)
(-0.14294 0.13083 0)
(-0.247728 0.106136 0)
(-0.298935 0.0464898 0)
(-0.273771 -0.0591077 0)
(-0.223411 -0.107972 0)
(-0.149904 -0.0963315 0)
(-0.0866965 -0.0641251 0)
(-0.0523348 -0.0435532 0)
(-0.0188558 -0.000717498 0)
(-0.00478442 0.0650371 0)
(0.00613292 0.128047 0)
(-0.007574 0.100116 0)
(-0.0174946 0.0421022 0)
(-0.0199369 0.0422272 0)
(-0.0186763 -0.0208998 0)
(0.0108039 -0.0679789 0)
(0.0430789 -0.113197 0)
(0.0927385 -0.172578 0)
(0.154944 -0.178056 0)
(0.205996 -0.115149 0)
(0.240949 -0.022709 0)
(0.207609 0.031877 0)
(0.137474 0.0571715 0)
(0.0608479 0.0420822 0)
(0.0192624 0.0287525 0)
(0.00501518 0.0486571 0)
(-0.0149245 0.0749396 0)
(-0.0488911 0.0879411 0)
(-0.0738046 0.0952109 0)
(-0.0946243 0.114293 0)
(-0.151608 0.12345 0)
(-0.231129 0.0877897 0)
(-0.252533 0.00540298 0)
(-0.231927 -0.103777 0)
(-0.209386 -0.158176 0)
(-0.160415 -0.162518 0)
(-0.112453 -0.111082 0)
(-0.0833672 -0.0792672 0)
(-0.060037 -0.0324093 0)
(-0.0321253 0.0660699 0)
(-0.0168593 0.161 0)
(-0.00249518 0.125012 0)
(-0.0197794 0.0671285 0)
(-0.0195396 0.061995 0)
(-0.00360756 0.00813267 0)
(0.0167298 -0.0269607 0)
(0.035941 -0.0896383 0)
(0.0852884 -0.17458 0)
(0.132941 -0.187003 0)
(0.173593 -0.135531 0)
(0.212775 -0.0471404 0)
(0.224602 0.00545159 0)
(0.201042 0.0206027 0)
(0.155525 0.0236263 0)
(0.0714657 0.0263208 0)
(0.0216009 0.0252744 0)
(-0.0078689 0.0549466 0)
(-0.0405533 0.0790162 0)
(-0.071565 0.084635 0)
(-0.106594 0.0926048 0)
(-0.142698 0.100904 0)
(-0.168573 0.0868053 0)
(-0.155738 0.0233541 0)
(-0.14184 -0.0938688 0)
(-0.146718 -0.187576 0)
(-0.157745 -0.217525 0)
(-0.148257 -0.22208 0)
(-0.12342 -0.218524 0)
(-0.0964881 -0.180996 0)
(-0.0622182 -0.0812035 0)
(-0.035626 0.0592892 0)
(-0.000829115 0.0479258 0)
(-0.0078181 0.044424 0)
(0.0186193 0.00972337 0)
(0.0542576 -0.0620417 0)
(0.0686331 -0.0980883 0)
(0.0632905 -0.126974 0)
(0.0899426 -0.19569 0)
(0.0960418 -0.203895 0)
(0.116223 -0.152506 0)
(0.14698 -0.0613044 0)
(0.183704 -0.0208689 0)
(0.211857 -0.0084104 0)
(0.205437 -0.0104374 0)
(0.173547 -0.00451324 0)
(0.102424 0.00708316 0)
(0.0405227 0.0173375 0)
(-0.0113108 0.032702 0)
(-0.0593634 0.0426033 0)
(-0.100198 0.0521534 0)
(-0.124887 0.0718579 0)
(-0.114384 0.0799047 0)
(-0.0837011 0.0356817 0)
(-0.0692518 -0.0741622 0)
(-0.11374 -0.192412 0)
(-0.163972 -0.268866 0)
(-0.15339 -0.313492 0)
(-0.122353 -0.327677 0)
(-0.0932592 -0.316923 0)
(-0.0646688 -0.273426 0)
(-0.0335049 -0.185692 0)
(0.00901934 -0.149701 0)
(0.0123029 -0.11476 0)
(0.0499733 -0.171465 0)
(0.0660197 -0.221036 0)
(0.0936169 -0.271088 0)
(0.117623 -0.271486 0)
(0.118686 -0.260153 0)
(0.0783853 -0.228882 0)
(0.0629208 -0.142755 0)
(0.0841221 -0.0682748 0)
(0.131815 -0.0350391 0)
(0.179303 -0.0221724 0)
(0.209121 -0.0292098 0)
(0.204294 -0.0349094 0)
(0.172288 -0.028628 0)
(0.101132 -0.0321435 0)
(0.0377476 -0.0374235 0)
(-0.0167395 -0.0329115 0)
(-0.066777 0.00725227 0)
(-0.102941 0.0525766 0)
(-0.0852835 0.0665804 0)
(-0.0528487 0.0371889 0)
(-0.0499656 -0.0606502 0)
(-0.117345 -0.165573 0)
(-0.180724 -0.257886 0)
(-0.150212 -0.325333 0)
(-0.116939 -0.345754 0)
(-0.0904777 -0.347609 0)
(-0.0677567 -0.324483 0)
(-0.0393816 -0.282695 0)
(0.0198199 -0.245988 0)
(0.0128655 -0.243117 0)
(0.0452953 -0.254899 0)
(0.0533578 -0.290603 0)
(0.0933793 -0.327002 0)
(0.132029 -0.312536 0)
(0.127132 -0.283072 0)
(0.0615584 -0.221149 0)
(0.0135265 -0.135152 0)
(0.0470489 -0.0705316 0)
(0.0977288 -0.0394869 0)
(0.146126 -0.0248358 0)
(0.181855 -0.0253132 0)
(0.185157 -0.0343697 0)
(0.171547 -0.0399266 0)
(0.123993 -0.0495275 0)
(0.0760652 -0.0626451 0)
(0.0390536 -0.0590614 0)
(0.000500855 -0.0198759 0)
(-0.0463617 0.0410203 0)
(-0.052775 0.0648183 0)
(-0.0307645 0.0508533 0)
(-0.0355216 -0.0178356 0)
(-0.0856072 -0.0812705 0)
(-0.124096 -0.156835 0)
(-0.119267 -0.248138 0)
(-0.112189 -0.28813 0)
(-0.0947906 -0.301818 0)
(-0.078094 -0.286685 0)
(-0.0602139 -0.253017 0)
(0.020465 -0.223907 0)
(-0.00150376 -0.228092 0)
(0.0459255 -0.233727 0)
(0.0541352 -0.281184 0)
(0.0869657 -0.280951 0)
(0.0952967 -0.248107 0)
(0.0687822 -0.186633 0)
(0.00144718 -0.0986996 0)
(-0.033388 -0.0727075 0)
(-0.00955332 -0.0513486 0)
(0.0478331 -0.0317 0)
(0.0982377 -0.0185446 0)
(0.132978 -0.014221 0)
(0.144502 -0.0147563 0)
(0.137413 -0.0197792 0)
(0.115778 -0.0274825 0)
(0.093783 -0.0361543 0)
(0.0781394 -0.0316555 0)
(0.0608533 -0.010481 0)
(0.0328038 0.0365841 0)
(0.000420445 0.0747487 0)
(0.00241698 0.0762139 0)
(-0.0100477 0.0350646 0)
(-0.0592585 -0.0191445 0)
(-0.09692 -0.0886768 0)
(-0.101871 -0.182629 0)
(-0.0999435 -0.23846 0)
(-0.0914007 -0.260616 0)
(-0.0754413 -0.258454 0)
(-0.0729841 -0.205174 0)
(-0.0022591 -0.170888 0)
(-0.00790985 -0.182138 0)
(0.0279067 -0.208819 0)
(0.0387348 -0.227444 0)
(0.0287617 -0.20332 0)
(0.0194821 -0.137286 0)
(-0.0126203 -0.0828816 0)
(-0.0257925 -0.0515852 0)
(-0.0465048 -0.0292906 0)
(-0.0477138 -0.0186355 0)
(-0.0134732 -0.012357 0)
(0.0431778 -0.00511824 0)
(0.0793103 0.00413008 0)
(0.0976098 0.00945457 0)
(0.103018 0.010212 0)
(0.101277 0.00918382 0)
(0.101531 0.00641757 0)
(0.10114 0.00979964 0)
(0.101004 0.0231961 0)
(0.0947753 0.052845 0)
(0.0686823 0.089573 0)
(0.0540163 0.105566 0)
(0.0379924 0.0888118 0)
(-0.00288612 0.0537059 0)
(-0.0440209 -0.00908286 0)
(-0.0548608 -0.103575 0)
(-0.0638621 -0.174712 0)
(-0.0622298 -0.212257 0)
(-0.0431895 -0.227648 0)
(-0.0619831 -0.180331 0)
(-0.0387931 -0.11235 0)
(-0.0232741 -0.144934 0)
(-0.0172803 -0.166381 0)
(-0.0177723 -0.126028 0)
(-0.0328173 -0.0915266 0)
(-0.0389383 -0.0547752 0)
(-0.0422731 -0.0187634 0)
(-0.0565353 0.0118414 0)
(-0.0743056 0.0241156 0)
(-0.0767868 0.0250734 0)
(-0.0652788 0.0193674 0)
(-0.0337501 0.0161439 0)
(0.0222305 0.0286388 0)
(0.0468948 0.0403686 0)
(0.0684508 0.0480699 0)
(0.080563 0.0492454 0)
(0.0996879 0.0488303 0)
(0.116328 0.0520921 0)
(0.129745 0.065273 0)
(0.139677 0.0906754 0)
(0.135246 0.120586 0)
(0.122847 0.13994 0)
(0.102897 0.137791 0)
(0.0649911 0.120751 0)
(0.0142491 0.0692242 0)
(-0.00481409 -0.0340677 0)
(-0.0170515 -0.117661 0)
(-0.017923 -0.168805 0)
(-0.00630206 -0.186687 0)
(-0.0172602 -0.169951 0)
(-0.043201 -0.080391 0)
(-0.0105197 -0.0596652 0)
(-0.00723833 -0.0646966 0)
(-0.016401 -0.0466803 0)
(-0.0258628 -0.0217012 0)
(-0.032736 0.0122325 0)
(-0.0423362 0.0429223 0)
(-0.0572645 0.067429 0)
(-0.0782007 0.0817638 0)
(-0.103601 0.0778107 0)
(-0.109511 0.0625931 0)
(-0.0956027 0.0494434 0)
(-0.0601937 0.0532602 0)
(0.000633956 0.0887458 0)
(0.0296265 0.0946239 0)
(0.0559821 0.0894564 0)
(0.0922708 0.0883421 0)
(0.125616 0.0958992 0)
(0.151297 0.118894 0)
(0.170286 0.141236 0)
(0.184433 0.159578 0)
(0.185405 0.176202 0)
(0.171591 0.180197 0)
(0.114118 0.175419 0)
(0.0665741 0.116485 0)
(0.0495108 0.015302 0)
(0.0361311 -0.0774775 0)
(0.031367 -0.138183 0)
(0.0280236 -0.16689 0)
(0.00645159 -0.157919 0)
(-0.0214722 -0.0719035 0)
(-0.000144526 -0.0169024 0)
(-0.00224026 -0.0108216 0)
(-0.0149873 0.00834266 0)
(-0.0296834 0.028195 0)
(-0.042257 0.0488502 0)
(-0.0517029 0.0714953 0)
(-0.0615514 0.0945693 0)
(-0.0731185 0.114756 0)
(-0.0918019 0.130037 0)
(-0.134036 0.11519 0)
(-0.14692 0.0964745 0)
(-0.128534 0.0933918 0)
(-0.0615338 0.125915 0)
(-0.00940184 0.13646 0)
(0.0361666 0.121028 0)
(0.0849902 0.120729 0)
(0.128733 0.138041 0)
(0.166001 0.15537 0)
(0.203767 0.182213 0)
(0.231011 0.203401 0)
(0.241336 0.220807 0)
(0.231902 0.226751 0)
(0.160686 0.220667 0)
(0.120309 0.143859 0)
(0.11209 0.0435922 0)
(0.101738 -0.0521935 0)
(0.0892753 -0.122935 0)
(0.0748397 -0.162197 0)
(0.0434654 -0.172731 0)
(-0.0117928 -0.109307 0)
(-0.0025036 -0.00337229 0)
(-0.0127168 0.00472258 0)
(-0.0260951 0.0222808 0)
(-0.0399465 0.0420207 0)
(-0.0538369 0.0636274 0)
(-0.0667178 0.0865387 0)
(-0.0787627 0.110338 0)
(-0.0913758 0.133432 0)
(-0.104865 0.153806 0)
(-0.125464 0.16711 0)
(-0.172136 0.145635 0)
(-0.180788 0.137143 0)
(-0.124838 0.155408 0)
(-0.0448361 0.157132 0)
(0.0108709 0.142148 0)
(0.0639603 0.156434 0)
(0.119269 0.174344 0)
(0.168738 0.21286 0)
(0.200987 0.261846 0)
(0.236913 0.304898 0)
(0.276533 0.311099 0)
(0.274985 0.307745 0)
(0.214762 0.271628 0)
(0.17893 0.165058 0)
(0.173332 0.0611382 0)
(0.159175 -0.0407016 0)
(0.136095 -0.119986 0)
(0.117538 -0.16229 0)
(0.0579933 -0.217279 0)
(0.000797587 -0.203314 0)
(-0.00501213 0.00455409 0)
(-0.0199474 0.018014 0)
(-0.0358388 0.0361323 0)
(-0.0522829 0.0556392 0)
(-0.0698293 0.0772484 0)
(-0.0870949 0.100408 0)
(-0.102439 0.124433 0)
(-0.118962 0.147852 0)
(-0.137187 0.168512 0)
(-0.151899 0.182661 0)
(-0.172422 0.186712 0)
(-0.208423 0.169212 0)
(-0.176701 0.165603 0)
(-0.0831507 0.162029 0)
(-0.0285758 0.167537 0)
(0.0265059 0.196552 0)
(0.0752278 0.25531 0)
(0.114401 0.33492 0)
(0.165323 0.394614 0)
(0.216639 0.430424 0)
(0.273683 0.430335 0)
(0.290262 0.389978 0)
(0.244492 0.288296 0)
(0.22783 0.176606 0)
(0.218206 0.0680528 0)
(0.198949 -0.0423599 0)
(0.167505 -0.118545 0)
(0.101909 -0.193997 0)
(0.00563731 -0.255831 0)
(0.00276601 -0.247657 0)
(-0.00761354 0.00900209 0)
(-0.0261981 0.0268595 0)
(-0.0438948 0.0469908 0)
(-0.0614527 0.0658671 0)
(-0.0835034 0.0878745 0)
(-0.106797 0.111772 0)
(-0.127795 0.136992 0)
(-0.149463 0.162285 0)
(-0.173735 0.180729 0)
(-0.191558 0.18975 0)
(-0.203683 0.188319 0)
(-0.214994 0.180965 0)
(-0.206973 0.155841 0)
(-0.119661 0.152345 0)
(-0.0712837 0.19299 0)
(-0.0342638 0.248511 0)
(0.013844 0.325709 0)
(0.0788133 0.387007 0)
(0.136021 0.440468 0)
(0.190419 0.472607 0)
(0.24869 0.468332 0)
(0.269129 0.40353 0)
(0.261507 0.292894 0)
(0.258705 0.187205 0)
(0.232982 0.0744203 0)
(0.18887 -0.0696028 0)
(0.0990092 -0.197206 0)
(0.0107987 -0.239528 0)
(0.00358297 -0.227283 0)
(0.000960833 -0.227692 0)
(-0.00956652 0.0124532 0)
(-0.0321732 0.0328277 0)
(-0.0494944 0.0561912 0)
(-0.0626104 0.071402 0)
(-0.0883662 0.0971021 0)
(-0.125064 0.125866 0)
(-0.164855 0.151856 0)
(-0.196005 0.180986 0)
(-0.218713 0.195444 0)
(-0.227371 0.192542 0)
(-0.230734 0.182175 0)
(-0.232703 0.160946 0)
(-0.213557 0.142468 0)
(-0.145305 0.145662 0)
(-0.115675 0.168907 0)
(-0.0740029 0.205814 0)
(-0.0242199 0.228635 0)
(0.0297488 0.273813 0)
(0.0873243 0.346694 0)
(0.144725 0.389819 0)
(0.197035 0.38202 0)
(0.195462 0.320382 0)
(0.211934 0.232437 0)
(0.209108 0.0944552 0)
(0.136656 -0.104241 0)
(0.0407254 -0.224534 0)
(-0.00157177 -0.215174 0)
(-0.00967116 -0.199063 0)
(-0.00696199 -0.188825 0)
(0.00308056 -0.186107 0)
(-0.0120049 0.0214968 0)
(-0.0355026 0.0415126 0)
(-0.0541085 0.0706698 0)
(-0.0558801 0.0780049 0)
(-0.0853186 0.102363 0)
(-0.147068 0.139764 0)
(-0.252256 0.16752 0)
(-0.290741 0.192198 0)
(-0.283081 0.20019 0)
(-0.25357 0.185824 0)
(-0.239616 0.170166 0)
(-0.228625 0.143215 0)
(-0.204957 0.113401 0)
(-0.174471 0.0447168 0)
(-0.181242 -0.0560707 0)
(-0.167943 -0.0950353 0)
(-0.13941 -0.105012 0)
(-0.0939564 -0.0536052 0)
(-0.0355662 0.0324035 0)
(0.00994815 0.0804312 0)
(0.0375704 0.0813053 0)
(0.0472202 0.00947704 0)
(0.0544546 -0.1116 0)
(0.052606 -0.208166 0)
(0.04713 -0.221321 0)
(0.0286322 -0.190323 0)
(0.00483626 -0.166826 0)
(-0.00711364 -0.153758 0)
(-0.0065538 -0.144279 0)
(0.00637415 -0.138507 0)
(-0.0402366 0.00554243 0)
(-0.0184646 -0.10805 0)
(-0.0569354 0.0693815 0)
(-0.0450879 -0.0232446 0)
(-0.0384828 -0.226913 0)
(-0.065344 -0.0672933 0)
(-0.209681 0.00485167 0)
(-0.294507 0.0884047 0)
(-0.299988 0.163517 0)
(-0.261992 0.169945 0)
(-0.234366 0.157795 0)
(-0.209647 0.123042 0)
(-0.190673 0.0388417 0)
(-0.251957 -0.183694 0)
(-0.24458 -0.223531 0)
(-0.230145 -0.241234 0)
(-0.201929 -0.229811 0)
(-0.163511 -0.192423 0)
(-0.117819 -0.12915 0)
(-0.0836956 -0.0859557 0)
(-0.0550285 -0.0878242 0)
(0.00844165 -0.15895 0)
(0.049217 -0.194339 0)
(0.0616239 -0.199846 0)
(0.0482482 -0.170765 0)
(0.022681 -0.1373 0)
(0.00576911 -0.121813 0)
(-0.00777901 -0.108862 0)
(-0.00852962 -0.0983771 0)
(0.00235471 -0.0897839 0)
(-0.0214008 -0.184746 0)
(-0.00758329 -0.203455 0)
(-0.0104621 -0.218547 0)
(-0.0335532 -0.237626 0)
(-0.0597328 -0.2409 0)
(-0.0377065 -0.127553 0)
(-0.0571717 -0.0684478 0)
(-0.145144 -0.109546 0)
(-0.216657 -0.0273689 0)
(-0.251437 0.104505 0)
(-0.233174 0.127371 0)
(-0.19567 0.0607979 0)
(-0.257209 -0.135308 0)
(-0.253593 -0.154101 0)
(-0.244348 -0.181435 0)
(-0.230056 -0.194141 0)
(-0.205066 -0.188203 0)
(-0.17558 -0.169282 0)
(-0.140793 -0.12666 0)
(-0.09984 -0.0926327 0)
(-0.0381153 -0.0925443 0)
(0.0444591 -0.128567 0)
(0.0730593 -0.154097 0)
(0.0683468 -0.146472 0)
(0.0518522 -0.109661 0)
(0.0396757 -0.0902703 0)
(0.014678 -0.0766929 0)
(-0.00439977 -0.065652 0)
(-0.00956729 -0.0581013 0)
(-0.00259114 -0.0543542 0)
(-0.0242861 -0.134316 0)
(-0.0119163 -0.154688 0)
(-0.0157602 -0.163737 0)
(-0.0380003 -0.171433 0)
(-0.0638707 -0.18781 0)
(-0.0643548 -0.159372 0)
(0.0140488 0.0162169 0)
(-0.019357 -0.0513721 0)
(-0.0811521 -0.120901 0)
(-0.075209 -0.105726 0)
(-0.132089 -0.135835 0)
(-0.187189 -0.112114 0)
(-0.219076 -0.0971127 0)
(-0.221643 -0.0986671 0)
(-0.220663 -0.115843 0)
(-0.21242 -0.131224 0)
(-0.194845 -0.134776 0)
(-0.170053 -0.118767 0)
(-0.140254 -0.0798241 0)
(-0.0915161 -0.0404498 0)
(-0.000472117 -0.0594185 0)
(0.0722704 -0.0908491 0)
(0.0762261 -0.101573 0)
(0.0667588 -0.0744152 0)
(0.0648338 -0.0492486 0)
(0.0430267 -0.0365281 0)
(0.0157856 -0.0302973 0)
(-0.00277039 -0.0288246 0)
(-0.00733598 -0.0308594 0)
(-0.00185952 -0.0318351 0)
(-0.0251766 -0.0799124 0)
(-0.012608 -0.104832 0)
(-0.0152799 -0.110456 0)
(-0.026809 -0.107459 0)
(-0.0503575 -0.113505 0)
(-0.0792242 -0.108206 0)
(-0.0376022 0.0945768 0)
(0.0436562 0.133484 0)
(0.0324395 0.0520178 0)
(0.0503264 -0.0125038 0)
(0.00672399 -0.0960132 0)
(-0.0686846 -0.0859596 0)
(-0.139157 -0.0551621 0)
(-0.163573 -0.0426722 0)
(-0.175306 -0.047611 0)
(-0.178465 -0.0575075 0)
(-0.170043 -0.064831 0)
(-0.152376 -0.0601512 0)
(-0.128006 -0.0358248 0)
(-0.0808335 -0.00696431 0)
(0.035449 -0.0184021 0)
(0.0760803 -0.035557 0)
(0.0728573 -0.0291052 0)
(0.0713437 -0.00391073 0)
(0.0482 0.011829 0)
(0.0182944 0.0123853 0)
(-0.0018466 0.00326393 0)
(-0.00970175 -0.00789935 0)
(-0.00820718 -0.0172537 0)
(-0.00093685 -0.01888 0)
(-0.0150631 -0.0385615 0)
(-0.00841548 -0.062676 0)
(-0.010957 -0.0662157 0)
(-0.0167058 -0.0567722 0)
(-0.0294991 -0.0482229 0)
(-0.0573784 -0.0558889 0)
(-0.0902237 0.0361511 0)
(0.0237646 0.207504 0)
(0.0878294 0.208327 0)
(0.0999177 0.140003 0)
(0.090307 0.00672089 0)
(0.0344523 -0.0199443 0)
(-0.039576 -0.002596 0)
(-0.0851178 0.0146269 0)
(-0.110425 0.0209137 0)
(-0.126858 0.0185556 0)
(-0.129205 0.0147676 0)
(-0.120751 0.01298 0)
(-0.102201 0.0238626 0)
(-0.0474039 0.0360143 0)
(0.0639199 0.0377111 0)
(0.0766938 0.0322298 0)
(0.0710138 0.0471547 0)
(0.0337691 0.0613843 0)
(0.0028971 0.0530749 0)
(-0.0122802 0.0367769 0)
(-0.0180923 0.0188577 0)
(-0.0172967 0.00204452 0)
(-0.0113498 -0.0105929 0)
(-0.00185318 -0.0128368 0)
(-0.00469557 -0.0189825 0)
(-0.00465864 -0.037178 0)
(-0.00652221 -0.0390925 0)
(-0.00853913 -0.0274046 0)
(-0.0136326 -0.0112608 0)
(-0.023428 0.00338014 0)
(-0.0574716 0.0178326 0)
(-0.0514796 0.210342 0)
(0.0886063 0.288474 0)
(0.111394 0.23061 0)
(0.140004 0.106409 0)
(0.115663 0.0681214 0)
(0.0572909 0.0710552 0)
(0.00269251 0.0823288 0)
(-0.0327584 0.0897143 0)
(-0.0583145 0.0931042 0)
(-0.0713661 0.0936183 0)
(-0.0696828 0.0920804 0)
(-0.047605 0.0938173 0)
(0.0283633 0.0998443 0)
(0.0837523 0.101416 0)
(0.075755 0.110018 0)
(0.0211297 0.114816 0)
(-0.00662762 0.0974838 0)
(-0.0169988 0.0751154 0)
(-0.0216044 0.0518999 0)
(-0.0221551 0.0296101 0)
(-0.0191317 0.00994715 0)
(-0.0127174 -0.00490732 0)
(-0.00329679 -0.00931954 0)
(-0.0016874 -0.0114789 0)
(-0.00331038 -0.0245947 0)
(-0.00520262 -0.0246931 0)
(-0.00908161 -0.0120497 0)
(-0.0151009 0.00657958 0)
(-0.0202978 0.0276339 0)
(-0.0295473 0.050621 0)
(-0.084066 0.148732 0)
(0.0623821 0.320342 0)
(0.105924 0.265559 0)
(0.163141 0.193635 0)
(0.160201 0.162757 0)
(0.136654 0.160234 0)
(0.0874617 0.165002 0)
(0.0466806 0.166358 0)
(0.0164063 0.16738 0)
(-0.00298879 0.167841 0)
(-0.00100946 0.171079 0)
(0.0327065 0.174778 0)
(0.0877683 0.177644 0)
(0.0814877 0.181038 0)
(0.0164686 0.170022 0)
(-0.00368226 0.145049 0)
(-0.00990655 0.117539 0)
(-0.0138881 0.0899511 0)
(-0.0162653 0.0633418 0)
(-0.0165222 0.0388147 0)
(-0.0146227 0.0175479 0)
(-0.0103785 0.00132993 0)
(-0.00381841 -0.00563962 0)
(-3.87979e-06 -0.00910694 0)
(0.00147763 -0.020444 0)
(-0.000307905 -0.0194434 0)
(-0.00788656 -0.00394037 0)
(-0.0202803 0.0169931 0)
(-0.0317638 0.0399422 0)
(-0.0373258 0.061147 0)
(-0.0350344 0.0847432 0)
(-0.00292088 0.326713 0)
(0.0974516 0.280401 0)
(0.166336 0.249982 0)
(0.193179 0.239513 0)
(0.187215 0.238855 0)
(0.163728 0.245449 0)
(0.121729 0.249265 0)
(0.086101 0.244293 0)
(0.069662 0.244722 0)
(0.0804655 0.250785 0)
(0.103909 0.256953 0)
(0.0773393 0.249178 0)
(0.0240649 0.224285 0)
(0.0125182 0.192132 0)
(0.00917261 0.160967 0)
(0.00600985 0.130557 0)
(0.00205378 0.101175 0)
(-0.0014841 0.0732183 0)
(-0.0038955 0.047465 0)
(-0.00501094 0.0252197 0)
(-0.00466137 0.00796316 0)
(-0.00279544 -0.00155049 0)
(0.00190277 -0.0123713 0)
(0.0104473 -0.0264229 0)
(0.010372 -0.0257812 0)
(3.98995e-05 -0.0023705 0)
(-0.0171014 0.0257715 0)
(-0.0396626 0.0504855 0)
(-0.0535736 0.0700457 0)
(-0.0648448 0.0883907 0)
(-0.0527244 0.235142 0)
(0.0980017 0.259819 0)
(0.168539 0.262116 0)
(0.204503 0.273217 0)
(0.220817 0.279612 0)
(0.212721 0.30226 0)
(0.1774 0.318172 0)
(0.151744 0.31797 0)
(0.150398 0.319976 0)
(0.132922 0.323869 0)
(0.0828658 0.30712 0)
(0.0526607 0.276816 0)
(0.0420609 0.239404 0)
(0.0385139 0.205094 0)
(0.0352493 0.172044 0)
(0.0306319 0.140776 0)
(0.0250126 0.111004 0)
(0.0190642 0.0824412 0)
(0.0134594 0.055816 0)
(0.00826275 0.032853 0)
(0.00356685 0.0146363 0)
(-0.000165589 0.00254757 0)
(0.00533056 -0.0239637 0)
(0.0236151 -0.0443972 0)
(0.0281536 -0.0420655 0)
(0.0137007 -0.0453926 0)
(0.0071488 -0.0679353 0)
(-0.0145551 -0.0296504 0)
(-0.0275191 0.0119516 0)
(-0.0416019 -0.00317441 0)
(-0.0297903 0.219136 0)
(0.118765 0.198539 0)
(0.168006 0.2409 0)
(0.202188 0.270975 0)
(0.223018 0.288411 0)
(0.226438 0.325088 0)
(0.215094 0.359177 0)
(0.198616 0.370213 0)
(0.158273 0.368399 0)
(0.119596 0.352243 0)
(0.0972027 0.321916 0)
(0.0847175 0.287219 0)
(0.0771032 0.250964 0)
(0.0708064 0.215078 0)
(0.0650475 0.181143 0)
(0.0590243 0.149742 0)
(0.0518635 0.120089 0)
(0.0434528 0.0911478 0)
(0.034129 0.0638189 0)
(0.0238836 0.0403996 0)
(0.0132023 0.0213658 0)
(0.00326146 0.00644561 0)
(0.0152017 -0.0404173 0)
(0.0314557 -0.0937894 0)
(0.0495368 -0.148477 0)
(0.0641094 -0.502839 0)
(0.0919734 -0.517527 0)
(0.129235 -0.489567 0)
(0.164261 -0.446021 0)
(0.169993 -0.365393 0)
(0.101326 -0.013938 0)
(0.12164 0.141506 0)
(0.155871 0.203789 0)
(0.1922 0.249086 0)
(0.216815 0.278793 0)
(0.224386 0.326454 0)
(0.220276 0.378744 0)
(0.190137 0.392942 0)
(0.166212 0.382376 0)
(0.149379 0.361021 0)
(0.136763 0.332697 0)
(0.124123 0.298506 0)
(0.111741 0.26102 0)
(0.10168 0.223391 0)
(0.094628 0.188269 0)
(0.0885805 0.156918 0)
(0.0810888 0.127945 0)
(0.0708475 0.0991183 0)
(0.0567398 0.0699816 0)
(0.0395331 0.0458016 0)
(0.021971 0.0265282 0)
(0.0062731 0.00899816 0)
(0.0491747 -0.214399 0)
(0.0283697 -0.44018 0)
(0.0305174 -0.532489 0)
(0.0596776 -0.524979 0)
(0.103543 -0.507529 0)
(0.146154 -0.484141 0)
(0.19124 -0.450431 0)
(0.23634 -0.409361 0)
(0.264534 -0.33401 0)
(0.169765 -0.0342802 0)
(0.176479 0.16889 0)
(0.197272 0.226284 0)
(0.224531 0.250419 0)
(0.225084 0.321748 0)
(0.222822 0.39745 0)
(0.209237 0.400583 0)
(0.200014 0.388258 0)
(0.18995 0.369488 0)
(0.176786 0.343526 0)
(0.161115 0.309565 0)
(0.144034 0.269427 0)
(0.13024 0.228722 0)
(0.122032 0.19171 0)
(0.117056 0.160489 0)
(0.111248 0.133388 0)
(0.10034 0.10575 0)
(0.0805231 0.0723055 0)
(0.0538527 0.0471456 0)
(0.0277218 0.030167 0)
(0.00728387 0.0105102 0)
(-0.00599298 -0.478199 0)
(0.00330201 -0.498841 0)
(0.0258213 -0.4995 0)
(0.0648015 -0.493692 0)
(0.105496 -0.475665 0)
(0.150654 -0.447298 0)
(0.196189 -0.410156 0)
(0.243179 -0.372352 0)
(0.288736 -0.336359 0)
(0.325115 -0.295261 0)
(0.296663 -0.145232 0)
(0.24825 0.129993 0)
(0.24565 0.196376 0)
(0.238373 0.316662 0)
(0.246273 0.398951 0)
(0.240794 0.400608 0)
(0.236543 0.392403 0)
(0.229925 0.378077 0)
(0.21812 0.356112 0)
(0.200247 0.322639 0)
(0.176743 0.276113 0)
(0.155873 0.229442 0)
(0.1446 0.189188 0)
(0.141013 0.15746 0)
(0.14153 0.132949 0)
(0.140478 0.11014 0)
(0.1125 0.0733807 0)
(0.0605373 0.0442889 0)
(0.0138011 0.0335081 0)
(0.00237212 0.0124489 0)
(-0.0105779 -0.434569 0)
(-0.00378042 -0.455813 0)
(0.020267 -0.46324 0)
(0.062193 -0.461879 0)
(0.104352 -0.448008 0)
(0.150359 -0.421188 0)
(0.194406 -0.383468 0)
(0.237973 -0.339002 0)
(0.274404 -0.298327 0)
(0.314797 -0.2622 0)
(0.346345 -0.221298 0)
(0.366502 -0.168311 0)
(0.327709 0.0155624 0)
(0.269801 0.352818 0)
(0.277572 0.391412 0)
(0.273339 0.398439 0)
(0.272658 0.395526 0)
(0.270315 0.388028 0)
(0.261947 0.374234 0)
(0.246548 0.343731 0)
(0.219062 0.288596 0)
(0.174843 0.22113 0)
(0.159426 0.180585 0)
(0.154337 0.146064 0)
(0.155821 0.123464 0)
(0.169954 0.120541 0)
(0.0941268 -0.0721875 0)
(-0.00120689 -0.361247 0)
(-0.00649094 0.0364319 0)
(0.00124151 0.0225176 0)
(-0.018584 -0.39107 0)
(-0.00498746 -0.418467 0)
(0.0117793 -0.439158 0)
(0.0517598 -0.433391 0)
(0.0968013 -0.415277 0)
(0.141576 -0.383792 0)
(0.185058 -0.343904 0)
(0.225371 -0.296426 0)
(0.258529 -0.252215 0)
(0.292943 -0.216781 0)
(0.322823 -0.175301 0)
(0.373885 -0.143258 0)
(0.457603 -0.0712145 0)
(0.30934 0.341315 0)
(0.30332 0.3826 0)
(0.302402 0.395297 0)
(0.307032 0.399322 0)
(0.313786 0.406241 0)
(0.311634 0.405227 0)
(0.282934 0.386201 0)
(0.208313 0.338553 0)
(0.109862 0.210483 0)
(0.164143 0.145757 0)
(0.160785 0.127049 0)
(0.178101 0.0998453 0)
(0.141639 0.00287327 0)
(-0.0895174 -0.55871 0)
(-0.0569029 -0.56365 0)
(-0.036793 -0.534545 0)
(0.0158057 0.00411163 0)
(-0.0288969 -0.349952 0)
(-0.010661 -0.390151 0)
(-0.00193997 -0.413033 0)
(0.0379022 -0.411225 0)
(0.0769348 -0.394417 0)
(0.118226 -0.359959 0)
(0.161222 -0.316025 0)
(0.205555 -0.26389 0)
(0.239226 -0.215106 0)
(0.268539 -0.177434 0)
(0.308263 -0.13771 0)
(0.389588 -0.105929 0)
(0.475994 -0.0391577 0)
(0.35877 0.280438 0)
(0.320117 0.371609 0)
(0.325373 0.394783 0)
(0.342708 0.395609 0)
(0.358538 0.340589 0)
(0.32596 0.292863 0)
(0.251339 0.293966 0)
(0.115871 0.247717 0)
(-0.0349303 0.0725537 0)
(-0.0926456 -0.237497 0)
(0.140361 0.100827 0)
(0.170507 0.0239433 0)
(-0.135022 -0.534541 0)
(-0.128114 -0.544556 0)
(-0.0777594 -0.544387 0)
(-0.0275328 -0.541423 0)
(0.0183926 -0.541769 0)
(-0.0611128 -0.307522 0)
(-0.0125855 -0.371172 0)
(-0.011333 -0.399653 0)
(0.0188139 -0.391592 0)
(0.0466582 -0.375656 0)
(0.0792401 -0.346597 0)
(0.11871 -0.304352 0)
(0.168576 -0.247561 0)
(0.210826 -0.190734 0)
(0.244747 -0.15385 0)
(0.305699 -0.120772 0)
(0.401726 -0.0850251 0)
(0.462316 -0.0535348 0)
(0.456171 0.00326416 0)
(0.308785 0.347115 0)
(0.333045 0.307057 0)
(0.336596 0.181823 0)
(0.298049 0.0863182 0)
(0.230881 0.0467775 0)
(0.15956 0.0845013 0)
(0.0635151 0.0650369 0)
(-0.0346751 -0.123144 0)
(-0.174739 -0.450264 0)
(-0.203159 -0.477161 0)
(-0.205571 -0.528675 0)
(-0.181046 -0.521207 0)
(-0.138247 -0.534102 0)
(-0.08348 -0.535288 0)
(-0.0251762 -0.523419 0)
(0.0232377 -0.50583 0)
(-0.116687 -0.226038 0)
(-0.0101448 -0.350065 0)
(-0.0176678 -0.388958 0)
(-0.00458221 -0.379133 0)
(0.00708208 -0.365754 0)
(0.0243002 -0.345274 0)
(0.052098 -0.313586 0)
(0.106431 -0.248238 0)
(0.166225 -0.188815 0)
(0.220267 -0.160837 0)
(0.299679 -0.147027 0)
(0.330176 -0.142302 0)
(0.318996 -0.163453 0)
(0.195774 -0.248103 0)
(0.205536 -0.00425274 0)
(0.196925 -0.035361 0)
(0.177714 -0.0742932 0)
(0.141134 -0.08416 0)
(0.113272 -0.0847299 0)
(0.0822743 -0.0617007 0)
(0.0360653 -0.129018 0)
(-0.087066 -0.341812 0)
(-0.214924 -0.514859 0)
(-0.248194 -0.542691 0)
(-0.226958 -0.522827 0)
(-0.194789 -0.521259 0)
(-0.134865 -0.52761 0)
(-0.0798294 -0.529613 0)
(-0.0230479 -0.509972 0)
(0.018619 -0.463621 0)
(-0.147186 -0.125486 0)
(-0.0139427 -0.287769 0)
(-0.0319248 -0.363111 0)
(-0.0349876 -0.359272 0)
(-0.0250432 -0.356676 0)
(-0.0128202 -0.342878 0)
(-8.24035e-05 -0.322872 0)
(0.0283925 -0.288065 0)
(0.101626 -0.215553 0)
(0.186495 -0.208946 0)
(0.190051 -0.234347 0)
(0.116364 -0.297929 0)
(0.0160853 -0.368444 0)
(-0.0420777 -0.319877 0)
(0.00208781 -0.199027 0)
(-0.00253817 -0.163154 0)
(0.0199636 -0.128703 0)
(0.0252148 -0.089348 0)
(0.0354896 -0.0879535 0)
(0.0496761 -0.0976094 0)
(0.0365307 -0.187686 0)
(-0.0876549 -0.397318 0)
(-0.212226 -0.517804 0)
(-0.251277 -0.52026 0)
(-0.222329 -0.516098 0)
(-0.193676 -0.522065 0)
(-0.120341 -0.529974 0)
(-0.071925 -0.530917 0)
(-0.0241792 -0.503359 0)
(0.014961 -0.424189 0)
(-0.048094 -0.0689062 0)
(-0.0226723 -0.197469 0)
(-0.0514203 -0.320315 0)
(-0.0446575 -0.34138 0)
(-0.0394295 -0.346304 0)
(-0.0378703 -0.337556 0)
(-0.0336196 -0.322191 0)
(-0.0239633 -0.304486 0)
(0.0157751 -0.261668 0)
(0.0895357 -0.282685 0)
(-0.0689181 -0.391809 0)
(-0.143339 -0.425502 0)
(-0.148804 -0.333137 0)
(-0.142787 -0.250402 0)
(-0.118994 -0.157079 0)
(-0.0914494 -0.0876284 0)
(-0.0367302 -0.070077 0)
(-0.0184073 -0.0523533 0)
(-0.000132288 -0.0606396 0)
(0.0289679 -0.0807685 0)
(0.041669 -0.188778 0)
(-0.0715021 -0.399721 0)
(-0.175943 -0.486326 0)
(-0.204879 -0.487625 0)
(-0.192206 -0.502153 0)
(-0.177163 -0.513077 0)
(-0.11162 -0.536598 0)
(-0.0662562 -0.53772 0)
(-0.0282146 -0.502893 0)
(0.0128185 -0.403744 0)
(-0.0120351 -0.0582645 0)
(-0.0219778 -0.172555 0)
(-0.0228856 -0.280564 0)
(-0.0210672 -0.323865 0)
(-0.0388598 -0.341122 0)
(-0.0594704 -0.33415 0)
(-0.0656953 -0.320838 0)
(-0.0633363 -0.308758 0)
(-0.0438575 -0.292618 0)
(-0.0223623 -0.309738 0)
(-0.231724 -0.399011 0)
(-0.281134 -0.315259 0)
(-0.199296 -0.236021 0)
(-0.170076 -0.172188 0)
(-0.150518 -0.103583 0)
(-0.123682 -0.0534645 0)
(-0.0784222 -0.0483947 0)
(-0.05025 -0.0458418 0)
(-0.0223441 -0.0584199 0)
(0.0203961 -0.0713413 0)
(0.0489242 -0.165583 0)
(-0.0434681 -0.363823 0)
(-0.130506 -0.444432 0)
(-0.159322 -0.462034 0)
(-0.167075 -0.480896 0)
(-0.15235 -0.504993 0)
(-0.104173 -0.542688 0)
(-0.0633085 -0.552783 0)
(-0.0354518 -0.515086 0)
(0.021852 -0.393695 0)
(0.0241679 -0.0622298 0)
(0.0337235 -0.186864 0)
(0.0421739 -0.271954 0)
(0.0340974 -0.32197 0)
(-0.0286168 -0.347089 0)
(-0.0919178 -0.33353 0)
(-0.103495 -0.320614 0)
(-0.104128 -0.314136 0)
(-0.0897845 -0.31024 0)
(-0.07094 -0.305833 0)
(-0.300482 -0.298885 0)
(-0.325221 -0.171055 0)
(-0.231904 -0.11534 0)
(-0.213568 -0.0799724 0)
(-0.193655 -0.0379326 0)