/*--------------------------------*- C++ -*----------------------------------*\
| =========                 |                                                 |
| \\      /  F ield         | OpenFOAM: The Open Source CFD Toolbox           |
|  \\    /   O peration     | Version:  v1606+                                |
|   \\  /    A nd           | Web:      www.OpenFOAM.com                      |
|    \\/     M anipulation  |                                                 |
\*---------------------------------------------------------------------------*/
FoamFile
{
    version     2.0;
    format      ascii;
    class       volScalarField;
    location    "58";
    object      epsilon;
}
// * * * * * * * * * * * * * * * * * * * * * * * * * * * * * * * * * * * * * //

dimensions      [0 2 -3 0 0 0 0];

internalField   nonuniform List<scalar> 
5080
(
0.000104031
0.00010522
0.000106373
0.000107521
0.00010861
0.000109685
0.000110684
0.000111668
0.000112561
0.000113455
0.000114259
0.00011511
0.0001159
0.000116823
0.000117729
0.000118815
0.000119878
0.000122137
0.000128072
0.000222778
4.41963e-05
4.5311e-05
4.73206e-05
5.04976e-05
5.55851e-05
6.23014e-05
7.24856e-05
8.4797e-05
0.000103475
0.000124716
0.000158018
0.000192753
0.000250941
0.000301425
0.000401176
0.000450665
0.00063855
0.00076425
0.0026528
0.00262159
4.46514e-05
4.573e-05
4.75343e-05
5.03359e-05
5.4807e-05
6.14751e-05
7.14925e-05
8.58509e-05
0.000106683
0.000135774
0.000177041
0.000232886
0.000309996
0.00040892
0.000541985
0.000699421
0.000907398
0.00144991
0.0037883
0.00432643
4.57519e-05
4.79012e-05
5.0747e-05
5.455e-05
6.00505e-05
6.77501e-05
7.90814e-05
9.50824e-05
0.000118712
0.000151959
0.00020097
0.000268468
0.000367089
0.000496201
0.000679728
0.000896827
0.00119436
0.0018814
0.0053398
0.00512108
4.71051e-05
5.07152e-05
5.50068e-05
6.03742e-05
6.74044e-05
7.68865e-05
8.99693e-05
0.00010838
0.000134537
0.000172257
0.000226328
0.000304486
0.000413938
0.000568981
0.000771393
0.00105658
0.00140253
0.00232145
0.00670533
0.00707274
4.87641e-05
5.416e-05
6.0389e-05
6.7744e-05
7.69675e-05
8.86727e-05
0.000104375
0.000125418
0.00015517
0.000196587
0.000257189
0.000342506
0.000468824
0.000642271
0.000893135
0.00120924
0.00166695
0.00266295
0.00754819
0.00791323
5.0622e-05
5.8194e-05
6.67295e-05
7.66807e-05
8.85508e-05
0.000103315
0.000122022
0.000146872
0.000180129
0.000227035
0.000292184
0.000387834
0.00052
0.000716025
0.000969714
0.00134956
0.00182089
0.00307149
0.00861967
0.00995808
5.2689e-05
6.26792e-05
7.39976e-05
8.69743e-05
0.000102243
0.00012056
0.000143367
0.000172296
0.000210826
0.000262458
0.000335775
0.000437437
0.000588694
0.000796002
0.00110947
0.00149959
0.00212566
0.00340189
0.00929768
0.0106997
5.48365e-05
6.74892e-05
8.19157e-05
9.8464e-05
0.000117683
0.000140451
0.000167979
0.000202426
0.000246416
0.000305544
0.000385007
0.000499486
0.000655093
0.000889882
0.00119084
0.00165966
0.00224704
0.00385238
0.0102224
0.0129411
5.69698e-05
7.23943e-05
9.01761e-05
0.000110717
0.000134509
0.000162481
0.000195854
0.000236703
0.000288203
0.000354881
0.000445342
0.000568103
0.000747592
0.000990304
0.00137162
0.0018341
0.00265967
0.00421835
0.0109274
0.0136037
5.89927e-05
7.71083e-05
9.83507e-05
0.00012311
0.000152034
0.000185949
0.000226298
0.00027504
0.000335496
0.000412894
0.000514221
0.000654317
0.000842689
0.00112453
0.00148199
0.0020585
0.00277655
0.00480634
0.0118098
0.0162358
6.07428e-05
8.13344e-05
0.000105893
0.000134985
0.000169323
0.000210004
0.000258341
0.000316793
0.000388352
0.000478898
0.000596435
0.000752909
0.000972731
0.00126806
0.00173635
0.00229571
0.00341241
0.00528096
0.0127635
0.0168946
6.20843e-05
8.47406e-05
0.000112219
0.000145447
0.000185344
0.000233277
0.000290955
0.000360719
0.000446536
0.000553634
0.000691757
0.000874807
0.00111962
0.00147355
0.00192327
0.00266642
0.00357595
0.00617038
0.0137128
0.0202859
6.29949e-05
8.70318e-05
0.0001169
0.000153655
0.000198959
0.000254387
0.000322306
0.000405674
0.0005084
0.000637718
0.000802285
0.00101977
0.0013127
0.00170777
0.00231216
0.00305068
0.00466485
0.00691963
0.0154527
0.0211115
6.32427e-05
8.8081e-05
0.000119361
0.000159071
0.000208971
0.000272
0.000350727
0.000449419
0.000573194
0.000729127
0.000930748
0.00119411
0.00154967
0.00204297
0.00268621
0.00375589
0.00502696
0.00849055
0.0167156
0.0261808
6.30237e-05
8.76978e-05
0.000119599
0.000160865
0.000214742
0.000284228
0.00037438
0.000489634
0.000637698
0.000828413
0.00107462
0.0014049
0.0018478
0.00246265
0.00335092
0.00452025
0.00708727
0.0100535
0.0211054
0.0277678
6.22306e-05
8.60833e-05
0.000117473
0.00015934
0.000215314
0.000290689
0.000390541
0.000523902
0.000698671
0.000929826
0.00123775
0.00164835
0.00222539
0.00303284
0.00416585
0.00602777
0.00827155
0.013681
0.0239862
0.0378407
6.08733e-05
8.33471e-05
0.000113201
0.000154303
0.000211073
0.000289719
0.000399016
0.00054777
0.000752847
0.00102958
0.00140848
0.00193849
0.00267361
0.00378356
0.00540851
0.00787
0.0128994
0.0182704
0.0397533
0.0440444
5.94875e-05
7.96772e-05
0.00010757
0.000146259
0.000202088
0.00028195
0.000396488
0.000561079
0.000791179
0.00112128
0.00158291
0.00224612
0.00323633
0.00470304
0.00707827
0.0111471
0.0174765
0.0300837
0.057779
0.0811963
5.75051e-05
7.57252e-05
0.000100504
0.000136693
0.000188999
0.000268042
0.000384622
0.000557761
0.000815269
0.00118647
0.00174484
0.00257041
0.0038208
0.00590861
0.00928871
0.0150855
0.0309863
0.0457606
0.16845
0.143916
2.7805
21.9889
32.8357
38.9963
40.7253
39.3873
37.0636
34.8173
32.9348
31.2922
29.6462
27.8648
25.9645
24.0773
22.3651
20.8527
19.5572
18.4801
17.5824
16.7669
15.9745
15.2049
14.484
13.8152
13.2115
12.6861
12.2455
11.8806
11.5422
11.2003
10.8661
10.5736
10.3347
10.159
10.0502
10.0023
9.98038
9.93986
9.86434
9.77364
9.7081
9.68455
9.71407
9.79975
9.9343
10.106
10.2849
10.4432
10.5777
10.7081
10.8723
11.0844
11.3509
11.6737
12.0489
12.4746
12.9536
13.4713
14.0542
14.6008
3.78115
16.1471
22.7697
25.8209
26.0388
24.4468
22.3532
20.3812
18.6729
17.2182
15.9702
14.8751
13.8904
12.9972
12.1878
11.4175
10.6789
9.99074
9.3737
8.81922
8.32113
7.88141
7.50107
7.15605
6.82683
6.50765
6.20821
5.94652
5.71825
5.51683
5.34324
5.20237
5.08142
4.97111
4.87333
4.79829
4.74676
4.70541
4.66727
4.63678
4.62341
4.62635
4.64104
4.66495
4.69824
4.74164
4.79431
4.85002
4.90556
4.96683
5.04054
5.13077
5.24177
5.37337
5.5322
5.70953
5.89357
6.08984
6.28519
6.47633
3.88151
14.2071
19.0318
21.4277
21.9661
20.9227
19.1124
17.2395
15.6139
14.3068
13.2793
12.4531
11.7541
11.1272
10.542
9.97629
9.42518
8.89899
8.41136
7.96509
7.55985
7.19698
6.87448
6.58515
6.32286
6.08499
5.87288
5.68937
5.52735
5.37549
5.23344
5.11333
5.02269
4.9619
4.93046
4.92546
4.93879
4.95168
4.95069
4.93793
4.92805
4.93458
4.96096
5.0064
5.06658
5.13554
5.20674
5.27386
5.32942
5.37596
5.42568
5.48998
5.57323
5.67673
5.79907
5.93885
6.09245
6.25647
6.42992
6.59362
3.94238
12.2291
14.929
16.0636
16.7981
16.7813
15.9236
14.6963
13.5486
12.669
12.0298
11.5417
11.1294
10.7381
10.3402
9.9317
9.51439
9.09912
8.69896
8.31957
7.96828
7.65488
7.38045
7.14496
6.94982
6.79572
6.68025
6.59701
6.52731
6.44492
6.34593
6.25452
6.20413
6.20549
6.25721
6.34521
6.44796
6.53659
6.58589
6.59705
6.5939
6.60595
6.64577
6.71433
6.80503
6.90662
7.00523
7.09116
7.15256
7.18895
7.21917
7.26316
7.32899
7.41661
7.52141
7.64506
7.78986
7.95099
8.13119
8.29712
4.008
10.4729
11.5865
11.7852
12.8784
14.1712
14.7703
14.3785
13.6705
13.0829
12.6642
12.3322
12.0346
11.7357
11.4114
11.07
10.7258
10.3878
10.0559
9.72556
9.40707
9.12889
8.90261
8.73148
8.62316
8.582
8.60161
8.66328
8.73027
8.74918
8.70823
8.64734
8.63793
8.70849
8.85529
9.04836
9.24698
9.41452
9.50996
9.53316
9.52264
9.52559
9.56855
9.65117
9.76232
9.88511
9.99907
10.0892
10.142
10.153
10.15
10.1619
10.2012
10.2652
10.3456
10.4463
10.5747
10.7267
10.9072
11.0695
4.06504
8.79588
9.03296
9.08084
10.8661
13.732
16.7976
17.5312
17.0737
16.3501
15.6607
15.0891
14.6383
14.2697
13.9402
13.638
13.3866
13.1809
12.9829
12.7599
12.5087
12.2874
12.127
12.0394
12.0448
12.1505
12.342
12.58
12.8014
12.9207
12.9207
12.8759
12.904
13.054
13.2962
13.5753
13.833
14.0317
14.1245
14.1083
14.0433
14.0034
14.0323
14.1217
14.2394
14.3549
14.4461
14.4983
14.5
14.448
14.3859
14.347
14.3415
14.3629
14.4005
14.4639
14.5603
14.6819
14.8342
14.9607
4.12032
7.4217
7.2035
7.74842
10.4996
14.8886
22.4884
24.6144
24.132
22.9101
21.3814
20.0872
19.1831
18.6184
18.319
18.2283
18.3032
18.4696
18.6209
18.6753
18.6252
18.5416
18.4625
18.4462
18.5541
18.7979
19.1467
19.511
19.788
19.8982
19.8176
19.6876
19.7813
20.1285
20.4923
20.7891
20.9837
21.0577
21.0096
20.8415
20.6121
20.4652
20.459
20.586
20.7381
20.8031
20.7929
20.7187
20.5719
20.3769
20.2228
20.1228
20.0545
20.0004
19.9553
19.9674
20.0404
20.1122
20.1896
20.1968
4.17158
6.42184
6.02184
7.34639
11.4375
17.1849
33.7768
34.5841
32.0781
29.5987
27.7193
26.3622
25.4111
24.8955
24.8072
25.0666
25.5694
26.125
26.5284
26.6919
26.6987
26.6482
26.6641
26.7611
26.9502
27.2705
27.689
28.0802
28.316
28.3896
28.3854
28.4485
28.6769
28.9027
29.0706
29.185
29.1897
29.0982
28.9585
28.8488
28.8041
28.7884
28.7852
28.7286
28.5632
28.3914
28.2565
28.1661
28.0863
28.0098
27.9382
27.8706
27.7636
27.5763
27.3066
26.9821
26.6083
26.3623
26.2242
25.9705
4.21681
5.64918
5.29769
7.2873
12.5897
20.0023
30.5406
34.2796
34.3325
34.1831
34.3786
34.2006
33.663
33.2061
32.9848
32.9102
32.8729
32.7499
32.4302
31.9093
31.3068
30.8255
30.6154
30.6121
30.746
30.9964
31.3035
31.5949
31.8168
31.9907
32.2616
32.6123
32.5445
32.251
32.1971
32.2036
32.2151
32.2786
32.4575
32.8366
33.4156
33.811
33.7767
33.294
32.7937
32.595
32.6233
32.8554
33.3012
33.9279
34.4538
34.6966
34.5783
34.0177
33.0674
31.7926
30.6018
29.8641
29.344
28.8535
4.26044
5.13245
4.82091
7.09811
12.892
19.7813
40.7579
37.8814
37.8813
40.5654
42.734
42.6506
41.3897
40.1847
39.2943
38.5437
37.746
36.8109
35.7339
34.5968
33.5697
32.8124
32.3492
32.0893
31.9625
31.9312
31.947
31.9478
31.8839
31.7454
31.5825
31.4432
31.4102
31.5621
31.7729
31.9056
31.9959
32.1034
32.266
32.5088
32.7879
32.9983
33.1115
33.1546
33.2485
33.4343
33.7165
34.072
34.458
34.8355
35.1265
35.207
34.9201
34.2136
33.2413
32.2298
31.3772
30.7284
30.1691
29.6328
4.30615
4.89392
4.48158
6.90188
14.606
21.5098
28.0304
26.3043
26.5227
30.4475
34.508
36.5232
37.1082
37.3143
37.4335
37.3648
36.9879
36.2563
35.2549
34.1511
33.14
32.3446
31.758
31.3134
30.9659
30.686
30.4356
30.1695
29.8476
29.4706
29.1062
28.9003
28.9895
29.2898
29.5741
29.7329
29.8059
29.8457
29.8807
29.9375
30.048
30.2621
30.6126
31.0589
31.5121
31.9155
32.2691
32.5487
32.7288
32.8329
32.8839
32.8141
32.5166
31.9905
31.3767
30.8153
30.3172
29.8516
29.3701
28.881
4.35332
4.82086
4.28828
7.09115
16.4989
24.8581
24.5092
19.2862
16.6503
18.1116
21.0924
23.669
25.6971
27.5272
29.1526
30.3632
31.0322
31.1639
30.8827
30.3703
29.8029
29.2812
28.818
28.3984
28.016
27.6654
27.3279
26.9731
26.5879
26.1967
25.88
25.7589
25.8901
26.1644
26.395
26.5116
26.5403
26.5181
26.4828
26.4854
26.598
26.8901
27.3659
27.9378
28.4778
28.9075
29.2058
29.3664
29.4068
29.3895
29.3644
29.3032
29.1546
28.9218
28.6744
28.4479
28.1926
27.8802
27.5034
27.1097
4.40298
4.82252
4.1876
7.37496
18.1415
27.4173
23.6958
15.674
10.8412
9.90214
10.8132
12.3993
14.3893
16.6905
19.0173
21.0348
22.5528
23.5343
24.0621
24.2696
24.2881
24.2043
24.0591
23.8734
23.6639
23.4397
23.1986
22.9358
22.6598
22.4041
22.2318
22.2093
22.343
22.5471
22.7135
22.7965
22.8082
22.7823
22.762
22.8041
22.9734
23.3098
23.7884
24.3181
24.792
25.145
25.3619
25.456
25.4693
25.4685
25.4969
25.543
25.5793
25.5983
25.6005
25.5719
25.4654
25.2725
25.0109
24.738
4.45789
4.85553
4.13237
7.67825
19.2334
29.6713
23.6652
13.4612
7.40956
5.26598
4.82741
5.29008
6.48999
8.28757
10.3757
12.415
14.1895
15.5976
16.6475
17.3944
17.9112
18.2571
18.4749
18.5969
18.6491
18.6493
18.6082
18.5355
18.4482
18.3758
18.3576
18.424
18.5675
18.7368
18.8751
18.9581
18.9956
19.0154
19.0555
19.1607
19.3711
19.6991
20.1115
20.5383
20.9083
21.1816
21.3555
21.4535
21.5195
21.6035
21.7317
21.8945
22.0693
22.2407
22.3822
22.4607
22.4512
22.3612
22.2187
22.0727
4.52276
4.87878
4.16399
8.00077
19.4765
31.6485
23.4822
11.4741
5.02233
2.67182
1.85825
1.77238
2.24212
3.22907
4.58022
6.08207
7.57135
8.92208
10.0894
11.058
11.8454
12.4731
12.9671
13.3511
13.6471
13.8726
14.0418
14.1683
14.2689
14.365
14.4796
14.6269
14.8012
14.9772
15.1283
15.2446
15.3344
15.4183
15.5235
15.6781
15.9022
16.195
16.5299
16.8631
17.1548
17.3862
17.5626
17.7069
17.8514
18.0255
18.2397
18.4826
18.7326
18.9681
19.1677
19.3076
19.3729
19.3789
19.3524
19.3183
4.6027
4.88354
4.26456
8.3047
19.7902
33.3359
23.4971
9.8101
3.33301
1.25658
0.609993
0.457991
0.558597
0.920845
1.52534
2.32215
3.24982
4.2175
5.17375
6.06501
6.87175
7.58159
8.19715
8.72457
9.1737
9.55475
9.87808
10.1546
10.3967
10.6184
10.8334
11.0499
11.2662
11.4723
11.6577
11.8195
11.9644
12.106
12.2611
12.4456
12.6686
12.9271
13.205
13.4796
13.7318
13.9555
14.1576
14.3541
14.5638
14.8002
15.0645
15.3449
15.6236
15.8823
16.1051
16.2796
16.4031
16.4884
16.5526
16.6043
4.66865
4.8868
4.37887
8.61329
20.0023
33.4316
23.1908
8.56056
2.276
0.588298
0.197762
0.117646
0.112616
0.183034
0.338971
0.610141
1.00742
1.50702
2.09134
2.7136
3.34473
3.95583
4.53307
5.06532
5.54952
5.98606
6.37794
6.73004
7.04898
7.34263
7.61855
7.88178
8.13303
8.36929
8.58733
8.78733
8.97404
9.15579
9.34245
9.54283
9.76177
9.99793
10.244
10.4901
10.7288
10.959
11.1857
11.4178
11.6642
11.9292
12.21
12.4969
12.7772
13.0383
13.2704
13.4682
13.633
13.7748
13.9036
14.0141
4.69817
4.91367
4.42862
8.83425
20.3166
32.9157
22.3047
7.53003
1.68404
0.33624
0.0971428
0.0563315
0.0360049
0.0319374
0.042015
0.088883
0.187883
0.347276
0.584864
0.894117
1.25684
1.65584
2.07701
2.49889
2.91129
3.30708
3.68159
4.03316
4.36265
4.67244
4.9653
5.24343
5.50755
5.75701
5.99117
6.21092
6.41937
6.62148
6.82305
7.02936
7.24375
7.46672
7.69607
7.92841
8.1614
8.39528
8.63281
8.87795
9.13391
9.40116
9.67628
9.95243
10.2213
10.4752
10.7087
10.9198
11.1111
11.2894
11.4592
11.6057
4.70136
4.96959
4.41016
8.89184
21.1108
32.5
21.3333
6.56159
1.29458
0.239853
0.079132
0.0482364
0.025223
0.0118165
0.00449726
0.00467063
0.0144665
0.0407406
0.0944758
0.183445
0.314232
0.489458
0.714594
0.965846
1.23824
1.5245
1.81483
2.10307
2.38603
2.66182
2.92901
3.18712
3.43565
3.67393
3.90154
4.119
4.32803
4.53145
4.73264
4.93488
5.1407
5.35135
5.56684
5.78645
6.00971
6.23698
6.46945
6.7086
6.95524
7.20866
7.46613
7.72325
7.97496
8.21673
8.44559
8.66109
8.86552
9.06344
9.25558
9.4205
4.69087
5.05975
4.35555
8.70603
21.3855
32.8954
20.6829
5.7918
1.03519
0.19822
0.0777306
0.0488751
0.0239548
0.00913447
0.00232768
0.000525301
0.000472019
0.0015079
0.00564799
0.0171813
0.0420505
0.0862353
0.156386
0.252757
0.376573
0.530109
0.703388
0.890343
1.08814
1.29317
1.50054
1.70819
1.91436
2.11741
2.31612
2.51019
2.70017
2.88728
3.07322
3.25986
3.44886
3.64139
3.83802
4.03889
4.24408
4.45387
4.66876
4.88924
5.11535
5.34631
5.58027
5.81453
6.04603
6.27207
6.49102
6.70294
6.9097
7.11427
7.31492
7.48576
4.6747
5.17586
4.31677
8.45923
20.5436
33.627
20.412
5.22568
0.86851
0.183107
0.0811546
0.0515863
0.0247658
0.00906891
0.00228883
0.000517963
0.000193914
0.000123409
0.000181691
0.000530288
0.00187932
0.00602056
0.0161706
0.035782
0.068375
0.117793
0.18468
0.269029
0.371101
0.490485
0.619455
0.757326
0.902309
1.05188
1.20379
1.35718
1.51167
1.66727
1.82428
1.9835
2.14573
2.31168
2.48177
2.65626
2.83535
3.01924
3.2082
3.4024
3.60176
3.80569
4.01303
4.22212
4.43106
4.6382
4.8426
5.04455
5.24552
5.44736
5.6466
5.81449
4.65068
5.30172
4.29716
8.31058
19.3648
33.7816
20.4665
4.76681
0.752166
0.179658
0.0873078
0.0557938
0.0266722
0.00978141
0.00244509
0.000581263
0.000201993
0.000106032
6.89484e-05
5.90371e-05
7.98271e-05
0.000175505
0.000542913
0.00173586
0.00496339
0.0122217
0.025687
0.0474628
0.0796277
0.123797
0.179326
0.24635
0.32526
0.413895
0.509372
0.611377
0.719327
0.83244
0.949941
1.07195
1.19868
1.33032
1.46691
1.60857
1.75545
1.90772
2.06553
2.22894
2.39788
2.572
2.75059
2.9326
3.11685
3.30229
3.48841
3.67555
3.86483
4.05713
4.2476
4.40606
4.61722
5.42897
4.2783
8.22294
18.6379
33.2084
20.4684
4.38095
0.675347
0.18492
0.0959344
0.0615906
0.0295375
0.0109301
0.00273139
0.000665088
0.000219989
0.000112311
6.77624e-05
4.89787e-05
4.21654e-05
4.06879e-05
4.6122e-05
6.88032e-05
0.000147823
0.000414433
0.0012065
0.00321662
0.00756812
0.0156804
0.0288287
0.0482755
0.075304
0.110299
0.153098
0.203869
0.263039
0.329828
0.402808
0.482276
0.568248
0.66073
0.759249
0.86383
0.974608
1.09172
1.21519
1.34502
1.4812
1.62356
1.77169
1.92494
2.08256
2.24394
2.40882
2.5775
2.75064
2.92817
3.10408
3.24823
4.57386
5.55489
4.2482
8.14438
18.4358
32.9504
20.1757
4.02616
0.627712
0.197421
0.107019
0.0690426
0.0335552
0.0124674
0.00306723
0.000756701
0.00024297
0.000120403
7.03472e-05
4.93427e-05
4.09564e-05
3.71012e-05
3.5195e-05
3.45211e-05
3.54707e-05
4.01638e-05
5.54175e-05
0.000101697
0.000243327
0.000646433
0.0016492
0.00382377
0.00799197
0.0150261
0.0257621
0.0410485
0.0617681
0.088373
0.12098
0.160014
0.205857
0.259178
0.318818
0.385124
0.458395
0.538863
0.626587
0.721372
0.823403
0.932708
1.04914
1.17226
1.30165
1.43702
1.57826
1.72553
1.87894
2.03739
2.19404
2.3203
4.5163
5.67629
4.20097
8.02835
18.0413
33.4102
19.9919
3.68885
0.599598
0.215859
0.120509
0.0779835
0.0387866
0.0146922
0.00360157
0.000876523
0.000271676
0.000129696
7.33342e-05
4.97474e-05
4.06704e-05
3.69004e-05
3.48149e-05
3.34631e-05
3.26187e-05
3.2113e-05
3.20886e-05
3.28496e-05
3.54802e-05
4.31367e-05
6.38566e-05
0.000120747
0.000277345
0.000671812
0.00155823
0.00334158
0.00659094
0.011934
0.0200264
0.0315898
0.0473994
0.0681553
0.0941995
0.126089
0.164427
0.209817
0.262925
0.323056
0.390941
0.466926
0.551191
0.643452
0.74349
0.851296
0.966871
1.09021
1.22078
1.35651
1.49019
1.59614
4.44106
5.78903
4.13701
7.8582
16.7965
33.3094
20.4497
3.40093
0.585842
0.239565
0.136602
0.0883491
0.0452144
0.0174562
0.00427964
0.00102132
0.000310081
0.000141867
7.81271e-05
5.07758e-05
4.05632e-05
3.64701e-05
3.44493e-05
3.3294e-05
3.25236e-05
3.1887e-05
3.14277e-05
3.11203e-05
3.09331e-05
3.09489e-05
3.13271e-05
3.24618e-05
3.55088e-05
4.32119e-05
6.21489e-05
0.000110192
0.000233482
0.000529006
0.00117494
0.002465
0.00483547
0.00883695
0.0150864
0.0243102
0.0373445
0.0550933
0.0783402
0.107771
0.144279
0.188697
0.241813
0.303788
0.374218
0.453573
0.541955
0.639278
0.744395
0.854478
0.962385
1.04638
4.34221
5.88567
4.05025
7.69896
15.9854
32.3284
21.1053
3.18785
0.586399
0.268439
0.155808
0.100304
0.0530104
0.0212829
0.00531915
0.00120231
0.000353568
0.000156432
8.37918e-05
5.21519e-05
4.07581e-05
3.6437e-05
3.4352e-05
3.30949e-05
3.22672e-05
3.1714e-05
3.13676e-05
3.11075e-05
3.08594e-05
3.06532e-05
3.05156e-05
3.04291e-05
3.04213e-05
3.05702e-05
3.10074e-05
3.20541e-05
3.45734e-05
4.05351e-05
5.45007e-05
8.84539e-05
0.000173966
0.000382314
0.000853502
0.00183938
0.00375152
0.00719027
0.0129193
0.021889
0.035267
0.0543506
0.0804098
0.114303
0.156722
0.20819
0.26897
0.339138
0.417179
0.4995
0.579471
0.639298
4.2124
5.9638
3.93499
7.55172
15.8793
31.7729
20.5505
3.01436
0.604995
0.302941
0.178994
0.114325
0.0622619
0.0259515
0.00673598
0.00145739
0.000410597
0.000174718
9.07477e-05
5.40383e-05
4.09356e-05
3.62394e-05
3.42142e-05
3.30583e-05
3.22797e-05
3.16971e-05
3.12946e-05
3.09944e-05
3.07823e-05
3.06468e-05
3.05509e-05
3.04517e-05
3.03542e-05
3.02869e-05
3.02549e-05
3.02492e-05
3.02986e-05
3.04684e-05
3.08603e-05
3.16995e-05
3.36044e-05
3.809e-05
4.87662e-05
7.53991e-05
0.00014594
0.000332979
0.000801606
0.00189248
0.00423522
0.00883942
0.0170709
0.0304361
0.050333
0.0778055
0.113409
0.157104
0.207545
0.261507
0.312063
0.342091
4.04514
6.01616
3.79279
7.34428
15.81
31.9219
19.2519
2.85918
0.646394
0.345203
0.207451
0.131007
0.0734123
0.0321571
0.00878677
0.00179112
0.000479169
0.000197356
9.92854e-05
5.65277e-05
4.14702e-05
3.62961e-05
3.41436e-05
3.29237e-05
3.21586e-05
3.16557e-05
3.13177e-05
3.10491e-05
3.08292e-05
3.0667e-05
3.05396e-05
3.04378e-05
3.03684e-05
3.03319e-05
3.03101e-05
3.02827e-05
3.02576e-05
3.0253e-05
3.02717e-05
3.03093e-05
3.0391e-05
3.05769e-05
3.09687e-05
3.17852e-05
3.36702e-05
3.84899e-05
5.16602e-05
9.10764e-05
0.000218061
0.000619476
0.00177409
0.00464138
0.010644
0.0212715
0.0375567
0.0597257
0.0868124
0.115962
0.140637
0.144457
3.834
6.03416
3.63277
7.07459
15.6173
32.0903
17.956
2.76167
0.714206
0.398836
0.242782
0.15106
0.0865017
0.0396128
0.011737
0.00231109
0.000572357
0.000225076
0.000109272
5.95645e-05
4.20858e-05
3.63683e-05
3.4163e-05
3.2968e-05
3.21945e-05
3.1655e-05
3.12768e-05
3.1007e-05
3.08295e-05
3.07113e-05
3.06146e-05
3.05221e-05
3.04443e-05
3.03886e-05
3.03426e-05
3.03061e-05
3.02899e-05
3.03006e-05
3.03271e-05
3.03528e-05
3.03768e-05
3.04132e-05
3.04762e-05
3.05723e-05
3.07373e-05
3.1067e-05
3.17825e-05
3.35331e-05
3.86951e-05
5.62832e-05
0.000122041
0.000369907
0.00120138
0.00346009
0.008251
0.0162843
0.0272175
0.0391561
0.0476172
0.0435342
3.57237
5.99992
3.46859
6.76898
15.2866
32.0204
16.9272
2.75801
0.810775
0.467025
0.286724
0.175354
0.101873
0.0487351
0.015658
0.00304024
0.000698032
0.000262457
0.000122167
6.33847e-05
4.30454e-05
3.66027e-05
3.41755e-05
3.29256e-05
3.21948e-05
3.17084e-05
3.13591e-05
3.10817e-05
3.08797e-05
3.07317e-05
3.06196e-05
3.05421e-05
3.04957e-05
3.04679e-05
3.04392e-05
3.04073e-05
3.03824e-05
3.03718e-05
3.03692e-05
3.03736e-05
3.03937e-05
3.04405e-05
3.05123e-05
3.05956e-05
3.06886e-05
3.08105e-05
3.09933e-05
3.12876e-05
3.18779e-05
3.33574e-05
3.77385e-05
5.27473e-05
0.000108151
0.000308161
0.000927147
0.00239723
0.00493851
0.00799677
0.00980952
0.00762741
3.25539
5.89253
3.3101
6.43987
14.8232
31.4988
16.5043
2.87069
0.938762
0.552758
0.341022
0.204729
0.119361
0.0595866
0.0209915
0.0041529
0.000874397
0.000310268
0.000138187
6.82462e-05
4.43565e-05
3.70073e-05
3.43646e-05
3.30393e-05
3.22489e-05
3.17158e-05
3.13572e-05
3.11141e-05
3.09498e-05
3.08237e-05
3.07154e-05
3.0628e-05
3.05648e-05
3.05167e-05
3.04797e-05
3.04572e-05
3.04532e-05
3.0463e-05
3.04746e-05
3.0482e-05
3.04902e-05
3.05072e-05
3.05336e-05
3.05736e-05
3.06446e-05
3.07696e-05
3.0949e-05
3.11589e-05
3.14034e-05
3.17715e-05
3.2468e-05
3.408e-05
3.82709e-05
5.02053e-05
8.54327e-05
0.000182221
0.000392715
0.000692795
0.000850324
0.000535049
2.88656
5.68636
3.16361
6.10721
14.2961
30.5676
16.6137
3.10653
1.10468
0.659376
0.407607
0.240284
0.139109
0.0718581
0.0273333
0.00574389
0.00113154
0.000376745
0.000158894
7.42872e-05
4.6068e-05
3.75683e-05
3.46045e-05
3.31888e-05
3.23767e-05
3.1833e-05
3.14542e-05
3.11845e-05
3.09953e-05
3.08607e-05
3.07692e-05
3.07077e-05
3.06645e-05
3.0628e-05
3.05925e-05
3.05609e-05
3.05383e-05
3.05243e-05
3.05206e-05
3.05316e-05
3.056e-05
3.06013e-05
3.06433e-05
3.0677e-05
3.07103e-05
3.0764e-05
3.08568e-05
3.10061e-05
3.12281e-05
3.15209e-05
3.18776e-05
3.23566e-05
3.31491e-05
3.46327e-05
3.74601e-05
4.27362e-05
5.1769e-05
6.34658e-05
7.07018e-05
5.82396e-05
2.49466
5.36159
3.04586
5.77959
13.7521
29.5363
17.1782
3.44084
1.31842
0.792329
0.488911
0.283525
0.161521
0.0854217
0.034778
0.00797813
0.00150264
0.000467287
0.000186259
8.20798e-05
4.82996e-05
3.83733e-05
3.50105e-05
3.34373e-05
3.25358e-05
3.19428e-05
3.15529e-05
3.12872e-05
3.11017e-05
3.09663e-05
3.08666e-05
3.07949e-05
3.07449e-05
3.07104e-05
3.06856e-05
3.06675e-05
3.06547e-05
3.0645e-05
3.06366e-05
3.06331e-05
3.064e-05
3.06602e-05
3.0692e-05
3.07315e-05
3.0777e-05
3.08322e-05
3.0904e-05
3.10004e-05
3.11348e-05
3.13128e-05
3.15553e-05
3.19045e-05
3.23669e-05
3.29139e-05
3.36665e-05
3.48321e-05
3.64658e-05
3.83784e-05
4.16696e-05
4.25877e-05
2.15253
4.91019
2.9817
5.48321
13.2448
28.7341
18.0861
3.86021
1.5962
0.960085
0.588315
0.336405
0.187743
0.0998754
0.0428961
0.0110074
0.00206491
0.000596925
0.000222898
9.1994e-05
5.1106e-05
3.93573e-05
3.54891e-05
3.37483e-05
3.27797e-05
3.21449e-05
3.17217e-05
3.14232e-05
3.12126e-05
3.10663e-05
3.09655e-05
3.08987e-05
3.08566e-05
3.08276e-05
3.0806e-05
3.07895e-05
3.07753e-05
3.07624e-05
3.07512e-05
3.07443e-05
3.07469e-05
3.07632e-05
3.07914e-05
3.08264e-05
3.08625e-05
3.08955e-05
3.09314e-05
3.09917e-05
3.1102e-05
3.12596e-05
3.14258e-05
3.16094e-05
3.18797e-05
3.228e-05
3.27604e-05
3.33315e-05
3.41443e-05
3.51919e-05
3.76636e-05
3.98907e-05
1.99076
4.36251
3.00595
5.27189
12.8537
28.3517
19.1423
4.38312
1.96187
1.17395
0.710336
0.400864
0.219018
0.115947
0.0517663
0.0146985
0.00286056
0.000781941
0.00027408
0.000105336
5.48109e-05
4.07024e-05
3.61517e-05
3.4126e-05
3.30206e-05
3.23319e-05
3.18933e-05
3.15928e-05
3.13809e-05
3.12263e-05
3.11127e-05
3.10308e-05
3.0973e-05
3.09335e-05
3.09107e-05
3.09026e-05
3.09038e-05
3.09067e-05
3.09056e-05
3.08999e-05
3.08919e-05
3.08857e-05
3.08873e-05
3.09044e-05
3.09425e-05
3.09939e-05
3.10391e-05
3.10717e-05
3.11111e-05
3.11892e-05
3.1325e-05
3.14974e-05
3.16584e-05
3.18398e-05
3.21081e-05
3.24947e-05
3.30432e-05
3.37723e-05
3.59135e-05
3.86617e-05
2.17575
3.82647
3.15413
5.22467
12.7251
28.4564
19.987
5.07945
2.44808
1.44785
0.861112
0.478939
0.256722
0.134243
0.0616459
0.0192303
0.00398531
0.00104446
0.000343688
0.000122906
5.94962e-05
4.23524e-05
3.69864e-05
3.4653e-05
3.33938e-05
3.26086e-05
3.21005e-05
3.1758e-05
3.15285e-05
3.13716e-05
3.12639e-05
3.11891e-05
3.11343e-05
3.10943e-05
3.10666e-05
3.10476e-05
3.1035e-05
3.10288e-05
3.10298e-05
3.10375e-05
3.10478e-05
3.10548e-05
3.10569e-05
3.10581e-05
3.10639e-05
3.10792e-05
3.11087e-05
3.11528e-05
3.12019e-05
3.12461e-05
3.12989e-05
3.13891e-05
3.15243e-05
3.16771e-05
3.18151e-05
3.20042e-05
3.23473e-05
3.28358e-05
3.45494e-05
3.76138e-05
2.64297
3.48891
3.41347
5.4666
13.1341
29.104
19.683
6.09279
3.09293
1.79877
1.04769
0.573502
0.302482
0.15597
0.0726952
0.0243942
0.00556029
0.00142546
0.000440611
0.000146712
6.55344e-05
4.43522e-05
3.79209e-05
3.52184e-05
3.37895e-05
3.29184e-05
3.23613e-05
3.1991e-05
3.17389e-05
3.15622e-05
3.14388e-05
3.13527e-05
3.12934e-05
3.12551e-05
3.1232e-05
3.12187e-05
3.12109e-05
3.12058e-05
3.12021e-05
3.11994e-05
3.11983e-05
3.12002e-05
3.12072e-05
3.12196e-05
3.12343e-05
3.12468e-05
3.12558e-05
3.12657e-05
3.12847e-05
3.132e-05
3.13686e-05
3.14129e-05
3.1456e-05
3.15304e-05
3.16342e-05
3.17603e-05
3.19814e-05
3.23498e-05
3.38436e-05
3.69833e-05
3.11543
3.37861
3.75642
6.06928
14.5339
30.4032
18.9209
7.77872
3.93769
2.24846
1.27748
0.687749
0.358032
0.182206
0.0857857
0.0306345
0.00770132
0.00196737
0.000574767
0.000178983
7.33596e-05
4.68358e-05
3.90812e-05
3.59331e-05
3.42764e-05
3.32714e-05
3.26361e-05
3.22241e-05
3.1952e-05
3.177e-05
3.16474e-05
3.15614e-05
3.15001e-05
3.14564e-05
3.14254e-05
3.14047e-05
3.13922e-05
3.13867e-05
3.13869e-05
3.13907e-05
3.13949e-05
3.1397e-05
3.13968e-05
3.13963e-05
3.13987e-05
3.14063e-05
3.14193e-05
3.14336e-05
3.14418e-05
3.14463e-05
3.14621e-05
3.14954e-05
3.15323e-05
3.15521e-05
3.15712e-05
3.16235e-05
3.17564e-05
3.19814e-05
3.3216e-05
3.64302e-05
3.47713
3.51999
4.25519
6.88248
17.278
33.0393
23.0741
10.3651
5.01991
2.81867
1.55805
0.825395
0.425653
0.214318
0.10165
0.0386086
0.0107698
0.00276084
0.000763413
0.00022327
8.37391e-05
4.98113e-05
4.0351e-05
3.67061e-05
3.48303e-05
3.37044e-05
3.2992e-05
3.2525e-05
3.22138e-05
3.20056e-05
3.18661e-05
3.17727e-05
3.17117e-05
3.16718e-05
3.16459e-05
3.16287e-05
3.16164e-05
3.16073e-05
3.16009e-05
3.15974e-05
3.1597e-05
3.15997e-05
3.16045e-05
3.16097e-05
3.16125e-05
3.16118e-05
3.16097e-05
3.16102e-05
3.16148e-05
3.16205e-05
3.16203e-05
3.16184e-05
3.16286e-05
3.16477e-05
3.16614e-05
3.16745e-05
3.17613e-05
3.19325e-05
3.2975e-05
3.61246e-05
5.56369e-05
7.14035e-05
9.32426e-05
0.000125093
0.000173958
0.000247689
0.000363871
0.000540278
0.000811041
0.00123249
0.00185799
0.0028593
0.00450231
0.00693131
0.0127952
0.0198169
0.0486818
0.0851904
0.392145
0.282745
5.42148e-05
6.72202e-05
8.62293e-05
0.000113417
0.000156353
0.000224771
0.000332262
0.000507531
0.000785864
0.00121374
0.0019748
0.00297651
0.00527034
0.00799229
0.0160976
0.0267756
0.0730048
0.105001
0.629776
0.59994
5.18876e-05
6.37084e-05
7.89749e-05
0.000102246
0.000139673
0.000197255
0.000302838
0.000449718
0.000757052
0.00113448
0.00201436
0.00307583
0.0056512
0.0090711
0.0190441
0.0296383
0.097881
0.121165
0.379581
0.829947
5.11278e-05
5.96902e-05
7.41969e-05
9.00815e-05
0.00012801
0.000168504
0.000274907
0.000393129
0.000692973
0.00106133
0.00191412
0.00302649
0.00585847
0.00892089
0.0215752
0.0301609
0.0796151
0.139805
0.232241
0.636319
5.2787e-05
5.6286e-05
7.23542e-05
8.1383e-05
0.000118398
0.000149034
0.000242866
0.000344688
0.00061056
0.000923251
0.00180607
0.00266783
0.00587943
0.0083195
0.0185443
0.0302436
0.0530385
0.131132
0.182554
0.384624
5.07879e-05
5.32883e-05
6.55933e-05
7.33666e-05
0.000102336
0.00012752
0.000209454
0.000284506
0.000549187
0.000765104
0.00161483
0.00229288
0.00462958
0.00753926
0.0127851
0.0277004
0.0394231
0.0952529
0.141402
0.234508
4.63325e-05
5.02365e-05
5.73783e-05
6.51987e-05
8.91988e-05
0.00010822
0.000181842
0.000235576
0.000440159
0.000629714
0.00113687
0.00192624
0.00305207
0.00640762
0.00908738
0.0211111
0.0300146
0.0598524
0.0952317
0.145018
4.49535e-05
4.78863e-05
5.23327e-05
5.82706e-05
7.33039e-05
8.99534e-05
0.000129898
0.000189057
0.000283727
0.000513311
0.000729643
0.00156551
0.00211947
0.00478045
0.00661388
0.0136248
0.0206831
0.0354311
0.0566299
0.0839656
4.48375e-05
4.59111e-05
4.81564e-05
5.37157e-05
6.01051e-05
8.03423e-05
9.59964e-05
0.000165085
0.000204292
0.000426163
0.000536957
0.001161
0.00154203
0.00308274
0.00448847
0.00787744
0.0124215
0.0194329
0.030046
0.042798
4.49122e-05
4.62024e-05
4.73296e-05
5.40563e-05
5.66915e-05
7.8446e-05
8.64494e-05
0.000147564
0.000173498
0.000331777
0.000423283
0.00078652
0.00110302
0.00186992
0.00283565
0.00441802
0.0068632
0.0100981
0.0149685
0.0210462
4.82001e-05
5.17402e-05
5.74302e-05
6.76772e-05
7.47563e-05
9.72147e-05
0.00011005
0.000156926
0.000187107
0.000284375
0.000369314
0.000568629
0.00080542
0.00122285
0.00179931
0.00272086
0.00432234
0.00967666
0.020389
0.0403758
0.000151452
0.000271827
0.00039978
0.000525
0.000624901