/*--------------------------------*- C++ -*----------------------------------*\
| =========                 |                                                 |
| \\      /  F ield         | OpenFOAM: The Open Source CFD Toolbox           |
|  \\    /   O peration     | Version:  2.4.0                                 |
|   \\  /    A nd           | Web:      www.OpenFOAM.org                      |
|    \\/     M anipulation  |                                                 |
\*---------------------------------------------------------------------------*/
FoamFile
{
    version     2.0;
    format      ascii;
    class       volScalarField;
    location    "0.45";
    object      p_rgh;
}
// * * * * * * * * * * * * * * * * * * * * * * * * * * * * * * * * * * * * * //

dimensions      [1 -1 -2 0 0 0 0];

internalField   nonuniform List<scalar> 
3072
(
0
-0.00151545
-0.142342
-0.405956
-0.7487
-1.11288
-1.52174
-1.95164
-2.36959
-2.72084
-2.9414
-3.01248
1.50556
1.40502
1.22721
1.01008
0.779494
0.553386
0.366362
0.212297
0.0932526
0.0597278
0.215728
0.63446
3.10878
2.93307
2.72417
2.55186
2.47048
2.47901
2.56848
2.68964
2.77394
2.77194
2.46948
1.6
4.94944
4.74556
4.59913
4.5599
4.67985
4.94588
5.30648
5.67167
5.96631
6.19327
6.42499
6.529
6.91429
6.741
6.70134
6.84185
7.18076
7.6814
8.23434
8.71201
9.05922
9.22816
9.25091
9.12804
8.95123
8.85156
8.93997
9.257
9.76477
10.396
10.9668
11.4078
11.7723
11.9122
11.6722
11.3653
11.0415
11.0593
11.2934
11.7894
12.4198
13.0649
13.4145
13.9814
14.9141
14.841
15.1516
15.5835
13.1641
13.3722
13.7826
14.4968
15.2799
15.9809
16.6738
19.2895
21.6733
20.5227
19.5846
19.4458
15.2651
15.7961
16.4225
17.3847
18.3295
19.12
19.8771
26.354
26.2996
24.7323
23.5626
22.9908
17.18
18.3095
19.2175
20.4403
21.4967
22.4046
23.2246
28.4957
29.4411
28.105
26.9226
26.1137
18.4941
20.8161
22.1106
23.5962
24.6692
25.6548
26.494
28.2099
31.4135
31.0027
29.9718
29.0325
18.2456
23.172
24.9362
26.6426
27.64
28.604
29.2947
30.3477
31.2968
32.2588
32.5065
31.4147
-2.9781
-2.86542
-2.62665
-2.1235
-1.22308
0.43106
2.50243
4.27429
5.48569
5.92952
5.74181
5.25785
1.12904
1.24086
1.21792
1.39265
1.84981
2.54579
4.26837
6.13067
7.17404
7.33564
6.90187
6.28156
2.0432
2.95803
3.65745
5.7098
8.43888
10.1107
9.35211
9.52214
9.45139
9.04009
8.37557
7.76977
6.28534
6.02141
7.40805
13.0412
14.2677
14.4525
14.4738
13.9078
13.6013
11.7681
10.2166
10.8872
9.09108
9.51118
10.2298
11.1438
15.1226
15.9971
16.6524
16.9977
16.7713
16.5387
13.8726
15.8991
11.2241
11.7096
12.9115
14.6323
15.5137
16.6756
17.3192
17.7183
18.3834
19.9717
17.6429
20.0909
15.8891
15.8006
14.3685
15.9482
17.121
18.3226
19.2083
20.4804
21.3613
20.6879
23.1267
18.6558
19.5945
19.7189
20.0211
17.2521
18.298
19.8225
21.2904
23.0123
25.4597
26.5085
26.8612
26.4489
22.8233
22.7409
23.9215
20.1586
19.6794
21.4113
23.1927
25.3366
28.5134
31.6598
34.1377
37.248
25.6841
25.161
25.0913
20.9924
21.3569
23.0195
24.9459
28.178
31.8266
35.7568
40.7293
40.7945
28.4273
27.3531
24.3719
22.0872
23.108
24.5194
26.8879
31.5069
35.1116
38.8322
45.2938
45.7166
29.6744
27.4184
25.7073
24.2563
24.6801
25.7732
27.5913
31.2762
35.5966
39.8874
45.7584
49.2764
3.17473
3.13647
2.97527
2.69939
2.38366
1.99915
1.5622
1.09108
0.610062
0.153031
-0.247839
-0.513274
4.7852
4.67359
4.52967
4.33427
4.11651
3.91792
3.7459
3.60262
3.49291
3.41424
3.12364
2.01858
6.42428
6.2685
6.13348
6.0588
6.04052
6.1047
6.25024
6.47249
6.80893
7.43432
8.25908
8.36463
8.26838
8.14928
8.10786
8.18861
8.39033
8.7025
9.08565
9.48027
9.83041
10.1045
9.9592
9.15656
10.1909
10.1409
10.2585
10.5437
10.975
11.508
12.0601
12.5341
12.8509
13.0094
12.9835
12.7721
12.1629
12.2256
12.5136
13.0121
13.6553
14.3664
15.0222
15.5051
15.7354
15.7266
15.5514
15.3086
14.1813
14.3832
14.8353
15.5373
16.357
17.1972
17.8999
18.3417
18.4539
18.2688
17.8917
17.4689
16.2513
16.6259
17.224
18.1083
19.0544
19.9679
20.6657
21.0343
21.0183
20.6714
20.1127
19.5098
18.3667
18.9884
19.7094
20.7398
21.7406
22.6588
23.299
23.5719
23.4332
22.9533
22.2514
21.5057
20.4491
21.5047
22.3313
23.4464
24.4025
25.2402
25.7673
25.9288
25.685
25.1142
24.3186
23.4796
22.2632
24.1678
25.097
26.2059
27.0007
27.664
28.0266
28.0684
27.7454
27.1327
26.2971
25.4159
23.0855
26.7902
27.8425
28.8594
29.4259
29.8577
30.0309
29.958
29.5871
28.9802
28.1531
27.2721
-0.270309
0.62832
2.13776
4.09101
6.32539
8.40082
10.002
11.17
11.8025
11.9064
11.612
11.1567
2.08086
3.38914
5.42646
7.98683
10.5605
12.524
12.741
13.1912
13.3765
13.1646
12.6322
12.0139
8.17866
8.22193
8.65942
9.4241
10.4497
11.8214
13.4555
14.4881
14.777
14.4648
13.7399
12.8744
9.53376
10.5385
11.9409
13.5135
14.9923
15.4561
15.9032
16.4085
16.5692
16.1894
15.321
14.2129
12.81
13.2006
13.9395
14.9007
15.9814
16.8802
17.6872
18.3383
18.6673
18.4249
17.5701
16.309
15.1821
15.3023
15.7225
16.4297
17.364
18.3891
19.4831
20.4531
21.168
21.2738
20.6595
19.38
17.1607
17.0924
17.3399
17.9253
18.8482
20.0188
21.4379
22.8343
24.1093
24.7582
24.6561
23.5102
19.0241
18.7939
18.9115
19.42
20.3719
21.7005
23.4791
25.3739
27.3614
28.7428
29.4532
28.6501
20.8718
20.504
20.5023
20.9309
21.8849
23.3292
25.4299
27.8154
30.6006
32.8706
34.7034
34.5671
22.731
22.2467
22.1156
22.4368
23.3221
24.7881
27.0759
29.8167
33.326
36.5179
39.7601
40.6447
24.5806
24.0015
23.7156
23.8957
24.626
25.9856
28.2314
31.0466
34.9381
38.779
43.6263
45.4697
26.374
25.7082
25.2638
25.2584
25.7547
26.8676
28.7826
31.303
34.9625
38.6592
44.8509
46.5119
3.28594
3.24743
3.0838
2.80357
2.48273
2.0921
1.64859
1.17084
0.683764
0.221661
-0.183798
-0.447263
4.89935
4.78614
4.63947
4.44092
4.21966
4.01795
3.84312
3.69737
3.58668
3.50715
3.18626
1.98834
6.54531
6.38735
6.25016
6.1735
6.15396
6.21757
6.36308
6.58637
6.93199
7.58922
8.42406
8.48588
8.39631
8.27539
8.23338
8.31441
8.5169
8.82923
9.21053
9.59926
9.93879
10.1825
9.90061
9.24074
10.3258
10.2752
10.394
10.6815
11.115
11.648
12.1965
12.6623
12.9688
13.1213
13.0716
12.887
12.304
12.3671
12.6581
13.16
13.8055
14.5153
15.1656
15.6387
15.8579
15.845
15.6695
15.4407
14.3277
14.5307
14.9863
15.6913
16.5123
17.3492
18.0446
18.4759
18.5773
18.3874
18.0127
17.6041
16.4024
16.7775
17.3779
18.2636
19.209
20.1176
20.808
21.1673
21.1427
20.7924
20.2363
19.6468
18.5223
19.1418
19.8619
20.8912
21.8892
22.8026
23.4377
23.7056
23.5625
23.082
22.3828
21.649
20.6119
21.6582
22.4799
23.5903
24.5419
25.3771
25.9049
26.0686
25.8262
25.2583
24.465
23.6353
22.4476
24.3214
25.2499
26.3471
27.1331
27.7974
28.1687
28.2222
27.9076
27.3012
26.4662
25.5896
23.246
26.9376
28.0353
29.0258
29.5688
29.9989
30.1869
30.135
29.7794
29.1807
28.3507
27.4678
-0.165195
0.783436
2.34726
4.35487
6.64765
8.77693
10.4079
11.594
12.2345
12.3409
12.0453
11.5873
2.17939
3.56983
5.66954
8.28438
10.9153
12.9804
13.1774
13.6259
13.8108
13.5987
13.064
12.4431
8.30469
8.39315
8.88541
9.70015
10.7587
12.172
13.8473
14.9074
15.2047
14.8954
14.1689
13.3013
9.6989
10.7609
12.2109
13.8292
15.3611
15.9256
16.3388
16.8384
16.9977
16.6191
15.7491
14.6391
12.9655
13.4034
14.1841
15.1956
16.3211
17.2708
18.0936
18.7576
19.0925
18.8546
17.9996
16.7375
15.3411
15.4997
15.9629
16.71
17.6829
18.7491
19.8691
20.8632
21.5913
21.7062
21.0936
19.814
17.3184
17.2829
17.5654
18.1911
19.149
20.3621
21.8114
23.2406
24.5347
25.1977
25.0984
23.9525
19.1801
18.9794
19.1261
19.6751
20.6579
22.0336
23.8442
25.7813
27.7923
29.1935
29.9062
29.1013
21.0298
20.688
20.7095
21.1789
22.1585
23.6558
25.788
28.2262
31.0373
33.3344
35.1672
35.0247
22.8963
22.4321
22.3186
22.68
23.5841
25.1094
27.4252
30.2296
33.7643
36.9937
40.2304
41.1046
24.7557
24.1988
23.9146
24.1353
24.8778
26.2995
28.5662
31.4538
35.3677
39.2648
44.0984
45.9349
26.5616
25.9117
25.4601
25.4935
25.9986
27.1692
29.0916
31.6874
35.3622
39.1523
45.3405
46.9039
-14.5522
-14.7169
-14.8911
-15.1075
-15.3364
-15.548
-15.7052
-15.7651
-15.6869
-15.4397
-14.9996
-14.3607
-11.2506
-11.4216
-11.5054
-11.5178
-11.4698
-11.3597
-11.1742
-10.8927
-10.4997
-9.9877
-9.33812
-8.56563
-8.54045
-8.57783
-8.39294
-8.05073
-7.60091
-7.06959
-6.46511
-5.77827
-4.99573
-4.13618
-3.19101
-2.17869
-5.74982
-5.56843
-5.03261
-4.28492
-3.41868
-2.49003
-1.51221
-0.425931
0.91253
2.31789
3.66169
4.86785
-2.97489
-2.49849
-1.57997
-0.418449
0.836422
2.0882
3.31612
4.76141
6.77201
7.92498
9.28354
9.87396
-0.147783
0.641309
1.90218
3.40063
4.89413
6.22918
7.33072
9.09384
11.6269
12.5564
13.1473
13.3285
2.85961
3.94155
5.46916
7.21438
8.80135
10.0361
10.6432
13.3341
15.6743
15.8882
16.2505
16.4089
6.15564
7.50293
9.19463
11.0747
12.5698
13.4327
13.3829
18.1687
18.5791
18.7428
18.9803
19.1377
9.79842
11.4249
13.1687
15.0776
16.3665
16.8019
15.8018
20.3781
21.1327
21.1446
21.2292
21.4223
13.724
15.7885
17.4607
19.2699
20.27
20.372
18.8251
20.3682
23.3578
22.9981
22.9143
23.2645
17.6199
20.6149
22.0917
23.6042
24.2036
23.9913
22.5396
20.826
21.9216
22.9029
23.9234
24.2699
20.3643
25.5015
26.8566
27.8519
27.9667
27.4279
26.1439
24.688
24.2972
24.6794
25.5082
25.4403
-13.5582
-12.6117
-11.4237
-10.1623
-8.97396
-7.95811
-7.2084
-6.76596
-6.61269
-6.70023
-6.94892
-7.23586
-7.73909
-6.79745
-5.87194
-5.02129
-4.29269
-3.76489
-3.50334
-3.5143
-3.73558
-4.10912
-4.56913
-4.99536
-1.48076
-0.800872
-0.0925597
0.420031
0.699088
0.727598
0.442043
-0.0978492
-0.72575
-1.40161
-2.11619
-2.77652
5.2278
5.66044
6.05924
6.01828
5.7002
5.55036
4.87248
3.75394
2.74489
1.84205
0.875992
-0.0548748
10.249
10.5879
10.8147
11.09
11.3819
10.5559
9.55088
7.92058
6.69568
5.74944
4.5991
3.33829
13.4163
13.6766
13.8425
14.0488
14.295
14.6257
14.7371
13.2584
11.1339
10.4342
9.31281
7.71274
16.4745
16.5509
16.6169
16.7334
17.0568
17.7359
18.4247
18.6716
16.0199
15.7012
15.1822
13.482
19.0992
19.0158
18.9873
19.002
19.3813
20.5668
21.9806
23.1181
21.4873
21.7136
22.0617
21.2546
21.2686
21.0003
20.9106
20.7819
21.0876
22.6692
24.632
26.4678
26.2189
28.8738
32.1092
31.2495
23.038
22.5375
22.4497
22.1264
22.3196
24.3031
26.692
27.4018
30.8314
35.7134
40.7154
41.9278
24.3701
23.6385
23.7142
23.021
22.9035
24.7204
28.197
28.989
34.4865
40.4621
48.2131
52.3214
25.3369
22.9845
23.0737
23.1905
24.359
24.1742
26.92
30.269
34.8135
41.0305
50.9404
55.6952
23.5685
27.1334
27.5683
29.2429
30.1341
31.0522
31.5161
32.1988
32.5229
32.0375
30.375
29.9901
26.9971
28.9941
28.8022
30.2698
31.3296
32.7108
33.1044
33.6133
33.9291
34.2966
34.6584
33.6467
28.1778
29.9164
30.3745
31.6701
32.4757
33.1995
33.5279
34.6098
34.9798
35.3491
35.5667
34.5088
28.1668
30.4724
31.5325
32.5283
33.6719
37.3959
46.1252
47.7979
45.3438
43.9502
43.7615
41.9544
29.9021
28.8698
27.5099
25.8794
25.9023
26.6451
27.9717
29.9737
33.2027
36.8623
40.6476
39.3745
32.1529
30.561
28.4789
28.5782
27.2362
27.1639
27.7563
28.7134
30.2133
31.9155
34.1077
34.0539
32.7255
31.6376
31.2731
30.253
28.3517
27.6256
27.2527
26.9439
26.9023
27.6786
28.8211
30.1209
37.0151
32.7071
30.9437
30.6544
29.573
28.4392
26.9532
25.4483
23.7647
23.0617
23.482
26.232
28.9678
30.5303
30.4892
31.127
31.4839
31.7203
31.7394
31.5828
31.2003
30.6382
29.8543
29.0043
29.3572
31.3375
31.8251
32.5008
32.9385
33.1486
33.1265
32.9587
32.615
32.1297
31.4042
30.6009
29.1233
30.9172
32.2114
33.2782
33.8522
34.1504
34.2034
34.1189
33.8881
33.5248
32.8754
32.1147
27.9843
30.4701
32.4645
33.8189
34.5317
34.8977
35.0753
35.1611
35.1274
34.9523
34.4892
33.7934
28.0599
27.3225
26.7466
26.5172
26.6947
27.408
28.6934
30.5629
33.3057
35.9951
39.4254
38.529
29.6247
28.8536
28.2141
27.785
27.5578
27.6455
28.0422
28.9039
30.3892
32.1234
33.7235
33.6986
31.1912
30.4594
29.8124
29.2579
28.6317
27.8075
27.1136
26.6411
26.6452
27.7147
28.5843
30.278
32.8986
32.3051
31.6422
30.9171
29.9067
28.3766
26.5402
24.6876
22.9815
22.7897
23.9189
27.0481
27.97
30.4105
30.8033
31.3786
31.6789
31.8944
31.9244
31.7933
31.4302
30.8755
30.0834
29.2237
29.6832
31.5815
32.2521
32.9315
33.2394
33.3893
33.36
33.2128
32.8872
32.404
31.6621
30.8429
29.83
31.8864
33.0568
33.885
34.2785
34.4701
34.4941
34.4226
34.2029
33.8312
33.1524
32.3736
29.2126
31.8614
33.6713
34.6749
35.091
35.2853
35.4005
35.4818
35.4567
35.2678
34.7718
34.0342
28.2563
27.5351
26.94
26.7446
26.9323
27.6952
28.9622
30.8993
33.6422
36.4764
39.8594
39.4957
29.828
29.0744
28.408
28.0099
27.7805
27.9203
28.2618
29.1615
30.6365
32.5463
34.1178
34.5078
31.3898
30.682
29.9919
29.5085
28.8298
28.0695
27.2886
26.7954
26.7622
28.0797
28.8316
30.8096
33.0853
32.5301
31.7735
31.2141
30.1374
28.6023
26.6694
24.7405
22.9069
22.7166
23.9654
27.3567
29.1963
31.277
31.5555
31.7036
31.3497
30.4396
29.2468
28.2395
27.5551
27.5091
28.3132
28.5884
30.5492
32.73
32.89
33.5889
34.1753
32.9633
31.8663
31.3547
30.4705
29.9458
30.5461
30.103
30.3961
32.7853
33.805
35.0411
34.9779
34.5242
34.1054
34.4933
33.5741
32.358
32.1305
33.0985
29.6625
32.5007
34.1908
35.7539
39.6902
48.0115
50.5654
50.2995
48.9241
45.4289
40.211
34.2067
29.4764
30.6915
32.6924
31.0279
29.5932
24.3357
25.252
28.8801
32.988
37.4628
42.8629
40.7369
30.3787
29.4246
29.2954
30.3052
30.8516
24.487
25.054
26.4368
29.1587
32.3149
34.8949
34.1591
40.8744
44.0277
38.3962
31.4505
25.623
24.1165
23.0535
22.9447
24.0074
26.5573
28.0743
30.1793
34.0421
32.2028
29.5169
29.0173
25.8531
23.7552
21.2797
19.4026
18.4357
19.4458
22.1273
26.4584
28.3173
31.025
32.5727
33.645
34.5884
36.3106
37.7346
37.8333
37.6122
37.5888
37.3314
36.3343
29.408
31.7229
33.1645
34.3671
35.2284
35.7134
36.1278
36.5122
36.7925
36.9678
36.8655
36.0693
30.8508
32.6754
33.6504
34.8022
35.7458
35.8053
35.8723
36.2164
36.5351
36.7545
36.6485
35.8961
32.1634
33.5539
34.5892
38.4672
37.6566
36.0227
35.8005
36.1342
36.464
36.7135
36.6524
35.9569
34.6118
33.7943
32.6741
31.821
30.6454
29.2532
27.5306
25.6075
23.5241
22.2587
22.3364
24.6866
34.7785
34.0651
33.1942
32.351
31.3465
30.161
28.7307
27.1228
25.591
24.9364
25.0163
26.4361
34.6782
34.1534
33.4405
32.703
31.8711
30.9102
29.7786
28.5281
27.3982
26.8089
27.1856
28.3442
34.2853
34.0355
33.4761
32.9031
32.2485
31.5062
30.661
29.7621
28.9916
28.6477
28.9668
29.8738
27.5305
30.2965
32.5428
33.9624
34.6677
34.9615
35.1075
35.2262
35.3032
35.2674
34.9804
34.5316
28.536
30.7266
32.5274
33.6733
34.2634
34.5426
34.6891
34.782
34.8149
34.7946
34.6893
34.4127
29.8465
31.4069
32.6749
33.5155
33.9848
34.2479
34.4152
34.5445
34.6533
34.7058
34.6515
34.4011
30.974
32.077
32.9297
33.5226
33.8784
34.1167
34.3014
34.4718
34.6218
34.7304
34.719
34.4845
33.9778
33.5905
33.0038
32.1633
30.9774
29.3065
27.2229
24.9827
22.904
22.1618
23.0018
25.8415
34.0233
33.7611
33.2956
32.6102
31.6566
30.3502
28.7344
27.0265
25.674
25.3992
25.835
27.6013
34.0112
33.8517
33.4774
32.927
32.1801
31.1913
29.993
28.7605
27.8621
27.7254
28.2363
29.5286
33.8332
33.8029
33.5301
33.1181
32.5619
31.8488
31.0127
30.186
29.6241
29.5819
30.0499
30.9951
29.03
31.8634
33.8737
34.9073
35.2817
35.4027
35.492
35.6004
35.6715
35.5947
35.2832
34.7964
29.9302
32.1135
33.6676
34.5095
34.8681
35.0223
35.1171
35.1871
35.207
35.1773
35.0331
34.7137
31.0829
32.5579
33.6078
34.2361
34.5536
34.7361
34.8651
34.9738
35.0649
35.1045
35.0192
34.7222
32.05
33.0319
33.7035
34.151
34.4103
34.5993
34.7593
34.915
35.0511
35.1459
35.1092
34.8272
34.21
33.8314
33.2142
32.4369
31.2277
29.5265
27.3666
25.0293
22.8328
22.0824
23.0037
26.0597
34.2895
34.0288
33.5547
32.8933
31.9329
30.6052
28.9382
27.1613
25.7447
25.4477
25.952
27.8954
34.2872
34.1305
33.7549
33.2165
32.4717
31.4753
30.2513
28.9813
28.0558
27.9314
28.5039
29.9438
34.1027
34.082
33.8123
33.4104
32.862
32.1529
31.3124
30.4762
29.9131
29.8972
30.4236
31.488
29.4796
32.4278
34.3167
34.9871
34.8184
34.5081
35.7607
36.2229
36.0953
34.6484
32.1437
32.4346
30.427
32.7086
34.1585
34.2734
33.733
33.3945
33.9321
34.7128
34.8511
34.2021
32.9954
33.0391
31.664
33.2414
34.2882
34.5751
34.4743
32.9876
33.7961
34.389
34.5478
34.1887
33.5144
33.4586
32.695
33.8106
34.6357
34.8944
34.5678
33.3142
33.863
34.341
34.4872
34.2669
33.8465
33.7285
33.9249
33.7519
31.9362
30.2973
27.6087
24.9728
22.1962
19.7471
18.1509
18.5334
20.7798
24.8858
33.7052
33.4815
32.3894
31.0468
29.1115
27.0514
24.9549
23.2213
22.3726
22.8086
24.1756
26.784
33.6326
33.4535
32.7433
31.712
30.2989
28.7532
27.2258
26.0238
25.5206
25.9838
27.1527
29.0034
33.5997
33.4632
32.9947
32.2403
31.2261
30.1179
29.064
28.2884
28.0418
28.4726
29.4421
30.8133
33.1858
34.1785
34.7122
38.7761
37.4278
36.2312
35.9161
36.1659
36.4884
36.7539
36.8087
36.5994
33.9502
34.7069
35.2999
36.4063
36.3191
36.081
36.0098
36.2289
36.5361
36.8057
36.9417
36.9396
34.5128
35.1796
36.1489
37.7513
36.2682
35.8789
36.033
36.281
36.5791
36.8449
37.0157
37.0753
34.9196
35.5397
36.5814
38.4561
35.9763
35.7423
36.0356
36.319
36.6115
36.8672
37.0455
37.1308
35.2036
35.7837
36.7031
37.6989
35.5966
35.7181
36.0581
36.3535
36.6341
36.8744
37.0473
37.1424
35.3874
35.9469
36.7984
36.2649
35.459
35.774
36.1041
36.3863
36.6473
36.8692
37.0314
37.1276
35.4807
36.0421
36.456
35.8752
35.6384
35.8806
36.1583
36.4129
36.6512
36.8546
37.0047
37.0976
35.5346
36.0338
36.0141
36.0004
35.8333
35.9849
36.2051
36.4296
36.6465
36.8335
36.9727
37.0609
35.5293
35.844
36.2988
36.1956
35.9822
36.0637
36.2366
36.4357
36.635
36.8094
36.9401
37.0237
35.4768
36.1868
36.7914
36.3133
36.0797
36.1103
36.2505
36.4318
36.6192
36.7851
36.9107
36.9913
35.328
36.7611
36.9276
36.3797
36.1244
36.1248
36.2477
36.4201
36.6015
36.7633
36.8871
36.9676
35.8148
37.9908
37.0207
36.4022
36.1265
36.1148
36.2334
36.4043
36.5848
36.7458
36.8705
36.9556
33.6565
33.8161
33.4586
33.0206
32.5112
31.9451
31.3313
30.7201
30.2417
30.0823
30.3562
31.0191
33.6593
33.6955
33.4338
33.0931
32.6929
32.2591
31.8163
31.4146
31.145
31.1096
31.3523
31.8264
33.6565
33.6202
33.4122
33.139
32.8178
32.4787
32.1542
31.891
31.7512
31.7896
32.0093
32.358
33.6264
33.5651
33.3931
33.1673
32.9032
32.6316
32.3864
32.2099
32.1452
32.2215
32.4209
32.693
33.5868
33.5197
33.3742
33.183
32.9613
32.7382
32.5467
32.4241
32.4023
32.4949
32.6772
32.9047
33.5477
33.4805
33.3547
33.1894
32.9998
32.8129
32.6592
32.5712
32.5737
32.6726
32.842
33.0436
33.5113
33.4459
33.3346
33.189
33.0241
32.8647
32.7387
32.6744
32.6917
32.7926
32.9525
33.1384
33.4782
33.4153
33.3143
33.1833
33.0373
32.8991
32.7941
32.7473
32.7747
32.8762
33.029
33.2046
33.4492
33.3885
33.2945
33.1738
33.0415
32.9193
32.8306
32.7974
32.8327
32.935
33.083
33.2516
33.4256
33.3661
33.2757
33.1612
33.0382
32.9273
32.8508
32.8285
32.8713
32.976
33.122
33.2862
33.409
33.3485
33.2586
33.1467
33.0285
32.9246
32.8567
32.8434
32.8939
33.0037
33.1511
33.3139
33.401
33.3363
33.2443
33.1321
33.0154
32.9147
32.852
32.8458
32.9042
33.0208
33.1726
33.3366
31.8192
32.6021
33.165
33.5825
33.8553
34.0731
34.2666
34.4581
34.6348
34.7798
34.8439
34.8541
32.3982
32.9567
33.3316
33.6381
33.8626
34.0694
34.2715
34.4673
34.6549
34.8167
34.9283
35.0084
32.7692
33.1775
33.4429
33.6857
33.8858
34.0852
34.2854
34.4826
34.6703
34.8349
34.9616
35.0448
33.0015
33.3157
33.5238
33.7315
33.9179
34.1097
34.304
34.4961
34.678
34.8378
34.9645
35.0476
33.1516
33.4087
33.5882
33.7754
33.952
34.1351
34.3212
34.505
34.6785
34.8304
34.9515
35.0331
33.2542
33.4755
33.6414
33.8144
33.9826
34.157
34.3343
34.509
34.6733
34.8165
34.9302
35.0082
33.3273
33.5254
33.6832
33.8462
34.0073
34.1738
34.3428
34.5088
34.6643
34.799
34.905
34.9783
33.3799
33.5621
33.7146
33.8703
34.0255
34.1853
34.347
34.5053
34.6529
34.7801
34.8792
34.9476
33.4178
33.589
33.7373
33.8875
34.0378
34.1921
34.3478
34.4997
34.6405
34.7615
34.855
34.9192
33.4462
33.6095
33.754
33.8994
34.0455
34.1952
34.3461
34.4929
34.6285
34.7447
34.8344
34.8955
33.4697
33.6271
33.7673
33.9081
34.05
34.1958
34.343
34.4859
34.6178
34.7307
34.8183
34.879
33.4897
33.6429
33.7783
33.9146
34.0527
34.1952
34.3395
34.4799
34.6092
34.72
34.8074
34.871
33.53
33.7079
33.5388
33.24
32.8292
32.3208
31.7569
31.2399
30.9348
30.9738
31.3539
32.0135
33.5976
33.6709
33.5435
33.3203
33.0138
32.6502
32.2755
31.9692
31.8293
31.9314
32.2373
32.6883
33.6496
33.6547
33.5488
33.3747
33.1402
32.8752
32.6245
32.4507
32.4133
32.5455
32.7994
33.1181
33.6666
33.6433
33.5523
33.4111
33.2267
33.0285
32.8576
32.7636
32.7828
32.9256
33.1443
33.3875
33.6651
33.6313
33.5522
33.4344
33.2858
33.1338
33.0148
32.9676
33.0176
33.1619
33.3574
33.5605
33.6558
33.6178
33.548
33.4477
33.3258
33.2068
33.1228
33.105
33.1714
33.3138
33.4943
33.6769
33.6423
33.603
33.5404
33.4535
33.3518
33.2574
33.1981
33.1999
33.2757
33.4155
33.5863
33.7581
33.6267
33.5874
33.5301
33.4532
33.3669
33.2913
33.2505
33.2663
33.3482
33.4859
33.6499
33.8146
33.6108
33.5718
33.5179
33.448
33.3732
33.3118
33.2852
33.3119
33.3988
33.5353
33.6948
33.8548
33.5965
33.5573
33.5047
33.4389
33.3718
33.3207
33.3052
33.341
33.4332
33.5705
33.7278
33.8847
33.5859
33.5447
33.491
33.4267
33.3639
33.3195
33.3122
33.3565
33.4552
33.5962
33.7542
33.9097
33.5811
33.5348
33.4784
33.4135
33.352
33.3112
33.3098
33.3614
33.4675
33.6146
33.7757
33.9313
32.736
33.4029
33.8276
34.1479
34.3615
34.5509
34.732
34.9115
35.0781
35.2122
35.2587
35.2423
33.1805
33.6452
33.9234
34.1674
34.3569
34.5468
34.7381
34.9295
35.1099
35.2639
35.3648
35.4323
33.4585
33.796
33.9955
34.1986
34.3775
34.5661
34.7592
34.9525
35.1351
35.2943
35.4147
35.4918
33.6368
33.8979
34.0578
34.2392
34.4114
34.5952
34.7842
34.9725
35.1506
35.3067
35.4296
35.5097
33.7587
33.9726
34.1182
34.2836
34.4487
34.6249
34.8064
34.9867
35.1571
35.3062
35.425
35.5052
33.8479
34.0323
34.171
34.3251
34.4828
34.6505
34.8233
34.9946
35.1562
35.2971
35.4092
35.4868
33.9137
34.0799
34.2142
34.3598
34.5104
34.6702
34.8345
34.9971
35.1499
35.2826
35.3874
35.4608
33.9623
34.1161
34.247
34.3862
34.5309
34.6835
34.8403
34.9951
35.1399
35.2652
35.3633
35.432
33.9974
34.1427
34.2707
34.4047
34.5443
34.6912
34.8417
34.9898
35.128
35.2471
35.3397
35.4042
34.0235
34.1624
34.2872
34.4167
34.5518
34.694
34.8396
34.9826
35.1156
35.2299
35.3188
35.3804
34.0451
34.1785
34.2992
34.424
34.555
34.6934
34.8353
34.9746
35.1038
35.215
35.3019
35.3631
34.0637
34.1922
34.308
34.4283
34.5555
34.6908
34.8301
34.967
35.0939
35.2031
35.2898
35.3542
33.785
33.9835
33.821
33.5322
33.132
32.6341
32.0796
31.572
31.2804
31.3498
31.7759
32.5214
33.8617
33.9466
33.8255
33.6116
33.3162
32.9657
32.606
32.3177
32.1992
32.3244
32.6582
33.1618
33.919
33.931
33.8306
33.6649
33.4408
33.1887
32.9539
32.7988
32.7794
32.9256
33.1878
33.5293
33.9389
33.9203
33.8341
33.7002
33.5251
33.3384
33.1814
33.1017
33.1332
33.279
33.4867
33.7267
33.9391
33.909
33.834
33.7225
33.582
33.4397
33.3316
33.2939
33.3493
33.485
33.6509
33.8259
33.9311
33.8961
33.8299
33.7351
33.6201
33.509
33.4328
33.4203
33.4845
33.6076
33.7406
33.8686
33.9187
33.8819
33.8226
33.7404
33.6445
33.5564
33.5022
33.505
33.5717
33.6826
33.7876
33.875
33.904
33.8669
33.8126
33.7399
33.6585
33.5877
33.5497
33.5627
33.6295
33.7294
33.8094
33.8565
33.8889
33.852
33.8009
33.7348
33.6642
33.6064
33.5807
33.6016
33.6685
33.76
33.8183
33.8367
33.8753
33.8382
33.7882
33.726
33.6627
33.6144
33.5984
33.6264
33.6951
33.7823
33.8255
33.8253
33.8653
33.8261
33.7752
33.7144
33.6552
33.6133
33.6049
33.6401
33.7139
33.8023
33.8373
33.8126
33.8607
33.8167
33.7631
33.7018
33.6441
33.6059
33.6034
33.6459
33.7269
33.821
33.8499
33.7878
33.3835
34.2161
34.895
34.3868
34.4286
33.6582
34.0255
34.3932
34.5198
34.3897
34.1396
34.0761
33.7754
34.4179
34.991
33.8281
34.339
33.9463
34.2008
34.4717
34.5777
34.5143
34.3971
34.402
33.9715
34.4885
34.0958
34.0993
34.4162
34.185
34.3571
34.5512
34.6392
34.6194
34.5792
34.6139
34.0594
34.5043
33.7549
34.3441
34.4877
34.3673
34.4814
34.6193
34.6928
34.6992
34.7002
34.7521
34.0947
34.038
34.1704
34.484
34.5573
34.4974
34.5734
34.6722
34.7341
34.755
34.7773
34.8378
34.1257
33.8016
34.5611
34.5829
34.6201
34.5879
34.6385
34.71
34.7622
34.7902
34.8229
34.886
34.0262
34.106
34.7056
34.6609
34.6718
34.6502
34.6826
34.7344
34.7781
34.8088
34.8454
34.9074
33.8903
34.5039
34.7533
34.7179
34.7114
34.6917
34.7105
34.7474
34.7835
34.814
34.8512
34.9102
33.9331
34.7981
34.8093
34.7599
34.7399
34.7176
34.7252
34.7506
34.7801
34.8092
34.8455
34.9009
34.0994
34.9809
34.8613
34.7911
34.7585
34.731
34.7293
34.7457
34.7696
34.7968
34.8323
34.8852
34.2788
35.059
34.8971
34.8124
34.7687
34.7344
34.7248
34.7342
34.7537
34.7791
34.8146
34.8681
34.7127
35.1533
34.9192
34.8252
34.7728
34.7312
34.7149
34.7194
34.7356
34.7595
34.7958
34.854
33.631
33.5424
33.21
32.6508
31.9197
31.1438
30.4551
30.0162
29.9772
30.3999
31.1829
32.1973
33.786
33.6638
33.3891
32.9624
32.4298
31.8944
31.4694
31.2736
31.3867
31.8166
32.4625
33.2191
33.8936
33.7601
33.527
33.1929
32.7984
32.4305
32.1848
32.1482
32.3611
32.799
33.3576
33.9468
33.957
33.8244
33.6263
33.3598
33.0627
32.8098
32.6817
32.7415
33.0151
33.4541
33.9597
34.452
33.9873
33.8618
33.6933
33.4779
33.2515
33.0788
33.028
33.1487
33.4522
33.8863
34.359
34.8001
33.9945
33.8783
33.7345
33.559
33.3855
33.2707
33.2724
33.4305
33.7484
34.1752
34.6258
35.0414
33.9854
33.8786
33.7552
33.6112
33.4788
33.4075
33.4467
33.6291
33.9537
34.3727
34.8062
35.2124
33.9652
33.8669
33.7595
33.6405
33.5404
33.503
33.5708
33.7707
34.0988
34.5109
34.9277
35.2983
33.9383
33.8467
33.7509
33.6508
33.5758
33.5652
33.656
33.8703
34.2022
34.6098
35.0126
35.3539
33.9095
33.8213
33.7322
33.6448
33.5882
33.5984
33.7085
33.9368
34.2751
34.6832
35.0773
35.3877
33.884
33.7936
33.7058
33.6252
33.5806
33.606
33.7324
33.9755
34.3256
34.7415
35.1346
35.4056
33.866
33.7671
33.6766
33.598
33.5594
33.5949
33.7344
33.9926
34.3578
34.7874
35.1837
35.4215
)
;

boundaryField
{
    rotor
    {
        type            zeroGradient;
    }
    stator
    {
        type            zeroGradient;
    }
    front
    {
        type            empty;
    }
    back
    {
        type            empty;
    }
}


// ************************************************************************* //
