/*--------------------------------*- C++ -*----------------------------------*\
| =========                 |                                                 |
| \\      /  F ield         | OpenFOAM: The Open Source CFD Toolbox           |
|  \\    /   O peration     | Version:  v1606+                                |
|   \\  /    A nd           | Web:      www.OpenFOAM.com                      |
|    \\/     M anipulation  |                                                 |
\*---------------------------------------------------------------------------*/
FoamFile
{
    version     2.0;
    format      ascii;
    class       surfaceVectorField;
    location    "1.3";
    object      Uf;
}
// * * * * * * * * * * * * * * * * * * * * * * * * * * * * * * * * * * * * * //

dimensions      [0 1 -1 0 0 0 0];

internalField   nonuniform List<vector> 
1460
(
(0.12875 0.0272079 4.57236e-20)
(0.135722 0.0428035 2.33205e-20)
(0.120959 0.0196342 4.43628e-20)
(0.127088 0.0434877 -8.57625e-20)
(0.111279 0.0117628 1.04623e-20)
(0.119488 0.0363668 7.12478e-20)
(0.101755 0.00428499 1.58817e-20)
(0.10983 0.0264964 1.56383e-20)
(0.0938069 -0.00280673 2.6944e-20)
(0.102129 0.0156013 1.18956e-20)
(0.0877596 -0.00925915 1.07338e-20)
(0.0964119 0.00513433 -5.15441e-21)
(0.0831946 -0.0151316 1.08085e-20)
(0.0925523 -0.00399913 -7.3411e-21)
(0.0795086 -0.0209259 0)
(0.0899562 -0.0119519 7.53297e-20)
(0.0764745 -0.0272178 -8.68067e-20)
(0.0879094 -0.0197356 -7.5725e-20)
(0.0743957 -0.0340267 4.64477e-20)
(0.0862821 -0.0282927 -4.77004e-20)
(0.0743983 -0.0409708 -8.84927e-20)
(0.0854496 -0.0389902 1.77161e-19)
(0.0872676 -0.0516575 -1.82546e-19)
(0.0768649 -0.0479435 -8.29115e-20)
(0.13528 0.0545829 -1.11081e-19)
(0.148369 0.0535074 -2.95647e-20)
(0.126648 0.0538863 -5.8596e-20)
(0.137454 0.0601695 -1.14847e-19)
(0.117742 0.0452418 8.08128e-20)
(0.127913 0.0545289 2.31555e-20)
(0.110305 0.0329982 1.16483e-20)
(0.12032 0.0415716 5.09747e-20)
(0.104814 0.0197513 -2.06658e-20)
(0.114598 0.0256976 -2.14774e-21)
(0.101278 0.00751442 -2.34523e-20)
(0.110404 0.00991654 -4.83354e-21)
(0.0994056 -0.00282097 5.80587e-20)
(0.107984 -0.00390419 -3.13558e-21)
(0.0982362 -0.0119185 2.26425e-23)
(0.107613 -0.0151833 7.80406e-20)
(0.0972651 -0.0219885 -3.73885e-20)
(0.108245 -0.0265526 -1.11798e-19)
(0.0966297 -0.035173 7.97463e-20)
(0.108531 -0.0404774 4.04363e-20)
(0.0978706 -0.0528416 8.04209e-20)
(0.108217 -0.0603971 -2.56253e-20)
(0.110414 -0.0876489 -2.31535e-20)
(0.102767 -0.0765312 3.19162e-19)
(0.147109 0.0627527 -2.80052e-20)
(0.161731 0.0663607 4.85205e-20)
(0.136405 0.0653304 -2.95913e-20)
(0.148831 0.0770086 2.8724e-20)
(0.129007 0.0553803 -9.80108e-21)
(0.141717 0.0694549 -5.00646e-21)
(0.124062 0.0387019 3.64525e-20)
(0.138085 0.0523777 -1.81982e-20)
(0.120549 0.0198555 1.40499e-20)
(0.135369 0.0318105 2.14024e-20)
(0.118147 0.0016035 1.72887e-20)
(0.132731 0.0111784 -3.699e-21)
(0.117253 -0.0144942 1.72887e-20)
(0.130543 -0.00781222 4.78432e-20)
(0.117995 -0.0283048 -3.39151e-20)
(0.130128 -0.0240604 -1.2046e-19)
(0.1192 -0.0425342 -3.39151e-20)
(0.131289 -0.0393717 2.95917e-20)
(0.120617 -0.0628131 -6.73958e-20)
(0.131637 -0.0595092 5.62215e-20)
(0.123365 -0.0931629 -1.32765e-19)
(0.1308 -0.090654 1.08947e-19)
(0.132568 -0.130819 -1.17625e-19)
(0.128892 -0.129448 -1.31441e-19)
(0.159039 0.0789298 1.06197e-19)
(0.177648 0.078668 8.31713e-20)
(0.151667 0.0811712 5.45376e-20)
(0.164782 0.0893999 4.75364e-20)
(0.149723 0.0671084 -1.37295e-20)
(0.164075 0.0783127 2.793e-20)
(0.149214 0.0460099 -3.47166e-20)
(0.165214 0.0578981 -5.49885e-20)
(0.148277 0.0232264 3.46092e-21)
(0.164515 0.0343581 1.6724e-20)
(0.146687 0.00140528 2.70031e-20)
(0.161893 0.0107444 -3.80836e-21)
(0.144723 -0.0182049 -9.22311e-20)
(0.158496 -0.0111314 5.59402e-20)
(0.143255 -0.0362282 -5.86313e-20)
(0.155987 -0.0309618 -1.49137e-19)
(0.141907 -0.0573374 1.21175e-19)
(0.154424 -0.0503913 1.42915e-19)
(0.140909 -0.0887483 2.35256e-19)
(0.150956 -0.0779454 4.79128e-21)
(0.141306 -0.130507 1.20786e-19)
(0.146337 -0.119287 1.80648e-19)
(0.144935 -0.16469 -9.82663e-20)
(0.143785 -0.170181 -5.33796e-20)
(0.174906 0.0884114 2.33576e-20)
(0.195447 0.0878779 6.93231e-20)
(0.174457 0.0877064 2.04543e-20)
(0.186635 0.094634 1.78563e-21)
(0.178438 0.0706027 -1.26141e-20)
(0.194019 0.0811468 0)
(0.180433 0.0477366 -3.33376e-21)
(0.19845 0.0606868 -1.27761e-20)
(0.179272 0.023061 9.3869e-21)
(0.197815 0.0370024 9.50748e-21)
(0.175932 -0.00123573 2.51023e-20)
(0.193048 0.012001 0)
(0.171759 -0.0234483 3.22934e-22)
(0.186619 -0.012246 -1.96981e-20)
(0.167141 -0.0444905 5.38395e-20)
(0.180948 -0.034454 -3.45739e-21)
(0.162239 -0.071003 2.64714e-20)
(0.175482 -0.0578973 7.67438e-20)
(0.156647 -0.109993 -5.27787e-20)
(0.16663 -0.0916651 -4.84621e-20)
(0.151369 -0.155876 -4.47668e-20)
(0.155925 -0.138755 9.68487e-20)
(0.148759 -0.183255 -8.30857e-20)
(0.148382 -0.191737 -3.59895e-20)
(0.196261 0.0916549 4.86638e-20)
(0.214969 0.0904264 6.31342e-20)
(0.204341 0.0876578 -1.92683e-20)
(0.214592 0.0923406 -1.94981e-20)
(0.21287 0.0709305 0)
(0.228461 0.0795456 1.48732e-20)
(0.215814 0.049872 0)
(0.23504 0.0624389 -7.04266e-21)
(0.213144 0.0258266 0)
(0.233971 0.0411782 -7.78156e-21)
(0.206445 0.000612611 -4.55539e-20)
(0.226246 0.0166692 0)
(0.197898 -0.0237536 -2.26646e-20)
(0.215131 -0.0089031 -3.00089e-20)
(0.188952 -0.0481688 1.83516e-20)
(0.204537 -0.0336111 -2.17792e-20)
(0.179343 -0.0792355 1.47434e-21)
(0.193981 -0.0606166 -1.33434e-20)
(0.167566 -0.122154 1.03169e-19)
(0.179072 -0.0981332 3.75148e-20)
(0.154812 -0.167705 5.6844e-20)
(0.161076 -0.146601 7.08781e-20)
(0.146778 -0.18799 -3.80704e-20)
(0.145856 -0.198032 -3.67403e-20)
(0.222242 0.0872112 -5.30771e-21)
(0.235209 0.0847073 -1.11212e-20)
(0.237817 0.0823018 1.50527e-20)
(0.245483 0.0836247 -2.09385e-20)
(0.24943 0.0693038 8.8718e-21)
(0.262648 0.0745121 4.6049e-20)
(0.253063 0.0525635 -1.48067e-20)
(0.270774 0.06305 -2.65126e-20)
(0.248675 0.0312967 -7.87547e-21)
(0.269947 0.0468074 -7.96311e-21)
(0.237882 0.00653594 1.62824e-20)
(0.260497 0.0251356 -1.05776e-20)
(0.223784 -0.019416 -2.91393e-20)
(0.244837 -0.000537688 3.7949e-20)
(0.209412 -0.0467219 -5.32158e-20)
(0.227748 -0.0279059 -1.33966e-20)
(0.194006 -0.0806206 2.28105e-20)
(0.210908 -0.0577125 -1.91073e-20)
(0.175108 -0.124425 3.64379e-21)
(0.189862 -0.0966645 -2.73074e-20)
(0.154246 -0.167962 -2.78894e-20)
(0.164295 -0.143847 3.04546e-20)
(0.141961 -0.182366 -2.6677e-20)
(0.139005 -0.19436 -9.60194e-20)
(0.249449 0.0768495 -2.5878e-20)
(0.255274 0.072318 -3.65495e-20)
(0.269859 0.073008 8.65686e-21)
(0.273585 0.0703738 -3.39187e-20)
(0.283155 0.0655057 1.23164e-20)
(0.289345 0.066497 5.06332e-20)
(0.287499 0.0550144 -1.95229e-20)
(0.296035 0.0616607 -2.24316e-20)
(0.282822 0.0389713 -1.06967e-20)
(0.295535 0.0520684 0)
(0.269739 0.016843 1.18022e-20)
(0.287675 0.0356294 -1.66082e-20)
(0.250645 -0.00984977 5.23257e-20)
(0.272147 0.0121515 2.2426e-20)
(0.22949 -0.0397579 2.24862e-20)
(0.250863 -0.0166054 2.46689e-20)
(0.207687 -0.0752314 -6.87925e-20)
(0.227406 -0.0492063 -5.04963e-20)
(0.181798 -0.117994 6.18401e-21)
(0.200555 -0.0882163 -3.31053e-20)
(0.152945 -0.159237 2.96823e-20)
(0.168312 -0.132881 7.31206e-20)
(0.137637 -0.169427 -1.94358e-20)
(0.130513 -0.184169 -4.8981e-20)
(0.273037 0.0630456 -4.43955e-20)
(0.272995 0.0578741 -3.20513e-20)
(0.292313 0.061811 6.67833e-21)
(0.291731 0.0566957 -2.48579e-21)
(0.301795 0.0603135 1.56133e-20)
(0.29618 0.0588305 1.21742e-20)
(0.304111 0.0560416 -3.98414e-21)
(0.29517 0.0595942 -2.08383e-21)
(0.30081 0.0458764 -5.86105e-21)
(0.293165 0.055094 0)
(0.291005 0.0283899 -5.21383e-21)
(0.289565 0.0437431 -6.31778e-21)
(0.273406 0.00358854 -5.00262e-21)
(0.28167 0.0247015 1.74087e-21)
(0.249291 -0.0273817 -4.70763e-20)
(0.266021 -0.00222766 2.05574e-21)
(0.221579 -0.0638393 -1.38686e-20)
(0.242208 -0.0357268 -3.39829e-20)
(0.189656 -0.105019 3.81304e-20)
(0.211666 -0.0745009 4.11003e-20)
(0.15392 -0.144037 1.84959e-20)
(0.174826 -0.116472 1.44728e-20)
(0.137003 -0.151557 5.58343e-21)
(0.123455 -0.169155 1.52857e-21)
(0.288553 0.0530977 1.21171e-20)
(0.282013 0.0458426 -9.27492e-21)
(0.293983 0.0542393 4.71173e-21)
(0.285636 0.0503758 1.22294e-20)
(0.28934 0.0571724 -6.38182e-21)
(0.270248 0.0583227 -7.47398e-21)
(0.284635 0.0562492 1.11049e-21)
(0.259122 0.0604571 1.12078e-21)
(0.282135 0.0493703 -4.0316e-22)
(0.254655 0.0564567 0)
(0.27998 0.0358505 8.68282e-22)
(0.254725 0.0465576 5.97045e-22)
(0.273864 0.0152077 6.32496e-21)
(0.256531 0.0307592 1.28323e-21)
(0.258951 -0.0129106 1.0251e-20)
(0.255032 0.00831981 -1.40225e-21)
(0.233422 -0.0480017 1.93026e-20)
(0.244002 -0.0215145 5.43626e-21)
(0.199192 -0.0876149 1.49417e-20)
(0.219668 -0.0582224 2.61246e-20)
(0.158877 -0.1249 -3.01936e-21)
(0.183407 -0.0973451 1.03498e-21)
(0.141692 -0.131227 1.33131e-21)
(0.121212 -0.150716 5.39362e-21)
(0.282791 0.0406398 -9.36169e-21)
(0.269518 0.0495249 -4.79813e-21)
(0.259753 0.0518228 0)
(0.241623 0.0572121 0)
(0.240216 0.0595996 0)
(0.214192 0.0646002 0)
(0.229899 0.0586683 0)
(0.200199 0.0638266 -5.91229e-22)
(0.227518 0.0511106 3.55756e-22)
(0.196136 0.0572836 -1.16163e-22)
(0.230836 0.0381031 3.55756e-22)
(0.198081 0.0458434 2.76946e-21)
(0.236544 0.0200212 -6.3711e-21)
(0.204202 0.0301682 -3.28014e-21)
(0.238913 -0.00360717 -6.3711e-21)
(0.212241 0.0104968 1.80911e-21)
(0.23036 -0.0335945 1.07864e-20)
(0.2172 -0.0139415 0)
(0.205585 -0.0690079 1.07864e-20)
(0.21099 -0.0442579 -1.7162e-20)
(0.167298 -0.104237 2.4663e-21)
(0.187526 -0.0786364 1.72354e-20)
(0.149966 -0.110774 3.37107e-20)
(0.125686 -0.130663 -3.94246e-21)
(0.233755 0.0686213 8.74062e-21)
(0.205436 0.082378 -5.92889e-21)
(0.192766 0.0680281 0)
(0.175828 0.0750427 1.08728e-22)
(0.174339 0.0673564 -5.96466e-22)
(0.15532 0.0702063 0)
(0.167143 0.0621357 -9.91898e-22)
(0.14658 0.0652598 5.4567e-22)
(0.16689 0.0523007 2.31474e-21)
(0.145658 0.0566571 3.92244e-22)
(0.171441 0.038186 -8.77258e-22)
(0.148751 0.0440388 -7.6669e-22)
(0.179489 0.0202699 5.51753e-21)
(0.15436 0.0278539 -3.84248e-21)
(0.189527 -0.0010536 9.06179e-21)
(0.161812 0.00863636 2.2514e-20)
(0.197035 -0.0260365 -3.06522e-20)
(0.170221 -0.0130599 9.78041e-21)
(0.193013 -0.055048 -1.2998e-20)
(0.17622 -0.0372472 -4.18138e-20)
(0.170843 -0.0856806 4.88873e-20)
(0.172073 -0.0645092 1.7533e-20)
(0.13467 -0.1113 2.4004e-21)
(0.151281 -0.0922621 -1.15117e-20)
(0.0806163 -0.0573921 -9.96909e-20)
(0.093303 -0.0676865 4.19851e-19)
(0.0826727 -0.0731424 -4.39264e-20)
(0.101251 -0.0868565 -3.39913e-19)
(0.0824038 -0.0924016 1.93888e-19)
(0.107776 -0.105443 5.10895e-20)
(0.0823975 -0.105951 -1.53722e-19)
(0.113495 -0.118325 0)
(0.0829537 -0.109577 -2.02939e-19)
(0.117355 -0.122832 -6.17829e-20)
(0.0816584 -0.106694 -1.04514e-19)
(0.116467 -0.122087 3.7801e-20)
(0.0740195 -0.0997642 -5.52967e-20)
(0.114516 -0.116281 2.14006e-20)
(0.0610103 -0.0942161 0)
(0.10288 -0.112034 0)
(0.0451822 -0.0945109 0)
(0.0822505 -0.11089 0)
(0.0301043 -0.103837 5.86136e-20)
(0.0546613 -0.113479 0)
(0.0219701 -0.119629 5.86136e-20)
(0.0293437 -0.120342 5.97035e-20)
(0.0209023 -0.128977 -4.96083e-20)
(0.111276 -0.104319 1.92727e-19)
(0.117789 -0.119106 2.22344e-19)
(0.122203 -0.128196 -2.34978e-19)
(0.127946 -0.145926 -1.40265e-19)
(0.133484 -0.141089 -1.49178e-19)
(0.138509 -0.161256 -2.04942e-19)
(0.143022 -0.143755 7.97523e-20)
(0.148737 -0.166349 5.374e-20)
(0.148166 -0.141283 1.62224e-19)
(0.15746 -0.164871 1.37039e-19)
(0.146368 -0.136061 1.6167e-19)
(0.163269 -0.160179 8.38504e-20)
(0.137993 -0.131354 7.91982e-20)
(0.164062 -0.154781 2.07751e-20)
(0.119007 -0.127637 0)
(0.156255 -0.149541 0)
(0.088674 -0.127392 0)
(0.133426 -0.146775 0)
(0.0529123 -0.132704 0)
(0.0928443 -0.146805 0)
(0.0279966 -0.141681 -5.05482e-20)
(0.0441917 -0.146721 0)
(0.0176493 -0.145401 -8.85509e-21)
(0.137002 -0.160277 -1.21999e-19)
(0.13833 -0.166879 -6.70758e-20)
(0.146545 -0.178057 -1.10102e-19)
(0.145924 -0.187795 8.30981e-20)
(0.156545 -0.184573 4.78675e-22)
(0.154564 -0.194581 -1.92752e-19)
(0.166512 -0.185079 1.11558e-19)
(0.164136 -0.194458 5.5738e-20)
(0.17626 -0.182292 5.69044e-20)
(0.175019 -0.19206 5.84445e-21)
(0.183758 -0.177147 -6.5921e-20)
(0.186742 -0.188598 -1.0582e-19)
(0.183982 -0.170952 -6.5921e-20)
(0.196445 -0.184352 3.39607e-20)
(0.170368 -0.165438 0)
(0.198936 -0.179856 0)
(0.136968 -0.161793 0)
(0.185085 -0.176051 -5.50816e-20)
(0.0864361 -0.160912 0)
(0.145294 -0.173581 0)
(0.0416477 -0.162095 4.63725e-20)
(0.0810581 -0.169786 0)
(0.0275791 -0.159696 1.27345e-19)
(0.148297 -0.194983 1.43281e-19)
(0.146742 -0.195623 7.96542e-21)
(0.154591 -0.203944 5.30885e-21)
(0.150512 -0.206721 6.88645e-20)
(0.162625 -0.204125 -1.38727e-19)
(0.15562 -0.206294 -5.63738e-20)
(0.172787 -0.201679 -5.25928e-20)
(0.162051 -0.203463 -1.21002e-19)
(0.185358 -0.199078 -1.59644e-19)
(0.171215 -0.201589 3.09257e-20)
(0.199205 -0.196705 -4.85263e-21)
(0.18445 -0.200668 -2.0191e-19)
(0.210615 -0.19385 1.0244e-19)
(0.200851 -0.199869 2.79478e-19)
(0.211729 -0.190184 -5.59314e-20)
(0.215853 -0.1984 -8.72325e-20)
(0.190564 -0.18583 -5.59314e-20)
(0.219694 -0.196028 -5.71069e-21)
(0.138845 -0.181032 0)
(0.196832 -0.193186 0)
(0.0715284 -0.176857 8.15063e-20)
(0.134011 -0.189179 1.21652e-19)
(0.0505246 -0.178186 1.20086e-20)
(0.148686 -0.207844 -6.94122e-20)
(0.145955 -0.206226 7.76165e-21)
(0.151369 -0.209028 7.21746e-21)
(0.146824 -0.208558 -7.2888e-20)
(0.155245 -0.20535 -3.65166e-20)
(0.149256 -0.203176 1.58631e-19)
(0.160923 -0.202918 -3.6116e-20)
(0.15202 -0.199581 -1.22983e-19)
(0.170704 -0.202792 -9.24752e-21)
(0.156889 -0.199662 1.85859e-20)
(0.18628 -0.203662 8.38144e-20)
(0.166986 -0.201645 -1.6821e-19)
(0.206029 -0.204268 8.96276e-20)
(0.18416 -0.203841 9.25619e-20)
(0.223411 -0.204089 -3.76078e-20)
(0.2064 -0.205527 -8.02773e-20)
(0.224643 -0.202561 5.08563e-20)
(0.226595 -0.205941 1.29195e-19)
(0.19003 -0.198801 1.23369e-19)
(0.228883 -0.204902 -7.76612e-21)
(0.113706 -0.19284 5.85293e-20)
(0.188071 -0.204451 1.18118e-19)
(0.0910254 -0.201094 -2.18985e-20)
(0.143199 -0.206886 2.42026e-21)
(0.139552 -0.204911 -9.63663e-20)
(0.144227 -0.203102 7.72139e-20)
(0.139065 -0.201958 9.88783e-20)
(0.145616 -0.19808 7.15436e-20)
(0.140836 -0.194499 1.22964e-19)
(0.147419 -0.196925 -6.8412e-20)
(0.141436 -0.191749 0)
(0.152625 -0.198943 -1.42083e-19)
(0.142492 -0.193964 1.1672e-19)
(0.164311 -0.201916 -1.62238e-19)
(0.148156 -0.197891 -6.60556e-20)
(0.183862 -0.20471 -7.90897e-20)
(0.161523 -0.201519 -2.25934e-20)
(0.209131 -0.207143 8.81731e-20)
(0.183261 -0.204747 8.83181e-20)
(0.230515 -0.209257 7.08292e-20)
(0.210291 -0.207051 2.3119e-21)
(0.224644 -0.209911 -1.49766e-20)
(0.232703 -0.207765 -8.44637e-20)
(0.161364 -0.206561 2.00315e-20)
(0.225381 -0.211819 1.51235e-21)
(0.142636 -0.220271 1.14251e-20)
(0.134072 -0.199436 -5.93077e-21)
(0.129645 -0.196851 -1.18847e-19)
(0.135521 -0.193784 1.45653e-19)
(0.128086 -0.192548 2.99723e-20)
(0.136736 -0.189105 5.11773e-20)
(0.130907 -0.18494 1.9639e-20)
(0.136074 -0.189475 1.86416e-19)
(0.131436 -0.183083 -4.26501e-20)
(0.137266 -0.193149 1.94758e-19)
(0.129864 -0.18683 1.7445e-19)
(0.144614 -0.197365 7.52805e-20)
(0.131593 -0.192275 9.80563e-21)
(0.160011 -0.20082 1.47563e-19)
(0.141139 -0.196695 -5.68853e-20)
(0.183777 -0.203792 7.5694e-22)
(0.159573 -0.200227 1.43092e-19)
(0.213529 -0.207264 -1.56844e-19)
(0.18537 -0.203113 -7.98464e-20)
(0.233809 -0.211375 -6.92532e-20)
(0.215174 -0.203916 -1.45893e-19)
(0.200922 -0.213244 -1.02611e-21)
(0.237136 -0.21081 1.3587e-19)
(0.190146 -0.229121 -1.15165e-19)
(0.121861 -0.189102 -8.70313e-20)
(0.118398 -0.184467 -3.12548e-20)
(0.123624 -0.183956 -9.74967e-20)
(0.113824 -0.181795 -8.66511e-21)
(0.126427 -0.179879 -7.55992e-20)
(0.117576 -0.175012 -2.97497e-20)
(0.125221 -0.181009 -5.48875e-20)
(0.120005 -0.173338 -1.6514e-20)
(0.123222 -0.185765 -1.26839e-20)
(0.117751 -0.177765 -5.07986e-20)
(0.126904 -0.191125 -1.23543e-19)
(0.116031 -0.184547 4.46174e-20)
(0.139539 -0.195348 -6.50992e-20)
(0.121903 -0.190132 -1.27161e-19)
(0.160414 -0.198573 6.31834e-20)
(0.137823 -0.194022 9.8993e-21)
(0.188942 -0.20155 -6.79058e-20)
(0.16202 -0.197299 1.54249e-21)
(0.221705 -0.205755 7.37565e-20)
(0.191091 -0.197608 -1.80215e-19)
(0.222302 -0.212744 6.03373e-20)
(0.227264 -0.206126 1.89831e-19)
(0.220114 -0.227938 -1.34252e-20)
(0.108179 -0.176317 4.20785e-20)
(0.109294 -0.168663 -6.10766e-21)
(0.107605 -0.173054 5.96542e-20)
(0.0982356 -0.169229 3.58793e-20)
(0.112095 -0.169488 3.32316e-20)
(0.100081 -0.163914 2.74464e-21)
(0.11279 -0.170749 -9.77406e-21)
(0.10456 -0.162085 1.66099e-20)
(0.109559 -0.17617 4.66101e-21)
(0.104125 -0.166563 -1.89499e-20)
(0.109484 -0.18265 4.17862e-20)
(0.100782 -0.174265 7.14335e-20)
(0.118997 -0.188133 -5.45117e-20)
(0.102734 -0.181138 -6.45115e-20)
(0.138701 -0.192532 -5.27358e-20)
(0.115476 -0.185874 2.18137e-20)
(0.166002 -0.196131 -1.11219e-19)
(0.139055 -0.189919 1.3649e-19)
(0.199894 -0.199582 -5.29233e-20)
(0.16844 -0.191241 -1.51896e-19)
(0.223927 -0.208917 1.23588e-19)
(0.207106 -0.202764 1.00453e-19)
(0.226714 -0.221341 9.2496e-20)
(0.0971076 -0.16087 -1.21631e-20)
(0.106094 -0.150486 -9.17029e-22)
(0.0900052 -0.160183 -2.06586e-20)
(0.0859226 -0.154631 -2.08501e-20)
(0.0932071 -0.157385 -1.11189e-20)
(0.0815668 -0.151307 -9.08648e-21)
(0.0963762 -0.158571 5.3253e-21)
(0.0851345 -0.14948 4.05767e-20)
(0.0946778 -0.164324 4.82504e-20)
(0.0871013 -0.153623 -4.75167e-20)
(0.0925357 -0.171643 -3.22928e-20)
(0.0847182 -0.161736 6.83343e-20)
(0.0979375 -0.178049 9.3481e-21)
(0.084167 -0.16946 -4.4364e-20)
(0.114799 -0.183485 2.12313e-19)
(0.0929403 -0.174908 7.83418e-20)
(0.142029 -0.18919 8.40009e-20)
(0.113653 -0.179755 5.69599e-20)
(0.175443 -0.196095 5.64654e-21)
(0.143376 -0.183626 -7.5168e-20)
(0.208627 -0.20707 6.88238e-20)
(0.18327 -0.199567 5.07089e-20)
(0.210808 -0.212913 3.78183e-20)
(0.093063 -0.143614 -5.21575e-21)
(0.110585 -0.131681 -3.4105e-20)
(0.0764728 -0.145664 -9.17149e-21)
(0.0816242 -0.139111 6.3604e-21)
(0.0737513 -0.143994 4.37317e-20)
(0.0680626 -0.138094 -9.25202e-21)
(0.0764005 -0.145108 -1.73676e-20)
(0.0662198 -0.13661 4.47506e-20)
(0.0768854 -0.150792 -2.82866e-20)
(0.0677725 -0.140053 -7.53944e-20)
(0.075184 -0.158434 6.31104e-20)
(0.0669507 -0.147753 8.71633e-22)
(0.0777214 -0.165098 2.1591e-20)
(0.0659181 -0.15547 -1.7651e-21)
(0.0903473 -0.170669 -7.46979e-20)
(0.0713444 -0.1608 0)
(0.114155 -0.177448 -1.08501e-19)
(0.0874878 -0.165282 -7.53538e-20)
(0.146815 -0.189114 -2.9796e-20)
(0.113175 -0.170959 -8.37652e-20)
(0.17909 -0.209149 1.92439e-20)
(0.150276 -0.189324 4.38234e-20)
(0.173821 -0.200911 1.38075e-20)
(0.098069 -0.126415 -2.06162e-20)
(0.118512 -0.113666 3.57602e-20)
(0.0723267 -0.131206 6.41674e-21)
(0.0863299 -0.124177 -1.22527e-20)
(0.060485 -0.130994 -7.60831e-21)
(0.0643621 -0.125917 -8.17464e-22)
(0.0579903 -0.131983 -1.39474e-20)
(0.0541718 -0.125225 -3.55881e-21)
(0.0578261 -0.136862 -4.63459e-20)
(0.0510065 -0.127583 -4.11383e-21)
(0.0569171 -0.143794 -6.44183e-20)
(0.0492477 -0.133612 -2.20219e-20)
(0.0583331 -0.149679 -2.38951e-20)
(0.0480294 -0.13987 -3.65305e-20)
(0.0671763 -0.153841 0)
(0.0513784 -0.143631 -1.84817e-20)
(0.0853979 -0.158862 -5.0105e-20)
(0.0631939 -0.145797 -1.44269e-21)
(0.111191 -0.170676 -2.44036e-20)
(0.0824975 -0.149962 1.24912e-20)
(0.136353 -0.202326 2.57013e-20)
(0.105298 -0.163861 2.59157e-20)
(0.106479 -0.181045 2.07428e-21)
(0.0268383 -0.12849 6.84443e-20)
(0.0429684 -0.134194 1.21582e-20)
(0.0196226 -0.120712 -2.01321e-20)
(0.0433979 -0.127457 9.3199e-20)
(0.0121277 -0.110726 -6.7909e-20)
(0.0366912 -0.118665 -1.1319e-19)
(0.00442511 -0.101245 4.10104e-20)
(0.0264847 -0.109785 4.60894e-20)
(-0.00284764 -0.0934701 4.06572e-20)
(0.0153201 -0.102153 2.10652e-21)
(-0.00933933 -0.0875896 5.45237e-20)
(0.00484055 -0.0964046 4.41018e-20)
(-0.0151824 -0.083129 -3.18727e-20)
(-0.00418271 -0.0925817 1.14019e-20)
(-0.0209422 -0.0794897 -2.1345e-20)
(-0.0120416 -0.0900468 -4.38493e-20)
(-0.0272136 -0.0764684 -1.53279e-19)
(-0.0197755 -0.088014 2.21074e-20)
(-0.0340118 -0.0744218 1.76239e-22)
(-0.0283646 -0.0863594 -1.78236e-19)
(-0.040914 -0.0744846 1.75217e-19)
(-0.0390905 -0.085532 1.78475e-19)
(-0.0518055 -0.0874512 0)
(-0.0478228 -0.0770273 -8.9256e-20)
(0.0551976 -0.135183 3.63155e-20)
(0.0538507 -0.147983 7.99207e-21)
(0.0542178 -0.12653 0)
(0.0602281 -0.137617 3.26725e-20)
(0.0454331 -0.1178 3.70042e-22)
(0.0547232 -0.127916 -2.88864e-20)
(0.0328017 -0.110458 4.99654e-21)
(0.0414897 -0.120559 -3.85982e-20)
(0.0193884 -0.105013 4.6265e-21)
(0.0253568 -0.114937 2.8851e-21)
(0.00721564 -0.101518 0)
(0.00954661 -0.110757 0)
(-0.00298211 -0.0996611 0)
(-0.0041303 -0.108371 1.63927e-20)
(-0.0120003 -0.0984593 0)
(-0.0152628 -0.108043 0)
(-0.0220762 -0.0974316 0)
(-0.0265849 -0.10865 0)
(-0.0353244 -0.0967842 0)
(-0.0406391 -0.108845 -3.33249e-20)
(-0.0531399 -0.0981063 0)
(-0.0607934 -0.108493 0)
(-0.0883291 -0.110846 1.32253e-19)
(-0.0770896 -0.103139 4.1456e-20)
(0.0627705 -0.147259 5.34094e-22)
(0.0665591 -0.161735 1.50971e-20)
(0.0652486 -0.136556 6.52925e-21)
(0.0770768 -0.14894 6.04949e-20)
(0.0552209 -0.129328 -6.74465e-20)
(0.0694239 -0.141899 -5.52698e-20)
(0.0383734 -0.124501 -4.08041e-20)
(0.0521458 -0.138429 -2.52784e-20)
(0.0194446 -0.121022 -2.06462e-21)
(0.0314224 -0.13579 -1.93658e-21)
(0.00125942 -0.11865 1.66714e-20)
(0.010767 -0.133167 -3.69886e-21)
(-0.0146689 -0.117823 1.66714e-20)
(-0.00811618 -0.131025 3.14661e-20)
(-0.0283395 -0.118556 0)
(-0.0241218 -0.130719 1.14368e-21)
(-0.0426285 -0.119701 -3.38917e-20)
(-0.0393923 -0.131901 2.82001e-20)
(-0.0632275 -0.121091 -3.38917e-20)
(-0.0598392 -0.132142 5.59843e-20)
(-0.0940054 -0.12392 1.34502e-19)
(-0.0914889 -0.131285 -1.16594e-19)
(-0.131887 -0.133228 2.41541e-19)
(-0.130446 -0.129566 1.16907e-21)
(0.079055 -0.159079 7.60431e-20)
(0.0787622 -0.177668 -3.49574e-20)
(0.0811352 -0.151797 1.17205e-21)
(0.0893869 -0.164848 2.73863e-20)
(0.06687 -0.149993 -1.13895e-20)
(0.0781309 -0.164233 1.8271e-20)
(0.0456041 -0.149576 1.46106e-20)
(0.0575499 -0.165436 1.46499e-20)
(0.0227622 -0.148685 -3.62918e-21)
(0.0339055 -0.164766 3.37519e-21)
(0.00102083 -0.147136 1.1132e-20)
(0.0102918 -0.162162 -3.80821e-21)
(-0.0183998 -0.145209 1.5397e-20)
(-0.0114379 -0.158835 3.97909e-20)
(-0.0363009 -0.143789 3.03169e-20)
(-0.0310458 -0.156476 -2.38292e-20)
(-0.0576287 -0.142449 1.21373e-19)
(-0.0504933 -0.154986 1.00391e-19)
(-0.0895743 -0.141483 -2.71477e-20)
(-0.0785394 -0.151426 1.87704e-19)
(-0.131637 -0.141973 -1.17774e-20)
(-0.120412 -0.146857 -2.12436e-19)
(-0.16564 -0.145597 2.69204e-20)
(-0.171029 -0.144496 3.21924e-21)
(0.0883966 -0.17493 -8.73949e-20)
(0.087929 -0.195424 -1.22078e-19)
(0.0875429 -0.174553 4.62187e-20)
(0.0945607 -0.186662 3.24007e-20)
(0.0702878 -0.17857 4.62187e-20)
(0.080929 -0.194066 4.37476e-20)
(0.0472992 -0.180576 3.37121e-21)
(0.0603182 -0.198473 0)
(0.0225735 -0.179431 3.37121e-21)
(0.0365283 -0.197817 3.41452e-21)
(-0.00164572 -0.176141 2.50444e-20)
(0.0115048 -0.193056 -2.16953e-20)
(-0.023667 -0.172049 3.50502e-22)
(-0.0125984 -0.186722 2.3703e-20)
(-0.0446384 -0.167532 4.6765e-20)
(-0.0346161 -0.181239 -2.50111e-20)
(-0.0714901 -0.162697 1.69309e-19)
(-0.0581503 -0.175862 -7.78999e-21)
(-0.11099 -0.157134 4.29174e-22)
(-0.0924401 -0.166924 9.835e-20)
(-0.156855 -0.151901 -1.76025e-19)
(-0.139852 -0.156288 -2.86111e-20)
(-0.1838 -0.149239 -8.54853e-20)
(-0.19211 -0.148941 -7.37103e-20)
(0.0916407 -0.196248 -1.17483e-21)
(0.0904762 -0.214891 -8.23532e-21)
(0.0875254 -0.204323 2.98083e-20)
(0.0922862 -0.214547 1.2273e-21)
(0.0706668 -0.212817 -3.01402e-21)
(0.0793695 -0.228377 -7.16447e-21)
(0.0494715 -0.21573 0)
(0.0621066 -0.234904 0)
(0.025349 -0.21305 -2.19776e-20)
(0.0407153 -0.233782 -1.72383e-21)
(0.000174776 -0.206387 -2.20749e-20)
(0.016149 -0.226029 -3.82529e-20)
(-0.0240517 -0.197936 -1.52373e-21)
(-0.00931899 -0.214993 1.49842e-20)
(-0.0484458 -0.189135 -8.12526e-20)
(-0.0338942 -0.204582 -2.74342e-20)
(-0.0798361 -0.179608 -8.12526e-20)
(-0.0610007 -0.194112 -7.6099e-20)
(-0.12308 -0.16781 6.71552e-20)
(-0.098919 -0.179114 5.11786e-21)
(-0.16834 -0.155069 6.15794e-20)
(-0.147456 -0.161156 6.12727e-20)
(-0.188118 -0.146996 8.45761e-20)
(-0.197926 -0.146203 6.21793e-21)
(0.0872389 -0.222158 -4.09554e-21)
(0.0848155 -0.235076 2.67778e-20)
(0.0822223 -0.23769 -3.37961e-20)
(0.0836258 -0.245366 -3.09189e-20)
(0.0690894 -0.249263 -3.21751e-21)
(0.074391 -0.262508 -1.65951e-20)
(0.0522045 -0.252851 -1.74463e-21)
(0.0627758 -0.270602 0)
(0.0308431 -0.248419 -1.79511e-20)
(0.0463943 -0.269715 -6.15775e-23)
(0.0060877 -0.237602 1.88082e-21)
(0.024648 -0.2602 -1.63868e-20)
(-0.0197908 -0.223603 -1.10397e-20)
(-0.0010272 -0.244538 -2.02972e-21)
(-0.047103 -0.209354 -2.27013e-20)
(-0.0282831 -0.227559 2.49036e-20)
(-0.0812179 -0.194005 1.1253e-20)
(-0.0581546 -0.210781 -1.37675e-20)
(-0.125146 -0.175036 -1.58434e-21)
(-0.0973274 -0.189639 1.3194e-20)
(-0.168254 -0.154189 8.35805e-20)
(-0.144406 -0.164066 -1.43043e-20)
(-0.182195 -0.141899 8.87554e-20)
(-0.19392 -0.139134 4.84942e-20)
(0.0769447 -0.249319 0)
(0.0725082 -0.255107 0)
(0.0729719 -0.269711 -1.20728e-20)
(0.0704187 -0.273448 1.24353e-20)
(0.0653332 -0.283003 -1.20728e-20)
(0.0664061 -0.289245 -1.21988e-20)
(0.0547032 -0.287322 1.58258e-21)
(0.0614306 -0.295946 -5.46359e-21)
(0.0385524 -0.28259 1.58258e-21)
(0.0517162 -0.295418 1.59909e-21)
(0.016382 -0.269443 -1.91545e-20)
(0.0351983 -0.287488 0)
(-0.0102819 -0.250309 3.47038e-20)
(0.0117029 -0.271879 -1.04377e-20)
(-0.0401874 -0.229229 3.39563e-20)
(-0.0170389 -0.250566 3.72581e-20)
(-0.0757443 -0.207425 -1.06935e-20)
(-0.0496266 -0.227099 -1.92996e-20)
(-0.118476 -0.18144 7.56281e-21)
(-0.0887064 -0.200135 -2.67051e-21)
(-0.159269 -0.152603 -5.94795e-21)
(-0.133176 -0.167835 -6.00999e-21)
(-0.169085 -0.137324 1.33438e-20)
(-0.183562 -0.130419 0)
(0.0631891 -0.272908 1.25664e-20)
(0.0581361 -0.272832 2.67678e-20)
(0.061789 -0.292217 1.25664e-20)
(0.0567548 -0.291642 2.47533e-21)
(0.0601518 -0.30175 -5.52118e-21)
(0.0587292 -0.29619 -7.25594e-21)
(0.0557619 -0.304086 -5.52118e-21)
(0.0593658 -0.29521 6.63814e-22)
(0.0455122 -0.300755 0)
(0.0547751 -0.2932 0)
(0.0279802 -0.290868 7.85599e-21)
(0.0433777 -0.289552 -3.85701e-22)
(0.00317401 -0.273175 -7.34212e-21)
(0.0243223 -0.281566 8.92624e-21)
(-0.0277792 -0.24897 -1.51981e-20)
(-0.00259154 -0.265811 -1.65792e-20)
(-0.0642287 -0.221181 -9.61758e-21)
(-0.0360721 -0.241888 0)
(-0.105286 -0.189123 -9.61758e-21)
(-0.0748081 -0.211189 1.46663e-21)
(-0.143899 -0.153381 1.34844e-20)
(-0.116563 -0.174238 0)
(-0.15114 -0.136528 1.0436e-20)
(-0.168499 -0.12316 4.20979e-21)
(0.0532772 -0.28849 1.50034e-20)
(0.0461252 -0.281932 3.95771e-21)
(0.0542126 -0.293996 -1.93576e-20)
(0.0504337 -0.285659 -6.88948e-21)
(0.0569964 -0.289415 -1.87832e-21)
(0.058204 -0.270362 1.38108e-21)
(0.0559725 -0.284732 5.44955e-21)
(0.0602231 -0.259234 4.38579e-21)
(0.0490392 -0.282217 -3.89525e-22)
(0.0561535 -0.254742 8.41755e-23)
(0.0355086 -0.28001 6.13456e-22)
(0.0462354 -0.254768 5.99062e-22)
(0.0148845 -0.273801 -5.98425e-23)
(0.0304542 -0.256509 -2.23955e-21)
(-0.0131979 -0.258765 -1.24414e-21)
(0.00805173 -0.254923 -7.58565e-21)
(-0.0482373 -0.233072 9.06638e-21)
(-0.0217297 -0.243782 1.44232e-20)
(-0.0877087 -0.198658 9.06638e-21)
(-0.0583594 -0.219295 1.91855e-20)
(-0.124663 -0.158286 -3.2123e-21)
(-0.0972943 -0.182888 -3.18408e-20)
(-0.130795 -0.141205 2.06058e-21)
(-0.150078 -0.120801 -3.2123e-21)
(0.040798 -0.282855 -1.06573e-20)
(0.0497226 -0.269492 -1.86622e-20)
(0.051787 -0.259873 1.5364e-20)
(0.057258 -0.241638 5.34742e-21)
(0.0594282 -0.240332 5.43512e-21)
(0.0644945 -0.214262 2.25077e-21)
(0.058412 -0.229992 -1.03973e-21)
(0.063612 -0.200243 -2.4517e-21)
(0.0508171 -0.22757 4.28581e-22)
(0.0570146 -0.196133 -1.0279e-22)
(0.0378162 -0.230835 5.55301e-22)
(0.0455692 -0.198028 -2.07597e-21)
(0.019772 -0.236489 -6.17752e-21)
(0.0299223 -0.204098 2.13541e-22)
(-0.00379805 -0.23879 8.16894e-21)
(0.0103025 -0.212083 6.65851e-21)
(-0.0337025 -0.230134 2.46871e-20)
(-0.0140559 -0.216988 4.76589e-21)
(-0.068974 -0.205225 -1.92377e-20)
(-0.0442759 -0.210719 1.02179e-20)
(-0.103949 -0.166842 -2.88962e-20)
(-0.0784887 -0.187181 -2.13383e-20)
(-0.110361 -0.14962 5.66852e-21)
(-0.130082 -0.12531 1.20683e-20)
(0.0687092 -0.233725 -2.58659e-21)
(0.0825414 -0.205308 9.71945e-21)
(0.0679841 -0.192729 -2.69537e-21)
(0.0750792 -0.175677 0)
(0.067183 -0.174299 -3.63261e-21)
(0.0700929 -0.155221 -2.71785e-21)
(0.061897 -0.167079 -1.39347e-21)
(0.0650551 -0.146469 -9.4505e-22)
(0.0520475 -0.166786 -2.62508e-21)
(0.0564176 -0.145515 -1.57625e-22)
(0.0379538 -0.17129 -2.44407e-21)
(0.0438085 -0.148571 6.33485e-22)
(0.0200823 -0.17929 1.39685e-20)
(0.0276624 -0.15414 0)
(-0.00117568 -0.189287 8.75928e-22)
(0.00850234 -0.161549 4.41304e-21)
(-0.0260669 -0.196779 -1.30925e-20)
(-0.0131212 -0.169919 6.07575e-21)
(-0.0549436 -0.192749 1.27445e-20)
(-0.0372094 -0.175905 1.95467e-20)
(-0.0853839 -0.170582 1.27445e-20)
(-0.0643229 -0.171782 -7.17875e-21)
(-0.110796 -0.134472 -6.62552e-21)
(-0.0918838 -0.15107 -1.5023e-20)
(-0.0573406 -0.080807 -1.35974e-19)
(-0.0679659 -0.0936422 -4.49877e-20)
(-0.0733326 -0.0827907 -4.67177e-20)
(-0.0872293 -0.101621 -1.21149e-19)
(-0.0927489 -0.0824922 5.10359e-20)
(-0.105863 -0.108119 -6.94423e-20)
(-0.106235 -0.0825543 -1.02258e-19)
(-0.118682 -0.113861 5.19849e-20)
(-0.109749 -0.0831722 -9.87835e-20)
(-0.123099 -0.117708 -2.10721e-19)
(-0.106805 -0.0818577 -5.13689e-20)
(-0.122292 -0.116798 2.05189e-19)
(-0.0998356 -0.0741587 -1.05879e-19)
(-0.116435 -0.114797 -1.07214e-20)
(-0.0942504 -0.061104 0)
(-0.112148 -0.103085 0)
(-0.094517 -0.0452428 5.78484e-20)
(-0.110966 -0.0823851 0)
(-0.103833 -0.0301435 5.78484e-20)
(-0.113523 -0.0547249 5.89241e-20)
(-0.119625 -0.0219887 0)
(-0.120354 -0.0293674 2.07183e-19)
(-0.128966 -0.0209041 -2.02683e-19)
(-0.105043 -0.111781 -3.35001e-20)
(-0.119918 -0.118416 -8.40636e-20)
(-0.128838 -0.122798 -1.45714e-19)
(-0.146574 -0.128625 -7.41845e-20)
(-0.141539 -0.134085 -7.07581e-20)