/*--------------------------------*- C++ -*----------------------------------*\
| =========                 |                                                 |
| \\      /  F ield         | OpenFOAM: The Open Source CFD Toolbox           |
|  \\    /   O peration     | Version:  v1606+                                |
|   \\  /    A nd           | Web:      www.OpenFOAM.com                      |
|    \\/     M anipulation  |                                                 |
\*---------------------------------------------------------------------------*/
FoamFile
{
    version     2.0;
    format      ascii;
    class       volVectorField;
    location    "0.0006";
    object      U;
}
// * * * * * * * * * * * * * * * * * * * * * * * * * * * * * * * * * * * * * //

dimensions      [0 1 -1 0 0 0 0];

internalField   nonuniform List<vector> 
2450
(
(0.112097 0.111857 0)
(0.207724 0.065058 0)
(0.176791 0.0381106 0)
(0.139794 0.0215113 0)
(0.110735 0.0134375 0)
(0.090953 0.00889738 0)
(0.0775983 0.0062133 0)
(0.0676788 0.00454279 0)
(0.0599321 0.00344524 0)
(0.0536885 0.00268799 0)
(0.0485649 0.00214444 0)
(0.0443153 0.00174201 0)
(0.0407601 0.00143648 0)
(0.0377581 0.00119951 0)
(0.035196 0.00101223 0)
(0.0329837 0.000861703 0)
(0.0310516 0.000738931 0)
(0.0293471 0.000637518 0)
(0.0278307 0.000552854 0)
(0.0264726 0.000481542 0)
(0.0252502 0.00042103 0)
(0.0241452 0.000369358 0)
(0.0231428 0.000324988 0)
(0.0222302 0.000286688 0)
(0.021396 0.000253458 0)
(0.0206301 0.00022453 0)
(0.0199236 0.000199326 0)
(0.0192686 0.000177211 0)
(0.0186577 0.000157724 0)
(0.0180848 0.000140526 0)
(0.0175443 0.000125264 0)
(0.0170313 0.000111684 0)
(0.0165415 9.95691e-05 0)
(0.0160712 8.87384e-05 0)
(0.0156171 7.90303e-05 0)
(0.0151765 7.03404e-05 0)
(0.0147467 6.25313e-05 0)
(0.0143255 5.54916e-05 0)
(0.0139111 4.91076e-05 0)
(0.0135016 4.3367e-05 0)
(0.0130956 3.81837e-05 0)
(0.0126917 3.34074e-05 0)
(0.0122887 2.90946e-05 0)
(0.0118856 2.52011e-05 0)
(0.0114814 2.16552e-05 0)
(0.0110756 1.83656e-05 0)
(0.0106674 1.52904e-05 0)
(0.0102564 1.25561e-05 0)
(0.00984218 1.01184e-05 0)
(0.00942447 7.92168e-06 0)
(0.009003 5.93358e-06 0)
(0.00857773 4.19472e-06 0)
(0.00814847 2.62603e-06 0)
(0.00771509 1.10911e-06 0)
(0.00727751 -2.30793e-07 0)
(0.0068357 -1.39233e-06 0)
(0.00638967 -2.41068e-06 0)
(0.00593935 -3.35192e-06 0)
(0.0054847 -4.23228e-06 0)
(0.00502564 -5.06519e-06 0)
(0.00456213 -5.77695e-06 0)
(0.00409432 -6.25392e-06 0)
(0.00362246 -6.59101e-06 0)
(0.00314687 -6.86924e-06 0)
(0.00266789 -7.2205e-06 0)
(0.00218599 -7.59492e-06 0)
(0.00170182 -7.95901e-06 0)
(0.00121595 -8.22771e-06 0)
(0.000728372 -8.72068e-06 0)
(0.000242615 -7.49894e-06 0)
(0.0652824 0.206996 0)
(0.135688 0.134993 0)
(0.130631 0.0838687 0)
(0.114611 0.0529004 0)
(0.0978031 0.0344115 0)
(0.083586 0.0238114 0)
(0.0731805 0.0172152 0)
(0.0648824 0.0128931 0)
(0.0580642 0.00993205 0)
(0.0523813 0.00782692 0)
(0.0476156 0.00628529 0)
(0.0436054 0.00512876 0)
(0.0402165 0.00424295 0)
(0.0373332 0.00355168 0)
(0.0348578 0.00300285 0)
(0.0327101 0.00256024 0)
(0.0308273 0.00219824 0)
(0.0291609 0.00189858 0)
(0.0276746 0.00164797 0)
(0.0263407 0.00143659 0)
(0.0251379 0.00125703 0)
(0.0240492 0.00110357 0)
(0.0230601 0.000971726 0)
(0.0221586 0.000857888 0)
(0.0213338 0.000759144 0)
(0.0205759 0.000673151 0)
(0.0198762 0.00059804 0)
(0.0192269 0.000532109 0)
(0.018621 0.000474013 0)
(0.0180523 0.000422663 0)
(0.0175154 0.0003771 0)
(0.0170056 0.000336552 0)
(0.0165185 0.000300372 0)
(0.0160506 0.000268007 0)
(0.0155987 0.000238986 0)
(0.0151599 0.000212934 0)
(0.0147318 0.000189482 0)
(0.0143121 0.00016833 0)
(0.0138989 0.000149199 0)
(0.0134907 0.000131909 0)
(0.0130856 0.000116253 0)
(0.0126826 0.000101985 0)
(0.0122804 8.90299e-05 0)
(0.0118781 7.72284e-05 0)
(0.0114746 6.64004e-05 0)
(0.0110692 5.66409e-05 0)
(0.0106616 4.7776e-05 0)
(0.0102511 3.97523e-05 0)
(0.00983749 3.25039e-05 0)
(0.00942023 2.58555e-05 0)
(0.00899922 1.99439e-05 0)
(0.00857437 1.45885e-05 0)
(0.00814533 9.67543e-06 0)
(0.00771217 5.33134e-06 0)
(0.00727495 1.39539e-06 0)
(0.00683347 -2.06077e-06 0)
(0.00638765 -5.14257e-06 0)
(0.00593748 -7.88354e-06 0)
(0.00548293 -1.03477e-05 0)
(0.00502404 -1.25699e-05 0)
(0.0045609 -1.45239e-05 0)
(0.00409346 -1.61707e-05 0)
(0.0036218 -1.74433e-05 0)
(0.0031462 -1.85076e-05 0)
(0.00266709 -1.94358e-05 0)
(0.0021851 -2.03555e-05 0)
(0.00170087 -2.12717e-05 0)
(0.00121442 -2.21458e-05 0)
(0.000727477 -2.33828e-05 0)
(0.000243519 -2.38515e-05 0)
(0.0383411 0.175578 0)
(0.0845719 0.129456 0)
(0.0930564 0.091878 0)
(0.089926 0.0646191 0)
(0.0815453 0.0456189 0)
(0.0737308 0.0335636 0)
(0.0666712 0.0253641 0)
(0.0603921 0.0195906 0)
(0.0548644 0.0154142 0)
(0.0500409 0.0123269 0)
(0.0458662 0.0100029 0)
(0.0422725 0.00822485 0)
(0.0391826 0.00684327 0)
(0.0365177 0.00575329 0)
(0.0342043 0.00488055 0)
(0.0321788 0.00417194 0)
(0.0303898 0.00358927 0)
(0.0287967 0.00310484 0)
(0.0273685 0.00269829 0)
(0.0260815 0.0023544 0)
(0.024917 0.00206161 0)
(0.0238598 0.00181089 0)
(0.0228971 0.00159516 0)
(0.0220175 0.00140867 0)
(0.0212112 0.0012468 0)
(0.0204689 0.00110571 0)
(0.0197825 0.000982194 0)
(0.0191445 0.000873704 0)
(0.0185483 0.000778073 0)
(0.0179879 0.00069342 0)
(0.0174582 0.000618295 0)
(0.0169546 0.000551413 0)
(0.016473 0.00049172 0)
(0.0160098 0.000438287 0)
(0.0155621 0.000390367 0)
(0.015127 0.000347264 0)
(0.0147021 0.000308434 0)
(0.0142853 0.000273398 0)
(0.0138747 0.000241747 0)
(0.0134687 0.000213085 0)
(0.0130657 0.000187101 0)
(0.0126645 0.000163552 0)
(0.0122639 0.000142149 0)
(0.011863 0.000122667 0)
(0.0114609 0.000104939 0)
(0.011057 8.88984e-05 0)
(0.0106505 7.43636e-05 0)
(0.0102411 6.11597e-05 0)
(0.00982829 4.9145e-05 0)
(0.00941192 3.82171e-05 0)
(0.00899175 2.83899e-05 0)
(0.00856748 1.94716e-05 0)
(0.00813923 1.14075e-05 0)
(0.00770683 4.29245e-06 0)
(0.00727014 -2.09695e-06 0)
(0.00682919 -7.76742e-06 0)
(0.00638387 -1.28044e-05 0)
(0.00593417 -1.72144e-05 0)
(0.00548004 -2.10649e-05 0)
(0.00502149 -2.43988e-05 0)
(0.00455856 -2.72972e-05 0)
(0.00409142 -2.98611e-05 0)
(0.00362014 -3.20661e-05 0)
(0.00314488 -3.39246e-05 0)
(0.00266601 -3.5439e-05 0)
(0.00218406 -3.67522e-05 0)
(0.00169982 -3.79346e-05 0)
(0.00121342 -3.90339e-05 0)
(0.000726126 -3.99354e-05 0)
(0.000242761 -4.10402e-05 0)
(0.0217627 0.138127 0)
(0.0536171 0.112957 0)
(0.0657913 0.0882715 0)
(0.0683194 0.0666666 0)
(0.0667375 0.0509534 0)
(0.0633286 0.0394409 0)
(0.0592069 0.0309186 0)
(0.0549324 0.0245379 0)
(0.0508004 0.0197053 0)
(0.0469699 0.0160064 0)
(0.0435135 0.0131469 0)
(0.0404458 0.0109129 0)
(0.0377449 0.00914803 0)
(0.0353704 0.00773681 0)
(0.0332764 0.00659445 0)
(0.0314188 0.00565863 0)
(0.0297601 0.00488354 0)
(0.0282699 0.00423532 0)
(0.0269241 0.00368869 0)
(0.025704 0.00322448 0)
(0.0245944 0.00282792 0)
(0.0235827 0.00248742 0)
(0.0226579 0.0021937 0)
(0.0218103 0.00193927 0)
(0.0210308 0.00171799 0)
(0.0203113 0.00152478 0)
(0.0196442 0.00135541 0)
(0.0190228 0.00120642 0)
(0.0184407 0.00107489 0)
(0.0178925 0.000958402 0)
(0.0173734 0.000854888 0)
(0.016879 0.000762623 0)
(0.0164054 0.000680202 0)
(0.0159493 0.000606346 0)
(0.0155077 0.000540066 0)
(0.015078 0.000480397 0)
(0.0146579 0.000426611 0)
(0.0142454 0.000378046 0)
(0.0138386 0.000334132 0)
(0.013436 0.000294363 0)
(0.0130361 0.000258303 0)
(0.0126376 0.000225579 0)
(0.0122396 0.000195863 0)
(0.0118409 0.00016888 0)
(0.0114408 0.000144416 0)
(0.0110386 0.000122064 0)
(0.0106338 0.000101699 0)
(0.0102259 8.32083e-05 0)
(0.00981455 6.64053e-05 0)
(0.00939948 5.12283e-05 0)
(0.00898048 3.74374e-05 0)
(0.00855739 2.50216e-05 0)
(0.00813015 1.39043e-05 0)
(0.00769866 3.86716e-06 0)
(0.00726289 -5.04158e-06 0)
(0.00682276 -1.30068e-05 0)
(0.00637821 -2.00269e-05 0)
(0.00592922 -2.61939e-05 0)
(0.00547575 -3.15633e-05 0)
(0.00501781 -3.61996e-05 0)
(0.00455544 -4.017e-05 0)
(0.00408869 -4.3565e-05 0)
(0.00361774 -4.65302e-05 0)
(0.00314282 -4.9037e-05 0)
(0.00266426 -5.11818e-05 0)
(0.00218259 -5.29495e-05 0)
(0.00169857 -5.44082e-05 0)
(0.00121238 -5.56254e-05 0)
(0.000725446 -5.65692e-05 0)
(0.000242551 -5.7104e-05 0)
(0.0136795 0.10861 0)
(0.0351249 0.0956638 0)
(0.0467987 0.0794146 0)
(0.0526078 0.0646098 0)
(0.0543167 0.0521892 0)
(0.0536947 0.042141 0)
(0.0517677 0.0341345 0)
(0.0491786 0.0277909 0)
(0.0463329 0.0227731 0)
(0.0434825 0.0188004 0)
(0.0407728 0.0156451 0)
(0.0382737 0.0131253 0)
(0.0360065 0.011098 0)
(0.0339642 0.0094521 0)
(0.0321261 0.00810276 0)
(0.0304679 0.00698566 0)
(0.0289664 0.00605232 0)
(0.0276018 0.00526613 0)
(0.0263577 0.0045992 0)
(0.0252207 0.00403004 0)
(0.0241799 0.0035418 0)
(0.0232256 0.00312108 0)
(0.0223489 0.00275706 0)
(0.0215418 0.00244085 0)
(0.0207967 0.00216516 0)
(0.0201063 0.0019239 0)
(0.0194641 0.00171204 0)
(0.018864 0.00152529 0)
(0.0183002 0.00136013 0)
(0.0177679 0.00121373 0)
(0.0172624 0.00108346 0)
(0.0167799 0.000967213 0)
(0.0163167 0.000863145 0)
(0.0158697 0.00076981 0)
(0.0154361 0.00068586 0)
(0.0150135 0.000610237 0)
(0.0145997 0.000542036 0)
(0.0141928 0.000480398 0)
(0.013791 0.000424604 0)
(0.0133928 0.00037403 0)
(0.0129969 0.000328137 0)
(0.0126021 0.000286452 0)
(0.0122072 0.000248562 0)
(0.0118115 0.000214102 0)
(0.0114141 0.00018275 0)
(0.0110143 0.000154195 0)
(0.0106117 0.000128238 0)
(0.0102058 0.000104627 0)
(0.00979631 8.31926e-05 0)
(0.00938295 6.37653e-05 0)
(0.00896554 4.61772e-05 0)
(0.00854394 3.03134e-05 0)
(0.00811808 1.60558e-05 0)
(0.00768788 3.27212e-06 0)
(0.00725326 -8.11614e-06 0)
(0.0068142 -1.82535e-05 0)
(0.00637068 -2.71973e-05 0)
(0.00592264 -3.5046e-05 0)
(0.00547003 -4.18864e-05 0)
(0.00501288 -4.78074e-05 0)
(0.00455119 -5.29004e-05 0)
(0.00408506 -5.72609e-05 0)
(0.00361466 -6.09489e-05 0)
(0.00314023 -6.40547e-05 0)
(0.0026621 -6.66395e-05 0)
(0.00218083 -6.87527e-05 0)
(0.00169714 -7.0447e-05 0)
(0.00121126 -7.1773e-05 0)
(0.00072466 -7.27521e-05 0)
(0.00024225 -7.33641e-05 0)
(0.00913488 0.0883557 0)
(0.024523 0.0809835 0)
(0.0347473 0.0711315 0)
(0.0410969 0.0607313 0)
(0.0442687 0.0510979 0)
(0.0452736 0.0426771 0)
(0.0448567 0.0355442 0)
(0.0435709 0.0296126 0)
(0.0418098 0.0247349 0)
(0.0398419 0.0207491 0)
(0.0378385 0.0174989 0)
(0.0358987 0.014845 0)
(0.0340717 0.0126687 0)
(0.0323752 0.0108729 0)
(0.0308099 0.00938009 0)
(0.0293684 0.00812976 0)
(0.0280406 0.00707486 0)
(0.0268168 0.00617901 0)
(0.025688 0.00541389 0)
(0.0246466 0.00475719 0)
(0.0236854 0.00419112 0)
(0.0227979 0.00370129 0)
(0.0219777 0.0032759 0)
(0.0212184 0.00290521 0)
(0.0205138 0.00258107 0)
(0.0198582 0.00229667 0)
(0.0192456 0.00204631 0)
(0.0186709 0.00182518 0)
(0.0181291 0.00162924 0)
(0.0176159 0.00145515 0)
(0.0171269 0.00129999 0)
(0.0166587 0.00116131 0)
(0.016208 0.00103698 0)
(0.015772 0.000925322 0)
(0.0153481 0.000824746 0)
(0.0149342 0.000734078 0)
(0.0145281 0.000652205 0)
(0.014128 0.000578114 0)
(0.0137323 0.000510966 0)
(0.0133395 0.000450035 0)
(0.0129485 0.000394689 0)
(0.0125581 0.000344367 0)
(0.0121672 0.00029858 0)
(0.0117751 0.000256891 0)
(0.0113809 0.000218913 0)
(0.0109841 0.000184391 0)
(0.0105842 0.000152958 0)
(0.0101809 0.000124364 0)
(0.00977369 9.84006e-05 0)
(0.00936246 7.48623e-05 0)
(0.00894703 5.35699e-05 0)
(0.00852727 3.43674e-05 0)
(0.00810311 1.71109e-05 0)
(0.00767449 1.65988e-06 0)
(0.00724136 -1.21279e-05 0)
(0.00680368 -2.43311e-05 0)
(0.00636142 -3.50961e-05 0)
(0.00591453 -4.45333e-05 0)
(0.00546299 -5.27485e-05 0)
(0.0050068 -5.98532e-05 0)
(0.00454598 -6.59561e-05 0)
(0.00408064 -7.11426e-05 0)
(0.00361094 -7.55148e-05 0)
(0.00313713 -7.91707e-05 0)
(0.00265956 -8.21805e-05 0)
(0.00217878 -8.46137e-05 0)
(0.00169554 -8.65285e-05 0)
(0.00121007 -8.79747e-05 0)
(0.000723865 -8.8982e-05 0)
(0.000241949 -8.95837e-05 0)
(0.00645006 0.0745331 0)
(0.0179266 0.0701149 0)
(0.026549 0.0636062 0)
(0.0325757 0.0561433 0)
(0.0362628 0.0487049 0)
(0.0381409 0.0417945 0)
(0.0387031 0.0356412 0)
(0.0383693 0.0303093 0)
(0.0374694 0.0257717 0)
(0.0362465 0.0219534 0)
(0.0348687 0.01876 0)
(0.0334434 0.0160941 0)
(0.0320344 0.0138654 0)
(0.0306756 0.0119952 0)
(0.029383 0.010418 0)
(0.0281627 0.00908057 0)
(0.0270157 0.00794044 0)
(0.0259408 0.0069637 0)
(0.0249358 0.0061233 0)
(0.023998 0.00539745 0)
(0.023124 0.0047684 0)
(0.0223104 0.00422151 0)
(0.0215528 0.0037446 0)
(0.020847 0.00332748 0)
(0.0201881 0.00296153 0)
(0.0195716 0.00263946 0)
(0.0189927 0.00235516 0)
(0.0184469 0.00210345 0)
(0.0179302 0.00187992 0)
(0.0174386 0.00168079 0)
(0.0169686 0.00150294 0)
(0.0165169 0.00134365 0)
(0.0160807 0.00120071 0)
(0.0156575 0.00107209 0)
(0.0152449 0.000956175 0)
(0.014841 0.000851536 0)
(0.0144438 0.000756781 0)
(0.0140516 0.000670933 0)
(0.0136629 0.000593045 0)
(0.0132766 0.000522286 0)
(0.0128913 0.00045794 0)
(0.012506 0.000399378 0)
(0.0121198 0.000346023 0)
(0.0117318 0.00029741 0)
(0.0113416 0.000253102 0)
(0.0109483 0.000212783 0)
(0.0105517 0.000176056 0)
(0.0101513 0.000142645 0)
(0.00974681 0.000112302 0)
(0.00933812 8.47963e-05 0)
(0.00892505 5.99257e-05 0)
(0.00850749 3.75071e-05 0)
(0.00808537 1.73738e-05 0)
(0.00765864 -6.32038e-07 0)
(0.00722727 -1.66719e-05 0)
(0.00679123 -3.08646e-05 0)
(0.00635048 -4.33579e-05 0)
(0.00590498 -5.42892e-05 0)
(0.00545471 -6.37812e-05 0)
(0.00499967 -7.19681e-05 0)
(0.0045399 -7.8978e-05 0)
(0.0040755 -8.49213e-05 0)
(0.00360663 -8.99124e-05 0)
(0.00313356 -9.40588e-05 0)
(0.00265666 -9.74506e-05 0)
(0.00217648 -0.000100168 0)
(0.00169378 -0.00010228 0)
(0.00120881 -0.000103843 0)
(0.000723058 -0.000104896 0)
(0.000241652 -0.000105486 0)
(0.00477974 0.0641498 0)
(0.0136049 0.0613541 0)
(0.0207764 0.0568644 0)
(0.0261961 0.051406 0)
(0.0299201 0.0456534 0)
(0.0322099 0.0400466 0)
(0.0333715 0.0348457 0)
(0.0337014 0.0301781 0)
(0.0334539 0.0260822 0)
(0.0328302 0.022541 0)
(0.0319792 0.019507 0)
(0.0310041 0.0169188 0)
(0.0299727 0.0147132 0)
(0.0289278 0.012831 0)
(0.0278953 0.0112204 0)
(0.0268908 0.00983737 0)
(0.0259237 0.00864571 0)
(0.0249996 0.00761552 0)
(0.0241218 0.00672224 0)
(0.0232917 0.00594558 0)
(0.0225095 0.00526858 0)
(0.0217741 0.00467701 0)
(0.0210836 0.00415881 0)
(0.0204353 0.00370372 0)
(0.0198258 0.00330302 0)
(0.0192518 0.00294913 0)
(0.0187096 0.0026358 0)
(0.0181956 0.00235761 0)
(0.0177065 0.00210989 0)
(0.0172389 0.00188869 0)
(0.0167898 0.00169069 0)
(0.0163564 0.00151303 0)
(0.0159364 0.00135327 0)
(0.0155275 0.00120926 0)
(0.0151276 0.00107924 0)
(0.0147348 0.000961636 0)
(0.0143475 0.000855004 0)
(0.0139642 0.00075823 0)
(0.0135836 0.000670307 0)
(0.0132044 0.000590327 0)
(0.0128256 0.000517498 0)
(0.0124461 0.000451133 0)
(0.0120652 0.000390611 0)
(0.0116822 0.000335431 0)
(0.0112963 0.000285138 0)
(0.0109071 0.000239217 0)
(0.0105141 0.000197411 0)
(0.0101171 0.000159382 0)
(0.00971584 0.00012484 0)
(0.00931009 9.35343e-05 0)
(0.00889974 6.52381e-05 0)
(0.00848472 3.97463e-05 0)
(0.00806497 1.68697e-05 0)
(0.00764045 -3.57032e-06 0)
(0.00721113 -2.1735e-05 0)
(0.00677699 -3.77908e-05 0)
(0.00633799 -5.18983e-05 0)
(0.0058941 -6.42141e-05 0)
(0.00544531 -7.48763e-05 0)
(0.0049916 -8.40353e-05 0)
(0.00453303 -9.18719e-05 0)
(0.00406971 -9.84866e-05 0)
(0.00360181 -0.000104016 0)
(0.00312959 -0.000108585 0)
(0.00265345 -0.000112302 0)
(0.00217396 -0.000115259 0)
(0.00169187 -0.000117537 0)
(0.00120746 -0.000119205 0)
(0.000722229 -0.000120304 0)
(0.000241357 -0.000120898 0)
(0.00368256 0.0559433 0)
(0.0106447 0.0540762 0)
(0.016601 0.0508772 0)
(0.0213648 0.0468147 0)
(0.0249035 0.0423488 0)
(0.0273333 0.0378272 0)
(0.0288346 0.0334881 0)
(0.0296057 0.0294735 0)
(0.0298323 0.0258523 0)
(0.0296713 0.0226421 0)
(0.0292465 0.0198278 0)
(0.0286497 0.0173769 0)
(0.0279466 0.015249 0)
(0.0271827 0.0134029 0)
(0.0263894 0.0118003 0)
(0.0255881 0.010407 0)
(0.0247939 0.0091935 0)
(0.0240174 0.00813479 0)
(0.0232659 0.0072095 0)
(0.0225443 0.00639944 0)
(0.0218555 0.00568907 0)
(0.0212006 0.00506499 0)
(0.0205795 0.00451566 0)
(0.0199912 0.00403111 0)
(0.0194335 0.00360272 0)
(0.0189044 0.00322314 0)
(0.0184011 0.00288591 0)
(0.017921 0.00258556 0)
(0.0174613 0.00231731 0)
(0.0170194 0.00207716 0)
(0.0165929 0.00186165 0)
(0.0161794 0.00166789 0)
(0.0157769 0.00149322 0)
(0.0153834 0.00133552 0)
(0.0149973 0.00119281 0)
(0.0146167 0.00106344 0)
(0.0142403 0.000946045 0)
(0.0138669 0.000839302 0)
(0.013495 0.000742147 0)
(0.0131238 0.000653627 0)
(0.0127521 0.000572901 0)
(0.0123791 0.000499233 0)
(0.0120041 0.000431982 0)
(0.0116264 0.00037058 0)
(0.0112453 0.000314507 0)
(0.0108606 0.000263416 0)
(0.0104718 0.000216831 0)
(0.0100787 0.000174423 0)
(0.00968096 0.000135896 0)
(0.00927852 0.000100982 0)
(0.00887126 6.94383e-05 0)
(0.00845912 4.10402e-05 0)
(0.00804205 1.55802e-05 0)
(0.00762004 -7.13735e-06 0)
(0.00719305 -2.72961e-05 0)
(0.00676107 -4.5084e-05 0)
(0.00632406 -6.06753e-05 0)
(0.00588201 -7.42433e-05 0)
(0.00543489 -8.59821e-05 0)
(0.00498268 -9.60519e-05 0)
(0.00452545 -0.000104581 0)
(0.00406335 -0.000111765 0)
(0.00359654 -0.000117748 0)
(0.00312528 -0.000122667 0)
(0.00264998 -0.000126645 0)
(0.00217125 -0.000129792 0)
(0.00168984 -0.0001322 0)
(0.00120604 -0.000133949 0)
(0.000721371 -0.000135086 0)
(0.000241053 -0.000135693 0)
(0.00292572 0.0492434 0)
(0.00854053 0.0479371 0)
(0.013515 0.0455979 0)
(0.0176677 0.0425287 0)
(0.0209326 0.0390434 0)
(0.0233492 0.0354049 0)
(0.0250178 0.0318116 0)
(0.0260656 0.028397 0)
(0.0266224 0.0252394 0)
(0.0268058 0.0223743 0)
(0.026714 0.0198082 0)
(0.0264252 0.017529 0)
(0.0259987 0.0155147 0)
(0.0254791 0.0137394 0)
(0.0248994 0.0121767 0)
(0.0242841 0.0108016 0)
(0.0236516 0.00959135 0)
(0.0230156 0.00852584 0)
(0.0223864 0.00758719 0)
(0.0217713 0.00675971 0)
(0.021175 0.00602953 0)
(0.0206007 0.00538449 0)
(0.0200498 0.00481384 0)
(0.0195224 0.00430815 0)
(0.0190179 0.00385915 0)
(0.018535 0.00345988 0)
(0.018072 0.00310384 0)
(0.017627 0.00278562 0)
(0.0171981 0.00250066 0)
(0.0167832 0.00224483 0)
(0.0163805 0.00201464 0)
(0.015988 0.00180711 0)
(0.0156041 0.00161961 0)
(0.0152271 0.00144995 0)
(0.0148555 0.0012961 0)
(0.014488 0.00115635 0)
(0.0141233 0.00102927 0)
(0.0137603 0.000913545 0)
(0.0133979 0.000808014 0)
(0.0130352 0.000711704 0)
(0.0126712 0.000623738 0)
(0.0123052 0.000543354 0)
(0.0119366 0.000469881 0)
(0.0115647 0.000402683 0)
(0.0111891 0.000341254 0)
(0.0108094 0.000285274 0)
(0.0104251 0.00023418 0)
(0.0100362 0.000187652 0)
(0.0096424 0.00014538 0)
(0.00924363 0.000107078 0)
(0.0088398 7.24871e-05 0)
(0.00843086 4.13695e-05 0)
(0.00801679 1.35006e-05 0)
(0.00759757 -1.13318e-05 0)
(0.00717319 -3.33318e-05 0)
(0.00674361 -5.27034e-05 0)
(0.00630883 -6.96417e-05 0)
(0.0058688 -8.43416e-05 0)
(0.0054235 -9.70187e-05 0)
(0.004973 -0.000107858 0)
(0.00451732 -0.000116999 0)
(0.00405654 -0.000124661 0)
(0.0035909 -0.000131013 0)
(0.00312069 -0.000136207 0)
(0.00264632 -0.000140384 0)
(0.0021684 -0.000143668 0)
(0.00168771 -0.000146167 0)
(0.00120457 -0.000147968 0)
(0.000720491 -0.000149135 0)
(0.000240745 -0.000149745 0)
(0.00238262 0.0436672 0)
(0.0070001 0.0427189 0)
(0.0111926 0.0409711 0)
(0.0148103 0.0386206 0)
(0.0177797 0.0358824 0)
(0.0201015 0.0329511 0)
(0.0218268 0.0299842 0)
(0.0230335 0.0270975 0)
(0.0238096 0.0243671 0)
(0.0242401 0.0218363 0)
(0.0244011 0.019524 0)
(0.0243562 0.0174322 0)
(0.024157 0.0155527 0)
(0.0238447 0.0138713 0)
(0.0234515 0.0123717 0)
(0.0230027 0.0110368 0)
(0.0225181 0.00985009 0)
(0.0220132 0.00879597 0)
(0.0214998 0.00786008 0)
(0.0209867 0.00702927 0)
(0.0204803 0.00629156 0)
(0.0199849 0.00563616 0)
(0.0195032 0.00505335 0)
(0.0190365 0.00453445 0)
(0.0185853 0.00407175 0)
(0.018149 0.00365849 0)
(0.0177269 0.00328861 0)
(0.0173178 0.0029569 0)
(0.0169205 0.00265894 0)
(0.0165334 0.00239065 0)
(0.0161552 0.00214858 0)
(0.0157844 0.00192973 0)
(0.0154197 0.00173154 0)
(0.0150599 0.00155171 0)
(0.0147037 0.0013883 0)
(0.0143499 0.00123958 0)
(0.0139975 0.00110404 0)
(0.0136456 0.000980375 0)
(0.0132932 0.0008674 0)
(0.0129395 0.000764107 0)
(0.0125837 0.000669607 0)
(0.0122252 0.000583119 0)
(0.0118634 0.000503956 0)
(0.0114977 0.000431489 0)
(0.0111279 0.00036523 0)
(0.0107535 0.000304646 0)
(0.0103742 0.00024934 0)
(0.00998988 0.000198982 0)
(0.00960039 0.000153232 0)
(0.00920563 0.000111787 0)
(0.00880555 7.43751e-05 0)
(0.00840013 4.07472e-05 0)
(0.00798935 1.06626e-05 0)
(0.00757321 -1.61056e-05 0)
(0.00715168 -3.97792e-05 0)
(0.00672476 -6.0576e-05 0)
(0.00629242 -7.87171e-05 0)
(0.00585463 -9.4419e-05 0)
(0.00541138 -0.000107885 0)
(0.0049627 -0.00011934 0)
(0.00450865 -0.000129011 0)
(0.00404934 -0.000137066 0)
(0.00358499 -0.000143703 0)
(0.00311591 -0.000149096 0)
(0.00264252 -0.000153407 0)
(0.00216546 -0.000156777 0)
(0.00168554 -0.000159327 0)
(0.00120308 -0.000161151 0)
(0.000719601 -0.000162328 0)
(0.000240436 -0.000162931 0)
(0.00198067 0.0389685 0)
(0.00584498 0.0382597 0)
(0.00941671 0.0369288 0)
(0.0125791 0.0351048 0)
(0.0152632 0.0329361 0)
(0.017451 0.0305649 0)
(0.0191643 0.0281137 0)
(0.0204485 0.0256783 0)
(0.0213612 0.0233275 0)
(0.0219627 0.0211061 0)
(0.02231 0.0190391 0)
(0.0224538 0.0171376 0)
(0.0224378 0.0154026 0)
(0.0222981 0.0138291 0)
(0.0220649 0.0124084 0)
(0.0217624 0.01113 0)
(0.0214107 0.00998251 0)
(0.0210256 0.0089545 0)
(0.0206197 0.0080348 0)
(0.0202028 0.00721273 0)
(0.0197819 0.00647821 0)
(0.0193625 0.00582191 0)
(0.018948 0.00523522 0)
(0.0185408 0.00471034 0)
(0.0181419 0.00424022 0)
(0.0177518 0.0038185 0)
(0.0173704 0.00343964 0)
(0.0169974 0.00309874 0)
(0.0166318 0.00279137 0)
(0.0162729 0.00251377 0)
(0.0159196 0.00226258 0)
(0.015571 0.00203487 0)
(0.015226 0.00182811 0)
(0.0148838 0.00164005 0)
(0.0145433 0.00146874 0)
(0.0142037 0.00131249 0)
(0.0138641 0.00116977 0)
(0.0135237 0.00103928 0)
(0.0131817 0.00091984 0)
(0.0128374 0.000810429 0)
(0.0124902 0.000710152 0)
(0.0121396 0.000618217 0)
(0.011785 0.00053393 0)
(0.0114259 0.000456701 0)
(0.0110623 0.000385974 0)
(0.0106935 0.000321225 0)
(0.0103194 0.000262168 0)
(0.00994008 0.000208339 0)
(0.0095552 0.000159418 0)
(0.00916477 0.000115103 0)
(0.00876876 7.51212e-05 0)
(0.00836715 3.92113e-05 0)
(0.00795994 7.12629e-06 0)
(0.00754713 -2.13806e-05 0)
(0.00712872 -4.6543e-05 0)
(0.00670468 -6.85983e-05 0)
(0.00627499 -8.77831e-05 0)
(0.00583963 -0.000104332 0)
(0.00539858 -0.000118465 0)
(0.00495187 -0.000130467 0)
(0.00449959 -0.000140524 0)
(0.00404185 -0.000148862 0)
(0.00357887 -0.000155691 0)
(0.00311099 -0.000161213 0)
(0.00263864 -0.000165596 0)
(0.00216248 -0.000168999 0)
(0.00168334 -0.000171557 0)
(0.00120158 -0.000173378 0)
(0.000718717 -0.000174545 0)
(0.000240132 -0.000175132 0)
(0.00167571 0.0349677 0)
(0.00496085 0.0344254 0)
(0.0080377 0.0333939 0)
(0.0108176 0.0319595 0)
(0.0132399 0.0302254 0)
(0.0152792 0.0282954 0)
(0.0169401 0.0262634 0)
(0.0182474 0.0242071 0)
(0.0192374 0.0221862 0)
(0.0199518 0.020243 0)
(0.0204326 0.0184052 0)
(0.0207197 0.0166885 0)
(0.0208486 0.0151003 0)
(0.0208505 0.0136417 0)
(0.0207524 0.0123098 0)
(0.0205768 0.011099 0)
(0.0203426 0.0100024 0)
(0.0200655 0.00901192 0)
(0.019758 0.00811922 0)
(0.0194301 0.00731589 0)
(0.0190894 0.00659367 0)
(0.0187419 0.00594466 0)
(0.0183916 0.00536142 0)
(0.0180415 0.00483705 0)
(0.0176934 0.0043652 0)
(0.0173485 0.00394013 0)
(0.0170071 0.00355685 0)
(0.0166696 0.00321069 0)
(0.0163355 0.00289749 0)
(0.0160046 0.00261369 0)
(0.0156763 0.00235612 0)
(0.0153499 0.00212197 0)
(0.0150249 0.00190878 0)
(0.0147005 0.00171438 0)
(0.0143761 0.00153686 0)
(0.0140509 0.00137456 0)
(0.0137243 0.00122598 0)
(0.0133957 0.00108982 0)
(0.0130643 0.000964936 0)
(0.0127298 0.000850318 0)
(0.0123915 0.000745069 0)
(0.012049 0.000648411 0)
(0.0117019 0.000559655 0)
(0.0113498 0.000478211 0)
(0.0109925 0.000403527 0)
(0.0106297 0.000335108 0)
(0.0102613 0.000272656 0)
(0.00988713 0.000215706 0)
(0.00950715 0.000163938 0)
(0.00912133 0.000117055 0)
(0.00872966 7.47765e-05 0)
(0.00833214 3.6834e-05 0)
(0.00792876 2.97383e-06 0)
(0.00751954 -2.70584e-05 0)
(0.00710447 -5.35153e-05 0)
(0.00668352 -7.66516e-05 0)
(0.00625669 -9.67197e-05 0)
(0.00582395 -0.000113979 0)
(0.00538524 -0.000128697 0)
(0.00494064 -0.000141065 0)
(0.00449025 -0.000151397 0)
(0.00403417 -0.000159921 0)
(0.00357264 -0.000166859 0)
(0.003106 -0.000172432 0)
(0.00263474 -0.000176824 0)
(0.0021595 -0.000180217 0)
(0.00168116 -0.000182738 0)
(0.00120009 -0.000184525 0)
(0.000717852 -0.000185664 0)
(0.000239839 -0.000186226 0)
(0.00143941 0.0315236 0)
(0.00427158 0.0311002 0)
(0.00695086 0.0302875 0)
(0.00941054 0.0291443 0)
(0.0115991 0.0277432 0)
(0.013489 0.0261603 0)
(0.015076 0.0244674 0)
(0.0163713 0.0227266 0)
(0.0173971 0.0209885 0)
(0.0181817 0.0192916 0)
(0.0187555 0.0176631 0)
(0.019149 0.0161212 0)
(0.019391 0.0146768 0)
(0.0195076 0.0133351 0)
(0.0195222 0.0120972 0)
(0.0194551 0.0109613 0)
(0.0193236 0.00992366 0)
(0.0191425 0.00897918 0)
(0.0189237 0.00812186 0)
(0.0186772 0.00734528 0)
(0.0184107 0.00664286 0)
(0.0181303 0.00600806 0)
(0.0178404 0.00543459 0)
(0.0175445 0.00491647 0)
(0.017245 0.0044481 0)
(0.0169435 0.00402438 0)
(0.016641 0.00364077 0)
(0.016338 0.00329298 0)
(0.0160348 0.00297724 0)
(0.0157315 0.00269019 0)
(0.0154278 0.00242889 0)
(0.0151236 0.00219065 0)
(0.0148184 0.00197314 0)
(0.0145119 0.00177428 0)
(0.0142035 0.00159223 0)
(0.0138928 0.00142536 0)
(0.0135794 0.00127224 0)
(0.0132626 0.00113161 0)
(0.0129422 0.00100234 0)
(0.0126175 0.000883461 0)
(0.0122883 0.000774087 0)
(0.0119542 0.000673461 0)
(0.0116148 0.000580915 0)
(0.0112698 0.000495863 0)
(0.0109192 0.00041779 0)
(0.0105626 0.000346244 0)
(0.0102 0.00028078 0)
(0.00983136 0.000221085 0)
(0.00945655 0.000166825 0)
(0.00907561 0.000117698 0)
(0.00868854 7.34192e-05 0)
(0.00829534 3.37172e-05 0)
(0.00789605 -1.67493e-06 0)
(0.00749064 -3.30116e-05 0)
(0.00707912 -6.05615e-05 0)
(0.00666147 -8.45915e-05 0)
(0.00623766 -0.000105372 0)
(0.00580765 -0.00012318 0)
(0.00537149 -0.000138308 0)
(0.00492917 -0.000150961 0)
(0.00448074 -0.000161472 0)
(0.00402639 -0.000170092 0)
(0.00356636 -0.000177065 0)
(0.00310102 -0.000182614 0)
(0.00263086 -0.000186949 0)
(0.00215657 -0.000190284 0)
(0.00167903 -0.000192739 0)
(0.00119866 -0.000194464 0)
(0.000717022 -0.000195558 0)
(0.00023956 -0.000196086 0)
(0.00125292 0.0285225 0)
(0.00372515 0.0281861 0)
(0.00608189 0.027536 0)
(0.00827325 0.0266129 0)
(0.0102559 0.0254689 0)
(0.0120033 0.0241602 0)
(0.0135064 0.0227415 0)
(0.0147685 0.0212627 0)
(0.0158023 0.0197658 0)
(0.0166263 0.0182846 0)
(0.0172623 0.016845 0)
(0.0177334 0.0154656 0)
(0.0180624 0.0141589 0)
(0.0182709 0.0129326 0)
(0.0183786 0.0117904 0)
(0.0184033 0.0107332 0)
(0.0183605 0.0097598 0)
(0.0182637 0.0088672 0)
(0.0181241 0.00805143 0)
(0.0179511 0.00730777 0)
(0.0177522 0.00663112 0)
(0.0175336 0.0060162 0)
(0.0173 0.0054578 0)
(0.017055 0.00495085 0)
(0.0168013 0.00449047 0)
(0.0165411 0.00407226 0)
(0.0162757 0.00369203 0)
(0.016006 0.00334601 0)
(0.0157327 0.00303079 0)
(0.0154563 0.0027433 0)
(0.0151767 0.00248076 0)
(0.0148942 0.0022407 0)
(0.0146086 0.00202091 0)
(0.0143196 0.00181942 0)
(0.0140272 0.00163448 0)
(0.0137309 0.00146454 0)
(0.0134306 0.00130823 0)
(0.0131258 0.00116433 0)
(0.0128162 0.00103178 0)
(0.0125015 0.000909603 0)
(0.0121815 0.000796982 0)
(0.0118558 0.000693179 0)
(0.0115243 0.00059755 0)
(0.0111867 0.000509532 0)
(0.0108428 0.000428635 0)
(0.0104927 0.000354421 0)
(0.0101362 0.000286483 0)
(0.00977318 0.000224487 0)
(0.00940377 0.000168128 0)
(0.00902793 0.000117109 0)
(0.00864568 7.11493e-05 0)
(0.00825704 2.99772e-05 0)
(0.00786203 -6.68201e-06 0)
(0.00746065 -3.90898e-05 0)
(0.00705289 -6.75206e-05 0)
(0.00663871 -9.22528e-05 0)
(0.0062181 -0.000113573 0)
(0.00579101 -0.000131765 0)
(0.00535746 -0.000147129 0)
(0.00491748 -0.000159987 0)
(0.00447112 -0.000170584 0)
(0.00401858 -0.000179212 0)
(0.00356012 -0.000186141 0)
(0.00309612 -0.000191619 0)
(0.00262707 -0.000195879 0)
(0.00215371 -0.000199074 0)
(0.00167698 -0.000201423 0)
(0.00119728 -0.000203063 0)
(0.000716236 -0.000204094 0)
(0.000239299 -0.000204581 0)
(0.00110334 0.0258744 0)
(0.00328535 0.0256029 0)
(0.00537777 0.0250756 0)
(0.00734351 0.0243214 0)
(0.00914632 0.023378 0)
(0.0107616 0.0222874 0)
(0.0121785 0.0210917 0)
(0.0133955 0.0198307 0)
(0.0144191 0.0185393 0)
(0.0152609 0.0172466 0)
(0.0159365 0.0159762 0)
(0.0164629 0.014746 0)
(0.0168579 0.0135691 0)
(0.0171391 0.0124542 0)
(0.0173229 0.011407 0)
(0.0174245 0.0104299 0)
(0.0174576 0.00952346 0)
(0.0174341 0.00868647 0)
(0.0173643 0.00791651 0)
(0.0172569 0.00721029 0)
(0.0171191 0.00656398 0)
(0.016957 0.00597344 0)
(0.0167751 0.0054344 0)
(0.0165772 0.00494261 0)
(0.0163664 0.00449416 0)
(0.016145 0.00408503 0)
(0.0159147 0.00371156 0)
(0.0156768 0.00337043 0)
(0.0154321 0.00305859 0)
(0.0151815 0.00277323 0)
(0.0149252 0.00251182 0)
(0.0146638 0.00227208 0)
(0.0143972 0.00205196 0)
(0.0141255 0.00184961 0)
(0.0138486 0.00166341 0)
(0.0135666 0.00149187 0)
(0.0132792 0.00133371 0)
(0.0129862 0.00118776 0)
(0.0126874 0.00105301 0)
(0.0123827 0.000928545 0)
(0.0120719 0.000813582 0)
(0.0117547 0.000707422 0)
(0.0114311 0.000609453 0)
(0.0111009 0.000519146 0)
(0.010764 0.000436035 0)
(0.0104205 0.000359705 0)
(0.0100701 0.000289779 0)
(0.00971301 0.000225958 0)
(0.00934918 0.000167916 0)
(0.00897863 0.000115388 0)
(0.00860141 6.80874e-05 0)
(0.00821751 2.57431e-05 0)
(0.00782698 -1.19014e-05 0)
(0.0074298 -4.51277e-05 0)
(0.00702596 -7.42165e-05 0)
(0.00661542 -9.94564e-05 0)
(0.00619815 -0.000121148 0)
(0.0057741 -0.000139599 0)
(0.00534327 -0.000155103 0)
(0.00490572 -0.000167994 0)
(0.00446151 -0.000178566 0)
(0.00401083 -0.000187116 0)
(0.00355396 -0.000193927 0)
(0.00309129 -0.000199264 0)
(0.0026234 -0.00020338 0)
(0.00215102 -0.000206431 0)
(0.00167504 -0.00020865 0)
(0.00119599 -0.000210184 0)
(0.000715508 -0.000211141 0)
(0.000239059 -0.000211582 0)
(0.000981659 0.0235096 0)
(0.00292664 0.0232877 0)
(0.00480038 0.0228548 0)
(0.00657561 0.022232 0)
(0.0082219 0.0214471 0)
(0.00971707 0.0205318 0)
(0.0110498 0.0195189 0)
(0.0122161 0.01844 0)
(0.0132182 0.017324 0)
(0.0140632 0.0161958 0)
(0.0147617 0.0150763 0)
(0.0153263 0.0139821 0)
(0.0157707 0.0129261 0)