/*--------------------------------*- C++ -*----------------------------------*\
| =========                 |                                                 |
| \\      /  F ield         | OpenFOAM: The Open Source CFD Toolbox           |
|  \\    /   O peration     | Version:  2.4.0                                 |
|   \\  /    A nd           | Web:      www.OpenFOAM.org                      |
|    \\/     M anipulation  |                                                 |
\*---------------------------------------------------------------------------*/
FoamFile
{
    version     2.0;
    format      ascii;
    class       volVectorField;
    location    "0.2";
    object      U;
}
// * * * * * * * * * * * * * * * * * * * * * * * * * * * * * * * * * * * * * //

dimensions      [0 1 -1 0 0 0 0];

internalField   nonuniform List<vector> 
3072
(
(-0.528042 0.616786 5.02845e-24)
(-0.642715 0.395236 1.97306e-23)
(-0.621492 0.384425 7.91679e-25)
(-0.245626 0.333985 6.94397e-24)
(0.684897 0.265705 -3.63054e-24)
(1.28201 0.550033 3.73717e-24)
(1.34796 0.801108 8.34971e-23)
(1.49037 1.09055 -1.40695e-22)
(1.56888 1.24204 -2.18405e-22)
(1.71992 1.38571 6.32071e-24)
(1.76999 1.40557 -3.40887e-23)
(1.88726 1.37845 1.21181e-22)
(0.0473813 0.92954 -8.13205e-24)
(0.417996 1.02534 4.29154e-23)
(0.751815 1.59419 -1.11076e-24)
(0.953469 1.71945 4.28984e-32)
(1.23803 1.91129 -1.62907e-22)
(1.21917 1.78266 -1.60773e-22)
(1.26557 1.96882 0)
(1.25727 1.92379 1.17729e-24)
(1.33148 2.07827 -1.38105e-23)
(1.34955 1.99935 0)
(1.39399 2.02713 1.43642e-23)
(1.36937 1.87667 5.6787e-23)
(0.0741529 0.778027 0)
(0.430507 1.29833 1.81146e-24)
(0.654136 1.22299 -3.49546e-23)
(0.957168 1.56092 3.07642e-23)
(1.28524 1.50415 -1.09411e-23)
(1.40264 1.53102 -1.68078e-23)
(1.47905 1.47988 3.42504e-23)
(1.52325 1.53099 1.39382e-23)
(1.53918 1.52982 2.86889e-23)
(1.56115 1.57758 0)
(1.53691 1.5592 4.94254e-24)
(1.55581 1.57147 -7.93707e-23)
(0.828695 1.25909 0)
(0.888156 1.19435 0)
(0.854409 1.31842 0)
(1.07462 1.44086 2.5378e-23)
(1.2348 1.48152 3.13935e-23)
(1.34147 1.57201 -2.8745e-23)
(1.42033 1.63212 1.44519e-23)
(1.47153 1.7268 4.67434e-23)
(1.48204 1.80062 4.76765e-23)
(1.47618 1.84165 2.42936e-23)
(1.35681 1.83133 1.219e-22)
(1.34285 1.7651 1.61546e-22)
(0.791031 0.874849 -5.33649e-25)
(0.792038 1.17859 -5.94242e-24)
(1.04345 1.23141 -3.47443e-24)
(1.18631 1.31081 1.55156e-24)
(1.24708 1.32016 2.62019e-24)
(1.39925 1.40822 -5.30685e-23)
(1.50794 1.47378 -4.73366e-23)
(1.60014 1.58493 4.65944e-23)
(1.55011 1.63024 -6.21574e-24)
(1.48011 1.67409 4.84745e-23)
(1.29564 1.66026 -4.78197e-23)
(1.25686 1.64959 0)
(1.08833 1.19919 -6.68649e-25)
(1.07378 1.16553 -1.48539e-23)
(1.21296 1.21552 -5.22853e-24)
(1.26188 1.27192 5.29518e-24)
(1.37993 1.29303 3.33196e-24)
(1.46135 1.31932 0)
(1.57112 1.38168 1.14562e-23)
(1.58185 1.49659 3.9325e-23)
(1.36952 1.51697 1.53321e-23)
(1.24051 1.60863 9.51823e-24)
(1.00694 1.5782 2.01807e-24)
(1.01048 1.6034 6.2824e-24)
(0.980987 0.871734 -8.58211e-24)
(1.06417 1.19452 -2.09125e-23)
(1.19125 1.15519 0)
(1.27295 1.16462 0)
(1.36286 1.14288 0)
(1.50523 1.18764 -1.38679e-23)
(1.59999 1.25483 6.3171e-23)
(1.44273 1.348 3.93476e-23)
(1.17407 1.39952 -7.27192e-23)
(1.1819 1.56522 4.10238e-24)
(0.912842 1.56909 -1.02278e-22)
(0.923133 1.50595 -1.66867e-22)
(1.09353 1.33487 -8.4263e-24)
(1.14584 1.28416 -8.58283e-24)
(1.20954 1.0603 0)
(1.25444 1.05336 2.32569e-24)
(1.40854 0.948068 1.05045e-23)
(1.55229 0.970708 -7.25991e-23)
(1.54278 0.99153 -4.16692e-23)
(1.32603 1.15572 0)
(1.23528 1.21293 -4.69715e-23)
(1.30988 1.61228 -1.05088e-22)
(0.869706 1.74463 -2.01146e-22)
(0.865825 1.69295 -1.66418e-22)
(0.97041 0.899435 -5.1047e-24)
(0.97322 1.13038 -8.00218e-24)
(1.0426 1.01365 -2.01307e-24)
(1.16537 0.985863 2.82488e-23)
(1.30693 0.899461 -2.90767e-23)
(1.38603 0.824162 -6.48439e-23)
(1.43122 0.80081 1.09465e-22)
(1.2597 0.918231 6.66495e-23)
(1.28892 0.997005 4.75834e-23)
(1.2604 1.3767 1.01433e-22)
(0.466203 1.57457 0)
(0.551796 1.65576 -3.0949e-31)
(0.826201 1.43815 5.59539e-24)
(0.99911 1.23556 2.12364e-23)
(1.10203 1.00744 0)
(1.14548 0.884622 9.64354e-33)
(1.27004 0.717741 1.55179e-23)
(1.35194 0.587083 4.01559e-23)
(1.43035 0.629946 -3.13691e-23)
(1.15788 0.667164 -2.06198e-23)
(1.19717 0.607466 1.25542e-23)
(0.922943 0.970809 1.1157e-22)
(0.126612 1.25778 -1.83764e-22)
(0.0598418 1.41179 3.44034e-23)
(0.748649 0.851094 5.07543e-24)
(0.880567 1.14316 1.57731e-23)
(0.815385 0.971132 1.35506e-24)
(0.907555 0.880989 -2.19821e-23)
(1.08097 0.701313 -2.91507e-23)
(1.13761 0.389893 7.59459e-23)
(1.22128 0.308171 1.53051e-22)
(0.900174 0.382033 1.77844e-22)
(0.93752 0.275131 1.40972e-22)
(0.548574 0.445855 7.43083e-23)
(-0.11724 0.934985 1.71043e-23)
(-0.354755 1.15747 1.56501e-22)
(0.22081 1.80938 7.56117e-24)
(0.705541 1.05627 -5.00235e-25)
(0.856596 0.878122 0)
(0.912172 0.795617 -9.16281e-24)
(0.921304 0.555503 -5.61972e-23)
(0.940646 0.273652 -9.81042e-23)
(1.08773 0.0481328 -8.00662e-23)
(0.761901 0.0752612 8.37463e-23)
(0.783306 0.135532 1.11813e-22)
(0.209635 0.111103 -1.08486e-22)
(-0.260814 0.588997 -6.82789e-23)
(-0.731257 0.758065 7.50393e-23)
(1.8787 1.27419 -2.28281e-23)
(1.91262 1.13181 1.65317e-22)
(1.83324 0.997217 1.03302e-22)
(1.75525 0.813823 1.41456e-23)
(1.66389 0.706639 -1.12145e-22)
(1.5382 0.565933 -5.32843e-23)
(1.44813 0.442101 -2.28971e-23)
(1.3018 0.378833 0)
(1.14539 0.263308 3.2738e-23)
(1.04623 0.233895 4.91217e-23)
(0.805219 0.188514 1.30528e-23)
(0.721764 0.0149758 1.14173e-25)
(1.38557 1.82566 -3.16795e-23)
(1.38352 1.63849 0)
(1.39203 1.5431 -2.83478e-23)
(1.35107 1.33558 -1.80979e-23)
(1.31653 1.19286 0)
(1.24582 1.05489 4.31946e-23)
(1.18291 0.886305 0)
(1.14073 0.818412 -2.85025e-23)
(1.07459 0.718077 9.62859e-24)
(1.03499 0.644345 1.90227e-23)
(0.877364 0.57516 3.78738e-24)
(0.894667 0.341455 1.27211e-24)
(1.41051 1.47844 -6.02488e-23)
(1.41021 1.32864 -5.6554e-23)
(1.29724 1.22625 2.33809e-31)
(1.26643 1.10485 -1.48614e-22)
(1.21305 0.943764 -9.82848e-25)
(1.16454 0.874666 4.81852e-23)
(1.1021 0.770983 1.08283e-23)
(1.05902 0.71538 1.66074e-23)
(1.00655 0.661686 0)
(1.01048 0.652502 7.58589e-24)
(0.890064 0.614552 3.55779e-24)
(0.959985 0.513855 2.67239e-24)
(1.17796 1.74949 1.52705e-22)
(1.18454 1.55644 1.35492e-23)
(1.04816 1.44082 5.35299e-23)
(1.04895 1.31976 0)
(1.00583 1.16456 3.08658e-23)
(0.987692 1.03707 0)
(0.983058 0.918699 -1.28728e-23)
(0.969 0.837203 3.14211e-23)
(0.957295 0.757332 3.21389e-24)
(0.980984 0.728625 -3.35557e-24)
(0.920786 0.700568 0)
(1.0062 0.613116 1.49255e-24)
(0.990598 1.61756 0)
(1.0498 1.4861 1.32282e-22)
(0.850594 1.39927 8.08189e-23)
(0.87456 1.24929 0)
(0.829431 1.10198 -3.70213e-24)
(0.821503 0.965925 -7.51237e-24)
(0.844563 0.842916 -2.8302e-23)
(0.854231 0.753296 1.52026e-23)
(0.889273 0.681253 1.14647e-23)
(0.931141 0.656203 3.00181e-24)
(0.927792 0.630335 -3.63049e-24)
(1.04145 0.627538 1.76187e-24)
(0.711797 1.6329 -1.00292e-23)
(0.740292 1.44726 -5.21361e-24)
(0.572524 1.36778 -1.29576e-23)
(0.612557 1.23538 0)
(0.626733 1.12346 3.17143e-23)
(0.661734 0.969876 4.52687e-23)
(0.730797 0.849536 0)
(0.76752 0.738747 0)
(0.857515 0.668019 1.26394e-23)
(0.909529 0.635496 0)
(0.973065 0.603365 -3.80386e-24)
(1.08251 0.61087 4.94399e-24)
(0.608143 1.67463 -7.98586e-23)
(0.492972 1.46634 9.33268e-23)
(0.342708 1.3096 1.62227e-24)
(0.344478 1.08472 0)
(0.394388 0.972694 -2.12397e-23)
(0.461882 0.837728 -4.47506e-23)
(0.576853 0.736006 -3.9192e-24)
(0.650152 0.609548 0)
(0.787465 0.554091 1.0618e-23)
(0.853604 0.506905 1.9576e-24)
(0.989535 0.482045 3.63592e-24)
(1.10675 0.519569 3.95318e-24)
(0.376979 1.82246 8.28877e-23)
(0.284138 1.71515 1.51231e-22)
(0.139754 1.48332 -1.91382e-23)
(0.149486 1.11861 5.25747e-23)
(0.202087 0.899392 4.29427e-23)
(0.300374 0.726988 1.49621e-23)
(0.443496 0.625898 1.42687e-23)
(0.567556 0.497591 6.06557e-25)
(0.736111 0.451096 -6.50366e-25)
(0.836081 0.394674 -3.29482e-25)
(1.01253 0.372337 -1.17652e-23)
(1.12343 0.408214 1.14225e-24)
(-0.136871 1.63537 0)
(-0.132286 1.57566 0)
(-0.15627 1.49146 -5.2076e-23)
(-0.0684646 1.1517 5.98376e-23)
(0.033122 0.853729 6.0425e-23)
(0.17048 0.621567 8.27051e-24)
(0.305162 0.480433 -5.3659e-24)
(0.502291 0.369848 -2.6172e-25)
(0.64902 0.278627 4.75194e-24)
(0.822125 0.270322 0)
(0.998175 0.170616 -7.00629e-24)
(1.11142 0.209656 1.94943e-32)
(-0.514016 1.47767 -9.26134e-24)
(-0.520318 1.31846 0)
(-0.446626 1.26685 -2.11446e-31)
(-0.36289 1.01246 -4.64234e-23)
(-0.124165 0.785663 8.83161e-23)
(0.0810365 0.485776 -1.19441e-24)
(0.215738 0.384371 2.30428e-23)
(0.50284 0.1637 -9.01908e-24)
(0.564088 0.212099 -1.59449e-23)
(0.843216 0.0600768 -3.08803e-24)
(0.941272 0.176078 -2.44015e-24)
(1.16075 -0.020639 6.35683e-25)
(-0.846367 1.36155 4.32611e-23)
(-0.680259 1.26588 1.64708e-22)
(-0.631648 1.17682 3.07702e-23)
(-0.550494 0.902265 -1.97725e-23)
(-0.0935981 0.652358 -9.21791e-24)
(-0.182613 0.350402 -8.69375e-23)
(0.364369 0.224385 3.24158e-23)
(0.253251 0.0426052 9.51488e-24)
(0.813289 0.0149545 -8.81504e-24)
(0.620836 -0.127545 -1.09906e-23)
(1.30033 -0.0658044 4.06978e-24)
(1.05821 -0.334917 -1.20917e-24)
(-1.01888 1.09289 5.74397e-23)
(-0.81305 1.07637 -1.26995e-22)
(-0.872438 1.0531 4.70102e-24)
(-0.336921 0.853518 -2.00037e-31)
(-0.350206 0.610482 -2.0227e-23)
(-0.0205251 0.232324 4.4016e-23)
(0.186155 0.129038 3.7391e-23)
(0.417002 -0.127645 -1.50959e-23)
(0.45476 -0.0912407 0)
(0.720518 -0.240806 2.80538e-23)
(0.764829 -0.294348 -1.0946e-23)
(1.29929 -0.542127 -6.68643e-24)
(0.622818 0.396819 2.41081e-24)
(0.455246 0.43745 1.94127e-23)
(0.432127 0.285626 3.4072e-23)
(0.394601 -0.170948 2.129e-23)
(0.440227 -0.661106 1.03675e-23)
(0.632013 -0.907018 1.11901e-23)
(0.748214 -0.997432 2.98393e-22)
(0.941123 -1.13722 2.33709e-22)
(1.07973 -1.26202 -1.45312e-22)
(1.13816 -1.38214 9.90762e-24)
(1.1509 -1.45547 -1.60123e-22)
(1.10326 -1.53705 -3.16229e-23)
(0.927754 -0.0582337 1.20514e-24)
(1.08568 -0.347357 -9.1327e-24)
(1.4825 -0.636244 -7.88817e-24)
(1.48688 -0.771367 -2.29403e-23)
(1.64483 -0.938836 -3.21465e-23)
(1.58197 -0.949131 1.63747e-23)
(1.69612 -1.01581 -2.22586e-23)
(1.68775 -1.00722 0)
(1.75658 -1.08398 -9.37193e-23)
(1.71902 -1.10701 3.03628e-24)
(1.70146 -1.15449 2.59192e-23)
(1.60972 -1.15677 0)
(0.771771 -0.224883 -1.35475e-24)
(1.24335 -0.49301 1.44831e-24)
(1.13399 -0.651409 1.83919e-24)
(1.39609 -0.823224 0)
(1.2781 -0.991307 -5.62939e-23)
(1.33821 -1.05962 -5.98582e-23)
(1.27305 -1.12048 9.31041e-23)
(1.31709 -1.17897 -2.84623e-24)
(1.29953 -1.2024 -1.539e-23)
(1.30716 -1.24038 -5.80447e-23)
(1.28228 -1.23575 0)
(1.21673 -1.28103 0)
(1.18694 -0.831408 -2.58792e-24)
(1.12843 -0.80852 3.86931e-24)
(1.23938 -0.788505 7.25155e-24)
(1.28725 -0.905867 -1.30631e-23)
(1.35869 -0.976142 -6.73681e-23)
(1.39061 -1.03884 -2.03566e-23)
(1.44042 -1.07494 6.77446e-23)
(1.48832 -1.11591 1.97287e-23)
(1.53087 -1.13135 -4.22284e-23)
(1.54379 -1.14116 -1.09511e-22)
(1.52318 -1.06087 0)
(1.44502 -1.07352 0)
(0.824737 -0.708098 2.36484e-24)
(1.08471 -0.705013 2.10944e-24)
(1.17575 -0.911936 1.41635e-24)
(1.24862 -0.984645 1.10812e-23)
(1.24941 -1.04812 5.01135e-24)
(1.28925 -1.10786 -1.84876e-23)
(1.31114 -1.15403 -7.96861e-24)
(1.3723 -1.20727 3.26336e-23)
(1.39594 -1.19485 -2.83475e-23)
(1.44113 -1.22543 0)
(1.41383 -1.10498 -6.90418e-23)
(1.39306 -1.09435 -5.97717e-23)
(1.1636 -0.975309 1.69748e-25)
(1.2244 -1.05622 0)
(1.12349 -1.04622 -3.03793e-24)
(1.19948 -1.04009 -5.8128e-24)
(1.18386 -1.08868 -2.81704e-23)
(1.25903 -1.15942 1.13686e-24)
(1.27837 -1.20989 5.44809e-23)
(1.40203 -1.26758 1.71056e-23)
(1.46539 -1.22186 -4.07021e-24)
(1.57323 -1.21793 4.30075e-25)
(1.55122 -1.00515 2.27925e-24)
(1.50366 -1.00735 -6.07611e-23)
(0.945615 -0.903829 -1.3298e-24)
(1.1715 -0.890447 0)
(1.11437 -0.943649 0)
(1.16298 -1.03501 -2.56883e-23)
(1.11465 -1.10421 5.76442e-33)
(1.17683 -1.20783 1.73487e-23)
(1.19974 -1.29248 6.01359e-23)
(1.33668 -1.39226 3.51667e-23)
(1.43487 -1.30146 -1.98203e-23)
(1.60583 -1.27041 2.68667e-23)
(1.63934 -0.927224 -1.15454e-22)
(1.52687 -0.916853 -7.05788e-23)
(1.22311 -0.975706 -2.38018e-24)
(1.24069 -0.990226 -3.59268e-24)
(1.06866 -1.00963 -8.08794e-24)
(1.09961 -1.06466 -2.04229e-23)
(1.03842 -1.14175 1.89219e-23)
(1.06337 -1.26636 -1.75835e-23)
(1.07054 -1.36388 -5.97131e-23)
(1.24485 -1.46017 -5.89978e-23)
(1.33929 -1.30825 0)
(1.5802 -1.21836 0)
(1.69642 -0.716934 1.00886e-22)
(1.60184 -0.720397 8.67789e-23)
(0.960386 -0.790032 -7.58952e-24)
(1.16482 -0.888681 -1.7081e-23)
(1.05597 -0.927761 1.22756e-23)
(1.05503 -1.01398 -2.64275e-23)
(0.946031 -1.06883 2.24345e-23)
(0.982154 -1.19808 -2.44997e-23)
(0.935311 -1.35625 0)
(1.09369 -1.45071 -1.41439e-23)
(1.10687 -1.19573 -5.06725e-23)
(1.38188 -1.06795 -6.97423e-25)
(1.54522 -0.361776 -2.32866e-22)
(1.53643 -0.377139 -7.84618e-23)
(1.35421 -0.774608 -6.42262e-24)
(1.31493 -0.93734 -1.32808e-23)
(1.05708 -0.88165 -7.30895e-33)
(1.02225 -0.935402 -3.1242e-23)
(0.807569 -1.06191 1.19632e-23)
(0.764238 -1.23791 8.41341e-23)
(0.676326 -1.36539 -5.84517e-23)
(0.852641 -1.32549 -2.16376e-22)
(0.782819 -0.954866 -1.30949e-22)
(1.12602 -0.775105 2.5928e-23)
(1.25643 0.0571811 0)
(1.28604 0.0381862 3.42139e-23)
(0.898787 -0.54765 -6.10123e-24)
(1.09457 -0.741648 -1.5747e-23)
(0.977834 -0.729858 -2.30757e-23)
(0.942819 -0.798149 4.07409e-24)
(0.734141 -0.86129 4.19951e-23)
(0.619861 -0.986931 2.93261e-23)
(0.388006 -1.14873 3.21978e-23)
(0.543349 -1.07219 5.62126e-23)
(0.441775 -0.676857 -9.219e-23)
(0.765252 -0.424114 -1.41636e-22)
(0.933724 0.440949 0)
(0.987051 0.38922 -1.41422e-23)
(1.8637 -0.169935 9.45278e-25)
(1.13397 -0.723769 8.82498e-25)
(1.02196 -0.796201 0)
(0.937986 -0.720406 -4.66419e-24)
(0.633499 -0.835643 3.57658e-23)
(0.481852 -0.98038 0)
(0.0975449 -1.13479 1.56774e-22)
(0.150237 -0.880559 3.39445e-22)
(0.170147 -0.46006 2.34696e-22)
(0.308309 -0.000954456 -1.15345e-22)
(0.647956 0.69265 0)
(0.736655 0.730102 0)
(1.03981 -1.57857 -2.11314e-22)
(0.931852 -1.60968 -2.17455e-22)
(0.826519 -1.61709 8.90542e-24)
(0.698624 -1.58217 -1.04035e-24)
(0.575549 -1.54202 2.39997e-22)
(0.470627 -1.45622 1.8538e-22)
(0.344828 -1.32878 0)
(0.302417 -1.22639 0)
(0.227993 -1.08963 -3.09998e-24)
(0.190525 -1.00304 -6.00703e-25)
(0.166661 -0.795211 3.29675e-33)
(0.00958746 -0.713133 -5.23847e-34)
(1.53973 -1.17693 -8.20091e-23)
(1.40643 -1.18936 8.77492e-23)
(1.29196 -1.2079 1.63857e-22)
(1.17026 -1.21715 1.39694e-22)
(1.01572 -1.19587 1.70728e-22)
(0.917237 -1.18148 0)
(0.792577 -1.15179 5.36532e-23)
(0.7264 -1.10844 2.07291e-23)
(0.651346 -1.03878 2.71231e-24)
(0.586116 -1.0117 3.77094e-25)
(0.531917 -0.856869 2.9688e-25)
(0.313222 -0.885402 2.05436e-25)
(1.14554 -1.23255 0)
(1.06365 -1.21749 5.68583e-23)
(0.954676 -1.19743 5.39073e-23)
(0.899186 -1.1761 0)
(0.789432 -1.1448 -9.41046e-23)
(0.72722 -1.10875 -8.34677e-23)
(0.65454 -1.07464 -6.27404e-32)
(0.612894 -1.0447 -1.68182e-24)
(0.573756 -0.99206 0)
(0.576355 -1.00276 0)
(0.551526 -0.880163 -1.12658e-24)
(0.459722 -0.955399 6.67723e-27)
(1.36784 -1.01473 0)
(1.30776 -1.02137 -4.37222e-23)
(1.19399 -0.9887 0)
(1.08706 -0.986348 -1.23638e-23)
(0.98655 -0.984702 -5.85604e-23)
(0.884339 -0.976063 -1.12525e-23)
(0.801157 -0.97932 -1.12194e-23)
(0.739432 -0.977212 -6.43089e-24)
(0.679042 -0.960695 -2.85677e-24)
(0.664006 -0.991005 6.08104e-24)
(0.64494 -0.920297 -2.80232e-24)
(0.563046 -1.00821 1.32987e-24)
(1.32237 -0.957981 6.50073e-23)
(1.20337 -0.946053 2.89836e-23)
(1.12909 -0.888001 0)
(0.994032 -0.862022 3.38485e-23)
(0.896381 -0.869838 -3.84552e-23)
(0.79328 -0.858606 -2.70638e-23)
(0.713397 -0.886641 -3.48963e-23)
(0.653865 -0.894061 -8.24759e-24)
(0.602308 -0.915631 -2.46994e-24)
(0.595369 -0.956136 8.25233e-24)
(0.579957 -0.937197 -4.21128e-24)
(0.581583 -1.04773 1.8329e-24)
(1.47509 -0.823332 0)
(1.31618 -0.809554 1.12241e-22)
(1.21324 -0.736393 1.08526e-22)
(1.05412 -0.722846 0)
(0.939908 -0.747874 0)
(0.812796 -0.753933 2.40904e-23)
(0.734103 -0.816493 0)
(0.655372 -0.834248 0)
(0.604662 -0.907198 0)
(0.589801 -0.946134 -4.35733e-25)
(0.564794 -0.990964 -1.62684e-24)
(0.580332 -1.09161 2.72733e-24)
(1.49648 -0.662446 0)
(1.34007 -0.647176 7.03285e-23)
(1.20062 -0.544609 3.75781e-23)
(1.00553 -0.547752 0)
(0.876693 -0.598064 2.37977e-23)
(0.726617 -0.625219 2.204e-23)
(0.654655 -0.720205 1.43173e-23)
(0.554716 -0.751953 -5.26468e-24)
(0.521365 -0.870437 0)
(0.485001 -0.903069 0)
(0.466292 -1.02554 1.24572e-23)
(0.509487 -1.11925 2.00147e-24)
(1.52062 -0.424956 0)
(1.37241 -0.41495 1.12749e-22)
(1.20454 -0.301182 8.51788e-23)
(0.972002 -0.343899 1.574e-23)
(0.821363 -0.43362 2.25908e-23)
(0.658276 -0.498915 -8.4957e-24)
(0.58705 -0.627816 9.13775e-24)
(0.470327 -0.688336 -4.16041e-24)
(0.452435 -0.840513 -3.52446e-24)
(0.39291 -0.880238 8.35287e-25)
(0.38204 -1.05856 4.90971e-24)
(0.425596 -1.13571 -3.44445e-24)
(1.4678 -0.0977989 2.99459e-23)
(1.30669 -0.0674233 1.13304e-22)
(1.13659 -0.0130586 7.03983e-23)
(0.873435 -0.127489 2.98114e-23)
(0.703026 -0.238749 1.21557e-23)
(0.552902 -0.366086 -1.75406e-23)
(0.454787 -0.507171 7.7627e-24)
(0.389337 -0.630933 -4.81915e-25)
(0.306746 -0.763038 -4.09987e-24)
(0.30476 -0.874516 2.34944e-24)
(0.179169 -1.04583 1.52318e-24)
(0.254154 -1.12051 -5.46856e-24)
(1.28535 0.29538 1.38151e-23)
(1.13565 0.37022 -1.65778e-23)
(1.01329 0.281413 9.51841e-24)
(0.726539 0.0988929 4.22779e-23)
(0.575372 -0.0423688 2.23625e-23)
(0.379957 -0.309906 2.66656e-23)
(0.364906 -0.34417 -3.33438e-24)
(0.206498 -0.658298 1.21634e-25)
(0.280335 -0.64439 -1.06357e-32)
(0.122546 -0.913291 -7.53201e-24)
(0.215815 -0.961347 2.01706e-24)
(0.0364939 -1.15264 3.35779e-25)
(1.00998 0.683429 0)
(0.91952 0.692043 7.93709e-23)
(0.818183 0.433159 2.81447e-23)
(0.519867 0.455356 5.45276e-23)
(0.418971 -0.0869926 8.87082e-23)
(0.219156 0.0038541 7.21223e-23)
(0.190709 -0.525439 1.36534e-23)
(0.0861848 -0.364815 -3.23382e-23)
(0.105216 -0.905537 -9.94806e-24)
(-0.0285523 -0.674439 1.15656e-23)
(0.00744983 -1.34671 1.93685e-24)
(-0.253568 -1.06871 -3.01907e-25)
(0.816933 1.04348 0)
(0.805724 0.748574 -4.54862e-23)
(0.706946 0.751553 0)
(0.392983 0.287588 0)
(0.218983 0.177533 6.1857e-23)
(0.0497165 -0.118895 -1.68096e-23)
(0.0882964 -0.297728 2.3938e-23)
(-0.103294 -0.487703 0)
(0.00130677 -0.50097 0)
(-0.16115 -0.773932 -1.88641e-23)
(-0.196693 -0.823298 -6.70113e-24)
(-0.456987 -1.29989 2.36096e-24)
(0.398926 -0.622854 -3.0083e-24)
(0.440308 -0.454606 1.05273e-23)
(0.286146 -0.43102 2.90984e-23)
(-0.175462 -0.393484 2.14945e-23)
(-0.668982 -0.441199 -1.03419e-23)
(-0.912542 -0.634383 0)
(-1.00253 -0.752684 2.84595e-23)
(-1.14298 -0.94773 -1.85736e-31)
(-1.26764 -1.08686 -1.15851e-23)
(-1.38757 -1.14434 9.92093e-24)
(-1.45975 -1.15591 -1.99814e-22)
(-1.54166 -1.10769 0)
(-0.0595959 -0.929181 -3.0338e-24)
(-0.348583 -1.08592 3.02987e-24)
(-0.639596 -1.48758 -3.63937e-23)
(-0.774297 -1.48888 -1.2103e-23)
(-0.942199 -1.64971 0)
(-0.951989 -1.58438 1.56608e-23)
(-1.01825 -1.70276 -1.30238e-22)
(-1.00898 -1.69284 -3.69192e-23)
(-1.08672 -1.76422 4.69795e-23)
(-1.10919 -1.72478 0)
(-1.15543 -1.7082 -4.8948e-23)
(-1.15847 -1.61391 0)
(-0.224697 -0.768716 1.20215e-24)
(-0.49555 -1.24606 2.74367e-24)
(-0.655173 -1.13407 2.14363e-24)
(-0.828354 -1.39934 2.29797e-23)
(-0.996326 -1.27844 5.82851e-23)
(-1.06443 -1.34169 -2.12849e-31)
(-1.12667 -1.27737 0)
(-1.18391 -1.32328 5.3578e-23)
(-1.20694 -1.30564 -2.01315e-23)
(-1.24523 -1.31574 -5.86679e-23)
(-1.23617 -1.28893 -8.15037e-23)
(-1.28437 -1.22179 -6.72055e-23)
(-0.832976 -1.1911 -1.29113e-24)
(-0.812419 -1.12842 2.56234e-24)
(-0.791194 -1.24072 -1.08682e-23)
(-0.910375 -1.28903 1.34593e-23)
(-0.980118 -1.36152 -6.68037e-24)
(-1.04196 -1.3931 1.30902e-23)
(-1.07947 -1.44667 1.16959e-22)
(-1.1212 -1.49542 3.01081e-23)
(-1.13613 -1.5384 -5.43917e-23)
(-1.14567 -1.55244 1.12915e-22)
(-1.05895 -1.53018 3.99035e-23)
(-1.07752 -1.44892 -3.8574e-23)
(-0.714654 -0.824502 4.48946e-24)
(-0.708189 -1.08704 1.3781e-25)
(-0.917816 -1.17846 -3.0333e-24)
(-0.990931 -1.25027 7.14094e-24)
(-1.05305 -1.25181 2.06592e-23)
(-1.11312 -1.29304 2.09966e-23)
(-1.15958 -1.31719 0)
(-1.21257 -1.37947 3.34632e-23)
(-1.19994 -1.40242 2.85363e-23)
(-1.2317 -1.45151 6.60479e-23)
(-1.09724 -1.41997 6.65474e-23)
(-1.10137 -1.39909 0)
(-0.977141 -1.16451 1.56308e-25)
(-1.05817 -1.21926 1.35751e-24)
(-1.05103 -1.12304 3.10788e-24)
(-1.04283 -1.19953 -1.26979e-23)
(-1.09684 -1.18666 -1.32501e-23)
(-1.1656 -1.26245 -1.59857e-23)
(-1.21887 -1.28476 -1.71268e-23)
(-1.27352 -1.4111 2.27138e-23)
(-1.22826 -1.47378 1.13141e-23)
(-1.2252 -1.58811 -5.47005e-23)
(-0.984907 -1.55246 0)
(-1.01796 -1.50482 0)
(-0.908819 -0.944671 0)
(-0.895265 -1.17577 3.40948e-24)
(-0.953894 -1.11633 6.83631e-24)
(-1.0436 -1.16435 -8.99048e-24)
(-1.11495 -1.11632 -1.64682e-23)
(-1.21509 -1.18056 1.61254e-23)
(-1.30641 -1.2046 2.34927e-23)
(-1.39993 -1.34745 -2.64366e-24)
(-1.30899 -1.44498 0)
(-1.27812 -1.6358 -9.14949e-23)
(-0.888658 -1.64557 -1.25674e-22)
(-0.934177 -1.51582 -6.78791e-23)
(-0.979139 -1.22639 0)
(-0.991984 -1.23525 -1.60705e-23)
(-1.01771 -1.06567 0)
(-1.06528 -1.09727 2.37865e-23)
(-1.15565 -1.03682 -1.91858e-23)
(-1.27241 -1.06353 -2.06947e-23)
(-1.38089 -1.07267 -7.06787e-23)
(-1.46554 -1.2532 -5.66117e-23)
(-1.31678 -1.33959 0)
(-1.22443 -1.62502 8.28012e-23)
(-0.655953 -1.71653 3.59756e-31)
(-0.751094 -1.58971 0)
(-0.797634 -0.961334 -3.84082e-24)
(-0.885486 -1.16499 -7.69697e-24)
(-0.939828 -1.05541 1.67074e-24)
(-1.0162 -1.05294 5.59886e-33)
(-1.08578 -0.946054 2.08692e-23)
(-1.19965 -0.984256 -7.78066e-23)
(-1.37733 -0.930561 -8.0387e-23)
(-1.45095 -1.09206 -7.06947e-23)
(-1.20146 -1.0767 0)
(-1.07098 -1.42389 -5.83902e-24)
(-0.279514 -1.5685 -2.22387e-22)
(-0.415967 -1.53725 2.60703e-23)
(-0.774218 -1.35585 -8.7849e-24)
(-0.933093 -1.30064 -1.60531e-23)
(-0.901527 -1.05186 -2.42146e-23)
(-0.931691 -1.01327 -2.85e-23)
(-1.09255 -0.805078 -1.14627e-32)
(-1.23852 -0.764144 -8.90851e-23)
(-1.3922 -0.686464 -2.22546e-23)
(-1.3079 -0.875459 3.92331e-32)
(-0.968956 -0.739582 0)
(-0.778164 -1.14994 -7.52006e-24)
(0.14168 -1.27433 -1.40795e-22)
(0.00311769 -1.29287 2.7219e-31)
(-0.555461 -0.915185 3.78045e-24)
(-0.730966 -1.09618 -1.27572e-23)
(-0.749533 -0.980709 -2.2315e-23)
(-0.790028 -0.935041 0)
(-0.895882 -0.734214 2.04053e-23)
(-0.976174 -0.612827 -3.34241e-23)
(-1.18678 -0.385137 1.16268e-22)
(-1.03773 -0.574144 3.58167e-22)
(-0.697551 -0.434884 9.68138e-23)
(-0.411554 -0.760925 7.23832e-23)
(0.498548 -0.962284 0)
(0.347341 -0.992508 1.33218e-23)
(-0.179142 -1.80732 8.69853e-24)
(-0.711107 -1.1115 -9.00965e-25)
(-0.814754 -1.00096 -1.94985e-23)
(-0.703402 -0.91376 1.99362e-23)
(-0.876242 -0.630501 4.17019e-23)
(-0.958691 -0.460173 3.19853e-23)
(-1.19306 -0.104132 -5.49506e-24)
(-0.820372 -0.13345 1.96257e-22)
(-0.498066 -0.203814 7.78677e-23)
(0.0551428 -0.273665 1.19644e-22)
(0.707692 -0.6844 0)
(0.706442 -0.726882 -9.17696e-23)
(-1.58143 -1.04335 2.70922e-23)
(-1.61324 -0.934293 2.32805e-22)
(-1.61823 -0.828585 2.3287e-24)
(-1.58439 -0.69919 -2.54598e-22)
(-1.54248 -0.576949 2.33742e-22)
(-1.45682 -0.470543 1.84967e-22)
(-1.32904 -0.345092 -3.59432e-24)
(-1.22614 -0.302387 1.63101e-24)
(-1.08986 -0.228154 -3.22549e-24)
(-1.00235 -0.190008 -1.35317e-24)
(-0.796206 -0.166075 -1.67006e-24)
(-0.713172 -0.01009 8.56243e-26)
(-1.17607 -1.54501 0)
(-1.19102 -1.40882 -4.68178e-23)
(-1.20692 -1.29541 -9.91925e-23)
(-1.21873 -1.17114 2.16884e-23)
(-1.19491 -1.01766 0)
(-1.18174 -0.917426 -5.49352e-24)
(-1.15174 -0.793432 0)
(-1.10734 -0.725744 -1.90545e-23)
(-1.03961 -0.651853 -2.6224e-24)
(-1.01016 -0.585574 -6.98896e-26)
(-0.858294 -0.530793 2.29286e-24)
(-0.884656 -0.314675 1.45059e-25)
(-1.23012 -1.15072 0)
(-1.22005 -1.06501 0)
(-1.19402 -0.959339 6.47439e-23)
(-1.17733 -0.898949 3.08149e-23)
(-1.14299 -0.793406 -4.67e-24)
(-1.10836 -0.726028 1.00485e-22)
(-1.07448 -0.657015 -3.16639e-23)
(-1.04257 -0.61183 -2.11316e-23)
(-0.993119 -0.573846 0)
(-1.00015 -0.575715 6.52753e-25)
(-0.881721 -0.549139 5.38501e-25)
(-0.954099 -0.461402 1.56436e-26)
(-1.00869 -1.37184 0)
(-1.02701 -1.30755 0)
(-0.983858 -1.20138 5.4572e-23)
(-0.987744 -1.08479 6.03603e-23)
(-0.983106 -0.991377 5.36966e-23)
(-0.974861 -0.883054 1.04731e-22)
(-0.979891 -0.803565 2.0787e-23)
(-0.974282 -0.738643 -3.45121e-23)
(-0.962429 -0.678902 3.50349e-24)
(-0.987618 -0.663642 8.54761e-25)
(-0.921903 -0.641155 2.74486e-24)
(-1.00603 -0.564244 -4.34371e-25)
(-0.944587 -1.32983 6.63403e-23)
(-0.955311 -1.19708 5.72013e-23)
(-0.881374 -1.14156 0)
(-0.861859 -0.991125 3.41267e-23)
(-0.868836 -0.90149 -2.96384e-23)
(-0.855663 -0.792363 1.65862e-23)
(-0.88853 -0.715879 2.36345e-23)
(-0.88962 -0.653661 -1.07984e-23)
(-0.918424 -0.601326 1.10115e-23)
(-0.951815 -0.596009 8.11357e-24)
(-0.939278 -0.575078 2.29479e-24)
(-1.04408 -0.581938 4.7828e-24)
(-0.803115 -1.48822 7.97546e-23)
(-0.82391 -1.30457 -4.50571e-23)
(-0.727281 -1.22596 -3.0858e-24)
(-0.721896 -1.05071 7.76811e-23)
(-0.746958 -0.943946 2.86321e-23)
(-0.749324 -0.811334 1.59247e-23)
(-0.819363 -0.737213 1.42367e-24)
(-0.827725 -0.655998 1.31752e-23)
(-0.911781 -0.604336 9.50165e-24)
(-0.940106 -0.591614 9.65463e-24)
(-0.994474 -0.559745 0)
(-1.08527 -0.580433 -8.26526e-32)
(-0.633836 -1.50643 9.35186e-23)
(-0.668231 -1.33182 4.18065e-23)
(-0.527773 -1.21252 -5.97483e-23)
(-0.545765 -1.00131 -4.84138e-23)
(-0.599083 -0.879018 4.38214e-23)
(-0.618647 -0.722737 2.24384e-23)
(-0.725198 -0.657587 -1.92653e-23)
(-0.742349 -0.554376 -2.30513e-33)
(-0.877648 -0.523281 2.79479e-23)
(-0.8925 -0.488147 0)
(-1.03033 -0.462028 0)
(-1.10869 -0.50752 -3.19393e-24)
(-0.389815 -1.51674 -1.05495e-22)
(-0.446164 -1.36665 -9.61007e-23)
(-0.269792 -1.21585 0)
(-0.337312 -0.968824 0)
(-0.434735 -0.823406 -1.92019e-23)
(-0.488648 -0.653679 -1.93602e-23)
(-0.635625 -0.589762 -4.49711e-24)
(-0.677216 -0.464998 -1.31149e-23)
(-0.851523 -0.453893 2.01227e-23)
(-0.860246 -0.393006 7.66561e-24)
(-1.0618 -0.382429 1.13836e-23)
(-1.11796 -0.41778 3.48174e-24)
(-0.0631907 -1.45826 7.91881e-23)
(-0.101864 -1.29723 2.28637e-22)
(0.0297236 -1.14327 6.48939e-23)
(-0.127077 -0.865416 -8.47344e-24)
(-0.234451 -0.701546 -1.15377e-23)
(-0.349942 -0.555963 0)
(-0.512322 -0.455529 6.30412e-24)
(-0.6145 -0.393596 -6.7446e-24)
(-0.766052 -0.307412 9.16847e-24)
(-0.852063 -0.31614 5.33265e-24)
(-1.04786 -0.163582 9.09455e-24)
(-1.09001 -0.224806 2.50858e-24)
(0.326257 -1.28075 -3.19125e-23)
(0.356207 -1.12787 0)
(0.333063 -1.02479 -1.3851e-23)
(0.0693339 -0.701223 -2.652e-23)
(-0.0265003 -0.573362 -2.76482e-23)
(-0.323226 -0.363338 -8.06371e-24)
(-0.343001 -0.367198 8.63417e-24)
(-0.665401 -0.20455 -6.65141e-24)
(-0.654529 -0.295495 -6.07891e-24)
(-0.905265 -0.147048 7.64963e-24)
(-0.965767 -0.235738 1.03596e-24)
(-1.13088 -0.0286275 -2.8243e-25)
(0.71463 -1.01127 6.62876e-24)
(0.694433 -0.925608 0)
(0.46393 -0.828629 -1.16941e-22)
(0.464863 -0.515044 -4.21495e-23)
(-0.0950167 -0.413233 3.78424e-23)
(0.0360288 -0.195893 4.36344e-23)
(-0.551354 -0.190246 4.58554e-24)
(-0.330763 -0.067793 3.04453e-23)
(-0.958145 -0.111148 9.15875e-24)
(-0.658719 0.0309956 -5.37868e-24)
(-1.4762 -0.0167789 1.04621e-23)
(-1.05335 0.284449 -4.34668e-26)
(1.07185 -0.831158 5.53212e-23)
(0.713304 -0.806838 0)
(0.811474 -0.728259 -5.582e-24)
(0.207953 -0.383233 1.4932e-22)
(0.248713 -0.224214 1.21808e-22)
(-0.155146 -0.0432388 8.68738e-23)
(-0.255297 -0.0816135 0)
(-0.475118 0.122443 2.75263e-23)
(-0.437076 0.000389443 -1.00344e-23)
(-0.75551 0.191429 0)
(-0.717205 0.198788 -3.06701e-24)
(-1.30196 0.405956 3.05683e-24)
(-0.623001 -0.296087 5.28265e-24)
(-0.498931 -0.264502 2.08751e-23)
(-0.493706 -0.0643673 1.58137e-24)
(-0.497284 0.295843 -1.17299e-23)
(-0.579699 0.577626 3.917e-25)
(-0.706043 0.759541 5.32525e-25)
(-0.8157 0.863385 -1.70021e-22)
(-0.88306 0.973566 -3.99282e-22)
(-0.939924 1.06611 -1.54362e-22)
(-0.967189 1.1695 -5.85924e-23)
(-0.959663 1.24183 -2.83705e-24)
(-0.924238 1.31074 1.87019e-23)
(-0.893382 0.0237671 -2.23366e-24)
(-1.08498 0.277021 -6.24707e-24)
(-1.32227 0.529635 -2.46718e-23)
(-1.39581 0.63713 -1.9052e-24)
(-1.50521 0.797509 -6.00675e-23)
(-1.51842 0.825846 0)
(-1.56031 0.903577 -1.3088e-23)
(-1.55517 0.934863 0)
(-1.55436 0.98167 6.12089e-25)
(-1.51968 1.0193 -4.24825e-25)
(-1.47122 1.04866 0)
(-1.40051 1.06232 2.06177e-23)
(-0.811428 0.282479 -3.46723e-24)
(-1.16367 0.486391 4.48083e-24)
(-1.12355 0.567056 -1.25746e-23)
(-1.26833 0.693229 0)
(-1.23142 0.781488 -3.17837e-23)
(-1.25028 0.864328 -2.53416e-23)
(-1.20967 0.913912 -1.00304e-22)
(-1.19257 0.97095 -2.38024e-23)
(-1.15114 1.00705 9.19239e-23)
(-1.10932 1.05594 1.27508e-31)
(-1.06626 1.08415 -3.34704e-24)
(-1.0157 1.12561 -4.55368e-24)
(-1.14303 0.741814 -3.20716e-24)
(-1.06816 0.687329 6.496e-24)
(-1.18333 0.721957 -2.78249e-24)
(-1.21824 0.75503 3.66721e-24)
(-1.27145 0.813752 -2.30961e-23)
(-1.30629 0.861629 1.7801e-23)
(-1.31976 0.889608 0)
(-1.33791 0.92952 -4.15136e-23)
(-1.33129 0.931303 0)
(-1.3239 0.95964 -8.24908e-24)
(-1.263 0.923679 -5.40284e-23)
(-1.2445 0.944547 -4.41338e-23)
(-0.759158 0.598883 3.08133e-24)
(-1.12239 0.643717 1.0747e-23)
(-1.09157 0.784808 4.41484e-24)
(-1.21661 0.808568 1.83444e-23)
(-1.17928 0.874542 -1.25513e-23)
(-1.22451 0.893193 2.42795e-23)
(-1.20809 0.918315 2.83631e-23)
(-1.22972 0.966547 2.66545e-23)
(-1.19129 0.945129 0)
(-1.21801 0.97901 -3.54072e-23)
(-1.15046 0.936004 -4.3816e-23)
(-1.1115 0.947428 0)
(-1.18096 0.876108 7.39634e-24)
(-1.21054 0.965894 1.15528e-23)
(-1.10521 0.851168 0)
(-1.17495 0.901055 -1.33413e-23)
(-1.14308 0.849867 0)
(-1.21961 0.930056 0)
(-1.20431 0.934523 -3.91131e-23)
(-1.28459 0.962524 -2.83047e-23)
(-1.25306 0.916785 0)
(-1.3055 0.940668 1.52771e-23)
(-1.26993 0.855845 1.36523e-23)
(-1.19341 0.859755 -1.09996e-23)
(-0.956882 0.786336 6.24257e-24)
(-1.12814 0.704242 9.2304e-24)
(-1.11255 0.797369 5.42311e-24)
(-1.16555 0.826289 -1.29182e-23)
(-1.12619 0.910419 0)
(-1.19229 0.994454 7.01769e-24)
(-1.15482 0.941227 2.75483e-23)
(-1.27729 1.03914 1.56468e-23)
(-1.30436 0.994243 0)
(-1.35193 1.03878 -4.7691e-24)
(-1.40359 0.9163 -6.99447e-23)