/*--------------------------------*- C++ -*----------------------------------*\
| =========                 |                                                 |
| \\      /  F ield         | OpenFOAM: The Open Source CFD Toolbox           |
|  \\    /   O peration     | Version:  v1606+                                |
|   \\  /    A nd           | Web:      www.OpenFOAM.com                      |
|    \\/     M anipulation  |                                                 |
\*---------------------------------------------------------------------------*/
FoamFile
{
    version     2.0;
    format      ascii;
    class       volScalarField;
    location    "0.05";
    object      nut;
}
// * * * * * * * * * * * * * * * * * * * * * * * * * * * * * * * * * * * * * //

dimensions      [0 2 -1 0 0 0 0];

internalField   nonuniform List<scalar> 
2268
(
0.000151625
0.000112217
0.000118516
0.00012178
0.000123607
0.000125023
0.000126537
0.000128462
0.000131094
0.000134904
0.000140087
0.000144603
0.000146679
0.000148244
0.000149774
0.000146464
0.000144169
0.000138218
0.000131009
0.000124749
0.000119296
0.000112555
9.98816e-05
0.000276025
0.000650823
0.000849015
0.000936759
0.000973885
0.000992576
0.00100784
0.00102718
0.0010556
0.0010985
0.00114867
0.00119108
0.00120423
0.00114835
0.001002
0.000839589
0.000691722
0.000590332
0.000576394
0.000606005
0.0006077
0.000534765
0.000275959
0.000287412
0.00107068
0.00162789
0.00192292
0.00206189
0.00213136
0.00217927
0.00222969
0.00229551
0.00238342
0.00248187
0.00256467
0.00258787
0.00244363
0.00208482
0.00170445
0.00135258
0.00117364
0.00119865
0.0012712
0.00124065
0.000986301
0.000300819
0.000293018
0.00134979
0.0022979
0.00288271
0.00318479
0.00333689
0.00342946
0.00351069
0.00360367
0.00371594
0.00383465
0.00393223
0.00395337
0.0037613
0.00325814
0.00268599
0.00214519
0.00190555
0.0019635
0.00204261
0.00191829
0.00138686
0.000315623
0.00029624
0.00152654
0.00282019
0.00372226
0.00422774
0.00448816
0.00463476
0.00474421
0.00485298
0.00497227
0.00509165
0.00518921
0.00521262
0.00503125
0.00451027
0.00381257
0.00313169
0.00281107
0.00284483
0.00286969
0.00258311
0.00171573
0.000326018
0.00029821
0.00163583
0.00319934
0.00439799
0.00511795
0.00550027
0.00570674
0.00584243
0.00595964
0.0060762
0.00618697
0.0062792
0.00631194
0.00617429
0.00571383
0.00494366
0.00419213
0.00380694
0.00377737
0.00369818
0.00319866
0.00198075
0.000334514
0.000299494
0.00170239
0.0034599
0.00490631
0.00582611
0.00633008
0.00659738
0.00675772
0.00687965
0.0069895
0.00708886
0.00717505
0.00722052
0.00713682
0.00677657
0.00600243
0.00522376
0.00479964
0.00469266
0.00448459
0.00375558
0.00221042
0.00034284
0.000300432
0.00174258
0.0036315
0.0052681
0.00635696
0.00697085
0.00729483
0.00747755
0.00760244
0.00770475
0.0077933
0.00787513
0.00793606
0.00790953
0.00766753
0.00694335
0.00616052
0.00571884
0.0055385
0.00520465
0.00427382
0.00245957
0.000353744
9.99689e-05
0.000112064
0.000116819
0.00011801
0.00011794
0.000117584
0.000117385
0.000117176
0.000116968
0.000116763
0.000116563
0.000116365
0.000116167
0.000115956
0.000115683
0.000115169
0.000113756
0.000109631
0.000158979
0.000312131
0.00066298
0.000824947
0.000877102
0.000886701
0.000884101
0.000878246
0.000874144
0.000871833
0.000870736
0.000870382
0.000870428
0.000870549
0.000870112
0.000867095
0.00085427
0.000807862
0.000663124
0.000314234
0.000328449
0.00111964
0.00162269
0.00183216
0.00189252
0.00189968
0.00189108
0.00188303
0.00187793
0.0018752
0.00187397
0.00187347
0.00187268
0.00186899
0.00185371
0.00179862
0.00162548
0.00117254
0.000328173
0.000335508
0.00143084
0.00234483
0.00281141
0.00297762
0.003016
0.00301218
0.00300253
0.00299535
0.00299118
0.00298903
0.00298761
0.00298459
0.00297303
0.00293071
0.00279319
0.00241044
0.00155945
0.000334974
0.000340373
0.00162474
0.00293257
0.00371722
0.00403872
0.0041319
0.00414248
0.00413484
0.00412694
0.00412185
0.00411888
0.00411615
0.00410905
0.00408345
0.00399655
0.00373711
0.00308645
0.0018281
0.000338879
0.000347229
0.00173748
0.00337939
0.00449424
0.00499811
0.00516316
0.00519658
0.00519463
0.00518757
0.00518221
0.00517857
0.00517401
0.00516076
0.00511484
0.00496796
0.00455935
0.00362099
0.00200335
0.000341202
0.000362073
0.00180237
0.00371815
0.00513235
0.00581438
0.00605521
0.0061156
0.00612184
0.00611689
0.00611183
0.00610762
0.00610077
0.0060796
0.00600863
0.00579245
0.00522549
0.00401544
0.00211255
0.000342584
0.000388469
0.00188121
0.00402059
0.00565867
0.00648035
0.00678504
0.00687068
0.00688565
0.00688344
0.00687903
0.00687432
0.00686486
0.00683471
0.00673655
0.00644932
0.00573194
0.00428969
0.00217794
0.000343411
0.000301351
0.00177628
0.00378923
0.00563164
0.00692274
0.00767604
0.0080722
0.00827969
0.00840135
0.00848575
0.00855385
0.00862753
0.00871359
0.00878506
0.008759
0.00823694
0.00750697
0.00706607
0.00678618
0.00628616
0.00515211
0.00318442
0.000923131
0.000302325
0.0017959
0.00387573
0.0058358
0.00725271
0.00809838
0.00854329
0.008766
0.00888295
0.00895445
0.0090135
0.00909786
0.0092355
0.00942937
0.00961048
0.00923307
0.0085518
0.0081285
0.00781274
0.00728988
0.00623275
0.00447926
0.00245466
0.000303175
0.00181052
0.0039208
0.00592446
0.00738574
0.00826272
0.00872184
0.00894551
0.00905633
0.00912129
0.0091821
0.00928813
0.00948159
0.00978384
0.0100951
0.00978838
0.00916042
0.00876402
0.00847139
0.00804955
0.00727517
0.00603401
0.00458659
0.000303953
0.00182492
0.00395402
0.005972
0.00744095
0.00831907
0.00877432
0.00899143
0.00909568
0.0091579
0.00922607
0.00935734
0.0096031
0.00999862
0.0103697
0.0100563
0.00946972
0.00909951
0.00885143
0.00856092
0.00808842
0.00737165
0.00656455
0.000304668
0.0018395
0.00398393
0.00600618
0.00746919
0.00833677
0.00878122
0.00898934
0.0090877
0.00914951
0.00922723
0.009383
0.00967417
0.0101477
0.0105353
0.0101753
0.00961174
0.00925981
0.00905079
0.00886494
0.00861369
0.00826502
0.00789394
0.000305321
0.00185409
0.00401269
0.00603618
0.00748924
0.00834299
0.00877507
0.0089743
0.00906792
0.00913066
0.00921823
0.00939597
0.00972506
0.0102614
0.0106536
0.0102346
0.00967365
0.00932964
0.00914497
0.00902369
0.00890108
0.00875434
0.00860863
0.000305916
0.00186845
0.00404063
0.00606461
0.00750715
0.00834702
0.00876725
0.00895855
0.00904855
0.00911295
0.00920979
0.00940656
0.0097674
0.0103573
0.0107518
0.0102702
0.00970052
0.00935634
0.00918306
0.00909503
0.00903581
0.00898235
0.00893384
0.000306452
0.00188238
0.00406759
0.00609199
0.00752457
0.00835152
0.00876106
0.00894556
0.00903285
0.00909924
0.00920446
0.00941752
0.00980487
0.0104404
0.0108361
0.0102973
0.00971285
0.00936355
0.00919368
0.00912046
0.00908876
0.00907303
0.00906077
0.000306932
0.00189572
0.0040933
0.00611822
0.00754169
0.00835697
0.00875705
0.00893579
0.00902108
0.00908962
0.00920238
0.0094294
0.00983893
0.0105129
0.0109084
0.0103196
0.00971868
0.0093623
0.00919214
0.00912478
0.00910386
0.0091017
0.00910105
0.000307359
0.00190832
0.00411753
0.00614306
0.00755837
0.00836322
0.00875501
0.0089289
0.00901278
0.00908361
0.00920332
0.0094426
0.00987096
0.0105773
0.0109712
0.0103386
0.00972133
0.00935772
0.00918617
0.00912103
0.00910403
0.00910604
0.00910823
0.000307734
0.00192005
0.00414002
0.00616628
0.00757438
0.00837005
0.00875463
0.0089245
0.00900753
0.00908091
0.00920733
0.00945791
0.00990296
0.0106375
0.0110283
0.0103559
0.00972276
0.00935247
0.00917966
0.00911555
0.0090999
0.00910272
0.00910483
0.000308059
0.00193067
0.00416044
0.00618761
0.00758957
0.00837732
0.00875577
0.00892243
0.00900524
0.00908165
0.00921505
0.00947676
0.00993752
0.010698
0.0110849
0.010374
0.00972478
0.00934836
0.00917478
0.0091114
0.00909607
0.00909841
0.00909944
0.000308335
0.00193984
0.00417831
0.00620681
0.00760392
0.00838515
0.00875865
0.00892304
0.00900644
0.00908668
0.00922785
0.00950123
0.00997766
0.0107639
0.0111469
0.0103954
0.00972889
0.00934694
0.00917316
0.00911032
0.00909459
0.00909563
0.00909494
0.000308559
0.00194681
0.00419303
0.00622373
0.0076177
0.00839412
0.00876411
0.00892748
0.00901269
0.00909805
0.00924827
0.00953417
0.0100263
0.0108388
0.0112167
0.0104188
0.00973505
0.00934957
0.00917648
0.00911374
0.00909659
0.00909531
0.00909217
0.000308751
0.00195129
0.00420457
0.00623873
0.00763169
0.00840548
0.00877398
0.00893828
0.00902728
0.00911972
0.00928062
0.00957961
0.0100861
0.0109219
0.0112805
0.0104331
0.00973983
0.0093573
0.00918685
0.00912325
0.00910292
0.00909778
0.00909116
0.000308989
0.00195566
0.00421388
0.00625224
0.00764699
0.00842132
0.00879148
0.00896
0.00905618
0.00915873
0.00933217
0.00964382
0.0101609
0.0110118
0.0113033
0.0104161
0.00973729
0.00937158
0.00920704
0.0091405
0.0091141
0.00910293
0.00909154
0.000309085
0.00195409
0.00421318
0.00626097
0.00766443
0.00844499
0.00882194
0.00900008
0.00910907
0.00922653
0.00941468
0.00973685
0.0102571
0.0111137
0.0112536
0.0103491
0.00972711
0.00939596
0.00923907
0.00916587
0.00912964
0.00910996
0.00909255
0.000308936
0.00189945
0.00417082
0.00625623
0.00768606
0.0084823
0.00887336
0.00906889
0.00919901
0.00933864
0.00954479
0.0098738
0.0103828
0.0112143
0.0111268
0.0102462
0.00972209
0.00943531
0.0092825
0.00919715
0.00914735
0.00911716
0.00909296
0.000311985
0.00173898
0.00407597
0.00624823
0.00772324
0.0085428
0.00895532
0.0091781
0.00934129
0.00951521
0.00974831
0.0100841
0.010559
0.0112511
0.0109024
0.010154
0.00974111
0.00948929
0.0093304
0.00922791
0.00916289
0.00912194
0.00909134
0.000322676
0.00162653
0.00405809
0.00630527
0.00780486
0.00863998
0.00907761
0.00933929
0.00955335
0.00978391
0.0100697
0.0104353
0.010898
0.0110777
0.0105149
0.0100879
0.00977312
0.0095375
0.00936619
0.00924788
0.00917067
0.00912153
0.00908642
0.000330539
0.0020178
0.00437856
0.00649343
0.00792825
0.00873978
0.0091798
0.00946274
0.00970905
0.0099628
0.0102271
0.0104919
0.0106804
0.0105586
0.0103132
0.0100391
0.00977391
0.00954681
0.00937174
0.00924822
0.00916672
0.00911437
0.0090778
0.000321706
0.00208414
0.00447169
0.00657205
0.00797384
0.00875609
0.00917132
0.00943062
0.00965118
0.00987495
0.0100905
0.0102596
0.0103369
0.0102987
0.0101554
0.00994115
0.00971023
0.00950427
0.00934298
0.00922808
0.00915128
0.0091011
0.00906617
0.000318768
0.00209071
0.00449066
0.00658298
0.00796466
0.00872303
0.00911185
0.00933983
0.00952182
0.00970072
0.00987316
0.0100085
0.0100771
0.0100587
0.00995117
0.00978036
0.00959272
0.00942377
0.00929033
0.009194
0.0091282
0.00908402
0.00905295
0.000317005
0.00209146
0.00449189
0.00657657
0.00794549
0.00868715
0.00905461
0.00925464
0.00940082
0.0095371
0.00966638
0.00976937
0.00982096
0.0098051
0.0097226
0.00959522
0.00945595
0.00932995
0.00922916
0.0091548
0.00910237
0.00906584
0.00903967
0.000315659
0.00208852
0.00448489
0.00656323
0.0079239
0.00865409
0.00900501
0.00918158
0.00929643
0.00939473
0.00948403
0.0095532
0.00958572
0.00957106
0.0095123
0.00942488
0.00932967
0.00924265
0.00917157
0.00911743
0.00907764
0.00904869
0.00902746
0.000314468
0.00208331
0.00447278
0.00654548
0.00790085
0.00862353
0.00896241
0.00912084
0.00921093
0.00927907
0.00933666
0.00937906
0.00939699
0.00938495
0.00934586
0.0092899
0.00922868
0.00917166
0.00912365
0.00908556
0.00905617
0.00903376
0.00901695
0.00031336
0.00207697
0.00445793
0.00652536
0.00787747
0.0085957
0.00892654
0.00907227
0.00914485
0.00919187
0.00922765
0.00925217
0.00926121
0.00925231
0.0092276
0.00919304
0.00915493
0.0091185
0.00908664
0.00906015
0.00903863
0.00902145
0.00900831
0.000312316
0.00207017
0.00444199
0.00650443
0.00785471
0.00857077
0.00889686
0.00903448
0.00909578
0.0091294
0.00915172
0.00916564
0.00916995
0.00916377
0.00914847
0.00912727
0.00910367
0.00908041
0.00905919
0.00904066
0.00902483
0.00901165
0.00900141
0.000311331
0.00206331
0.00442597
0.00648384
0.00783332
0.00854886
0.00887258
0.00900546
0.00906001
0.00908572
0.0091003
0.0091084
0.00911042
0.00910626
0.00909675
0.00908358
0.0090687
0.00905356
0.00903916
0.00902598
0.00901419
0.009004
0.00899602
0.00031041
0.00205661
0.00441049
0.00646427
0.00781369
0.00852983
0.00885281
0.00898321
0.00903395
0.0090552
0.00906554
0.0090706
0.00907161
0.00906885
0.00906282
0.00905444
0.00904475
0.00903461
0.00902457
0.00901499
0.00900605
0.0089981
0.00899185
0.000309565
0.00205026
0.00439589
0.00644607
0.00779596
0.00851342
0.00883669
0.00896604
0.00901477
0.0090336
0.00904168
0.00904521
0.00904585
0.00904404
0.00904013
0.00903462
0.0090281
0.00902107
0.00901387
0.00900673
0.00899984
0.00899357
0.00898864
0.000308799
0.00204433
0.00438236
0.0064294
0.00778013
0.00849936
0.00882354
0.00895269
0.00900047
0.00901804
0.00902496
0.00902774
0.00902829
0.00902714
0.00902456
0.00902083
0.00901629
0.00901126
0.00900595
0.00900051
0.00899511
0.00899009
0.00898616
0.000308106
0.00203884
0.00436994
0.0064143
0.00776613
0.00848738
0.00881282
0.00894227
0.00898969
0.00900665
0.00901299
0.00901543
0.00901602
0.00901533
0.0090136
0.00901101
0.00900776
0.00900405
0.00900003
0.0089958
0.00899149
0.00898743
0.00898426
0.000307477
0.00203374
0.00435862
0.0064008
0.00775394
0.00847732
0.0088042
0.00893419
0.00898159
0.00899828
0.00900433
0.00900663
0.0090073
0.00900695
0.00900578
0.00900394
0.00900155
0.00899874
0.00899561
0.00899224
0.00898874
0.00898539
0.0089828
0.000306904
0.00202903
0.00434851
0.0063891
0.00774375
0.00846925
0.00879756
0.00892817
0.00897569
0.00899228
0.00899821
0.00900045
0.0090012
0.00900108
0.0090003
0.00899895
0.00899714
0.00899493
0.00899241
0.00898964
0.00898671
0.00898388
0.0089817
0.000306391
0.00202487
0.0043402
0.00638023
0.00773659
0.00846389
0.0087933
0.00892437
0.00897199
0.00898853
0.00899438
0.0089966
0.00899741
0.00899745
0.00899691
0.00899589
0.00899443
0.0089926
0.00899044
0.00898801
0.0089854
0.00898287
0.00898092
0.000305956
0.0020219
0.00433606
0.00637775
0.00773569
0.00846349
0.00879281
0.00892367
0.0089711
0.00898751
0.00899327
0.00899546
0.00899629
0.00899641
0.00899602
0.00899516
0.00899389
0.0089922
0.00899013
0.00898769
0.00898503
0.00898247
0.0089805
0.000305679
0.00202287
0.00434465
0.0063928
0.00775006
0.00847362
0.00879924
0.00892798
0.00897443
0.00899041
0.00899599
0.0089981
0.00899893
0.00899909
0.00899875
0.00899796
0.0089967
0.00899491
0.00899252
0.00898952
0.00898614
0.00898293
0.00898052
0.000306096
0.00203922
0.00439487
0.00645698
0.00780151
0.00850591
0.00881818
0.00894019
0.00898381
0.00899874
0.00900396
0.00900596
0.00900677
0.00900697
0.00900668
0.00900592
0.00900457
0.00900243
0.00899924
0.00899485
0.0089896
0.00898469
0.0089811
0.000310651
0.00211695
0.00457849
0.00665072
0.00793532
0.00857985
0.00885659
0.00896236
0.00899969
0.00901245
0.00901701
0.00901888
0.00901973
0.00902005
0.00901992
0.00901929
0.00901794
0.00901546
0.00901119
0.00900459
0.00899605
0.00898798
0.00898226
0.000335809
0.00243154
0.00516474
0.00714616
0.00822231
0.00871613
0.00891673
0.00899097
0.00901684
0.00902582
0.00902926
0.00903088
0.00903181
0.00903234
0.00903253
0.00903228
0.00903132
0.00902907
0.00902444
0.00901613
0.00900426
0.00899214
0.00898364
0.000421972
0.00375861
0.00689258
0.00819769
0.00870867
0.00890873
0.00898406
0.00901102
0.00902042
0.00902385
0.00902535
0.00902622
0.00902683
0.00902727
0.00902757
0.00902766
0.00902742
0.00902644
0.0090238
0.00901774
0.00900936
0.00899504
0.0089845
0.000381943
0.000363811
0.000346355
0.0003383
0.00182558
0.0017823
0.00187422
0.00207255
0.00411667
0.00403084
0.00410917
0.00432147
0.00627763
0.00619457
0.00622358
0.00635487
0.00774845
0.00769596
0.00769796
0.00775477
0.00854325
0.0085134
0.00850389
0.00851809
0.0089032
0.00888345
0.00886896
0.00886376
0.0090423
0.00902593
0.00900934
0.00899658
0.00908602
0.00907059
0.00905331
0.00903811
0.0090938
0.00907865
0.00906135
0.00904568
0.00909021
0.00907516
0.00905811
0.00904262
0.00908432
0.0090693
0.0090525
0.00903734
0.00907909
0.00906398
0.00904736
0.00903247
0.00907526
0.00905989
0.00904332
0.00902863
0.0090728
0.009057
0.00904036
0.00902579
0.00907132
0.00905496
0.00903819
0.00902369
0.00907022
0.00905324
0.00903637
0.00902202
0.0090686
0.00905117
0.00903439
0.00902036
0.00906553
0.00904807
0.00903179
0.00901838
0.00906032
0.00904348
0.00902822
0.00901583
0.00905285
0.00903735
0.00902365
0.00901265
0.00904365
0.00903007
0.00901833
0.00900899
0.00903366
0.00902233
0.0090127
0.00900509
0.00902387
0.00901478
0.00900721
0.00900125
0.00901496
0.00900793
0.00900218
0.00899768
0.00900731
0.00900202
0.00899779
0.00899448
0.009001
0.0089971
0.00899407
0.00899171
0.00899593
0.00899311
0.00899099
0.00898933
0.00899193
0.00898991
0.00898846
0.00898732
0.0089888
0.00898736
0.00898639
0.00898562
0.00898635
0.00898533
0.00898469
0.00898418
0.00898444
0.00898371
0.0089833
0.00898296
0.00898294
0.00898242
0.00898215
0.00898192
0.00898176
0.00898138
0.00898121
0.00898105
0.00898085
0.00898056
0.00898045
0.00898033
0.00898018
0.00897993
0.00897984
0.00897973
0.00897974
0.00897947
0.00897936
0.00897924
0.00897956
0.00897918
0.00897899
0.00897881
0.00897964
0.00897903
0.00897867
0.00897838
0.00897995
0.00897894
0.00897831
0.00897785
0.00898026
0.00897877
0.00897782
0.00897716
0.00898033
0.00897849
0.0089773
0.0089765
0.000876898
0.00245663
0.00463545
0.00640134
0.00734021
0.00771174
0.00782826
0.00785567
0.00785807
0.00785501
0.00784956
0.00783555
0.00779005
0.00764726
0.00724986
0.00631667
0.00457655
0.00223658
0.00034419
0.00283643
0.00429069
0.00599493
0.00732934
0.00806804
0.00837949
0.00848435
0.0085117
0.00851537
0.00851282
0.00850636
0.00848768
0.00842741
0.00824427
0.00775461
0.00665828
0.00472329
0.00226131
0.000344664
0.00496546
0.0060813
0.00722017
0.00805941
0.00852204
0.00872121
0.00878964
0.00880727
0.00880883
0.0088057
0.00879826
0.00877659
0.00870765
0.00850222
0.00796479
0.00679094
0.00477382
0.00226827
0.000344941
0.00674698
0.00743736
0.0080866
0.00853923
0.0087826
0.0088858
0.00891972
0.0089267
0.0089253
0.00892124
0.00891304
0.00888972
0.00881651
0.0086007
0.00804226
0.0068366
0.00478896
0.0022695
0.000345141
0.00793748
0.00828372
0.00859824
0.00880848
0.00891695
0.00895992
0.00897132
0.00897101
0.00896745
0.0089627
0.00895403
0.00892991
0.00885479
0.00863461
0.00806777
0.00685017
0.00479213
0.00226894
0.000345307
0.00858179
0.00872505
0.0088552
0.00893857
0.00897794
0.0089901
0.00898996
0.00898593
0.00898133
0.00897626
0.0089674
0.00894291
0.00886697
0.00864498
0.00807481
0.0068528
0.00479143
0.00226779
0.000345454
0.00887343
0.00892041
0.00896542
0.00899197
0.00900111
0.00900013
0.00899529
0.00898994
0.00898509
0.00898002
0.00897114
0.00894652
0.00887019
0.00864735
0.00807567
0.00685183
0.00478943
0.00226639
0.000345585
0.00898525
0.00899332
0.00900445
0.00900904
0.00900703
0.00900161
0.00899551
0.00899005
0.00898537
0.00898047
0.00897167
0.00894702
0.00887048
0.0086471
0.0080745
0.00684963
0.0047869
0.00226486
0.000345698
0.00901978
0.00901418
0.00901369
0.00901123
0.00900609
0.00899984
0.00899389
0.00898882
0.00898449
0.00897983
0.00897116
0.00894652
0.00886981
0.008646
0.00807263
0.00684692
0.00478409
0.00226322
0.000345794
0.0090256
0.00901599
0.00901233
0.00900833
0.00900295
0.00899711
0.00899174
0.00898719
0.00898324
0.00897883
0.00897031
0.0089457
0.00886884
0.0086446
0.00807047
0.00684397
0.0047811
0.0022615
0.000345874
0.00902252
0.00901217
0.0090081
0.00900427
0.00899945
0.00899431
0.00898956
0.0089855
0.00898191
0.00897774
0.00896936
0.00894477
0.00886777
0.0086431
0.00806819
0.00684086
0.00477797
0.00225973
0.000345936
0.00901768
0.00900749
0.00900371
0.0090004
0.00899622
0.00899172
0.00898752
0.00898388
0.00898061
0.00897666
0.0089684
0.00894384
0.00886668
0.00864155
0.00806584
0.00683767
0.00477477
0.00225793
0.000345982
0.00901326
0.00900337
0.00899993
0.00899706
0.00899341
0.00898942
0.00898567
0.00898239
0.00897938
0.00897562
0.00896749
0.00894293
0.00886561
0.00864002
0.00806348
0.00683444
0.00477153
0.00225612
0.000346012
0.00900977
0.0090001
0.00899687
0.00899429
0.008991
0.0089874
0.00898401
0.00898102
0.00897825
0.00897466
0.00896662
0.00894208
0.00886458
0.00863852
0.00806114
0.00683123
0.00476829
0.00225431
0.000346028
0.00900718
0.00899761
0.00899442
0.00899198
0.00898894
0.00898564
0.00898253
0.00897979
0.00897722
0.00897378
0.00896583
0.00894129
0.00886362
0.00863708
0.00805886
0.00682807
0.00476511
0.00225255
0.00034603
0.00900531
0.00899575
0.00899248
0.00899006
0.00898717
0.00898409
0.00898121
0.00897869
0.00897629
0.00897299
0.00896512
0.00894057
0.00886272
0.00863571
0.00805667
0.006825
0.00476201
0.00225083
0.000346019
0.00900394
0.00899436
0.00899092
0.00898844
0.00898564
0.00898273
0.00898005
0.00897771
0.00897547
0.00897228
0.00896449
0.00893992
0.00886191
0.00863443
0.00805457
0.00682205
0.00475902
0.00224919
0.000345997
0.00900284
0.00899331
0.00898965
0.00898705
0.00898429
0.00898152
0.00897902
0.00897684
0.00897474
0.00897167
0.00896394
0.00893936
0.00886117
0.00863325
0.0080526
0.00681925
0.00475619
0.00224763
0.000345965
0.00900177
0.00899244
0.00898856
0.00898582
0.00898309
0.00898045
0.0089781
0.00897608
0.00897411
0.00897113
0.00896346
0.00893887
0.00886051
0.00863217
0.00805077
0.00681663
0.00475352
0.00224617
0.000345924
0.00900055
0.00899162
0.00898757
0.00898471
0.00898201
0.00897949
0.0089773
0.00897542
0.00897356
0.00897068
0.00896306
0.00893844
0.00885993
0.00863117
0.00804905
0.00681417
0.00475104
0.00224482
0.000345876
0.00899911
0.00899076
0.00898664
0.00898369
0.00898103
0.00897863
0.00897658
0.00897483
0.00897309
0.00897029
0.00896271
0.00893807
0.00885938
0.00863021
0.0080474
0.00681181
0.00474868
0.00224357
0.000345823
0.00899744
0.00898984
0.00898572
0.00898272
0.00898012
0.00897785
0.00897594
0.00897432
0.00897269
0.00896995
0.00896239
0.00893769
0.00885879
0.00862916
0.0080456
0.00680928
0.00474617
0.00224226
0.000345769
0.00899561
0.00898884
0.0089848
0.00898181
0.00897929
0.00897715
0.00897538
0.00897388
0.00897234
0.00896966
0.00896212
0.00893732
0.00885814
0.00862789
0.00804333
0.00680595
0.00474266
0.00224022
0.000345743
0.00899373
0.00898779
0.00898389
0.00898094
0.00897852
0.00897652
0.00897488
0.00897349
0.00897204
0.00896942
0.00896188
0.00893699
0.00885752
0.00862663
0.00804105
0.00680259
0.00473912
0.00223822
0.000345714
0.00899187
0.00898671
0.00898298
0.00898011
0.00897781
0.00897594
0.00897443
0.00897316
0.00897178
0.00896922
0.00896169
0.00893671
0.00885697
0.00862551
0.00803898
0.00679955
0.00473595
0.00223646
0.00034568
0.00899009
0.00898562
0.00898209
0.00897934
0.00897716
0.00897543
0.00897404
0.00897286
0.00897156
0.00896905
0.00896152
0.00893648
0.00885651
0.00862455
0.00803722
0.00679696
0.00473326
0.00223499
0.000345641
0.00898843
0.00898454
0.00898123
0.00897861
0.00897656
0.00897496
0.00897369
0.0089726
0.00897138
0.00896891
0.00896139
0.00893629
0.00885614
0.00862378
0.0080358
0.00679487
0.0047311
0.00223381
0.0003456
0.00898691
0.00898351
0.0089804
0.00897793
0.00897602
0.00897454
0.00897337
0.00897237
0.00897121
0.00896878
0.00896128
0.00893614
0.00885586
0.00862319
0.00803471
0.00679327
0.00472945
0.00223293
0.000345557
0.00898553
0.00898253
0.00897963
0.00897731
0.00897553
0.00897417
0.0089731
0.00897217
0.00897106
0.00896867
0.00896119
0.00893604
0.00885566
0.00862278
0.00803396
0.00679215
0.00472831
0.00223233
0.000345514
0.00898428
0.0089816
0.00897891
0.00897674
0.00897509
0.00897383
0.00897285
0.00897199
0.00897093
0.00896858
0.00896112
0.00893596
0.00885554
0.00862255
0.00803352
0.0067915
0.00472765
0.002232
0.00034547
0.00898316
0.00898075
0.00897825
0.00897622
0.00897469
0.00897353
0.00897262
0.00897183
0.00897081
0.0089685
0.00896106
0.00893592
0.0088555
0.00862247
0.00803338
0.00679129
0.00472744
0.00223193
0.000345427
0.00898216
0.00897998
0.00897765
0.00897576
0.00897434
0.00897326
0.00897243
0.00897168
0.00897071
0.00896842
0.00896101
0.0089359
0.00885552
0.00862254
0.00803351
0.00679148
0.00472765
0.00223208
0.000345387
0.00898128
0.00897928
0.00897711
0.00897534
0.00897402
0.00897303
0.00897225
0.00897155
0.00897061
0.00896835
0.00896097
0.00893591
0.0088556
0.00862275
0.00803389
0.00679204
0.00472825
0.00223245
0.000345348
0.00898052
0.00897866
0.00897663
0.00897498
0.00897375
0.00897282
0.00897209
0.00897143
0.00897052
0.00896829
0.00896095
0.00893594
0.00885573
0.00862308
0.00803451
0.00679294
0.00472919
0.00223301
0.000345313
0.00897986
0.00897812
0.00897622
0.00897467
0.00897351
0.00897264
0.00897195
0.00897132
0.00897044
0.00896824
0.00896093
0.00893599
0.00885592
0.00862351
0.00803532
0.00679413
0.00473044
0.00223373
0.000345282
0.00897929
0.00897765
0.00897585
0.00897439
0.00897329
0.00897247
0.00897182
0.00897123
0.00897037
0.00896819
0.00896092
0.00893605
0.00885615
0.00862405
0.00803631
0.00679557
0.00473194
0.00223459
0.000345254
0.00897879
0.00897722
0.00897551
0.00897413
0.00897309
0.00897232
0.00897171
0.00897113
0.0089703
0.00896815
0.00896092
0.00893614
0.00885641
0.00862466
0.00803744
0.00679721
0.00473364
0.00223555
0.000345231
0.00897832
0.00897679
0.00897517
0.00897386
0.00897289
0.00897216
0.00897158
0.00897104
0.00897023
0.0089681
0.00896092
0.00893623
0.00885671
0.00862532
0.00803867
0.00679899
0.00473546
0.00223658
0.000345212
0.00897779
0.0089763
0.00897477
0.00897355
0.00897265
0.00897197
0.00897144
0.00897093
0.00897015
0.00896805
0.00896091
0.00893632
0.00885701
0.00862602
0.00803994
0.00680081
0.0047373
0.00223761
0.000345197
0.00897712
0.00897566
0.00897425
0.00897314
0.00897233
0.00897173
0.00897125
0.00897078
0.00897004
0.00896798
0.0089609
0.00893641
0.0088573
0.0086267
0.00804118
0.00680255
0.00473902
0.00223852
0.000345184
0.00897626
0.00897488
0.00897362
0.00897265
0.00897195
0.00897143
0.00897102
0.0089706
0.00896991
0.00896789
0.00896086
0.00893646
0.00885754
0.00862728
0.00804228
0.00680413
0.00474061
0.00223935
0.000345174
0.00897549
0.0089742
0.00897308
0.00897223
0.00897162
0.00897118
0.00897082
0.00897045
0.00896979
0.00896781
0.00896082
0.00893649
0.00885769
0.00862766
0.00804304
0.00680533
0.00474202
0.00224029
0.000345166
)
;

boundaryField
{
    leftWall
    {
        type            nutkWallFunction;
        Cmu             0.09;
        kappa           0.41;
        E               9.8;
        value           nonuniform List<scalar> 
50
(
2.92048e-05
3.30467e-05
3.40143e-05
3.44683e-05
3.47188e-05
3.48649e-05
3.49561e-05
3.50207e-05
3.50849e-05
3.51529e-05
3.5213e-05
3.52681e-05
3.53187e-05
3.53649e-05
3.54067e-05
3.54444e-05
3.5478e-05
3.55078e-05
3.55339e-05
3.55567e-05
3.55761e-05
3.55919e-05
3.56051e-05
3.5621e-05
3.5633e-05
3.56147e-05
3.58445e-05
3.87499e-05
3.96668e-05
3.87364e-05
3.84382e-05
3.82652e-05
3.81362e-05
3.80232e-05
3.7919e-05
3.78215e-05
3.773e-05
3.76448e-05
3.75665e-05
3.74954e-05
3.7431e-05
3.73726e-05
3.73199e-05
3.72729e-05
3.72325e-05
3.72036e-05
3.72222e-05
3.75549e-05
3.97802e-05
4.98105e-05
)
;
    }
    rightWall
    {
        type            nutkWallFunction;
        Cmu             0.09;
        kappa           0.41;
        E               9.8;
        value           nonuniform List<scalar> 
50
(
3.34037e-05
3.95856e-05
4.11446e-05
4.18583e-05
4.22499e-05
4.24711e-05
4.25958e-05
4.26671e-05
4.27319e-05
4.27716e-05
4.27961e-05
4.28148e-05
4.28311e-05
4.28456e-05
4.28587e-05
4.28702e-05
4.28803e-05
4.28887e-05
4.28957e-05
4.29011e-05
4.2905e-05
4.29076e-05
4.29089e-05
4.29089e-05
4.29079e-05
4.29059e-05
4.2903e-05
4.28994e-05
4.28952e-05
4.28908e-05
4.28887e-05
4.28862e-05
4.28832e-05
4.28798e-05
4.28761e-05
4.28723e-05
4.28683e-05
4.28642e-05
4.28603e-05
4.28565e-05
4.28529e-05
4.28495e-05
4.28465e-05
4.28439e-05
4.28416e-05
4.28397e-05
4.28382e-05
4.2837e-05
4.28359e-05
4.28352e-05
)
;
    }
    lowerWall
    {
        type            nutkWallFunction;
        Cmu             0.09;
        kappa           0.41;
        E               9.8;
        value           nonuniform List<scalar> 
62
(
1.46117e-05
1.4372e-05
1.48775e-05
1.51187e-05
1.52512e-05
1.53596e-05
1.54805e-05
1.56364e-05
1.58523e-05
1.61752e-05
1.66297e-05
1.69922e-05
1.7311e-05
1.7488e-05
1.73972e-05
1.77238e-05
1.74386e-05
1.46339e-05
1.11639e-05
9.81676e-06
9.17822e-06
8.4007e-06
6.79887e-06
6.79887e-06
3.38884e-05
3.65777e-05
3.80274e-05
3.89934e-05
3.97666e-05
4.05626e-05
4.18729e-05
4.51071e-05
4.26271e-05
4.07891e-05
4.04107e-05
6.85888e-06
3.9275e-05
4.11615e-05
4.19136e-05
4.23842e-05
4.29869e-05
4.43789e-05
4.7362e-05
6.85888e-06
8.38597e-06
8.93091e-06
9.0497e-06
9.03765e-06
9.00206e-06
8.9814e-06
8.95919e-06
8.93635e-06
8.91355e-06
8.89086e-06
8.86843e-06
8.84593e-06
8.82243e-06
8.79356e-06
8.74162e-06
8.59426e-06
8.12213e-06
8.99832e-06
)
;
    }
    atmosphere
    {
        type            calculated;
        value           nonuniform List<scalar> 
46
(
0.009
0.009
0.009
0.009
0.009
0.009
0.009
0.009
0.009
0.009
0.009
0.009
0.009
0.009
0.009
0.009
0.009
0.009
0.009
0.009
0.00900936
0.00899504
0.0089845
0.00898033
0.00897849
0.0089773
0.0089765
0.00897549
0.0089742
0.00897308
0.00897223
0.00897162
0.00897118
0.00897082
0.00897045
0.00896979
0.00896781
0.00896082
0.00893649
0.00885769
0.00862766
0.00804304
0.00680533
0.00474202
0.00224029
0.000345166
)
;
    }
    defaultFaces
    {
        type            empty;
    }
}


// ************************************************************************* //
