/*--------------------------------*- C++ -*----------------------------------*\
| =========                 |                                                 |
| \\      /  F ield         | OpenFOAM: The Open Source CFD Toolbox           |
|  \\    /   O peration     | Version:  v1606+                                |
|   \\  /    A nd           | Web:      www.OpenFOAM.com                      |
|    \\/     M anipulation  |                                                 |
\*---------------------------------------------------------------------------*/
FoamFile
{
    version     2.0;
    format      ascii;
    class       volVectorField;
    location    "0.53";
    object      U.airMean;
}
// * * * * * * * * * * * * * * * * * * * * * * * * * * * * * * * * * * * * * //

dimensions      [0 1 -1 0 0 0 0];

internalField   nonuniform List<vector> 
6000
(
(-0.0206791 0.281468 0)
(-0.0101659 0.240903 0)
(-0.00185638 0.250825 0)
(0.00643905 0.252238 0)
(0.0140495 0.254512 0)
(0.0200109 0.256219 0)
(0.0253956 0.258755 0)
(0.0282971 0.259259 0)
(0.0285966 0.258785 0)
(0.0257183 0.256869 0)
(0.0217225 0.255257 0)
(0.0175827 0.254911 0)
(0.0128138 0.254632 0)
(0.00773596 0.254786 0)
(0.00207469 0.255692 0)
(-0.00372074 0.255496 0)
(-0.00912386 0.255295 0)
(-0.0141668 0.25466 0)
(-0.0184503 0.254701 0)
(-0.023019 0.255223 0)
(-0.0270082 0.25703 0)
(-0.0294314 0.258801 0)
(-0.028858 0.259666 0)
(-0.0255174 0.258865 0)
(-0.0200972 0.256075 0)
(-0.0141287 0.255221 0)
(-0.0062377 0.252865 0)
(0.00253029 0.251047 0)
(0.0110051 0.241238 0)
(0.021318 0.282038 0)
(0.0072068 0.986052 0)
(-0.00621748 0.97861 0)
(-0.00219218 0.97705 0)
(-0.00230186 0.973115 0)
(0.00524838 0.972368 0)
(0.0138649 0.969014 0)
(0.024125 0.969593 0)
(0.0329197 0.972478 0)
(0.0390847 0.979757 0)
(0.0391086 0.986381 0)
(0.0347036 0.990472 0)
(0.0283491 0.99188 0)
(0.021238 0.993706 0)
(0.0129551 0.994515 0)
(0.00381125 0.995224 0)
(-0.00578175 0.994635 0)
(-0.014945 0.994233 0)
(-0.0228282 0.992877 0)
(-0.0298477 0.992117 0)
(-0.0359824 0.99069 0)
(-0.0400593 0.985679 0)
(-0.0399108 0.979056 0)
(-0.0338364 0.971596 0)
(-0.0244597 0.968911 0)
(-0.0138979 0.969287 0)
(-0.00502749 0.97146 0)
(0.003075 0.972156 0)
(0.00353051 0.976254 0)
(0.00704779 0.97911 0)
(-0.00700192 0.987244 0)
(-0.013636 0.82923 0)
(-0.0154905 0.778652 0)
(-0.0101947 0.787054 0)
(-0.0111068 0.776783 0)
(0.000273164 0.774158 0)
(0.0127496 0.771954 0)
(0.0262011 0.777286 0)
(0.0365105 0.782125 0)
(0.0436634 0.792998 0)
(0.0445674 0.80271 0)
(0.0405477 0.808846 0)
(0.0330948 0.81256 0)
(0.0247528 0.815971 0)
(0.0158561 0.819214 0)
(0.00510282 0.821525 0)
(-0.00694328 0.821363 0)
(-0.0176907 0.818712 0)
(-0.0265298 0.8152 0)
(-0.0349453 0.81203 0)
(-0.0416957 0.808537 0)
(-0.0452409 0.802035 0)
(-0.0440676 0.792632 0)
(-0.0369373 0.781568 0)
(-0.0261705 0.77594 0)
(-0.011795 0.771596 0)
(0.00123827 0.773443 0)
(0.0126755 0.776048 0)
(0.0117138 0.786022 0)
(0.0165531 0.7802 0)
(0.0139071 0.831437 0)
(-0.00154092 0.868645 0)
(-0.0102029 0.818619 0)
(-0.0210801 0.82817 0)
(-0.022002 0.810112 0)
(-0.00970512 0.801868 0)
(0.00694079 0.795786 0)
(0.0255706 0.801085 0)
(0.0404958 0.809538 0)
(0.0494923 0.826192 0)
(0.0515868 0.842658 0)
(0.0476027 0.853621 0)
(0.0384514 0.859036 0)
(0.026716 0.861034 0)
(0.0156537 0.864167 0)
(0.00466684 0.867321 0)
(-0.00671019 0.867238 0)
(-0.0175871 0.863548 0)
(-0.0286521 0.860606 0)
(-0.0402723 0.858205 0)
(-0.0486349 0.852461 0)
(-0.0520217 0.841225 0)
(-0.0494583 0.825258 0)
(-0.0399044 0.808522 0)
(-0.0245568 0.799086 0)
(-0.00507691 0.79465 0)
(0.0124073 0.800597 0)
(0.0248386 0.809543 0)
(0.0234069 0.828189 0)
(0.0113589 0.82078 0)
(0.00172856 0.871057 0)
(-0.00442459 0.861127 0)
(-0.0251389 0.823274 0)
(-0.0389889 0.825647 0)
(-0.0389018 0.792773 0)
(-0.0264879 0.775635 0)
(-0.00823549 0.764344 0)
(0.0153665 0.768058 0)
(0.0384484 0.78015 0)
(0.0547231 0.802151 0)
(0.0609722 0.824916 0)
(0.0587505 0.841994 0)
(0.0487354 0.854281 0)
(0.0337081 0.858428 0)
(0.0184769 0.860614 0)
(0.00506707 0.863081 0)
(-0.00751512 0.862845 0)
(-0.0209181 0.859802 0)
(-0.0358969 0.857625 0)
(-0.0502607 0.852788 0)
(-0.0594333 0.840246 0)
(-0.0610847 0.8232 0)
(-0.0541902 0.800742 0)
(-0.0369236 0.778698 0)
(-0.013444 0.765762 0)
(0.0105288 0.762634 0)
(0.0291975 0.774087 0)
(0.0416898 0.792294 0)
(0.0416444 0.826231 0)
(0.0268949 0.826917 0)
(0.00496261 0.864129 0)
(-0.013353 0.878452 0)
(-0.0461711 0.838638 0)
(-0.0589644 0.822262 0)
(-0.0628798 0.781947 0)
(-0.0551213 0.756069 0)
(-0.0338396 0.737468 0)
(-0.00459756 0.7362 0)
(0.0271277 0.750507 0)
(0.055011 0.781391 0)
(0.0713357 0.81633 0)
(0.0720697 0.843264 0)
(0.0608693 0.863185 0)
(0.0444893 0.870684 0)
(0.0255355 0.87255 0)
(0.00719288 0.873017 0)
(-0.0100717 0.87298 0)
(-0.0284298 0.871626 0)
(-0.0467663 0.869384 0)
(-0.0622973 0.860942 0)
(-0.0726164 0.840907 0)
(-0.0709587 0.813915 0)
(-0.0535045 0.779095 0)
(-0.0248595 0.748342 0)
(0.00686367 0.733858 0)
(0.0359479 0.735617 0)
(0.0570368 0.754555 0)
(0.0644077 0.781366 0)
(0.0602307 0.822833 0)
(0.0476553 0.842535 0)
(0.0139218 0.882829 0)
(-0.0171791 0.92075 0)
(-0.0560437 0.861224 0)
(-0.0808025 0.83648 0)
(-0.0994707 0.783755 0)
(-0.0955868 0.736547 0)
(-0.0666863 0.704156 0)
(-0.0306739 0.696935 0)
(0.00689544 0.709813 0)
(0.0418111 0.743961 0)
(0.0719837 0.792552 0)
(0.0832549 0.836838 0)
(0.0734313 0.864384 0)
(0.0556312 0.877017 0)
(0.0341209 0.882252 0)
(0.0101761 0.881817 0)
(-0.0135568 0.881885 0)
(-0.0372094 0.880955 0)
(-0.0577978 0.874909 0)
(-0.0749157 0.861409 0)
(-0.0836669 0.833796 0)
(-0.0708492 0.788912 0)
(-0.0393751 0.741283 0)
(-0.00416609 0.707764 0)
(0.0331524 0.695392 0)
(0.0686566 0.702991 0)
(0.0968126 0.73603 0)
(0.0997452 0.784065 0)
(0.080374 0.837306 0)
(0.0559242 0.865141 0)
(0.0175839 0.925383 0)
(-0.00674378 0.96444 0)
(-0.0571286 0.904876 0)
(-0.0998933 0.868562 0)
(-0.129575 0.793226 0)
(-0.123892 0.716164 0)
(-0.0930749 0.66838 0)
(-0.0537783 0.658743 0)
(-0.0148914 0.673405 0)
(0.0193681 0.706246 0)
(0.057897 0.756723 0)
(0.0850638 0.822871 0)
(0.0841144 0.867329 0)
(0.0642385 0.886212 0)
(0.0410556 0.897262 0)
(0.0129418 0.898642 0)
(-0.0166641 0.898666 0)
(-0.0439483 0.895108 0)
(-0.0662071 0.883394 0)
(-0.0855933 0.864011 0)
(-0.084751 0.81878 0)
(-0.0557934 0.751903 0)
(-0.0166716 0.703551 0)
(0.0176739 0.671694 0)
(0.0568323 0.657597 0)
(0.0957192 0.667951 0)
(0.125344 0.716458 0)
(0.129533 0.79425 0)
(0.0978824 0.87 0)
(0.0547085 0.908012 0)
(0.00526544 0.969613 0)
(-0.00883551 1.00291 0)
(-0.062739 0.958663 0)
(-0.117809 0.900691 0)
(-0.148236 0.79306 0)
(-0.14252 0.691423 0)
(-0.114478 0.631159 0)
(-0.0781842 0.618455 0)
(-0.0363236 0.636835 0)
(-0.00111403 0.670554 0)
(0.0355351 0.714855 0)
(0.0711233 0.798998 0)
(0.0860586 0.869689 0)
(0.0670376 0.897589 0)
(0.0427262 0.914485 0)
(0.0140062 0.920356 0)
(-0.0178641 0.920071 0)
(-0.0452727 0.911138 0)
(-0.0692472 0.894458 0)
(-0.0872943 0.865419 0)
(-0.06973 0.792184 0)
(-0.0333293 0.709775 0)
(0.00330251 0.667895 0)
(0.0392214 0.634796 0)
(0.0818857 0.616924 0)
(0.117524 0.631386 0)
(0.144 0.692879 0)
(0.148076 0.795525 0)
(0.1145 0.904218 0)
(0.0576075 0.962151 0)
(0.00631191 1.00433 0)
(-0.0167176 1.04553 0)
(-0.0738893 1.00926 0)
(-0.129348 0.932105 0)
(-0.159152 0.789461 0)
(-0.157705 0.669524 0)
(-0.136633 0.602566 0)
(-0.10312 0.57869 0)
(-0.0604858 0.596058 0)
(-0.0223067 0.635244 0)
(0.0109602 0.677614 0)
(0.0444987 0.755729 0)
(0.0749613 0.85999 0)
(0.0647852 0.906656 0)
(0.0393108 0.928596 0)
(0.013028 0.940673 0)
(-0.016645 0.939849 0)
(-0.0421249 0.92407 0)
(-0.0679469 0.903472 0)
(-0.075523 0.853651 0)
(-0.0427365 0.747457 0)
(-0.00900625 0.673458 0)
(0.0242429 0.632323 0)
(0.0629208 0.593142 0)
(0.10595 0.577441 0)
(0.139931 0.605543 0)
(0.159841 0.672175 0)
(0.159232 0.793993 0)
(0.125842 0.938108 0)
(0.0683585 1.0129 0)
(0.0146776 1.04468 0)
(-0.0214399 1.08254 0)
(-0.0781184 1.05067 0)
(-0.133963 0.959705 0)
(-0.167145 0.78382 0)
(-0.174483 0.648565 0)
(-0.157838 0.571118 0)
(-0.124707 0.545361 0)
(-0.0804388 0.555001 0)
(-0.0423901 0.599023 0)
(-0.0137445 0.6485 0)
(0.0142636 0.71443 0)
(0.0485142 0.837968 0)
(0.0565277 0.914194 0)
(0.0321512 0.94118 0)
(0.00998157 0.958696 0)
(-0.0128462 0.957258 0)
(-0.0356613 0.936614 0)
(-0.0603122 0.91059 0)
(-0.0481835 0.828544 0)
(-0.0124411 0.705833 0)
(0.0155893 0.644665 0)
(0.0440127 0.595905 0)
(0.0822396 0.552369 0)
(0.126038 0.543331 0)
(0.159631 0.571553 0)
(0.176132 0.651411 0)
(0.166609 0.79046 0)
(0.130826 0.968793 0)
(0.0736796 1.05349 0)
(0.0200706 1.07853 0)
(-0.0223283 1.12104 0)
(-0.075765 1.08946 0)
(-0.129466 0.990623 0)
(-0.166697 0.785297 0)
(-0.18375 0.631596 0)
(-0.171502 0.539824 0)
(-0.138347 0.502869 0)
(-0.0954148 0.519644 0)
(-0.0595452 0.566867 0)
(-0.0380888 0.625109 0)
(-0.0180819 0.681749 0)
(0.0148727 0.803516 0)
(0.0401602 0.917106 0)
(0.023568 0.953575 0)
(0.00525468 0.973283 0)
(-0.00760216 0.97181 0)
(-0.0279926 0.950184 0)
(-0.0433896 0.911334 0)
(-0.014116 0.789729 0)
(0.0193335 0.674105 0)
(0.03886 0.621304 0)
(0.0603243 0.563754 0)
(0.0967593 0.51717 0)
(0.139501 0.501029 0)
(0.172573 0.540268 0)
(0.184175 0.635246 0)
(0.165317 0.794277 0)
(0.126072 0.999308 0)
(0.0732401 1.09129 0)
(0.0214254 1.11466 0)
(-0.0212761 1.15692 0)
(-0.0673877 1.12105 0)
(-0.113629 1.01692 0)
(-0.153869 0.791104 0)
(-0.178184 0.620303 0)
(-0.173169 0.512454 0)
(-0.147306 0.466728 0)
(-0.109305 0.486448 0)
(-0.0752557 0.541654 0)
(-0.0600398 0.611094 0)
(-0.0474735 0.661392 0)
(-0.0197043 0.764143 0)
(0.0161366 0.910684 0)
(0.0162815 0.966472 0)
(0.000866728 0.983525 0)
(-0.00317817 0.982518 0)
(-0.0208807 0.963875 0)
(-0.0169683 0.901072 0)
(0.0204857 0.749224 0)
(0.0480994 0.654978 0)
(0.059353 0.607212 0)
(0.0748257 0.53814 0)
(0.109573 0.482843 0)
(0.147686 0.46496 0)
(0.17349 0.512973 0)
(0.177333 0.624226 0)
(0.151904 0.801968 0)
(0.110602 1.02589 0)
(0.0660287 1.12208 0)
(0.020987 1.14987 0)
(-0.0172349 1.18823 0)
(-0.0540064 1.14235 0)
(-0.0883844 1.03945 0)
(-0.130025 0.802416 0)
(-0.161878 0.614541 0)
(-0.16801 0.493962 0)
(-0.151361 0.438377 0)
(-0.120516 0.455533 0)
(-0.0905907 0.521147 0)
(-0.0781631 0.601177 0)
(-0.0738194 0.6507 0)
(-0.0502123 0.731214 0)
(-0.0117314 0.888174 0)
(0.0106056 0.974659 0)
(-0.000641423 0.988933 0)
(-0.00206931 0.988553 0)
(-0.0140602 0.971665 0)
(0.0137142 0.874833 0)
(0.0515949 0.717913 0)
(0.073549 0.645393 0)
(0.0767739 0.597364 0)
(0.0893329 0.517366 0)
(0.119333 0.451258 0)
(0.150393 0.436202 0)
(0.167093 0.494597 0)
(0.159439 0.618717 0)
(0.126021 0.814731 0)
(0.0843748 1.04617 0)
(0.0527754 1.14122 0)
(0.0174429 1.18035 0)
(-0.011584 1.20582 0)
(-0.0390904 1.15177 0)
(-0.0545146 1.05128 0)
(-0.0963746 0.819529 0)
(-0.139203 0.616077 0)
(-0.158172 0.484503 0)
(-0.150908 0.417366 0)
(-0.129089 0.431674 0)
(-0.105323 0.507722 0)
(-0.0933553 0.595701 0)
(-0.0931234 0.648912 0)
(-0.0753631 0.70946 0)
(-0.0403824 0.857129 0)
(0.00183523 0.976823 0)
(-0.00012913 0.99503 0)
(-0.00280513 0.99486 0)
(-0.00214113 0.971623 0)
(0.0425228 0.839822 0)
(0.0750127 0.699346 0)
(0.0903882 0.644065 0)
(0.0909452 0.59141 0)
(0.103758 0.504799 0)
(0.127365 0.427271 0)
(0.148944 0.415007 0)
(0.155866 0.485691 0)
(0.134563 0.620595 0)
(0.0912181 0.832112 0)
(0.049885 1.05474 0)
(0.0377792 1.14845 0)
(0.012056 1.19759 0)
(-0.00776944 1.21941 0)
(-0.0267569 1.14746 0)
(-0.0180815 1.04975 0)
(-0.0573618 0.84332 0)
(-0.106355 0.626305 0)
(-0.141012 0.483966 0)
(-0.146523 0.405661 0)
(-0.135898 0.416491 0)
(-0.1182 0.499477 0)
(-0.101081 0.589017 0)
(-0.0969904 0.650235 0)
(-0.0897063 0.700876 0)
(-0.0644976 0.821817 0)
(-0.018751 0.969408 0)
(-0.00201195 1.00211 0)
(-0.000399392 1.00131 0)
(0.0221764 0.960954 0)
(0.0659502 0.805627 0)
(0.0889332 0.694211 0)
(0.0929336 0.644863 0)
(0.0982556 0.583616 0)
(0.116723 0.495361 0)
(0.133924 0.412264 0)
(0.143477 0.403594 0)
(0.136342 0.485472 0)
(0.0999942 0.631692 0)
(0.0522013 0.855781 0)
(0.0157105 1.05074 0)
(0.0261982 1.1426 0)
(0.00833008 1.2118 0)
(-0.00379929 1.22914 0)
(-0.0107692 1.13236 0)
(0.0171592 1.03778 0)
(-0.00720133 0.871652 0)
(-0.06104 0.648211 0)
(-0.108902 0.493789 0)
(-0.134028 0.40561 0)
(-0.13886 0.410803 0)
(-0.127002 0.490879 0)
(-0.101971 0.577066 0)
(-0.0882049 0.651932 0)
(-0.0926291 0.709258 0)
(-0.082145 0.802171 0)
(-0.0489172 0.958725 0)
(-0.00992613 1.00691 0)
(0.00793306 1.00399 0)
(0.0527763 0.946778 0)
(0.0835342 0.79093 0)
(0.0903253 0.704348 0)
(0.0845101 0.645974 0)
(0.0997073 0.570441 0)
(0.125711 0.4868 0)
(0.136438 0.407885 0)
(0.129035 0.40532 0)
(0.101637 0.495547 0)
(0.0519882 0.653769 0)
(0.000778788 0.878314 0)
(-0.0169472 1.03737 0)
(0.0118317 1.12705 0)
(0.00489888 1.22229 0)
(0.00116593 1.23324 0)
(0.00594054 1.10703 0)
(0.0464164 1.02197 0)
(0.0496162 0.890362 0)
(0.00359191 0.685337 0)
(-0.0609166 0.51794 0)
(-0.115468 0.424938 0)
(-0.139896 0.416118 0)
(-0.135182 0.482328 0)
(-0.103865 0.55798 0)
(-0.0759868 0.648718 0)
(-0.0793042 0.725219 0)
(-0.0869957 0.805273 0)
(-0.0673031 0.940505 0)
(-0.0173813 0.995641 0)
(0.0157671 0.990603 0)
(0.0675529 0.925398 0)
(0.084895 0.797745 0)
(0.0752966 0.720805 0)
(0.0736783 0.642188 0)
(0.103203 0.550585 0)
(0.134309 0.477251 0)
(0.137703 0.415039 0)
(0.10938 0.427775 0)
(0.0498979 0.523201 0)
(-0.0146462 0.69261 0)
(-0.0543263 0.891856 0)
(-0.0435027 1.01909 0)
(-0.00237844 1.10176 0)
(0.000726701 1.22822 0)
(0.010077 1.23122 0)
(0.0240744 1.07731 0)
(0.066284 0.995706 0)
(0.0937112 0.892149 0)
(0.0676265 0.733682 0)
(0.00243762 0.572846 0)
(-0.0829978 0.464964 0)
(-0.137225 0.432264 0)
(-0.142761 0.472056 0)
(-0.111691 0.533478 0)
(-0.0701359 0.633546 0)
(-0.0542782 0.735423 0)
(-0.0700425 0.816075 0)
(-0.0621121 0.91352 0)
(-0.0206969 0.974043 0)
(0.0206445 0.967622 0)
(0.0601037 0.899237 0)
(0.0658652 0.809424 0)
(0.0504396 0.72928 0)
(0.0695636 0.625023 0)
(0.112443 0.525901 0)
(0.142811 0.467358 0)
(0.136207 0.431112 0)
(0.0767899 0.471933 0)
(-0.0124293 0.579495 0)
(-0.07344 0.73707 0)
(-0.0941085 0.888683 0)
(-0.0629164 0.989103 0)
(-0.021082 1.07391 0)
(-0.00908474 1.23019 0)
(0.0266894 1.21069 0)
(0.0502749 1.05183 0)
(0.0818997 0.958969 0)
(0.101384 0.875659 0)
(0.0890385 0.759675 0)
(0.0261343 0.626725 0)
(-0.0701859 0.526572 0)
(-0.146888 0.455492 0)
(-0.15483 0.455814 0)
(-0.12419 0.507819 0)
(-0.0818739 0.603536 0)
(-0.0479928 0.728176 0)
(-0.0465936 0.820773 0)
(-0.0485851 0.892229 0)
(-0.0198392 0.942313 0)
(0.0212995 0.934963 0)
(0.0458878 0.881994 0)
(0.0424312 0.813669 0)
(0.0474696 0.71986 0)
(0.082772 0.594439 0)
(0.125431 0.499942 0)
(0.156129 0.449884 0)
(0.145832 0.457621 0)
(0.0693699 0.536119 0)
(-0.0267643 0.632311 0)
(-0.0888615 0.75509 0)
(-0.0994806 0.866844 0)
(-0.0820818 0.95059 0)
(-0.0519555 1.04865 0)
(-0.027577 1.20839 0)
(0.0410069 1.16426 0)
(0.0746835 1.02467 0)
(0.0893798 0.936684 0)
(0.0806807 0.863199 0)
(0.0514917 0.776686 0)
(-0.0154333 0.686845 0)
(-0.0992915 0.583507 0)
(-0.165656 0.482431 0)
(-0.183863 0.435948 0)
(-0.158852 0.476113 0)
(-0.118995 0.573349 0)
(-0.073714 0.698844 0)
(-0.045479 0.810826 0)
(-0.0344933 0.867482 0)
(-0.0150416 0.898953 0)
(0.0150887 0.893739 0)
(0.0314005 0.860237 0)
(0.0435099 0.80069 0)
(0.0757043 0.688579 0)
(0.122424 0.564634 0)
(0.160678 0.466742 0)
(0.183077 0.430698 0)
(0.163977 0.482405 0)
(0.101491 0.587435 0)
(0.0244492 0.69324 0)
(-0.041164 0.776378 0)
(-0.0730747 0.858859 0)
(-0.0875438 0.933069 0)
(-0.075845 1.01911 0)
(-0.041524 1.15955 0)
(0.0392911 1.09364 0)
(0.0645479 0.993107 0)
(0.0518511 0.939774 0)
(0.0205996 0.88486 0)
(-0.0234779 0.818255 0)
(-0.0755861 0.736332 0)
(-0.121842 0.615774 0)
(-0.163575 0.491471 0)
(-0.185188 0.417722 0)
(-0.176856 0.446561 0)
(-0.14526 0.538748 0)
(-0.10227 0.664365 0)
(-0.0589089 0.775799 0)
(-0.0309693 0.840332 0)
(-0.0112445 0.860549 0)
(0.00956797 0.857559 0)
(0.0282365 0.833679 0)
(0.0575566 0.764943 0)
(0.102345 0.652814 0)
(0.145375 0.529377 0)
(0.17546 0.440676 0)
(0.180954 0.414036 0)
(0.158851 0.49035 0)
(0.120546 0.614843 0)
(0.0817973 0.734181 0)
(0.0351718 0.815861 0)
(-0.00954489 0.883162 0)
(-0.0429589 0.941813 0)
(-0.058348 0.989351 0)
(-0.0378204 1.08848 0)
(0.0257476 1.05096 0)
(0.0180738 1.00289 0)
(-0.0113923 0.959904 0)
(-0.0422581 0.901423 0)
(-0.0739192 0.83602 0)
(-0.090684 0.748491 0)
(-0.104416 0.628082 0)
(-0.129798 0.499875 0)
(-0.153819 0.41357 0)
(-0.157676 0.425545 0)
(-0.142009 0.509694 0)
(-0.109537 0.629848 0)
(-0.0696586 0.741852 0)
(-0.0355354 0.808168 0)
(-0.011175 0.829449 0)
(0.00907127 0.827566 0)
(0.0336052 0.802127 0)
(0.0682124 0.731342 0)
(0.10729 0.619007 0)
(0.138689 0.500874 0)
(0.152853 0.419231 0)
(0.147572 0.411002 0)
(0.122922 0.498178 0)
(0.100058 0.624196 0)
(0.0905255 0.742315 0)
(0.0785157 0.831286 0)
(0.0495617 0.897193 0)
(0.0214626 0.957925 0)
(-0.00791882 1.00541 0)
(-0.0224484 1.05382 0)
(0.00472918 1.03516 0)
(-0.0193769 1.01852 0)
(-0.0445033 0.970296 0)
(-0.0647636 0.915375 0)
(-0.0737797 0.84542 0)
(-0.0667972 0.7478 0)
(-0.0653611 0.635346 0)
(-0.0823912 0.513705 0)
(-0.108739 0.421359 0)
(-0.120965 0.418776 0)
(-0.116828 0.494923 0)
(-0.0976578 0.606861 0)
(-0.0674691 0.716099 0)
(-0.0369253 0.782705 0)
(-0.0118919 0.806241 0)
(0.0103796 0.804511 0)
(0.0358117 0.776532 0)
(0.0664157 0.706935 0)
(0.0954706 0.596651 0)
(0.113346 0.487506 0)
(0.115838 0.414019 0)
(0.102201 0.420375 0)
(0.0759045 0.512021 0)
(0.0606321 0.63002 0)
(0.0636516 0.739732 0)
(0.0730969 0.838939 0)
(0.0667861 0.911753 0)
(0.0487555 0.968617 0)
(0.0238062 1.0224 0)
(-0.000717094 1.04124 0)
(-0.00840958 1.04068 0)
(-0.0256184 1.04524 0)
(-0.0514261 0.987139 0)
(-0.0558545 0.92354 0)
(-0.0429498 0.83882 0)
(-0.0262993 0.739813 0)
(-0.0221517 0.63974 0)
(-0.0368767 0.530038 0)
(-0.0654798 0.438635 0)
(-0.0842563 0.421847 0)
(-0.0877458 0.490644 0)
(-0.0777754 0.593692 0)
(-0.0569786 0.69894 0)
(-0.0328833 0.764933 0)
(-0.0109522 0.78896 0)
(0.0100873 0.787039 0)
(0.0321659 0.758825 0)
(0.0560432 0.690126 0)
(0.0756098 0.584602 0)
(0.0844206 0.484759 0)
(0.0795847 0.418801 0)
(0.0595205 0.438067 0)
(0.0314946 0.527639 0)
(0.0178897 0.633643 0)
(0.0222766 0.731277 0)
(0.0392314 0.829543 0)
(0.0544756 0.918236 0)
(0.052063 0.984985 0)
(0.0275685 1.05018 0)
(0.0102921 1.05288 0)
(-0.0146445 1.0625 0)
(-0.0296752 1.07157 0)
(-0.0413519 0.996179 0)
(-0.0225285 0.916685 0)
(0.0017284 0.822378 0)
(0.0150551 0.734816 0)
(0.0163589 0.645372 0)
(0.0013712 0.547339 0)
(-0.0280921 0.4599 0)
(-0.0531737 0.433062 0)
(-0.0623522 0.494187 0)
(-0.0585069 0.588004 0)
(-0.0454094 0.688161 0)
(-0.0271269 0.751314 0)
(-0.00918673 0.774125 0)
(0.0087024 0.772198 0)
(0.0265414 0.745477 0)
(0.044367 0.67991 0)
(0.0561451 0.579716 0)
(0.0588735 0.488363 0)
(0.048631 0.431041 0)
(0.0228089 0.459555 0)
(-0.00567001 0.544224 0)
(-0.0199777 0.63889 0)
(-0.0189254 0.726397 0)
(-0.00603576 0.813309 0)
(0.0182728 0.908997 0)
(0.0392613 0.992642 0)
(0.0292572 1.07518 0)
(0.0152476 1.07523 0)
(-0.0236055 1.08854 0)
(-0.0247086 1.08127 0)
(-0.0107596 0.985882 0)
(0.021299 0.897298 0)
(0.0409122 0.814161 0)
(0.0497333 0.73414 0)
(0.0471452 0.652982 0)
(0.0313614 0.565613 0)
(0.00180435 0.484981 0)
(-0.0274861 0.450505 0)
(-0.0412019 0.498835 0)
(-0.0422583 0.587743 0)
(-0.0355858 0.681912 0)
(-0.0219376 0.741282 0)
(-0.00753054 0.762084 0)
(0.0071117 0.760243 0)
(0.0213395 0.735833 0)
(0.0345255 0.674318 0)
(0.0401452 0.580444 0)
(0.0380129 0.494082 0)
(0.0232658 0.449542 0)
(-0.00626415 0.484337 0)
(-0.0348434 0.562061 0)
(-0.0501312 0.646583 0)
(-0.0530799 0.725952 0)
(-0.044891 0.805586 0)
(-0.0255724 0.889835 0)
(0.00625099 0.981222 0)
(0.0228886 1.08308 0)
(0.0244177 1.10163 0)
(-0.0264045 1.12121 0)
(-0.00854193 1.06651 0)
(0.0287319 0.967229 0)
(0.0538076 0.886263 0)
(0.0703071 0.808904 0)
(0.0759363 0.735335 0)
(0.0711479 0.662473 0)
(0.0545038 0.585379 0)
(0.0253925 0.511293 0)
(-0.00697936 0.472756 0)
(-0.0256037 0.507771 0)
(-0.031815 0.591756 0)
(-0.029244 0.67889 0)
(-0.0183394 0.73373 0)
(-0.00632784 0.752311 0)
(0.00586059 0.750572 0)
(0.017692 0.728625 0)
(0.0281816 0.671778 0)
(0.0298909 0.585103 0)
(0.0227544 0.503919 0)
(0.00324891 0.472117 0)
(-0.0289261 0.510264 0)
(-0.0572342 0.581304 0)
(-0.0736156 0.656025 0)
(-0.0785742 0.727449 0)
(-0.0734614 0.800581 0)
(-0.0574444 0.878896 0)
(-0.0327996 0.962596 0)
(0.0057637 1.06518 0)
(0.0251589 1.13415 0)
(-0.0106944 1.14619 0)
(0.012327 1.03639 0)
(0.0544701 0.952973 0)
(0.0762623 0.875613 0)
(0.0910609 0.803783 0)
(0.0955554 0.737697 0)
(0.0895272 0.673123 0)
(0.0718707 0.605597 0)
(0.0421749 0.539012 0)
(0.00716515 0.498588 0)
(-0.0162067 0.520755 0)
(-0.0263147 0.598297 0)
(-0.0254463 0.677082 0)
(-0.0156953 0.727575 0)
(-0.00532386 0.744388 0)
(0.00487957 0.74279 0)
(0.0150347 0.722728 0)
(0.0242814 0.670405 0)
(0.0246303 0.592344 0)
(0.01398 0.517776 0)
(-0.0101918 0.49823 0)
(-0.0449405 0.537603 0)
(-0.0740951 0.601453 0)
(-0.0915696 0.666751 0)
(-0.0977636 0.730029 0)
(-0.0936136 0.795776 0)
(-0.0791501 0.868343 0)
(-0.0573767 0.948156 0)
(-0.0147181 1.0355 0)
(0.00829434 1.15653 0)
(0.00490926 1.15102 0)
(0.0255942 1.01407 0)
(0.0679544 0.935192 0)
(0.0912531 0.863048 0)
(0.106661 0.798162 0)
(0.110549 0.740424 0)
(0.102857 0.684805 0)
(0.0830158 0.627046 0)
(0.0516033 0.56761 0)
(0.0136937 0.526957 0)
(-0.0139214 0.536294 0)
(-0.0245074 0.606673 0)
(-0.0221205 0.675126 0)
(-0.0133221 0.722208 0)
(-0.00438215 0.738091 0)
(0.00395761 0.736641 0)
(0.0126484 0.717704 0)
(0.0208021 0.668912 0)
(0.0225864 0.600254 0)
(0.0118139 0.533928 0)
(-0.016217 0.52655 0)
(-0.0537849 0.565961 0)
(-0.0848707 0.622569 0)
(-0.104598 0.67845 0)
(-0.112375 0.732989 0)
(-0.108744 0.790341 0)
(-0.0935196 0.855658 0)
(-0.07007 0.929701 0)
(-0.0274545 1.01319 0)
(-0.0065465 1.1596 0)
(0.0122222 1.14915 0)
(0.033534 0.98938 0)
(0.076874 0.912703 0)
(0.102911 0.847894 0)
(0.118943 0.792057 0)
(0.121189 0.744075 0)
(0.1103 0.697881 0)
(0.0863627 0.648962 0)
(0.0520236 0.595739 0)
(0.0121818 0.55626 0)
(-0.0161869 0.552044 0)
(-0.0230821 0.608392 0)
(-0.0186391 0.672748 0)
(-0.0109886 0.717678 0)
(-0.00343078 0.733471 0)
(0.00313642 0.732139 0)
(0.0104616 0.713568 0)
(0.0174082 0.667211 0)
(0.0210598 0.602481 0)
(0.0139615 0.549972 0)
(-0.0141877 0.555708 0)
(-0.0536406 0.593879 0)
(-0.0877256 0.644417 0)
(-0.111641 0.691527 0)
(-0.122628 0.736751 0)
(-0.120551 0.784438 0)
(-0.104749 0.840596 0)
(-0.0786755 0.906931 0)
(-0.035156 0.988027 0)
(-0.0130996 1.15636 0)
(0.0165728 1.13758 0)
(0.0413782 0.962643 0)
(0.0860658 0.88776 0)
(0.113506 0.831448 0)
(0.128123 0.786525 0)
(0.126237 0.749313 0)
(0.10945 0.712461 0)
(0.0798219 0.671618 0)
(0.0435714 0.622869 0)
(0.00688149 0.582789 0)
(-0.0158399 0.563862 0)
(-0.019987 0.607244 0)
(-0.0151337 0.670327 0)
(-0.00867269 0.713875 0)
(-0.00247372 0.730233 0)
(0.00244943 0.728964 0)
(0.00840753 0.710104 0)
(0.0138714 0.66538 0)
(0.0177001 0.601776 0)
(0.0133536 0.561699 0)
(-0.00871267 0.58168 0)
(-0.0445292 0.620726 0)
(-0.0803879 0.666839 0)
(-0.110102 0.706151 0)
(-0.127032 0.74202 0)
(-0.129186 0.779057 0)
(-0.115002 0.824328 0)
(-0.0878885 0.881923 0)
(-0.0432148 0.960704 0)
(-0.0172984 1.14331 0)
(0.0213686 1.11691 0)
(0.0519282 0.932931 0)
(0.0975645 0.861117 0)
(0.123075 0.815048 0)
(0.132252 0.783215 0)
(0.122789 0.757733 0)
(0.0976182 0.729952 0)
(0.0642217 0.694619 0)
(0.0320102 0.645949 0)
(0.00542846 0.601728 0)
(-0.0100609 0.572606 0)
(-0.0141596 0.605921 0)
(-0.0103515 0.669263 0)
(-0.00562734 0.711289 0)
(-0.00136261 0.728554 0)
(0.00156837 0.727468 0)
(0.00514203 0.708157 0)
(0.0091349 0.666624 0)
(0.0123202 0.601127 0)
(0.00772463 0.570446 0)
(-0.00722841 0.599853 0)
(-0.0325827 0.643098 0)
(-0.0640181 0.689769 0)
(-0.0972816 0.723608 0)
(-0.12274 0.750615 0)
(-0.132689 0.776108 0)
(-0.124161 0.808429 0)
(-0.0993467 0.855606 0)
(-0.0542297 0.93079 0)
(-0.0225092 1.12121 0)
(0.0301333 1.08688 0)
(0.0673741 0.901505 0)
(0.110124 0.835116 0)
(0.128994 0.80242 0)
(0.128574 0.784675 0)
(0.108501 0.771351 0)
(0.0764533 0.750576 0)
(0.0464768 0.71478 0)
(0.0254701 0.661855 0)
(0.0107581 0.613031 0)
(0.000135941 0.581226 0)
(-0.00628637 0.606029 0)
(-0.00432025 0.669259 0)
(-0.00142632 0.710587 0)
(7.66422e-05 0.728831 0)
(0.000801894 0.728043 0)
(0.00132548 0.708352 0)
(0.00357184 0.665037 0)
(0.00492593 0.602159 0)
(-0.00207126 0.578992 0)
(-0.0122471 0.610701 0)
(-0.0261529 0.657958 0)
(-0.0459549 0.709353 0)
(-0.075364 0.744266 0)
(-0.10747 0.764488 0)
(-0.128285 0.778039 0)
(-0.129402 0.796431 0)
(-0.111467 0.830266 0)
(-0.0697921 0.899444 0)
(-0.0317949 1.0892 0)
(0.042399 1.04239 0)
(0.0856321 0.869585 0)
(0.119814 0.813467 0)
(0.128009 0.796523 0)
(0.114394 0.794281 0)
(0.0845125 0.791104 0)
(0.0544636 0.770513 0)
(0.0356648 0.727883 0)
(0.0267487 0.670103 0)
(0.020853 0.620899 0)
(0.0119307 0.591612 0)
(0.00265323 0.609943 0)
(0.00173257 0.668724 0)
(0.00245795 0.712265 0)
(0.00140419 0.730871 0)
(0.000570802 0.730423 0)
(-0.00117291 0.710928 0)
(-0.00157964 0.665457 0)
(-0.00358176 0.607002 0)
(-0.0132803 0.589105 0)
(-0.0219187 0.61849 0)
(-0.0274464 0.665575 0)
(-0.0354082 0.721685 0)
(-0.0531529 0.763762 0)
(-0.0829492 0.784676 0)
(-0.113303 0.788076 0)
(-0.127647 0.791191 0)
(-0.12021 0.809573 0)
(-0.0871112 0.867937 0)
(-0.0435782 1.04276 0)
(0.053679 0.980708 0)
(0.0980128 0.840105 0)
(0.121082 0.799577 0)
(0.116467 0.801195 0)
(0.0903977 0.813078 0)
(0.0595252 0.811755 0)
(0.0402042 0.783783 0)
(0.0338565 0.734143 0)
(0.034309 0.674518 0)
(0.0319688 0.628206 0)
(0.0232477 0.603883 0)
(0.012275 0.617532 0)
(0.00774663 0.670846 0)
(0.00561847 0.716543 0)
(0.0025489 0.734321 0)
(0.000814619 0.733996 0)
(-0.00267457 0.715605 0)
(-0.00615191 0.668967 0)
(-0.0121351 0.615403 0)
(-0.0239358 0.601294 0)
(-0.0327662 0.625726 0)
(-0.0351448 0.66949 0)
(-0.0341019 0.72714 0)
(-0.0394925 0.776293 0)
(-0.058019 0.805342 0)
(-0.0888418 0.807293 0)
(-0.11528 0.79643 0)
(-0.12044 0.796303 0)
(-0.09768 0.838811 0)
(-0.0537039 0.980152 0)
(0.0555504 0.909373 0)
(0.0972297 0.816053 0)
(0.110512 0.796012 0)
(0.0930891 0.816267 0)
(0.0630557 0.835887 0)
(0.0411093 0.827695 0)
(0.0345361 0.78974 0)
(0.0391491 0.735109 0)
(0.0444808 0.677266 0)
(0.0422159 0.636851 0)
(0.0333676 0.616897 0)
(0.0212059 0.62849 0)
(0.0134435 0.675949 0)
(0.00894665 0.723087 0)
(0.00431882 0.739047 0)
(0.00120683 0.738955 0)
(-0.00409614 0.722595 0)
(-0.0102408 0.675449 0)
(-0.019497 0.627472 0)
(-0.0329228 0.614936 0)
(-0.0424211 0.634538 0)
(-0.0451157 0.672285 0)
(-0.040089 0.727596 0)
(-0.0347073 0.781397 0)
(-0.0403439 0.820773 0)
(-0.0614997 0.829862 0)
(-0.0913952 0.811964 0)
(-0.108999 0.792777 0)
(-0.0956608 0.814859 0)
(-0.0544842 0.909928 0)
(0.0465976 0.842133 0)
(0.0844029 0.797105 0)
(0.0864201 0.801257 0)
(0.0642329 0.838861 0)
(0.0401248 0.852586 0)
(0.0321944 0.835597 0)
(0.0372792 0.789567 0)
(0.0487768 0.733229 0)
(0.0552095 0.681514 0)
(0.0520449 0.647036 0)
(0.0424466 0.630918 0)
(0.0286454 0.641937 0)
(0.0177648 0.683641 0)
(0.0115554 0.730959 0)
(0.00589335 0.745207 0)
(0.000678483 0.745249 0)
(-0.0054461 0.731832 0)
(-0.0130199 0.684751 0)
(-0.0251573 0.642084 0)
(-0.0403352 0.630056 0)
(-0.0508958 0.645179 0)
(-0.0548382 0.677125 0)
(-0.0493898 0.725784 0)
(-0.0378783 0.780564 0)
(-0.0317876 0.827973 0)
(-0.0389544 0.846375 0)
(-0.0628092 0.834796 0)
(-0.0848322 0.798251 0)
(-0.0825601 0.795955 0)
(-0.0453873 0.844163 0)
(0.0313286 0.789016 0)
(0.0613747 0.786335 0)
(0.0535489 0.812127 0)
(0.035789 0.8593 0)
(0.0262732 0.863649 0)
(0.0335055 0.837789 0)
(0.0482153 0.784492 0)
(0.0630215 0.730418 0)
(0.0672244 0.687059 0)
(0.0617575 0.658633 0)
(0.0499101 0.646529 0)
(0.0340264 0.657926 0)
(0.0206886 0.694072 0)
(0.0133398 0.737276 0)
(0.0071694 0.752681 0)
(-0.000283764 0.752661 0)
(-0.00672179 0.738669 0)
(-0.0149029 0.695978 0)
(-0.0290539 0.659067 0)
(-0.0460306 0.646807 0)
(-0.058841 0.657467 0)
(-0.0651003 0.683624 0)
(-0.0620259 0.723843 0)
(-0.0479592 0.775373 0)
(-0.0326789 0.829476 0)
(-0.0254841 0.857444 0)
(-0.0366739 0.854897 0)
(-0.0533881 0.80878 0)
(-0.0600323 0.784935 0)
(-0.030378 0.792823 0)
(0.018216 0.753577 0)
(0.034959 0.786683 0)
(0.0213383 0.826479 0)
(0.0220132 0.871797 0)
(0.0326984 0.863319 0)
(0.0516377 0.831739 0)
(0.0692135 0.778047 0)
(0.080998 0.731259 0)
(0.0802556 0.696149 0)
(0.0704052 0.67318 0)
(0.0549565 0.664448 0)
(0.0369341 0.675547 0)
(0.0219635 0.706033 0)
(0.0133478 0.744021 0)
(0.00716354 0.761596 0)
(-0.000242684 0.761288 0)
(-0.00659528 0.745706 0)
(-0.0155202 0.708311 0)
(-0.0309871 0.677222 0)
(-0.0497281 0.665441 0)
(-0.0658624 0.672534 0)
(-0.0763148 0.693304 0)
(-0.0779139 0.725485 0)
(-0.0667929 0.769142 0)
(-0.0491937 0.822564 0)
(-0.0303108 0.858403 0)
(-0.0211749 0.868807 0)
(-0.0225456 0.821401 0)
(-0.0340949 0.784725 0)
(-0.0175786 0.758669 0)
(0.00574762 0.734764 0)
(0.0129875 0.792208 0)
(0.0078434 0.82977 0)
(0.0299554 0.86699 0)
(0.0526666 0.855433 0)
(0.0759082 0.826062 0)
(0.0911133 0.776055 0)
(0.0970243 0.736696 0)
(0.0905125 0.709193 0)
(0.0753287 0.691474 0)
(0.0560618 0.684658 0)
(0.0363592 0.69423 0)
(0.0207539 0.71911 0)
(0.0115631 0.751434 0)
(0.00604837 0.768547 0)
(0.000408072 0.768527 0)
(-0.00508164 0.753011 0)
(-0.0140306 0.72127 0)
(-0.0296754 0.696079 0)
(-0.0497466 0.685879 0)
(-0.0695432 0.691068 0)
(-0.085343 0.706565 0)
(-0.092747 0.73117 0)
(-0.0876984 0.767085 0)
(-0.0727851 0.816719 0)
(-0.0495107 0.850735 0)
(-0.0271387 0.865643 0)
(-0.00656434 0.827165 0)
(-0.0135683 0.788959 0)
(-0.00551931 0.74073 0)
(-0.00290398 0.733372 0)
(0.00282249 0.792958 0)
(0.0189817 0.818591 0)
(0.047166 0.852209 0)
(0.0720482 0.84402 0)
(0.0951796 0.819719 0)
(0.107736 0.777923 0)
(0.107717 0.746693 0)
(0.0953052 0.726453 0)
(0.0749677 0.712815 0)
(0.0526047 0.706095 0)
(0.0325608 0.713018 0)
(0.0179142 0.732334 0)
(0.00942875 0.759072 0)
(0.00464356 0.774808 0)
(0.000463617 0.774679 0)
(-0.00394642 0.760136 0)
(-0.0116629 0.733878 0)
(-0.0256536 0.714645 0)
(-0.0455327 0.707219 0)
(-0.0682743 0.712656 0)
(-0.0894382 0.724144 0)
(-0.103029 0.74167 0)
(-0.104443 0.769365 0)
(-0.0930442 0.810231 0)
(-0.0696043 0.839043 0)
(-0.0438565 0.851245 0)