/*--------------------------------*- C++ -*----------------------------------*\
| =========                 |                                                 |
| \\      /  F ield         | OpenFOAM: The Open Source CFD Toolbox           |
|  \\    /   O peration     | Version:  v1606+                                |
|   \\  /    A nd           | Web:      www.OpenFOAM.com                      |
|    \\/     M anipulation  |                                                 |
\*---------------------------------------------------------------------------*/
FoamFile
{
    version     2.0;
    format      ascii;
    class       volVectorField;
    location    "0.53";
    object      U.particles;
}
// * * * * * * * * * * * * * * * * * * * * * * * * * * * * * * * * * * * * * //

dimensions      [0 1 -1 0 0 0 0];

internalField   nonuniform List<vector> 
6000
(
(-0.0088726 -0.444406 0)
(0.00740412 -0.479596 0)
(0.0211414 -0.463147 0)
(0.0409581 -0.45404 0)
(0.0573328 -0.462752 0)
(0.0692819 -0.477143 0)
(0.0750718 -0.487649 0)
(0.0751861 -0.498199 0)
(0.068869 -0.510009 0)
(0.058064 -0.523322 0)
(0.04679 -0.533657 0)
(0.0374011 -0.538249 0)
(0.0278351 -0.53929 0)
(0.0164365 -0.540069 0)
(0.00375378 -0.540188 0)
(-0.00966329 -0.539442 0)
(-0.0225253 -0.539107 0)
(-0.0336601 -0.538856 0)
(-0.0428234 -0.537957 0)
(-0.0520304 -0.532311 0)
(-0.0625847 -0.52051 0)
(-0.0720718 -0.506487 0)
(-0.0773588 -0.495433 0)
(-0.0763733 -0.486779 0)
(-0.0703736 -0.477021 0)
(-0.0583344 -0.46087 0)
(-0.0417805 -0.451454 0)
(-0.0218523 -0.462565 0)
(-0.00857573 -0.4803 0)
(0.00845057 -0.44416 0)
(0.0231712 -0.0100739 0)
(0.0127938 0.0190382 0)
(0.0260218 0.0102194 0)
(0.0445243 -0.00636587 0)
(0.0596192 -0.00749789 0)
(0.0693319 -0.0111199 0)
(0.0803688 -0.0107272 0)
(0.0904065 -0.00281387 0)
(0.0983698 0.0102782 0)
(0.0968849 0.0293727 0)
(0.0853117 0.0491587 0)
(0.0727677 0.05453 0)
(0.0569268 0.0512887 0)
(0.0365235 0.0426836 0)
(0.0104353 0.0410418 0)
(-0.0184377 0.039818 0)
(-0.0440803 0.0427634 0)
(-0.0636574 0.0538469 0)
(-0.0790296 0.0554089 0)
(-0.0914546 0.0470598 0)
(-0.10137 0.0263422 0)
(-0.101167 0.00693011 0)
(-0.0922151 -0.00623086 0)
(-0.0813235 -0.0121521 0)
(-0.0703364 -0.0114707 0)
(-0.060694 -0.00756078 0)
(-0.0451555 -0.00657307 0)
(-0.0262151 0.0113913 0)
(-0.0132535 0.0208789 0)
(-0.0234482 -0.0106813 0)
(-0.00914903 -0.170413 0)
(0.00105834 -0.158447 0)
(0.0218589 -0.160211 0)
(0.0398933 -0.162158 0)
(0.0524889 -0.168673 0)
(0.0658698 -0.17649 0)
(0.0834336 -0.177727 0)
(0.100945 -0.172733 0)
(0.116147 -0.158945 0)
(0.121863 -0.136026 0)
(0.11117 -0.110885 0)
(0.0919206 -0.0850565 0)
(0.071909 -0.0633716 0)
(0.0492789 -0.0497152 0)
(0.0155664 -0.0415207 0)
(-0.024324 -0.0426485 0)
(-0.057437 -0.0521403 0)
(-0.0794731 -0.0668313 0)
(-0.0987948 -0.0885452 0)
(-0.116296 -0.114608 0)
(-0.125074 -0.139197 0)
(-0.117722 -0.161937 0)
(-0.101729 -0.175873 0)
(-0.083647 -0.180148 0)
(-0.0656002 -0.178101 0)
(-0.0518286 -0.169675 0)
(-0.0392231 -0.162263 0)
(-0.0211724 -0.15955 0)
(0.00017938 -0.156565 0)
(0.00978956 -0.167649 0)
(0.00367123 -0.186595 0)
(0.0123317 -0.186284 0)
(0.018708 -0.185614 0)
(0.0267308 -0.185666 0)
(0.0431748 -0.189818 0)
(0.0637285 -0.192768 0)
(0.0865055 -0.19197 0)
(0.109448 -0.183154 0)
(0.131161 -0.165527 0)
(0.15065 -0.137543 0)
(0.153285 -0.105306 0)
(0.132554 -0.0858175 0)
(0.0947997 -0.0740775 0)
(0.0582835 -0.0637631 0)
(0.0171429 -0.0567266 0)
(-0.0280664 -0.0578598 0)
(-0.0680079 -0.0664242 0)
(-0.104021 -0.0776094 0)
(-0.13949 -0.0893516 0)
(-0.156334 -0.109625 0)
(-0.151296 -0.14183 0)
(-0.131024 -0.169018 0)
(-0.108746 -0.186096 0)
(-0.0856017 -0.194598 0)
(-0.0625899 -0.195151 0)
(-0.0415918 -0.192238 0)
(-0.0248014 -0.187564 0)
(-0.0166864 -0.18631 0)
(-0.0106528 -0.185695 0)
(-0.00300701 -0.186691 0)
(-0.00099649 -0.197072 0)
(0.00644602 -0.194151 0)
(0.0163865 -0.192098 0)
(0.0240074 -0.198623 0)
(0.0446206 -0.199047 0)
(0.0651123 -0.19663 0)
(0.0827602 -0.190365 0)
(0.101475 -0.179 0)
(0.123941 -0.161201 0)
(0.145317 -0.137244 0)
(0.16805 -0.103949 0)
(0.161753 -0.0736251 0)
(0.122936 -0.0594499 0)
(0.0682368 -0.0527919 0)
(0.0175171 -0.0514181 0)
(-0.0307001 -0.0517997 0)
(-0.0801254 -0.0550696 0)
(-0.132444 -0.0629482 0)
(-0.166424 -0.078175 0)
(-0.169029 -0.108964 0)
(-0.144401 -0.141171 0)
(-0.123098 -0.164651 0)
(-0.100262 -0.181788 0)
(-0.0816603 -0.19264 0)
(-0.0639381 -0.198916 0)
(-0.0433856 -0.201585 0)
(-0.0224629 -0.201709 0)
(-0.0140803 -0.195527 0)
(-0.00495757 -0.195115 0)
(0.00189991 -0.198213 0)
(4.8307e-05 -0.143758 0)
(-0.00384246 -0.139193 0)
(0.00757555 -0.157875 0)
(0.0245252 -0.150387 0)
(0.0386298 -0.144595 0)
(0.0556935 -0.141166 0)
(0.0722717 -0.137407 0)
(0.0883755 -0.129172 0)
(0.110936 -0.115325 0)
(0.129053 -0.094162 0)
(0.158105 -0.0726735 0)
(0.165481 -0.0393843 0)
(0.138791 -0.0202179 0)
(0.0787423 -0.0118859 0)
(0.0193971 -0.0154187 0)
(-0.0343236 -0.0150551 0)
(-0.0921367 -0.0136666 0)
(-0.146929 -0.0230543 0)
(-0.16912 -0.0432891 0)
(-0.157393 -0.0777669 0)
(-0.12867 -0.09802 0)
(-0.109805 -0.118768 0)
(-0.087615 -0.131926 0)
(-0.0714155 -0.139613 0)
(-0.0545719 -0.142999 0)
(-0.0372239 -0.146079 0)
(-0.0233686 -0.152301 0)
(-0.00623007 -0.161088 0)
(0.00534925 -0.141698 0)
(0.00203649 -0.147239 0)
(0.0251149 -0.0624489 0)
(0.00583702 -0.0959063 0)
(0.00767547 -0.110127 0)
(0.00632163 -0.098202 0)
(0.00972941 -0.0938759 0)
(0.0279834 -0.0913234 0)
(0.0510526 -0.093108 0)
(0.0697236 -0.0854082 0)
(0.0891982 -0.0709014 0)
(0.110204 -0.0514878 0)
(0.137643 -0.0294399 0)
(0.156712 0.0123414 0)
(0.137546 0.0354737 0)
(0.0845778 0.0469783 0)
(0.0215548 0.0413911 0)
(-0.0379998 0.0423891 0)
(-0.099084 0.0449296 0)
(-0.14568 0.0311255 0)
(-0.159386 0.00648414 0)
(-0.13534 -0.0329723 0)
(-0.109785 -0.0547027 0)
(-0.087919 -0.0735887 0)
(-0.0690057 -0.0873827 0)
(-0.0492402 -0.093667 0)
(-0.0258213 -0.0922991 0)
(-0.00769493 -0.0958818 0)
(-0.00323911 -0.10006 0)
(-0.00449706 -0.111322 0)
(-0.00367355 -0.098256 0)
(-0.0239232 -0.0627732 0)
(0.0233606 -0.0207581 0)
(0.0162276 -0.0582382 0)
(0.00684916 -0.0543431 0)
(-0.00141959 -0.0513504 0)
(-0.00488809 -0.0483238 0)
(-0.00224963 -0.0358778 0)
(0.0153341 -0.0342896 0)
(0.0409811 -0.0347743 0)
(0.0606302 -0.0210008 0)
(0.0842362 0.000801425 0)
(0.108978 0.0250349 0)
(0.146074 0.0615566 0)
(0.136744 0.0959201 0)
(0.0906187 0.114762 0)
(0.0243007 0.11077 0)
(-0.0429459 0.112157 0)
(-0.107102 0.110799 0)
(-0.145342 0.0903852 0)
(-0.147561 0.0529289 0)
(-0.106672 0.0208198 0)
(-0.0835448 -0.0030221 0)
(-0.0594637 -0.0231939 0)
(-0.0395868 -0.035872 0)
(-0.0122568 -0.0353713 0)
(0.00722179 -0.0416149 0)
(0.0114207 -0.0563737 0)
(0.00607008 -0.0563583 0)
(-0.00162999 -0.0579498 0)
(-0.0102852 -0.0607016 0)
(-0.0247914 -0.0130243 0)
(-0.00833285 -0.0347453 0)
(0.0114443 -0.0266528 0)
(0.0135389 -0.0164082 0)
(0.0108937 -0.00789081 0)
(0.00299721 -0.00282503 0)
(-0.0115891 -0.00743282 0)
(-0.0177051 0.000108238 0)
(-0.00357147 0.0255136 0)
(0.0284914 0.0304909 0)
(0.057146 0.0516105 0)
(0.0847889 0.0789466 0)
(0.132431 0.114882 0)
(0.131483 0.16366 0)
(0.0962408 0.186911 0)
(0.0279076 0.191312 0)
(-0.046368 0.193167 0)
(-0.106576 0.183413 0)
(-0.139836 0.158148 0)
(-0.131684 0.103577 0)
(-0.0834009 0.0720935 0)
(-0.0555401 0.0468649 0)
(-0.0273758 0.0276994 0)
(0.0078387 0.0246122 0)
(0.0198873 -0.0104278 0)
(0.00899001 -0.0075266 0)
(-0.00451353 -0.00267959 0)
(-0.0123363 -0.00707398 0)
(-0.0153367 -0.0151338 0)
(-0.0140154 -0.0253542 0)
(0.00755039 -0.0345667 0)
(0.00200609 -0.0135072 0)
(0.0100382 -0.00980263 0)
(0.0123755 0.000799571 0)
(0.0124097 0.0118799 0)
(0.00999069 0.0221784 0)
(0.0045644 0.0301158 0)
(-0.00615579 0.0338295 0)
(-0.0252052 0.0409559 0)
(-0.0164131 0.0844075 0)
(0.0266692 0.102119 0)
(0.0625513 0.128595 0)
(0.116298 0.168756 0)
(0.129318 0.242641 0)
(0.0836569 0.27541 0)
(0.0280055 0.286718 0)
(-0.0485912 0.287653 0)
(-0.102875 0.270878 0)
(-0.144202 0.224016 0)
(-0.11113 0.154591 0)
(-0.0619596 0.118646 0)
(-0.024474 0.0951633 0)
(0.021122 0.0791027 0)
(0.0213149 0.0336663 0)
(0.00507321 0.0332625 0)
(-0.00400211 0.0305994 0)
(-0.00927831 0.0233611 0)
(-0.0122851 0.0135551 0)
(-0.0128303 0.00264787 0)
(-0.0110778 -0.00827597 0)
(-0.00305617 -0.0126471 0)
(0.00375129 -0.00411527 0)
(0.00725945 0.00134414 0)
(0.00729004 0.0128073 0)
(0.0051782 0.0255728 0)
(0.00156689 0.0381309 0)
(-0.00300067 0.0494824 0)
(-0.00795035 0.0588937 0)
(-0.0138326 0.0670079 0)
(-0.0354126 0.0862972 0)
(0.000779707 0.124681 0)
(0.0515254 0.152225 0)
(0.100368 0.198025 0)
(0.158699 0.2834 0)
(0.0964848 0.379251 0)
(0.0292324 0.395059 0)
(-0.05095 0.391986 0)
(-0.118821 0.363809 0)
(-0.161605 0.258823 0)
(-0.0938245 0.182012 0)
(-0.0480759 0.140405 0)
(0.00512251 0.114618 0)
(0.0295095 0.0778339 0)
(0.014131 0.0644246 0)
(0.00935658 0.057903 0)
(0.00456626 0.0496058 0)
(-0.000151813 0.0392155 0)
(-0.0042396 0.0273504 0)
(-0.00694319 0.0148491 0)
(-0.00745813 0.00309468 0)
(-0.00412763 -0.00322421 0)
(0.0025262 0.00220427 0)
(0.00168547 0.0113886 0)
(-0.0016997 0.0240941 0)
(-0.00692624 0.0378103 0)
(-0.0130438 0.0508496 0)
(-0.0188412 0.062509 0)
(-0.0233998 0.0729129 0)
(-0.0266343 0.0829177 0)
(-0.0323124 0.0943969 0)
(-0.0277668 0.109866 0)
(0.0361251 0.148214 0)
(0.0931661 0.199321 0)
(0.16011 0.294062 0)
(0.110673 0.444112 0)
(0.0244261 0.512266 0)
(-0.0377315 0.506233 0)
(-0.113508 0.420003 0)
(-0.155612 0.268769 0)
(-0.0873797 0.179162 0)
(-0.0276955 0.133147 0)
(0.0338126 0.0995623 0)
(0.0314725 0.0895557 0)
(0.0279235 0.0799586 0)
(0.0250015 0.0715402 0)
(0.0205187 0.0624518 0)
(0.0146456 0.0518707 0)
(0.00815895 0.0396271 0)
(0.00234765 0.026202 0)
(-0.00162251 0.0131387 0)
(-0.00267688 0.00300653 0)
(6.18673e-05 0.0072292 0)
(-0.00582722 0.0206417 0)
(-0.0139631 0.0351125 0)
(-0.0228101 0.0498516 0)
(-0.0316792 0.0628028 0)
(-0.0391912 0.0735258 0)
(-0.0445577 0.082552 0)
(-0.0478166 0.0906546 0)
(-0.0510206 0.097212 0)
(-0.047898 0.0968728 0)
(0.00475668 0.122057 0)
(0.0694722 0.185938 0)
(0.113201 0.299335 0)
(0.0969565 0.453167 0)
(-0.00191198 0.638211 0)
(0.000940002 0.631408 0)
(-0.0918351 0.422745 0)
(-0.102191 0.277634 0)
(-0.0621967 0.171832 0)
(0.00169244 0.110262 0)
(0.0486091 0.093329 0)
(0.0505516 0.0934043 0)
(0.0485065 0.0878554 0)
(0.0456401 0.0811967 0)
(0.0405442 0.0734738 0)
(0.0332761 0.0638405 0)
(0.0241178 0.0518042 0)
(0.0146381 0.0373884 0)
(0.00579832 0.0224589 0)
(-0.000252402 0.00804273 0)
(-0.00238808 0.0120864 0)
(-0.0132471 0.0293271 0)
(-0.0306787 0.0460162 0)
(-0.0438136 0.0622369 0)
(-0.05482 0.0746797 0)
(-0.0634887 0.0835668 0)
(-0.0691586 0.0900501 0)
(-0.0716192 0.0950218 0)
(-0.0735772 0.0966302 0)
(-0.0678108 0.094312 0)
(-0.0329611 0.112837 0)
(0.00563381 0.182326 0)
(0.0299222 0.296692 0)
(0.0309916 0.450789 0)
(-0.033574 0.721122 0)
(0.043882 0.717308 0)
(-0.0216777 0.421863 0)
(-0.0255226 0.275696 0)
(-0.00236289 0.169766 0)
(0.0353467 0.103419 0)
(0.0680632 0.0905871 0)
(0.0728898 0.093378 0)
(0.0715806 0.0925608 0)
(0.0695307 0.0887871 0)
(0.0642208 0.0835787 0)
(0.0563455 0.0756862 0)
(0.0450468 0.0644561 0)
(0.0311632 0.0486252 0)
(0.0127361 0.031168 0)
(0.00224998 0.0129763 0)
(-0.00549489 0.0182622 0)
(-0.0170932 0.0381013 0)
(-0.0582538 0.0575887 0)
(-0.0741987 0.0742693 0)
(-0.0844337 0.0856404 0)
(-0.0914699 0.0923119 0)
(-0.0950174 0.0962313 0)
(-0.0963107 0.0974251 0)
(-0.0957999 0.0955655 0)
(-0.0890282 0.0954936 0)
(-0.071559 0.117093 0)
(-0.0582369 0.180131 0)
(-0.0559282 0.285125 0)
(-0.0522159 0.490175 0)
(-0.0411383 0.722012 0)
(0.0530771 0.71778 0)
(0.0522346 0.455912 0)
(0.0537041 0.267838 0)
(0.0584412 0.168902 0)
(0.0718516 0.10668 0)
(0.0889968 0.0897444 0)
(0.0951431 0.091835 0)
(0.0957502 0.0948994 0)
(0.0947726 0.0949166 0)
(0.091811 0.0921704 0)
(0.0860204 0.0865282 0)
(0.0761286 0.0776147 0)
(0.0590331 0.0617737 0)
(0.0163617 0.0408384 0)
(0.00598301 0.0193972 0)
(-0.0199169 0.0324104 0)
(-0.0259713 0.0909363 0)
(-0.121923 0.0960621 0)
(-0.123122 0.0932398 0)
(-0.122173 0.0997157 0)
(-0.122724 0.10021 0)
(-0.122203 0.100501 0)
(-0.119712 0.0991903 0)
(-0.115827 0.0958102 0)
(-0.1092 0.0968594 0)
(-0.100518 0.116065 0)
(-0.0987958 0.163922 0)
(-0.111207 0.211095 0)
(-0.0257976 0.431523 0)
(-0.029862 0.592014 0)
(0.0374226 0.590539 0)
(0.026784 0.394404 0)
(0.113291 0.182557 0)
(0.099249 0.147689 0)
(0.0989743 0.103438 0)
(0.108079 0.089614 0)
(0.114591 0.0914747 0)
(0.118737 0.0962069 0)
(0.121498 0.0988004 0)
(0.122937 0.100125 0)
(0.125121 0.100556 0)
(0.13646 0.103773 0)
(0.143515 0.10666 0)
(0.0305779 0.0962849 0)
(0.0194651 0.034934 0)
(-0.0776524 0.0509693 0)
(-0.182584 -0.0305819 0)
(-0.254051 -0.0515987 0)
(-0.293027 -0.00139876 0)
(-0.240034 0.100507 0)
(-0.170717 0.11111 0)
(-0.148936 0.105385 0)
(-0.138397 0.102118 0)
(-0.130252 0.0956676 0)
(-0.123705 0.0910016 0)
(-0.118268 0.098544 0)
(-0.11605 0.123849 0)
(-0.0782889 -0.0999522 0)
(-0.0255422 0.201498 0)
(5.52252e-05 0.298087 0)
(-0.00275812 0.296004 0)
(0.0368461 0.178481 0)
(0.0830171 -0.121385 0)
(0.105214 0.0999795 0)
(0.112989 0.0846775 0)
(0.120963 0.0833386 0)
(0.1283 0.0909186 0)
(0.136884 0.0987731 0)
(0.148576 0.103109 0)
(0.177843 0.107163 0)
(0.256213 0.0776965 0)
(0.291928 -0.0326671 0)
(0.249503 -0.0553171 0)
(0.172442 -0.0238493 0)
(0.0768965 0.051261 0)
(-0.066543 -0.00883272 0)
(-0.131671 -0.0183116 0)
(-0.114052 -0.0335609 0)
(-0.166428 -0.0782054 0)
(-0.244675 -0.0561288 0)
(-0.228592 0.0685217 0)
(-0.17013 0.107337 0)
(-0.147229 0.107355 0)
(-0.133638 0.094755 0)
(-0.126252 0.0753039 0)
(-0.123011 0.0523545 0)
(-0.110233 -0.000600166 0)
(-0.0835884 -0.129498 0)
(-0.0878158 0.187722 0)
(0.00485368 0.238404 0)
(-0.00528734 0.237328 0)
(0.0936133 0.153049 0)
(0.0849481 -0.132708 0)
(0.112603 0.0123569 0)
(0.11719 0.0461322 0)
(0.123383 0.0688326 0)
(0.131877 0.0896541 0)
(0.14648 0.10291 0)
(0.171362 0.100536 0)
(0.222915 0.0536622 0)
(0.222738 -0.0543867 0)
(0.122917 -0.0528585 0)
(0.0936852 -0.0146311 0)
(0.124595 -0.00797282 0)
(0.0680947 -0.0127077 0)
(-0.0226648 0.00534646 0)
(-0.0411752 0.0443526 0)
(0.0229952 0.0118774 0)
(0.0766752 0.0280843 0)
(-0.130934 0.0702233 0)
(-0.146404 0.0688472 0)
(-0.148345 0.101336 0)
(-0.13778 0.112051 0)
(-0.120657 0.093021 0)
(-0.109895 0.0603858 0)
(-0.102789 0.0155413 0)
(-0.106627 -0.0569776 0)
(-0.0605243 -0.13593 0)
(-0.0567236 0.0431933 0)
(-0.0164897 0.325979 0)
(0.0194421 0.314998 0)
(0.018399 -0.0479835 0)
(0.0690237 -0.130469 0)
(0.1025 -0.0462056 0)
(0.0998857 0.0152824 0)
(0.108035 0.0564117 0)
(0.119963 0.0881765 0)
(0.138267 0.103902 0)
(0.141396 0.0830261 0)
(0.124946 0.0519957 0)
(0.122562 0.0817135 0)
(-0.0712788 0.0103323 0)
(-0.0294519 -0.0275213 0)
(0.0406315 0.0381138 0)
(0.0255487 -0.00230728 0)
(0.0112591 0.047725 0)
(0.0317449 0.0524068 0)
(0.0920853 -0.120463 0)
(0.093579 -0.146386 0)
(0.0132296 0.0361871 0)
(-0.0630257 0.0789235 0)
(-0.101943 0.111318 0)
(-0.114079 0.117967 0)
(-0.0953349 0.0845815 0)
(-0.0808422 0.0487426 0)
(-0.0704871 -0.00653634 0)
(-0.066113 -0.0744674 0)
(-0.0548871 -0.11608 0)
(-0.0385758 -0.0680739 0)
(-0.0322113 0.226337 0)
(0.0425239 0.176851 0)
(0.0354075 -0.0792192 0)
(0.0502525 -0.107312 0)
(0.0616465 -0.0591701 0)
(0.0681851 -0.000519265 0)
(0.0798934 0.0479136 0)
(0.0961789 0.0833247 0)
(0.113715 0.110471 0)
(0.089796 0.104346 0)
(0.0514241 0.0616194 0)
(-0.0405861 -0.0603091 0)
(-0.0983357 -0.241569 0)
(-0.103353 -0.176217 0)
(-0.0394331 0.039548 0)
(-0.0127844 0.040763 0)
(0.0321252 -0.0096784 0)
(0.0926308 -0.0612447 0)
(0.117113 -0.338834 0)
(0.110074 -0.50584 0)
(0.0851761 -0.452001 0)
(-0.0213758 -0.0404548 0)
(-0.072271 0.0779142 0)
(-0.0878437 0.0880258 0)
(-0.0687484 0.0711267 0)
(-0.046637 0.0396571 0)
(-0.0291509 -0.0189923 0)
(-0.0205019 -0.0802263 0)
(-0.0164249 -0.125559 0)
(-0.039613 -0.183945 0)
(-0.0318422 -0.128408 0)
(0.0344198 -0.141613 0)
(0.0185855 -0.15898 0)
(0.00868752 -0.10716 0)
(0.019624 -0.0588946 0)
(0.0309671 -0.00693336 0)
(0.0481713 0.0398391 0)
(0.0731446 0.0731391 0)
(0.103351 0.0584982 0)
(0.0730279 0.00738104 0)
(0.0402485 -0.104587 0)
(-0.062403 -0.521665 0)
(-0.0945305 -0.551967 0)
(-0.114234 -0.388671 0)
(-0.100952 -0.122065 0)
(-0.032633 -0.0550039 0)
(0.0186674 -0.382608 0)
(0.0716423 -0.490531 0)
(0.0410942 -0.585884 0)
(-0.00718043 -0.624294 0)
(-0.0135681 -0.646234 0)
(-0.0156951 -0.546574 0)
(-0.0207396 -0.450385 0)
(-0.00282672 -0.66947 0)
(-0.0548809 -0.329683 0)
(0.00382334 0.00777997 0)
(0.0218271 -0.0249334 0)
(0.0365697 -0.0879773 0)
(0.0392316 -0.187191 0)
(-0.0103953 -0.643329 0)
(-0.0124565 -0.547642 0)
(0.00833161 -0.55671 0)
(-0.0063026 -0.643983 0)
(-0.0386855 -0.157895 0)
(-0.0231866 -0.0619324 0)
(-0.00688311 -0.0107927 0)
(0.00654271 -0.00417455 0)
(0.0528971 -0.460274 0)
(-0.00383673 -0.703322 0)
(0.00569085 -0.607967 0)
(0.0129227 -0.656106 0)
(0.0133886 -0.668928 0)
(0.0176567 -0.636687 0)
(-0.0181371 -0.604785 0)
(-0.0591177 -0.533234 0)
(-0.0187417 -0.418452 0)
(-0.00182291 -0.497516 0)
(-0.0253222 -0.593928 0)
(-0.0405554 -0.607665 0)
(-0.0334641 -0.625506 0)
(-0.0135943 -0.659483 0)
(0.00691704 -0.697581 0)
(0.0286785 -0.738307 0)
(0.0568018 -0.789665 0)
(0.0570157 -0.858507 0)
(0.0210158 -0.833167 0)
(0.0449678 -0.13452 0)
(0.0776036 -0.1971 0)
(-0.0209056 -0.829117 0)
(-0.0158641 -0.747717 0)
(-0.00526783 -0.691683 0)
(0.00159905 -0.694695 0)
(0.0116569 -0.755456 0)
(0.011963 -0.820815 0)
(-0.0627593 -0.159505 0)
(-0.0170585 -0.131459 0)
(-0.0310282 -0.841878 0)
(-0.065963 -0.864099 0)
(-0.0644145 -0.798052 0)
(-0.0363137 -0.750914 0)
(-0.0153308 -0.707327 0)
(0.0101591 -0.665029 0)
(0.0328213 -0.630069 0)
(0.0459406 -0.607802 0)
(0.034802 -0.597211 0)
(0.00502507 -0.498423 0)
(-0.0282232 -0.45888 0)
(-0.0596008 -0.555178 0)
(-0.0474177 -0.564824 0)
(-0.0205387 -0.590397 0)
(0.00704593 -0.627552 0)
(0.0320493 -0.668011 0)
(0.062399 -0.715692 0)
(0.0825527 -0.765638 0)
(0.121208 -0.828191 0)
(0.0923054 -0.930211 0)
(0.0248215 -0.954472 0)
(-0.0273179 -0.921968 0)
(-0.0204026 -0.865283 0)
(-0.0130545 -0.766948 0)
(-0.00420895 -0.719121 0)
(0.00210502 -0.72129 0)
(0.0116123 -0.773371 0)
(0.0164611 -0.872083 0)
(0.0206572 -0.920365 0)
(-0.0341216 -0.956777 0)
(-0.100606 -0.931518 0)
(-0.12437 -0.830696 0)
(-0.0862243 -0.776938 0)
(-0.0646369 -0.72424 0)
(-0.0347551 -0.675172 0)
(-0.0117832 -0.634521 0)
(0.0155991 -0.59468 0)
(0.0421155 -0.561894 0)
(0.057867 -0.540338 0)
(0.0278239 -0.438816 0)
(-0.00303486 -0.405357 0)
(-0.0313674 -0.502855 0)
(-0.0167557 -0.541002 0)
(0.000729809 -0.580312 0)
(0.0236975 -0.618818 0)
(0.0503385 -0.662035 0)
(0.081304 -0.703091 0)
(0.108151 -0.748364 0)
(0.136819 -0.812372 0)
(0.127669 -0.897874 0)
(0.074719 -0.942397 0)
(0.00522777 -0.920018 0)
(-0.00419865 -0.863372 0)
(-0.00361233 -0.771461 0)
(-0.00306591 -0.723577 0)
(0.00168537 -0.725844 0)
(0.00200852 -0.778667 0)
(5.93316e-05 -0.871521 0)
(-0.0148336 -0.924468 0)
(-0.0853851 -0.945238 0)
(-0.133946 -0.897243 0)
(-0.140052 -0.815505 0)
(-0.111463 -0.757594 0)
(-0.0869243 -0.710887 0)
(-0.056729 -0.66752 0)
(-0.0270956 -0.625015 0)
(-0.00352436 -0.584869 0)
(0.0162704 -0.544005 0)
(0.0262737 -0.500845 0)
(-0.00143396 -0.398063 0)
(-0.00790875 -0.376529 0)
(-0.0304643 -0.475639 0)
(-0.0141949 -0.513999 0)
(0.0144383 -0.554847 0)
(0.0448959 -0.595595 0)
(0.0716699 -0.641209 0)
(0.09812 -0.685718 0)
(0.127516 -0.742718 0)
(0.148179 -0.784764 0)
(0.155447 -0.864151 0)
(0.107725 -0.918443 0)
(0.0312507 -0.901296 0)
(0.0125676 -0.852725 0)
(0.00208545 -0.768544 0)
(-0.000290412 -0.72269 0)
(-0.000794676 -0.725058 0)
(-0.0047229 -0.774864 0)
(-0.0170103 -0.858662 0)
(-0.0384271 -0.905321 0)
(-0.114833 -0.919665 0)
(-0.159159 -0.866639 0)
(-0.153265 -0.794388 0)
(-0.131688 -0.74752 0)
(-0.101245 -0.69451 0)
(-0.0745257 -0.650088 0)
(-0.0496181 -0.601655 0)
(-0.019133 -0.558513 0)
(0.00922278 -0.513618 0)
(0.0321522 -0.468368 0)
(0.00976727 -0.364147 0)
(0.00208716 -0.330342 0)
(-0.0143467 -0.43498 0)
(0.00697853 -0.497564 0)
(0.0324356 -0.544347 0)
(0.0610691 -0.587141 0)
(0.0880001 -0.624808 0)
(0.12375 -0.672144 0)
(0.138554 -0.716088 0)
(0.166033 -0.75956 0)
(0.177602 -0.850944 0)
(0.131033 -0.903119 0)
(0.0548943 -0.886223 0)
(0.022299 -0.839023 0)
(0.00831301 -0.758113 0)
(0.00147736 -0.716489 0)
(-0.00361972 -0.718569 0)
(-0.0120898 -0.764168 0)
(-0.0277208 -0.844394 0)
(-0.0630622 -0.888544 0)
(-0.138669 -0.904147 0)
(-0.182558 -0.851884 0)
(-0.164743 -0.766054 0)
(-0.143624 -0.726687 0)
(-0.126645 -0.677947 0)
(-0.0924128 -0.631048 0)
(-0.0642874 -0.591695 0)
(-0.0353393 -0.547778 0)
(-0.00891002 -0.499197 0)
(0.0118826 -0.433239 0)
(-0.00353092 -0.322971 0)
(0.00154351 -0.301751 0)
(-0.0112538 -0.413087 0)
(0.0174764 -0.473822 0)
(0.0489751 -0.523958 0)
(0.0798564 -0.567578 0)
(0.10872 -0.608706 0)
(0.130249 -0.652527 0)
(0.156378 -0.694773 0)
(0.17814 -0.749576 0)
(0.179044 -0.808268 0)
(0.136827 -0.868029 0)
(0.0644862 -0.857385 0)
(0.0302498 -0.814906 0)
(0.0127755 -0.743408 0)
(0.00240641 -0.705549 0)
(-0.00511989 -0.70722 0)
(-0.0173249 -0.747963 0)
(-0.0347535 -0.817693 0)
(-0.071101 -0.860275 0)
(-0.142981 -0.86904 0)
(-0.183044 -0.813213 0)
(-0.182579 -0.756668 0)
(-0.157456 -0.70066 0)
(-0.133677 -0.661433 0)
(-0.110389 -0.614611 0)
(-0.0831224 -0.573222 0)
(-0.0521617 -0.526986 0)
(-0.0209384 -0.47366 0)
(0.00865516 -0.40796 0)
(-0.00272394 -0.291255 0)
(0.0087937 -0.266399 0)
(0.00265199 -0.384627 0)
(0.0310977 -0.458976 0)
(0.0631967 -0.5131 0)
(0.0945538 -0.553027 0)
(0.122017 -0.592516 0)
(0.148075 -0.628476 0)
(0.169505 -0.680703 0)
(0.177092 -0.718324 0)
(0.198103 -0.78547 0)
(0.161307 -0.840989 0)
(0.0865118 -0.83141 0)
(0.0408715 -0.791173 0)
(0.0175853 -0.724998 0)
(0.00414815 -0.689614 0)
(-0.00627872 -0.690744 0)
(-0.0214244 -0.728206 0)
(-0.0453754 -0.79261 0)
(-0.0946779 -0.83442 0)
(-0.167088 -0.841919 0)
(-0.199121 -0.786264 0)
(-0.179903 -0.727512 0)
(-0.172579 -0.68888 0)
(-0.149158 -0.63448 0)
(-0.125329 -0.59931 0)
(-0.0964736 -0.558029 0)
(-0.0655986 -0.516963 0)
(-0.033016 -0.459867 0)
(-0.00497923 -0.381111 0)
(-0.00969163 -0.256909 0)
(0.0135627 -0.233576 0)
(0.0111716 -0.360468 0)
(0.044105 -0.443275 0)
(0.0784334 -0.498093 0)
(0.11102 -0.538714 0)
(0.135741 -0.570127 0)
(0.161838 -0.611041 0)
(0.171974 -0.650766 0)
(0.192956 -0.696452 0)
(0.196004 -0.759665 0)
(0.164129 -0.81229 0)
(0.0955511 -0.805675 0)
(0.0448605 -0.763315 0)
(0.0199339 -0.701533 0)
(0.00525591 -0.669743 0)
(-0.00573252 -0.670457 0)
(-0.0220005 -0.70393 0)
(-0.0494229 -0.764849 0)
(-0.105814 -0.808946 0)
(-0.172317 -0.814508 0)
(-0.200227 -0.765849 0)
(-0.193694 -0.702405 0)
(-0.174065 -0.659122 0)
(-0.163574 -0.619163 0)
(-0.135886 -0.576393 0)
(-0.112882 -0.543273 0)
(-0.0800725 -0.501573 0)
(-0.0460328 -0.444653 0)
(-0.0127155 -0.357556 0)
(-0.0138694 -0.224309 0)
(0.0175492 -0.200406 0)
(0.0227208 -0.339765 0)
(0.0583287 -0.431549 0)
(0.093921 -0.486216 0)
(0.124522 -0.522073 0)
(0.151416 -0.551927 0)
(0.169142 -0.582774 0)
(0.18701 -0.626397 0)
(0.191292 -0.673614 0)
(0.196787 -0.729388 0)
(0.167469 -0.77618 0)
(0.102674 -0.771637 0)
(0.0497395 -0.733358 0)
(0.0220251 -0.677228 0)
(0.00677167 -0.646548 0)
(-0.00377741 -0.646758 0)
(-0.0202721 -0.678269 0)
(-0.0520165 -0.734089 0)
(-0.109278 -0.77313 0)
(-0.170492 -0.778156 0)
(-0.198339 -0.733415 0)
(-0.194687 -0.683109 0)
(-0.187233 -0.633338 0)
(-0.168255 -0.59018 0)
(-0.15246 -0.557741 0)
(-0.124839 -0.52685 0)
(-0.0946849 -0.48964 0)
(-0.059689 -0.43363 0)
(-0.0238993 -0.338242 0)
(-0.0176049 -0.192297 0)
(0.0255651 -0.166628 0)
(0.0372756 -0.321764 0)
(0.075799 -0.418862 0)
(0.110196 -0.473322 0)
(0.139902 -0.503482 0)
(0.162584 -0.527263 0)
(0.180286 -0.558033 0)
(0.188031 -0.597052 0)
(0.196501 -0.644856 0)
(0.19982 -0.701806 0)
(0.172947 -0.745248 0)
(0.109904 -0.739952 0)
(0.0530339 -0.702479 0)
(0.0233184 -0.650148 0)
(0.00817475 -0.621779 0)
(-0.0014541 -0.621625 0)
(-0.018138 -0.650395 0)
(-0.0547611 -0.703824 0)
(-0.118829 -0.741978 0)
(-0.177857 -0.748215 0)
(-0.201481 -0.707231 0)
(-0.1959 -0.652744 0)
(-0.18789 -0.608606 0)
(-0.179324 -0.565729 0)
(-0.160996 -0.533126 0)
(-0.139595 -0.50767 0)
(-0.109784 -0.47662 0)
(-0.0760339 -0.420182 0)
(-0.03882 -0.320259 0)
(-0.0261339 -0.158602 0)
(0.0348569 -0.145393 0)
(0.0572506 -0.309645 0)
(0.0947556 -0.40879 0)
(0.126342 -0.457609 0)
(0.152647 -0.484711 0)
(0.173343 -0.50257 0)
(0.186876 -0.527 0)
(0.193664 -0.570054 0)
(0.195832 -0.616225 0)
(0.197282 -0.669628 0)
(0.171479 -0.711385 0)
(0.112986 -0.706086 0)
(0.0554678 -0.671769 0)
(0.0242744 -0.622369 0)
(0.00955605 -0.594891 0)
(0.000485345 -0.59425 0)
(-0.0157422 -0.620813 0)
(-0.0533112 -0.670675 0)
(-0.116646 -0.706359 0)
(-0.17308 -0.713118 0)
(-0.197589 -0.675709 0)
(-0.196535 -0.625784 0)
(-0.191932 -0.578693 0)
(-0.183694 -0.536389 0)
(-0.171349 -0.508337 0)
(-0.151117 -0.488292 0)
(-0.124852 -0.460536 0)
(-0.0934036 -0.411418 0)
(-0.0571723 -0.31046 0)
(-0.0346995 -0.139229 0)
(0.0484292 -0.146355 0)
(0.0814751 -0.306074 0)
(0.115451 -0.396326 0)
(0.141574 -0.44176 0)
(0.163702 -0.461202 0)
(0.182818 -0.473632 0)
(0.191977 -0.497331 0)
(0.194582 -0.535779 0)
(0.19691 -0.586087 0)
(0.197506 -0.6395 0)
(0.174051 -0.675088 0)
(0.116477 -0.670033 0)
(0.0563574 -0.638794 0)
(0.0234989 -0.593659 0)
(0.00980272 -0.568341 0)
(0.00200983 -0.567415 0)
(-0.0127915 -0.590513 0)
(-0.0500404 -0.634657 0)
(-0.115645 -0.66925 0)
(-0.173427 -0.676723 0)
(-0.196115 -0.646405 0)
(-0.195872 -0.595798 0)
(-0.192114 -0.546901 0)
(-0.18773 -0.505367 0)
(-0.179145 -0.479216 0)
(-0.161629 -0.464576 0)
(-0.139247 -0.443917 0)
(-0.11283 -0.397654 0)
(-0.0805925 -0.30577 0)
(-0.0487732 -0.140573 0)
(0.0673289 -0.186975 0)
(0.0968873 -0.320894 0)
(0.129075 -0.390747 0)
(0.152213 -0.424247 0)
(0.172177 -0.436541 0)
(0.187786 -0.445459 0)
(0.193478 -0.462671 0)
(0.195323 -0.504192 0)
(0.196682 -0.556315 0)
(0.196243 -0.607336 0)
(0.174799 -0.639768 0)
(0.120219 -0.635845 0)
(0.0574371 -0.604367 0)
(0.0220613 -0.563887 0)
(0.00890648 -0.539417 0)
(0.00271925 -0.538423 0)
(-0.0101746 -0.558765 0)
(-0.0471914 -0.598648 0)
(-0.11417 -0.632971 0)
(-0.171555 -0.640308 0)
(-0.193665 -0.613483 0)
(-0.194352 -0.566629 0)
(-0.191308 -0.517155 0)
(-0.188511 -0.471538 0)
(-0.183435 -0.449228 0)
(-0.169045 -0.438908 0)
(-0.149421 -0.425123 0)
(-0.126338 -0.390383 0)
(-0.0953461 -0.318291 0)
(-0.0668153 -0.179763 0)
(0.067558 -0.253022 0)
(0.0979724 -0.342216 0)
(0.132069 -0.385901 0)
(0.155324 -0.405393 0)
(0.17325 -0.408815 0)
(0.188855 -0.412755 0)
(0.192504 -0.429813 0)
(0.194087 -0.471365 0)
(0.196653 -0.523687 0)
(0.197259 -0.572763 0)
(0.176068 -0.602231 0)
(0.120776 -0.598028 0)
(0.0559755 -0.567886 0)
(0.0195064 -0.535628 0)
(0.00739754 -0.510447 0)
(0.00326257 -0.509695 0)
(-0.00705958 -0.528709 0)
(-0.0434691 -0.563566 0)
(-0.110963 -0.593294 0)
(-0.170051 -0.602038 0)
(-0.192532 -0.579387 0)
(-0.193271 -0.534846 0)
(-0.189845 -0.484125 0)
(-0.186743 -0.438187 0)
(-0.183924 -0.417507 0)
(-0.170582 -0.4104 0)
(-0.152588 -0.405489 0)
(-0.129899 -0.383439 0)
(-0.0969423 -0.335782 0)
(-0.0679324 -0.239978 0)
(0.0513173 -0.308023 0)
(0.0880086 -0.365968 0)
(0.126705 -0.381504 0)
(0.150893 -0.3879 0)
(0.169778 -0.38168 0)
(0.185545 -0.383755 0)
(0.189942 -0.398529 0)
(0.194667 -0.438739 0)
(0.199211 -0.493946 0)
(0.198644 -0.540908 0)
(0.176095 -0.565293 0)
(0.118539 -0.558307 0)
(0.0540373 -0.530151 0)
(0.0188808 -0.503612 0)
(0.0076987 -0.478384 0)
(0.00298031 -0.47764 0)
(-0.00637133 -0.497913 0)
(-0.0409581 -0.525618 0)
(-0.106224 -0.552925 0)
(-0.168586 -0.563588 0)
(-0.192463 -0.546044 0)
(-0.194445 -0.504672 0)
(-0.189633 -0.453012 0)
(-0.184305 -0.40591 0)
(-0.181125 -0.387324 0)
(-0.16715 -0.382411 0)
(-0.148706 -0.386645 0)
(-0.124813 -0.378028 0)
(-0.0880816 -0.356959 0)
(-0.0525859 -0.291 0)
(0.0406311 -0.343818 0)
(0.0775056 -0.383134 0)
(0.114083 -0.37845 0)
(0.140669 -0.369457 0)
(0.159842 -0.355226 0)
(0.178614 -0.352835 0)
(0.187063 -0.368004 0)
(0.196249 -0.411195 0)
(0.203207 -0.463917 0)
(0.202121 -0.506561 0)
(0.179361 -0.526148 0)
(0.119479 -0.520162 0)
(0.0547519 -0.494328 0)
(0.0209085 -0.466101 0)
(0.00988208 -0.444508 0)
(0.00181625 -0.443568 0)
(-0.0082827 -0.464146 0)
(-0.0414242 -0.487753 0)
(-0.105182 -0.515161 0)
(-0.169499 -0.523938 0)
(-0.193906 -0.51149 0)
(-0.197173 -0.474937 0)
(-0.19122 -0.425175 0)
(-0.181701 -0.375902 0)
(-0.174882 -0.356465 0)
(-0.158073 -0.354695 0)
(-0.139076 -0.367699 0)
(-0.11337 -0.374075 0)
(-0.0773719 -0.374286 0)
(-0.0407314 -0.327486 0)
(0.0434778 -0.361803 0)
(0.0709806 -0.387342 0)
(0.0990287 -0.372149 0)
(0.126482 -0.351807 0)
(0.146982 -0.332777 0)
(0.170492 -0.326326 0)
(0.185864 -0.343173 0)
(0.201043 -0.388275 0)
(0.20953 -0.436676 0)
(0.207378 -0.473235 0)
(0.183432 -0.488537 0)
(0.121719 -0.479799 0)
(0.0570442 -0.453366 0)
(0.0227249 -0.424963 0)
(0.0107998 -0.409556 0)
(0.00119779 -0.408407 0)
(-0.00973154 -0.421666 0)
(-0.0421946 -0.448893 0)
(-0.105343 -0.473196 0)
(-0.172291 -0.485426 0)
(-0.198576 -0.476442 0)
(-0.203126 -0.445963 0)
(-0.196207 -0.401153 0)
(-0.181234 -0.351364 0)
(-0.168025 -0.329303 0)
(-0.145573 -0.330652 0)
(-0.125546 -0.349263 0)
(-0.0992275 -0.367635 0)
(-0.0719881 -0.378875 0)
(-0.0432772 -0.34631 0)
(0.0446951 -0.369185 0)
(0.0614135 -0.380086 0)
(0.0833998 -0.360564 0)
(0.111188 -0.334075 0)
(0.133331 -0.315104 0)
(0.16221 -0.306168 0)
(0.185859 -0.325972 0)
(0.206373 -0.368676 0)
(0.217261 -0.409237 0)
(0.214618 -0.439335 0)
(0.191476 -0.450226 0)
(0.128704 -0.440839 0)
(0.0618822 -0.414261 0)
(0.023881 -0.387053 0)
(0.00961439 -0.373021 0)
(0.00150098 -0.371096 0)
(-0.0100312 -0.383113 0)
(-0.0455223 -0.407529 0)
(-0.110499 -0.434132 0)
(-0.179407 -0.446474 0)
(-0.205812 -0.441492 0)
(-0.211303 -0.416998 0)
(-0.202444 -0.379122 0)
(-0.182673 -0.333971 0)
(-0.160884 -0.307478 0)
(-0.132308 -0.310934 0)
(-0.110658 -0.33085 0)
(-0.0834631 -0.356349 0)
(-0.0639938 -0.373236 0)
(-0.0455221 -0.354506 0)
(0.0425372 -0.371049 0)
(0.0486527 -0.365477 0)
(0.0720214 -0.3431 0)
(0.0974865 -0.315853 0)
(0.119915 -0.300772 0)
(0.152752 -0.293274 0)