/*--------------------------------*- C++ -*----------------------------------*\
| =========                 |                                                 |
| \\      /  F ield         | OpenFOAM: The Open Source CFD Toolbox           |
|  \\    /   O peration     | Version:  v1606+                                |
|   \\  /    A nd           | Web:      www.OpenFOAM.com                      |
|    \\/     M anipulation  |                                                 |
\*---------------------------------------------------------------------------*/
FoamFile
{
    version     2.0;
    format      ascii;
    class       volScalarField;
    location    "1.625";
    object      alpha.water;
}
// * * * * * * * * * * * * * * * * * * * * * * * * * * * * * * * * * * * * * //

dimensions      [0 0 0 0 0 0 0];

internalField   nonuniform List<scalar> 
3072
(
3.31199e-12
5.58805e-11
0.00174583
0.0612237
0.0839887
0.0802395
0.00117709
6.80417e-10
0.0111512
0.0825429
0.0825429
0.0825429
3.55266e-12
5.69188e-11
0.00567616
0.0280033
0.0160805
0.0036609
0.000397011
0.00495897
0.050486
0.0512874
4.60459e-05
0.00423168
4.86399e-11
0.000114724
0.00100594
3.14452e-10
3.51104e-10
3.83357e-10
0.000573575
0.0139636
0.0171751
0.000367511
3.8712e-10
4.19683e-10
8.02138e-06
0.000155981
0.000114413
2.55844e-10
3.02008e-10
8.30872e-06
0.00137971
0.00231948
4.55672e-10
4.2483e-10
4.03787e-10
7.5145e-08
7.50937e-06
0.000154875
2.85874e-10
2.56866e-10
3.00956e-10
8.03769e-05
0.000236002
3.88832e-10
3.3991e-07
8.96997e-07
4.03442e-10
9.6162e-09
1.47894e-06
3.49143e-05
2.43135e-10
2.89654e-10
2.2014e-06
1.392e-05
3.21931e-10
3.55596e-10
4.26151e-06
1.1817e-05
1.11974e-05
3.57692e-07
3.683e-07
0.000109863
2.43082e-10
2.43131e-10
2.43085e-10
2.44051e-10
2.86425e-10
3.03479e-10
8.89595e-07
1.01055e-05
1.24671e-05
8.54699e-06
3.08248e-09
5.69292e-08
0.0648249
0.22043
0.0527963
2.09178e-10
2.55448e-10
5.20035e-06
1.29443e-05
1.14846e-05
3.31161e-06
1.51876e-06
6.07768e-10
6.14451e-10
0.14908
0.342447
0.339397
2.09231e-10
2.09163e-10
2.09228e-10
2.09274e-10
2.09366e-10
1.67735e-07
4.01319e-08
3.23976e-07
5.7525e-10
0.101384
0.33857
0.240372
0.00160531
0.0042424
0.00560732
0.00787661
0.0161188
0.0166887
0.0102653
2.7826e-07
5.40336e-10
0.00656692
0.0553683
0.0122373
0.000700581
0.000689743
0.00330705
0.0104017
0.018302
0.00900818
0.00234748
4.93705e-10
4.93705e-10
5.1746e-10
5.33537e-10
5.29739e-10
3.01502e-06
6.1519e-10
1.45664e-08
0.0189102
0.0226201
0.0141657
5.04052e-05
0.0282741
2.98724e-10
4.91318e-06
1.37013e-05
4.47051e-06
4.47054e-06
0.00570232
0.0719035
0.123125
0.124588
0.147471
0.144354
0.00271947
8.155e-05
4.83727e-10
7.54594e-06
7.68169e-06
4.47054e-06
0.00125183
0.148239
0.28335
0.286794
0.286794
0.286794
4.6745e-10
1.98139e-05
4.6945e-10
5.19165e-10
0.000122462
0.000705951
0.000853335
0.000791566
0.0023169
0.123962
0.249094
0.286794
4.32216e-07
4.16723e-07
8.22327e-07
5.52142e-10
5.1539e-05
0.000974669
0.00144404
0.0015024
0.00416188
0.00804178
0.0021922
0.103414
2.63981e-08
5.52014e-10
4.10255e-05
0.000120274
0.000120439
2.26897e-05
4.07723e-10
0.000379623
0.00721121
0.0275795
0.00224525
0.0021922
5.09011e-10
5.24123e-10
7.4321e-05
0.000192144
0.000189066
1.26139e-05
3.87556e-10
3.88232e-10
3.87657e-10
0.0146272
0.137847
0.0752195
4.92941e-10
5.28321e-10
3.67198e-05
5.59985e-05
3.45876e-05
4.29867e-10
4.40507e-10
5.75998e-07
4.27025e-10
0.00231635
0.331349
0.551992
1.10812e-06
0.00030252
0.000801559
5.36462e-05
4.859e-10
4.60657e-10
4.96636e-05
6.12166e-10
5.85943e-10
0.0648389
0.667863
0.936896
9.35446e-06
0.00117109
0.00142736
0.000116719
6.36526e-10
0.00128763
0.000150038
5.83565e-10
5.52312e-10
0.104958
0.849724
1
8.0407e-05
0.00010174
9.69627e-05
0.00154215
0.00371108
0.00422588
0.000385797
5.58957e-10
5.23992e-10
0.0903001
0.678627
1
5.04052e-05
4.25423e-05
0.0151395
0.0962877
0.159975
0.085811
0.000818128
5.63004e-10
5.22806e-10
0.014183
0.301544
0.970875
4.25423e-05
0.0366218
0.407605
0.798755
0.878925
0.823125
0.451279
0.0440666
5.5285e-10
5.48437e-10
0.141607
0.889284
8.61088e-15
3.9307e-14
4.85227e-15
1.04278e-13
6.35759e-13
6.35761e-13
6.38705e-13
3.51121e-11
3.15014e-08
2.42124e-07
2.47931e-07
2.48651e-07
3.80559e-13
8.33695e-12
4.39516e-11
7.68417e-11
5.74065e-11
1.05733e-06
3.99095e-06
5.77898e-07
2.8521e-10
9.7557e-06
0.000122728
0.00014228
1.73729e-12
2.40703e-11
6.91032e-11
1.11652e-10
8.50147e-08
2.93491e-06
4.00772e-06
7.94001e-07
2.89117e-10
5.79749e-05
0.000142329
0.000142269
4.11002e-11
1.11423e-09
2.59655e-09
1.24809e-10
1.64893e-08
2.31368e-06
3.82284e-06
2.54033e-10
2.6816e-10
1.42089e-05
0.000106596
0.000114928
8.77982e-12
5.99526e-10
5.75086e-08
4.4711e-08
4.62057e-09
2.24334e-07
5.20045e-07
2.50336e-09
2.80552e-10
1.8599e-07
3.55661e-06
6.74295e-06
7.81653e-12
4.47911e-11
9.51919e-08
1.00853e-06
1.5701e-10
1.60136e-10
1.97675e-10
3.02626e-10
5.15717e-10
3.29085e-10
2.92832e-10
2.61669e-10
1.01954e-11
5.71618e-11
9.0215e-11
2.18073e-06
3.13806e-05
3.40722e-05
1.97217e-10
2.5752e-10
7.02196e-10
6.18007e-10
3.15598e-10
2.27915e-10
1.35125e-11
6.12884e-11
8.9907e-11
1.36531e-06
4.8976e-05
6.01844e-05
4.08365e-05
2.19151e-10
2.20136e-10
6.00193e-10
2.87653e-10
2.43779e-10
1.78176e-11
6.80281e-11
1.19823e-10
1.56189e-10
1.58102e-05
6.0989e-05
6.10472e-05
3.26438e-05
1.78317e-07
6.34929e-10
1.4725e-09
9.6262e-10
2.06833e-11
6.5731e-11
1.17948e-10
1.53374e-10
1.725e-10
5.12269e-06
2.40621e-05
2.08914e-05
4.71389e-06
6.57152e-10
6.37741e-10
6.06835e-10
1.85088e-11
4.81885e-11
8.48439e-11
1.1662e-10
1.36764e-10
5.11562e-11
3.19814e-11
3.35183e-08
2.08395e-06
2.04661e-06
1.27244e-06
7.93386e-07
8.52936e-14
8.52936e-14
8.52936e-14
2.72242e-11
5.03377e-11
2.46288e-11
8.53965e-14
2.03491e-11
2.99354e-11
1.36417e-07
1.99488e-06
2.112e-06
3.95781e-07
1.75915e-05
4.89008e-05
3.33774e-05
5.11222e-10
6.09609e-10
4.06428e-06
8.55852e-06
6.27202e-06
1.27944e-10
6.13306e-11
7.03287e-12
0.000142221
6.90845e-05
1.62042e-08
1.28142e-07
6.15078e-10
6.66671e-10
1.19857e-05
4.76097e-05
4.80281e-05
1.84648e-05
2.13453e-06
6.10937e-11
9.65515e-05
1.61722e-08
1.89944e-08
1.55757e-07
2.17333e-07
7.06204e-10
7.49806e-10
1.38362e-05
4.48833e-05
5.88133e-05
5.89548e-05
2.51954e-05
1.42034e-06
5.68765e-10
8.08391e-07
2.39822e-06
4.27488e-06
3.22604e-05
0.000143036
1.02184e-09
9.65833e-10
1.14474e-05
6.09996e-05
0.000115246
3.50275e-10
4.39857e-07
1.97683e-06
1.4338e-06
2.55851e-09
0.0002586
0.00349147
0.00719378
0.00701561
9.81353e-10
1.00861e-09
9.68131e-10
4.28068e-10
5.01701e-08
1.43873e-07
2.97434e-10
3.73839e-10
0.000361014
0.00325488
0.0179771
0.158595
0.325341
0.344785
0.0180535
3.22555e-10
7.74397e-10
2.81928e-10
3.09947e-10
0.000145695
0.000837115
0.000768265
6.8299e-12
0.165888
0.761978
0.80822
0.539197
1.9503e-10
2.16943e-10
2.49116e-10
2.50301e-05
7.80068e-05
6.64231e-12
6.69349e-12
6.64231e-12
0.00807609
0.715085
0.808186
0.808074
4.98333e-10
1.9568e-10
5.35914e-09
7.01803e-12
6.88331e-12
1.23487e-11
3.4149e-11
3.3233e-11
1.66191e-11
0.362782
0.808084
0.808081
5.82214e-10
5.38254e-10
6.96527e-10
3.13686e-10
1.61204e-10
4.59636e-11
6.63949e-11
0.00136912
4.32551e-11
0.0394908
0.736232
0.808072
9.77823e-09
1.67733e-10
1.66013e-10
1.33009e-10
1.13292e-10
7.94596e-11
0.189382
0.374508
0.15938
0.0180961
0.451399
0.808072
2.09131e-06
3.61308e-07
1.47046e-10
1.23969e-10
1.12773e-10
0.0478484
0.586204
0.715959
0.715957
0.127028
0.127815
0.794859
2.70324e-19
3.86456e-19
2.27032e-17
4.00729e-16
3.34794e-15
1.61392e-14
5.08859e-14
1.15645e-13
2.06589e-13
3.1316e-13
4.27512e-13
5.48113e-13
7.91069e-17
2.10804e-15
1.76691e-14
7.28662e-14
1.86905e-13
3.50103e-13
5.37205e-13
7.32704e-13
9.42296e-13
1.19613e-12
1.55214e-12
2.10306e-12
6.33978e-16
1.19823e-14
6.59186e-14
1.92829e-13
3.87152e-13
6.1733e-13
8.64693e-13
1.15094e-12
1.54843e-12
2.18761e-12
3.27353e-12
5.12134e-12
2.17896e-15
2.7525e-14
1.1771e-13
2.90443e-13
5.19569e-13
7.70298e-13
1.04334e-12
1.39917e-12
1.97232e-12
2.99425e-12
4.84113e-12
8.12339e-12
4.73317e-15
4.44714e-14
1.59545e-13
3.51201e-13
5.81652e-13
8.1684e-13
1.06232e-12
1.3807e-12
1.90711e-12
2.88045e-12
4.71119e-12
8.11423e-12
8.21986e-15
5.99778e-14
1.86649e-13
3.7559e-13
5.86065e-13
7.85718e-13
9.7184e-13
1.17836e-12
1.48283e-12
2.02331e-12
3.03966e-12
4.97152e-12
1.23787e-14
7.18978e-14
1.96779e-13
3.65845e-13
5.43994e-13
7.05644e-13
8.42586e-13
9.63328e-13
1.09309e-12
1.27533e-12
1.57512e-12
2.09144e-12
1.65521e-14
7.76926e-14
1.87274e-13
3.21321e-13
4.56512e-13
5.78739e-13
6.82133e-13
7.66003e-13
8.34376e-13
8.95171e-13
9.5758e-13
1.02952e-12
6.13296e-14
1.17799e-13
1.98922e-13
2.71653e-13
3.25892e-13
3.99749e-13
4.58607e-13
4.56269e-13
3.45718e-13
1.50795e-13
1.55892e-13
1.87238e-13
1.59572e-13
2.61351e-13
3.84099e-13
4.64178e-13
4.25419e-13
2.64231e-13
2.70894e-13
2.48291e-13
1.6748e-13
2.27373e-06
1.12073e-05
1.13842e-05
1.89048e-13
2.57112e-13
2.56745e-13
3.23508e-11
0.00011701
3.04894e-11
2.47682e-11
1.8734e-12
3.69918e-13
8.93241e-08
2.26798e-12
1.90303e-12
1.13389e-14
1.13389e-14
0.0464084
0.27049
0.401136
0.245175
0.0265311
2.15311e-11
2.4066e-13
2.7278e-13
2.07858e-11
0.00108442
6.8169e-13
8.49756e-13
1.10555e-12
1.57826e-12
2.49398e-12
3.81291e-12
5.34685e-12
6.60138e-12
6.6576e-12
4.66997e-12
1.52258e-12
6.47985e-14
2.9937e-12
4.45958e-12
6.90728e-12
1.10746e-11
1.75012e-11
2.62267e-11
3.64276e-11
4.55311e-11
4.84798e-11
3.8555e-11
1.46088e-11
7.02928e-13
8.22129e-12
1.33375e-11
2.16322e-11
3.47591e-11
5.41575e-11
8.04268e-11
1.12213e-10
1.44007e-10
1.63199e-10
1.47598e-10
7.36822e-11
3.02235e-12
1.38219e-11
2.34376e-11
3.90511e-11
6.3123e-11
9.85899e-11
1.47791e-10
2.10262e-10
2.79848e-10
3.38249e-10
3.44846e-10
2.26161e-10
1.25971e-11
1.43223e-11
2.53252e-11
4.39324e-11
7.33022e-11
1.17794e-10
1.83258e-10
2.69769e-10
3.77904e-10
4.89506e-10
5.57661e-10
4.63182e-10
5.00071e-11
8.66545e-12
1.57348e-11
2.90005e-11
5.27417e-11
9.44668e-11
1.94917e-10
2.54111e-10
3.77167e-10
5.27825e-10
6.68832e-10
6.85932e-10
1.57331e-10
3.00556e-12
4.76738e-12
8.7661e-12
2.05416e-11
9.63895e-11
1.36903e-09
2.82562e-10
3.13845e-10
4.47653e-10
6.03831e-10
7.91877e-10
3.67111e-10
1.11596e-12
1.23093e-12
1.55256e-12
4.6076e-12
3.40478e-11
2.91463e-08
9.73559e-07
1.56547e-07
3.75019e-10
3.94302e-10
6.7715e-10
6.37507e-10
1.74083e-13
4.49089e-13
5.58597e-13
2.72255e-11
5.54559e-11
8.38615e-11
5.02755e-06
3.51958e-05
2.65963e-05
1.9839e-05
7.06692e-10
8.3149e-10
6.25504e-06
3.37516e-09
5.81192e-13
4.54042e-07
2.82133e-05
4.92278e-05
9.15815e-06
4.26278e-05
0.000603368
0.00080403
0.000195533
8.62641e-10
2.51221e-11
3.34126e-07
8.64003e-13
0.000120446
0.000331604
0.00032426
7.85998e-05
6.07392e-07
0.000668884
0.00106841
0.00107016
0.000103244
0.00637989
5.65345e-11
2.37947e-11
9.69021e-06
2.7407e-05
2.22538e-05
3.22293e-05
4.73942e-06
6.074e-07
0.000515247
0.00106841
0.000705682
1
1
1
1
0.938055
0.754217
0.68515
0.68855
0.775822
0.853143
0.965063
1
0.999998
0.999999
1
0.795878
0.0682539
4.48608e-06
0.000111451
0.00146706
0.046676
0.158392
0.405337
0.71563
0.999999
0.999999
0.887702
0.163526
4.48608e-06
5.67493e-06
6.95246e-11
6.42354e-11
6.42354e-11
6.42354e-11
7.35345e-11
0.0105694
0.999999
0.999999
0.670948
2.75229e-05
3.49897e-05
0.000229908
9.7992e-05
6.42369e-11
1.17475e-09
5.20562e-09
5.34186e-09
1.35513e-10
0.999997
0.999999
0.703798
0.0127934
8.16336e-11
2.60405e-05
9.33136e-11
2.58213e-10
1.23986e-09
2.1784e-08
2.93211e-08
8.00706e-09
0.999996
0.999999
0.851711
0.076356
8.13337e-11
1.17295e-10
9.43289e-11
1.66779e-10
7.56306e-10
1.70262e-08
2.87787e-08
3.10022e-08
0.999999
0.999992
0.999393
0.586019
0.103384
9.80248e-11
8.21721e-11
8.22806e-11
4.51269e-10
1.76922e-09
2.69879e-09
2.78774e-10
1
0.999973
0.999982
0.997062
0.819305
0.521453
0.227769
0.00850792
1.49867e-10
1.49215e-10
3.19157e-10
2.48458e-10
1
0.999974
0.999982
1
1
0.998338
0.939397
0.794326
0.432753
0.0337025
2.87869e-10
2.82569e-10
1
0.999999
0.999998
0.999999
1
1
1
1
0.996626
0.863853
0.2729
3.08172e-10
1
1
1
1
1
1
1
1
1
1
0.970531
0.426549
0.467528
0.500481
0.583171
0.665893
0.739052
0.78396
0.877326
0.997762
1
1
1
0.981162
1
1
0.999991
0.999934
0.99973
0.999526
0.999526
0.99982
1
1
1
0.999999
0.912002
0.998098
0.999996
0.999996
0.999991
1
0.999616
0.999826
0.999824
1
1
1
0.323705
0.690538
0.950725
1
1
1
1
0.993029
0.989791
0.997717
1
0.997508
1.479e-10
0.0280387
0.530456
0.936798
1
1
0.999992
0.997765
0.997038
0.997798
0.907987
0.829363
1.72218e-10
1.86591e-10
0.00718611
0.483487
0.96065
1
1
1
1
0.961382
0.756628
0.754697
7.81249e-08
2.14613e-10
2.21856e-10
0.0232984
0.471896
0.847433
0.964226
1
1
0.968982
0.754697
0.754697
1.85836e-06
4.53815e-05
0.000241469
0.000261538
0.0466818
0.293528
0.444186
0.661529
1
0.999708
0.854016
0.782093
2.78549e-10
0.00230563
0.0175348
0.0833756
0.199601
0.221238
0.148057
0.147353
0.772459
0.999817
0.991833
0.975625
0.00152619
0.00687607
0.0337583
0.0937074
0.293436
0.318162
0.322159
0.152997
0.160723
0.918972
0.999406
0.999406
0.00767996
0.00932364
0.000764176
5.56879e-11
0.00438047
0.122528
0.239911
0.262763
0.116055
0.621018
0.998923
0.99734
0.00213867
0.00147763
0.000151334
5.56457e-11
2.88078e-11
2.78607e-11
0.00371858
0.170803
0.116304
0.388749
0.993673
0.998208
0.401654
2.68119e-10
2.43011e-10
2.13987e-09
6.17925e-09
6.68953e-09
3.45618e-09
2.21978e-10
0.0904125
0.0341576
0.816045
0.999185
0.602624
0.181364
0.000677539
5.00292e-10
5.0034e-10
4.99867e-10
5.25655e-10
6.17389e-10
4.95112e-05
0.000168341
0.000122757
0.111872
0.420173
0.448682
0.453605
0.322986
0.148911
0.0626287
0.0128726
0.00810237
0.00280243
0.00538447
0.000884358
0.0213562
0.000514231
0.0982704
0.501472
0.634159
0.637596
0.620192
0.467048
0.461517
0.425839
0.432257
0.503971
0.595671
1.53502e-10
0.00425833
0.0293463
0.151101
0.188456
0.180412
0.478159
0.837959
0.837768
0.837959
0.837885
0.837981
0.637769
0.857759
0.953279
0.997906
1
1
1
0.846404
0.132387
5.7676e-10
5.4356e-10
0.219538
0.644236
0.919493
0.930399
0.88277
0.881407
0.982489
1
1
0.922297
0.17419
5.65994e-10
0.294092
0.398538
0.126106
0.127886
0.122819
0.260542
0.929887
1
1
0.999999
0.884663
0.214878
0.168875
0.837932
0.843113
0.3236
0.122636
0.270954
0.890556
1
1
0.999936
0.999945
0.868562
0.413802
0.649025
0.766699
0.625996
0.203125
0.0767929
0.0628016
0.0527758
2.41776e-11
1.34278e-11
1.26466e-11
1.34525e-11
3.22421e-07
0.98341
1
1
0.945017
0.646484
0.541897
0.606514
0.747003
0.61585
0.249814
0.0236495
1.68815e-10
0.627172
1
1
1
0.942674
0.91448
0.947066
0.995017
1
0.860768
0.858156
0.847726
0.574536
0.980815
1
1
1
1
1
1
1
0.999539
0.892528
0.778808
3.64586e-07
1.07642e-07
1.44484e-10
1.54861e-10
1.2771e-10
0.196325
0.715959
0.716075
0.715959
0.579243
0.146928
0.434661
1.48193e-10
1.5073e-10
0.0460467
0.295074
0.206479
0.260521
0.586391
0.716337
0.718306
0.718511
0.282779
0.0196678
0.757442
0.629537
0.705637
0.716953
0.701761
0.161289
0.00733996
0.126721
0.393714
0.355893
0.116694
0.00213911
0.639429
0.624618
0.581582
0.428192
0.1432
0.017707
3.19587e-05
3.13204e-05
3.19586e-05
3.13204e-05
3.19587e-05
0.0692914
0.370105
0.435605
0.595587
0.842732
0.871814
0.873964
0.761264
0.203928
0.218169
0.544824
0.850399
0.874427
0.0323764
0.076092
0.558814
0.871814
0.873964
0.813429
0.820763
0.900831
0.929469
0.972081
0.997822
0.99828
0.00199273
0.00178615
0.00179957
0.215294
0.38347
0.234123
0.194935
0.650085
0.995192
0.99828
0.99828
0.99828
0.127982
0.124975
0.061143
0.00700317
2.69463e-10
0.0103479
0.01319
0.0368917
0.191114
0.700662
0.954382
0.948602
0.713966
0.274375
0.0070014
3.69891e-08
2.11368e-08
4.1996e-10
6.93417e-05
0.00131741
0.00157629
0.000311099
0.000126058
0.000284392
0.99828
0.99828
0.617957
0.0314689
4.42007e-10
4.19169e-10
4.19938e-10
0.000543623
0.0164861
0.0194477
0.00678963
0.000237813
0.988071
0.952382
0.901774
0.351464
4.51125e-10
6.97741e-06
4.31577e-10
3.22265e-10
4.36688e-10
0.0299209
0.0428178
0.0411547
0.82337
0.347105
0.0588828
0.0872859
0.0770663
0.00268292
3.41162e-10
4.25309e-10
2.03383e-05
1.42101e-05
0.0245552
0.0383182
8.57954e-11
8.49645e-11
8.49555e-11
8.49548e-11
8.53703e-11
0.00356458
0.0167223
0.0685913
0.247353
0.674223
1
1
0.000211199
0.00020513
1.12666e-05
8.51814e-11
0.00137896
0.00274062
0.00199977
0.000106903
3.35374e-10
2.67099e-10
0.157486
0.850749
0.00610031
3.39879e-06
2.73769e-06
3.31595e-06
1.6115e-10
1.54663e-10
0.00183908
0.0026557
0.00268245
0.000261904
1.50249e-10
0.171965
0.032333
0.00101537
1.02068e-10
1.33667e-07
1.31712e-08
1.51867e-10
1.35296e-10
1.31575e-10
1.32161e-10
1.29822e-10
1.30976e-10
0.0149962
0.965395
0.458862
0.03634
0.000195528
3.08965e-10
3.31634e-09
3.02818e-09
1.94093e-10
0.00954705
0.0166236
0.113645
0.761735
0.953355
0.949535
0.736459
0.0717143
2.77594e-10
2.62182e-10
2.23357e-10
1.96986e-10
1.99805e-10
2.11105e-10
0.00193809
0.199421
0.33648
0.521888
0.413234
0.106444
0.157897
0.253627
0.26761
0.125303
0.0091649
5.03322e-06
0.012252
0.00427957
0.184512
0.358259
0.45223
0.384025
0.5628
0.640751
0.641341
0.640751
0.639418
0.211231
1.7972e-10
1.564e-10
0.263601
0.614504
0.604755
0.587162
0.586577
0.592316
0.664596
0.655751
0.501108
0.463408
0.479153
0.546656
0.0320225
0.00385564
1.24442e-11
1.19764e-11
1.19533e-11
1.82786e-11
0.0174861
0.0480002
0.0216725
0.000268167
0.00464657
1.75371e-10
2.98185e-11
1.41418e-11
4.38521e-11
1.31106e-11
1.61496e-11
1.51979e-11
1.48085e-11
3.20274e-11
4.88265e-11
6.50833e-11
8.13337e-11
1.62448e-08
2.39845e-10
9.56056e-10
1.24125e-09
2.93508e-11
5.75662e-11
6.01822e-11
3.40149e-11
1.20123e-08
8.10802e-08
8.55865e-08
5.71106e-08
5.18854e-09
0.758747
0.925741
0.987954
1
1
1
1
1
0.998441
0.983273
0.97716
0.956352
1.78291e-10
0.264275
0.774269
0.877952
0.902456
0.925642
0.96564
0.994892
1
1
1
1
1.97833e-07
1.35494e-07
0.0233265
0.138202
0.205576
0.269708
0.386548
0.51592
0.603976
0.640956
0.525594
0.325234
2.42293e-06
1.27394e-05
4.63858e-11
4.52522e-11
4.51664e-11
4.51706e-11
4.51316e-11
5.30752e-11
0.0104387
0.0240073
0.00375523
2.98953e-10
0.991909
1
1
1
0.942786
0.847875
0.734449
0.562087
0.298897
0.0186236
2.30634e-12
2.30603e-12
0.919598
0.799799
0.571677
0.349272
0.210272
0.130173
0.0563693
0.00875512
9.19522e-11
4.07747e-11
1.97076e-06
1.34035e-06
0.179721
0.0902644
0.0152652
2.45735e-10
2.44906e-10
2.43115e-10
2.61142e-10
2.78704e-10
2.69602e-09
1.6519e-11
2.75305e-11
1.10938e-11
2.77145e-10
2.58551e-10
2.40496e-10
2.24288e-10
2.23865e-10
2.24604e-10
1.7094e-08
9.82436e-09
1.95112e-08
2.13328e-11
8.29498e-11
2.53683e-11
2.30564e-12
2.30565e-12
2.30564e-12
8.40924e-12
0.0311109
0.047681
0.0274195
3.19587e-05
0.0317536
0.0527326
0.0509884
0.0335446
2.30642e-12
1.69313e-11
2.03545e-11
0.00050706
0.0223161
0.0433453
0.00424766
3.741e-05
0.000898439
0.00338081
0.00410895
0.000208964
1.79185e-11
5.83746e-11
9.29614e-11
8.00426e-11
8.01962e-11
8.15358e-11
0.000874007
0.00402103
0.0017879
4.14652e-05
0.000118201
0.00020069
2.31657e-11
6.79018e-11
1.37566e-10
1.95193e-10
9.76986e-11
1.12248e-06
2.82375e-05
0.000136989
0.0002301
3.78156e-05
2.23094e-07
2.06639e-05
0.0120189
0.00171195
1.78347e-10
2.45355e-10
1.96621e-10
0.000766312
0.0252353
0.063417
0.0928607
0.128302
0.10757
0.0450639
0.00021765
0.000374567
0.000784606
0.000240122
2.78111e-10
0.000384968
0.00136858
0.00145666
9.58882e-11
7.35655e-11
5.2228e-11
3.29675e-11
0.000281333
0.000784606
0.000786534
0.000325582
2.14547e-10
3.27375e-05
1.28384e-05
1.15771e-10
9.90901e-11
6.04899e-09
1.8058e-08
1.23029e-11
1.93466e-05
6.29706e-05
8.73528e-05
6.61699e-05
1.75967e-05
1.73619e-06
1.53946e-06
2.294e-06
6.32252e-07
3.15865e-07
5.69633e-08
8.68728e-12
1.69692e-11
7.9156e-12
7.9156e-12
7.9156e-12
7.92027e-12
1.00207e-06
7.64374e-07
3.49314e-10
0.00228144
0.00418975
0.00368111
0.000355771
6.20221e-10
6.57348e-10
2.49294e-10
2.67102e-11
1.01819e-06
8.55457e-06
8.54723e-06
7.93395e-06
3.46682e-08
0.000108827
0.00201246
0.179542
2.92281e-10
1.43954e-10
3.11914e-11
3.64478e-11
3.64655e-11
3.64836e-11
3.65041e-11
3.89759e-11
3.32179e-08
3.46701e-08
0.256976
0.882372
8.73604e-12
1.69192e-11
2.69749e-11
3.57576e-11
4.35886e-11
5.04118e-11
5.57151e-11
6.14465e-11
7.71371e-11
0.0122274
0.553717
1
7.17647e-11
6.71687e-11
8.52335e-11
1.0858e-10
0.000124281
0.00564754
0.0859214
0.170429
0.176884
0.268504
0.611646
1
0.358587
0.369334
0.359372
0.347586
0.434266
0.671997
0.816319
0.883832
0.909294
0.944017
1
1
0.996994
0.975666
0.973636
0.973549
0.986074
1
1
1
1
1
1
1
1
1
1
1
1
1
1
1
1
1
1
1
1
1
0.980221
0.424859
0.100022
0.100648
0.310856
0.566273
0.54866
0.440926
0.128106
0.054403
1
1
1
0.960815
0.522233
0.0957246
0.0578865
0.0902547
0.147594
0.255594
0.248466
0.167942
1
1
1
1
1
0.872386
0.238652
8.98194e-05
1.06434e-10
0.00304818
0.0263201
0.0164963
1
1
1
1
1
1
0.919346
0.376316
0.0371319
1.33281e-11
2.74563e-11
4.61426e-11
1.08701e-11
9.1935e-12
2.14461e-10
4.46011e-11
9.42591e-11
2.28288e-10
5.31008e-10
1.77408e-09
4.65545e-09
4.35197e-09
4.7908e-09
5.12087e-09
1.11754e-05
8.14474e-06
1.63248e-11
1.64146e-11
2.1595e-11
2.29649e-11
2.29482e-11
2.30643e-11
1.71964e-11
2.60153e-12
4.70928e-13
1.46966e-13
2.30708e-05
2.30562e-05
4.44161e-08
5.892e-12
1.38484e-11
1.28442e-11
1.10629e-11
7.93498e-12
4.76867e-12
2.29622e-12
8.5058e-13
1.78328e-13
5.4274e-06
2.30708e-05
1.15307e-06
5.88501e-12
9.6788e-12
9.9913e-12
9.09547e-12
7.1273e-12
5.16788e-12
2.72483e-12
1.01265e-12
2.23847e-13
5.42505e-06
7.85544e-06
8.8531e-07
2.06979e-11
5.811e-12
5.811e-12
5.46016e-11
1.28486e-11
7.68041e-12
3.69287e-12
1.25744e-12
2.40686e-13
0.000471044
4.5728e-11
4.22496e-08
2.11814e-11
1.86642e-06
1.04782e-06
2.93989e-08
2.63656e-11
1.28649e-11
4.8438e-12
1.38877e-12
2.22793e-13
0.0100195
3.22394e-11
3.49747e-11
1.90414e-06
6.06325e-06
4.51001e-06
1.57254e-07
2.5425e-11
1.24362e-11
4.66537e-12
1.23698e-12
1.70415e-13
0.122854
1.91208e-11
1.68572e-07
6.06325e-06
6.06323e-06
2.81279e-06
3.48998e-08
2.37711e-11
1.12513e-11
3.83792e-12
8.95428e-13
1.02408e-13
0.253749
4.27472e-12
5.22126e-07
3.69439e-06
2.30038e-06
2.54552e-07
3.11216e-11
1.93186e-11
8.16453e-12
2.40518e-12
4.75149e-13
4.3788e-14
0.376739
4.27461e-12
1.17039e-07
7.20344e-08
3.07056e-11
2.21141e-11
1.38993e-11
7.05599e-12
2.86766e-12
8.51311e-13
1.53836e-13
1.08976e-14
0.452401
4.2746e-12
1.77949e-11
1.68876e-11
1.3248e-11
9.42134e-12
5.53977e-12
2.43619e-12
7.64963e-13
1.5909e-13
1.83918e-14
7.41438e-16
0.576139
4.2746e-12
4.61586e-12
5.30779e-12
5.10906e-12
2.2333e-12
5.94202e-13
1.03475e-13
1.19309e-14
8.59951e-16
3.25145e-17
4.28571e-19
5.66191e-11
3.50554e-05
0.000387625
0.000393642
0.000285509
1.22804e-05
4.5169e-11
6.08139e-11
7.56985e-11
9.15868e-11
9.2117e-11
5.49644e-05
4.08713e-11
6.01462e-11
3.65533e-05
0.000335028
0.00044208
0.000384646
4.54302e-11
9.33141e-11
9.1052e-11
8.83236e-07
2.62604e-05
4.42657e-05
4.07466e-11
5.99938e-11
1.22271e-06
2.56036e-05
7.69452e-05
9.47176e-05
6.06975e-05
9.02066e-11
9.55202e-11
1.12176e-06
3.41241e-06
5.36342e-07
1.726e-10
4.41294e-09
2.55374e-08
6.80581e-11
5.62717e-11
6.74896e-11
9.19997e-07
2.66987e-06
5.55146e-07
5.32827e-10
6.95896e-11
7.57464e-11
1.16393e-11
4.05631e-10
7.19309e-10
5.33968e-11
4.05188e-11
5.01148e-11
4.79701e-11
2.81839e-08
1.26093e-07
2.63557e-11
5.34736e-11
9.77492e-11
6.73216e-13
3.5666e-11
3.32188e-10
2.06277e-10
2.60004e-11
2.97456e-11
3.34511e-11
2.6579e-11
2.82879e-11
2.58745e-11
3.01677e-11
3.82836e-11
3.67786e-14
2.81189e-12
3.87158e-11
6.24163e-11
1.38995e-11
1.18845e-11
1.43327e-11
1.31926e-11
1.26742e-11
1.28891e-11
1.34798e-11
1.36368e-11
1.73232e-15
1.85831e-13
2.65717e-12
8.28039e-12
2.91267e-12
2.85117e-12
3.80403e-12
4.00623e-12
4.17675e-12
4.46455e-12
4.61386e-12
4.40133e-12
5.76754e-17
9.03893e-15
1.17828e-13
5.73386e-13
3.08557e-13
3.91138e-13
5.97739e-13
7.25268e-13
8.47325e-13
9.65238e-13
1.01434e-12
9.53389e-13
1.1445e-18
2.75238e-16
3.16894e-15
2.02774e-14
1.69704e-14
2.84099e-14
5.06452e-14
7.12814e-14
9.34806e-14
1.12659e-13
1.19094e-13
1.0809e-13
1.06267e-20
4.10805e-18
4.19477e-17
3.10854e-16
4.09564e-16
8.94794e-16
1.88238e-15
3.09588e-15
4.4883e-15
5.57161e-15
5.72167e-15
4.77338e-15
2.65867e-23
1.75168e-20
1.59699e-19
1.26216e-18
2.5399e-18
7.05516e-18
1.74538e-17
3.34856e-17
5.20402e-17
6.35222e-17
5.96528e-17
4.18616e-17
5.63566e-05
3.94132e-05
3.37688e-05
6.72246e-05
6.60412e-05
1.29269e-05
1.77748e-08
1.93919e-06
7.36293e-07
2.78813e-11
1.21767e-10
3.98339e-11
4.37784e-05
2.36249e-05
1.98275e-05
5.17895e-05
5.50724e-05
1.98162e-05
4.14234e-06
4.42166e-06
1.23141e-06
1.48289e-08
1.31298e-10
4.14425e-11
1.03027e-06
4.10183e-08
8.65996e-08
8.01023e-07
1.92627e-06
4.92313e-07
3.50911e-10
5.8033e-07
1.97329e-07
2.96942e-08
6.58187e-11
4.76342e-11
8.92252e-11
1.82101e-10
1.41754e-10
1.27857e-10
1.2021e-10
1.05994e-10
3.47714e-10
4.67003e-12
4.65483e-12
4.65619e-12
1.2763e-10
4.2058e-11
1.4801e-10
1.70038e-10
1.4527e-10
1.13977e-10
1.10075e-10
9.10228e-11
3.19561e-11
2.35534e-11
1.77266e-11
6.35185e-12
1.18907e-12
1.24147e-13
4.63747e-11
4.43585e-11
3.46221e-11
2.50907e-11
1.82495e-11
6.85839e-12
2.15678e-12
8.69634e-13
5.33119e-13
2.82338e-13
9.24017e-14
1.42825e-14
1.28586e-11
1.0594e-11
7.46866e-12
4.69475e-12
2.50382e-12
9.5147e-13
3.33851e-13
1.04977e-13
2.75911e-14
5.52105e-15
7.26015e-16
4.5003e-17
3.79559e-12
2.94164e-12
2.00912e-12
1.20343e-12
6.10856e-13
2.64306e-13
1.00121e-13
3.20066e-14
8.15907e-15
1.51452e-15
1.72457e-16
7.75331e-18
7.89638e-13
5.82982e-13
3.77785e-13
2.11754e-13
9.87341e-14
3.95502e-14
1.40377e-14
4.26274e-15
1.03811e-15
1.83085e-16
1.93925e-17
7.70063e-19
8.33368e-14
5.60873e-14
3.24978e-14
1.58338e-14
6.08104e-15
1.97889e-15
5.82098e-16
1.50317e-16
3.15698e-17
4.78582e-18
4.23965e-19
1.31402e-20
3.22787e-15
1.87055e-15
9.08238e-16
3.535e-16
9.67114e-17
2.08353e-17
4.01593e-18
6.9414e-19
9.99245e-20
1.04375e-20
6.17924e-22
1.15738e-23
2.2691e-17
1.07442e-17
4.11931e-18
1.1744e-18
1.66332e-19
1.36948e-20
8.55505e-22
4.31077e-23
1.77962e-24
5.66239e-26
1.0681e-27
6.1822e-30
3.80141e-12
2.07739e-11
7.28794e-11
1.92171e-10
4.11941e-10
9.97972e-11
8.61306e-11
9.60948e-11
5.21305e-06
1.39923e-05
1.62263e-07
1.28382e-10
1.07013e-13
1.1958e-12
6.64622e-12
2.53553e-11
6.86185e-11
1.13347e-10
8.58016e-11
7.87524e-11
9.35316e-11
7.84365e-11
1.36033e-07
7.78551e-10
4.49655e-15
3.14563e-14
2.73729e-13
1.54632e-12
6.3396e-12
1.95424e-11
4.56213e-11
7.842e-11
8.94103e-11
5.77332e-11
1.34998e-10
3.597e-10
1.92771e-16
1.13256e-15
7.64018e-15
5.8415e-14
3.30307e-13
1.40165e-12
4.488e-12
1.06983e-11
1.84288e-11
1.59578e-11
8.69432e-12
2.28236e-11
8.76849e-18
5.0583e-17
2.51914e-16
2.03215e-15
1.37714e-14
7.48563e-14
3.17647e-13
1.05464e-12
2.23764e-12
2.2673e-12
1.03547e-12
1.08696e-12
3.98979e-19
2.49031e-18
1.07979e-17
8.2464e-17
6.26212e-16
3.82546e-15
1.95194e-14
8.21923e-14
1.9591e-13
2.12884e-13
9.55907e-14
6.35661e-14
1.58427e-20
1.17497e-19
4.44893e-19
3.18245e-18
2.99808e-17
2.20638e-16
1.27989e-15
5.53529e-15
1.37251e-14
1.53495e-14
8.09586e-15
5.32115e-15
4.90379e-22
4.74148e-21
1.62411e-20
1.19401e-19
1.38996e-18
1.45016e-17
8.96621e-17
3.55793e-16
8.29326e-16
9.74817e-16
7.01815e-16
5.32441e-16
1.07726e-23
1.50633e-22
4.823e-22
3.83662e-21
6.16201e-20
8.02501e-19
5.27376e-18
1.98743e-17
4.38317e-17
5.5856e-17
5.03875e-17
4.2592e-17
1.50221e-25
3.3299e-24
1.00354e-23
8.74471e-23
1.7587e-21
2.71255e-20
1.97512e-19
7.60543e-19
1.66926e-18
2.25388e-18
2.22846e-18
1.98983e-18
1.09119e-27
3.97441e-26
1.09613e-25
9.80867e-25
2.28317e-23
4.18469e-22
3.4487e-21
1.41582e-20
3.18055e-20
4.37852e-20
4.39888e-20
4.03556e-20
2.50631e-30
1.44929e-28
3.49888e-28
2.95559e-27
7.21259e-26
1.56561e-24
1.47562e-23
6.62091e-23
1.53533e-22
2.09804e-22
2.04868e-22
1.91343e-22
1.20441e-10
1.28807e-10
1.37716e-10
4.73094e-08
5.05176e-06
3.59064e-06
7.04932e-08
1.3066e-07
8.07258e-08
2.48875e-08
1.06714e-11
3.45734e-10
1.12153e-10
5.33339e-10
1.38554e-09
1.50445e-09
1.57346e-10
1.67993e-07
7.1326e-08
8.92055e-08
2.0112e-09
1.09473e-11
1.03086e-11
2.3505e-12
6.49635e-11
1.33551e-10
4.54842e-10
7.41457e-10
1.3853e-10
1.53256e-10
7.48329e-09
3.51843e-08
3.12247e-09
1.70683e-10
1.55759e-11
5.07604e-13
8.41836e-12
1.65921e-11
7.4547e-11
1.92552e-10
8.28277e-11
1.66179e-10
2.0171e-10
1.27688e-10
2.67684e-10
5.33307e-11
6.0012e-12
4.39737e-13
7.33516e-13
1.32145e-12
7.43061e-12
3.01995e-11
2.74673e-11
6.51227e-11
1.41081e-10
1.07355e-10
4.8422e-11
1.2501e-11
2.05637e-12
1.89598e-13
5.28949e-14
7.7199e-14
4.65065e-13
3.02585e-12
5.49604e-12
1.56429e-11
3.17236e-11
1.823e-11
6.7428e-12
1.83915e-12
3.2891e-13
2.99888e-14
4.13722e-15
4.70642e-15
2.29556e-14
1.9963e-13
6.57792e-13
2.25137e-12
4.05732e-12
1.31072e-12
4.48168e-13
1.24253e-13
2.29258e-14
2.01661e-15
4.02791e-16
3.53585e-16
9.16948e-16
8.78431e-15
4.67665e-14
1.90516e-13
2.9562e-13
6.5407e-14
1.65475e-14
4.06942e-15
7.16568e-16
5.77196e-17
3.33624e-17
2.65031e-17
3.27791e-17
2.48818e-16
1.91591e-15
9.12433e-15
1.16156e-14
2.00986e-15
3.59592e-16
6.67837e-17
9.95783e-18
6.86865e-19
1.59549e-18
1.25097e-18
1.02084e-18
4.18988e-18
4.14785e-17
2.26827e-16
2.22632e-16
2.91359e-17
3.63732e-18
4.58578e-19
5.02023e-20
2.65544e-21
3.19863e-20
2.50457e-20
1.786e-20
3.55756e-20
3.8808e-19
2.40482e-18
1.68759e-18
1.44047e-19
1.10512e-20
8.15011e-22
5.40545e-23
1.81323e-24
1.4196e-22
1.12565e-22
7.98565e-23
9.20521e-23
9.0954e-22
6.34963e-21
2.85308e-21
9.37213e-23
2.58342e-24
6.97949e-26
1.94023e-27
2.78386e-29
4.84225e-12
1.07187e-11
1.88493e-11
2.83035e-11
3.82242e-11
4.83372e-11
5.89927e-11
7.12757e-11
8.66647e-11
0.0117663
0.58698
1
1.68602e-12
5.22971e-12
1.11306e-11
1.92725e-11
2.88931e-11
3.94503e-11
5.09105e-11
6.36099e-11
7.71857e-11
0.00900851
0.567927
1
4.65937e-13
2.05725e-12
5.45409e-12
1.10578e-11
1.85129e-11
2.72522e-11
3.70938e-11
4.85157e-11
6.21669e-11
0.00521888
0.528199
1
9.37286e-14
6.15119e-13
2.1285e-12
5.23418e-12
1.00657e-11
1.6339e-11
2.39441e-11
3.36411e-11
4.76443e-11
0.00110864
0.455664
1
1.23426e-14
1.29017e-13
6.25337e-13
1.98732e-12
4.66305e-12
8.83261e-12
1.46611e-11
2.2909e-11
3.52477e-11
5.48043e-11
0.366571
1
9.35717e-16
1.67881e-14
1.24428e-13
5.57374e-13
1.74073e-12
4.18412e-12
8.47401e-12
1.558e-11
2.69081e-11
4.4237e-11
0.281153
0.985297
3.41214e-17
1.15808e-15
1.46266e-14
1.03137e-13
4.80692e-13
1.64414e-12
4.49744e-12
1.04458e-11