/*--------------------------------*- C++ -*----------------------------------*\
| =========                 |                                                 |
| \\      /  F ield         | OpenFOAM: The Open Source CFD Toolbox           |
|  \\    /   O peration     | Version:  v1606+                                |
|   \\  /    A nd           | Web:      www.OpenFOAM.com                      |
|    \\/     M anipulation  |                                                 |
\*---------------------------------------------------------------------------*/
FoamFile
{
    version     2.0;
    format      ascii;
    class       volScalarField;
    location    "2.2";
    object      rAU;
}
// * * * * * * * * * * * * * * * * * * * * * * * * * * * * * * * * * * * * * //

dimensions      [-1 3 1 0 0 0 0];

internalField   nonuniform List<scalar> 
11640
(
1.05056974958e-05
1.04972727683e-05
1.04947352136e-05
1.04933109457e-05
1.04931596478e-05
1.0493960336e-05
1.04965117033e-05
1.04991983849e-05
1.05035092184e-05
1.0501928761e-05
1.04794784947e-05
1.04691330745e-05
1.04816639765e-05
1.0487987774e-05
1.0490874176e-05
1.04925722355e-05
1.04935199486e-05
1.04945734505e-05
1.04970048217e-05
1.05057930456e-05
1.04971125708e-05
1.04593268732e-05
1.04457661001e-05
1.04405221125e-05
1.0439602872e-05
1.04402880891e-05
1.0442518781e-05
1.04433339722e-05
1.04435815583e-05
1.04407950605e-05
1.04311583657e-05
1.0426391566e-05
1.04303258421e-05
1.04340966049e-05
1.04362883745e-05
1.04380068954e-05
1.04408464576e-05
1.04469044774e-05
1.04601997217e-05
1.04974261677e-05
1.049461018e-05
1.04457957419e-05
1.04298578299e-05
1.04256579954e-05
1.04264656815e-05
1.04276363273e-05
1.04284692503e-05
1.04266536989e-05
1.04223972831e-05
1.04192787e-05
1.0416206633e-05
1.04164456052e-05
1.04172222344e-05
1.04173076713e-05
1.04170709301e-05
1.04174515971e-05
1.04203522434e-05
1.04281442048e-05
1.04459915131e-05
1.04943292466e-05
1.04927967612e-05
1.04402745792e-05
1.04266679708e-05
1.04240775005e-05
1.0425542809e-05
1.04256541203e-05
1.04261889018e-05
1.04212786524e-05
1.04135881383e-05
1.04129882389e-05
1.04133635399e-05
1.04169315194e-05
1.04177978456e-05
1.04144099862e-05
1.04106251443e-05
1.04089543303e-05
1.04106304424e-05
1.04195468287e-05
1.04393916809e-05
1.04905173693e-05
1.04935842133e-05
1.04409853283e-05
1.04298426304e-05
1.04290249522e-05
1.04303024285e-05
1.0426891288e-05
1.04289567552e-05
1.042360963e-05
1.04136038564e-05
1.04162392178e-05
1.04175494223e-05
1.04210795758e-05
1.04224165182e-05
1.04141436366e-05
1.04076754994e-05
1.04057529264e-05
1.04066340619e-05
1.04154791294e-05
1.04374959077e-05
1.04923727561e-05
1.04963453793e-05
1.04454193515e-05
1.04356964984e-05
1.04353415325e-05
1.04353640752e-05
1.04321360409e-05
1.04294170768e-05
1.04113174755e-05
1.04097145623e-05
1.04303517212e-05
1.04320121982e-05
1.04217193991e-05
1.04269060454e-05
1.04221284237e-05
1.04144751757e-05
1.04088355166e-05
1.04057468167e-05
1.04130803094e-05
1.04367650077e-05
1.04958498466e-05
1.04994625701e-05
1.04500828144e-05
1.04406691995e-05
1.04391904591e-05
1.04374156689e-05
1.04362063227e-05
1.04277941725e-05
1.04242087463e-05
1.0442576598e-05
1.04580836274e-05
1.04536764651e-05
1.04361234408e-05
1.04258531745e-05
1.03854202021e-05
1.03444600467e-05
1.03423847581e-05
1.03968306734e-05
1.04095171117e-05
1.04351877564e-05
1.04944669459e-05
1.05034952978e-05
1.04542650985e-05
1.04443700681e-05
1.04405628166e-05
1.04365811966e-05
1.04350723321e-05
1.04298640898e-05
1.04261867667e-05
1.04580162762e-05
1.04746534401e-05
1.04694105764e-05
1.04533173021e-05
1.04352464672e-05
1.04267055525e-05
1.03576323466e-05
1.03473491474e-05
1.039946463e-05
1.04074496168e-05
1.04345488258e-05
1.04934763246e-05
1.05103942069e-05
1.04584529141e-05
1.04463901776e-05
1.04382248624e-05
1.04346650945e-05
1.0436426149e-05
1.04246851482e-05
1.04343842448e-05
1.04796505975e-05
1.04897945222e-05
1.04764475256e-05
1.04584801754e-05
1.04378600964e-05
1.0421859947e-05
1.0365567092e-05
1.03502647689e-05
1.03556289389e-05
1.03813144221e-05
1.04324947399e-05
1.0492805165e-05
1.0500373778e-05
1.04505756526e-05
1.04386133404e-05
1.04232002532e-05
1.04219979745e-05
1.04275775489e-05
1.04285567954e-05
1.04528389394e-05
1.04837525054e-05
1.04818708924e-05
1.04691919187e-05
1.04618095252e-05
1.04408762186e-05
1.04029774293e-05
1.03683588498e-05
1.03512215074e-05
1.03565961548e-05
1.03818182036e-05
1.04215801404e-05
1.04906607473e-05
1.04736038105e-05
1.04353523802e-05
1.04199487599e-05
1.04072930163e-05
1.04073715413e-05
1.04127331138e-05
1.04226271249e-05
1.04454950449e-05
1.04607998989e-05
1.04485781051e-05
1.04291839598e-05
1.04268089662e-05
1.04268893838e-05
1.03930071593e-05
1.03654527987e-05
1.03492536925e-05
1.03559666535e-05
1.03817870227e-05
1.0421683143e-05
1.04890177243e-05
1.04698358237e-05
1.04318105792e-05
1.0420174883e-05
1.04068446379e-05
1.04059745547e-05
1.04101753756e-05
1.04285533034e-05
1.04201459973e-05
1.04171995166e-05
1.04137068842e-05
1.04170681821e-05
1.03995990851e-05
1.03915153794e-05
1.03743332309e-05
1.03555158075e-05
1.03459787788e-05
1.03558107794e-05
1.0382533409e-05
1.04223320839e-05
1.04895921444e-05
1.04824189354e-05
1.04358123668e-05
1.04259607504e-05
1.0413201678e-05
1.04039744795e-05
1.04068042477e-05
1.04231447059e-05
1.03955510542e-05
1.03993673409e-05
1.03983141984e-05
1.03936610454e-05
1.03858849729e-05
1.03723438377e-05
1.03619535148e-05
1.03483684002e-05
1.03456238795e-05
1.03587762877e-05
1.03858471381e-05
1.04344140376e-05
1.04912596331e-05
1.0487311127e-05
1.04345125731e-05
1.04221429925e-05
1.04188935659e-05
1.04112418947e-05
1.04053814677e-05
1.04049426367e-05
1.03972934716e-05
1.0399333369e-05
1.03971618456e-05
1.03939001005e-05
1.03874424573e-05
1.0375987291e-05
1.03604129545e-05
1.03507074374e-05
1.03524622766e-05
1.03670938687e-05
1.03921228732e-05
1.04354113231e-05
1.04946729923e-05
1.04898379681e-05
1.04344611255e-05
1.04155228321e-05
1.04119317628e-05
1.04121134306e-05
1.04102449829e-05
1.04077152357e-05
1.04070200285e-05
1.04042853361e-05
1.03992872333e-05
1.03906245515e-05
1.0382112185e-05
1.03734018618e-05
1.03642676981e-05
1.03603328521e-05
1.03652313367e-05
1.04019281858e-05
1.04116906279e-05
1.0434049972e-05
1.04881943323e-05
1.04915844031e-05
1.04357084918e-05
1.04147391346e-05
1.04062940494e-05
1.04052403037e-05
1.04047303862e-05
1.04023443612e-05
1.03988203571e-05
1.03953052323e-05
1.03909245006e-05
1.03867685038e-05
1.03826726769e-05
1.0378510112e-05
1.03748627149e-05
1.03749203242e-05
1.03810536667e-05
1.04038896598e-05
1.04149653467e-05
1.04357246911e-05
1.04824516299e-05
1.0492922708e-05
1.04392879644e-05
1.04180138828e-05
1.04082709894e-05
1.04042956514e-05
1.04024800075e-05
1.04007180229e-05
1.03987435671e-05
1.0397300197e-05
1.03961176809e-05
1.03919120264e-05
1.03908520562e-05
1.03896178724e-05
1.03890963091e-05
1.03910294174e-05
1.03965257779e-05
1.04080530512e-05
1.04190127426e-05
1.0438541176e-05
1.04874676621e-05
1.0494391554e-05
1.04464039736e-05
1.04271541904e-05
1.04175627426e-05
1.04133356815e-05
1.04115905138e-05
1.04105430453e-05
1.04097772941e-05
1.04091788371e-05
1.04087656424e-05
1.04085208558e-05
1.04073420451e-05
1.04052681536e-05
1.04059477404e-05
1.04078325562e-05
1.04114931736e-05
1.04173540162e-05
1.04267816668e-05
1.04442331293e-05
1.04909062009e-05
1.04970536898e-05
1.04602709824e-05
1.04462866868e-05
1.04388985583e-05
1.04350403932e-05
1.04340759689e-05
1.0434163438e-05
1.04342072278e-05
1.04340586142e-05
1.04337094506e-05
1.04335833937e-05
1.04334810425e-05
1.04329742671e-05
1.04311748665e-05
1.04321778088e-05
1.04341370838e-05
1.04378311588e-05
1.04446891636e-05
1.04577928246e-05
1.04939872421e-05
1.05058490217e-05
1.04976020959e-05
1.04951263165e-05
1.04930137354e-05
1.04904988811e-05
1.04912575213e-05
1.04943176917e-05
1.04953492471e-05
1.04949740401e-05
1.0494251469e-05
1.04937757392e-05
1.04936486197e-05
1.04935522261e-05
1.04932238141e-05
1.04918964619e-05
1.04910956251e-05
1.04917172039e-05
1.04928617972e-05
1.04952775178e-05
1.05055286593e-05
1.04679383809e-05
1.04406369215e-05
1.04315570995e-05
1.04272540693e-05
1.04259971292e-05
1.04264630142e-05
1.04276424748e-05
1.04282752828e-05
1.04279314338e-05
1.04254714614e-05
1.04182100968e-05
1.04135414928e-05
1.04160061032e-05
1.04194152334e-05
1.0421551253e-05
1.04229260627e-05
1.0424984002e-05
1.04295550909e-05
1.04391888536e-05
1.04678187782e-05
1.04406855064e-05
1.02831967666e-05
1.02154537601e-05
1.01870165529e-05
1.01755439085e-05
1.01718097557e-05
1.01719773079e-05
1.01722315503e-05
1.01707376378e-05
1.01680992215e-05
1.0163453444e-05
1.01627622141e-05
1.01671254598e-05
1.01725748166e-05
1.01763224741e-05
1.01796829372e-05
1.01890465912e-05
1.0215411346e-05
1.02803082245e-05
1.04393214227e-05
1.04315284358e-05
1.02153828612e-05
1.01203955586e-05
1.00795765452e-05
1.00630630707e-05
1.00587880776e-05
1.00613997642e-05
1.00642794213e-05
1.00632680229e-05
1.00610921447e-05
1.00602171199e-05
1.00687523836e-05
1.00787359701e-05
1.00872753579e-05
1.00913109181e-05
1.00914588047e-05
1.00968310558e-05
1.01261857402e-05
1.0212910965e-05
1.04291959822e-05
1.04274675934e-05
1.01873423968e-05
1.00806001901e-05
1.00347563151e-05
1.00179368099e-05
1.00166439386e-05
1.00256160977e-05
1.00330464645e-05
1.00327783597e-05
1.00336777544e-05
1.00390035524e-05
1.00583417833e-05
1.00741941961e-05
1.00834304036e-05
1.00857398989e-05
1.00813242764e-05
1.00781093097e-05
1.00988301668e-05
1.01866846693e-05
1.04244492301e-05
1.04265249418e-05
1.01771167417e-05
1.00664832016e-05
1.00202347819e-05
1.00060368278e-05
1.00100344312e-05
1.00321892047e-05
1.00505240554e-05
1.00532849832e-05
1.00610741744e-05
1.00735995203e-05
1.00962123781e-05
1.01099176164e-05
1.0114525983e-05
1.01120354574e-05
1.0102535148e-05
1.00921705179e-05
1.01018319859e-05
1.01819249203e-05
1.04240227046e-05
1.04268503813e-05
1.01758480114e-05
1.00661944754e-05
1.00223488613e-05
1.00132523606e-05
1.00301788633e-05
1.00773757491e-05
1.01006659357e-05
1.0109930889e-05
1.0142716259e-05
1.01600114938e-05
1.01723443135e-05
1.01755538086e-05
1.01664007757e-05
1.01537277183e-05
1.01348344719e-05
1.0116018867e-05
1.01163958562e-05
1.01872380939e-05
1.04251436121e-05
1.04268493743e-05
1.01780008122e-05
1.00721520444e-05
1.00308125978e-05
1.00283929365e-05
1.00667869504e-05
1.01446912221e-05
1.01913305408e-05
1.0240399067e-05
1.02784996911e-05
1.02974678419e-05
1.03041605591e-05
1.02478852808e-05
1.01637066422e-05
1.01282706496e-05
1.01026946891e-05
1.01262839874e-05
1.01266669792e-05
1.01932064146e-05
1.04260198003e-05
1.04295443397e-05
1.01829920236e-05
1.00791452938e-05
1.00389319088e-05
1.00402884405e-05
1.00917425112e-05
1.02269081812e-05
1.03139082728e-05
1.03643113661e-05
1.03905892466e-05
1.0394075633e-05
1.03861027955e-05
1.03407264234e-05
1.0268821774e-05
1.01704021305e-05
1.01274581041e-05
1.01392538851e-05
1.01315232423e-05
1.01967918867e-05
1.04259553014e-05
1.04315187957e-05
1.01863502934e-05
1.00835825393e-05
1.00420857754e-05
1.00460248803e-05
1.01039807558e-05
1.02494563791e-05
1.03497157794e-05
1.04015127008e-05
1.04179444542e-05
1.04137142014e-05
1.04015852222e-05
1.03658285865e-05
1.02882818294e-05
1.0183441401e-05
1.01359555266e-05
1.0106044064e-05
1.01104510882e-05
1.01966170659e-05
1.04256340183e-05
1.042751023e-05
1.01838350681e-05
1.00808683196e-05
1.00316385634e-05
1.00374501133e-05
1.00999642591e-05
1.02512884308e-05
1.03488948613e-05
1.03947689189e-05
1.04141376881e-05
1.04117646544e-05
1.04043455515e-05
1.03724241864e-05
1.02815809193e-05
1.01913000637e-05
1.01379948728e-05
1.01071839667e-05
1.0109888124e-05
1.018666088e-05
1.04237322028e-05
1.04179238089e-05
1.01764311292e-05
1.00654504752e-05
1.00150050659e-05
1.00143016719e-05
1.00724680607e-05
1.02173184957e-05
1.03263632433e-05
1.0365020088e-05
1.03834929054e-05
1.03793063805e-05
1.03718682386e-05
1.03500544646e-05
1.02627889026e-05
1.01848958392e-05
1.01312806301e-05
1.0102831938e-05
1.01053997632e-05
1.01855046457e-05
1.04221847444e-05
1.0411775745e-05
1.01668195684e-05
1.00575678431e-05
1.00085374132e-05
1.00029524542e-05
1.00097359819e-05
1.01214589906e-05
1.02239384895e-05
1.02639229327e-05
1.02700265455e-05
1.02697266328e-05
1.02648669536e-05
1.02521721996e-05
1.0205528359e-05
1.01520095762e-05
1.01099837111e-05
1.00895570191e-05
1.00930375947e-05
1.01829388324e-05
1.04220582745e-05
1.04135959411e-05
1.0160191141e-05
1.00495388243e-05
9.9940718444e-06
9.97662402001e-06
9.96606186817e-06
1.00204055579e-05
1.00840199123e-05
1.01072818842e-05
1.01148542442e-05
1.01197166546e-05
1.01301562652e-05
1.01359020256e-05
1.01197453597e-05
1.00974441472e-05
1.00774219321e-05
1.00622011746e-05
1.00834024685e-05
1.01867622047e-05
1.04220955776e-05
1.04164096549e-05
1.01558384388e-05
1.00401331237e-05
9.9877866699e-06
9.96175035464e-06
9.95555181823e-06
9.96568493058e-06
9.99057929459e-06
1.00060752336e-05
1.00135186914e-05
1.00226483002e-05
1.00357849201e-05
1.00479357611e-05
1.00499553426e-05
1.00461342429e-05
1.0037568421e-05
1.00225484245e-05
1.00716104317e-05
1.0176749816e-05
1.04231240973e-05
1.04184219632e-05
1.0156275398e-05
1.0035640543e-05
9.98040664154e-06
9.95481043076e-06
9.94632702293e-06
9.94803715924e-06
9.95307233673e-06
9.95577737808e-06
9.95802369726e-06
9.96716841954e-06
9.98044574848e-06
9.99205135243e-06
9.99970887677e-06
1.00019855266e-05
9.99775976852e-06
1.00302384263e-05
1.00660493034e-05
1.01656374072e-05
1.04194394704e-05
1.04205006009e-05
1.01626122473e-05
1.00426890002e-05
9.98406558231e-06
9.95556963911e-06
9.94278327699e-06
9.9380625942e-06
9.93610326198e-06
9.93526981927e-06
9.93559249486e-06
9.94297700118e-06
9.95307253803e-06
9.96300403998e-06
9.97116374703e-06
9.97688360401e-06
9.98324412156e-06
1.00123938726e-05
1.0055447894e-05
1.01641773459e-05
1.04159735833e-05
1.04236427164e-05
1.0178347524e-05
1.00648106871e-05
1.0008941374e-05
9.97920462388e-06
9.96401297518e-06
9.95701095892e-06
9.95401358251e-06
9.95343391718e-06
9.95551561966e-06
9.95716326172e-06
9.96233455942e-06
9.96768705317e-06
9.97330491972e-06
9.97997934425e-06
9.99131673677e-06
1.00182369916e-05
1.00679473851e-05
1.01770312112e-05
1.04198503023e-05
1.04289970663e-05
1.0210625059e-05
1.01109902197e-05
1.00622142157e-05
1.00365862356e-05
1.00230467115e-05
1.00164210607e-05
1.00137918972e-05
1.00133459063e-05
1.00144744577e-05
1.00161899443e-05
1.00172157395e-05
1.00177659667e-05
1.00215308221e-05
1.00279236507e-05
1.00403580127e-05
1.00649904871e-05
1.01122155503e-05
1.02092164825e-05
1.04264893691e-05
1.04390890068e-05
1.02787742131e-05
1.02080756745e-05
1.01734256785e-05
1.01555092646e-05
1.01468000663e-05
1.01425071712e-05
1.01413462766e-05
1.01412853847e-05
1.01416600283e-05
1.0142465649e-05
1.01431931862e-05
1.0143774831e-05
1.01439925373e-05
1.0148730225e-05
1.01581090032e-05
1.01761474028e-05
1.02095975683e-05
1.02782560423e-05
1.04370587678e-05
1.04678295268e-05
1.04391825626e-05
1.04289203367e-05
1.04230016674e-05
1.04199114434e-05
1.04191686558e-05
1.04190554674e-05
1.04193127815e-05
1.04195562552e-05
1.0419194584e-05
1.04191106468e-05
1.04192082469e-05
1.04193233313e-05
1.0419468393e-05
1.04190114121e-05
1.04196731587e-05
1.04228117542e-05
1.04274527197e-05
1.04378983409e-05
1.04687099065e-05
1.04569866496e-05
1.04204078513e-05
1.04075243042e-05
1.040083408e-05
1.03981822833e-05
1.03976887709e-05
1.03981747455e-05
1.03983526828e-05
1.03965229681e-05
1.03953031665e-05
1.03925908918e-05
1.03895912792e-05
1.03882735658e-05
1.0388802997e-05
1.0389950133e-05
1.03918603197e-05
1.03955863682e-05
1.04032057612e-05
1.0418027605e-05
1.04566002188e-05
1.04206793591e-05
1.01819214128e-05
1.00745474951e-05
1.00274217808e-05
1.0007036492e-05
9.99933066908e-06
9.99833199893e-06
9.99916423266e-06
9.99783802105e-06
9.99677932899e-06
9.99418166064e-06
9.99126039925e-06
9.98964677057e-06
9.99024982374e-06
9.99291135717e-06
1.00009675707e-05
1.00214302214e-05
1.00681143676e-05
1.01732971783e-05
1.04179618781e-05
1.04073126377e-05
1.00739145045e-05
9.91682133827e-06
9.8460875307e-06
9.81607581923e-06
9.80762539716e-06
9.81099587588e-06
9.81655261038e-06
9.81841743926e-06
9.81806840655e-06
9.81684202724e-06
9.8176223169e-06
9.81793696338e-06
9.81761039398e-06
9.81778685972e-06
9.82425287518e-06
9.84852543626e-06
9.91259508142e-06
1.00634001515e-05
1.04028486123e-05
1.04009399431e-05
1.00268633222e-05
9.84690918485e-06
9.76653352443e-06
9.73617335279e-06
9.73436677822e-06
9.74946905137e-06
9.76446382118e-06
9.77001917871e-06
9.77267687511e-06
9.77547603902e-06
9.78149398878e-06
9.78177058539e-06
9.77568107765e-06
9.76735543506e-06
9.76635763556e-06
9.7844287128e-06
9.84842621462e-06
1.0015143455e-05
1.03953121534e-05
1.03985730385e-05
1.00076519971e-05
9.81966474871e-06
9.73883426032e-06
9.71568671808e-06
9.7292776257e-06
9.76928201761e-06
9.80435972389e-06
9.81697515681e-06
9.82620150769e-06
9.83361578104e-06
9.84080718298e-06
9.83702558854e-06
9.81451654468e-06
9.78429760739e-06
9.7682671191e-06
9.77511535099e-06
9.83067921163e-06
9.99754294764e-06
1.03929225796e-05
1.03975277076e-05
1.00025480989e-05
9.8157988584e-06
9.7410916562e-06
9.73313114817e-06
9.77624218259e-06
9.86646219387e-06
9.93373702385e-06
9.9572488082e-06
9.98623805089e-06
9.99994677025e-06
1.00072546549e-05
9.96692524419e-06
9.9220872459e-06
9.84407439417e-06
9.80083044106e-06
9.7916804313e-06
9.8357497226e-06
9.99583814775e-06
1.03923667953e-05
1.03966301791e-05
1.00039670004e-05
9.82307450289e-06
9.75730565644e-06
9.76830373836e-06
9.85191999158e-06
1.00016705045e-05
1.01561001068e-05
1.02187059776e-05
1.02589920905e-05
1.02806863755e-05
1.02755610969e-05
1.01948018381e-05
1.00058740019e-05
9.92352268531e-06
9.84663337287e-06
9.81546057215e-06
9.84783231933e-06
1.00002826618e-05
1.0392678973e-05
1.03983729009e-05
1.0009155836e-05
9.8327874969e-06
9.77501531641e-06
9.79856486296e-06
9.89964367626e-06
1.01708065182e-05
1.03734849856e-05
1.04334969104e-05
1.04589948535e-05
1.04626089349e-05
1.04448667387e-05
1.03940672734e-05
1.01765726349e-05
9.96246463753e-06
9.88729277504e-06
9.83651559548e-06
9.8578490411e-06
1.00050168995e-05
1.03932244755e-05
1.03990934379e-05
1.00124188721e-05
9.839095545e-06
9.7858939813e-06
9.81456465722e-06
9.92373009422e-06
1.02162969272e-05
1.04052719432e-05
1.04577698251e-05
1.04799446737e-05
1.04835375234e-05
1.04676736141e-05
1.04309223662e-05
1.0221445274e-05
9.99782304738e-06
9.89700912035e-06
9.84498927151e-06
9.86278107601e-06
1.00078529161e-05
1.03936448084e-05
1.03971765855e-05
1.00109547425e-05
9.83806674072e-06
9.78469714024e-06
9.81229967794e-06
9.93200368378e-06
1.02275809915e-05
1.04140327462e-05
1.04500236007e-05
1.04744789616e-05
1.04807759088e-05
1.04727386936e-05
1.04417078899e-05
1.02324624805e-05
1.00034130372e-05
9.89625016065e-06
9.8452262642e-06
9.86193906776e-06
1.00079583944e-05
1.03938654912e-05
1.03927514619e-05
1.00046091364e-05
9.82985355847e-06
9.77248923788e-06
9.788028455e-06
9.90200934109e-06
1.01926327574e-05
1.03982747129e-05
1.04321423918e-05
1.04493231058e-05
1.04506405338e-05
1.04408002163e-05
1.04166118815e-05
1.02016375317e-05
9.98645998021e-06
9.88299906444e-06
9.83522655013e-06
9.85440473372e-06
1.00051509626e-05
1.03939587363e-05
1.03880244978e-05
9.99405360454e-06
9.8135527413e-06
9.75296926359e-06
9.75660296679e-06
9.80013050456e-06
9.98640939751e-06
1.01878038428e-05
1.02424818786e-05
1.02531996483e-05
1.02457530293e-05
1.02349228369e-05
1.0208490112e-05
1.00520120958e-05
9.92075628913e-06
9.84147721401e-06
9.8105665647e-06
9.83535448168e-06
9.99942371791e-06
1.03933358783e-05
1.03858925724e-05
9.98299870016e-06
9.79173330997e-06
9.71442775653e-06
9.70240745865e-06
9.70843944056e-06
9.78749691596e-06
9.87991293958e-06
9.91568110717e-06
9.92326695574e-06
9.92810963753e-06
9.93231680562e-06
9.92235294655e-06
9.86985044165e-06
9.81731411783e-06
9.7816494558e-06
9.7662272472e-06
9.81548740047e-06
9.99039646278e-06
1.03927888814e-05
1.03854996885e-05
9.97475349323e-06
9.77487679791e-06
9.68409330895e-06
9.65145089717e-06
9.65315400324e-06
9.67177006313e-06
9.69406231099e-06
9.71546772055e-06
9.72207270613e-06
9.73248770036e-06
9.74452583717e-06
9.7527545275e-06
9.74362228871e-06
9.72919044446e-06
9.71116876817e-06
9.70490453118e-06
9.79512973953e-06
9.97907778804e-06
1.03929426733e-05
1.03864969585e-05
9.97261120787e-06
9.76783104587e-06
9.66934461429e-06
9.62444787118e-06
9.6113828955e-06
9.61461789548e-06
9.62025039873e-06
9.62128034172e-06
9.62072515517e-06
9.63176859335e-06
9.64560769257e-06
9.65693938406e-06
9.65897239146e-06
9.65550120193e-06
9.65489770053e-06
9.6881453128e-06
9.77825474916e-06
9.97186287239e-06
1.03903958872e-05
1.03888871375e-05
9.98173399659e-06
9.77798462718e-06
9.67641068534e-06
9.62505960573e-06
9.60166392867e-06
9.5931928142e-06
9.59023507972e-06
9.58882210467e-06
9.58964249995e-06
9.59596472148e-06
9.60481694866e-06
9.61346513767e-06
9.62048384977e-06
9.62813221909e-06
9.64410872546e-06
9.68642779605e-06
9.78007363302e-06
9.97725649177e-06
1.03885087708e-05
1.0393801714e-05
1.00074699497e-05
9.81488226181e-06
9.71740669278e-06
9.6656150491e-06
9.63904934701e-06
9.62656776706e-06
9.6212368069e-06
9.61948538758e-06
9.62055194058e-06
9.62369148958e-06
9.62776521439e-06
9.63264294937e-06
9.6392344215e-06
9.65034238821e-06
9.67284386758e-06
9.71996606433e-06
9.8136362518e-06
1.00026504312e-05
1.03932252473e-05
1.04024702503e-05
1.00604964167e-05
9.89367462453e-06
9.80941473713e-06
9.76427539701e-06
9.74021363317e-06
9.72816625067e-06
9.72306612414e-06
9.72151568374e-06
9.72190512042e-06
9.72333348944e-06
9.72513362097e-06
9.72789959938e-06
9.73320318619e-06
9.74425722399e-06
9.7668761698e-06
9.81093509642e-06
9.89359091025e-06
1.00575394175e-05
1.04026821901e-05
1.04179297456e-05
1.01703259187e-05
1.00556060617e-05
9.99852076925e-06
9.96809733661e-06
9.95235797984e-06
9.94430168204e-06
9.94112118753e-06
9.94046381803e-06
9.9405819718e-06
9.94136959067e-06
9.9423351327e-06
9.9439369654e-06
9.94750290195e-06
9.95541743129e-06
9.97151281961e-06
1.0001884095e-05
1.00578608092e-05
1.01703128214e-05
1.04189638984e-05
1.04567451978e-05
1.04176418978e-05
1.04020803309e-05
1.03934379437e-05
1.03886777875e-05
1.03867915344e-05
1.0386022587e-05
1.03855050805e-05
1.03858166918e-05
1.03858078004e-05
1.03858905579e-05
1.03860977693e-05
1.03864401807e-05
1.03870919138e-05
1.03885197502e-05
1.03912386561e-05
1.03956466984e-05
1.04034393006e-05
1.04189405053e-05
1.04582977478e-05
1.04535358525e-05
1.04114761707e-05
1.03964525027e-05
1.03880931983e-05
1.03844003969e-05
1.03831669738e-05
1.0383236274e-05
1.03831870973e-05
1.03813512525e-05
1.03809372615e-05
1.03797986448e-05
1.0377750418e-05
1.03757216787e-05
1.03749108518e-05
1.03750765141e-05
1.03768389304e-05
1.03811337114e-05
1.03902051155e-05
1.04080839992e-05
1.04525812038e-05
1.04119476554e-05
1.01281432998e-05
9.99633791263e-06
9.93666595249e-06
9.90977651567e-06
9.89922262818e-06
9.89780900849e-06
9.89981033885e-06
9.90032985674e-06
9.90108341457e-06
9.89953287245e-06
9.89578250657e-06
9.89136933017e-06
9.88854536365e-06
9.88955056398e-06
9.89975849621e-06
9.92674458837e-06
9.98614316481e-06
1.01159557645e-05
1.04082372418e-05
1.03962214221e-05
9.99521224881e-06
9.79696097902e-06
9.70462421952e-06
9.66413202993e-06
9.65243255689e-06
9.65702198916e-06
9.66618441202e-06
9.67206696468e-06
9.67435566306e-06
9.67333818266e-06
9.66988930103e-06
9.66425769882e-06
9.65704323556e-06
9.65269793912e-06
9.66196845724e-06
9.69867616618e-06
9.78671690135e-06
9.97970988305e-06
1.03901564031e-05
1.0388215117e-05
9.9350792451e-06
9.70468687655e-06
9.59821307029e-06
9.55667641385e-06
9.55422518294e-06
9.57486715184e-06
9.59832300179e-06
9.61079366143e-06
9.616506143e-06
9.61782496755e-06
9.61513711035e-06
9.60580761978e-06
9.58664440024e-06
9.56742459668e-06
9.56591749338e-06
9.59901749834e-06
9.69503200537e-06
9.91643081182e-06
1.03809512313e-05
1.03845597566e-05
9.90848894688e-06
9.6657854311e-06
9.55800177634e-06
9.52642905553e-06
9.54666599065e-06
9.60179597514e-06
9.65745778419e-06
9.68136126751e-06
9.69143691259e-06
9.69542632457e-06
9.69356837817e-06
9.67874182713e-06
9.6302257151e-06
9.57455490409e-06
9.54933260366e-06
9.56853472022e-06
9.65958989196e-06
9.88908258688e-06
1.03770903966e-05
1.03826055949e-05
9.89948832777e-06
9.65708019634e-06
9.55734955625e-06
9.54723639871e-06
9.61207341456e-06
9.73738794007e-06
9.86793532054e-06
9.90742044267e-06
9.92299336251e-06
9.93314588146e-06
9.9337081184e-06
9.87727746279e-06
9.76970137627e-06
9.64904309302e-06
9.58053503539e-06
9.57639025055e-06
9.65499811975e-06
9.88133761066e-06
1.03761907599e-05
1.03813814896e-05
9.89956570808e-06
9.66374953145e-06
9.57661914082e-06
9.59435415753e-06
9.72471096489e-06
9.97610722037e-06
1.02817266549e-05
1.03264421564e-05
1.03388875637e-05
1.03557484219e-05
1.03401851897e-05
1.0288368063e-05
9.96952825155e-06
9.74763072048e-06
9.63846208403e-06
9.60196809287e-06
9.66433596743e-06
9.88326137712e-06
1.03760924572e-05
1.03827135256e-05
9.90452728647e-06
9.67463530984e-06
9.59956342238e-06
9.64231539791e-06
9.82663085153e-06
1.0243994274e-05
1.02768026349e-05
9.83847495218e-06
9.6863569435e-06
9.62534036391e-06
9.67532223203e-06
9.88774646314e-06
1.03767206394e-05
1.03831422601e-05
9.90769466205e-06
9.68141008791e-06
9.61254244992e-06
9.66368818625e-06
9.8506973303e-06
1.02848838223e-05
1.02982184824e-05
9.8682465961e-06
9.69813486291e-06
9.63475518835e-06
9.68140882983e-06
9.89087336087e-06
1.03774287076e-05
1.03819391604e-05
9.90607083936e-06
9.67932657448e-06
9.60994937626e-06
9.66022069363e-06
9.85478440544e-06
1.02935725729e-05
1.0303199659e-05
9.87431765117e-06
9.69417787868e-06
9.63164640725e-06
9.68026257433e-06
9.89065502706e-06
1.03779189695e-05
1.03789539052e-05
9.89904729344e-06
9.66751589067e-06
9.5909008304e-06
9.6300494548e-06
9.81804761477e-06
1.02482730386e-05
1.02656277391e-05
9.84020184714e-06
9.66129979058e-06
9.61319299193e-06
9.6699783772e-06
9.88647917727e-06
1.03781482783e-05
1.0375211252e-05
9.88782485996e-06
9.64729196405e-06
9.55667676999e-06
9.56840630293e-06
9.68350723559e-06
9.93379277451e-06
1.02696877365e-05
1.03178760189e-05
1.03365181021e-05
1.0342449141e-05
1.03346573767e-05
1.02864170655e-05
9.96282563292e-06
9.73282186433e-06
9.60820666604e-06
9.57879721911e-06
9.64816065079e-06
9.87731181384e-06
1.03773274054e-05
1.03722998364e-05
9.87570281973e-06
9.62381801057e-06
9.51589234221e-06
9.49638446437e-06
9.54732606089e-06
9.65638349227e-06
9.76188167096e-06
9.81197138761e-06
9.82503668711e-06
9.82647869509e-06
9.82058020333e-06
9.79228097662e-06
9.67071723413e-06
9.5737116843e-06
9.52016300614e-06
9.52364176424e-06
9.62058212204e-06
9.86523606666e-06
1.03764203874e-05
1.03707179918e-05
9.8666113166e-06
9.60537601661e-06
9.48236266024e-06
9.43725733239e-06
9.4447131933e-06
9.48327055212e-06
9.51691764435e-06
9.53455677603e-06
9.53971213115e-06
9.54091050246e-06
9.53999858146e-06
9.52839597583e-06
9.49281855984e-06
9.46043537658e-06
9.44617737983e-06
9.48201244881e-06
9.59962731903e-06
9.85584656741e-06
1.03764408123e-05
1.03710448941e-05
9.86533315804e-06
9.59942599682e-06
9.46717895618e-06
9.40550858523e-06
9.38681761975e-06
9.39152949154e-06
9.40081273578e-06
9.40372717811e-06
9.4011479931e-06
9.40241101009e-06
9.40355897857e-06
9.40006267916e-06
9.39509005734e-06
9.39115664693e-06
9.40752022367e-06
9.46473217161e-06
9.59056903051e-06
9.85300085334e-06
1.0373667763e-05
1.03735238282e-05
9.87755720029e-06
9.61504162855e-06
9.48008485469e-06
9.41034285204e-06
9.37813509432e-06
9.36640262624e-06
9.36299826945e-06
9.36179747324e-06
9.36158629396e-06
9.3627641818e-06
9.36417550178e-06
9.3665530922e-06
9.36984642703e-06
9.38028783568e-06
9.4093585715e-06
9.47417733568e-06
9.60423270337e-06
9.86426934305e-06
1.03722746236e-05
1.03791175094e-05
9.91029587977e-06
9.66382100479e-06
9.53561858656e-06
9.46650340575e-06
9.43042453573e-06
9.41329091961e-06
9.40607974065e-06
9.4034362326e-06
9.40309848238e-06
9.40387209651e-06
9.40508396658e-06
9.40750817399e-06
9.41354047373e-06
9.42867620456e-06
9.46205243463e-06
9.52848844702e-06
9.65422912428e-06
9.89888314717e-06
1.03783641436e-05
1.03893921581e-05
9.9766251987e-06
9.76541931054e-06
9.6559725762e-06
9.59618918545e-06
9.5640237225e-06
9.54751516349e-06
9.54009190757e-06
9.53735577299e-06
9.53658873845e-06
9.53691795127e-06
9.53775067448e-06
9.54007189897e-06
9.54642794045e-06
9.56149485869e-06
9.59269913422e-06
9.65180765609e-06
9.76001644778e-06
9.96914375863e-06
1.03899321393e-05
1.04080715474e-05
1.0112001019e-05
9.96996568267e-06
9.89808908173e-06
9.85885783771e-06
9.83777789045e-06
9.82712827816e-06
9.82206146147e-06
9.82047339812e-06
9.82009794364e-06
9.820278493e-06
9.82090940319e-06
9.82258831205e-06
9.8271400254e-06
9.83766791215e-06
9.85892463609e-06
9.89811978516e-06
9.96937114546e-06
1.01097758222e-05
1.04098703347e-05
1.04529493073e-05
1.04079666488e-05
1.03891863981e-05
1.03789898196e-05
1.03733884812e-05
1.03704292699e-05
1.03694429808e-05
1.03688577645e-05
1.03688694137e-05
1.03692044332e-05
1.03692952768e-05
1.0369533671e-05
1.03699117991e-05
1.03707102756e-05
1.03723775377e-05
1.03756454134e-05
1.03809065517e-05
1.03909237124e-05
1.04100896045e-05
1.04555816781e-05
1.04510229301e-05
1.04057118293e-05
1.03897738032e-05
1.03803906517e-05
1.03758989877e-05
1.03742526041e-05
1.03740568111e-05
1.03736841044e-05
1.03722817643e-05
1.03722850246e-05
1.03715236697e-05
1.03698253983e-05
1.03674783789e-05
1.03658166343e-05
1.03654533503e-05
1.03669526609e-05
1.03715897162e-05
1.0381646287e-05
1.04016000498e-05
1.04497635232e-05
1.04063487681e-05
1.00958266724e-05
9.94845331904e-06
9.88045011299e-06
9.84915210525e-06
9.83674096436e-06
9.83515600813e-06
9.83803795884e-06
9.84038629204e-06
9.84231629021e-06
9.8409835375e-06
9.83641269349e-06
9.83033024383e-06
9.82514313242e-06
9.82459337104e-06
9.83574378855e-06
9.86704328083e-06
9.93490871895e-06
1.00806037258e-05
1.04016494748e-05
1.0389694644e-05
9.94703049536e-06
9.72163894337e-06
9.61446335034e-06
9.56656274295e-06
9.55258018391e-06
9.55813565554e-06
9.57013922498e-06
9.57913435984e-06
9.58323557048e-06
9.58209752552e-06
9.5765018619e-06