/*--------------------------------*- C++ -*----------------------------------*\
| =========                 |                                                 |
| \\      /  F ield         | OpenFOAM: The Open Source CFD Toolbox           |
|  \\    /   O peration     | Version:  v1606+                                |
|   \\  /    A nd           | Web:      www.OpenFOAM.com                      |
|    \\/     M anipulation  |                                                 |
\*---------------------------------------------------------------------------*/
FoamFile
{
    version     2.0;
    format      ascii;
    class       volVectorField;
    location    "2.2";
    object      U;
}
// * * * * * * * * * * * * * * * * * * * * * * * * * * * * * * * * * * * * * //

dimensions      [0 1 -1 0 0 0 0];

internalField   nonuniform List<vector> 
11640
(
(0.00206629746555 0.00232987407531 -0.00310672828816)
(0.00610295999665 0.00226218152917 -0.0030092551668)
(0.00995341852986 0.00214430029056 -0.00286402281196)
(0.0137343599376 0.00202276061331 -0.00269414998518)
(0.0172660792816 0.00186744421183 -0.0024791174405)
(0.0204345243203 0.00168893246306 -0.00224094836221)
(0.0230742168517 0.00154921054078 -0.00195418513079)
(0.0251301995984 0.00142643970411 -0.00162924129225)
(0.0265515319484 0.00122430756391 -0.00124849236193)
(0.0272883576316 0.00100853447101 -0.00084569603772)
(0.0273093976728 0.000802314936394 -0.000457188260399)
(0.0266466928323 0.000606678333137 -5.59087738298e-05)
(0.02527335208 0.000408006610321 0.000313266529261)
(0.0232612199042 0.000204300979606 0.000644801657147)
(0.0206907961438 -4.55144753679e-05 0.000915836291521)
(0.0176574925114 -0.000279344895111 0.00119019059391)
(0.0142781104043 -0.000465049816939 0.00145218391675)
(0.0105587325275 -0.000593235717318 0.00165895046392)
(0.00654599341389 -0.000651625038057 0.00181379291816)
(0.00232238261689 -0.000584012857254 0.00187827910372)
(0.00192823878807 0.00707374607807 -0.00305503006587)
(0.00575565007439 0.00684661540435 -0.00326711561314)
(0.00955814455393 0.00644642436208 -0.00323492679942)
(0.0133340627428 0.00601979501071 -0.00313671138493)
(0.0168869585955 0.00556888940014 -0.00298832269399)
(0.0200911229063 0.00514940060579 -0.00275211475459)
(0.0227481358805 0.00471994992777 -0.00248549750655)
(0.0247348916476 0.00428564243968 -0.00207892209111)
(0.0260598118927 0.00365149003761 -0.00162727229683)
(0.0267417195923 0.00296887871035 -0.00115594075598)
(0.0267399200133 0.00229716907647 -0.000688455802942)
(0.026059063279 0.00165342273564 -0.000242226112983)
(0.0247075964627 0.00103400992746 0.000171116542906)
(0.0227261547597 0.000446142134162 0.000526457331904)
(0.0202209450275 -0.000173297961092 0.000840626837315)
(0.0172746531188 -0.000763732801754 0.00112981505239)
(0.0139235242069 -0.00129247666224 0.00138953625209)
(0.0102259192624 -0.00166693181768 0.001615234814)
(0.00630404826899 -0.00182896206153 0.00174331020517)
(0.00219598529152 -0.00174599107082 0.00174567210928)
(0.00178972463571 0.0117864544933 -0.00290128807524)
(0.00529610509775 0.011489194779 -0.00319305606978)
(0.00898013261332 0.0109644640536 -0.00324554968157)
(0.0127479102443 0.0103736384195 -0.0033179780188)
(0.0162914368621 0.00984501435263 -0.00329165533382)
(0.0194358733769 0.00932430398248 -0.00315385424093)
(0.0220702933421 0.00870357970994 -0.00289676857548)
(0.0239687976225 0.00802429269561 -0.00246710731855)
(0.0250999870651 0.00698206203552 -0.00200129507205)
(0.0256988462324 0.0057967206401 -0.00148285875017)
(0.0256931924509 0.00457157851597 -0.000944915825191)
(0.0250396394035 0.00339901155993 -0.000426068605934)
(0.0237641240158 0.00228520415479 1.8483457694e-05)
(0.0218701732698 0.00127270692186 0.000354297131839)
(0.0194578649886 0.000257511353942 0.000629067481725)
(0.0166146048307 -0.00071577699099 0.000915884090305)
(0.0133585807995 -0.00159755443581 0.00118834151682)
(0.00973993749279 -0.00226739256634 0.00145761155989)
(0.00596493227286 -0.00263393778219 0.00158785850526)
(0.00205738371869 -0.0026442275567 0.00160912544639)
(0.00165870209625 0.0163056450284 -0.00270766681389)
(0.00483197035136 0.0159739088162 -0.00303252878633)
(0.00832043326936 0.0154197863936 -0.00325356724506)
(0.0119860964977 0.0148859909863 -0.00344887844056)
(0.0154363836164 0.0144807638364 -0.00355787905076)
(0.0184615801925 0.0140121737099 -0.00352336353461)
(0.0210494514646 0.0132818488838 -0.00337231044415)
(0.0227752957453 0.0125064734485 -0.00287903057936)
(0.0236363151566 0.0109512163981 -0.00241083525167)
(0.0241008797086 0.00895638839316 -0.0018477500883)
(0.0240855805214 0.00694827607082 -0.00121273383619)
(0.0234995272822 0.00508281177124 -0.000639881875024)
(0.0223720264977 0.0034346443531 -0.000187273942001)
(0.0206468813687 0.0021811316304 0.000147771617189)
(0.0184005924562 0.000837287264129 0.000387045625698)
(0.0157405655933 -0.000468823630203 0.00064815704821)
(0.0126647271819 -0.0016922386413 0.000924245720174)
(0.00921201307001 -0.00263504191971 0.00121776674534)
(0.00559374096318 -0.00317909306777 0.00142642233151)
(0.00192708684311 -0.00335527189869 0.00143049941233)
(0.00149902703712 0.0204481660714 -0.00241543698992)
(0.00426023641848 0.020139453294 -0.00284146359628)
(0.00756019660538 0.0196586371799 -0.0031497622328)
(0.0110296391348 0.0193628443424 -0.00344470806421)
(0.0141790273427 0.0192866072991 -0.00371689416222)
(0.0169292351696 0.0191272029588 -0.00376679793267)
(0.0196391614006 0.0183603465594 -0.00366696925103)
(0.0211022591441 0.01763982584 -0.0030737377278)
(0.0213748133388 0.0156487435212 -0.00268968249103)
(0.0216384850911 0.0128295709102 -0.00210212734274)
(0.0217919388511 0.0100178106576 -0.00148596859677)
(0.0215137376813 0.00735860160989 -0.000869282645433)
(0.0209229729386 0.00522014730995 -0.000337754294119)
(0.0195490856767 0.00375384553848 1.00745238464e-05)
(0.0173779596771 0.00204384095916 0.000187666414455)
(0.0148367855529 0.000306764892421 0.000440777444418)
(0.011915099156 -0.0013050498301 0.000717377910003)
(0.00871552565179 -0.00254725991361 0.00104048825042)
(0.00527712785135 -0.00332055528522 0.00119055159373)
(0.00176427793034 -0.00362708789492 0.00120063579639)
(0.0012558538139 0.024074832263 -0.00207317266751)
(0.00369265700781 0.0238386979763 -0.00252803052995)
(0.00668768821063 0.0235195845652 -0.00293229657734)
(0.00980199542457 0.0235235330182 -0.00328492166284)
(0.0126685805692 0.0238556440948 -0.00358266104032)
(0.0151328372199 0.024034245347 -0.00376901370963)
(0.0180168235717 0.0235963320351 -0.00394020302619)
(0.0189838740834 0.0245020629335 -0.00346208711735)
(0.018735442725 0.0225008114875 -0.00334047382206)
(0.0187376168219 0.0187707862694 -0.00287779074535)
(0.0189829010138 0.0149361828615 -0.0022170811303)
(0.0191572972393 0.0111952081491 -0.00152055139034)
(0.0192695779502 0.00799685149688 -0.000859625399932)
(0.0181475044482 0.00566987877999 -0.000188005129175)
(0.0159894719747 0.00334231457571 5.57636419416e-06)
(0.0136982353872 0.00131019051328 0.000276563146233)
(0.0110558918558 -0.000554045430508 0.000514416530272)
(0.00811215240219 -0.00205757913915 0.00082953913612)
(0.00492300283521 -0.00305451538685 0.00100562330884)
(0.00168447370023 -0.00345297163964 0.000988158839644)
(0.00104927393503 0.0270641743272 -0.00171602454377)
(0.00312399397531 0.0268826952812 -0.00216529521879)
(0.00570874513911 0.0267068907057 -0.00248385656681)
(0.00849195258719 0.0269811913028 -0.00279199293031)
(0.0111269298412 0.0275416258635 -0.00297514985515)
(0.0135293920305 0.0275865854234 -0.00300845797829)
(0.0177762971674 0.0272108453781 -0.00286772751615)
(0.0177972962091 0.0291403940325 -0.000898286850413)
(0.015609056292 0.0268236629759 -0.00106927794469)
(0.0148497777367 0.0213614138405 -0.00106790094272)
(0.015380448454 0.0162711440341 -0.000608301931379)
(0.0157474054933 0.0111129184038 -0.000135691096444)
(0.0166710498012 0.00744931526811 0.000202933621041)
(0.0161649841474 0.00698933453419 0.00026497709246)
(0.0145592217459 0.00497278627074 8.14820696024e-05)
(0.0126991791774 0.00264177268048 0.000265727068905)
(0.0102432277077 0.000514542560659 0.000410715714509)
(0.0075509599117 -0.00122131929182 0.00065407660242)
(0.00459800651056 -0.00235063176482 0.000792664249757)
(0.00159180844405 -0.00284646189617 0.000789909443371)
(0.000875376669477 0.0293511852238 -0.00132113020662)
(0.00258070522829 0.0291741565276 -0.0016933086657)
(0.00477769215087 0.0291588890118 -0.00195119595843)
(0.00714668029356 0.0296312808952 -0.00223612683164)
(0.00938390113114 0.0303474057552 -0.00245573856599)
(0.011782782806 0.030366710951 -0.00311430217823)
(0.0180618466933 0.0295466136811 -0.00299017383709)
(0.0175193675949 0.0304028043765 0.000994617234301)
(0.0129961430212 0.0282127548681 -0.00034232785084)
(0.0117117202867 0.02365691653 -0.00183984263881)
(0.0121120765707 0.0195752495211 -0.00200126404438)
(0.0122822858717 0.0150243849 -0.00143183393948)
(0.0144856571552 0.0111048372349 -0.00100243568133)
(0.0139871710434 0.00934911173507 0.000549617774724)
(0.0123290103516 0.00657498691372 -0.000119319785385)
(0.0109137445855 0.00395153350113 6.82166327046e-05)
(0.00905443895671 0.0016838230091 0.000271177877126)
(0.00683027719441 -0.00016134028679 0.000501444839049)
(0.00419643428716 -0.00136829848607 0.000608694748881)
(0.00147349140929 -0.00185307771544 0.000603905935015)
(0.000704855989075 0.0308547871437 -0.00088538369321)
(0.00205785735913 0.0306788192101 -0.00117878625664)
(0.00384120544199 0.0307524239653 -0.00137079538679)
(0.00582987111637 0.0313373451047 -0.00154991842095)
(0.00770987059717 0.0322030412235 -0.00165660171264)
(0.00981546422059 0.0323535756588 -0.00226302528911)
(0.0163669900505 0.030882903332 -0.00216454292261)
(0.0153244245061 0.0290754408792 0.00205839097565)
(0.00948164135562 0.0260249421239 0.00103137615251)
(0.00794752303399 0.0228755078843 -0.000182857855839)
(0.00851850150114 0.0198253781649 -0.000261843234692)
(0.00894856795921 0.0166968420075 0.000355433035904)
(0.0117717042337 0.0136963187778 0.000390754622337)
(0.0118932893552 0.0106907440202 0.000944972058195)
(0.0108542478408 0.00760295215072 -0.000130354839591)
(0.00975595745009 0.00508580806948 -3.38646913647e-05)
(0.00820684925094 0.00288939154689 0.000163788138938)
(0.0062424328691 0.00104735359535 0.000393385665552)
(0.00385497492485 -0.000158531873513 0.000472961495512)
(0.00138631585982 -0.000602998705774 0.00046908892307)
(0.000509404224626 0.031491100663 -0.000451322522045)
(0.00148796272439 0.0313237655852 -0.000669008348066)
(0.00285970917769 0.0314094301701 -0.000810589140201)
(0.00445373373816 0.0320179959332 -0.000906005984561)
(0.00603941603237 0.0327712355428 -0.000959578558503)
(0.00802301265478 0.0327617645463 -0.001479229587)
(0.0138537151149 0.0309518524291 -0.00154013417996)
(0.0125149783708 0.0276763767865 0.00233912103606)
(0.00719118989512 0.025090605039 0.00111382054616)
(0.00573056061738 0.0234753695244 -0.000150387070916)
(0.00589941381572 0.0210804679346 -0.000420203854829)
(0.00586240385112 0.0187531894503 6.90844015111e-05)
(0.00853274467682 0.0164480392319 0.000118772971795)
(0.00961623419849 0.0125774135505 0.000561025771078)
(0.00888700195145 0.00924654072363 -0.000300371880613)
(0.00833537015164 0.00650974234524 -0.00011900045723)
(0.00723139795389 0.00423134365362 9.52507662631e-05)
(0.00560532127092 0.00234259558604 0.000336046054794)
(0.00349945524637 0.00116586655993 0.00040060345901)
(0.00128412484956 0.000785322987973 0.000387682301303)
(0.00032039752706 0.0314094364253 -8.51449516469e-05)
(0.000869931439073 0.0312061961915 -0.000200999468225)
(0.00178412599212 0.0312637598637 -0.000284829517449)
(0.0029081287983 0.031809350852 -0.000296874551334)
(0.00411624270207 0.0324111621237 -0.00025800531337)
(0.00594506677108 0.0318935557873 -0.00072391592816)
(0.0109928527666 0.0292411716752 -0.000722863402531)
(0.00978564797917 0.0211216647581 0.00231739092473)
(0.00449847328102 0.0177880436079 0.00103391792131)
(0.00288018153184 0.0179949687184 1.98548343115e-05)
(0.00323550432704 0.0180499049038 -0.000235120514956)
(0.0037947264303 0.0184705756133 -2.79952573912e-05)
(0.00672813758039 0.0178816424769 -0.000214834295242)
(0.00779116060342 0.0137728733873 0.000350228543284)
(0.00735758310799 0.010455699531 -0.000362553730328)
(0.00704253460462 0.00774558143195 -0.000146757466784)
(0.00626735946322 0.00541606135918 7.8658149508e-05)
(0.00497729623752 0.00354303221299 0.000314814621278)
(0.00319584668847 0.00243019218228 0.000371025112899)
(0.00125041326748 0.00216051023795 0.000377213187006)
(0.000103639415442 0.0306545877131 0.000308565659384)
(0.00019410766065 0.0303918395393 0.000262983791874)
(0.000656112887567 0.0304096837276 0.000265650750975)
(0.00129104393199 0.0308763768328 0.000339748157228)
(0.00194989016853 0.0314746168809 0.0003537464546)
(0.00301426827518 0.0313332988762 -0.000258234247244)
(0.00366957931092 0.0294723850673 -0.000468613369721)
(0.00350969903235 0.0239917604922 -0.00200584918871)
(0.00378422859721 0.0220314043632 -0.0025234974136)
(0.00371635710591 0.0221036975475 -0.00213383777799)
(0.00374976674201 0.0220222603078 -0.00127049012385)
(0.00356486923518 0.0213569747987 -0.000530856476848)
(0.00446002453681 0.0195006883236 -0.000115798523526)
(0.00499765790548 0.0150855623913 5.93285709675e-05)
(0.00535836771828 0.0115444270252 -0.000268654637573)
(0.00548531601524 0.00871391424291 -7.40613959321e-05)
(0.00517271499188 0.00632329417779 0.000113459198814)
(0.00430405675861 0.00451085414758 0.000339106013417)
(0.00287171270531 0.00350098041397 0.000398444941105)
(0.00120382071355 0.00337913915838 0.00043053834971)
(-9.09153811157e-05 0.0292066381205 0.000674156401534)
(-0.000409303674344 0.0288808427028 0.000697897971583)
(-0.000355776768597 0.0287717633872 0.000773870205094)
(-9.4969260596e-05 0.029021914023 0.000972905706029)
(0.000441530770468 0.0294191240236 0.00119648674215)
(0.00142696001521 0.0294724488542 0.00120580690948)
(0.00248833475321 0.0283056555019 0.00137564427998)
(0.00266632891788 0.026828941144 0.00156708952324)
(0.00195579071649 0.024974924497 0.00162914228834)
(0.00127518672009 0.0231143493084 0.00176798154436)
(0.00111948754079 0.0208701908993 0.00186093595809)
(0.00147498204491 0.018828495071 0.00169804704451)
(0.00226634427091 0.0166290890999 0.00130393753499)
(0.00291021988858 0.0137714247913 0.000813403878053)
(0.00363104463217 0.0111198922153 0.000313337905715)
(0.00405575733045 0.00871159334738 0.00022658785284)
(0.00410825389423 0.00660319032694 0.000278654146709)
(0.00362227202622 0.00500424447908 0.000389625203378)
(0.00253343379501 0.00423802158851 0.000472914071694)
(0.00117385935903 0.00434928340573 0.000547597453512)
(-0.000227572255981 0.0270547754753 0.000980367872474)
(-0.00086581165617 0.0267067558516 0.00105136212173)
(-0.00114218988356 0.0264080067357 0.00113897338545)
(-0.00120917849225 0.026343453815 0.00130599268388)
(-0.000948175937803 0.0263454415445 0.00150563472427)
(-0.000341527299221 0.0259904549888 0.00158013851954)
(0.00026378641927 0.0247346291543 0.00152054520381)
(0.000566334213577 0.022657142459 0.00136926880785)
(0.000538565886231 0.0205978120897 0.00125521368897)
(0.000425123417262 0.018950711837 0.00124127287932)
(0.000359132052466 0.01732609134 0.00117650071849)
(0.000614578147716 0.0157421911212 0.00106155765301)
(0.00114302271826 0.0139930467323 0.000852327508697)
(0.00174948913466 0.0120588916262 0.000683582672299)
(0.00244142095166 0.0100291520418 0.000451068138721)
(0.00296177852629 0.00807839936895 0.000342399324043)
(0.00317035826188 0.00635849990818 0.000342827233491)
(0.00294702436806 0.00508700571576 0.000374317787529)
(0.00217251328452 0.00458308489998 0.000500547868499)
(0.00107946366988 0.00495155951291 0.000647455473959)
(-0.000326293253905 0.0242361116019 0.00126207310843)
(-0.00115549947185 0.0239095440671 0.00135071388162)
(-0.00168135844757 0.0234717526029 0.00139480440222)
(-0.00203189737117 0.0231129008522 0.00148064790395)
(-0.00205481787148 0.0227859302851 0.00165145871648)
(-0.00173630605373 0.0221675684233 0.00176095216271)
(-0.00132935669238 0.0210141497617 0.00182017114562)
(-0.00101532571768 0.0194111604064 0.00186484036332)
(-0.000856634279971 0.0177841618884 0.00179640548583)
(-0.000767516948551 0.0162077837357 0.00170215874702)
(-0.000624299932809 0.0147179860198 0.00151495155564)
(-0.000350449029028 0.0133599962471 0.00130705277437)
(8.5159496692e-05 0.0118892284414 0.00103984443021)
(0.00065289505723 0.0103719584853 0.000805198047789)
(0.00131372937228 0.00879471344001 0.000568067395097)
(0.00186581793704 0.00723245578964 0.000380091762709)
(0.00221731545839 0.00585130449378 0.000289876087662)
(0.002177954514 0.00490367543367 0.00034312103373)
(0.00172127708231 0.00461559415754 0.000478571190201)
(0.00107175909259 0.00514821879724 0.00070030544055)
(-0.000409426306789 0.0207983577146 0.00153409887108)
(-0.00140757682909 0.0205058463121 0.00157848638558)
(-0.00207245023216 0.0200479311151 0.00158147285125)
(-0.00257277593684 0.0195225359455 0.00159455740634)
(-0.0028176980154 0.0189963061764 0.00165340858184)
(-0.00274372584484 0.0182968873174 0.00167811471352)
(-0.0024678519424 0.0173041531606 0.00166074594912)
(-0.00221915826251 0.0160645086799 0.0016069317933)
(-0.00207055832599 0.0147424706968 0.00151482832808)
(-0.00191312478562 0.0134702797963 0.00141054745945)
(-0.00168659256072 0.0122423489678 0.00126571361794)
(-0.00135553120355 0.0110717630018 0.0010617841312)
(-0.000919985105001 0.00989803242839 0.000835507135738)
(-0.000380088683993 0.00872113058521 0.000633011736476)
(0.000251399040208 0.00748747151779 0.000432687997181)
(0.000833107299304 0.00627759734293 0.000292558514052)
(0.0012506670777 0.00522679684505 0.000218042889834)
(0.00139226401639 0.00453880474985 0.000239806792874)
(0.00129378684315 0.00442667631941 0.000359245711456)
(0.00106067392057 0.00504918842131 0.00079605446745)
(-0.000494789199215 0.0168261584064 0.00176508761506)
(-0.00162813892703 0.0165319261258 0.00181836072294)
(-0.00242548281243 0.016128722 0.00175684119087)
(-0.00303681730073 0.0156236039651 0.00169718200175)
(-0.0034035133438 0.0150250541334 0.00166949320221)
(-0.00352471388096 0.0143473058932 0.00162308604506)
(-0.00344267726253 0.0135088203919 0.00156114128739)
(-0.00326404134128 0.0125382109241 0.00148089687358)
(-0.00302888221022 0.0115244026682 0.00138800265735)
(-0.0027798862254 0.0105929935977 0.00126682496378)
(-0.00250723631356 0.00970545844451 0.00113979065958)
(-0.00213290786156 0.00882829186675 0.000976382753462)
(-0.00168398337093 0.0079545743826 0.000803155976429)
(-0.00116664313628 0.00708144885531 0.000614542277731)
(-0.000582641311589 0.00618867436491 0.000425758529959)
(-1.12168842257e-05 0.00530701321501 0.000268665542699)
(0.000466706583256 0.00453872786091 0.000158622064289)
(0.000765648665698 0.00407900336471 0.000135231438775)
(0.000947083761537 0.00407299539609 0.000263651225482)
(0.000986888253001 0.00469882532983 0.00083493244277)
(-0.000594073050172 0.0124000910611 0.00193777635714)
(-0.00181847678142 0.0121013313193 0.00200868710978)
(-0.0027016746271 0.0117272985694 0.0019236554637)
(-0.00344709580323 0.0113097042234 0.00182826358951)
(-0.00393233715394 0.0108441205229 0.00173779905698)
(-0.00413260350336 0.0102619453405 0.00163530383508)
(-0.00412478293072 0.00963033378551 0.00154092157548)
(-0.00399893328566 0.00894918714183 0.00143829714007)
(-0.00374763305862 0.00826015011906 0.00134967136317)
(-0.00337789672094 0.00759293392666 0.00124914326433)
(-0.00300097240772 0.00698837946252 0.00113404386379)
(-0.00257507812063 0.00643470631573 0.00100162706589)
(-0.00209278908297 0.00588058687098 0.000841501899087)
(-0.00156757327778 0.00532617005385 0.000664241795865)
(-0.00100929665081 0.00477615511156 0.000476445265524)
(-0.000472669724737 0.00422979679741 0.000302572167688)
(2.27958304512e-05 0.00375337902875 0.000184428145282)
(0.000404608072684 0.00346939314126 0.000156024852583)
(0.000705529831011 0.00348640073104 0.000305057785274)
(0.000850356967107 0.00398332653259 0.000894530864054)
(-0.000624299643301 0.00760456842258 0.00206383002144)
(-0.00191084537732 0.00737132422227 0.00206964162005)
(-0.00288890558717 0.00708489380053 0.00199402729461)
(-0.00369397814419 0.00676769785987 0.0018969835631)
(-0.00428574565113 0.00645415087113 0.00177267276466)
(-0.00458672145975 0.00605806451865 0.00163774478704)
(-0.00458643242217 0.0056231936042 0.00150138893631)
(-0.0044223315372 0.00519872897637 0.00138487467701)
(-0.00410153096381 0.00480337883471 0.00128727274078)
(-0.00365684266502 0.00442316690122 0.00118409375347)
(-0.00314560663797 0.00409126582846 0.0010934174411)
(-0.00259965706152 0.00385395800949 0.000997891269343)
(-0.00206278085564 0.00363641093584 0.000879681732828)
(-0.00149997843284 0.00343471195589 0.000755974145291)
(-0.000936098393835 0.00324764745631 0.00061687799859)
(-0.00042739604519 0.00304559624783 0.000493065487956)
(3.85460816939e-05 0.00284543414452 0.000401148394699)
(0.000383347517752 0.00267203744964 0.000388187720207)
(0.000654903361691 0.00264075693541 0.000556037159426)
(0.000656469563076 0.00293162571699 0.00100932243787)
(-0.000576702796508 0.00265041890989 0.00210728770744)
(-0.00182687187795 0.00250070606383 0.00201663250922)
(-0.0028665508931 0.00237684991086 0.00191623301297)
(-0.00377041941678 0.00225882514452 0.00174949526418)
(-0.00443536154401 0.00212468481394 0.00156934597369)
(-0.0047801496907 0.00198265243625 0.00140457914265)
(-0.00476399575154 0.00181519067486 0.0011952768244)
(-0.00452948900661 0.00168552977845 0.00101561867086)
(-0.00411743128414 0.00156562934506 0.000904154937472)
(-0.00354395009745 0.00145639868671 0.000798207779531)
(-0.00286556741882 0.00142106040472 0.000738051459313)
(-0.00215033446831 0.00142837409288 0.000760652964421)
(-0.00149625802827 0.00146847896554 0.000771406410554)
(-0.000844386687046 0.00152778272375 0.00085104013313)
(-0.000239639577198 0.00164841507867 0.000912910056283)
(0.000231090917054 0.00171000172487 0.000970044343706)
(0.000620370912542 0.00169513980415 0.000989014745541)
(0.000824027024185 0.00157135681739 0.000995732736039)
(0.000937142616237 0.0013775200551 0.00104749799712)
(0.000527781433345 0.0012551773198 0.00132090090009)
(0.00214237459972 0.00243929480926 -0.00880464540493)
(0.00620513965731 0.00254467204774 -0.00856434400432)
(0.0101587296312 0.00246031866468 -0.00812861151518)
(0.0140050509844 0.00233381397641 -0.00761231746298)
(0.0175933397822 0.00215826265109 -0.00701168845836)
(0.0207921355762 0.00198912946834 -0.00632814052811)
(0.0234873898111 0.00180876248532 -0.00550547818708)
(0.0255895528253 0.00164590211544 -0.00452197372299)
(0.0270375179549 0.0014107573303 -0.00343723776972)
(0.0277935157016 0.00116684743633 -0.00228972032941)
(0.0278329576036 0.000916615565951 -0.0011255289007)
(0.0271355131714 0.00066716394432 2.7003795162e-05)
(0.0257276678367 0.000429696819089 0.00110435755724)
(0.0236668249225 0.000187457053572 0.00210168122764)
(0.0210395475922 -6.88345527768e-05 0.00298918459908)
(0.0179585855105 -0.000293482120717 0.00379912762403)
(0.0144880425425 -0.000471595559709 0.00452480259159)
(0.010665969323 -0.000574080494372 0.00509572392575)
(0.00656170550353 -0.000647377995544 0.00547549179759)
(0.00235137587523 -0.000693649044014 0.0056362952167)
(0.00209924688946 0.00725015981826 -0.00861978789989)
(0.00606104922664 0.00729048965347 -0.00891395759411)
(0.00991575711249 0.00698187131552 -0.0087115117299)
(0.0137721322484 0.00658756053506 -0.00833441015948)
(0.0173720267308 0.00612465254505 -0.00782705353427)
(0.02058139254 0.00562081131122 -0.00716650295564)
(0.0232901481005 0.00506803854344 -0.00632888290873)
(0.0253577193978 0.00451312682715 -0.00527493882079)
(0.0267298029507 0.00381551748494 -0.00411525811524)
(0.027432274993 0.0030848377323 -0.00288044202367)
(0.0274381147122 0.0023504943803 -0.00162373962801)
(0.0267443296556 0.00163319914752 -0.000400160815102)
(0.025367883836 0.00095464479212 0.000732400063616)
(0.0233617026027 0.000301890420498 0.00173894889884)
(0.0208028533336 -0.000330340706108 0.00266561919865)
(0.0177513172298 -0.000896112084635 0.00350351314679)
(0.0142796308196 -0.00137898578224 0.00424187295901)
(0.010463193404 -0.00169725524679 0.00483010738282)
(0.00650510470685 -0.0019190374698 0.00519842385778)
(0.00233813219105 -0.00204988352217 0.00529744518743)
(0.00196510340265 0.0120719017491 -0.00815958495097)
(0.00569041693306 0.0119459126357 -0.00864611232997)
(0.00942731981788 0.0114797981706 -0.0086593911019)
(0.0132324293423 0.0108628506895 -0.00851007738764)
(0.0167710251388 0.0101383789621 -0.00817807599285)
(0.0199113778627 0.00932180448396 -0.00762645672993)
(0.0225998907642 0.00843177301925 -0.00683392423603)
(0.0245950683986 0.00760141245651 -0.00578291341517)
(0.0258271862268 0.00651769798451 -0.00462514680883)
(0.0264611266367 0.00532625804529 -0.0033509932168)
(0.0264642911829 0.00411696346875 -0.00203539337458)
(0.0258264083057 0.00294162208014 -0.000768029892718)
(0.02453656336 0.00184355744687 0.000376334605373)
(0.0226292632291 0.000811831140404 0.00134608305419)
(0.0201679039071 -0.000163919588048 0.0022439069364)
(0.0171851777043 -0.00108021650146 0.00304144824043)
(0.0137858754745 -0.00186795970823 0.00375859790025)
(0.0100478265383 -0.00245451723446 0.00436819010179)
(0.00623609164718 -0.00280854608729 0.00474220080798)
(0.00224854818559 -0.00297013768976 0.00485924814789)
(0.00184950234351 0.0166795933 -0.00754405396748)
(0.00530072796276 0.0164949237792 -0.0081417300856)
(0.00884400713784 0.0159301042314 -0.00837181064279)
(0.0124949580094 0.0151432184133 -0.00841400039942)
(0.0158941423411 0.0141743938843 -0.00824119261319)
(0.0189129126142 0.0130694268148 -0.00781044582501)
(0.0215891477948 0.0118856630623 -0.00712922283404)
(0.0234725785306 0.0109540711549 -0.00608733040825)
(0.0244879354913 0.00950264428501 -0.00500785029615)
(0.0250202019447 0.00779193849766 -0.00374124317872)
(0.0250263187786 0.00604072157813 -0.00240732700333)
(0.0244694347958 0.00436776254245 -0.00112721912841)
(0.0232985348356 0.00285829885672 -3.10799769891e-06)
(0.021529240364 0.00153051748996 0.000892776693448)
(0.0192090585515 0.00026292352717 0.00173912094413)
(0.0163608818223 -0.000976152460015 0.00249893734939)
(0.0130987273317 -0.00206458137461 0.00317132920306)
(0.00951788733163 -0.00290580942445 0.0037738115369)
(0.00589098264607 -0.0034362319067 0.00416905207336)
(0.00212399459716 -0.00373439750369 0.00423315995768)
(0.00170764979441 0.0209247900725 -0.00674760243693)
(0.00484273880181 0.0206802507975 -0.00746267075047)
(0.00814247828558 0.0200050160358 -0.00785064447067)
(0.0115454263436 0.0190467182033 -0.00802491834056)
(0.0147053748699 0.0178558877907 -0.00796053466078)
(0.0175425440164 0.0164927757212 -0.00764521274576)
(0.0203311098695 0.01499367436 -0.00711605707465)
(0.022028183391 0.0140992421154 -0.00608018995243)
(0.0226233156978 0.012274368382 -0.00519242132945)
(0.0229847151175 0.00997887441812 -0.00399739372377)
(0.0230243067735 0.00763982735108 -0.00274998480416)
(0.0226192217126 0.00546870827501 -0.0015370300627)
(0.0217489912496 0.00370610311971 -0.000449017282082)
(0.0202495368923 0.00247817068323 0.000433458069361)
(0.0181007930685 0.0010883582455 0.00126374396563)
(0.0153890337585 -0.000421795486145 0.00192249112877)
(0.0123042919915 -0.00180965910013 0.00256030504249)
(0.00892232099742 -0.00288132183372 0.0031393236773)
(0.00549920528957 -0.00359931593114 0.00349946581125)
(0.0019647646613 -0.00403073141037 0.00356874093153)
(0.00155662657775 0.0245908683649 -0.00581991833683)
(0.00432004305011 0.0243259469959 -0.00658533248725)
(0.00729928694875 0.0235786176729 -0.00705294085553)
(0.0103742058322 0.0225046252303 -0.00728165579889)
(0.0132077407174 0.0212479050751 -0.00728013760103)
(0.0157076703834 0.0198580333258 -0.00724906765792)
(0.0186849217316 0.0185148157311 -0.0072037495988)
(0.0199409141269 0.0189791718558 -0.00640634126569)
(0.020090477034 0.0172153583165 -0.00612537721848)
(0.0203702489261 0.0144763396024 -0.00522280446259)
(0.02057848017 0.0116002260853 -0.00426548259395)
(0.0205471684981 0.00876020795551 -0.00323711799572)
(0.0204515866764 0.00613025218791 -0.00204599789695)
(0.0192154422023 0.0042986261182 -0.000599358566632)
(0.0169251385487 0.00241498707291 0.000565206518106)
(0.0142572058538 0.000552820565471 0.00124398553964)
(0.0114067417991 -0.00112142826584 0.00188487256698)
(0.00827951868609 -0.00242875118742 0.00246303094454)
(0.00509077089665 -0.00329423951317 0.00285002338877)
(0.00183580846623 -0.00383065124345 0.00283569799727)
(0.00138927827263 0.0275675323597 -0.00476762319328)
(0.00377946259109 0.0272948341635 -0.00549807839648)
(0.00640145563999 0.0265020853394 -0.00591470768578)
(0.00916373199591 0.025355791822 -0.00611352040147)
(0.0117576916431 0.0239986866374 -0.00611054425661)
(0.0140916700585 0.0222817642274 -0.00628919449332)
(0.0181863605692 0.0208548016419 -0.00585246591454)
(0.0189257538818 0.023521708762 -0.00234690482931)
(0.0178064139452 0.0210987296027 -0.00251856276393)
(0.0177119300138 0.0165677228221 -0.00250578941614)
(0.0178105610143 0.0121195434812 -0.00247133497852)
(0.0175362301542 0.00769881656023 -0.00221577081603)
(0.0175415472922 0.00432476027512 -0.00168541221183)
(0.0165316936928 0.0051699169925 -0.000439355760878)
(0.0148166655836 0.00367300799871 0.000325741956659)
(0.0128033639295 0.00170551688504 0.000834551399093)
(0.0103797528777 -0.000140640440637 0.00136899581152)
(0.00759158936585 -0.00162189177319 0.00187971269592)
(0.00468302435226 -0.00257824913871 0.00222997750121)
(0.00171778221701 -0.00319971529498 0.00218507157982)
(0.00120598917126 0.0298465718139 -0.00362328537115)
(0.00318222302554 0.0295786718696 -0.00426883607154)
(0.00538109804333 0.0288155569396 -0.00465238099129)
(0.00770859625389 0.0277290761858 -0.00489020286853)
(0.00981049070437 0.0263943960121 -0.00518570017642)
(0.0117331881408 0.0244723102767 -0.00651150982887)
(0.0177672379414 0.0224825256061 -0.00602236246844)
(0.0178360930617 0.0240596136193 0.00651821646752)