# vtk DataFile Version 2.0
sample
ASCII
DATASET UNSTRUCTURED_GRID
POINTS 6528 float
0.02 0 0 0.0199572 -0.00130806 0 0.0198289 -0.00261052 0 0.0196157 -0.00390181
0 0.0193185 -0.00517638 0 0.0189386 -0.00642879 0 0.0184776 -0.00765367 0
0.0179375 -0.00884577 0 0.0173205 -0.01 0 0.0166294 -0.0111114 0 0.0158671
-0.0121752 0 0.0150368 -0.0131869 0 0.0141421 -0.0141421 0 0.0225 0
0 0.0224518 -0.00147157 0 0.0223075 -0.00293684 0 0.0220677 -0.00438953 0
0.0217333 -0.00582343 0 0.0213059 -0.00723239 0 0.0207873 -0.00861038 0 0.0201796
-0.0099515 0 0.0194856 -0.01125 0 0.0187081 -0.0125003 0 0.0178504 -0.0136971
0 0.0169164 -0.0148353 0 0.0159099 -0.0159099 0 0.025 0 0
0.0249465 -0.00163508 0 0.0247861 -0.00326315 0 0.0245196 -0.00487726 0 0.0241481
-0.00647048 0 0.0236733 -0.00803599 0 0.023097 -0.00956709 0 0.0224218 -0.0110572
0 0.0216506 -0.0125 0 0.0207867 -0.0138893 0 0.0198338 -0.015219 0
0.018796 -0.0164836 0 0.0176777 -0.0176777 0 0.0275 0 0 0.0274411
-0.00179859 0 0.0272647 -0.00358947 0 0.0269716 -0.00536498 0 0.026563 -0.00711752
0 0.0260406 -0.00883958 0 0.0254067 -0.0105238 0 0.024664 -0.0121629 0
0.0238157 -0.01375 0 0.0228654 -0.0152782 0 0.0218172 -0.0167409 0 0.0206756
-0.018132 0 0.0194454 -0.0194454 0 0.03 0 0 0.0299358 -0.00196209
0 0.0297433 -0.00391579 0 0.0294236 -0.00585271 0 0.0289778 -0.00776457 0
0.0284079 -0.00964318 0 0.0277164 -0.0114805 0 0.0269062 -0.0132687 0 0.0259808
-0.015 0 0.0249441 -0.0166671 0 0.0238006 -0.0182628 0 0.0225552 -0.0197804
0 0.0212132 -0.0212132 0 0.0325 0 0 0.0324304 -0.0021256 0
0.032222 -0.0042421 0 0.0318755 -0.00634044 0 0.0313926 -0.00841162 0 0.0307752
-0.0104468 0 0.0300261 -0.0124372 0 0.0291484 -0.0143744 0 0.0281458 -0.01625
0 0.0270228 -0.018056 0 0.025784 -0.0197847 0 0.0244348 -0.0214287 0
0.022981 -0.022981 0 0.035 0 0 0.0349251 -0.00228911 0 0.0347006
-0.00456842 0 0.0343275 -0.00682816 0 0.0338074 -0.00905867 0 0.0331426 -0.0112504
0 0.0323358 -0.0133939 0 0.0313905 -0.0154801 0 0.0303109 -0.0175 0
0.0291014 -0.019445 0 0.0277674 -0.0213067 0 0.0263144 -0.0230771 0 0.0247487
-0.0247487 0 0.0375 0 0 0.0374197 -0.00245262 0 0.0371792 -0.00489473
0 0.0367794 -0.00731589 0 0.0362222 -0.00970571 0 0.0355099 -0.012054 0
0.0346455 -0.0143506 0 0.0336327 -0.0165858 0 0.032476 -0.01875 0 0.0311801
-0.0208339 0 0.0297507 -0.0228286 0 0.028194 -0.0247255 0 0.0265165 -0.0265165
0 0.04 0 0 0.0399144 -0.00261613 0 0.0396578 -0.00522105 0
0.0392314 -0.00780361 0 0.038637 -0.0103528 0 0.0378772 -0.0128576 0 0.0369552
-0.0153073 0 0.0358749 -0.0176915 0 0.034641 -0.02 0 0.0332588 -0.0222228
0 0.0317341 -0.0243505 0 0.0300736 -0.0263738 0 0.0282843 -0.0282843 0
0.0425 0 0 0.042409 -0.00277963 0 0.0421364 -0.00554736 0 0.0416834
-0.00829134 0 0.0410518 -0.0109998 0 0.0402445 -0.0136612 0 0.0392649 -0.016264
0 0.0381171 -0.0187973 0 0.0368061 -0.02125 0 0.0353375 -0.0236117 0
0.0337175 -0.0258724 0 0.0319532 -0.0280222 0 0.030052 -0.030052 0 0.045
0 0 0.0449037 -0.00294314 0 0.044615 -0.00587368 0 0.0441353 -0.00877906
0 0.0434667 -0.0116469 0 0.0426119 -0.0144648 0 0.0415746 -0.0172208 0
0.0403593 -0.019903 0 0.0389711 -0.0225 0 0.0374161 -0.0250007 0 0.0357009
-0.0273943 0 0.0338328 -0.0296706 0 0.0318198 -0.0318198 0 0.0475 0
0 0.0473983 -0.00310665 0 0.0470936 -0.00619999 0 0.0465873 -0.00926679 0
0.0458815 -0.0122939 0 0.0449792 -0.0152684 0 0.0438843 -0.0181775 0 0.0426015
-0.0210087 0 0.0411362 -0.02375 0 0.0394948 -0.0263896 0 0.0376843 -0.0289162
0 0.0357124 -0.0313189 0 0.0335876 -0.0335876 0 0.05 0 0
0.0498929 -0.00327016 0 0.0495722 -0.00652631 0 0.0490393 -0.00975452 0 0.0482963
-0.012941 0 0.0473465 -0.016072 0 0.046194 -0.0191342 0 0.0448436 -0.0221144
0 0.0433013 -0.025 0 0.0415735 -0.0277785 0 0.0396677 -0.0304381 0
0.037592 -0.0329673 0 0.0353553 -0.0353553 0 0.02 0 0.01 0.0199572
-0.00130806 0.01 0.0198289 -0.00261052 0.01 0.0196157 -0.00390181 0.01 0.0193185 -0.00517638
0.01 0.0189386 -0.00642879 0.01 0.0184776 -0.00765367 0.01 0.0179375 -0.00884577 0.01
0.0173205 -0.01 0.01 0.0166294 -0.0111114 0.01 0.0158671 -0.0121752 0.01 0.0150368
-0.0131869 0.01 0.0141421 -0.0141421 0.01 0.0225 0 0.01 0.0224518 -0.00147157
0.01 0.0223075 -0.00293684 0.01 0.0220677 -0.00438953 0.01 0.0217333 -0.00582343 0.01
0.0213059 -0.00723239 0.01 0.0207873 -0.00861038 0.01 0.0201796 -0.0099515 0.01 0.0194856
-0.01125 0.01 0.0187081 -0.0125003 0.01 0.0178504 -0.0136971 0.01 0.0169164 -0.0148353
0.01 0.0159099 -0.0159099 0.01 0.025 0 0.01 0.0249465 -0.00163508 0.01
0.0247861 -0.00326315 0.01 0.0245196 -0.00487726 0.01 0.0241481 -0.00647048 0.01 0.0236733
-0.00803599 0.01 0.023097 -0.00956709 0.01 0.0224218 -0.0110572 0.01 0.0216506 -0.0125
0.01 0.0207867 -0.0138893 0.01 0.0198338 -0.015219 0.01 0.018796 -0.0164836 0.01
0.0176777 -0.0176777 0.01 0.0275 0 0.01 0.0274411 -0.00179859 0.01 0.0272647
-0.00358947 0.01 0.0269716 -0.00536498 0.01 0.026563 -0.00711752 0.01 0.0260406 -0.00883958
0.01 0.0254067 -0.0105238 0.01 0.024664 -0.0121629 0.01 0.0238157 -0.01375 0.01
0.0228654 -0.0152782 0.01 0.0218172 -0.0167409 0.01 0.0206756 -0.018132 0.01 0.0194454
-0.0194454 0.01 0.03 0 0.01 0.0299358 -0.00196209 0.01 0.0297433 -0.00391579
0.01 0.0294236 -0.00585271 0.01 0.0289778 -0.00776457 0.01 0.0284079 -0.00964318 0.01
0.0277164 -0.0114805 0.01 0.0269062 -0.0132687 0.01 0.0259808 -0.015 0.01 0.0249441
-0.0166671 0.01 0.0238006 -0.0182628 0.01 0.0225552 -0.0197804 0.01 0.0212132 -0.0212132
0.01 0.0325 0 0.01 0.0324304 -0.0021256 0.01 0.032222 -0.0042421 0.01
0.0318755 -0.00634044 0.01 0.0313926 -0.00841162 0.01 0.0307752 -0.0104468 0.01 0.0300261
-0.0124372 0.01 0.0291484 -0.0143744 0.01 0.0281458 -0.01625 0.01 0.0270228 -0.018056
0.01 0.025784 -0.0197847 0.01 0.0244348 -0.0214287 0.01 0.022981 -0.022981 0.01
0.035 0 0.01 0.0349251 -0.00228911 0.01 0.0347006 -0.00456842 0.01 0.0343275
-0.00682816 0.01 0.0338074 -0.00905867 0.01 0.0331426 -0.0112504 0.01 0.0323358 -0.0133939
0.01 0.0313905 -0.0154801 0.01 0.0303109 -0.0175 0.01 0.0291014 -0.019445 0.01
0.0277674 -0.0213067 0.01 0.0263144 -0.0230771 0.01 0.0247487 -0.0247487 0.01 0.0375
0 0.01 0.0374197 -0.00245262 0.01 0.0371792 -0.00489473 0.01 0.0367794 -0.00731589
0.01 0.0362222 -0.00970571 0.01 0.0355099 -0.012054 0.01 0.0346455 -0.0143506 0.01
0.0336327 -0.0165858 0.01 0.032476 -0.01875 0.01 0.0311801 -0.0208339 0.01 0.0297507
-0.0228286 0.01 0.028194 -0.0247255 0.01 0.0265165 -0.0265165 0.01 0.04 0
0.01 0.0399144 -0.00261613 0.01 0.0396578 -0.00522105 0.01 0.0392314 -0.00780361 0.01
0.038637 -0.0103528 0.01 0.0378772 -0.0128576 0.01 0.0369552 -0.0153073 0.01 0.0358749
-0.0176915 0.01 0.034641 -0.02 0.01 0.0332588 -0.0222228 0.01 0.0317341 -0.0243505
0.01 0.0300736 -0.0263738 0.01 0.0282843 -0.0282843 0.01 0.0425 0 0.01
0.042409 -0.00277963 0.01 0.0421364 -0.00554736 0.01 0.0416834 -0.00829134 0.01 0.0410518
-0.0109998 0.01 0.0402445 -0.0136612 0.01 0.0392649 -0.016264 0.01 0.0381171 -0.0187973
0.01 0.0368061 -0.02125 0.01 0.0353375 -0.0236117 0.01 0.0337175 -0.0258724 0.01
0.0319532 -0.0280222 0.01 0.030052 -0.030052 0.01 0.045 0 0.01 0.0449037
-0.00294314 0.01 0.044615 -0.00587368 0.01 0.0441353 -0.00877906 0.01 0.0434667 -0.0116469
0.01 0.0426119 -0.0144648 0.01 0.0415746 -0.0172208 0.01 0.0403593 -0.019903 0.01
0.0389711 -0.0225 0.01 0.0374161 -0.0250007 0.01 0.0357009 -0.0273943 0.01 0.0338328
-0.0296706 0.01 0.0318198 -0.0318198 0.01 0.0475 0 0.01 0.0473983 -0.00310665
0.01 0.0470936 -0.00619999 0.01 0.0465873 -0.00926679 0.01 0.0458815 -0.0122939 0.01
0.0449792 -0.0152684 0.01 0.0438843 -0.0181775 0.01 0.0426015 -0.0210087 0.01 0.0411362
-0.02375 0.01 0.0394948 -0.0263896 0.01 0.0376843 -0.0289162 0.01 0.0357124 -0.0313189
0.01 0.0335876 -0.0335876 0.01 0.05 0 0.01 0.0498929 -0.00327016 0.01
0.0495722 -0.00652631 0.01 0.0490393 -0.00975452 0.01 0.0482963 -0.012941 0.01 0.0473465
-0.016072 0.01 0.046194 -0.0191342 0.01 0.0448436 -0.0221144 0.01 0.0433013 -0.025
0.01 0.0415735 -0.0277785 0.01 0.0396677 -0.0304381 0.01 0.037592 -0.0329673 0.01
0.0353553 -0.0353553 0.01 0.0131869 -0.0150368 0 0.0121752 -0.0158671 0 0.0111114
-0.0166294 0 0.01 -0.0173205 0 0.00884577 -0.0179375 0 0.00765367 -0.0184776
0 0.00642879 -0.0189386 0 0.00517638 -0.0193185 0 0.00390181 -0.0196157 0
0.00261052 -0.0198289 0 0.00130806 -0.0199572 0 3.58979e-11 -0.02 0 0.0148353
-0.0169164 0 0.0136971 -0.0178504 0 0.0125003 -0.0187081 0 0.01125 -0.0194856
0 0.0099515 -0.0201796 0 0.00861038 -0.0207873 0 0.00723239 -0.0213059 0
0.00582343 -0.0217333 0 0.00438953 -0.0220677 0 0.00293684 -0.0223075 0 0.00147157
-0.0224518 0 4.03852e-11 -0.0225 0 0.0164836 -0.018796 0 0.015219 -0.0198338
0 0.0138893 -0.0207867 0 0.0125 -0.0216506 0 0.0110572 -0.0224218 0
0.00956709 -0.023097 0 0.00803599 -0.0236733 0 0.00647048 -0.0241481 0 0.00487726
-0.0245196 0 0.00326315 -0.0247861 0 0.00163508 -0.0249465 0 4.48724e-11 -0.025
0 0.018132 -0.0206756 0 0.0167409 -0.0218172 0 0.0152782 -0.0228654 0
0.01375 -0.0238157 0 0.0121629 -0.024664 0 0.0105238 -0.0254067 0 0.00883958
-0.0260406 0 0.00711752 -0.026563 0 0.00536498 -0.0269716 0 0.00358947 -0.0272647
0 0.00179859 -0.0274411 0 4.93597e-11 -0.0275 0 0.0197804 -0.0225552 0
0.0182628 -0.0238006 0 0.0166671 -0.0249441 0 0.015 -0.0259808 0 0.0132687
-0.0269062 0 0.0114805 -0.0277164 0 0.00964318 -0.0284079 0 0.00776457 -0.0289778
0 0.00585271 -0.0294236 0 0.00391579 -0.0297433 0 0.00196209 -0.0299358 0
5.38469e-11 -0.03 0 0.0214287 -0.0244348 0 0.0197847 -0.025784 0 0.018056
-0.0270228 0 0.01625 -0.0281458 0 0.0143744 -0.0291484 0 0.0124372 -0.0300261
0 0.0104468 -0.0307752 0 0.00841162 -0.0313926 0 0.00634044 -0.0318755 0
0.0042421 -0.032222 0 0.0021256 -0.0324304 0 5.83341e-11 -0.0325 0 0.0230771
-0.0263144 0 0.0213067 -0.0277674 0 0.019445 -0.0291014 0 0.0175 -0.0303109
0 0.0154801 -0.0313905 0 0.0133939 -0.0323358 0 0.0112504 -0.0331426 0
0.00905867 -0.0338074 0 0.00682816 -0.0343275 0 0.00456842 -0.0347006 0 0.00228911
-0.0349251 0 6.28214e-11 -0.035 0 0.0247255 -0.028194 0 0.0228286 -0.0297507
[...]
CELL_DATA 3072
FIELD attributes 5
cellID 1 3072 int
0 1 2 3 4 5 6 7 8 9 10
11 12 13 14 15 16 17 18 19 20
21 22 23 24 25 26 27 28 29 30
31 32 33 34 35 36 37 38 39 40
41 42 43 44 45 46 47 48 49 50
51 52 53 54 55 56 57 58 59 60
61 62 63 64 65 66 67 68 69 70
71 72 73 74 75 76 77 78 79 80
81 82 83 84 85 86 87 88 89 90
91 92 93 94 95 96 97 98 99 100
101 102 103 104 105 106 107 108 109 110
111 112 113 114 115 116 117 118 119 120
121 122 123 124 125 126 127 128 129 130
131 132 133 134 135 136 137 138 139 140
141 142 143 144 145 146 147 148 149 150
151 152 153 154 155 156 157 158 159 160
161 162 163 164 165 166 167 168 169 170
171 172 173 174 175 176 177 178 179 180
181 182 183 184 185 186 187 188 189 190
191 192 193 194 195 196 197 198 199 200
201 202 203 204 205 206 207 208 209 210
211 212 213 214 215 216 217 218 219 220
221 222 223 224 225 226 227 228 229 230
231 232 233 234 235 236 237 238 239 240
241 242 243 244 245 246 247 248 249 250
251 252 253 254 255 256 257 258 259 260
261 262 263 264 265 266 267 268 269 270
271 272 273 274 275 276 277 278 279 280
281 282 283 284 285 286 287 288 289 290
291 292 293 294 295 296 297 298 299 300
301 302 303 304 305 306 307 308 309 310
311 312 313 314 315 316 317 318 319 320
321 322 323 324 325 326 327 328 329 330
331 332 333 334 335 336 337 338 339 340
341 342 343 344 345 346 347 348 349 350
351 352 353 354 355 356 357 358 359 360
361 362 363 364 365 366 367 368 369 370
371 372 373 374 375 376 377 378 379 380
381 382 383 384 385 386 387 388 389 390
391 392 393 394 395 396 397 398 399 400
401 402 403 404 405 406 407 408 409 410
411 412 413 414 415 416 417 418 419 420
421 422 423 424 425 426 427 428 429 430
431 432 433 434 435 436 437 438 439 440
441 442 443 444 445 446 447 448 449 450
451 452 453 454 455 456 457 458 459 460
461 462 463 464 465 466 467 468 469 470
471 472 473 474 475 476 477 478 479 480
481 482 483 484 485 486 487 488 489 490
491 492 493 494 495 496 497 498 499 500
501 502 503 504 505 506 507 508 509 510
511 512 513 514 515 516 517 518 519 520
521 522 523 524 525 526 527 528 529 530
531 532 533 534 535 536 537 538 539 540
541 542 543 544 545 546 547 548 549 550
551 552 553 554 555 556 557 558 559 560
561 562 563 564 565 566 567 568 569 570
571 572 573 574 575 576 577 578 579 580
581 582 583 584 585 586 587 588 589 590
591 592 593 594 595 596 597 598 599 600
601 602 603 604 605 606 607 608 609 610
611 612 613 614 615 616 617 618 619 620
621 622 623 624 625 626 627 628 629 630
631 632 633 634 635 636 637 638 639 640
641 642 643 644 645 646 647 648 649 650
651 652 653 654 655 656 657 658 659 660
661 662 663 664 665 666 667 668 669 670
671 672 673 674 675 676 677 678 679 680
681 682 683 684 685 686 687 688 689 690
691 692 693 694 695 696 697 698 699 700
701 702 703 704 705 706 707 708 709 710
711 712 713 714 715 716 717 718 719 720
721 722 723 724 725 726 727 728 729 730
731 732 733 734 735 736 737 738 739 740
741 742 743 744 745 746 747 748 749 750
751 752 753 754 755 756 757 758 759 760
761 762 763 764 765 766 767 768 769 770
771 772 773 774 775 776 777 778 779 780
781 782 783 784 785 786 787 788 789 790
791 792 793 794 795 796 797 798 799 800
801 802 803 804 805 806 807 808 809 810
811 812 813 814 815 816 817 818 819 820
821 822 823 824 825 826 827 828 829 830
831 832 833 834 835 836 837 838 839 840
841 842 843 844 845 846 847 848 849 850
851 852 853 854 855 856 857 858 859 860
861 862 863 864 865 866 867 868 869 870
871 872 873 874 875 876 877 878 879 880
881 882 883 884 885 886 887 888 889 890
891 892 893 894 895 896 897 898 899 900
901 902 903 904 905 906 907 908 909 910
911 912 913 914 915 916 917 918 919 920
921 922 923 924 925 926 927 928 929 930
931 932 933 934 935 936 937 938 939 940
941 942 943 944 945 946 947 948 949 950
951 952 953 954 955 956 957 958 959 960
961 962 963 964 965 966 967 968 969 970
971 972 973 974 975 976 977 978 979 980
981 982 983 984 985 986 987 988 989 990
991 992 993 994 995 996 997 998 999 1000
1001 1002 1003 1004 1005 1006 1007 1008 1009 1010
1011 1012 1013 1014 1015 1016 1017 1018 1019 1020
1021 1022 1023 1024 1025 1026 1027 1028 1029 1030
1031 1032 1033 1034 1035 1036 1037 1038 1039 1040
1041 1042 1043 1044 1045 1046 1047 1048 1049 1050
1051 1052 1053 1054 1055 1056 1057 1058 1059 1060
1061 1062 1063 1064 1065 1066 1067 1068 1069 1070
1071 1072 1073 1074 1075 1076 1077 1078 1079 1080
1081 1082 1083 1084 1085 1086 1087 1088 1089 1090
1091 1092 1093 1094 1095 1096 1097 1098 1099 1100
1101 1102 1103 1104 1105 1106 1107 1108 1109 1110
1111 1112 1113 1114 1115 1116 1117 1118 1119 1120
1121 1122 1123 1124 1125 1126 1127 1128 1129 1130
1131 1132 1133 1134 1135 1136 1137 1138 1139 1140
1141 1142 1143 1144 1145 1146 1147 1148 1149 1150
1151 1152 1153 1154 1155 1156 1157 1158 1159 1160
1161 1162 1163 1164 1165 1166 1167 1168 1169 1170
1171 1172 1173 1174 1175 1176 1177 1178 1179 1180
1181 1182 1183 1184 1185 1186 1187 1188 1189 1190
1191 1192 1193 1194 1195 1196 1197 1198 1199 1200
1201 1202 1203 1204 1205 1206 1207 1208 1209 1210
1211 1212 1213 1214 1215 1216 1217 1218 1219 1220
1221 1222 1223 1224 1225 1226 1227 1228 1229 1230
1231 1232 1233 1234 1235 1236 1237 1238 1239 1240
1241 1242 1243 1244 1245 1246 1247 1248 1249 1250
1251 1252 1253 1254 1255 1256 1257 1258 1259 1260
1261 1262 1263 1264 1265 1266 1267 1268 1269 1270
1271 1272 1273 1274 1275 1276 1277 1278 1279 1280
1281 1282 1283 1284 1285 1286 1287 1288 1289 1290
1291 1292 1293 1294 1295 1296 1297 1298 1299 1300
1301 1302 1303 1304 1305 1306 1307 1308 1309 1310
1311 1312 1313 1314 1315 1316 1317 1318 1319 1320
1321 1322 1323 1324 1325 1326 1327 1328 1329 1330
1331 1332 1333 1334 1335 1336 1337 1338 1339 1340
1341 1342 1343 1344 1345 1346 1347 1348 1349 1350
1351 1352 1353 1354 1355 1356 1357 1358 1359 1360
1361 1362 1363 1364 1365 1366 1367 1368 1369 1370
1371 1372 1373 1374 1375 1376 1377 1378 1379 1380
1381 1382 1383 1384 1385 1386 1387 1388 1389 1390
1391 1392 1393 1394 1395 1396 1397 1398 1399 1400
1401 1402 1403 1404 1405 1406 1407 1408 1409 1410
1411 1412 1413 1414 1415 1416 1417 1418 1419 1420
1421 1422 1423 1424 1425 1426 1427 1428 1429 1430
1431 1432 1433 1434 1435 1436 1437 1438 1439 1440
1441 1442 1443 1444 1445 1446 1447 1448 1449 1450
1451 1452 1453 1454 1455 1456 1457 1458 1459 1460
1461 1462 1463 1464 1465 1466 1467 1468 1469 1470
1471 1472 1473 1474 1475 1476 1477 1478 1479 1480
1481 1482 1483 1484 1485 1486 1487 1488 1489 1490
1491 1492 1493 1494 1495 1496 1497 1498 1499 1500
1501 1502 1503 1504 1505 1506 1507 1508 1509 1510
1511 1512 1513 1514 1515 1516 1517 1518 1519 1520
1521 1522 1523 1524 1525 1526 1527 1528 1529 1530
1531 1532 1533 1534 1535 1536 1537 1538 1539 1540
1541 1542 1543 1544 1545 1546 1547 1548 1549 1550
1551 1552 1553 1554 1555 1556 1557 1558 1559 1560
1561 1562 1563 1564 1565 1566 1567 1568 1569 1570
1571 1572 1573 1574 1575 1576 1577 1578 1579 1580
1581 1582 1583 1584 1585 1586 1587 1588 1589 1590
1591 1592 1593 1594 1595 1596 1597 1598 1599 1600
1601 1602 1603 1604 1605 1606 1607 1608 1609 1610
1611 1612 1613 1614 1615 1616 1617 1618 1619 1620
1621 1622 1623 1624 1625 1626 1627 1628 1629 1630
1631 1632 1633 1634 1635 1636 1637 1638 1639 1640
1641 1642 1643 1644 1645 1646 1647 1648 1649 1650
1651 1652 1653 1654 1655 1656 1657 1658 1659 1660
1661 1662 1663 1664 1665 1666 1667 1668 1669 1670
1671 1672 1673 1674 1675 1676 1677 1678 1679 1680
1681 1682 1683 1684 1685 1686 1687 1688 1689 1690
1691 1692 1693 1694 1695 1696 1697 1698 1699 1700
1701 1702 1703 1704 1705 1706 1707 1708 1709 1710
1711 1712 1713 1714 1715 1716 1717 1718 1719 1720
1721 1722 1723 1724 1725 1726 1727 1728 1729 1730
1731 1732 1733 1734 1735 1736 1737 1738 1739 1740
1741 1742 1743 1744 1745 1746 1747 1748 1749 1750
1751 1752 1753 1754 1755 1756 1757 1758 1759 1760
1761 1762 1763 1764 1765 1766 1767 1768 1769 1770
1771 1772 1773 1774 1775 1776 1777 1778 1779 1780
1781 1782 1783 1784 1785 1786 1787 1788 1789 1790
1791 1792 1793 1794 1795 1796 1797 1798 1799 1800
1801 1802 1803 1804 1805 1806 1807 1808 1809 1810
1811 1812 1813 1814 1815 1816 1817 1818 1819 1820
1821 1822 1823 1824 1825 1826 1827 1828 1829 1830
1831 1832 1833 1834 1835 1836 1837 1838 1839 1840
1841 1842 1843 1844 1845 1846 1847 1848 1849 1850
1851 1852 1853 1854 1855 1856 1857 1858 1859 1860
1861 1862 1863 1864 1865 1866 1867 1868 1869 1870
1871 1872 1873 1874 1875 1876 1877 1878 1879 1880
1881 1882 1883 1884 1885 1886 1887 1888 1889 1890
1891 1892 1893 1894 1895 1896 1897 1898 1899 1900
1901 1902 1903 1904 1905 1906 1907 1908 1909 1910
1911 1912 1913 1914 1915 1916 1917 1918 1919 1920
1921 1922 1923 1924 1925 1926 1927 1928 1929 1930
1931 1932 1933 1934 1935 1936 1937 1938 1939 1940
1941 1942 1943 1944 1945 1946 1947 1948 1949 1950
1951 1952 1953 1954 1955 1956 1957 1958 1959 1960
1961 1962 1963 1964 1965 1966 1967 1968 1969 1970
1971 1972 1973 1974 1975 1976 1977 1978 1979 1980
1981 1982 1983 1984 1985 1986 1987 1988 1989 1990
1991 1992 1993 1994 1995 1996 1997 1998 1999 2000
2001 2002 2003 2004 2005 2006 2007 2008 2009 2010
2011 2012 2013 2014 2015 2016 2017 2018 2019 2020
2021 2022 2023 2024 2025 2026 2027 2028 2029 2030
2031 2032 2033 2034 2035 2036 2037 2038 2039 2040
2041 2042 2043 2044 2045 2046 2047 2048 2049 2050
2051 2052 2053 2054 2055 2056 2057 2058 2059 2060
2061 2062 2063 2064 2065 2066 2067 2068 2069 2070
2071 2072 2073 2074 2075 2076 2077 2078 2079 2080
2081 2082 2083 2084 2085 2086 2087 2088 2089 2090
2091 2092 2093 2094 2095 2096 2097 2098 2099 2100
2101 2102 2103 2104 2105 2106 2107 2108 2109 2110
2111 2112 2113 2114 2115 2116 2117 2118 2119 2120
2121 2122 2123 2124 2125 2126 2127 2128 2129 2130
2131 2132 2133 2134 2135 2136 2137 2138 2139 2140
2141 2142 2143 2144 2145 2146 2147 2148 2149 2150
2151 2152 2153 2154 2155 2156 2157 2158 2159 2160
2161 2162 2163 2164 2165 2166 2167 2168 2169 2170
2171 2172 2173 2174 2175 2176 2177 2178 2179 2180
2181 2182 2183 2184 2185 2186 2187 2188 2189 2190
2191 2192 2193 2194 2195 2196 2197 2198 2199 2200
2201 2202 2203 2204 2205 2206 2207 2208 2209 2210
2211 2212 2213 2214 2215 2216 2217 2218 2219 2220
2221 2222 2223 2224 2225 2226 2227 2228 2229 2230
2231 2232 2233 2234 2235 2236 2237 2238 2239 2240
2241 2242 2243 2244 2245 2246 2247 2248 2249 2250
2251 2252 2253 2254 2255 2256 2257 2258 2259 2260
2261 2262 2263 2264 2265 2266 2267 2268 2269 2270
2271 2272 2273 2274 2275 2276 2277 2278 2279 2280
2281 2282 2283 2284 2285 2286 2287 2288 2289 2290
2291 2292 2293 2294 2295 2296 2297 2298 2299 2300
2301 2302 2303 2304 2305 2306 2307 2308 2309 2310
2311 2312 2313 2314 2315 2316 2317 2318 2319 2320
2321 2322 2323 2324 2325 2326 2327 2328 2329 2330
2331 2332 2333 2334 2335 2336 2337 2338 2339 2340
2341 2342 2343 2344 2345 2346 2347 2348 2349 2350
2351 2352 2353 2354 2355 2356 2357 2358 2359 2360
2361 2362 2363 2364 2365 2366 2367 2368 2369 2370
2371 2372 2373 2374 2375 2376 2377 2378 2379 2380
2381 2382 2383 2384 2385 2386 2387 2388 2389 2390
2391 2392 2393 2394 2395 2396 2397 2398 2399 2400
2401 2402 2403 2404 2405 2406 2407 2408 2409 2410
2411 2412 2413 2414 2415 2416 2417 2418 2419 2420
2421 2422 2423 2424 2425 2426 2427 2428 2429 2430
2431 2432 2433 2434 2435 2436 2437 2438 2439 2440
2441 2442 2443 2444 2445 2446 2447 2448 2449 2450
2451 2452 2453 2454 2455 2456 2457 2458 2459 2460
2461 2462 2463 2464 2465 2466 2467 2468 2469 2470
2471 2472 2473 2474 2475 2476 2477 2478 2479 2480
2481 2482 2483 2484 2485 2486 2487 2488 2489 2490
2491 2492 2493 2494 2495 2496 2497 2498 2499 2500
2501 2502 2503 2504 2505 2506 2507 2508 2509 2510
2511 2512 2513 2514 2515 2516 2517 2518 2519 2520
2521 2522 2523 2524 2525 2526 2527 2528 2529 2530
2531 2532 2533 2534 2535 2536 2537 2538 2539 2540
2541 2542 2543 2544 2545 2546 2547 2548 2549 2550
2551 2552 2553 2554 2555 2556 2557 2558 2559 2560
2561 2562 2563 2564 2565 2566 2567 2568 2569 2570
2571 2572 2573 2574 2575 2576 2577 2578 2579 2580
2581 2582 2583 2584 2585 2586 2587 2588 2589 2590
2591 2592 2593 2594 2595 2596 2597 2598 2599 2600
2601 2602 2603 2604 2605 2606 2607 2608 2609 2610
2611 2612 2613 2614 2615 2616 2617 2618 2619 2620
2621 2622 2623 2624 2625 2626 2627 2628 2629 2630
2631 2632 2633 2634 2635 2636 2637 2638 2639 2640
2641 2642 2643 2644 2645 2646 2647 2648 2649 2650
2651 2652 2653 2654 2655 2656 2657 2658 2659 2660
2661 2662 2663 2664 2665 2666 2667 2668 2669 2670
2671 2672 2673 2674 2675 2676 2677 2678 2679 2680
2681 2682 2683 2684 2685 2686 2687 2688 2689 2690
2691 2692 2693 2694 2695 2696 2697 2698 2699 2700
2701 2702 2703 2704 2705 2706 2707 2708 2709 2710
2711 2712 2713 2714 2715 2716 2717 2718 2719 2720
2721 2722 2723 2724 2725 2726 2727 2728 2729 2730
2731 2732 2733 2734 2735 2736 2737 2738 2739 2740
2741 2742 2743 2744 2745 2746 2747 2748 2749 2750
2751 2752 2753 2754 2755 2756 2757 2758 2759 2760
2761 2762 2763 2764 2765 2766 2767 2768 2769 2770
2771 2772 2773 2774 2775 2776 2777 2778 2779 2780
2781 2782 2783 2784 2785 2786 2787 2788 2789 2790
2791 2792 2793 2794 2795 2796 2797 2798 2799 2800
2801 2802 2803 2804 2805 2806 2807 2808 2809 2810
2811 2812 2813 2814 2815 2816 2817 2818 2819 2820
2821 2822 2823 2824 2825 2826 2827 2828 2829 2830
2831 2832 2833 2834 2835 2836 2837 2838 2839 2840
2841 2842 2843 2844 2845 2846 2847 2848 2849 2850
2851 2852 2853 2854 2855 2856 2857 2858 2859 2860
2861 2862 2863 2864 2865 2866 2867 2868 2869 2870
2871 2872 2873 2874 2875 2876 2877 2878 2879 2880
2881 2882 2883 2884 2885 2886 2887 2888 2889 2890
2891 2892 2893 2894 2895 2896 2897 2898 2899 2900
2901 2902 2903 2904 2905 2906 2907 2908 2909 2910
2911 2912 2913 2914 2915 2916 2917 2918 2919 2920
2921 2922 2923 2924 2925 2926 2927 2928 2929 2930
2931 2932 2933 2934 2935 2936 2937 2938 2939 2940
2941 2942 2943 2944 2945 2946 2947 2948 2949 2950
2951 2952 2953 2954 2955 2956 2957 2958 2959 2960
2961 2962 2963 2964 2965 2966 2967 2968 2969 2970
2971 2972 2973 2974 2975 2976 2977 2978 2979 2980
2981 2982 2983 2984 2985 2986 2987 2988 2989 2990
2991 2992 2993 2994 2995 2996 2997 2998 2999 3000
3001 3002 3003 3004 3005 3006 3007 3008 3009 3010
3011 3012 3013 3014 3015 3016 3017 3018 3019 3020
3021 3022 3023 3024 3025 3026 3027 3028 3029 3030
3031 3032 3033 3034 3035 3036 3037 3038 3039 3040
3041 3042 3043 3044 3045 3046 3047 3048 3049 3050
3051 3052 3053 3054 3055 3056 3057 3058 3059 3060
3061 3062 3063 3064 3065 3066 3067 3068 3069 3070
3071 
p 1 3072 float
0 -0.0149074 0.00937687 0.0431139 0.256045 0.39455 1.41519 2.24743 1.1212 -0.0574524 0.0710468
0.282739 1.40854 1.3988 1.40247 1.46232 1.56327 1.7893 3.04734 1.40755 1.5884
1.63508 1.75118 1.86499 2.64439 2.64261 2.66626 2.75661 2.86369 3.62951 2.84615
3.01441 3.22986 3.43539 3.64768 3.81856 4.06158 4.05954 4.13076 4.19825 4.53092
4.5864 4.64642 4.90172 5.20458 5.50842 5.79117 6.02684 5.60403 5.62727 5.72209
5.87671 6.12016 6.298 6.60826 6.96268 7.34544 7.71416 8.04321 8.3115 7.26548
7.32195 7.46766 7.68039 7.95221 8.2826 8.67784 9.11116 9.55406 9.96502 10.3167
10.592 9.04754 9.14217 9.34939 9.61852 9.95043 10.3442 10.8039 11.2929 11.7751
12.2086 12.5604 12.8218 10.9525 11.0966 11.3701 11.6712 12.0298 12.4529 12.9537
13.4768 13.9775 14.4126 14.7471 14.9741 12.9795 13.1899 13.5488 13.8343 14.1711
14.5782 15.0975 15.6384 16.1363 16.559 16.8577 17.0339 15.0974 15.4177 15.9056
16.0902 16.3323 16.6691 17.192 17.7531 18.2258 18.6248 18.8788 18.9901 17.1672
17.7272 18.43 18.3825 18.4825 18.6369 19.1613 19.7956 20.2125 20.5814 20.7799
20.8193 18.86 19.9687 21.0232 20.5565 20.2928 20.367 20.8745 21.7327 22.065
22.4035 22.5149 22.4651 0.721058 2.66199 2.84455 2.76713 2.90268 0.860638 2.53015
1.24634 2.14003 2.48812 1.92641 2.37444 2.08448 4.40774 2.69448 2.81061 2.84311
2.98412 3.27547 3.31632 4.1048 5.04833 5.71006 6.07417 3.90442 3.98085 4.20634
4.4525 4.58073 4.64059 4.5953 4.30578 4.20244 4.27846 3.67861 3.36907 6.20015
6.33401 6.46918 6.56182 6.57356 6.47533 6.22062 5.8509 5.75507 5.63036 5.46576
5.51536 8.50963 8.64176 8.72919 8.77499 8.63024 8.36111 7.84288 7.11031 6.61683
6.52881 6.99014 7.25724 10.7885 10.91 10.9769 10.9634 10.796 10.4016 9.7164
8.67165 8.96905 9.7696 10.0539 9.90454 13.0015 13.1076 13.1708 13.1264 13.0127
12.6786 12.054 11.0444 10.9839 14.8208 14.5756 14.5366 15.1216 15.2017 15.2856
15.3141 15.277 15.1205 14.7622 14.0888 13.6168 19.144 18.4992 18.964 17.1369
17.1766 17.617 17.9215 17.5239 17.5783 17.5797 17.4931 17.5081 19.7891 20.0148
23.5741 19.041 19.354 19.7783 19.8608 19.6558 19.8731 20.1625 20.7032 21.5079
23.0341 23.7781 25.6224 20.8549 20.8774 20.8836 21.206 21.516 21.7897 22.2062
23.1962 24.7995 27.0352 27.2215 29.5198 22.4551 22.3944 22.4276 22.7182 23.1166
23.2547 23.4723 24.8492 27.2079 29.938 31.1778 33.8851 -0.195871 -0.230157 -0.236096
-0.225331 -0.201856 -0.165686 -0.11652 -0.0542041 0.0211532 0.10911 0.208016 0.316632 1.22264
1.20771 1.22151 1.25829 1.31393 1.3864 1.47449 1.57709 1.69214 1.81481 1.94331
2.07216 2.39829 2.41141 2.4631 2.54928 2.65991 2.79069 2.93943 3.10361 3.27287
3.4451 3.60819 3.74915 3.6921 3.7394 3.8482 4.00132 4.18129 4.38243 4.60426
4.83679 5.07393 5.30467 5.5124 5.68061 5.06491 5.16539 5.34938 5.58639 5.84609
6.12228 6.41665 6.71896 7.02198 7.30805 7.55562 7.74357 6.50827 6.68844 6.96947
7.30905 7.65336 7.99825 8.35364 8.71638 9.07658 9.4092 9.68836 9.88922 8.00947
8.3097 8.7136 9.17801 9.60476 9.99517 10.386 10.7921 11.1986 11.5675 11.8683
12.0759 9.546 10.0314 10.5876 11.2053 11.705 12.0902 12.4737 12.8996 13.3431
13.7443 14.0557 14.2683 11.0771 11.8546 12.5915 13.3974 13.9583 14.2409 14.5381
14.9669 15.4489 15.9019 16.2267 16.4369 12.4959 13.7576 14.6939 15.7207 16.3464
16.3723 16.4501 16.889 17.4245 17.9756 18.2841 18.5255 13.5516 15.6637 16.7908
18.0466 18.7712 18.3317 18.0018 18.5238 19.1471 19.9032 20.1651 20.4647 13.8781
17.4264 18.6965 20.1284 21.0132 19.8441 18.8187 19.8327 20.5881 21.6379 21.7908
22.1682 0.437771 0.560555 0.686208 0.78787 0.863261 0.909161 0.918641 0.92514 0.940206
0.960923 0.976782 0.992711 2.19157 2.27307 2.32343 2.34451 2.40111 2.4009 2.32443
2.31985 2.33269 2.35218 2.35255 2.32828 3.84769 3.93361 3.96078 3.93805 3.9832
4.01261 3.90823 3.64125 3.59751 3.63565 3.64589 3.6019 5.7949 5.8415 5.81637
5.71604 5.5449 5.31483 5.07214 4.90391 4.92819 5.0563 5.13075 5.07309 7.85541
7.87554 7.79706 7.61985 7.34052 6.97043 6.53042 6.06821 6.24391 6.57873 6.84518
6.7392 9.9937 9.98638 9.86498 9.62309 9.24233 8.69339 7.94523 7.67027 9.33846
9.88132 10.0347 10.2377 12.1672 12.1355 11.9895 11.7294 11.3234 10.7225 9.84966
9.70862 15.2452 15.0316 13.755 13.9068 14.3455 14.2815 14.1192 13.8821 13.5306
13.0073 12.193 11.4171 15.9182 16.6499 15.859 16.1692 16.4873 16.375 16.1843
15.9995 15.769 15.4451 14.9147 14.1944 15.146 15.3625 15.9329 17.94 18.5538
18.362 18.1017 17.982 17.9017 17.8358 17.7146 17.4347 17.7555 18.267 18.7146
20.5591 20.4911 20.189 19.7831 19.7436 19.8123 19.9749 20.2052 20.3117 20.7233
21.3151 21.2017 22.2023 22.2245 21.7482 21.1242 21.2258 21.4605 21.7943 22.2827
22.6368 23.0969 23.5986 22.7438 24.1435 2.62935 2.59485 2.56123 2.52697 2.4925
2.45619 2.42084 2.39044 2.36995 2.36513 2.38206 2.42629 4.09395 4.06211 4.0455
4.03378 4.02558 4.02414 4.03074 4.0473 4.07652 4.12144 4.18504 4.26956 5.33086
5.32196 5.33464 5.36994 5.42169 5.48702 5.56397 5.65192 5.7508 5.86053 5.98062
6.10974 6.7409 6.75089 6.80753 6.90258 7.02267 7.16097 7.3117 7.47138 7.63717
7.80649 7.97651 8.14389 8.24979 8.29523 8.40958 8.57752 8.77399 8.98915 9.21161
9.43528 9.6554 9.86837 10.0709 10.2596 9.85627 9.95157 10.1327 10.3835 10.6574
10.946 11.2288 11.4988 11.7514 11.9846 12.1967 12.3859 11.5559 11.7209 11.9729
12.3155 12.66 13.0117 13.335 13.6245 13.8802 14.1061 14.3027 14.4713 13.338
13.6082 13.9267 14.3698 14.7685 15.1651 15.5015 15.7742 15.9978 16.1876 16.3456
16.4755 15.1809 15.6194 15.9831 16.5246 16.9591 17.3692 17.6883 17.8957 18.0475
18.1743 18.277 18.3551 17.0214 17.741 18.1058 18.6984 19.1804 19.553 19.8369
19.914 19.9532 19.9948 20.0358 20.0513 18.6708 19.8902 20.2154 20.6824 21.3279
21.5921 21.873 21.7356 21.6335 21.5803 21.5685 21.5248 19.872 21.88 22.4556