/*--------------------------------*- C++ -*----------------------------------*\
| =========                 |                                                 |
| \\      /  F ield         | OpenFOAM: The Open Source CFD Toolbox           |
|  \\    /   O peration     | Version:  v1606+                                |
|   \\  /    A nd           | Web:      www.OpenFOAM.com                      |
|    \\/     M anipulation  |                                                 |
\*---------------------------------------------------------------------------*/
FoamFile
{
    version     2.0;
    format      ascii;
    class       volScalarField;
    location    "0.8";
    object      ddt0(k);
}
// * * * * * * * * * * * * * * * * * * * * * * * * * * * * * * * * * * * * * //

dimensions      [0 2 -3 0 0 0 0];

internalField   nonuniform List<scalar> 
11640
(
-0.0122384144085
-0.0122790107691
-0.012215238864
-0.0121474714698
-0.0119622572878
-0.0116818450745
-0.0115581728988
-0.011611907365
-0.0117370030238
-0.0118472512456
-0.0119486678474
-0.0120436464545
-0.0121346374727
-0.0122003091621
-0.012186120663
-0.0120878078197
-0.0120297953793
-0.0120639183712
-0.0121209620874
-0.0120908572173
-0.0122737823176
-0.0141397678293
-0.0142677996268
-0.0129908441833
-0.0110197840723
-0.0095576227149
-0.00934772477715
-0.0101278561122
-0.0112253466027
-0.012279055566
-0.0133012868787
-0.0142976584752
-0.0151123153298
-0.0156809981809
-0.015864151603
-0.0155621282607
-0.0146965931877
-0.0142135354105
-0.0136915021758
-0.0120805955716
-0.0121989347473
-0.0142300572575
-0.0127945448604
-0.00823636400275
-0.00347300908128
-0.00102272269956
-0.00162559203911
-0.00438125146569
-0.00764496019923
-0.0108211527566
-0.013928700709
-0.016142661092
-0.0183016538792
-0.0201107230853
-0.0208223387262
-0.019976283792
-0.0179695440437
-0.0159068028811
-0.0140056566865
-0.0120175129445
-0.0121098005139
-0.012763694082
-0.00765672886694
0.000953324747765
0.00791498676309
0.0102483688935
0.00770872647546
0.0022417496477
-0.00376459040399
-0.00955425409383
-0.0147870465148
-0.0187373963745
-0.0226698839161
-0.0260691806268
-0.0277386331109
-0.026727802333
-0.0232008520828
-0.0185509047883
-0.0147524139126
-0.0119963315098
-0.0118398677961
-0.0101853187202
-0.000947622749252
0.0108840757364
0.0188754121095
0.0199085214378
0.0147280242681
0.00642563437806
-0.0019126369507
-0.00980154152395
-0.0164519248241
-0.0217938266054
-0.0271458152998
-0.0320424315293
-0.0348949848774
-0.0341785411974
-0.0296555776166
-0.0226908920456
-0.0162313076096
-0.0121761744151
-0.0114341182856
-0.00752848862686
0.00477056910308
0.0184713866969
0.026248027255
0.025085755762
0.0169848939232
0.00652204993076
-0.00274582391066
-0.0112875859666
-0.0181291663594
-0.0238660633839
-0.0298312389728
-0.0359888966727
-0.0402638866838
-0.0403272726668
-0.0354464428752
-0.0269014300094
-0.0180533137694
-0.0126248887307
-0.0111629451437
-0.00598353739898
0.00768884302059
0.0218863900374
0.0287099802985
0.0252801672732
0.0145070461207
0.00240581628006
-0.00617907012854
-0.0137631265866
-0.0188650264736
-0.0239159928194
-0.0293920582717
-0.0366893301604
-0.0426898080806
-0.0438690935891
-0.0391083945122
-0.0297403319718
-0.0194682888357
-0.0128671794074
-0.0111006453003
-0.00564424401818
0.00825797830519
0.0223224649334
0.0284915365947
0.0239966202907
0.0119108847501
2.78931959468e-05
-0.00658436803247
-0.0118852744902
-0.0164354872989
-0.0206470868658
-0.0258864192565
-0.0348641278192
-0.0426583975011
-0.0448644130028
-0.0403782485039
-0.0307730912452
-0.0199945429517
-0.0129144572273
-0.0111039401601
-0.00565350369831
0.00820401206039
0.0221324896085
0.028053236307
0.023189717377
0.0109153018588
-0.00055125366407
-0.00674656071554
-0.0116129645048
-0.0158413853781
-0.0198461803618
-0.0249676750883
-0.0343573060163
-0.0426144888825
-0.0451015854478
-0.040675546143
-0.0310005452209
-0.0200996325611
-0.0128883440258
-0.0111005609026
-0.00562718659352
0.00826071909012
0.022233518125
0.0282231105954
0.0234633605402
0.0112706365954
-0.000251697840979
-0.00651310911737
-0.0114168441143
-0.0157270582206
-0.0197692379403
-0.0249866357758
-0.0346305315628
-0.0430213508991
-0.0455050331538
-0.0410166487358
-0.0312466327934
-0.0202241821234
-0.012886576907
-0.0110934860507
-0.00557181102839
0.00841894354124
0.0226147846457
0.0290376891861
0.0249269617625
0.0132427043375
0.00146275071147
-0.00543091863597
-0.0108985533577
-0.0157007626052
-0.0200802727929
-0.0256434177424
-0.0355606943332
-0.0437853924407
-0.046021670352
-0.0413664696542
-0.0314891508761
-0.0203594303891
-0.0129061673931
-0.0111902120977
-0.00609507426712
0.00746048855453
0.0216324565187
0.0288080605694
0.0263316961446
0.0168918287347
0.00676422908463
-0.00177173462571
-0.00933128421787
-0.0166136101408
-0.0221095855265
-0.0287482413843
-0.0378446280317
-0.0447429536663
-0.0462061692441
-0.0412443584665
-0.0313415655362
-0.0202889605642
-0.0129035873977
-0.0115154628829
-0.00794500606749
0.00376865873323
0.0169218718018
0.0245460102831
0.0238886086849
0.0166788025229
0.00721050374933
-0.00221026917204
-0.0109823999946
-0.0184351870102
-0.0248810076191
-0.0317199719827
-0.0391345574847
-0.0442066268517
-0.0445030875426
-0.0392000949779
-0.0296664514954
-0.0194483117537
-0.0127734643357
-0.0119062254761
-0.0106124849866
-0.00219104275359
0.00877850652106
0.016192954159
0.0171324914915
0.0122276871683
0.00437968651823
-0.00416862517656
-0.0124031061982
-0.0194307480997
-0.0254678776295
-0.0315638117388
-0.0373035345005
-0.0406473730719
-0.0398714791993
-0.0345704982958
-0.0261706424641
-0.0178701688776
-0.012559734813
-0.0120807367544
-0.0128262748227
-0.00847692991187
-0.000790452530844
0.00539712855817
0.00716833711775
0.00430110580752
-0.00135335204142
-0.00780111424316
-0.0142957780931
-0.0193750085797
-0.0240051199238
-0.0286100169521
-0.032649251349
-0.0345566252132
-0.0331340822424
-0.0284309383387
-0.0220013366418
-0.0164141658837
-0.0124779233768
-0.0121032408002
-0.0138699037466
-0.0128024495064
-0.00904324995878
-0.00500491252085
-0.0032411649095
-0.00447772867558
-0.0077657207196
-0.011724232688
-0.0157803039915
-0.0185614616097
-0.0213980902543
-0.0242488558198
-0.0266338928265
-0.0274023982714
-0.0258749149536
-0.022483337055
-0.018728643061
-0.0157563765549
-0.0125707013346
-0.0121310714169
-0.0142095933578
-0.0144591469496
-0.0134734327911
-0.0120007740865
-0.0110821459193
-0.0114498339127
-0.0128674763064
-0.0146815337288
-0.0161168173464
-0.0173366810051
-0.018620614947
-0.0199449041
-0.0209831223579
-0.021102996663
-0.0200988330092
-0.0185889922061
-0.0173690902821
-0.0158047507348
-0.0126748249015
-0.0121837077596
-0.0143199156717
-0.0147244765598
-0.0144999321499
-0.0142168538222
-0.0140935570376
-0.0143266959531
-0.0148288726548
-0.0150978862189
-0.0154239960106
-0.0158103882472
-0.0162457994689
-0.0167196335439
-0.0171061092473
-0.017204463283
-0.0171076970885
-0.0171518510219
-0.0170489494009
-0.0158424580214
-0.0127674677295
-0.0122316718778
-0.0138798297114
-0.014052606171
-0.0138727004976
-0.0138014923904
-0.0138919939863
-0.0140850211161
-0.0140560683813
-0.0141055325874
-0.0142200805212
-0.0143742969581
-0.0145653312573
-0.0147882172832
-0.0150270717552
-0.0152772265863
-0.015539035091
-0.0157826243384
-0.0158232175055
-0.0150975462564
-0.0128099268548
-0.012178234932
-0.0121431535404
-0.0120714462502
-0.0120346729581
-0.0120541901875
-0.0121128755769
-0.0121288977783
-0.0121030890608
-0.0121082671745
-0.012146352008
-0.0122059248242
-0.0122776704622
-0.0123597866253
-0.0124471044496
-0.0125309499007
-0.0126132531531
-0.0126971202627
-0.0127796175383
-0.0128184799755
-0.0127762995597
-0.0177637893062
-0.0186065334615
-0.0186953348587
-0.0185077664446
-0.0181086234746
-0.0175591585717
-0.0172267212311
-0.0172297538751
-0.0173415926475
-0.0174252215294
-0.0174858334042
-0.0175343827584
-0.0175760995727
-0.0176913573578
-0.0179811071884
-0.0183600981677
-0.0186118302465
-0.0187229596331
-0.0185905393888
-0.017681139997
-0.0186703320075
-0.0270936988923
-0.0284368007847
-0.0268606729527
-0.0240402965918
-0.0217395394498
-0.0208150356975
-0.0211444938126
-0.0218722916737
-0.0225299601062
-0.023129831142
-0.0237285729123
-0.0244090799691
-0.025195262287
-0.0261402821623
-0.0270179813776
-0.0283761821469
-0.0289012213404
-0.0270149151152
-0.0184145755999
-0.0187621166059
-0.0284412879128
-0.0284654622613
-0.0242101967443
-0.0197263930685
-0.0170396349375
-0.0165698555317
-0.0178189997256
-0.0195467234336
-0.0211374955466
-0.0226805859019
-0.0247432707617
-0.026513711555
-0.0279777537906
-0.0290978511117
-0.0301348608265
-0.0306723287716
-0.0303585471049
-0.0282537188792
-0.0184060623236
-0.0185378717954
-0.0272297878074
-0.0250013304028
-0.0192894842727
-0.0144677694357
-0.0124827876013
-0.0133411348097
-0.0160342727452
-0.0190310468689
-0.0217507017435
-0.0246484769649
-0.027814195921
-0.0307309610088
-0.032969199153
-0.0342582097675
-0.0344793839696
-0.0336948784204
-0.0317314876916
-0.028004082986
-0.0181920097316
-0.0181437320033
-0.0255196408103
-0.0218491535982
-0.0156389621479
-0.0114623470123
-0.0111709227134
-0.0140997176787
-0.0184936061387
-0.0225298185719
-0.0260223942031
-0.0297356403458
-0.033717351112
-0.0373689816288
-0.039981944144
-0.0412181318218
-0.0408284394286
-0.0386123417785
-0.0346072217842
-0.0288807594195
-0.0180213859137
-0.0179287152273
-0.0245215540498
-0.0203527093209
-0.014383158132
-0.0113389155421
-0.0130342994733
-0.0183322177025
-0.0243861233934
-0.0286991692198
-0.0320946249817
-0.035782377036
-0.0398088893833
-0.0436186261524
-0.0463629122567
-0.0478242649848
-0.0472529474618
-0.0441426601758
-0.0384499656187
-0.0304603321058
-0.0181088861432
-0.017951053578
-0.0245919725787
-0.0207148939926
-0.0153254915915
-0.0130054684011
-0.0155129119879
-0.0221285086867
-0.0288187152885
-0.0322334846904
-0.0337600017943
-0.036733139122
-0.0397135034642
-0.0433279526716
-0.048316391715
-0.0517326284988
-0.0520842239716
-0.0487807007758
-0.0419490332625
-0.0322737183169
-0.0184657647409
-0.0180176861077
-0.0249133564424
-0.0213468429134
-0.0161772910747
-0.0136127363042
-0.0149778305547
-0.0203367581545
-0.0245017138124
-0.0270104768813
-0.0272564338395
-0.0278220318685
-0.0293529784552
-0.0328147748145
-0.0439786876159
-0.0519840834457
-0.0539694292586
-0.0509498317651
-0.0436776752329
-0.0332491368657
-0.0186335343457
-0.0180311133942
-0.0249631801492
-0.0214018092785
-0.0161641835101
-0.0132981151488
-0.0139183337892
-0.018410855815
-0.0217446948868
-0.0240547984118
-0.0241602120084
-0.0246012897113
-0.0259101283986
-0.0296692187531
-0.0420446960863
-0.0518403503161
-0.054445755705
-0.05152532035
-0.0441559247553
-0.0335546290719
-0.0187225041237
-0.0180333736094
-0.0249494934669
-0.0213282038809
-0.0159621076514
-0.0127908039375
-0.0128246015896
-0.0167241979398
-0.020024039715
-0.0224783977983
-0.0226877304959
-0.0231091621532
-0.024593621524
-0.0287649859532
-0.0417917983184
-0.0522805719508
-0.0550661766165
-0.0520756195188
-0.0445907133119
-0.0338743612332
-0.0188344425127
-0.0180242677027
-0.0248805596306
-0.0211313924101
-0.0155639948751
-0.012022877471
-0.0112616093676
-0.01343706285
-0.0157340785889
-0.0185892569338
-0.0195586741221
-0.0207065176148
-0.0231387995397
-0.0283050074938
-0.0423113595178
-0.0529480398204
-0.0556225444959
-0.0525384263752
-0.044985011157
-0.0341444605977
-0.018962076004
-0.0181129572246
-0.0254062537054
-0.0221028245445
-0.0167685985845
-0.0131722930359
-0.0119881618124
-0.0123536640634
-0.0145659389137
-0.0181522319332
-0.0210087714157
-0.0237144228187
-0.0284786458051
-0.0350477761433
-0.046419439488
-0.0546734662907
-0.0569087581976
-0.0535405325734
-0.0456975014006
-0.0345519587845
-0.0191401308227
-0.0183079821561
-0.0267285493124
-0.0247486791924
-0.0203320688323
-0.017141720403
-0.0161522149981
-0.0168274290415
-0.0188721383777
-0.023230646768
-0.0276594032579
-0.0325494132765
-0.0379293091609
-0.0441430038703
-0.0517792575253
-0.0571543503697
-0.0580523989647
-0.0540415631916
-0.0458387920205
-0.0345751502067
-0.0192675608355
-0.0184600450348
-0.0280598601582
-0.0278500916441
-0.024756428113
-0.0222821434159
-0.0217929347341
-0.0231715331084
-0.0260779587439
-0.0303117338925
-0.0346812309339
-0.0394671094807
-0.0445175814676
-0.0497733620264
-0.0547622449692
-0.0575729469912
-0.0568366724435
-0.0522291320655
-0.0441384902568
-0.0335984412248
-0.0191638371206
-0.0184826848301
-0.028807006116
-0.0304655662837
-0.0290229426427
-0.0275216172543
-0.0274509939019
-0.0289551399894
-0.0317007317193
-0.0351945597863
-0.0387526813297
-0.0425740421864
-0.0465343407641
-0.0504606708315
-0.0536752908335
-0.0548262920921
-0.0531288292542
-0.0483319005593
-0.0410258681898
-0.0321265250672
-0.0189511549966
-0.0185714184588
-0.0290336441647
-0.0316070875828
-0.0318660382728
-0.0314676103467
-0.0317557090949
-0.0329817899908
-0.0349480415646
-0.0373156164433
-0.0395998716766
-0.042217855575
-0.0448351017753
-0.0474419915644
-0.0493799263914
-0.0495336537868
-0.0473860347916
-0.0430991800701
-0.0374301771993
-0.0309636493019
-0.0189763503457
-0.0186940547114
-0.0292880031474
-0.0315168366232
-0.0321350469017
-0.0327373234062
-0.0334275862931
-0.0343578772418
-0.0355035736303
-0.0367760096911
-0.0379943970664
-0.039407201008
-0.040801314698
-0.0421758616317
-0.0430470030454
-0.0426298419517
-0.0407102958728
-0.0378092195324
-0.0348648871704
-0.0305922860002
-0.0190663361682
-0.0188192233558
-0.0291851259892
-0.0311269284264
-0.0310059905766
-0.0308578567334
-0.0312797690515
-0.0319324942498
-0.032509289949
-0.0330443974609
-0.033638046028
-0.0342363845605
-0.0348172590844
-0.0353903257643
-0.0357110601604
-0.0354394913222
-0.034773183292
-0.0343427786293
-0.0335161209825
-0.0300824611995
-0.0191074629677
-0.0186573290393
-0.0271064558189
-0.0284148847853
-0.0281846115296
-0.0278487264796
-0.0277563594479
-0.0278723600965
-0.0281249466076
-0.0283979138288
-0.0286713242584
-0.0289335974179
-0.029186895203
-0.0294385574668
-0.0296826960078
-0.0299462931863
-0.030222762038
-0.0304210898002
-0.0300127456266
-0.0275226123082
-0.0188677294898
-0.017719156058
-0.0183360356946
-0.0182790329869
-0.018036563681
-0.0178868159262
-0.0178496703562
-0.017906684208
-0.0179916050175
-0.0180939349482
-0.0182022344624
-0.0183187766984
-0.0184426813485
-0.0185547385309
-0.0186736896702
-0.0187953571884
-0.0189187596594
-0.0190447019859
-0.0191128217218
-0.0189026722604
-0.0182175763233
-0.0186863350369
-0.0201388761266
-0.0204657203988
-0.0202556425998
-0.0197215725238
-0.0190485128751
-0.0185841093994
-0.0186137543095
-0.0186947202306
-0.0187479477821
-0.0187701951897
-0.0187741163535
-0.0187667293292
-0.0188815908362
-0.0193237751824
-0.0199645170906
-0.0204136558142
-0.0205527967034
-0.020134648705
-0.0185441625237
-0.0202416079858
-0.0318073728682
-0.033851996555
-0.0321700346973
-0.0288902573289
-0.0262311591557
-0.0251463060132
-0.0253013579484
-0.0258584865271
-0.0263084288908
-0.0266647016251
-0.0269550704823
-0.0271719429581
-0.0276475009493
-0.0290133253479
-0.0311478141716
-0.03345769166
-0.0344641396594
-0.031937638525
-0.019926716631
-0.020592544519
-0.0338635917974
-0.0345762338626
-0.0304047372269
-0.0260114012468
-0.0232238953739
-0.0225198772564
-0.0233040519768
-0.0244299791007
-0.0253809805371
-0.0262134554454
-0.0271813604201
-0.0280146311631
-0.0288377706421
-0.0301226157476
-0.0321799261558
-0.0343148088556
-0.0357739958773
-0.0336035693207
-0.020114059319
-0.0203544819018
-0.0328303573975
-0.0317331407958
-0.026957471668
-0.0227052467996
-0.0208333289343
-0.0213703102401
-0.0232469207132
-0.0251857103405
-0.0267896405208
-0.0282673917391
-0.0299128583761
-0.0312716104156
-0.0322695391611
-0.033188317856
-0.0342544914274
-0.0353790914859
-0.0356915144677
-0.0329477353364
-0.0197585381716
-0.0199065603007
-0.0313849016753
-0.0297208151055
-0.0251696348671
-0.0220086544323
-0.0219943551582
-0.0245520352873
-0.0278042637433
-0.0304335658546
-0.0324824517072
-0.0344670906664
-0.036474096749
-0.0381540871146
-0.0389655467369
-0.0391615163071
-0.039037220478
-0.038523063662
-0.0370256745449
-0.0326892777701
-0.0193308677979
-0.019727110675
-0.0309273948649
-0.0294895722711
-0.0257081194236
-0.0238735895731
-0.0257905644025
-0.0307045384647
-0.0352765722878
-0.0380742030131
-0.0399164027791
-0.0418291491947
-0.0438532184681
-0.045619128551
-0.0460834141902
-0.0458030576687
-0.0449143016676
-0.0431619067414
-0.0399210705845
-0.0338778458608
-0.0192651671725
-0.0198109694158
-0.031538261742
-0.0308699206357
-0.0279039419362
-0.0265724174162
-0.0285589969698
-0.0338170301637
-0.036294794048
-0.0388073091708
-0.0397953279801
-0.0405788512753
-0.0415807499993
-0.043619819237
-0.0474619940685
-0.0496939501043
-0.0498182623079
-0.047769678793
-0.0432303129354
-0.0354599058505
-0.0194394726141
-0.0199055759487
-0.0321111181684
-0.0319057796671
-0.0291816108237
-0.0273185414986
-0.0270478372092
-0.0294352089131
-0.0157320780065
-0.0192820062116
-0.0196346031907
-0.0193911512777
-0.0190958073335
-0.0212658720803
-0.0402792283211
-0.0495852140532
-0.0518349330561
-0.0501126206451
-0.0450348444289
-0.036398029044
-0.0195891101616
-0.0199214095487
-0.0321865271419
-0.0319530202865
-0.0290784836209
-0.0267036769323
-0.0251686690144
-0.0253510983463
-0.0103479949459
-0.01398703763
-0.0143431550466
-0.0139841806877
-0.0136569010588
-0.0166072403846
-0.0371639306713
-0.0493617946091
-0.0523280461231
-0.0507060079609
-0.0454900431338
-0.0366479303639
-0.0196135178687
-0.0199199773318
-0.0321806152216
-0.0318679498376
-0.0288146714832
-0.0260098401444
-0.0235957477447
-0.0225612638706
-0.00762118248725
-0.0111453421385
-0.0118742371696
-0.0118908477577
-0.0119383228838
-0.0154982057385
-0.0366768335627
-0.049853490522
-0.0530045317016
-0.0512847461904
-0.0459116855485
-0.0368791531161
-0.0196670118683
-0.0199033310361
-0.0320956465143
-0.0316550803632
-0.0284025489598
-0.0252237999096
-0.0219076654852
-0.0177408673443
-0.00099498358421
-0.00414331203947
-0.00549148858321
-0.00636989920861
-0.00777675767593
-0.0131996909431
-0.0369185202729
-0.0505471222583
-0.0536407922618
-0.0517454728114
-0.0462286323425
-0.0370538372882
-0.0197457440931
-0.0199959794033
-0.0326643071353
-0.0327382462075
-0.0298370373894
-0.0268213455281
-0.0236919110372
-0.0193274377372
-0.018324545779
-0.0200766925703
-0.0214633374969
-0.022447767435
-0.0239947454075
-0.0295551951839
-0.0435325602691
-0.0526766003039
-0.0554388665336
-0.0532553037896
-0.0472969577964
-0.0375903235299
-0.0199173749263
-0.0201898871506
-0.0339339152407
-0.0353096209455
-0.0334419040868
-0.0311713171515
-0.0290386572759
-0.0268649938218
-0.0258622783247
-0.0284716093022
-0.031520362356
-0.0346659918806
-0.0382697733801
-0.0432279625033
-0.0507036513772
-0.0564449479226
-0.0579594664475
-0.0550486969394
-0.0484034297192
-0.0380639075514
-0.0200987474405
-0.0202893862689
-0.0349355120447
-0.037777072203
-0.0372045120424
-0.0360588247542
-0.0353937368148
-0.0354527398919
-0.0366607252466
-0.039340864057
-0.04227736773
-0.0453705564713
-0.0486921102155
-0.0524687071838
-0.0565038940097
-0.0590696178498
-0.0586485726395
-0.0549105139024
-0.0478987911396
-0.0375799191038
-0.0200688755043
-0.0202310828926
-0.0352281520559
-0.0393928830924
-0.040179599866
-0.0401664039474
-0.0405312374892
-0.0415440918331
-0.0432418781014
-0.0455216648716
-0.047873623481
-0.0503428589106
-0.0529066539346
-0.0555576143377
-0.057825040933
-0.058581895
-0.0570016166171
-0.0527203889954
-0.0458817789696
-0.0363547448155
-0.0198928879446
-0.0203225600782
-0.0351036364036
-0.0394495033957
-0.04137396442
-0.0422817346156
-0.0432365299947
-0.0444263434345
-0.0457971683175
-0.0473525486046
-0.0488103011326
-0.0505787737619
-0.0522799911171
-0.053990477571
-0.0552586796817
-0.0550982222402
-0.0529264997912
-0.0487344901907
-0.0427798073547
-0.0351729061222
-0.0199467883264
-0.020501671158
-0.0351651799417
-0.0384584064625
-0.0399812048798
-0.041452754955
-0.0426942578864
-0.0437597742276
-0.0446555886068
-0.0454932665724
-0.0463599639429
-0.0473013204059
-0.0482271710763
-0.049141406998
-0.0496558813636
-0.0490075403711
-0.0468792670934
-0.0435799936084
-0.0399544144068
-0.0346340431643
-0.0200974343778
-0.0206078202804
-0.0348525518455
-0.0375279677367
-0.0375656771829
-0.0375527317839
-0.0382054762159
-0.0389543258898
-0.0393827770622
-0.0398116479733
-0.0402230960143
-0.0406351521278
-0.0410338990341
-0.0414299447277
-0.0415735145679
-0.0410700961633
-0.0401181079784
-0.0393716246678
-0.038152552778
-0.0338465546813
-0.0201119612759
-0.020148115152
-0.0319074282604
-0.0338385137451
-0.0336229530638
-0.0330945222843
-0.032793527621
-0.0327457495442
-0.0328724813116
-0.0330414933617
-0.033215222184
-0.0333831273843
-0.033543047852
-0.0337090040577
-0.0338920432819
-0.0341200537637
-0.0343779007126
-0.0344939525739
-0.0337995835738
-0.0305114747341
-0.0196546906174
-0.0185461291909
-0.0197529534707
-0.0198644623826
-0.0195123922415
-0.0192104415015
-0.0190547264205
-0.0190200680745
-0.0190400545374
-0.0190914366715
-0.0191583366509
-0.0192536783432
-0.0193629859414
-0.0194891067836
-0.0196218883346
-0.019766366068
-0.0199342949138
-0.020111436247
-0.0201603657182
-0.0197407895519
-0.0187805296687
-0.0188354706063
-0.0205543074237
-0.0210307722204
-0.0208264065134
-0.0202235434041
-0.0195066264561
-0.0189716386463
-0.0190244614866
-0.0191369064006
-0.0191587486597
-0.0191485774353
-0.0191142386652
-0.0190638972724
-0.0191724012483
-0.0197018846249
-0.0204862355606
-0.0210368703468
-0.0211808483514
-0.0205641212848
-0.0186392310575
-0.0206755410167
-0.0336269302588
-0.03609999412
-0.0343844356505
-0.0308545996181
-0.0280266812991
-0.026986143184
-0.027095308265
-0.0275185930037
-0.0278399721152
-0.0280276108624
-0.028099228139
-0.0280805142464
-0.0284977335762
-0.0301758936699
-0.0328651299538
-0.0357178472084
-0.0369070558771
-0.0339719624262
-0.020351050202
-0.0211957408034
-0.0361052471845
-0.0371613180862
-0.0330135756719
-0.0287012082851
-0.0259701018356
-0.0252922759233
-0.0258745202069
-0.0265885352455
-0.0271039514774
-0.0274556086168
-0.0277182999536
-0.0279945974174
-0.0285214796233
-0.0300784665556
-0.0328989999534
-0.0359840993705
-0.0382416197423
-0.0358946728171
-0.0206875921723
-0.0209783031739
-0.0351392098622
-0.034549684144
-0.0302575441464
-0.0264248469352
-0.0247903733021
-0.0253341558495
-0.0267539233045
-0.0279651742188
-0.0288121781557
-0.0294474149799
-0.0301109996095
-0.0305028694757
-0.030928075712
-0.0318961190996
-0.0336790596084
-0.0360343668841
-0.037271475702
-0.0351290427225
-0.0202330665389
-0.0204907779391
-0.0337061454556
-0.0330166848422
-0.0294262262961
-0.0270201465224
-0.0273601719884
-0.0298196464869
-0.0322246094191
-0.0338191290454
-0.0348213505873
-0.0357406276397
-0.0365522625679
-0.037066528378
-0.0371942838189
-0.0370560081038
-0.037415653592
-0.0381490547797
-0.038136410556
-0.0345170284496
-0.01965735511
-0.0202841677687
-0.0334227763341
-0.0333982745907
-0.0309568539513
-0.0300351910752
-0.0322080675624
-0.036793348742
-0.0393561940436
-0.0409847864038
-0.0415659361635
-0.042328110133
-0.0431678689725
-0.0437608188492
-0.0444604520068
-0.0433306454882
-0.0426536601092
-0.0421216150293
-0.0404830563423
-0.0353847874464
-0.0195132984232
-0.0203661209333
-0.0342767814621
-0.0353255054592
-0.033894842482
-0.0333947539019
-0.0350630966618
-0.0392399352614
-0.023190888882
-0.0250384024587
-0.0246037053349
-0.023864918994
-0.0231322322257
-0.0238228834458
-0.0454152421307
-0.0467048764898
-0.0472036377822
-0.0464851789713
-0.043575495868
-0.0368063359849
-0.019634707833
-0.0204605210855
-0.0349835182234
-0.0366006097007
-0.0354545740425
-0.0343074359732
-0.0328250040856
-0.0257053148735
-0.0262094610453
-0.0453831931758
-0.0489785112319
-0.0487506802227
-0.0453089072732
-0.037659854087
-0.0197302860293
-0.0204763131689
-0.0350834521699
-0.0366471204421
-0.0352983366107
-0.0335326872076
-0.0305313736543
-0.0206894066952
-0.0213339868787
-0.0447684992039
-0.049315230859
-0.0492272237701
-0.0456551431049
-0.0378016344623
-0.0196921679202
-0.020474107739
-0.0350784903588
-0.0365487049043
-0.0349846970011
-0.032701669041
-0.0286255132203
-0.0173108077674
-0.0201588876787
-0.0451380898415
-0.0499366436352
-0.0497282767232
-0.0459705768747
-0.0379168011551
-0.0196877618426
-0.0204530377789
-0.034981395533
-0.0363174015802
-0.0345498279591
-0.0318817880932
-0.026802193299
-0.0110039311485
-0.0189687225642
-0.0460997339699
-0.0505973788194
-0.0501198797536
-0.0461703477262
-0.0379580374252
-0.0197010509281
-0.0205555742525
-0.0355868315902
-0.037477938651
-0.0361205594674
-0.0337396037516
-0.0295770792866
-0.0219015360136
-0.0140007783078
-0.0148478660425
-0.0160578819296
-0.0166842668282
-0.0176143497155
-0.0216350764662
-0.0402710107964
-0.0495325136868
-0.0528798441155
-0.0518828701215
-0.0473404100686
-0.0384578990331
-0.0198197350264
-0.0207755397421
-0.0368889215904
-0.0400666951414
-0.0397836010758
-0.0382853447508
-0.0356564958941
-0.0316590077713
-0.0289574787406
-0.0306180702627
-0.0328289569718
-0.0348700165913
-0.0373811024784
-0.0413277824757
-0.0482424095931
-0.0541834028815
-0.0562934538993
-0.054422843573
-0.0488965732024
-0.0390370082488
-0.0199353217976
-0.0208818444656
-0.0378201846848
-0.042280439586
-0.0432361867889
-0.043050056468
-0.042460300239
-0.0418375939426
-0.0420186151822
-0.0436332905646
-0.0455787489997
-0.0475681053888
-0.0497757671714
-0.0524973119829
-0.0557954011373
-0.0582952792424
-0.0582728845646
-0.0552898412532
-0.0489736573983
-0.0386672612327
-0.0198535074014
-0.0207971235039
-0.0380021865011
-0.0434570425635
-0.0455501780795
-0.046531251795
-0.0472973749087
-0.0481438480294
-0.0492026041482
-0.0506093507238
-0.0521152480011
-0.0536806690227
-0.0553025038741
-0.0570204944551
-0.0586710574998
-0.0593155952584
-0.0579720966611
-0.0540846062007
-0.0474480788667
-0.0374190957828
-0.0196651155796
-0.0208956271928
-0.0377829161802
-0.0430312948844
-0.0458766993303
-0.0475955977649
-0.049025144809
-0.0502813728277
-0.0512757106131
-0.0522229898351
-0.0531668737424
-0.0542448415541
-0.0552890781794
-0.056360145025
-0.0572267457041
-0.0569828924326
-0.0548647425536
-0.0507105415309
-0.0444728220485
-0.0361376100634
-0.0197481400072
-0.0211153311388
-0.0377564943173
-0.0416095512872
-0.0435976661751
-0.0455354022231
-0.0471106115755
-0.0482807905389
-0.0489859119533
-0.0493995908332
-0.0500318546077
-0.05060933683
-0.0511686974542
-0.0517294593548
-0.0520261275819
-0.0512923438019
-0.0490548212447
-0.045481696133
-0.0414204636919
-0.0355100515504
-0.0199325634957
-0.0211987127504
-0.037296516085
-0.0403725493537
-0.0404822481861
-0.0404706133613
-0.0411815809145
-0.0419304572749
-0.0422686903644
-0.0425072593582
-0.0427491958582
-0.0429851344144
-0.0432129199208
-0.0434509204229
-0.0434719449356
-0.042847321945
-0.0417407698593
-0.0408039320644
-0.0393540134123
-0.0345738157906
-0.0199632553753
-0.0205385806158
-0.0338450614375
-0.0361133246805
-0.0358820468882
-0.0351833522257
-0.034686310072
-0.034468893601
-0.0344635855223
-0.0345182545359
-0.0345847243683
-0.0346478280675
-0.0347105467817
-0.0347888622838
-0.0349094134174
-0.0351016765674
-0.0353433269174
-0.0354153134354
-0.0345536246599
-0.0308681404805
-0.0194655446627
-0.0186265240538
-0.0201168035023
-0.0203475221923
-0.0199129357113
-0.0194761967856
-0.0192066404135
-0.0190816259035
-0.0190336139214
-0.0190299204417
-0.0190566755255
-0.0191172903067
-0.0191942666563
-0.0193020894294
-0.0194427547777
-0.0196014999493
-0.0198034007344
-0.0200188696302
-0.0200724771367
-0.0196041606243
-0.018680476349
-0.0188517833201
-0.0206006147876
-0.0211188873633
-0.0208901550627
-0.0202212560566
-0.019484530718
-0.018966572552
-0.0190742103016
-0.0191586268631
-0.0191866750136
-0.0191703287649
-0.0191174448568
-0.0190453291593
-0.0191585596603
-0.019748045392
-0.0205991600694
-0.0211790846118
-0.0213197515411
-0.0206223675702
-0.0186031863237
-0.0207363405418
-0.034176178934
-0.036805977795
-0.0349409202325
-0.0311854816303
-0.0282811158411
-0.0273564448884
-0.0275542649931
-0.0280246188187
-0.0283301298555
-0.0284750350888
-0.028467841864
-0.0283409401728
-0.0288108312425
-0.0307849188001
-0.0337608963635
-0.0368110496314
-0.0379496986209
-0.0347056488077
-0.0204233910868
-0.0213083955667
-0.0368079871691
-0.0377829617705
-0.0333476899201
-0.0289608581291
-0.0263681200976
-0.0259556803327
-0.0266175730042
-0.0271923501755
-0.0275534224402
-0.0277191212483
-0.0277227774848
-0.0276062083043
-0.028189646971
-0.0301655900488
-0.0335175405983
-0.0372695922297
-0.0395850829062
-0.0368077427801
-0.0208012372671
-0.0210721964187
-0.0356497801585
-0.0348247850066
-0.0304809971425
-0.0268630841477
-0.0256160110412
-0.0265178116187
-0.0279049932916
-0.0287783524683
-0.0292976660114
-0.0295654718738
-0.0297348112661
-0.0296858664267
-0.0301013208914
-0.0315334090753
-0.0340301180922
-0.0371408325524
-0.0387060704844
-0.0361385092261
-0.0202983931852
-0.0205051292783
-0.0338925516875
-0.0331450813825
-0.0298340468933
-0.0279951206643
-0.028923844764
-0.0316922702908
-0.0337907520461
-0.0347959028511
-0.0352635193422
-0.03555070858
-0.0358237706133
-0.0357751805068
-0.0359340013817
-0.0362036934594
-0.0373446965162
-0.0389547458601
-0.0394089803327
-0.0356421251795
-0.0196521398772
-0.020207978363
-0.0334469117328
-0.0336029734499
-0.0317815346227
-0.0317016707522
-0.0345611521083
-0.0391727553436
-0.0407026358142
-0.041647375516
-0.0415951023889
-0.0417459001674
-0.0419453050317
-0.0417424079654
-0.0427671957122
-0.0419215782394
-0.0421470628508
-0.0426126412099
-0.0416099010904
-0.0363921322512
-0.0195134929386
-0.020238158107
-0.0343083186356
-0.0357439436907
-0.0351666120405
-0.0356335722123
-0.037873184998
-0.0413952407255
-0.0210030855307
-0.0229699837189
-0.0231192878962
-0.0226170058405
-0.0214887265724
-0.0204476313293
-0.0435933577596
-0.0445201864631
-0.0462744532991
-0.0467628806483
-0.0446772597433
-0.0378711614821
-0.0196477964227
-0.0203163720361
-0.0350700276374
-0.0371625197264
-0.0369424672299
-0.0368062855512
-0.0357031134422
-0.0258566928485
-0.0253868206788