/*--------------------------------*- C++ -*----------------------------------*\
| =========                 |                                                 |
| \\      /  F ield         | OpenFOAM: The Open Source CFD Toolbox           |
|  \\    /   O peration     | Version:  v1606+                                |
|   \\  /    A nd           | Web:      www.OpenFOAM.com                      |
|    \\/     M anipulation  |                                                 |
\*---------------------------------------------------------------------------*/
FoamFile
{
    version     2.0;
    format      ascii;
    class       volScalarField;
    location    "0.8";
    object      nut;
}
// * * * * * * * * * * * * * * * * * * * * * * * * * * * * * * * * * * * * * //

dimensions      [0 2 -1 0 0 0 0];

internalField   nonuniform List<scalar> 
11640
(
0.000289004485894
0.000295333244819
0.000298446693332
0.000299567840098
0.000299604267312
0.000299064148125
0.000298757859722
0.000298997716876
0.000299419643262
0.0002998482001
0.000300266111557
0.000300672321829
0.000301058618161
0.000301529224426
0.000302125855037
0.000302625913055
0.000302524958212
0.000301269516137
0.00029774179549
0.000290584927135
0.000295462655298
0.000342720563403
0.000361338318779
0.000366999457843
0.000367353840749
0.000366487588419
0.000365930818324
0.000366096710009
0.000366561154487
0.000367113681786
0.000367711650194
0.000368343070558
0.00036940755794
0.000370817663758
0.00037162974727
0.000371726166605
0.000371150668346
0.000364927580934
0.000345336064877
0.000297006622717
0.000298594661021
0.000361533569005
0.000386748370533
0.000394589519493
0.000395622230643
0.000394653998838
0.000393929994903
0.000394030606221
0.000394794228378
0.000395791816239
0.000396909594275
0.000400771841819
0.000405217628183
0.000409361284797
0.000411490796454
0.000409832618828
0.000403419486492
0.000391321613356
0.000364593967856
0.000300355819283
0.00029967916717
0.000367836735331
0.000395557587941
0.000404743423453
0.000406114256335
0.000404939439159
0.000403574020207
0.000403152410527
0.000403926139944
0.000405277299585
0.000408073549901
0.0004156247648
0.000423914656973
0.000432088968717
0.000436999786712
0.00043553258844
0.000425798821226
0.000405990924042
0.000371794882475
0.000301866457067
0.000299649638371
0.000369491133292
0.000398069453983
0.000407666915379
0.000408742229416
0.000406255539112
0.000402726540555
0.000400018470666
0.000400082077381
0.000401584468808
0.000406716085683
0.000417639312841
0.000430331177101
0.000444195100446
0.000453741427524
0.000454175179456
0.000443005215723
0.000418448811089
0.00037637982392
0.000302725728218
0.000299382204487
0.000369852617609
0.000398626358354
0.000407816729412
0.000407296555851
0.000401279226706
0.00039206548303
0.000383989929446
0.000382558302718
0.000384039115324
0.000391116245142
0.000404412519052
0.000421640784251
0.000444243020161
0.000461591355298
0.000466372177063
0.000455808043713
0.000428647024268
0.000381736631443
0.000303786288977
0.000299368251184
0.000370263470079
0.000398950428008
0.000407116817246
0.000403436305067
0.000390639830488
0.000369732448679
0.000349475905395
0.00034576005607
0.000347832055589
0.000358746621944
0.000372832409757
0.000393911836661
0.000430031799928
0.000459705878362
0.000471485719917
0.000463316778482
0.000435421532251
0.000385999217194
0.000305296664735
0.000299514006301
0.000370488705309
0.000398922132966
0.000405863107369
0.000398923963401
0.000379016448629
0.000344730968008
0.00031416907197
0.000312290913721
0.000317630517257
0.000327275959337
0.000340987315016
0.000362881712134
0.000408756777213
0.00045147833751
0.000470595156326
0.000465402418472
0.000438078314686
0.000388073052221
0.000306451843486
0.000299692541113
0.000370593000953
0.000398726009935
0.000404879810421
0.000396326151031
0.000373459984608
0.000335895724444
0.000305070829355
0.000303358568479
0.000309265885405
0.000318833691286
0.000332367636561
0.000354519875978
0.000400817073195
0.000446869224318
0.000468999386525
0.000465407416881
0.000438704363685
0.000388881304477
0.000307238883165
0.000299919287981
0.000370926827971
0.000399081817896
0.000405265118318
0.000396725711801
0.000373893265074
0.00033653751131
0.000305527845756
0.000303551330241
0.000309341086137
0.000318718003628
0.000332360404893
0.000354591482635
0.000400495754532
0.000446767244275
0.000469392867637
0.000466034948336
0.000439371864275
0.00038954945016
0.000307954353777
0.000300187463843
0.000371474679987
0.000400028201818
0.000407023444504
0.000400139109718
0.000380163330355
0.000346303228396
0.000315736116664
0.000312793933514
0.000317737577705
0.000326418216373
0.00034029075684
0.000362566992785
0.000407601160687
0.000451266907519
0.000471925949997
0.000467419721737
0.000440177818993
0.000390125516061
0.000308623316333
0.000300703421581
0.000372670623623
0.000402358563811
0.000411280994757
0.000408035933753
0.000395226929415
0.000373785052056
0.000354814526903
0.000350768659081
0.000352708855469
0.00035663036199
0.000371382818302
0.000393250945379
0.000430006721108
0.000462604961323
0.00047678399484
0.000469233825224
0.000440743716865
0.000390327833745
0.000309073547648
0.000301476362711
0.000374316094016
0.00040576073408
0.000417045532636
0.000417545379967
0.000411237601054
0.000400583833007
0.000390876412726
0.000388297761143
0.000389564531887
0.0003962249194
0.000410224547303
0.000428484131428
0.000452931312886
0.000473023110252
0.000479423641173
0.000468242159602
0.00043876477413
0.0003889698627
0.00030900411285
0.000302129862321
0.000375439625581
0.000408684848358
0.000422269898788
0.000426025741631
0.000424731483791
0.000421230991162
0.000418347760255
0.000417895938425
0.000419006047448
0.000424849141462
0.000436315902382
0.000449869156072
0.000464946386581
0.000475537484928
0.000475592933478
0.000461846218896
0.000432874576805
0.000385658856611
0.000308214720648
0.00030235338494
0.00037549593647
0.000409994799291
0.000425366212788
0.000431361174524
0.000432943771487
0.000432763440815
0.000432447639678
0.000432795927828
0.000433500420645
0.000438700894012
0.000446951471343
0.000456003050439
0.000464805026965
0.000469344601564
0.000465606098716
0.000451243171274
0.000424670336366
0.000381875427375
0.000307537098006
0.000302405976693
0.000374448415301
0.000408492019369
0.000424682230804
0.00043190215976
0.000434870366667
0.000435951556552
0.000436326504365
0.0004366032689
0.00043692708135
0.000440931812461
0.000445831222042
0.000451012741615
0.000455500270819
0.000456460855213
0.000451287002726
0.000438412745114
0.000416196078572
0.000378774576312
0.000307325193203
0.000302080173754
0.000371793784563
0.000403313056056
0.000417993619234
0.00042512102667
0.000428405727921
0.00042973004256
0.000430081139122
0.000430087682356
0.000430921357807
0.000433006568584
0.000435245282876
0.000437568233543
0.00043926003034
0.000438577019204
0.000434002292231
0.000424550172854
0.000407925774529
0.000375324413387
0.000306684432625
0.000300830529428
0.000364359096742
0.000391752295376
0.000403232326663
0.000408032715792
0.000410215018598
0.000411134881306
0.000411296419975
0.000411837802239
0.000412587125446
0.000413384159984
0.000414179768737
0.0004150141657
0.000415516338108
0.000414892512223
0.000412481985593
0.000407313644927
0.000395345276682
0.000367312285632
0.000304872987267
0.000297336585909
0.000344620867878
0.000363951987049
0.000371442941304
0.000374167283362
0.000375054450529
0.000375284591214
0.000375743445548
0.000376251371307
0.000376787719633
0.000377267136628
0.000377729943178
0.000378213247806
0.000378600005536
0.000378709277334
0.000377996812387
0.000375250758586
0.000367344598132
0.000347279690327
0.000300459242593
0.000290265354599
0.000296725079455
0.000300010135518
0.000301420723585
0.000302080479467
0.000302441453137
0.000302819706308
0.000303386181161
0.00030402802966
0.000304703671942
0.000305397586196
0.0003060622027
0.000306619170438
0.000307109572504
0.000307485690159
0.000307523373074
0.000306976267164
0.00030519199558
0.000300738117391
0.000291975385628
0.0005374908314
0.000572322354572
0.00058961119027
0.000595924306303
0.000595602303282
0.000591629844664
0.000588601589606
0.000588153022585
0.000588809116097
0.000589440128129
0.00059001152058
0.000590494306332
0.000590903008883
0.000592265658272
0.000596018896471
0.000600461656942
0.000600821014473
0.000593939051455
0.000575437114921
0.000538987382942
0.000572770948302
0.00143968521063
0.00172860879685
0.00183475977682
0.00186488204616
0.00186809329256
0.00186645815522
0.00186764751721
0.00187088942373
0.00187488899419
0.00187937271504
0.00188241613975
0.00188295825399
0.00188194647937
0.00188568862662
0.00188638927702
0.00185381533323
0.00174066578872
0.0014408585781
0.000573148081245
0.000590229153435
0.00173205525699
0.002150792868
0.00231171507637
0.00235676327303
0.00235858791692
0.00235398973689
0.00235652974151
0.00236650157699
0.00238003450131
0.00239267761575
0.00238345743232
0.00237780221398
0.00237955948589
0.00238734859684
0.00238585309174
0.00234266453656
0.00217590581933
0.00173816577851
0.000590758896911
0.000596661554225
0.00184427425158
0.00231587185132
0.00249414212189
0.0025404552354
0.00253340868538
0.00251458499492
0.00250526465545
0.00251454701776
0.0025337388945
0.00254360610191
0.00252801964767
0.00252300156022
0.00253708554359
0.00255841877085
0.00256688826351
0.00252074081931
0.00233922886183
0.0018529105378
0.00059816876052
0.000597882581652
0.00187941917014
0.00236087175172
0.00253713294243
0.00256899040054
0.00253152573532
0.00246824837331
0.00241745019023
0.00241490369125
0.00243476784023
0.00244138600091
0.00242460000187
0.00243633741615
0.00249517745041
0.00255645077074
0.00258940383931
0.00255560594462
0.00237743166175
0.00188591160694
0.000600620983928
0.000598177554251
0.00188159401914
0.00235501791654
0.00251432645836
0.00251051973134
0.00240639573228
0.00224158405421
0.00209266852412
0.00206813082222
0.0020848085013
0.00208818747679
0.00207795931855
0.00212492883085
0.00229423908911
0.00244779323938
0.00253448357026
0.00252800037917
0.00236465726676
0.00188209780743
0.000601957987218
0.000598706730793
0.00187503511683
0.00233532583729
0.00246832593052
0.00240863911946
0.00219318158965
0.00183925001295
0.00151240627089
0.00147128404541
0.00148590515615
0.00147311906434
0.00146966071177
0.00155734918988
0.0019400263829
0.00226770736924
0.00244619413517
0.00248168005265
0.00233934564088
0.00187105358515
0.000603048884162
0.000599053771958
0.00186943953145
0.0023196644348
0.0024280926915
0.00231337531236
0.00198172998597
0.00141589878852
0.000983487385544
0.000964600526981
0.000999483764946
0.00100876396242
0.00100884095534
0.00108415855068
0.00156344992723
0.00208174535535
0.00236218090541
0.00244147982829
0.00231870017266
0.00186189189175
0.000604083516189
0.000599214867866
0.00186793798468
0.00231382399626
0.00240982808532
0.00226992347078
0.00189982083046
0.00130440860656
0.000899088250778
0.000870986986858
0.000899805290185
0.000911159939072
0.000911791897702
0.000990202264988
0.00144294070259
0.00199796436389
0.00231638504177
0.0024172315974
0.00230453324103
0.00185456234898
0.000604680568411
0.000599557982022
0.00186999210249
0.00231731351892
0.00241357057255
0.00227236851018
0.00189938809539
0.00129957444715
0.00089167903477
0.000861005320018
0.000889385108803
0.000903243684493
0.00090418741885
0.000981108253071
0.00142255295117
0.00197973202668
0.00230362429177
0.00240639788583
0.00229417478944
0.00184673400442
0.000605058635618
0.000600086772193
0.00187552726633
0.00233051770754
0.00244021841631
0.0023223447728
0.00198336056514
0.0014078264062
0.000970952009806
0.000941043589197
0.000970758018032
0.000990724639558
0.000988728075227
0.00105781350012
0.00150358400271
0.00203089008627
0.00232649264328
0.00241014451001
0.00228789445322
0.00183880453138
0.00060523428897
0.000601149959736
0.00188486729967
0.00235449929183
0.00249146801961
0.0024287580999
0.00219995765336
0.00182162938455
0.00143413955492
0.00137644788648
0.00140353865759
0.00144618263867
0.00145242787
0.00153021034048
0.00186382670258
0.00220505198842
0.00239650767647
0.00243205694757
0.00228897715696
0.00183313188736
0.000605597203949
0.000602454384234
0.00189800495613
0.00238793110788
0.00255705022844
0.00255385693364
0.00243636034765
0.00224589122718
0.00207058162369
0.00202639120681
0.00204173044196
0.00205069055338
0.00204266411802
0.00208444657069
0.0022421182212
0.0024015468502
0.00248722317859
0.00247087147039
0.00230210845731
0.00183444982251
0.000606349473467
0.000603117502727
0.00191105456723
0.00242417970209
0.00262326347802
0.00266822929948
0.00263107763456
0.00255796715565
0.0024974145668
0.00248572825026
0.00250188916572
0.0024998325921
0.0024747383136
0.00247329110882
0.00251604026478
0.00256290788516
0.00257652858746
0.00252043733223
0.00232735341182
0.00184283924609
0.00060636050291
0.0006029659814
0.00191673424632
0.00244987097333
0.0026718705211
0.00274801577317
0.0027564192683
0.00274116208217
0.00273002834032
0.00273501066068
0.00274849166147
0.00273751219194
0.00270729978971
0.00268406778244
0.00267669771153
0.00267167202504
0.00264759512965
0.00256640127113
0.00235234468209
0.00185013170365
0.00060531825485
0.000602663998769
0.00190538668787
0.00244318396555
0.00267788468035
0.00277050457538
0.00279971323818
0.00280680086825
0.00281096234027
0.00281741918918
0.00282378593825
0.00280791830063
0.00278095671762
0.00275564393309
0.00273525922278
0.00271332867733
0.00267416924979
0.00257882184895
0.00235076199133
0.00184006487372
0.000604008649602
0.000600519249233
0.00186023114535
0.00237013161745
0.00259686443373
0.00269128885929
0.00272567007164
0.00273702404406
0.00274097205092
0.00274214612891
0.00274016696786
0.00272480013303
0.00270609018609
0.0026879621571
0.0026700846389
0.00264779299326
0.00260607284679
0.00250792923159
0.00228207837327
0.001792213567
0.000600642302784
0.000593461008554
0.00173917725072
0.00217771758685
0.00236549355945
0.00244314568113
0.00247174322959
0.002480603654
0.00248209895382
0.00247921845477
0.00247141854473
0.0024604812046
0.00244841986977
0.00243674574392
0.002424387995
0.00240667942251
0.00237004465382
0.00228502032081
0.00209221092119
0.00166879102171
0.00059238804936
0.000575124388047
0.00143891719942
0.00173707407308
0.00185466867199
0.00189960271266
0.00191499108166
0.00191936093268
0.00191883789507
0.00191540808756
0.00190994750409
0.00190271261063
0.00189475038029
0.00188737743503
0.00187940744287
0.00186825632627
0.00184561092589
0.00179320676687
0.00166963022275
0.00138070505624
0.000573561401049
0.00053897037605
0.000573494104431
0.000591118317448
0.00059862109771
0.000601835884238
0.000603503762065
0.000604578140081
0.000605402721471
0.000606046560028
0.000606475412139
0.000606721033911
0.000606820161703
0.000606765935882
0.000606612427018
0.000606265236326
0.00060501110031
0.000601698449389
0.00059351705711
0.000574568012018
0.000536693048309
0.000558214036786
0.000610748443104
0.00063760296951
0.00064788947571
0.000648370713641
0.000643911788787
0.000640535755932
0.000639659122427
0.000640166679792
0.000640736524873
0.000641277249038
0.000641786999338
0.000642303872374
0.0006439827183
0.000648329874498
0.000653301572841
0.000652745401684
0.000641615844145
0.000613238758358
0.000559128887201
0.000611311915823
0.00193113653967
0.00241759961682
0.00260571875995
0.00266450790698
0.00267217656685
0.00266629283222
0.00266422654504
0.00266539210346
0.00266841977646
0.00267300247431
0.00267820086098
0.0026842632845
0.00269091379203
0.00269442033376
0.00268415864795
0.00261972982348
0.00241806364257
0.00191784538234
0.000610166724701
0.00063841493908
0.0024229043148
0.00316872194424
0.00347917409612
0.00357818262745
0.00358691721562
0.00357105752719
0.0035609306634
0.00356445893859
0.00357684232621
0.00359334492003
0.00360649612007
0.00362381027214
0.00365156852035
0.00367344467645
0.0036518757917
0.00353229439469
0.00318972179109
0.00241586303814
0.000637225076638
0.000648979919887
0.00262250380363
0.0034901445692
0.0038543117352
0.00396493406935
0.00395440374134
0.00390090611587
0.00385441589359
0.00384597990841
0.00386107668112
0.00388469830747
0.00390367755135
0.00394815092861
0.00402613229311
0.00409185056881
0.00409091867814
0.00394503157671
0.00353462083829
0.00262327819087
0.000648869671181
0.000651537719233
0.00269244193825
0.00359954881225
0.00397279299608
0.00405754711873
0.00398038546092
0.00382354220865
0.00367444960593
0.00363546176792
0.00364575765992
0.00366880707915
0.00370167812308
0.00379253120672
0.0039925225807
0.00416533702951
0.00422733752104
0.0041008356544
0.00366733961396
0.00270405271868
0.000652994675191
0.000652107153659
0.00270404311904
0.00360914208664
0.00395558460923
0.00396858555322
0.00374729521978
0.00335508258661
0.00295414957788
0.00287712724685
0.00287946554257
0.00289769151086
0.00293630026755
0.00308018141105
0.00357371006234
0.00398063963848
0.00417753541807
0.0041140258582
0.00369790381346
0.00272385743553
0.000655102748083
0.000652561170757
0.00269546444521
0.00358134520342
0.00387881361234
0.00377955647003
0.00332043688893
0.0024721735161
0.00158645209052
0.0015047558942
0.00148691630296
0.00148330781635
0.00150496660009
0.0016509223309
0.00274142915073
0.00359525947408
0.00401865269219
0.00405736418587
0.00368350872211
0.0027225608933
0.00065690683965
0.000652725456062
0.00268487470165
0.00355179390584
0.00380202426482
0.00359383800551
0.0028867404686
0.00148078349063
0.00039178758
0.000355676662899
0.000353910406936
0.000356055940137
0.000362158223655
0.000397101569171
0.0017382847111
0.00314988778829
0.00383918724095
0.00398695918601
0.00365819923615
0.00271561755912
0.000658208609342
0.000652737982675
0.00267989748633
0.00353792315179
0.00376540354271
0.00351480481921
0.00275665515534
0.00135362402082
0.000362819995951
0.000320913080449
0.000318333181147
0.000320179990544
0.000326639288035
0.000364991270803
0.0015621606102
0.00299020579049
0.00374937685422
0.00394468383017
0.00363958673802
0.00270888174772
0.000658982840325
0.000653057422494
0.00268191923232
0.00354260808639
0.00377094925078
0.00351919615615
0.00275978177073
0.00135061138629
0.00036724256759
0.000324848635936
0.000320657414349
0.0003211971946
0.000326826408282
0.000364429208253
0.00153371744518
0.00296276291828
0.00373380778906
0.00393462486865
0.00363105345812
0.0027032706052
0.000659542144515
0.000653695523945
0.00269064527129
0.00356673849718
0.00382131605514
0.00361313240775
0.00291135683138
0.00150520262686
0.000415824294698
0.000378527520108
0.0003714483006
0.00036885062674
0.000369945432832
0.000398872472628
0.00165772887393
0.00307279374897
0.0037975380457
0.00395956302153
0.00363392934808
0.00269922761383
0.000659943123167
0.000655067516173
0.00270555924807
0.00360965672842
0.0039177484192
0.00381876878614
0.00335708818878
0.00252762877467
0.00147034013721
0.00138637110605
0.00142306738915
0.00149345431995
0.00159140266304
0.00173991582198
0.00263612078293
0.00351006823168
0.00397312544499
0.00402214413031
0.00364834654148
0.00269764087093
0.000660580686854
0.000656794804758
0.0027237716175
0.00366283804185
0.00403313330665
0.00405328834612
0.00382004375582
0.00341443547423
0.0030037730517
0.00289399862133
0.00289568720149
0.00292654964114
0.00297439180357
0.00311589062381
0.00354221543372
0.00396209117066
0.00417080479536
0.00409737726156
0.00366893006663
0.0026994501824
0.000661469616173
0.000657711832481
0.00273910902259
0.00371223076673
0.00413754456123
0.00425422226016
0.00418453046336
0.0040204464684
0.00386686394053
0.00381516872995
0.00382331930306
0.00384699409621
0.00387802047094
0.00395824734975
0.00412968522151
0.0042881902779
0.00432521092882
0.00415914040653
0.00368702924786
0.002702222013
0.000661485455798
0.000657345135942
0.00274195523121
0.00373690315273
0.00419881716063
0.00437700969676
0.00440342524432
0.0043634234211
0.00432046612747
0.00430967125506
0.00432241801364
0.00433519014718
0.00434675220817
0.0043755819421
0.00442710660438
0.00445644309481
0.0043999509584
0.00418124615438
0.00368566781605
0.00269769399363
0.000660162927159
0.000656394262054
0.00271587775213
0.00370277883032
0.00417429528971
0.00437985828507
0.00445062928331
0.00446364725953
0.00446256228356
0.00446611477497
0.00447543686161
0.00447571514699
0.0044734281081
0.00447518096023
0.004477265862
0.00445348048269
0.00435934497026
0.0041241364066
0.00363271923744
0.00266581953539
0.000658109545013
0.000652504082814
0.00263004373624
0.00355240978603
0.00399172321641
0.00418926328372
0.00426821714161
0.0042949846518
0.0043027530981
0.00430604179982
0.0043067927349
0.00430128292763
0.00429401693684
0.00428677815251
0.00427399358069
0.00423707527154
0.0041409669149
0.00392275707442
0.00347127305373
0.00257276602082
0.000653163408963
0.000640987586027
0.00241555449378
0.00319118940399
0.00354431363538
0.00369903255085
0.00376087660549
0.00378277140744
0.00378930489576
0.00378923930838
0.00378534786197
0.00377891358263
0.00377135302878
0.00376312967508
0.0037500345941
0.00371936176939
0.00364438244036
0.0034733603283
0.00310887032655
0.00235459080696
0.000641000438853
0.000612855942502
0.00191485968479
0.00241424155691
0.00262348915486
0.00270857125781
0.00274003828504
0.00275060758141
0.00275338507567
0.00275279763296
0.00275007704573
0.00274581967067
0.00274074269878
0.00273543295271
0.0027279186513
0.00271208146608
0.00267235572554
0.00257608518416
0.00235704925292
0.00186889262543
0.000613864327156
0.000559160231164
0.000610606397694
0.000637665892794
0.000649535771206
0.000654605222507
0.000656994994875
0.000658428173609
0.000659493975151
0.000660354364675
0.000660979671467
0.000661442290259
0.000661720396175
0.000661865702644
0.000661826639437
0.000661321641081
0.000659489128382
0.000654560424222
0.000642481147409
0.000615203869485
0.000562120841494
0.000564570484169
0.000628655077993
0.000662424478683
0.00067601850068
0.000677654106068
0.000673370074284
0.000669882327499
0.000668782194738
0.000669002876029
0.000669429076136
0.000669888262253
0.000670403295299
0.000671017849526
0.000672894339754
0.000677483879623
0.000682380196468
0.000680616727992
0.000666084783928
0.00063071690423
0.000565276703268
0.000629290627132
0.00219346151099
0.00281019957683
0.00306064456712
0.00314401609362
0.00315544018565
0.00314476348524
0.00313724051825
0.00313482299919
0.00313514388244
0.00313869282741
0.00314567035779
0.00315607302165
0.00316778922306
0.00317276945413
0.00315527439664
0.00306391418686
0.00279736827437
0.00216794535903
0.000627104613359
0.000663340782388
0.00281662194657
0.00379117432465
0.00421931922991
0.00436557659663
0.00438050716125
0.00435139241797
0.00432407677795
0.00431600253839
0.00432222850077
0.0043380184126
0.00436161607204
0.00439580824225
0.00444283498747
0.00447642556804
0.00444202777106
0.00426261510759
0.003796371255
0.00279480275626
0.000660780220324
0.000677278778732
0.00308142007728
0.00423572956436
0.00475047022663
0.00491758646648
0.00490241350803
0.0048113486278
0.00472145065955
0.0046892105907
0.0046933730814
0.00471774052341
0.00475652398496
0.00483423411069
0.00496346195654
0.00506711642189
0.00506269438948
0.0048450328456
0.00427059782579
0.0030694462143
0.000675722818303
0.000681123063395
0.00318032126377
0.00440235487311
0.00493773221572
0.005068920414
0.00495232736606
0.00469805447775
0.00443733313945
0.00436247900756
0.00435911167202
0.00438522695459
0.00444241307446
0.00458199392888
0.00491013507092
0.00518400678258
0.00527707523705
0.00508589427477
0.00447053117607
0.0031843690584
0.000681249953456
0.000681956864194
0.0032009830749
0.00442885551447
0.00493061344984
0.00495796941796
0.00462227594338
0.00398058186868
0.00323550162261
0.00313855940935
0.00313459509497
0.00315692111448
0.00321156095261
0.00337512908718
0.00425084280412
0.00491595080696
0.0052208294875
0.00512415291609
0.00452893540092
0.00322101731789
0.000683986498485
0.000682286578255
0.00319139065722
0.00439608168037
0.00483050202304
0.0046953895743
0.00399066545225
0.00251014888008
0.000786848461747
0.000736307877924
0.000733611979994
0.000737474699448
0.000749245678971
0.000806525498087
0.00279060412393
0.0043179116432
0.00499324846712
0.00505341683443
0.00451841321835
0.00322420965549
0.000686149544039
0.000682236815896
0.0031764455269
0.00435497610084
0.00472343780016
0.00443070749419
0.0033198368129
0.000768169625764
0.000795441209992
0.00356994980852
0.00472326752111
0.0049549751499
0.00448679962605
0.00321700193207
0.000687600265186
0.000682108670364
0.00316842226159
0.00433392734323
0.00467222839899
0.00432793625777
0.00318005637844
0.000724353645227
0.000747441200263
0.00338660311557
0.00460218102215
0.00489848666442
0.00446409749074
0.00320984981762
0.000688473483807
0.000682411919189
0.00317004123205
0.00433910066142
0.00467923503367
0.00433532914731
0.00319022916258
0.000729067949176
0.0007480899699
0.00335764550654
0.00458725353472
0.00489144217277
0.00445838699079
0.00320578980688
0.00068918314077
0.00068316157119
0.0031815192194
0.00437208150717
0.00474897912241
0.00446442280474
0.00338074742751
0.000793108461203
0.000800672611109
0.00348143514831
0.00468515104234
0.00493825385529
0.00447176978716
0.00320546738941
0.000689757734946
0.000684798272008
0.00320098618411
0.00443003333179
0.00488233118742
0.00475699858409
0.0040805651476
0.0027391447899
0.000780794094517
0.00073660727066
0.000730225038649
0.000731761807059
0.000741613767523
0.000793043402408
0.00266702603258
0.00422213143381
0.00496452821236
0.0050428705922
0.00450224974709
0.00320871990279
0.000690653431543
0.000686864400658
0.00322256503873
0.00449720254909
0.00503622452795
0.00508163173156
0.00474838615621
0.00413800678961
0.00345167470014
0.00329214267127
0.00327054830568
0.00329538540373
0.00335616534564
0.0035328205364
0.0042623690775
0.00493998629572
0.00526895531633
0.00515857770096
0.00453563698844
0.00321330758346
0.000691704613353
0.000687982492465
0.00323839363177
0.00455304446686
0.00516635869227
0.00534900086569
0.00525259535529
0.00500454345153
0.00475649350986
0.00466243690032
0.00465449986743
0.00468478834995
0.00474515087757
0.00488012320347
0.00516554486891
0.00542717449841
0.00549103111494
0.00523989572446
0.00455479381818
0.00321425554536
0.000691805065334
0.000687427616469
0.00323708517958
0.00457051427896
0.00522883976779
0.00549791799818
0.0055415428364
0.0054768306557
0.00539889314456
0.00536644343175
0.00537131844157
0.00539340752377
0.00543027789135
0.00549728176587
0.00559812047507
0.00565896432447
0.00557790524331
0.00524924524905
0.00453722071846
0.00320149024004
0.000690378466573
0.000685822973047
0.00319681959026
0.00450683250583
0.00516805898747
0.00547175177497
0.00558012142541
0.00559648969336
0.00558610938294
0.00558163715661
0.00558829816438
0.00559668268885
0.0056104419989
0.00563248868205
0.00565258314651
0.00562714881117
0.00548743955602
0.00513933400753
0.00444463276968
0.00315133480576
0.00068780066763
0.00068034998675
0.00307681922372
0.0042891594712
0.0048945567454
0.00517938394604
0.0052978024046
0.00533725292731
0.00534610025338
0.00534867271881
0.0053495766757
0.0053495393202
0.00535050672917
0.00535184732886
0.0053426357729
0.00529260617921
0.00515041629824
0.00483412867138
0.00420842321483
0.00302182234478
0.000681526453361
0.000665310425697
0.00279342156315
0.00379862159243
0.00427741979708
0.00449596097819
0.0045869169398
0.00461993704786
0.00462970019015
0.00463094398167
0.00462901496791
0.00462566108199
0.00462184036388
0.00461664367295
0.00460259643174
0.00456000809871
0.00445148483535
0.00420975746973
0.00371498814082
0.00273446911478
0.000666360829876
0.000630223078582
0.00216347217323
0.00279253870387
0.00306876155278
0.00318626697888
0.00323171968873
0.00324757500348
0.00325238907775
0.00325305453571
0.00325167668972
0.00324911027173
0.00324592840283
0.00324193531919
0.003234096056
0.0032131596561
0.00315794997551
0.00302632160545
0.00273780726659
0.00212086762446
0.000633292187663
0.000565277437725
0.000627482588534
0.000661186369346
0.000676475855152
0.000683119561797
0.000686194112794
0.000687907700878
0.000689127636272
0.000690100941359
0.000690866959318
0.000691479703687
0.000691903112258
0.000692202367097
0.000692311255005
0.000691730059475
0.000689453805263
0.000683194088094
0.000668082975146
0.000634851810305
0.000571961938838
0.000567006128248
0.000637720917868
0.000676000813145
0.000692029650098
0.000694684377582
0.00069062768723
0.000687062849821
0.000685734066603
0.0006858900275
0.000686226058175
0.000686645856894
0.000687183626751
0.000687908168669
0.000689964357597
0.000694677965093
0.000699304925711
0.000696423875946
0.000679422453853
0.000639558532519
0.000567731967627
0.000638385603023
0.00234136615973
0.00304437475136
0.00334100846019
0.00344394536207
0.0034589005684
0.00344423007607
0.00343098390139
0.00342349799684
0.00342081711636
0.00342339682333
0.00343161092834
0.00344563040402
0.00346201361403
0.00346884425849
0.00344570661959
0.00333317747096
0.00301998535653
0.00230627804185
0.000635550125623
0.000676981291853
0.00305131943166
0.00418340140025
0.00470047486779
0.00488489831248
0.00490456558825
0.00486288280087
0.00481897683552
0.00479875297089
0.00479786736393
0.00481153887185
0.00483975828402
0.00488666839307
0.00494947392923
0.00499234020192
0.00494743282998
0.0047251644714
0.00417087057813
0.0030161109455
0.000673417176006
0.00069335413785
0.00336366287573
0.00472054699752
0.00535080000129
0.0055633465711
0.00554325622277
0.00541916907043
0.00529211022432
0.00523707305125
0.00522918537643
0.0052510806747
0.00530194817971
0.00540156314782
0.0055662021105
0.00569857214811
0.00569376080004
0.00542634766584
0.00473468580569
0.0033388534972
0.000690657504282
0.000698168211347
0.00348520421319
0.00493318164782
0.00559399662102
0.00576250969075
0.00561322480488
0.00528282842187
0.00494708696688
0.00484073057041
0.00482270942064
0.00484813698653
0.00491777925878
0.00508984189625
0.00549206734064
0.00583710759572
0.00595644622704
0.00572350650793
0.00498410941538
0.00347976845007
0.000697347608422
0.000699129043788
0.00351305493888
0.00497399634575
0.0055965213738
0.0056365818413
0.00521464535314
0.00441366033127