/*--------------------------------*- C++ -*----------------------------------*\
| =========                 |                                                 |
| \\      /  F ield         | OpenFOAM: The Open Source CFD Toolbox           |
|  \\    /   O peration     | Version:  v1606+                                |
|   \\  /    A nd           | Web:      www.OpenFOAM.com                      |
|    \\/     M anipulation  |                                                 |
\*---------------------------------------------------------------------------*/
FoamFile
{
    version     2.0;
    format      ascii;
    class       volVectorField;
    location    "0.3";
    object      U;
}
// * * * * * * * * * * * * * * * * * * * * * * * * * * * * * * * * * * * * * //

dimensions      [0 1 -1 0 0 0 0];

internalField   nonuniform List<vector> 
768
(
(-0.0776536 -0.020489 -2.52644e-20)
(-0.0755898 0.00391636 -2.30146e-20)
(-0.0624536 0.0407626 1.65443e-19)
(-0.0451028 0.0698244 -1.64048e-19)
(-0.0193499 0.0816894 -1.36396e-21)
(0.0127367 0.0789164 -1.44281e-19)
(0.0394812 0.0657378 -2.49512e-19)
(0.056709 0.0481843 -1.82841e-19)
(0.0656114 0.0299015 9.28472e-20)
(0.0687049 0.0124459 0)
(0.0672863 -0.00391766 0)
(0.0616823 -0.0189362 -6.33575e-20)
(-0.0869326 -0.0347589 0)
(-0.0795395 -0.0188245 0)
(-0.0631835 0.016016 -1.38548e-19)
(-0.0432533 0.0468328 4.37908e-20)
(-0.0169339 0.0608925 5.91299e-20)
(0.0108713 0.0614989 4.08961e-21)
(0.0321203 0.0533818 2.04929e-19)
(0.0464948 0.040899 1.24193e-19)
(0.0549676 0.0265824 0)
(0.0586727 0.0119738 0)
(0.0584049 -0.00211798 -1.03226e-20)
(0.0546805 -0.0149692 5.09715e-20)
(-0.0866968 -0.0402912 0)
(-0.0733425 -0.0356616 -3.41465e-20)
(-0.0539231 -0.00147128 -1.37524e-19)
(-0.0347096 0.030828 2.16316e-19)
(-0.0128645 0.0464604 2.52229e-19)
(0.00960602 0.0491563 7.0132e-20)
(0.0268863 0.0438897 -1.145e-19)
(0.0393821 0.0344615 -1.22248e-19)
(0.0472583 0.0229127 1.59205e-19)
(0.050988 0.0106903 0)
(0.0511118 -0.0013058 9.77465e-21)
(0.0481546 -0.0123492 2.81198e-20)
(-0.0732722 -0.0225686 -8.982e-20)
(-0.0562516 -0.0355268 -1.29676e-19)
(-0.0347716 -0.00968096 1.69807e-19)
(-0.0219812 0.0196127 -2.70179e-19)
(-0.00756254 0.0353872 5.33637e-20)
(0.00955529 0.0391891 0)
(0.0234484 0.0360535 -3.20721e-20)
(0.0341081 0.0290217 -9.36738e-22)
(0.0411419 0.0197558 -1.16751e-19)
(0.0446748 0.00958362 0)
(0.045063 -0.000609441 -6.50333e-20)
(0.0426734 -0.0101532 -8.18909e-20)
(0.0524743 -0.031985 3.17751e-22)
(0.0411412 -0.0427489 3.77033e-20)
(0.0297132 -0.0510967 0)
(0.0197262 -0.0570666 0)
(0.0110659 -0.060813 8.76114e-20)
(0.00165909 -0.0620488 1.23708e-19)
(-0.010922 -0.0591582 1.56509e-19)
(-0.0265401 -0.0492226 -2.95284e-20)
(-0.0408114 -0.0299212 3.49787e-20)
(-0.0475576 -0.00188566 -1.26647e-21)
(-0.0434814 0.0296205 -2.60487e-21)
(-0.0321803 0.0612599 0)
(0.0479102 -0.0261226 2.85606e-20)
(0.0383493 -0.0354913 2.64671e-20)
(0.0263918 -0.0429178 -6.67878e-20)
(0.0129465 -0.0480119 -2.93777e-20)
(-0.000744271 -0.0502513 -8.20809e-20)
(-0.0137961 -0.0490239 0)
(-0.026022 -0.0434025 -1.13389e-19)
(-0.0372059 -0.0319911 -2.87135e-20)
(-0.0455748 -0.0136518 -3.37978e-20)
(-0.0483645 0.0115532 0)
(-0.0426855 0.0400476 3.73125e-21)
(-0.034038 0.0740415 0)
(0.0426495 -0.022005 1.80669e-20)
(0.0349384 -0.0300125 -6.89178e-20)
(0.0250976 -0.0361863 6.4884e-20)
(0.0131663 -0.0401843 2.84754e-20)
(-0.000447304 -0.0414134 -5.41122e-20)
(-0.0147358 -0.0390846 2.55956e-20)
(-0.0282285 -0.0323799 0)
(-0.0392127 -0.0205488 3.30189e-20)
(-0.045607 -0.00339019 2.87983e-20)
(-0.0457883 0.018685 1.7481e-20)
(-0.0376592 0.0443969 -9.47812e-20)
(-0.0212143 0.0799987 0)
(0.0379265 -0.0185886 -3.47877e-20)
(0.0312313 -0.025557 9.87728e-20)
(0.022862 -0.0307883 0)
(0.0129655 -0.033952 -1.14915e-19)
(0.00170085 -0.0345578 0)
(-0.0104376 -0.0319371 -5.09038e-20)
(-0.0223164 -0.0254652 -4.41154e-20)
(-0.032055 -0.0147428 1.73461e-19)
(-0.0371802 2.83332e-05 -5.34706e-21)
(-0.0350772 0.0173279 -2.64837e-20)
(-0.027963 0.0414601 7.51237e-20)
(0.00968407 0.0717429 -8.7731e-20)
(-0.0204943 0.0777034 0)
(0.00394194 0.0755888 -8.78983e-20)
(0.0407896 0.0624344 0)
(0.0698478 0.0450828 -1.57583e-19)
(0.0817096 0.0193449 -7.35281e-20)
(0.0789355 -0.0127347 7.74902e-20)
(0.0657576 -0.0394799 1.29393e-19)
(0.0482059 -0.0567112 -4.40976e-20)
(0.0299264 -0.0656185 9.00482e-20)
(0.0124747 -0.0687199 -1.83572e-19)
(-0.00388493 -0.0673135 -4.50494e-20)
(-0.0189046 -0.0617257 0)
(-0.0347139 0.0869601 1.56661e-20)
(-0.0188028 0.0795383 -7.45289e-20)
(0.0160351 0.0631609 2.96551e-20)
(0.0468609 0.0432324 0)
(0.0609191 0.0169254 1.30443e-19)
(0.0615213 -0.0108772 -1.50654e-19)
(0.0534028 -0.0321275 -3.22467e-19)
(0.0409225 -0.0465039 0)
(0.0266097 -0.0549808 -8.74426e-20)
(0.0120038 -0.0586939 2.46171e-21)
(-0.00208889 -0.0584357 -1.03378e-20)
(-0.014944 -0.0547211 1.02609e-20)
(-0.0402345 0.0867057 0)
(-0.0356423 0.0733356 -2.02989e-20)
(-0.00145857 0.0539035 -1.72218e-19)
(0.0308528 0.0346944 2.16686e-19)
(0.046488 0.012857 -1.27851e-19)
(0.0491812 -0.00961555 -7.31941e-20)
(0.0439122 -0.0268981 1.89235e-19)
(0.0344846 -0.0393962 1.54975e-19)
(0.0229373 -0.047276 4.01986e-20)
(0.0107155 -0.0510114 8.25037e-20)
(-0.00128244 -0.0511441 0)
(-0.0123299 -0.0481966 1.8945e-20)
(-0.0224885 0.0732681 -9.01273e-20)
(-0.0354972 0.0562568 7.76505e-20)
(-0.00967356 0.0347613 3.8617e-19)
(0.0196311 0.0219727 -2.70636e-19)
(0.0354127 0.00755683 -1.85776e-19)
(0.0392135 -0.00956635 -1.95977e-19)
(0.0360757 -0.0234623 -6.94055e-20)
(0.0290438 -0.0341252 -1.51639e-19)
(0.0197782 -0.0411629 0)
(0.00960605 -0.0447016 1.90173e-20)
(-0.000587577 -0.045096 -1.89599e-20)
(-0.0101366 -0.0427136 -3.63998e-20)
(-0.0319594 -0.0525336 -4.03907e-20)
(-0.0427341 -0.04121 -3.77726e-20)
(-0.0510981 -0.0297831 7.01205e-20)
(-0.0570863 -0.0197928 6.41203e-20)
(-0.0608509 -0.0111303 -8.77345e-20)
(-0.0621058 -0.00172077 7.23717e-20)
(-0.0592349 0.0108716 0)
(-0.0493158 0.0265129 5.87548e-20)
(-0.0300196 0.0408149 0)
(-0.00197483 0.0475875 2.86194e-20)
(0.0295521 0.0435278 6.52194e-21)
(0.0612138 0.0322331 4.5029e-20)
(-0.0261051 -0.0479618 -9.30501e-21)
(-0.0354843 -0.0384105 4.507e-20)
(-0.042924 -0.0264576 -6.69267e-20)
(-0.0480336 -0.0130101 -9.41165e-20)
(-0.050289 0.000687515 -3.34801e-21)
(-0.0490773 0.0137478 -1.23252e-19)
(-0.0434704 0.0259842 -1.17519e-19)
(-0.0320697 0.0371843 -8.56635e-20)
(-0.0137342 0.0455763 -9.22084e-20)
(0.0114807 0.048389 -2.88041e-20)
(0.0399947 0.0427316 0)
(0.0740183 0.0340967 0)
(-0.0219914 -0.0426986 3.61969e-20)
(-0.0300086 -0.0349933 -5.14984e-20)
(-0.0361942 -0.0251559 8.17239e-20)
(-0.0402056 -0.0132235 7.63669e-22)
(-0.0414488 0.000396983 1.08938e-19)
(-0.0391334 0.0146972 5.24188e-20)
(-0.0324392 0.0282048 1.23926e-19)
(-0.0206135 0.0392067 2.27216e-19)
(-0.00345497 0.0456213 6.04611e-20)
(0.0186347 0.0458209 -8.78822e-20)
(0.0443694 0.0377048 0)
(0.0799997 0.0212812 0)
(-0.0185786 -0.0379732 -6.96976e-20)
(-0.0255551 -0.0312823 1.60431e-20)
(-0.0307964 -0.022915 -1.60253e-20)
(-0.0339714 -0.0130173 1.43607e-19)
(-0.0345889 -0.00174719 -1.33577e-19)
(-0.0319794 0.0104016 -4.32239e-20)
(-0.025515 0.0222949 6.34024e-21)
(-0.0147949 0.0320525 4.74124e-20)
(-2.29508e-05 0.0371968 -1.20815e-19)
(0.0172903 0.035106 8.57103e-20)
(0.0414461 0.0279981 -9.75132e-20)
(0.0717693 -0.00963729 0)
(-0.0274297 0.00800965 8.92247e-20)
(-0.0163174 -0.0101908 1.29133e-19)
(-0.0090908 -0.00217092 -1.81731e-19)
(-0.0108081 0.0152536 0)
(-0.00289959 0.0280492 -2.97745e-19)
(0.00979384 0.0317883 -1.91226e-19)
(0.0210284 0.0299085 1.71731e-19)
(0.0300665 0.0245357 1.04401e-19)
(0.0362606 0.017018 0)
(0.0395249 0.00851266 1.79685e-20)
(0.0400503 -0.000166097 5.41362e-20)
(0.0381004 -0.00839579 3.49077e-20)
(-0.0228141 0.0342436 1.30267e-19)
(0.000922053 0.00700036 -4.06633e-20)
(0.000464796 0.00326494 2.17382e-19)
(-0.0047302 0.0140426 0)
(0.000610226 0.0231211 0)
(0.0102251 0.0261852 3.08004e-19)
(0.0193513 0.0249951 1.91792e-19)
(0.0269663 0.0208076 -1.68694e-19)
(0.0323601 0.0146712 3.3761e-20)
(0.0353176 0.0075404 1.52842e-19)
(0.0358942 0.000148179 -1.70166e-20)
(0.0342852 -0.00693148 1.63332e-20)
(-0.00932991 0.0258492 -1.26615e-19)
(0.00695029 0.0124085 0)
(0.00211277 0.00716138 0)
(-0.00118151 0.0135322 0)
(0.00312368 0.0195808 0)
(0.0106139 0.0219247 2.90153e-19)
(0.0181008 0.0210808 -5.80627e-19)
(0.0245392 0.0177342 1.56822e-19)
(0.02922 0.0126828 0)
(0.0318704 0.00667757 -1.31751e-19)
(0.0324522 0.000379694 -5.59943e-20)
(0.0310977 -0.00570052 -2.38105e-20)
(-0.00851806 0.0211602 1.4903e-19)
(0.00477351 0.012213 2.02619e-19)
(0.00182982 0.00869451 -2.18279e-19)
(0.00112732 0.0127756 1.927e-19)
(0.00485619 0.0168552 0)
(0.0108943 0.0185856 5.42376e-20)
(0.0171321 0.0179166 2.08661e-19)
(0.0226146 0.0151881 -1.82456e-19)
(0.0266788 0.0109977 3.06008e-20)
(0.0290358 0.00592706 -1.54874e-20)
(0.0295967 0.0005539 7.75786e-20)
(0.0284366 -0.00467191 0)
(-0.00665476 0.0157333 7.72246e-21)
(0.00290207 0.0105068 -1.56334e-19)
(0.00180965 0.00897042 2.16411e-19)
(0.00264804 0.0118082 -4.20053e-19)
(0.00603251 0.0146378 2.01247e-19)
(0.0110718 0.0158999 -2.16459e-21)
(0.0163577 0.0153251 -2.84934e-20)
(0.0210681 0.0130689 2.88027e-19)
(0.0246106 0.00956761 -2.92829e-20)
(0.0267002 0.00527816 0)
(0.027225 0.000690966 7.31267e-21)
(0.0262164 -0.00379655 -3.60611e-20)
(-0.00522567 0.0121262 -1.49276e-19)
(0.00199131 0.00903676 0)
(0.00207033 0.00862423 0)
(0.00369705 0.0107423 2.30056e-19)
(0.00684399 0.0127627 -4.3819e-19)
(0.011173 0.0136829 -2.60333e-19)
(0.015723 0.0131745 2.53929e-20)
(0.0198119 0.0112888 -2.24721e-19)
(0.0229193 0.00834802 2.8111e-20)
(0.0247735 0.00471582 -1.42378e-20)
(0.0252553 0.000802884 2.12489e-20)
(0.0243659 -0.00304603 -6.74732e-21)
(-0.00394379 0.00941042 -3.10153e-19)
(0.00166232 0.00778943 -3.62447e-19)
(0.00243891 0.00799333 8.4324e-20)
(0.00445751 0.00964358 1.35786e-19)
(0.00741644 0.011136 3.79498e-19)
(0.011223 0.0118145 5.10055e-20)
(0.0151991 0.011359 -5.09787e-20)
(0.0187845 0.00977824 0)
(0.0215302 0.00730176 0)
(0.0231797 0.00422789 9.58235e-20)
(0.0236158 0.000894953 1.36927e-20)
(0.0228242 -0.00238822 2.69592e-20)
(-0.0028205 0.00728719 3.02336e-19)
(0.00164164 0.00668022 -4.68388e-21)
(0.00283613 0.00722022 -3.31736e-19)
(0.00503097 0.00855917 -5.24134e-19)
(0.00783073 0.00970309 -1.84594e-19)
(0.0112384 0.0102089 4.93744e-20)
(0.0147629 0.00980342 -7.48743e-20)
(0.0179383 0.00848319 2.55296e-20)
(0.0203834 0.00639763 2.10163e-19)
(0.0218591 0.00380468 -2.25651e-19)
(0.0222565 0.000981437 1.97647e-20)
(0.0215447 -0.00181045 -3.24221e-20)
(-0.00181506 0.0055757 -2.66189e-19)
(0.00181291 0.00567122 2.70874e-19)
(0.00324357 0.00639347 3.23084e-19)
(0.00548735 0.0075189 -7.5839e-22)
(0.00814666 0.0084237 0)
(0.0112469 0.00881151 1.87674e-19)
(0.0144173 0.00846192 2.47328e-20)
(0.0172664 0.00736166 5.5402e-22)
(0.0194645 0.00561568 -4.33614e-19)
(0.0207958 0.00343961 1.03031e-19)
(0.0211502 0.0010633 0)
(0.0204971 -0.00130538 2.52134e-20)
(-0.000892133 0.00416731 5.9668e-19)
(0.00211378 0.00478194 0)
(0.00368936 0.00559416 4.07051e-20)
(0.00594487 0.00657724 6.2559e-19)
(0.0085208 0.00732756 3.94322e-19)
(0.0114217 0.00764905 1.45826e-21)
(0.0143484 0.00736193 -7.05299e-20)
(0.0169557 0.00644784 2.18417e-19)
(0.0189465 0.00498697 1.98413e-19)
(0.0201306 0.00314918 8.70366e-20)
(0.0204041 0.00114423 1.24129e-20)
(0.019748 -0.000846787 0)
(2.14438e-05 0.00302237 -2.92396e-19)
(0.00266482 0.00414016 0)
(0.00447588 0.00506154 0)
(0.00687379 0.00600817 -3.25084e-19)
(0.00953293 0.00668393 -3.40932e-19)
(0.0123916 0.00696594 -1.78047e-19)
(0.0151576 0.00670699 -1.84243e-19)
(0.0175135 0.00589633 -3.54845e-19)
(0.0191957 0.00461339 -2.38543e-20)
(0.0200688 0.00301518 -1.08973e-19)
(0.0200593 0.00128435 1.2069e-20)
(0.0191715 -0.000400392 0)
(0.00100811 0.00193989 -2.85868e-19)
(0.00361805 0.0036803 0)
(0.00583577 0.00480492 0)
(0.00834562 0.00568883 4.04478e-20)
(0.0108129 0.00615265 -4.04081e-20)
(0.0131229 0.00618144 4.39498e-20)
(0.015044 0.00574391 -4.38308e-20)
(0.0163757 0.00489676 1.8377e-19)
(0.0169836 0.00375007 0)
(0.016821 0.00245366 -1.05685e-19)
(0.0159172 0.00115369 -8.1911e-20)
(0.0143508 -4.69096e-06 2.31073e-20)
(0.0340035 -0.0156906 2.74072e-22)
(0.0280991 -0.0217129 -6.36731e-20)
(0.0206928 -0.0261634 0)
(0.0121031 -0.0287193 8.49951e-20)
(0.0026583 -0.0289731 1.29316e-19)
(-0.00718617 -0.0264433 4.87211e-20)
(-0.0166059 -0.0207633 4.37893e-20)
(-0.0242034 -0.0118694 -1.3854e-19)
(-0.0279908 -0.000153345 0)
(-0.0246967 0.0123787 -8.84344e-20)
(-0.0158995 0.0307309 8.21897e-20)
(0.0265428 0.0471741 8.69696e-20)
(0.0307367 -0.013232 3.17591e-20)
(0.0255345 -0.0184281 0)
(0.0189726 -0.0222059 1.14257e-19)
(0.0113931 -0.0242689 0)
(0.00320926 -0.0242887 -8.14197e-23)
(-0.00506702 -0.0219264 1.82849e-19)
(-0.0126849 -0.0169835 3.85389e-20)
(-0.0186569 -0.00970346 -1.85818e-19)
(-0.0217618 -0.000535126 0)
(-0.0197392 0.00919036 8.31948e-20)
(-0.012847 0.0216515 -7.72382e-20)
(0.0156274 0.0357177 0)
(0.0280013 -0.0111496 -1.53132e-20)
(0.0234097 -0.0156224 5.79436e-20)
(0.0176035 -0.0188324 -1.11083e-19)
(0.0109159 -0.0205027 1.28784e-19)
(0.00376487 -0.0203775 -4.84035e-20)
(-0.00332379 -0.0182184 -1.12019e-19)
(-0.00966189 -0.0138999 -2.43894e-19)
(-0.0144821 -0.00780837 1.81779e-19)
(-0.0171019 -0.000316227 0)
(-0.0160962 0.00764386 -9.53051e-20)
(-0.010461 0.0186291 -2.97258e-20)
(0.011211 0.0283812 0)
(0.0257141 -0.00936989 -7.15475e-21)
(0.0216458 -0.0132141 -6.28671e-20)
(0.016495 -0.0159404 1.36718e-20)
(0.0105827 -0.0173001 -4.63304e-22)
(0.00430714 -0.0170933 -9.40804e-20)
(-0.00182875 -0.0151556 0)
(-0.00722309 -0.0114218 1.96526e-19)
(-0.0111715 -0.00626878 -3.81325e-20)
(-0.0132156 2.60717e-05 0)
(-0.0125196 0.00671117 2.48728e-19)
(-0.00868405 0.015053 0)
(0.00741556 0.0206164 0)
(0.0238058 -0.00783703 -2.79444e-20)
(0.020184 -0.0111353 0)
(0.0155952 -0.013444 7.77139e-20)
(0.0103431 -0.0145562 -9.62018e-20)
(0.00480227 -0.0143062 1.60594e-21)
(-0.000565771 -0.0125873 1.92549e-19)
(-0.00525674 -0.00937674 -3.76416e-20)
(-0.00859966 -0.00502475 -1.07715e-19)
(-0.0101736 0.000211247 3.23775e-20)
(-0.00936187 0.00561098 -1.25172e-19)
(-0.00632519 0.0114638 -6.07406e-20)
(0.00538435 0.0148705 2.97009e-20)
(0.022216 -0.00650934 2.71861e-20)
(0.018975 -0.00932888 0)
(0.0148648 -0.0112817 -1.00028e-19)
(0.01017 -0.0121877 2.29161e-20)
(0.00524241 -0.0119176 -2.29574e-20)
(0.000498199 -0.0104043 -2.05832e-19)
(-0.00364721 -0.00765509 1.57791e-19)
(-0.00656846 -0.00398689 1.78609e-19)
(-0.00788475 0.00030589 0)
(-0.00705541 0.00452371 3.08968e-20)
(-0.00450191 0.00852981 -3.07897e-20)
(0.00386995 0.0107201 0)
(0.0208959 -0.00534971 6.42324e-21)
(0.0179753 -0.00774794 -5.67742e-20)
(0.014272 -0.00939619 0)
(0.0100483 -0.0101276 0)
(0.00562851 -0.00984914 0)
(0.00138969 -0.00852506 -3.91412e-20)
(-0.00232077 -0.00618477 -1.11427e-19)
(-0.00493132 -0.00309851 -1.4091e-19)
(-0.00612728 0.000398045 3.20106e-20)
(-0.00542654 0.00367627 -1.39979e-21)
(-0.00333566 0.00646182 -2.73174e-19)
(0.00272832 0.00785639 -2.37595e-19)
(0.0198 -0.00433253 2.52485e-20)
(0.0171531 -0.00635922 6.10243e-20)
(0.0137939 -0.00773688 -1.19827e-20)
(0.00996563 -0.00832216 2.16804e-20)
(0.00596532 -0.00803907 1.26502e-19)
(0.00213269 -0.00688313 1.40719e-19)
(-0.00123468 -0.00490641 -1.45974e-19)
(-0.00361126 -0.00231275 3.11246e-19)
(-0.00476554 0.000513588 0)
(-0.00426846 0.00305391 0)
(-0.002632 0.00499089 2.06594e-19)
(0.00182244 0.00579184 2.61688e-20)
(0.0189047 -0.00342863 -2.46011e-20)
(0.0164851 -0.00512877 -1.16342e-20)
(0.013412 -0.00626725 1.16421e-20)
(0.00991364 -0.00672194 0)
(0.00625703 -0.00643763 -3.28742e-19)
(0.0027455 -0.00542448 -1.91949e-19)
(-0.000346672 -0.00375876 1.47309e-19)
(-0.00256368 -0.00159967 -1.32436e-19)
(-0.00372767 0.000667544 3.28281e-20)
(-0.00344381 0.00260894 2.98684e-20)
(-0.00220415 0.00392896 -2.98205e-20)
(0.00109263 0.00426694 2.2891e-19)
(0.0182339 -0.0026238 -2.38336e-20)
(0.0159606 -0.0040314 0)
(0.0130956 -0.00495225 -8.87308e-20)
(0.00984826 -0.00528152 2.0584e-20)
(0.00645738 -0.00498874 1.20247e-19)
(0.00319697 -0.00408888 -1.7104e-20)
(0.000316934 -0.00267229 -7.11181e-20)
(-0.00180693 -0.000916994 2.30855e-19)
(-0.00298739 0.00089687 -2.1991e-19)
(-0.00290488 0.00233841 -1.20699e-21)
(-0.00199316 0.00317763 -2.92871e-20)
(0.000461258 0.00310777 0)
(0.0175053 -0.00187561 1.75344e-20)
(0.0151715 -0.00300456 -7.32747e-20)
(0.0123415 -0.00369025 1.62103e-19)
(0.00921471 -0.00386411 0)
(0.00600462 -0.00351281 -1.89874e-20)
(0.00295178 -0.00266895 1.90172e-20)
(0.000262908 -0.00145151 1.05034e-19)
(-0.00171445 -1.70985e-05 -4.84183e-19)
(-0.00283302 0.00138105 2.44068e-19)
(-0.0028247 0.00237751 0)
(-0.00208564 0.00275701 0)
(-0.000153871 0.00223119 0)
(0.0122632 -0.000908825 4.52011e-20)
(0.00979698 -0.00148376 8.7669e-20)
(0.00711744 -0.00168335 -1.68557e-19)
(0.00439438 -0.00150234 1.95638e-20)
(0.00179483 -0.000971009 -3.80787e-20)
(-0.00052079 -0.000151189 -9.02496e-20)
(-0.00240156 0.000823137 -6.73366e-20)
(-0.00359668 0.00180406 3.22492e-20)
(-0.00405018 0.00256418 -2.0866e-19)
(-0.00359345 0.00285099 -2.90329e-20)
(-0.00255518 0.0025352 0)
(-0.000774946 0.00141107 -2.16033e-19)
(0.0080726 0.0274582 8.95287e-20)
(-0.01018 0.0163346 1.43911e-19)
(-0.00216628 0.0090825 -1.77016e-19)
(0.0152694 0.0108027 -2.65817e-19)
(0.0280723 0.00289379 2.92083e-19)
(0.0318108 -0.00980619 3.24307e-19)
(0.0299299 -0.0210436 -3.12926e-20)
(0.0245564 -0.0300854 -7.01166e-20)
(0.0170383 -0.0362834 3.56987e-20)
(0.00853172 -0.0395529 0)
(-0.000149681 -0.0400836 0)
(-0.00838288 -0.0381395 3.33782e-22)
(0.0342939 0.0228416 0)
(0.00701684 -0.000921823 1.345e-20)
(0.00327303 -0.000480725 0)
(0.014057 0.00472557 2.03906e-19)
(0.0231422 -0.000617305 -5.86747e-20)
(0.0262057 -0.0102382 1.21013e-19)
(0.0250151 -0.0193675 -3.4991e-19)
(0.0208266 -0.0269864 3.28081e-20)
(0.0146895 -0.0323842 0)
(0.00755714 -0.0353462 -1.35997e-19)
(0.000162247 -0.0359274 0)
(-0.00692079 -0.0343231 3.301e-20)
(0.0258936 0.00934842 0)
(0.012435 -0.00695976 -1.8888e-19)
(0.00717156 -0.00212613 4.14096e-20)
(0.0135473 0.00117603 0)
(0.0196003 -0.00313212 2.15677e-19)
(0.0219436 -0.0106278 5.97154e-20)
(0.0210994 -0.0181178 2.19156e-19)
(0.0177517 -0.0245601 -1.89085e-19)
(0.0126993 -0.0292447 3.21331e-20)
(0.00669223 -0.0318992 2.61437e-19)
(0.000391609 -0.032485 6.40765e-20)
(-0.00569184 -0.0311344 -1.58891e-20)
(0.0211967 0.00853035 -1.49344e-19)
(0.012238 -0.00478517 0)
(0.00870741 -0.00183903 0)
(0.0127906 -0.00113407 2.43348e-19)
(0.016873 -0.00486556 -2.59715e-19)
(0.0186028 -0.0109086 5.71742e-20)
(0.0179337 -0.0171496 -5.71419e-20)
(0.0152042 -0.0226357 1.22349e-19)
(0.0110126 -0.0267038 1.22715e-19)
(0.00593998 -0.0290644 -2.02649e-21)
(0.000564035 -0.0296289 -6.22152e-20)
(-0.00466503 -0.0284721 1.49957e-20)
(0.0157606 0.00666477 1.45706e-19)
(0.0105266 -0.00290944 0)
(0.00898383 -0.00181607 4.52275e-20)
(0.0118229 -0.00265563 -4.20793e-19)
(0.0146537 -0.00604284 0)
(0.0159157 -0.0110862 -2.68488e-19)
(0.0153405 -0.0163757 3.06812e-19)
(0.0130837 -0.0210893 -2.59205e-19)
(0.00958091 -0.0246356 -8.96261e-20)
(0.00528954 -0.0267284 -2.68363e-19)
(0.000699698 -0.0272565 0)
(-0.00379086 -0.0262507 -2.89845e-20)
(0.0121453 0.00523313 3.90133e-20)
(0.00905188 -0.00199641 -2.01584e-19)
(0.00863697 -0.00207608 0)
(0.0107555 -0.0037052 -7.71102e-22)
(0.0127769 -0.00685497 0)
(0.0136974 -0.0111876 5.45262e-20)
(0.0131885 -0.0157411 -2.70281e-19)
(0.0113021 -0.0198332 1.96294e-19)
(0.00835989 -0.0229441 1.41161e-19)
(0.00472585 -0.0248013 1.15166e-19)
(0.000810433 -0.0252861 -5.653e-20)
(-0.00304143 -0.0243991 1.40123e-20)
(0.00942444 0.00394903 0)
(0.00780214 -0.0016659 4.79925e-19)
(0.00800461 -0.00244442 3.82017e-19)
(0.00965568 -0.00446598 1.35368e-19)
(0.011149 -0.00742788 0)
(0.0118276 -0.0112378 2.51877e-19)
(0.0113717 -0.0152173 -2.46103e-20)
(0.00979025 -0.0188058 6.21224e-22)
(0.00731232 -0.0215548 -1.37066e-19)
(0.00423667 -0.0232072 0)
(0.000901306 -0.0236459 4.70998e-22)
(-0.00238456 -0.0228564 3.95656e-28)
(0.00729776 0.00282419 -3.08784e-19)
(0.00669059 -0.00164482 -6.72129e-19)
(0.00723022 -0.00284174 -2.88993e-19)
(0.00857044 -0.00503953 -3.50386e-19)
(0.00971475 -0.00784239 0)
(0.0102208 -0.0112533 4.94554e-20)
(0.00981492 -0.0147811 -7.49968e-20)
(0.00849394 -0.0179595 -5.85116e-22)
(0.00640699 -0.0204077 2.61751e-20)
(0.00381233 -0.0218861 0)
(0.000986777 -0.0222858 5.30438e-20)
(-0.00180742 -0.0215759 2.59318e-20)
(0.00558326 0.00181712 -4.03236e-21)
(0.00567948 -0.00181625 3.09879e-19)
(0.00640244 -0.00324932 0)
(0.00752888 -0.00549626 4.31066e-20)
(0.00843409 -0.00815858 2.22138e-21)
(0.0088222 -0.0112618 -1.85995e-19)
(0.00847223 -0.0144355 1.71896e-19)
(0.00737114 -0.0172875 -2.2525e-19)
(0.00562399 -0.0194886 0)
(0.00344623 -0.0208223 -1.02658e-19)
(0.00106799 -0.0211788 0)
(-0.00130282 -0.0205275 -5.04074e-20)
(0.00417269 0.000892802 2.97628e-19)
(0.00478869 -0.00211761 -3.907e-20)
(0.00560208 -0.00369547 3.98628e-19)
(0.00658596 -0.00595408 2.92734e-19)
(0.00733675 -0.00853296 -3.05406e-19)
(0.0076585 -0.0114369 1.85161e-19)
(0.00737107 -0.0143666 -4.71887e-20)
(0.00645619 -0.0169768 1.70844e-19)
(0.00499437 -0.0189702 2.4582e-20)
(0.00315503 -0.0201567 1.87164e-19)
(0.00114843 -0.0204321 -3.7143e-20)
(-0.00084488 -0.0197777 2.45084e-20)
(0.00302622 -2.17965e-05 0)
(0.00414571 -0.00266909 0)
(0.00506834 -0.0044825 -3.10882e-19)
(0.00601576 -0.00688333 0)
(0.00669202 -0.00954533 3.85153e-19)
(0.00697426 -0.0124069 -4.45208e-19)
(0.00671501 -0.0151758 -1.16136e-19)
(0.00590365 -0.0175343 1.66096e-19)
(0.00461982 -0.019219 0)
(0.00302018 -0.0200941 -1.76121e-22)
(0.00128775 -0.0200862 1.44813e-19)
(-0.000399107 -0.0191998 0)
(0.00194204 -0.00100931 -2.50227e-19)
(0.00368436 -0.00362237 -3.65798e-19)
(0.00481015 -0.00584223 3.71782e-20)
(0.00569473 -0.00835448 0)
(0.00615894 -0.0108241 -4.23482e-20)
(0.0061878 -0.0131364 4.32314e-19)
(0.00574996 -0.0150596 -4.39985e-20)
(0.0049022 -0.0163932 -2.07264e-19)
(0.0037547 -0.017003 2.31888e-20)
(0.00245712 -0.0168419 -9.41715e-20)
(0.00115583 -0.0159391 -1.87649e-19)
(-3.9632e-06 -0.0143736 2.31496e-20)
(-0.0156831 -0.0340477 1.70484e-20)
(-0.0217127 -0.0281466 -1.53944e-20)
(-0.0261718 -0.0207416 1.53818e-20)
(-0.0287372 -0.0121505 1.11229e-19)
(-0.0290007 -0.00270105 1.02799e-19)
(-0.0264808 0.00715128 -9.27664e-20)
(-0.0208053 0.0165819 -3.85183e-20)
(-0.0119134 0.0241973 -1.00589e-19)
(-0.000195913 0.0279994 2.46265e-19)
(0.0123449 0.0247161 0)
(0.0307138 0.0159188 9.5271e-20)
(0.0471742 -0.0265484 0)
(-0.0132265 -0.0307788 1.60279e-20)
(-0.0184292 -0.025579 0)
(-0.0222145 -0.0190177 0)
(-0.0242855 -0.0114366 -6.45249e-22)
(-0.0243132 -0.00324821 -9.99261e-20)
(-0.0219587 0.00503351 -2.26644e-19)
(-0.0170207 0.0126608 -1.21964e-19)
(-0.0097431 0.0186493 0)
(-0.000572507 0.021765 -1.24981e-19)
(0.00915745 0.0197522 2.87373e-20)
(0.0216319 0.0128597 5.96529e-20)
(0.0357163 -0.0156256 1.38058e-19)
(-0.0111457 -0.0280412 -1.51361e-20)
(-0.0156242 -0.0234515 1.42227e-20)
(-0.0188409 -0.0176455 9.61479e-20)
(-0.020518 -0.0109562 -1.8333e-19)
(-0.0203994 -0.00380124 -1.45427e-19)
(-0.0182456 0.00329239 -2.02359e-20)
(-0.0139323 0.00963978 2.4206e-19)
(-0.00784348 0.0144738 1.09491e-19)
(-0.000349085 0.0171033 -1.34997e-19)
(0.00761537 0.0161074 0)
(0.0186125 0.0104744 -1.1259e-19)
(0.028382 -0.0112076 7.404e-21)
(-0.00936719 -0.0257522 2.9253e-20)
(-0.0132165 -0.0216853 0)
(-0.0159487 -0.0165345 -1.07334e-19)
(-0.0173141 -0.0106204 2.4831e-20)
(-0.017113 -0.00434127 9.25606e-20)
(-0.01518 0.00179929 3.68334e-19)
(-0.0114488 0.00720212 -2.02829e-19)
(-0.00629887 0.0111629 -1.78985e-19)
(-1.78823e-06 0.0132149 3.02158e-19)
(0.00668807 0.0125283 -1.27528e-19)
(0.0150412 0.00869625 0)
(0.020616 -0.0074111 -1.13641e-19)
(-0.00783525 -0.0238422 -2.81378e-20)
(-0.0111382 -0.0202215 0)
(-0.0134518 -0.0156326 0)
(-0.014569 -0.0103787 7.42655e-20)
(-0.0143239 -0.00483444 2.29036e-19)
(-0.0126094 0.00053783 -1.92378e-19)
(-0.00940149 0.00523766 1.56537e-19)
(-0.00504879 0.00858961 -1.45849e-19)
(0.000187797 0.0101702 -2.67689e-19)
(0.00559222 0.00936717 -4.05371e-21)
(0.0114553 0.00633379 1.22947e-19)
(0.0148684 -0.00537983 0)
(-0.0065082 -0.0222509 1.36184e-20)
(-0.00933192 -0.0190108 -5.21125e-20)
(-0.011289 -0.0149003 0)
(-0.0121994 -0.0102037 0)
(-0.0119336 -0.00527284 -1.99879e-19)
(-0.010424 -0.000524272 -1.45245e-19)
(-0.0076784 0.0036287 0)
(-0.00400664 0.00655666 1.41936e-19)
(0.000286853 0.0078796 9.94822e-20)
(0.00450715 0.00705682 1.57008e-19)
(0.00852196 0.00450713 -2.42323e-19)
(0.0107177 -0.00386573 2.40031e-19)
(-0.00534901 -0.0209295 -3.95292e-28)
(-0.00775092 -0.0180096 6.31113e-20)
(-0.00940318 -0.014306 -1.23786e-20)
(-0.0101383 -0.0100804 -2.23319e-20)
(-0.00986343 -0.00565751 4.3359e-20)
(-0.00854239 -0.00141441 1.41359e-19)
(-0.00620501 0.00230219 0)
(-0.00311649 0.00491876 0)
(0.00038256 0.00612049 1.32744e-19)
(0.00366195 0.00542612 0)
(0.00645266 0.00333978 8.94567e-20)
(0.00785321 -0.00272477 -2.04208e-19)
(-0.00433231 -0.0198325 2.52964e-20)
(-0.00636222 -0.0171861 4.89336e-20)
(-0.00774337 -0.0138264 9.38896e-20)
(-0.0083319 -0.00999648 0)
(-0.00805174 -0.00599319 2.04707e-20)
(-0.00689828 -0.0021564 -5.89155e-20)
(-0.00492431 0.00121613 7.43273e-20)
(-0.00232817 0.00359743 -2.08055e-19)
(0.000499987 0.00475825 -9.56808e-20)
(0.00304215 0.0042664 0)
(0.004983 0.00263379 2.40279e-19)
(0.00578873 -0.00181978 2.35615e-19)
(-0.00342882 -0.0189361 -4.92023e-20)
(-0.00513182 -0.0165169 -4.76902e-20)
(-0.00627327 -0.0134435 -9.15171e-20)
(-0.00673078 -0.00994344 2.1165e-20)
(-0.0064489 -0.006284 -1.22667e-21)
(-0.00543741 -0.0027684 -2.00085e-20)
(-0.0037743 0.000327788 0)
(-0.00161299 0.00254913 -8.08302e-22)
(0.000655269 0.00372014 -3.11906e-20)
(0.00259923 0.00344001 2.75882e-19)
(0.00392219 0.00220446 -2.33977e-19)
(0.00426428 -0.00109081 -2.29675e-19)
(-0.00262427 -0.0182643 2.39371e-20)
(-0.00403447 -0.0159915 -4.62666e-20)
(-0.00495783 -0.013126 8.89197e-20)
(-0.00528956 -0.00987712 0)
(-0.00499873 -0.00648365 0)
(-0.00409969 -0.00321944 -1.14808e-19)
(-0.00268567 -0.000335866 1.05677e-19)
(-0.0009285 0.00179208 3.98404e-19)
(0.000886279 0.00297922 2.51203e-19)
(0.00233031 0.00289999 3.09249e-20)
(0.00317205 0.00199221 -2.93827e-20)
(0.0031056 -0.000460371 0)
(-0.0018763 -0.0175343 0)
(-0.00300756 -0.0152008 4.51472e-20)
(-0.00369537 -0.0123703 -8.67861e-20)
(-0.00387128 -0.00924217 2.01357e-20)
(-0.00352155 -0.00602983 -2.01651e-20)
(-0.00267743 -0.00297336 1.47837e-19)
(-0.00146376 -0.000281031 -1.38925e-19)
(-2.60544e-05 0.00169927 -2.59288e-19)
(0.00137223 0.00282466 -2.4483e-19)
(0.00237071 0.00281908 -2.33509e-19)
(0.00275305 0.00208342 2.54868e-19)
(0.00222978 0.000153985 -2.80622e-20)
(-0.000909628 -0.0122863 4.52877e-20)
(-0.00148621 -0.00982012 -8.78236e-20)
(-0.00168729 -0.00714006 0)
(-0.00150759 -0.0044158 -1.61172e-19)
(-0.000977377 -0.00181471 -1.52761e-19)
(-0.000156736 0.000504769 0)
(0.000814847 0.00238751 3.26636e-20)
(0.00179815 0.00358468 -6.3327e-20)
(0.00255918 0.00404403 1.55063e-21)
(0.00284689 0.00358892 2.91246e-20)
(0.00253318 0.00255312 -4.40494e-19)
(0.00141056 0.000774705 0)
)
;

boundaryField
{
    rotor
    {
        type            movingWallVelocity;
        value           nonuniform 0();
    }
    stator
    {
        type            movingWallVelocity;
        value           nonuniform List<vector> 
96
(
(-1.59214e-16 -1.4912e-16 -2.94648e-16)
(-2.81705e-15 -2.31189e-15 0)
(2.23209e-15 1.59949e-15 -2.94648e-16)
(0 0 0)
(0 0 0)
(1.77222e-15 8.02984e-16 0)
(0 0 0)
(-1.07928e-15 -3.27395e-16 -2.94648e-16)
(1.04256e-15 2.4309e-16 0)
(0 0 0)
(-4.59864e-16 -4.52926e-17 2.94648e-16)
(7.00093e-18 2.29187e-19 -3.81579e-33)
(-1.61168e-16 5.2761e-18 -2.94648e-16)
(0 0 0)
(-7.57692e-16 1.25095e-16 -2.94648e-16)
(1.11782e-15 -2.60639e-16 -2.94648e-16)
(1.07928e-15 -3.27395e-16 0)
(2.0647e-15 -7.77099e-16 -5.89296e-16)
(1.77222e-15 -8.02984e-16 0)
(1.83338e-15 -9.79963e-16 -2.94648e-16)
(-2.11409e-15 1.31463e-15 -2.94648e-16)
(0 0 0)
(-4.62378e-15 3.79464e-15 -5.89296e-16)
(-2.35214e-15 2.20302e-15 -2.94648e-16)
(2.20302e-15 -2.35214e-15 4.45384e-32)
(1.89732e-15 -2.31189e-15 -2.94648e-16)
(-1.11604e-15 1.55744e-15 -2.94648e-16)
(2.57581e-16 -4.14224e-16 -2.94648e-16)
(-9.79963e-16 1.83338e-15 0)
(8.86112e-16 -1.95569e-15 0)
(7.77099e-16 -2.0647e-15 0)
(0 0 -2.94648e-16)
(0 0 0)
(0 0 0)
(0 0 0)
(0 0 0)
(4.76486e-34 -1.55985e-35 -2.94648e-16)
(0 0 0)
(-6.43275e-17 -3.89626e-16 0)
(-2.60639e-16 -1.11782e-15 -2.94648e-16)
(0 0 0)
(5.84959e-16 1.5542e-15 0)
(8.02984e-16 1.77222e-15 0)
(1.0476e-15 1.95993e-15 0)
(1.05705e-15 1.69987e-15 2.94648e-16)
(-1.11604e-15 -1.55744e-15 0)
(1.89732e-15 2.31189e-15 4.71713e-32)
(0 0 -2.94648e-16)
(0 0 0)
(-1.17859e-15 1.17859e-15 0)
(-2.35718e-15 2.35718e-15 0)
(0 0 0)
(-1.17859e-15 1.17859e-15 0)
(1.17859e-15 -1.17859e-15 -2.94648e-16)
(-2.35718e-15 2.35718e-15 0)
(-2.35718e-15 2.35718e-15 0)
(0 0 0)
(0 0 -2.94648e-16)
(0 0 0)
(0 0 0)
(0 0 0)
(1.17859e-15 1.17859e-15 0)
(-1.17859e-15 -1.17859e-15 -2.94648e-16)
(1.17859e-15 1.17859e-15 0)
(0 0 -2.94648e-16)
(1.17859e-15 1.17859e-15 0)
(1.17859e-15 1.17859e-15 0)
(0 0 0)
(0 0 -2.94648e-16)
(0 0 -2.94648e-16)
(0 0 0)
(0 0 0)
(0 0 0)
(1.17859e-15 1.17859e-15 -2.94648e-16)
(-1.17859e-15 -1.17859e-15 0)
(1.17859e-15 1.17859e-15 -2.94648e-16)
(0 0 -2.94648e-16)
(0 0 -2.94648e-16)
(1.17859e-15 1.17859e-15 -2.94648e-16)
(0 0 -2.94648e-16)
(0 0 0)
(0 0 -2.94648e-16)
(0 0 -2.94648e-16)
(2.35718e-15 2.35718e-15 -2.94648e-16)
(0 0 0)
(1.17859e-15 -1.17859e-15 -2.94648e-16)
(-1.17859e-15 1.17859e-15 0)
(1.17859e-15 -1.17859e-15 -2.94648e-16)
(0 0 -2.94648e-16)
(0 0 -2.94648e-16)
(1.17859e-15 -1.17859e-15 -2.94648e-16)
(0 0 -2.94648e-16)
(0 0 0)
(0 0 -2.94648e-16)
(0 0 -2.94648e-16)
(2.35718e-15 -2.35718e-15 -2.94648e-16)
)
;
    }
    AMI1
    {
        type            cyclicAMI;
        value           nonuniform 0();
    }
    AMI2
    {
        type            cyclicAMI;
        value           nonuniform List<vector> 
48
(