/*--------------------------------*- C++ -*----------------------------------*\
| =========                 |                                                 |
| \\      /  F ield         | OpenFOAM: The Open Source CFD Toolbox           |
|  \\    /   O peration     | Version:  2.4.0                                 |
|   \\  /    A nd           | Web:      www.OpenFOAM.org                      |
|    \\/     M anipulation  |                                                 |
\*---------------------------------------------------------------------------*/
FoamFile
{
    version     2.0;
    format      ascii;
    class       volVectorField;
    location    "0.75";
    object      U;
}
// * * * * * * * * * * * * * * * * * * * * * * * * * * * * * * * * * * * * * //

dimensions      [0 1 -1 0 0 0 0];

internalField   nonuniform List<vector> 
3072
(
(0.00587361 0.133375 0)
(0.015201 0.131649 0)
(0.0237921 0.129118 -3.58363e-26)
(0.0322526 0.126308 -2.78794e-26)
(0.0410243 0.123732 4.83102e-27)
(0.0504187 0.121591 -4.09964e-27)
(0.0604923 0.120177 -3.95054e-26)
(0.0711852 0.119568 -1.65546e-27)
(0.0819638 0.118971 1.23451e-26)
(0.0933514 0.117691 -2.35895e-25)
(0.102248 0.117249 -1.35584e-25)
(0.107016 0.115665 -3.69394e-25)
(0.00288371 0.149296 8.06135e-27)
(0.0104583 0.147629 -4.28266e-27)
(0.0196231 0.14494 -3.39477e-26)
(0.0302446 0.141709 0)
(0.0424808 0.138421 4.16e-27)
(0.0567054 0.135826 5.27442e-26)
(0.072912 0.134805 0)
(0.0892508 0.136368 0)
(0.103069 0.138825 0)
(0.118462 0.138011 -3.8552e-25)
(0.13276 0.139041 -2.57048e-25)
(0.142392 0.14276 2.22332e-26)
(0.00288104 0.164744 8.80893e-27)
(0.0107785 0.163143 0)
(0.0212994 0.160533 0)
(0.0343932 0.157236 5.46963e-26)
(0.0501226 0.153538 4.94932e-27)
(0.0686657 0.149528 9.26458e-26)
(0.0906655 0.145663 9.01702e-26)
(0.112738 0.145385 0)
(0.128967 0.150536 0)
(0.147298 0.152411 -2.46936e-25)
(0.162324 0.152461 -1.62306e-25)
(0.166947 0.155412 3.63154e-25)
(0.00264061 0.180647 -2.98404e-27)
(0.0113174 0.179869 3.07364e-26)
(0.0235932 0.178335 -6.01753e-27)
(0.0392668 0.175892 7.01156e-26)
(0.0583714 0.172503 1.17918e-26)
(0.0811932 0.167907 1.68064e-25)
(0.108758 0.162046 1.70334e-25)
(0.135661 0.155984 2.45211e-25)
(0.154232 0.156658 1.21194e-25)
(0.175564 0.160529 1.17081e-25)
(0.189416 0.165636 -5.69008e-25)
(0.200543 0.173325 -6.9271e-26)
(0.00349181 0.196606 0)
(0.0139029 0.197188 5.0735e-26)
(0.0282663 0.197095 1.03025e-25)
(0.0464345 0.195541 1.14082e-26)
(0.0685564 0.192136 -2.44649e-25)
(0.0946547 0.186772 2.45388e-25)
(0.124636 0.178596 2.58237e-25)
(0.155255 0.169236 2.29447e-25)
(0.177271 0.166442 2.061e-26)
(0.198604 0.163775 2.04449e-27)
(0.209404 0.166918 -3.6749e-25)
(0.220864 0.171208 -6.84539e-25)
(0.00568463 0.212721 -2.92187e-27)
(0.0185564 0.215301 -6.76466e-28)
(0.0346712 0.216889 -9.54224e-36)
(0.0542312 0.216029 0)
(0.0779239 0.211724 -2.35033e-25)
(0.105719 0.204196 -2.10728e-25)
(0.137264 0.194681 0)
(0.168947 0.18137 1.54186e-25)
(0.192396 0.173278 1.46511e-25)
(0.211124 0.167986 0)
(0.218814 0.165109 -5.66618e-25)
(0.225101 0.16373 -1.16331e-24)
(0.00980007 0.229037 0)
(0.0256193 0.234493 1.21706e-25)
(0.0426701 0.238042 -3.87567e-25)
(0.0618583 0.237875 0)
(0.0848841 0.23198 4.25968e-26)
(0.111952 0.220284 -6.77473e-25)
(0.141989 0.20385 2.35474e-25)
(0.171786 0.186032 -1.61993e-25)
(0.198066 0.173719 -2.10244e-25)
(0.211608 0.167413 -5.84793e-25)
(0.214747 0.161097 -2.25888e-26)
(0.216273 0.156168 -6.15228e-25)
(0.0164691 0.245665 0)
(0.0352707 0.254872 1.29163e-25)
(0.0520408 0.260179 -2.7964e-25)
(0.0689283 0.260936 -3.04012e-25)
(0.0889311 0.254224 0)
(0.112468 0.239587 -6.51759e-25)
(0.139678 0.215928 -1.95713e-25)
(0.16856 0.188471 -4.40209e-25)
(0.192813 0.166276 -4.22504e-26)
(0.201265 0.156902 7.98786e-26)
(0.201184 0.15273 6.06995e-25)
(0.199153 0.14714 3.62397e-26)
(0.0262875 0.262498 0)
(0.0469271 0.275443 1.34086e-25)
(0.0617713 0.280673 2.93092e-25)
(0.0750157 0.281877 -3.22801e-25)
(0.0909819 0.275688 -6.70916e-25)
(0.109503 0.261733 0)
(0.131493 0.236145 0)
(0.156869 0.198759 0)
(0.178195 0.16174 0)
(0.18712 0.144632 5.25845e-25)
(0.18142 0.140525 -1.10044e-26)
(0.177326 0.134736 -5.00283e-26)
(0.0386543 0.279095 0)
(0.0578421 0.293161 1.35542e-25)
(0.0686391 0.292988 5.87309e-25)
(0.078099 0.292524 -5.8318e-25)
(0.0908471 0.287555 -1.26e-24)
(0.105188 0.278129 6.90579e-25)
(0.121395 0.258187 0)
(0.141128 0.22325 5.46149e-25)
(0.157006 0.170988 1.25748e-24)
(0.164701 0.131438 0)
(0.159674 0.118898 -1.07085e-24)
(0.162633 0.112777 -1.66433e-25)
(0.0538268 0.292876 0)
(0.0622692 0.296871 -1.25951e-25)
(0.0669102 0.283374 -2.33566e-34)
(0.0745913 0.279001 -5.80112e-25)
(0.0865472 0.27613 -5.32768e-25)
(0.0990211 0.27425 9.62713e-26)
(0.112412 0.266061 5.78968e-25)
(0.127647 0.247784 1.85948e-24)
(0.141747 0.208234 1.2955e-24)
(0.154436 0.152942 1.04579e-24)
(0.14769 0.120641 -1.56547e-24)
(0.159494 0.100665 -8.18733e-25)
(0.0205835 0.26412 7.76996e-26)
(0.0347994 0.253248 2.94465e-25)
(0.0442215 0.227965 -4.16105e-25)
(0.0585682 0.222935 0)
(0.0753571 0.225681 0)
(0.0891722 0.233986 -9.98997e-25)
(0.103437 0.241004 -5.87667e-25)
(0.120604 0.245808 1.27642e-24)
(0.136813 0.238877 0)
(0.145925 0.199067 1.6605e-24)
(0.145027 0.156277 0)
(0.16649 0.107466 -3.26605e-25)
(0.116227 0.107148 -1.17951e-26)
(0.12618 0.0993821 -1.14046e-25)
(0.13807 0.0895471 6.94535e-26)
(0.15049 0.0813793 8.68826e-26)
(0.154594 0.0797491 1.06601e-25)
(0.153275 0.0710484 0)
(0.1513 0.0562027 0)
(0.150396 0.0419703 -7.38202e-27)
(0.149299 0.0322658 -8.55916e-26)
(0.143935 0.0259781 0)
(0.138207 0.0138619 0)
(0.134644 0.00466661 4.64871e-27)
(0.160991 0.135621 -2.31999e-35)
(0.173038 0.132071 0)
(0.182736 0.119135 5.11054e-25)
(0.188747 0.104308 1.65322e-25)
(0.189685 0.103478 1.3439e-25)
(0.192971 0.102035 -3.07213e-25)
(0.187948 0.0945095 -1.69036e-25)
(0.177335 0.0736712 4.46874e-26)
(0.167528 0.0556435 0)
(0.158752 0.0484516 0)
(0.155052 0.0273033 0)
(0.151241 0.0150332 -1.23033e-26)
(0.183893 0.1426 1.05221e-25)
(0.195943 0.142228 5.8491e-25)
(0.210952 0.141484 3.12222e-25)
(0.220275 0.130262 7.76338e-27)
(0.220579 0.12248 1.7807e-26)
(0.213642 0.11869 0)
(0.204759 0.119814 0)
(0.201756 0.103644 2.81953e-25)
(0.195167 0.0810499 -6.94718e-26)
(0.185235 0.0680142 0)
(0.173215 0.04036 0)
(0.164964 0.02084 -1.1979e-26)
(0.223648 0.166701 -5.06953e-25)
(0.236429 0.156478 4.27888e-25)
(0.241275 0.151476 -6.96935e-27)
(0.242582 0.146339 -1.24247e-26)
(0.240335 0.141513 0)
(0.236307 0.139804 -2.80232e-25)
(0.234234 0.137766 0)
(0.235159 0.125828 -1.44212e-25)
(0.228367 0.108875 -1.11329e-25)
(0.216412 0.0949391 0)
(0.204837 0.0618677 1.71104e-26)
(0.18831 0.0331581 -5.16652e-26)
(0.235875 0.168115 -6.97608e-25)
(0.244229 0.162418 0)
(0.245729 0.157859 0)
(0.244946 0.153203 0)
(0.242832 0.148293 0)
(0.239389 0.145489 -3.05613e-36)
(0.238614 0.141675 4.01112e-25)
(0.243196 0.133873 -4.57533e-25)
(0.245523 0.129072 0)
(0.240864 0.121998 1.42943e-25)
(0.22415 0.0960887 2.16547e-26)
(0.202019 0.0589472 -1.62758e-25)
(0.230688 0.159045 6.44987e-25)
(0.232544 0.154564 6.6897e-25)
(0.23327 0.152767 2.24315e-26)
(0.232747 0.150802 -4.21143e-26)
(0.229063 0.147571 -5.99331e-25)
(0.224696 0.143463 4.25472e-25)
(0.223491 0.135118 6.83051e-25)
(0.234522 0.12126 1.60659e-25)
(0.251736 0.121488 2.62179e-25)
(0.262756 0.128914 1.30347e-25)
(0.259836 0.12461 7.18785e-26)
(0.230465 0.0898717 4.29219e-36)
(0.216496 0.1497 5.97207e-25)
(0.216083 0.143692 5.16074e-27)
(0.215195 0.141894 0)
(0.212517 0.142643 0)
(0.207931 0.143326 -5.9627e-25)
(0.203203 0.140968 2.0821e-26)
(0.201419 0.128664 -6.14686e-25)
(0.213317 0.0996544 4.55902e-25)
(0.238466 0.0923765 1.14383e-25)
(0.258648 0.112429 0)
(0.267728 0.13722 1.42992e-25)
(0.250954 0.133148 2.21654e-25)
(0.196893 0.140361 1.15216e-26)
(0.197123 0.132635 -4.95537e-25)
(0.198164 0.130779 -5.01101e-25)
(0.196132 0.134235 2.27414e-26)
(0.192459 0.138291 1.15257e-25)
(0.190326 0.138803 -6.19444e-25)
(0.196466 0.126415 -7.63845e-25)
(0.214169 0.088871 -2.37096e-25)
(0.230903 0.0721173 0)
(0.23888 0.0948106 6.85284e-26)
(0.241525 0.132317 2.35365e-25)
(0.244495 0.150405 2.96531e-25)
(0.176056 0.13112 7.79508e-26)
(0.181461 0.124038 1.86215e-26)
(0.187768 0.121814 -4.37119e-25)
(0.186447 0.12728 5.76092e-25)
(0.182891 0.132717 3.68512e-26)
(0.183204 0.133468 -7.87102e-25)
(0.194826 0.120612 0)
(0.214908 0.0826743 -2.41717e-25)
(0.223059 0.0627573 0)
(0.225858 0.0832474 0)
(0.227794 0.122043 0)
(0.250009 0.131544 1.07616e-25)
(0.171494 0.116413 -7.16884e-26)
(0.184934 0.11686 6.39594e-25)
(0.190683 0.120194 -7.21024e-25)
(0.182729 0.125982 -2.93424e-25)
(0.176123 0.129364 1.97846e-25)
(0.17698 0.127039 0)
(0.190866 0.112079 0)
(0.211516 0.0771362 -4.44024e-25)
(0.21461 0.0584252 0)
(0.218852 0.0727683 1.52647e-26)
(0.224768 0.106192 1.81331e-25)
(0.2622 0.105532 1.40932e-26)
(0.1803 0.108157 4.46097e-25)
(0.198517 0.115061 2.96318e-25)
(0.190769 0.12361 -6.8431e-25)
(0.171924 0.126647 1.3517e-25)
(0.166005 0.127099 9.86192e-25)
(0.167979 0.121066 -7.63428e-25)
(0.181852 0.102633 5.51972e-25)
(0.200062 0.0707728 -3.55473e-25)
(0.200327 0.0541609 0)
(0.207225 0.0593532 -2.57574e-25)
(0.21931 0.081174 5.88328e-26)
(0.268996 0.0707975 -1.44485e-26)
(0.181532 0.0941335 4.39353e-26)
(0.187858 0.0973395 0)
(0.165232 0.118563 0)
(0.151287 0.122856 1.21855e-24)
(0.153073 0.12212 1.07723e-24)
(0.158379 0.115677 -4.69754e-25)
(0.17119 0.0949397 9.76504e-25)
(0.185857 0.0653662 1.36984e-25)
(0.183254 0.0513145 -1.04749e-25)
(0.187225 0.0459611 -1.18717e-25)
(0.200946 0.0501561 0)
(0.255386 0.0131098 -1.09023e-26)
(0.133261 -0.00569463 2.07646e-27)
(0.131134 -0.0147504 0)
(0.127973 -0.0230086 3.55612e-26)
(0.124377 -0.0309675 0)
(0.120876 -0.0388646 2.76671e-26)
(0.117778 -0.0470191 2.53093e-26)
(0.115073 -0.0555953 0)
(0.11278 -0.0646895 -7.43607e-26)
(0.110985 -0.0745998 -3.57384e-26)
(0.109586 -0.0856046 1.04034e-26)
(0.10834 -0.0978438 1.76322e-25)
(0.106856 -0.111168 1.90121e-25)
(0.14924 -0.00217058 -9.97567e-27)
(0.147213 -0.00894562 -6.2001e-27)
(0.144039 -0.0175217 3.17484e-26)
(0.140473 -0.0274961 0)
(0.137084 -0.0386582 -1.92323e-26)
(0.134388 -0.0510352 -1.01349e-26)
(0.132845 -0.0650674 0)
(0.132473 -0.0810319 -1.82443e-25)
(0.133032 -0.09918 1.84713e-25)
(0.134159 -0.119454 1.51398e-26)
(0.135382 -0.141173 5.07577e-25)
(0.136226 -0.162954 2.32427e-25)
(0.164775 -0.00189947 -9.2856e-27)
(0.163092 -0.00882012 0)
(0.160397 -0.0190159 7.75531e-26)
(0.157252 -0.0321052 0)
(0.154253 -0.047815 0)
(0.151812 -0.0658416 -1.68974e-25)
(0.15017 -0.0862802 2.4729e-26)
(0.149435 -0.109263 -2.80349e-25)
(0.149409 -0.134495 2.34767e-25)
(0.149807 -0.160993 0)
(0.150378 -0.18701 -4.18828e-35)
(0.150989 -0.210435 2.88532e-25)
(0.180694 -0.00164571 -2.14296e-26)
(0.179809 -0.00923389 -4.56647e-26)
(0.178044 -0.021413 9.12637e-26)
(0.175488 -0.0376776 1.2245e-26)
(0.172392 -0.0575839 -1.52892e-26)
(0.169085 -0.0807649 -2.10579e-25)
(0.165869 -0.10683 0)
(0.162934 -0.13527 0)
(0.160333 -0.164985 -2.71925e-25)
(0.158166 -0.194141 0)
(0.156661 -0.22046 -5.94737e-25)
(0.156119 -0.241957 2.98924e-25)
(0.196658 -0.00239495 -2.02445e-26)
(0.196951 -0.0113696 -9.93479e-26)
(0.196205 -0.0255443 1.03485e-25)
(0.193927 -0.044392 0)
(0.189977 -0.0675236 0)
(0.184709 -0.0943315 -2.45153e-25)
(0.178531 -0.124058 0)
(0.171919 -0.155525 1.36832e-25)
(0.165366 -0.186913 9.42299e-27)
(0.15952 -0.21585 1.47495e-25)
(0.155135 -0.24 -2.36374e-25)
(0.152842 -0.257898 6.51929e-26)
(0.212788 -0.00439921 2.47768e-26)
(0.214799 -0.0151704 -5.48201e-26)
(0.21512 -0.0307657 1.14814e-25)
(0.212775 -0.0509338 -2.32872e-25)
(0.207202 -0.0757095 5.00815e-26)
(0.198977 -0.104357 -1.91643e-34)
(0.18873 -0.135777 -1.45766e-25)
(0.177411 -0.168199 -8.05211e-25)
(0.166067 -0.19925 0)
(0.155949 -0.226279 0)
(0.148287 -0.247128 -6.44913e-25)
(0.143932 -0.260903 -2.44524e-26)
(0.229163 -0.00811994 -9.32312e-28)
(0.233633 -0.0207473 1.19831e-25)
(0.234964 -0.0366704 0)
(0.232253 -0.0564524 -2.72168e-25)
(0.224441 -0.081094 -2.88842e-25)
(0.212579 -0.109847 -3.03029e-25)
(0.197575 -0.141342 -6.23826e-25)
(0.180984 -0.173287 -1.26347e-24)
(0.16445 -0.202879 7.56537e-25)
(0.149812 -0.227328 1.13912e-25)
(0.138717 -0.24471 -1.1836e-24)
(0.132178 -0.25462 -5.50405e-25)
(0.245802 -0.0141401 -4.69441e-26)
(0.253335 -0.0280187 1.19334e-25)
(0.255089 -0.0425596 0)
(0.251689 -0.0600367 2.96875e-25)
(0.241386 -0.0829958 -3.13247e-25)
(0.225872 -0.110508 -7.89386e-25)
(0.206068 -0.141003 -8.42944e-25)
(0.184168 -0.171726 -7.77946e-25)
(0.16242 -0.199487 4.69999e-25)
(0.143232 -0.221395 -5.89108e-25)
(0.128625 -0.235728 -1.14137e-24)
(0.119772 -0.242449 -5.6698e-25)
(0.262518 -0.0228892 -1.09349e-26)
(0.272567 -0.0360628 1.07157e-25)
(0.27256 -0.0470086 2.32655e-25)
(0.267752 -0.0606691 3.11829e-25)
(0.255547 -0.0807641 0)
(0.237693 -0.106582 0)
(0.214337 -0.135613 -6.50177e-25)
(0.187998 -0.164947 -7.27914e-25)
(0.161533 -0.191039 -1.10003e-25)
(0.137999 -0.210861 -5.50284e-25)
(0.119834 -0.222826 -5.2551e-25)
(0.10844 -0.227148 0)
(0.278313 -0.0335835 -1.9141e-27)
(0.286763 -0.0416923 1.48382e-25)
(0.279842 -0.0469653 4.25068e-34)
(0.272775 -0.056892 0)
(0.260418 -0.0744415 -6.55788e-25)
(0.243468 -0.0987004 0)
(0.220265 -0.126476 -7.13972e-25)
(0.192209 -0.154661 -7.50097e-25)
(0.162659 -0.179556 -1.13169e-24)
(0.135534 -0.197946 0)
(0.11395 -0.2083 0)
(0.0997679 -0.210982 9.45254e-25)
(0.288159 -0.042557 1.05864e-33)
(0.284363 -0.0380424 -1.02835e-25)
(0.264246 -0.0382909 -4.47049e-25)
(0.254233 -0.0470944 5.35327e-25)
(0.245107 -0.0643435 -6.37264e-25)
(0.234759 -0.0878466 -6.68423e-26)
(0.217873 -0.115149 5.44615e-25)
(0.193662 -0.142644 1.03946e-24)
(0.164899 -0.166926 -8.97287e-25)
(0.136327 -0.184592 8.76988e-25)
(0.112152 -0.194104 -8.57437e-25)
(0.0952033 -0.195876 8.6656e-25)
(0.257304 -0.00876299 3.83014e-26)
(0.243968 -0.0111321 1.14254e-26)
(0.213931 -0.0165264 -2.22571e-25)
(0.202531 -0.030454 3.37468e-25)
(0.200432 -0.0513371 0)
(0.201655 -0.0762759 3.94301e-25)
(0.198086 -0.103349 4.02476e-25)
(0.185511 -0.130426 1.59945e-24)
(0.164074 -0.154547 7.64299e-25)
(0.138536 -0.172133 7.53788e-25)
(0.114169 -0.181569 -7.55351e-25)
(0.09536 -0.18321 0)
(0.104646 -0.125012 -5.45798e-26)
(0.101243 -0.138392 -1.80022e-26)
(0.0963218 -0.150087 2.37215e-25)
(0.0897805 -0.158994 -5.60729e-26)
(0.0816228 -0.164448 -1.20429e-25)
(0.0716663 -0.165747 6.04907e-26)
(0.0604352 -0.162618 -7.11199e-26)
(0.0484735 -0.156319 -3.49372e-26)
(0.0360942 -0.148371 -3.80875e-27)
(0.0237006 -0.140736 0)
(0.0119904 -0.135285 0)
(0.00225342 -0.133315 2.76574e-27)
(0.136289 -0.18298 6.69184e-26)
(0.135269 -0.199508 7.58381e-26)
(0.132926 -0.211283 5.69706e-25)
(0.129 -0.217617 0)
(0.123135 -0.218294 -1.33424e-25)
(0.115145 -0.214048 0)
(0.104839 -0.205406 5.83341e-35)
(0.0915067 -0.193278 1.10751e-25)
(0.0745665 -0.179225 3.52732e-26)
(0.0538815 -0.165414 0)
(0.0307754 -0.154453 0)
(0.00844834 -0.149243 1.10508e-26)
(0.151575 -0.22948 2.5968e-25)
(0.152036 -0.243174 -3.66775e-25)
(0.15216 -0.251355 2.87066e-25)
(0.151602 -0.254317 0)
(0.149895 -0.252452 -2.60334e-25)
(0.146528 -0.246301 -1.92457e-26)
(0.140266 -0.236398 1.26117e-25)
(0.129493 -0.223143 9.3343e-26)
(0.112172 -0.20723 -1.68596e-25)
(0.0863591 -0.190146 0)
(0.0524012 -0.174467 -3.56862e-26)
(0.0152508 -0.165497 6.25832e-27)
(0.156726 -0.257623 2.94193e-25)
(0.158418 -0.267547 -7.92741e-35)
(0.160901 -0.2725 -1.07127e-26)
(0.163724 -0.273388 -4.53352e-26)
(0.166343 -0.270945 0)
(0.168026 -0.265627 -2.41126e-25)
(0.167401 -0.257531 4.97485e-25)
(0.162225 -0.246464 2.23085e-25)
(0.149066 -0.232033 -1.35617e-25)
(0.123139 -0.214544 0)
(0.0810838 -0.195534 -1.29506e-25)
(0.026202 -0.182002 -1.51986e-26)
(0.152889 -0.269406 3.51698e-27)
(0.155081 -0.275467 2.52181e-25)
(0.158956 -0.277469 0)
(0.163986 -0.27672 0)
(0.169689 -0.274195 -2.38915e-25)
(0.175481 -0.270478 -2.35609e-25)
(0.180357 -0.265543 4.7477e-25)
(0.182157 -0.258919 0)
(0.176875 -0.249234 -1.26234e-25)
(0.156963 -0.235461 -1.27788e-25)
(0.113389 -0.216841 -7.96344e-35)
(0.0412046 -0.199316 2.47798e-26)
(0.143062 -0.268178 -3.54769e-26)
(0.145243 -0.270486 -1.56296e-26)
(0.149739 -0.269613 -4.45183e-25)
(0.155845 -0.267158 3.27871e-26)
(0.163062 -0.264311 2.26652e-25)
(0.171065 -0.261905 4.765e-25)
(0.179507 -0.260021 4.95883e-25)
(0.187031 -0.258445 0)
(0.190393 -0.255271 0)
(0.180672 -0.248856 -1.53986e-25)
(0.1438 -0.23565 2.39069e-25)
(0.0595881 -0.217524 3.53479e-26)
(0.130262 -0.258152 6.92868e-26)
(0.132255 -0.257237 5.3786e-25)
(0.13707 -0.253915 -4.79428e-25)
(0.143691 -0.249965 5.081e-25)
(0.151408 -0.246682 4.76012e-25)
(0.159971 -0.245116 4.61423e-25)
(0.16957 -0.245386 -2.88743e-25)
(0.17987 -0.247944 1.40543e-26)
(0.189467 -0.250739 2.51288e-26)
(0.190046 -0.253032 0)
(0.165827 -0.248875 2.02299e-25)
(0.0789571 -0.236149 4.80908e-26)
(0.116665 -0.243015 0)
(0.118336 -0.239618 4.87969e-25)
(0.123335 -0.234468 0)
(0.130285 -0.22945 4.35812e-25)
(0.13811 -0.225851 2.21658e-26)
(0.146436 -0.224889 -4.38102e-25)
(0.155624 -0.226444 -1.63639e-35)
(0.166011 -0.231815 0)
(0.178145 -0.238663 3.45479e-25)
(0.185598 -0.248833 2.19991e-26)
(0.175173 -0.2546 1.45868e-26)
(0.0953755 -0.253738 4.71755e-26)
(0.103828 -0.225525 1.05057e-25)
(0.104869 -0.220309 6.60109e-26)
(0.109784 -0.213841 4.70757e-25)
(0.116872 -0.208078 -4.66888e-25)
(0.124602 -0.204249 -5.40928e-27)
(0.132423 -0.203708 -7.87876e-26)
(0.14051 -0.20582 5.14738e-25)
(0.149419 -0.212821 0)
(0.160875 -0.221543 3.46649e-25)
(0.170253 -0.237781 0)
(0.170222 -0.252199 -2.70827e-25)
(0.103798 -0.268037 1.61352e-25)
(0.0932091 -0.207848 0)
(0.093135 -0.20132 9.34967e-25)
(0.0975101 -0.193876 1.38905e-24)
(0.104417 -0.187503 -4.91622e-25)
(0.111805 -0.183369 3.74481e-26)
(0.119037 -0.18284 4.51421e-25)
(0.125804 -0.184584 0)
(0.132623 -0.191798 0)
(0.1412 -0.200115 0)
(0.147451 -0.22032 0)
(0.150737 -0.241034 -3.12419e-25)
(0.0981219 -0.27633 1.73303e-25)
(0.0863038 -0.191862 9.94394e-26)
(0.0845649 -0.184461 9.65203e-25)
(0.087824 -0.176301 5.46649e-34)
(0.0940947 -0.16931 -9.26611e-25)
(0.100807 -0.164615 -8.24554e-25)
(0.107383 -0.163224 -8.48203e-26)
(0.112854 -0.163231 4.00639e-25)
(0.117617 -0.168393 0)
(0.122262 -0.173637 4.6511e-25)
(0.1215 -0.194887 2.90579e-25)
(0.118022 -0.218805 2.3362e-25)
(0.0712146 -0.27453 8.58438e-34)
(0.0841643 -0.179007 0)
(0.0803823 -0.171214 0)
(0.0819796 -0.162612 2.93933e-34)
(0.0870935 -0.154823 -9.0104e-25)
(0.092796 -0.14899 -7.89874e-25)
(0.098597 -0.145124 0)
(0.103028 -0.141605 3.27835e-25)
(0.106115 -0.141567 0)
(0.107114 -0.141341 5.00368e-25)
(0.0987577 -0.158125 1.10368e-25)
(0.0798417 -0.180345 1.4132e-25)
(0.00865917 -0.249958 5.4558e-26)
(-0.0056093 -0.133218 1.04458e-37)
(-0.0146525 -0.131035 -2.48552e-27)
(-0.0229517 -0.127911 -5.22899e-27)
(-0.0309814 -0.124448 3.65883e-26)
(-0.0390096 -0.121195 0)
(-0.0473664 -0.118333 -3.94978e-26)
(-0.0561304 -0.115847 0)
(-0.0654869 -0.113837 -4.56119e-26)
(-0.075751 -0.112344 -2.39591e-25)
(-0.0872048 -0.111249 -1.25972e-25)
(-0.099969 -0.110277 -5.10846e-26)
(-0.113843 -0.109002 -1.03915e-25)
(-0.00202524 -0.149221 -2.61099e-26)
(-0.00898771 -0.147228 -6.96617e-27)
(-0.0178995 -0.14426 -4.99032e-27)
(-0.0282494 -0.141044 7.25592e-26)
(-0.0398041 -0.138105 -2.38927e-26)
(-0.0527191 -0.135972 -1.42093e-26)
(-0.0673804 -0.135052 1.72061e-25)
(-0.0840905 -0.135263 -1.2808e-25)
(-0.103096 -0.136355 -1.85725e-25)
(-0.124253 -0.137931 -2.49554e-25)
(-0.146736 -0.139498 -5.19618e-25)
(-0.169014 -0.140564 -9.87203e-28)
(-0.00176626 -0.164745 -1.93966e-26)
(-0.00920646 -0.163106 0)
(-0.0201196 -0.160689 0)
(-0.0339594 -0.158037 8.10438e-26)
(-0.050406 -0.155671 0)
(-0.0692163 -0.153961 2.69537e-25)
(-0.090565 -0.153089 1.98323e-25)
(-0.114525 -0.153065 -3.78251e-26)
(-0.140687 -0.153642 1.15875e-25)
(-0.167883 -0.154511 -6.22854e-25)
(-0.194199 -0.155421 -2.40513e-25)
(-0.217484 -0.156249 3.77021e-25)
(-0.00148372 -0.180637 4.52098e-26)
(-0.00995057 -0.179715 4.80151e-26)
(-0.0232495 -0.178209 -9.57013e-26)
(-0.0406296 -0.176154 9.76956e-26)
(-0.0616085 -0.173757 0)
(-0.0858152 -0.171269 4.76102e-25)
(-0.112886 -0.168884 1.02724e-25)
(-0.142218 -0.166692 0)
(-0.172545 -0.164701 4.61866e-25)
(-0.201855 -0.163006 -4.27158e-25)
(-0.22781 -0.161858 -6.83245e-26)
(-0.248548 -0.161562 -6.95401e-25)
(-0.00207824 -0.196543 5.03522e-26)
(-0.012303 -0.196608 1.07595e-35)
(-0.0280413 -0.196024 -2.17725e-25)
(-0.0484013 -0.194212 0)
(-0.0728728 -0.190991 1.56521e-26)
(-0.100831 -0.186578 3.07765e-25)
(-0.13148 -0.181248 0)
(-0.163532 -0.175379 2.90299e-25)
(-0.195016 -0.169436 4.3434e-25)
(-0.223469 -0.16409 1.4197e-25)
(-0.246638 -0.160112 0)
(-0.263306 -0.158115 -6.01154e-25)
(-0.00370017 -0.21257 3.07718e-26)
(-0.0161101 -0.214038 -1.75681e-25)
(-0.0337822 -0.214396 -1.21552e-25)
(-0.0559298 -0.212478 2.60524e-25)
(-0.0822969 -0.207677 7.71302e-26)
(-0.112111 -0.20034 -2.09085e-25)
(-0.14422 -0.190962 0)
(-0.176776 -0.180392 -3.09924e-25)
(-0.207333 -0.169677 1.35393e-25)
(-0.233272 -0.160107 1.30888e-25)
(-0.252639 -0.152926 -5.78031e-25)
(-0.264862 -0.148934 1.03973e-26)
(-0.00671661 -0.228795 2.6078e-26)
(-0.0214767 -0.23233 -1.26265e-25)
(-0.0401518 -0.233634 0)
(-0.0624598 -0.231354 2.64012e-25)
(-0.0889036 -0.224406 2.75735e-25)
(-0.118732 -0.213467 2.62539e-25)
(-0.150554 -0.199349 4.32068e-25)
(-0.182092 -0.183509 -7.99156e-25)
(-0.210593 -0.167616 -1.66047e-25)
(-0.233423 -0.153568 6.23019e-25)
(-0.248953 -0.143021 -1.19368e-24)
(-0.257122 -0.136912 1.1983e-26)
(-0.0116605 -0.245247 5.77254e-26)
(-0.0284718 -0.251528 -5.85105e-27)
(-0.0467732 -0.253514 0)
(-0.0674123 -0.25072 -3.08512e-25)
(-0.0921722 -0.241383 5.91153e-25)
(-0.120487 -0.226693 5.6452e-25)
(-0.150814 -0.207672 8.06339e-25)
(-0.18052 -0.18644 3.29858e-25)
(-0.206606 -0.16528 8.69776e-25)
(-0.226454 -0.146664 1.31594e-24)
(-0.238683 -0.132627 -5.64399e-25)
(-0.243583 -0.124246 0)
(-0.0190945 -0.261834 5.48083e-26)
(-0.0366728 -0.270811 0)
(-0.0527393 -0.272074 0)
(-0.07004 -0.268492 -3.26452e-25)
(-0.0918162 -0.257191 3.36034e-25)
(-0.117663 -0.239635 6.73514e-25)
(-0.145872 -0.216528 0)
(-0.17353 -0.190472 -1.15192e-25)
(-0.197386 -0.164348 4.83708e-25)
(-0.214793 -0.141231 5.64368e-25)
(-0.224509 -0.123568 5.38391e-25)
(-0.227014 -0.112639 -1.03328e-24)
(-0.028508 -0.277877 -5.62192e-26)
(-0.0438339 -0.286844 -2.19629e-26)
(-0.0556279 -0.283568 3.05581e-25)
(-0.0688042 -0.278686 6.59707e-25)
(-0.0874451 -0.266928 0)
(-0.110814 -0.249152 6.60135e-25)
(-0.136923 -0.224673 7.24742e-25)
(-0.162783 -0.195829 6.24821e-25)
(-0.184941 -0.165922 -1.16364e-24)
(-0.200664 -0.138782 0)
(-0.208733 -0.117481 1.48015e-24)
(-0.209681 -0.103682 -9.65246e-25)
(-0.0380623 -0.289723 9.42282e-27)
(-0.0447667 -0.289202 3.59654e-26)
(-0.0517527 -0.275908 2.77925e-25)
(-0.0624914 -0.269561 6.53966e-25)
(-0.0788415 -0.26053 1.1537e-25)
(-0.100629 -0.247469 7.30695e-25)
(-0.12526 -0.22708 6.57908e-25)
(-0.149901 -0.200081 -5.57825e-25)
(-0.171087 -0.169527 -1.00021e-24)
(-0.185996 -0.14001 9.05874e-25)
(-0.193324 -0.115638 8.81193e-25)
(-0.193534 -0.0988784 0)
(-0.00882939 -0.264166 -2.02855e-25)
(-0.0226575 -0.252814 -2.14198e-25)
(-0.0339308 -0.231202 4.31817e-26)
(-0.0489798 -0.227355 -4.24224e-25)
(-0.0666288 -0.226212 0)
(-0.0881657 -0.223768 4.42778e-25)
(-0.11208 -0.214675 8.83653e-25)
(-0.136099 -0.196689 -8.6256e-25)
(-0.157044 -0.171339 -9.63611e-27)
(-0.172051 -0.143315 7.78163e-25)
(-0.179619 -0.117912 -8.41712e-25)
(-0.179985 -0.098935 -8.57525e-25)
(-0.128183 -0.106906 -6.91999e-26)
(-0.141927 -0.103511 -2.13158e-25)
(-0.153805 -0.0985063 1.69216e-25)
(-0.162719 -0.0918059 8.93068e-26)
(-0.167942 -0.0833722 -2.12497e-25)
(-0.168764 -0.0731443 0)
(-0.165098 -0.0616558 8.06901e-26)
(-0.158176 -0.0494256 2.67845e-26)
(-0.149589 -0.0367849 0)
(-0.141379 -0.0241448 -3.4001e-26)
(-0.135501 -0.0122154 0)
(-0.133336 -0.00230163 0)
(-0.189199 -0.140728 -3.79562e-26)
(-0.205572 -0.139693 -5.02762e-25)
(-0.216959 -0.137225 -8.35727e-26)
(-0.222737 -0.133069 -4.36961e-25)
(-0.222845 -0.126929 0)
(-0.217934 -0.118664 0)
(-0.208554 -0.108018 -2.63444e-26)
(-0.195662 -0.0942977 -5.00905e-27)
(-0.180839 -0.0768876 0)
(-0.166306 -0.0556144 -5.56556e-28)
(-0.154761 -0.0318024 2.24497e-26)
(-0.149256 -0.0087437 6.87754e-27)
(-0.236057 -0.156935 -3.02942e-25)
(-0.249115 -0.157382 -3.80496e-35)
(-0.256626 -0.157394 0)
(-0.258934 -0.156654 5.62077e-35)
(-0.256473 -0.154754 5.78391e-26)
(-0.249771 -0.151158 3.25558e-26)
(-0.239309 -0.144654 2.18698e-25)
(-0.225472 -0.13359 0)
(-0.208938 -0.115842 0)
(-0.191201 -0.0893446 0)
(-0.174897 -0.0543369 -3.56529e-26)
(-0.165533 -0.0158747 -6.20439e-27)
(-0.263294 -0.162293 -3.00168e-25)
(-0.272339 -0.163982 5.80676e-25)
(-0.276552 -0.166358 0)
(-0.276843 -0.169013 5.30972e-25)
(-0.273937 -0.171471 0)
(-0.268258 -0.173018 0)
(-0.259841 -0.172298 2.34526e-25)
(-0.248451 -0.16703 -5.905e-26)
(-0.233648 -0.153666 -8.75885e-26)
(-0.215693 -0.127214 0)
(-0.196114 -0.0840036 4.65079e-26)
(-0.182082 -0.027255 2.58703e-26)
(-0.273618 -0.158309 -5.67745e-25)
(-0.278689 -0.160487 2.54984e-25)
(-0.279954 -0.164221 1.68995e-26)
(-0.278696 -0.169047 2.3787e-25)
(-0.27584 -0.174571 2.18758e-25)
(-0.27193 -0.180245 0)
(-0.266888 -0.185111 2.3819e-25)
(-0.260195 -0.186994 0)
(-0.250427 -0.181786 0)
(-0.236478 -0.161701 -1.28945e-25)
(-0.217518 -0.117194 1.69013e-26)
(-0.199474 -0.0427916 5.60753e-26)
(-0.270793 -0.148245 -5.98064e-25)
(-0.27209 -0.150405 5.03112e-25)
(-0.270532 -0.154723 0)
(-0.267672 -0.16057 0)
(-0.264622 -0.167538 6.96965e-25)
(-0.262156 -0.175369 1.63446e-26)
(-0.260314 -0.183784 2.52372e-35)
(-0.258836 -0.191451 3.80646e-26)
(-0.255799 -0.195063 3.49346e-25)
(-0.249481 -0.185526 -1.56096e-25)
(-0.236265 -0.148158 0)
(-0.217791 -0.0617523 -3.60301e-26)
(-0.259272 -0.135221 4.56754e-25)
(-0.257405 -0.137204 9.66047e-25)
(-0.25351 -0.141818 5.75588e-26)
(-0.249288 -0.148135 -4.74918e-25)
(-0.245936 -0.155532 9.59841e-25)
(-0.244425 -0.163853 4.93991e-25)
(-0.24483 -0.173362 2.63047e-25)
(-0.247556 -0.18377 2.86246e-25)
(-0.250593 -0.19364 3.25318e-25)
(-0.253129 -0.194608 0)
(-0.249249 -0.170289 -1.64236e-25)
(-0.236524 -0.0816396 -1.77335e-25)
(-0.242808 -0.1214 6.13504e-25)
(-0.238574 -0.123077 1.04693e-24)
(-0.232996 -0.127865 4.80041e-25)
(-0.227853 -0.134478 -5.071e-25)
(-0.224316 -0.141931 5.12e-25)
(-0.22351 -0.149959 5.26659e-25)
(-0.225268 -0.159005 7.92101e-26)
(-0.23082 -0.169449 2.971e-25)
(-0.23796 -0.181798 -3.50507e-25)
(-0.248399 -0.189692 0)
(-0.254648 -0.179356 -2.51143e-25)
(-0.254168 -0.0984227 -1.27245e-25)
(-0.224144 -0.108302 0)
(-0.218231 -0.109361 4.84363e-25)
(-0.211491 -0.114066 4.73719e-25)
(-0.205745 -0.1208 -3.08561e-26)
(-0.202096 -0.128126 5.10544e-25)
(-0.201784 -0.135607 4.81973e-25)
(-0.204135 -0.143521 -5.16618e-25)
(-0.211287 -0.152437 0)
(-0.220359 -0.164032 -3.51504e-25)
(-0.236822 -0.173817 2.27752e-26)
(-0.251965 -0.173847 -2.8101e-25)
(-0.268467 -0.107016 7.33148e-27)
(-0.205431 -0.0973802 0)
(-0.198361 -0.0973267 0)
(-0.190802 -0.101501 0)
(-0.184577 -0.108056 8.78952e-25)
(-0.180713 -0.115035 5.22374e-26)
(-0.180433 -0.1219 5.44854e-25)
(-0.182396 -0.128482 0)
(-0.189659 -0.135233 5.10809e-25)
(-0.198422 -0.143856 0)
(-0.218751 -0.150414 4.10155e-25)
(-0.240657 -0.153581 -3.20105e-25)
(-0.276746 -0.10133 -6.28987e-27)
(-0.188568 -0.0901722 0)
(-0.180784 -0.088434 0)
(-0.172668 -0.0915016 -8.94722e-25)
(-0.16593 -0.097433 9.17227e-25)
(-0.161537 -0.103769 -1.29095e-24)
(-0.160316 -0.109961 -4.03924e-25)
(-0.160425 -0.115258 6.81665e-26)
(-0.165465 -0.119814 5.46994e-25)
(-0.1713 -0.12438 -4.65129e-25)
(-0.192509 -0.123697 2.97741e-25)
(-0.218492 -0.119864 2.39402e-25)
(-0.274883 -0.0741748 1.7964e-25)
(-0.175027 -0.0878036 0)
(-0.166997 -0.0839564 0)
(-0.158576 -0.0853542 -8.52174e-25)
(-0.15108 -0.0901403 -8.86936e-25)
(-0.14546 -0.0955314 -7.70817e-25)
(-0.141539 -0.100947 -3.58191e-25)
(-0.137882 -0.10524 -3.14938e-25)
(-0.137558 -0.107893 0)
(-0.138091 -0.108645 -2.36845e-25)
(-0.154738 -0.0998458 1.08408e-25)
(-0.180273 -0.0802462 -6.56966e-26)
(-0.250089 -0.0127926 -2.45056e-26)
(-0.13348 0.00592164 -9.52801e-27)
(-0.13323 0.0161397 0)
(-0.133408 0.0257744 0)
(-0.133455 0.0351834 -9.15562e-27)
(-0.13295 0.0444175 -4.9926e-26)
(-0.131542 0.0534409 0)
(-0.129076 0.0621935 0)
(-0.125564 0.0706644 -5.11343e-26)
(-0.121149 0.0789603 -1.5474e-25)
(-0.11606 0.087158 -5.1738e-26)
(-0.110476 0.0953068 8.57695e-26)
(-0.104545 0.10344 -3.72803e-26)
(-0.149805 0.00563536 8.87382e-27)
(-0.152319 0.0184948 0)
(-0.156227 0.0313781 0)
(-0.160209 0.0437504 9.237e-26)
(-0.163292 0.0553859 -1.96546e-25)
(-0.164658 0.0663679 -1.80537e-26)
(-0.163917 0.0768504 1.02647e-26)
(-0.160936 0.0870439 -3.29551e-25)
(-0.155942 0.0973927 -2.22127e-25)
(-0.149615 0.10803 -4.49098e-25)
(-0.142403 0.119004 0)
(-0.134695 0.130269 2.85867e-36)
(-0.165628 0.0114324 1.64118e-26)
(-0.170542 0.0312335 0)
(-0.177626 0.0485043 0)
(-0.185005 0.0635164 1.98319e-25)
(-0.191038 0.0760626 -2.23532e-25)
(-0.194263 0.0869675 2.45227e-25)
(-0.194345 0.0970283 0)
(-0.191114 0.106913 -2.89075e-25)
(-0.184698 0.117869 -2.68845e-25)
(-0.176231 0.129729 -2.80829e-25)
(-0.166217 0.142277 -4.29875e-26)
(-0.15551 0.155547 2.71018e-25)
(-0.181629 0.0183318 1.60732e-26)
(-0.188123 0.0462182 -3.99863e-26)
(-0.197425 0.0681457 0)
(-0.207594 0.0852922 1.0548e-25)
(-0.215936 0.0968314 -1.27112e-25)
(-0.219711 0.105944 2.81272e-25)
(-0.219932 0.114395 0)
(-0.216567 0.122402 3.10791e-25)
(-0.209032 0.132425 -3.47303e-25)
(-0.198939 0.143903 2.69982e-27)
(-0.186207 0.156861 7.37878e-26)
(-0.172023 0.172332 6.74426e-25)
(-0.197169 0.0257455 1.52717e-26)
(-0.203233 0.0617659 -3.89741e-26)
(-0.212164 0.0881195 -8.99767e-26)
(-0.223257 0.106539 0)
(-0.231396 0.113925 3.48915e-25)
(-0.233774 0.118244 -2.22988e-25)
(-0.235757 0.124412 -3.02946e-25)
(-0.236095 0.130349 3.50206e-25)
(-0.229234 0.141018 0)
(-0.217671 0.153444 0)
(-0.200781 0.168946 0)
(-0.181539 0.188565 1.20673e-24)
(-0.212183 0.0314414 -3.14376e-26)
(-0.215016 0.073756 0)
(-0.219433 0.10331 -8.56485e-26)
(-0.226762 0.120932 -1.57511e-25)