/*--------------------------------*- C++ -*----------------------------------*\
| =========                 |                                                 |
| \\      /  F ield         | OpenFOAM: The Open Source CFD Toolbox           |
|  \\    /   O peration     | Version:  2.4.0                                 |
|   \\  /    A nd           | Web:      www.OpenFOAM.org                      |
|    \\/     M anipulation  |                                                 |
\*---------------------------------------------------------------------------*/
FoamFile
{
    version     2.0;
    format      ascii;
    class       volScalarField;
    location    "1.2";
    object      p_rgh;
}
// * * * * * * * * * * * * * * * * * * * * * * * * * * * * * * * * * * * * * //

dimensions      [1 -1 -2 0 0 0 0];

internalField   nonuniform List<scalar> 
3072
(
0
-86.4623
-125.797
-119.201
-149.759
-119.106
-43.7107
-31.4511
46.2272
55.908
-62.744
-94.9534
-85.163
-193.742
-236.661
-209.269
-244.414
-104.055
-56.1065
-21.9687
136.017
220.37
240.056
255.256
-114.549
-260.431
-297.147
-216.6
-242.329
-149.402
-173.987
-202.506
-21.7598
93.4882
225.213
318.427
-1.88535
-190.234
-179.684
-127.776
37.4927
126.291
168.016
137.734
180.988
222.591
290.935
373.167
230.332
149.742
110.11
26.5789
-29.8465
-6.97576
110.311
85.6692
145.647
225.107
315.333
487.908
408.755
362.883
303.633
260.143
324.643
448.336
405.527
292.251
243.087
258.301
334.553
458.934
470.11
470.091
481.198
459.989
459.87
395.027
213.952
139.196
36.4213
135.608
353.413
750.101
529.419
524.022
573.522
513.056
443.588
423.178
369.851
220.648
9.40655
94.8266
217.355
768.508
540.409
526.513
607.742
565.822
553.428
494.141
415.923
284.612
239.808
124.313
-39.5613
261.724
563.018
537.66
681.621
627.205
613.71
524.643
435.17
280.391
159.564
-0.665863
-251.898
85.4647
653.986
609.933
770.703
677.779
667.618
574.511
471.265
269.676
77.9958
-53.5485
-332.841
-32.5202
752.971
730.098
874.162
738.283
730.359
628.769
509.6
252.466
143.756
-38.7074
-197.819
-69.0183
-82.571
70.367
219.729
427.835
567.894
668.816
762.897
923.458
1014.87
1019.87
998.529
964.805
272.232
344.115
425.682
516.019
567.608
643.149
775.643
872.688
953.072
977.217
969.145
959.653
422.756
499.589
605.614
700.637
812.102
921.26
923.246
938.004
969.35
980.319
983.542
967.446
431.676
508.739
559.724
641.729
758.937
898.938
978.046
992.158
1012.42
986.545
1009.11
963.211
608.12
816.472
985.998
1054.74
1003.32
995.986
1076.4
1042.83
1056.02
1012.46
1029.53
948.547
547.952
641.346
847.183
1009.3
1039.82
1034.45
1093.17
1092.63
1105.24
1051.16
1064.53
971.647
924.634
895.445
968.094
1045.4
1067.21
1013.5
1075.3
1134.48
1127.44
1117.14
1124.66
1034.58
850.3
894.491
993.348
1062.96
1086.15
1005.88
1107.17
1169.05
1165.62
1166.92
1182.36
1118.88
638.044
807.75
967.422
1038.47
1098.73
1037.56
1125
1151.57
1190.12
1195.02
1234.74
1209.06
519.179
716.213
917.628
982.801
1059.5
1026.82
1113.93
1144.48
1195.48
1211.89
1265.43
1257.89
454.311
620.5
853.31
922.602
1008.35
1001.91
1086.39
1115.09
1184.5
1200.53
1251.48
1279.97
425.739
573.832
794.239
865.541
946.97
954.25
1043.47
1069.47
1152.26
1173.94
1228.31
1220.63
-136.174
-282.399
-370.921
-393.068
-435.552
-329.806
-146.411
7.80048
356.738
685.918
654.976
626.262
-259.488
-426.131
-500.578
-485.154
-480.83
-353.747
-317.073
-640.183
-140.646
197.457
319.509
526.948
-181.376
-360.621
-384.732
-427.182
-481.483
-393.596
-238.93
-246.274
9.93464
224.702
390.655
509.641
56.5751
-125.295
-121.355
-13.2203
53.6438
67.6721
118.029
121.197
209.409
296.615
411.648
504.333
293.946
271.009
211.185
41.6513
-6.11248
76.8134
160.317
263.119
402.526
509.417
705.575
783.458
354.031
306.229
287.881
309.566
362.267
421.907
397.294
394.647
421.587
460.305
584.806
755.192
340.293
369.555
383.284
415.968
382.474
255.427
238.4
323.468
470.847
674.727
900.953
873.63
488.18
524.733
496.53
455.47
438.776
476.329
516.141
447.681
425.252
430.054
684.714
834.199
559.316
631.536
601.621
555.588
516.478
457.66
168.992
158.924
346.379
539.649
801.591
889.958
637.242
703.248
685.115
643.423
557.024
422.02
205.523
124.037
81.2977
239.944
592.947
867.424
721.786
793.942
759.174
704.898
592.109
423.199
168.712
-33.6722
-94.4448
32.8661
445.581
827.528
808.319
860.758
810.477
717.789
610.894
443.08
128.269
12.4123
-70.0021
23.7681
397.499
789.638
523.418
583.006
601.128
686.645
728.478
701.42
644.857
641.717
721.264
806.452
834.363
813.378
663.023
826.999
956.378
1065.23
1150.43
1159.59
1147.57
1010.34
955.938
925.751
874.054
869.646
666.279
783.902
1000.29
1126.11
1273.41
1265.92
1236.76
1113.88
1062.67
1008.7
976.648
953.999
636.73
765.645
949.459
1054.29
1150.52
1174
1220.95
1138.68
1100.84
1045.76
1038.09
986.488
849.87
870.792
987.476
1044.72
1087.05
1107.4
1152.07
1129.59
1129.98
1083.37
1067.62
997.44
881.498
936.311
1022.73
1042.85
1063.88
1053.63
1120.93
1147.21
1121.61
1096.3
1121.72
1047.63
937.213
981.613
1045.44
1066.2
1071.83
1066.39
1131.23
1156.88
1141.49
1150.5
1158.19
1087.74
945.741
1009.33
1058.36
1099.66
1085.58
1081.49
1127.15
1167.02
1172.65
1161.14
1191.3
1135.38
934.184
1014.25
1063.68
1114.3
1088.81
1074.74
1145.92
1195.45
1190.48
1194.68
1222.67
1176.52
914.973
1006.72
1061.49
1120.26
1095.51
1085.42
1174.73
1220.41
1228.71
1221.67
1232.34
1223.21
884.786
987.796
1055.87
1109.82
1083.37
1099.43
1200.59
1226.15
1257.01
1247.96
1260.57
1258.92
848.534
953.913
1037.31
1076.44
1059.15
1074.75
1184.71
1208.37
1256.05
1260.5
1245.31
1250.88
230.312
-12.6628
-59.8994
-286.68
-411.933
-356.28
-254.563
-113.797
239.708
491.735
247.594
117.24
18.4752
-277.108
-334.232
-414.887
-493.967
-429.304
-566.062
-818.418
-320.192
71.7272
122.556
278.239
257.31
69.0904
14.6565
-89.2583
-140.725
-77.393
-129.597
-379.4
-333.214
-190.502
-5.75574
165.986
565.483
404.875
415.698
377.948
191.508
31.857
3.399
-48.5839
20.9071
132.162
307.705
453.325
627.101
555.492
485.199
281.646
-16.7725
-282.152
-204.959
25.1989
332.22
645.255
1144.92
1246.15
631.307
610.605
469.544
348.27
109.756
-181.448
-54.7272
164.652
447.95
721.84
1182.43
1329.05
583.485
613.939
596.817
566.815
549.31
579.235
457.661
389.404
472.001
526.038
788.652
992.077
645.89
677.02
688.929
643.738
586.312
373.193
210.955
213.215
440.369
569.004
1087.89
1144.45
705.36
748.103
762.633
744.78
701.347
638.287
450.238
264.317
265.123
191.615
587.857
953.151
776.812
822.151
837.887
803.115
712.409
558.146
329.505
135.15
136.662
39.9367
488.214
900.132
867.083
926.211
917.915
848.294
716.984
492.365
220.649
23.4004
85.2107
-45.5286
344.699
870.474
954.365
1007.88
1002.72
896.4
707.912
454.616
223.54
117.081
100.969
-12.325
258.427
843.085
-127.949
-110.451
14.7935
157.751
372.015
460.691
516.52
475.507
665.546
735.549
747.043
755.716
369.104
473.497
598.032
671.571
784.335
896.609
1045.57
1070.73
994.606
891.954
836.535
815.056
399.216
474.659
588.1
607.946
643.351
705.134
874.156
968.473
997.238
954.441
953.019
873.714
729.123
811.135
876.071
898.665
888.037
903.24
944.665
993.136
1032.43
1002.97
1001.7
935.756
1273.12
1156.78
1096.71
1191.23
1057.62
1007.36
1031.21
1056.01
1093.21
1072.81
1083.1
994.238
1442.15
1331
1239.34
1300.28
1117.7
1119.89
1109.19
1131.22
1173.92
1152.18
1147.59
1085.92
1230.73
1321.53
1262.85
1336.7
1270.83
1223.96
1207.58
1216.42
1280.92
1282.77
1253.22
1191.82
1188.29
1331.54
1229.94
1353.33
1446.79
1299.11
1307.54
1301.5
1401.1
1410.58
1425.81
1367.38
1085.62
1324.73
1213.77
1336.44
1504.14
1341.15
1390.56
1380.79
1506.7
1544.69
1626.47
1583.44
1010.88
1288.71
1179.42
1309
1507.53
1362.06
1426.44
1411.35
1566.55
1655.74
1812.41
1806.62
951.134
1235.73
1148.57
1269.89
1481.73
1358.82
1389.98
1410.78
1530.43
1689.85
1894.52
1989.64
894.649
1144.31
1108.7
1210.57
1408.07
1326.99
1345.13
1353.31
1459.03
1575.15
1833.39
1971.21
-457.235
-590.11
-703.6
-697.773
-567.313
-461.663
-380.807
-365.085
-291.583
-375.013
-304.408
-334.652
-785.892
-975.139
-1041.16
-982.244
-710.676
-512.653
-175.712
-109.349
-57.6481
115.177
-50.0423
20.7246
-1103.54
-1528.65
-1714.49
-1536.73
-1122.63
-810.514
-668.459
-420.44
-283.299
50.5155
110.538
160.494
-940.709
-1592.79
-1779.65
-1348.04
-984.842
-733.043
-437.482
-124.44
-42.9454
216.057
237.083
128.232
-148.335
-631.149
-1270.85
-984.746
-685.114
-479.038
-303.168
-71.849
54.2832
192.836
302.972
498.821
892.109
690.169
426.424
159.428
10.1849
-96.5567
-213.257
-225.935
-270.3
-296.245
-126.767
268.167
1178.27
1094.19
816.923
557.883
389.758
277.061
114.252
-52.4592
-258.784
-368.063
-228.805
280.727
1129.92
1028.8
811.436
618.923
523.299
293.501
-77.0917
-397.024
-316.384
-110.068
419.21
515.312
1037.88
1048.72
846.582
717.869
645.805
425.15
291.695
122.348
-241.76
-483.901
-328.093
304.422
1011.98
1058.84
916.652
771.729
708.698
448.992
106.177
-357.826
-573.496
-544.737
-419.325
207.003
1039.01
1212.21
973.198
805.22
735.468
435.352
-55.2373
-545.336
-720.127
-762.559
-522.525
177.394
1195.46
1225.13
1036.83
916.098
777.154
414.854
-94.9034
-530.152
-723.669
-753.444
-519.716
217.761
-308.654
-481.685
-382.142
-498.799
-224.805
-65.8488
334.504
676.632
812.655
848.77
812.451
723.799
-118.15
-57.6893
-109.712
88.8799
98.9872
143.169
195.487
341.314
521.346
705.248
630.583
649.306
38.5393
16.5166
45.0073
146.586
249.827
386.781
523.782
663.597
776.265
908.694
862.728
850.769
-56.3994
-169.89
-95.8686
114.294
311.531
449.523
556.896
650.174
743.147
792.626
832.84
805.204
419.354
309.503
259.439
342.751
478.579
534.322
651.84
685.916
733.891
731.687
730.632
653.207
395.55
484.391
494.699
514.181
645.508
638.289
756.691
743.914
800.575
793.242
813.889
676.32
479.283
592.343
611.976
634.315
737.461
734.313
830.927
841.738
904.745
891.078
953.334
842.677
601.353
697.008
715.953
749.843
847.55
836.204
907.544
916.156
985.306
1028.16
1060.69
1006.08
630.873
775.826
814.7
803.309
911.869
898.576
959.428
978.314
1073.98
1114.79
1161.95
1179.33
657.444
820.788
869.788
847.917
978.197
951.637
1007.7
1037.91
1114.68
1207.8
1262.87
1367.14
653.524
814.88
897.953
874.757
993.217
970.295
1023.67
1083.11
1139.88
1226.23
1289.73
1420.19
637.816
775.213
890.671
882.784
976.597
954.664
1013.45
1061
1139.11
1218.79
1324.26
1406.03
857.92
881.364
925.449
805.578
771.214
665.504
565.845
325.569
234.227
-8.38605
-69.7437
6.85948
753.219
783.828
899.318
817.243
778.469
703.099
622.404
451.331
365.018
110.212
62.5341
139.256
595.989
697.533
791.774
778.515
747.003
704.193
715.492
552.119
492.183
322.804
250.863
335.327
339.774
469.476
638.057
694.908
703.49
708.011
806.492
789.149
770.214
725.569
583.156
603.107
452.088
591.088
768.032
816.561
881.914
882.325
966.264
1002.43
1070.21
1097.19
1088.84
1081.91
498.601
606.19
741.07
760.15
797.484
783.133
828.236
878.051
921.569
939.155
906.924
895.041
576.82
610.725
689.248
681.339
698.875
647.459
630.353
639.193
677.009
703.796
646.335
704.043
695.482
640.146
648.537
633.877
618.691
517.76
420.082
333.225
286.126
285.305
268.635
369.392
875.351
943.047
852.415
742.899
643.271
480.497
180.861
107.829
1.47685
114.983
430.069
755.72
781.047
857.129
836.759
728.369
660.755
532.35
336.158
242.731
138.054
125.26
474.612
758.664
662.119
749.24
782.159
689.244
646.085
593.671
516.393
348.136
382.526
273.131
542.903
794.583
425.005
595.982
658.615
620.756
634.989
678.741
807.646
652.609
705.726
574.665
609.147
831.7
823.131
911.175
996.231
1029.34
1002.53
1021.46
1126.71
1146.54
1195.96
1204.33
1159.54
1183.93
836.559
879.82
933.969
953.412
907.881
935.597
983.906
1015.96
1053.91
1063.7
1019.64
1050.23
880.215
870.964
877.431
848.019
790.133
795.123
780.058
799.574
823.944
830.893
800.086
879.309
915.936
871.929
844.05
758.518
680.82
655.941
560.18
483.854
475.55
454.358
460.777
572.231
1038.96
1103.47
1060.26
908.391
724.747
496.242
288.176
166.987
137.041
114.916
274.4
807.175
990.864
1069.75
1050.92
905.541
749.681
562.584
371.849
310.678
208.641
216.203
361.94
779.811
887.105
985.85
984.953
875.976
758.932
648.936
495.906
402.679
333.521
367.942
472.65
794.015
664.485
846.141
861.948
809.131
762.215
761.742
773.244
682.995
690.678
663.944
583.385
860.951
869.017
1032.21
1039.58
1111.13
1236.56
1197.36
1225.79
1213.26
1365.29
1446.2
1635.37
1654.98
888.402
920.551
944.621
938.338
979.559
928.058
902.763
912.604
1014.15
1063.18
1262.98
1310.63
936.252
834.228
831.581
756.383
623.166
573.583
378.802
325.39
355.693
376.533
714.208
835.882
972.257
778.794
719.722
639.354
329.058
305.516
16.4569
-122.536
-394.199
-446.1
-106.012
306.884
1333.17
1252.16
1055.78
951.327
743.321
463.95
-9.59687
-385.446
-594.556
-522.292
-409.933
312.427
1137.27
1186.09
1021.32
919.118
760.785
569.446
214.592
-107.333
-376.236
-391.585
-253.755
416.302
962.622
986.26
885.351
866.369
781.151
731.959
540.238
50.8077
-7.36414
-197.003
-2.82135
512.452
739.808
829.576
766.722
804.529
806.223
899.594
1188.46
437.455
389.627
377.039
269.488
572.058
664.39
761.691
875.841
865.156
940.902
920.485
955.121
1007.93
1084.62
1177.82
1183.68
1289.85
724.114
786.986
887.749
877.433
913.893
867.969
861.523
932.452
960.346
1054.34
990.459
1086.36
776.81
796.155
923.846
881.792
904.268
819.482
741.858
836.608
780.54
785.042
701.142
779.959
796.247
784.481
918.142
904.637
882.763
774.294
628.088
671.653
548.675
381.845
121.806
245.775
20.6671
139.302
420.057
561.4
616.413
693.862
849.62
964.154
886.932
897.234
835.593
744.438
107.425
166.319
345.839
484.51
570.837
703.082
869.589
999.837
915.304
852.748
771.845
783.049
158.057
253.954
405.315
483.774
542.397
678.048
843.128
884.213
808.246
851.366
812.023
825.777
214.888
321.296
472.7
515.474
535.886
621.333
799.512
841.598
831.435
813.831
766.18
855.013
742.091
695.767
660.28
627.06
596.142
486.135
367.659
277.613
215.096
126.691
99.8502
134.998
753.416
750.475
702.299
647.997
597.476
481.983
364.693
259.816
197.177
140.452
117.913
144.201
801.477
813.594
759.229
678.588
606.179
498.313
385.435
272.996
191.527
86.5809
100.22
151.751
897.678
878.503
814.912
727.323
639.295
526.714
417.857
312.094
223.255
135.701
125.536
167.296
190.978
349.882
460.617
508.221
577.067
714.094
907.174
862.439
778.558
728.709
688.171
819.104
156.972
270.235
370.492
442.602
526.053
686.89
866.054
800.022
820.712
727.159
736.183
831.908
199.756
294.159
373.34
433.326
506.621
621.673
817.289
747.617
826.538
782.642
752.546
835.638
256.211
363.036
429.052
459.93
484.737
529.629
678.774
718.309
707.696
741.297
764.319
844.307
896.683
883.104
839.188
733.569
655.364
599.076
488.16
408.18
356.66
257.265
269.639
344.05
895.804
901.301
849.864
745.105
662.147
582.404
465.645
380.259
313.333
248.308
242.437
323.043
911.073
933.004
883.474
779.556
679.483
588.099
472.126
371.262
303.08
168.67
240.981
333.075
947.735
975.995
937.039
834.345
720.518
612.913
497.537
396.631
324.463
233.072
263.276
364.156
428.831
617.312
677.599
687.016
728.491
827.766
894.084
881.89
790.158
819.406
698.644
830.035
379.378
535.785
598.118
634.797
710.093
818.304
869.289
867.418
813.259
760.594
770.383
820.87
422.463
558.694
611.939
635.005
684.553
755.116
823.422
783.602
839.509
800.344
781.852
828.102
483.481
619.423
662.758
669.67
671.042
665.874
720.879
742.361
772.402
762.355
797.797
848.532
935.519
786.017
703.753
566.517
330.229
205.585
-45.5659
-242.804
-502.613
-667.636
-466.041
-93.0786
917.178
806.885
714.427
545.498
324.984
152.994
-93.0334
-318.026
-535.627
-569.141
-386.758
-146.813
947.336
845.372
715.281
554.738
318.463
153.972
-66.573
-290.347
-528.745
-456.781
-278.761
-36.2295
1018.38
895.657
740.094
585.733
320.697
164.781
-15.3271
-237.027
-392.66
-329.837
-144.22
108.825
513.633
738.935
676.912
692.588
789.322
959.749
1383.62
914.815
708.372
694.635
477.13
648.19
406.823
665.646
629.889
642.582
755.454
814.646
1295.51
958.305
758.696
679.519
607.307
741.621
410.843
596.317
602.214
611.688
699.032
831.834
889.806
805.584
802.52
843.212
698.506
739.417
494.441
571.735
566.477
551.002
591.858
799.92
609.337
780.657
737.616
728.978
760.804
799.273
824.074
822.987
882.13
892.305
853.003
760.639
646.059
604.353
478.404
261.743
-5.12088
-5.69288
865.112
884.104
894.543
883.806
836.9
747.356
640.952
575.543
439.831
182.446
24.5417
47.9822
878.649
936.5
924.759
903.73
839.85
746.47
651.14
565.269
422.238
178.335
22.1796
111.019
955.605
991.503
965.489
925.368
864.759
758.623
662.069
576.969
437.315
213.237
142.788
196.011
308.488
431.448
552.563
579.051
564.044
544.462
737.108
794.73
770.972
832.272
758.995
833.937
400.329
535.129
646.79
658.944
603.608
485.577
585.34
679.931
654.039
750.933
789.24
855.858
502.97
640.078
745.572
754.197
664.93
455.504
465.96
633.898
579.259
700.769
820.965
888.17
608.047
750.746
865.381
856.364
710.494
440.052
443.02
576.425
533.873
696.042
845.418
961.351
702.749
840.034
980.775
959.321
723.177
471.324
430.664
571.396
518.385
735.264
909.041
1028.62
788.178
919.906
1081.79
1098.43
768.234
501.305
475.028
583.676
571.193
802.818
953.766
1121.29
869.945
1008.19
1185.73
1263.77
843.479
541.754
523.677
646.577
654.259
895.167
1009.52
1130.78
955.593
1143.43
1303.34
1439.29
923.91
573.607
563.421
723.529
784.158
968.441
1071.02
1136.78
1040.12
1298.99
1411.5
1584.92
1071.87
663.491
650.045
753.735
817.058
983.538
1140.74
1212.73
1123.79
1406.75
1480.65
1668.27
1288.76
812.946
773.281
847.817
819.679
1040.65
1177.56
1219.5
1194.32
1467.66
1548.55
1769.19
1522.07
773.58
833.084
851.448
905.351
1069.32
1240.94
1269.79
1253.12
1499.28
1625.9
1874.86
1701.21
892.793
909.805
898.874
941.751
1140.18
1270.57
1266.26
956.71
932.435
872.42
787.926
685.239
580.557
455.88
351.671
258.671
178.513
173.086
210.599
1003.06
977.729
935.511
849.693
730.757
631.463
525.545
415.508
323.003
250.494
243.639
286.57
1065.98
1020.48
973.881
897.256
789.203
682.514
576.076
469.883
365.576
310.493
312.203
372.284
1117.47
1069.54
1022.6
945.188
848.382
749.957
639.589
534.772
432.692
373.61
380.046
463.955
1157.82
1095.32
1042.29
987.496
904.156
804.283
705.568
595.707
497.033
440.264
454.448
561.988
1191.54
1131.04
1063.73
1007.34
941.112
844.406
759.57
659.698
555.621
494.149
530.702
654.148
1210.1
1143.53
1085.6
1041.54
977.789
890.672
808.025
726.474
625.339
561.015
608.393
746.269
1208.47
1142.92
1099.52
1077.64
1006.89
925.91
863.124
788.217
697.243
633.239
688.341
839.497
1198.2
1136.32
1130.47
1126.71
1048.76
962.455
899.463
843.758
764.986
709.301
771.849
929.028
1216.39
1154.26
1143.68
1124.8
1076.03
1008.11
938.518
892.758
828.157
785.819
850.854
1019.95
1186.25
1155.06
1154.73
1139.29
1098.38
1039.21
975.979
924.082
874.427
845.868
916.485
1094.83
1193.21
1160.79
1148.68
1133.89
1113.36
1075.98
1010.45
962.317
926.723
910.778
981.115
1156.48
325.677
439.503
492.729
490.195
462.588
463.503
548.692
607.249
631.263
725.971
755.142
834.639
405.428
518.854
579.086
550.776
449.626
402.44
446.998
512.185
502.238
672.529
763.583
832.031
495.483
620.312
695.888
631.216
409.51
358.135
370.011
406.875
435.734
633.219
762.785
842.112
587.35
731.324
815.726
727.675
370.852
315.518
334.743
343.458
364.973
614.87
785.226
861.349
695.816
850.159
953.908
881.341
339.159
230.113
320.88
321.078
368.992
625.334
816.836
908.933
814.928
982.364
1093.59
1042.42
303.952
234.346
369.353
357.366
372.179
648.411
848.341
955.968
929.342
1110.91
1225.75
1212.41
426.226
295.281
438.893
366.231
434.214
689.498
897.666
1023.31
1050
1239.51
1373.41
1402.22
661.121
320.35
532.448
436.93
455.481
738.375
978.997
1150.14
1159.25
1368.8
1518.1
1548.18
839.633
353.415
538.431
493.227
498.792
818.881
1022.42
1181.64
1250.55
1472.68
1629.94
1703.49
1013.5
464.901
632.437
562.979
605.922
910.868
1112.8
1180.64
1329.86
1542.05
1705.44
1875.1
1212.31
597.699
671.996
658.536
706.217
998.651
1193.1
1220.61
1382.6
1585.04
1751.52
1996.5
1343.26
737.554
773.907
755.33
801.854
1086.33
1187.4
1198.86
1008.31
1023.18
996.332
897.258
769.829
661.853
536.358
433.931
333.922
250.191
314.188
412.098
1082.12
1072.56
1049.72
957.765
823.36
712.038
601.473
488.128
398.316
357.248
397.711
488.592
1151.65
1116.52
1091.82
1007.06
879.186
768.158
658.838
544.379
450.512
441.765
492.448
578.483
1237.82
1161.79
1131.05
1056.66
941.934
835.308
728.414
614.283
521.064
527.02
579.931
673.089
1317.67
1207.51
1157.59
1097.64
1005.61
894.525
795.944
683.027
599.582
606.652
661.795
769.877
1362.82
1243.94
1198.33
1124.09
1041.22
943.305
858.372
752.538
672.871
677.4
742.585
857.986
1339.85
1270.74
1236.36
1164.53
1084.4
988.898
911.9
822.477
748.642
751.712
827.035
945.918
1363.94
1299.12
1245.6
1211.03
1132.07
1039.53
969.214
885.615
825.982
829.305
909.926
1034.26
1356.23
1288.92
1271.91
1280.67
1182.41
1090.35
1010.33
945.173
894.709
905.414
986.6
1113.38
1379.9
1298.08
1285.96
1275.73
1218.83
1144.35
1056.2
997.459
957.611
976.184
1058.66
1190.76
1341.03
1305.58
1306.41
1289.93
1242.85
1177.92
1099.19
1033.51
1006.69
1031.11
1114.74
1250.99
1350.94
1309.98
1298.03
1285.42
1261.5
1210.86
1129.21
1068.4
1045.13
1074.02
1156.03
1286.36
560.047
692.691
734.295
728.895
671.627
578.281
614.033
660.496
711.008
753.688
795.335
867.715
646.269
771.429
814.148
796.373
678.928
523.918
518.26
587.233
620.415
734.822
821.805
882.701
732.38
855.846
900.053
887.661
729.386
497.849
444.096
518.189
599.307
729.084
841.406
913.873
817.913
945.985
997.777
995.236
778.85
487.578
414.699
494.082
549.099
732.712
875.155
946.413
909.501
1045.08
1113.85
1108.33
835.841
550.243
454.969
491.24
564.429
750.199
921.293
990.535
1006.43
1150.55
1246.6
1241.54
947.761
625.76
503.454
513.638
591.614
793.674
965.272
1065.18
1110.31
1261.29
1386.26
1366.61
1026.4
717.161
565.289
570.171
673.611
859.102
997.547
1094.15
1210.18
1366.17
1522.9
1495.17
1136.04
872.647
718.672
672.747
730.43
929.354
1062.63
1172.8
1292.92
1454.29
1639.13
1625.12
1268.14
964.588
790.427
733.75
752.453
1004.13
1127.52
1213.7
1361.56
1535.12
1735.1
1730.4
1356.19
1010.54
909.014
775.354
800.524
1056.15
1172.46
1200.95
1417.51
1589.68
1799.92
1824.76
1439.71
1074.66
962.863
843.079
869.008
1117.18
1237.76
1252.34
1447.33
1612.56
1822.28
1882.26
1512.01
1145.8
1031.24
921.948
964.381
1201.08
1245.51
1234.25
1130.66
987.524
812.122
621.429
385.047
200.818
31.6844
-183.058
-269.829
-176.448
16.4885
281.994
1288.15
1127.04
943.018
711.666
462.799
293.056
118.311
-42.823
-103.122
6.00071
201.543
469.661
1470.81
1303.09
1077.14
815.174
552.409
368.552
213.325
77.9532
64.0973
189.834
391.398
651.744
1662.42
1484.08
1246.83
958.073
674.898
478.44
328.068
218.534
243.929
359.048
560.891
827.204
1775.96
1663.47
1418.42
1109.84
786.45
583.28
443.35
370.572
394.317
511.952
699.818
1002.43
1884.02
1808.89
1568.39
1250.17
910.592
700.961
550.762
481.236
525.387
659.779
854.448
1206.88
1973.5
1868.37
1701.94
1417.75
1071.74
852.056
680.081
621.384
679.817
826.033
1045.3
1410.79
2046.87
1904.99
1803.02
1540.01
1230.37
1005.47
843.198
801.292
868.956
1006.47
1229.19
1570.74
2055.86
1956.74
1922.96
1685.49
1374.95
1124.45
990.964
955.58
1024.79
1174
1397.13
1694.22
2134.67
1969.33
1938.99
1767.57
1489.12
1246.75
1116.34
1099.22
1151.96
1310.35
1533
1795.58
2047.25
2015.9
2029.51
1844.01
1559.76
1332.05
1196.74
1180.6
1244.3
1404.04
1622.45
1864.18
2085.56
2025.58
2020
1909.44
1655.1
1410.24
1282.96
1262.92
1316.28
1457.77
1667.68
1902.26
633.974
668.756
655.081
517.194
352.867
452.958
447.232
653.853
678.056
783.168
774.731
823.618
791.806
815.287
767.403
514.872
140.955
185.739
264.982
515.866
616.822
705.756
793.074
864.901
910.151
947.206
866.222
501.939
29.3159
-34.8216
77.87
294.417
534.83
751.033
837.443
913.221
1017.25
1064.76
988.787
582.784
29.0153
-172.254
-50.7572
158.656
466.9
752.196
916.614
971.611
1168.14
1204.82
1115
651.11
80.4033
-222.249
-213.377
0.900579
441.985
798.985
967.668
1030.8
1369.45
1392.4
1262.19
729.367
143.695
-246.135
-365.583
-109.731
422.055
849.348
1032.47
1100.48
1591.48
1655.89
1416.04
959.362
263.326
-151.06
-369.326
-113.449
470.839
920.424
1074.81
1135.01
1795.05
1986.86
1574.91
1202.43
465.148
15.5515
-312.802
-25.2981
607.164
1033.3
1157.56
1204.03
1963.91
2267.46
1788.88
1301.24
679.678
169.561
-102.028
110.01
801.498
1160.85
1225.88
1250.42
2083.58
2474.66
1994.08
1349.04
851.097
302.625
-19.357
292.055
946.168
1207.31
1219.98
1240.81
2142.8
2625.22
2186.19
1443.16
996.926
430.26
133.254
485.907
1044.95
1266.04
1267.73
1267.6
2184.29
2708.85
2355.7
1573.76
1151.39
650.031
394.692
748.764
1195.33
1295.35
1271.49
1263.69
1049.65
1045.57
1022.03
976.909
901.577
801.228
691.675
582.575
454.58
239.582
217.399
280.004
1125.45
1099.56
1072.01
1022.45
929.371
825.187
717.744
625.274
481.31
289.69
285.484
358.971
1168.49
1136.2
1098.59
1048.86
968.969
845.763
725.347
653.906
519.36
336.336
348.015
432.539
1221.71
1167.98
1133.24
1079.14
1005.16
893.902
795.154
705.046
556.476
371.989
398.941
509.034
1223.02
1189.28
1164.7
1123.26
1042
950.472
832.488
749.507
603.62
430.093
460.058
587.335
1242.48
1210.38
1171.21
1125.51
1077.28
1001.11
900.412
807.786
666.011
526.57
539.6
660.202
1261.58
1231.34
1179.35
1152.74
1130.61
1041.56
950.466
865.045
736.477
617.448
643.881
738.609
1310.58
1228.55
1180.32
1185.94
1144.22
1070.54
994.671
918.267
806.977
698.982
730.805
821.928
1246.93
1211.42
1201.38
1201.82
1153.78
1087.47
1034.98
972.136
871.084
783.329
802.321
886.58
1279.9
1243.49
1226.33
1209.16
1156.18
1098.38
1064.74
1019.81
935.443
865.146
888.82
963.467
1250.94
1226.14
1223.57
1207.67
1157.57
1104.6
1086.21
1054
981.228
934.271
961.805
1042.06
1259.03
1238.8
1223.71
1204.77
1159
1109.6
1107.6
1081.77
1015.04
987.452
1024.41
1102.55
)
;

boundaryField
{
    rotor
    {
        type            zeroGradient;
    }
    stator
    {
        type            zeroGradient;
    }
    front
    {
        type            empty;
    }
    back
    {
        type            empty;
    }
}


// ************************************************************************* //
