/*--------------------------------*- C++ -*----------------------------------*\
| =========                 |                                                 |
| \\      /  F ield         | OpenFOAM: The Open Source CFD Toolbox           |
|  \\    /   O peration     | Version:  2.4.0                                 |
|   \\  /    A nd           | Web:      www.OpenFOAM.org                      |
|    \\/     M anipulation  |                                                 |
\*---------------------------------------------------------------------------*/
FoamFile
{
    version     2.0;
    format      ascii;
    class       surfaceScalarField;
    location    "1.2";
    object      phiAlpha;
}
// * * * * * * * * * * * * * * * * * * * * * * * * * * * * * * * * * * * * * //

dimensions      [0 3 -1 0 0 0 0];

internalField   nonuniform List<scalar> 
5952
(
8.4772e-08
-2.5e-07
1.4317e-07
-5.83975e-08
1.50381e-07
-7.21129e-09
1.88107e-07
-1.27658e-08
2.27136e-07
-4.05049e-08
1.64164e-07
6.29723e-08
6.52011e-07
5.72753e-08
3.37722e-07
3.1429e-07
-2.10853e-07
2.9631e-07
-4.07796e-08
5.66189e-08
-1.68208e-09
1.24965e-08
3.79219e-10
-2.0613e-09
1.8357e-07
-7.96205e-07
1.65335e-07
-3.24917e-07
2.2053e-07
-4.89808e-08
3.8319e-07
3.92974e-08
1.14528e-07
4.09212e-07
-3.56626e-07
4.52233e-07
-5.72688e-07
1.25348e-07
-4.65744e-07
-9.60451e-09
-3.34193e-07
-2.09279e-08
-2.46843e-07
3.0803e-08
-2.88541e-07
9.92168e-08
6.15293e-08
-3.84699e-07
1.61189e-07
-9.57394e-07
2.77192e-07
-3.32168e-07
7.38378e-09
1.85721e-07
-5.34751e-07
6.23745e-07
-4.61176e-07
3.95416e-07
-4.85151e-08
-1.58682e-09
-3.21921e-10
2.19785e-09
-9.92643e-09
3.28827e-16
-5.76307e-08
2.66444e-16
-9.43602e-08
3.73545e-16
-6.61973e-08
6.90366e-09
2.67735e-08
-2.3935e-08
-6.7699e-08
-2.98997e-07
-5.83327e-07
-1.31231e-07
-8.50417e-07
4.99153e-07
-3.95416e-07
3.05684e-07
-5.26123e-16
4.07173e-16
-5.64517e-16
-1.58682e-09
-5.29302e-16
2.19785e-09
-5.78562e-16
3.2894e-16
-6.62226e-16
3.08233e-16
-7.3151e-16
2.43041e-16
6.90366e-09
1.83461e-16
1.26554e-08
-1.21661e-07
-1.0397e-07
-1.21516e-07
-6.50955e-07
8.49942e-08
-5.25082e-07
3.49406e-07
-5.13332e-09
4.50382e-09
-5.70343e-09
5.7011e-10
-1.59719e-08
2.44324e-08
-6.41921e-16
2.11166e-08
-7.37635e-16
3.81202e-16
-7.90889e-16
3.04315e-16
-7.72419e-16
2.33824e-16
-1.51365e-08
1.52563e-16
9.69797e-09
-2.13423e-06
-3.63518e-08
-1.04888e-08
-1.34948e-07
1.61826e-08
-9.10087e-09
1.53039e-16
-4.59706e-09
2.56058e-16
-1.8699e-08
6.59957e-09
-4.01717e-08
2.87262e-08
-2.97272e-08
2.78511e-08
-5.37207e-16
2.54646e-08
-5.50535e-16
3.09674e-16
-6.21423e-16
3.26012e-16
-1.51344e-09
1.51344e-09
3.24368e-10
-9.3223e-08
-1.66364e-08
4.41948e-08
-9.90801e-17
-4.53787e-10
-1.08552e-16
2.02345e-16
1.39705e-13
-1.39609e-13
-1.3239e-08
2.21332e-09
-1.5488e-08
2.4385e-08
-1.59325e-09
2.03485e-08
-7.43513e-08
2.14354e-08
-1.22727e-07
5.90108e-08
-1.30794e-07
3.10393e-08
8.2106e-11
1.52444e-08
4.06475e-10
-7.65261e-16
1.70292e-08
9.25528e-09
-2.26699e-12
1.31761e-08
-2.26696e-12
1.73727e-16
-1.11003e-10
9.13178e-12
-2.10968e-11
3.71884e-10
-8.63625e-11
2.27055e-08
-3.30679e-09
2.53138e-08
-1.68811e-08
5.03163e-09
-3.63851e-08
2.59767e-08
-3.91892e-08
1.26899e-08
-2.37306e-06
2.44873e-06
-3.12246e-05
-1.15292e-05
1.28151e-09
3.79454e-09
-6.98159e-19
2.88219e-09
-3.48093e-18
1.79495e-16
-2.92325e-12
1.20546e-11
-6.6294e-08
9.27197e-11
-2.95129e-07
7.64747e-07
3.72375e-09
2.10304e-06
-6.65285e-16
8.75538e-09
-9.33749e-16
2.59767e-08
-5.5801e-09
1.827e-08
-0.000126841
1.77049e-05
-0.000201404
-0.000163123
4.48357e-09
-1.83314e-08
-1.32082e-10
5.64373e-09
8.6918e-11
1.51664e-08
-8.87076e-12
9.61428e-10
-8.83202e-17
1.7886e-15
-1.89273e-07
9.5402e-07
-2.74623e-05
4.5045e-05
-4.73437e-05
0.000212354
9.07029e-06
8.49196e-05
-2.06426e-05
1.60295e-06
-0.000190661
8.78818e-06
-0.000308428
-8.30481e-05
-3.79673e-10
1.5688e-07
-8.81383e-11
2.28446e-09
1.73979e-08
1.317e-07
4.63085e-12
1.35492e-10
4.6306e-12
2.02399e-15
-2.50124e-06
2.39927e-05
-4.72979e-05
0.000263052
-6.50517e-05
0.000227061
-2.01778e-05
7.75004e-05
-4.56867e-06
1.24635e-05
-2.51959e-05
-2.44848e-05
-0.000346158
2.55187e-05
-2.78004e-06
1.82196e-06
1.65045e-06
9.87793e-07
3.75506e-16
1.78215e-06
4.5205e-16
1.35492e-10
4.56335e-16
2.03442e-15
4.03977e-06
3.74169e-05
-1.58143e-05
0.000279071
-5.36321e-06
0.000167611
1.62199e-06
8.20959e-05
-1.47429e-06
3.04572e-05
1.65646e-05
-6.96456e-05
2.83341e-05
-5.57441e-05
-2.3799e-09
3.18603e-10
-2.50699e-09
1.27155e-10
-2.4838e-09
-2.30678e-11
-2.24245e-09
-2.41277e-10
-9.31154e-10
-1.31127e-09
-7.46335e-10
-1.8482e-10
-3.60989e-07
-2.08442e-10
-3.29179e-07
-3.18096e-08
-2.0271e-07
-1.26469e-07
-1.22995e-07
-7.97147e-08
-1.20161e-09
-9.36957e-08
-1.20161e-09
-2.5264e-07
1.04275e-07
-2.22047e-08
1.6173e-08
-2.1974e-08
-1.1752e-08
-2.04572e-08
-1.55898e-08
-4.43107e-09
-1.06375e-08
-3.9372e-08
-4.41393e-08
-2.63549e-07
-3.33362e-08
-2.39126e-07
-5.62327e-08
-2.01025e-07
-1.47885e-16
-4.20157e-08
-4.35359e-10
-2.93004e-08
-1.27331e-08
-3.00593e-08
-4.55962e-07
3.73465e-08
-9.69606e-07
7.75513e-10
-6.13121e-07
-1.65539e-08
-2.41428e-07
-5.45407e-09
-2.28909e-07
-2.60292e-08
-2.57696e-07
-8.33959e-08
-1.92853e-07
-3.01349e-08
-2.74028e-16
-1.25277e-16
-3.37216e-16
-2.09179e-16
-3.43589e-16
-4.35357e-10
-1.10617e-08
-1.67138e-09
-9.00212e-09
-5.37634e-07
-3.71202e-08
-8.50175e-07
-2.23607e-07
-2.75588e-07
-2.43117e-07
-1.18816e-07
-2.64007e-08
-1.28069e-07
1.31225e-09
-1.53622e-07
-1.85125e-16
-3.21051e-16
-1.22113e-08
-3.10748e-16
-1.9665e-16
-6.1457e-16
-2.39925e-16
-1.05409e-09
-3.68866e-10
-3.21871e-10
-3.96097e-09
-9.87022e-09
-2.052e-06
-9.51857e-08
-1.83035e-06
-4.69427e-07
-1.28946e-06
-7.59836e-07
-1.18483e-07
-4.68676e-07
-4.41231e-16
-1.17171e-07
-3.05687e-16
-3.79464e-16
-1.91197e-16
-1.22113e-08
-1.74126e-16
-2.72701e-16
-4.46018e-12
4.45901e-12
-6.85625e-10
-4.21967e-11
-2.07755e-10
-3.53301e-09
-9.51317e-09
-5.31783e-07
6.3476e-08
-9.60104e-07
-2.95792e-16
-1.49551e-06
-2.49793e-07
-8.88128e-07
-5.21087e-07
-8.66768e-08
-1.91272e-07
-5.95222e-08
-3.57748e-08
-1.03235e-08
-1.65666e-07
2.19546e-09
-1.91278e-07
-1.53133e-11
-2.47642e-08
-3.15995e-11
-2.67905e-09
-4.02336e-10
-2.18909e-10
-2.43551e-16
-5.95265e-16
6.3476e-08
-4.95116e-16
-4.67574e-16
-5.02895e-08
-1.99504e-07
-4.62728e-08
-8.40257e-13
-7.64363e-09
-1.5654e-10
-6.20256e-09
-5.60744e-09
-2.72443e-08
-3.55567e-09
1.12769e-07
-2.66425e-07
1.57891e-08
-1.64211e-07
2.18909e-10
-1.80112e-08
1.04086e-17
-1.85837e-16
-2.33142e-16
-1.94086e-07
-6.1373e-05
-6.67712e-07
-5.07915e-06
-1.62432e-13
-9.32136e-06
-1.00267e-12
-7.53757e-16
9.83632e-11
-5.06152e-09
8.33381e-11
-7.62337e-09
2.04619e-09
-7.34072e-09
7.89262e-08
-9.79792e-09
1.44506e-07
-2.01506e-07
1.62684e-10
-5.24217e-08
3.65349e-17
1.62684e-10
-2.31538e-16
-0.000101444
-0.00026014
-9.63918e-06
-0.000255734
-5.40278e-10
-5.67152e-05
-5.40278e-10
-8.92176e-16
3.50606e-09
-4.74545e-09
4.08234e-09
-6.39596e-09
5.9622e-09
-7.14118e-09
6.17949e-09
-6.4035e-09
1.37643e-07
-1.68224e-07
2.4715e-08
-4.89745e-08
1.60887e-11
5.45911e-09
1.60884e-11
-1.73392e-05
-0.000326438
3.0031e-05
-0.000227034
-3.17865e-09
-4.58911e-05
-1.38746e-09
-1.79119e-09
7.82392e-09
2.64166e-09
6.92231e-09
-7.91227e-10
1.21114e-08
-8.20828e-09
8.8427e-09
-6.9654e-09
1.06142e-07
-4.11039e-09
8.24951e-08
-9.95167e-10
1.7053e-08
-1.73554e-08
-1.37886e-08
2.08007e-05
-2.83341e-05
3.94844e-06
-7.58214e-16
1.23688e-06
-6.75888e-16
-1.80719e-10
-3.26398e-08
5.41463e-16
2.46094e-09
2.73511e-10
-1.06474e-09
1.01545e-08
-5.72999e-09
1.23681e-08
-1.15506e-08
1.02207e-08
-1.91349e-09
3.04595e-07
7.36384e-09
2.49586e-07
5.9351e-08
5.20475e-08
2.90037e-16
-9.23298e-16
3.27908e-16
-7.96327e-16
3.36513e-16
-6.8425e-16
4.2726e-08
-9.65041e-09
1.81745e-08
-7.13264e-08
1.02304e-09
-1.02289e-08
6.89635e-09
-6.6837e-10
1.62054e-08
-1.40662e-10
2.29331e-08
-8.69332e-09
3.16167e-07
7.61238e-09
3.19935e-07
1.05843e-07
3.71982e-07
1.17604e-10
-1.03863e-11
5.93452e-10
-9.57951e-12
6.45602e-10
-5.21503e-11
6.5085e-10
-5.11005e-12
6.14791e-10
3.60595e-11
3.90906e-11
7.13178e-11
6.31361e-13
1.85849e-13
6.18531e-13
1.28179e-14
-2.90492e-13
9.39161e-11
-3.09619e-13
1.91219e-14
-1.50047e-13
5.65397e-14
1.42127e-14
-6.4843e-14
3.37782e-12
-1.37644e-11
5.21791e-12
-1.14199e-11
1.76685e-11
-5.29765e-12
-4.54412e-12
1.32793e-12
-6.87668e-11
4.04645e-11
-1.34429e-10
1.43947e-10
-3.9652e-11
7.43588e-12
-9.44386e-11
1.17741e-11
-1.01984e-12
9.1569e-13
-1.01808e-12
1.73572e-14
-7.8595e-13
1.46982e-13
6.43673e-14
-4.93495e-13
-3.33392e-13
-1.33592e-11
-9.49026e-14
-6.01446e-12
6.69855e-12
5.43467e-12
-2.05573e-10
9.00429e-11
-5.01956e-10
2.53617e-10
-9.37436e-12
1.86314e-10
-1.97494e-12
3.64857e-14
-7.7689e-13
4.38168e-14
-3.72619e-13
-6.01806e-15
-4.26424e-13
8.77533e-14
-2.34573e-13
4.30141e-14
1.39622e-14
-1.86027e-13
-8.87299e-12
-4.48679e-12
2.52935e-13
6.40738e-13
-3.93221e-11
2.34396e-12
-3.44503e-10
1.48213e-10
-2.9567e-10
2.95939e-10
-9.86963e-14
1.12389e-10
-1.00844e-13
3.86199e-14
-9.0742e-14
3.34649e-14
-1.72927e-13
4.38052e-14
-1.54931e-13
4.68642e-14
-1.38286e-13
1.68875e-14
7.52723e-15
-1.38038e-13
-3.56855e-12
1.29943e-12
5.47234e-13
9.65759e-14
-1.42371e-11
2.59114e-12
-3.14688e-10
6.79038e-11
-3.10251e-10
1.92419e-10
-8.68056e-14
2.55833e-12
-9.17143e-14
4.35427e-14
-9.55132e-14
3.71874e-14
-1.66469e-13
3.86761e-14
-2.85908e-13
7.14301e-14
-2.34703e-13
-1.76563e-14
-1.03687e-14
-2.54599e-13
-1.22342e-16
1.29946e-12
9.96685e-14
-3.29453e-15
-1.13766e-11
4.11865e-12
-3.06127e-11
2.1344e-13
-3.7248e-12
1.27474e-13
-4.20143e-13
1.19065e-13
-6.30793e-14
7.32912e-13
-6.36545e-14
3.76616e-14
-1.39629e-12
1.37123e-12
-3.54834e-13
3.2997e-13
-2.95346e-13
-4.449e-14
-3.85238e-13
-7.74913e-13
8.74357e-13
9.04786e-11
-6.68812e-13
1.7671e-13
-4.7484e-13
2.3484e-13
-2.68139e-13
9.15484e-14
-2.88141e-13
6.12051e-14
-4.16747e-13
3.32356e-13
-4.14882e-12
3.75285e-12
-3.13026e-11
3.80444e-11
-2.19437e-11
2.82152e-11
-2.82532e-12
-1.33884e-12
-4.26243e-12
-9.36005e-14
-4.26337e-12
-7.13806e-12
-1.64912e-14
1.82089e-10
-1.69403e-13
3.09494e-14
-2.04644e-13
3.25573e-13
-2.30767e-13
4.73041e-13
-1.01155e-13
5.57454e-13
-1.88892e-13
3.95522e-13
-5.61322e-11
1.62144e-11
-1.48361e-10
1.23652e-10
-9.33187e-11
2.06649e-11
-6.04105e-12
6.84024e-14
-9.89302e-12
-1.13404e-12
-6.02338e-12
-6.80951e-12
-1.46206e-12
7.77483e-11
-1.55566e-13
1.10923e-12
-2.06353e-13
5.25245e-13
-3.11883e-13
8.73465e-13
-2.51006e-13
8.65221e-13
-3.54586e-13
7.58818e-13
-4.13082e-13
4.06807e-13
-2.57467e-11
1.49687e-10
-4.12361e-12
9.43411e-12
-2.52172e-12
-1.26219e-12
-3.40287e-12
-1.23928e-15
-1.15358e-15
-4.27687e-12
-8.26908e-13
5.23258e-11
-7.53455e-14
4.55373e-13
-9.18006e-14
6.38006e-13
-5.46514e-14
9.0098e-13
-2.35301e-14
5.97435e-14
-3.73137e-16
1.49577e-12
-1.07516e-09
1.0748e-09
-2.1697e-11
5.35275e-09
-7.27452e-11
6.64046e-11
-1.18865e-15
-2.14567e-11
-6.96167e-16
-1.73823e-15
-1.48473e-15
-3.58576e-16
2.86689e-11
2.17027e-10
1.82916e-13
3.92229e-11
1.50661e-18
8.2079e-13
-4.72117e-17
8.91545e-13
5.90541e-14
6.45141e-16
-2.0604e-09
5.45417e-09
-4.44651e-09
1.39823e-08
-6.54615e-09
7.45209e-09
-4.43581e-09
2.15991e-09
-1.09154e-10
-3.43485e-09
-3.17014e-16
-1.09156e-10
-1.83882e-15
3.07882e-17
4.37771e-13
2.29376e-10
1.78174e-12
4.99793e-11
1.3834e-12
1.26538e-11
8.58011e-13
8.11954e-12
8.58052e-13
6.1461e-16
-6.0626e-10
6.22156e-09
-1.03782e-09
1.44135e-08
-4.46435e-10
6.86073e-09
-7.49269e-10
2.46244e-09
2.01031e-11
-3.31724e-09
-4.69711e-12
-3.26278e-11
-6.10813e-15
-4.69288e-12
-6.94215e-14
4.47535e-15
-7.33851e-14
1.61863e-15
-8.42546e-14
5.45092e-16
-8.8325e-14
-6.46605e-15
-8.04796e-14
-1.50494e-14
-6.37999e-14
-1.19273e-14
-3.99762e-14
-1.32766e-14
-3.22337e-14
-5.90832e-15
-1.98299e-14
-1.24068e-14
7.28284e-14
-9.26652e-14
3.88515e-11
-6.94365e-11
3.8851e-11
-1.88746e-13
8.63694e-15
-1.99617e-13
-4.80186e-15
-2.1255e-13
-1.79048e-14
-2.06991e-13
-1.78095e-14
-1.76447e-13
-3.86196e-14
-1.02158e-13
-2.87183e-14
-4.31035e-14
-2.27826e-14
-2.52607e-14
-1.00206e-14
-2.1465e-14
-1.62225e-14
5.12675e-12
-1.23101e-11
-2.1716e-11
-1.25334e-10
-3.91758e-11
-1.91041e-13
-3.71501e-15
-2.31611e-13
-6.78717e-15
-2.15576e-13
-2.77099e-14
-2.01223e-13
-1.97996e-14
-1.62574e-13
-3.69624e-14
-8.06977e-14
-4.02831e-14
-2.82976e-14
-3.29442e-14
-2.36358e-14
-1.46972e-14
-1.97941e-14
-2.00826e-14
-1.3924e-12
-1.40082e-11
-4.72901e-11
-1.12164e-10
-1.59133e-10
-1.32615e-13
-1.31436e-14
-1.31572e-13
-1.84704e-14
-1.03934e-13
-6.04079e-14
-9.10736e-14
-2.51425e-14
-7.89958e-14
-4.00879e-14
-5.0308e-14
-5.57782e-14
-1.55672e-14
-5.63485e-14
-3.3426e-15
-2.25039e-14
-1.38404e-15
-2.11984e-14
-6.81503e-12
-1.09456e-13
-1.58976e-11
-1.64105e-12
-5.1225e-11
-2.84949e-13
-2.22101e-14
-2.63767e-13
-4.67487e-14
-1.33784e-13
-1.69427e-13
-6.81133e-14
-8.73647e-14
-5.29643e-14
-5.69273e-14
-4.27893e-14
-6.3178e-14
-1.20913e-14
-8.70672e-14
1.06614e-14
-3.97871e-14
2.47592e-17
-2.10777e-14
-1.93481e-16
-6.05771e-15
-1.63983e-12
-7.68732e-16
-1.28199e-15
-3.01242e-13
-1.79813e-12
-2.04869e-13
-1.54986e-13
-1.37516e-13
-1.19822e-13
-5.4557e-14
-1.22049e-13
-3.10694e-14
-6.78347e-14
-2.58219e-14
-5.5671e-14
-1.01378e-14
-8.80853e-14
1.29802e-14
-6.38442e-14
1.86748e-14
-3.10241e-14
5.23231e-16
-1.24008e-14
8.42019e-17
-1.95758e-15
-1.19786e-15
-3.57144e-12
-6.62094e-12
-2.11362e-13
-3.23465e-12
-6.57683e-14
-5.40217e-14
-1.42383e-14
-7.22993e-14
5.43326e-16
-3.95919e-14
2.52712e-15
-3.14436e-14
4.32679e-15
-5.65003e-14
1.46786e-14
-6.80048e-14
1.85307e-14
-3.90145e-14
4.45837e-15
-1.10666e-14
9.97912e-17
-7.58767e-15
-2.48443e-15
-5.49712e-12
-9.25786e-12
-2.89593e-14
-4.05414e-12
-2.49335e-14
-7.43095e-14
-4.60858e-15
-4.70753e-14
2.87675e-15
-3.22687e-14
5.78123e-15
-3.62186e-14
8.16035e-15
-4.42803e-14
1.94908e-14
-6.20775e-14
2.24339e-14
-4.55952e-14
1.06481e-14
-1.00333e-14
3.0152e-15
-1.04468e-14
-8.20061e-14
-1.88676e-12
-1.25381e-15
-8.6043e-14
-5.86151e-14
4.84847e-15
-2.03984e-13
1.94471e-14
-8.57585e-14
1.76944e-14
-4.63517e-14
1.41404e-14
-4.75564e-14
1.17095e-14
-3.98508e-14
2.08514e-14
-4.3046e-14
3.02488e-14
-4.37391e-14
1.26901e-14
-1.17368e-15
3.82004e-15
-4.40071e-15
-4.45173e-13
-1.29986e-16
-1.48886e-15
9.99251e-17
-5.88852e-14
4.15564e-14
-1.23179e-13
3.10554e-14
-7.79169e-14
3.05466e-14
-5.52157e-14
2.79717e-14
-5.43406e-14
1.74795e-14
-3.16714e-14
2.19001e-14
-2.16265e-14
3.18948e-14
-3.60259e-14
1.90976e-14
5.70497e-15
2.47292e-14
2.46099e-16
-5.17089e-13
2.96965e-16
-1.71193e-15
2.8264e-14
-7.76764e-14
4.75936e-14
-1.35946e-13
5.78275e-14
-8.34754e-14
5.14323e-14
-4.49802e-14
2.68527e-14
-1.88395e-14
1.4477e-14
-1.34247e-14
1.65068e-14
-1.02111e-14
4.01965e-14
-1.74291e-14
5.84663e-14
1.43657e-14
6.63545e-14
7.85933e-16
8.16271e-14
2.04321e-14
-5.64476e-13
6.10214e-14
-1.91928e-13
6.59311e-14
-7.65415e-14
7.2174e-14
-5.39634e-14
3.6925e-14
-4.51227e-14
2.06354e-14
-2.09671e-14
1.19481e-14
-1.11726e-14
2.1318e-14
-1.00869e-14
4.39943e-14
-8.87788e-14
7.20467e-14
2.48163e-14
6.99953e-14
2.90584e-15
8.75072e-13
1.19701e-08
-1.37049e-08
2.15575e-08
-9.58741e-09
7.13923e-09
-5.67787e-09
-2.06751e-11
-4.5672e-10
-2.39902e-11
8.91905e-12
8.04655e-11
1.34089e-11
3.74251e-11
4.50538e-11
5.27712e-12
5.76542e-12
-5.22051e-16
5.27764e-12
-1.71104e-05
1.71104e-05
-0.000321065
2.88019e-05
6.39757e-05
-0.000694881
8.78882e-09
-2.21155e-08
2.69417e-09
-7.12888e-12
-1.63594e-10
-3.42762e-10
-9.93902e-12
3.8465e-11
-2.89892e-11
3.5476e-11
2.5359e-13
9.3821e-12
-1.97672e-15
4.53088e-11
-3.22926e-05
3.22926e-05
-0.000145347
0.000122315
-0.000530553
0.000180808
-0.00084292
0.000152965
5.54213e-05
-0.000834365
-3.8601e-12
-1.03787e-08
-1.0989e-11
-8.80795e-18
-2.19671e-10
-2.38185e-17
4.48078e-12
3.97158e-11
-3.88538e-16
3.99657e-11
-3.90612e-05
3.90612e-05
-0.000294063
0.000255469
-0.000505891
0.000313033
-0.000579301
0.000254496
-0.000569502
0.00016747
-0.000532589
0.000116052
4.93215e-05
-0.00052649
-9.11622e-17
-5.08587e-10
-8.92286e-17
4.66701e-18
-1.43646e-16
3.72985e-17
3.97155e-11
6.46443e-17
-3.74422e-05
2.15371e-05
-0.000447689
0.000343376
-0.000618043
0.000404082
-0.000628846
0.000323826
-0.00059387
0.000219531
-0.000590868
0.000164457
-0.000554564
6.5805e-05
2.84462e-05
-0.000536932
-3.94197e-16
1.81777e-08
-4.22176e-16
1.64586e-17
-1.85313e-16
2.90061e-16
-4.48363e-07
4.48363e-07
-0.00039769
0.000254597
-0.000649622
0.000461164
-0.000600538
0.000376241
-0.000374236
6.20129e-05
-0.000297718
-2.10617e-12
-0.000354418
1.37527e-07
-0.000400104
-4.35482e-17
-9.98543e-06
-0.000419072
-4.10248e-17
5.36075e-08
-3.21769e-17
2.50932e-17
1.7021e-16
6.40329e-17
-9.85734e-05
2.52014e-05
-0.000458959
0.000358984
-0.000537734
0.000466941
-6.20129e-05
5.72328e-05
-1.0482e-15
4.66026e-16
-1.05363e-15
-2.10622e-12
-7.2762e-16
-2.52145e-12
-6.52362e-16
-1.90008e-16
-1.58817e-16
-9.98543e-06
-6.46106e-19
4.96076e-08
-2.12352e-17
3.38256e-17
-7.67615e-17
1.27555e-16
-0.000163379
4.81616e-05
-0.000332131
0.000177723
-5.72328e-05
5.83922e-05
-1.40236e-15
7.14057e-16
-9.1571e-16
5.55249e-16
-6.15897e-11
3.94613e-12
2.49877e-13
-2.63693e-10
-5.82912e-16
2.50089e-13
-4.03177e-16
-5.34264e-16
-4.87947e-07
3.26985e-07
8.75035e-08
1.38299e-05
-3.6228e-06
3.7103e-06
-3.1379e-05
8.5573e-06
-2.46548e-05
-4.57398e-17
-9.41277e-16
-2.15868e-16
-1.04044e-15
7.6937e-16
-1.37131e-15
5.54527e-16
-7.16286e-10
1.18482e-13
-1.5265e-08
-2.22537e-10
-7.19877e-09
-2.58221e-08
-1.15997e-07
8.03066e-12
3.26985e-07
5.23632e-16
-1.44852e-06
1.88394e-05
-3.27075e-07
0.000225162
-1.96609e-16
8.23022e-06
-3.03813e-16
5.52919e-16
-6.68757e-16
5.69656e-16
-7.09681e-16
1.58294e-15
-8.24017e-16
6.22201e-16
-8.74069e-16
1.94034e-16
-2.22538e-10
-2.04203e-16
5.44361e-08
-8.82862e-09
-5.58504e-07
-6.69518e-07
7.10914e-10
-7.10914e-10
-6.64794e-06
1.42786e-05
-1.44763e-05
0.000382669
-8.58185e-17
0.000254908
-1.66125e-16
4.57501e-16
-5.01739e-16
1.39355e-15
-7.12267e-11
7.12325e-11
-7.11128e-16
3.27236e-10
-8.39678e-16
1.90283e-16
-8.17516e-16
6.24173e-17
-8.82862e-09
-1.19786e-15
-5.27601e-08
-4.64394e-07
1.76632e-07
5.86729e-08
1.88814e-07
1.67261e-06
-1.40459e-05
0.000440456
-5.19284e-12
0.000505508
-5.70732e-12
5.15399e-13
-9.70098e-11
2.56631e-11
-2.72146e-10
5.95087e-10
-5.98208e-12
3.46625e-10
-5.95588e-12
-2.46267e-14
6.87032e-14
-3.52365e-11
-2.24772e-16
-4.74179e-09
-4.91434e-08
-3.61664e-09
2.48872e-08
1.32397e-08
1.59867e-06
1.01554e-07
3.35166e-05
4.12316e-05
3.01183e-05
0.000577382
-1.28731e-10
7.16025e-05
-1.03068e-10
1.57401e-15
-8.18551e-11
9.59875e-10
-1.57707e-11
1.67717e-10
4.25668e-12
2.00959e-12
-2.76173e-10
-2.52975e-15
1.60242e-08
-1.13899e-07
3.09106e-08
-2.41862e-07
-0.000754905
6.00242e-05
-0.000788499
3.35944e-05
-0.000719877
-2.78933e-06
-0.000454983
-1.70904e-05
-0.000382761
-7.45628e-05
-0.000318123
-6.92183e-05
-0.000407495
-0.000117954
-0.000339734
-0.00012453
-0.000186647
-0.000124711
-5.25358e-05
-0.000144977
2.93918e-06
-8.44816e-05
2.93918e-06
-0.000796021
2.16799e-05
-0.000759099
-3.3269e-06
-0.000713414
-4.8452e-05
-0.0006741
-5.64036e-05
-0.00064324
-0.000105423
-0.000583676
-0.000128782
-0.000534435
-0.000167195
-0.000402994
-0.00025597
-0.000293803
-0.000233901
-0.00022809
-0.000210691
-7.51527e-05
-0.000247385
-8.23976e-05
-0.000522185
1.73961e-05
-0.000532948
7.72797e-06
-0.000540476
-4.08526e-05
-0.000529605
-6.74442e-05
-0.000528068
-0.00010696
-0.000492311
-0.000164539
-0.000457887
-0.000201619
-0.000397341
-0.000315145
-0.000259177
-0.000369753
-0.000168617
-0.000301144
-0.000140696
-0.000275307
-0.000223093
-0.000480183
-3.93427e-05
-0.000466625
-5.21557e-06
-0.00045836
-4.78853e-05
-0.000459125
-6.7421e-05
-0.000461721
-0.000105457
-0.000415235
-0.000211026
-0.000374919
-0.000241934
-0.000323259
-0.000366805
-0.000255863
-0.000434188
-0.000151388
-0.000370443
-5.00519e-05
-0.000300718
-0.000223584
-0.000447682
-5.74967e-05
-0.000435617
-3.47125e-05
-0.000338118
-0.000144172
-0.000298383
-0.000107705
-0.00040636
1.16372e-06
-0.000387781
-0.000229604
-0.00031795
-0.000311765
-0.000267828
-0.000416927
-0.000199539
-0.000502478
-0.000101574
-0.000405548
-6.12573e-05
-0.000161359
-0.00011626
-0.000165046
-1.99842e-06
-0.000380545
-2.06341e-05
-0.000323251
-0.000234497
-7.80876e-05
-0.000353051
-0.00012396
4.68807e-05
-0.000219318
-0.000134766
-0.0002023
-0.000328783
-0.000180659
-0.000438568
-0.000164441
-0.000518696
-4.74805e-05
-0.000506709
-4.14309e-06
-0.000204696
-0.000120403
-1.99842e-06
-7.40624e-16
-4.33211e-05
-5.91711e-07
-0.000236736
-5.08381e-05
-0.000118385
-0.000289179
5.04291e-05
-0.000121661
1.83931e-07
-8.48308e-05
-5.38316e-05
-0.000274767
-7.38024e-05
-0.000418597
-6.77211e-05
-0.000524777
-8.49421e-05
-0.000503033
-1.83853e-05
-0.000538548
-0.000138788
-5.48542e-16
8.03436e-12
-5.91711e-07
-4.43029e-16
2.3559e-06
-1.1532e-06
-6.02227e-05
-1.63509e-07
0.000118754
-0.000293634
0.000145889
-0.000111935
0.000139632
-0.00026851
0.000114125
-0.00039309
4.1988e-05
-0.00045264
3.80278e-06
-0.000464848
-1.15275e-06
-0.000533592
-0.000148506
-3.81153e-08
-1.94945e-06
-1.44896e-16
-3.81153e-08
-8.84583e-17
-1.1532e-06
1.87111e-08
-1.8222e-07
0.000220525
-6.79164e-08
0.000284245
-0.00016362
0.000306618
-0.000290882
0.000262158
-0.00034863
0.000195802
-0.000386284
0.000133803
-0.00040285
7.39668e-05
-0.000473756
-0.000162404
-7.53032e-07
-4.8998e-06
3.82857e-08
-5.65418e-06
1.75227e-07
-7.01304e-06
5.59474e-08
-4.05227e-06
4.70947e-08
-2.64646e-07
0.00039752
-6.76396e-05
0.000491669
-0.000219189
0.000483024
-0.000339985
0.000400297
-0.000303557
0.000312788
-0.00031534
0.000139591
-0.000300559
-0.000142104
8.53118e-07
-5.24259e-08
2.97582e-06
-7.68752e-06
4.25324e-06
-8.37982e-06
3.12503e-06
-7.28325e-06
4.21332e-06
-1.98532e-07
9.79011e-05
-9.96434e-07
0.000342602
-9.0531e-06
0.000595574
-6.86884e-05
0.000561072
-0.000144565
0.000373192
-7.9207e-05
0.000268751
-7.75451e-05
4.29633e-05
1.36535e-08
-1.61628e-07
4.25934e-06
-9.54592e-08
5.45098e-06
-3.63245e-16
3.08615e-07
3.52357e-06
1.63784e-07
8.88236e-08
2.50086e-16
-8.3265e-07
1.66755e-06
-1.07206e-05
7.56762e-05
-1.0189e-05
0.000151787
-2.02492e-05
0.000132127
4.23944e-06
0.000136102
8.2434e-06
0.000174518
4.48625e-05
-4.48625e-05
9.67749e-05
-5.19125e-05
0.000251997
-3.22565e-05
0.000252903
5.53274e-05
0.000168287
8.16039e-05
0.000184783
4.4501e-05
0.000107654
9.54624e-05
5.57267e-07
0.000107097
-4.46755e-06
5.57578e-05
-7.73595e-06
3.2684e-06
-0.000103217
2.69127e-05
0.000101756
-0.000294906
3.81224e-05
-8.29849e-05
0.000209171
-0.000148922
0.000212905
-8.19759e-05
0.000120353
0.000136074
3.08187e-05
0.0002465
-0.000130347
0.000246154
-0.000137445
0.000170294
-2.85063e-05
2.14938e-05
1.70779e-05
-5.38264e-07
-0.00042903
0.000108777
-0.000624605
0.000151713
0.000172287
-0.000657707
7.13473e-05
-0.000154332
0.000263549
-0.000332996
0.000151247
3.03263e-05
5.13761e-05
0.000275387
-6.51953e-05
0.000424792
-0.000225446
0.00045508
-2.14953e-05
5.22446e-05
-1.49762e-08
1.35645e-08
-6.40945e-06
1.27981e-08
-0.000902359
0.000108686
-0.000875575
0.000124658
0.0001407
-0.000843719
-3.33983e-05
-0.000240684
-0.000151364
-0.000230737
-0.000364826
0.000243788
-0.000558814
0.000469374
-0.000448623
0.00032961
-5.22418e-05
3.36394e-05
-2.40055e-08
2.67597e-08
-2.28572e-08
1.24162e-08
-1.93815e-06
1.9281e-06
2.8481e-05
4.19344e-05
-0.000259727
1.24363e-05
2.86293e-05
-0.000672979
-0.000280053
-0.000178616
-0.000567428
5.66382e-05
-0.000820433
0.000496793
-0.000395863
0.000145983
-3.36411e-05
9.41746e-06
-2.77313e-08
2.6083e-08
-4.8258e-05
4.82571e-05
-0.000172025
0.000157762
-0.000359438
0.00022168
-0.000483407
0.000141472
-0.00048588
6.79105e-06
-4.30698e-05
-0.000407558
-0.000314743
-5.03389e-06
-0.000533567
0.000233707
-0.000153498
8.36912e-05
-6.15975e-06
3.35876e-07
3.86086e-09
3.7183e-06
-9.44055e-05
9.44355e-05
-0.000471051
0.000488715
-0.0006592
0.000410539
-0.000672551
0.000255796
-0.000644352
0.000104334
-0.000574258
-9.28864e-05
-0.000133775
-0.000483553
-0.000129528
3.68323e-05
-8.36992e-05
0.000286535
-2.6425e-08
1.84309e-08
2.95965e-07
1.34902e-08
-6.14151e-05
8.13682e-05
-0.000623456
0.000697528
-0.00074571
0.000610968
-0.000791378
0.000456207
-0.00079116
0.000248636
-0.000758311
7.14844e-05
-0.000658397
-0.0001928
-0.000291903
-0.000500263
-0.000135625
0.000103829
-1.56843e-08
0.000407885
-2.06508e-08
2.34015e-08
-2.72676e-08
2.01028e-08
-0.000461572
0.000332893
-0.000706606
0.000911751
-0.000838278
0.00074264
-0.000986972
0.000604902
-0.00102237
0.000284038
-0.000933077
-1.9367e-05
-0.00073545
-0.000390427
-0.000546321
-0.000481033
-1.77376e-05
6.93401e-05
-2.67395e-05
0.000564896
-5.04678e-06
0.000414066
-4.98062e-05
4.47795e-05
-0.000559317
0.000325834
-0.000645554
0.000997988
-0.000788045
0.000885131
-0.000593786
0.000429583
-0.000410753
6.00622e-05
-0.000443225
-1.05057e-05
-0.000610206
-0.000216407
-0.000725485
-0.000430425
-6.92539e-05
0.000138594
-3.35971e-05
0.000270103
-1.84734e-05
0.000718062
-2.19355e-05
0.000471011
-0.000208778
0.000422091
-0.000463904
0.000984205
-0.000543065
0.00102888
-6.05447e-05
8.22175e-05
-6.80841e-07
1.98157e-07
-1.0986e-05
-1.99513e-07
-0.000206897
-2.77287e-05
-0.000740112
-0.000191945
9.30385e-05
0.000548055
1.34981e-05
0.000220063
9.33962e-06
0.000869492
-5.62652e-05
0.00104371
-0.000187436
0.000847025
-0.000363129
0.00117274
-8.19673e-05
0.000775553
-3.23128e-07
5.73404e-07
-2.84424e-07
1.59659e-07
-2.75922e-07
-2.08193e-07
-2.07144e-05
-4.66619e-06
-0.000863922
0.000107015
0.000134177
0.000435118
7.22603e-05
0.000210236
0.000162634
0.000132611
0.00015194
0.000958391
2.98762e-05
0.00132835
-4.37111e-05
0.00133365
-1.08675e-07
0.000605792
-7.96017e-08
5.44549e-07
-1.64303e-08
9.78771e-08
8.63869e-08
-3.10799e-07
9.94063e-05
-9.66369e-05
0.000391959
-0.00114159
-0.000163577
3.07887e-05
-0.000176442
1.28653e-05
-0.000139779
-6.3292e-05
-0.000647997
1.07114e-06
-0.000617108
-6.00712e-06
-0.000526995
-5.858e-06
-0.000423333
-1.77738e-05
-0.000369524
-3.77958e-05
-0.000277143
-7.41623e-05
-0.000178725
-7.73457e-05
2.67008e-05
-0.000197255
2.67008e-05
-0.000655494
5.53941e-05
-0.000692436
6.50388e-05
-0.000512987
-3.89745e-05
-2.53552e-05
-2.08328e-06
-2.30853e-05
-8.6808e-06
-1.96658e-05
-8.87144e-06
-2.45549e-05
-1.32871e-05
-3.2579e-05
-1.3218e-05
-4.17242e-05
-2.7422e-05
-5.84111e-05
-4.45154e-05
-2.16346e-05
-0.000263415
-3.98102e-06
-0.000818758
3.01645e-05
-0.000702999
3.23409e-05
-5.2911e-05
-5.73672e-05
-3.78142e-05
-1.76247e-05
-2.68388e-05
-1.92073e-05
-2.53171e-05
-1.08378e-05
-2.30694e-05
-1.74961e-05
-1.9775e-05
-3.23623e-05
1.73368e-06
-0.000122684
-0.000106938
-3.02983e-05
-0.000200461
-0.000142555
-8.58797e-05
-0.000608534
-3.3986e-05
-0.000537761
-3.87267e-05
-0.000223343
-0.000115678
-0.000108608
-0.000107672
-6.81806e-05
-0.000165604
-0.000143891
-0.000114577
-0.000170572
-0.000271125
-0.000286461
-0.000231142
-0.000278563
-0.00037014
-0.000172723
-0.000350596
-4.97079e-05
-0.000348041
-0.000135588
-0.000438006
-0.000112929
-0.000440771
-0.000146617
-0.00035529
-0.000255984
-0.000276118
-0.000248163
-0.00022147
-0.000280704
-0.000245956
-0.00015726
-0.00021826
-0.000310948
-0.000213316
-0.000236086
-0.000225095
-0.000358361
-0.000161481
-0.00041421
-7.10673e-05
-0.000567921
-0.000641152
-0.000385674
-0.000210809
-0.000312855
-0.000219436
-0.000275582
-0.000293256
-0.000165208
-0.000358537
-6.59154e-05
-0.000379997
-4.13921e-05
-0.000185919
-3.1655e-05
-0.000312174
3.91846e-05
-0.000306035
8.24334e-05
-0.000401521
3.89454e-05
-0.000370721
3.12537e-05
-0.00056023
-0.000704486
-0.000371273
-0.0003398
-0.000249693
-0.000341031
-0.000250976
-0.000291974
-0.000151182
-0.00045833
1.34384e-05
-0.000544435
6.70559e-05
-0.000248387
9.2495e-05
-0.000338325
7.34724e-05
-0.000285426
9.15774e-05
-0.000419194
0.000117209
-0.00039635
5.18132e-05
-0.000494834
-0.000635703
-0.000277101
-0.000543733
-0.000127643
-0.000490488
-5.97388e-05
-0.000359878
-3.82423e-05
-0.000479827
-1.62998e-05
-0.000566217
3.884e-05
-0.000317147
9.70485e-05
-0.000404023
0.000127822
-0.000317174
0.000154468
-0.000445978
0.000100243
-0.000342082
6.6479e-05
-0.00046107
-0.000322063
-0.000220909
-0.000753249
-9.0119e-05
-0.000621278
1.75764e-05
-0.000467573
0.000130809
-0.00059306
0.000167036
-0.000602444
0.000231951
-0.000382061
0.000268078
-0.00044015
0.000242339
-0.000291435
0.000216718
-0.000420946
0.000157319
-0.000282765
7.18738e-05
-0.000375625
-0.000260156
-5.56297e-06
-0.000939631
8.15729e-05
-0.000708414
0.000154227
-0.000540227
0.000188595
-0.000627429
0.000172056
-0.000585905
0.000200029
-0.000410035
0.000223852
-0.000463972
0.000303878
-0.000371461
0.000353086
-0.000470154
0.000282741
-0.00021242
0.000216254
-0.000309138
-0.000133692
0.000198832
-0.00103205
0.000256293
-0.000765875
0.000346464
-0.000630399
0.000417087
-0.000698052
0.000379259
-0.000548077
0.000395295
-0.000426071
0.000436534
-0.000480204
0.000402495
-0.000224288
0.000346101
-0.000135888
0.000362815
-8.11385e-05
0.000234293
-0.000117468
1.3455e-05
0.000391857
-0.00103195
0.000410618
-0.000784635
0.000451266
-0.000671047
0.000442395
-0.000689181
0.000429683
-0.000535365
0.000429195
-0.000445369
0.000123837
-0.000120456
3.14665e-05
-1.09257e-05
2.11667e-05
-4.74796e-06
8.61303e-05
-5.87791e-06
3.23897e-05
-5.14843e-10
1.52281e-05
3.3382e-06
9.04798e-06
-1.08995e-05
2.43976e-06
3.9087e-06
2.06231e-06
3.04063e-06
1.90926e-07
2.97433e-06
1.90926e-07
2.21412e-15
7.45146e-06
3.12666e-05
1.05585e-05
0.000224452
-2.62714e-07
0.000209968
1.62104e-05
0.000157784
5.54873e-06
5.58518e-05
5.94453e-05
-0.000123547
-2.2962e-05
4.50915e-16
1.48965e-06
7.72205e-06
-1.52021e-06
3.34158e-06
1.52068e-06
2.99597e-06
1.16466e-06
2.9157e-06
2.21074e-06
1.23322e-06
1.68248e-06
1.97869e-05
2.38331e-06
4.61654e-05
8.61844e-05
2.52704e-05
6.36432e-05
4.61889e-05
0.000134418
4.91204e-05
5.34825e-05
3.23182e-05
-0.000165446
-3.8253e-06
-2.52202e-10
5.37849e-05
0.0002267
-0.000480034
2.5983e-15
5.53056e-05
6.19447e-07
5.45212e-07
3.36283e-06
5.73433e-07
2.59391e-06
7.41306e-06
6.50427e-07
-2.29031e-07
5.08256e-06
1.12008e-05
4.79141e-06
7.21734e-06
0.000119913
4.43325e-05
0.000174259
-1.45166e-06
4.44048e-06
-0.000115712
-2.44176e-15