/*--------------------------------*- C++ -*----------------------------------*\
| =========                 |                                                 |
| \\      /  F ield         | OpenFOAM: The Open Source CFD Toolbox           |
|  \\    /   O peration     | Version:  2.4.0                                 |
|   \\  /    A nd           | Web:      www.OpenFOAM.org                      |
|    \\/     M anipulation  |                                                 |
\*---------------------------------------------------------------------------*/
FoamFile
{
    version     2.0;
    format      ascii;
    class       volVectorField;
    location    "1.2";
    object      U;
}
// * * * * * * * * * * * * * * * * * * * * * * * * * * * * * * * * * * * * * //

dimensions      [0 1 -1 0 0 0 0];

internalField   nonuniform List<vector> 
3072
(
(-0.340668 0.638768 8.52899e-24)
(-0.41873 0.173492 3.85379e-23)
(-0.0284003 0.181035 1.30166e-23)
(-0.0490102 0.0620711 4.80096e-24)
(0.0329708 0.147038 -5.60153e-24)
(0.235112 -0.106411 -1.76609e-24)
(-0.174898 0.542847 6.54844e-23)
(0.0623504 0.270676 6.79865e-23)
(0.748285 0.333107 5.37131e-23)
(0.953182 0.533092 5.15579e-24)
(1.12715 0.686487 -4.12637e-23)
(1.31602 0.832879 -9.93745e-24)
(-0.786135 0.723193 -8.98455e-24)
(-0.379756 0.387726 7.24086e-24)
(-0.00533885 0.406953 2.16111e-23)
(-0.0386372 0.295554 -1.69415e-33)
(0.0687322 0.61517 -4.15948e-23)
(0.575723 0.532016 -5.80163e-23)
(1.13589 0.808483 0)
(1.13104 0.985776 2.01182e-23)
(1.51244 1.05583 7.85588e-24)
(1.30454 1.14593 0)
(1.56024 1.21465 1.98563e-23)
(1.38397 1.26272 -1.46212e-23)
(-0.942517 0.709563 0)
(-0.611581 0.886403 2.8045e-23)
(-0.00280437 0.576237 -9.91345e-24)
(0.425732 0.974252 4.90632e-24)
(1.08712 1.06533 -1.85736e-23)
(1.25964 1.08596 -4.93789e-23)
(1.34863 1.2275 -3.59225e-23)
(1.65396 1.38249 -1.32065e-23)
(1.71584 1.39033 -1.9628e-22)
(1.78985 1.40615 0)
(1.7945 1.4471 -1.37059e-22)
(1.75663 1.36807 -1.47286e-22)
(-0.847388 1.02049 0)
(-0.395414 1.13854 0)
(0.630512 1.36211 0)
(1.15294 1.36277 -5.90452e-23)
(1.33175 1.45794 -7.2517e-23)
(1.4843 1.52977 8.82727e-24)
(1.7607 1.68193 5.0703e-24)
(1.84086 1.61385 3.58373e-24)
(2.01574 1.75116 1.65721e-23)
(2.00699 1.72048 -2.62483e-23)
(2.01742 1.7847 8.31487e-23)
(1.92281 1.74968 4.46962e-23)
(-0.33839 1.22418 -5.43444e-24)
(0.452747 1.27576 1.7378e-23)
(0.916569 1.66 3.16756e-23)
(1.23971 1.6285 -2.20656e-23)
(1.26368 1.85167 4.13899e-24)
(1.83339 1.78865 -7.65324e-23)
(1.88574 1.76572 -7.30026e-23)
(2.02399 1.82424 -2.04255e-23)
(2.22622 1.92221 -1.40053e-23)
(2.07558 1.83994 -8.69892e-23)
(2.19376 2.02007 -1.27785e-22)
(1.88717 1.86346 0)
(-0.177681 1.26177 -3.12804e-24)
(0.276899 1.37089 -3.06912e-24)
(0.95348 1.64117 1.09857e-23)
(1.00457 1.47685 2.06598e-24)
(1.69683 1.65213 4.82254e-23)
(1.88781 1.55035 0)
(1.8696 1.86915 -1.86726e-23)
(2.18048 1.79216 7.80624e-23)
(2.16029 1.8179 2.93736e-23)
(2.09591 1.92191 6.29753e-23)
(2.10445 1.93704 7.60729e-24)
(1.78867 2.0242 1.16342e-22)
(0.151626 1.25174 -2.96849e-24)
(0.861004 1.2533 -1.76584e-23)
(1.27994 1.33382 0)
(1.78526 1.50245 0)
(1.75453 1.71425 0)
(1.55599 1.72812 3.82322e-24)
(1.91791 1.66487 1.13376e-22)
(2.1191 1.55028 7.98047e-23)
(1.99428 1.76927 -9.74175e-23)
(2.16423 1.75951 1.38743e-22)
(1.97312 1.97328 -3.29789e-22)
(1.6742 1.97926 -3.78644e-22)
(0.176653 1.18848 -3.63316e-24)
(0.603683 1.08279 -2.79778e-24)
(1.15462 1.39348 0)
(1.12043 1.27169 2.77634e-23)
(1.30705 1.33129 1.80362e-23)
(1.75935 1.02542 -5.888e-23)
(2.05015 1.24487 4.42534e-23)
(1.98103 1.46374 0)
(2.16407 1.59418 8.53508e-23)
(2.1819 1.76858 -4.30983e-24)
(2.08797 2.05613 -4.59711e-22)
(1.52907 2.09743 -4.6137e-22)
(-0.0379839 1.17733 -9.06369e-25)
(1.04635 1.1787 -6.54642e-24)
(1.4031 1.09434 -4.23217e-24)
(1.89481 0.95222 1.2563e-23)
(2.07093 1.22339 -2.8026e-23)
(1.85625 1.35468 -4.74196e-23)
(1.87378 1.54475 1.10583e-22)
(2.12903 1.48856 6.80881e-23)
(2.31288 1.69731 -6.02889e-23)
(2.04895 1.85994 4.17214e-23)
(2.01979 2.07741 0)
(1.05122 2.25009 -5.60695e-31)
(0.0124813 1.51501 3.06591e-24)
(0.670788 1.15099 8.54667e-24)
(1.14223 1.26657 0)
(1.22109 1.06864 1.90413e-32)
(1.25074 1.15164 1.97083e-23)
(1.67405 0.964751 3.23541e-23)
(2.30571 1.01207 -2.41641e-23)
(2.48363 1.1184 6.34443e-24)
(2.01671 1.41326 6.33397e-23)
(2.00908 1.28441 2.22205e-22)
(1.53277 1.8893 -1.27309e-22)
(0.601605 1.96783 1.80506e-22)
(-0.0127067 1.73213 5.03497e-24)
(1.07794 1.37366 1.04437e-23)
(1.30809 1.16471 -6.60522e-24)
(1.89846 0.800684 -4.37653e-24)
(2.16097 0.913694 -1.4098e-23)
(2.14364 0.938191 6.77833e-23)
(2.1881 1.05978 1.46671e-22)
(1.9947 1.25705 2.32142e-22)
(1.85104 1.16127 1.03615e-22)
(1.6013 1.12282 1.4047e-22)
(1.25472 1.4496 1.53803e-23)
(-0.0294343 1.75683 1.97367e-22)
(0.21651 2.67973 1.20575e-23)
(0.419536 1.13413 -5.41353e-24)
(0.879286 1.26627 0)
(1.12193 0.831678 -2.46729e-23)
(1.29517 0.824768 -6.17051e-23)
(1.69528 0.68584 -7.35214e-23)
(2.28924 0.831479 -1.23924e-22)
(2.24893 0.680273 2.09824e-23)
(1.65966 0.775921 8.86495e-23)
(1.40042 0.628123 7.3675e-23)
(0.897016 1.52967 5.27415e-24)
(-0.374355 1.67936 1.35904e-23)
(1.48007 0.924943 -3.7895e-23)
(1.55735 0.951596 2.24292e-22)
(1.59473 0.963204 2.50635e-22)
(1.51258 0.862094 2.61622e-22)
(1.4633 0.708754 3.64094e-22)
(1.38742 0.42063 1.46925e-22)
(1.53866 0.343886 -3.40307e-25)
(1.41416 0.296221 0)
(1.23704 0.619845 1.8395e-23)
(0.797518 0.285962 -7.28241e-24)
(0.868381 0.228503 -1.48602e-23)
(0.465344 -0.0529023 -3.18804e-24)
(1.60656 1.31181 -1.03069e-22)
(1.40103 1.23818 0)
(1.5623 1.31971 -1.21233e-22)
(1.31352 1.16371 -2.96109e-23)
(1.58372 1.19902 0)
(1.29602 0.800447 2.77608e-23)
(1.42653 0.687362 0)
(1.08421 0.674329 5.99207e-23)
(1.17107 0.836778 3.323e-23)
(1.09753 0.774276 -3.6278e-24)
(1.03103 0.66373 -3.31117e-25)
(0.671104 0.0860844 3.31128e-26)
(1.74257 1.39748 -3.25549e-23)
(1.64195 1.24517 -3.27708e-23)
(1.62392 1.25992 2.09269e-31)
(1.52302 1.13354 -1.37054e-22)
(1.4897 1.15118 -4.89398e-24)
(1.43717 1.03412 9.78672e-23)
(1.32724 0.768189 2.07718e-23)
(1.28028 0.652172 1.24157e-23)
(1.22027 0.696717 0)
(1.17168 0.632566 5.28122e-25)
(1.1719 0.925341 1.10375e-24)
(0.946686 0.320551 4.93786e-26)
(1.8456 1.73758 7.33073e-23)
(1.68047 1.62471 6.46978e-24)
(1.60223 1.50315 8.41623e-23)
(1.47645 1.3217 0)
(1.48113 1.13099 4.28035e-23)
(1.37429 1.02649 0)
(1.43941 1.0719 -1.6758e-23)
(1.21904 0.8489 1.30956e-23)
(1.32964 0.928812 -1.38368e-25)
(1.20092 0.838704 -3.61308e-25)
(1.16837 1.04234 0)
(1.12629 0.806593 -2.89879e-25)
(1.94263 1.96638 0)
(1.61484 1.75701 1.68863e-22)
(1.62847 1.64832 6.96677e-23)
(1.35886 1.41066 0)
(1.45295 1.37242 9.12086e-23)
(1.22254 1.05303 -3.02977e-23)
(1.14078 0.90747 -2.64299e-23)
(1.10159 0.773386 1.17218e-23)
(1.11222 0.835108 1.14362e-23)
(1.04965 0.736779 3.20592e-24)
(1.04743 1.10642 1.02204e-24)
(1.15862 1.06425 5.13577e-24)
(1.69462 1.91349 1.40334e-22)
(1.44366 1.87363 -5.70412e-23)
(1.30554 1.64518 4.08917e-24)
(1.20907 1.3591 0)
(1.24821 1.46429 1.11318e-23)
(1.18251 1.45968 2.83815e-23)
(1.04487 1.31577 0)
(0.730276 0.695925 0)
(0.95536 0.845089 7.73535e-24)
(0.976358 0.848142 0)
(0.94357 0.944888 -3.79644e-25)
(1.22702 1.09871 6.51248e-24)
(1.41072 1.88361 2.40547e-22)
(1.10392 1.88113 -7.9055e-23)
(0.975472 1.88875 -6.03604e-23)
(0.713322 1.25692 0)
(0.863944 1.03565 1.48854e-23)
(0.846242 1.28807 1.64623e-24)
(0.857357 1.81432 -2.7082e-23)
(0.745823 1.00652 0)
(0.612898 0.513308 6.4489e-24)
(0.894201 0.564246 7.0528e-25)
(0.925328 0.807245 8.78122e-24)
(1.16459 1.03309 3.82145e-24)
(1.20054 1.91512 -6.5133e-23)
(0.832835 1.79669 5.83836e-23)
(0.644371 1.97705 -6.19695e-25)
(0.584727 1.66455 3.88236e-23)
(0.515519 1.00443 -4.76143e-23)
(0.594041 0.794969 4.90147e-24)
(0.379473 1.20068 4.4386e-23)
(0.801057 1.25516 2.41942e-25)
(0.681896 0.687834 1.40891e-26)
(0.807098 0.482127 1.47986e-24)
(0.885378 0.62663 -1.38043e-23)
(1.21832 0.858145 3.00884e-24)
(0.801978 2.25076 0)
(0.411062 1.84779 0)
(0.314146 1.79572 -6.05914e-23)
(0.274877 1.6255 1.84367e-23)
(0.525454 1.19872 9.78749e-24)
(0.559767 1.02029 5.46856e-24)
(0.262393 1.18179 -2.40101e-23)
(0.588458 1.02468 -5.20099e-24)
(0.571296 0.725133 6.38741e-24)
(0.750349 0.34273 0)
(0.908171 0.363523 -8.90566e-24)
(1.1535 0.57502 4.45174e-32)
(0.290047 2.16838 -5.3656e-23)
(0.0161954 1.86579 0)
(0.00588582 1.78881 -1.95163e-31)
(0.0600238 1.53951 -4.92272e-23)
(0.362381 1.16135 5.47247e-23)
(0.343677 0.913019 3.05858e-24)
(0.244049 1.0992 3.79519e-23)
(0.496582 0.933003 -8.48075e-24)
(0.610761 0.644448 -1.46255e-23)
(0.830718 0.221694 -5.64507e-24)
(1.01413 0.260548 -2.50898e-24)
(1.2705 0.419626 1.84784e-24)
(0.0145681 1.95698 -2.89326e-23)
(-0.353412 1.78793 1.35155e-22)
(-0.19015 1.65966 9.593e-23)
(-0.0360414 1.43965 -2.86385e-24)
(0.304754 1.13468 -1.76013e-23)
(0.219896 0.970451 -5.15764e-23)
(0.0393869 0.969231 3.04331e-23)
(0.478107 0.743938 1.66225e-23)
(0.481369 0.564216 -9.01113e-24)
(0.779072 0.0699437 -2.28953e-24)
(0.800457 0.0341386 -6.18722e-25)
(1.14468 0.129734 -2.20052e-24)
(-0.444039 1.91643 -2.08104e-22)
(-0.536059 1.72126 -1.21974e-22)
(-0.324826 1.58876 -3.44795e-23)
(-0.0388585 1.3108 -2.03424e-31)
(0.163548 1.12453 -2.17573e-23)
(-0.0750934 0.962954 3.03368e-23)
(0.150339 0.894002 3.07339e-23)
(0.443232 0.607765 -1.72511e-23)
(0.350182 0.441414 0)
(0.809836 -0.00845852 2.22549e-23)
(0.53553 -0.160194 -1.95769e-23)
(1.40811 -0.338341 -9.90235e-24)
(0.614509 0.527717 -1.50831e-24)
(0.0294784 0.572694 4.38088e-23)
(0.0239253 0.397285 4.5593e-23)
(-0.122743 0.308622 1.25334e-23)
(-0.0498048 0.275228 -3.33927e-24)
(-0.0562799 0.267646 -1.76116e-24)
(0.251684 0.375645 -2.57315e-22)
(0.432912 0.292611 -3.70104e-22)
(-0.146176 -1.29673 6.28701e-22)
(0.646056 -1.80255 -1.31663e-23)
(0.819487 -1.49573 8.7247e-23)
(1.05959 -1.76243 1.02226e-23)
(0.69885 1.05435 -2.70087e-25)
(0.531722 0.730873 -4.25994e-23)
(0.472469 0.130017 3.89429e-25)
(0.627759 0.034803 3.60536e-24)
(0.85878 -0.689006 3.55854e-23)
(0.852979 -1.17572 -5.99252e-24)
(1.19427 -1.61477 5.15755e-24)
(1.55317 -1.9573 0)
(1.39059 -1.86491 6.28485e-23)
(1.55319 -1.51357 3.17021e-22)
(1.49142 -1.49698 2.45893e-22)
(1.59458 -1.46821 0)
(0.897863 0.885991 4.42539e-24)
(0.996162 0.441891 -7.8636e-24)
(1.08013 -0.291349 -2.04145e-23)
(1.26742 -0.901524 0)
(1.35194 -1.22157 6.43934e-23)
(1.43162 -1.58859 7.73035e-23)
(1.57127 -1.73569 -1.80601e-22)
(1.62272 -1.90592 -2.0433e-23)
(1.46979 -2.03941 -2.75949e-23)
(1.4002 -1.73047 -2.34804e-22)
(1.39512 -1.78433 0)
(1.29339 -1.60193 0)
(1.16313 0.470143 1.27986e-23)
(1.35658 0.021867 -3.31179e-23)
(1.61813 -0.630419 -1.36542e-23)
(1.41189 -1.11676 -2.82038e-23)
(1.76325 -1.45874 9.29326e-23)
(1.69071 -1.67994 -8.82781e-23)
(1.77975 -1.6919 -1.64906e-22)
(1.75475 -1.777 -5.79731e-23)
(1.72407 -1.70819 -9.28275e-23)
(1.63073 -1.59504 -1.17296e-22)
(1.65595 -1.50033 0)
(1.43866 -1.3836 0)
(1.49563 -0.00531999 1.85917e-24)
(1.32711 -0.512824 -4.61525e-24)
(1.57563 -0.978617 -4.26299e-23)
(1.65634 -1.24279 2.39577e-23)
(1.86131 -1.67052 2.9238e-23)
(1.70252 -1.78021 -7.23825e-23)
(1.84376 -1.85658 -1.10259e-22)
(1.77986 -1.81277 5.71694e-23)
(1.76065 -1.7552 -4.36079e-23)
(1.7651 -1.62413 0)
(1.59871 -1.47258 -1.73451e-22)
(1.48522 -1.41251 -7.77788e-23)
(1.09519 -0.426016 -6.00951e-25)
(1.19911 0.015267 0)
(1.41347 -0.635626 -1.80413e-23)
(1.43131 -1.49514 -3.86812e-23)
(1.65498 -1.75604 -5.49037e-23)
(1.65495 -1.76641 2.25126e-24)
(1.92243 -1.90051 1.99524e-23)
(1.82611 -1.83572 -1.23144e-23)
(2.03019 -1.68153 -4.49661e-23)
(1.91199 -1.53145 -4.73701e-24)
(1.87289 -1.30801 5.00603e-23)
(1.55577 -1.21718 -1.43241e-22)
(0.963014 -0.097881 -3.65512e-24)
(1.19999 -1.05644 0)
(1.51205 -1.8316 0)
(1.66784 -1.7964 -4.61711e-23)
(1.73729 -1.58134 1.80808e-32)
(1.77691 -1.79392 1.34474e-23)
(1.93087 -2.11287 -1.00434e-24)
(2.0061 -1.81599 -1.16334e-22)
(2.19671 -1.89234 1.56362e-22)
(2.08232 -1.46263 1.90899e-22)
(1.99261 -1.31968 -4.90025e-23)
(1.69857 -1.12792 -1.71272e-23)
(1.47114 -0.622434 -5.67951e-24)
(1.50866 -0.914973 -2.77333e-23)
(1.6592 -1.22426 -2.94902e-23)
(1.53231 -1.41935 -1.67104e-23)
(1.49868 -1.8007 2.62094e-23)
(1.52475 -2.22704 1.74337e-23)
(1.84854 -2.06115 -2.88977e-23)
(2.1027 -2.03156 -4.03137e-23)
(2.2607 -1.84264 0)
(2.33649 -1.45075 0)
(2.14091 -1.07925 1.69731e-22)
(1.78987 -1.03933 1.09141e-22)
(1.23567 -0.455155 -7.15893e-24)
(1.2751 -1.04727 -2.14101e-23)
(1.28489 -1.88468 1.98713e-23)
(1.32666 -2.04143 -3.95325e-23)
(1.47097 -2.0627 2.48232e-23)
(1.70188 -1.95981 1.02036e-23)
(1.97771 -2.12084 0)
(2.15884 -2.16768 -1.35736e-22)
(2.3846 -1.75227 -1.4777e-22)
(2.54138 -1.36717 -1.8116e-22)
(2.4206 -0.731542 -2.74647e-22)
(2.09287 -0.850075 -6.59944e-23)
(1.48605 -0.749427 -5.73146e-24)
(1.37512 -1.04192 -1.49311e-23)
(1.31146 -1.33598 3.06616e-32)
(1.28769 -1.48225 -5.62264e-23)
(1.38415 -1.83807 -2.40968e-23)
(1.3284 -2.34731 5.13203e-23)
(1.47299 -2.49712 -5.48082e-23)
(1.89887 -2.11159 -1.74878e-22)
(2.04814 -1.50999 -1.50676e-22)
(2.56575 -1.11948 2.15297e-22)
(2.39404 -0.420522 0)
(2.12918 -0.476298 4.84777e-23)
(1.19429 -0.5463 -7.32884e-24)
(1.1841 -1.11268 -2.14352e-23)
(1.07175 -1.90306 -1.90894e-23)
(1.09473 -2.02905 2.96505e-23)
(1.10018 -2.26954 2.23218e-23)
(1.16218 -2.3543 -6.37498e-23)
(1.57152 -2.13567 -3.31389e-23)
(1.68578 -1.49479 -4.61606e-23)
(1.78871 -1.46822 2.53169e-23)
(2.10307 -0.684792 3.69611e-22)
(2.37192 0.0122736 0)
(1.9758 -0.205173 2.9844e-23)
(1.66985 -0.420698 1.90832e-24)
(1.17901 -0.817609 3.51254e-25)
(0.976525 -1.27351 0)
(0.84505 -1.54885 -3.3297e-23)
(0.81528 -1.92009 -2.28299e-23)
(0.814503 -2.30893 0)
(0.8418 -2.2292 1.47137e-22)
(0.83864 -1.91556 1.91399e-22)
(1.15601 -1.07199 3.20379e-23)
(1.76936 -0.519721 -1.89669e-22)
(1.90525 0.35295 0)
(1.81211 0.166271 0)
(1.0153 -1.71145 2.07355e-23)
(1.12295 -1.85753 -6.22986e-23)
(0.973596 -1.82841 3.8766e-23)
(0.993314 -1.86941 4.25967e-23)
(0.810623 -1.74058 4.91712e-24)
(0.767456 -1.64845 -5.645e-23)
(0.682624 -1.50346 0)
(0.547498 -1.29917 0)
(0.620631 -1.19824 3.0267e-23)
(0.387248 -0.809522 2.18191e-23)
(0.38157 -0.820654 -2.60397e-33)
(0.0917895 -0.394626 -5.86577e-34)
(1.47206 -1.48708 -2.01373e-22)
(1.42024 -1.45296 5.44141e-23)
(1.36318 -1.48979 2.88176e-22)
(1.15203 -1.39615 1.7035e-22)
(1.20167 -1.47666 7.13317e-23)
(0.865788 -1.25722 0)
(0.95653 -1.33597 -1.15778e-22)
(0.650381 -1.14994 -6.18264e-23)
(0.856048 -1.26449 -1.54851e-23)
(0.765854 -1.08566 -1.31839e-23)
(0.73666 -1.05921 3.73195e-24)
(-0.228749 -0.624814 -2.79061e-24)
(1.38062 -1.68748 0)
(1.18701 -1.57518 -1.41249e-23)
(1.32695 -1.6517 -1.08732e-24)
(1.05931 -1.4623 0)
(1.22045 -1.50931 -8.58529e-23)
(0.948787 -1.22622 2.31006e-23)
(0.896179 -1.16616 9.1682e-32)
(0.724174 -1.14513 -1.26164e-23)
(0.737847 -1.09761 0)
(0.76641 -1.10249 0)
(0.991622 -1.13783 -8.51978e-24)
(0.446323 -1.1661 -1.48393e-24)
(1.46154 -1.36546 0)
(1.20077 -1.31627 -1.87916e-23)
(1.26203 -1.33208 0)
(1.04653 -1.32084 -1.30353e-22)
(1.17059 -1.29044 -6.46862e-23)
(1.19706 -1.19754 -3.76263e-23)
(0.95433 -0.939864 9.4975e-24)
(0.653793 -1.02043 -1.07038e-24)
(0.880864 -1.05467 1.23317e-23)
(0.741457 -1.07949 -9.57935e-25)
(0.843167 -0.893293 -4.86423e-24)
(0.872253 -1.1831 1.56242e-24)
(1.33289 -1.25763 4.17778e-23)
(1.24153 -1.31472 3.86047e-23)
(1.2478 -1.12709 0)
(0.996166 -1.16536 -2.19631e-24)
(1.16093 -1.13427 -3.35367e-23)
(1.36905 -1.01502 -7.51369e-23)
(1.5086 -0.930451 1.50537e-23)
(0.537881 -0.733993 5.76333e-24)
(0.493912 -0.757656 1.1786e-23)
(0.818218 -0.963631 5.07398e-24)
(0.912534 -1.03657 -4.60947e-24)
(0.863531 -1.08808 1.56377e-24)
(1.66292 -1.09427 0)
(1.07198 -1.00246 1.11994e-22)
(1.31152 -0.925528 7.72872e-23)
(0.935632 -0.897298 0)
(0.979157 -0.968488 0)
(1.25434 -0.929245 -8.83563e-24)
(1.65472 -0.763512 0)
(1.0629 -0.81636 0)
(0.585629 -0.643685 0)
(0.395252 -0.790259 -2.1777e-25)
(0.578661 -0.788 -2.42322e-24)
(0.853815 -1.13096 4.2776e-24)
(1.84135 -1.039 0)
(1.52929 -0.999201 6.06241e-23)
(1.29967 -0.749112 1.55834e-23)
(0.988901 -0.893788 0)
(0.785791 -0.838071 -2.26344e-25)
(0.999883 -0.829747 2.68321e-23)
(1.40916 -0.555084 -1.86228e-23)
(1.18004 -0.844486 -2.43378e-24)
(0.622024 -0.704876 0)
(0.451452 -0.917507 0)
(0.576165 -0.967015 1.12613e-23)
(0.683558 -1.19049 3.77369e-24)
(1.7008 -0.793932 0)
(1.73552 -0.909945 6.02218e-23)
(1.56646 -0.65149 4.56566e-23)
(1.08653 -0.895092 -1.01597e-23)
(0.949068 -0.848536 -7.34972e-24)
(1.12346 -0.757744 -8.62929e-24)
(1.52934 -0.525719 -1.46559e-23)
(1.10739 -0.751345 -9.21353e-24)
(0.683845 -0.832802 8.85586e-25)
(0.304171 -0.938751 1.79264e-24)
(0.304805 -0.988767 1.09543e-24)
(0.640628 -1.20543 -2.29177e-24)
(1.72823 -0.60077 1.35411e-23)
(1.59439 -0.673336 5.07907e-23)
(1.60426 -0.45966 4.04802e-23)
(1.1458 -0.630691 -9.47727e-24)
(0.872566 -0.670593 4.37896e-24)
(1.03938 -0.626556 -2.24131e-23)
(1.40206 -0.426058 -2.81024e-24)
(1.14674 -0.68626 -7.58762e-25)
(0.757473 -0.785078 -1.16898e-23)
(0.269797 -0.983398 2.94576e-24)
(0.305924 -1.13466 -6.6885e-25)
(0.481619 -1.29537 -2.47112e-24)
(1.8328 -0.412381 2.1507e-23)
(1.63735 -0.498132 -1.09442e-23)
(1.59305 -0.282439 3.39057e-24)
(1.13528 -0.615236 2.42573e-24)
(0.903736 -0.676252 -1.27861e-23)
(1.03787 -0.499271 2.01493e-23)
(1.18972 -0.215764 2.35668e-23)
(0.868261 -0.712688 6.5764e-24)
(0.523358 -0.867637 -3.82835e-34)
(0.114812 -1.08563 -1.11626e-23)
(0.101483 -1.11576 3.66313e-27)
(0.416487 -1.27799 -2.79893e-25)
(1.7157 -0.196479 0)
(1.53356 -0.245622 3.83759e-23)
(1.53057 -0.123669 9.58003e-24)
(1.08548 -0.409738 1.92263e-23)
(0.870812 -0.414157 8.65657e-24)
(0.965973 -0.245791 6.71618e-23)
(1.12096 -0.163971 -4.31635e-24)
(0.813542 -0.775125 -2.24324e-23)
(0.55368 -0.762313 1.80209e-24)
(0.103916 -1.04398 -7.84765e-24)
(0.0646315 -0.931521 5.41646e-25)
(0.160648 -1.21799 7.25101e-25)
(1.68951 -0.0262013 0)
(1.48627 -0.0646847 -6.46982e-23)
(1.44201 0.0563931 0)
(1.05319 -0.26986 0)
(0.861076 -0.233164 3.48424e-23)
(0.948723 0.0835687 -2.13916e-23)
(0.79164 -0.0711191 9.33181e-24)
(0.456301 -0.656862 0)
(0.360926 -0.502079 0)
(0.0139945 -1.01484 -9.51174e-24)
(-0.0860131 -0.753585 -1.06941e-23)
(-0.186491 -1.5055 -9.85432e-26)
(0.794505 -0.683992 -2.51497e-23)
(0.593392 0.159519 2.58638e-23)
(0.360572 -0.0421226 1.17789e-22)
(0.34818 0.354007 6.6991e-23)
(0.228813 0.196998 5.56331e-24)
(0.262546 0.21533 0)
(0.516782 -0.340773 -3.5064e-23)
(0.442177 -0.42048 2.93466e-31)
(-1.30823 0.0809715 4.03573e-22)
(-1.69052 -0.776495 -1.0724e-23)
(-1.52315 -0.926064 2.86003e-22)
(-1.814 -1.13527 0)
(1.2488 -0.799816 -2.51496e-23)
(0.882985 -0.290818 -2.48038e-23)
(0.704188 -0.471404 -3.52353e-23)
(0.352058 -0.599218 -1.46476e-23)
(-0.71233 -0.712943 0)
(-1.33688 -0.686433 3.34498e-23)
(-1.87158 -1.12943 -2.47243e-22)
(-2.14648 -1.56388 1.06181e-22)
(-2.03668 -1.35679 -5.25545e-23)
(-1.51354 -1.47435 0)
(-1.58938 -1.45889 1.45734e-23)
(-1.42991 -1.53392 0)
(0.935394 -1.0506 -7.98477e-24)
(0.0533536 -1.18267 4.37967e-24)
(-0.770058 -1.36373 -4.50323e-23)
(-1.12238 -1.71853 7.39595e-23)
(-1.57178 -1.57301 -7.94742e-23)
(-1.79237 -1.52354 1.19444e-32)
(-1.84531 -1.56333 0)
(-1.93355 -1.54861 1.23055e-22)
(-1.83493 -1.39685 -6.38044e-23)
(-1.56533 -1.30032 -8.87979e-24)
(-1.5699 -1.29581 -2.17741e-23)
(-1.40826 -1.1522 -2.00006e-23)
(0.383007 -1.27876 4.85161e-24)
(0.061514 -1.58845 -4.73189e-23)
(-0.592588 -1.69853 -5.59126e-23)
(-0.903032 -1.64448 3.50682e-23)
(-1.44012 -1.72626 -1.17384e-23)
(-1.63088 -1.65123 -1.90648e-23)
(-1.63317 -1.54521 3.49993e-23)
(-1.68985 -1.57725 -9.60694e-24)
(-1.5218 -1.49753 -5.52159e-23)
(-1.44734 -1.49868 7.45824e-23)
(-1.36326 -1.45261 -2.58229e-23)
(-1.2336 -1.33893 -1.15468e-22)
(-0.107554 -1.17751 -5.61055e-24)
(-0.681602 -1.44709 1.84224e-24)
(-0.833143 -1.52198 -4.15093e-23)
(-0.805881 -1.54615 6.45111e-23)
(-1.49137 -1.60278 1.15896e-22)
(-1.69115 -1.59548 -2.42657e-23)
(-1.81494 -1.7263 0)
(-1.81254 -1.83962 3.11256e-23)
(-1.69289 -1.82628 6.67599e-23)
(-1.73923 -1.89795 3.80872e-22)
(-1.41137 -1.68619 2.07715e-22)
(-1.43442 -1.52471 0)
(-0.500975 -1.10816 5.88378e-25)
(-0.36081 -1.26725 3.24748e-24)
(-0.490287 -1.43963 1.22419e-23)
(-1.24504 -1.50509 -1.1533e-22)
(-1.71327 -1.61076 -7.8457e-23)
(-1.84066 -1.79643 -2.44355e-23)
(-2.02008 -2.06861 7.10251e-23)
(-1.94633 -2.13055 1.53521e-22)
(-1.84835 -2.27114 -2.35547e-22)
(-1.76741 -2.24866 -4.07031e-22)
(-1.42896 -2.14851 0)
(-1.42088 -1.84585 0)
(-0.300237 -1.09637 0)
(-0.903881 -1.11451 -2.46346e-24)
(-1.58577 -1.29136 1.85689e-23)
(-1.56494 -1.60539 -2.84597e-23)
(-1.66194 -1.67538 -6.62653e-23)
(-1.98368 -1.82672 1.66549e-23)
(-2.26234 -1.99602 4.03853e-23)
(-2.05455 -2.19597 6.17513e-24)
(-1.9826 -2.33248 0)
(-1.73218 -2.3467 -2.07404e-22)
(-1.32755 -2.25362 -3.86413e-22)
(-1.33875 -1.84306 -1.94644e-22)
(-0.709951 -1.30284 0)
(-0.881944 -1.31255 -2.12397e-23)
(-0.931627 -1.39958 0)
(-1.35339 -1.51421 3.70626e-23)
(-1.98954 -1.49954 -3.15227e-23)
(-2.39121 -1.70431 -1.52633e-23)
(-2.2968 -2.12304 -6.65839e-23)
(-2.20554 -2.40369 9.37716e-23)
(-1.91711 -2.49435 0)
(-1.67114 -2.62777 1.52301e-22)
(-1.1005 -2.53966 8.00253e-31)
(-1.15933 -2.06881 0)
(-0.363694 -1.16994 -3.43126e-24)
(-1.02279 -1.17425 -1.00094e-23)
(-1.8143 -1.19465 1.8347e-25)
(-2.10386 -1.40906 2.24644e-32)
(-2.27276 -1.56768 2.60496e-23)
(-2.22608 -1.86722 -1.12615e-22)
(-2.39795 -2.05514 -1.02274e-22)
(-2.13567 -2.17302 -3.61616e-23)
(-1.75784 -2.31529 0)
(-1.5476 -2.56668 -1.33824e-22)
(-0.801438 -2.58903 -5.38701e-22)
(-0.937193 -2.34695 9.87836e-23)
(-0.592639 -1.41121 -8.5035e-24)
(-0.930128 -1.33474 -1.83972e-23)
(-1.35026 -1.20778 -2.40248e-23)
(-1.7031 -1.31574 -2.08961e-23)
(-2.21203 -1.37113 -4.29116e-32)
(-2.63809 -1.44538 -8.95967e-24)
(-2.48186 -1.61566 -2.73771e-22)
(-1.92614 -1.93106 2.52505e-32)
(-1.49838 -2.01161 0)
(-1.30104 -2.40995 -2.3855e-22)
(-0.446855 -2.41088 -3.14741e-22)
(-0.558554 -2.30864 4.12253e-31)
(-0.422991 -1.25821 4.6487e-24)
(-1.07578 -1.24096 -1.96538e-23)
(-1.92085 -1.08783 -2.54151e-23)
(-2.29937 -1.16475 0)
(-2.56059 -1.17394 -5.85559e-25)
(-2.38966 -1.36421 -8.5821e-23)
(-2.0556 -1.5073 -8.68944e-24)
(-1.57061 -1.48931 7.91049e-23)
(-1.27232 -1.33865 2.44853e-23)
(-1.03539 -2.00501 -2.56662e-23)
(0.0353456 -2.27556 0)
(-0.221022 -2.07097 -1.99232e-23)
(-0.280686 -1.51736 1.09358e-23)
(-0.714701 -1.29612 5.66548e-24)
(-1.367 -0.997125 -3.28635e-23)
(-1.88984 -0.940242 9.27051e-24)
(-2.24709 -0.874175 3.98656e-24)
(-2.50696 -0.871635 8.01663e-23)
(-2.13604 -0.808646 -2.91254e-23)
(-1.52475 -1.21168 1.22775e-22)
(-0.946059 -1.05034 4.21386e-23)
(-0.921028 -1.67306 6.56288e-23)
(0.49683 -1.9255 0)
(0.20685 -1.82539 4.47245e-23)
(-1.85496 -1.08311 2.61835e-23)
(-2.03128 -1.18205 8.16446e-23)
(-1.98057 -1.07506 8.50571e-24)
(-2.042 -1.08356 -9.59523e-23)
(-1.88781 -0.953538 1.73208e-22)
(-1.78606 -0.836633 7.46951e-23)
(-1.57599 -0.764992 1.70446e-23)
(-1.3049 -0.576491 -1.67724e-23)
(-1.06712 -0.567355 2.95121e-23)
(-0.947468 -0.517624 2.41773e-23)
(-0.635293 -0.30302 2.94947e-24)
(-0.619533 0.0644847 -1.32701e-24)
(-1.50431 -1.45691 0)
(-1.42365 -1.3587 -4.46211e-23)
(-1.46012 -1.3582 -7.08601e-23)
(-1.4428 -1.13267 4.39705e-23)
(-1.47032 -1.16116 0)
(-1.47769 -0.968269 1.10735e-23)
(-1.36191 -0.974401 0)
(-1.35645 -0.961296 -1.99957e-24)
(-1.00848 -0.648862 1.35116e-23)
(-1.18295 -0.675449 6.27871e-24)
(-0.911812 -0.556287 3.65816e-24)
(-0.889693 0.0194959 -9.8872e-25)
(-1.47775 -1.21097 0)
(-1.44086 -1.04648 0)
(-1.5082 -1.11701 3.885e-23)
(-1.45384 -1.0341 1.61549e-23)
(-1.45597 -1.032 -1.65887e-24)
(-1.41115 -1.03797 7.19088e-23)
(-1.30688 -0.955694 -4.07184e-23)
(-1.28387 -1.1873 -1.87143e-23)
(-1.13849 -1.07682 0)
(-1.02698 -0.770201 2.83728e-24)
(-0.963883 -0.782408 2.20574e-24)
(-1.06534 -0.543619 -7.55645e-25)
(-1.23894 -1.24825 0)
(-1.21886 -1.08529 0)
(-1.29932 -1.06885 2.10764e-23)
(-1.27338 -0.98991 7.41569e-24)
(-1.37975 -0.981861 -1.5412e-24)
(-1.30204 -1.0103 5.61584e-23)
(-1.28915 -0.959576 1.76939e-23)
(-1.20859 -1.07274 -2.93644e-23)
(-1.13878 -1.17063 4.18194e-24)
(-1.15947 -0.960382 -2.02476e-24)
(-0.943971 -0.747931 3.60543e-24)
(-0.964138 -0.528874 -7.76684e-25)
(-1.17265 -1.32135 -3.08234e-23)
(-1.2946 -1.04863 -4.20981e-23)
(-1.28936 -1.08895 0)
(-1.08522 -0.773704 4.28954e-23)
(-1.32368 -0.932871 -2.33815e-23)
(-1.28111 -1.15708 -4.14757e-24)
(-1.24834 -1.08721 1.8469e-23)
(-1.13385 -1.1827 -8.24271e-24)
(-1.15162 -1.20765 1.03314e-23)
(-1.07874 -1.04808 8.26649e-24)
(-1.14099 -0.96763 3.70778e-24)
(-1.0919 -0.718251 6.30971e-24)
(-1.15805 -1.7872 1.6654e-24)
(-1.24219 -1.22671 -3.75765e-23)
(-1.23825 -1.40264 -2.20056e-24)
(-0.890535 -1.02292 -1.19113e-23)
(-1.06188 -0.360096 -4.4666e-23)
(-1.11094 -0.867247 -2.52177e-23)
(-1.13099 -1.08198 1.21521e-24)
(-1.04429 -1.11284 8.60254e-24)
(-1.12538 -1.22488 1.01167e-23)
(-1.12873 -1.08945 1.16247e-23)
(-1.05212 -0.942632 0)
(-1.02987 -0.750587 -8.48164e-32)
(-1.00231 -1.93361 1.50231e-22)
(-1.21482 -1.2395 1.14224e-23)
(-1.10351 -1.40951 -4.78245e-24)
(-0.925509 -1.59695 -2.28091e-24)
(-0.940526 -0.498217 7.37958e-24)
(-0.891938 -0.528352 -1.28769e-23)
(-0.967684 -0.886984 -2.08717e-23)
(-0.950952 -1.05073 -4.14163e-33)
(-1.04892 -1.1491 3.64669e-23)
(-1.0623 -1.04683 0)
(-1.24692 -1.10103 0)
(-1.12571 -0.798296 -5.73358e-24)
(-0.753469 -2.02086 -8.01478e-23)
(-1.15409 -1.52264 -1.75121e-23)
(-0.952845 -1.29488 0)
(-0.744557 -1.67194 0)
(-0.872725 -0.887441 1.29038e-23)
(-0.750679 -0.501074 2.82525e-23)
(-0.832315 -0.75022 3.83152e-25)
(-0.715413 -0.852225 -1.81157e-23)
(-0.904675 -1.00626 3.62935e-23)
(-1.0561 -0.924445 1.30147e-23)
(-1.12855 -0.952298 2.15663e-23)
(-1.21603 -0.837372 7.94056e-24)
(-0.513525 -2.0096 7.20755e-23)
(-0.87243 -1.60278 1.00451e-22)
(-0.805488 -1.25136 3.79306e-24)
(-0.580091 -1.76917 1.94739e-23)
(-0.630955 -1.11808 -1.84483e-23)
(-0.672298 -0.505961 0)
(-0.645601 -0.647454 1.2605e-23)
(-0.592011 -0.72175 -1.1056e-23)
(-0.788085 -0.791562 1.76091e-23)
(-0.893279 -0.790483 1.28613e-23)
(-1.04872 -0.864348 2.12033e-23)
(-1.2225 -0.614622 7.0012e-24)
(-0.351067 -2.06579 -1.16439e-22)
(-0.682089 -1.64922 0)
(-0.617395 -1.23301 -2.99689e-23)
(-0.299114 -1.58587 -9.32303e-23)
(-0.391207 -1.22466 -3.25235e-23)
(-0.559445 -0.57029 8.75648e-24)
(-0.469115 -0.641239 4.68776e-24)
(-0.353523 -0.602279 -1.5507e-23)
(-0.546727 -0.571807 -2.26565e-23)
(-0.700115 -0.601755 1.49808e-23)
(-0.876431 -0.59325 1.09977e-23)
(-1.30284 -0.597485 -2.82817e-25)
(-0.0896465 -1.89554 -5.09696e-23)
(-0.262775 -1.57179 0)
(-0.437917 -1.25287 -7.60106e-23)
(0.0626038 -1.48114 -1.14423e-22)
(-0.117116 -1.16301 3.94725e-23)
(-0.51047 -0.543915 1.55297e-23)
(-0.0184416 -0.660528 2.06904e-23)
(-0.132493 -0.458809 1.5612e-23)
(-0.325562 -0.512626 3.85881e-23)
(-0.281128 -0.329236 8.05556e-24)
(-0.90478 -0.42516 2.25142e-23)
(-0.899303 -0.0443734 2.65638e-24)
(0.106502 -1.81813 -7.22486e-23)
(-0.0431112 -1.46546 0)
(-0.113072 -1.1614 -2.37924e-23)
(0.461912 -1.29404 2.65667e-22)
(0.0818045 -0.909965 1.79678e-22)
(-0.15107 -0.555099 4.71136e-23)
(0.573371 -0.455121 0)
(-0.196826 -0.353197 6.30282e-23)
(0.348907 -0.213146 -3.10326e-23)
(-0.375861 -0.222004 0)
(-0.303613 -0.00660112 -1.46e-23)
(-1.20252 0.270157 -3.29191e-24)
(-0.412293 -0.49797 8.34206e-24)
(-0.159991 -0.329893 4.98249e-23)
(0.127612 -0.303114 3.84558e-23)
(0.0729756 0.00918177 -6.1861e-24)
(0.0461738 0.0680231 5.83242e-24)
(-0.359443 0.30548 -1.8201e-24)
(0.00342088 0.525825 -3.405e-23)
(-0.753126 0.181275 -6.96261e-23)
(-0.208274 0.633768 1.93655e-24)
(-0.598104 1.95213 7.02104e-23)
(-1.02945 1.25011 -3.48011e-23)
(-1.04133 2.20394 2.95734e-23)
(-0.613707 -1.17023 7.08335e-24)
(-0.332715 -0.836228 1.8755e-23)
(-0.221529 -0.356162 6.41893e-23)
(-0.228537 0.544506 -5.0591e-23)
(-0.116218 0.985389 -8.55423e-23)
(-0.814361 0.613038 0)
(-0.798546 0.593606 1.77106e-23)
(-1.28508 1.57324 0)
(-1.38155 1.78648 -2.81875e-24)
(-1.3903 1.61989 1.02939e-22)
(-1.52634 1.65766 0)
(-1.39485 1.73895 5.46231e-23)
(-0.587874 -1.54682 3.45054e-24)
(-0.520576 -0.84063 -9.158e-24)
(-0.394672 -0.153952 1.94002e-23)
(-0.733194 0.399619 0)
(-0.398201 0.738852 1.315e-23)
(-0.780097 1.22054 1.03664e-23)
(-0.917649 1.77641 -1.78355e-22)
(-1.52646 2.31858 -4.93204e-24)
(-1.4281 1.96398 2.91218e-22)
(-1.52545 2.02573 2.92608e-31)
(-1.4 1.87323 3.0948e-23)
(-1.28873 1.86442 1.20372e-23)
(-1.00827 -1.53667 -3.2311e-23)
(-1.14907 -0.471125 2.42029e-23)
(-1.14024 0.541074 -1.63976e-23)
(-1.52646 1.446 5.27621e-23)
(-1.61122 1.98416 4.46979e-23)
(-1.78685 2.3104 2.8566e-23)
(-2.11201 2.75182 0)
(-2.104 2.22706 -1.48087e-22)
(-2.15864 2.14087 0)
(-2.01426 2.01213 -3.11808e-23)
(-1.99309 1.77427 8.40273e-23)
(-1.65972 1.7893 9.26886e-23)
(-1.34644 -1.10878 -4.22682e-23)
(-1.61924 0.0984887 2.65877e-23)
(-1.94616 1.31481 -2.65296e-23)
(-2.37951 2.03155 1.39103e-22)
(-2.1589 2.32979 -8.41061e-23)
(-2.26389 2.7821 1.26309e-22)
(-2.00168 2.50681 2.66652e-22)
(-1.81525 2.02329 1.87638e-22)
(-1.71948 1.88251 0)
(-1.60777 1.70993 -1.54604e-22)
(-1.62925 1.53934 -1.3863e-22)
(-1.5535 1.43304 0)
(-1.46636 -0.102864 2.60524e-23)
(-2.00258 0.417005 3.33721e-23)
(-2.24052 1.50123 0)
(-2.23682 1.80101 -1.54267e-22)
(-1.98753 1.98765 0)
(-1.94137 2.25272 0)
(-1.78725 1.9677 -1.44983e-23)
(-1.79669 1.80787 1.43734e-23)
(-1.78728 1.67544 0)
(-1.71306 1.55904 -1.79922e-22)
(-1.67491 1.34029 -1.69608e-22)
(-1.40985 1.21723 4.15832e-23)
(-1.05381 0.104333 9.59812e-24)
(-1.96363 1.2887 -2.73771e-23)
(-2.04363 1.71846 -5.8296e-23)
(-2.13453 1.42736 -4.68564e-23)
(-1.85827 1.64787 0)
(-1.85723 1.99619 -4.32101e-23)
(-1.78216 1.86072 -9.79039e-23)
(-1.95259 1.87834 -8.42725e-23)
(-2.01286 1.79762 0)
(-2.04616 1.60892 3.97743e-23)
(-2.02989 1.36157 -2.26979e-23)
(-1.70521 1.12156 -5.99084e-23)
(-1.8127 0.6827 -9.79763e-24)
(-1.56323 1.12504 7.94045e-24)
(-1.75233 1.25359 4.26112e-23)
(-1.67812 1.35749 -2.74088e-23)
(-1.61201 1.8443 2.65572e-24)
(-1.60569 2.09975 4.58558e-23)
(-1.71043 1.96755 1.65478e-22)
(-2.0225 1.98606 9.96143e-23)
(-2.22399 1.87721 -5.98842e-23)