/*--------------------------------*- C++ -*----------------------------------*\
| =========                 |                                                 |
| \\      /  F ield         | OpenFOAM: The Open Source CFD Toolbox           |
|  \\    /   O peration     | Version:  v1606+                                |
|   \\  /    A nd           | Web:      www.OpenFOAM.com                      |
|    \\/     M anipulation  |                                                 |
\*---------------------------------------------------------------------------*/
FoamFile
{
    version     2.0;
    format      ascii;
    class       volScalarField;
    location    "0.2";
    object      ddt0(k);
}
// * * * * * * * * * * * * * * * * * * * * * * * * * * * * * * * * * * * * * //

dimensions      [0 2 -3 0 0 0 0];

internalField   nonuniform List<scalar> 
11640
(
-0.153033834249
-0.152227529542
-0.151932885973
-0.15186807524
-0.151999084738
-0.152290309409
-0.152469799524
-0.1524542857
-0.152367558749
-0.152289733461
-0.152219343543
-0.152154173162
-0.152092095393
-0.152011357484
-0.151894676492
-0.151790582661
-0.151755214323
-0.151808925895
-0.152102556781
-0.152999061817
-0.152226138828
-0.145476178391
-0.142466747466
-0.142404734621
-0.143416021409
-0.144279875162
-0.144541903893
-0.144281188806
-0.143851827427
-0.14343309722
-0.143022294623
-0.142616202206
-0.142211265663
-0.141844798816
-0.141609006248
-0.141527499228
-0.141544988985
-0.142225239679
-0.145410169465
-0.152152081425
-0.151941350545
-0.142482819781
-0.138472189138
-0.139122341598
-0.14087843724
-0.14196963502
-0.141941634343
-0.141082287939
-0.139963685032
-0.138856761394
-0.137760909548
-0.136670923836
-0.135483255595
-0.134284474008
-0.133737465339
-0.134131860686
-0.135181952221
-0.137060732275
-0.142247495108
-0.151783277724
-0.151892143983
-0.142372285401
-0.139108244566
-0.1406578205
-0.142846327267
-0.143790440841
-0.143206598388
-0.141614200976
-0.139689891274
-0.137773034415
-0.13586925776
-0.133714368147
-0.131299487033
-0.129112253301
-0.127979115234
-0.128461349388
-0.13062527337
-0.134537494954
-0.141224059387
-0.151613081923
-0.152060757168
-0.143278514469
-0.141091189164
-0.143309610501
-0.145601434827
-0.146176280887
-0.145076108676
-0.143049258116
-0.140487992414
-0.137862713864
-0.135240977681
-0.131908636986
-0.128465131409
-0.125069347596
-0.123146021194
-0.123462380494
-0.126190252169
-0.13158424582
-0.14029487013
-0.151446534519
-0.152277676225
-0.144187834427
-0.142720959524
-0.145268036158
-0.147484983384
-0.147838470004
-0.146955234349
-0.145585902569
-0.142893814703
-0.139873243773
-0.136488705564
-0.132577231647
-0.128259654236
-0.122888774939
-0.119519549301
-0.119301721436
-0.122247851535
-0.128560880984
-0.139077554721
-0.15110318985
-0.152365944184
-0.144563617019
-0.143327779547
-0.145936703351
-0.148205089735
-0.149189143674
-0.150194106043
-0.150631080889
-0.148286681813
-0.145187011931
-0.141161139637
-0.137269526002
-0.132414798614
-0.124301843494
-0.118148509308
-0.116707796749
-0.119529767521
-0.126334287134
-0.137747288496
-0.1507323348
-0.152352472976
-0.144567973987
-0.143333462147
-0.145968586462
-0.148579363605
-0.150966654811
-0.154311376497
-0.155146780603
-0.152979913066
-0.150079654046
-0.146746644469
-0.143082023961
-0.138139194387
-0.128142912578
-0.119048030196
-0.115996293961
-0.118446698184
-0.125363575848
-0.137085562887
-0.150499763539
-0.152333992834
-0.144554904833
-0.143331014804
-0.145993825962
-0.14873396549
-0.151526500929
-0.155388995548
-0.156189070771
-0.154015122712
-0.151083304949
-0.14780923678
-0.144150142253
-0.139054784887
-0.128811793056
-0.119209337641
-0.115792185852
-0.118115627768
-0.125013579586
-0.136780565273
-0.150365804517
-0.152315357063
-0.144539927519
-0.14332120773
-0.145986004191
-0.148735557687
-0.151558400059
-0.155448431695
-0.156188511581
-0.153989045995
-0.151030466978
-0.147768547978
-0.144049352521
-0.138800540125
-0.12839573354
-0.118817090043
-0.115379689861
-0.117669149354
-0.124561374149
-0.136386916258
-0.150234300624
-0.152296853056
-0.144522853895
-0.143303108569
-0.145943227491
-0.148583213485
-0.151082639208
-0.154585360508
-0.155300493256
-0.153028328148
-0.150017275418
-0.146750140735
-0.142801811167
-0.137296133426
-0.126955109436
-0.11788565457
-0.114764450593
-0.117102818197
-0.124000488176
-0.135898386148
-0.149982522156
-0.152183022939
-0.144150047509
-0.142656827032
-0.145052101681
-0.147258997629
-0.14846283535
-0.149938864282
-0.150706721084
-0.148189325394
-0.144814366382
-0.141321388818
-0.137191758453
-0.131244272199
-0.122289847143
-0.115629050553
-0.113780000599
-0.116425159162
-0.123374120191
-0.135351925365
-0.149680958505
-0.151934133177
-0.143208289345
-0.14095035612
-0.142813681999
-0.144643536194
-0.145019140206
-0.144427286105
-0.143228830974
-0.140374835854
-0.137137542709
-0.133790647194
-0.129427644308
-0.124306547289
-0.118305657938
-0.114292715166
-0.113625534051
-0.116571747612
-0.123457490638
-0.135218751965
-0.149499447737
-0.151715800319
-0.14212370416
-0.138687117727
-0.139745710361
-0.141193916853
-0.141338590643
-0.140119329744
-0.138048479306
-0.135361289656
-0.13255279717
-0.129680317317
-0.125685948902
-0.121539759352
-0.117519572178
-0.115074469406
-0.11519523816
-0.118258657974
-0.124708496846
-0.135657193251
-0.149460733641
-0.151682530716
-0.141428788583
-0.136626794658
-0.136615257046
-0.137537198902
-0.137626116497
-0.136598405029
-0.134818511112
-0.132741941187
-0.130627102208
-0.128259825984
-0.125123736098
-0.121935420475
-0.119083514634
-0.117563170735
-0.118127181055
-0.120978510644
-0.126524525359
-0.136129207297
-0.14938234269
-0.151686291876
-0.141275701298
-0.1355964699
-0.134374752781
-0.134604457448
-0.134580251162
-0.133908896067
-0.132763737967
-0.1314519466
-0.13010613658
-0.128315911061
-0.126130386411
-0.123885464967
-0.121935952069
-0.121040469227
-0.121694502261
-0.123900718612
-0.128064716559
-0.136154917384
-0.149162523352
-0.151703185572
-0.141393579388
-0.135713087873
-0.133952599418
-0.133469727961
-0.133192367946
-0.132764892392
-0.13217472284
-0.131515916457
-0.130812971169
-0.129503283
-0.128107685242
-0.126640012727
-0.125365917229
-0.124789280402
-0.125137505365
-0.126277384505
-0.128814838633
-0.135853156017
-0.149010042089
-0.151767909141
-0.142182677256
-0.137137275767
-0.135664480008
-0.135252153531
-0.134956819166
-0.134652352546
-0.134364514603
-0.134072736978
-0.13352785666
-0.132678435524
-0.131738697204
-0.130727310395
-0.129796954152
-0.129177387786
-0.128871689387
-0.128828921406
-0.130309733857
-0.136511105434
-0.14901422888
-0.152076290174
-0.14541064757
-0.142256801424
-0.141394981444
-0.141148437528
-0.140990987621
-0.140838936047
-0.14068236329
-0.140513707603
-0.140068191029
-0.139437714553
-0.138733548126
-0.137981514923
-0.137230227622
-0.136548029276
-0.136000066183
-0.135744324023
-0.136547942832
-0.140537928649
-0.149398401912
-0.152992882361
-0.152136717352
-0.151757362577
-0.151577006708
-0.151429524067
-0.151283424137
-0.151136629965
-0.150992264244
-0.150853629432
-0.15064109184
-0.150320342724
-0.149996053906
-0.149683801478
-0.149400820364
-0.149179134624
-0.149033375566
-0.148972236556
-0.149035255326
-0.149427875392
-0.150528975659
-0.164477479353
-0.160500833424
-0.158591213934
-0.158178792998
-0.158513842928
-0.159259683867
-0.159775157425
-0.159841685379
-0.159730780729
-0.159638401796
-0.159564155386
-0.15950352191
-0.159450014432
-0.159250019179
-0.158684487695
-0.157957722338
-0.157634039645
-0.158052704329
-0.160054905373
-0.164520876441
-0.160444068628
-0.163515947707
-0.155783623526
-0.15458930532
-0.156414938176
-0.1581944876
-0.159070005805
-0.159094581408
-0.1588090397
-0.158535301346
-0.158271193529
-0.158015317678
-0.157771115299
-0.157397284694
-0.156552247718
-0.155192208194
-0.154000661389
-0.155757949391
-0.163892292123
-0.160707838075
-0.158534189036
-0.155750280593
-0.145859429312
-0.144723298622
-0.146801957073
-0.148708325323
-0.149435180671
-0.149104607884
-0.148363592251
-0.147630747541
-0.146917736733
-0.146236990449
-0.145686567962
-0.145246075505
-0.144448492203
-0.143186342666
-0.142515865766
-0.145330645703
-0.156301563723
-0.158797516293
-0.158136887071
-0.153986996418
-0.143837889868
-0.142437209926
-0.144246389335
-0.145701575605
-0.146031821889
-0.145454493716
-0.144353266101
-0.143188680468
-0.142049228801
-0.141237667048
-0.140558532923
-0.139632142691
-0.138754290671
-0.137908379609
-0.137866266688
-0.141566655626
-0.154056306928
-0.158266829117
-0.158347152054
-0.154481372957
-0.144313102436
-0.142608735241
-0.143906028444
-0.144878681662
-0.145331036777
-0.145382955115
-0.144354326981
-0.142930681254
-0.141503684255
-0.140714460649
-0.139309465667
-0.137046248311
-0.135503370631
-0.134863984479
-0.135481517919
-0.140260615808
-0.153594128566
-0.158226807551
-0.158409379903
-0.154735961332
-0.144324158833
-0.142211508749
-0.143198066791
-0.144661234626
-0.147290216606
-0.149963366149
-0.149965612785
-0.148693807689
-0.147593015995
-0.146517644032
-0.143828661552
-0.138018358286
-0.133623467864
-0.132091194077
-0.133005762931
-0.138629781689
-0.152771847255
-0.15800987607
-0.15823833093
-0.154241993387
-0.143296710253
-0.14083870696
-0.142418841865
-0.146884753704
-0.15527794755
-0.161909718681
-0.163600501361
-0.162861192214
-0.162713402348
-0.161900839703
-0.157509170682
-0.145756627473
-0.134925261199
-0.130108799079
-0.130400148629
-0.136610205123
-0.151848823103
-0.157617217944
-0.158095552706
-0.153836641816
-0.142611532844
-0.140247054747
-0.143277697622
-0.152168741232
-0.167199242764
-0.17244983918
-0.174578081479
-0.174167026514
-0.174350152161
-0.174126412712
-0.16947512929
-0.156902190463
-0.13926906563
-0.130261275148
-0.129262576947
-0.135545476057
-0.15137219924
-0.157292152412
-0.15806644047
-0.153865017439
-0.142696541852
-0.140507726273
-0.144199039425
-0.154848205037
-0.172482471896
-0.1782150647
-0.180450505604
-0.180018613159
-0.1797613534
-0.179338732087
-0.174006124265
-0.160837178391
-0.141095475745
-0.1307138508
-0.129231618778
-0.135455899389
-0.151410859769
-0.157078519536
-0.158030427461
-0.153880121848
-0.142740586607
-0.140581529391
-0.144349666444
-0.155201851249
-0.173123458706
-0.178738704414
-0.180918793921
-0.180430297364
-0.179949825805
-0.179403623133
-0.173704909695
-0.160646172477
-0.140793883306
-0.130432780422
-0.128971680573
-0.135262196795
-0.151322235357
-0.156831933148
-0.157984786653
-0.153878296131
-0.142739357463
-0.140463252526
-0.143741755347
-0.153388785431
-0.169848735941
-0.175702458966
-0.177726052753
-0.177081741169
-0.176127024951
-0.175256913489
-0.169414393602
-0.156512181802
-0.138408700508
-0.129403142206
-0.128461255345
-0.134942555562
-0.151180317838
-0.156647174152
-0.157790459527
-0.153216579417
-0.141530744244
-0.138556043432
-0.140253571777
-0.146193741598
-0.157724162339
-0.167942447101
-0.169683897807
-0.168021086874
-0.165545027189
-0.16272683441
-0.15650675284
-0.14348459107
-0.131401404321
-0.125923649208
-0.12639330146
-0.13354369758
-0.15043331244
-0.156325792946
-0.157507005488
-0.151968924686
-0.139152104072
-0.135122264834
-0.135274483589
-0.137499615848
-0.142171916667
-0.146694945631
-0.146635396842
-0.144704798974
-0.142273385841
-0.140145163357
-0.136231933725
-0.129371390379
-0.123666674474
-0.121586083512
-0.123422704758
-0.131471791282
-0.149338653473
-0.155961597016
-0.157396681168
-0.151126873391
-0.137082815399
-0.131969676844
-0.130978958364
-0.131062944388
-0.131685708606
-0.132136832451
-0.130958472964
-0.129066596203
-0.12696603945
-0.125458191301
-0.123390211542
-0.120530160283
-0.118631042794
-0.118603974211
-0.121425441734
-0.130204704641
-0.14880965373
-0.155848581302
-0.157506132585
-0.151129908078
-0.136052168157
-0.129877670147
-0.127988349235
-0.127100276851
-0.126375239925
-0.125512933987
-0.124156338656
-0.122546348216
-0.121025032904
-0.119755356663
-0.118349535883
-0.116990385178
-0.116493530101
-0.117405656387
-0.120827641859
-0.130054770943
-0.148917839401
-0.155990288221
-0.15748109046
-0.151690926248
-0.136735322984
-0.129729387914
-0.127136540181
-0.125767874889
-0.124760586783
-0.123838377578
-0.122765747511
-0.12154586542
-0.120418853651
-0.119359217214
-0.118197349298
-0.117258401028
-0.117185319658
-0.118442101413
-0.122047634518
-0.131231041052
-0.149261450811
-0.155974008517
-0.15751155415
-0.15248091452
-0.138935565318
-0.132641027602
-0.129758147603
-0.128159753002
-0.127162744931
-0.126470670586
-0.12575120872
-0.124902512685
-0.124144314205
-0.123276592445
-0.122285014212
-0.121499616798
-0.121514889129
-0.122735551773
-0.12593035438
-0.133563282867
-0.149821512929
-0.156053722166
-0.157954642816
-0.155450660405
-0.143859224656
-0.139422273726
-0.138034882237
-0.137089270421
-0.136365874604
-0.135915365693
-0.135486108406
-0.13503016454
-0.134513114805
-0.133873895413
-0.133106183356
-0.132449276408
-0.132270771788
-0.132602981204
-0.133833674174
-0.139199026218
-0.15328863781
-0.156714992758
-0.159973326187
-0.163932268596
-0.156162007595
-0.153416693681
-0.152883796668
-0.152795160181
-0.152727076172
-0.152592343561
-0.152365469816
-0.152159485256
-0.151898399672
-0.151540001256
-0.151083905979
-0.150555212605
-0.150015904894
-0.149625070209
-0.150028885854
-0.153542894288
-0.16340044986
-0.159046928121
-0.164492054581
-0.160672473511
-0.158753265254
-0.158190780343
-0.157964063818
-0.157769931177
-0.157555585463
-0.15730951008
-0.157029186832
-0.156768151344
-0.156564865813
-0.156369112565
-0.156197234688
-0.156063373147
-0.155982817477
-0.155972094907
-0.156103409103
-0.156766707553
-0.159047526948
-0.163022376241
-0.161916128604
-0.155324781846
-0.151860781402
-0.150950194878
-0.151293559579
-0.152159756556
-0.152748960306
-0.152827349152
-0.152710192628
-0.15261426618
-0.152539473741
-0.152480611326
-0.152429755249
-0.152185327321
-0.151464091609
-0.150503292718
-0.150091688058
-0.150984589065
-0.154580766409
-0.161823599658
-0.155248278886
-0.154251572887
-0.143347711643
-0.140894829428
-0.142456106458
-0.144252537409
-0.145223133423
-0.145385524151
-0.145256114044
-0.14513322225
-0.145016388678
-0.144903719352
-0.144793746124
-0.144474062958
-0.143430852254
-0.141708664117
-0.140370146782
-0.143162887527
-0.154442925089
-0.155469569575
-0.151776979026
-0.143287543041
-0.130068107934
-0.127073578868
-0.128423284585
-0.130234086357
-0.131170443854
-0.131229515233
-0.130907490833
-0.130561529873
-0.130221446261
-0.129886937839
-0.129538634829
-0.128979806151
-0.127998069882
-0.126596531914
-0.126012466126
-0.129892218133
-0.143831665718
-0.152069513951
-0.150865403585
-0.14000330639
-0.125856434573
-0.121917127723
-0.122636190215
-0.12398467973
-0.124839895117
-0.125145264567
-0.124878522305
-0.124406582481
-0.123887116701
-0.123354672495
-0.122707415141
-0.121703827839
-0.120567288272
-0.119491358394
-0.119598112627
-0.124956742444
-0.140427557696
-0.151088741779
-0.15096016882
-0.139844114555
-0.12494491368
-0.120236535359
-0.120326888351
-0.121539847804
-0.123332938765
-0.125115087767
-0.125566215499
-0.125184459434
-0.124572134339
-0.123860623584
-0.122329642671
-0.119403437188
-0.117045123945
-0.115973413411
-0.116833876262
-0.123078841865
-0.139879855126
-0.151043262133
-0.150932011531
-0.139604134364
-0.124014505805
-0.11871226184
-0.118809908671
-0.121538936325
-0.126910477478
-0.132241801961
-0.134703569511
-0.134851052029
-0.134410551851
-0.133536022901
-0.129882419263
-0.122570100038
-0.116267371389
-0.113506589316
-0.114365398552
-0.12148289691
-0.139217473927
-0.150865219659
-0.150687627719
-0.138720486561
-0.122361214173
-0.116814770439
-0.118349831782
-0.125858342971
-0.139696377172
-0.148639323299
-0.154803563245
-0.156317064513
-0.156800151611
-0.156044601752
-0.149148326519
-0.134675534324
-0.119917815267
-0.112406492869
-0.111884584752
-0.119413227588
-0.138106115206
-0.150486468693
-0.15050855143
-0.138156135429
-0.12147843602
-0.116263153413
-0.120027165784
-0.133423773285
-0.155245517282
-0.132611651836
-0.137503981572
-0.138410954339
-0.138711719132
-0.13854191147
-0.131198592888
-0.14925064856
-0.126637973429
-0.113585875478
-0.111016225869
-0.118364680078
-0.13751460944
-0.150178430478
-0.150465123428
-0.138174756625
-0.121587665444
-0.11670018984
-0.121581041565
-0.137799776945
-0.164577902174
-0.143236913008
-0.147964995713
-0.148667365835
-0.148932375303
-0.148382056907
-0.139198290598
-0.156244862983
-0.129936472869
-0.114672793202
-0.111245737931
-0.118416763476
-0.137647734973
-0.15000990341
-0.150409998708
-0.138172340429
-0.121617638615
-0.116769832633
-0.121765231203
-0.138314878002
-0.165716546947
-0.143898481249
-0.148472371676
-0.149112715137
-0.149375601363
-0.148606274009
-0.138300278615
-0.156442148581
-0.129660992096
-0.114449135402
-0.111096738096
-0.118378504877
-0.137832950119
-0.149838353223
-0.150339587152
-0.138145589244
-0.121563598426
-0.116466123346
-0.120602319848
-0.135251588115
-0.160372401353
-0.139600221641
-0.144102445248
-0.144610663067
-0.144705037687
-0.143572028749
-0.132449494496
-0.149957284742
-0.125860401784
-0.112888492002
-0.110543293413
-0.118220954667
-0.137929298028
-0.149684801289
-0.150102446011
-0.13740283641
-0.120173598276
-0.114067047761
-0.115913233861
-0.125777067974
-0.144475064564
-0.160518919305
-0.165254124423
-0.164485700322
-0.162332670637
-0.158481070458
-0.147534666047
-0.132906395395
-0.116613838372
-0.10822525988
-0.108045969069
-0.116784562693
-0.137351304436
-0.149408439694
-0.149780518159
-0.136149014209
-0.117742466425
-0.110279911887
-0.109647558944
-0.113891478618
-0.12265473847
-0.130929781226
-0.133045174992
-0.132227623442
-0.130544694934
-0.12812997653
-0.122757449679
-0.114150757493
-0.105964212597
-0.102408675959
-0.104419994136
-0.114479845672
-0.136335169632
-0.14908615591
-0.149669938985
-0.135506669301
-0.116016433426
-0.107366872111
-0.104946837255
-0.105423977307
-0.107764978954
-0.110176181391
-0.110423033586
-0.109534669466
-0.108259830081
-0.106907758818
-0.104718815987
-0.10126835079
-0.0985706710138
-0.0982830400462
-0.101867323824
-0.113013914552
-0.135940264014
-0.149024234735
-0.149826249121
-0.135841829787
-0.115619827563
-0.106022599334
-0.102470123432
-0.101212444723
-0.100973252816
-0.101026862714
-0.100545199131
-0.09969794799
-0.0987773743644
-0.0979999772224
-0.0969245466718
-0.0956638451221
-0.0952028173706
-0.0964138139521
-0.100935816079
-0.112834993262
-0.136374010421
-0.149266630763
-0.149825738632
-0.136770015002
-0.117154055762
-0.107035746461
-0.102836439035
-0.100867864463
-0.0998748714009
-0.0993568544516
-0.0988100012089
-0.0981231027872
-0.0974717076555
-0.0968344528593
-0.0960688920491
-0.0954402411737
-0.0956591120018
-0.0974286095829
-0.102344439502
-0.114455227811
-0.137263284663
-0.149372253967
-0.149929691956
-0.138187783116
-0.12065078764
-0.111752412523
-0.107510345501
-0.105351095997
-0.104234967899
-0.103723002712
-0.103316565565
-0.102815991366
-0.102391434142
-0.101872369219
-0.101232846741
-0.10077587485
-0.10115501935
-0.102992589843
-0.107649929131
-0.118204583138
-0.138853674081
-0.149660823839
-0.150893361309
-0.142709433
-0.127697251059
-0.121404338668
-0.119188221116
-0.117863701978
-0.117035991689
-0.116692619411
-0.116479873162
-0.116260341476
-0.116032010661
-0.115713723555
-0.11527913567
-0.114976442988
-0.115243106164
-0.11624403455
-0.11871186747
-0.126463658578
-0.14443515464
-0.151005007504
-0.15450752978
-0.154543574161
-0.143598741669
-0.13942481142
-0.138524437665
-0.138441961231
-0.138484202585
-0.138513443679
-0.138503204875
-0.13853529762
-0.138579336468
-0.138567403534
-0.138477087519
-0.138310994782
-0.13812538261
-0.138157338118
-0.139394943142
-0.144872967651
-0.158282920677
-0.15487364884
-0.161813705712
-0.155458250319
-0.152059083723
-0.151011760007
-0.15070997139
-0.150530805612
-0.150354889018
-0.15016561337
-0.149963153722
-0.149779476081
-0.149641880412
-0.149528423865
-0.14944598227
-0.14940154255
-0.149402920332
-0.149475966706
-0.149786557257
-0.151081545132
-0.154850814465
-0.160738945831
-0.161249829448
-0.152958301941
-0.148301558601
-0.146978775763
-0.147267823383
-0.148151642198
-0.14874834007
-0.148821593748
-0.148701859212
-0.148605368969
-0.148532112193
-0.148476283128
-0.148428547554
-0.148164282218
-0.14738244383
-0.146347247484
-0.145959784251
-0.147254175745
-0.152072382291
-0.161094022226
-0.152875380011
-0.146159800758
-0.132767494988
-0.1292333884
-0.130474399346
-0.13219940564
-0.133167443502
-0.133385497719
-0.133343790897
-0.133301776089
-0.133261981691
-0.133222793922
-0.133179295531
-0.132853188843
-0.131696889257
-0.129841672938
-0.128632289248
-0.132416510595
-0.146186666196
-0.153046539285
-0.148206715059
-0.132695142906
-0.116909376068
-0.112504568598
-0.113251203069
-0.114910491006
-0.115907180041
-0.116174805367
-0.116100149302
-0.115966056057
-0.115821122914
-0.115661434549
-0.115435035795
-0.114824410529
-0.1136786128
-0.112164845695
-0.111792338124
-0.116737986488
-0.133140296717
-0.148484543613
-0.146873723805
-0.128261833754
-0.111188597091
-0.105471130255
-0.105386008793
-0.106626363897
-0.107805397846
-0.108660210903
-0.108920312287
-0.108837069235
-0.108636805038
-0.108317191282
-0.107644161894
-0.106314177022
-0.1048026884
-0.103575830111
-0.104113624359
-0.110669750956
-0.128686832016
-0.147126974135
-0.146880583477
-0.12768918206
-0.10946121184
-0.10272071984
-0.102010126272
-0.103484366973
-0.106242575882
-0.109064044199
-0.110495720646
-0.110709319883
-0.110499614245
-0.109861595967
-0.107960915525
-0.104468418706
-0.101242028215
-0.0996776054439
-0.100749549199
-0.108412022082
-0.127877280663
-0.147028402474
-0.146841549225
-0.127243147163
-0.108096958191
-0.100715425561
-0.100356012464
-0.104180886288
-0.111489037693
-0.117607458132
-0.121770870738
-0.122677443464
-0.122603711408
-0.121530485041
-0.116894213189
-0.109337839475
-0.101529250007
-0.0975747298705
-0.0983107273344
-0.106621976814
-0.1272061961
-0.146842559557
-0.146595754563
-0.12622504768
-0.106223740214
-0.0987521415261
-0.100457077209
-0.110208102338
-0.127862716054
-0.127274657889
-0.135020231738
-0.136159828789
-0.136438766682
-0.135726133189
-0.127673429539
-0.123118493518
-0.106843210702
-0.0973066789097
-0.0960524701203
-0.104552981201
-0.126102735865
-0.146459784501
-0.146415995384
-0.125611779765
-0.105307846554
-0.0983611442142
-0.102639701284
-0.117535766888
-0.122662252646
-0.128258346576
-0.114227525808
-0.0992294965008
-0.0954802474968
-0.103602973049
-0.125549763795
-0.146162187387
-0.146368577099
-0.12562387185
-0.105442916518
-0.0989535437616
-0.104677405261
-0.123086821792
-0.135066549292
-0.137547318685
-0.11869470655
-0.100829485389
-0.0959232755655
-0.103761470567
-0.125712527433
-0.14601829074
-0.146304586887
-0.125606005205
-0.105457044903
-0.099011890183
-0.104871925773
-0.123667996326
-0.135998097131
-0.137041520042
-0.118312324481
-0.100610745741
-0.0958279806557
-0.103801023531
-0.125934115871
-0.145874575098
-0.146219645263
-0.125554996489
-0.105345220301
-0.0985303914349
-0.103261178087
-0.119775628506
-0.129911924246
-0.128094626842
-0.113208479148
-0.0985344191981
-0.0951651126873
-0.103715112891
-0.126185122168
-0.145747411178
-0.145952032209
-0.124762888354
-0.103830206406
-0.0957772818811
-0.0978870497757
-0.110384789426
-0.132939002498
-0.129406029703
-0.135761672698
-0.136815535222
-0.137354742467
-0.136370955969
-0.123674822661
-0.121437512587
-0.103410873774
-0.0930869083449
-0.0923555786369
-0.102272011773
-0.125742725691
-0.145501206722
-0.145586391438
-0.123488359382
-0.101344468864
-0.09169250898
-0.0906593323613
-0.0963855285622
-0.107838767005
-0.117343920304
-0.120722313379
-0.12054410334
-0.119315316545
-0.116655173069
-0.109730355969
-0.100856631898
-0.09102073308
-0.0862844695027
-0.0883603494529
-0.0999277083262
-0.124871068312
-0.145220302019
-0.14543996333
-0.122895204974
-0.099746988556
-0.0888170480386
-0.0854961032836
-0.0863218965952
-0.0898412462791
-0.0934060804657
-0.0945638629912
-0.0942571365693
-0.093394931533
-0.0920831541328
-0.0895497809624
-0.0855601722114
-0.082075024905
-0.0814458552103
-0.0855722516306
-0.0984800263394
-0.124671260073
-0.145204767592
-0.145592664816
-0.123314791917
-0.0996106256893
-0.0878008345088
-0.083173680552
-0.0816971631235
-0.0817816360757
-0.0824091162449
-0.0824840723589
-0.0820907496529
-0.0815431761143
-0.0809784448021
-0.0799707454474
-0.0785835186418
-0.0779388571819
-0.0792624342654
-0.0845839558734
-0.0984252040243
-0.125383300543
-0.145487280705
-0.145604247556
-0.124387441627
-0.101533136944
-0.0893960169244
-0.0841644111919
-0.0818223916578
-0.0808244072543
-0.0805486101105
-0.0803403370421
-0.0799884950901
-0.0796166680585
-0.0792034644556
-0.0786226678345
-0.0780779393923
-0.0783613113447
-0.0804268355703
-0.0862772939854
-0.100442008529
-0.126657766052
-0.145637744522
-0.145779976348
-0.126223828556
-0.105784077663
-0.0951523740416
-0.0900519093745
-0.0875601521197
-0.0863746309355
-0.0859793434663
-0.0857917796232
-0.085531823231
-0.0853021615309
-0.0849840276518
-0.0845381091789
-0.0842303343864
-0.0847721963909
-0.0869933411148
-0.0926493921784
-0.105195542843
-0.128976047045
-0.146056462526
-0.147162340299
-0.131921552207
-0.114314042596
-0.106646265676
-0.103854046209
-0.10232643344
-0.10146999698
-0.101218624021
-0.101171930055
-0.10112094699
-0.10107486587
-0.100954013258
-0.100721188913
-0.100616542291
-0.101125064576
-0.1025419673
-0.105885313329
-0.115345160119
-0.136119136727
-0.147873241437
-0.151998569442
-0.146314082598
-0.132891436376
-0.127604069027
-0.126388290141
-0.126287789579
-0.126401588428
-0.126550075257
-0.126703546828
-0.126903031079
-0.127141691114
-0.127350661728
-0.127494226126
-0.127562684266
-0.127616963838
-0.127960980688
-0.129826998653
-0.13673280884
-0.152692179645
-0.152765126158
-0.161090375188
-0.153047111914
-0.148492554065
-0.147053347003
-0.14668244184
-0.146508016249
-0.146353423862
-0.146195954272
-0.146036994973
-0.145896512241
-0.145794376919
-0.145720964743
-0.145679679967
-0.145672919182
-0.145705760999
-0.145815184854
-0.146240522634
-0.147969394071
-0.15272349415
-0.159747803261
-0.161101641478
-0.152163426969
-0.146920936655
-0.145388765929
-0.145646477305
-0.146523521937
-0.147104319168
-0.147161552327
-0.147034380178
-0.146932469439
-0.146855951666
-0.146798540333
-0.146749786435
-0.146472758338
-0.1456674287
-0.14462192427
-0.144281940749
-0.14579246789
-0.151212794195
-0.160910358294
-0.152079124056
-0.142300744336
-0.127290412662
-0.123067753828
-0.124114774584
-0.125777120032
-0.126696337516
-0.126905241879
-0.126886987811
-0.126863034065
-0.126838694246
-0.126812619894
-0.12677705601
-0.126404465449
-0.125158579871
-0.123261346623
-0.122234695194
-0.126774149417
-0.142221262112
-0.1522050901
-0.146822342948
-0.12721603263
-0.109594303994
-0.10426127358
-0.104620217628
-0.106141361269
-0.107094475395
-0.107418504701
-0.107441262372
-0.107377263061
-0.107290440262
-0.10717604252
-0.106963737635
-0.106243749799
-0.104918956053
-0.103329576401
-0.103205444945
-0.109113676562
-0.12752030988
-0.147066165072
-0.145279231763
-0.122121866966
-0.102973050693
-0.0960805283044
-0.0954667608741
-0.0965895179638
-0.0978954755008
-0.0990341504825
-0.0995614595787
-0.0996368016163
-0.0995443706525
-0.0992767223954
-0.0985326306185
-0.0968916461921
-0.0949823136297
-0.0935804606239
-0.094392245057
-0.102004536772
-0.122264989105
-0.145505696089
-0.145269326868
-0.121417880871
-0.100887164617
-0.0928115357124
-0.0915784231218
-0.09320581671
-0.0965940938463
-0.100172060281
-0.102198733822
-0.102692206479
-0.102623814046
-0.101976372464
-0.0997199050834
-0.0954754225525
-0.0913731211217
-0.0892800049129
-0.090551893195
-0.0993358390697
-0.12114458785
-0.145350215338
-0.145272075374
-0.120973636023
-0.0994089944983
-0.090675492984
-0.0900398325125
-0.0946551727837
-0.103596765774
-0.111389368796
-0.116771679569
-0.118069086937
-0.118115162868
-0.116876904745
-0.111340282542
-0.10228031993
-0.0926836219107
-0.0875099238033
-0.0880342769325
-0.0974172120105
-0.120363908618
-0.145125380329
-0.14506077309
-0.119961154823
-0.0975141855175
-0.0888127332976
-0.0906897035232
-0.102201330519
-0.123931252192
-0.128664242143
-0.138358416809
-0.139719395093
-0.139987857541
-0.139238162948
-0.129997385098
-0.119666162596
-0.099711665959
-0.0879648815044
-0.0859794431537
-0.0953101627553
-0.119229458141
-0.144718435526
-0.144895446892
-0.1193508306
-0.0966270811563
-0.0885989504872
-0.0933540365921
-0.110346341997
-0.124738066091
-0.130502595764
-0.108661736531
-0.0905769136197
-0.0856554276394
-0.0943860613334
-0.118700274175
-0.144418062175
-0.144849387948
-0.119360572583
-0.096783579605
-0.0893085039382
-0.0957594268797
-0.11690874855
-0.140217115069
-0.141557864948
-0.114070452502
-0.0925593319672
-0.0862376964945
-0.0945992871623
-0.118913334944
-0.144281157632
-0.144783027335
-0.119333052848
-0.0967860767184
-0.0893564327603
-0.0959541806155
-0.117527480981
-0.141366263809
-0.140778048047
-0.11357334668
-0.0923068354981
-0.0861497214296
-0.0946867891154
-0.119159882712
-0.144145437928
-0.144691193351
-0.119264933122
-0.0966294748143
-0.0887374794125
-0.0939853213245
-0.112803558872
-0.1334486495
-0.129907826942
-0.10728770623
-0.0897637097725
-0.0853508751239
-0.0946080830529
-0.119466313495
-0.144017778394
-0.144400346238
-0.118433211421
-0.0950213203136
-0.0857220490557
-0.0880263307578
-0.10234566702
-0.128969594651
-0.13336610143
-0.141500545901
-0.142227196246
-0.142252129067
-0.140547225552
-0.12397357366
-0.116670442768
-0.0958460754886
-0.0835704757711
-0.0822755398391
-0.0931438122604
-0.119103813783
-0.143772814396
-0.143984362924
-0.117098315035
-0.0924502374406
-0.0813872906845
-0.0800844393508
-0.0867168522288
-0.0999943267042
-0.111112142836
-0.115436530926
-0.115518344045
-0.114384549512
-0.111210481551
-0.103515455973
-0.0932761466884
-0.0818102107106
-0.075996395289
-0.0780333915933
-0.0908106250686
-0.118364646179
-0.143510306947
-0.14377514733
-0.116428905724
-0.0908154150722
-0.0784230901909
-0.0745196117207
-0.0755193805959
-0.079736291094
-0.0840420906302
-0.0857273699221