/*--------------------------------*- C++ -*----------------------------------*\
| =========                 |                                                 |
| \\      /  F ield         | OpenFOAM: The Open Source CFD Toolbox           |
|  \\    /   O peration     | Version:  v1606+                                |
|   \\  /    A nd           | Web:      www.OpenFOAM.com                      |
|    \\/     M anipulation  |                                                 |
\*---------------------------------------------------------------------------*/
FoamFile
{
    version     2.0;
    format      ascii;
    class       volScalarField;
    location    "0.6";
    object      alpha.particlesMean;
}
// * * * * * * * * * * * * * * * * * * * * * * * * * * * * * * * * * * * * * //

dimensions      [0 0 0 0 0 0 0];

internalField   nonuniform List<scalar> 
6000
(
0.409854
0.413794
0.413011
0.412877
0.411629
0.410498
0.408681
0.407198
0.405927
0.405268
0.405031
0.404429
0.40279
0.401971
0.401099
0.401488
0.402132
0.403248
0.404482
0.404946
0.405455
0.406289
0.40741
0.408934
0.410443
0.411666
0.41308
0.413228
0.414046
0.409092
0.393688
0.396304
0.395129
0.394259
0.392923
0.392232
0.391592
0.391227
0.390618
0.390056
0.389352
0.388992
0.388887
0.388861
0.388991
0.389017
0.388876
0.388884
0.388987
0.389423
0.390106
0.390646
0.391254
0.391608
0.392228
0.392989
0.394274
0.395172
0.396122
0.393455
0.394082
0.404653
0.403091
0.402693
0.400678
0.400036
0.398952
0.398254
0.397066
0.396266
0.396262
0.396695
0.396462
0.39616
0.396052
0.395955
0.396178
0.396396
0.396695
0.396169
0.396203
0.396958
0.398189
0.39897
0.400016
0.400785
0.402823
0.403332
0.404626
0.39417
0.3819
0.391202
0.389379
0.38995
0.388942
0.388532
0.387811
0.38788
0.387475
0.387599
0.389175
0.392189
0.393558
0.393331
0.392919
0.392867
0.393253
0.393342
0.391729
0.388693
0.387287
0.387123
0.387575
0.387718
0.388445
0.38899
0.390088
0.389638
0.391354
0.381962
0.366628
0.371561
0.370783
0.373288
0.372002
0.370676
0.369307
0.368809
0.369337
0.370791
0.373128
0.377545
0.38259
0.384009
0.383751
0.383712
0.38378
0.38183
0.376559
0.37255
0.370319
0.368888
0.368568
0.3694
0.370909
0.372345
0.373532
0.370994
0.371655
0.366649
0.357449
0.361584
0.365104
0.36758
0.365257
0.362654
0.359905
0.356369
0.353006
0.35174
0.353425
0.357265
0.364904
0.370185
0.370898
0.370785
0.369488
0.363497
0.356287
0.352999
0.351514
0.353106
0.356822
0.360567
0.363336
0.365942
0.368029
0.365139
0.36148
0.357469
0.356015
0.367414
0.372226
0.374473
0.372672
0.369004
0.364477
0.359091
0.351966
0.344349
0.34046
0.340911
0.346642
0.35616
0.359394
0.359037
0.354369
0.345069
0.340787
0.340776
0.345032
0.352819
0.360009
0.365391
0.369886
0.373533
0.375147
0.372539
0.367267
0.355755
0.36431
0.37693
0.381554
0.385353
0.387147
0.384048
0.376175
0.368105
0.359742
0.348446
0.337063
0.333132
0.3336
0.34068
0.3491
0.347904
0.338211
0.333304
0.333763
0.338007
0.349821
0.36091
0.369165
0.377375
0.384981
0.387849
0.38608
0.382118
0.37742
0.364289
0.375561
0.380175
0.386689
0.395542
0.402353
0.401475
0.392165
0.37976
0.36916
0.358314
0.339628
0.328528
0.326356
0.327745
0.336721
0.334087
0.326898
0.327054
0.329366
0.341218
0.360152
0.370633
0.381294
0.39348
0.402249
0.402508
0.395804
0.386897
0.380638
0.376621
0.376967
0.379499
0.387509
0.401823
0.412788
0.413934
0.406531
0.393288
0.379516
0.369343
0.348656
0.327015
0.322298
0.321061
0.325875
0.324396
0.321135
0.323101
0.328124
0.351086
0.371243
0.381393
0.395101
0.407283
0.414294
0.412759
0.401645
0.3873
0.379782
0.378508
0.372836
0.375844
0.385516
0.404602
0.419513
0.424102
0.418589
0.406214
0.390978
0.378561
0.360445
0.330566
0.321003
0.318908
0.321335
0.32007
0.319222
0.321421
0.332501
0.363303
0.380455
0.392967
0.407572
0.419391
0.424531
0.419441
0.404137
0.384948
0.376175
0.37454
0.365976
0.369772
0.380826
0.404455
0.423294
0.433411
0.432352
0.419733
0.401907
0.386112
0.370534
0.339598
0.321707
0.320038
0.320358
0.319461
0.320352
0.322077
0.342661
0.373533
0.387977
0.403657
0.421101
0.433272
0.433736
0.423075
0.403638
0.379967
0.370171
0.367614
0.358176
0.362263
0.37392
0.401577
0.424376
0.439547
0.444566
0.433539
0.411715
0.39161
0.379608
0.352245
0.325265
0.323136
0.322392
0.321628
0.323039
0.326224
0.356042
0.38214
0.393613
0.413408
0.434959
0.445254
0.439718
0.424051
0.400403
0.373033
0.362546
0.359547
0.350212
0.354054
0.365739
0.39591
0.422935
0.442024
0.452759
0.444795
0.420853
0.397673
0.385845
0.365065
0.334403
0.327977
0.328876
0.327213
0.32714
0.336558
0.368736
0.387668
0.399522
0.422606
0.446221
0.453446
0.442146
0.42254
0.394271
0.364726
0.354039
0.351306
0.34226
0.34551
0.356836
0.386934
0.418248
0.441558
0.458214
0.452922
0.428628
0.404382
0.39151
0.378712
0.3498
0.337773
0.339003
0.337703
0.336183
0.352917
0.382141
0.392959
0.405992
0.430267
0.454446
0.459112
0.441562
0.417257
0.384597
0.355742
0.34535
0.343047
0.334722
0.33731
0.348099
0.374334
0.408646
0.438421
0.462256
0.45944
0.43482
0.41079
0.397609
0.391433
0.370503
0.352688
0.349881
0.349767
0.351729
0.372768
0.392985
0.399361
0.412651
0.436653
0.461262
0.463085
0.437706
0.40712
0.371787
0.347098
0.337294
0.335478
0.327474
0.330621
0.341036
0.362053
0.39622
0.429833
0.462934
0.464324
0.441366
0.418296
0.40352
0.396694
0.388057
0.367354
0.362029
0.36282
0.368761
0.388565
0.397316
0.405064
0.420491
0.443621
0.465784
0.462924
0.428925
0.394208
0.360224
0.340463
0.330905
0.328309
0.321725
0.329057
0.338797
0.355883
0.383744
0.417914
0.454163
0.463842
0.447776
0.426207
0.407587
0.397065
0.393772
0.379375
0.373003
0.373683
0.38159
0.394247
0.397332
0.409159
0.428554
0.449586
0.464222
0.452752
0.417349
0.382457
0.355483
0.339222
0.329872
0.322684
0.321271
0.333352
0.343696
0.35797
0.377163
0.408043
0.435362
0.455066
0.45103
0.433011
0.410628
0.392645
0.388195
0.38376
0.377594
0.378308
0.385346
0.388116
0.39322
0.412678
0.435037
0.451805
0.452492
0.431486
0.405792
0.377307
0.359169
0.345049
0.334408
0.322389
0.325006
0.33853
0.349138
0.36054
0.37345
0.391042
0.410858
0.426656
0.441686
0.436753
0.41339
0.387026
0.376094
0.379474
0.376124
0.376979
0.379501
0.376091
0.388021
0.415177
0.437683
0.439543
0.422451
0.40694
0.387466
0.371752
0.359436
0.348729
0.338483
0.325203
0.324494
0.335337
0.339024
0.344364
0.355225
0.367668
0.387866
0.404905
0.421604
0.425795
0.410046
0.385207
0.37012
0.371424
0.371408
0.371716
0.371538
0.371128
0.386715
0.411173
0.425629
0.419705
0.402675
0.384444
0.362868
0.350013
0.339357
0.334661
0.332487
0.321852
0.30731
0.314429
0.314299
0.318255
0.331153
0.349441
0.372092
0.394304
0.414288
0.421747
0.40986
0.389274
0.372975
0.366866
0.366931
0.367064
0.36763
0.374875
0.391436
0.41142
0.422151
0.413133
0.392381
0.369082
0.346352
0.327927
0.314729
0.309386
0.309152
0.30256
0.284172
0.289808
0.294306
0.30465
0.321027
0.339894
0.361848
0.387096
0.410946
0.422469
0.413936
0.396084
0.379143
0.367958
0.364635
0.364987
0.369275
0.381392
0.398592
0.415819
0.422703
0.409531
0.385007
0.359699
0.338184
0.319714
0.303651
0.292347
0.286597
0.280767
0.274962
0.277671
0.286054
0.300647
0.3163
0.334598
0.354852
0.379902
0.406344
0.422588
0.419135
0.403176
0.385591
0.372328
0.365946
0.366488
0.373778
0.387818
0.405625
0.420783
0.422426
0.404632
0.377771
0.353326
0.33365
0.315751
0.300171
0.285453
0.276262
0.27349
0.275204
0.272832
0.284365
0.298731
0.314299
0.33164
0.349207
0.371544
0.399799
0.421186
0.423432
0.409686
0.391882
0.37763
0.36837
0.368937
0.379164
0.393948
0.411791
0.424552
0.420472
0.397701
0.369445
0.348045
0.331145
0.314108
0.298297
0.284188
0.272119
0.2742
0.277587
0.275843
0.288148
0.300262
0.316265
0.331587
0.345906
0.364779
0.391239
0.416826
0.42625
0.41539
0.397845
0.38269
0.37086
0.3712
0.38436
0.400085
0.4174
0.426663
0.415114
0.389344
0.363627
0.345408
0.331452
0.316486
0.300434
0.288226
0.275567
0.27667
0.28067
0.282999
0.296241
0.309348
0.323503
0.33586
0.348174
0.364558
0.386099
0.410252
0.426567
0.42039
0.40346
0.387039
0.373068
0.37254
0.388697
0.406125
0.422694
0.427135
0.409608
0.385475
0.364366
0.348255
0.33608
0.323942
0.309988
0.296572
0.282943
0.279915
0.285722
0.292485
0.307499
0.320266
0.331663
0.34198
0.353096
0.367773
0.387037
0.407589
0.426464
0.42516
0.408892
0.39088
0.375232
0.3737
0.392244
0.411837
0.427893
0.428121
0.407986
0.386938
0.367936
0.353396
0.342304
0.332039
0.32077
0.30799
0.292794
0.285354
0.293382
0.306052
0.318927
0.329638
0.339229
0.34842
0.358629
0.371712
0.389513
0.408501
0.426591
0.429619
0.414542
0.394595
0.378767
0.37761
0.395423
0.417638
0.432999
0.428982
0.408861
0.389538
0.371967
0.359039
0.348803
0.339567
0.329987
0.319306
0.306497
0.293269
0.303108
0.319091
0.329091
0.338128
0.346757
0.355155
0.364376
0.375813
0.391528
0.409864
0.427551
0.433987
0.420417
0.398287
0.384536
0.38412
0.398921
0.423595
0.438237
0.429637
0.410033
0.39153
0.376168
0.364851
0.355597
0.34713
0.338441
0.329369
0.319323
0.303075
0.31334
0.330007
0.338481
0.346547
0.354439
0.361824
0.369639
0.379107
0.392974
0.410176
0.429797
0.439423
0.426608
0.403501
0.391446
0.391227
0.403684
0.429771
0.443588
0.431634
0.410449
0.39307
0.379533
0.370156
0.362329
0.354884
0.34691
0.338727
0.330068
0.313281
0.323698
0.339906
0.347651
0.355043
0.361816
0.367404
0.372868
0.380261
0.393245
0.410556
0.432805
0.446195
0.433986
0.410615
0.398676
0.398317
0.410033
0.436403
0.450455
0.435093
0.410966
0.393497
0.380788
0.373408
0.367928
0.362307
0.35547
0.347918
0.339892
0.323556
0.333552
0.349217
0.356637
0.36329
0.367674
0.370311
0.373719
0.380348
0.39379
0.412322
0.436273
0.453501
0.442635
0.418692
0.406149
0.405525
0.417448
0.444451
0.458123
0.439023
0.413002
0.39434
0.380971
0.374285
0.370879
0.368121
0.363706
0.356921
0.349211
0.333433
0.343405
0.358304
0.365378
0.369649
0.370711
0.37088
0.373554
0.381736
0.396689
0.41633
0.440706
0.460544
0.451416
0.427043
0.413889
0.412932
0.425301
0.453094
0.465694
0.44381
0.417311
0.397642
0.382587
0.374247
0.371397
0.371129
0.369968
0.365656
0.358315
0.343355
0.353506
0.367194
0.372484
0.372919
0.371109
0.370064
0.374779
0.385624
0.402434
0.422254
0.445682
0.466664
0.459965
0.435724
0.421821
0.42075
0.433452
0.461276
0.472307
0.44934
0.423548
0.403712
0.386799
0.375687
0.370706
0.371467
0.37322
0.372599
0.367214
0.353486
0.364016
0.374948
0.376472
0.373817
0.370056
0.371637
0.378937
0.391952
0.40984
0.42905
0.450895
0.471619
0.467928
0.444761
0.430109
0.428807
0.44201
0.468814
0.477475
0.454949
0.430581
0.411257
0.393361
0.379974
0.372286
0.370575
0.374026
0.376607
0.374875
0.363972
0.374063
0.379329
0.378795
0.373562
0.370722
0.375034
0.385394
0.400335
0.418097
0.436119
0.456687
0.475983
0.474998
0.454255
0.439234
0.43779
0.45142
0.475958
0.481562
0.460768
0.437825
0.419494
0.401756
0.386632
0.375739
0.371408
0.373937
0.378996
0.379256
0.373856
0.382411
0.382882
0.3799
0.373168
0.373638
0.381277
0.394652
0.410516
0.426887
0.443538
0.462688
0.480496
0.481251
0.463838
0.448718
0.447163
0.461159
0.482596
0.485576
0.466753
0.445512
0.428267
0.411938
0.396041
0.38221
0.374512
0.373806
0.380371
0.382955
0.381997
0.389211
0.385698
0.380397
0.374871
0.380437
0.390453
0.405113
0.420791
0.435782
0.451045
0.468627
0.484647
0.487023
0.473152
0.458
0.456359
0.470658
0.488554
0.489205
0.472546
0.453276
0.437361
0.422326
0.406767
0.391913
0.38153
0.375429
0.381162
0.386103
0.38868
0.394498
0.386096
0.384978
0.3821
0.389918
0.401253
0.416757
0.431182
0.444443
0.458037
0.473642
0.488133
0.492494
0.481833
0.466813
0.465155
0.479619
0.494209
0.492243
0.477278
0.460362
0.44619
0.432827
0.418597
0.40281
0.390613
0.38253
0.385745
0.38722
0.394048
0.398592
0.390038
0.393186
0.393287
0.401709
0.412289
0.42749
0.44035
0.451913
0.463794
0.477431
0.490793
0.497495
0.490154
0.475533
0.473939
0.488306
0.49938
0.494462
0.480744
0.466051
0.453664
0.441964
0.429316
0.413968
0.402265
0.393581
0.393721
0.390575
0.398067
0.401577
0.396768
0.401435
0.403452
0.411652
0.421585
0.435467
0.447299
0.457516
0.467893
0.479834
0.492883
0.502553
0.498313
0.483734
0.482428
0.496783
0.504502
0.496335
0.482725
0.469903
0.459165
0.448897
0.437361
0.42335
0.412684
0.404014
0.402031
0.397471
0.401016
0.407108
0.406033
0.410643
0.411894
0.419539
0.429604
0.441715
0.452183
0.460932
0.469961
0.481189
0.494998
0.507591
0.50561
0.490692
0.489904
0.504457
0.509479
0.498319
0.483851
0.471686
0.46249
0.45382
0.443629
0.431536
0.420926
0.412616
0.410958
0.406349
0.40656
0.416979
0.417268
0.42003
0.420825
0.427972
0.437675
0.44741
0.455533
0.462561
0.471125
0.482686
0.497489
0.512206
0.511685
0.496629
0.49636
0.51101
0.514168
0.500918
0.485554
0.472994
0.464181
0.457042
0.449096
0.439511
0.429578
0.421505
0.420154
0.417122
0.416378
0.427281
0.427777
0.429814
0.432107
0.438373
0.44637
0.452993
0.458324
0.464434
0.474106
0.486124
0.501401
0.51633
0.515957
0.502555
0.502578
0.515438
0.518243
0.50474
0.489311
0.476649
0.466349
0.45978
0.45435
0.447664
0.439699
0.432732
0.429878
0.427763
0.426641
0.435894
0.438269
0.440431
0.443681
0.448758
0.453755
0.457511
0.461876
0.468794
0.479715
0.492004
0.506616
0.519209
0.517839
0.508435
0.508649
0.518759
0.520961
0.509419
0.495122
0.482628
0.47095
0.463605
0.458826
0.454813
0.449591
0.444227
0.440819
0.438413
0.435419
0.443808
0.449393
0.450971
0.453308
0.456309
0.458759
0.461537
0.467209
0.475899
0.486921
0.498877
0.51169
0.521681
0.521124
0.51424
0.514525
0.522535
0.523803
0.514264
0.501741
0.489748
0.478056
0.468918
0.462874
0.459722
0.457093
0.453963
0.451484
0.449916
0.443649
0.452274
0.459923
0.459355
0.460025
0.461332
0.462515
0.466278
0.474446
0.484195
0.494288
0.505704
0.516669
0.524831
0.524644
0.519723
0.520077
0.526333
0.527055
0.519055
0.508329
0.496839
0.486168
0.47598
0.46759
0.463576
0.46215
0.4607
0.46004
0.460504
0.452723
0.460489
0.466856
0.465492
0.46503
0.46523
0.466847
0.473358
0.482972
0.492045
0.501226
0.512017
0.521454
0.528011
0.528228
0.524848
0.525283
0.529932
0.530271
0.52376
0.514546
0.503603
0.49387
0.484232
0.474361
0.467795
0.466175
0.465663
0.465959
0.467108
0.461084
0.46702
0.47191
0.471023
0.46955
0.469345
0.473453
0.481465
0.491089
0.498799
0.507571
0.517754
0.526028
0.531262
0.531717
0.529604
0.530032
0.533267
0.533356
0.528216
0.520373
0.510156
0.501484
0.492908
0.482182
0.474113
0.470319
0.470261
0.471065
0.471652
0.467307
0.47297
0.476485
0.476541
0.474264
0.476064
0.480837
0.489296
0.498682
0.505553
0.513422
0.523095
0.530422
0.534651
0.535222
0.534023
0.534347
0.536442
0.536388
0.532456
0.526048
0.51711
0.509603
0.501976
0.490794
0.481873
0.476908
0.474985
0.476604
0.475914
0.4731
0.477955
0.480713
0.481889
0.479875
0.483562
0.488006
0.497271
0.507241
0.513157
0.519278
0.528436
0.534844
0.538229
0.538811
0.538205
0.53841
0.539645
0.539526
0.536703
0.531799
0.524809
0.518429
0.511059
0.500824
0.490227
0.483815
0.480816
0.481838
0.479771
0.477682
0.481887
0.484025
0.486159
0.485867
0.489104
0.496043
0.50602
0.515296
0.521003
0.52598
0.534046
0.539472
0.542036
0.542552
0.542291
0.542395
0.543028
0.542929
0.541063
0.537639
0.532982
0.528421
0.521419
0.512394
0.500955
0.492683
0.487177
0.487724
0.482083
0.480998
0.485129
0.485889
0.488692
0.48995
0.49684
0.50591
0.515901
0.523502
0.529008
0.533435
0.540044
0.544239
0.546055
0.546469
0.546397
0.546448
0.546708
0.546627
0.545518
0.543231
0.540181
0.537349
0.533226
0.525894
0.51408
0.505017
0.494204
0.494397
0.484299
0.482883
0.488319
0.485205
0.492567
0.499079
0.508738
0.517064
0.525965
0.531342
0.535971
0.540718
0.545947
0.548959
0.550143
0.550459
0.550501
0.550549
0.550623
0.550573
0.549953
0.548358
0.545933
0.543613
0.542159
0.539196
0.531205
0.519973
0.50652
0.500588
0.487694
0.485537
0.49188
0.485357
0.503121
0.511176
0.522252
0.529438
0.534605
0.536742
0.542052
0.547164
0.551271
0.553296
0.554029
0.554273
0.55438
0.55445
0.554467
0.554435
0.55409
0.552913
0.550565
0.547746
0.54622
0.546616
0.544733
0.537872
0.523523
0.512555
0.493445
0.489734
0.493623
0.495117
0.515703
0.526169
0.535531
0.538409
0.539022
0.541212
0.547501
0.552591
0.555653
0.556924
0.557356
0.557521
0.557626
0.557694
0.5577
0.55766
0.55742
0.556519
0.554268
0.550973
0.54733
0.548324
0.550004
0.549166
0.541699
0.528848
0.508677
0.49753
0.499479
0.511728
0.530962
0.538183
0.541309
0.540326
0.540785
0.545967
0.552276
0.556871
0.558898
0.559581
0.55976
0.559802
0.559822
0.559826
0.559792
0.559711
0.55947
0.558726
0.55666
0.553018
0.548253
0.54732
0.549458
0.551974
0.551625
0.544762
0.52701
0.510959
0.513773
0.530937
0.540136
0.541557
0.540417
0.539456
0.543581
0.550933
0.556606
0.559974
0.561046
0.561227
0.561137
0.561009
0.560895
0.560797
0.560705
0.560584
0.560309
0.559587
0.557644
0.553487
0.548521
0.544428
0.545862
0.550152
0.553171
0.553226
0.545199
0.526407
0.531017
0.539838
0.54163
0.538443
0.537461
0.542317
0.548907
0.555854
0.560293
0.562095
0.562339
0.562087
0.561753
0.561466
0.561235
0.561069
0.560939
0.560792
0.560503
0.559759
0.557843
0.55315
0.547028
0.540311
0.539704
0.544852
0.550606
0.554532
0.553476
0.541335
0.540295
0.539243
0.538594
0.530243
0.539218
0.547475
0.555095
0.560484
0.562966
0.563382
0.562988
0.562417
0.561905
0.561522
0.561236
0.561051
0.560909
0.560774
0.56049
0.559729
0.557682
0.552598
0.543937
0.534991
0.532124
0.536324
0.544676
0.551916
0.55434
0.550959
0.540728
0.53437
0.526224
0.530205
0.545012
0.554747
0.561147
0.563864
0.564379
0.563869
0.563057
0.562293
0.561721
0.561426
0.561229
0.561083
0.560916
0.560711
0.560404
0.559634
0.557394
0.551844
0.541067
0.530042
0.523283
0.527185
0.535105
0.546843
0.551637
0.55412
0.537515
0.519504
0.528154
0.537428
0.554185
0.562105
0.564961
0.565327
0.56466
0.563618
0.562552
0.561797
0.561469
0.561321
0.561235
0.561153
0.561029
0.560789
0.560395
0.559557
0.557258
0.551766
0.541906
0.530318
0.519256
0.516609
0.526442
0.538499
0.546579
0.552594
0.528097
0.522813
0.537328
0.550767
0.562728
0.566129
0.566287
0.565366
0.564075
0.562659
0.561616
0.561236
0.561191
0.561188
0.561216
0.561227
0.561194
0.56105
0.560672
0.559769
0.557647
0.553165
0.546009
0.536635
0.523636
0.514686
0.515459
0.531034
0.536392
0.549021
0.521308
0.530708
0.551341
0.562462
0.566966
0.567221
0.566089
0.564429
0.562522
0.560987
0.560509
0.560601
0.560766
0.560892
0.560997
0.561103
0.561194
0.561195
0.560973
0.560265
0.558408
0.555171
0.550844
0.544715
0.533475
0.521882
0.512738
0.523288
0.530779
0.542766
0.527622
0.546379
0.562329
0.567319
0.567956
0.566841
0.56474
0.562192
0.559652
0.558939
0.559257
0.559779
0.560129
0.560312
0.56045
0.560614
0.560798
0.56093
0.56086
0.560344
0.559038
0.556515
0.554293
0.5503
0.542628
0.53196
0.521894
0.520281
0.52489
0.53762
0.539088
0.55996
0.567232
0.568404
0.567522
0.564941
0.561695
0.558334
0.556038
0.55677
0.557796
0.558761
0.559201
0.559409
0.559562
0.559746
0.559955
0.560124
0.560102
0.559581
0.558386
0.556269
0.555267
0.553164
0.548331
0.540991
0.533416
0.528594
0.523555
0.534129
0.550502
0.565469
0.568528
0.568106
0.565308
0.560992
0.556392
0.552787
0.551698
0.55411
0.556007
0.557354
0.557923
0.558199
0.55839
0.558586
0.55877
0.558877
0.55873
0.557947
0.556192
0.553619
0.552933
0.553274
0.551481
0.547419
0.542915
0.540308
0.530079
0.533217
0.558828
0.567168
0.568446
0.566101
0.561045
0.555132
0.549623
0.547001
0.547372
0.550748
0.553546
0.555391
0.556209
0.556636
0.556917
0.557153
0.557291
0.557257
0.556818
0.555531
0.552897
0.549596
0.548822
0.549865
0.551543
0.551072
0.54953
0.549927
0.540253
0.536713
0.562977
0.567659
0.566824
0.561664
0.554852
0.547711
0.542365
0.541883
0.543156
0.5465
0.549944
0.552512
0.553773
0.554497
0.554949
0.555246
0.555352
0.55512
0.554179
0.552087
0.54834
0.54479
0.543917
0.54419
0.547482
0.551107
0.55262
0.555089
0.550943
0.543465
0.564855
0.566505
0.562574
0.55541
0.547443
0.539711
0.536147
0.537115
0.53831
0.540887
0.544428
0.548208
0.550324
0.551754
0.552447
0.552858
0.552815
0.552243
0.550504
0.547173
0.541823
0.539684
0.538361
0.538094
0.541131
0.546745
0.551921
0.555954
0.556368
0.550221
0.56502
0.562048
0.556973
0.54867
0.539725
0.532866
0.531349
0.532229
0.533433
0.533969
0.537082
0.542653
0.54693
0.549439
0.550498
0.550909
0.550524
0.549024
0.546091
0.540824
0.534344
0.53447
0.533519
0.532842
0.53444
0.540227
0.547478
0.553595
0.556238
0.553705
0.563092
0.556825
0.55116
0.541457
0.532152
0.527434
0.526447
0.528179
0.528976
0.52854
0.530657
0.538378
0.545358
0.548835
0.550252
0.550528
0.54989
0.54743
0.542751
0.534931
0.529309
0.530165
0.529685
0.528486
0.52909
0.533117
0.540803
0.549641
0.55382
0.55415
0.559913
0.552267
0.545309
0.533779
0.526364
0.522894
0.52312
0.524349
0.525012
0.525776
0.528879
0.537511
0.545767
0.549748
0.551147
0.551448
0.550664
0.548041
0.542239
0.532816
0.527787
0.527355
0.526734
0.525303
0.525831
0.528764
0.53389
0.544084
0.550116
0.553227
0.555478
0.546004
0.539335
0.528399
0.523484
0.518866
0.520021
0.520705
0.523547
0.526927
0.531967
0.539616
0.547298
0.55111
0.552365
0.552668
0.55198
0.549328
0.543428
0.534981
0.531206
0.527467
0.524654
0.523279
0.523371
0.526912
0.531611
0.541194
0.543239
0.550733
0.55
0.539464
0.538776
0.527535
0.522784
0.518055
0.51659
0.519931
0.526427
0.532392
0.537446
0.542765
0.549114
0.552528
0.553638
0.553895
0.553352
0.550778
0.544904
0.538235
0.53541
0.530194
0.524866
0.521925
0.521061
0.525352
0.531477
0.541356
0.540091
0.546704
0.543918
0.538438
0.541522
0.530387
0.522291
0.51713
0.517266
0.522491
0.530457
0.53764
0.542331
0.545834
0.550804
0.553753
0.554782
0.55498
0.554531
0.552078
0.546358
0.541286
0.538569
0.533128
0.526253
0.521627
0.519435
0.523999
0.530805
0.54287
0.540953
0.542583
0.541681
0.539672
0.543454
0.534301
0.525083
0.517433
0.519083
0.524974
0.533565
0.541488
0.546112
0.548776
0.552342
0.554761
0.555674
0.555813
0.555403
0.553094
0.547965
0.544352
0.54095
0.535005
0.527695
0.52193
0.518941
0.523434
0.531256
0.544913
0.542596
0.543311
0.542428
0.541343
0.544782
0.537822
0.528501
0.52068
0.522453
0.527465
0.536086
0.544176
0.548892
0.551031
0.553845
0.555667
0.556289
0.556329
0.555961
0.55387
0.549696
0.547101
0.542781
0.535715
0.527843
0.521669
0.518861
0.523506
0.533022
0.546888
0.543212
0.544291
0.542532
0.543177
0.544756
0.535491
0.526145
0.523013
0.524815
0.529261
0.537821
0.546024
0.55086
0.553152
0.555242
0.556356
0.556598
0.556505
0.556166
0.554388
0.551391
0.549096
0.544022
0.535971
0.527219
0.520542
0.518871
0.521958
0.534661
0.548442
0.545028
0.544471
0.542709
0.544453
0.542147
0.5308
0.524982
0.523027
0.524688
0.530457
0.539116
0.547334
0.552333
0.554656
0.5561
0.556595
0.556548
0.556334
0.555974
0.55458
0.552503
0.550092
0.544513
0.536283
0.52759
0.519806
0.51771
0.522082
0.535021
0.546586
0.546571
0.544454
0.542671
0.542881
0.537153
0.527712
0.524323
0.523579
0.525396
0.531923
0.54003
0.547617
0.552699
0.555062
0.556102
0.556276
0.556096
0.555794
0.55536
0.554228
0.5525
0.54972
0.544154
0.536551
0.528539
0.520606
0.518701
0.524595
0.533475
0.542178
0.545093
0.543898
0.541711
0.538203
0.534212
0.526663
0.524981
0.524844
0.526961
0.533168
0.540326
0.546955
0.551837
0.554276
0.55524
0.555374
0.555181
0.554808
0.554233
0.553099
0.55123
0.548104
0.543073
0.536708
0.529701
0.52287
0.522923
0.528879
0.531491
0.538775
0.540657
0.542489
0.538831
0.534867
0.53239
0.526974
0.526938
0.526746
0.528834
0.534226
0.540303
0.545628
0.54993
0.55245
0.553617
0.553862
0.553681
0.553235
0.552477
0.55114
0.548931
0.545817
0.541656
0.537024
0.531341
0.526753
0.528308
0.53185
0.532232
0.53693
0.537942
0.539679
0.535053
0.532284
0.532193
0.529188
0.529486
0.528414
0.530758
0.535164
0.540236
0.544164
0.547523
0.550004
0.551321
0.551636
0.551424
0.550899
0.550027
0.548492
0.546108
0.543285
0.540251
0.537265
0.533124
0.530538
0.531544
0.534195
0.535638
0.538481
0.537639
0.536772
0.531997
0.531027
0.533877
0.532572
0.530985
0.530098
0.532456
0.53615
0.540079
0.542662
0.544819
0.546899
0.54813
0.548458
0.548163
0.547571
0.546711
0.545187
0.542958
0.540534
0.538516
0.536834
0.53413
0.5326
0.532493
0.534893
0.539447
0.542017
0.538779
0.535485
0.529877
0.533356
0.536494
0.534956
0.532171
0.531743
0.533473
0.536304
0.538984
0.540224
0.541318
0.542814
0.543935
0.544332
0.544049
0.543405
0.542595
0.541129
0.539237
0.537282
0.535987
0.535115
0.533536
0.532531
0.532695
0.534612
0.540914
0.545392
0.542022
0.534459
0.530612
0.536431
0.538255
0.53604
0.533107
0.532646
0.533128
0.534866
0.536108
0.536414
0.536848
0.537912
0.539085
0.539597
0.5394
0.538734
0.538016
0.536463
0.534755
0.533223
0.532352
0.531859
0.531036
0.530496
0.5316
0.533655
0.540217
0.546654
0.545006
0.535789
0.533485
0.53881
0.53991
0.536607
0.533193
0.531216
0.530822
0.531225
0.531532
0.531674
0.53178
0.532681
0.534096
0.534858
0.534725
0.534161
0.533481
0.5317
0.529946
0.528668
0.527947
0.527457
0.526967
0.526778
0.528432
0.531863
0.538317
0.546315
0.546146
0.53868
0.536465
0.541008
0.541678
0.535983
0.530659
0.527386
0.526499
0.525988
0.526229
0.526434
0.526755
0.528047
0.529874
0.531177
0.531039
0.530714
0.529943
0.52782
0.525703
0.524227
0.523138
0.522491
0.521993
0.522061
0.523053
0.527715
0.535793
0.54529
0.546101
0.540451
0.53868
0.542769
0.542129
0.531736
0.525786
0.521591
0.520565
0.519995
0.52077
0.521624
0.522909
0.524854
0.527209
0.52893
0.529019
0.528827
0.527993
0.525713
0.523102
0.520981
0.518966
0.517523
0.516456
0.5164
0.516468
0.521722
0.529869
0.543521
0.545233
0.541102
0.540281
0.542384
0.538247
0.529302
0.520552
0.515579
0.514022
0.514194
0.516031
0.518252
0.520667
0.523195
0.52592
0.527777
0.527975
0.527846
0.527059
0.524851
0.522071
0.519472
0.516369
0.513544
0.511209
0.51028
0.510727
0.517159
0.527264
0.536915
0.542536
0.541139
0.540724
0.535936
0.534179
0.52737
0.517936
0.510908
0.508683
0.509425
0.512624
0.516294
0.519716
0.522448
0.525215
0.526927
0.527162
0.527036
0.526292
0.524294
0.521622
0.518988
0.515073
0.51097
0.506603
0.505299
0.507293
0.516107
0.525875
0.532446
0.53471
0.540339
0.538368
0.530468
0.530023
0.524453
0.517624
0.509988
0.5064
0.506202
0.510582
0.515147
0.519132
0.521865
0.524576
0.52604
0.526374
0.526238
0.52552
0.523779
0.521214
0.518609
0.51427
0.509361
0.502923
0.502914
0.50761
0.516168
0.522694
0.529257
0.529981
0.53697
0.533786
0.526454
0.526958
0.521276
0.515635
0.509205
0.506624
0.506189
0.509893
0.514292
0.518498
0.521319
0.523968
0.525215
0.525596
0.525469
0.524788
0.523293
0.520795
0.518144
0.513743
0.507976
0.502369
0.503484
0.508145
0.514577
0.519958
0.52671
0.526755
0.531917
0.529042
0.523688
0.525138
0.518697
0.514206
0.508182
0.506557
0.507807
0.51035
0.513807
0.517801
0.520874
0.5234
0.524488
0.524873
0.524747
0.524131
0.522805
0.520393
0.517525
0.513171
0.506917
0.503725
0.505077
0.507927
0.513484
0.517956
0.525085
0.523859
0.527907
0.525074
0.521334
0.524362
0.517908
0.514379
0.508897
0.5077
0.508912
0.510987
0.513755
0.517283
0.520502
0.522868
0.523857
0.524239
0.52408
0.523536
0.522323
0.519974
0.517022
0.512325
0.506845
0.506011
0.507238
0.509688
0.513891
0.517324
0.524551
0.521613
0.524353
0.520359
0.520806
0.525477
0.519644
0.517268
0.511964
0.509548
0.509689
0.511594
0.513831
0.516766
0.520032
0.522243
0.523193
0.523572
0.523376
0.522883
0.521756
0.519421
0.516372
0.51126
0.507213
0.507665
0.510461
0.513573
0.516712
0.519042
0.525823
0.521407
0.519959
0.516316
0.521112
0.525517
0.522057
0.52043
0.515116
0.510797
0.509376
0.510575
0.512377
0.515002
0.518089
0.520137
0.521065
0.521433
0.521241
0.520764
0.519674
0.517338
0.514279
0.509118
0.506357
0.508397
0.513116
0.516358
0.519978
0.521548
0.525543
0.521853
0.516162
0.504373
0.512084
0.516376
0.514726
0.512819
0.507109
0.501915
0.499428
0.499518
0.500855
0.503187
0.505957
0.507873
0.508762
0.509117
0.508967
0.508475
0.507393
0.505053
0.501978
0.497427
0.495882
0.49962
0.504101
0.507937
0.512749
0.514643
0.516067
0.512599
0.504343
0.462903
0.472687
0.479095
0.478676
0.476426
0.470549
0.465893
0.463634
0.463157
0.463895
0.465881
0.468382
0.470205
0.471078
0.471466
0.471336
0.470807
0.4697
0.467325
0.464295
0.460559
0.460163
0.464146
0.467545
0.471146
0.476639
0.478916
0.479063
0.473119
0.462895
0.438399
0.448353
0.456993
0.457008
0.454469
0.4497
0.446804
0.445317
0.445295
0.445937
0.447435
0.449626
0.451499
0.452387
0.45282
0.452699
0.452091
0.450924
0.448455
0.445702
0.442731
0.442721
0.445614
0.447978
0.450063
0.454695
0.457233
0.457171
0.448904
0.438507
0.422264
0.431907
0.440987
0.44046
0.438196
0.435064
0.434422
0.433815
0.434371
0.435371
0.436444
0.438088
0.439963
0.440878
0.441302
0.441194
0.440493
0.439245
0.436783
0.434537
0.432199
0.432029
0.433697
0.435177
0.435365
0.438381
0.440609
0.441024
0.432605
0.422637
0.407757
0.416453
0.425364
0.424657
0.423822
0.422722
0.423808
0.424136
0.42506
0.426394
0.427363
0.42833
0.430078
0.430986
0.431376
0.431249
0.430481
0.429153
0.426851
0.425204
0.423224
0.422802
0.423488
0.424112
0.422894
0.42396
0.424587
0.425046
0.417012
0.408305
0.392884
0.399984
0.408832
0.409646
0.411148
0.412139
0.414105
0.415221
0.416373
0.417834
0.418942
0.419377
0.420858
0.421698
0.422047
0.421867
0.421053
0.419658
0.417655
0.416476
0.414734
0.414101
0.414124
0.413857
0.412052
0.411106
0.409198
0.408071
0.400352
0.393394
0.377562
0.382548
0.391817
0.395796
0.399877
0.40208
0.404852
0.406708
0.407939
0.409305
0.410564
0.410834
0.411963
0.412737
0.413009
0.41278
0.411944
0.410491
0.408888
0.407898
0.406397
0.405704
0.405288
0.403963
0.401477
0.399366
0.394786
0.390259
0.38254
0.376712
0.361785
0.36585
0.376141
0.383843
0.389065
0.392054
0.39555
0.398083
0.399378
0.400536
0.401909
0.402363
0.403096
0.403821
0.404031
0.403789
0.402943
0.401513
0.40042
0.399337
0.397982
0.397361
0.396397
0.394036
0.39068
0.387732
0.381746
0.37359
0.364632
0.360386
0.34569
0.349373
0.363843
0.372682
0.378167
0.381475
0.385543
0.388757
0.390449
0.391418
0.392724
0.393581
0.393955
0.394634
0.394852
0.394606
0.39374
0.392489
0.391876
0.390595
0.389371
0.388755
0.386943
0.383706
0.379605
0.375988
0.369649
0.3607
0.347931
0.344251
0.33006
0.33659
0.352599
0.361333
0.366558
0.37023
0.374598
0.37819
0.380649
0.381725
0.382994
0.38411
0.384231
0.384798
0.3851
0.384862
0.383972
0.383027
0.382725
0.381428
0.380289
0.37927
0.376583
0.372859
0.368314
0.363938
0.358238
0.349672
0.335295
0.328619
0.317114
0.325187
0.340543
0.348286
0.353628
0.357451
0.362216