/*--------------------------------*- C++ -*----------------------------------*\
| =========                 |                                                 |
| \\      /  F ield         | OpenFOAM: The Open Source CFD Toolbox           |
|  \\    /   O peration     | Version:  v1606+                                |
|   \\  /    A nd           | Web:      www.OpenFOAM.com                      |
|    \\/     M anipulation  |                                                 |
\*---------------------------------------------------------------------------*/
FoamFile
{
    version     2.0;
    format      ascii;
    class       volScalarField;
    location    "0.6";
    object      Theta.particles;
}
// * * * * * * * * * * * * * * * * * * * * * * * * * * * * * * * * * * * * * //

dimensions      [0 2 -2 0 0 0 0];

internalField   nonuniform List<scalar> 
6000
(
0.000486961
0.000242173
0.000245378
0.000242036
0.000250399
0.000277418
0.000317153
0.000355175
0.000392096
0.00044225
0.000525027
0.00061876
0.0007179
0.000764605
0.000769567
0.000773369
0.000755131
0.000710113
0.000594987
0.000499303
0.000425573
0.000380844
0.000347051
0.000310755
0.000272161
0.000247123
0.000241157
0.000249037
0.000245015
0.000484225
0.000213031
0.000193448
0.000190602
0.000189711
0.000194104
0.00020504
0.000214102
0.000220351
0.000225187
0.000235304
0.000238371
0.000233571
0.000224819
0.000215643
0.000210919
0.000211453
0.000217594
0.000227089
0.000235275
0.000238334
0.000233349
0.000223508
0.00021968
0.000213508
0.000204284
0.00019349
0.000189231
0.000190061
0.000192025
0.000211224
0.000307892
0.00034511
0.000364403
0.000363651
0.000353554
0.000325414
0.000287891
0.000256838
0.000233372
0.000219132
0.00019955
0.000196122
0.000198225
0.000194387
0.000189632
0.00019002
0.000195929
0.000197999
0.000196378
0.000203901
0.000223411
0.000237903
0.000264394
0.000295906
0.000332488
0.000355549
0.000361787
0.000359605
0.000338315
0.000303121
0.000489568
0.000470383
0.000501223
0.00052801
0.000556078
0.000579086
0.000559888
0.000481869
0.000370761
0.000277307
0.000215974
0.0001994
0.000185607
0.000171383
0.000162458
0.000163827
0.00017449
0.000189704
0.000202134
0.000225322
0.000297528
0.000399038
0.000507358
0.000572749
0.000580401
0.000553053
0.000522665
0.000491493
0.00045838
0.000475886
0.000622078
0.000489515
0.000487399
0.000510331
0.000559335
0.000640858
0.000746373
0.000824364
0.000820721
0.000705982
0.000490954
0.000308018
0.000221032
0.000188438
0.000179568
0.000180606
0.000193227
0.000236611
0.000342576
0.000550123
0.000746318
0.000834291
0.000811483
0.000729573
0.000629761
0.000554079
0.000508247
0.000484788
0.000482453
0.00061322
0.00039542
0.000289294
0.000276536
0.000291798
0.000324629
0.000379375
0.000449496
0.000533203
0.000622335
0.000749147
0.000859642
0.000691459
0.000405964
0.000233632
0.00019529
0.000199698
0.000259995
0.000476751
0.000754664
0.000848086
0.00071191
0.000600971
0.000516384
0.000438915
0.000373804
0.000322365
0.000290892
0.000275396
0.000284712
0.000390311
0.000279641
0.000201301
0.000185668
0.000193369
0.000220848
0.000297108
0.000384477
0.000465123
0.000511785
0.00052434
0.000553693
0.000588601
0.000546488
0.000338719
0.000196643
0.00021457
0.000400866
0.000568588
0.000581475
0.000532829
0.000518749
0.000500091
0.000452582
0.000374745
0.000292039
0.000219069
0.000192533
0.000184425
0.000198906
0.000276237
0.000234958
0.000167678
0.000144526
0.00014828
0.000173864
0.000218361
0.000317061
0.000405058
0.000462306
0.000479537
0.000478987
0.000476117
0.00040213
0.000317943
0.000213711
0.00023277
0.000334742
0.000425427
0.000471608
0.000470153
0.000467291
0.000450706
0.000393068
0.000310254
0.000214568
0.000172532
0.000147737
0.000143296
0.000164785
0.000233571
0.000188639
0.000146417
0.000119509
0.00012029
0.000137297
0.000175904
0.000229402
0.000364287
0.000445203
0.000460586
0.000453282
0.000432019
0.00039548
0.000256414
0.000189893
0.000201085
0.000311337
0.00040341
0.000427907
0.000447467
0.000450519
0.000431888
0.000351621
0.000224878
0.000175175
0.000136914
0.000120002
0.000118722
0.000143224
0.000187065
0.000162301
0.000130522
0.000107249
0.00010301
0.000109254
0.000133579
0.000187619
0.00029908
0.000417099
0.00045051
0.0004467
0.000422389
0.000386372
0.000267612
0.000153177
0.000162124
0.000306441
0.000389463
0.000416024
0.000440591
0.000438092
0.000401086
0.000285125
0.000183375
0.000132718
0.000109955
0.000103526
0.0001067
0.000128639
0.000161343
0.000145535
0.000119674
0.000100454
9.34911e-05
9.45872e-05
0.000107132
0.000144616
0.000215106
0.00037423
0.000440166
0.000445653
0.000419262
0.00038628
0.000265987
0.000146216
0.000150737
0.000298469
0.000386419
0.000413771
0.00043548
0.000428023
0.000353903
0.000206116
0.000142578
0.000107622
9.51721e-05
9.36753e-05
9.96573e-05
0.000117987
0.000145119
0.000131556
0.000110537
9.50213e-05
8.77346e-05
8.50509e-05
9.20783e-05
0.000116487
0.00017356
0.000312242
0.000422856
0.000435438
0.000419057
0.000383109
0.000243757
0.000138228
0.000145158
0.00028192
0.000381079
0.000414491
0.000421607
0.00040085
0.000288429
0.000166725
0.000115018
9.19935e-05
8.52777e-05
8.75988e-05
9.41342e-05
0.000109201
0.000131436
0.000121502
0.000102481
9.01089e-05
8.37836e-05
8.06162e-05
8.21053e-05
9.99831e-05
0.000146176
0.000241414
0.000390516
0.00043554
0.000423251
0.000369447
0.000199106
0.000121698
0.000122321
0.000251105
0.000367404
0.000411358
0.000417636
0.000363029
0.000214271
0.000139065
9.76666e-05
8.18273e-05
8.11227e-05
8.42346e-05
9.00366e-05
0.000102234
0.000122335
0.000113978
9.56528e-05
8.67231e-05
8.1623e-05
7.89145e-05
7.92294e-05
9.02555e-05
0.000125533
0.000201171
0.000355457
0.000436006
0.000436434
0.00034183
0.000150403
0.000121097
0.000106236
0.000175499
0.000350701
0.000420451
0.000408281
0.000320191
0.000184425
0.000118332
8.99088e-05
8.20068e-05
8.23294e-05
8.60813e-05
9.12777e-05
9.78701e-05
0.000116222
0.000112387
0.000106556
0.00010137
9.615e-05
9.08418e-05
8.54454e-05
8.77988e-05
0.000113957
0.000178746
0.000309681
0.000426673
0.000436964
0.000284661
0.000133247
4.35784e-05
6.52235e-05
0.000148802
0.000311461
0.00041784
0.000392495
0.00026109
0.000160463
0.000110786
9.3919e-05
0.000100041
0.000104975
0.000108509
0.000111644
0.000115347
0.00012032
0.000128595
0.000125917
0.000123131
0.000121177
0.000119158
0.000116371
0.000106685
0.00011024
0.000154217
0.000260898
0.000403178
0.000422247
0.000202049
9.58758e-05
5.3561e-05
5.93413e-05
0.000126415
0.000219555
0.000409735
0.000364977
0.000225144
0.000144365
0.000121893
0.000132742
0.000136444
0.000135175
0.000134011
0.000133691
0.000135676
0.000138485
0.000147767
0.000145069
0.000145158
0.000148513
0.000151953
0.000153257
0.000154359
0.000138285
0.000152379
0.000227108
0.000342788
0.000364506
0.000174533
8.72127e-05
7.46825e-05
7.79364e-05
0.000100341
0.000191188
0.000359998
0.000309851
0.000203253
0.000168256
0.000172337
0.000175357
0.000169415
0.000163199
0.000157978
0.00015331
0.000152227
0.000153986
0.000162889
0.000162823
0.000168034
0.000175685
0.000181995
0.000192695
0.000202851
0.000213707
0.000183621
0.000223748
0.00031258
0.000358558
0.000190679
0.000105272
9.69529e-05
9.90918e-05
0.000113218
0.000219959
0.000360683
0.000300054
0.000226398
0.000215389
0.000242065
0.00022599
0.000196392
0.000184813
0.000178842
0.00017165
0.000166061
0.000164294
0.000171868
0.000171643
0.000176827
0.000182001
0.000189229
0.000195149
0.000222513
0.000242276
0.000252473
0.000229115
0.000310058
0.000361777
0.000236621
0.000127611
0.000117358
0.000118993
0.000134641
0.00026529
0.000375735
0.000300322
0.000243567
0.000271534
0.000265841
0.000210943
0.000181448
0.000171869
0.000166885
0.00016852
0.000167836
0.000168922
0.000176501
0.000173847
0.000176458
0.000180015
0.000187521
0.000197848
0.000200488
0.000240586
0.000260786
0.00025436
0.000274808
0.000356814
0.000270289
0.000148161
0.000134658
0.00013586
0.000152521
0.000277675
0.000365208
0.000269083
0.000248629
0.000254447
0.000227042
0.000186826
0.000183069
0.000178706
0.000170802
0.000164265
0.000160674
0.000166077
0.000204299
0.000191396
0.000193253
0.000197093
0.000195007
0.000196513
0.000195329
0.000227075
0.000244325
0.000244737
0.000247404
0.00031459
0.0002673
0.000158951
0.000145675
0.00014627
0.000159829
0.000270765
0.000295094
0.000237932
0.000235697
0.000229044
0.000207938
0.000190063
0.000198295
0.000200459
0.000200891
0.000190028
0.00018089
0.00018946
0.00029049
0.00022926
0.00021694
0.000220066
0.000215428
0.000214708
0.000213574
0.000216324
0.000230873
0.000234729
0.000226895
0.000238194
0.000249887
0.000163005
0.000151882
0.000152274
0.000164441
0.000248932
0.000226034
0.000218949
0.000224812
0.000225846
0.00021208
0.000214442
0.00022335
0.000222313
0.000227197
0.000221405
0.000226903
0.000288812
0.000619409
0.000295342
0.000218053
0.000202901
0.000203482
0.000217697
0.000234828
0.000216147
0.000223184
0.000226666
0.000219518
0.00021377
0.000213999
0.000165726
0.000155694
0.000155674
0.000164089
0.000208514
0.000207945
0.00021379
0.000216028
0.000214145
0.000218598
0.000239282
0.000222727
0.000205695
0.000202785
0.00022105
0.000308298
0.000728622
0.00236918
0.000994417
0.000288712
0.00018898
0.000182376
0.000207481
0.000253519
0.000252406
0.000214333
0.00021437
0.0002099
0.000198484
0.000184203
0.000155073
0.000152987
0.000152632
0.000154403
0.000177516
0.000192874
0.000203191
0.000206502
0.000211729
0.000266833
0.0002687
0.000217438
0.000192261
0.000202348
0.000325941
0.00110831
0.00262505
0.00697457
0.00413856
0.00297049
0.00132873
0.000744191
0.00064007
0.000982572
0.00111636
0.000258606
0.000209496
0.000197913
0.000174035
0.000152407
0.00013922
0.000142928
0.000146082
0.000139016
0.000147172
0.000168623
0.00019264
0.000206211
0.000279233
0.00141407
0.00118119
0.000817785
0.000960289
0.00162407
0.00323121
0.00427265
0.0073746
0.0129626
0.00445374
0.00412972
0.00462746
0.00445823
0.00394895
0.0037725
0.00384662
0.00184312
0.000221887
0.000186981
0.000155082
0.000127692
0.000119011
0.000133068
0.000145646
0.000119519
0.000124031
0.00015278
0.0001852
0.000220232
0.0019767
0.00376219
0.00370362
0.00403503
0.00449077
0.0045159
0.00400871
0.00452882
0.0130338
0.011638
0.00366875
0.00168781
0.00158521
0.00198128
0.00207973
0.00166383
0.00149321
0.00315712
0.00180154
0.000173201
0.00013846
0.000106198
9.69467e-05
0.000154983
0.000275532
0.000104319
0.000107298
0.000146247
0.0001759
0.00155781
0.00266545
0.00134979
0.0014334
0.00176718
0.00170612
0.00146934
0.00170844
0.00377481
0.0118054
0.00952429
0.0031761
0.00150392
0.00109686
0.000989965
0.000979721
0.000982318
0.000968081
0.00109999
0.00210528
0.000562633
0.000123698
8.96093e-05
7.91393e-05
0.00052632
0.00115727
9.88557e-05
9.88747e-05
0.000140156
0.00030708
0.00187608
0.00110534
0.000955292
0.000977174
0.000977239
0.000993023
0.00111349
0.00155366
0.00327017
0.00946531
0.00751916
0.0028364
0.00145655
0.00108536
0.000983741
0.000971717
0.000980906
0.000965187
0.000890475
0.00128021
0.0022846
0.000278605
8.74284e-05
0.000203232
0.00144053
0.000899706
0.000200482
9.70522e-05
0.000137575
0.000927959
0.00130059
0.000869285
0.000947027
0.000974428
0.000972815
0.000989661
0.00109957
0.00150005
0.00295342
0.00749575
0.0061151
0.0024947
0.00134677
0.00105172
0.00098583
0.000993387
0.00100591
0.000986638
0.000908534
0.000768819
0.00138993
0.00214723
0.000284504
0.00160763
0.000708955
0.000529902
0.00057483
0.000145959
0.000367785
0.00181465
0.000836787
0.000860199
0.000966547
0.000994686
0.000988834
0.0009901
0.00106813
0.00138586
0.00258486
0.00611848
0.00541921
0.00223363
0.00126455
0.00103535
0.00100388
0.00102487
0.00103149
0.0010093
0.00092318
0.00075826
0.000539725
0.00140153
0.00152829
0.000820938
0.000323431
0.000388311
0.000827042
0.000361841
0.00175269
0.00067068
0.000688626
0.000876619
0.000987844
0.00102243
0.00102032
0.00100615
0.00105038
0.00130695
0.00232515
0.00529791
0.00523021
0.00192808
0.00110841
0.000999721
0.00102611
0.00105428
0.00105275
0.00102317
0.000930056
0.00077633
0.00048679
0.000304778
0.000767134
0.000179564
0.000259413
0.000300704
0.00025678
0.000927871
0.00049458
0.000422315
0.000724594
0.000884655
0.00100127
0.00104339
0.00104947
0.00103324
0.00102003
0.0011568
0.00201798
0.00508458
0.00499251
0.0015335
0.000991271
0.000989659
0.00104424
0.00107092
0.00106175
0.00102535
0.000932826
0.000782151
0.000549285
0.000252232
0.000194548
0.000139827
0.000188698
0.000212225
0.000135533
0.000291144
0.000230215
0.0004565
0.000733452
0.000888779
0.00100464
0.00105264
0.00106574
0.00105557
0.00101196
0.00103109
0.00163181
0.00495422
0.00436759
0.00130195
0.000950103
0.000988135
0.00105929
0.00107588
0.00106293
0.00101854
0.000933287
0.000772219
0.000595314
0.0002575
0.000167398
0.000106597
0.000138677
0.000156892
0.000110028
0.000147732
0.000220195
0.000509615
0.000728072
0.000889938
0.000999086
0.001054
0.0010718
0.00106825
0.00101038
0.000976436
0.0013594
0.00445222
0.00394952
0.00119941
0.000937085
0.000996719
0.00106837
0.00107594
0.00105437
0.00100537
0.000912172
0.000757702
0.000611052
0.000298265
0.000155353
8.92594e-05
0.000103492
0.000117334
8.45732e-05
0.00013686
0.000221402
0.000540052
0.000711871
0.000873466
0.000985226
0.00104422
0.00107306
0.00107506
0.00101677
0.000957437
0.00124261
0.00398325
0.00370265
0.00113192
0.000933411
0.0010152
0.00106564
0.00106008
0.00103636
0.000976981
0.000869593
0.000734859
0.000594663
0.000338725
0.000152976
8.54908e-05
7.99922e-05
8.94087e-05
7.46993e-05
0.000132893
0.000250102
0.000542547
0.00069459
0.000832125
0.000958753
0.00102977
0.00106179
0.00106816
0.00102559
0.000950595
0.00118393
0.00376922
0.00323388
0.00100166
0.000933127
0.00102074
0.00105017
0.00104128
0.00100376
0.00092305
0.000820791
0.000685901
0.000559927
0.000356665
0.000155157
9.53455e-05
6.75673e-05
7.20386e-05
7.51924e-05
0.000136689
0.000281145
0.00051743
0.000652443
0.000791982
0.000904497
0.000999599
0.00104212
0.00105189
0.00102666
0.00094809
0.00107872
0.00342046
0.00257226
0.000890215
0.000944077
0.00102098
0.00103259
0.00101482
0.000960353
0.000860113
0.000756214
0.000644657
0.000536382
0.000356694
0.000139163
9.9666e-05
6.3256e-05
6.45664e-05
8.47987e-05
0.000122268
0.000285886
0.000495897
0.000611985
0.000734458
0.000845003
0.000956224
0.00101697
0.0010344
0.00101983
0.000952661
0.000942085
0.0027977
0.00201497
0.00084448
0.000968366
0.00101417
0.00101851
0.000990293
0.000910086
0.000794568
0.000696653
0.000592819
0.000494796
0.000350806
0.000131386
9.92715e-05
6.61833e-05
6.39216e-05
9.05329e-05
0.000112596
0.000285082
0.000460257
0.000562616
0.000675375
0.000784863
0.000906597
0.000991947
0.00102011
0.00101182
0.000967616
0.000876181
0.00220104
0.00165793
0.000826331
0.000980018
0.00100843
0.00100945
0.000956536
0.000849935
0.000735994
0.000631589
0.000540732
0.000455597
0.000332667
0.000117847
8.42219e-05
7.3992e-05
6.97563e-05
8.59421e-05
9.71543e-05
0.000275624
0.000421232
0.000514931
0.000615316
0.00072594
0.000847544
0.000960301
0.0010118
0.00100553
0.000981379
0.00084405
0.00179213
0.00142589
0.000836979
0.000984651
0.00100885
0.000987427
0.000908518
0.000787553
0.000670134
0.000573897
0.000492331
0.000411247
0.000298068
0.000107415
6.80316e-05
7.5761e-05
7.17496e-05
6.81826e-05
8.70334e-05
0.000254152
0.000381502
0.000468862
0.000560749
0.00066405
0.000785288
0.000913651
0.000992211
0.00100599
0.000985979
0.000837682
0.00149775
0.00131768
0.000849182
0.000986466
0.0010015
0.000952082
0.000848068
0.000719936
0.000610001
0.00052169
0.000446031
0.000371346
0.000259667
9.65376e-05
5.84749e-05
6.94057e-05
6.55202e-05
5.70144e-05
8.25182e-05
0.000225303
0.000342552
0.00042624
0.000511065
0.000607552
0.000720264
0.000851102
0.000955962
0.00100127
0.00098732
0.000847622
0.00133133
0.00123551
0.000845147
0.000979416
0.000977008
0.000908556
0.000787439
0.000659589
0.000553805
0.000472265
0.000406743
0.000337624
0.000224769
8.83288e-05
5.55266e-05
6.10748e-05
5.75787e-05
5.34567e-05
7.81904e-05
0.000198794
0.00031183
0.000389371
0.000463561
0.000551645
0.00065983
0.000786831
0.000910105
0.000978228
0.00097951
0.000847596
0.00124481
0.0011133
0.000821356
0.000963379
0.000949686
0.000865092
0.000729491
0.000601302
0.000497625
0.000426242
0.000369342
0.000304214
0.000196643
8.18484e-05
5.55523e-05
5.8555e-05
5.6069e-05
5.40788e-05
7.39638e-05
0.000177006
0.000282629
0.00035448
0.00041942
0.000497289
0.000599875
0.000723637
0.000859111
0.000945472
0.000960867
0.000828491
0.00113419
0.00102789
0.000803415
0.00094219
0.000918566
0.000818703
0.000669486
0.000537726
0.000443971
0.000382683
0.000333342
0.000273706
0.000175718
7.71024e-05
5.79238e-05
5.93904e-05
5.85084e-05
5.69669e-05
6.98535e-05
0.000160811
0.000257017
0.000321728
0.000379467
0.000445631
0.000535713
0.000656188
0.000803359
0.000909299
0.000936048
0.000807319
0.00103442
0.00100631
0.00079601
0.000905716
0.000874456
0.000758402
0.000599996
0.000472321
0.000393158
0.000342806
0.000300899
0.000245561
0.000156896
7.24232e-05
5.98124e-05
6.46747e-05
6.33039e-05
5.76113e-05
6.71322e-05
0.000145786
0.000234183
0.000293501
0.000342387
0.000396759
0.000469386
0.000579682
0.000731022
0.000858079
0.000897804
0.000796386
0.00100896
0.00100282
0.000783064
0.000855436
0.000815634
0.000681387
0.000522053
0.000411179
0.000348342
0.000308848
0.000271813
0.000221557
0.000139846
7.07582e-05
5.98833e-05
6.55784e-05
6.4451e-05
5.77336e-05
6.63475e-05
0.000131737
0.000214445
0.000268873
0.000310995
0.000352731
0.000407405
0.000496637
0.000638434
0.000791318
0.000847433
0.000784665
0.00100924
0.000985772
0.000764605
0.000801567
0.000743682
0.000595799
0.000447802
0.000358785
0.000310555
0.000279523
0.000247404
0.000200841
0.000123454
7.05903e-05
6.18493e-05
6.56501e-05
6.66354e-05
6.10258e-05
6.60322e-05
0.000118757
0.000197966
0.00024785
0.000282895
0.000315058
0.000354613
0.000418817
0.000538888
0.000709065
0.000796012
0.00077597
0.00101077
0.000926337
0.000757494
0.000744862
0.000661066
0.000506143
0.000382743
0.000314452
0.000277662
0.000252342
0.000224661
0.000181219
0.000112062
7.01735e-05
6.59586e-05
7.19477e-05
7.20807e-05
6.57172e-05
6.85937e-05
0.000112094
0.000182966
0.000228587
0.000257374
0.000281156
0.000307529
0.000351769
0.000443657
0.000601417
0.000733578
0.000770117
0.000979447
0.000868827
0.00075764
0.00069028
0.000567841
0.000420719
0.000324956
0.000276962
0.000249708
0.000228334
0.000202697
0.000160339
0.00010492
7.19071e-05
6.94173e-05
7.58047e-05
7.66268e-05
7.09163e-05
7.24582e-05
0.000108036
0.000167595
0.000210595
0.000234749
0.000251715
0.000268092
0.000294767
0.000356694
0.000489813
0.00066168
0.000772832
0.000915439
0.000846613
0.000759375
0.000637663
0.000480146
0.000345644
0.000276044
0.000242693
0.000222679
0.000204798
0.000180219
0.000135273
9.91565e-05
7.47995e-05
7.46655e-05
8.14951e-05
8.27775e-05
7.78669e-05
7.85103e-05
0.000105389
0.000149152
0.000191263
0.000211722
0.00022398
0.000234435
0.000250106
0.000290612
0.000394373
0.00057884
0.000776898
0.000885487
0.000857604
0.000774898
0.000588979
0.000396823
0.00028064
0.000232731
0.000211237
0.000195759
0.000178435
0.000152051
0.000120896
9.62325e-05
7.93902e-05
8.05137e-05
8.70765e-05
8.88203e-05
8.47438e-05
8.57366e-05
0.00010449
0.000131037
0.000165618
0.000185709
0.000196122
0.00020417
0.000214607
0.000241367
0.000316617
0.000493717
0.000766399
0.000884453
0.000892985
0.00078263
0.000527363
0.000319138
0.00022476
0.000191642
0.000176626
0.000163645
0.000144276
0.00012557
0.000112593
9.56368e-05
8.51008e-05
8.61622e-05
9.11639e-05
9.28215e-05
8.99786e-05
9.24454e-05
0.000105521
0.000122956
0.000134367
0.000151013
0.00016201
0.000168912
0.00017824
0.000199934
0.000256359
0.000416175
0.000735069
0.000894008
0.000911364
0.000734718
0.000445075
0.000254044
0.000177527
0.00015078
0.000135661
0.000124565
0.000120338
0.000115416
0.000107419
9.66005e-05
8.95132e-05
8.96206e-05
9.29627e-05
9.46425e-05
9.35419e-05
9.71568e-05
0.00010696
0.00011836
0.000124041
0.000125521
0.000125981
0.000126697
0.000139032
0.000158744
0.000205484
0.000333592
0.000673478
0.000901749
0.000863821
0.000668937
0.000373534
0.000200616
0.000130795
0.000112307
0.000109506
0.000110331
0.000110579
0.000108991
0.000103899
9.64368e-05
9.12411e-05
9.06426e-05
9.27548e-05
9.43912e-05
9.48028e-05
9.8415e-05
0.000105855
0.000113197
0.000116434
0.000116532
0.000114993
0.000112388
0.000111272
0.000120277
0.000164447
0.000269957
0.000578915
0.000862182
0.000795892
0.000604933
0.000308919
0.000159661
0.0001079
9.74656e-05
9.8165e-05
0.000101835
0.000103715
0.000102927
9.92929e-05
9.38054e-05
9.00741e-05
8.94034e-05
9.07135e-05
9.20617e-05
9.32673e-05
9.58353e-05
0.000100616
0.000105515
0.000108241
0.00010887
0.000108188
0.000106003
0.000103577
0.000106485
0.00013177
0.000217698
0.000445699
0.000797547
0.000727836
0.000505944
0.000252213
0.00012883
9.63816e-05
8.98254e-05
9.21045e-05
9.61392e-05
9.7847e-05
9.69697e-05
9.37112e-05
8.93957e-05
8.69846e-05
8.66159e-05
8.73433e-05
8.82328e-05
8.94768e-05
9.08013e-05
9.31422e-05
9.67679e-05
0.000100116
0.000102085
0.000102685
0.000102241
0.000101596
0.000102994
0.000115272
0.000177917
0.000360014
0.000679773
0.000640057
0.000401311
0.000204328
0.000115781
9.18227e-05
8.7739e-05
9.00961e-05
9.32286e-05
9.42527e-05
9.29032e-05
8.966e-05
8.6465e-05
8.51627e-05
8.52131e-05
8.58048e-05
8.66213e-05
8.7841e-05
8.88786e-05
9.02532e-05
9.2592e-05
9.55939e-05
9.85472e-05
0.00010073
0.000101982
0.000103151
0.000105491
0.000113625
0.000144178
0.00028052
0.000548751
0.000565406
0.000315359
0.000160976
0.000110412
9.47611e-05
9.14891e-05
9.24372e-05
9.38509e-05
9.69037e-05
9.89776e-05
9.93734e-05
9.93034e-05
9.99437e-05
0.000101251
0.000102804
0.000104485
0.000106381
0.0001082
0.000110136
0.00011269
0.000115492
0.000117192
0.000116663
0.000113199
0.000109343
0.000115031
0.000121691
0.000138845
0.000216504
0.000424822
0.000465238
0.000232121
0.000147022
0.000116802
0.000105169
0.000102161
0.000107066
0.00011063
0.000112935
0.000113808
0.000113721
0.000113589
0.000113909
0.000114638
0.000115597
0.000116765
0.000118229
0.000119989
0.000122295
0.000125613
0.000130097
0.000135186
0.000140121
0.000143868
0.000145492
0.000142605
0.000137003
0.000149888
0.000202671
0.000327354
0.000357309
0.000205242
0.000154375
0.000132507
0.000125546
0.00012576
0.000124936
0.000124616
0.000124172
0.000123414
0.000122515
0.000121775
0.000121374
0.000121312
0.000121521
0.000121986
0.000122815
0.000124223
0.000126532
0.00013022
0.000135707
0.000142837
0.000151392
0.000160803
0.000171182
0.000179409
0.000181813
0.000169792
0.000211441
0.000318601
0.000328442
0.000210946
0.000169001
0.000156594
0.000149254
0.000142161
0.000137534
0.000134484
0.000132272
0.000130502
0.000129021
0.00012782
0.000126909
0.000126258
0.000125817
0.000125591
0.000125673
0.000126343
0.000127959
0.000131262
0.000137201
0.000145839
0.000156916
0.000169099
0.00018569
0.000198745
0.00020935
0.000215753
0.000225272
0.000310914
0.000332133
0.000215249
0.000188491
0.000176009
0.000162869
0.000153251
0.000146809
0.000142412
0.000139279
0.000136933
0.00013509
0.000133594
0.000132342
0.000131232
0.00013017
0.000129101
0.000128049
0.000127182
0.000126985
0.000128466
0.000132596
0.000138366
0.00014819
0.000161648
0.00017886
0.000195987
0.000212708
0.000223006
0.000238784
0.00028183
0.000323009
0.000229014
0.000198283
0.000182811
0.0001703
0.000160693
0.000153871
0.000149088
0.00014567
0.00014316
0.000141246
0.000139704
0.000138359
0.000137038
0.000135577
0.000133836
0.00013165
0.000128991
0.000126015
0.000123797
0.00012466
0.000130997
0.000135972
0.000142998
0.000163696
0.000175518
0.000203728
0.000212969
0.000222376
0.000240222
0.00029747
0.000218511
0.000196243
0.000183936
0.000173778
0.000165369
0.000159105
0.000154648
0.000151495
0.000149254
0.000147628
0.000146374
0.000145284
0.000144152
0.000142786
0.000141006
0.000138588
0.000135167
0.000130925
0.000126592
0.000125308
0.000128324
0.000134588
0.00014383
0.000163393
0.000176071
0.000195429
0.000199857
0.000202503
0.000201847
0.000269582
0.000206873
0.000190782
0.000182167
0.000174515
0.000167871
0.000162771
0.000159191
0.000156772
0.000155194
0.000154197
0.000153536
0.000153
0.000152375
0.000151491
0.000150215
0.000148398
0.000145851
0.000142576
0.000139027
0.000135684
0.000134695
0.000142365
0.000139398
0.000167145
0.000185584
0.000216555
0.000184029
0.000179157
0.00017388
0.000248762
0.000198947
0.000185448
0.000179006
0.000173613
0.000168874
0.000165311
0.000162917
0.000161527
0.000160908
0.000160782
0.000160883
0.000161022
0.000160984
0.00016063
0.000159902
0.000158769
0.000157163
0.000155178
0.000153537
0.00015243
0.00014899
0.00014532
0.000148527
0.00015316
0.00019075
0.000207774
0.000182556
0.000156405
0.000150723
0.000232118
0.000192027
0.000180134
0.000175192
0.000171685
0.000168808
0.000166799
0.000165882
0.000165756
0.000166231
0.000167081
0.000167997
0.000168837
0.000169369
0.000169455
0.00016908
0.000168317
0.000167232
0.000165983
0.000165102
0.000165056
0.000162301
0.000152497
0.00015264
0.000162902
0.000175185
0.000179501
0.000186164
0.000152649
0.000121933
0.000215882
0.000183922
0.000174373
0.000171013
0.000169283
0.000168198
0.000167848
0.000168226
0.000169298
0.000170819
0.000172749
0.000174665
0.000176211
0.00017715
0.000177489
0.000177269
0.00017671
0.000176005
0.000175073
0.000174244
0.00017387
0.000172996
0.000168256
0.000160647
0.000167859
0.000185401
0.000179555
0.0001742
0.00016232
0.000132168
0.000201446
0.000175727
0.000168666
0.00016692
0.000166769
0.000167159
0.00016813
0.000169667
0.000171888
0.000174503
0.000177452
0.000180208
0.000182022
0.00018266
0.000182757
0.000182523
0.000182342
0.000182651
0.000182388
0.000181847
0.000181346
0.00018067
0.000180201
0.00018026
0.000179076
0.000192525
0.000196872
0.000192767
0.000174554
0.000193863
0.000189553
0.00016851
0.000163572
0.000163199
0.000164222
0.000165663
0.000167478
0.000169864
0.00017288
0.000176216
0.000179314
0.000181383
0.000181336
0.000180023
0.000179342
0.000179084
0.000179901
0.000182499
0.000184762
0.000186396
0.000186843
0.000186705
0.000186785
0.00018937
0.00019314
0.000194499
0.00021559
0.00019131
0.000181768
0.000226812
0.000179397
0.000162666
0.000159201
0.000159746
0.000161421
0.000163371
0.00016569
0.000168485
0.000171495
0.000174069
0.000174902
0.000171098
0.000164446
0.000159996
0.000156847
0.000157737
0.000160625
0.000166946
0.000175409
0.000183238
0.000187515
0.000189169
0.00018993
0.000191058
0.000194185
0.000197639
0.000195572
0.000188035
0.000190586
0.00022873
0.000171599
0.000158432
0.000155404
0.000156215
0.000157976
0.000159996
0.000162371
0.00016486
0.000166488
0.000165344
0.000157582
0.000150959
0.000143446
0.000136871
0.000134548
0.000134941
0.000137739
0.000143841
0.000151422
0.000163815
0.000178972
0.000186405
0.000188677
0.000189623
0.000190089
0.000191497
0.000190739
0.000182881
0.0001838
0.000223981
0.000165511
0.000155209
0.000151858
0.000152246
0.000153672
0.000155538
0.000157495
0.000158643
0.000156431
0.000148474
0.000141519
0.000141355
0.000136886
0.000132188
0.000131745
0.000130321
0.000131252
0.000134926
0.000135957
0.000142999
0.000156051
0.000175003
0.000183074
0.000184801
0.000184587
0.000183533
0.000182466
0.00017785
0.000176043
0.000207309
0.000159511
0.000151646
0.000148181
0.000147896
0.000148804
0.00015015
0.000151028
0.000149883
0.000143219
0.000139115
0.000141643
0.00013595
0.000130498
0.000126259
0.00012728
0.000127192
0.000127384
0.000130931
0.00013739
0.000143595
0.000147321
0.000155404
0.000170835
0.000177423
0.000178222
0.000176484
0.000174158
0.000171697
0.000172462
0.000194892
0.000152532
0.000146963
0.000144176
0.000143473
0.000143691
0.000143716
0.000142493
0.000139812
0.000138516
0.000145307
0.000139783
0.00012979
0.00012463
0.000121393
0.000121888
0.000122968
0.00012309
0.000126453
0.000136443
0.000145988
0.000155632
0.000157341
0.000151164
0.000165936
0.000171101
0.000169876
0.000167274
0.000166077
0.000170474
0.000185589
0.000145127
0.000141613
0.000139738
0.000138926
0.000138473
0.000135834
0.0001332
0.000140642
0.000153188
0.000145196
0.000135053
0.000125666
0.000122387
0.000120482
0.000121226
0.000121869
0.000121762
0.00012539
0.000133543
0.000145736
0.000158596
0.000167272
0.000155051
0.000147607
0.000163356
0.000163319
0.000160621
0.000159418
0.000163147
0.00017414
0.000137925
0.000136292
0.000135508
0.000134926
0.000134041
0.000128358
0.000134297
0.000157341
0.000153336
0.000139702
0.000129126
0.000125278
0.000122289
0.000121576
0.000123948
0.000124098
0.000123071
0.000123852
0.00013071
0.000142047
0.000156177
0.000169272
0.000171416
0.000151878
0.000154315
0.000156213
0.000152538
0.000151126
0.000152665
0.000158418
0.000131279
0.000131833
0.000131708
0.000132552
0.000128336
0.000124713
0.00014489
0.000148118
0.000143981
0.000134201
0.000126189
0.000122542
0.000120605
0.00012087
0.000122464
0.000122754
0.000120921
0.000122402
0.000126311
0.000136036
0.00014881
0.000162861
0.00017613
0.000177293
0.000164023
0.00014623
0.000143639
0.000141273
0.000141218
0.000142955
0.000125525
0.000127634
0.000129205
0.00014049
0.000152301
0.000152101
0.000131901
0.00012363
0.000137375
0.000131824
0.000124951
0.00011938
0.000118552
0.00011929
0.000120204
0.000119895
0.000118166
0.000121614
0.00012385
0.000128529
0.000141771
0.000153177
0.00017019
0.00019093
0.000190788
0.000138369
0.000130588
0.000129681
0.000129809
0.000129275
0.000119455
0.000123229
0.000133525
0.000143685
0.000143464
0.000135054
0.000170551
0.000183522
0.000149624
0.000139407
0.000122829
0.000118148
0.000117492
0.000118304
0.000118882
0.000118235
0.000116364
0.000119206
0.000128117
0.000125346
0.000133588
0.000146413
0.000161506
0.00018322
0.000184637
0.000161946
0.00011989
0.000115721
0.000119517
0.000118708
0.000113894
0.000122053
0.000132028
0.000130473
0.000126984
0.000128209
0.000142821
0.000214435
0.000179525
0.000155191
0.000125212
0.000118524
0.000117856
0.000118616
0.000118997
0.000118163
0.000116078
0.000118104
0.000123048
0.000128184
0.000125441
0.000139793
0.000157716
0.000174534
0.000159871
0.000166699
0.000152035
0.000113339
0.000110744
0.000110131
0.000110342
0.000106684
0.000119134
0.000120731
0.00013209
0.000136566
0.000135185
0.000181584
0.000202615