/*--------------------------------*- C++ -*----------------------------------*\
| =========                 |                                                 |
| \\      /  F ield         | OpenFOAM: The Open Source CFD Toolbox           |
|  \\    /   O peration     | Version:  v1606+                                |
|   \\  /    A nd           | Web:      www.OpenFOAM.com                      |
|    \\/     M anipulation  |                                                 |
\*---------------------------------------------------------------------------*/
FoamFile
{
    version     2.0;
    format      ascii;
    class       volScalarField;
    location    "3.875";
    object      p_rgh;
}
// * * * * * * * * * * * * * * * * * * * * * * * * * * * * * * * * * * * * * //

dimensions      [1 -1 -2 0 0 0 0];

internalField   nonuniform List<scalar> 
3072
(
0
-0.51837
0.343521
0.196763
-0.587454
-0.95959
-0.97685
-0.972229
-0.948046
-0.906503
-0.850678
-0.784301
0.784197
0.633823
1.6198
1.10084
0.486411
0.527041
0.584429
0.655408
0.736056
0.823651
0.915822
1.01076
2.17859
1.99451
2.04747
1.63226
1.74411
1.87373
2.01455
2.15991
2.3051
2.44471
2.57244
2.68012
3.29367
3.87633
3
3.12411
3.28715
3.47657
3.6824
3.89541
4.10628
4.30461
4.47946
4.62069
4.64796
5.00136
4.59997
4.77554
4.99398
5.24302
5.51112
5.78657
6.05668
6.30717
6.52344
6.69391
6.14287
6.27281
6.28678
6.53654
6.82044
7.13024
7.45386
7.78081
8.09746
8.38785
8.63537
8.82538
7.69603
7.84933
8.10189
8.42139
8.76116
9.11931
9.48097
9.84045
10.184
10.4954
10.7559
10.9511
9.40221
9.65108
10.0142
10.4152
10.7994
11.1872
11.5627
11.9311
12.2791
12.5902
12.8658
13.0573
11.1426
11.5528
12.044
12.5171
12.918
13.3021
13.6634
14.0153
14.3506
14.6457
14.9132
15.2572
12.7839
13.5561
14.1839
14.7003
15.079
15.4014
15.729
16.0396
16.3563
16.6118
16.8819
17.021
14.3331
15.592
16.3607
16.8553
17.1898
17.3652
17.6807
17.9309
18.2517
18.4332
18.7605
18.8401
15.374
17.5187
18.4751
18.715
19.0249
18.9379
19.4286
19.6053
19.9949
20.0446
20.544
20.56
-0.678158
0.195577
0.512553
0.478276
0.412295
0.410823
1.16393
1.11703
-0.274028
-0.524419
-0.402454
-1.51781
1.09241
1.13471
1.19115
1.25499
0.994602
1.14191
1.70484
1.31876
1.09954
1.3606
1.1329
0.868907
2.74929
2.81126
2.83446
2.81544
2.69154
2.5268
2.09626
2.18945
2.01806
2.3294
3.1027
3.04289
4.71733
4.75865
4.74031
4.64927
4.46406
4.19523
3.73208
3.8855
3.7152
3.97784
4.45928
4.35834
6.81099
6.84692
6.8004
6.65927
6.39815
5.9944
5.47124
5.23538
6.14566
6.80631
8.1116
8.21722
8.9457
8.98688
8.95283
8.81145
8.54484
8.11175
7.51812
6.94982
7.57882
11.6128
12.3943
12.3354
11.0858
11.1269
11.1246
11.033
10.8474
10.5004
9.95223
9.3784
10.0025
14.3164
14.4669
15.1428
13.21
13.2106
13.2311
13.2195
13.1854
13.0303
12.6835
12.2616
11.9419
15.4712
16.7712
17.8115
15.3274
15.3521
15.3604
15.2694
15.3976
15.4813
15.3979
15.3181
15.3695
16.5644
18.7655
20.3068
17.0492
17.1159
17.0337
17.0658
17.3645
17.6728
17.6932
17.9415
18.407
19.4884
20.1726
20.8477
18.673
18.5641
18.4922
18.5815
19.0358
19.5635
19.4792
19.8156
20.6436
22.1078
22.8458
23.8722
20.1392
19.8764
19.5349
19.7019
20.3916
21.1493
20.5951
20.8845
22.1953
23.8323
25.2
26.5901
-3.30397
-3.35171
-3.38396
-3.40909
-3.4302
-3.45861
-3.47563
-3.46169
-3.39757
-3.40005
-3.33009
-3.2207
-1.8069
-1.837
-1.84672
-1.84066
-1.80881
-1.76863
-1.75354
-1.69029
-1.61251
-1.51277
-1.38689
-1.23713
-0.574082
-0.571719
-0.533862
-0.444762
-0.299021
-0.26805
-0.13685
0.00643108
0.161006
0.329853
0.510847
0.699256
0.796534
0.835339
0.935213
1.11327
1.32445
1.47982
1.69123
1.91215
2.14146
2.37635
2.61142
2.8391
2.26522
2.35425
2.53531
3.00322
3.06883
3.35442
3.65032
3.94539
4.23766
4.52474
4.80122
5.05744
3.83227
3.98513
4.26884
4.8185
4.94563
5.3209
5.69711
6.05399
6.3874
6.70479
7.00547
7.27517
5.49576
5.72951
6.10068
6.73091
6.95119
7.3842
7.82291
8.21698
8.55621
8.87167
9.17715
9.44335
7.24917
7.60313
8.0235
8.72312
9.04948
9.53657
10.0158
10.4188
10.7151
10.9843
11.2783
11.5279
9.06596
9.61167
10.117
10.6909
11.196
11.7433
12.2504
12.6404
12.8313
12.9922
13.2674
13.5066
10.9025
11.7667
12.3107
12.9071
13.3875
13.9415
14.4802
14.8517
14.8642
14.8227
15.0813
15.3629
12.5372
14.0292
14.708
15.1033
15.4703
16.0094
16.6209
16.9917
16.7609
16.3724
16.6135
17.0697
13.6202
16.1929
16.9251
17.1455
17.2661
17.7666
18.564
18.9442
18.4612
17.4807
17.7452
18.5742
-3.0693
-2.90122
-2.68547
-2.44206
-2.20815
-1.98011
-1.80674
-1.62217
-1.5454
-1.50598
-1.50571
-1.50608
-1.06506
-0.86933
-0.67501
-0.507361
-0.365804
-0.192002
0.193489
0.0389138
-0.0730085
-0.0474461
-0.132897
-0.164643
0.889261
1.07167
1.24192
1.38348
1.47511
1.49755
1.44142
1.62007
1.58424
1.23969
1.20219
1.27036
3.0531
3.24555
3.40026
3.51282
3.56344
3.53064
3.40133
3.18512
2.80733
3.68737
2.75108
3.39262
5.28858
5.48504
5.63869
5.74785
5.79402
5.75306
5.59955
5.30544
4.86063
5.08954
6.79442
5.46247
7.50829
7.70616
7.8674
8.00129
8.08929
8.11126
8.04184
7.85463
7.55843
7.55804
13.1815
14.4052
9.66132
9.84759
10.0125
10.1795
10.3376
10.4683
10.5479
10.5417
10.4573
10.3584
12.3718
19.4348
11.7029
11.8503
12.0006
12.1965
12.4382
12.6981
12.9498
13.1629
13.3105
13.3593
13.5489
14.6019
13.5996
13.6757
13.7817
13.9957
14.3229
14.7163
15.1377
15.5634
15.9866
16.3292
16.6764
16.2421
15.3118
15.2887
15.3494
15.5388
15.948
16.4768
17.044
17.6522
18.3555
19.0959
19.958
19.8319
16.7667
16.6074
16.5961
16.7619
17.2675
17.9523
18.6283
19.3371
20.2435
21.4011
23.0718
23.4747
17.8976
17.5763
17.5145
17.6291
18.2233
19.1163
19.8663
20.5625
21.5119
22.7155
25.3036
26.4326
-3.28003
-3.31595
-3.3215
-3.3087
-3.28481
-3.25497
-3.22109
-3.18098
-3.13075
-3.032
-3.00054
-2.93971
-1.83271
-1.84371
-1.82633
-1.78967
-1.71481
-1.61129
-1.62376
-1.54989
-1.47689
-1.40067
-1.31787
-1.23969
-0.678716
-0.66039
-0.610801
-0.530585
-0.400485
-0.258882
-0.243149
-0.134716
-0.0286903
0.0741251
0.172744
0.260394
0.604346
0.6573
0.760186
0.904173
1.07204
1.23424
1.37799
1.53284
1.68141
1.82211
1.95378
2.07122
1.9686
2.07304
2.24452
2.47736
2.71231
2.94269
3.16091
3.36726
3.56001
3.7392
3.90536
4.05574
3.40057
3.57623
3.81952
4.18181
4.48748
4.80271
5.08339
5.34193
5.57252
5.77995
5.97347
6.1518
4.89737
5.16408
5.56016
6.29461
6.41546
6.79195
7.12826
7.4234
7.67881
7.90013
8.10408
8.3025
6.46111
6.87106
7.48663
8.49982
8.84205
8.88904
9.26503
9.58127
9.83744
10.047
10.2409
10.4403
8.05437
8.688
9.36461
10.5015
10.908
11.0293
11.4363
11.7653
12.0016
12.1613
12.3118
12.5047
9.5998
10.5834
11.2233
12.0687
12.6619
13.181
13.5848
13.9122
14.1127
14.1828
14.2549
14.4368
10.8346
12.4782
13.1602
14.1052
14.7423
15.2181
15.5925
15.9185
16.0955
16.0249
15.9817
16.1756
11.3053
14.2164
14.8177
15.807
16.5249
16.9405
17.2969
17.6359
17.8589
17.579
17.3877
17.6527
-2.86909
-2.82972
-2.82992
-2.77259
-2.70955
-2.662
-2.6042
-2.40739
-2.09398
-1.82868
-1.56111
-1.49877
-1.1274
-0.950938
-0.869393
-1.03969
-1.01948
-1.04226
-1.13456
-0.901372
-0.563373
-0.525486
-0.271183
0.248257
0.323674
0.37607
0.387521
0.430359
0.379676
2.5548
4.18468
3.54994
3.22599
3.99788
4.71076
3.35045
2.1683
2.23821
2.24815
2.21101
2.26903
3.80402
4.01577
3.89001
4.4569
6.33593
8.85488
9.20964
4.18973
4.35589
4.44136
4.33772
4.29603
4.27927
4.57235
5.00171
4.91905
4.78872
4.30304
4.1278
6.31172
6.44466
6.52913
6.62217
6.66805
6.7128
6.81535
6.93464
6.85915
6.60693
6.12244
5.50491
8.48655
8.65316
8.79821
8.92429
9.0018
9.07618
9.16342
9.18831
9.00607
8.69401
8.20049
7.61078
10.6353
10.8182
10.9955
11.1437
11.2497
11.3284
11.3966
11.4162
11.2656
11.0144
10.5793
9.97718
12.6957
12.8757
13.0753
13.2353
13.3413
13.4514
13.5321
13.5861
13.5773
13.4739
13.2358
12.7035
14.6192
14.7789
15.005
15.1741
15.2574
15.4066
15.5233
15.6624
15.8144
15.9659
16.1397
15.884
16.3577
16.4819
16.7625
16.9485
16.9729
17.1784
17.3089
17.5351
17.8447
18.3058
19.1128
19.6234
17.8599
17.9325
18.333
18.5537
18.46
18.7769
18.8507
19.1372
19.5078
20.1599
21.5723
23.529
8.72808
8.89069
8.26647
1.57635
0.101962
0.101526
0.129348
0.124751
0.195714
0.224621
0.560922
0.821955
7.24889
7.11357
3.82379
1.46558
1.58157
1.61925
2.00896
2.12595
1.88267
2.00707
2.12991
2.24012
4.21031
3.57949
2.60156
2.74482
2.88796
3.02962
3.59696
3.39413
3.40036
3.57536
3.72344
3.85933
4.1841
4.37955
4.23186
4.34361
4.4996
4.69117
4.86399
5.03837
5.22354
5.41123
5.58256
5.72636
7.1831
5.52868
5.7149
5.94273
6.19627
6.45129
6.70494
6.94398
7.16916
7.37849
7.56387
7.7146
7.172
6.91684
7.22764
7.6151
7.9913
8.34158
8.65795
8.94024
9.19002
9.40925
9.59339
9.74481
8.35649
8.60562
8.99899
9.47701
9.93921
10.3542
10.7083
11.0045
11.2511
11.4596
11.6243
11.7603
10.0139
10.4321
10.9074
11.4776
12.0135
12.4701
12.8298
13.1044
13.3115
13.4879
13.6077
13.707
11.6928
12.3348
12.9101
13.5659
14.1701
14.6513
14.9778
15.1945
15.3129
15.4455
15.4883
15.5218
13.3279
14.3088
14.9459
15.6705
16.364
16.9534
17.2666
17.4019
17.3411
17.3819
17.3118
17.1736
14.8091
16.2397
16.9191
17.6411
18.3856
18.9398
19.1723
19.2417
18.8609
18.997
18.9004
18.5393
15.668
18.0757
18.6406
19.2575
20.1083
20.7768
20.8744
20.9326
19.88
20.2457
20.2283
19.3739
0.583802
0.712578
0.866791
0.994394
1.08328
1.09039
1.04264
0.919961
0.739787
0.540447
-0.42165
7.38594
2.36184
2.46308
2.52746
2.5715
2.56913
2.51152
2.40013
2.24884
2.08934
1.95298
1.08678
7.40227
3.96041
4.05642
4.10618
4.10165
4.03253
3.89616
3.70227
3.47922
3.27211
3.14337
3.36418
6.21787
5.84123
5.91458
5.93373
5.88475
5.7562
5.54362
5.2568
4.93856
4.74565
4.98471
5.59728
6.77492
7.82886
7.89821
7.9069
7.83868
7.67983
7.42028
7.06413
6.66025
6.51795
7.09015
7.78063
8.43023
9.85821
9.93598
9.9571
9.90113
9.75411
9.50015
9.13769
8.70104
8.4322
9.39072
10.1933
10.7302
11.8761
11.9606
12.0147
11.9983
11.9025
11.7064
11.3961
10.9574
10.6257
11.979
12.8286
13.4422
13.8268
13.9499
14.0163
14.0616
14.0454
13.9557
13.7653
13.4106
13.0702
14.695
15.5308
16.3399
15.6521
15.7654
15.9122
16.0339
16.1156
16.1562
16.1693
16.0843
15.9495
16.2968
18.4312
19.4768
17.225
17.4141
17.6263
17.8267
17.9964
18.1688
18.3918
18.6534
18.8835
19.5743
22
23.324
18.5826
18.9579
19.2335
19.4148
19.6513
19.8749
20.2108
20.6995
21.2089
21.9627
22.4229
27.7224
19.6199
20.1428
20.5423
20.7688
21.0543
21.2241
21.5315
22.0814
22.7193
23.4897
23.8044
28.3494
22.8566
21.638
20.4733
20.6945
24.2595
23.0438
20.7293
20.9873
21.5529
21.3937
22.2743
22.1802
20.8853
21.2752
21.6805
21.9487
21.923
22.0519
23.7231
21.9239
22.722
22.4184
24.1078
23.7824
22.9661
22.6709
22.6317
22.337
22.5771
23.2848
23.1155
32.1363
33.7094
25.3984
25.9449
25.3443
24.3496
23.2493
23.7362
22.2509
22.5697
22.3816
33.5232
36.3886
37.2931
34.2158
24.7162
22.4642
21.3294
20.7857
20.079
20.3529
21.5696
22.5852
21.1717
20.9151
22.9787
24.9753
25.8512
23.2919
22.5312
22.3767
21.3419
21.1456
22.4023
23.6106
23.1805
28.3807
25.5273
24.9155
25.2417
25.5561
24.1625
25.8533
28.4774
28.5237
25.2424
23.4805
24.5823
23.7632
26.8837
26.4741
24.8629
22.1148
23.9284
27.2309
27.1034
27.2673
28.1999
24.9544
21.7145
23.9022
23.337
25.0323
25.5765
23.7655
22.1891
20.0521
19.0253
18.7709
18.6204
19.085
20.3091
20.6551
20.0944
18.2324
18.8975
19.5245
20.4992
20.6356
20.2752
20.5718
20.6379
20.1788
22.0852
22.4959
22.5518
24.0876
32.444
28.7692
22.0116
21.8887
21.9891
24.4681
32.3517
33.5494
27.9733
22.7844
23.4422
22.5769
21.6245
29.0356
19.9645
22.3391
22.318
28.4223
33.1681
33.7737
37.5622
41.8175
36.3944
24.9074
22.7097
23.5721
17.8577
18.6282
20.2933
20.2171
19.7788
19.7075
20.4599
21.1739
22.1285
23.049
24.3242
23.549
28.0772
24.7406
23.4909
22.1163
21.2318
20.5793
20.759
21.1181
21.5869
22.6119
23.4914
23.6397
27.7625
24.5712
21.3221
21.1884
21.9038
21.549
21.2762
21.0449
20.8553
21.8543
22.1353
23.342
27.0426
34.0726
34.6487
29.2381
23.1428
22.3446
21.6219
20.8799
19.9229
20.4489
19.5816
18.9216
16.3999
16.3648
16.4806
17.1935
17.9925
18.2385
18.5259
18.9076
19.3296
18.7034
18.371
18.7958
18.3255
19.1862
20.235
18.9963
18.9679
18.9737
19.3141
19.7091
20.6409
19.5132
19.0108
19.4763
19.6073
21.888
21.8838
20.5403
19.3403
18.9322
19.4256
20.3834
22.3414
20.8223
22.0004
22.5056
20.425
23.0514
23.6792
22.5946
20.9814
20.3207
17.5766
17.5569
22.3028
20.2453
22.6112
23.1575
19.0608
19.0649
19.7117
19.9776
19.6828
20.2028
20.1253
20.4373
20.6876
21.2426
22.2113
22.7533
19.799
19.8415
20.941
21.1637
20.5752
21.5739
21.1453
21.4654
21.3455
21.7458
22.3364
22.9161
22.3184
20.1782
21.8019
21.939
20.9534
22.9514
21.9485
22.3469
21.4636
21.5425
22.0728
23.0998
22.7346
29.3723
32.9713
29.0921
39.3226
41.1888
29.8232
23.2719
21.1342
20.9068
21.1232
21.2672
19.2104
19.8397
20.1278
20.3649
21.3792
22.3313
22.7813
25.0273
24.4639
22.564
21.4024
19.3782
20.4461
20.053
20.6681
20.6513
22.2649
23.5562
23.8367
23.7598
22.9862
23.2374
22.5955
23.3039
21.2899
25.1863
25.4046
20.8683
23.0257
25.1219
25.4318
25.1262
22.8038
23.9402
24.1358
20.9487
20.4411
24.6509
26.4626
27.6185
21.9498
26.5611
27.1006
24.6179
21.2722
24.217
23.4844
23.3967
20.4503
21.1984
21.7462
21.9826
22.2442
22.2008
22.3262
22.7864
23.4119
24.0231
24.2527
23.1607
25.3402
23.4669
22.8885
23.125
23.3053
22.7409
22.5399
22.8392
23.3769
24.1168
24.2467
23.0936
26.346
26.0571
24.8063
24.0079
24.4751
22.8041
21.9804
22.255
22.6429
23.9869
24.3769
24.1359
24.4605
26.8588
26.7639
23.905
23.4023
22.5517
21.6177
19.9493
21.1757
23.4079
24.5959
24.9265
35.2481
37.5863
34.1174
26.4459
25.3353
26.6947
24.3475
25.1514
26.0782
25.4291
32.482
35.8047
25.168
23.6032
23.5439
23.0611
22.8532
22.5488
23.8961
24.7247
24.9919
24.9601
22.6508
25.2859
24.8166
24.0171
23.8158
23.3005
23.3088
23.3097
24.0196
24.4676
24.5671
24.4534
23.4918
23.8659
24.7703
24.1938
23.9612
23.5773
23.5347
23.6033
24.0337
24.3357
24.3585
24.2398
23.7634
23.9455
31.96
26.0877
26.8826
27.2773
25.3838
29.1475
30.4602
28.8891
23.3524
22.03
22.9859
25.8797
26.1532
26.3442
27.3816
27.6208
26.0151
25.838
28.7328
27.1701
25.3993
24.223
24.1342
24.1599
24.6638
25.6797
26.8972
27.0564
26.1268
25.622
26.0238
25.4378
25.6079
25.2699
24.8884
24.7346
25.2277
26.0077
26.7086
26.7965
26.2664
25.9757
26.0596
25.6001
25.7528
25.5454
25.2937
25.1992
31.1293
35.4358
35.8342
28.443
27.8429
28.6054
26.0131
23.4879
22.4256
22.6211
23.491
23.6884
25.3438
26.5705
25.5903
26.9366
26.9615
27.0465
25.6057
24.261
23.5543
23.5652
24.0719
24.2882
25.2165
25.5646
25.4135
26.22
26.3671
26.3278
25.3865
24.5352
24.0589
24.0557
24.3083
24.4644
25.4614
25.5909
25.5408
25.9505
25.9939
25.8679
25.26
24.6819
24.3338
24.3044
24.4275
24.454
25.8974
31.5166
32.4237
29.893
25.392
23.4599
22.3985
21.4367
20.3191
20.196
21.7185
24.813
24.8613
24.0591
26.7865
27.3394
25.4864
24.2664
23.3857
22.4924
21.7842
21.0514
19.2019
18.9372
24.7122
24.2954
24.3968
24.705
24.4043
23.8571
23.2825
22.4312
21.7645
20.9876
20.0857
19.9123
24.7128
24.4338
24.379
24.1874
23.661
23.094
22.6165
22.3164
21.8585
21.2307
20.6226
20.515
25.5406
23.2872
23.1313
22.7298
21.694
20.7953
20.307
23.9758
23.3639
23.8341
22.3473
20.1862
19.2832
21.6964
22.1457
22.0982
21.7234
21.0506
20.8959
22.9677
25.4989
23.9538
23.3625
20.4738
20.1936
21.3531
21.677
21.5687
21.3238
21.102
21.1355
21.1332
19.2356
21.2724
21.1174
20.8943
20.7044
21.2999
21.5102
21.4804
21.3447
21.2167
21.2334
20.9683
19.8683
20.3438
20.3977
20.4598
22.1429
25.7139
32.3509
33.2699
29.2177
26.84
25.422
23.4688
21.9834
23.2016
21.5494
20.4121
21.1139
24.1877
25.4092
24.2923
27.0612
27.2023
26.0602
24.0154
22.5688
24.0393
22.0981
20.8669
22.4914
24.3076
26.0573
24.1654
23.1455
24.4625
26.4048
24.0627
22.8199
23.5785
22.7564
20.3433
22.061
21.7598
18.5417
24.1608
23.4201
23.3793
26.0192
23.3524
22.9791
23.1073
22.0108
19.8157
23.3124
22.6496
21.3957
19.5114
23.1989
25.5422
27.0711
26.7889
29.8461
26.7476
23.8334
25.5889
22.9146
23.1995
20.2268
20.1703
23.5735
30.2542
29.2611
28.3738
25.7618
28.0087
27.7033
23.3893
22.7557
23.7274
23.9282
23.3386
22.6115
19.0181
17.8209
17.9551
21.6505
18.6901
20.7455
22.6148
24.1192
24.6851
23.8724
24.6166
26.0768
24.2486
22.9197
22.9015
24.1365
24.0439
22.7636
22.5167
26.639
27.4962
28.6234
30.9791
32.1317
30.6571
27.9133
26.6164
28.2732
29.0994
27.522
29.5106
25.5126
27.2803
28.2508
29.7394
31.2278
31.7018
31.6993
30.9374
27.5442
25.1575
25.3942
25.68
25.9219
27.3408
28.1371
28.985
29.5566
29.6723
28.8143
26.9255
25.2037
24.8725
25.2932
25.2867
26.5918
28.1618
28.3059
28.6906
28.7803
28.5372
27.9381
26.8775
25.8189
25.346
25.4055
25.2402
24.7603
24.2789
24.0203
23.7225
23.6555
23.705
24.0055
24.2063
24.2245
24.1168
23.787
23.3321
24.7561
24.3216
24.0488
23.8046
23.7368
23.7836
23.9862
24.1233
24.1383
24.0501
23.8479
23.6065
24.7462
24.3416
24.0698
23.8638
23.7987
23.8301
23.9812
24.0725
24.0848
24.0192
23.8992
23.7857
24.7179
24.3439
24.0868
23.9146
23.8525
23.8758
23.9742
24.0419
24.0528
24.007
23.9344
23.8736
24.6551
24.3279
24.0969
23.958
23.9003
23.9124
23.9765
24.0252
24.0341
24.0028
23.9583
23.9239
24.9848
24.3014
24.0949
23.9917
23.9406
23.9425
23.9829
24.0164
24.0229
24.0014
23.9738
23.9554
25.9958
24.4451
24.0818
24.0135
23.972
23.9662
23.9898
24.0115
24.0155
24.0001
23.9829
23.9738
26.4924
24.7466
24.0767
24.0255
23.9938
23.9832
23.9949
24.0078
24.0093
23.9979
23.9868
23.983
26.4753
25.4003
24.0992
24.0352
24.008
23.9939
23.9973
24.0038
24.0034
23.9945
23.987
23.9861
26.4393
25.6903
24.1608
24.0459
24.0176
23.9994
23.9968
23.9989
23.9973
23.9899
23.9848
23.9856
26.4255
25.8705
24.2461
24.0628
24.0242
24.0007
23.9938
23.9932
23.9907
23.9844
23.981
23.9832
26.4314
25.8328
24.2939
24.0884
24.0287
23.9995
23.9896
23.9877
23.9849
23.9791
23.9769
23.9805
26.1621
26.2641
26.6019
26.6506
26.3436
26.1522
26.1661
25.8762
25.8904
25.722
25.509
25.4172
26.3023
26.3414
26.5167
26.5482
26.3681
26.2326
26.2124
26.0145
25.9592
25.8209
25.6404
25.5481
26.3054
26.3492
26.4488
26.4693
26.361
26.2624
26.2254
26.0754
25.9904
25.8693
25.7143
25.6145
26.3069
26.3435
26.4022
26.4139
26.3441
26.2669
26.22
26.0999
26.0044
25.8942
25.7606
25.6627
26.3083
26.3382
26.3731
26.3769
26.3268
26.2622
26.2095
26.1081
26.0118
25.9095
25.7915
25.6964
26.3083
26.3364
26.3576
26.3539
26.3131
26.2558
26.1998
26.1106
26.0178
25.9215
25.8151
25.723
26.3108
26.3358
26.3493
26.3408
26.304
26.2508
26.1933
26.1123
26.024
25.933
25.8352
25.746
26.3152
26.3387
26.3467
26.3341
26.2989
26.248
26.1901
26.1148
26.0309
25.9443
25.8528
25.7663
26.3216
26.3433
26.3473
26.3317
26.2967
26.2471
26.1895
26.1183
26.0382
25.9551
25.8683
25.784
26.3294
26.3495
26.3504
26.332
26.2965
26.2478
26.1908
26.1225
26.0454
25.9649
25.8813
25.7986
26.3381
26.3574
26.3557
26.3345
26.298
26.2496
26.1934
26.1273
26.0522
25.9736
25.892
25.8101
26.346
26.3655
26.3617
26.338
26.3001
26.2517
26.1963
26.1317
26.0578
25.9803
25.8996
25.8179
25.5483
25.6002
25.5671
25.7511
25.7348
25.5853
25.1716
24.7628
24.4975
24.4423
24.4658
24.1663
25.5894
25.5895
25.5527
25.6107
25.5592
25.4107
25.1112
24.8122
24.607
24.5419
24.5459
24.3875
25.6039
25.5768
25.53
25.5198
25.4467
25.3062
25.0773
24.8513
24.6908
24.6269
24.6342
24.5722
25.6208
25.5724
25.513
25.4656
25.3797
25.2483
25.0657
24.8893
24.7621
24.7067
24.7093
24.6923
25.6365
25.5747
25.5059
25.4379
25.3447
25.2219
25.0701
24.9272
24.8236
24.7753
24.7752
24.7763
25.6533
25.5832
25.5078
25.4285
25.3317
25.2157
25.084
24.9632
24.8752
24.8311
24.8283
24.8374
25.6712
25.596
25.5163
25.4306
25.3319
25.2205
25.1014
24.9942
24.9153
24.8728
24.8667
24.8786
25.689
25.6108
25.5281
25.4385
25.3382
25.2292
25.1172
25.0174
24.9431
24.9003
24.8906
24.9026
25.7053
25.6252
25.54
25.4475
25.3454
25.2367
25.1277
25.0313
24.9584
24.9145
24.9017
24.9127
25.7191
25.6373
25.5498
25.4544
25.3497
25.2397
25.131
25.0351
24.9621
24.9169
24.9025
24.9128
25.7299
25.6464
25.5565
25.4579
25.3498
25.2371
25.1268
25.03
24.956
24.91
24.8955
24.9072
25.7372
25.6523
25.5601
25.4579
25.347
25.2313
25.1187
25.0202
24.9451
24.8987
24.8854
24.9004
25.0185
24.4985
24.2927
24.0253
23.5828
23.1352
22.7461
22.4513
22.0646
21.5001
21.0052
20.8724
24.7317
24.4084
24.1779
23.8979
23.5214
23.1481
22.8076
22.5197
22.1657
21.6881
21.2668
21.1089
24.4894
24.2794
24.061
23.7922
23.4636
23.1373
22.8264
22.5423
22.215
21.8056
21.4397
21.2674
24.3046
24.1568
23.9584
23.7075
23.4126
23.1161
22.8246
22.5442
22.2371
21.8781
21.5547
21.3757
24.1643
24.0559
23.8775
23.6437
23.3724
23.0949
22.8162
22.5399
22.2478
21.9261
21.6351
21.4537
24.0596
23.9785
23.8176
23.5985
23.3438
23.0786
22.8084
22.5364
22.2558
21.9613
21.6949
21.5133
23.9842
23.9221
23.7757
23.5682
23.3251
23.0679
22.8036
22.5358
22.2643
21.9894
21.7412
21.5602
23.9326
23.8833
23.7477
23.5492
23.314
23.062
22.8018
22.5378
22.2733
22.0125
21.7771
21.5968
23.9006
23.859
23.7306
23.5383
23.3082
23.0595
22.8024
22.5412
22.2823
22.0307
21.8039
21.6239
23.8851
23.8473
23.7228
23.5336
23.3058
23.0588
22.8031
22.5442
22.289
22.0436
21.822
21.6419
23.884
23.8475
23.7235
23.5341
23.306
23.0587
22.8034
22.5457
22.2928
22.051
21.8321
21.6513
23.8928
23.8557
23.7299
23.5378
23.3074
23.0587
22.8031
22.5458
22.2939
22.0537
21.8355
21.6539
20.971
21.2904
21.4336
21.4184
21.3372
21.251
21.204
20.9439
20.2893
20.4051
20.3043
19.7993
21.129
21.2926
21.3767
21.3691
21.311
21.2372
21.1513
20.9231
20.4973
20.461
20.3584
20.146
21.2324
21.3028
21.3426
21.3296
21.2785
21.2067
21.1081
20.9113
20.6143
20.5179
20.4265
20.3185
21.3049
21.3177
21.3235
21.3
21.2481
21.1751
21.0734
20.9052
20.6828
20.5708
20.4877
20.4187
21.3587
21.336
21.3148
21.2796
21.2235
21.1484
21.0478
20.9032
20.7246
20.6149
20.5398
20.4903
21.4042
21.3524
21.3125
21.2663
21.2053
21.1281
21.0296
20.9007
20.7546
20.6507
20.5822
20.5439
21.4407
21.3691
21.314
21.2581
21.1921
21.1131
21.0171
20.9002
20.7751
20.6785
20.6151
20.583
21.4695
21.3839
21.3167
21.2526
21.1822
21.1018
21.0082
20.9003
20.7891
20.699
20.6393
20.6105
21.4907
21.395
21.3187
21.2482
21.1743
21.093
21.0016
20.9002
20.7981
20.7131
20.656
20.6288
21.5043
21.4015
21.3186
21.2434
21.1672
21.0856
20.9961
20.8993
20.8031
20.7217
20.6663
20.6398
21.5105
21.4029
21.3157
21.2377
21.1603
21.079
20.9912
20.8976
20.805
20.7256
20.671
20.6449
21.511
21.4009
21.3114
21.2321
21.1544
21.0737
20.9874
20.8956
20.8046
20.726
20.6717
20.6456
22.8786
22.4723
21.2359
23.6478
23.3076
22.128
22.7585
22.4719
22.9118
22.8898
21.5087
19.711
22.7399
22.5214
22.0907
22.2906
22.8018
22.5996
22.3748
22.214
23.5349
22.844
21.3813
20.8332
22.6772
22.5588
22.3664
22.3934
22.2838
22.7637
22.6488
22.5129
23.05
22.6935
21.5251
20.6814
22.6775
22.6058
22.5284
22.7669
21.9775
22.7821
22.6464
22.592
22.7734
22.755
21.6744
20.67
22.692
22.6481
22.6263
22.8167
22.4784
22.675
22.572
22.5589
22.6304
22.3966
21.7548
20.9859
22.7065
22.681
22.6861
22.8183
22.8314
22.1503
22.4423
22.4784
22.5031
22.3007
21.7996
21.2154
22.7187
22.7056
22.724
22.8254
22.9247
22.0897
22.3722
22.4094
22.4048
22.2264
21.8342
21.375
22.7284
22.7236
22.7493
22.8348
22.938
22.406
22.3554
22.3553
22.336
22.1774
21.8616
21.4863
22.7353
22.7358
22.7655
22.8426
22.9393
22.6988
22.2282
22.3115
22.2925
22.1502
21.8812
21.5723
22.7395
22.7429
22.7739
22.8466
22.9428
22.9171
22.1261
22.2774
22.2714
22.1401
21.9015
21.6297
22.7415
22.7454
22.7755
22.846
22.9509
23.0081
22.0935
22.2586
22.2707
22.1453
21.9215
21.6643
22.742
22.7446
22.7728
22.8432
22.967
23.18
22.2578
22.2519
22.2811
22.1587
21.9386
21.6801
24.549
22.3314
24.0738
22.3627
20.2143
21.0738
22.0259
22.7478
23.3993
23.3773
23.7733
20.8448
21.9818
22.0382
23.5443
22.5531
20.4145
20.7654
21.3886
22.0498
22.5173
22.1588
19.1733
20.3147
20.6507
21.3899
22.7078
22.194
20.8659
20.9074
21.0536
21.008
21.3023
21.257
19.2864
19.9954
20.8422
21.3125
22.2758
21.9661
21.0918
21.0072
21.0397
20.9896
21.0762
20.9387
19.8145
20.0941
21.0919
21.444
22.0155
21.8213
21.2074
21.0692
21.0405
20.9779
20.9505
20.7908
20.1272
20.1981
21.2599
21.51
21.838
21.7156
21.2666
21.1082
21.0399
20.9599
20.8765
20.7181
20.3022
20.2869
21.3735
21.5425
21.7238
21.638
21.2961
21.1349
21.0396
20.944
20.8337
20.6802
20.4039
20.3588
21.452
21.5576
21.6525
21.5784
21.3169
21.1545
21.0411
20.9317
20.807
20.6602
20.4641
20.4123
21.5041
21.5656
21.6076
21.5398
21.3301
21.1688
21.0429
20.921
20.7877
20.6466
20.4985
20.4488
21.5385
21.5706
21.5827
21.5184
21.3395
21.1791
21.0432
20.9099
20.7702
20.6332
20.5147
20.4702
21.5572
21.5743
21.5719
21.5104
21.3476
21.1861
21.0415
20.8976
20.7517
20.6165
20.517
20.4792
21.5625
21.5768
21.5697
21.5113
21.3541
21.19
21.0387
20.8863
20.7348
20.5995
20.5115
20.4799
25.4397
28.3681
28.3998
28.618
28.6093
28.4119
27.8751
27.0202
26.1561
25.6341
25.4818
25.2243
26.8819
28.3449
28.4187
28.5515
28.4897
28.2892
27.8163
27.1024
26.3586
25.8259
25.541
25.2209
27.9322
27.7337
28.3833
28.4935
28.3935
28.1825
27.7606
27.1545
26.4928
25.957
25.5878
25.2193
27.8018
27.3235
27.588
28.012
28.2418
28.0968
27.7204
27.1905
26.5803
26.039
25.6149
25.2075
27.6205
27.3281
27.3868
27.289
27.2892
27.3139
27.1641
26.8268
26.3515
26.0063
25.6491
25.2189
27.4993
27.3198
27.3435
27.2256
27.1123
26.8829
26.5742
26.2962
26.0888
26.0122
26.0846
26.0799
27.4231
27.3085
27.3035
27.189
27.0605
26.848
26.5777
26.3355
26.1574
26.0841
26.1267
26.1803
27.3762
27.2973
27.2732
27.1613
27.0262
26.827
26.5854
26.3693
26.2097
26.1383
26.1708
26.2361
27.3495
27.2895
27.2526
27.1413
27.0023
26.8118
26.5893
26.3903
26.2425
26.1725
26.1972
26.2586
27.3379
27.2867
27.2403
27.1283
26.9864
26.8008
26.5894
26.3999
26.2589
26.1899
26.2085
26.2623
27.3391
27.2893
27.2355
27.1218
26.9771
26.7929
26.586
26.4002
26.2616
26.193
26.2095
26.2665
27.3495
27.2949
27.2364
27.1202
26.9733
26.7884
26.5811
26.3949
26.2557
26.1867
26.2045
26.2692
)
;

boundaryField
{
    rotor
    {
        type            zeroGradient;
    }
    stator
    {
        type            zeroGradient;
    }
    front
    {
        type            empty;
    }
    back
    {
        type            empty;
    }
}


// ************************************************************************* //
