/*--------------------------------*- C++ -*----------------------------------*\
| =========                 |                                                 |
| \\      /  F ield         | OpenFOAM: The Open Source CFD Toolbox           |
|  \\    /   O peration     | Version:  2.4.0                                 |
|   \\  /    A nd           | Web:      www.OpenFOAM.org                      |
|    \\/     M anipulation  |                                                 |
\*---------------------------------------------------------------------------*/
FoamFile
{
    version     2.0;
    format      ascii;
    class       volVectorField;
    location    "4.75";
    object      U;
}
// * * * * * * * * * * * * * * * * * * * * * * * * * * * * * * * * * * * * * //

dimensions      [0 1 -1 0 0 0 0];

internalField   nonuniform List<vector> 
4608
(
(0.00645149 0.136065 0)
(0.0171662 0.135227 0)
(0.0270189 0.134275 -2.63153e-26)
(0.0365305 0.132971 -2.66747e-26)
(0.0459031 0.131271 0)
(0.0552404 0.129146 0)
(0.0642924 0.126623 -1.11825e-25)
(0.0730956 0.123551 -5.72501e-26)
(0.0814578 0.119907 -3.43875e-26)
(0.0893667 0.115523 -1.26707e-25)
(0.097273 0.110123 -9.92821e-26)
(0.104638 0.104201 -1.68806e-27)
(0.00474049 0.157479 0)
(0.0156742 0.157881 -7.61325e-27)
(0.0271483 0.158173 9.99103e-27)
(0.038788 0.158081 0)
(0.0505074 0.157449 1.03027e-25)
(0.0623015 0.156115 -2.08826e-26)
(0.0738661 0.154221 -1.88871e-25)
(0.0851152 0.151792 0)
(0.0958052 0.148783 2.2917e-25)
(0.106039 0.144974 2.13832e-26)
(0.116063 0.139815 -1.50083e-25)
(0.125182 0.133682 0)
(0.00823688 0.178032 0)
(0.0233604 0.178355 4.954e-26)
(0.0376985 0.178632 0)
(0.0515798 0.17857 -2.66375e-26)
(0.0651854 0.177893 8.21909e-26)
(0.0787718 0.176428 3.00123e-25)
(0.092174 0.174137 2.37388e-25)
(0.105014 0.171045 3.34128e-25)
(0.117007 0.16736 4.05623e-25)
(0.1282 0.162982 0)
(0.138524 0.157629 -2.73353e-25)
(0.148253 0.151067 0)
(0.0100233 0.199141 2.65499e-26)
(0.0282737 0.199602 5.8811e-26)
(0.0451469 0.19994 0)
(0.0611296 0.199785 2.01059e-25)
(0.0764468 0.198863 -9.39849e-26)
(0.0915352 0.196886 5.45971e-25)
(0.106186 0.193938 2.8175e-25)
(0.120172 0.190116 2.90662e-25)
(0.133312 0.185647 0)
(0.145681 0.180727 6.22107e-25)
(0.157426 0.175403 -4.05326e-25)
(0.168737 0.169222 -2.26932e-25)
(0.0123748 0.220065 3.09699e-26)
(0.033878 0.220623 1.50942e-25)
(0.0530659 0.220901 -1.37644e-25)
(0.0707064 0.220423 2.85531e-25)
(0.0872834 0.218913 0)
(0.103363 0.216117 4.80479e-25)
(0.118878 0.212064 2.55391e-25)
(0.133744 0.207017 -1.67079e-25)
(0.147898 0.201208 -2.4312e-25)
(0.161367 0.194848 1.50257e-24)
(0.174179 0.188059 7.87457e-25)
(0.18639 0.180825 -8.95946e-25)
(0.0147433 0.241011 0)
(0.0392837 0.241666 1.48801e-25)
(0.060557 0.241771 -1.53775e-25)
(0.0794521 0.241019 -3.18717e-25)
(0.0966749 0.238715 -1.00998e-25)
(0.113172 0.234684 5.56746e-26)
(0.129084 0.229184 2.87965e-25)
(0.144344 0.222469 -1.8866e-25)
(0.158904 0.214862 -2.69556e-25)
(0.172719 0.206643 1.45388e-24)
(0.185734 0.198032 7.36305e-25)
(0.197885 0.189127 -7.44882e-25)
(0.0174824 0.2621 4.50079e-27)
(0.0449507 0.263453 2.97194e-26)
(0.0679707 0.263484 0)
(0.0873451 0.262076 -3.52829e-25)
(0.104519 0.258639 6.17067e-25)
(0.120941 0.253153 -8.96463e-25)
(0.136813 0.245869 -7.48077e-25)
(0.152111 0.237182 -7.52517e-25)
(0.166784 0.227501 -7.5571e-25)
(0.180752 0.217228 7.58916e-25)
(0.193983 0.206712 -1.38551e-24)
(0.206412 0.196216 1.74894e-24)
(0.0211238 0.283411 0)
(0.0510128 0.285905 0)
(0.0746949 0.285535 3.76205e-25)
(0.0937484 0.28323 0)
(0.110497 0.278338 6.78149e-25)
(0.126444 0.271289 -1.56171e-25)
(0.141955 0.262084 -7.93631e-25)
(0.157095 0.251326 -7.88342e-25)
(0.171767 0.239486 -7.81974e-25)
(0.185823 0.227014 -1.55456e-24)
(0.199263 0.214338 -1.54562e-24)
(0.211894 0.201928 1.54577e-24)
(0.026067 0.304736 1.01998e-25)
(0.0572058 0.308662 4.47867e-25)
(0.0805343 0.307179 1.81326e-34)
(0.0983875 0.303532 -1.30759e-25)
(0.114225 0.296581 -2.67401e-25)
(0.129389 0.287722 -1.4565e-25)
(0.144364 0.276666 -1.64553e-24)
(0.159338 0.264087 1.37036e-25)
(0.174065 0.250442 2.30822e-25)
(0.188217 0.236064 -1.56309e-24)
(0.201896 0.221294 1.08572e-25)
(0.214681 0.206787 -1.32671e-24)
(0.0323588 0.326105 1.09681e-35)
(0.0627642 0.331094 4.32015e-25)
(0.0839956 0.32587 -4.35923e-25)
(0.0995954 0.319417 0)
(0.114151 0.309548 -8.57231e-26)
(0.128466 0.298815 7.18372e-25)
(0.142965 0.286276 -1.63994e-24)
(0.158127 0.272591 0)
(0.173358 0.258192 1.55311e-24)
(0.187885 0.24304 0)
(0.202013 0.227066 7.58156e-26)
(0.214811 0.211032 -2.78834e-24)
(0.0419668 0.347022 -7.82616e-26)
(0.0658352 0.348518 4.39403e-25)
(0.0820179 0.3343 8.61721e-25)
(0.0949934 0.3233 7.56974e-25)
(0.108327 0.310194 -1.08756e-25)
(0.122065 0.297913 3.11252e-24)
(0.136501 0.284558 0)
(0.152209 0.270846 -4.11368e-26)
(0.168506 0.257314 1.27043e-24)
(0.183905 0.243632 0)
(0.199114 0.228758 -1.44676e-24)
(0.212218 0.213164 -1.54444e-24)
(0.0243405 0.34746 2.29764e-25)
(0.0462187 0.34265 -1.83722e-34)
(0.0619922 0.319854 1.91055e-34)
(0.0761789 0.305721 7.65562e-25)
(0.0903728 0.291202 1.43159e-24)
(0.10423 0.279522 2.72722e-24)
(0.119074 0.267688 1.28144e-24)
(0.136459 0.255344 0)
(0.155243 0.243708 0)
(0.172942 0.232529 0)
(0.190905 0.220657 -1.13259e-24)
(0.204644 0.208426 -2.28221e-24)
(0.111576 0.097547 -6.18412e-26)
(0.117757 0.0903716 -1.06042e-25)
(0.123375 0.0824067 -2.20005e-25)
(0.128291 0.0740402 2.61211e-25)
(0.132406 0.0653404 0)
(0.135712 0.0563244 6.6205e-26)
(0.137971 0.0471711 1.51564e-25)
(0.139008 0.0378429 0)
(0.139021 0.0283598 0)
(0.138389 0.0189784 0)
(0.137434 0.0101312 1.18758e-26)
(0.136419 0.0025829 5.39653e-27)
(0.133441 0.126416 -1.82563e-26)
(0.140523 0.118315 -6.27059e-26)
(0.14671 0.109199 -2.27007e-25)
(0.151973 0.0994773 -2.74269e-26)
(0.15643 0.089478 -4.1589e-26)
(0.16023 0.0792913 -9.10629e-27)
(0.162506 0.069645 1.5681e-25)
(0.162799 0.0597336 -2.09602e-26)
(0.161639 0.0486571 -1.14193e-25)
(0.159854 0.0365373 0)
(0.158079 0.0234172 2.42614e-26)
(0.157053 0.00888037 1.09634e-26)
(0.156983 0.143799 -5.53435e-25)
(0.164535 0.135851 0)
(0.17081 0.126424 0)
(0.176385 0.115008 -2.67797e-25)
(0.181869 0.1025 0)
(0.186853 0.0901299 -1.92935e-25)
(0.188906 0.0811224 -7.42682e-26)
(0.18752 0.073122 -2.70522e-25)
(0.184604 0.0614338 -1.24005e-25)
(0.181959 0.0468049 0)
(0.179848 0.0300758 5.61804e-26)
(0.1785 0.011075 -2.49584e-26)
(0.179009 0.162312 -8.43806e-25)
(0.188187 0.154863 -1.09117e-25)
(0.196452 0.146248 -6.91375e-25)
(0.204505 0.13451 7.37946e-25)
(0.210625 0.120805 -1.50881e-25)
(0.212344 0.107702 -2.85645e-25)
(0.208727 0.097743 -2.14918e-25)
(0.204676 0.0881088 -1.74879e-25)
(0.20189 0.0755591 2.91652e-25)
(0.200216 0.0580241 0)
(0.199647 0.0377916 3.98746e-26)
(0.199357 0.0145735 -9.49669e-26)
(0.197859 0.173234 7.14856e-25)
(0.208428 0.165789 -7.83176e-25)
(0.217244 0.158614 -9.11817e-25)
(0.224686 0.148683 7.45658e-25)
(0.229484 0.136503 -3.39483e-26)
(0.229961 0.125503 -2.75668e-26)
(0.227472 0.11638 -2.34228e-25)
(0.224474 0.105062 -4.23085e-26)
(0.221114 0.0891996 3.56674e-25)
(0.218266 0.0675791 1.93659e-25)
(0.218713 0.0425202 -2.16009e-25)
(0.220508 0.0170939 -3.68727e-26)
(0.209128 0.17991 7.51208e-25)
(0.219345 0.1705 -7.5269e-25)
(0.22833 0.162711 -7.70633e-25)
(0.235862 0.15573 3.83284e-26)
(0.239997 0.147914 0)
(0.241569 0.139594 -5.37523e-25)
(0.241327 0.131659 4.75902e-26)
(0.239263 0.121265 -5.0921e-25)
(0.236299 0.104861 0)
(0.233402 0.0779384 1.62932e-25)
(0.236622 0.0430564 -1.37567e-25)
(0.242115 0.0189217 4.24649e-26)
(0.218188 0.185791 0)
(0.229076 0.175137 0)
(0.237952 0.166042 -1.54813e-24)
(0.244771 0.15901 0)
(0.25023 0.152317 -1.54775e-25)
(0.25437 0.145727 -6.70303e-25)
(0.25625 0.140352 9.75163e-25)
(0.25622 0.133196 3.91317e-25)
(0.254287 0.119383 2.61567e-25)
(0.250949 0.0902588 -2.82968e-25)
(0.25032 0.0422632 -1.12146e-25)
(0.258828 0.0152225 -4.79585e-27)
(0.223773 0.189955 8.30477e-26)
(0.234697 0.178623 1.75128e-24)
(0.244496 0.168144 9.0437e-25)
(0.252917 0.160106 -1.54273e-24)
(0.259705 0.154395 -1.57459e-24)
(0.264498 0.148571 -7.92259e-25)
(0.26771 0.144246 9.37975e-25)
(0.271003 0.139757 1.82596e-24)
(0.273225 0.130019 0)
(0.274915 0.103731 -4.54926e-25)
(0.271508 0.0471587 2.08535e-25)
(0.276805 0.00651717 8.14324e-26)
(0.22682 0.192803 1.43211e-24)
(0.237934 0.180106 1.33876e-24)
(0.247251 0.168504 1.55279e-24)
(0.253649 0.159147 -1.43749e-24)
(0.259158 0.151718 -1.57939e-24)
(0.265538 0.145799 -7.822e-25)
(0.272253 0.141365 7.40454e-25)
(0.28009 0.137716 1.57897e-24)
(0.288211 0.131029 -1.09915e-25)
(0.29781 0.110564 0)
(0.29818 0.0545257 1.7647e-25)
(0.297133 0.00228389 6.15633e-26)
(0.22665 0.194923 1.40974e-24)
(0.237052 0.180307 -1.28986e-25)
(0.245471 0.167387 0)
(0.251566 0.157127 -1.4537e-24)
(0.257699 0.147974 0)
(0.264335 0.140483 0)
(0.271867 0.13397 7.91715e-25)
(0.282348 0.128681 -3.24247e-26)
(0.295035 0.121869 -4.11761e-26)
(0.312496 0.105939 1.11722e-24)
(0.32442 0.0615572 9.02965e-27)
(0.320553 -0.00158138 1.30757e-26)
(0.224191 0.19628 -4.16641e-26)
(0.234491 0.180436 -1.47542e-24)
(0.242158 0.166591 0)
(0.247604 0.155105 -1.36086e-24)
(0.253121 0.144009 1.022e-25)
(0.258197 0.134636 0)
(0.264583 0.125195 -1.36661e-24)
(0.275597 0.117059 -6.77686e-25)
(0.289022 0.107958 -5.24713e-26)
(0.308394 0.0927669 2.04496e-24)
(0.325832 0.0598966 0)
(0.335314 -0.00421 1.03479e-25)
(0.21705 0.193209 -2.5564e-24)
(0.227653 0.178414 -1.34681e-24)
(0.234869 0.164625 0)
(0.2383 0.152237 0)
(0.24174 0.139461 1.16195e-24)
(0.244568 0.128834 -1.16903e-24)
(0.249839 0.115791 -2.23312e-24)
(0.260774 0.104511 1.19397e-25)
(0.274418 0.0931577 -7.45832e-25)
(0.294177 0.0761732 5.00794e-25)
(0.310036 0.0414059 1.82973e-25)
(0.33567 -0.0303945 1.74042e-25)
(0.136077 -0.00648767 5.81819e-27)
(0.135338 -0.0172793 -1.26168e-26)
(0.13457 -0.0272434 5.25467e-26)
(0.133543 -0.036906 0)
(0.132188 -0.0464505 -4.69567e-27)
(0.130359 -0.0558374 -8.86287e-27)
(0.127925 -0.0654934 5.63016e-26)
(0.125276 -0.074492 0)
(0.122024 -0.0825768 -6.68766e-26)
(0.117248 -0.0911348 -6.14647e-26)
(0.112057 -0.098794 -1.19251e-25)
(0.105888 -0.105714 -2.99211e-26)
(0.157511 -0.00499171 1.04232e-26)
(0.158181 -0.0164369 -6.47157e-26)
(0.159002 -0.0285189 -6.12874e-26)
(0.159639 -0.0408269 1.38004e-25)
(0.159914 -0.0530568 -2.00481e-26)
(0.159592 -0.0647836 -5.35684e-26)
(0.157887 -0.0771183 0)
(0.155748 -0.0889849 0)
(0.153989 -0.0995541 2.18403e-25)
(0.150427 -0.110238 1.34635e-25)
(0.145779 -0.119061 -2.82973e-25)
(0.139739 -0.126457 1.79788e-25)
(0.17807 -0.00891554 -9.64856e-27)
(0.178735 -0.0252215 -1.07726e-25)
(0.179664 -0.0407222 -1.03106e-25)
(0.180499 -0.0557303 1.08083e-25)
(0.180922 -0.0700773 0)
(0.180957 -0.0838774 0)
(0.180112 -0.0984896 0)
(0.178093 -0.112722 0)
(0.175573 -0.124921 1.7603e-35)
(0.172257 -0.135494 2.78994e-25)
(0.167989 -0.144291 -2.83375e-25)
(0.162658 -0.151435 2.84971e-25)
(0.199164 -0.0111466 2.64306e-26)
(0.199845 -0.0312791 -4.21146e-26)
(0.200709 -0.0499894 5.98788e-26)
(0.201414 -0.0677027 -7.20863e-26)
(0.201805 -0.0844855 1.17481e-25)
(0.201849 -0.100754 0)
(0.200881 -0.116851 0)
(0.1987 -0.131731 0)
(0.196037 -0.144531 -9.69116e-25)
(0.192964 -0.15539 0)
(0.189344 -0.16427 3.84151e-25)
(0.184927 -0.171243 7.41633e-26)
(0.220088 -0.0137501 8.86293e-26)
(0.220621 -0.0375672 -1.31154e-25)
(0.221011 -0.0592594 0)
(0.221102 -0.0793402 -4.656e-25)
(0.220643 -0.0981233 3.99666e-26)
(0.219468 -0.115852 -1.68668e-25)
(0.217391 -0.13251 0)
(0.214483 -0.147751 0)
(0.211201 -0.161045 -7.12932e-25)
(0.207859 -0.172303 0)
(0.204537 -0.181519 7.38456e-25)
(0.201083 -0.188778 0)
(0.241018 -0.0161863 2.36857e-36)
(0.241263 -0.0431873 -1.46199e-25)
(0.240911 -0.0674239 0)
(0.240006 -0.0892546 2.4562e-34)
(0.238109 -0.109278 -1.54367e-25)
(0.235266 -0.127672 -1.99563e-25)
(0.231392 -0.144571 0)
(0.226799 -0.159838 -2.55741e-25)
(0.22201 -0.173243 -9.9304e-26)
(0.217567 -0.184712 -6.69715e-25)
(0.213811 -0.194278 -9.51627e-25)
(0.210813 -0.202051 0)
(0.26209 -0.0185223 3.67569e-26)
(0.262055 -0.0479691 5.07481e-26)
(0.260556 -0.0742583 -2.40291e-25)
(0.258485 -0.0971567 5.3234e-25)
(0.254921 -0.117749 3.31946e-25)
(0.250166 -0.136155 -9.70756e-25)
(0.24399 -0.152726 -4.56507e-25)
(0.236951 -0.167614 1.0204e-25)
(0.22974 -0.180788 -1.107e-24)
(0.223142 -0.192296 -7.9288e-25)
(0.217777 -0.202227 -8.75872e-25)
(0.214029 -0.21082 -1.01103e-25)
(0.283407 -0.0210166 8.04618e-26)
(0.283351 -0.051707 -1.76188e-25)
(0.280143 -0.0796709 -3.64343e-25)
(0.276925 -0.103204 1.33357e-24)
(0.271626 -0.123784 1.21015e-24)
(0.265029 -0.141625 -1.02477e-24)
(0.25639 -0.157237 -3.93327e-25)
(0.246482 -0.171348 -2.60982e-25)
(0.236254 -0.18399 -1.31804e-24)
(0.226646 -0.195385 -2.45526e-25)
(0.218517 -0.205569 -7.84271e-26)
(0.212465 -0.214963 -1.14809e-25)
(0.305178 -0.0243754 -1.73543e-25)
(0.306021 -0.0543738 -1.89977e-25)
(0.299625 -0.0831553 -2.145e-25)
(0.295038 -0.107185 1.07701e-24)
(0.288147 -0.12756 0)
(0.280021 -0.144559 3.33973e-25)
(0.269117 -0.158565 3.88783e-25)
(0.256257 -0.171632 1.41512e-24)
(0.242916 -0.183543 1.35193e-24)
(0.22993 -0.194781 0)
(0.218408 -0.204985 6.71326e-26)
(0.208797 -0.214737 1.01746e-25)
(0.327687 -0.029427 -1.08896e-25)
(0.332125 -0.0550193 -5.41262e-26)
(0.318315 -0.0823958 2.69824e-25)
(0.309543 -0.109562 -4.44361e-25)
(0.302338 -0.128913 -4.30464e-25)
(0.293379 -0.144872 6.71579e-25)
(0.280887 -0.15659 2.23991e-25)
(0.265449 -0.168641 1.92027e-24)
(0.249539 -0.179791 3.23321e-24)
(0.233455 -0.191115 1.52272e-24)
(0.218902 -0.201112 -4.33595e-26)
(0.205359 -0.21046 -1.58776e-24)
(0.352262 -0.0423088 1.96315e-25)
(0.36586 -0.0610524 -1.14591e-25)
(0.345975 -0.0796103 1.15723e-24)
(0.323212 -0.108212 0)
(0.307716 -0.129186 1.74718e-24)
(0.298926 -0.14199 2.13062e-25)
(0.286644 -0.150313 2.38426e-25)
(0.27069 -0.161927 1.46209e-24)
(0.253767 -0.172358 1.42009e-24)
(0.2355 -0.184452 1.41235e-24)
(0.21969 -0.194172 -1.36786e-24)
(0.203475 -0.202268 -1.25228e-24)
(0.365279 -0.0434376 -1.25386e-25)
(0.367265 -0.0531608 -6.93433e-25)
(0.353016 -0.0548022 0)
(0.326861 -0.0920385 0)
(0.304587 -0.119565 1.60166e-24)
(0.291678 -0.131169 -1.68094e-24)
(0.281472 -0.138668 -1.434e-24)
(0.269032 -0.151038 2.97124e-24)
(0.253243 -0.161056 -1.48986e-24)
(0.23306 -0.174897 0)
(0.218302 -0.184215 -1.19222e-24)
(0.202308 -0.190235 -6.95376e-26)
(0.0986724 -0.111706 7.89192e-27)
(0.09049 -0.116682 -1.83263e-25)
(0.0814891 -0.120947 8.55633e-27)
(0.072067 -0.124744 1.97368e-25)
(0.0627121 -0.127997 1.52446e-25)
(0.054485 -0.129959 4.60588e-35)
(0.0453713 -0.131859 -1.05702e-25)
(0.0363678 -0.133472 1.07112e-27)
(0.0271057 -0.134715 5.99799e-26)
(0.0181536 -0.135676 -2.5515e-26)
(0.00963215 -0.13621 7.09092e-27)
(0.00226854 -0.13618 -2.58105e-27)
(0.132358 -0.132525 2.6912e-25)
(0.12353 -0.137544 -2.38677e-25)
(0.112901 -0.141681 -2.09913e-25)
(0.101057 -0.144744 3.96485e-25)
(0.0887222 -0.146084 2.04177e-25)
(0.076216 -0.147503 -2.50281e-25)
(0.0631766 -0.150794 -1.04842e-25)
(0.052895 -0.153071 -1.36151e-26)
(0.0413628 -0.154883 2.15276e-25)
(0.0301036 -0.156119 4.05314e-26)
(0.018629 -0.156747 -5.21165e-26)
(0.0066557 -0.156985 1.22927e-26)
(0.155897 -0.156866 -3.6288e-26)
(0.147277 -0.160785 2.77848e-25)
(0.136494 -0.163534 -2.67524e-25)
(0.123442 -0.165201 2.53931e-25)
(0.108918 -0.166868 0)
(0.0915349 -0.169438 -2.29603e-25)
(0.0732352 -0.171385 1.88806e-25)
(0.0590279 -0.173236 -5.42081e-26)
(0.0455086 -0.176061 2.52737e-27)
(0.0329586 -0.177701 1.05323e-25)
(0.0200813 -0.178245 -1.04202e-25)
(0.00688593 -0.178242 1.17193e-26)
(0.179256 -0.176486 6.73904e-25)
(0.171789 -0.180136 4.73773e-25)
(0.161759 -0.182491 -8.40245e-26)
(0.148478 -0.183975 -1.54998e-25)
(0.131773 -0.185256 5.89432e-25)
(0.111749 -0.187219 -5.60398e-25)
(0.0900857 -0.189998 3.40608e-25)
(0.069704 -0.193619 8.91744e-26)
(0.0524375 -0.197761 -8.38088e-26)
(0.0391645 -0.200029 -8.65436e-27)
(0.0249439 -0.200062 8.62026e-27)
(0.0092712 -0.199351 -1.48928e-27)
(0.197052 -0.194219 1.38566e-24)
(0.19165 -0.197987 -8.21969e-25)
(0.18365 -0.200276 0)
(0.171395 -0.201489 0)
(0.15326 -0.20248 1.29321e-24)
(0.12898 -0.204641 -5.52346e-26)
(0.102258 -0.208608 -1.20069e-27)
(0.076352 -0.215875 2.87776e-25)
(0.0567464 -0.222545 2.61075e-25)
(0.0459272 -0.223598 8.16758e-27)
(0.0310379 -0.222162 6.30818e-26)
(0.0126882 -0.220756 1.58268e-27)
(0.208337 -0.208153 7.88697e-25)
(0.20568 -0.212624 -7.86314e-25)
(0.201492 -0.215292 -3.12289e-25)
(0.193333 -0.216046 9.83807e-26)
(0.17766 -0.215198 1.08455e-24)
(0.149828 -0.213558 -1.02246e-25)
(0.11101 -0.216992 6.13796e-25)
(0.0787313 -0.227901 3.13404e-25)
(0.0619086 -0.233751 5.95293e-25)
(0.0523387 -0.23455 0)
(0.0371244 -0.239305 0)
(0.0177886 -0.241565 0)
(0.212064 -0.218247 0)
(0.211593 -0.224651 1.63365e-24)
(0.21183 -0.229538 0)
(0.210364 -0.232249 0)
(0.202803 -0.232271 -5.94484e-25)
(0.181282 -0.230258 -5.36452e-25)
(0.133476 -0.226634 2.30598e-25)
(0.0778488 -0.231158 -8.49459e-26)
(0.0619285 -0.239061 3.07942e-25)
(0.0490558 -0.245799 -3.75328e-25)
(0.0308842 -0.255372 1.73826e-25)
(0.015084 -0.26163 -9.22773e-26)
(0.209037 -0.223865 -1.69645e-24)
(0.208594 -0.232829 1.57594e-24)
(0.21146 -0.241226 1.67539e-24)
(0.215935 -0.248007 1.71964e-24)
(0.21831 -0.252423 1.77951e-24)
(0.210519 -0.253548 1.82694e-24)
(0.173199 -0.25091 -3.65796e-25)
(0.098786 -0.244033 -5.20975e-25)
(0.0586029 -0.24692 -1.13252e-25)
(0.0380208 -0.262485 -6.4922e-25)
(0.0231323 -0.274409 1.73128e-25)
(0.00954564 -0.281169 -9.66366e-26)
(0.20182 -0.22448 -1.67594e-24)
(0.198672 -0.23544 -2.80592e-26)
(0.200793 -0.247222 3.03755e-24)
(0.207506 -0.258329 1.48585e-24)
(0.216137 -0.269459 1.82844e-24)
(0.220714 -0.279557 1.01063e-24)
(0.203076 -0.289501 -1.49695e-25)
(0.132217 -0.28238 5.42979e-26)
(0.0672042 -0.27279 8.04287e-25)
(0.0322804 -0.27776 -3.09706e-25)
(0.0158537 -0.288011 -2.07067e-26)
(0.00473187 -0.300332 1.25374e-26)
(0.193374 -0.219819 0)
(0.184699 -0.231105 -1.49334e-24)
(0.183001 -0.244033 -1.14548e-34)
(0.188234 -0.256708 0)
(0.197707 -0.271158 2.25231e-25)
(0.209226 -0.288513 -7.96142e-26)
(0.214922 -0.307394 0)
(0.177859 -0.315779 0)
(0.0929596 -0.308505 1.96975e-24)
(0.0383988 -0.299956 -6.88921e-25)
(0.00775824 -0.307335 0)
(-0.00438525 -0.321431 -8.79198e-26)
(0.186357 -0.209501 1.92504e-26)
(0.170109 -0.219266 1.15021e-26)
(0.161802 -0.230609 -2.63616e-24)
(0.162635 -0.240787 0)
(0.168825 -0.25293 0)
(0.177451 -0.271724 0)
(0.193007 -0.292352 1.70506e-24)
(0.181729 -0.314679 0)
(0.126711 -0.325819 2.72444e-24)
(0.0544953 -0.315968 -5.39256e-35)
(-0.00317775 -0.324127 -3.36928e-25)
(-0.0136292 -0.340909 -1.84618e-25)
(0.182809 -0.19415 0)
(0.159692 -0.200536 2.30775e-24)
(0.143294 -0.207757 -1.13462e-24)
(0.136792 -0.210798 1.16856e-24)
(0.135551 -0.209557 0)
(0.132039 -0.218643 5.90238e-25)
(0.149627 -0.229506 1.01522e-24)
(0.149672 -0.259771 6.81494e-25)
(0.112199 -0.295169 9.91817e-25)
(0.0622258 -0.316421 2.54404e-24)
(-0.0133907 -0.330591 4.32958e-26)
(-0.0334489 -0.344443 -2.42073e-26)
(-0.00683484 -0.136136 8.65698e-27)
(-0.0180795 -0.135549 8.33524e-27)
(-0.028283 -0.135114 -4.97638e-27)
(-0.0378447 -0.134689 6.06012e-27)
(-0.0472352 -0.133938 8.38638e-26)
(-0.0568314 -0.1325 -6.80453e-26)
(-0.0672868 -0.130269 -1.06484e-25)
(-0.0771869 -0.127869 0)
(-0.0862142 -0.124954 6.43656e-26)
(-0.094665 -0.121039 7.87293e-26)
(-0.103963 -0.115651 1.09284e-25)
(-0.112536 -0.110174 1.67671e-25)
(-0.00529557 -0.157402 1.04374e-26)
(-0.017361 -0.157622 4.74565e-26)
(-0.0303114 -0.158005 -9.63425e-26)
(-0.0436775 -0.158943 0)
(-0.0559954 -0.160677 7.18293e-26)
(-0.0685867 -0.16198 -8.79999e-26)
(-0.0811719 -0.161654 6.8446e-26)
(-0.0924729 -0.15935 1.99898e-26)
(-0.104222 -0.155818 2.56964e-25)
(-0.115967 -0.15271 0)
(-0.128997 -0.147856 2.70327e-25)
(-0.140276 -0.142548 0)
(-0.00810276 -0.177928 5.51051e-26)
(-0.0241055 -0.177758 1.09028e-25)
(-0.040763 -0.177434 -2.0735e-25)
(-0.0584847 -0.176608 2.90651e-26)
(-0.0747446 -0.17742 2.78411e-26)
(-0.0886123 -0.179241 2.3039e-26)
(-0.101881 -0.179743 -2.43986e-25)
(-0.114035 -0.179506 -2.15179e-25)
(-0.128021 -0.175796 5.52374e-25)
(-0.141718 -0.170576 1.35677e-25)
(-0.154557 -0.164381 4.88535e-25)
(-0.165677 -0.158081 -5.05889e-25)
(-0.00948284 -0.199101 2.6222e-26)
(-0.0286187 -0.199523 1.35559e-25)
(-0.0480366 -0.199576 -3.43247e-26)
(-0.0687691 -0.197845 -3.33612e-25)
(-0.0905198 -0.194946 0)
(-0.107955 -0.195575 4.57081e-25)
(-0.118893 -0.197248 6.84561e-25)
(-0.1296 -0.195368 2.08001e-25)
(-0.143213 -0.191122 -6.75529e-26)
(-0.157902 -0.185292 6.64851e-25)
(-0.171794 -0.178787 5.33984e-25)
(-0.183921 -0.172048 -1.60991e-24)
(-0.0122589 -0.220193 3.00847e-36)
(-0.0353056 -0.221659 2.32398e-25)
(-0.0569872 -0.222949 5.76878e-26)
(-0.0787413 -0.223074 -3.07162e-25)
(-0.100743 -0.218102 -1.98456e-25)
(-0.118198 -0.211667 -2.08138e-25)
(-0.128625 -0.208552 3.14675e-25)
(-0.141234 -0.206151 0)
(-0.156624 -0.202432 -1.40811e-24)
(-0.172537 -0.196131 7.14295e-25)
(-0.186968 -0.189282 7.37034e-25)
(-0.199388 -0.181877 -1.50842e-24)
(-0.0157671 -0.241151 1.09562e-25)
(-0.043162 -0.24318 1.82105e-25)
(-0.0669566 -0.245147 -1.62075e-25)
(-0.0885214 -0.245729 -4.65185e-25)
(-0.108737 -0.242674 -3.48683e-26)
(-0.127421 -0.235006 8.92946e-26)
(-0.141139 -0.228937 2.92501e-25)
(-0.15657 -0.223229 -2.49471e-25)
(-0.171231 -0.216716 -3.52989e-25)
(-0.186275 -0.208038 7.53786e-25)
(-0.19916 -0.199238 2.28679e-25)
(-0.210589 -0.189879 -5.15392e-25)
(-0.0193794 -0.261939 1.59542e-25)
(-0.0511108 -0.264063 -3.89108e-26)
(-0.0766338 -0.266071 -7.71915e-26)
(-0.0976411 -0.266236 -2.64206e-25)
(-0.115921 -0.264219 4.36929e-25)
(-0.135159 -0.259197 3.29161e-25)
(-0.151483 -0.253165 -7.96415e-25)
(-0.167514 -0.243404 -7.67316e-25)
(-0.181244 -0.233016 3.7358e-25)
(-0.194421 -0.221001 1.89622e-34)
(-0.205604 -0.208595 -1.40597e-24)
(-0.216307 -0.196672 2.75607e-25)
(-0.0228917 -0.282715 8.93518e-26)
(-0.059039 -0.284999 4.75416e-26)
(-0.0864271 -0.287336 6.02857e-25)
(-0.107565 -0.288119 1.11928e-24)
(-0.125838 -0.286459 5.39686e-26)
(-0.143231 -0.280418 6.19441e-25)
(-0.157828 -0.271762 0)
(-0.17221 -0.260656 0)
(-0.184613 -0.247555 0)
(-0.196499 -0.232845 -2.49073e-24)
(-0.207582 -0.217787 -3.33408e-24)
(-0.218041 -0.20297 1.65076e-24)
(-0.0261956 -0.303372 -2.00484e-25)
(-0.0666853 -0.305376 -4.31539e-25)
(-0.0961643 -0.307747 4.23159e-25)
(-0.116571 -0.30849 1.30519e-25)
(-0.133433 -0.305499 1.75256e-25)
(-0.148446 -0.298688 -2.44596e-25)
(-0.161332 -0.288629 1.08212e-24)
(-0.173919 -0.276171 -3.72042e-25)
(-0.184637 -0.261363 -2.77272e-25)
(-0.195225 -0.244064 -2.01778e-24)
(-0.206066 -0.226187 -3.19018e-24)
(-0.216796 -0.208994 3.18964e-25)
(-0.0287993 -0.324059 -1.13157e-25)
(-0.0729592 -0.324429 -9.26697e-25)
(-0.105192 -0.32464 8.26143e-26)
(-0.122905 -0.32471 -1.6798e-24)
(-0.136722 -0.319005 5.80137e-26)
(-0.149141 -0.310564 -1.46678e-25)
(-0.159809 -0.29937 1.61294e-24)
(-0.171281 -0.286351 0)
(-0.180159 -0.271344 1.5658e-24)
(-0.189623 -0.252205 1.64063e-24)
(-0.200843 -0.231845 -1.52131e-24)
(-0.21234 -0.212751 -1.44047e-24)
(-0.0333476 -0.346643 1.20485e-25)
(-0.0785979 -0.34429 -5.85265e-25)
(-0.111451 -0.334095 -5.46438e-26)
(-0.123669 -0.328459 -9.70954e-25)
(-0.132674 -0.316715 -8.10536e-26)
(-0.142406 -0.304582 0)
(-0.150429 -0.292676 -1.69975e-25)
(-0.16065 -0.281417 -4.82528e-25)
(-0.168047 -0.269447 8.9962e-25)
(-0.176424 -0.251253 1.52145e-24)
(-0.189345 -0.230078 1.5447e-24)
(-0.203244 -0.210748 0)
(-0.0234854 -0.357441 6.54398e-25)
(-0.0670731 -0.350963 5.69433e-25)
(-0.102339 -0.32858 -6.73423e-25)
(-0.108218 -0.315732 -1.53126e-25)
(-0.10972 -0.291717 2.4297e-26)
(-0.116669 -0.266838 2.09638e-25)
(-0.124706 -0.247369 -2.42509e-25)
(-0.131165 -0.241712 -2.19011e-25)
(-0.13997 -0.237587 -3.31037e-25)
(-0.148336 -0.230506 0)
(-0.167535 -0.2135 1.39347e-24)
(-0.186275 -0.197614 2.47707e-24)
(-0.120081 -0.104207 7.61909e-26)
(-0.125791 -0.0978508 2.56128e-25)
(-0.130551 -0.089343 8.10245e-26)
(-0.135206 -0.0782396 6.88169e-26)
(-0.140064 -0.0668251 0)
(-0.142172 -0.058872 -1.40116e-25)
(-0.142574 -0.0495361 -6.84593e-26)
(-0.141995 -0.0398252 -2.60658e-27)
(-0.140921 -0.0296748 0)
(-0.139486 -0.019819 -4.85755e-26)
(-0.138454 -0.0103573 1.26166e-26)
(-0.136966 -0.00393597 -7.50485e-28)
(-0.14949 -0.137097 -1.82108e-25)
(-0.156045 -0.13156 4.29772e-25)
(-0.1613 -0.124673 5.7925e-26)
(-0.164451 -0.114362 -2.34595e-25)
(-0.167118 -0.0986076 0)
(-0.166734 -0.0888607 0)
(-0.16623 -0.0776584 -6.41622e-26)
(-0.165837 -0.0649823 -5.17293e-27)
(-0.163663 -0.0535162 -7.27784e-26)
(-0.160367 -0.0391261 6.57162e-26)
(-0.157981 -0.0234551 -5.2291e-26)
(-0.156926 -0.0108325 -1.30537e-26)
(-0.174619 -0.152087 -1.83698e-25)
(-0.181455 -0.147102 3.19925e-25)
(-0.18689 -0.142222 0)
(-0.192536 -0.136466 1.16098e-36)
(-0.19846 -0.123566 0)
(-0.1994 -0.111558 0)
(-0.198985 -0.0983533 0)
(-0.195737 -0.0831301 0)
(-0.190743 -0.069922 -1.31233e-25)
(-0.186901 -0.0520682 1.17029e-25)
(-0.182699 -0.0314596 -1.68981e-26)
(-0.179348 -0.0134726 2.69576e-26)
(-0.1941 -0.165604 -7.61078e-26)
(-0.202582 -0.159763 -4.79708e-25)
(-0.209905 -0.154187 0)
(-0.216222 -0.148314 1.11626e-24)
(-0.221035 -0.140253 0)
(-0.2229 -0.131191 3.50504e-25)
(-0.222216 -0.120698 -3.37583e-25)
(-0.218876 -0.107814 1.66907e-25)
(-0.213504 -0.0925669 6.56673e-25)
(-0.207462 -0.0725281 1.6309e-25)
(-0.200734 -0.0473764 1.78337e-25)
(-0.198362 -0.0197168 5.40322e-26)
(-0.210059 -0.174648 0)
(-0.219261 -0.168011 -7.77268e-25)
(-0.227223 -0.16198 0)
(-0.234034 -0.156257 7.86972e-25)
(-0.239301 -0.150278 0)
(-0.242479 -0.143852 3.86449e-25)
(-0.2434 -0.136349 -5.45165e-25)
(-0.241856 -0.126508 4.79282e-26)
(-0.237886 -0.112547 9.07554e-25)
(-0.231988 -0.0916484 0)
(-0.224847 -0.0615351 2.26418e-25)
(-0.220472 -0.0228375 -6.74349e-26)
(-0.220922 -0.180799 0)
(-0.230235 -0.172567 8.61072e-25)
(-0.238549 -0.1654 9.1657e-25)
(-0.245927 -0.159337 -1.06376e-25)
(-0.252177 -0.154193 -5.59218e-26)
(-0.25704 -0.149645 0)
(-0.260298 -0.145042 -9.92105e-25)
(-0.26153 -0.138964 -1.78789e-25)
(-0.260217 -0.128822 -3.82167e-34)
(-0.256044 -0.110374 0)
(-0.248925 -0.0784422 1.80334e-25)
(-0.242332 -0.0301305 -7.91406e-26)
(-0.226371 -0.185144 1.11614e-25)
(-0.235621 -0.174716 9.73401e-25)
(-0.244023 -0.165751 8.1356e-25)
(-0.251721 -0.158501 -7.41181e-26)
(-0.258753 -0.152886 1.07449e-25)
(-0.265059 -0.148827 9.4913e-25)
(-0.270627 -0.145949 -1.62395e-25)
(-0.275066 -0.143128 -1.2409e-24)
(-0.27754 -0.137757 -1.09552e-24)
(-0.276963 -0.124559 6.00375e-25)
(-0.271916 -0.0949898 1.41173e-25)
(-0.264573 -0.0396197 1.23531e-33)
(-0.227868 -0.188836 8.52205e-26)
(-0.236999 -0.176011 1.41733e-25)
(-0.245341 -0.164897 -1.26006e-26)
(-0.25304 -0.155755 -2.28105e-26)
(-0.260297 -0.148704 -1.25236e-26)
(-0.267433 -0.143741 9.986e-25)
(-0.274663 -0.140855 1.96403e-24)
(-0.281926 -0.139609 -5.67959e-25)
(-0.288517 -0.138151 -1.18217e-24)
(-0.292983 -0.131371 4.74014e-25)
(-0.292595 -0.108061 2.40869e-25)
(-0.287305 -0.0502507 0)
(-0.226734 -0.192542 1.04608e-25)
(-0.235767 -0.177373 -1.11123e-25)
(-0.244027 -0.164075 0)
(-0.251707 -0.152849 -1.58221e-24)
(-0.258816 -0.143988 1.46529e-26)
(-0.265975 -0.137104 1.24694e-25)
(-0.273899 -0.132565 7.10867e-26)
(-0.28294 -0.130664 0)
(-0.29291 -0.130742 -7.41757e-25)
(-0.302667 -0.12924 6.75935e-25)
(-0.308739 -0.11416 2.68667e-25)
(-0.30975 -0.0601179 1.30727e-25)
(-0.222781 -0.194959 1.53575e-24)
(-0.232191 -0.178182 6.91094e-26)
(-0.240656 -0.163201 0)
(-0.248453 -0.150291 -2.86151e-24)
(-0.255206 -0.139832 5.86679e-26)
(-0.261736 -0.130733 -2.40037e-26)
(-0.269436 -0.123527 -8.10146e-25)
(-0.279025 -0.119099 -6.99228e-26)
(-0.291006 -0.117825 -1.05278e-25)
(-0.304922 -0.118325 -5.58928e-25)
(-0.318545 -0.109985 -5.66468e-26)
(-0.330485 -0.065789 1.33201e-25)
(-0.214882 -0.193359 1.45903e-24)
(-0.225127 -0.176242 1.33567e-24)
(-0.234194 -0.160573 0)
(-0.24253 -0.146887 -1.36773e-24)
(-0.248938 -0.135892 -1.26395e-24)
(-0.254402 -0.125145 2.92601e-26)
(-0.261184 -0.115063 -5.86891e-26)
(-0.270271 -0.107012 -1.42938e-24)
(-0.28254 -0.102194 0)
(-0.298268 -0.100431 -9.23712e-25)
(-0.31956 -0.0930208 5.36997e-25)
(-0.345246 -0.0605319 -3.63042e-25)
(-0.200308 -0.183698 -7.69498e-26)
(-0.211986 -0.168301 1.1397e-24)
(-0.222171 -0.153323 0)
(-0.231709 -0.140085 1.04628e-24)
(-0.238108 -0.130363 -2.20347e-24)
(-0.242628 -0.119521 1.17847e-24)
(-0.248512 -0.107523 1.1986e-24)
(-0.256139 -0.096253 -1.1706e-24)
(-0.266181 -0.0876275 0)
(-0.279755 -0.0801455 0)
(-0.306019 -0.0636272 8.28177e-25)
(-0.339832 -0.0245729 5.71238e-26)
(-0.135886 0.00584568 -5.53543e-27)
(-0.134177 0.0148397 -1.64089e-26)
(-0.131694 0.0256154 0)
(-0.130025 0.0380396 0)
(-0.129642 0.047715 0)
(-0.128828 0.0538968 -1.19956e-25)
(-0.125522 0.0625127 -2.24625e-26)
(-0.121873 0.0712363 0)
(-0.117813 0.0798051 -1.69767e-25)
(-0.113293 0.08802 1.4872e-25)
(-0.108118 0.0960279 8.68227e-26)
(-0.10227 0.103881 6.05614e-26)
(-0.157778 0.00385817 -1.04793e-26)
(-0.159602 0.0127177 2.77272e-26)
(-0.160294 0.0253728 0)
(-0.157824 0.0403745 -2.92283e-26)
(-0.154993 0.0515198 -9.0971e-27)
(-0.154462 0.0589997 -7.15501e-26)
(-0.152583 0.0705805 -4.68094e-26)
(-0.149676 0.0822618 -1.12488e-26)
(-0.146101 0.0936923 3.28977e-26)
(-0.141974 0.104664 4.7542e-26)
(-0.137026 0.115391 -8.95234e-27)
(-0.131063 0.125722 6.02126e-26)
(-0.177873 0.00901213 9.89262e-27)
(-0.178288 0.0226671 -9.60375e-37)
(-0.178904 0.034867 0)
(-0.178268 0.0485574 0)
(-0.176091 0.0625427 1.38122e-26)
(-0.174144 0.0755495 6.69358e-26)
(-0.171762 0.0890204 9.15804e-26)
(-0.168589 0.102353 2.47268e-25)
(-0.164596 0.115483 2.54875e-25)
(-0.159837 0.128149 -2.62613e-25)
(-0.154269 0.140271 0)
(-0.147828 0.15163 5.48132e-25)
(-0.199161 0.0101587 -2.514e-26)
(-0.199635 0.0264424 -7.06274e-26)
(-0.199516 0.0416644 0)
(-0.198915 0.0568637 -2.6198e-25)
(-0.197106 0.0725541 3.81529e-26)
(-0.194493 0.0877968 3.50089e-25)
(-0.191191 0.102921 0)
(-0.187103 0.117774 3.73761e-25)
(-0.182229 0.132236 -5.24474e-25)
(-0.176627 0.146085 4.7067e-25)
(-0.170346 0.159138 6.86452e-25)
(-0.163465 0.171133 8.06203e-25)