/*--------------------------------*- C++ -*----------------------------------*\
| =========                 |                                                 |
| \\      /  F ield         | OpenFOAM: The Open Source CFD Toolbox           |
|  \\    /   O peration     | Version:  v1606+                                |
|   \\  /    A nd           | Web:      www.OpenFOAM.com                      |
|    \\/     M anipulation  |                                                 |
\*---------------------------------------------------------------------------*/
FoamFile
{
    version     2.0;
    format      ascii;
    class       surfaceVectorField;
    location    "0.8";
    object      Uf;
}
// * * * * * * * * * * * * * * * * * * * * * * * * * * * * * * * * * * * * * //

dimensions      [0 1 -1 0 0 0 0];

internalField   nonuniform List<vector> 
1460
(
(-0.0106615 -0.0333872 -3.08423e-21)
(-0.0160912 -0.0441299 -6.78784e-21)
(-0.0264911 -0.0169588 1.19631e-21)
(-0.0294598 -0.0346598 3.68304e-21)
(-0.0403325 0.00761036 -1.95394e-20)
(-0.0434374 -0.0119034 9.51001e-21)
(-0.0452611 0.0319441 -1.61012e-20)
(-0.0511669 0.0141654 -2.13097e-20)
(-0.0363434 0.049458 -1.9949e-20)
(-0.0451497 0.0352193 1.29047e-20)
(-0.0171022 0.0563576 -9.7893e-20)
(-0.0271344 0.0472003 -2.65476e-20)
(0.00473554 0.0533214 -1.3082e-19)
(-0.00520345 0.0491508 -5.35972e-21)
(0.0223293 0.0442868 -2.73939e-20)
(0.0132422 0.043837 -1.84637e-20)
(0.0343259 0.0340402 3.23834e-20)
(0.0263349 0.035506 3.25994e-20)
(0.0423747 0.0247133 0)
(0.0349402 0.0269604 0)
(0.0482194 0.0163392 -2.77067e-20)
(0.0408473 0.0189813 -4.30848e-21)
(0.0452464 0.0114083 -5.7544e-21)
(0.052831 0.00830426 -2.75304e-20)
(-0.0343559 -0.0503292 0)
(-0.0341987 -0.0553155 0)
(-0.0444875 -0.0323091 1.35497e-21)
(-0.0414052 -0.0471406 -5.61826e-21)
(-0.0521944 -0.00688768 4.31513e-22)
(-0.0492979 -0.0224376 -2.50497e-20)
(-0.0485607 0.0174371 4.35086e-21)
(-0.0501168 0.00343731 4.13649e-20)
(-0.0343375 0.0343898 7.75535e-21)
(-0.0401551 0.0237767 6.63337e-20)
(-0.0151792 0.0417195 6.03113e-20)
(-0.0229061 0.0355177 1.45926e-20)
(0.00305583 0.041073 1.03869e-19)
(-0.00471128 0.0384812 2.42668e-20)
(0.0168819 0.0356458 4.19924e-20)
(0.0098255 0.0354732 6.38603e-22)
(0.0262838 0.0284297 0)
(0.0203118 0.0294761 5.67525e-20)
(0.0326902 0.0210675 -4.33742e-21)
(0.0274037 0.0226164 0)
(0.0372896 0.0139483 1.80749e-20)
(0.0322191 0.015807 -2.56458e-22)
(0.0355881 0.00918936 3.49939e-20)
(0.0407084 0.0068779 3.64056e-20)
(-0.0389312 -0.0531133 -5.65453e-21)
(-0.038955 -0.0573491 -2.17347e-20)
(-0.0443041 -0.0371559 -3.63515e-20)
(-0.0373478 -0.0480989 -3.78069e-20)
(-0.0466362 -0.0127845 1.59835e-20)
(-0.0397298 -0.0243367 3.8798e-21)
(-0.0401965 0.0100193 1.0008e-19)
(-0.0387222 -0.0014743 -1.51382e-20)
(-0.0273357 0.0256295 7.28146e-20)
(-0.0305868 0.0165491 7.07947e-20)
(-0.0120438 0.0327667 -2.39064e-20)
(-0.0174936 0.0272023 1.53963e-20)
(0.00207509 0.033201 -7.93713e-20)
(-0.00362221 0.030612 -4.82891e-20)
(0.0131881 0.0295507 1.59201e-20)
(0.00784 0.0290838 -4.26673e-20)
(0.0210593 0.023923 5.71188e-20)
(0.0165244 0.0248088 1.48724e-20)
(0.0264486 0.017724 4.1353e-21)
(0.0226252 0.0193137 0)
(0.0300997 0.0115135 1.66992e-20)
(0.0267217 0.0135166 -2.22991e-20)
(0.0293824 0.00769843 -2.33936e-20)
(0.0325375 0.00531982 2.13543e-20)
(-0.0324523 -0.0469269 -5.41867e-20)
(-0.0203838 -0.0443124 3.81781e-20)
(-0.0318999 -0.0350633 -6.57216e-22)
(-0.0186431 -0.0382583 1.24717e-20)
(-0.0326263 -0.0133401 -2.35071e-20)
(-0.0238562 -0.0212431 -1.30562e-20)
(-0.0287783 0.0061097 -3.87532e-20)
(-0.0265811 -0.00287547 -5.54954e-20)
(-0.0200784 0.0193545 1.75873e-20)
(-0.0222961 0.0121194 -6.19542e-20)
(-0.0088595 0.025812 -1.14138e-20)
(-0.0131079 0.0212598 -5.68612e-20)
(0.00211496 0.0269359 -1.28006e-20)
(-0.00248077 0.0246698 4.40292e-20)
(0.0111679 0.0246126 -4.36602e-20)
(0.00680328 0.0241103 3.49902e-20)
(0.0179345 0.0203527 -4.23434e-20)
(0.0142133 0.0210541 -4.25956e-20)
(0.0226486 0.0152461 -2.66243e-20)
(0.0196335 0.0166679 7.10067e-21)
(0.0257703 0.00987736 -6.28591e-20)
(0.0233255 0.0117425 -4.34401e-21)
(0.0276585 0.00440845 -5.29365e-20)
(0.0256332 0.00662664 -2.09711e-20)
(0.0564431 -9.67314e-05 2.06276e-20)
(0.0486411 0.00371878 1.42378e-20)
(0.0585176 -0.00955224 2.04513e-20)
(0.0508842 -0.00462579 3.47412e-20)
(0.0577006 -0.0203607 0)
(0.0512736 -0.013993 -3.80641e-20)
(0.0526716 -0.0321429 5.85465e-20)
(0.0487745 -0.0243586 -1.89565e-20)
(0.0427061 -0.0436943 1.51763e-19)
(0.0423564 -0.034984 7.03476e-22)
(0.0288959 -0.0530535 2.25297e-19)
(0.0317468 -0.0445144 9.44941e-20)
(0.0140932 -0.0581953 1.01167e-19)
(0.0182715 -0.0511227 3.94805e-20)
(0.00109998 -0.05794 3.18765e-20)
(0.00442081 -0.0530288 -5.59807e-20)
(-0.00908071 -0.0521643 7.8345e-20)
(-0.00770958 -0.0491297 2.09467e-20)
(-0.0175207 -0.0410948 -5.51556e-20)
(-0.017446 -0.0390812 1.44346e-20)
(-0.0253496 -0.0245616 -6.80594e-20)
(-0.0251608 -0.0235548 -2.41506e-20)
(-0.0351102 0.00127458 0)
(-0.0354416 -0.00454799 0)
(0.043079 -0.000549936 2.83739e-20)
(0.0378889 0.00250547 2.28625e-20)
(0.0440122 -0.00868364 -2.40712e-20)
(0.0390726 -0.00450865 -2.19852e-20)
(0.0429881 -0.017554 -5.74035e-20)
(0.0387659 -0.0122025 -1.29469e-21)
(0.0392129 -0.0267813 -7.69833e-20)
(0.0363749 -0.0204982 -1.35429e-21)
(0.0320059 -0.0355483 -5.71854e-20)
(0.0312436 -0.0288734 -9.23542e-20)
(0.0213137 -0.0424895 -9.3549e-20)
(0.023071 -0.036365 1.69672e-20)
(0.00814507 -0.0458488 -1.18506e-19)
(0.0124871 -0.0414544 -9.4149e-20)
(-0.00536836 -0.0440447 -7.08031e-20)
(0.00109008 -0.0424952 2.85509e-21)
(-0.0170372 -0.036169 -4.51148e-20)
(-0.00954769 -0.0379915 -2.01927e-20)
(-0.0262824 -0.0219571 5.18004e-20)
(-0.0185069 -0.0266382 1.81468e-20)
(-0.0341522 -0.000122444 5.18004e-20)
(-0.0248651 -0.0083263 -3.62262e-20)
(-0.035097 0.0249478 0)
(-0.0507551 0.0249039 2.3653e-21)
(0.0339162 -0.00106594 -2.76574e-20)
(0.0309244 0.00181566 -7.92533e-21)
(0.0340931 -0.00782122 8.83162e-22)
(0.0314045 -0.00424593 1.44245e-20)
(0.032649 -0.0150001 5.52304e-20)
(0.0305819 -0.0107085 3.74934e-20)
(0.029006 -0.0224167 -1.6495e-20)
(0.028035 -0.0174526 -4.90681e-20)
(0.022852 -0.0294739 -1.84499e-20)
(0.0232919 -0.0241423 -3.5243e-20)
(0.0145288 -0.0350905 1.70767e-20)
(0.0161045 -0.0301404 -1.47127e-20)
(0.00522508 -0.0378049 2.87936e-20)
(0.00713242 -0.0343194 -3.02598e-20)
(-0.00376186 -0.0360212 5.5723e-20)
(-0.00165536 -0.035205 1.59448e-19)
(-0.0115569 -0.0282541 4.36381e-20)
(-0.00852264 -0.031227 2.2434e-20)
(-0.0174622 -0.0131529 -7.06136e-20)
(-0.0134374 -0.020483 -3.75606e-21)
(-0.0235407 0.0131805 -8.89292e-20)
(-0.0159094 0.0004291 -1.1091e-20)
(-0.0207742 0.0399265 -6.06149e-20)
(-0.0488781 0.0396878 0)
(0.0284628 -0.00120117 3.45418e-20)
(0.0267936 0.00140108 -1.66402e-20)
(0.0281478 -0.00702932 5.12791e-20)
(0.0268914 -0.00394895 1.88548e-20)
(0.0263908 -0.013054 -6.75634e-20)
(0.0257769 -0.00949514 0)
(0.0228016 -0.0190707 -6.75634e-20)
(0.0231616 -0.0151027 -1.84747e-20)
(0.016996 -0.0246704 -3.20931e-20)
(0.0186975 -0.020464 7.78591e-20)
(0.00902131 -0.0291363 -6.20265e-20)
(0.0120428 -0.0251045 -4.3518e-22)
(0.000266082 -0.0313089 1.00839e-19)
(0.00330487 -0.0282403 -1.60811e-21)
(-0.00675574 -0.0296605 1.27033e-19)
(-0.00573502 -0.0285752 2.7862e-20)
(-0.0104529 -0.0223235 -2.69961e-20)
(-0.0119633 -0.0243969 -3.13468e-21)
(-0.0104848 -0.00587155 4.69478e-20)
(-0.0135929 -0.0136194 -8.79659e-20)
(-0.00724033 0.0265818 8.22656e-21)
(-0.0103443 0.0091814 1.29205e-19)
(-0.0368137 0.0515924 -8.25873e-20)
(0.0057566 0.0439153 -3.23923e-20)
(-0.0335533 0.0107075 1.92407e-20)
(-0.0443389 0.0161238 2.34952e-21)
(-0.0170151 0.0266132 1.92407e-20)
(-0.0348308 0.0296174 -2.37496e-20)
(0.00767576 0.0405237 -4.93657e-21)
(-0.0119308 0.0436699 1.61979e-21)
(0.0320684 0.0454575 -2.02351e-20)
(0.0142406 0.051403 -4.9695e-21)
(0.0496032 0.0364774 1.3773e-20)
(0.0353376 0.0453157 1.58147e-20)
(0.0564878 0.0171509 6.73526e-20)
(0.0473229 0.027213 -1.52679e-20)
(0.0534144 -0.00475715 2.85835e-20)
(0.0492548 0.00521002 -5.90552e-20)
(0.0443321 -0.0223975 1.79655e-20)
(0.0439091 -0.0132827 -1.37075e-20)
(0.034031 -0.0344188 -3.58668e-20)
(0.035536 -0.0264028 7.48004e-22)
(0.0246473 -0.0424662 -8.52458e-20)
(0.0269419 -0.0350187 -6.73279e-20)
(0.0162244 -0.0482861 -1.77968e-20)
(0.0189111 -0.0409162 -2.22297e-20)
(0.0112988 -0.0452836 4.33407e-21)
(0.00815947 -0.0528523 -1.9594e-20)
(-0.0505935 0.0345327 -2.31744e-20)
(-0.0555988 0.0343528 2.38047e-21)
(-0.0324541 0.0447165 -2.31725e-20)
(-0.0473949 0.0416318 -4.17452e-20)
(-0.00690355 0.0524371 1.63067e-21)
(-0.0225368 0.0495631 -3.03058e-20)
(0.0175043 0.0487513 2.59065e-20)
(0.00345925 0.0503367 4.21761e-20)
(0.0344877 0.0344458 -9.61201e-21)
(0.0238505 0.0402927 1.04764e-21)
(0.0418163 0.0152156 -1.32451e-19)
(0.0356043 0.022969 -5.64601e-20)
(0.0411496 -0.00306862 -9.69324e-20)
(0.0385589 0.0047213 -4.13186e-20)
(0.035691 -0.0169267 -3.08361e-20)
(0.035527 -0.00985033 5.07977e-20)
(0.028435 -0.0263451 -3.02165e-20)
(0.0294967 -0.0203573 -1.72414e-20)
(0.0210284 -0.0327509 -3.72357e-21)
(0.0225984 -0.0274562 3.20585e-20)
(0.0138695 -0.037331 1.31658e-22)
(0.0157485 -0.0322627 -4.37104e-21)
(0.00910116 -0.0356051 1.27374e-20)
(0.00677297 -0.0407144 -3.58829e-22)
(-0.0534092 0.0391467 -1.31353e-20)
(-0.057664 0.0391578 -2.14623e-20)
(-0.0373524 0.0445373 -4.52884e-20)
(-0.0483847 0.0375692 -1.75715e-23)
(-0.012846 0.0468585 1.02952e-20)
(-0.0244591 0.0399396 4.69678e-20)
(0.0100452 0.0403546 1.701e-20)
(-0.00148796 0.0388881 -1.51326e-20)
(0.0256927 0.0274243 -4.62859e-20)
(0.0165868 0.0306946 -7.30086e-20)
(0.0328358 0.0120799 3.3569e-20)
(0.02726 0.0175498 -7.47052e-20)
(0.0332576 -0.00207687 1.0658e-19)
(0.0306679 0.003639 3.55277e-20)
(0.0295826 -0.0132151 6.4921e-20)
(0.0291231 -0.00785103 -2.03538e-22)
(0.023923 -0.0210993 4.50153e-20)
(0.0248221 -0.0165525 1.39672e-20)
(0.0176891 -0.0264876 3.11338e-20)
(0.0192963 -0.0226579 3.87854e-20)
(0.0114481 -0.0301202 8.40016e-21)
(0.0134686 -0.0267455 -7.49131e-21)
(0.00762875 -0.0293828 -7.64803e-21)
(0.00523622 -0.0325258 2.58528e-20)
(-0.0471989 0.0326436 -5.99607e-21)
(-0.0445798 0.0205198 3.84182e-20)
(-0.0352684 0.032079 9.72251e-20)
(-0.0384998 0.0187665 5.28176e-20)
(-0.0134187 0.0327816 2.56415e-20)
(-0.0213598 0.0239683 3.32876e-20)
(0.00611265 0.028891 -1.03929e-19)
(-0.00290731 0.0266919 -1.21889e-19)
(0.0193918 0.0201519 -1.01771e-19)
(0.0121372 0.0223807 2.87679e-20)
(0.0258594 0.0088949 -7.36371e-20)
(0.0212967 0.0131575 4.00386e-20)
(0.0269758 -0.00210799 -7.15955e-20)
(0.0247101 0.0025011 -2.91415e-20)
(0.0246344 -0.0111817 -5.10852e-20)
(0.0241384 -0.0068056 -7.52673e-20)
(0.0203498 -0.0179586 7.50569e-21)
(0.021062 -0.0142294 1.25119e-20)
(0.0152164 -0.0226697 -1.03376e-22)
(0.0166524 -0.0196524 7.55039e-21)
(0.00982521 -0.0257756 -2.36737e-20)
(0.0117033 -0.0233359 -7.58275e-21)
(0.0043442 -0.027636 -4.96215e-20)
(0.00657242 -0.0256237 -1.60569e-20)
(-0.000243506 -0.0564082 -4.00538e-20)
(0.00358932 -0.0486338 -2.44152e-20)
(-0.00967158 -0.0584239 2.1311e-20)
(-0.00474441 -0.0508228 2.97059e-21)
(-0.020424 -0.0575481 8.33477e-20)
(-0.0140736 -0.0511571 4.0148e-21)
(-0.0321255 -0.0525027 -1.95948e-20)
(-0.0243917 -0.0486181 -1.4544e-20)
(-0.0435703 -0.0425422 -7.03349e-21)
(-0.034925 -0.0421887 -6.23133e-20)
(-0.052819 -0.0287708 5.34971e-20)
(-0.0443566 -0.0316029 -3.52872e-20)
(-0.0578769 -0.0140247 5.57513e-20)
(-0.0508747 -0.0181909 -9.17102e-20)
(-0.0575954 -0.00109114 5.57513e-20)
(-0.0527339 -0.00442172 -2.3019e-20)
(-0.0518653 0.00903749 8.66197e-20)
(-0.0488563 0.00763717 -9.37204e-20)
(-0.040897 0.0174459 6.11558e-20)
(-0.0388938 0.0173303 2.11981e-20)
(-0.0244827 0.0252667 -3.77505e-20)
(-0.0234894 0.025029 -2.42146e-20)
(0.00120789 0.0349669 -1.14561e-20)
(-0.000664811 -0.0430428 1.89827e-20)
(0.00240184 -0.0378668 1.25884e-20)
(-0.0087801 -0.0439243 -1.45649e-20)
(-0.00459507 -0.0390082 -3.69907e-21)
(-0.0175963 -0.0428596 -9.5067e-20)
(-0.0122557 -0.0386632 7.6978e-21)
(-0.0267512 -0.0390586 -5.68101e-20)
(-0.02051 -0.0362398 -5.40433e-20)
(-0.0354395 -0.0318556 -8.91638e-20)
(-0.0288088 -0.031098 6.81656e-20)
(-0.0423012 -0.02121 -1.8133e-19)
(-0.0362244 -0.0229466 -5.60521e-20)
(-0.0456102 -0.0081334 -1.71965e-19)
(-0.0412543 -0.0124202 1.55944e-22)
(-0.0438115 0.00527696 -1.74731e-19)
(-0.0422757 -0.00111285 1.05397e-19)
(-0.0360013 0.0168741 -1.65289e-19)
(-0.0378134 0.00943087 -2.91738e-20)
(-0.0218974 0.0260921 -7.09393e-20)
(-0.0265566 0.018331 -1.5332e-19)
(-0.000187344 0.0339611 0)
(-0.00837086 0.0246738 0)
(0.0247464 0.0348916 0)
(-0.00115244 -0.0338596 -1.01394e-20)
(0.00173844 -0.03089 -1.5853e-20)
(-0.00789228 -0.0340071 1.85793e-20)
(-0.00431403 -0.0313342 -1.91894e-20)
(-0.0150304 -0.0325365 4.87109e-20)
(-0.0107437 -0.0304844 3.80869e-20)
(-0.0223848 -0.0288738 7.17432e-20)
(-0.0174486 -0.0279173 8.87573e-20)
(-0.0293754 -0.0227256 1.03093e-19)
(-0.0240771 -0.0231714 -1.45742e-20)
(-0.034934 -0.0144348 1.26312e-19)
(-0.0300166 -0.016008 1.48737e-21)
(-0.0376177 -0.00519132 2.80464e-19)
(-0.0341522 -0.0070781 9.61274e-20)
(-0.035853 0.00370819 2.52421e-19)
(-0.0350302 0.00165563 2.1489e-19)
(-0.0281586 0.0114169 -1.58682e-20)
(-0.0310951 0.00845448 -2.74676e-20)
(-0.0131684 0.0172752 -8.24546e-20)
(-0.0204439 0.0133049 2.73168e-21)
(0.0130253 0.023342 0)
(0.000329616 0.0157401 -7.60641e-20)
(0.0396687 0.0206228 0)
(-0.00126011 -0.028409 -2.48593e-20)
(0.00134168 -0.0267557 -2.54795e-20)
(-0.00706657 -0.0280609 1.89928e-22)
(-0.00399737 -0.0268239 5.77234e-22)
(-0.0130613 -0.0262877 7.78216e-20)
(-0.00951917 -0.025685 -5.6553e-22)
(-0.0190332 -0.0226893 2.50821e-21)
(-0.0150906 -0.0230577 1.50405e-19)
(-0.02458 -0.016898 -1.16301e-19)
(-0.0204041 -0.0185981 -2.28964e-20)
(-0.0290017 -0.00895827 -2.99882e-20)
(-0.0250002 -0.0119711 -9.2996e-20)
(-0.0311544 -0.000242524 3.08573e-20)
(-0.0281031 -0.00327875 -2.4423e-20)
(-0.0295255 0.00673873 -6.67829e-20)
(-0.0284367 0.00572156 -4.86294e-20)
(-0.0222543 0.0103898 -1.46558e-20)
(-0.0242975 0.0119218 9.12389e-20)
(-0.00591111 0.0103849 3.85978e-21)
(-0.0136007 0.0135222 8.08753e-20)
(0.0263845 0.00715133 -7.65367e-20)
(0.00906492 0.0102366 -4.66599e-21)
(0.0436758 -0.0057451 0)
(-0.00404739 -0.0260476 5.39859e-20)
(-0.00416067 -0.0136514 5.80313e-20)
(-0.0134896 -0.0237514 -1.32571e-20)
(-0.00311199 -0.0213507 2.15147e-20)
(-0.0198 -0.0104144 -4.51735e-20)
(-0.0128375 -0.0150919 1.36455e-20)
(-0.0202488 0.00409691 -7.64626e-20)
(-0.0182281 -0.00234778 0)
(-0.0148671 0.0149149 -1.35009e-19)
(-0.016424 0.00920089 -7.69023e-20)
(-0.00643505 0.0206421 -2.13241e-21)
(-0.00985177 0.0167692 3.51643e-20)
(0.00229454 0.0221094 9.17186e-20)
(-0.00152149 0.0200235 1.18815e-19)
(0.00991906 0.0206855 3.64361e-20)
(0.00618028 0.020047 -2.19066e-20)
(0.0158979 0.0174345 7.1432e-21)
(0.0126178 0.0178741 1.19611e-20)
(0.0202179 0.0132205 2.9615e-20)
(0.0175287 0.0143743 6.65084e-20)
(0.0230819 0.00857562 3.79455e-20)
(0.0209739 0.01022 1.58031e-20)
(0.0231333 0.00573773 2.27596e-20)
(0.0247456 0.00372993 1.56362e-20)
(0.00177335 -0.00876268 2.53957e-20)
(0.00253476 -0.00395352 -6.94871e-21)
(-0.00483149 -0.0136346 4.73896e-20)
(0.00153565 -0.0118432 -1.07055e-20)
(-0.0126895 -0.00702658 5.47756e-20)
(-0.00794398 -0.00993405 5.508e-20)
(-0.0146882 0.00319599 0)
(-0.0130327 -0.00141548 0)
(-0.0111239 0.0116519 9.16916e-20)
(-0.0122344 0.00720258 0)
(-0.0046124 0.0165714 1.56371e-19)
(-0.00732384 0.0133461 1.82597e-19)
(0.00250112 0.0181802 5.20534e-21)
(-0.000689697 0.0163126 -1.26803e-19)
(0.00900007 0.0173578 -4.67452e-20)
(0.00576073 0.0166664 -4.42777e-21)
(0.0143282 0.014879 7.16975e-20)
(0.0113765 0.0151153 1.20971e-20)
(0.0183082 0.0114149 5.28737e-20)
(0.0158236 0.0123234 8.84446e-21)
(0.0210103 0.00742206 4.01337e-22)
(0.0190394 0.00883163 -2.99305e-20)
(0.0210938 0.00492888 -3.11546e-21)
(0.022581 0.00315327 2.23287e-20)
(0.00260547 -0.00529492 -3.50032e-20)
(0.00267772 -0.0025806 6.97137e-21)
(-0.00269091 -0.00863116 0)
(0.00149457 -0.00771924 5.69065e-20)
(-0.00908247 -0.00451085 0)
(-0.00573973 -0.00659922 -6.17275e-20)
(-0.0108799 0.00273544 0)
(-0.00961467 -0.000668718 5.57379e-20)
(-0.00826565 0.00926828 9.09006e-20)
(-0.00909015 0.00579018 0)
(-0.00315739 0.0133858 -9.98567e-20)
(-0.00529692 0.0107398 1.0972e-19)
(0.00272878 0.0149734 -1.36741e-19)
(6.08689e-05 0.013326 -1.21986e-19)
(0.00830259 0.0145382 5.47928e-20)
(0.00549766 0.0138462 -9.07335e-21)
(0.013016 0.0126318 -5.13466e-20)
(0.0103922 0.0127385 1.10431e-20)
(0.0166399 0.00978007 -7.45308e-20)
(0.01439 0.0105024 -5.78477e-20)
(0.0191695 0.00636625 -3.36062e-20)
(0.0173535 0.00756409 8.64644e-21)
(0.0192806 0.00418853 -1.05001e-20)
(0.0206483 0.00264001 -1.76949e-20)
(0.00184183 -0.00424796 9.9605e-20)
(0.00187436 -0.00224745 4.5689e-20)
(-0.00221635 -0.0060159 -6.11744e-21)
(0.000745115 -0.00558085 1.33698e-20)
(-0.00681926 -0.00291211 -6.02206e-21)
(-0.00445599 -0.00450457 -2.13955e-22)
(-0.00809232 0.002427 5.60393e-20)
(-0.00716943 -0.000153835 -6.6947e-20)
(-0.00601783 0.00748956 1.90697e-20)
(-0.00667791 0.00473786 6.1719e-20)
(-0.00185136 0.0109166 8.99274e-20)
(-0.00365044 0.00868875 1.90167e-20)
(0.00299485 0.0123576 6.03218e-21)
(0.000724473 0.0109451 6.06426e-20)
(0.0077857 0.0121553 -5.348e-20)
(0.00535706 0.0114976 3.77749e-20)
(0.0119427 0.0106793 4.84424e-21)
(0.00963591 0.0107049 5.11584e-22)
(0.0152127 0.00832307 2.57821e-20)
(0.0132135 0.00890603 -6.29116e-21)
(0.0175615 0.0054145 3.2107e-20)
(0.0159205 0.00641988 3.53964e-20)
(0.0177032 0.00352731 -1.57971e-20)
(0.0189212 0.00218455 -3.46678e-21)
(0.00111284 -0.00330231 -4.14281e-20)
(0.00130862 -0.00180539 -3.93673e-20)
(-0.00193655 -0.00432768 1.78027e-20)
(0.000233557 -0.00411758 -4.45207e-20)
(-0.00518691 -0.00187952 -6.21132e-20)
(-0.00352436 -0.00312153 6.24133e-20)
(-0.00597948 0.00215746 -6.14565e-20)
(-0.00534365 0.000165446 -5.53807e-20)
(-0.0042562 0.00609904 6.24158e-20)
(-0.00482991 0.00390921 -7.32049e-20)
(-0.000866921 0.0088983 -9.54459e-21)
(-0.00234107 0.00707532 -8.41369e-20)
(0.00328963 0.0102134 9.27924e-20)
(0.00131886 0.00896827 -2.03029e-21)
(0.00741733 0.0101454 9.25281e-20)
(0.00529509 0.00953798 2.28127e-20)
(0.011091 0.00899128 -1.07048e-20)
(0.00906156 0.00896351 -4.68619e-22)
(0.0140487 0.00703959 3.13851e-21)
(0.0122659 0.00750601 -5.76838e-21)
(0.0161901 0.00456298 -1.27036e-20)
(0.0147302 0.00540809 1.19333e-20)
(0.0163722 0.0029314 -1.88409e-20)
(0.0174532 0.00177735 -2.89849e-20)
(0.000640812 -0.00248509 -4.2757e-20)
(0.000919678 -0.00136819 -1.33167e-19)
(-0.00166091 -0.00311953 0)
(-4.79667e-05 -0.00302412 -1.05904e-19)
(-0.00394956 -0.00119113 6.88409e-20)
(-0.00278634 -0.00217207 2.50458e-20)
(-0.00437095 0.00189282 -6.74166e-20)
(-0.00396473 0.000334537 1.10743e-19)
(-0.00287654 0.00497967 -2.20593e-19)
(-0.00341456 0.00322035 -1.75517e-20)
(1.21481e-05 0.00727927 -7.71652e-20)
(-0.00129203 0.00574499 -6.79804e-20)
(0.00354631 0.00841704 -7.32165e-20)
(0.00182471 0.00734064 -9.04032e-21)
(0.00715181 0.00843844 -7.08307e-20)
(0.00528587 0.00787947 -8.13311e-20)
(0.010417 0.00752724 4.54487e-21)
(0.00862404 0.00746319 1.03933e-20)
(0.0131012 0.00591016 2.93364e-21)
(0.0115064 0.00627407 3.20302e-20)
(0.0150441 0.00380553 5.95288e-21)
(0.0137493 0.00451752 1.44406e-20)
(0.015262 0.00239706 8.9616e-21)
(0.0162116 0.00141314 9.82897e-21)
(0.000348499 -0.00183581 -1.97071e-19)
(0.000639055 -0.000999967 -3.53532e-21)
(-0.00139994 -0.0022425 -8.07288e-20)
(-0.000197286 -0.00219868 -1.0909e-19)
(-0.00299726 -0.000741299 6.65355e-20)
(-0.00219512 -0.00151341 -7.4231e-20)
(-0.00314515 0.00162342 1.61242e-19)
(-0.0029164 0.000396446 -1.18634e-19)
(-0.00179909 0.00404581 1.36658e-19)
(-0.00232132 0.00262686 6.18459e-20)
(0.000683867 0.00591383 3.78257e-22)
(-0.00045067 0.00464196 3.39329e-20)
(0.00377097 0.00689781 -1.71419e-20)
(0.00226442 0.00596632 -4.28713e-20)
(0.00696243 0.00697217 0)
(0.00531606 0.0064584 9.00477e-21)
(0.00988559 0.00625085 3.80428e-20)
(0.00829539 0.00616133 7.96752e-20)
(0.0123229 0.00491252 4.35506e-20)
(0.0108996 0.00518882 -5.15559e-20)
(0.0141024 0.00313344 1.75323e-20)
(0.0129433 0.00372545 1.38272e-20)
(0.014334 0.00192319 -2.21705e-21)
(0.0151682 0.00108717 1.50074e-20)
(0.000160935 -0.00132651 8.60856e-20)
(0.00043762 -0.00070592 1.0407e-20)
(-0.00116909 -0.001604 -1.02082e-19)
(-0.00027388 -0.00157328 7.75859e-20)
(-0.0022592 -0.000456822 -2.61299e-19)
(-0.00172028 -0.00105557 -3.61329e-21)
(-0.00219815 0.00135429 -2.19721e-19)
(-0.00210372 0.000387661 -1.62921e-19)
(-0.00094238 0.00325464 -4.16731e-20)
(-0.00145652 0.00210527 -5.86889e-20)
(0.00126431 0.00477037 -8.71299e-21)
(0.000243614 0.00370377 7.91568e-20)
(0.00398036 0.00559784 -1.68946e-20)
(0.00265118 0.00480197 -1.71179e-20)
(0.00683735 0.00570095 8.91044e-20)
(0.00537739 0.00522837 9.72164e-21)
(0.0094761 0.0051333 -1.01407e-20)
(0.00805124 0.00502127 -8.40028e-20)
(0.0116901 0.00402822 -8.20512e-20)
(0.0104066 0.00423008 -4.96056e-20)
(0.0133257 0.00253492 -5.99062e-21)
(0.0122663 0.00301614 8.27667e-21)
(0.0135362 0.00150239 -3.23323e-21)
(0.0142971 0.000797237 -2.51459e-21)
(4.24231e-05 -0.000934076 1.62238e-21)
(0.000286783 -0.000486574 9.6375e-20)
(-0.000967753 -0.00113663 1.77391e-19)
(-0.000329765 -0.0011148 8.04568e-20)
(-0.00167465 -0.000282262 9.63824e-20)
(-0.00136084 -0.000757304 1.10189e-19)
(-0.00144555 0.00109254 -9.12746e-22)
(-0.00148707 0.000314981 1.92907e-19)
(-0.000241717 0.00257205 6.26239e-20)
(-0.000785521 0.00162432 1.2669e-19)
(0.00175603 0.00378862 7.14367e-20)
(0.000797092 0.00288191 6.42209e-20)
(0.00421068 0.00448717 9.63993e-21)
(0.00297056 0.00377905 -1.55074e-20)
(0.00675952 0.00459193 -1.64391e-19)
(0.00542347 0.00415758 7.98665e-20)
(0.00914827 0.0041476 -1.24006e-19)
(0.00783667 0.00401094 -9.04792e-20)
(0.0111511 0.00324111 4.11948e-20)
(0.00996567 0.00337896 7.60055e-20)
(0.0126388 0.00199876 1.11538e-20)
(0.0116527 0.00238239 5.0799e-21)
(0.0128034 0.00112569 1.1204e-20)
(0.0135267 0.000540711 -2.94928e-22)
(-6.07114e-05 -0.000659071 1.76188e-19)
(0.000131301 -0.000347744 9.1102e-20)
(-0.000843347 -0.000831333 1.25114e-20)
(-0.000463841 -0.000841086 0)
(-0.00126085 -0.000221664 2.07009e-19)
(-0.00119011 -0.000642498 1.25663e-20)
(-0.000895217 0.000803052 3.2197e-19)
(-0.00111417 0.000136456 9.476e-20)
(0.000280024 0.00194283 1.2864e-19)
(-0.000337613 0.00113315 1.856e-20)
(0.00211816 0.00291088 -2.29306e-20)
(0.0011899 0.00212802 -5.80256e-20)
(0.00434882 0.00349726 5.49435e-20)
(0.0032119 0.00286687 -8.87529e-20)
(0.00665666 0.0036106 1.55404e-19)
(0.00546369 0.00321184 -4.90905e-20)
(0.00881419 0.00326996 1.10598e-19)
(0.00767152 0.00312278 6.72582e-20)
(0.0106209 0.00254103 3.9808e-20)
(0.00961326 0.00263158 -8.78719e-21)
(0.0119651 0.00152419 5.10289e-21)
(0.0111494 0.00182455 1.00686e-20)
(0.0121902 0.000794346 0)
(0.0127665 0.00032047 -1.10661e-20)
(-0.000247494 -0.000538297 -8.63955e-20)
(-2.47566e-05 -0.000191399 -1.70966e-19)
(-0.000914317 -0.00075081 0)
(-0.000491639 -0.000526952 0)
(-0.00111856 -0.000342347 -1.01272e-19)
(-0.000826619 -0.000417404 0)
(-0.000617682 0.000423263 -2.11055e-19)
(-0.000482067 0.000140534 -8.89288e-20)
(0.000599744 0.00132712 -1.69388e-19)
(0.000451887 0.000878051 -1.23018e-19)
(0.00237246 0.0021232 -1.24064e-19)
(0.00196631 0.00163053 -4.48818e-20)
(0.00447243 0.00263691 -1.94018e-19)
(0.00383098 0.00218724 -7.96554e-20)
(0.00663292 0.00277616 -1.38309e-19)
(0.00581718 0.00244278 -6.32339e-20)
(0.00862946 0.00253337 -5.28047e-20)
(0.00770277 0.00235858 -8.96787e-21)
(0.0102912 0.0019582 -3.8998e-20)
(0.00931138 0.0019589 -8.63426e-20)
(0.0115161 0.00113215 4.96515e-21)
(0.0105372 0.00130988 -2.93853e-20)
(0.0113122 0.000492765 1.01325e-20)
(0.0122355 0.000143114 8.07175e-21)
(-0.000229781 -0.000213192 -8.45627e-20)
(-0.000478952 -0.00029065 0)
(-0.000239894 9.82917e-06 1.28307e-20)
(0.000556175 0.000557154 -4.95263e-23)
(0.00185877 0.00118877 2.22173e-21)
(0.00351738 0.00173125 2.368e-22)
(0.00531534 0.00205078 5.20921e-20)
(0.00704877 0.0020866 6.7106e-20)
(0.0085524 0.00183882 -4.24616e-20)
(0.00971498 0.00135223 -7.70669e-20)
(0.0104762 0.000696865 -2.43432e-20)
(0.0108117 -5.17025e-05 3.10461e-20)
(0.0253102 -0.00125086 -3.2666e-20)
(0.0241556 0.00109667 1.51825e-20)
(0.0247557 -0.006361 -3.28284e-20)
(0.0241083 -0.00364927 -3.30171e-20)
(0.0228855 -0.0115176 4.95742e-20)
(0.0228972 -0.0084751 6.08974e-20)
(0.0194302 -0.0164802 1.27546e-19)
(0.0203328 -0.0132108 4.98592e-20)
(0.0140835 -0.020869 1.10065e-19)
(0.0161897 -0.0175471 7.75207e-20)
(0.00657717 -0.0241229 6.05047e-20)
(0.0102309 -0.0210464 1.45769e-19)
(-0.00264051 -0.0252865 -7.46226e-20)
(0.00221543 -0.0230687 5.55498e-20)
(-0.0112633 -0.022866 -1.03817e-19)
(-0.00716028 -0.022458 -2.31815e-19)
(-0.0156251 -0.0151065 -6.59557e-20)
(-0.0150525 -0.0174825 0)
(-0.0129128 0.000948062 -4.70054e-21)
(-0.016981 -0.00635202 -8.0449e-21)
(0.000934723 0.0234188 1.19912e-19)
(-0.0114073 0.0126999 3.07941e-21)
(0.0105936 0.0270439 6.03251e-20)
(0.0230713 -0.00126265 1.50903e-20)
(0.0220609 0.000835549 7.95464e-21)
(0.0224567 -0.00574944 6.12495e-20)
(0.0219796 -0.00335133 2.89064e-20)
(0.0206155 -0.0101822 6.12495e-20)
(0.0207857 -0.0075522 2.43336e-21)
(0.0173777 -0.0143157 -1.20237e-21)
(0.0183589 -0.0115712 7.20078e-20)
(0.0125795 -0.0177662 1.13302e-19)
(0.0145713 -0.0151083 -3.05256e-20)
(0.00603064 -0.0200139 1.40843e-19)
(0.0093364 -0.0177461 4.51918e-20)
(-0.00230116 -0.0202146 -1.01811e-19)
(0.0025257 -0.0189205 -1.30214e-19)
(-0.0112906 -0.0169954 -1.28137e-19)
(-0.00568488 -0.017659 -4.83907e-21)
(-0.0174065 -0.00873383 6.28118e-20)
(-0.0136847 -0.0124354 0)
(-0.0156134 0.00504786 6.97919e-21)
(-0.0168422 -0.00217489 -2.54342e-21)
(-0.00307389 0.0190362 -5.66891e-20)
(-0.011434 0.0122169 -7.79325e-20)
(0.00625375 0.0195035 0)
(0.0211007 -0.00123949 2.18171e-20)
(0.0201938 0.00060562 -1.07381e-20)
(0.0204999 -0.00515785 -3.03622e-20)
(0.020105 -0.00305969 -2.38679e-21)
(0.0187548 -0.00895894 1.298e-20)
(0.0189727 -0.00669251 -5.27876e-20)
(0.0157771 -0.0124024 4.31701e-20)
(0.0167212 -0.0100973 7.19209e-20)
(0.0115061 -0.0151309 -9.99685e-20)
(0.013292 -0.0129895 -8.45735e-20)
(0.00592865 -0.0166746 -2.27748e-19)
(0.00869891 -0.0149925 -7.07118e-20)
(-0.000888175 -0.0163362 -3.26421e-20)
(0.00299871 -0.0156229 -3.19915e-20)
(-0.00828107 -0.0130347 1.24788e-19)
(-0.00356031 -0.0141678 1.00731e-19)
(-0.0139059 -0.00561734 -6.60715e-20)
(-0.010067 -0.00948889 0)
(-0.0132083 0.00513476 -8.85215e-20)
(-0.0132329 -0.00117057 1.05017e-19)
(-0.00348477 0.0139113 -2.10454e-20)
(-0.00920375 0.00913946 -2.11586e-20)
(0.00371329 0.0131002 0)
(0.0193304 -0.00119684 -3.52638e-20)
(0.0185524 0.000406602 -1.65217e-20)
(0.0187558 -0.00459492 -2.48543e-20)
(0.0184605 -0.00278137 -3.19263e-20)
(0.0171363 -0.00784516 6.15618e-21)
(0.0174005 -0.00590659 4.69342e-20)
(0.0144206 -0.0107095 -5.60629e-20)
(0.0153329 -0.00877741 -5.43796e-20)
(0.010621 -0.0128723 -5.52192e-20)
(0.0122409 -0.0111401 -5.52293e-20)
(0.00582752 -0.0139323 1.27028e-19)
(0.00819784 -0.0126623 1.14378e-19)
(0.000262325 -0.0133596 1.01893e-19)
(0.00336314 -0.0129455 1.03738e-19)
(-0.00547614 -0.0104189 -2.48615e-20)
(-0.00187321 -0.0114933 -9.47333e-20)
(-0.00973954 -0.00455006 1.71211e-19)
(-0.00684695 -0.00760407 2.16636e-20)
(-0.00960907 0.00337047 1.71211e-19)
(-0.00932713 -0.00122484 8.63318e-20)
(-0.00264745 0.00930054 0)
(-0.00668515 0.00606384 -4.09636e-20)
(0.00227886 0.00861093 1.99471e-20)
(0.0178133 -0.00115504 -1.31051e-20)
(0.0171559 0.000237372 -4.88037e-22)
(0.0172645 -0.00408476 4.01068e-20)
(0.0170665 -0.00252144 0)
(0.0157657 -0.00684759 -1.38376e-20)
(0.0160838 -0.00519775 -1.1531e-20)
(0.0133043 -0.00922595 -5.3648e-20)
(0.014194 -0.00761247 -4.13351e-20)
(0.00992276 -0.0109406 1.15158e-19)
(0.0114104 -0.00953758 -1.24244e-20)
(0.00576045 -0.0116568 9.08999e-20)
(0.00783924 -0.0106884 -7.46305e-21)
(0.00111387 -0.0109815 -9.38492e-20)
(0.00368241 -0.0107477 7.16568e-20)
(-0.00342969 -0.00847588 -4.83305e-20)
(-0.000617953 -0.00937642 4.41902e-20)
(-0.00665617 -0.0039216 -6.42324e-20)
(-0.00452395 -0.00616796 2.18871e-20)
(-0.00674011 0.00191157 -1.27512e-19)
(-0.00639012 -0.00129224 -6.52824e-20)
(-0.00214139 0.00597324 -1.99703e-20)
(-0.0047223 0.00385885 -6.19846e-20)
(0.00133241 0.00565144 2.01529e-20)
(0.0165486 -0.00111418 1.27358e-20)
(0.0159856 8.37697e-05 1.58596e-20)
(0.0160364 -0.00362826 -5.20557e-20)
(0.0159023 -0.00228576 -2.76542e-20)
(0.0146594 -0.00596628 -3.92745e-20)
(0.0149988 -0.00456523 -5.2311e-20)
(0.0124266 -0.00793288 1.41077e-22)
(0.0132766 -0.00658649 1.28439e-20)
(0.00940149 -0.00928676 -1.36366e-19)
(0.0107704 -0.00814612 -1.28319e-20)
(0.00576308 -0.00975643 -2.72243e-20)
(0.00760295 -0.00901298 -1.47635e-19)
(0.00181048 -0.0090488 2.11903e-19)
(0.00399027 -0.00892659 2.77443e-20)
(-0.00190366 -0.00691934 1.15193e-19)
(0.000370223 -0.00767491 2.67972e-20)
(-0.00443398 -0.00334605 2.05889e-20)
(-0.00282129 -0.00503667 2.09155e-20)
(-0.00462585 0.000947163 -7.68804e-22)
(-0.00430483 -0.0012764 1.99097e-20)
(-0.00153864 0.00386955 -2.0703e-20)
(-0.0032901 0.00237093 -2.01428e-19)
(0.000758559 0.00370244 -1.56935e-19)
(0.015482 -0.0010768 -2.46765e-20)
(0.0150024 -5.47565e-05 1.47934e-20)
(0.0150106 -0.00321914 -2.77904e-20)
(0.0149259 -0.00207387 2.00488e-21)
(0.0137472 -0.00518634 0)
(0.0140975 -0.00399943 -5.97449e-21)
(0.0117268 -0.00680385 0)
(0.0125292 -0.00568183 1.18713e-20)
(0.00902603 -0.00786719 -2.3548e-20)
(0.0102685 -0.0069363 7.05972e-20)
(0.00581495 -0.00815344 -9.28439e-20)
(0.0074477 -0.00757362 5.74497e-20)
(0.00240254 -0.00745855 -1.58761e-19)
(0.0042749 -0.00739549 -1.58583e-19)
(-0.000724776 -0.00566296 -6.83807e-20)
(0.00116048 -0.00627479 1.05678e-19)
(-0.00279744 -0.00284926 1.99973e-20)
(-0.00154127 -0.0041235 2.11186e-20)
(-0.00311973 0.000343689 -1.82689e-19)
(-0.00280358 -0.00118484 -7.87702e-22)
(-0.00114743 0.00245005 -3.39222e-19)
(-0.0022792 0.00143426 -4.5502e-20)
(0.000394667 0.00243473 -1.40573e-19)
(0.0145786 -0.00104363 4.18152e-20)