/*--------------------------------*- C++ -*----------------------------------*\
| =========                 |                                                 |
| \\      /  F ield         | OpenFOAM: The Open Source CFD Toolbox           |
|  \\    /   O peration     | Version:  v1606+                                |
|   \\  /    A nd           | Web:      www.OpenFOAM.com                      |
|    \\/     M anipulation  |                                                 |
\*---------------------------------------------------------------------------*/
FoamFile
{
    version     2.0;
    format      ascii;
    class       volVectorField;
    location    "0.09";
    object      U.airMean;
}
// * * * * * * * * * * * * * * * * * * * * * * * * * * * * * * * * * * * * * //

dimensions      [0 1 -1 0 0 0 0];

internalField   nonuniform List<vector> 
6000
(
(-0.0164479 0.398939 0)
(0.006354 0.371516 0)
(0.0313056 0.374181 0)
(0.0523046 0.376096 0)
(0.0638967 0.380768 0)
(0.0688027 0.385661 0)
(0.0691044 0.390582 0)
(0.0656138 0.393285 0)
(0.0600193 0.395161 0)
(0.0529288 0.396355 0)
(0.0446642 0.397281 0)
(0.035606 0.397754 0)
(0.0258914 0.398108 0)
(0.0156668 0.398352 0)
(0.00511893 0.39851 0)
(-0.00546828 0.398381 0)
(-0.0159165 0.398195 0)
(-0.0259839 0.397977 0)
(-0.0354337 0.397611 0)
(-0.0442755 0.3971 0)
(-0.0523452 0.3964 0)
(-0.0596474 0.395527 0)
(-0.066004 0.39367 0)
(-0.0696858 0.38993 0)
(-0.0690048 0.384782 0)
(-0.0631923 0.379755 0)
(-0.0509792 0.375522 0)
(-0.029284 0.372764 0)
(-0.00253041 0.369694 0)
(0.0195813 0.401357 0)
(-0.000743688 0.862328 0)
(-0.00317869 0.828594 0)
(0.0196013 0.827851 0)
(0.0405867 0.834983 0)
(0.0555765 0.840909 0)
(0.0640596 0.842591 0)
(0.0672968 0.844917 0)
(0.0668582 0.847015 0)
(0.0629692 0.848843 0)
(0.0565721 0.850914 0)
(0.0483686 0.852068 0)
(0.038783 0.85312 0)
(0.0282159 0.854206 0)
(0.0170766 0.854744 0)
(0.00564864 0.855025 0)
(-0.00588668 0.85493 0)
(-0.0173631 0.854678 0)
(-0.0284953 0.853968 0)
(-0.0390126 0.852981 0)
(-0.04861 0.851985 0)
(-0.0568505 0.850524 0)
(-0.0631045 0.849119 0)
(-0.0664367 0.847348 0)
(-0.0666762 0.844787 0)
(-0.0635633 0.842594 0)
(-0.0551805 0.840094 0)
(-0.0400634 0.834844 0)
(-0.0187595 0.826737 0)
(0.00312538 0.82727 0)
(0.000260464 0.866628 0)
(-0.0100072 0.83547 0)
(-0.0203852 0.756222 0)
(0.00555595 0.752705 0)
(0.025835 0.763628 0)
(0.0432273 0.778948 0)
(0.0542084 0.790991 0)
(0.0591975 0.79933 0)
(0.060018 0.805106 0)
(0.057326 0.809642 0)
(0.0520081 0.813269 0)
(0.0447255 0.81622 0)
(0.0358761 0.818535 0)
(0.0261268 0.820319 0)
(0.015836 0.821373 0)
(0.00523458 0.821866 0)
(-0.00547012 0.821765 0)
(-0.0160774 0.821191 0)
(-0.0263983 0.820085 0)
(-0.036218 0.818356 0)
(-0.0450604 0.816047 0)
(-0.0524589 0.813101 0)
(-0.057735 0.809543 0)
(-0.0599914 0.804787 0)
(-0.0590096 0.798843 0)
(-0.053927 0.790029 0)
(-0.0431952 0.778113 0)
(-0.0261203 0.762738 0)
(-0.00577979 0.751127 0)
(0.0196537 0.755346 0)
(0.00945635 0.839346 0)
(-0.00177973 0.860918 0)
(-0.012024 0.760833 0)
(0.000502827 0.761353 0)
(0.00980335 0.773085 0)
(0.0212255 0.787535 0)
(0.0323947 0.800103 0)
(0.0404662 0.809601 0)
(0.0446508 0.816751 0)
(0.0449912 0.822183 0)
(0.042241 0.826191 0)
(0.0371111 0.829206 0)
(0.0302149 0.831438 0)
(0.022205 0.833139 0)
(0.013522 0.834134 0)
(0.00448825 0.83461 0)
(-0.00465677 0.834568 0)
(-0.0137078 0.834012 0)
(-0.0224157 0.832969 0)
(-0.0304763 0.831343 0)
(-0.0373836 0.829147 0)
(-0.042558 0.82621 0)
(-0.0452543 0.822163 0)
(-0.0447577 0.816565 0)
(-0.0405356 0.809473 0)
(-0.0325277 0.79958 0)
(-0.0215947 0.787211 0)
(-0.0103962 0.772499 0)
(-0.00129752 0.760188 0)
(0.0108784 0.760487 0)
(0.00111302 0.864418 0)
(0.009666 0.87185 0)
(0.00515114 0.764965 0)
(0.00639539 0.768822 0)
(0.00604769 0.781838 0)
(0.00880332 0.797022 0)
(0.014144 0.811223 0)
(0.0200727 0.822268 0)
(0.0250366 0.830722 0)
(0.0280081 0.837347 0)
(0.0285108 0.842288 0)
(0.0265851 0.845935 0)
(0.0225986 0.848354 0)
(0.0170921 0.849915 0)
(0.0105929 0.850735 0)
(0.00355112 0.851063 0)
(-0.00365727 0.851031 0)
(-0.0107118 0.850618 0)
(-0.0172375 0.849783 0)
(-0.0227788 0.84828 0)
(-0.0267828 0.845877 0)
(-0.0287153 0.842313 0)
(-0.0281747 0.837238 0)
(-0.0252041 0.830499 0)
(-0.0202691 0.822103 0)
(-0.0144669 0.810868 0)
(-0.00928777 0.796878 0)
(-0.00666446 0.781493 0)
(-0.00735091 0.768029 0)
(-0.00650725 0.764838 0)
(-0.0105149 0.874488 0)
(0.018864 0.867426 0)
(0.0202298 0.773605 0)
(0.0152187 0.779296 0)
(0.00948837 0.793138 0)
(0.00594598 0.808462 0)
(0.00524829 0.823151 0)
(0.00662494 0.835284 0)
(0.00893942 0.845039 0)
(0.0112983 0.852837 0)
(0.012946 0.858729 0)
(0.0133897 0.863054 0)
(0.0124149 0.866045 0)
(0.0100478 0.868013 0)
(0.00652809 0.869091 0)
(0.00224562 0.869515 0)
(-0.00229846 0.869495 0)
(-0.0065971 0.868998 0)
(-0.0101498 0.867916 0)
(-0.0125402 0.865986 0)
(-0.0135274 0.863019 0)
(-0.01307 0.858737 0)
(-0.0114094 0.852729 0)
(-0.00911172 0.844869 0)
(-0.00685205 0.835168 0)
(-0.00558519 0.82295 0)
(-0.00638637 0.808399 0)
(-0.0100058 0.792998 0)
(-0.0160377 0.778922 0)
(-0.02141 0.773773 0)
(-0.0196252 0.86909 0)
(0.0216278 0.85189 0)
(0.0265452 0.784171 0)
(0.0201095 0.790341 0)
(0.0129776 0.80426 0)
(0.00701039 0.819294 0)
(0.00313425 0.834102 0)
(0.00123122 0.847133 0)
(0.000689262 0.858141 0)
(0.00104158 0.867258 0)
(0.00183121 0.874449 0)
(0.00260287 0.879893 0)
(0.00300554 0.883817 0)
(0.0028318 0.886474 0)
(0.00203458 0.888037 0)
(0.000737675 0.888722 0)
(-0.000751356 0.888706 0)
(-0.0020688 0.887968 0)
(-0.00289904 0.886404 0)
(-0.00309262 0.883766 0)
(-0.00269869 0.879864 0)
(-0.00191373 0.874428 0)
(-0.00112949 0.867164 0)
(-0.000842213 0.858013 0)
(-0.00144562 0.847034 0)
(-0.00342613 0.833995 0)
(-0.00736969 0.819256 0)
(-0.0133922 0.804229 0)
(-0.0207078 0.790251 0)
(-0.0273062 0.784527 0)
(-0.0220661 0.852884 0)
(0.0181512 0.832784 0)
(0.0241681 0.790892 0)
(0.0198165 0.79785 0)
(0.0140141 0.812077 0)
(0.00832568 0.826927 0)
(0.00374573 0.841542 0)
(0.000491865 0.855095 0)
(-0.00158799 0.867151 0)
(-0.00265001 0.877594 0)
(-0.00288687 0.886283 0)
(-0.00257025 0.893204 0)
(-0.00197313 0.898447 0)
(-0.00130739 0.902158 0)
(-0.000704422 0.904507 0)
(-0.000214146 0.905622 0)
(0.000217687 0.905608 0)
(0.000688292 0.904456 0)
(0.00126151 0.902099 0)
(0.0019069 0.898394 0)
(0.00249465 0.893167 0)
(0.00281436 0.886236 0)
(0.0025619 0.877513 0)
(0.00144846 0.867053 0)
(-0.000683207 0.855015 0)
(-0.00398717 0.841483 0)
(-0.00861233 0.826908 0)
(-0.0143437 0.8121 0)
(-0.0202305 0.797905 0)
(-0.024586 0.791241 0)
(-0.0183489 0.833441 0)
(0.0128252 0.813978 0)
(0.0184024 0.791616 0)
(0.0168701 0.80086 0)
(0.0132033 0.816004 0)
(0.00886328 0.830955 0)
(0.0048561 0.845389 0)
(0.00156005 0.858942 0)
(-0.000935351 0.87132 0)
(-0.00260858 0.882351 0)
(-0.00348981 0.891887 0)
(-0.00368403 0.89982 0)
(-0.00333905 0.906118 0)
(-0.00261045 0.910775 0)
(-0.00164201 0.913832 0)
(-0.000556667 0.915333 0)
(0.000555124 0.915321 0)
(0.00162446 0.913793 0)
(0.00256939 0.910723 0)
(0.0032786 0.906064 0)
(0.00361358 0.899776 0)
(0.00341281 0.891827 0)
(0.00251304 0.882285 0)
(0.000806329 0.871248 0)
(-0.00172385 0.858886 0)
(-0.00505063 0.845359 0)
(-0.009086 0.830963 0)
(-0.0134531 0.816062 0)
(-0.017148 0.800974 0)
(-0.0186436 0.791892 0)
(-0.0129296 0.814436 0)
(0.00928099 0.797496 0)
(0.0139017 0.788129 0)
(0.0138758 0.800663 0)
(0.0117211 0.817117 0)
(0.00868617 0.832453 0)
(0.00560162 0.846777 0)
(0.00285277 0.860107 0)
(0.000600046 0.872303 0)
(-0.00108086 0.883251 0)
(-0.00216422 0.892843 0)
(-0.00267268 0.900972 0)
(-0.00266234 0.907556 0)
(-0.0022204 0.912523 0)
(-0.00146124 0.915851 0)
(-0.000512085 0.917514 0)
(0.000495272 0.917509 0)
(0.00143403 0.91582 0)
(0.00217674 0.912482 0)
(0.00260172 0.907506 0)
(0.00260165 0.900927 0)
(0.00208288 0.892787 0)
(0.000983588 0.883201 0)
(-0.000716272 0.872255 0)
(-0.0029881 0.860073 0)
(-0.00575295 0.846768 0)
(-0.00885209 0.83248 0)
(-0.0118983 0.817192 0)
(-0.014057 0.800791 0)
(-0.0140538 0.78834 0)
(-0.00935072 0.797822 0)
(0.00754272 0.78313 0)
(0.0113059 0.783424 0)
(0.0115449 0.79904 0)
(0.0101733 0.8167 0)
(0.00807554 0.832534 0)
(0.00580373 0.84691 0)
(0.00365687 0.860054 0)
(0.00180026 0.871947 0)
(0.000330942 0.88254 0)
(-0.00070649 0.891785 0)
(-0.00130817 0.89962 0)
(-0.00150082 0.905979 0)
(-0.00134404 0.910802 0)
(-0.0009236 0.914056 0)
(-0.000337177 0.915678 0)
(0.000303953 0.915675 0)
(0.000885274 0.914033 0)
(0.00129613 0.910773 0)
(0.00144033 0.90594 0)
(0.0012373 0.899584 0)
(0.000625263 0.891742 0)
(-0.000424412 0.882505 0)
(-0.00190531 0.871916 0)
(-0.00376926 0.860034 0)
(-0.00592038 0.846913 0)
(-0.00819598 0.832569 0)
(-0.0102932 0.816776 0)
(-0.0116582 0.799162 0)
(-0.0113999 0.783593 0)
(-0.00758745 0.783364 0)
(0.0062107 0.770753 0)
(0.00932823 0.778897 0)
(0.00958486 0.796865 0)
(0.00870232 0.815405 0)
(0.00727821 0.831715 0)
(0.00564207 0.846264 0)
(0.00400317 0.859357 0)
(0.00251055 0.871047 0)
(0.00126521 0.881348 0)
(0.000323686 0.890256 0)
(-0.000294551 0.897752 0)
(-0.000603173 0.903803 0)
(-0.000645394 0.908379 0)
(-0.000483617 0.911447 0)
(-0.000191164 0.912976 0)
(0.000146252 0.912977 0)
(0.000436521 0.911432 0)
(0.000593718 0.908358 0)
(0.000544063 0.903773 0)
(0.000225765 0.897724 0)
(-0.000403074 0.890226 0)
(-0.00135327 0.881326 0)
(-0.00260356 0.871028 0)
(-0.00409814 0.859343 0)
(-0.00573516 0.846271 0)
(-0.00736726 0.831751 0)
(-0.0087838 0.815473 0)
(-0.00965228 0.796972 0)
(-0.00937885 0.77904 0)
(-0.00623427 0.77093 0)
(0.00486859 0.760141 0)
(0.00746471 0.774563 0)
(0.0078517 0.794321 0)
(0.00737348 0.813501 0)
(0.00645312 0.830238 0)
(0.00529283 0.845026 0)
(0.00404623 0.858164 0)
(0.00284819 0.869755 0)
(0.00179839 0.879863 0)
(0.000959401 0.888523 0)
(0.000359746 0.895764 0)
(-7.1995e-06 0.901568 0)
(-0.000173879 0.905936 0)
(-0.000182582 0.908854 0)
(-8.98225e-05 0.910309 0)
(3.7998e-05 0.91031 0)
(0.000130918 0.908844 0)
(0.000120753 0.905923 0)
(-5.03115e-05 0.901549 0)
(-0.000426072 0.895745 0)
(-0.0010357 0.888506 0)
(-0.00187982 0.879849 0)
(-0.0029296 0.869744 0)
(-0.00412634 0.858154 0)
(-0.00536926 0.845034 0)
(-0.00652286 0.83027 0)
(-0.00743175 0.813558 0)
(-0.00789237 0.794408 0)
(-0.00748812 0.774687 0)
(-0.00487709 0.760285 0)
(0.00365363 0.751102 0)
(0.00578562 0.770276 0)
(0.0063793 0.791452 0)
(0.00624997 0.811163 0)
(0.00568548 0.82829 0)
(0.00485958 0.843347 0)
(0.00389407 0.856583 0)
(0.00292313 0.868137 0)
(0.00203934 0.878121 0)
(0.00130297 0.886609 0)
(0.000744792 0.893649 0)
(0.000359589 0.899265 0)
(0.000125651 0.903482 0)
(1.26538e-05 0.906288 0)
(-2.2424e-05 0.907683 0)
(-3.08555e-05 0.907691 0)
(-6.48467e-05 0.90628 0)
(-0.000176328 0.903475 0)
(-0.000416549 0.89926 0)
(-0.000808731 0.893643 0)
(-0.00137479 0.886603 0)
(-0.00211331 0.878113 0)
(-0.00299295 0.868133 0)
(-0.00395954 0.856573 0)
(-0.00491983 0.843356 0)
(-0.00574371 0.828319 0)
(-0.00629818 0.811208 0)
(-0.0064101 0.791519 0)
(-0.00579843 0.770383 0)
(-0.00365481 0.751229 0)
(0.00268359 0.743439 0)
(0.00441641 0.766032 0)
(0.00518828 0.788319 0)
(0.00533858 0.808554 0)
(0.0050065 0.82604 0)
(0.00438172 0.841364 0)
(0.00360406 0.854711 0)
(0.00280478 0.866253 0)
(0.00206358 0.876158 0)
(0.00143045 0.884509 0)
(0.000934777 0.891402 0)
(0.000562981 0.896887 0)
(0.000303362 0.900989 0)
(0.000135333 0.903712 0)
(2.16276e-05 0.905067 0)
(-6.98425e-05 0.905068 0)
(-0.000181689 0.903703 0)
(-0.000351893 0.900985 0)
(-0.000617508 0.896894 0)
(-0.000992849 0.891401 0)
(-0.00149758 0.884523 0)
(-0.0021284 0.876145 0)
(-0.00286216 0.866257 0)
(-0.00365441 0.854694 0)
(-0.00442551 0.841378 0)
(-0.00505888 0.826071 0)
(-0.00538949 0.808589 0)
(-0.00522328 0.788367 0)
(-0.00442944 0.766119 0)
(-0.00268404 0.743555 0)
(0.00196573 0.736923 0)
(0.00338535 0.761868 0)
(0.00424521 0.78504 0)
(0.00457453 0.805791 0)
(0.00438919 0.823641 0)
(0.00387294 0.839187 0)
(0.00321352 0.852628 0)
(0.00254079 0.864154 0)
(0.00192764 0.874004 0)
(0.00139929 0.882248 0)
(0.000979233 0.889034 0)
(0.00064838 0.894434 0)
(0.000394511 0.898439 0)
(0.0002068 0.901109 0)
(5.06459e-05 0.902424 0)
(-8.81189e-05 0.902421 0)
(-0.000242724 0.901103 0)
(-0.000438955 0.89844 0)
(-0.000697234 0.894452 0)
(-0.00103212 0.88904 0)
(-0.0014632 0.882291 0)
(-0.00198243 0.873976 0)
(-0.00258184 0.864169 0)
(-0.00325107 0.852599 0)
(-0.00391026 0.839213 0)
(-0.00443975 0.823681 0)
(-0.0046264 0.805825 0)
(-0.00428535 0.785073 0)
(-0.00340422 0.761937 0)
(-0.00196965 0.73703 0)
(0.00146459 0.731276 0)
(0.00265416 0.757892 0)
(0.00350566 0.781754 0)
(0.00386668 0.80297 0)
(0.00374945 0.821179 0)
(0.00331719 0.836888 0)
(0.00275485 0.850392 0)
(0.00218843 0.861884 0)
(0.00168563 0.871686 0)
(0.00126479 0.879858 0)
(0.000926304 0.886563 0)
(0.000649907 0.891909 0)
(0.000420409 0.895848 0)
(0.000236857 0.898469 0)
(6.70167e-05 0.899774 0)
(-9.15414e-05 0.899763 0)
(-0.000261519 0.898478 0)
(-0.000457835 0.895847 0)
(-0.000689878 0.891925 0)
(-0.000976327 0.886574 0)
(-0.00132494 0.879912 0)
(-0.00173104 0.871632 0)
(-0.00220599 0.861902 0)
(-0.00277741 0.850356 0)
(-0.00335726 0.83693 0)
(-0.00379849 0.821227 0)
(-0.00391414 0.803006 0)
(-0.00354779 0.78178 0)
(-0.00268117 0.757947 0)
(-0.00147402 0.731372 0)
(0.00113762 0.726423 0)
(0.00214938 0.754082 0)
(0.00288807 0.778577 0)
(0.00314513 0.800183 0)
(0.00301651 0.818667 0)
(0.00267723 0.834492 0)
(0.00225641 0.848019 0)
(0.00181136 0.859481 0)
(0.00140143 0.869232 0)
(0.00107889 0.877338 0)
(0.000824077 0.883998 0)
(0.000600881 0.889313 0)
(0.000400928 0.893232 0)
(0.000232283 0.895814 0)
(7.0027e-05 0.89714 0)
(-8.35119e-05 0.897082 0)
(-0.000248202 0.89585 0)
(-0.0004288 0.893211 0)
(-0.00062612 0.889352 0)
(-0.000861082 0.884017 0)
(-0.00113339 0.877414 0)
(-0.00144464 0.869147 0)
(-0.00181036 0.859491 0)
(-0.00226149 0.848001 0)
(-0.00271332 0.83455 0)
(-0.00305805 0.81872 0)
(-0.00318566 0.80023 0)
(-0.0029294 0.778597 0)
(-0.00218311 0.754124 0)
(-0.00115244 0.726503 0)
(0.000919632 0.722029 0)
(0.00174818 0.750467 0)
(0.00227168 0.77557 0)
(0.00236989 0.797453 0)
(0.00221313 0.816096 0)
(0.00197357 0.83197 0)
(0.00172836 0.845505 0)
(0.00145622 0.856973 0)
(0.0011561 0.866683 0)
(0.000898239 0.874728 0)
(0.000696977 0.881367 0)
(0.00051924 0.886679 0)
(0.000356867 0.890581 0)
(0.000211671 0.893158 0)
(6.90514e-05 0.894477 0)
(-6.86018e-05 0.894404 0)
(-0.000216789 0.893224 0)
(-0.000372478 0.890553 0)
(-0.000534964 0.886749 0)
(-0.000727183 0.8814 0)
(-0.000932603 0.874842 0)
(-0.00117113 0.866563 0)
(-0.00144578 0.856958 0)
(-0.00173744 0.845516 0)
(-0.00201023 0.832036 0)
(-0.00224745 0.816148 0)
(-0.00240078 0.797502 0)
(-0.00230462 0.77561 0)
(-0.00178016 0.750503 0)
(-0.00093639 0.722094 0)
(0.000720136 0.717945 0)
(0.00130348 0.747212 0)
(0.00158982 0.772733 0)
(0.00157591 0.79475 0)
(0.00143776 0.813441 0)
(0.00131194 0.829308 0)
(0.00122949 0.842847 0)
(0.00113661 0.854351 0)
(0.000973046 0.864078 0)
(0.000769501 0.87208 0)
(0.000584179 0.878709 0)
(0.000431845 0.884026 0)
(0.000300003 0.887918 0)
(0.000180109 0.890473 0)
(6.73849e-05 0.891813 0)
(-5.452e-05 0.891741 0)
(-0.000176419 0.890561 0)
(-0.00030456 0.887894 0)
(-0.000442102 0.884087 0)
(-0.000595794 0.878761 0)
(-0.000758172 0.872174 0)
(-0.000935409 0.863927 0)
(-0.00112857 0.854327 0)
(-0.00126969 0.842883 0)
(-0.00136166 0.829373 0)
(-0.00147296 0.813488 0)
(-0.00159981 0.794788 0)
(-0.00161014 0.772772 0)
(-0.00132415 0.747244 0)
(-0.000733003 0.717995 0)
(0.000479587 0.714516 0)
(0.000783083 0.744181 0)
(0.00088824 0.769992 0)
(0.000842067 0.792018 0)
(0.000787227 0.810682 0)
(0.000794827 0.826522 0)
(0.0008465 0.840067 0)
(0.000881506 0.851633 0)
(0.000836623 0.861414 0)
(0.000690749 0.869404 0)
(0.000509351 0.876012 0)
(0.000363644 0.88132 0)
(0.000248985 0.885241 0)
(0.000145337 0.887781 0)
(5.57535e-05 0.889146 0)
(-4.13116e-05 0.889054 0)
(-0.000134213 0.887874 0)
(-0.000236914 0.885212 0)
(-0.000353737 0.881396 0)
(-0.000478474 0.876076 0)
(-0.000623848 0.869478 0)
(-0.000773648 0.861244 0)
(-0.00089621 0.851632 0)
(-0.000915173 0.840116 0)
(-0.000858969 0.826577 0)
(-0.000829113 0.810717 0)
(-0.00086289 0.792055 0)
(-0.000897934 0.77001 0)
(-0.000792328 0.744216 0)
(-0.00048461 0.714551 0)
(0.000212385 0.711275 0)
(0.000277033 0.74135 0)
(0.000264681 0.767251 0)
(0.000251695 0.78922 0)
(0.000319585 0.80782 0)
(0.000460182 0.823636 0)
(0.000616075 0.837209 0)
(0.00072473 0.848835 0)
(0.000755575 0.858697 0)
(0.000647225 0.866737 0)
(0.000459278 0.873313 0)
(0.000313496 0.878598 0)
(0.000205565 0.882508 0)
(0.000112828 0.885079 0)
(4.29795e-05 0.886408 0)
(-2.46591e-05 0.886349 0)
(-9.14241e-05 0.88516 0)
(-0.000169481 0.882509 0)
(-0.000267446 0.878686 0)
(-0.000386682 0.873366 0)
(-0.000535625 0.866779 0)
(-0.000694691 0.858538 0)
(-0.00077324 0.848869 0)
(-0.000698957 0.837262 0)
(-0.000534237 0.823674 0)
(-0.000368665 0.807838 0)
(-0.000273487 0.789236 0)
(-0.000270488 0.767283 0)
(-0.000280837 0.741382 0)
(-0.000212249 0.711306 0)
(-2.71691e-05 0.70828 0)
(-0.000135947 0.7387 0)
(-0.000187552 0.764493 0)
(-0.000125644 0.786342 0)
(5.90302e-05 0.804866 0)
(0.000307577 0.82068 0)
(0.000524967 0.83431 0)
(0.000661044 0.846006 0)
(0.000716006 0.855927 0)
(0.000635171 0.864075 0)
(0.00044004 0.870618 0)
(0.000269065 0.87586 0)
(0.000156989 0.879746 0)
(7.50757e-05 0.882302 0)
(2.88713e-05 0.883622 0)
(-4.93029e-06 0.883601 0)
(-4.16279e-05 0.882366 0)
(-9.65294e-05 0.879765 0)
(-0.000182803 0.875901 0)
(-0.000318123 0.870646 0)
(-0.000499587 0.864045 0)
(-0.000679165 0.855835 0)
(-0.000731792 0.846063 0)
(-0.00061003 0.834364 0)
(-0.000386328 0.82071 0)
(-0.000112694 0.804868 0)
(0.000100745 0.786329 0)
(0.000177324 0.764515 0)
(0.000131066 0.738717 0)
(2.77132e-05 0.708305 0)
(-0.000193735 0.705776 0)
(-0.000415146 0.736105 0)
(-0.000443275 0.76171 0)
(-0.000269331 0.783394 0)
(2.02887e-05 0.801884 0)
(0.000316229 0.817717 0)
(0.000539124 0.831416 0)
(0.00065678 0.843178 0)
(0.000693226 0.853137 0)
(0.000636898 0.861356 0)
(0.000441225 0.86789 0)
(0.000227439 0.873055 0)
(0.000101642 0.87694 0)
(3.0899e-05 0.879466 0)
(1.2108e-05 0.880782 0)
(1.31087e-05 0.880741 0)
(1.00037e-05 0.879512 0)
(-1.8825e-05 0.876917 0)
(-0.000104461 0.87308 0)
(-0.000284346 0.867881 0)
(-0.000501836 0.861322 0)
(-0.000676058 0.853135 0)
(-0.000725326 0.84324 0)
(-0.000613364 0.831477 0)
(-0.000388464 0.817739 0)
(-6.61548e-05 0.801867 0)
(0.000242622 0.783374 0)
(0.000419546 0.761715 0)
(0.000402558 0.736113 0)
(0.000191705 0.705792 0)
(-0.000287502 0.7034 0)
(-0.000564631 0.733561 0)
(-0.000537103 0.758896 0)
(-0.00023022 0.78047 0)
(0.000163081 0.798921 0)
(0.000452681 0.814798 0)
(0.000611505 0.82856 0)
(0.000665344 0.840372 0)
(0.000659235 0.850336 0)
(0.000607013 0.858597 0)
(0.000439358 0.865168 0)
(0.000206731 0.87023 0)
(4.51647e-05 0.874047 0)
(-1.79024e-05 0.876562 0)
(-7.10762e-06 0.877823 0)
(2.79283e-05 0.877802 0)
(5.70242e-05 0.876578 0)
(5.24322e-05 0.873999 0)
(-4.92074e-05 0.870225 0)
(-0.000270577 0.865127 0)
(-0.000479054 0.858581 0)
(-0.000641963 0.850436 0)
(-0.000725094 0.840429 0)
(-0.000663545 0.828635 0)
(-0.000491348 0.814806 0)
(-0.000186855 0.798887 0)
(0.000190452 0.780454 0)
(0.000495412 0.758907 0)
(0.000542204 0.733554 0)
(0.000281757 0.703409 0)
(-0.000333838 0.701167 0)
(-0.000616028 0.731059 0)
(-0.00051031 0.756143 0)
(-0.000106495 0.777525 0)
(0.000363509 0.796 0)
(0.000649514 0.812002 0)
(0.000704224 0.825789 0)
(0.000646959 0.837619 0)
(0.000586248 0.847522 0)
(0.000527823 0.8558 0)
(0.000400173 0.862405 0)
(0.000202177 0.867397 0)
(6.75812e-06 0.871109 0)
(-8.12305e-05 0.87354 0)
(-3.15749e-05 0.874757 0)
(3.91101e-05 0.874782 0)
(9.82559e-05 0.873517 0)
(9.91847e-05 0.871031 0)
(-1.22441e-05 0.867307 0)
(-0.000220769 0.862384 0)
(-0.000391842 0.855761 0)
(-0.000561537 0.847765 0)
(-0.000702654 0.837644 0)
(-0.000705353 0.825861 0)
(-0.000632694 0.811972 0)
(-0.000377721 0.795969 0)
(4.4672e-05 0.777509 0)
(0.000453126 0.756134 0)
(0.000583093 0.731046 0)
(0.000323189 0.701162 0)
(-0.000343965 0.699049 0)
(-0.000583646 0.728613 0)
(-0.000394258 0.75337 0)
(3.97619e-05 0.774609 0)
(0.00048203 0.79317 0)
(0.000760701 0.809331 0)
(0.000768186 0.823166 0)
(0.000592919 0.83494 0)
(0.000462483 0.844711 0)
(0.000396597 0.852954 0)
(0.000295216 0.859549 0)
(0.0001578 0.864506 0)
(-1.38518e-05 0.868171 0)
(-0.000134409 0.870466 0)
(-5.63658e-05 0.871603 0)
(5.27133e-05 0.871676 0)
(0.000137425 0.870371 0)
(0.000126661 0.868024 0)
(2.95042e-05 0.864353 0)
(-0.000118742 0.859602 0)
(-0.000289078 0.852906 0)
(-0.000424698 0.845123 0)
(-0.000591457 0.834902 0)
(-0.000699346 0.823192 0)
(-0.000708802 0.809286 0)
(-0.000501248 0.793167 0)
(-0.000100395 0.774598 0)
(0.000332828 0.753344 0)
(0.000541222 0.728571 0)
(0.000327358 0.699014 0)
(-0.000315384 0.696967 0)
(-0.000477448 0.726124 0)
(-0.000221968 0.750616 0)
(0.000174253 0.771863 0)
(0.000489701 0.790493 0)
(0.000662008 0.806745 0)
(0.000656551 0.820678 0)
(0.000479722 0.832391 0)
(0.000280554 0.841951 0)
(0.000169985 0.850126 0)
(0.000118951 0.856687 0)
(4.82722e-05 0.8616 0)
(-3.55432e-05 0.865217 0)
(-0.000127961 0.867432 0)
(-6.56733e-05 0.868341 0)
(8.08428e-05 0.868552 0)
(0.00017962 0.867191 0)
(0.000161462 0.865067 0)
(6.80709e-05 0.861372 0)
(1.30181e-07 0.856838 0)
(-0.000163378 0.85012 0)
(-0.000244414 0.842456 0)
(-0.000364489 0.832311 0)
(-0.000547935 0.820657 0)
(-0.000595463 0.806719 0)
(-0.000484289 0.79051 0)
(-0.000203575 0.771862 0)
(0.000175331 0.750589 0)
(0.000435273 0.72606 0)
(0.000294933 0.696904 0)
(-0.000253681 0.6949 0)
(-0.000325039 0.723642 0)
(-4.35771e-05 0.747994 0)
(0.000268185 0.769267 0)
(0.000421041 0.787992 0)
(0.000414381 0.804301 0)
(0.00032717 0.818242 0)
(0.000195482 0.829919 0)
(-2.20841e-05 0.83933 0)
(-0.000195179 0.84738 0)
(-0.000189674 0.853885 0)
(-0.00012333 0.8588 0)
(-5.31153e-05 0.862329 0)
(-2.28394e-05 0.864474 0)
(2.18331e-05 0.86514 0)
(0.000127881 0.865473 0)
(0.000205087 0.864055 0)
(0.000198374 0.862192 0)
(0.000102028 0.858453 0)
(0.000104675 0.854085 0)
(8.45395e-05 0.847462 0)
(4.8645e-05 0.839764 0)
(-1.46422e-05 0.829867 0)
(-0.000199298 0.818212 0)
(-0.000329008 0.804283 0)
(-0.00037349 0.788015 0)
(-0.000255944 0.769278 0)
(2.68143e-05 0.747974 0)
(0.000297856 0.723583 0)
(0.00023817 0.694826 0)
(-0.000184609 0.692837 0)
(-0.000165859 0.721238 0)
(0.000101828 0.745465 0)
(0.000297054 0.766835 0)
(0.000275713 0.785655 0)
(9.40829e-05 0.801982 0)
(-0.000115644 0.815861 0)
(-0.000274324 0.82746 0)
(-0.0004538 0.836848 0)
(-0.000599348 0.844727 0)
(-0.000554509 0.851122 0)
(-0.000356798 0.856027 0)
(-0.000107629 0.859535 0)
(0.000102607 0.861628 0)
(0.000141138 0.862178 0)
(0.000170218 0.862459 0)
(0.000211899 0.861077 0)
(0.000223786 0.859341 0)
(0.000212593 0.855724 0)
(0.000291532 0.851272 0)
(0.00043553 0.844877 0)
(0.000466945 0.837124 0)
(0.000420065 0.827453 0)
(0.00023741 0.815842 0)
(1.38538e-06 0.801981 0)
(-0.000202432 0.785688 0)
(-0.000250596 0.76686 0)
(-8.51237e-05 0.745453 0)
(0.000161726 0.721177 0)
(0.000179315 0.692742 0)
(-0.000125946 0.690774 0)
(-2.48771e-05 0.718865 0)
(0.00019738 0.743046 0)
(0.000240334 0.764568 0)
(3.59823e-05 0.783467 0)
(-0.000292567 0.799748 0)
(-0.000586481 0.813517 0)
(-0.000773301 0.824997 0)
(-0.000892627 0.834382 0)
(-0.000944058 0.842141 0)
(-0.000845812 0.848421 0)
(-0.000586681 0.853266 0)
(-0.000237961 0.856725 0)
(8.63914e-05 0.858837 0)
(0.00016747 0.859406 0)
(0.000189701 0.859526 0)
(0.000219912 0.8583 0)
(0.000270411 0.85654 0)
(0.000416293 0.853091 0)
(0.000595898 0.848482 0)
(0.000796804 0.842273 0)
(0.000883506 0.834521 0)
(0.000851337 0.824999 0)
(0.000674289 0.813503 0)
(0.000377195 0.799751 0)
(4.27678e-05 0.783498 0)
(-0.000173527 0.7646 0)
(-0.000152985 0.743041 0)
(4.43704e-05 0.718835 0)
(0.000131221 0.690678 0)
(-7.6505e-05 0.688696 0)
(8.97492e-05 0.716543 0)
(0.000234725 0.740811 0)
(8.97879e-05 0.762462 0)
(-0.00029874 0.781387 0)
(-0.000727072 0.79754 0)
(-0.00103636 0.811139 0)
(-0.00119125 0.822496 0)
(-0.00124041 0.831835 0)
(-0.00120569 0.839527 0)
(-0.00105407 0.845715 0)
(-0.000771667 0.850483 0)
(-0.000400623 0.853883 0)
(-5.05643e-05 0.855995 0)
(0.000118815 0.856725 0)
(0.000196661 0.856701 0)
(0.000244159 0.855614 0)
(0.000366314 0.853782 0)
(0.000624097 0.85039 0)
(0.000875835 0.845727 0)
(0.00109253 0.839566 0)
(0.00121562 0.831886 0)
(0.00122408 0.822477 0)
(0.00108873 0.811125 0)
(0.000789978 0.797534 0)
(0.000370826 0.781411 0)
(-1.44569e-05 0.762498 0)
(-0.000173776 0.740821 0)
(-5.39563e-05 0.716508 0)
(9.04416e-05 0.688605 0)
(-3.24044e-05 0.686604 0)
(0.000174746 0.714275 0)
(0.00018895 0.738755 0)
(-0.000177725 0.760513 0)
(-0.000720992 0.779351 0)
(-0.00117239 0.795287 0)
(-0.0014206 0.808689 0)
(-0.00149256 0.819923 0)
(-0.00146404 0.829212 0)
(-0.0013689 0.836821 0)
(-0.00118873 0.842928 0)
(-0.000904315 0.847613 0)
(-0.000537802 0.851011 0)
(-0.00017781 0.853145 0)
(5.57463e-05 0.854 0)
(0.000170611 0.853912 0)
(0.000268931 0.852919 0)
(0.000473195 0.850958 0)
(0.000774185 0.847616 0)
(0.00105511 0.842928 0)
(0.00128469 0.836831 0)
(0.00143721 0.829201 0)
(0.00149845 0.819893 0)
(0.00144106 0.808666 0)
(0.00120985 0.795276 0)
(0.000779728 0.779365 0)
(0.000251552 0.760544 0)
(-0.00012111 0.738774 0)
(-0.000130835 0.714251 0)
(4.96293e-05 0.68652 0)
(1.60376e-05 0.684495 0)
(0.000195758 0.712132 0)
(-6.95953e-06 0.736858 0)
(-0.000590644 0.758668 0)
(-0.00119433 0.777262 0)
(-0.0015559 0.792919 0)
(-0.00167702 0.806136 0)
(-0.00164808 0.817274 0)
(-0.00155874 0.826528 0)
(-0.0014305 0.834086 0)
(-0.00124279 0.840122 0)
(-0.000977839 0.844722 0)
(-0.000645463 0.848069 0)
(-0.000289832 0.850257 0)
(-1.93251e-05 0.85119 0)
(0.00013625 0.851126 0)
(0.000298709 0.850164 0)
(0.000554014 0.848099 0)
(0.000862951 0.844783 0)
(0.00114527 0.840114 0)
(0.00137278 0.834072 0)
(0.00153818 0.826493 0)
(0.00164146 0.817251 0)
(0.00167162 0.806113 0)
(0.00156409 0.792915 0)
(0.00123027 0.777257 0)
(0.000653784 0.758689 0)
(7.77358e-05 0.736875 0)
(-0.000146087 0.712132 0)
(1.07725e-06 0.684468 0)
(6.36791e-05 0.682409 0)
(8.01465e-05 0.710173 0)
(-0.000417239 0.735117 0)
(-0.00110508 0.756794 0)
(-0.0015903 0.775006 0)
(-0.00176379 0.790415 0)
(-0.0017438 0.803526 0)
(-0.00164585 0.814597 0)
(-0.00153785 0.823826 0)
(-0.00141034 0.831338 0)
(-0.0012331 0.83731 0)
(-0.00100632 0.841831 0)
(-0.00072245 0.845114 0)
(-0.000393039 0.847291 0)
(-0.000104789 0.848341 0)
(0.000110509 0.848317 0)
(0.000330982 0.847316 0)
(0.000606001 0.84523 0)
(0.00090238 0.841915 0)
(0.00116746 0.837299 0)
(0.00137449 0.831295 0)
(0.00152809 0.823785 0)
(0.0016438 0.81458 0)
(0.00172529 0.80352 0)
(0.00174135 0.790415 0)
(0.00159214 0.774991 0)
(0.00114856 0.7568 0)
(0.000485674 0.735133 0)
(-2.5775e-05 0.710184 0)
(-4.49514e-05 0.682381 0)
(2.12655e-05 0.680386 0)
(-0.000249438 0.70841 0)
(-0.000973201 0.733409 0)
(-0.00151747 0.754712 0)
(-0.0017313 0.772626 0)
(-0.00173382 0.787878 0)
(-0.00163066 0.800884 0)
(-0.00151717 0.811934 0)
(-0.00143806 0.821154 0)
(-0.00134524 0.828574 0)
(-0.00119584 0.834466 0)
(-0.00100396 0.83892 0)
(-0.000761899 0.842151 0)
(-0.000462965 0.844306 0)
(-0.000174917 0.845443 0)
(7.99025e-05 0.845434 0)
(0.000342009 0.844432 0)
(0.000626506 0.842312 0)
(0.000909258 0.839041 0)
(0.00114927 0.834466 0)
(0.00132543 0.828551 0)
(0.00144672 0.821084 0)
(0.0015342 0.811948 0)
(0.0016094 0.800915 0)
(0.00168761 0.787892 0)
(0.00170292 0.772608 0)
(0.00153462 0.754693 0)
(0.00102274 0.733423 0)
(0.000304071 0.708442 0)
(3.51311e-06 0.680358 0)
(-0.000252662 0.678381 0)
(-0.000811702 0.706793 0)
(-0.00143272 0.731537 0)
(-0.00165262 0.752442 0)
(-0.00158815 0.770179 0)
(-0.00149396 0.785347 0)
(-0.00141669 0.798277 0)
(-0.00133599 0.809326 0)
(-0.00131345 0.818533 0)
(-0.00126969 0.825835 0)
(-0.00114801 0.83164 0)
(-0.000987459 0.836009 0)
(-0.000775113 0.839159 0)
(-0.000494713 0.84129 0)
(-0.000223764 0.842477 0)
(4.56903e-05 0.842478 0)
(0.000331167 0.841511 0)
(0.000623847 0.839358 0)
(0.000902488 0.836155 0)
(0.00112224 0.831632 0)
(0.00126399 0.825829 0)
(0.00134223 0.818427 0)
(0.00137459 0.809392 0)
(0.00138236 0.798364 0)
(0.00143448 0.785386 0)
(0.00155174 0.770147 0)
(0.00164642 0.752416 0)
(0.00144892 0.731534 0)
(0.000847187 0.706821 0)
(0.000276472 0.678407 0)
(-0.00056936 0.676651 0)
(-0.00120698 0.705169 0)
(-0.00156473 0.729475 0)
(-0.00152678 0.75002 0)
(-0.00130352 0.767723 0)
(-0.00117208 0.782945 0)
(-0.00117031 0.795827 0)
(-0.00117805 0.806789 0)
(-0.0012097 0.815984 0)
(-0.00120981 0.823124 0)
(-0.00110675 0.82883 0)
(-0.000958138 0.833098 0)
(-0.000781921 0.836162 0)
(-0.000515698 0.838219 0)
(-0.000255332 0.839533 0)
(1.92226e-05 0.839467 0)
(0.000319435 0.838558 0)
(0.00062033 0.836364 0)
(0.000902012 0.833269 0)
(0.00110107 0.828787 0)
(0.00121072 0.823157 0)
(0.00124215 0.81581 0)
(0.0012071 0.806939 0)
(0.00111375 0.79597 0)
(0.00112919 0.782992 0)
(0.00128824 0.767688 0)
(0.00150646 0.749997 0)
(0.00154762 0.729476 0)
(0.00120713 0.705196 0)
(0.000577585 0.676698 0)
(-0.000652791 0.675232 0)
(-0.00117492 0.703445 0)
(-0.00133401 0.727249 0)
(-0.00120991 0.747649 0)
(-0.0010373 0.765437 0)
(-0.000957445 0.780738 0)
(-0.00101945 0.793543 0)
(-0.00113451 0.804367 0)
(-0.00115854 0.813508 0)
(-0.00113583 0.820473 0)
(-0.00107952 0.826039 0)
(-0.000936949 0.830222 0)
(-0.000778821 0.83321 0)
(-0.000543675 0.835157 0)
(-0.000277295 0.836618 0)
(2.35222e-05 0.836418 0)
(0.000321177 0.83564 0)
(0.000636351 0.833337 0)
(0.000918374 0.830428 0)
(0.00108738 0.825949 0)
(0.00117033 0.820538 0)
(0.00112414 0.813259 0)
(0.00105913 0.804617 0)
(0.000983136 0.793734 0)
(0.000972537 0.780768 0)
(0.00104923 0.765422 0)
(0.00119124 0.747643 0)
(0.00130221 0.727258 0)
(0.00115083 0.703466 0)
(0.000642406 0.675292 0)
(-0.000526721 0.673876 0)
(-0.000892569 0.701588 0)
(-0.00095013 0.725074 0)
(-0.000888907 0.745554 0)
(-0.000881602 0.763373 0)
(-0.000942416 0.778639 0)
(-0.0010693 0.791412 0)
(-0.00121496 0.802107 0)
(-0.00119795 0.81105 0)
(-0.00109336 0.817936 0)
(-0.00103427 0.823347 0)
(-0.000929668 0.827382 0)
(-0.000794472 0.830339 0)