/*--------------------------------*- C++ -*----------------------------------*\
| =========                 |                                                 |
| \\      /  F ield         | OpenFOAM: The Open Source CFD Toolbox           |
|  \\    /   O peration     | Version:  v1606+                                |
|   \\  /    A nd           | Web:      www.OpenFOAM.com                      |
|    \\/     M anipulation  |                                                 |
\*---------------------------------------------------------------------------*/
FoamFile
{
    version     2.0;
    format      ascii;
    class       volScalarField;
    location    "0.9";
    object      alpha.water;
}
// * * * * * * * * * * * * * * * * * * * * * * * * * * * * * * * * * * * * * //

dimensions      [0 0 0 0 0 0 0];

internalField   nonuniform List<scalar> 
2268
(
1
1
1
1
1
1
1
1
1
1
1
1
0.999999
0.999992
0.999447
0.979943
0.966254
0.966254
0.966254
0.966289
0.966457
0.993949
0.999726
1
1
1
1
1
1
1
1
1
1
1
1
0.999999
0.999999
0.999976
0.999391
0.993616
0.984825
0.982437
0.988133
0.995981
0.99523
0.99973
1
1
1
1
1
1
1
1
1
1
1
1
1
1
1
1
1
1
1
1
1
0.999998
0.99977
1
1
1
1
1
1
1
1
1
1
1
1
1
1
1
1
1
1
1
1
0.999979
0.999815
0.999604
1
1
1
1
1
1
1
1
1
1
1
1
1
1
1
1
1
1
0.999999
0.999998
0.999932
0.999618
0.999604
1
1
1
1
1
1
1
1
1
1
1
1
1
1
1
1
1
0.999998
0.999994
0.999983
0.999924
0.999842
0.999698
1
1
1
1
1
1
1
1
1
1
1
1
1
1
1
0.999999
0.999996
0.999983
0.999942
0.999898
0.999859
0.999802
0.999712
1
1
1
1
1
1
1
1
1
1
1
1
1
1
0.999999
0.999993
0.999967
0.999846
0.999538
0.99926
0.999427
0.999533
0.999692
0.995473
0.986322
0.990416
0.997342
0.997342
0.997311
0.997164
0.996692
0.995332
0.99343
0.991623
0.98839
0.92012
0.90658
0.915086
0.941449
0.942418
0.942787
0.938593
0.986039
0.986039
0.997126
0.997342
0.997336
0.994605
0.987932
0.98269
0.96782
0.955789
0.959323
0.972557
0.938546
0.906243
0.906097
0.906093
0.90505
0.934092
0.955019
0.989766
0.990822
0.996869
0.997226
0.996731
0.979099
0.930767
0.876022
0.86864
0.88314
0.903174
0.949765
0.954137
0.95113
0.91123
0.905391
0.903067
0.903018
0.942191
0.994469
0.995594
0.996657
0.996521
0.959524
0.676998
0.555664
0.615145
0.823228
0.924182
0.940695
0.944219
0.952234
0.95205
0.95105
0.950357
0.947659
0.903222
0.873184
0.994407
0.994519
0.995324
0.942019
0.410081
0.184028
0.235003
0.635738
0.809353
0.797138
0.812235
0.917053
0.932007
0.95105
0.950357
0.948888
0.944807
0.937542
0.889282
0.994349
0.994254
0.991459
0.651158
0.093854
0.128758
0.460666
0.763871
0.792129
0.382403
0.265389
0.647864
0.88427
0.933706
0.948143
0.938271
0.902006
0.899849
0.896774
0.994195
0.994289
0.862326
0.0960003
0.0837158
0.126476
0.578284
0.736324
0.742235
0.232417
0.0809367
0.147899
0.570164
0.724268
0.71439
0.517262
0.335577
0.350502
0.642045
0.993712
0.992841
0.735207
0.0804725
0.0804366
0.0837158
0.231958
0.619819
0.717874
0.404526
0.0755311
0.0723838
0.118435
0.244953
0.231132
0.107347
0.0859391
0.0856496
0.0928631
1
1
1
1
1
1
1
1
1
1
1
1
0.999999
0.999996
0.999992
0.99994
0.999688
0.997635
0.980915
0.977414
0.99661
0.996323
0.999176
1
1
1
1
1
1
1
1
1
1
1
1
0.999998
0.999943
0.999906
0.998322
0.93907
0.709866
0.550367
0.639865
0.701138
0.607735
0.829736
0.964695
0.902986
0.821794
0.745806
0.685663
0.647657
0.629243
0.625878
0.626382
0.62886
0.652402
0.710669
0.761438
0.776168
0.76375
0.639424
0.345481
0.197906
0.270363
0.339482
0.110311
0.0292379
0.552102
0.349858
0.228321
0.135108
0.0787527
0.0483006
0.03335
0.0266134
0.024326
0.0237329
0.0247328
0.0290819
0.0343175
0.0368761
0.042132
0.0650401
0.0744978
0.0772186
0.151796
0.26683
0.151947
0.0173157
0.0165436
0.196605
0.00286148
0.00162463
0.00117086
0.000745306
0.000450224
0.000268165
0.000160484
9.83068e-05
6.38404e-05
4.86138e-05
6.08485e-05
0.000162769
0.000547483
0.00171933
0.0046796
0.0401301
0.234438
0.262031
0.264083
0.112915
0.0162069
0.0142375
0.0150733
0.000395515
0.000200874
0.000149768
9.32025e-05
5.25055e-05
2.8328e-05
1.51994e-05
8.42718e-06
5.23936e-06
5.00568e-06
1.25733e-05
5.37896e-05
0.000164236
0.000545319
0.00186323
0.00584441
0.0806067
0.258059
0.25457
0.193826
0.014208
0.0128046
0.011349
5.5719e-05
2.88568e-05
2.05303e-05
1.22313e-05
6.50528e-06
3.26657e-06
1.63226e-06
8.61182e-07
5.58548e-07
7.98239e-07
3.41236e-06
1.32077e-05
5.15795e-05
0.000232788
0.000931399
0.00239223
0.00698451
0.0949598
0.247633
0.240686
0.125823
0.0113716
0.0106358
7.57135e-06
4.0105e-06
2.83698e-06
1.66014e-06
8.48217e-07
4.06289e-07
1.9491e-07
1.01307e-07
7.14338e-08
1.46144e-07
8.26355e-07
3.26146e-06
1.80069e-05
9.03995e-05
0.000316722
0.000903126
0.00226562
0.0291871
0.188646
0.226206
0.218949
0.070928
0.00990003
1.02338e-06
5.57268e-07
3.97206e-07
2.30281e-07
1.1525e-07
5.38434e-08
2.54637e-08
1.33282e-08
1.00707e-08
2.54171e-08
1.4586e-07
8.2131e-07
5.53136e-06
2.73574e-05
8.21241e-05
0.000196936
0.00041971
0.00228726
0.065119
0.218949
0.215949
0.214253
0.0207856
1.35863e-07
7.73599e-08
5.59441e-08
3.23332e-08
1.62087e-08
7.65562e-09
3.67636e-09
1.98285e-09
1.4964e-09
4.02264e-09
2.53653e-08
1.67106e-07
1.21711e-06
5.48994e-06
1.5428e-05
3.51502e-05
8.37366e-05
0.000238767
0.00166947
0.0921212
0.216486
0.219794
0.20658
1.77393e-08
1.07715e-08
7.87367e-09
4.65171e-09
2.48691e-09
1.27823e-09
6.80174e-10
4.08909e-10
3.00261e-10
6.21258e-10
4.01532e-09
2.70733e-08
2.03138e-07
9.42022e-07
2.77351e-06
5.93851e-06
1.16622e-05
1.36865e-05
5.0139e-05
0.000518517
0.0767257
0.223352
0.223587
2.29813e-09
1.63705e-09
1.24175e-09
8.01584e-10
4.72041e-10
2.64046e-10
1.43712e-10
9.40883e-11
7.14401e-11
1.16516e-10
6.19076e-10
4.34665e-09
3.16816e-08
1.64554e-07
4.71844e-07
9.84163e-07
1.67453e-06
2.74461e-06
1.67392e-06
-8.75961e-06
9.48398e-06
0.00380303
0.156275
3.86292e-10
3.0366e-10
2.37647e-10
1.5447e-10
9.51647e-11
8.1636e-11
5.63285e-11
3.52052e-11
2.43311e-11
2.75598e-11
1.20869e-10
7.04216e-10
5.39737e-09
2.88529e-08
8.19699e-08
1.61405e-07
2.58171e-07
3.51328e-07
3.87053e-07
1.00112e-07
-1.5082e-06
-2.28028e-07
-1.11588e-05
6.56652e-11
5.77757e-11
5.87146e-11
4.98694e-11
3.53999e-11
2.4469e-11
1.55411e-11
1.08351e-11
6.94688e-12
6.80389e-12
2.17711e-11
1.2214e-10
8.74928e-10
4.64775e-09
1.34594e-08
2.55072e-08
3.97901e-08
4.95977e-08
5.49493e-08
1.4624e-07
1.73639e-08
1.54124e-08
4.11829e-09
1.98485e-11
1.87783e-11
1.68607e-11
1.34106e-11
9.46316e-12
8.30323e-12
7.99532e-12
6.81586e-12
4.97359e-12
1.90043e-12
5.07742e-12
2.22539e-11
1.5656e-10
6.90404e-10
2.03806e-09
3.96068e-09
6.07911e-09
7.34348e-09
7.64294e-09
1.80199e-08
1.63986e-08
2.64355e-08
3.5737e-09
7.25849e-12
7.53103e-12
7.28671e-12
7.03938e-12
7.33462e-12
5.16978e-12
3.82738e-12
2.50455e-12
1.12008e-12
1.77714e-13
1.25415e-12
5.15441e-12
2.5704e-11
1.24968e-10
3.67896e-10
7.10921e-10
1.04763e-09
1.23175e-09
1.21946e-09
1.09568e-09
3.02189e-09
4.84937e-09
6.20678e-09
4.44028e-12
4.34495e-12
3.87488e-12
3.16075e-12
2.37744e-12
1.66942e-12
1.16222e-12
6.40739e-13
3.57385e-14
-6.25091e-13
-2.96589e-13
1.24952e-12
5.58025e-12
1.95863e-11
5.92018e-11
1.21e-10
1.83091e-10
2.19456e-10
2.47453e-10
4.01055e-10
5.68644e-10
6.25543e-10
7.73688e-10
1.21295e-12
1.23998e-12
1.11778e-12
9.04074e-13
6.7215e-13
4.61654e-13
2.94627e-13
1.11298e-13
-1.22205e-13
-4.32038e-13
-6.41238e-13
3.68983e-13
1.66226e-12
5.54474e-12
9.93581e-12
2.06752e-11
3.88752e-11
6.26656e-11
8.63027e-11
1.26132e-10
1.77954e-10
2.03625e-10
2.24094e-10
2.90781e-13
3.09266e-13
2.82133e-13
2.27162e-13
1.66067e-13
1.0944e-13
6.02571e-14
2.62304e-15
-7.65541e-14
-1.92801e-13
-3.27771e-13
-2.3386e-13
8.60723e-13
2.53097e-12
4.27802e-12
7.08865e-12
1.07269e-11
1.70159e-11
2.35577e-11
3.12092e-11
4.56934e-11
5.8508e-11
7.40153e-11
6.21918e-14
6.87477e-14
6.32573e-14
5.05355e-14
3.59643e-14
2.20983e-14
9.05462e-15
-7.06331e-15
-3.04679e-14
-6.68641e-14
-1.17574e-13
-1.37449e-13
5.39075e-14
8.92148e-13
2.72304e-12
4.20649e-12
3.82417e-12
4.84116e-12
6.30958e-12
7.91516e-12
9.74001e-12
1.2358e-11
1.52243e-11
1.19908e-14
1.37634e-14
1.27033e-14
1.00002e-14
6.82748e-15
3.72851e-15
6.24446e-16
-3.34812e-15
-9.32598e-15
-1.89334e-14
-3.34603e-14
-4.61167e-14
-2.1967e-14
1.37434e-13
5.88686e-13
1.38695e-12
2.15653e-12
3.08401e-12
4.24677e-12
5.65476e-12
7.09705e-12
8.32401e-12
9.40796e-12
2.09695e-15
2.4962e-15
2.29594e-15
1.76404e-15
1.1311e-15
5.00755e-16
-1.56026e-16
-1.00856e-15
-2.31353e-15
-4.44603e-15
-7.79973e-15
-1.15379e-14
-9.91143e-15
1.54599e-14
1.03875e-13
3.00316e-13
5.80825e-13
9.52444e-13
1.47072e-12
2.15207e-12
2.92015e-12
3.60951e-12
4.29637e-12
3.33647e-16
4.11455e-16
3.74405e-16
2.77295e-16
1.61677e-16
4.58446e-17
-7.61781e-17
-2.32923e-16
-4.72405e-16
-8.65079e-16
-1.49256e-15
-2.26745e-15
-2.36507e-15
1.10607e-15
1.54281e-14
5.24906e-14
1.18698e-13
2.18665e-13
3.73545e-13
5.99138e-13
9.02879e-13
1.24425e-12
1.69e-12
4.83181e-17
6.17259e-17
5.51301e-17
3.87188e-17
1.94561e-17
4.29729e-19
-1.91355e-17
-4.3179e-17
-7.89712e-17
-1.37011e-16
-2.29565e-16
-3.46787e-16
-3.8061e-16
6.46225e-17
2.08417e-15
7.86657e-15
1.9962e-14
4.11758e-14
7.90091e-14
1.43927e-13
2.53803e-13
4.19946e-13
7.00038e-13
6.35374e-18
8.42687e-18
7.32308e-18
4.76838e-18
1.85983e-18
-8.94266e-19
-3.52434e-18
-6.43062e-18
-1.04535e-17
-1.67415e-17
-2.64833e-17
-3.7831e-17
-3.63079e-17
3.05261e-17
3.19313e-16
1.21328e-15
3.45779e-15
8.54829e-15
2.02987e-14
4.66061e-14
1.03433e-13
2.15663e-13
4.36152e-13
7.54371e-19
1.04524e-18
8.75039e-19
5.10912e-19
1.16237e-19
-2.27682e-19
-5.05639e-19
-7.35429e-19
-9.77539e-19
-1.29676e-18
-1.6976e-18
-1.66079e-18
1.44814e-18
1.77682e-17
8.42591e-17
3.26849e-16
1.14041e-15
3.69072e-15
1.11799e-14
3.12471e-14
8.00263e-14
1.87175e-13
4.06225e-13
8.00278e-20
1.17398e-19
9.35497e-20
4.63291e-20
-1.26606e-21
-3.68689e-20
-5.53151e-20
-5.31177e-20
-2.9168e-20
2.36076e-20
1.38289e-19
4.9634e-19
2.02066e-18
9.22727e-18
4.31397e-17
1.92872e-16
7.93776e-16
2.95587e-15
9.88363e-15
2.95871e-14
7.94361e-14
1.92322e-13
4.24465e-13
7.4427e-21
1.18718e-20
8.8626e-21
3.32754e-21
-1.68929e-21
-4.44509e-21
-3.91323e-21
1.00992e-21
1.1538e-20
3.08523e-20
7.25644e-20
2.19741e-19
9.95496e-19
5.48005e-18
2.99732e-17
1.50324e-16
6.72969e-16
2.6667e-15
9.33679e-15
2.8936e-14
7.97275e-14
1.96608e-13
4.38134e-13
5.8364e-22
1.07071e-21
7.30865e-22
1.48737e-22
-2.99848e-22
-3.92174e-22
2.54044e-23
1.13672e-21
3.19216e-21
7.0725e-21
1.8588e-20
8.3288e-20
5.37139e-19
3.58971e-18
2.19498e-17
1.18878e-16
5.64646e-16
2.34561e-15
8.52746e-15
2.72153e-14
7.66769e-14
1.92201e-13
4.33301e-13
3.47906e-23
8.46919e-23
5.05345e-23
-3.86662e-24
-3.55898e-23
-1.92255e-23
6.36167e-23
2.35727e-22
5.41549e-22
1.27449e-21
5.21896e-21
3.80084e-20
3.09982e-19
2.32768e-18
1.54089e-17
8.89548e-17
4.45877e-16
1.93842e-15
7.31757e-15
2.40776e-14
6.94792e-14
1.77564e-13
4.07119e-13
9.03929e-25
5.67928e-24
2.64655e-24
-1.80177e-24
-3.16307e-24
1.11945e-24
1.28309e-23
3.44093e-23
7.62217e-23
2.54125e-22
1.89137e-21
1.85235e-20
1.71202e-19
1.3967e-18
9.90824e-18
6.0822e-17
3.2207e-16
1.46999e-15
5.79158e-15
1.97607e-14
5.89422e-14
1.55418e-13
3.66682e-13
-1.31812e-25
2.95725e-25
6.09297e-26
-2.47944e-25
-1.99266e-25
4.31008e-25
1.78272e-24
4.15868e-24
1.07623e-23
6.68228e-23
7.45642e-22
8.42393e-21
8.47071e-20
7.42586e-19
5.63344e-18
3.68492e-17
2.07281e-16
1.00196e-15
4.15947e-15
1.49697e-14
4.7186e-14
1.31653e-13
3.28163e-13
-2.79014e-26
7.95361e-27
-7.46987e-27
-2.43654e-26
-5.04881e-27
6.72591e-26
2.0164e-25
4.57586e-25
1.84785e-24
2.01639e-23
2.71269e-22
3.33355e-21
3.59316e-20
3.36938e-19
2.7358e-18
1.91682e-17
1.15675e-16
5.98868e-16
2.67707e-15
1.04197e-14
3.58106e-14
1.09801e-13
3.01951e-13
-3.40107e-27
-5.80567e-28
-1.38102e-27
-1.91395e-27
8.11038e-28
7.83005e-27
1.9822e-26
5.14939e-26
3.87663e-25
5.73828e-24
8.43205e-23
1.10017e-21
1.25798e-20
1.25583e-19
1.09168e-18
8.24636e-18
5.39614e-17
3.05575e-16
1.50665e-15
6.56571e-15
2.52547e-14
8.7106e-14
2.73728e-13
-3.29755e-28
-1.21237e-28
-1.45614e-28
-1.22163e-28
1.64487e-28
7.62783e-28
1.78033e-27
6.62026e-27
8.33583e-26
1.40067e-24
2.15559e-23
2.9286e-22
3.50008e-21
3.67958e-20
3.40622e-19
2.78039e-18
1.9939e-17
1.2702e-16
7.28046e-16
3.60889e-15
1.5641e-14
6.03959e-14
2.13669e-13
-2.76074e-29
-1.30746e-29
-1.21464e-29
-6.01698e-30
1.93659e-29
6.52804e-29
1.54845e-28
9.63117e-28
1.61054e-26
2.83123e-25
4.43423e-24
6.12092e-23
7.45582e-22
8.04945e-21
7.75897e-20
6.71949e-19
5.37467e-18
4.12333e-17
2.73758e-16
1.55199e-15
7.6184e-15
3.28961e-14
1.27382e-13
-2.07129e-30
-1.11156e-30
-8.69219e-31
-1.70384e-31
1.81261e-30
5.0634e-30
1.38915e-29
1.41761e-28
2.66005e-27
4.69201e-26
7.27141e-25
9.8743e-24
1.17729e-22
1.24027e-21
1.17023e-20
1.02622e-19
9.7247e-19
9.07487e-18
7.13266e-17
4.74154e-16
2.70036e-15
1.3373e-14
5.86809e-14
-1.42529e-31
-8.19965e-32
-5.51939e-32
6.48562e-33
1.46736e-31
3.65725e-31
1.32917e-30
1.92881e-29
3.71906e-28
6.3977e-27
9.53488e-26
1.22672e-24
1.35589e-23
1.28118e-22
1.03247e-21
8.17908e-21
9.90511e-20
1.13943e-18
1.09658e-17
8.85731e-17
6.07229e-16
3.58359e-15
1.86055e-14
-9.15834e-33
-5.47086e-33
-3.16204e-33
1.54313e-33
1.06845e-32
2.52911e-32
1.32662e-31
2.3372e-30
4.42862e-29
7.2645e-28
1.01368e-26
1.18993e-25
1.14924e-24
8.74441e-24
4.69552e-23
2.50253e-22
4.28792e-21
6.35283e-20
7.80958e-19
7.99514e-18
6.86307e-17
4.99432e-16
3.13814e-15
-5.58093e-34
-3.38197e-34
-1.64554e-34
1.59713e-34
7.16762e-34
1.72157e-33
1.31272e-32
2.50496e-31
4.54826e-30
6.98624e-29
8.92135e-28
9.2473e-27
7.397e-26
4.06555e-25
1.06334e-24
2.21007e-24
5.16254e-23
1.04802e-21
1.75656e-20
2.43832e-19
2.81595e-18
2.72194e-17
2.23059e-16
-3.26864e-35
-1.9683e-35
-7.75604e-36
1.29189e-35
4.5075e-35
1.17908e-34
1.23621e-33
2.38741e-32
4.08773e-31
5.79751e-30
6.65823e-29
5.94851e-28
3.78873e-27
1.37837e-26
1.31318e-26
2.57228e-27
6.55153e-26
2.12514e-24
5.64992e-23
1.23596e-21
2.23756e-20
3.36948e-19
4.25421e-18
-1.85799e-36
-1.09035e-36
-3.24988e-37
9.12892e-37
2.69395e-36
8.19476e-36
1.08482e-34
2.04109e-33
3.25943e-32
4.22501e-31
4.31454e-30
3.27937e-29
1.63756e-28
3.80889e-28
1.14161e-28
3.93599e-30
1.24522e-31
5.39187e-30
3.88871e-28
2.30433e-26
1.13188e-24
4.65797e-23
1.61395e-21
0.999122
0.999163
0.999165
0.99909
0.999055
0.999163
0.999069
0.998274
0.99901
0.999004
0.998635
0.997445
0.958048
0.998582
0.998328
0.997831
0.364007
0.903083
0.997817
0.996128
0.0130292
0.213615
0.579406
0.743358
0.0098736
0.0128743
0.0403651
0.0664639
0.00988359
0.00990003
0.0102168
0.0103892
0.00986883
0.0102022
0.0099427
0.0276559
0.0198761
0.0216627
0.0162537
0.00672185
0.227322
0.223527
0.174473
0.0226463
0.229744
0.222458
0.225273
0.224882
4.96703e-06
0.00207608
0.0424197
0.170617
-4.89298e-08
-1.11264e-06
-1.60207e-07
1.65805e-09
3.47657e-09
3.0877e-09
2.72473e-09
2.29338e-09
9.26186e-09
9.14724e-09
7.57154e-09
1.96363e-09
7.7625e-10
1.20361e-09
2.35021e-09
1.95719e-09
2.44615e-10
2.50142e-10
2.63592e-10
3.20699e-10
8.2378e-11
8.56686e-11
8.63824e-11
9.64733e-11
1.78563e-11
2.13977e-11
2.3784e-11
2.54136e-11
9.95132e-12
1.07625e-11
1.17785e-11
1.29753e-11
4.66305e-12
5.15975e-12
5.83057e-12
6.68148e-12
1.94143e-12
2.27088e-12
2.70641e-12
3.26264e-12
8.65088e-13
1.07947e-12
1.35901e-12
1.71853e-12
5.68262e-13
7.3876e-13
9.59598e-13
1.24674e-12
5.37308e-13
7.05946e-13
9.2513e-13
1.21529e-12
5.63186e-13
7.42692e-13
9.80024e-13
1.30332e-12
5.8293e-13
7.73221e-13
1.03199e-12
1.39634e-12
5.79153e-13
7.75653e-13
1.05203e-12
1.45216e-12
5.48425e-13
7.4547e-13
1.03224e-12
1.45421e-12
5.00562e-13
6.96509e-13
9.91452e-13
1.42733e-12
4.59931e-13
6.68217e-13
9.9566e-13
1.48132e-12
4.46262e-13
7.03784e-13
1.13538e-12
1.79075e-12
4.42446e-13
7.89622e-13
1.4157e-12
2.41676e-12
3.88522e-13
7.92522e-13
1.56751e-12
2.89046e-12
2.62239e-13
5.91677e-13
1.24589e-12
2.42903e-12
1.39988e-13
3.46688e-13
7.73061e-13
1.58302e-12
5.49434e-14
1.53858e-13
3.81264e-13
8.58245e-13
1.19102e-14
3.73217e-14
1.06595e-13
2.84681e-13
1.188e-15
4.43662e-15
1.49597e-14
5.20093e-14
3.81518e-17
1.95981e-16
9.0999e-16
4.67834e-15
4.51729e-20
6.09434e-19
8.44121e-18
1.39514e-16
0.997442
0.953849
0.28603
0.0792414
0.079839
0.0803956
0.116173
0.340989
0.581141
0.516925
0.0987336
0.0710777
0.0728323
0.0758148
0.0938962
0.0865279
0.0857942
0.0857231
0.0857231
0.993167
0.64224
0.0791578
0.0792085
0.0792414
0.317737
0.475302
0.313568
0.313568
0.500612
0.0777304
0.0688426
0.0716153
0.0899622
0.104263
0.11675
0.0967121
0.0857365
0.0857231
0.990405
0.550922
0.0792974
0.0792414
0.112251
0.636928
0.6572
0.346254
0.528861
0.455472
0.0688424
0.0648672
0.110119
0.191121
0.191166
0.190919
0.188748
0.105192
0.0859131
0.994718
0.837878
0.458537
0.305196
0.568036
0.767515
0.762978
0.656729
0.632057
0.491806
0.206912
0.0606622
0.147287
0.19118
0.191121
0.173033
0.126854
0.12735
0.096848
0.995358
0.993608
0.979873
0.913694
0.861204
0.778411
0.744918
0.4516
0.474601
0.520847
0.338165
0.0587239
0.115824
0.191121
0.174144
0.00610841
0.00170063
0.0388491
0.091622
0.792613
0.74601
0.637636
0.584268
0.555964
0.601353
0.551619
0.10511
0.182046
0.520847
0.167527
0.0586174
0.120074
0.190865
0.0449255
0.000614217
0.000609787
0.00354407
0.0336571
0.0975879
0.115415
0.106262
0.117809
0.210725
0.215315
0.081183
0.00466494
0.109791
0.520847
0.0667981
0.0586174
0.155606
0.19032
0.0119416
0.000300956
0.00026578
0.00138344
0.001551
0.0139474
0.0341111
0.0747958
0.0409338
0.0115485
0.00239748
0.00281511
0.0030878
0.186906
0.51793
0.0842327
0.0586174
0.149539
0.118495
0.00839993
9.81582e-05
0.000108345
0.00204257
0.00823828
0.0441533
0.045357
0.0256746
0.00222611
0.00218748
0.00224839
0.00239858
0.0256782
0.264763
0.218895
0.0630888
0.0718769
0.0690093
0.0085779
0.000790269
7.21073e-05
7.73167e-05
0.000719715
0.0126202
0.00424446
0.00308068
0.00222613
0.00218815
0.00218814
0.00218773
0.00224664
0.175141
0.264792
0.0143472
0.0123424
0.0318472
0.0165531
6.81041e-05
7.22107e-05
6.1224e-05
5.33093e-05
5.66094e-05
0.0112893
0.044918
0.023833
0.00284726
0.00239743
0.00349029
0.00554391
0.0721508
0.200713
0.169727
0.00895411
0.00686933
0.00854919
0.005493
6.86931e-05
6.80794e-05
0.000157569
5.21736e-05
5.07714e-06
7.68453e-06
0.224892
0.224491
0.0616969
0.105089
0.125851
0.130711
0.154984
0.112117
0.00225851
0.0068747
0.00682741
0.00509731
0.00387744
6.83202e-05
0.000169401
0.000232554
7.48284e-05
3.27492e-06
5.07687e-06
0.208986
0.174233
0.181594
0.18176
0.181334
0.170403
0.0951887
0.000230468
0.00190181
0.00671245
0.00477349
0.000773966
5.31309e-06
9.85662e-05
0.000208129
0.000185167
8.20638e-06
3.27444e-06
3.26137e-06
-1.07743e-08
-8.19685e-08
0.0555917
0.0536613
0.00588263
2.95298e-06
4.23161e-06
0.00018678
0.00384991
0.00483711
0.000477704
6.44465e-07
1.98982e-06
6.00602e-05
0.000102933
1.58174e-05
8.49796e-06
3.26859e-06
0.00149743
2.72102e-09
9.19653e-09
1.65766e-08
7.21491e-09
4.38812e-08
4.71958e-07
5.84852e-06
0.00179053
0.00320602
0.000967438
2.81131e-07
3.69333e-07
6.73509e-07
2.71168e-05
6.05806e-05
4.82679e-05
1.81014e-05
1.48645e-05
0.00390386
5.05077e-08
9.82382e-08
7.52639e-08
1.52933e-09
8.38745e-09
9.62018e-08
5.78769e-05
0.000330592
0.000266946
8.23487e-07
8.77004e-08
8.733e-06
5.26219e-05
5.55456e-05
5.67441e-05
5.13104e-05
6.12792e-06
2.71658e-05
0.00390386
1.62246e-10
2.58428e-08
1.21594e-10
1.18411e-09
1.08603e-07
-6.24833e-09
2.08118e-06
2.56295e-06
9.63082e-06
1.22098e-05
5.16021e-09
2.13542e-07
1.21393e-05
2.7586e-05
3.01147e-05
1.91363e-05
6.49362e-07
2.2876e-06
0.00390386
1.5516e-10
1.07571e-10
1.16839e-10
4.48468e-10
1.50408e-10
-1.43015e-10
7.5715e-09
3.35504e-05
0.000117484
5.9039e-05
4.28863e-09
4.28925e-09
4.28385e-09
4.50449e-09
7.54469e-09
5.13914e-08
3.3617e-07
6.58026e-07
0.00385205
1.06279e-10
1.06358e-10
1.45841e-10
1.5814e-10
1.48927e-10
1.43228e-10
8.57047e-11
3.3259e-06
6.62327e-05
5.87208e-08
4.40346e-08
4.28996e-09
4.39228e-09
5.21896e-09
7.59548e-07
4.24854e-06
4.42841e-06
7.85854e-07
0.0035477
3.03079e-11
4.08012e-11
6.72724e-11
1.35141e-10
1.77738e-10
2.95602e-10
6.24492e-11
8.50092e-11
4.73621e-10
8.15763e-06
1.93637e-06
4.39181e-09
5.49109e-09
1.10646e-08
6.92443e-06
8.36144e-06
7.43351e-06
9.36367e-07
0.000787384
1.61691e-11
1.96524e-11
2.60219e-11
4.54203e-11
6.14891e-11
3.81322e-10
2.80343e-11
7.64725e-09
3.06078e-08
2.70259e-07
7.56982e-07
3.99958e-07
2.79863e-08
1.68079e-09
8.03407e-06
8.38396e-06
1.51749e-06
1.27774e-06
1.36482e-06
9.25177e-12
1.19464e-11
1.55312e-11
2.0814e-11
2.69401e-11
3.68662e-11
2.71478e-11
7.01378e-09
1.34913e-07
1.58783e-07
9.84114e-08
1.53303e-07
6.40172e-08
1.129e-09
1.50326e-06
7.69395e-06
4.70691e-07
4.87622e-07
1.22412e-06
5.31404e-12
8.12346e-12
1.23588e-11
1.83331e-11
2.49669e-11
2.70358e-11
2.7036e-11
2.05981e-08
1.80544e-07
1.8211e-07
1.01929e-07
1.16704e-09
9.23991e-10
1.11269e-09
1.12906e-09
1.12523e-07
1.68651e-07
5.27584e-08
2.87086e-06
3.55916e-12
6.9613e-12
1.23356e-11
1.93622e-11
2.64939e-11
3.11996e-11
2.73933e-11
2.78731e-11
6.977e-08
1.61642e-07
7.11967e-08
1.0566e-09
6.7512e-10
9.237e-10
9.46463e-08
1.14799e-07
1.36041e-07
8.62814e-06
8.4976e-05
3.13404e-12
7.46053e-12
1.46495e-11
2.34836e-11
3.26608e-11
3.58166e-11
1.04444e-10
1.09781e-10
2.09546e-09
7.78584e-09
6.55526e-09
2.96671e-09
5.63876e-10
6.74291e-10
2.70041e-07
1.68576e-07
1.53587e-07
0.000109245
0.000159398
3.23236e-12
8.79109e-12
1.84066e-11
2.95036e-11
4.12375e-11
4.67017e-11
1.56158e-10
2.52139e-10
2.53736e-10
2.8418e-10
6.10276e-10
5.32482e-10
5.48695e-10
9.48446e-08
4.99844e-07
2.98938e-07
1.68091e-07
0.000157417
0.000159398
3.63411e-12
1.04532e-11
2.15717e-11
3.38221e-11
4.77926e-11
6.92688e-11
1.54102e-10
2.39994e-10
2.80063e-10
3.25146e-10
5.23182e-10
5.22595e-10
5.30879e-10
3.21546e-07
4.99844e-07
1.55694e-07
1.09168e-07
0.000126754
0.000159274
4.04881e-12
1.17617e-11
2.41488e-11
3.70963e-11
5.08198e-11
9.20745e-11
2.00707e-10
2.84489e-10
3.22702e-10
3.89282e-10
5.8307e-10
5.33101e-10
5.46707e-10
5.97854e-08
3.5983e-07
1.37897e-08
2.57119e-08
0.000130422
0.000118984
4.22519e-12
1.18494e-11
2.4991e-11
3.77605e-11
5.05949e-11
1.00832e-10
2.96439e-10
1.12956e-09
2.03906e-09
1.86987e-09
9.67317e-10
5.46758e-10
3.09891e-08
3.1505e-08
7.27285e-09
8.29114e-09
3.10723e-07
0.000215227
4.86108e-05
4.10686e-12
1.09033e-11
2.33585e-11
3.56435e-11
4.05073e-11
1.0196e-10
1.05354e-09
3.71028e-09
4.60874e-09
4.03956e-09
1.66041e-09
5.8371e-10
1.45353e-08
9.43052e-09
7.10236e-09
7.26998e-09
1.57191e-05
0.000218965
4.77285e-05
3.82488e-12
9.3459e-12
1.97062e-11
3.06817e-11
3.75209e-11
1.39512e-10
1.1325e-09
3.42681e-09
4.61798e-09
5.58749e-09
7.43573e-09
7.75029e-09
7.02174e-09
7.02128e-09
7.02008e-09
7.09518e-09
0.000165033
0.000219829
4.53934e-05
3.75048e-12
8.14238e-12
1.65922e-11
3.56839e-11
5.69065e-11
2.42118e-10
8.74286e-10
1.5227e-09
3.05773e-09
9.78484e-09
1.24042e-08
1.24037e-08
9.39072e-09
7.01988e-09
7.10213e-09
4.05255e-07
0.000229904
0.000224561
1.8268e-05
4.46875e-12
8.6307e-12
1.71622e-11
5.79529e-11
1.00504e-10
2.45277e-10
6.23089e-10
1.05837e-09
6.53776e-09
1.20683e-08
1.22942e-08
8.03637e-09
7.20462e-09
7.10454e-09
7.20191e-09
9.54513e-05
0.000232884
0.000163513
2.95692e-06
6.38471e-12
1.20737e-11
2.05376e-11
8.00629e-11
1.09072e-10
1.09482e-10
1.50315e-09
7.08156e-09
9.42094e-09
9.42367e-09
6.06941e-09
5.85665e-09
2.36439e-08
7.20414e-09
9.31119e-09
0.000210123
0.000232884
9.1245e-05
3.98111e-07
8.32796e-12
1.71368e-11
3.75376e-11
8.80441e-11
1.14788e-10
1.11735e-10
2.41642e-09
7.47784e-09
7.98555e-09
4.96975e-09
5.11755e-09
1.56319e-06
1.43724e-06
9.30214e-09
2.82506e-05
0.00022708
0.000232884
2.1994e-05
9.60168e-09
7.50731e-12
1.8231e-11
4.81943e-11
1.18028e-10
1.56638e-10
1.55861e-10
1.04592e-09
2.26848e-09
1.1953e-09
1.23562e-09
2.31816e-06
5.50155e-06
2.6718e-06
6.37072e-08
2.79775e-05
0.000152638
1.98028e-05
4.83143e-10
1.66368e-10
4.998e-12
1.42365e-11
5.35281e-11
1.57234e-10
2.04723e-10
2.1018e-10
2.29438e-10
2.24743e-10
2.23289e-10
2.5838e-06
5.5011e-06
5.49978e-06
3.69038e-06
1.28246e-06
7.15628e-06
1.00517e-08
4.44827e-10
1.3947e-10
1.59897e-10
2.79118e-12
8.97951e-12
3.83187e-11
1.242e-10
2.64667e-10
2.68006e-10
2.3481e-10
2.23407e-10
2.23289e-10
1.99304e-06
3.39818e-06
7.49544e-07
6.34065e-06
6.75676e-06
1.23737e-06
1.0027e-10
9.32018e-11
1.05887e-10
1.59086e-10
1.07873e-12
4.37023e-12
1.78695e-11
7.44573e-11
2.57471e-10
3.03403e-10
2.99119e-10
2.23731e-10
2.23301e-10
9.16687e-08
7.07667e-08
1.17025e-07
1.10763e-08
1.1202e-08
9.98754e-11
7.97556e-11
9.40741e-11
1.13748e-10
3.04059e-10
2.52772e-13
1.51728e-12
7.5367e-12
3.0329e-11
1.61704e-10
1.965e-10
6.15166e-10
1.66562e-09
2.0293e-09
2.02847e-09
2.27468e-09
2.18094e-08
2.90863e-08
2.07296e-08
1.74868e-09
4.28365e-11
1.14431e-10
2.1682e-10
6.25264e-10
3.34005e-14
3.5066e-13
2.45208e-12
1.15811e-11
5.11353e-11
5.26956e-11
9.5176e-10
2.77148e-09
2.91123e-09
2.20779e-09
2.51092e-09
7.73366e-10
1.12412e-10
8.62409e-12
9.41552e-12
4.14342e-11
8.71353e-11
1.08499e-10
7.67606e-10
2.32254e-15
5.04185e-14
5.50725e-13
3.63437e-12
1.75601e-11
3.56731e-11
3.17955e-10
1.25579e-09
1.57767e-09
1.28728e-09
6.51811e-10
8.2273e-11
2.21817e-11
8.5585e-12
6.25889e-12
5.0597e-12
2.5905e-12
1.13994e-11
8.71845e-10
)
;

boundaryField
{
    leftWall
    {
        type            zeroGradient;
    }
    rightWall
    {
        type            zeroGradient;
    }
    lowerWall
    {
        type            zeroGradient;
    }
    atmosphere
    {
        type            inletOutlet;
        inletValue      uniform 0;
        value           nonuniform List<scalar> 
46
(
-1.85799e-36
-1.09035e-36
-3.24988e-37
9.12892e-37
2.69395e-36
8.19476e-36
1.08482e-34
2.04109e-33
3.25943e-32
4.22501e-31
4.31454e-30
3.27937e-29
1.63756e-28
3.80889e-28
0
0
0
0
0
0
0
0
0
0
0
0
0
0
0
0
0
0
0
0
0
0
1.28728e-09
6.51811e-10
8.2273e-11
2.21817e-11
0
0
0
0
1.13994e-11
8.71845e-10
)
;
    }
    defaultFaces
    {
        type            empty;
    }
}


// ************************************************************************* //
