# vtk DataFile Version 2.0
rotor
ASCII
DATASET POLYDATA
POINTS 384 float
0.02 0 0 0.0199572 -0.00130806 0 0.0199572 -0.00130806 0.01 0.02 0
0.01 0.0198289 -0.00261052 0 0.0198289 -0.00261052 0.01 0.0196157 -0.00390181 0
0.0196157 -0.00390181 0.01 0.0193185 -0.00517638 0 0.0193185 -0.00517638 0.01 0.0189386
-0.00642879 0 0.0189386 -0.00642879 0.01 0.0184776 -0.00765367 0 0.0184776 -0.00765367
0.01 0.0179375 -0.00884577 0 0.0179375 -0.00884577 0.01 0.0173205 -0.01 0
0.0173205 -0.01 0.01 0.0166294 -0.0111114 0 0.0166294 -0.0111114 0.01 0.0158671
-0.0121752 0 0.0158671 -0.0121752 0.01 0.0150368 -0.0131869 0 0.0150368 -0.0131869
0.01 0.0141421 -0.0141421 0 0.0141421 -0.0141421 0.01 0.0131869 -0.0150368 0
0.0131869 -0.0150368 0.01 0.0121752 -0.0158671 0 0.0121752 -0.0158671 0.01 0.0111114
-0.0166294 0 0.0111114 -0.0166294 0.01 0.01 -0.0173205 0 0.01 -0.0173205
0.01 0.00884577 -0.0179375 0 0.00884577 -0.0179375 0.01 0.00765367 -0.0184776 0
0.00765367 -0.0184776 0.01 0.00642879 -0.0189386 0 0.00642879 -0.0189386 0.01 0.00517638
-0.0193185 0 0.00517638 -0.0193185 0.01 0.00390181 -0.0196157 0 0.00390181 -0.0196157
0.01 0.00261052 -0.0198289 0 0.00261052 -0.0198289 0.01 0.00130806 -0.0199572 0
0.00130806 -0.0199572 0.01 3.58979e-11 -0.02 0 3.58979e-11 -0.02 0.01 3.58979e-11
-0.02 0 -0.00130806 -0.0199572 0 -0.00130806 -0.0199572 0.01 3.58979e-11 -0.02
0.01 -0.00261052 -0.0198289 0 -0.00261052 -0.0198289 0.01 -0.00390181 -0.0196157 0
-0.00390181 -0.0196157 0.01 -0.00517638 -0.0193185 0 -0.00517638 -0.0193185 0.01 -0.00642879
-0.0189386 0 -0.00642879 -0.0189386 0.01 -0.00765367 -0.0184776 0 -0.00765367 -0.0184776
0.01 -0.00884577 -0.0179375 0 -0.00884577 -0.0179375 0.01 -0.01 -0.0173205 0
-0.01 -0.0173205 0.01 -0.0111114 -0.0166294 0 -0.0111114 -0.0166294 0.01 -0.0121752
-0.0158671 0 -0.0121752 -0.0158671 0.01 -0.0131869 -0.0150368 0 -0.0131869 -0.0150368
0.01 -0.0141421 -0.0141421 0 -0.0141421 -0.0141421 0.01 -0.0150368 -0.0131869 0
-0.0150368 -0.0131869 0.01 -0.0158671 -0.0121752 0 -0.0158671 -0.0121752 0.01 -0.0166294
-0.0111114 0 -0.0166294 -0.0111114 0.01 -0.0173205 -0.01 0 -0.0173205 -0.01
0.01 -0.0179375 -0.00884577 0 -0.0179375 -0.00884577 0.01 -0.0184776 -0.00765367 0
-0.0184776 -0.00765367 0.01 -0.0189386 -0.00642879 0 -0.0189386 -0.00642879 0.01 -0.0193185
-0.00517638 0 -0.0193185 -0.00517638 0.01 -0.0196157 -0.00390181 0 -0.0196157 -0.00390181
0.01 -0.0198289 -0.00261052 0 -0.0198289 -0.00261052 0.01 -0.0199572 -0.00130806 0
-0.0199572 -0.00130806 0.01 -0.02 7.17959e-11 0 -0.02 7.17959e-11 0.01 -0.02
7.17959e-11 0 -0.0199572 0.00130806 0 -0.0199572 0.00130806 0.01 -0.02 7.17959e-11
0.01 -0.0198289 0.00261052 0 -0.0198289 0.00261052 0.01 -0.0196157 0.00390181 0
-0.0196157 0.00390181 0.01 -0.0193185 0.00517638 0 -0.0193185 0.00517638 0.01 -0.0189386
0.00642879 0 -0.0189386 0.00642879 0.01 -0.0184776 0.00765367 0 -0.0184776 0.00765367
0.01 -0.0179375 0.00884577 0 -0.0179375 0.00884577 0.01 -0.0173205 0.01 0
-0.0173205 0.01 0.01 -0.0166294 0.0111114 0 -0.0166294 0.0111114 0.01 -0.0158671
0.0121752 0 -0.0158671 0.0121752 0.01 -0.0150368 0.0131869 0 -0.0150368 0.0131869
0.01 -0.0141421 0.0141421 0 -0.0141421 0.0141421 0.01 -0.0131869 0.0150368 0
-0.0131869 0.0150368 0.01 -0.0121752 0.0158671 0 -0.0121752 0.0158671 0.01 -0.0111114
0.0166294 0 -0.0111114 0.0166294 0.01 -0.01 0.0173205 0 -0.01 0.0173205
0.01 -0.00884577 0.0179375 0 -0.00884577 0.0179375 0.01 -0.00765367 0.0184776 0
-0.00765367 0.0184776 0.01 -0.00642879 0.0189386 0 -0.00642879 0.0189386 0.01 -0.00517638
0.0193185 0 -0.00517638 0.0193185 0.01 -0.00390181 0.0196157 0 -0.00390181 0.0196157
0.01 -0.00261052 0.0198289 0 -0.00261052 0.0198289 0.01 -0.00130806 0.0199572 0
-0.00130806 0.0199572 0.01 3.58979e-11 0.02 0 3.58979e-11 0.02 0.01 3.58979e-11
0.02 0 0.00130806 0.0199572 0 0.00130806 0.0199572 0.01 3.58979e-11 0.02
0.01 0.00261052 0.0198289 0 0.00261052 0.0198289 0.01 0.00390181 0.0196157 0
0.00390181 0.0196157 0.01 0.00517638 0.0193185 0 0.00517638 0.0193185 0.01 0.00642879
0.0189386 0 0.00642879 0.0189386 0.01 0.00765367 0.0184776 0 0.00765367 0.0184776
0.01 0.00884577 0.0179375 0 0.00884577 0.0179375 0.01 0.01 0.0173205 0
0.01 0.0173205 0.01 0.0111114 0.0166294 0 0.0111114 0.0166294 0.01 0.0121752
0.0158671 0 0.0121752 0.0158671 0.01 0.0131869 0.0150368 0 0.0131869 0.0150368
0.01 0.0141421 0.0141421 0 0.0141421 0.0141421 0.01 0.0150368 0.0131869 0
0.0150368 0.0131869 0.01 0.0158671 0.0121752 0 0.0158671 0.0121752 0.01 0.0166294
0.0111114 0 0.0166294 0.0111114 0.01 0.0173205 0.01 0 0.0173205 0.01
0.01 0.0179375 0.00884577 0 0.0179375 0.00884577 0.01 0.0184776 0.00765367 0
0.0184776 0.00765367 0.01 0.0189386 0.00642879 0 0.0189386 0.00642879 0.01 0.0193185
0.00517638 0 0.0193185 0.00517638 0.01 0.0196157 0.00390181 0 0.0196157 0.00390181
0.01 0.0198289 0.00261052 0 0.0198289 0.00261052 0.01 0.0199572 0.00130806 0
0.0199572 0.00130806 0.01 0.02 0 0 0.02 0 0.01 0.0233333
0 0.01 0.0233333 0 0 0.0266667 0 0.01 0.0266667 0
0 0.03 0 0.01 0.03 0 0 0.0333333 0 0.01
0.0333333 0 0 0.0366667 0 0.01 0.0366667 0 0 0.04
0 0.01 0.04 0 0 0.0433333 0 0.01 0.0433333 0
0 0.0466667 0 0.01 0.0466667 0 0 0.05 0 0.01
0.05 0 0 0.0533333 0 0.01 0.0533333 0 0 0.0566667
0 0.01 0.0566667 0 0 0.06 0 0.01 0.06 0
0 0.0233333 0 0 0.0233333 0 0.01 0.0266667 0 0
0.0266667 0 0.01 0.03 0 0 0.03 0 0.01 0.0333333
0 0 0.0333333 0 0.01 0.0366667 0 0 0.0366667 0
0.01 0.04 0 0 0.04 0 0.01 0.0433333 0 0
0.0433333 0 0.01 0.0466667 0 0 0.0466667 0 0.01 0.05
0 0 0.05 0 0.01 0.0533333 0 0 0.0533333 0
0.01 0.0566667 0 0 0.0566667 0 0.01 4.18809e-11 -0.0233333 0.01
4.18809e-11 -0.0233333 0 4.78639e-11 -0.0266667 0.01 4.78639e-11 -0.0266667 0 5.38469e-11
-0.03 0.01 5.38469e-11 -0.03 0 5.98299e-11 -0.0333333 0.01 5.98299e-11 -0.0333333
0 6.58129e-11 -0.0366667 0.01 6.58129e-11 -0.0366667 0 7.17959e-11 -0.04 0.01
7.17959e-11 -0.04 0 7.77789e-11 -0.0433333 0.01 7.77789e-11 -0.0433333 0 8.37618e-11
-0.0466667 0.01 8.37618e-11 -0.0466667 0 8.97448e-11 -0.05 0.01 8.97448e-11 -0.05
0 9.57278e-11 -0.0533333 0.01 9.57278e-11 -0.0533333 0 1.01711e-10 -0.0566667 0.01
1.01711e-10 -0.0566667 0 1.07694e-10 -0.06 0.01 1.07694e-10 -0.06 0 4.18809e-11
-0.0233333 0 4.18809e-11 -0.0233333 0.01 4.78639e-11 -0.0266667 0 4.78639e-11 -0.0266667
0.01 5.38469e-11 -0.03 0 5.38469e-11 -0.03 0.01 5.98299e-11 -0.0333333 0
5.98299e-11 -0.0333333 0.01 6.58129e-11 -0.0366667 0 6.58129e-11 -0.0366667 0.01 7.17959e-11
-0.04 0 7.17959e-11 -0.04 0.01 7.77789e-11 -0.0433333 0 7.77789e-11 -0.0433333
0.01 8.37618e-11 -0.0466667 0 8.37618e-11 -0.0466667 0.01 8.97448e-11 -0.05 0
8.97448e-11 -0.05 0.01 9.57278e-11 -0.0533333 0 9.57278e-11 -0.0533333 0.01 1.01711e-10
-0.0566667 0 1.01711e-10 -0.0566667 0.01 -0.0233333 8.37618e-11 0.01 -0.0233333 8.37618e-11
0 -0.0266667 9.57278e-11 0.01 -0.0266667 9.57278e-11 0 -0.03 1.07694e-10 0.01
-0.03 1.07694e-10 0 -0.0333333 1.1966e-10 0.01 -0.0333333 1.1966e-10 0 -0.0366667
1.31626e-10 0.01 -0.0366667 1.31626e-10 0 -0.04 1.43592e-10 0.01 -0.04 1.43592e-10
0 -0.0433333 1.55558e-10 0.01 -0.0433333 1.55558e-10 0 -0.0466667 1.67524e-10 0.01
-0.0466667 1.67524e-10 0 -0.05 1.7949e-10 0.01 -0.05 1.7949e-10 0 -0.0533333
1.91456e-10 0.01 -0.0533333 1.91456e-10 0 -0.0566667 2.03422e-10 0.01 -0.0566667 2.03422e-10
0 -0.06 2.15388e-10 0.01 -0.06 2.15388e-10 0 -0.0233333 8.37618e-11 0
-0.0233333 8.37618e-11 0.01 -0.0266667 9.57278e-11 0 -0.0266667 9.57278e-11 0.01 -0.03
1.07694e-10 0 -0.03 1.07694e-10 0.01 -0.0333333 1.1966e-10 0 -0.0333333 1.1966e-10
0.01 -0.0366667 1.31626e-10 0 -0.0366667 1.31626e-10 0.01 -0.04 1.43592e-10 0
-0.04 1.43592e-10 0.01 -0.0433333 1.55558e-10 0 -0.0433333 1.55558e-10 0.01 -0.0466667
1.67524e-10 0 -0.0466667 1.67524e-10 0.01 -0.05 1.7949e-10 0 -0.05 1.7949e-10
0.01 -0.0533333 1.91456e-10 0 -0.0533333 1.91456e-10 0.01 -0.0566667 2.03422e-10 0
-0.0566667 2.03422e-10 0.01 4.18809e-11 0.0233333 0.01 4.18809e-11 0.0233333 0 4.78639e-11
0.0266667 0.01 4.78639e-11 0.0266667 0 5.38469e-11 0.03 0.01 5.38469e-11 0.03
0 5.98299e-11 0.0333333 0.01 5.98299e-11 0.0333333 0 6.58129e-11 0.0366667 0.01
6.58129e-11 0.0366667 0 7.17959e-11 0.04 0.01 7.17959e-11 0.04 0 7.77789e-11
0.0433333 0.01 7.77789e-11 0.0433333 0 8.37618e-11 0.0466667 0.01 8.37618e-11 0.0466667
0 8.97448e-11 0.05 0.01 8.97448e-11 0.05 0 9.57278e-11 0.0533333 0.01
9.57278e-11 0.0533333 0 1.01711e-10 0.0566667 0.01 1.01711e-10 0.0566667 0 1.07694e-10
0.06 0.01 1.07694e-10 0.06 0 4.18809e-11 0.0233333 0 4.18809e-11 0.0233333
0.01 4.78639e-11 0.0266667 0 4.78639e-11 0.0266667 0.01 5.38469e-11 0.03 0
5.38469e-11 0.03 0.01 5.98299e-11 0.0333333 0 5.98299e-11 0.0333333 0.01 6.58129e-11
0.0366667 0 6.58129e-11 0.0366667 0.01 7.17959e-11 0.04 0 7.17959e-11 0.04
0.01 7.77789e-11 0.0433333 0 7.77789e-11 0.0433333 0.01 8.37618e-11 0.0466667 0
8.37618e-11 0.0466667 0.01 8.97448e-11 0.05 0 8.97448e-11 0.05 0.01 9.57278e-11
0.0533333 0 9.57278e-11 0.0533333 0.01 1.01711e-10 0.0566667 0 1.01711e-10 0.0566667
0.01 
POLYGONS 192 960
4 0 1 2 3 4 1 4 5 2 4
4 6 7 5 4 6 8 9 7 4
8 10 11 9 4 10 12 13 11 4
12 14 15 13 4 14 16 17 15 4
16 18 19 17 4 18 20 21 19 4
20 22 23 21 4 22 24 25 23 4
24 26 27 25 4 26 28 29 27 4
28 30 31 29 4 30 32 33 31 4
32 34 35 33 4 34 36 37 35 4
36 38 39 37 4 38 40 41 39 4
40 42 43 41 4 42 44 45 43 4
44 46 47 45 4 46 48 49 47 4
50 51 52 53 4 51 54 55 52 4
54 56 57 55 4 56 58 59 57 4
58 60 61 59 4 60 62 63 61 4
62 64 65 63 4 64 66 67 65 4
66 68 69 67 4 68 70 71 69 4
70 72 73 71 4 72 74 75 73 4
74 76 77 75 4 76 78 79 77 4
78 80 81 79 4 80 82 83 81 4
82 84 85 83 4 84 86 87 85 4
86 88 89 87 4 88 90 91 89 4
90 92 93 91 4 92 94 95 93 4
94 96 97 95 4 96 98 99 97 4
100 101 102 103 4 101 104 105 102 4
104 106 107 105 4 106 108 109 107 4
108 110 111 109 4 110 112 113 111 4
112 114 115 113 4 114 116 117 115 4
116 118 119 117 4 118 120 121 119 4
120 122 123 121 4 122 124 125 123 4
124 126 127 125 4 126 128 129 127 4
128 130 131 129 4 130 132 133 131 4
132 134 135 133 4 134 136 137 135 4
136 138 139 137 4 138 140 141 139 4
140 142 143 141 4 142 144 145 143 4
144 146 147 145 4 146 148 149 147 4
150 151 152 153 4 151 154 155 152 4
154 156 157 155 4 156 158 159 157 4
158 160 161 159 4 160 162 163 161 4
162 164 165 163 4 164 166 167 165 4
166 168 169 167 4 168 170 171 169 4
170 172 173 171 4 172 174 175 173 4
174 176 177 175 4 176 178 179 177 4
178 180 181 179 4 180 182 183 181 4
182 184 185 183 4 184 186 187 185 4
186 188 189 187 4 188 190 191 189 4
190 192 193 191 4 192 194 195 193 4
194 196 197 195 4 196 198 199 197 4
0 3 200 201 4 201 200 202 203 4
203 202 204 205 4 205 204 206 207 4
207 206 208 209 4 209 208 210 211 4
211 210 212 213 4 213 212 214 215 4
215 214 216 217 4 217 216 218 219 4
219 218 220 221 4 221 220 222 223 4
198 224 225 199 4 224 226 227 225 4
226 228 229 227 4 228 230 231 229 4
230 232 233 231 4 232 234 235 233 4
234 236 237 235 4 236 238 239 237 4
238 240 241 239 4 240 242 243 241 4
242 244 245 243 4 244 223 222 245 4
50 53 246 247 4 247 246 248 249 4
249 248 250 251 4 251 250 252 253 4
253 252 254 255 4 255 254 256 257 4
257 256 258 259 4 259 258 260 261 4
261 260 262 263 4 263 262 264 265 4
265 264 266 267 4 267 266 268 269 4
48 270 271 49 4 270 272 273 271 4
272 274 275 273 4 274 276 277 275 4
276 278 279 277 4 278 280 281 279 4
280 282 283 281 4 282 284 285 283 4
284 286 287 285 4 286 288 289 287 4
288 290 291 289 4 290 269 268 291 4
100 103 292 293 4 293 292 294 295 4
295 294 296 297 4 297 296 298 299 4
299 298 300 301 4 301 300 302 303 4
303 302 304 305 4 305 304 306 307 4
307 306 308 309 4 309 308 310 311 4
311 310 312 313 4 313 312 314 315 4
98 316 317 99 4 316 318 319 317 4
318 320 321 319 4 320 322 323 321 4
322 324 325 323 4 324 326 327 325 4
326 328 329 327 4 328 330 331 329 4
330 332 333 331 4 332 334 335 333 4
334 336 337 335 4 336 315 314 337 4
150 153 338 339 4 339 338 340 341 4
341 340 342 343 4 343 342 344 345 4
345 344 346 347 4 347 346 348 349 4
349 348 350 351 4 351 350 352 353 4
353 352 354 355 4 355 354 356 357 4
357 356 358 359 4 359 358 360 361 4
148 362 363 149 4 362 364 365 363 4
364 366 367 365 4 366 368 369 367 4
368 370 371 369 4 370 372 373 371 4
372 374 375 373 4 374 376 377 375 4
376 378 379 377 4 378 380 381 379 4
380 382 383 381 4 382 361 360 383 
CELL_DATA 192
FIELD attributes 5
patchID 1 192 float
0 0 0 0 0 0 0 0 0 0 0
0 0 0 0 0 0 0 0 0 0
0 0 0 0 0 0 0 0 0 0
0 0 0 0 0 0 0 0 0 0
0 0 0 0 0 0 0 0 0 0
0 0 0 0 0 0 0 0 0 0
0 0 0 0 0 0 0 0 0 0
0 0 0 0 0 0 0 0 0 0
0 0 0 0 0 0 0 0 0 0
0 0 0 0 0 0 0 0 0 0
0 0 0 0 0 0 0 0 0 0
0 0 0 0 0 0 0 0 0 0
0 0 0 0 0 0 0 0 0 0
0 0 0 0 0 0 0 0 0 0
0 0 0 0 0 0 0 0 0 0
0 0 0 0 0 0 0 0 0 0
0 0 0 0 0 0 0 0 0 0
0 0 0 0 0 0 0 0 0 0
0 0 0 0 0 0 0 0 0 0
0 
p 1 192 float
0 -0.0277894 -0.0521043 -0.0715124 -0.0506343 -0.0678405 -0.0113433 0.0780416 0.0463746 -0.0270511 1.18323
0.011694 0.0439143 0.193793 0.372853 0.619084 1.19543 1.24029 1.12202 0.353803 0.627182
0.333056 0.277935 0.593797 -1.87221 -1.89859 -1.92069 -1.68863 -1.90827 -1.8895 -1.90409
-1.92958 -1.93159 -1.95886 -1.70362 -1.73777 -1.69283 -1.55455 -1.61787 -1.56338 -1.46155
-1.3986 -1.33536 -1.02832 -1.48841 -1.45578 -1.42666 -1.47034 1.39257 1.36556 1.33823
1.21857 2.81086 1.36946 1.33045 1.32884 1.25167 1.3037 1.33523 1.34466 1.42423
1.96428 2.00948 1.49681 1.56898 1.64686 1.57314 1.36971 1.66413 1.56438 1.69827
1.6751 3.17403 3.19999 2.6345 1.34083 0.571005 0.540903 0.560562 0.615463 0.613491
1.82885 1.79262 1.56935 1.60049 1.6468 1.74868 1.77298 1.15539 1.23957 1.87421
1.96551 1.76632 1.73695 1.73169 1.74445 0 2.07051 3.78188 5.84271 8.0306
10.3907 12.9495 15.7011 18.6436 21.6564 24.5345 26.4563 1.74445 2.7265 4.13891
6.10517 8.38668 11.0448 14.5093 18.0027 21.822 26.3533 31.0884 35.8185 -1.87221
0.221465 1.88705 3.89936 6.10613 8.50387 11.0695 13.8037 16.717 19.7612 22.7446
24.9609 0.593797 2.73309 4.42286 5.57425 7.97151 10.5068 13.5502 17.0929 21.1551
25.7429 30.6844 35.6907 1.39257 3.71301 5.00047 6.91532 9.09433 11.491 14.1251
17.0909 20.2956 23.553 26.6694 29.2548 -1.47034 0.231112 2.26755 3.74597 5.92641
8.45287 11.3747 14.7799 18.7279 23.0626 28.2448 33.7561 3.17403 2.65502 4.13392
6.16502 8.38447 10.8198 13.4569 16.3078 19.3319 22.4673 25.5792 27.8929 1.6751
3.77641 5.83673 9.64429 9.33552 12.1627 15.284 18.8879 23.0265 27.546 32.5415
37.5172 
alpha.water 1 192 float
2.69986e-06 9.70769e-06 9.71465e-06 0.000496003 0.00144657 0.00116344 1.98506e-10 1.98506e-10 7.83417e-06 0.0272656 0.0502224
0.0198196 1.91393e-10 4.39319e-09 4.69664e-10 0.0200926 0.0890962 0.0890962 0.0889817 0.0360592 0.0205328
0.0338293 0.0299087 0.016607 8.86322e-07 7.83671e-08 0.00056373 0.00668498 0.00133345 8.14092e-10 0.000182038
0.00111416 0.00113211 0.00340699 0.00999331 0.00878307 0.0013778 0.00780437 0.00395986 5.88656e-10 6.36814e-10
0.000782745 0.0123382 0.019292 0.00547047 0.00238491 7.43122e-06 7.43122e-06 1.36329e-07 1.32931e-07 1.897e-08
0.010449 0.0833333 0.0334536 7.47596e-10 0.000597445 0.00489256 0.0067395 0.00455278 0.0146692 0.0824424
0.0930187 0.0930187 0.025028 2.08199e-09 0.00016424 0.00333133 0.0217004 0.0384321 0.0245406 0.0186933
0.0186933 0.208337 0.208161 0.188498 0.121643 0.0032827 3.71434e-10 7.21943e-07 6.54921e-07 0.0313852
0.169732 0.169732 0.169732 0.169732 0.169733 0.169733 0.169733 0.13794 0.119898 0.169731
0.169731 0.167695 0.169731 0.169731 0.169731 2.69986e-06 1.80633e-06 9.96862e-07 1.16533e-08 2.94594e-06
2.14458e-05 1.78642e-05 1.63203e-06 1.01066e-10 1.71173e-05 0.000297941 0.000409935 0.169731 0.082701 1.01351e-09
0.00475321 0.00816689 0.0109621 0.0278558 0.0229488 1.50363e-05 1.37259e-05 0.000141728 0.000686103 8.86322e-07
5.52255e-07 5.52994e-07 3.47372e-05 0.000174868 0.000222166 0.00015285 1.97519e-05 1.97519e-05 1.97519e-05 0.000240502
4.95852e-05 0.016607 0.0897272 0.0716868 2.71731e-09 0.0108442 0.000762656 0.000194861 0.00114528 0.000661134
2.21005e-07 1.95469e-05 9.88773e-05 1.36329e-07 3.91211e-07 2.90772e-07 1.70086e-08 1.6984e-08 1.69599e-08 1.69599e-08
9.78968e-05 0.000126122 5.29223e-10 0.00194315 0.0085533 7.43122e-06 0.00770527 0.0295792 0.00654466 8.94038e-10
0.000176907 6.05538e-06 6.05538e-06 6.0554e-06 0.00505429 0.0173781 0.00826281 0.208337 0.0224116 0.00330397
0.00104861 3.07047e-05 2.57719e-05 0.00062515 0.00183431 0.00257436 0.0025783 0.00147506 0.00145449 0.0186933
0.0186933 0.0889161 0.162542 4.53729e-10 7.59775e-05 0.00233637 0.00263135 0.0010742 0.00339944 0.0206774
0.0212935 
p_rgh 1 192 float
0 -0.0277894 -0.0521043 -0.0715124 -0.0506343 -0.0678405 -0.0113433 0.0780416 0.0463746 -0.0270511 1.18323
0.011694 0.0439143 0.193793 0.372853 0.619084 1.19543 1.24029 1.12202 0.353803 0.627182
0.333056 0.277935 0.593797 -1.87221 -1.89859 -1.92069 -1.68863 -1.90827 -1.8895 -1.90409
-1.92958 -1.93159 -1.95886 -1.70362 -1.73777 -1.69283 -1.55455 -1.61787 -1.56338 -1.46155
-1.3986 -1.33536 -1.02832 -1.48841 -1.45578 -1.42666 -1.47034 1.39257 1.36556 1.33823
1.21857 2.81086 1.36946 1.33045 1.32884 1.25167 1.3037 1.33523 1.34466 1.42423
1.96428 2.00948 1.49681 1.56898 1.64686 1.57314 1.36971 1.66413 1.56438 1.69827
1.6751 3.17403 3.19999 2.6345 1.34083 0.571005 0.540903 0.560562 0.615463 0.613491
1.82885 1.79262 1.56935 1.60049 1.6468 1.74868 1.77298 1.15539 1.23957 1.87421
1.96551 1.76632 1.73695 1.73169 1.74445 0 2.07051 3.78188 5.84271 8.0306
10.3907 12.9495 15.7011 18.6436 21.6564 24.5345 26.4563 1.74445 2.7265 4.13891
6.10517 8.38668 11.0448 14.5093 18.0027 21.822 26.3533 31.0884 35.8185 -1.87221
0.221465 1.88705 3.89936 6.10613 8.50387 11.0695 13.8037 16.717 19.7612 22.7446
24.9609 0.593797 2.73309 4.42286 5.57425 7.97151 10.5068 13.5502 17.0929 21.1551
25.7429 30.6844 35.6907 1.39257 3.71301 5.00047 6.91532 9.09433 11.491 14.1251
17.0909 20.2956 23.553 26.6694 29.2548 -1.47034 0.231112 2.26755 3.74597 5.92641
8.45287 11.3747 14.7799 18.7279 23.0626 28.2448 33.7561 3.17403 2.65502 4.13392
6.16502 8.38447 10.8198 13.4569 16.3078 19.3319 22.4673 25.5792 27.8929 1.6751
3.77641 5.83673 9.64429 9.33552 12.1627 15.284 18.8879 23.0265 27.546 32.5415
37.5172 
U 3 192 float
0.0041094 0.125529 0 0.0123106 0.124992 0 0.0204591 0.123919 0 0.02852 0.122315
0 0.0364587 0.120188 0 0.0442413 0.117546 0 0.0518345 0.114401 0
0.0592057 0.110766 0 0.0663234 0.106657 0 0.0731571 0.102091 0 0.0796775
0.0970873 0 0.0858567 0.0916683 0 0.0916683 0.0858567 0 0.0970873 0.0796775
0 0.102091 0.0731571 0 0.106657 0.0663234 0 0.110766 0.0592057 0
0.114401 0.0518345 0 0.117546 0.0442413 0 0.120188 0.0364587 0 0.122315
0.02852 0 0.123919 0.0204591 0 0.124992 0.0123106 0 0.125529 0.0041094
0 0.125529 -0.0041094 0 0.124992 -0.0123106 0 0.123919 -0.0204591 0
0.122315 -0.02852 0 0.120188 -0.0364587 0 0.117546 -0.0442413 0 0.114401
-0.0518345 0 0.110766 -0.0592057 0 0.106657 -0.0663234 0 0.102091 -0.0731571
0 0.0970873 -0.0796775 0 0.0916683 -0.0858567 0 0.0858567 -0.0916683 0
0.0796775 -0.0970873 0 0.0731571 -0.102091 0 0.0663234 -0.106657 0 0.0592057
-0.110766 0 0.0518345 -0.114401 0 0.0442413 -0.117546 0 0.0364587 -0.120188
0 0.02852 -0.122315 0 0.0204591 -0.123919 0 0.0123106 -0.124992 0
0.0041094 -0.125529 0 -0.0041094 -0.125529 0 -0.0123106 -0.124992 0 -0.0204591
-0.123919 0 -0.02852 -0.122315 0 -0.0364587 -0.120188 0 -0.0442413 -0.117546
0 -0.0518345 -0.114401 0 -0.0592057 -0.110766 0 -0.0663234 -0.106657 0
-0.0731571 -0.102091 0 -0.0796775 -0.0970873 0 -0.0858567 -0.0916683 0 -0.0916683
-0.0858567 0 -0.0970873 -0.0796775 0 -0.102091 -0.0731571 0 -0.106657 -0.0663234
0 -0.110766 -0.0592057 0 -0.114401 -0.0518345 0 -0.117546 -0.0442413 0
-0.120188 -0.0364587 0 -0.122315 -0.02852 0 -0.123919 -0.0204591 0 -0.124992
-0.0123106 0 -0.125529 -0.0041094 0 -0.125529 0.0041094 0 -0.124992 0.0123106
0 -0.123919 0.0204591 0 -0.122315 0.02852 0 -0.120188 0.0364587 0
-0.117546 0.0442413 0 -0.114401 0.0518345 0 -0.110766 0.0592057 0 -0.106657
0.0663234 0 -0.102091 0.0731571 0 -0.0970873 0.0796775 0 -0.0916683 0.0858567
0 -0.0858567 0.0916683 0 -0.0796775 0.0970873 0 -0.0731571 0.102091 0
-0.0663234 0.106657 0 -0.0592057 0.110766 0 -0.0518345 0.114401 0 -0.0442413
0.117546 0 -0.0364587 0.120188 0 -0.02852 0.122315 0 -0.0204591 0.123919
0 -0.0123106 0.124992 0 -0.0041094 0.125529 0 0 0.136136 0
0 0.15708 0 0 0.178024 0 0 0.198968 0 0
0.219911 0 0 0.240855 0 0 0.261799 0 0 0.282743
0 0 0.303687 0 0 0.324631 0 0 0.345575 0
0 0.366519 0 0 0.136136 0 0 0.15708 0 0
0.178024 0 0 0.198968 0 0 0.219911 0 0 0.240855
0 0 0.261799 0 0 0.282743 0 0 0.303687 0
0 0.324631 0 0 0.345575 0 0 0.366519 0 0.136136
2.44349e-10 0 0.15708 2.81942e-10 0 0.178024 3.19534e-10 0 0.198968 3.57126e-10
0 0.219911 3.94718e-10 0 0.240855 4.32311e-10 0 0.261799 4.69903e-10 0
0.282743 5.07495e-10 0 0.303687 5.45087e-10 0 0.324631 5.8268e-10 0 0.345575
6.20272e-10 0 0.366519 6.57864e-10 0 0.136136 2.44349e-10 0 0.15708 2.81942e-10
0 0.178024 3.19534e-10 0 0.198968 3.57126e-10 0 0.219911 3.94718e-10 0
0.240855 4.32311e-10 0 0.261799 4.69903e-10 0 0.282743 5.07495e-10 0 0.303687
5.45087e-10 0 0.324631 5.8268e-10 0 0.345575 6.20272e-10 0 0.366519 6.57864e-10
0 -4.88699e-10 -0.136136 0 -5.63883e-10 -0.15708 0 -6.39068e-10 -0.178024 0
-7.14252e-10 -0.198968 0 -7.89437e-10 -0.219911 0 -8.64621e-10 -0.240855 0 -9.39806e-10
-0.261799 0 -1.01499e-09 -0.282743 0 -1.09017e-09 -0.303687 0 -1.16536e-09 -0.324631
0 -1.24054e-09 -0.345575 0 -1.31573e-09 -0.366519 0 -4.88699e-10 -0.136136 0
-5.63883e-10 -0.15708 0 -6.39068e-10 -0.178024 0 -7.14252e-10 -0.198968 0 -7.89437e-10
-0.219911 0 -8.64621e-10 -0.240855 0 -9.39806e-10 -0.261799 0 -1.01499e-09 -0.282743
0 -1.09017e-09 -0.303687 0 -1.16536e-09 -0.324631 0 -1.24054e-09 -0.345575 0
-1.31573e-09 -0.366519 0 -0.136136 2.44349e-10 0 -0.15708 2.81942e-10 0 -0.178024
3.19534e-10 0 -0.198968 3.57126e-10 0 -0.219911 3.94718e-10 0 -0.240855 4.32311e-10
0 -0.261799 4.69903e-10 0 -0.282743 5.07495e-10 0 -0.303687 5.45087e-10 0
-0.324631 5.8268e-10 0 -0.345575 6.20272e-10 0 -0.366519 6.57864e-10 0 -0.136136
2.44349e-10 0 -0.15708 2.81942e-10 0 -0.178024 3.19534e-10 0 -0.198968 3.57126e-10
0 -0.219911 3.94718e-10 0 -0.240855 4.32311e-10 0 -0.261799 4.69903e-10 0
-0.282743 5.07495e-10 0 -0.303687 5.45087e-10 0 -0.324631 5.8268e-10 0 -0.345575
6.20272e-10 0 -0.366519 6.57864e-10 0 
POINT_DATA  384
FIELD attributes 4
p 1 384 float
0 -0.0138947 -0.0138947 0 -0.0399469 -0.0399469 -0.0618084 -0.0618084 -0.0610734 -0.0610734 -0.0592374
-0.0592374 -0.0395919 -0.0395919 0.0333491 0.0333491 0.0622081 0.0622081 0.00966175 0.00966175 0.578089
0.578089 0.597462 0.597462 0.0278041 0.0278041 0.118854 0.118854 0.283323 0.283323 0.495968
0.495968 0.907257 0.907257 1.21786 1.21786 1.18115 1.18115 0.737912 0.737912 0.490492
0.490492 0.480119 0.480119 0.305496 0.305496 0.435866 0.435866 0.593797 0.593797 -1.87221
-1.8854 -1.8854 -1.87221 -1.90964 -1.90964 -1.80466 -1.80466 -1.79845 -1.79845 -1.89889
-1.89889 -1.8968 -1.8968 -1.91683 -1.91683 -1.93059 -1.93059 -1.94523 -1.94523 -1.83124
-1.83124 -1.7207 -1.7207 -1.7153 -1.7153 -1.62369 -1.62369 -1.58621 -1.58621 -1.59063
-1.59063 -1.51247 -1.51247 -1.43008 -1.43008 -1.36698 -1.36698 -1.18184 -1.18184 -1.25837
-1.25837 -1.4721 -1.4721 -1.44122 -1.44122 -1.4485 -1.4485 -1.47034 -1.47034 1.39257
1.37907 1.37907 1.39257 1.35189 1.35189 1.2784 1.2784 2.01471 2.01471 2.09016
2.09016 1.34995 1.34995 1.32965 1.32965 1.29025 1.29025 1.27769 1.27769 1.31947
1.31947 1.33994 1.33994 1.38444 1.38444 1.69425 1.69425 1.98688 1.98688 1.75314
1.75314 1.53289 1.53289 1.60792 1.60792 1.61 1.61 1.47143 1.47143 1.51692
1.51692 1.61425 1.61425 1.63133 1.63133 1.68668 1.68668 1.6751 1.6751 3.17403
3.18701 3.18701 3.17403 2.91724 2.91724 1.98767 1.98767 0.955917 0.955917 0.555954
0.555954 0.550732 0.550732 0.588013 0.588013 0.614477 0.614477 1.22117 1.22117 1.81073
1.81073 1.68098 1.68098 1.58492 1.58492 1.62364 1.62364 1.69774 1.69774 1.76083
1.76083 1.46418 1.46418 1.19748 1.19748 1.55689 1.55689 1.91986 1.91986 1.86591
1.86591 1.75163 1.75163 1.73432 1.73432 1.73807 1.73807 1.74445 1.74445 1.03525
1.03525 2.92619 2.92619 4.81229 4.81229 6.93666 6.93666 9.21065 9.21065 11.6701
11.6701 14.3253 14.3253 17.1723 17.1723 20.15 20.15 23.0954 23.0954 25.4954
25.4954 31.1374 31.1374 2.23548 2.23548 3.4327 3.4327 5.12204 5.12204 7.24592
7.24592 9.71574 9.71574 12.7771 12.7771 16.256 16.256 19.9123 19.9123 24.0877
24.0877 28.7208 28.7208 33.4534 33.4534 -0.825373 -0.825373 1.05426 1.05426 2.8932
2.8932 5.00275 5.00275 7.305 7.305 9.78668 9.78668 12.4366 12.4366 15.2604
15.2604 18.2391 18.2391 21.2529 21.2529 23.8528 23.8528 30.3258 30.3258 1.66344
1.66344 3.57798 3.57798 4.99856 4.99856 6.77288 6.77288 9.23915 9.23915 12.0285
12.0285 15.3216 15.3216 19.124 19.124 23.449 23.449 28.2136 28.2136 33.1875
33.1875 2.55279 2.55279 4.35674 4.35674 5.95789 5.95789 8.00482 8.00482 10.2927
10.2927 12.8081 12.8081 15.608 15.608 18.6933 18.6933 21.9243 21.9243 25.1112
25.1112 27.9621 27.9621 31.5054 31.5054 -0.619614 -0.619614 1.24933 1.24933 3.00676
3.00676 4.83619 4.83619 7.18964 7.18964 9.91378 9.91378 13.0773 13.0773 16.7539
16.7539 20.8953 20.8953 25.6537 25.6537 31.0005 31.0005 2.91453 2.91453 3.39447
3.39447 5.14947 5.14947 7.27474 7.27474 9.60213 9.60213 12.1383 12.1383 14.8823
14.8823 17.8199 17.8199 20.8996 20.8996 24.0233 24.0233 26.736 26.736 32.7051
32.7051 2.72575 2.72575 4.80657 4.80657 7.74051 7.74051 9.48991 9.48991 10.7491
10.7491 13.7233 13.7233 17.086 17.086 20.9572 20.9572 25.2862 25.2862 30.0438
30.0438 35.0294 35.0294 
alpha.water 1 384 float
2.69986e-06 6.20377e-06 6.20377e-06 2.69986e-06 9.71117e-06 9.71117e-06 0.000252859 0.000252859 0.000971286 0.000971286 0.00130501
0.00130501 0.00058172 0.00058172 1.98506e-10 1.98506e-10 3.91718e-06 3.91718e-06 0.0136367 0.0136367 0.038744
0.038744 0.035021 0.035021 0.0099098 0.0099098 2.29229e-09 2.29229e-09 2.43143e-09 2.43143e-09 0.0100463
0.0100463 0.0545944 0.0545944 0.0890962 0.0890962 0.089039 0.089039 0.0625205 0.0625205 0.028296
0.028296 0.027181 0.027181 0.031869 0.031869 0.0232578 0.0232578 0.016607 0.016607 8.86322e-07
4.82345e-07 4.82345e-07 8.86322e-07 0.000281904 0.000281904 0.00362435 0.00362435 0.00400922 0.00400922 0.000666725
0.000666725 9.10194e-05 9.10194e-05 0.000648099 0.000648099 0.00112313 0.00112313 0.00226955 0.00226955 0.00670015
0.00670015 0.00938819 0.00938819 0.00508043 0.00508043 0.00459109 0.00459109 0.00588212 0.00588212 0.00197993
0.00197993 6.12735e-10 6.12735e-10 0.000391373 0.000391373 0.00656047 0.00656047 0.0158151 0.0158151 0.0123812
0.0123812 0.00392769 0.00392769 0.00119617 0.00119617 7.43122e-06 7.43122e-06 7.43122e-06 7.43122e-06 1.36329e-07
1.3463e-07 1.3463e-07 1.36329e-07 7.59505e-08 7.59505e-08 0.00522451 0.00522451 0.0468911 0.0468911 0.0583934
0.0583934 0.0167268 0.0167268 0.000298723 0.000298723 0.002745 0.002745 0.00581603 0.00581603 0.00564614
0.00564614 0.00961099 0.00961099 0.0485558 0.0485558 0.0877305 0.0877305 0.0930187 0.0930187 0.0590234
0.0590234 0.012514 0.012514 8.2121e-05 8.2121e-05 0.00174779 0.00174779 0.0125159 0.0125159 0.0300662
0.0300662 0.0314864 0.0314864 0.021617 0.021617 0.0186933 0.0186933 0.0186933 0.0186933 0.208337
0.208249 0.208249 0.208337 0.198329 0.198329 0.15507 0.15507 0.0624629 0.0624629 0.00164135
0.00164135 3.61157e-07 3.61157e-07 6.88432e-07 6.88432e-07 0.0156929 0.0156929 0.100559 0.100559 0.169732
0.169732 0.169732 0.169732 0.169732 0.169732 0.169732 0.169732 0.169733 0.169733 0.169733
0.169733 0.153837 0.153837 0.128919 0.128919 0.144815 0.144815 0.169731 0.169731 0.168713
0.168713 0.168713 0.168713 0.169731 0.169731 0.169731 0.169731 0.169731 0.169731 2.2531e-06
2.2531e-06 1.4016e-06 1.4016e-06 5.04258e-07 5.04258e-07 1.4788e-06 1.4788e-06 1.21959e-05 1.21959e-05 1.9655e-05
1.9655e-05 9.74812e-06 9.74812e-06 8.16066e-07 8.16066e-07 8.5587e-06 8.5587e-06 0.000157529 0.000157529 0.000353938
0.000353938 0.000548019 0.000548019 0.126216 0.126216 0.0413505 0.0413505 0.00237661 0.00237661 0.00646005
0.00646005 0.00956449 0.00956449 0.019409 0.019409 0.0254023 0.0254023 0.0114819 0.0114819 1.43811e-05
1.43811e-05 7.7727e-05 7.7727e-05 0.000413915 0.000413915 7.19288e-07 7.19288e-07 5.52624e-07 5.52624e-07 1.76451e-05
1.76451e-05 0.000104803 0.000104803 0.000198517 0.000198517 0.000187508 0.000187508 8.63009e-05 8.63009e-05 1.97519e-05
1.97519e-05 1.97519e-05 1.97519e-05 0.000130127 0.000130127 0.000145044 0.000145044 7.42312e-05 7.42312e-05 0.0531671
0.0531671 0.080707 0.080707 0.0358434 0.0358434 0.0054221 0.0054221 0.00580343 0.00580343 0.000478759
0.000478759 0.000670071 0.000670071 0.000903207 0.000903207 0.000330677 0.000330677 9.88395e-06 9.88395e-06 5.92121e-05
5.92121e-05 2.6377e-07 2.6377e-07 3.40992e-07 3.40992e-07 1.5389e-07 1.5389e-07 1.69963e-08 1.69963e-08 1.69719e-08
1.69719e-08 1.69599e-08 1.69599e-08 4.89569e-05 4.89569e-05 0.000112009 0.000112009 6.30613e-05 6.30613e-05 0.000971575
0.000971575 0.00524822 0.00524822 0.00840805 0.00840805 0.00385635 0.00385635 0.0186422 0.0186422 0.0180619
0.0180619 0.00327233 0.00327233 8.84539e-05 8.84539e-05 9.14812e-05 9.14812e-05 6.05538e-06 6.05538e-06 6.05539e-06
6.05539e-06 0.00253017 0.00253017 0.0112162 0.0112162 0.0128205 0.0128205 0.115374 0.115374 0.0128578
0.0128578 0.00217629 0.00217629 0.000539657 0.000539657 2.82383e-05 2.82383e-05 0.000325461 0.000325461 0.00122973
0.00122973 0.00220434 0.00220434 0.00257633 0.00257633 0.00202668 0.00202668 0.00146477 0.00146477 0.011374
0.011374 0.0186933 0.0186933 0.0538047 0.0538047 0.125729 0.125729 0.081271 0.081271 3.7989e-05
3.7989e-05 0.00120617 0.00120617 0.00248386 0.00248386 0.00185277 0.00185277 0.00223682 0.00223682 0.0120384
0.0120384 0.0209855 0.0209855 
p_rgh 1 384 float
0 -0.0138947 -0.0138947 0 -0.0399469 -0.0399469 -0.0618084 -0.0618084 -0.0610734 -0.0610734 -0.0592374
-0.0592374 -0.0395919 -0.0395919 0.0333491 0.0333491 0.0622081 0.0622081 0.00966175 0.00966175 0.578089
0.578089 0.597462 0.597462 0.0278041 0.0278041 0.118854 0.118854 0.283323 0.283323 0.495968
0.495968 0.907257 0.907257 1.21786 1.21786 1.18115 1.18115 0.737912 0.737912 0.490492
0.490492 0.480119 0.480119 0.305496 0.305496 0.435866 0.435866 0.593797 0.593797 -1.87221