# vtk DataFile Version 2.0
rotor
ASCII
DATASET POLYDATA
POINTS 384 float
0.02 0 0 0.0199572 -0.00130806 0 0.0199572 -0.00130806 0.01 0.02 0
0.01 0.0198289 -0.00261052 0 0.0198289 -0.00261052 0.01 0.0196157 -0.00390181 0
0.0196157 -0.00390181 0.01 0.0193185 -0.00517638 0 0.0193185 -0.00517638 0.01 0.0189386
-0.00642879 0 0.0189386 -0.00642879 0.01 0.0184776 -0.00765367 0 0.0184776 -0.00765367
0.01 0.0179375 -0.00884577 0 0.0179375 -0.00884577 0.01 0.0173205 -0.01 0
0.0173205 -0.01 0.01 0.0166294 -0.0111114 0 0.0166294 -0.0111114 0.01 0.0158671
-0.0121752 0 0.0158671 -0.0121752 0.01 0.0150368 -0.0131869 0 0.0150368 -0.0131869
0.01 0.0141421 -0.0141421 0 0.0141421 -0.0141421 0.01 0.0131869 -0.0150368 0
0.0131869 -0.0150368 0.01 0.0121752 -0.0158671 0 0.0121752 -0.0158671 0.01 0.0111114
-0.0166294 0 0.0111114 -0.0166294 0.01 0.01 -0.0173205 0 0.01 -0.0173205
0.01 0.00884577 -0.0179375 0 0.00884577 -0.0179375 0.01 0.00765367 -0.0184776 0
0.00765367 -0.0184776 0.01 0.00642879 -0.0189386 0 0.00642879 -0.0189386 0.01 0.00517638
-0.0193185 0 0.00517638 -0.0193185 0.01 0.00390181 -0.0196157 0 0.00390181 -0.0196157
0.01 0.00261052 -0.0198289 0 0.00261052 -0.0198289 0.01 0.00130806 -0.0199572 0
0.00130806 -0.0199572 0.01 3.58979e-11 -0.02 0 3.58979e-11 -0.02 0.01 3.58979e-11
-0.02 0 -0.00130806 -0.0199572 0 -0.00130806 -0.0199572 0.01 3.58979e-11 -0.02
0.01 -0.00261052 -0.0198289 0 -0.00261052 -0.0198289 0.01 -0.00390181 -0.0196157 0
-0.00390181 -0.0196157 0.01 -0.00517638 -0.0193185 0 -0.00517638 -0.0193185 0.01 -0.00642879
-0.0189386 0 -0.00642879 -0.0189386 0.01 -0.00765367 -0.0184776 0 -0.00765367 -0.0184776
0.01 -0.00884577 -0.0179375 0 -0.00884577 -0.0179375 0.01 -0.01 -0.0173205 0
-0.01 -0.0173205 0.01 -0.0111114 -0.0166294 0 -0.0111114 -0.0166294 0.01 -0.0121752
-0.0158671 0 -0.0121752 -0.0158671 0.01 -0.0131869 -0.0150368 0 -0.0131869 -0.0150368
0.01 -0.0141421 -0.0141421 0 -0.0141421 -0.0141421 0.01 -0.0150368 -0.0131869 0
-0.0150368 -0.0131869 0.01 -0.0158671 -0.0121752 0 -0.0158671 -0.0121752 0.01 -0.0166294
-0.0111114 0 -0.0166294 -0.0111114 0.01 -0.0173205 -0.01 0 -0.0173205 -0.01
0.01 -0.0179375 -0.00884577 0 -0.0179375 -0.00884577 0.01 -0.0184776 -0.00765367 0
-0.0184776 -0.00765367 0.01 -0.0189386 -0.00642879 0 -0.0189386 -0.00642879 0.01 -0.0193185
-0.00517638 0 -0.0193185 -0.00517638 0.01 -0.0196157 -0.00390181 0 -0.0196157 -0.00390181
0.01 -0.0198289 -0.00261052 0 -0.0198289 -0.00261052 0.01 -0.0199572 -0.00130806 0
-0.0199572 -0.00130806 0.01 -0.02 7.17959e-11 0 -0.02 7.17959e-11 0.01 -0.02
7.17959e-11 0 -0.0199572 0.00130806 0 -0.0199572 0.00130806 0.01 -0.02 7.17959e-11
0.01 -0.0198289 0.00261052 0 -0.0198289 0.00261052 0.01 -0.0196157 0.00390181 0
-0.0196157 0.00390181 0.01 -0.0193185 0.00517638 0 -0.0193185 0.00517638 0.01 -0.0189386
0.00642879 0 -0.0189386 0.00642879 0.01 -0.0184776 0.00765367 0 -0.0184776 0.00765367
0.01 -0.0179375 0.00884577 0 -0.0179375 0.00884577 0.01 -0.0173205 0.01 0
-0.0173205 0.01 0.01 -0.0166294 0.0111114 0 -0.0166294 0.0111114 0.01 -0.0158671
0.0121752 0 -0.0158671 0.0121752 0.01 -0.0150368 0.0131869 0 -0.0150368 0.0131869
0.01 -0.0141421 0.0141421 0 -0.0141421 0.0141421 0.01 -0.0131869 0.0150368 0
-0.0131869 0.0150368 0.01 -0.0121752 0.0158671 0 -0.0121752 0.0158671 0.01 -0.0111114
0.0166294 0 -0.0111114 0.0166294 0.01 -0.01 0.0173205 0 -0.01 0.0173205
0.01 -0.00884577 0.0179375 0 -0.00884577 0.0179375 0.01 -0.00765367 0.0184776 0
-0.00765367 0.0184776 0.01 -0.00642879 0.0189386 0 -0.00642879 0.0189386 0.01 -0.00517638
0.0193185 0 -0.00517638 0.0193185 0.01 -0.00390181 0.0196157 0 -0.00390181 0.0196157
0.01 -0.00261052 0.0198289 0 -0.00261052 0.0198289 0.01 -0.00130806 0.0199572 0
-0.00130806 0.0199572 0.01 3.58979e-11 0.02 0 3.58979e-11 0.02 0.01 3.58979e-11
0.02 0 0.00130806 0.0199572 0 0.00130806 0.0199572 0.01 3.58979e-11 0.02
0.01 0.00261052 0.0198289 0 0.00261052 0.0198289 0.01 0.00390181 0.0196157 0
0.00390181 0.0196157 0.01 0.00517638 0.0193185 0 0.00517638 0.0193185 0.01 0.00642879
0.0189386 0 0.00642879 0.0189386 0.01 0.00765367 0.0184776 0 0.00765367 0.0184776
0.01 0.00884577 0.0179375 0 0.00884577 0.0179375 0.01 0.01 0.0173205 0
0.01 0.0173205 0.01 0.0111114 0.0166294 0 0.0111114 0.0166294 0.01 0.0121752
0.0158671 0 0.0121752 0.0158671 0.01 0.0131869 0.0150368 0 0.0131869 0.0150368
0.01 0.0141421 0.0141421 0 0.0141421 0.0141421 0.01 0.0150368 0.0131869 0
0.0150368 0.0131869 0.01 0.0158671 0.0121752 0 0.0158671 0.0121752 0.01 0.0166294
0.0111114 0 0.0166294 0.0111114 0.01 0.0173205 0.01 0 0.0173205 0.01
0.01 0.0179375 0.00884577 0 0.0179375 0.00884577 0.01 0.0184776 0.00765367 0
0.0184776 0.00765367 0.01 0.0189386 0.00642879 0 0.0189386 0.00642879 0.01 0.0193185
0.00517638 0 0.0193185 0.00517638 0.01 0.0196157 0.00390181 0 0.0196157 0.00390181
0.01 0.0198289 0.00261052 0 0.0198289 0.00261052 0.01 0.0199572 0.00130806 0
0.0199572 0.00130806 0.01 0.02 0 0 0.02 0 0.01 0.0233333
0 0.01 0.0233333 0 0 0.0266667 0 0.01 0.0266667 0
0 0.03 0 0.01 0.03 0 0 0.0333333 0 0.01
0.0333333 0 0 0.0366667 0 0.01 0.0366667 0 0 0.04
0 0.01 0.04 0 0 0.0433333 0 0.01 0.0433333 0
0 0.0466667 0 0.01 0.0466667 0 0 0.05 0 0.01
0.05 0 0 0.0533333 0 0.01 0.0533333 0 0 0.0566667
0 0.01 0.0566667 0 0 0.06 0 0.01 0.06 0
0 0.0233333 0 0 0.0233333 0 0.01 0.0266667 0 0
0.0266667 0 0.01 0.03 0 0 0.03 0 0.01 0.0333333
0 0 0.0333333 0 0.01 0.0366667 0 0 0.0366667 0
0.01 0.04 0 0 0.04 0 0.01 0.0433333 0 0
0.0433333 0 0.01 0.0466667 0 0 0.0466667 0 0.01 0.05
0 0 0.05 0 0.01 0.0533333 0 0 0.0533333 0
0.01 0.0566667 0 0 0.0566667 0 0.01 4.18809e-11 -0.0233333 0.01
4.18809e-11 -0.0233333 0 4.78639e-11 -0.0266667 0.01 4.78639e-11 -0.0266667 0 5.38469e-11
-0.03 0.01 5.38469e-11 -0.03 0 5.98299e-11 -0.0333333 0.01 5.98299e-11 -0.0333333
0 6.58129e-11 -0.0366667 0.01 6.58129e-11 -0.0366667 0 7.17959e-11 -0.04 0.01
7.17959e-11 -0.04 0 7.77789e-11 -0.0433333 0.01 7.77789e-11 -0.0433333 0 8.37618e-11
-0.0466667 0.01 8.37618e-11 -0.0466667 0 8.97448e-11 -0.05 0.01 8.97448e-11 -0.05
0 9.57278e-11 -0.0533333 0.01 9.57278e-11 -0.0533333 0 1.01711e-10 -0.0566667 0.01
1.01711e-10 -0.0566667 0 1.07694e-10 -0.06 0.01 1.07694e-10 -0.06 0 4.18809e-11
-0.0233333 0 4.18809e-11 -0.0233333 0.01 4.78639e-11 -0.0266667 0 4.78639e-11 -0.0266667
0.01 5.38469e-11 -0.03 0 5.38469e-11 -0.03 0.01 5.98299e-11 -0.0333333 0
5.98299e-11 -0.0333333 0.01 6.58129e-11 -0.0366667 0 6.58129e-11 -0.0366667 0.01 7.17959e-11
-0.04 0 7.17959e-11 -0.04 0.01 7.77789e-11 -0.0433333 0 7.77789e-11 -0.0433333
0.01 8.37618e-11 -0.0466667 0 8.37618e-11 -0.0466667 0.01 8.97448e-11 -0.05 0
8.97448e-11 -0.05 0.01 9.57278e-11 -0.0533333 0 9.57278e-11 -0.0533333 0.01 1.01711e-10
-0.0566667 0 1.01711e-10 -0.0566667 0.01 -0.0233333 8.37618e-11 0.01 -0.0233333 8.37618e-11
0 -0.0266667 9.57278e-11 0.01 -0.0266667 9.57278e-11 0 -0.03 1.07694e-10 0.01
-0.03 1.07694e-10 0 -0.0333333 1.1966e-10 0.01 -0.0333333 1.1966e-10 0 -0.0366667
1.31626e-10 0.01 -0.0366667 1.31626e-10 0 -0.04 1.43592e-10 0.01 -0.04 1.43592e-10
0 -0.0433333 1.55558e-10 0.01 -0.0433333 1.55558e-10 0 -0.0466667 1.67524e-10 0.01
-0.0466667 1.67524e-10 0 -0.05 1.7949e-10 0.01 -0.05 1.7949e-10 0 -0.0533333
1.91456e-10 0.01 -0.0533333 1.91456e-10 0 -0.0566667 2.03422e-10 0.01 -0.0566667 2.03422e-10
0 -0.06 2.15388e-10 0.01 -0.06 2.15388e-10 0 -0.0233333 8.37618e-11 0
-0.0233333 8.37618e-11 0.01 -0.0266667 9.57278e-11 0 -0.0266667 9.57278e-11 0.01 -0.03
1.07694e-10 0 -0.03 1.07694e-10 0.01 -0.0333333 1.1966e-10 0 -0.0333333 1.1966e-10
0.01 -0.0366667 1.31626e-10 0 -0.0366667 1.31626e-10 0.01 -0.04 1.43592e-10 0
-0.04 1.43592e-10 0.01 -0.0433333 1.55558e-10 0 -0.0433333 1.55558e-10 0.01 -0.0466667
1.67524e-10 0 -0.0466667 1.67524e-10 0.01 -0.05 1.7949e-10 0 -0.05 1.7949e-10
0.01 -0.0533333 1.91456e-10 0 -0.0533333 1.91456e-10 0.01 -0.0566667 2.03422e-10 0
-0.0566667 2.03422e-10 0.01 4.18809e-11 0.0233333 0.01 4.18809e-11 0.0233333 0 4.78639e-11
0.0266667 0.01 4.78639e-11 0.0266667 0 5.38469e-11 0.03 0.01 5.38469e-11 0.03
0 5.98299e-11 0.0333333 0.01 5.98299e-11 0.0333333 0 6.58129e-11 0.0366667 0.01
6.58129e-11 0.0366667 0 7.17959e-11 0.04 0.01 7.17959e-11 0.04 0 7.77789e-11
0.0433333 0.01 7.77789e-11 0.0433333 0 8.37618e-11 0.0466667 0.01 8.37618e-11 0.0466667
0 8.97448e-11 0.05 0.01 8.97448e-11 0.05 0 9.57278e-11 0.0533333 0.01
9.57278e-11 0.0533333 0 1.01711e-10 0.0566667 0.01 1.01711e-10 0.0566667 0 1.07694e-10
0.06 0.01 1.07694e-10 0.06 0 4.18809e-11 0.0233333 0 4.18809e-11 0.0233333
0.01 4.78639e-11 0.0266667 0 4.78639e-11 0.0266667 0.01 5.38469e-11 0.03 0
5.38469e-11 0.03 0.01 5.98299e-11 0.0333333 0 5.98299e-11 0.0333333 0.01 6.58129e-11
0.0366667 0 6.58129e-11 0.0366667 0.01 7.17959e-11 0.04 0 7.17959e-11 0.04
0.01 7.77789e-11 0.0433333 0 7.77789e-11 0.0433333 0.01 8.37618e-11 0.0466667 0
8.37618e-11 0.0466667 0.01 8.97448e-11 0.05 0 8.97448e-11 0.05 0.01 9.57278e-11
0.0533333 0 9.57278e-11 0.0533333 0.01 1.01711e-10 0.0566667 0 1.01711e-10 0.0566667
0.01 
POLYGONS 192 960
4 0 1 2 3 4 1 4 5 2 4
4 6 7 5 4 6 8 9 7 4
8 10 11 9 4 10 12 13 11 4
12 14 15 13 4 14 16 17 15 4
16 18 19 17 4 18 20 21 19 4
20 22 23 21 4 22 24 25 23 4
24 26 27 25 4 26 28 29 27 4
28 30 31 29 4 30 32 33 31 4
32 34 35 33 4 34 36 37 35 4
36 38 39 37 4 38 40 41 39 4
40 42 43 41 4 42 44 45 43 4
44 46 47 45 4 46 48 49 47 4
50 51 52 53 4 51 54 55 52 4
54 56 57 55 4 56 58 59 57 4
58 60 61 59 4 60 62 63 61 4
62 64 65 63 4 64 66 67 65 4
66 68 69 67 4 68 70 71 69 4
70 72 73 71 4 72 74 75 73 4
74 76 77 75 4 76 78 79 77 4
78 80 81 79 4 80 82 83 81 4
82 84 85 83 4 84 86 87 85 4
86 88 89 87 4 88 90 91 89 4
90 92 93 91 4 92 94 95 93 4
94 96 97 95 4 96 98 99 97 4
100 101 102 103 4 101 104 105 102 4
104 106 107 105 4 106 108 109 107 4
108 110 111 109 4 110 112 113 111 4
112 114 115 113 4 114 116 117 115 4
116 118 119 117 4 118 120 121 119 4
120 122 123 121 4 122 124 125 123 4
124 126 127 125 4 126 128 129 127 4
128 130 131 129 4 130 132 133 131 4
132 134 135 133 4 134 136 137 135 4
136 138 139 137 4 138 140 141 139 4
140 142 143 141 4 142 144 145 143 4
144 146 147 145 4 146 148 149 147 4
150 151 152 153 4 151 154 155 152 4
154 156 157 155 4 156 158 159 157 4
158 160 161 159 4 160 162 163 161 4
162 164 165 163 4 164 166 167 165 4
166 168 169 167 4 168 170 171 169 4
170 172 173 171 4 172 174 175 173 4
174 176 177 175 4 176 178 179 177 4
178 180 181 179 4 180 182 183 181 4
182 184 185 183 4 184 186 187 185 4
186 188 189 187 4 188 190 191 189 4
190 192 193 191 4 192 194 195 193 4
194 196 197 195 4 196 198 199 197 4
0 3 200 201 4 201 200 202 203 4
203 202 204 205 4 205 204 206 207 4
207 206 208 209 4 209 208 210 211 4
211 210 212 213 4 213 212 214 215 4
215 214 216 217 4 217 216 218 219 4
219 218 220 221 4 221 220 222 223 4
198 224 225 199 4 224 226 227 225 4
226 228 229 227 4 228 230 231 229 4
230 232 233 231 4 232 234 235 233 4
234 236 237 235 4 236 238 239 237 4
238 240 241 239 4 240 242 243 241 4
242 244 245 243 4 244 223 222 245 4
50 53 246 247 4 247 246 248 249 4
249 248 250 251 4 251 250 252 253 4
253 252 254 255 4 255 254 256 257 4
257 256 258 259 4 259 258 260 261 4
261 260 262 263 4 263 262 264 265 4
265 264 266 267 4 267 266 268 269 4
48 270 271 49 4 270 272 273 271 4
272 274 275 273 4 274 276 277 275 4
276 278 279 277 4 278 280 281 279 4
280 282 283 281 4 282 284 285 283 4
284 286 287 285 4 286 288 289 287 4
288 290 291 289 4 290 269 268 291 4
100 103 292 293 4 293 292 294 295 4
295 294 296 297 4 297 296 298 299 4
299 298 300 301 4 301 300 302 303 4
303 302 304 305 4 305 304 306 307 4
307 306 308 309 4 309 308 310 311 4
311 310 312 313 4 313 312 314 315 4
98 316 317 99 4 316 318 319 317 4
318 320 321 319 4 320 322 323 321 4
322 324 325 323 4 324 326 327 325 4
326 328 329 327 4 328 330 331 329 4
330 332 333 331 4 332 334 335 333 4
334 336 337 335 4 336 315 314 337 4
150 153 338 339 4 339 338 340 341 4
341 340 342 343 4 343 342 344 345 4
345 344 346 347 4 347 346 348 349 4
349 348 350 351 4 351 350 352 353 4
353 352 354 355 4 355 354 356 357 4
357 356 358 359 4 359 358 360 361 4
148 362 363 149 4 362 364 365 363 4
364 366 367 365 4 366 368 369 367 4
368 370 371 369 4 370 372 373 371 4
372 374 375 373 4 374 376 377 375 4
376 378 379 377 4 378 380 381 379 4
380 382 383 381 4 382 361 360 383 
CELL_DATA 192
FIELD attributes 5
patchID 1 192 float
0 0 0 0 0 0 0 0 0 0 0
0 0 0 0 0 0 0 0 0 0
0 0 0 0 0 0 0 0 0 0
0 0 0 0 0 0 0 0 0 0
0 0 0 0 0 0 0 0 0 0
0 0 0 0 0 0 0 0 0 0
0 0 0 0 0 0 0 0 0 0
0 0 0 0 0 0 0 0 0 0
0 0 0 0 0 0 0 0 0 0
0 0 0 0 0 0 0 0 0 0
0 0 0 0 0 0 0 0 0 0
0 0 0 0 0 0 0 0 0 0
0 0 0 0 0 0 0 0 0 0
0 0 0 0 0 0 0 0 0 0
0 0 0 0 0 0 0 0 0 0
0 0 0 0 0 0 0 0 0 0
0 0 0 0 0 0 0 0 0 0
0 0 0 0 0 0 0 0 0 0
0 0 0 0 0 0 0 0 0 0
0 
p 1 192 float
0 -0.0722713 -0.133274 -0.193023 -0.165727 -0.209856 -0.1451 -0.160139 -0.164597 0.114936 -0.021098
-0.0103056 0.0510415 0.110251 0.21344 0.292564 0.373633 0.434752 0.469603 0.485737 0.49017
0.473819 0.476624 1.20362 -5.95052 -5.97794 -6.00121 -6.02095 -6.04134 -6.06757 -6.09545
-5.89372 -6.02336 -5.91539 -5.81826 -5.83091 -5.54936 -5.4421 -5.49079 -5.3868 -5.3777
-5.37063 -5.415 -5.4579 -5.49503 -5.49939 -5.4906 -5.46179 0.197831 0.158551 0.142598
0.137919 0.142895 0.155553 0.172116 0.0979311 -0.0177182 0.0648345 0.309145 0.275985 0.255084
0.355193 0.272603 0.128318 0.773049 0.86223 0.846138 0.935799 0.982494 0.9585 0.938618
0.956343 5.22672 6.13304 3.36309 2.83745 2.91552 2.83604 3.12732 3.24798 3.31351
3.39637 3.22401 3.22192 3.33083 3.39927 3.48436 3.54092 3.51548 3.50026 3.41745
3.42562 4.24196 3.87714 4.98695 10.8418 0 2.08981 3.65843 5.60905 7.7868
10.1757 12.8031 15.6448 18.7151 21.9723 25.3333 28.3779 10.8418 11.5987 9.76144
9.33453 11.9079 13.2156 18.3516 24.5587 29.3111 33.7845 39.0217 44.5143 -5.95052
-3.78965 -2.14154 -0.15283 1.93782 4.13503 6.50816 9.03229 11.6153 14.0754 16.025
16.2073 1.20362 2.23875 3.93655 5.93667 8.16641 10.6438 13.357 16.4014 23.5889
30.9031 36.2859 41.2981 0.197831 2.33597 3.92089 5.86806 8.08532 10.5392 13.2439
16.1731 19.3606 22.815 26.5405 30.509 -5.46179 -3.56028 -1.95302 0.0884086 2.29467
4.40381 9.78521 15.3632 19.794 24.0121 28.5796 29.5633 5.22672 4.87472 6.70876
8.26433 9.89999 12.6981 15.3995 18.0403 20.8857 23.8604 26.7778 28.3345 0.956343
2.87944 5.1031 9.23666 9.12062 11.7527 14.7898 18.3345 22.4327 27.0698 32.2915
38.1539 
alpha.water 1 192 float
2.63037e-06 2.70572e-05 1.60675e-05 0.000379292 0.00250667 0.00245389 4.14767e-05 1.283e-06 0.00356972 0.0102477 0.00686742
4.41275e-10 3.11561e-05 0.000773451 0.000997222 0.000631954 3.05025e-10 1.02959e-06 2.56113e-09 2.5583e-09 2.55524e-09
2.54755e-09 0.0104054 0.038721 6.92224e-08 1.05823e-07 4.62264e-08 0.000147669 7.12159e-06 5.82495e-09 0.00455037
0.0134249 0.00555678 0.000344506 0.000319936 0.00398256 0.0114475 0.0114475 0.00457803 0.00113284 0.00165521
1.18165e-08 1.18287e-08 8.05239e-05 4.01556e-05 7.74846e-09 7.969e-07 6.77677e-06 2.35654e-11 9.04384e-14 9.04485e-14
9.20072e-14 1.31374e-13 1.31622e-13 2.17455e-11 0.00104759 0.0176164 0.0222933 1.75473e-10 5.61576e-05 0.0286578
0.0525152 0.0525152 0.0414888 3.50595e-05 3.50595e-05 4.87107e-05 0.000319747 7.94863e-09 7.94229e-09 7.93833e-09
7.93673e-09 0.212271 0.241794 0.136834 8.9818e-06 8.98182e-06 0.00293827 0.0303341 0.0313068 0.0313068
0.0313068 0.019694 3.06303e-05 5.38547e-05 0.000667328 0.00225549 0.002562 0.00218408 0.000331991 1.04631e-10
0.0317208 0.055428 0.0422211 0.00288926 0.312649 2.63037e-06 6.30924e-06 1.16785e-05 6.32415e-07 7.54582e-09
7.54813e-09 0.000114532 0.000311871 8.69893e-05 0.00028253 0.000165754 1.38616e-10 0.312649 0.306394 0.146216
0.020101 0.000579194 0.0831321 0.55269 0.874642 0.977472 0.999989 0.999989 0.985054 6.92224e-08
1.28027e-08 1.27798e-08 3.97532e-08 1.27839e-08 0.000131928 0.000347587 0.000459221 0.000237383 2.30724e-06 3.28746e-07
6.43084e-11 0.038721 1.41476e-07 1.39615e-05 3.79407e-05 1.41899e-09 1.43454e-09 0.00960677 0.207582 0.865673
1 1 0.980794 2.35654e-11 3.68665e-08 2.52089e-08 2.67706e-07 2.60862e-07 9.31676e-08 8.62266e-07
8.89494e-07 8.95414e-07 2.87815e-05 2.6478e-10 2.46333e-10 6.77677e-06 2.02427e-05 6.26133e-05 0.000951271 0.000952585
0.095251 0.741398 0.867414 0.867414 0.843851 0.739495 0.472412 0.212271 0.00303344 0.0171834
0.0457403 0.0712934 0.0383582 0.00105573 1.24603e-10 0.000183435 2.21951e-05 3.31268e-10 0.138256 7.93673e-09
0.000147026 0.0850873 0.16629 0.0430385 3.4471e-10 0.000292001 3.62381e-10 3.62384e-10 3.62442e-10 3.64269e-10
0.0872283 
p_rgh 1 192 float
0 -0.0722713 -0.133274 -0.193023 -0.165727 -0.209856 -0.1451 -0.160139 -0.164597 0.114936 -0.021098
-0.0103056 0.0510415 0.110251 0.21344 0.292564 0.373633 0.434752 0.469603 0.485737 0.49017
0.473819 0.476624 1.20362 -5.95052 -5.97794 -6.00121 -6.02095 -6.04134 -6.06757 -6.09545
-5.89372 -6.02336 -5.91539 -5.81826 -5.83091 -5.54936 -5.4421 -5.49079 -5.3868 -5.3777
-5.37063 -5.415 -5.4579 -5.49503 -5.49939 -5.4906 -5.46179 0.197831 0.158551 0.142598
0.137919 0.142895 0.155553 0.172116 0.0979311 -0.0177182 0.0648345 0.309145 0.275985 0.255084
0.355193 0.272603 0.128318 0.773049 0.86223 0.846138 0.935799 0.982494 0.9585 0.938618
0.956343 5.22672 6.13304 3.36309 2.83745 2.91552 2.83604 3.12732 3.24798 3.31351
3.39637 3.22401 3.22192 3.33083 3.39927 3.48436 3.54092 3.51548 3.50026 3.41745
3.42562 4.24196 3.87714 4.98695 10.8418 0 2.08981 3.65843 5.60905 7.7868
10.1757 12.8031 15.6448 18.7151 21.9723 25.3333 28.3779 10.8418 11.5987 9.76144
9.33453 11.9079 13.2156 18.3516 24.5587 29.3111 33.7845 39.0217 44.5143 -5.95052
-3.78965 -2.14154 -0.15283 1.93782 4.13503 6.50816 9.03229 11.6153 14.0754 16.025
16.2073 1.20362 2.23875 3.93655 5.93667 8.16641 10.6438 13.357 16.4014 23.5889
30.9031 36.2859 41.2981 0.197831 2.33597 3.92089 5.86806 8.08532 10.5392 13.2439
16.1731 19.3606 22.815 26.5405 30.509 -5.46179 -3.56028 -1.95302 0.0884086 2.29467
4.40381 9.78521 15.3632 19.794 24.0121 28.5796 29.5633 5.22672 4.87472 6.70876
8.26433 9.89999 12.6981 15.3995 18.0403 20.8857 23.8604 26.7778 28.3345 0.956343
2.87944 5.1031 9.23666 9.12062 11.7527 14.7898 18.3345 22.4327 27.0698 32.2915
38.1539 
U 3 192 float
0.0041094 0.125529 0 0.0123106 0.124992 0 0.0204591 0.123919 0 0.02852 0.122315
0 0.0364587 0.120188 0 0.0442413 0.117546 0 0.0518345 0.114401 0
0.0592057 0.110766 0 0.0663234 0.106657 0 0.0731571 0.102091 0 0.0796775
0.0970873 0 0.0858567 0.0916683 0 0.0916683 0.0858567 0 0.0970873 0.0796775
0 0.102091 0.0731571 0 0.106657 0.0663234 0 0.110766 0.0592057 0
0.114401 0.0518345 0 0.117546 0.0442413 0 0.120188 0.0364587 0 0.122315
0.02852 0 0.123919 0.0204591 0 0.124992 0.0123106 0 0.125529 0.0041094
0 0.125529 -0.0041094 0 0.124992 -0.0123106 0 0.123919 -0.0204591 0
0.122315 -0.02852 0 0.120188 -0.0364587 0 0.117546 -0.0442413 0 0.114401
-0.0518345 0 0.110766 -0.0592057 0 0.106657 -0.0663234 0 0.102091 -0.0731571
0 0.0970873 -0.0796775 0 0.0916683 -0.0858567 0 0.0858567 -0.0916683 0
0.0796775 -0.0970873 0 0.0731571 -0.102091 0 0.0663234 -0.106657 0 0.0592057
-0.110766 0 0.0518345 -0.114401 0 0.0442413 -0.117546 0 0.0364587 -0.120188
0 0.02852 -0.122315 0 0.0204591 -0.123919 0 0.0123106 -0.124992 0
0.0041094 -0.125529 0 -0.0041094 -0.125529 0 -0.0123106 -0.124992 0 -0.0204591
-0.123919 0 -0.02852 -0.122315 0 -0.0364587 -0.120188 0 -0.0442413 -0.117546
0 -0.0518345 -0.114401 0 -0.0592057 -0.110766 0 -0.0663234 -0.106657 0
-0.0731571 -0.102091 0 -0.0796775 -0.0970873 0 -0.0858567 -0.0916683 0 -0.0916683
-0.0858567 0 -0.0970873 -0.0796775 0 -0.102091 -0.0731571 0 -0.106657 -0.0663234
0 -0.110766 -0.0592057 0 -0.114401 -0.0518345 0 -0.117546 -0.0442413 0
-0.120188 -0.0364587 0 -0.122315 -0.02852 0 -0.123919 -0.0204591 0 -0.124992
-0.0123106 0 -0.125529 -0.0041094 0 -0.125529 0.0041094 0 -0.124992 0.0123106
0 -0.123919 0.0204591 0 -0.122315 0.02852 0 -0.120188 0.0364587 0
-0.117546 0.0442413 0 -0.114401 0.0518345 0 -0.110766 0.0592057 0 -0.106657
0.0663234 0 -0.102091 0.0731571 0 -0.0970873 0.0796775 0 -0.0916683 0.0858567
0 -0.0858567 0.0916683 0 -0.0796775 0.0970873 0 -0.0731571 0.102091 0
-0.0663234 0.106657 0 -0.0592057 0.110766 0 -0.0518345 0.114401 0 -0.0442413
0.117546 0 -0.0364587 0.120188 0 -0.02852 0.122315 0 -0.0204591 0.123919
0 -0.0123106 0.124992 0 -0.0041094 0.125529 0 0 0.136136 0
0 0.15708 0 0 0.178024 0 0 0.198968 0 0
0.219911 0 0 0.240855 0 0 0.261799 0 0 0.282743
0 0 0.303687 0 0 0.324631 0 0 0.345575 0
0 0.366519 0 0 0.136136 0 0 0.15708 0 0
0.178024 0 0 0.198968 0 0 0.219911 0 0 0.240855
0 0 0.261799 0 0 0.282743 0 0 0.303687 0
0 0.324631 0 0 0.345575 0 0 0.366519 0 0.136136
2.44349e-10 0 0.15708 2.81942e-10 0 0.178024 3.19534e-10 0 0.198968 3.57126e-10
0 0.219911 3.94718e-10 0 0.240855 4.32311e-10 0 0.261799 4.69903e-10 0
0.282743 5.07495e-10 0 0.303687 5.45087e-10 0 0.324631 5.8268e-10 0 0.345575
6.20272e-10 0 0.366519 6.57864e-10 0 0.136136 2.44349e-10 0 0.15708 2.81942e-10
0 0.178024 3.19534e-10 0 0.198968 3.57126e-10 0 0.219911 3.94718e-10 0
0.240855 4.32311e-10 0 0.261799 4.69903e-10 0 0.282743 5.07495e-10 0 0.303687
5.45087e-10 0 0.324631 5.8268e-10 0 0.345575 6.20272e-10 0 0.366519 6.57864e-10
0 -4.88699e-10 -0.136136 0 -5.63883e-10 -0.15708 0 -6.39068e-10 -0.178024 0
-7.14252e-10 -0.198968 0 -7.89437e-10 -0.219911 0 -8.64621e-10 -0.240855 0 -9.39806e-10
-0.261799 0 -1.01499e-09 -0.282743 0 -1.09017e-09 -0.303687 0 -1.16536e-09 -0.324631
0 -1.24054e-09 -0.345575 0 -1.31573e-09 -0.366519 0 -4.88699e-10 -0.136136 0
-5.63883e-10 -0.15708 0 -6.39068e-10 -0.178024 0 -7.14252e-10 -0.198968 0 -7.89437e-10
-0.219911 0 -8.64621e-10 -0.240855 0 -9.39806e-10 -0.261799 0 -1.01499e-09 -0.282743
0 -1.09017e-09 -0.303687 0 -1.16536e-09 -0.324631 0 -1.24054e-09 -0.345575 0
-1.31573e-09 -0.366519 0 -0.136136 2.44349e-10 0 -0.15708 2.81942e-10 0 -0.178024
3.19534e-10 0 -0.198968 3.57126e-10 0 -0.219911 3.94718e-10 0 -0.240855 4.32311e-10
0 -0.261799 4.69903e-10 0 -0.282743 5.07495e-10 0 -0.303687 5.45087e-10 0
-0.324631 5.8268e-10 0 -0.345575 6.20272e-10 0 -0.366519 6.57864e-10 0 -0.136136
2.44349e-10 0 -0.15708 2.81942e-10 0 -0.178024 3.19534e-10 0 -0.198968 3.57126e-10
0 -0.219911 3.94718e-10 0 -0.240855 4.32311e-10 0 -0.261799 4.69903e-10 0
-0.282743 5.07495e-10 0 -0.303687 5.45087e-10 0 -0.324631 5.8268e-10 0 -0.345575
6.20272e-10 0 -0.366519 6.57864e-10 0 
POINT_DATA  384
FIELD attributes 4
p 1 384 float
0 -0.0361357 -0.0361357 0 -0.102773 -0.102773 -0.163148 -0.163148 -0.179375 -0.179375 -0.187791
-0.187791 -0.177478 -0.177478 -0.152619 -0.152619 -0.162368 -0.162368 -0.0248305 -0.0248305 0.046919
0.046919 -0.0157018 -0.0157018 0.020368 0.020368 0.0806462 0.0806462 0.161846 0.161846 0.253002
0.253002 0.333099 0.333099 0.404193 0.404193 0.452177 0.452177 0.47767 0.47767 0.487954
0.487954 0.481995 0.481995 0.475222 0.475222 0.840122 0.840122 1.20362 1.20362 -5.95052
-5.96423 -5.96423 -5.95052 -5.98957 -5.98957 -6.01108 -6.01108 -6.03115 -6.03115 -6.05445
-6.05445 -6.08151 -6.08151 -5.99459 -5.99459 -5.95854 -5.95854 -5.96938 -5.96938 -5.86683
-5.86683 -5.82458 -5.82458 -5.69014 -5.69014 -5.49573 -5.49573 -5.46644 -5.46644 -5.4388
-5.4388 -5.38225 -5.38225 -5.37417 -5.37417 -5.39282 -5.39282 -5.43645 -5.43645 -5.47647
-5.47647 -5.49721 -5.49721 -5.495 -5.495 -5.47619 -5.47619 -5.46179 -5.46179 0.197831
0.178191 0.178191 0.197831 0.150575 0.150575 0.140259 0.140259 0.140407 0.140407 0.149224
0.149224 0.163834 0.163834 0.135024 0.135024 0.0401064 0.0401064 0.0235581 0.0235581 0.18699
0.18699 0.292565 0.292565 0.265534 0.265534 0.305138 0.305138 0.313898 0.313898 0.20046
0.20046 0.450684 0.450684 0.81764 0.81764 0.854184 0.854184 0.890969 0.890969 0.959146
0.959146 0.970497 0.970497 0.948559 0.948559 0.94748 0.94748 0.956343 0.956343 5.22672
5.67988 5.67988 5.22672 4.74806 4.74806 3.10027 3.10027 2.87649 2.87649 2.87578
2.87578 2.98168 2.98168 3.18765 3.18765 3.28075 3.28075 3.35494 3.35494 3.31019
3.31019 3.22297 3.22297 3.27638 3.27638 3.36505 3.36505 3.44181 3.44181 3.51264
3.51264 3.5282 3.5282 3.50787 3.50787 3.45885 3.45885 3.42154 3.42154 3.83379
3.83379 4.05955 4.05955 4.43204 4.43204 7.91437 7.91437 10.8418 10.8418 1.0449
1.0449 2.87412 2.87412 4.63374 4.63374 6.69793 6.69793 8.98125 8.98125 11.4894
11.4894 14.224 14.224 17.18 17.18 20.3437 20.3437 23.6528 23.6528 26.8556
26.8556 36.4461 36.4461 11.2203 11.2203 10.6801 10.6801 9.54799 9.54799 10.6212
10.6212 12.5618 12.5618 15.7836 15.7836 21.4552 21.4552 26.9349 26.9349 31.5478
31.5478 36.4031 36.4031 41.768 41.768 -4.87008 -4.87008 -2.9656 -2.9656 -1.14718
-1.14718 0.892495 0.892495 3.03643 3.03643 5.3216 5.3216 7.77023 7.77023 10.3238
10.3238 12.8454 12.8454 15.0502 15.0502 16.1161 16.1161 28.7527 28.7527 1.72118
1.72118 3.08765 3.08765 4.93661 4.93661 7.05154 7.05154 9.4051 9.4051 12.0004
12.0004 14.8792 14.8792 19.9951 19.9951 27.246 27.246 33.5945 33.5945 38.792
38.792 1.2669 1.2669 3.12843 3.12843 4.89447 4.89447 6.97669 6.97669 9.31226
9.31226 11.8916 11.8916 14.7085 14.7085 17.7668 17.7668 21.0878 21.0878 24.6777
24.6777 28.5247 28.5247 30.0361 30.0361 -4.51103 -4.51103 -2.75665 -2.75665 -0.932306
-0.932306 1.19154 1.19154 3.34924 3.34924 7.09451 7.09451 12.5742 12.5742 17.5786
17.5786 21.903 21.903 26.2959 26.2959 29.0714 29.0714 5.05072 5.05072 5.79174
5.79174 7.48655 7.48655 9.08216 9.08216 11.299 11.299 14.0488 14.0488 16.7199
16.7199 19.463 19.463 22.3731 22.3731 25.3191 25.3191 27.5562 27.5562 33.2442
33.2442 1.91789 1.91789 3.99127 3.99127 7.16988 7.16988 9.17864 9.17864 10.4367
10.4367 13.2712 13.2712 16.5621 16.5621 20.3836 20.3836 24.7512 24.7512 29.6807
29.6807 35.2227 35.2227 
alpha.water 1 384 float
2.63037e-06 1.48438e-05 1.48438e-05 2.63037e-06 2.15623e-05 2.15623e-05 0.00019768 0.00019768 0.00144298 0.00144298 0.00248028
0.00248028 0.00124768 0.00124768 2.13799e-05 2.13799e-05 0.0017855 0.0017855 0.00690871 0.00690871 0.00855756
0.00855756 0.00343371 0.00343371 1.55783e-05 1.55783e-05 0.000402304 0.000402304 0.000885336 0.000885336 0.000814588
0.000814588 0.000315977 0.000315977 5.14947e-07 5.14947e-07 5.16076e-07 5.16076e-07 2.55972e-09 2.55972e-09 2.55677e-09
2.55677e-09 2.5514e-09 2.5514e-09 0.0052027 0.0052027 0.0245632 0.0245632 0.038721 0.038721 6.92224e-08
8.75227e-08 8.75227e-08 6.92224e-08 7.60247e-08 7.60247e-08 7.38576e-05 7.38576e-05 7.73953e-05 7.73953e-05 3.56371e-06
3.56371e-06 0.00227519 0.00227519 0.00898764 0.00898764 0.00949084 0.00949084 0.00295064 0.00295064 0.000332221
0.000332221 0.00215125 0.00215125 0.00771503 0.00771503 0.0114475 0.0114475 0.00801277 0.00801277 0.00285544
0.00285544 0.00139403 0.00139403 0.000827611 0.000827611 1.18226e-08 1.18226e-08 4.02679e-05 4.02679e-05 6.03397e-05
6.03397e-05 2.00817e-05 2.00817e-05 4.02324e-07 4.02324e-07 3.78683e-06 3.78683e-06 6.77677e-06 6.77677e-06 2.35654e-11
1.18279e-11 1.18279e-11 2.35654e-11 9.04434e-14 9.04434e-14 9.12278e-14 9.12278e-14 1.11691e-13 1.11691e-13 1.31498e-13
1.31498e-13 1.09386e-11 1.09386e-11 0.000523795 0.000523795 0.00933199 0.00933199 0.0199549 0.0199549 0.0111466
0.0111466 2.80789e-05 2.80789e-05 0.014357 0.014357 0.0405865 0.0405865 0.0525152 0.0525152 0.047002
0.047002 0.0207619 0.0207619 3.50595e-05 3.50595e-05 4.18851e-05 4.18851e-05 0.000184229 0.000184229 0.000159877
0.000159877 7.94546e-09 7.94546e-09 7.94031e-09 7.94031e-09 7.93753e-09 7.93753e-09 7.93673e-09 7.93673e-09 0.212271
0.227032 0.227032 0.212271 0.189314 0.189314 0.0684215 0.0684215 8.98181e-06 8.98181e-06 0.00147363
0.00147363 0.0166362 0.0166362 0.0308204 0.0308204 0.0313068 0.0313068 0.0313068 0.0313068 0.0255004
0.0255004 0.00986231 0.00986231 4.22425e-05 4.22425e-05 0.000360591 0.000360591 0.00146141 0.00146141 0.00240875
0.00240875 0.00237304 0.00237304 0.00125804 0.00125804 0.000165996 0.000165996 0.0158604 0.0158604 0.0435744
0.0435744 0.0488245 0.0488245 0.0225552 0.0225552 0.157769 0.157769 0.312649 0.312649 4.4698e-06
4.4698e-06 8.99387e-06 8.99387e-06 6.15546e-06 6.15546e-06 3.1998e-07 3.1998e-07 7.54697e-09 7.54697e-09 5.72698e-05
5.72698e-05 0.000213202 0.000213202 0.00019943 0.00019943 0.00018476 0.00018476 0.000224142 0.000224142 8.28771e-05
8.28771e-05 0.492527 0.492527 0.309521 0.309521 0.226305 0.226305 0.0831585 0.0831585 0.0103401
0.0103401 0.0418556 0.0418556 0.317911 0.317911 0.713666 0.713666 0.926057 0.926057 0.98873
0.98873 0.999989 0.999989 0.992522 0.992522 4.10126e-08 4.10126e-08 1.27912e-08 1.27912e-08 2.62665e-08
2.62665e-08 2.62686e-08 2.62686e-08 6.59704e-05 6.59704e-05 0.000239758 0.000239758 0.000403404 0.000403404 0.000348302
0.000348302 0.000119845 0.000119845 1.31799e-06 1.31799e-06 1.64405e-07 1.64405e-07 0.490397 0.490397 0.0193606
0.0193606 7.05149e-06 7.05149e-06 2.59511e-05 2.59511e-05 1.89711e-05 1.89711e-05 1.42677e-09 1.42677e-09 0.00480339
0.00480339 0.108594 0.108594 0.536627 0.536627 0.932836 0.932836 1 1 0.990397
0.990397 1.8445e-08 1.8445e-08 3.10377e-08 3.10377e-08 1.46457e-07 1.46457e-07 2.64284e-07 2.64284e-07 1.77015e-07
1.77015e-07 4.77717e-07 4.77717e-07 8.7588e-07 8.7588e-07 8.92454e-07 8.92454e-07 1.48385e-05 1.48385e-05 1.43909e-05
1.43909e-05 2.55556e-10 2.55556e-10 0.236206 0.236206 1.35097e-05 1.35097e-05 4.1428e-05 4.1428e-05 0.000506942
0.000506942 0.000951928 0.000951928 0.0481018 0.0481018 0.418325 0.418325 0.804406 0.804406 0.867414
0.867414 0.855632 0.855632 0.791673 0.791673 0.605954 0.605954 0.107652 0.107652 0.0101084
0.0101084 0.0314618 0.0314618 0.0585168 0.0585168 0.0548258 0.0548258 0.019707 0.019707 0.000527865
0.000527865 9.17176e-05 9.17176e-05 0.000102815 0.000102815 1.10977e-05 1.10977e-05 0.069128 0.069128 0.112742
0.112742 7.3517e-05 7.3517e-05 0.0426172 0.0426172 0.125689 0.125689 0.104664 0.104664 0.0215192
0.0215192 0.000146001 0.000146001 0.000146001 0.000146001 3.62383e-10 3.62383e-10 3.62413e-10 3.62413e-10 3.63356e-10
3.63356e-10 0.0436141 0.0436141 
p_rgh 1 384 float
0 -0.0361357 -0.0361357 0 -0.102773 -0.102773 -0.163148 -0.163148 -0.179375 -0.179375 -0.187791
-0.187791 -0.177478 -0.177478 -0.152619 -0.152619 -0.162368 -0.162368 -0.0248305 -0.0248305 0.046919
0.046919 -0.0157018 -0.0157018 0.020368 0.020368 0.0806462 0.0806462 0.161846 0.161846 0.253002