# vtk DataFile Version 2.0
rotor
ASCII
DATASET POLYDATA
POINTS 384 float
0.02 0 0 0.0199572 -0.00130806 0 0.0199572 -0.00130806 0.01 0.02 0
0.01 0.0198289 -0.00261052 0 0.0198289 -0.00261052 0.01 0.0196157 -0.00390181 0
0.0196157 -0.00390181 0.01 0.0193185 -0.00517638 0 0.0193185 -0.00517638 0.01 0.0189386
-0.00642879 0 0.0189386 -0.00642879 0.01 0.0184776 -0.00765367 0 0.0184776 -0.00765367
0.01 0.0179375 -0.00884577 0 0.0179375 -0.00884577 0.01 0.0173205 -0.01 0
0.0173205 -0.01 0.01 0.0166294 -0.0111114 0 0.0166294 -0.0111114 0.01 0.0158671
-0.0121752 0 0.0158671 -0.0121752 0.01 0.0150368 -0.0131869 0 0.0150368 -0.0131869
0.01 0.0141421 -0.0141421 0 0.0141421 -0.0141421 0.01 0.0131869 -0.0150368 0
0.0131869 -0.0150368 0.01 0.0121752 -0.0158671 0 0.0121752 -0.0158671 0.01 0.0111114
-0.0166294 0 0.0111114 -0.0166294 0.01 0.01 -0.0173205 0 0.01 -0.0173205
0.01 0.00884577 -0.0179375 0 0.00884577 -0.0179375 0.01 0.00765367 -0.0184776 0
0.00765367 -0.0184776 0.01 0.00642879 -0.0189386 0 0.00642879 -0.0189386 0.01 0.00517638
-0.0193185 0 0.00517638 -0.0193185 0.01 0.00390181 -0.0196157 0 0.00390181 -0.0196157
0.01 0.00261052 -0.0198289 0 0.00261052 -0.0198289 0.01 0.00130806 -0.0199572 0
0.00130806 -0.0199572 0.01 3.58979e-11 -0.02 0 3.58979e-11 -0.02 0.01 3.58979e-11
-0.02 0 -0.00130806 -0.0199572 0 -0.00130806 -0.0199572 0.01 3.58979e-11 -0.02
0.01 -0.00261052 -0.0198289 0 -0.00261052 -0.0198289 0.01 -0.00390181 -0.0196157 0
-0.00390181 -0.0196157 0.01 -0.00517638 -0.0193185 0 -0.00517638 -0.0193185 0.01 -0.00642879
-0.0189386 0 -0.00642879 -0.0189386 0.01 -0.00765367 -0.0184776 0 -0.00765367 -0.0184776
0.01 -0.00884577 -0.0179375 0 -0.00884577 -0.0179375 0.01 -0.01 -0.0173205 0
-0.01 -0.0173205 0.01 -0.0111114 -0.0166294 0 -0.0111114 -0.0166294 0.01 -0.0121752
-0.0158671 0 -0.0121752 -0.0158671 0.01 -0.0131869 -0.0150368 0 -0.0131869 -0.0150368
0.01 -0.0141421 -0.0141421 0 -0.0141421 -0.0141421 0.01 -0.0150368 -0.0131869 0
-0.0150368 -0.0131869 0.01 -0.0158671 -0.0121752 0 -0.0158671 -0.0121752 0.01 -0.0166294
-0.0111114 0 -0.0166294 -0.0111114 0.01 -0.0173205 -0.01 0 -0.0173205 -0.01
0.01 -0.0179375 -0.00884577 0 -0.0179375 -0.00884577 0.01 -0.0184776 -0.00765367 0
-0.0184776 -0.00765367 0.01 -0.0189386 -0.00642879 0 -0.0189386 -0.00642879 0.01 -0.0193185
-0.00517638 0 -0.0193185 -0.00517638 0.01 -0.0196157 -0.00390181 0 -0.0196157 -0.00390181
0.01 -0.0198289 -0.00261052 0 -0.0198289 -0.00261052 0.01 -0.0199572 -0.00130806 0
-0.0199572 -0.00130806 0.01 -0.02 7.17959e-11 0 -0.02 7.17959e-11 0.01 -0.02
7.17959e-11 0 -0.0199572 0.00130806 0 -0.0199572 0.00130806 0.01 -0.02 7.17959e-11
0.01 -0.0198289 0.00261052 0 -0.0198289 0.00261052 0.01 -0.0196157 0.00390181 0
-0.0196157 0.00390181 0.01 -0.0193185 0.00517638 0 -0.0193185 0.00517638 0.01 -0.0189386
0.00642879 0 -0.0189386 0.00642879 0.01 -0.0184776 0.00765367 0 -0.0184776 0.00765367
0.01 -0.0179375 0.00884577 0 -0.0179375 0.00884577 0.01 -0.0173205 0.01 0
-0.0173205 0.01 0.01 -0.0166294 0.0111114 0 -0.0166294 0.0111114 0.01 -0.0158671
0.0121752 0 -0.0158671 0.0121752 0.01 -0.0150368 0.0131869 0 -0.0150368 0.0131869
0.01 -0.0141421 0.0141421 0 -0.0141421 0.0141421 0.01 -0.0131869 0.0150368 0
-0.0131869 0.0150368 0.01 -0.0121752 0.0158671 0 -0.0121752 0.0158671 0.01 -0.0111114
0.0166294 0 -0.0111114 0.0166294 0.01 -0.01 0.0173205 0 -0.01 0.0173205
0.01 -0.00884577 0.0179375 0 -0.00884577 0.0179375 0.01 -0.00765367 0.0184776 0
-0.00765367 0.0184776 0.01 -0.00642879 0.0189386 0 -0.00642879 0.0189386 0.01 -0.00517638
0.0193185 0 -0.00517638 0.0193185 0.01 -0.00390181 0.0196157 0 -0.00390181 0.0196157
0.01 -0.00261052 0.0198289 0 -0.00261052 0.0198289 0.01 -0.00130806 0.0199572 0
-0.00130806 0.0199572 0.01 3.58979e-11 0.02 0 3.58979e-11 0.02 0.01 3.58979e-11
0.02 0 0.00130806 0.0199572 0 0.00130806 0.0199572 0.01 3.58979e-11 0.02
0.01 0.00261052 0.0198289 0 0.00261052 0.0198289 0.01 0.00390181 0.0196157 0
0.00390181 0.0196157 0.01 0.00517638 0.0193185 0 0.00517638 0.0193185 0.01 0.00642879
0.0189386 0 0.00642879 0.0189386 0.01 0.00765367 0.0184776 0 0.00765367 0.0184776
0.01 0.00884577 0.0179375 0 0.00884577 0.0179375 0.01 0.01 0.0173205 0
0.01 0.0173205 0.01 0.0111114 0.0166294 0 0.0111114 0.0166294 0.01 0.0121752
0.0158671 0 0.0121752 0.0158671 0.01 0.0131869 0.0150368 0 0.0131869 0.0150368
0.01 0.0141421 0.0141421 0 0.0141421 0.0141421 0.01 0.0150368 0.0131869 0
0.0150368 0.0131869 0.01 0.0158671 0.0121752 0 0.0158671 0.0121752 0.01 0.0166294
0.0111114 0 0.0166294 0.0111114 0.01 0.0173205 0.01 0 0.0173205 0.01
0.01 0.0179375 0.00884577 0 0.0179375 0.00884577 0.01 0.0184776 0.00765367 0
0.0184776 0.00765367 0.01 0.0189386 0.00642879 0 0.0189386 0.00642879 0.01 0.0193185
0.00517638 0 0.0193185 0.00517638 0.01 0.0196157 0.00390181 0 0.0196157 0.00390181
0.01 0.0198289 0.00261052 0 0.0198289 0.00261052 0.01 0.0199572 0.00130806 0
0.0199572 0.00130806 0.01 0.02 0 0 0.02 0 0.01 0.0233333
0 0.01 0.0233333 0 0 0.0266667 0 0.01 0.0266667 0
0 0.03 0 0.01 0.03 0 0 0.0333333 0 0.01
0.0333333 0 0 0.0366667 0 0.01 0.0366667 0 0 0.04
0 0.01 0.04 0 0 0.0433333 0 0.01 0.0433333 0
0 0.0466667 0 0.01 0.0466667 0 0 0.05 0 0.01
0.05 0 0 0.0533333 0 0.01 0.0533333 0 0 0.0566667
0 0.01 0.0566667 0 0 0.06 0 0.01 0.06 0
0 0.0233333 0 0 0.0233333 0 0.01 0.0266667 0 0
0.0266667 0 0.01 0.03 0 0 0.03 0 0.01 0.0333333
0 0 0.0333333 0 0.01 0.0366667 0 0 0.0366667 0
0.01 0.04 0 0 0.04 0 0.01 0.0433333 0 0
0.0433333 0 0.01 0.0466667 0 0 0.0466667 0 0.01 0.05
0 0 0.05 0 0.01 0.0533333 0 0 0.0533333 0
0.01 0.0566667 0 0 0.0566667 0 0.01 4.18809e-11 -0.0233333 0.01
4.18809e-11 -0.0233333 0 4.78639e-11 -0.0266667 0.01 4.78639e-11 -0.0266667 0 5.38469e-11
-0.03 0.01 5.38469e-11 -0.03 0 5.98299e-11 -0.0333333 0.01 5.98299e-11 -0.0333333
0 6.58129e-11 -0.0366667 0.01 6.58129e-11 -0.0366667 0 7.17959e-11 -0.04 0.01
7.17959e-11 -0.04 0 7.77789e-11 -0.0433333 0.01 7.77789e-11 -0.0433333 0 8.37618e-11
-0.0466667 0.01 8.37618e-11 -0.0466667 0 8.97448e-11 -0.05 0.01 8.97448e-11 -0.05
0 9.57278e-11 -0.0533333 0.01 9.57278e-11 -0.0533333 0 1.01711e-10 -0.0566667 0.01
1.01711e-10 -0.0566667 0 1.07694e-10 -0.06 0.01 1.07694e-10 -0.06 0 4.18809e-11
-0.0233333 0 4.18809e-11 -0.0233333 0.01 4.78639e-11 -0.0266667 0 4.78639e-11 -0.0266667
0.01 5.38469e-11 -0.03 0 5.38469e-11 -0.03 0.01 5.98299e-11 -0.0333333 0
5.98299e-11 -0.0333333 0.01 6.58129e-11 -0.0366667 0 6.58129e-11 -0.0366667 0.01 7.17959e-11
-0.04 0 7.17959e-11 -0.04 0.01 7.77789e-11 -0.0433333 0 7.77789e-11 -0.0433333
0.01 8.37618e-11 -0.0466667 0 8.37618e-11 -0.0466667 0.01 8.97448e-11 -0.05 0
8.97448e-11 -0.05 0.01 9.57278e-11 -0.0533333 0 9.57278e-11 -0.0533333 0.01 1.01711e-10
-0.0566667 0 1.01711e-10 -0.0566667 0.01 -0.0233333 8.37618e-11 0.01 -0.0233333 8.37618e-11
0 -0.0266667 9.57278e-11 0.01 -0.0266667 9.57278e-11 0 -0.03 1.07694e-10 0.01
-0.03 1.07694e-10 0 -0.0333333 1.1966e-10 0.01 -0.0333333 1.1966e-10 0 -0.0366667
1.31626e-10 0.01 -0.0366667 1.31626e-10 0 -0.04 1.43592e-10 0.01 -0.04 1.43592e-10
0 -0.0433333 1.55558e-10 0.01 -0.0433333 1.55558e-10 0 -0.0466667 1.67524e-10 0.01
-0.0466667 1.67524e-10 0 -0.05 1.7949e-10 0.01 -0.05 1.7949e-10 0 -0.0533333
1.91456e-10 0.01 -0.0533333 1.91456e-10 0 -0.0566667 2.03422e-10 0.01 -0.0566667 2.03422e-10
0 -0.06 2.15388e-10 0.01 -0.06 2.15388e-10 0 -0.0233333 8.37618e-11 0
-0.0233333 8.37618e-11 0.01 -0.0266667 9.57278e-11 0 -0.0266667 9.57278e-11 0.01 -0.03
1.07694e-10 0 -0.03 1.07694e-10 0.01 -0.0333333 1.1966e-10 0 -0.0333333 1.1966e-10
0.01 -0.0366667 1.31626e-10 0 -0.0366667 1.31626e-10 0.01 -0.04 1.43592e-10 0
-0.04 1.43592e-10 0.01 -0.0433333 1.55558e-10 0 -0.0433333 1.55558e-10 0.01 -0.0466667
1.67524e-10 0 -0.0466667 1.67524e-10 0.01 -0.05 1.7949e-10 0 -0.05 1.7949e-10
0.01 -0.0533333 1.91456e-10 0 -0.0533333 1.91456e-10 0.01 -0.0566667 2.03422e-10 0
-0.0566667 2.03422e-10 0.01 4.18809e-11 0.0233333 0.01 4.18809e-11 0.0233333 0 4.78639e-11
0.0266667 0.01 4.78639e-11 0.0266667 0 5.38469e-11 0.03 0.01 5.38469e-11 0.03
0 5.98299e-11 0.0333333 0.01 5.98299e-11 0.0333333 0 6.58129e-11 0.0366667 0.01
6.58129e-11 0.0366667 0 7.17959e-11 0.04 0.01 7.17959e-11 0.04 0 7.77789e-11
0.0433333 0.01 7.77789e-11 0.0433333 0 8.37618e-11 0.0466667 0.01 8.37618e-11 0.0466667
0 8.97448e-11 0.05 0.01 8.97448e-11 0.05 0 9.57278e-11 0.0533333 0.01
9.57278e-11 0.0533333 0 1.01711e-10 0.0566667 0.01 1.01711e-10 0.0566667 0 1.07694e-10
0.06 0.01 1.07694e-10 0.06 0 4.18809e-11 0.0233333 0 4.18809e-11 0.0233333
0.01 4.78639e-11 0.0266667 0 4.78639e-11 0.0266667 0.01 5.38469e-11 0.03 0
5.38469e-11 0.03 0.01 5.98299e-11 0.0333333 0 5.98299e-11 0.0333333 0.01 6.58129e-11
0.0366667 0 6.58129e-11 0.0366667 0.01 7.17959e-11 0.04 0 7.17959e-11 0.04
0.01 7.77789e-11 0.0433333 0 7.77789e-11 0.0433333 0.01 8.37618e-11 0.0466667 0
8.37618e-11 0.0466667 0.01 8.97448e-11 0.05 0 8.97448e-11 0.05 0.01 9.57278e-11
0.0533333 0 9.57278e-11 0.0533333 0.01 1.01711e-10 0.0566667 0 1.01711e-10 0.0566667
0.01 
POLYGONS 192 960
4 0 1 2 3 4 1 4 5 2 4
4 6 7 5 4 6 8 9 7 4
8 10 11 9 4 10 12 13 11 4
12 14 15 13 4 14 16 17 15 4
16 18 19 17 4 18 20 21 19 4
20 22 23 21 4 22 24 25 23 4
24 26 27 25 4 26 28 29 27 4
28 30 31 29 4 30 32 33 31 4
32 34 35 33 4 34 36 37 35 4
36 38 39 37 4 38 40 41 39 4
40 42 43 41 4 42 44 45 43 4
44 46 47 45 4 46 48 49 47 4
50 51 52 53 4 51 54 55 52 4
54 56 57 55 4 56 58 59 57 4
58 60 61 59 4 60 62 63 61 4
62 64 65 63 4 64 66 67 65 4
66 68 69 67 4 68 70 71 69 4
70 72 73 71 4 72 74 75 73 4
74 76 77 75 4 76 78 79 77 4
78 80 81 79 4 80 82 83 81 4
82 84 85 83 4 84 86 87 85 4
86 88 89 87 4 88 90 91 89 4
90 92 93 91 4 92 94 95 93 4
94 96 97 95 4 96 98 99 97 4
100 101 102 103 4 101 104 105 102 4
104 106 107 105 4 106 108 109 107 4
108 110 111 109 4 110 112 113 111 4
112 114 115 113 4 114 116 117 115 4
116 118 119 117 4 118 120 121 119 4
120 122 123 121 4 122 124 125 123 4
124 126 127 125 4 126 128 129 127 4
128 130 131 129 4 130 132 133 131 4
132 134 135 133 4 134 136 137 135 4
136 138 139 137 4 138 140 141 139 4
140 142 143 141 4 142 144 145 143 4
144 146 147 145 4 146 148 149 147 4
150 151 152 153 4 151 154 155 152 4
154 156 157 155 4 156 158 159 157 4
158 160 161 159 4 160 162 163 161 4
162 164 165 163 4 164 166 167 165 4
166 168 169 167 4 168 170 171 169 4
170 172 173 171 4 172 174 175 173 4
174 176 177 175 4 176 178 179 177 4
178 180 181 179 4 180 182 183 181 4
182 184 185 183 4 184 186 187 185 4
186 188 189 187 4 188 190 191 189 4
190 192 193 191 4 192 194 195 193 4
194 196 197 195 4 196 198 199 197 4
0 3 200 201 4 201 200 202 203 4
203 202 204 205 4 205 204 206 207 4
207 206 208 209 4 209 208 210 211 4
211 210 212 213 4 213 212 214 215 4
215 214 216 217 4 217 216 218 219 4
219 218 220 221 4 221 220 222 223 4
198 224 225 199 4 224 226 227 225 4
226 228 229 227 4 228 230 231 229 4
230 232 233 231 4 232 234 235 233 4
234 236 237 235 4 236 238 239 237 4
238 240 241 239 4 240 242 243 241 4
242 244 245 243 4 244 223 222 245 4
50 53 246 247 4 247 246 248 249 4
249 248 250 251 4 251 250 252 253 4
253 252 254 255 4 255 254 256 257 4
257 256 258 259 4 259 258 260 261 4
261 260 262 263 4 263 262 264 265 4
265 264 266 267 4 267 266 268 269 4
48 270 271 49 4 270 272 273 271 4
272 274 275 273 4 274 276 277 275 4
276 278 279 277 4 278 280 281 279 4
280 282 283 281 4 282 284 285 283 4
284 286 287 285 4 286 288 289 287 4
288 290 291 289 4 290 269 268 291 4
100 103 292 293 4 293 292 294 295 4
295 294 296 297 4 297 296 298 299 4
299 298 300 301 4 301 300 302 303 4
303 302 304 305 4 305 304 306 307 4
307 306 308 309 4 309 308 310 311 4
311 310 312 313 4 313 312 314 315 4
98 316 317 99 4 316 318 319 317 4
318 320 321 319 4 320 322 323 321 4
322 324 325 323 4 324 326 327 325 4
326 328 329 327 4 328 330 331 329 4
330 332 333 331 4 332 334 335 333 4
334 336 337 335 4 336 315 314 337 4
150 153 338 339 4 339 338 340 341 4
341 340 342 343 4 343 342 344 345 4
345 344 346 347 4 347 346 348 349 4
349 348 350 351 4 351 350 352 353 4
353 352 354 355 4 355 354 356 357 4
357 356 358 359 4 359 358 360 361 4
148 362 363 149 4 362 364 365 363 4
364 366 367 365 4 366 368 369 367 4
368 370 371 369 4 370 372 373 371 4
372 374 375 373 4 374 376 377 375 4
376 378 379 377 4 378 380 381 379 4
380 382 383 381 4 382 361 360 383 
CELL_DATA 192
FIELD attributes 5
patchID 1 192 float
0 0 0 0 0 0 0 0 0 0 0
0 0 0 0 0 0 0 0 0 0
0 0 0 0 0 0 0 0 0 0
0 0 0 0 0 0 0 0 0 0
0 0 0 0 0 0 0 0 0 0
0 0 0 0 0 0 0 0 0 0
0 0 0 0 0 0 0 0 0 0
0 0 0 0 0 0 0 0 0 0
0 0 0 0 0 0 0 0 0 0
0 0 0 0 0 0 0 0 0 0
0 0 0 0 0 0 0 0 0 0
0 0 0 0 0 0 0 0 0 0
0 0 0 0 0 0 0 0 0 0
0 0 0 0 0 0 0 0 0 0
0 0 0 0 0 0 0 0 0 0
0 0 0 0 0 0 0 0 0 0
0 0 0 0 0 0 0 0 0 0
0 0 0 0 0 0 0 0 0 0
0 0 0 0 0 0 0 0 0 0
0 
p 1 192 float
0 -0.0305896 -0.0458284 -0.0510587 -0.0481531 0.0144207 -0.0346573 0.0122186 0.0202928 0.122946 0.130949
0.213726 0.276323 0.352507 0.37818 0.578355 0.564389 0.640603 0.686195 0.701252 0.692558
0.664317 0.719463 1.10285 -2.6318 -2.65934 -2.65955 -2.64831 -2.59255 -2.29952 -2.6366
-2.54067 -2.43862 -2.31988 -2.16872 -2.44297 -1.98718 -2.52863 -2.41906 -2.33037 -2.20788
-2.11747 -2.05743 -2.00812 -1.97495 -1.96667 -1.97599 -1.9895 -4.57622 -4.5937 -4.60383
-4.60036 -4.6019 -4.82793 -4.77086 -4.74662 -3.42027 -4.38697 -4.56016 -4.48519 -4.38204
-4.29158 -3.6848 -3.34923 -3.24733 -3.1275 -3.38858 -3.66702 -3.69351 -3.87626 -3.84816
-3.77966 3.51818 3.5742 2.86112 1.10499 0.910317 0.784963 0.756234 0.754641 0.780088
0.790833 0.839829 0.902167 0.977786 1.06453 1.16713 1.28091 1.38187 1.54145 2.66519
3.00756 2.72923 2.57269 2.51481 2.52552 0 2.08125 3.69754 5.66512 7.82898
10.2112 12.8147 15.6052 18.5441 21.5532 24.47 26.3994 2.52552 4.09742 5.03633
6.92634 9.25782 12.0164 17.1113 20.9191 22.9033 27.3655 32.26 37.6069 -2.6318
-0.618023 1.05225 3.05592 5.22113 7.54779 10.0842 12.8077 15.7079 18.7158 21.6981
23.9544 1.10285 2.48864 4.31293 6.80776 8.98617 11.4385 17.2646 21.168 24.511
28.1569 32.9573 35.6232 -4.57622 -2.55597 -0.805791 1.06545 3.29053 5.67368 8.28156
11.1026 14.1049 17.2198 20.2773 22.666 -1.9895 -0.139085 1.64067 3.83075 6.31511
9.00834 11.9521 15.018 18.4827 26.1679 35.6764 37.6731 3.51818 2.90797 4.41074
6.40587 8.54153 10.9128 13.4793 16.2134 19.0897 22.0309 26.7553 28.7729 -3.77966
-1.14818 -0.584379 1.44933 3.63808 6.2253 10.3402 14.1833 17.0808 22.1806 28.0221
34.1279 
alpha.water 1 192 float
2.67759e-06 1.99958e-05 1.83427e-05 0.000594315 0.0015654 0.00343745 0.000414087 1.12749e-09 0.00103457 0.00236672 0.00123319
8.90737e-10 3.094e-06 5.16481e-05 0.00204341 0.00588997 0.00241578 2.25244e-10 1.20038e-06 5.95452e-10 5.83034e-10
0.000624749 0.0185978 0.0299907 3.44444e-07 4.85398e-08 4.64452e-08 5.80059e-06 0.00911338 0.0143436 0.00508708
1.13136e-10 1.13136e-10 1.13136e-10 1.61439e-10 0.0171668 0.0290312 2.90439e-08 2.90816e-08 8.93902e-07 7.83282e-06
2.25848e-06 1.99069e-05 2.8198e-05 6.10389e-06 1.42311e-05 1.92017e-05 5.96906e-06 3.15863e-08 5.26057e-07 3.54425e-08
3.67453e-13 2.251e-11 0.0119696 0.0028229 0.0180111 0.050122 0.0299937 3.70155e-10 3.84718e-10 4.19674e-10
0.00606058 0.0578685 0.063086 0.063095 0.063095 0.052757 0.0120434 0.0128837 0.0194947 0.0229515
0.0138196 0.216278 0.213761 0.194077 0.0462381 0.0256184 0.00880148 1.07653e-09 0.00041729 0.000753545
4.24628e-10 2.27436e-07 6.53751e-10 6.53748e-10 6.5435e-10 1.39757e-07 2.57731e-07 7.95167e-10 0.0344129 0.151611
0.167833 0.167833 0.167833 0.167833 0.167833 2.67759e-06 1.33051e-05 1.25414e-05 9.2776e-07 3.42691e-09
3.42402e-09 3.42419e-09 6.27917e-06 4.82958e-07 5.49715e-10 0.00227695 0.00210893 0.167833 0.154831 7.18733e-05
0.0210689 0.0520939 0.0704284 0.167088 0.16412 0.0185864 5.4765e-10 8.27755e-06 8.57526e-06 3.44444e-07
1.517e-05 1.86191e-05 2.41635e-05 4.69863e-05 7.59703e-05 0.00012433 0.000282484 0.000346629 9.94186e-05 1.32843e-10
9.64535e-05 0.0299907 3.98054e-10 3.45023e-06 2.71367e-05 0.00218265 0.130505 0.277017 0.298164 0.261543
0.203226 0.198898 0.156495 3.15863e-08 1.18414e-06 2.7407e-08 1.0135e-09 7.01541e-10 7.2157e-10 1.41307e-05
2.86648e-05 9.70062e-06 3.50412e-10 3.68367e-10 3.63354e-10 5.96906e-06 1.36105e-05 0.000170282 0.000253022 0.00027687
0.00644046 0.0155407 0.0218709 0.0778855 0.519105 0.809878 0.740571 0.216278 0.0208735 0.00335783
0.00010028 0.000201358 5.99853e-05 2.58589e-10 2.3512e-10 2.15321e-10 1.9705e-10 0.107352 0.074988 0.0138196
0.0687291 0.00944834 6.12199e-10 6.35321e-10 0.0110672 0.0953284 0.0965791 0.0235167 0.000600286 0.00456631
0.0130743 
p_rgh 1 192 float
0 -0.0305896 -0.0458284 -0.0510587 -0.0481531 0.0144207 -0.0346573 0.0122186 0.0202928 0.122946 0.130949
0.213726 0.276323 0.352507 0.37818 0.578355 0.564389 0.640603 0.686195 0.701252 0.692558
0.664317 0.719463 1.10285 -2.6318 -2.65934 -2.65955 -2.64831 -2.59255 -2.29952 -2.6366
-2.54067 -2.43862 -2.31988 -2.16872 -2.44297 -1.98718 -2.52863 -2.41906 -2.33037 -2.20788
-2.11747 -2.05743 -2.00812 -1.97495 -1.96667 -1.97599 -1.9895 -4.57622 -4.5937 -4.60383
-4.60036 -4.6019 -4.82793 -4.77086 -4.74662 -3.42027 -4.38697 -4.56016 -4.48519 -4.38204
-4.29158 -3.6848 -3.34923 -3.24733 -3.1275 -3.38858 -3.66702 -3.69351 -3.87626 -3.84816
-3.77966 3.51818 3.5742 2.86112 1.10499 0.910317 0.784963 0.756234 0.754641 0.780088
0.790833 0.839829 0.902167 0.977786 1.06453 1.16713 1.28091 1.38187 1.54145 2.66519
3.00756 2.72923 2.57269 2.51481 2.52552 0 2.08125 3.69754 5.66512 7.82898
10.2112 12.8147 15.6052 18.5441 21.5532 24.47 26.3994 2.52552 4.09742 5.03633
6.92634 9.25782 12.0164 17.1113 20.9191 22.9033 27.3655 32.26 37.6069 -2.6318
-0.618023 1.05225 3.05592 5.22113 7.54779 10.0842 12.8077 15.7079 18.7158 21.6981
23.9544 1.10285 2.48864 4.31293 6.80776 8.98617 11.4385 17.2646 21.168 24.511
28.1569 32.9573 35.6232 -4.57622 -2.55597 -0.805791 1.06545 3.29053 5.67368 8.28156
11.1026 14.1049 17.2198 20.2773 22.666 -1.9895 -0.139085 1.64067 3.83075 6.31511
9.00834 11.9521 15.018 18.4827 26.1679 35.6764 37.6731 3.51818 2.90797 4.41074
6.40587 8.54153 10.9128 13.4793 16.2134 19.0897 22.0309 26.7553 28.7729 -3.77966
-1.14818 -0.584379 1.44933 3.63808 6.2253 10.3402 14.1833 17.0808 22.1806 28.0221
34.1279 
U 3 192 float
0.0041094 0.125529 0 0.0123106 0.124992 0 0.0204591 0.123919 0 0.02852 0.122315
0 0.0364587 0.120188 0 0.0442413 0.117546 0 0.0518345 0.114401 0
0.0592057 0.110766 0 0.0663234 0.106657 0 0.0731571 0.102091 0 0.0796775
0.0970873 0 0.0858567 0.0916683 0 0.0916683 0.0858567 0 0.0970873 0.0796775
0 0.102091 0.0731571 0 0.106657 0.0663234 0 0.110766 0.0592057 0
0.114401 0.0518345 0 0.117546 0.0442413 0 0.120188 0.0364587 0 0.122315
0.02852 0 0.123919 0.0204591 0 0.124992 0.0123106 0 0.125529 0.0041094
0 0.125529 -0.0041094 0 0.124992 -0.0123106 0 0.123919 -0.0204591 0
0.122315 -0.02852 0 0.120188 -0.0364587 0 0.117546 -0.0442413 0 0.114401
-0.0518345 0 0.110766 -0.0592057 0 0.106657 -0.0663234 0 0.102091 -0.0731571
0 0.0970873 -0.0796775 0 0.0916683 -0.0858567 0 0.0858567 -0.0916683 0
0.0796775 -0.0970873 0 0.0731571 -0.102091 0 0.0663234 -0.106657 0 0.0592057
-0.110766 0 0.0518345 -0.114401 0 0.0442413 -0.117546 0 0.0364587 -0.120188
0 0.02852 -0.122315 0 0.0204591 -0.123919 0 0.0123106 -0.124992 0
0.0041094 -0.125529 0 -0.0041094 -0.125529 0 -0.0123106 -0.124992 0 -0.0204591
-0.123919 0 -0.02852 -0.122315 0 -0.0364587 -0.120188 0 -0.0442413 -0.117546
0 -0.0518345 -0.114401 0 -0.0592057 -0.110766 0 -0.0663234 -0.106657 0
-0.0731571 -0.102091 0 -0.0796775 -0.0970873 0 -0.0858567 -0.0916683 0 -0.0916683
-0.0858567 0 -0.0970873 -0.0796775 0 -0.102091 -0.0731571 0 -0.106657 -0.0663234
0 -0.110766 -0.0592057 0 -0.114401 -0.0518345 0 -0.117546 -0.0442413 0
-0.120188 -0.0364587 0 -0.122315 -0.02852 0 -0.123919 -0.0204591 0 -0.124992
-0.0123106 0 -0.125529 -0.0041094 0 -0.125529 0.0041094 0 -0.124992 0.0123106
0 -0.123919 0.0204591 0 -0.122315 0.02852 0 -0.120188 0.0364587 0
-0.117546 0.0442413 0 -0.114401 0.0518345 0 -0.110766 0.0592057 0 -0.106657
0.0663234 0 -0.102091 0.0731571 0 -0.0970873 0.0796775 0 -0.0916683 0.0858567
0 -0.0858567 0.0916683 0 -0.0796775 0.0970873 0 -0.0731571 0.102091 0
-0.0663234 0.106657 0 -0.0592057 0.110766 0 -0.0518345 0.114401 0 -0.0442413
0.117546 0 -0.0364587 0.120188 0 -0.02852 0.122315 0 -0.0204591 0.123919
0 -0.0123106 0.124992 0 -0.0041094 0.125529 0 0 0.136136 0
0 0.15708 0 0 0.178024 0 0 0.198968 0 0
0.219911 0 0 0.240855 0 0 0.261799 0 0 0.282743
0 0 0.303687 0 0 0.324631 0 0 0.345575 0
0 0.366519 0 0 0.136136 0 0 0.15708 0 0
0.178024 0 0 0.198968 0 0 0.219911 0 0 0.240855
0 0 0.261799 0 0 0.282743 0 0 0.303687 0
0 0.324631 0 0 0.345575 0 0 0.366519 0 0.136136
2.44349e-10 0 0.15708 2.81942e-10 0 0.178024 3.19534e-10 0 0.198968 3.57126e-10
0 0.219911 3.94718e-10 0 0.240855 4.32311e-10 0 0.261799 4.69903e-10 0
0.282743 5.07495e-10 0 0.303687 5.45087e-10 0 0.324631 5.8268e-10 0 0.345575
6.20272e-10 0 0.366519 6.57864e-10 0 0.136136 2.44349e-10 0 0.15708 2.81942e-10
0 0.178024 3.19534e-10 0 0.198968 3.57126e-10 0 0.219911 3.94718e-10 0
0.240855 4.32311e-10 0 0.261799 4.69903e-10 0 0.282743 5.07495e-10 0 0.303687
5.45087e-10 0 0.324631 5.8268e-10 0 0.345575 6.20272e-10 0 0.366519 6.57864e-10
0 -4.88699e-10 -0.136136 0 -5.63883e-10 -0.15708 0 -6.39068e-10 -0.178024 0
-7.14252e-10 -0.198968 0 -7.89437e-10 -0.219911 0 -8.64621e-10 -0.240855 0 -9.39806e-10
-0.261799 0 -1.01499e-09 -0.282743 0 -1.09017e-09 -0.303687 0 -1.16536e-09 -0.324631
0 -1.24054e-09 -0.345575 0 -1.31573e-09 -0.366519 0 -4.88699e-10 -0.136136 0
-5.63883e-10 -0.15708 0 -6.39068e-10 -0.178024 0 -7.14252e-10 -0.198968 0 -7.89437e-10
-0.219911 0 -8.64621e-10 -0.240855 0 -9.39806e-10 -0.261799 0 -1.01499e-09 -0.282743
0 -1.09017e-09 -0.303687 0 -1.16536e-09 -0.324631 0 -1.24054e-09 -0.345575 0
-1.31573e-09 -0.366519 0 -0.136136 2.44349e-10 0 -0.15708 2.81942e-10 0 -0.178024
3.19534e-10 0 -0.198968 3.57126e-10 0 -0.219911 3.94718e-10 0 -0.240855 4.32311e-10
0 -0.261799 4.69903e-10 0 -0.282743 5.07495e-10 0 -0.303687 5.45087e-10 0
-0.324631 5.8268e-10 0 -0.345575 6.20272e-10 0 -0.366519 6.57864e-10 0 -0.136136
2.44349e-10 0 -0.15708 2.81942e-10 0 -0.178024 3.19534e-10 0 -0.198968 3.57126e-10
0 -0.219911 3.94718e-10 0 -0.240855 4.32311e-10 0 -0.261799 4.69903e-10 0
-0.282743 5.07495e-10 0 -0.303687 5.45087e-10 0 -0.324631 5.8268e-10 0 -0.345575
6.20272e-10 0 -0.366519 6.57864e-10 0 
POINT_DATA  384
FIELD attributes 4
p 1 384 float
0 -0.0152948 -0.0152948 0 -0.038209 -0.038209 -0.0484435 -0.0484435 -0.0496059 -0.0496059 -0.0168662
-0.0168662 -0.0101183 -0.0101183 -0.0112193 -0.0112193 0.0162557 0.0162557 0.0716194 0.0716194 0.126948
0.126948 0.172338 0.172338 0.245025 0.245025 0.314415 0.314415 0.365344 0.365344 0.478267
0.478267 0.571372 0.571372 0.602496 0.602496 0.663399 0.663399 0.693723 0.693723 0.696905
0.696905 0.678437 0.678437 0.69189 0.69189 0.911156 0.911156 1.10285 1.10285 -2.6318
-2.64557 -2.64557 -2.6318 -2.65945 -2.65945 -2.65393 -2.65393 -2.62043 -2.62043 -2.44603
-2.44603 -2.46806 -2.46806 -2.58863 -2.58863 -2.48965 -2.48965 -2.37925 -2.37925 -2.2443
-2.2443 -2.30585 -2.30585 -2.21508 -2.21508 -2.25791 -2.25791 -2.47385 -2.47385 -2.37472
-2.37472 -2.26912 -2.26912 -2.16267 -2.16267 -2.08745 -2.08745 -2.03277 -2.03277 -1.99153
-1.99153 -1.97081 -1.97081 -1.97133 -1.97133 -1.98275 -1.98275 -1.9895 -1.9895 -4.57622
-4.58496 -4.58496 -4.57622 -4.59876 -4.59876 -4.6021 -4.6021 -4.60113 -4.60113 -4.71491
-4.71491 -4.7994 -4.7994 -4.75874 -4.75874 -4.08345 -4.08345 -3.90362 -3.90362 -4.47357
-4.47357 -4.52268 -4.52268 -4.43362 -4.43362 -4.33681 -4.33681 -3.98819 -3.98819 -3.51701
-3.51701 -3.29828 -3.29828 -3.18741 -3.18741 -3.25804 -3.25804 -3.5278 -3.5278 -3.68026
-3.68026 -3.78488 -3.78488 -3.86221 -3.86221 -3.81391 -3.81391 -3.77966 -3.77966 3.51818
3.54619 3.54619 3.51818 3.21766 3.21766 1.98305 1.98305 1.00765 1.00765 0.84764
0.84764 0.770598 0.770598 0.755437 0.755437 0.767365 0.767365 0.78546 0.78546 0.815331
0.815331 0.870998 0.870998 0.939977 0.939977 1.02116 1.02116 1.11583 1.11583 1.22402
1.22402 1.33139 1.33139 1.46166 1.46166 2.10332 2.10332 2.83637 2.83637 2.8684
2.8684 2.65096 2.65096 2.54375 2.54375 2.52016 2.52016 2.52552 2.52552 1.04062
1.04062 2.88939 2.88939 4.68133 4.68133 6.74705 6.74705 9.02009 9.02009 11.5129
11.5129 14.21 14.21 17.0746 17.0746 20.0487 20.0487 23.0116 23.0116 25.4347
25.4347 32.0032 32.0032 3.31147 3.31147 4.56687 4.56687 5.98134 5.98134 8.09208
8.09208 10.6371 10.6371 14.5639 14.5639 19.0152 19.0152 21.9112 21.9112 25.1344
25.1344 29.8127 29.8127 34.9334 34.9334 -1.62491 -1.62491 0.217113 0.217113 2.05409
2.05409 4.13853 4.13853 6.38446 6.38446 8.816 8.816 11.4459 11.4459 14.2578
14.2578 17.2118 17.2118 20.2069 20.2069 22.8263 22.8263 29.7888 29.7888 1.79575
1.79575 3.40078 3.40078 5.56035 5.56035 7.89697 7.89697 10.2123 10.2123 14.3516
14.3516 19.2163 19.2163 22.8395 22.8395 26.334 26.334 30.5571 30.5571 34.2902
34.2902 -3.5661 -3.5661 -1.68088 -1.68088 0.129829 0.129829 2.17799 2.17799 4.4821
4.4821 6.97762 6.97762 9.69208 9.69208 12.6038 12.6038 15.6623 15.6623 18.7486
18.7486 21.4716 21.4716 30.1695 30.1695 -1.06429 -1.06429 0.750793 0.750793 2.73571
2.73571 5.07293 5.07293 7.66173 7.66173 10.4802 10.4802 13.4851 13.4851 16.7504
16.7504 22.3253 22.3253 30.9221 30.9221 36.6748 36.6748 3.21307 3.21307 3.65935
3.65935 5.40831 5.40831 7.4737 7.4737 9.72717 9.72717 12.196 12.196 14.8463
14.8463 17.6516 17.6516 20.5603 20.5603 24.3931 24.3931 27.7641 27.7641 31.4504
31.4504 -2.46392 -2.46392 -0.866279 -0.866279 0.432476 0.432476 2.5437 2.5437 4.93169
4.93169 8.28275 8.28275 12.2618 12.2618 15.632 15.632 19.6307 19.6307 25.1014
25.1014 31.075 31.075 
alpha.water 1 384 float
2.67759e-06 1.13367e-05 1.13367e-05 2.67759e-06 1.91693e-05 1.91693e-05 0.000306329 0.000306329 0.00107986 0.00107986 0.00250143
0.00250143 0.00192577 0.00192577 0.000207044 0.000207044 0.000517286 0.000517286 0.00170064 0.00170064 0.00179996
0.00179996 0.000616595 0.000616595 1.54745e-06 1.54745e-06 2.73711e-05 2.73711e-05 0.00104753 0.00104753 0.00396669
0.00396669 0.00415287 0.00415287 0.00120789 0.00120789 6.00303e-07 6.00303e-07 6.00488e-07 6.00488e-07 5.89243e-10
5.89243e-10 0.000312375 0.000312375 0.00961127 0.00961127 0.0242942 0.0242942 0.0299907 0.0299907 3.44444e-07
1.96492e-07 1.96492e-07 3.44444e-07 4.74925e-08 4.74925e-08 2.92352e-06 2.92352e-06 0.00455959 0.00455959 0.0117285
0.0117285 0.00971534 0.00971534 0.00254354 0.00254354 1.13136e-10 1.13136e-10 1.13136e-10 1.13136e-10 1.37288e-10
1.37288e-10 0.0085834 0.0085834 0.023099 0.023099 0.0145156 0.0145156 2.90628e-08 2.90628e-08 4.61492e-07
4.61492e-07 4.36336e-06 4.36336e-06 5.04565e-06 5.04565e-06 1.10827e-05 1.10827e-05 2.40524e-05 2.40524e-05 1.71509e-05
1.71509e-05 1.01675e-05 1.01675e-05 1.67164e-05 1.67164e-05 1.25854e-05 1.25854e-05 5.96906e-06 5.96906e-06 3.15863e-08
2.78822e-07 2.78822e-07 3.15863e-08 2.8075e-07 2.8075e-07 1.77214e-08 1.77214e-08 1.14387e-11 1.14387e-11 0.0059848
0.0059848 0.00739625 0.00739625 0.010417 0.010417 0.0340666 0.0340666 0.0400578 0.0400578 0.0149968
0.0149968 3.77436e-10 3.77436e-10 4.02196e-10 4.02196e-10 0.00303029 0.00303029 0.0319645 0.0319645 0.0604772
0.0604772 0.0630905 0.0630905 0.063095 0.063095 0.057926 0.057926 0.0324002 0.0324002 0.0124636
0.0124636 0.0161892 0.0161892 0.0212231 0.0212231 0.0183856 0.0183856 0.0138196 0.0138196 0.216278
0.215019 0.215019 0.216278 0.203919 0.203919 0.120158 0.120158 0.0359282 0.0359282 0.0172099
0.0172099 0.00440074 0.00440074 0.000208646 0.000208646 0.000585417 0.000585417 0.000376773 0.000376773 1.1393e-07
1.1393e-07 1.14045e-07 1.14045e-07 6.53749e-10 6.53749e-10 6.54049e-10 6.54049e-10 7.02057e-08 7.02057e-08 1.98744e-07
1.98744e-07 1.29263e-07 1.29263e-07 0.0172065 0.0172065 0.093012 0.093012 0.159722 0.159722 0.167833
0.167833 0.167833 0.167833 0.167833 0.167833 0.167833 0.167833 0.167833 0.167833 7.99135e-06
7.99135e-06 1.29233e-05 1.29233e-05 6.73458e-06 6.73458e-06 4.65593e-07 4.65593e-07 3.42547e-09 3.42547e-09 3.4241e-09
3.4241e-09 3.1413e-06 3.1413e-06 3.38106e-06 3.38106e-06 2.41754e-07 2.41754e-07 0.00113848 0.00113848 0.00219294
0.00219294 0.00105875 0.00105875 0.161332 0.161332 0.0774514 0.0774514 0.0105704 0.0105704 0.0365814
0.0365814 0.0612612 0.0612612 0.118758 0.118758 0.165604 0.165604 0.0913532 0.0913532 0.0092932
0.0092932 4.13905e-06 4.13905e-06 8.4264e-06 8.4264e-06 7.75722e-06 7.75722e-06 1.68945e-05 1.68945e-05 2.13913e-05
2.13913e-05 3.55749e-05 3.55749e-05 6.14783e-05 6.14783e-05 0.00010015 0.00010015 0.000203407 0.000203407 0.000314556
0.000314556 0.000223024 0.000223024 4.97094e-05 4.97094e-05 4.82268e-05 4.82268e-05 0.0782957 0.0782957 0.0149954
0.0149954 1.72531e-06 1.72531e-06 1.52935e-05 1.52935e-05 0.00110489 0.00110489 0.0663438 0.0663438 0.203761
0.203761 0.287591 0.287591 0.279853 0.279853 0.232385 0.232385 0.201062 0.201062 0.177696
0.177696 6.07863e-07 6.07863e-07 6.05773e-07 6.05773e-07 1.42102e-08 1.42102e-08 8.5752e-10 8.5752e-10 7.11555e-10
7.11555e-10 7.06571e-06 7.06571e-06 2.13977e-05 2.13977e-05 1.91827e-05 1.91827e-05 4.85049e-06 4.85049e-06 3.59389e-10
3.59389e-10 3.65861e-10 3.65861e-10 0.370286 0.370286 9.78978e-06 9.78978e-06 9.19462e-05 9.19462e-05 0.000211652
0.000211652 0.000264946 0.000264946 0.00335866 0.00335866 0.0109906 0.0109906 0.0187058 0.0187058 0.0498782
0.0498782 0.298495 0.298495 0.664491 0.664491 0.775225 0.775225 0.118576 0.118576 0.0121157
0.0121157 0.00172905 0.00172905 0.000150819 0.000150819 0.000130672 0.000130672 2.99928e-05 2.99928e-05 2.46855e-10
2.46855e-10 2.2522e-10 2.2522e-10 2.06185e-10 2.06185e-10 0.053676 0.053676 0.09117 0.09117 0.0440312
0.0440312 0.0412744 0.0412744 0.0390887 0.0390887 0.00472417 0.00472417 6.2376e-10 6.2376e-10 0.0055336
0.0055336 0.0531978 0.0531978 0.0959537 0.0959537 0.0600479 0.0600479 0.0120585 0.0120585 0.0025833
0.0025833 0.0088203 0.0088203 
p_rgh 1 384 float
0 -0.0152948 -0.0152948 0 -0.038209 -0.038209 -0.0484435 -0.0484435 -0.0496059 -0.0496059 -0.0168662
-0.0168662 -0.0101183 -0.0101183 -0.0112193 -0.0112193 0.0162557 0.0162557 0.0716194 0.0716194 0.126948
0.126948 0.172338 0.172338 0.245025 0.245025 0.314415 0.314415 0.365344 0.365344 0.478267