# vtk DataFile Version 2.0
rotor
ASCII
DATASET POLYDATA
POINTS 384 float
0.02 0 0 0.0199572 -0.00130806 0 0.0199572 -0.00130806 0.01 0.02 0
0.01 0.0198289 -0.00261052 0 0.0198289 -0.00261052 0.01 0.0196157 -0.00390181 0
0.0196157 -0.00390181 0.01 0.0193185 -0.00517638 0 0.0193185 -0.00517638 0.01 0.0189386
-0.00642879 0 0.0189386 -0.00642879 0.01 0.0184776 -0.00765367 0 0.0184776 -0.00765367
0.01 0.0179375 -0.00884577 0 0.0179375 -0.00884577 0.01 0.0173205 -0.01 0
0.0173205 -0.01 0.01 0.0166294 -0.0111114 0 0.0166294 -0.0111114 0.01 0.0158671
-0.0121752 0 0.0158671 -0.0121752 0.01 0.0150368 -0.0131869 0 0.0150368 -0.0131869
0.01 0.0141421 -0.0141421 0 0.0141421 -0.0141421 0.01 0.0131869 -0.0150368 0
0.0131869 -0.0150368 0.01 0.0121752 -0.0158671 0 0.0121752 -0.0158671 0.01 0.0111114
-0.0166294 0 0.0111114 -0.0166294 0.01 0.01 -0.0173205 0 0.01 -0.0173205
0.01 0.00884577 -0.0179375 0 0.00884577 -0.0179375 0.01 0.00765367 -0.0184776 0
0.00765367 -0.0184776 0.01 0.00642879 -0.0189386 0 0.00642879 -0.0189386 0.01 0.00517638
-0.0193185 0 0.00517638 -0.0193185 0.01 0.00390181 -0.0196157 0 0.00390181 -0.0196157
0.01 0.00261052 -0.0198289 0 0.00261052 -0.0198289 0.01 0.00130806 -0.0199572 0
0.00130806 -0.0199572 0.01 3.58979e-11 -0.02 0 3.58979e-11 -0.02 0.01 3.58979e-11
-0.02 0 -0.00130806 -0.0199572 0 -0.00130806 -0.0199572 0.01 3.58979e-11 -0.02
0.01 -0.00261052 -0.0198289 0 -0.00261052 -0.0198289 0.01 -0.00390181 -0.0196157 0
-0.00390181 -0.0196157 0.01 -0.00517638 -0.0193185 0 -0.00517638 -0.0193185 0.01 -0.00642879
-0.0189386 0 -0.00642879 -0.0189386 0.01 -0.00765367 -0.0184776 0 -0.00765367 -0.0184776
0.01 -0.00884577 -0.0179375 0 -0.00884577 -0.0179375 0.01 -0.01 -0.0173205 0
-0.01 -0.0173205 0.01 -0.0111114 -0.0166294 0 -0.0111114 -0.0166294 0.01 -0.0121752
-0.0158671 0 -0.0121752 -0.0158671 0.01 -0.0131869 -0.0150368 0 -0.0131869 -0.0150368
0.01 -0.0141421 -0.0141421 0 -0.0141421 -0.0141421 0.01 -0.0150368 -0.0131869 0
-0.0150368 -0.0131869 0.01 -0.0158671 -0.0121752 0 -0.0158671 -0.0121752 0.01 -0.0166294
-0.0111114 0 -0.0166294 -0.0111114 0.01 -0.0173205 -0.01 0 -0.0173205 -0.01
0.01 -0.0179375 -0.00884577 0 -0.0179375 -0.00884577 0.01 -0.0184776 -0.00765367 0
-0.0184776 -0.00765367 0.01 -0.0189386 -0.00642879 0 -0.0189386 -0.00642879 0.01 -0.0193185
-0.00517638 0 -0.0193185 -0.00517638 0.01 -0.0196157 -0.00390181 0 -0.0196157 -0.00390181
0.01 -0.0198289 -0.00261052 0 -0.0198289 -0.00261052 0.01 -0.0199572 -0.00130806 0
-0.0199572 -0.00130806 0.01 -0.02 7.17959e-11 0 -0.02 7.17959e-11 0.01 -0.02
7.17959e-11 0 -0.0199572 0.00130806 0 -0.0199572 0.00130806 0.01 -0.02 7.17959e-11
0.01 -0.0198289 0.00261052 0 -0.0198289 0.00261052 0.01 -0.0196157 0.00390181 0
-0.0196157 0.00390181 0.01 -0.0193185 0.00517638 0 -0.0193185 0.00517638 0.01 -0.0189386
0.00642879 0 -0.0189386 0.00642879 0.01 -0.0184776 0.00765367 0 -0.0184776 0.00765367
0.01 -0.0179375 0.00884577 0 -0.0179375 0.00884577 0.01 -0.0173205 0.01 0
-0.0173205 0.01 0.01 -0.0166294 0.0111114 0 -0.0166294 0.0111114 0.01 -0.0158671
0.0121752 0 -0.0158671 0.0121752 0.01 -0.0150368 0.0131869 0 -0.0150368 0.0131869
0.01 -0.0141421 0.0141421 0 -0.0141421 0.0141421 0.01 -0.0131869 0.0150368 0
-0.0131869 0.0150368 0.01 -0.0121752 0.0158671 0 -0.0121752 0.0158671 0.01 -0.0111114
0.0166294 0 -0.0111114 0.0166294 0.01 -0.01 0.0173205 0 -0.01 0.0173205
0.01 -0.00884577 0.0179375 0 -0.00884577 0.0179375 0.01 -0.00765367 0.0184776 0
-0.00765367 0.0184776 0.01 -0.00642879 0.0189386 0 -0.00642879 0.0189386 0.01 -0.00517638
0.0193185 0 -0.00517638 0.0193185 0.01 -0.00390181 0.0196157 0 -0.00390181 0.0196157
0.01 -0.00261052 0.0198289 0 -0.00261052 0.0198289 0.01 -0.00130806 0.0199572 0
-0.00130806 0.0199572 0.01 3.58979e-11 0.02 0 3.58979e-11 0.02 0.01 3.58979e-11
0.02 0 0.00130806 0.0199572 0 0.00130806 0.0199572 0.01 3.58979e-11 0.02
0.01 0.00261052 0.0198289 0 0.00261052 0.0198289 0.01 0.00390181 0.0196157 0
0.00390181 0.0196157 0.01 0.00517638 0.0193185 0 0.00517638 0.0193185 0.01 0.00642879
0.0189386 0 0.00642879 0.0189386 0.01 0.00765367 0.0184776 0 0.00765367 0.0184776
0.01 0.00884577 0.0179375 0 0.00884577 0.0179375 0.01 0.01 0.0173205 0
0.01 0.0173205 0.01 0.0111114 0.0166294 0 0.0111114 0.0166294 0.01 0.0121752
0.0158671 0 0.0121752 0.0158671 0.01 0.0131869 0.0150368 0 0.0131869 0.0150368
0.01 0.0141421 0.0141421 0 0.0141421 0.0141421 0.01 0.0150368 0.0131869 0
0.0150368 0.0131869 0.01 0.0158671 0.0121752 0 0.0158671 0.0121752 0.01 0.0166294
0.0111114 0 0.0166294 0.0111114 0.01 0.0173205 0.01 0 0.0173205 0.01
0.01 0.0179375 0.00884577 0 0.0179375 0.00884577 0.01 0.0184776 0.00765367 0
0.0184776 0.00765367 0.01 0.0189386 0.00642879 0 0.0189386 0.00642879 0.01 0.0193185
0.00517638 0 0.0193185 0.00517638 0.01 0.0196157 0.00390181 0 0.0196157 0.00390181
0.01 0.0198289 0.00261052 0 0.0198289 0.00261052 0.01 0.0199572 0.00130806 0
0.0199572 0.00130806 0.01 0.02 0 0 0.02 0 0.01 0.0233333
0 0.01 0.0233333 0 0 0.0266667 0 0.01 0.0266667 0
0 0.03 0 0.01 0.03 0 0 0.0333333 0 0.01
0.0333333 0 0 0.0366667 0 0.01 0.0366667 0 0 0.04
0 0.01 0.04 0 0 0.0433333 0 0.01 0.0433333 0
0 0.0466667 0 0.01 0.0466667 0 0 0.05 0 0.01
0.05 0 0 0.0533333 0 0.01 0.0533333 0 0 0.0566667
0 0.01 0.0566667 0 0 0.06 0 0.01 0.06 0
0 0.0233333 0 0 0.0233333 0 0.01 0.0266667 0 0
0.0266667 0 0.01 0.03 0 0 0.03 0 0.01 0.0333333
0 0 0.0333333 0 0.01 0.0366667 0 0 0.0366667 0
0.01 0.04 0 0 0.04 0 0.01 0.0433333 0 0
0.0433333 0 0.01 0.0466667 0 0 0.0466667 0 0.01 0.05
0 0 0.05 0 0.01 0.0533333 0 0 0.0533333 0
0.01 0.0566667 0 0 0.0566667 0 0.01 4.18809e-11 -0.0233333 0.01
4.18809e-11 -0.0233333 0 4.78639e-11 -0.0266667 0.01 4.78639e-11 -0.0266667 0 5.38469e-11
-0.03 0.01 5.38469e-11 -0.03 0 5.98299e-11 -0.0333333 0.01 5.98299e-11 -0.0333333
0 6.58129e-11 -0.0366667 0.01 6.58129e-11 -0.0366667 0 7.17959e-11 -0.04 0.01
7.17959e-11 -0.04 0 7.77789e-11 -0.0433333 0.01 7.77789e-11 -0.0433333 0 8.37618e-11
-0.0466667 0.01 8.37618e-11 -0.0466667 0 8.97448e-11 -0.05 0.01 8.97448e-11 -0.05
0 9.57278e-11 -0.0533333 0.01 9.57278e-11 -0.0533333 0 1.01711e-10 -0.0566667 0.01
1.01711e-10 -0.0566667 0 1.07694e-10 -0.06 0.01 1.07694e-10 -0.06 0 4.18809e-11
-0.0233333 0 4.18809e-11 -0.0233333 0.01 4.78639e-11 -0.0266667 0 4.78639e-11 -0.0266667
0.01 5.38469e-11 -0.03 0 5.38469e-11 -0.03 0.01 5.98299e-11 -0.0333333 0
5.98299e-11 -0.0333333 0.01 6.58129e-11 -0.0366667 0 6.58129e-11 -0.0366667 0.01 7.17959e-11
-0.04 0 7.17959e-11 -0.04 0.01 7.77789e-11 -0.0433333 0 7.77789e-11 -0.0433333
0.01 8.37618e-11 -0.0466667 0 8.37618e-11 -0.0466667 0.01 8.97448e-11 -0.05 0
8.97448e-11 -0.05 0.01 9.57278e-11 -0.0533333 0 9.57278e-11 -0.0533333 0.01 1.01711e-10
-0.0566667 0 1.01711e-10 -0.0566667 0.01 -0.0233333 8.37618e-11 0.01 -0.0233333 8.37618e-11
0 -0.0266667 9.57278e-11 0.01 -0.0266667 9.57278e-11 0 -0.03 1.07694e-10 0.01
-0.03 1.07694e-10 0 -0.0333333 1.1966e-10 0.01 -0.0333333 1.1966e-10 0 -0.0366667
1.31626e-10 0.01 -0.0366667 1.31626e-10 0 -0.04 1.43592e-10 0.01 -0.04 1.43592e-10
0 -0.0433333 1.55558e-10 0.01 -0.0433333 1.55558e-10 0 -0.0466667 1.67524e-10 0.01
-0.0466667 1.67524e-10 0 -0.05 1.7949e-10 0.01 -0.05 1.7949e-10 0 -0.0533333
1.91456e-10 0.01 -0.0533333 1.91456e-10 0 -0.0566667 2.03422e-10 0.01 -0.0566667 2.03422e-10
0 -0.06 2.15388e-10 0.01 -0.06 2.15388e-10 0 -0.0233333 8.37618e-11 0
-0.0233333 8.37618e-11 0.01 -0.0266667 9.57278e-11 0 -0.0266667 9.57278e-11 0.01 -0.03
1.07694e-10 0 -0.03 1.07694e-10 0.01 -0.0333333 1.1966e-10 0 -0.0333333 1.1966e-10
0.01 -0.0366667 1.31626e-10 0 -0.0366667 1.31626e-10 0.01 -0.04 1.43592e-10 0
-0.04 1.43592e-10 0.01 -0.0433333 1.55558e-10 0 -0.0433333 1.55558e-10 0.01 -0.0466667
1.67524e-10 0 -0.0466667 1.67524e-10 0.01 -0.05 1.7949e-10 0 -0.05 1.7949e-10
0.01 -0.0533333 1.91456e-10 0 -0.0533333 1.91456e-10 0.01 -0.0566667 2.03422e-10 0
-0.0566667 2.03422e-10 0.01 4.18809e-11 0.0233333 0.01 4.18809e-11 0.0233333 0 4.78639e-11
0.0266667 0.01 4.78639e-11 0.0266667 0 5.38469e-11 0.03 0.01 5.38469e-11 0.03
0 5.98299e-11 0.0333333 0.01 5.98299e-11 0.0333333 0 6.58129e-11 0.0366667 0.01
6.58129e-11 0.0366667 0 7.17959e-11 0.04 0.01 7.17959e-11 0.04 0 7.77789e-11
0.0433333 0.01 7.77789e-11 0.0433333 0 8.37618e-11 0.0466667 0.01 8.37618e-11 0.0466667
0 8.97448e-11 0.05 0.01 8.97448e-11 0.05 0 9.57278e-11 0.0533333 0.01
9.57278e-11 0.0533333 0 1.01711e-10 0.0566667 0.01 1.01711e-10 0.0566667 0 1.07694e-10
0.06 0.01 1.07694e-10 0.06 0 4.18809e-11 0.0233333 0 4.18809e-11 0.0233333
0.01 4.78639e-11 0.0266667 0 4.78639e-11 0.0266667 0.01 5.38469e-11 0.03 0
5.38469e-11 0.03 0.01 5.98299e-11 0.0333333 0 5.98299e-11 0.0333333 0.01 6.58129e-11
0.0366667 0 6.58129e-11 0.0366667 0.01 7.17959e-11 0.04 0 7.17959e-11 0.04
0.01 7.77789e-11 0.0433333 0 7.77789e-11 0.0433333 0.01 8.37618e-11 0.0466667 0
8.37618e-11 0.0466667 0.01 8.97448e-11 0.05 0 8.97448e-11 0.05 0.01 9.57278e-11
0.0533333 0 9.57278e-11 0.0533333 0.01 1.01711e-10 0.0566667 0 1.01711e-10 0.0566667
0.01 
POLYGONS 192 960
4 0 1 2 3 4 1 4 5 2 4
4 6 7 5 4 6 8 9 7 4
8 10 11 9 4 10 12 13 11 4
12 14 15 13 4 14 16 17 15 4
16 18 19 17 4 18 20 21 19 4
20 22 23 21 4 22 24 25 23 4
24 26 27 25 4 26 28 29 27 4
28 30 31 29 4 30 32 33 31 4
32 34 35 33 4 34 36 37 35 4
36 38 39 37 4 38 40 41 39 4
40 42 43 41 4 42 44 45 43 4
44 46 47 45 4 46 48 49 47 4
50 51 52 53 4 51 54 55 52 4
54 56 57 55 4 56 58 59 57 4
58 60 61 59 4 60 62 63 61 4
62 64 65 63 4 64 66 67 65 4
66 68 69 67 4 68 70 71 69 4
70 72 73 71 4 72 74 75 73 4
74 76 77 75 4 76 78 79 77 4
78 80 81 79 4 80 82 83 81 4
82 84 85 83 4 84 86 87 85 4
86 88 89 87 4 88 90 91 89 4
90 92 93 91 4 92 94 95 93 4
94 96 97 95 4 96 98 99 97 4
100 101 102 103 4 101 104 105 102 4
104 106 107 105 4 106 108 109 107 4
108 110 111 109 4 110 112 113 111 4
112 114 115 113 4 114 116 117 115 4
116 118 119 117 4 118 120 121 119 4
120 122 123 121 4 122 124 125 123 4
124 126 127 125 4 126 128 129 127 4
128 130 131 129 4 130 132 133 131 4
132 134 135 133 4 134 136 137 135 4
136 138 139 137 4 138 140 141 139 4
140 142 143 141 4 142 144 145 143 4
144 146 147 145 4 146 148 149 147 4
150 151 152 153 4 151 154 155 152 4
154 156 157 155 4 156 158 159 157 4
158 160 161 159 4 160 162 163 161 4
162 164 165 163 4 164 166 167 165 4
166 168 169 167 4 168 170 171 169 4
170 172 173 171 4 172 174 175 173 4
174 176 177 175 4 176 178 179 177 4
178 180 181 179 4 180 182 183 181 4
182 184 185 183 4 184 186 187 185 4
186 188 189 187 4 188 190 191 189 4
190 192 193 191 4 192 194 195 193 4
194 196 197 195 4 196 198 199 197 4
0 3 200 201 4 201 200 202 203 4
203 202 204 205 4 205 204 206 207 4
207 206 208 209 4 209 208 210 211 4
211 210 212 213 4 213 212 214 215 4
215 214 216 217 4 217 216 218 219 4
219 218 220 221 4 221 220 222 223 4
198 224 225 199 4 224 226 227 225 4
226 228 229 227 4 228 230 231 229 4
230 232 233 231 4 232 234 235 233 4
234 236 237 235 4 236 238 239 237 4
238 240 241 239 4 240 242 243 241 4
242 244 245 243 4 244 223 222 245 4
50 53 246 247 4 247 246 248 249 4
249 248 250 251 4 251 250 252 253 4
253 252 254 255 4 255 254 256 257 4
257 256 258 259 4 259 258 260 261 4
261 260 262 263 4 263 262 264 265 4
265 264 266 267 4 267 266 268 269 4
48 270 271 49 4 270 272 273 271 4
272 274 275 273 4 274 276 277 275 4
276 278 279 277 4 278 280 281 279 4
280 282 283 281 4 282 284 285 283 4
284 286 287 285 4 286 288 289 287 4
288 290 291 289 4 290 269 268 291 4
100 103 292 293 4 293 292 294 295 4
295 294 296 297 4 297 296 298 299 4
299 298 300 301 4 301 300 302 303 4
303 302 304 305 4 305 304 306 307 4
307 306 308 309 4 309 308 310 311 4
311 310 312 313 4 313 312 314 315 4
98 316 317 99 4 316 318 319 317 4
318 320 321 319 4 320 322 323 321 4
322 324 325 323 4 324 326 327 325 4
326 328 329 327 4 328 330 331 329 4
330 332 333 331 4 332 334 335 333 4
334 336 337 335 4 336 315 314 337 4
150 153 338 339 4 339 338 340 341 4
341 340 342 343 4 343 342 344 345 4
345 344 346 347 4 347 346 348 349 4
349 348 350 351 4 351 350 352 353 4
353 352 354 355 4 355 354 356 357 4
357 356 358 359 4 359 358 360 361 4
148 362 363 149 4 362 364 365 363 4
364 366 367 365 4 366 368 369 367 4
368 370 371 369 4 370 372 373 371 4
372 374 375 373 4 374 376 377 375 4
376 378 379 377 4 378 380 381 379 4
380 382 383 381 4 382 361 360 383 
CELL_DATA 192
FIELD attributes 5
patchID 1 192 float
0 0 0 0 0 0 0 0 0 0 0
0 0 0 0 0 0 0 0 0 0
0 0 0 0 0 0 0 0 0 0
0 0 0 0 0 0 0 0 0 0
0 0 0 0 0 0 0 0 0 0
0 0 0 0 0 0 0 0 0 0
0 0 0 0 0 0 0 0 0 0
0 0 0 0 0 0 0 0 0 0
0 0 0 0 0 0 0 0 0 0
0 0 0 0 0 0 0 0 0 0
0 0 0 0 0 0 0 0 0 0
0 0 0 0 0 0 0 0 0 0
0 0 0 0 0 0 0 0 0 0
0 0 0 0 0 0 0 0 0 0
0 0 0 0 0 0 0 0 0 0
0 0 0 0 0 0 0 0 0 0
0 0 0 0 0 0 0 0 0 0
0 0 0 0 0 0 0 0 0 0
0 0 0 0 0 0 0 0 0 0
0 
p 1 192 float
0 -0.0660944 -0.1147 -0.094811 -0.235026 -0.250301 -0.278157 -0.297191 -0.185779 -0.207076 -0.253029
-0.426857 -0.462053 -0.473315 -0.509037 -0.565829 -0.584141 -0.590517 -0.530795 -0.436641 -0.354836
-0.251145 -0.323685 -0.112087 4.25142 4.21657 4.1961 4.17758 4.16012 4.14715 4.1423
4.14871 4.16623 4.20144 4.24554 4.25582 4.46284 4.35832 4.75006 4.47537 4.42382
4.40906 4.3595 4.31424 4.26526 4.22232 4.20289 4.2137 10.7609 10.7412 10.7174
10.6848 10.6531 10.618 10.5818 10.549 10.5244 10.5133 10.5207 10.5417 10.5761
10.5714 10.738 10.6941 10.7836 10.8555 10.8487 10.8269 10.868 10.8513 10.8158
10.7742 12.4667 7.00403 8.96836 9.0398 10.3803 9.89156 9.08269 9.3307 9.25103
9.48466 9.93727 10.2394 10.5021 9.70186 9.35304 9.30252 9.27713 9.26635 9.29573
9.41204 9.67854 9.29263 7.43557 9.17266 0 2.25528 3.91327 5.60175 7.27191
9.83978 12.5346 18.084 20.5138 22.8763 25.4522 27.2937 9.17266 13.7528 17.4917
16.3629 20.5659 23.0443 25.8035 28.2149 34.7205 40.7793 46.6367 51.4696 4.25142
6.38936 8.04998 10.0674 12.2762 14.7077 17.3772 20.29 23.4021 26.6 29.7072
31.3695 -0.112087 0.956115 1.72924 7.51539 12.0491 15.9429 18.1615 23.9037 30.2018
37.3134 44.2045 49.0255 10.7609 12.9091 14.5491 16.667 18.9244 21.3923 24.0445
26.8484 29.7492 32.625 35.2963 36.8353 4.2137 6.04996 7.71702 9.83639 11.9986
15.119 20.5574 28.0648 33.4625 33.8903 37.0751 42.6245 12.4667 10.8075 11.7383
14.3747 17.5055 20.9738 24.9819 27.0086 27.9058 29.9014 32.4784 34.3824 10.7742
12.5721 14.1122 16.5461 18.4464 21.4957 24.3994 27.4718 33.284 37.9515 40.9622
45.0283 
alpha.water 1 192 float
5.76838e-11 9.66783e-11 0.00137376 0.00295795 0.000689273 1.03729e-05 1.03729e-05 0.00499428 0.0153687 0.0153687 0.0153687
0.00717506 1.32516e-10 1.60532e-10 5.71551e-05 0.00133352 0.00176937 0.00150591 0.000324086 0.000324086 0.000538346
2.3538e-10 2.10794e-10 0.085732 3.26711e-14 8.28448e-15 8.20904e-15 8.20904e-15 8.20904e-15 8.20918e-15 4.22745e-13
1.96815e-11 6.06039e-06 6.1151e-06 6.12575e-06 4.5443e-05 0.000491319 0.0106946 0.0187201 0.0122758 0.000110013
0.000110013 0.000110013 0.000137645 0.000327704 3.33209e-09 5.73912e-08 2.03146e-06 2.9909e-14 1.77323e-13 3.10423e-14
7.46879e-14 6.27654e-13 2.07212e-12 2.07212e-12 2.07212e-12 2.07212e-12 2.07212e-12 2.07212e-12 2.57817e-12 1.7135e-05
0.00187505 0.00766424 0.00401466 2.08126e-10 0.000176618 0.00183683 0.0024688 0.000709596 1.7978e-10 1.43326e-10
1.13503e-10 1 0.611898 0.0391054 0.051886 0.119778 0.0984534 0.00250065 1.09955e-10 0.00768789
0.025792 0.0512941 0.0586504 0.0657487 0.0417046 0.000929518 9.76622e-11 9.37212e-11 8.88864e-11 8.36642e-11
8.01441e-11 1.11285e-10 0.172839 0.911122 1 5.76838e-11 4.33261e-05 1.88621e-06 7.19918e-11 0.0565455
0.176644 0.143779 0.0213563 5.79841e-06 5.7992e-06 1.75555e-06 5.03777e-10 1 1 0.893252
0.128334 1.60062e-11 3.58987e-11 0.266385 0.925618 1 0.999999 1 0.949195 3.26711e-14
2.06148e-12 1.13518e-10 2.62969e-09 2.98843e-08 1.45092e-07 4.03597e-07 5.32737e-07 4.07681e-11 2.45834e-11 2.20412e-11
4.88082e-18 0.085732 0.0362398 0.558573 0.746112 0.565523 0.657534 1 1 0.998761
0.999873 0.999146 0.868034 2.9909e-14 8.91204e-13 2.49601e-12 1.6236e-11 8.38122e-12 6.71186e-12 6.53463e-12
5.39549e-12 4.38542e-12 4.58462e-12 8.15081e-05 6.66587e-11 2.03146e-06 3.14613e-05 1.61142e-05 3.01696e-08 0.0342744
0.450501 0.761782 0.944153 0.944097 0.40758 1.11528e-10 1.24309e-10 1 1 1
1 1 1 1 0.728124 0.267399 0.0582773 1.85564e-10 0.00318209 1.13503e-10
1.40892e-10 0.00885558 0.0395809 0.015704 9.3138e-11 8.1012e-05 0.0354389 0.134383 0.134211 0.0532794
0.0021611 
p_rgh 1 192 float
0 -0.0660944 -0.1147 -0.094811 -0.235026 -0.250301 -0.278157 -0.297191 -0.185779 -0.207076 -0.253029
-0.426857 -0.462053 -0.473315 -0.509037 -0.565829 -0.584141 -0.590517 -0.530795 -0.436641 -0.354836
-0.251145 -0.323685 -0.112087 4.25142 4.21657 4.1961 4.17758 4.16012 4.14715 4.1423
4.14871 4.16623 4.20144 4.24554 4.25582 4.46284 4.35832 4.75006 4.47537 4.42382
4.40906 4.3595 4.31424 4.26526 4.22232 4.20289 4.2137 10.7609 10.7412 10.7174
10.6848 10.6531 10.618 10.5818 10.549 10.5244 10.5133 10.5207 10.5417 10.5761
10.5714 10.738 10.6941 10.7836 10.8555 10.8487 10.8269 10.868 10.8513 10.8158
10.7742 12.4667 7.00403 8.96836 9.0398 10.3803 9.89156 9.08269 9.3307 9.25103
9.48466 9.93727 10.2394 10.5021 9.70186 9.35304 9.30252 9.27713 9.26635 9.29573
9.41204 9.67854 9.29263 7.43557 9.17266 0 2.25528 3.91327 5.60175 7.27191
9.83978 12.5346 18.084 20.5138 22.8763 25.4522 27.2937 9.17266 13.7528 17.4917
16.3629 20.5659 23.0443 25.8035 28.2149 34.7205 40.7793 46.6367 51.4696 4.25142
6.38936 8.04998 10.0674 12.2762 14.7077 17.3772 20.29 23.4021 26.6 29.7072
31.3695 -0.112087 0.956115 1.72924 7.51539 12.0491 15.9429 18.1615 23.9037 30.2018
37.3134 44.2045 49.0255 10.7609 12.9091 14.5491 16.667 18.9244 21.3923 24.0445
26.8484 29.7492 32.625 35.2963 36.8353 4.2137 6.04996 7.71702 9.83639 11.9986
15.119 20.5574 28.0648 33.4625 33.8903 37.0751 42.6245 12.4667 10.8075 11.7383
14.3747 17.5055 20.9738 24.9819 27.0086 27.9058 29.9014 32.4784 34.3824 10.7742
12.5721 14.1122 16.5461 18.4464 21.4957 24.3994 27.4718 33.284 37.9515 40.9622
45.0283 
U 3 192 float
0.0041094 0.125529 0 0.0123106 0.124992 0 0.0204591 0.123919 0 0.02852 0.122315
0 0.0364587 0.120188 0 0.0442413 0.117546 0 0.0518345 0.114401 0
0.0592057 0.110766 0 0.0663234 0.106657 0 0.0731571 0.102091 0 0.0796775
0.0970873 0 0.0858567 0.0916683 0 0.0916683 0.0858567 0 0.0970873 0.0796775
0 0.102091 0.0731571 0 0.106657 0.0663234 0 0.110766 0.0592057 0
0.114401 0.0518345 0 0.117546 0.0442413 0 0.120188 0.0364587 0 0.122315
0.02852 0 0.123919 0.0204591 0 0.124992 0.0123106 0 0.125529 0.0041094
0 0.125529 -0.0041094 0 0.124992 -0.0123106 0 0.123919 -0.0204591 0
0.122315 -0.02852 0 0.120188 -0.0364587 0 0.117546 -0.0442413 0 0.114401
-0.0518345 0 0.110766 -0.0592057 0 0.106657 -0.0663234 0 0.102091 -0.0731571
0 0.0970873 -0.0796775 0 0.0916683 -0.0858567 0 0.0858567 -0.0916683 0
0.0796775 -0.0970873 0 0.0731571 -0.102091 0 0.0663234 -0.106657 0 0.0592057
-0.110766 0 0.0518345 -0.114401 0 0.0442413 -0.117546 0 0.0364587 -0.120188
0 0.02852 -0.122315 0 0.0204591 -0.123919 0 0.0123106 -0.124992 0
0.0041094 -0.125529 0 -0.0041094 -0.125529 0 -0.0123106 -0.124992 0 -0.0204591
-0.123919 0 -0.02852 -0.122315 0 -0.0364587 -0.120188 0 -0.0442413 -0.117546
0 -0.0518345 -0.114401 0 -0.0592057 -0.110766 0 -0.0663234 -0.106657 0
-0.0731571 -0.102091 0 -0.0796775 -0.0970873 0 -0.0858567 -0.0916683 0 -0.0916683
-0.0858567 0 -0.0970873 -0.0796775 0 -0.102091 -0.0731571 0 -0.106657 -0.0663234
0 -0.110766 -0.0592057 0 -0.114401 -0.0518345 0 -0.117546 -0.0442413 0
-0.120188 -0.0364587 0 -0.122315 -0.02852 0 -0.123919 -0.0204591 0 -0.124992
-0.0123106 0 -0.125529 -0.0041094 0 -0.125529 0.0041094 0 -0.124992 0.0123106
0 -0.123919 0.0204591 0 -0.122315 0.02852 0 -0.120188 0.0364587 0
-0.117546 0.0442413 0 -0.114401 0.0518345 0 -0.110766 0.0592057 0 -0.106657
0.0663234 0 -0.102091 0.0731571 0 -0.0970873 0.0796775 0 -0.0916683 0.0858567
0 -0.0858567 0.0916683 0 -0.0796775 0.0970873 0 -0.0731571 0.102091 0
-0.0663234 0.106657 0 -0.0592057 0.110766 0 -0.0518345 0.114401 0 -0.0442413
0.117546 0 -0.0364587 0.120188 0 -0.02852 0.122315 0 -0.0204591 0.123919
0 -0.0123106 0.124992 0 -0.0041094 0.125529 0 0 0.136136 0
0 0.15708 0 0 0.178024 0 0 0.198968 0 0
0.219911 0 0 0.240855 0 0 0.261799 0 0 0.282743
0 0 0.303687 0 0 0.324631 0 0 0.345575 0
0 0.366519 0 0 0.136136 0 0 0.15708 0 0
0.178024 0 0 0.198968 0 0 0.219911 0 0 0.240855
0 0 0.261799 0 0 0.282743 0 0 0.303687 0
0 0.324631 0 0 0.345575 0 0 0.366519 0 0.136136
2.44349e-10 0 0.15708 2.81942e-10 0 0.178024 3.19534e-10 0 0.198968 3.57126e-10
0 0.219911 3.94718e-10 0 0.240855 4.32311e-10 0 0.261799 4.69903e-10 0
0.282743 5.07495e-10 0 0.303687 5.45087e-10 0 0.324631 5.8268e-10 0 0.345575
6.20272e-10 0 0.366519 6.57864e-10 0 0.136136 2.44349e-10 0 0.15708 2.81942e-10
0 0.178024 3.19534e-10 0 0.198968 3.57126e-10 0 0.219911 3.94718e-10 0
0.240855 4.32311e-10 0 0.261799 4.69903e-10 0 0.282743 5.07495e-10 0 0.303687
5.45087e-10 0 0.324631 5.8268e-10 0 0.345575 6.20272e-10 0 0.366519 6.57864e-10
0 -4.88699e-10 -0.136136 0 -5.63883e-10 -0.15708 0 -6.39068e-10 -0.178024 0
-7.14252e-10 -0.198968 0 -7.89437e-10 -0.219911 0 -8.64621e-10 -0.240855 0 -9.39806e-10
-0.261799 0 -1.01499e-09 -0.282743 0 -1.09017e-09 -0.303687 0 -1.16536e-09 -0.324631
0 -1.24054e-09 -0.345575 0 -1.31573e-09 -0.366519 0 -4.88699e-10 -0.136136 0
-5.63883e-10 -0.15708 0 -6.39068e-10 -0.178024 0 -7.14252e-10 -0.198968 0 -7.89437e-10
-0.219911 0 -8.64621e-10 -0.240855 0 -9.39806e-10 -0.261799 0 -1.01499e-09 -0.282743
0 -1.09017e-09 -0.303687 0 -1.16536e-09 -0.324631 0 -1.24054e-09 -0.345575 0
-1.31573e-09 -0.366519 0 -0.136136 2.44349e-10 0 -0.15708 2.81942e-10 0 -0.178024
3.19534e-10 0 -0.198968 3.57126e-10 0 -0.219911 3.94718e-10 0 -0.240855 4.32311e-10
0 -0.261799 4.69903e-10 0 -0.282743 5.07495e-10 0 -0.303687 5.45087e-10 0
-0.324631 5.8268e-10 0 -0.345575 6.20272e-10 0 -0.366519 6.57864e-10 0 -0.136136
2.44349e-10 0 -0.15708 2.81942e-10 0 -0.178024 3.19534e-10 0 -0.198968 3.57126e-10
0 -0.219911 3.94718e-10 0 -0.240855 4.32311e-10 0 -0.261799 4.69903e-10 0
-0.282743 5.07495e-10 0 -0.303687 5.45087e-10 0 -0.324631 5.8268e-10 0 -0.345575
6.20272e-10 0 -0.366519 6.57864e-10 0 
POINT_DATA  384
FIELD attributes 4
p 1 384 float
0 -0.0330472 -0.0330472 0 -0.0903972 -0.0903972 -0.104755 -0.104755 -0.164918 -0.164918 -0.242664
-0.242664 -0.264229 -0.264229 -0.287674 -0.287674 -0.241485 -0.241485 -0.196427 -0.196427 -0.230053
-0.230053 -0.339943 -0.339943 -0.444455 -0.444455 -0.467684 -0.467684 -0.491176 -0.491176 -0.537433
-0.537433 -0.574985 -0.574985 -0.587329 -0.587329 -0.560656 -0.560656 -0.483718 -0.483718 -0.395739
-0.395739 -0.30299 -0.30299 -0.287415 -0.287415 -0.217886 -0.217886 -0.112087 -0.112087 4.25142
4.23399 4.23399 4.25142 4.20634 4.20634 4.18684 4.18684 4.16885 4.16885 4.15364
4.15364 4.14472 4.14472 4.1455 4.1455 4.15747 4.15747 4.18384 4.18384 4.22349
4.22349 4.25068 4.25068 4.35933 4.35933 4.41058 4.41058 4.55419 4.55419 4.61271
4.61271 4.44959 4.44959 4.41644 4.41644 4.38428 4.38428 4.33687 4.33687 4.28975
4.28975 4.24379 4.24379 4.2126 4.2126 4.20829 4.20829 4.2137 4.2137 10.7609
10.751 10.751 10.7609 10.7293 10.7293 10.7011 10.7011 10.669 10.669 10.6355
10.6355 10.5999 10.5999 10.5654 10.5654 10.5367 10.5367 10.5189 10.5189 10.517
10.517 10.5312 10.5312 10.5589 10.5589 10.5737 10.5737 10.6547 10.6547 10.7161
10.7161 10.7388 10.7388 10.8195 10.8195 10.8521 10.8521 10.8378 10.8378 10.8475
10.8475 10.8596 10.8596 10.8336 10.8336 10.795 10.795 10.7742 10.7742 12.4667
9.73536 9.73536 12.4667 7.9862 7.9862 9.00408 9.00408 9.71005 9.71005 10.1359
10.1359 9.48713 9.48713 9.20669 9.20669 9.29086 9.29086 9.36784 9.36784 9.71097
9.71097 10.0883 10.0883 10.3708 10.3708 10.102 10.102 9.52745 9.52745 9.32778
9.32778 9.28983 9.28983 9.27174 9.27174 9.28104 9.28104 9.35388 9.35388 9.54529
9.54529 9.48559 9.48559 8.3641 8.3641 8.30412 8.30412 9.17266 9.17266 1.12764
1.12764 3.08428 3.08428 4.75751 4.75751 6.43683 6.43683 8.55585 8.55585 11.1872
11.1872 15.3093 15.3093 19.2989 19.2989 21.695 21.695 24.1642 24.1642 26.3729
26.3729 39.3816 39.3816 11.4627 11.4627 15.6222 15.6222 16.9273 16.9273 18.4644
18.4644 21.8051 21.8051 24.4239 24.4239 27.0092 27.0092 31.4677 31.4677 37.7499
37.7499 43.708 43.708 49.0532 49.0532 5.32039 5.32039 7.21967 7.21967 9.05869
9.05869 11.1718 11.1718 13.492 13.492 16.0424 16.0424 18.8336 18.8336 21.8461
21.8461 25.0011 25.0011 28.1536 28.1536 30.5383 30.5383 40.1975 40.1975 0.422014
0.422014 1.34268 1.34268 4.62231 4.62231 9.78224 9.78224 13.996 13.996 17.0522
17.0522 21.0326 21.0326 27.0527 27.0527 33.7576 33.7576 40.7589 40.7589 46.615
46.615 11.835 11.835 13.7291 13.7291 15.6081 15.6081 17.7957 17.7957 20.1583
20.1583 22.7184 22.7184 25.4464 25.4464 28.2988 28.2988 31.1871 31.1871 33.9607
33.9607 36.0658 36.0658 39.7299 39.7299 5.13183 5.13183 6.88349 6.88349 8.7767
8.7767 10.9175 10.9175 13.5588 13.5588 17.8382 17.8382 24.3111 24.3111 30.7637
30.7637 33.6764 33.6764 35.4827 35.4827 39.8498 39.8498 11.6371 11.6371 11.2729
11.2729 13.0565 13.0565 15.9401 15.9401 19.2397 19.2397 22.9778 22.9778 25.9953
25.9953 27.4572 27.4572 28.9036 28.9036 31.1899 31.1899 33.4304 33.4304 39.7053
39.7053 11.6732 11.6732 13.3421 13.3421 15.3292 15.3292 17.4963 17.4963 19.9711
19.9711 22.9475 22.9475 25.9356 25.9356 30.3779 30.3779 35.6177 35.6177 39.4568
39.4568 42.9953 42.9953 
alpha.water 1 384 float
5.76838e-11 7.71811e-11 7.71811e-11 5.76838e-11 0.00068688 0.00068688 0.00216585 0.00216585 0.00182361 0.00182361 0.000349823
0.000349823 1.03729e-05 1.03729e-05 0.00250233 0.00250233 0.0101815 0.0101815 0.0153687 0.0153687 0.0153687
0.0153687 0.0112719 0.0112719 0.00358753 0.00358753 1.46524e-10 1.46524e-10 2.85776e-05 2.85776e-05 0.000695338
0.000695338 0.00155144 0.00155144 0.00163764 0.00163764 0.000914998 0.000914998 0.000324086 0.000324086 0.000431216
0.000431216 0.000269173 0.000269173 2.23087e-10 2.23087e-10 0.042866 0.042866 0.085732 0.085732 3.26711e-14
2.04778e-14 2.04778e-14 3.26711e-14 8.24676e-15 8.24676e-15 8.20904e-15 8.20904e-15 8.20904e-15 8.20904e-15 8.20911e-15
8.20911e-15 2.15477e-13 2.15477e-13 1.00521e-11 1.00521e-11 3.0302e-06 3.0302e-06 6.08775e-06 6.08775e-06 6.12043e-06
6.12043e-06 2.57844e-05 2.57844e-05 0.000268381 0.000268381 0.00559296 0.00559296 0.0147074 0.0147074 0.0154979
0.0154979 0.00619291 0.00619291 0.000110013 0.000110013 0.000110013 0.000110013 0.000123829 0.000123829 0.000232675
0.000232675 0.000163854 0.000163854 3.03616e-08 3.03616e-08 1.04443e-06 1.04443e-06 2.03146e-06 2.03146e-06 2.9909e-14
1.03616e-13 1.03616e-13 2.9909e-14 1.04183e-13 1.04183e-13 5.28651e-14 5.28651e-14 3.51171e-13 3.51171e-13 1.34989e-12
1.34989e-12 2.07212e-12 2.07212e-12 2.07212e-12 2.07212e-12 2.07212e-12 2.07212e-12 2.07212e-12 2.07212e-12 2.07212e-12
2.07212e-12 2.32515e-12 2.32515e-12 8.5675e-06 8.5675e-06 0.000946092 0.000946092 0.00476965 0.00476965 0.00583945
0.00583945 0.00200733 0.00200733 8.83091e-05 8.83091e-05 0.00100672 0.00100672 0.00215281 0.00215281 0.0015892
0.0015892 0.000354798 0.000354798 1.61553e-10 1.61553e-10 1.28415e-10 1.28415e-10 1.13503e-10 1.13503e-10 1
0.805949 0.805949 1 0.325502 0.325502 0.0454957 0.0454957 0.085832 0.085832 0.109116
0.109116 0.050477 0.050477 0.00125033 0.00125033 0.00384394 0.00384394 0.0167399 0.0167399 0.038543
0.038543 0.0549723 0.0549723 0.0621996 0.0621996 0.0537267 0.0537267 0.0213171 0.0213171 0.000464759
0.000464759 9.56917e-11 9.56917e-11 9.13038e-11 9.13038e-11 8.62753e-11 8.62753e-11 8.19042e-11 8.19042e-11 9.57145e-11
9.57145e-11 0.0864195 0.0864195 0.541981 0.541981 0.955561 0.955561 1 1 2.16631e-05
2.16631e-05 2.26062e-05 2.26062e-05 9.43141e-07 9.43141e-07 0.0282727 0.0282727 0.116595 0.116595 0.160212
0.160212 0.0825676 0.0825676 0.010681 0.010681 5.7988e-06 5.7988e-06 3.77738e-06 3.77738e-06 8.78027e-07
8.78027e-07 0.474598 0.474598 1 1 0.946626 0.946626 0.510793 0.510793 0.064167
0.064167 2.59525e-11 2.59525e-11 0.133192 0.133192 0.596002 0.596002 0.962809 0.962809 1
1 1 1 0.974598 0.974598 1.04708e-12 1.04708e-12 5.77897e-11 5.77897e-11 1.3716e-09
1.3716e-09 1.6257e-08 1.6257e-08 8.74881e-08 8.74881e-08 2.74345e-07 2.74345e-07 4.68167e-07 4.68167e-07 2.66389e-07
2.66389e-07 3.26758e-11 3.26758e-11 2.33123e-11 2.33123e-11 1.10206e-11 1.10206e-11 0.434017 0.434017 0.0609859
0.0609859 0.297406 0.297406 0.652342 0.652342 0.655818 0.655818 0.611529 0.611529 0.828767
0.828767 1 1 0.999381 0.999381 0.999317 0.999317 0.99951 0.99951 0.93359
0.93359 4.60557e-13 4.60557e-13 1.69361e-12 1.69361e-12 9.36601e-12 9.36601e-12 1.23086e-11 1.23086e-11 7.54654e-12
7.54654e-12 6.62324e-12 6.62324e-12 5.96506e-12 5.96506e-12 4.89045e-12 4.89045e-12 4.48502e-12 4.48502e-12 4.07541e-05
4.07541e-05 4.07541e-05 4.07541e-05 9.54838e-11 9.54838e-11 1.67464e-05 1.67464e-05 2.37878e-05 2.37878e-05 8.07218e-06
8.07218e-06 0.0171372 0.0171372 0.242388 0.242388 0.606142 0.606142 0.852968 0.852968 0.944125
0.944125 0.675838 0.675838 0.20379 0.20379 1.17918e-10 1.17918e-10 1 1 1
1 1 1 1 1 1 1 1 1 0.864062
0.864062 0.497761 0.497761 0.162838 0.162838 0.0291387 0.0291387 0.00159105 0.00159105 0.00267159
0.00267159 1.27198e-10 1.27198e-10 0.00442779 0.00442779 0.0242182 0.0242182 0.0276424 0.0276424 0.007852
0.007852 4.0506e-05 4.0506e-05 0.01776 0.01776 0.084911 0.084911 0.134297 0.134297 0.0937452
0.0937452 0.0277203 0.0277203 
p_rgh 1 384 float
0 -0.0330472 -0.0330472 0 -0.0903972 -0.0903972 -0.104755 -0.104755 -0.164918 -0.164918 -0.242664
-0.242664 -0.264229 -0.264229 -0.287674 -0.287674 -0.241485 -0.241485 -0.196427 -0.196427 -0.230053
-0.230053 -0.339943 -0.339943 -0.444455 -0.444455 -0.467684 -0.467684 -0.491176 -0.491176 -0.537433
-0.537433 -0.574985 -0.574985 -0.587329 -0.587329 -0.560656 -0.560656 -0.483718 -0.483718 -0.395739
-0.395739 -0.30299 -0.30299 -0.287415 -0.287415 -0.217886 -0.217886 -0.112087 -0.112087 4.25142
4.23399 4.23399 4.25142 4.20634 4.20634 4.18684 4.18684 4.16885 4.16885 4.15364
4.15364 4.14472 4.14472 4.1455 4.1455 4.15747 4.15747 4.18384 4.18384 4.22349
4.22349 4.25068 4.25068 4.35933 4.35933 4.41058 4.41058 4.55419 4.55419 4.61271
4.61271 4.44959 4.44959 4.41644 4.41644 4.38428 4.38428 4.33687 4.33687 4.28975
4.28975 4.24379 4.24379 4.2126 4.2126 4.20829 4.20829 4.2137 4.2137 10.7609