# vtk DataFile Version 2.0
rotor
ASCII
DATASET POLYDATA
POINTS 384 float
0.02 0 0 0.0199572 -0.00130806 0 0.0199572 -0.00130806 0.01 0.02 0
0.01 0.0198289 -0.00261052 0 0.0198289 -0.00261052 0.01 0.0196157 -0.00390181 0
0.0196157 -0.00390181 0.01 0.0193185 -0.00517638 0 0.0193185 -0.00517638 0.01 0.0189386
-0.00642879 0 0.0189386 -0.00642879 0.01 0.0184776 -0.00765367 0 0.0184776 -0.00765367
0.01 0.0179375 -0.00884577 0 0.0179375 -0.00884577 0.01 0.0173205 -0.01 0
0.0173205 -0.01 0.01 0.0166294 -0.0111114 0 0.0166294 -0.0111114 0.01 0.0158671
-0.0121752 0 0.0158671 -0.0121752 0.01 0.0150368 -0.0131869 0 0.0150368 -0.0131869
0.01 0.0141421 -0.0141421 0 0.0141421 -0.0141421 0.01 0.0131869 -0.0150368 0
0.0131869 -0.0150368 0.01 0.0121752 -0.0158671 0 0.0121752 -0.0158671 0.01 0.0111114
-0.0166294 0 0.0111114 -0.0166294 0.01 0.01 -0.0173205 0 0.01 -0.0173205
0.01 0.00884577 -0.0179375 0 0.00884577 -0.0179375 0.01 0.00765367 -0.0184776 0
0.00765367 -0.0184776 0.01 0.00642879 -0.0189386 0 0.00642879 -0.0189386 0.01 0.00517638
-0.0193185 0 0.00517638 -0.0193185 0.01 0.00390181 -0.0196157 0 0.00390181 -0.0196157
0.01 0.00261052 -0.0198289 0 0.00261052 -0.0198289 0.01 0.00130806 -0.0199572 0
0.00130806 -0.0199572 0.01 3.58979e-11 -0.02 0 3.58979e-11 -0.02 0.01 3.58979e-11
-0.02 0 -0.00130806 -0.0199572 0 -0.00130806 -0.0199572 0.01 3.58979e-11 -0.02
0.01 -0.00261052 -0.0198289 0 -0.00261052 -0.0198289 0.01 -0.00390181 -0.0196157 0
-0.00390181 -0.0196157 0.01 -0.00517638 -0.0193185 0 -0.00517638 -0.0193185 0.01 -0.00642879
-0.0189386 0 -0.00642879 -0.0189386 0.01 -0.00765367 -0.0184776 0 -0.00765367 -0.0184776
0.01 -0.00884577 -0.0179375 0 -0.00884577 -0.0179375 0.01 -0.01 -0.0173205 0
-0.01 -0.0173205 0.01 -0.0111114 -0.0166294 0 -0.0111114 -0.0166294 0.01 -0.0121752
-0.0158671 0 -0.0121752 -0.0158671 0.01 -0.0131869 -0.0150368 0 -0.0131869 -0.0150368
0.01 -0.0141421 -0.0141421 0 -0.0141421 -0.0141421 0.01 -0.0150368 -0.0131869 0
-0.0150368 -0.0131869 0.01 -0.0158671 -0.0121752 0 -0.0158671 -0.0121752 0.01 -0.0166294
-0.0111114 0 -0.0166294 -0.0111114 0.01 -0.0173205 -0.01 0 -0.0173205 -0.01
0.01 -0.0179375 -0.00884577 0 -0.0179375 -0.00884577 0.01 -0.0184776 -0.00765367 0
-0.0184776 -0.00765367 0.01 -0.0189386 -0.00642879 0 -0.0189386 -0.00642879 0.01 -0.0193185
-0.00517638 0 -0.0193185 -0.00517638 0.01 -0.0196157 -0.00390181 0 -0.0196157 -0.00390181
0.01 -0.0198289 -0.00261052 0 -0.0198289 -0.00261052 0.01 -0.0199572 -0.00130806 0
-0.0199572 -0.00130806 0.01 -0.02 7.17959e-11 0 -0.02 7.17959e-11 0.01 -0.02
7.17959e-11 0 -0.0199572 0.00130806 0 -0.0199572 0.00130806 0.01 -0.02 7.17959e-11
0.01 -0.0198289 0.00261052 0 -0.0198289 0.00261052 0.01 -0.0196157 0.00390181 0
-0.0196157 0.00390181 0.01 -0.0193185 0.00517638 0 -0.0193185 0.00517638 0.01 -0.0189386
0.00642879 0 -0.0189386 0.00642879 0.01 -0.0184776 0.00765367 0 -0.0184776 0.00765367
0.01 -0.0179375 0.00884577 0 -0.0179375 0.00884577 0.01 -0.0173205 0.01 0
-0.0173205 0.01 0.01 -0.0166294 0.0111114 0 -0.0166294 0.0111114 0.01 -0.0158671
0.0121752 0 -0.0158671 0.0121752 0.01 -0.0150368 0.0131869 0 -0.0150368 0.0131869
0.01 -0.0141421 0.0141421 0 -0.0141421 0.0141421 0.01 -0.0131869 0.0150368 0
-0.0131869 0.0150368 0.01 -0.0121752 0.0158671 0 -0.0121752 0.0158671 0.01 -0.0111114
0.0166294 0 -0.0111114 0.0166294 0.01 -0.01 0.0173205 0 -0.01 0.0173205
0.01 -0.00884577 0.0179375 0 -0.00884577 0.0179375 0.01 -0.00765367 0.0184776 0
-0.00765367 0.0184776 0.01 -0.00642879 0.0189386 0 -0.00642879 0.0189386 0.01 -0.00517638
0.0193185 0 -0.00517638 0.0193185 0.01 -0.00390181 0.0196157 0 -0.00390181 0.0196157
0.01 -0.00261052 0.0198289 0 -0.00261052 0.0198289 0.01 -0.00130806 0.0199572 0
-0.00130806 0.0199572 0.01 3.58979e-11 0.02 0 3.58979e-11 0.02 0.01 3.58979e-11
0.02 0 0.00130806 0.0199572 0 0.00130806 0.0199572 0.01 3.58979e-11 0.02
0.01 0.00261052 0.0198289 0 0.00261052 0.0198289 0.01 0.00390181 0.0196157 0
0.00390181 0.0196157 0.01 0.00517638 0.0193185 0 0.00517638 0.0193185 0.01 0.00642879
0.0189386 0 0.00642879 0.0189386 0.01 0.00765367 0.0184776 0 0.00765367 0.0184776
0.01 0.00884577 0.0179375 0 0.00884577 0.0179375 0.01 0.01 0.0173205 0
0.01 0.0173205 0.01 0.0111114 0.0166294 0 0.0111114 0.0166294 0.01 0.0121752
0.0158671 0 0.0121752 0.0158671 0.01 0.0131869 0.0150368 0 0.0131869 0.0150368
0.01 0.0141421 0.0141421 0 0.0141421 0.0141421 0.01 0.0150368 0.0131869 0
0.0150368 0.0131869 0.01 0.0158671 0.0121752 0 0.0158671 0.0121752 0.01 0.0166294
0.0111114 0 0.0166294 0.0111114 0.01 0.0173205 0.01 0 0.0173205 0.01
0.01 0.0179375 0.00884577 0 0.0179375 0.00884577 0.01 0.0184776 0.00765367 0
0.0184776 0.00765367 0.01 0.0189386 0.00642879 0 0.0189386 0.00642879 0.01 0.0193185
0.00517638 0 0.0193185 0.00517638 0.01 0.0196157 0.00390181 0 0.0196157 0.00390181
0.01 0.0198289 0.00261052 0 0.0198289 0.00261052 0.01 0.0199572 0.00130806 0
0.0199572 0.00130806 0.01 0.02 0 0 0.02 0 0.01 0.0233333
0 0.01 0.0233333 0 0 0.0266667 0 0.01 0.0266667 0
0 0.03 0 0.01 0.03 0 0 0.0333333 0 0.01
0.0333333 0 0 0.0366667 0 0.01 0.0366667 0 0 0.04
0 0.01 0.04 0 0 0.0433333 0 0.01 0.0433333 0
0 0.0466667 0 0.01 0.0466667 0 0 0.05 0 0.01
0.05 0 0 0.0533333 0 0.01 0.0533333 0 0 0.0566667
0 0.01 0.0566667 0 0 0.06 0 0.01 0.06 0
0 0.0233333 0 0 0.0233333 0 0.01 0.0266667 0 0
0.0266667 0 0.01 0.03 0 0 0.03 0 0.01 0.0333333
0 0 0.0333333 0 0.01 0.0366667 0 0 0.0366667 0
0.01 0.04 0 0 0.04 0 0.01 0.0433333 0 0
0.0433333 0 0.01 0.0466667 0 0 0.0466667 0 0.01 0.05
0 0 0.05 0 0.01 0.0533333 0 0 0.0533333 0
0.01 0.0566667 0 0 0.0566667 0 0.01 4.18809e-11 -0.0233333 0.01
4.18809e-11 -0.0233333 0 4.78639e-11 -0.0266667 0.01 4.78639e-11 -0.0266667 0 5.38469e-11
-0.03 0.01 5.38469e-11 -0.03 0 5.98299e-11 -0.0333333 0.01 5.98299e-11 -0.0333333
0 6.58129e-11 -0.0366667 0.01 6.58129e-11 -0.0366667 0 7.17959e-11 -0.04 0.01
7.17959e-11 -0.04 0 7.77789e-11 -0.0433333 0.01 7.77789e-11 -0.0433333 0 8.37618e-11
-0.0466667 0.01 8.37618e-11 -0.0466667 0 8.97448e-11 -0.05 0.01 8.97448e-11 -0.05
0 9.57278e-11 -0.0533333 0.01 9.57278e-11 -0.0533333 0 1.01711e-10 -0.0566667 0.01
1.01711e-10 -0.0566667 0 1.07694e-10 -0.06 0.01 1.07694e-10 -0.06 0 4.18809e-11
-0.0233333 0 4.18809e-11 -0.0233333 0.01 4.78639e-11 -0.0266667 0 4.78639e-11 -0.0266667
0.01 5.38469e-11 -0.03 0 5.38469e-11 -0.03 0.01 5.98299e-11 -0.0333333 0
5.98299e-11 -0.0333333 0.01 6.58129e-11 -0.0366667 0 6.58129e-11 -0.0366667 0.01 7.17959e-11
-0.04 0 7.17959e-11 -0.04 0.01 7.77789e-11 -0.0433333 0 7.77789e-11 -0.0433333
0.01 8.37618e-11 -0.0466667 0 8.37618e-11 -0.0466667 0.01 8.97448e-11 -0.05 0
8.97448e-11 -0.05 0.01 9.57278e-11 -0.0533333 0 9.57278e-11 -0.0533333 0.01 1.01711e-10
-0.0566667 0 1.01711e-10 -0.0566667 0.01 -0.0233333 8.37618e-11 0.01 -0.0233333 8.37618e-11
0 -0.0266667 9.57278e-11 0.01 -0.0266667 9.57278e-11 0 -0.03 1.07694e-10 0.01
-0.03 1.07694e-10 0 -0.0333333 1.1966e-10 0.01 -0.0333333 1.1966e-10 0 -0.0366667
1.31626e-10 0.01 -0.0366667 1.31626e-10 0 -0.04 1.43592e-10 0.01 -0.04 1.43592e-10
0 -0.0433333 1.55558e-10 0.01 -0.0433333 1.55558e-10 0 -0.0466667 1.67524e-10 0.01
-0.0466667 1.67524e-10 0 -0.05 1.7949e-10 0.01 -0.05 1.7949e-10 0 -0.0533333
1.91456e-10 0.01 -0.0533333 1.91456e-10 0 -0.0566667 2.03422e-10 0.01 -0.0566667 2.03422e-10
0 -0.06 2.15388e-10 0.01 -0.06 2.15388e-10 0 -0.0233333 8.37618e-11 0
-0.0233333 8.37618e-11 0.01 -0.0266667 9.57278e-11 0 -0.0266667 9.57278e-11 0.01 -0.03
1.07694e-10 0 -0.03 1.07694e-10 0.01 -0.0333333 1.1966e-10 0 -0.0333333 1.1966e-10
0.01 -0.0366667 1.31626e-10 0 -0.0366667 1.31626e-10 0.01 -0.04 1.43592e-10 0
-0.04 1.43592e-10 0.01 -0.0433333 1.55558e-10 0 -0.0433333 1.55558e-10 0.01 -0.0466667
1.67524e-10 0 -0.0466667 1.67524e-10 0.01 -0.05 1.7949e-10 0 -0.05 1.7949e-10
0.01 -0.0533333 1.91456e-10 0 -0.0533333 1.91456e-10 0.01 -0.0566667 2.03422e-10 0
-0.0566667 2.03422e-10 0.01 4.18809e-11 0.0233333 0.01 4.18809e-11 0.0233333 0 4.78639e-11
0.0266667 0.01 4.78639e-11 0.0266667 0 5.38469e-11 0.03 0.01 5.38469e-11 0.03
0 5.98299e-11 0.0333333 0.01 5.98299e-11 0.0333333 0 6.58129e-11 0.0366667 0.01
6.58129e-11 0.0366667 0 7.17959e-11 0.04 0.01 7.17959e-11 0.04 0 7.77789e-11
0.0433333 0.01 7.77789e-11 0.0433333 0 8.37618e-11 0.0466667 0.01 8.37618e-11 0.0466667
0 8.97448e-11 0.05 0.01 8.97448e-11 0.05 0 9.57278e-11 0.0533333 0.01
9.57278e-11 0.0533333 0 1.01711e-10 0.0566667 0.01 1.01711e-10 0.0566667 0 1.07694e-10
0.06 0.01 1.07694e-10 0.06 0 4.18809e-11 0.0233333 0 4.18809e-11 0.0233333
0.01 4.78639e-11 0.0266667 0 4.78639e-11 0.0266667 0.01 5.38469e-11 0.03 0
5.38469e-11 0.03 0.01 5.98299e-11 0.0333333 0 5.98299e-11 0.0333333 0.01 6.58129e-11
0.0366667 0 6.58129e-11 0.0366667 0.01 7.17959e-11 0.04 0 7.17959e-11 0.04
0.01 7.77789e-11 0.0433333 0 7.77789e-11 0.0433333 0.01 8.37618e-11 0.0466667 0
8.37618e-11 0.0466667 0.01 8.97448e-11 0.05 0 8.97448e-11 0.05 0.01 9.57278e-11
0.0533333 0 9.57278e-11 0.0533333 0.01 1.01711e-10 0.0566667 0 1.01711e-10 0.0566667
0.01 
POLYGONS 192 960
4 0 1 2 3 4 1 4 5 2 4
4 6 7 5 4 6 8 9 7 4
8 10 11 9 4 10 12 13 11 4
12 14 15 13 4 14 16 17 15 4
16 18 19 17 4 18 20 21 19 4
20 22 23 21 4 22 24 25 23 4
24 26 27 25 4 26 28 29 27 4
28 30 31 29 4 30 32 33 31 4
32 34 35 33 4 34 36 37 35 4
36 38 39 37 4 38 40 41 39 4
40 42 43 41 4 42 44 45 43 4
44 46 47 45 4 46 48 49 47 4
50 51 52 53 4 51 54 55 52 4
54 56 57 55 4 56 58 59 57 4
58 60 61 59 4 60 62 63 61 4
62 64 65 63 4 64 66 67 65 4
66 68 69 67 4 68 70 71 69 4
70 72 73 71 4 72 74 75 73 4
74 76 77 75 4 76 78 79 77 4
78 80 81 79 4 80 82 83 81 4
82 84 85 83 4 84 86 87 85 4
86 88 89 87 4 88 90 91 89 4
90 92 93 91 4 92 94 95 93 4
94 96 97 95 4 96 98 99 97 4
100 101 102 103 4 101 104 105 102 4
104 106 107 105 4 106 108 109 107 4
108 110 111 109 4 110 112 113 111 4
112 114 115 113 4 114 116 117 115 4
116 118 119 117 4 118 120 121 119 4
120 122 123 121 4 122 124 125 123 4
124 126 127 125 4 126 128 129 127 4
128 130 131 129 4 130 132 133 131 4
132 134 135 133 4 134 136 137 135 4
136 138 139 137 4 138 140 141 139 4
140 142 143 141 4 142 144 145 143 4
144 146 147 145 4 146 148 149 147 4
150 151 152 153 4 151 154 155 152 4
154 156 157 155 4 156 158 159 157 4
158 160 161 159 4 160 162 163 161 4
162 164 165 163 4 164 166 167 165 4
166 168 169 167 4 168 170 171 169 4
170 172 173 171 4 172 174 175 173 4
174 176 177 175 4 176 178 179 177 4
178 180 181 179 4 180 182 183 181 4
182 184 185 183 4 184 186 187 185 4
186 188 189 187 4 188 190 191 189 4
190 192 193 191 4 192 194 195 193 4
194 196 197 195 4 196 198 199 197 4
0 3 200 201 4 201 200 202 203 4
203 202 204 205 4 205 204 206 207 4
207 206 208 209 4 209 208 210 211 4
211 210 212 213 4 213 212 214 215 4
215 214 216 217 4 217 216 218 219 4
219 218 220 221 4 221 220 222 223 4
198 224 225 199 4 224 226 227 225 4
226 228 229 227 4 228 230 231 229 4
230 232 233 231 4 232 234 235 233 4
234 236 237 235 4 236 238 239 237 4
238 240 241 239 4 240 242 243 241 4
242 244 245 243 4 244 223 222 245 4
50 53 246 247 4 247 246 248 249 4
249 248 250 251 4 251 250 252 253 4
253 252 254 255 4 255 254 256 257 4
257 256 258 259 4 259 258 260 261 4
261 260 262 263 4 263 262 264 265 4
265 264 266 267 4 267 266 268 269 4
48 270 271 49 4 270 272 273 271 4
272 274 275 273 4 274 276 277 275 4
276 278 279 277 4 278 280 281 279 4
280 282 283 281 4 282 284 285 283 4
284 286 287 285 4 286 288 289 287 4
288 290 291 289 4 290 269 268 291 4
100 103 292 293 4 293 292 294 295 4
295 294 296 297 4 297 296 298 299 4
299 298 300 301 4 301 300 302 303 4
303 302 304 305 4 305 304 306 307 4
307 306 308 309 4 309 308 310 311 4
311 310 312 313 4 313 312 314 315 4
98 316 317 99 4 316 318 319 317 4
318 320 321 319 4 320 322 323 321 4
322 324 325 323 4 324 326 327 325 4
326 328 329 327 4 328 330 331 329 4
330 332 333 331 4 332 334 335 333 4
334 336 337 335 4 336 315 314 337 4
150 153 338 339 4 339 338 340 341 4
341 340 342 343 4 343 342 344 345 4
345 344 346 347 4 347 346 348 349 4
349 348 350 351 4 351 350 352 353 4
353 352 354 355 4 355 354 356 357 4
357 356 358 359 4 359 358 360 361 4
148 362 363 149 4 362 364 365 363 4
364 366 367 365 4 366 368 369 367 4
368 370 371 369 4 370 372 373 371 4
372 374 375 373 4 374 376 377 375 4
376 378 379 377 4 378 380 381 379 4
380 382 383 381 4 382 361 360 383 
CELL_DATA 192
FIELD attributes 5
patchID 1 192 float
0 0 0 0 0 0 0 0 0 0 0
0 0 0 0 0 0 0 0 0 0
0 0 0 0 0 0 0 0 0 0
0 0 0 0 0 0 0 0 0 0
0 0 0 0 0 0 0 0 0 0
0 0 0 0 0 0 0 0 0 0
0 0 0 0 0 0 0 0 0 0
0 0 0 0 0 0 0 0 0 0
0 0 0 0 0 0 0 0 0 0
0 0 0 0 0 0 0 0 0 0
0 0 0 0 0 0 0 0 0 0
0 0 0 0 0 0 0 0 0 0
0 0 0 0 0 0 0 0 0 0
0 0 0 0 0 0 0 0 0 0
0 0 0 0 0 0 0 0 0 0
0 0 0 0 0 0 0 0 0 0
0 0 0 0 0 0 0 0 0 0
0 0 0 0 0 0 0 0 0 0
0 0 0 0 0 0 0 0 0 0
0 
p 1 192 float
0 -0.0217229 -0.0233673 -0.0120929 0.0336398 0.0236802 0.0632792 0.0936678 0.12896 0.256012 0.232146
0.226476 0.244283 0.254008 0.25446 0.247247 0.216748 0.314482 0.384752 0.629074 0.714852
0.670831 0.683117 0.747483 -0.288491 -0.325817 -0.343132 -0.347508 -0.100633 -0.159077 -0.235117
-0.020296 -0.228943 -0.155824 -0.0754628 0.0180333 0.13268 0.269217 0.359448 0.378696 0.489096
0.606189 0.643472 0.713493 0.717569 0.686399 0.648732 0.621002 1.27571 1.25062 1.25963
1.29323 1.33176 1.31728 1.38057 1.88292 1.94877 2.00287 1.98171 1.41943 1.47235
1.52987 1.61611 1.74299 1.88576 1.89158 1.50155 2.17381 1.65274 1.94162 2.00791
1.88865 6.37414 5.92195 6.05709 4.43703 3.67025 3.59424 3.57927 3.57801 3.5903
3.61441 3.64909 3.69004 3.73336 3.78364 3.83886 4.15951 5.24935 5.19629 4.97317
4.75409 4.57628 4.52682 4.54281 4.59296 0 2.06378 3.64023 5.55697 7.61856
9.84614 12.2465 14.8215 17.5777 20.498 23.5129 25.8597 4.59296 6.63211 8.14981
10.4904 12.3642 15.0844 18.2983 21.9774 26.0595 30.8389 35.4608 40.2413 -0.288491
1.84757 3.46024 5.43118 7.58926 9.94295 12.5135 15.3688 18.4557 21.6261 24.7994
27.1627 0.747483 2.61474 4.42714 7.54938 11.4693 10.8575 13.8957 17.2852 21.4226
26.0457 30.7084 35.4194 1.27571 3.26335 4.87149 6.86257 9.05324 11.4313 14.0538
17.0062 20.0549 23.0129 25.8634 27.5248 0.621002 2.43781 4.1255 6.33983 8.64654
12.498 15.0567 17.8832 21.9857 26.7572 32.3478 38.8114 6.37414 5.74461 7.19206
9.26842 11.4451 13.8121 16.3775 19.1478 22.1019 25.1975 28.3153 31.0697 1.88865
3.88168 5.5956 7.40657 9.76752 12.6788 15.2442 23.0779 28.2027 27.2036 31.1218
35.7601 
alpha.water 1 192 float
2.7142e-06 1.58226e-05 1.25248e-05 0.000759857 0.00186987 0.000255122 4.52168e-05 0.000113915 0.00127999 0.00380858 0.00280412
1.98228e-10 2.90888e-10 4.37008e-10 4.83722e-10 0.000778476 0.00584519 0.0091363 0.00407838 0.000215099 1.18354e-09
0.00677087 0.021112 0.0235054 1.01544e-06 5.17435e-08 5.17836e-08 0.00472057 0.0111902 0.000162875 0.00219513
0.00979576 0.000295373 2.4113e-10 2.29032e-05 0.000221865 0.000268598 0.000140263 0.00149525 0.0064532 0.0107281
0.00962196 0.00154278 5.12306e-05 5.12306e-05 7.24518e-05 2.07539e-05 7.41919e-06 1.0722e-07 3.74989e-07 1.73806e-08
1.73806e-08 1.74154e-08 0.00887279 0.0362159 0.063095 0.063095 0.063095 0.0619278 0.00648051 2.26647e-10
2.65676e-10 2.65676e-10 2.65676e-10 3.00618e-10 0.00233419 0.0390864 0.0664324 0.0373888 0.0200434 0.0159746
0.0160899 0.212671 0.193934 0.19767 0.119549 0.0190005 0.000580743 2.58787e-10 2.5882e-10 2.97436e-10
6.01386e-06 1.79507e-05 1.21164e-05 2.13115e-10 2.4368e-10 2.88481e-10 0.0757193 0.169574 0.169574 0.169574
0.169574 0.169574 0.169574 0.169574 0.169574 2.7142e-06 9.93679e-06 1.0635e-05 5.1197e-07 1.32121e-08
3.61921e-06 7.41852e-06 1.94154e-06 6.09683e-05 0.00127801 0.000755165 0.00016465 0.169574 0.169574 0.0817503
0.0652459 0.000120188 0.00276358 0.0141119 0.0134022 0.000481568 6.40117e-10 0.0088944 0.0303657 1.01544e-06
1.01547e-06 1.0155e-06 1.01553e-06 1.60146e-05 6.0757e-05 4.97086e-05 0.000122747 0.000123929 0.00507664 0.00322579
0.0024698 0.0235054 1.1373e-09 0.0126092 0.199578 0.241526 2.77593e-10 2.95582e-10 0.00107411 0.0229322
0.0288044 0.0232957 0.0117768 1.0722e-07 1.14239e-06 5.52046e-09 5.51898e-09 6.99248e-05 0.000164629 3.60052e-05
0.0013626 0.00180751 0.000652644 0.000251269 1.09063e-05 7.41919e-06 2.18128e-05 2.18782e-05 2.19448e-05 0.0405434
0.103027 0.0721179 2.5298e-10 2.71786e-10 3.05833e-05 0.000221038 0.000223883 0.212671 0.0172865 0.00346549
0.000840631 0.00126527 0.00114558 0.000325904 5.73615e-10 8.42265e-07 2.11798e-10 1.9759e-10 0.00210998 0.0160899
0.0462499 0.00618886 0.0257672 0.0281473 0.0164938 0.0695448 0.377758 0.395816 0.0852457 2.17144e-10
3.97347e-05 
p_rgh 1 192 float
0 -0.0217229 -0.0233673 -0.0120929 0.0336398 0.0236802 0.0632792 0.0936678 0.12896 0.256012 0.232146
0.226476 0.244283 0.254008 0.25446 0.247247 0.216748 0.314482 0.384752 0.629074 0.714852
0.670831 0.683117 0.747483 -0.288491 -0.325817 -0.343132 -0.347508 -0.100633 -0.159077 -0.235117
-0.020296 -0.228943 -0.155824 -0.0754628 0.0180333 0.13268 0.269217 0.359448 0.378696 0.489096
0.606189 0.643472 0.713493 0.717569 0.686399 0.648732 0.621002 1.27571 1.25062 1.25963
1.29323 1.33176 1.31728 1.38057 1.88292 1.94877 2.00287 1.98171 1.41943 1.47235
1.52987 1.61611 1.74299 1.88576 1.89158 1.50155 2.17381 1.65274 1.94162 2.00791
1.88865 6.37414 5.92195 6.05709 4.43703 3.67025 3.59424 3.57927 3.57801 3.5903
3.61441 3.64909 3.69004 3.73336 3.78364 3.83886 4.15951 5.24935 5.19629 4.97317
4.75409 4.57628 4.52682 4.54281 4.59296 0 2.06378 3.64023 5.55697 7.61856
9.84614 12.2465 14.8215 17.5777 20.498 23.5129 25.8597 4.59296 6.63211 8.14981
10.4904 12.3642 15.0844 18.2983 21.9774 26.0595 30.8389 35.4608 40.2413 -0.288491
1.84757 3.46024 5.43118 7.58926 9.94295 12.5135 15.3688 18.4557 21.6261 24.7994
27.1627 0.747483 2.61474 4.42714 7.54938 11.4693 10.8575 13.8957 17.2852 21.4226
26.0457 30.7084 35.4194 1.27571 3.26335 4.87149 6.86257 9.05324 11.4313 14.0538
17.0062 20.0549 23.0129 25.8634 27.5248 0.621002 2.43781 4.1255 6.33983 8.64654
12.498 15.0567 17.8832 21.9857 26.7572 32.3478 38.8114 6.37414 5.74461 7.19206
9.26842 11.4451 13.8121 16.3775 19.1478 22.1019 25.1975 28.3153 31.0697 1.88865
3.88168 5.5956 7.40657 9.76752 12.6788 15.2442 23.0779 28.2027 27.2036 31.1218
35.7601 
U 3 192 float
0.0041094 0.125529 0 0.0123106 0.124992 0 0.0204591 0.123919 0 0.02852 0.122315
0 0.0364587 0.120188 0 0.0442413 0.117546 0 0.0518345 0.114401 0
0.0592057 0.110766 0 0.0663234 0.106657 0 0.0731571 0.102091 0 0.0796775
0.0970873 0 0.0858567 0.0916683 0 0.0916683 0.0858567 0 0.0970873 0.0796775
0 0.102091 0.0731571 0 0.106657 0.0663234 0 0.110766 0.0592057 0
0.114401 0.0518345 0 0.117546 0.0442413 0 0.120188 0.0364587 0 0.122315
0.02852 0 0.123919 0.0204591 0 0.124992 0.0123106 0 0.125529 0.0041094
0 0.125529 -0.0041094 0 0.124992 -0.0123106 0 0.123919 -0.0204591 0
0.122315 -0.02852 0 0.120188 -0.0364587 0 0.117546 -0.0442413 0 0.114401
-0.0518345 0 0.110766 -0.0592057 0 0.106657 -0.0663234 0 0.102091 -0.0731571
0 0.0970873 -0.0796775 0 0.0916683 -0.0858567 0 0.0858567 -0.0916683 0
0.0796775 -0.0970873 0 0.0731571 -0.102091 0 0.0663234 -0.106657 0 0.0592057
-0.110766 0 0.0518345 -0.114401 0 0.0442413 -0.117546 0 0.0364587 -0.120188
0 0.02852 -0.122315 0 0.0204591 -0.123919 0 0.0123106 -0.124992 0
0.0041094 -0.125529 0 -0.0041094 -0.125529 0 -0.0123106 -0.124992 0 -0.0204591
-0.123919 0 -0.02852 -0.122315 0 -0.0364587 -0.120188 0 -0.0442413 -0.117546
0 -0.0518345 -0.114401 0 -0.0592057 -0.110766 0 -0.0663234 -0.106657 0
-0.0731571 -0.102091 0 -0.0796775 -0.0970873 0 -0.0858567 -0.0916683 0 -0.0916683
-0.0858567 0 -0.0970873 -0.0796775 0 -0.102091 -0.0731571 0 -0.106657 -0.0663234
0 -0.110766 -0.0592057 0 -0.114401 -0.0518345 0 -0.117546 -0.0442413 0
-0.120188 -0.0364587 0 -0.122315 -0.02852 0 -0.123919 -0.0204591 0 -0.124992
-0.0123106 0 -0.125529 -0.0041094 0 -0.125529 0.0041094 0 -0.124992 0.0123106
0 -0.123919 0.0204591 0 -0.122315 0.02852 0 -0.120188 0.0364587 0
-0.117546 0.0442413 0 -0.114401 0.0518345 0 -0.110766 0.0592057 0 -0.106657
0.0663234 0 -0.102091 0.0731571 0 -0.0970873 0.0796775 0 -0.0916683 0.0858567
0 -0.0858567 0.0916683 0 -0.0796775 0.0970873 0 -0.0731571 0.102091 0
-0.0663234 0.106657 0 -0.0592057 0.110766 0 -0.0518345 0.114401 0 -0.0442413
0.117546 0 -0.0364587 0.120188 0 -0.02852 0.122315 0 -0.0204591 0.123919
0 -0.0123106 0.124992 0 -0.0041094 0.125529 0 0 0.136136 0
0 0.15708 0 0 0.178024 0 0 0.198968 0 0
0.219911 0 0 0.240855 0 0 0.261799 0 0 0.282743
0 0 0.303687 0 0 0.324631 0 0 0.345575 0
0 0.366519 0 0 0.136136 0 0 0.15708 0 0
0.178024 0 0 0.198968 0 0 0.219911 0 0 0.240855
0 0 0.261799 0 0 0.282743 0 0 0.303687 0
0 0.324631 0 0 0.345575 0 0 0.366519 0 0.136136
2.44349e-10 0 0.15708 2.81942e-10 0 0.178024 3.19534e-10 0 0.198968 3.57126e-10
0 0.219911 3.94718e-10 0 0.240855 4.32311e-10 0 0.261799 4.69903e-10 0
0.282743 5.07495e-10 0 0.303687 5.45087e-10 0 0.324631 5.8268e-10 0 0.345575
6.20272e-10 0 0.366519 6.57864e-10 0 0.136136 2.44349e-10 0 0.15708 2.81942e-10
0 0.178024 3.19534e-10 0 0.198968 3.57126e-10 0 0.219911 3.94718e-10 0
0.240855 4.32311e-10 0 0.261799 4.69903e-10 0 0.282743 5.07495e-10 0 0.303687
5.45087e-10 0 0.324631 5.8268e-10 0 0.345575 6.20272e-10 0 0.366519 6.57864e-10
0 -4.88699e-10 -0.136136 0 -5.63883e-10 -0.15708 0 -6.39068e-10 -0.178024 0
-7.14252e-10 -0.198968 0 -7.89437e-10 -0.219911 0 -8.64621e-10 -0.240855 0 -9.39806e-10
-0.261799 0 -1.01499e-09 -0.282743 0 -1.09017e-09 -0.303687 0 -1.16536e-09 -0.324631
0 -1.24054e-09 -0.345575 0 -1.31573e-09 -0.366519 0 -4.88699e-10 -0.136136 0
-5.63883e-10 -0.15708 0 -6.39068e-10 -0.178024 0 -7.14252e-10 -0.198968 0 -7.89437e-10
-0.219911 0 -8.64621e-10 -0.240855 0 -9.39806e-10 -0.261799 0 -1.01499e-09 -0.282743
0 -1.09017e-09 -0.303687 0 -1.16536e-09 -0.324631 0 -1.24054e-09 -0.345575 0
-1.31573e-09 -0.366519 0 -0.136136 2.44349e-10 0 -0.15708 2.81942e-10 0 -0.178024
3.19534e-10 0 -0.198968 3.57126e-10 0 -0.219911 3.94718e-10 0 -0.240855 4.32311e-10
0 -0.261799 4.69903e-10 0 -0.282743 5.07495e-10 0 -0.303687 5.45087e-10 0
-0.324631 5.8268e-10 0 -0.345575 6.20272e-10 0 -0.366519 6.57864e-10 0 -0.136136
2.44349e-10 0 -0.15708 2.81942e-10 0 -0.178024 3.19534e-10 0 -0.198968 3.57126e-10
0 -0.219911 3.94718e-10 0 -0.240855 4.32311e-10 0 -0.261799 4.69903e-10 0
-0.282743 5.07495e-10 0 -0.303687 5.45087e-10 0 -0.324631 5.8268e-10 0 -0.345575
6.20272e-10 0 -0.366519 6.57864e-10 0 
POINT_DATA  384
FIELD attributes 4
p 1 384 float
0 -0.0108614 -0.0108614 0 -0.0225451 -0.0225451 -0.0177301 -0.0177301 0.0107735 0.0107735 0.02866
0.02866 0.0434797 0.0434797 0.0784735 0.0784735 0.111314 0.111314 0.192486 0.192486 0.244079
0.244079 0.229311 0.229311 0.23538 0.23538 0.249145 0.249145 0.254234 0.254234 0.250854
0.250854 0.231998 0.231998 0.265615 0.265615 0.349617 0.349617 0.506913 0.506913 0.671963
0.671963 0.692841 0.692841 0.676974 0.676974 0.7153 0.7153 0.747483 0.747483 -0.288491
-0.307154 -0.307154 -0.288491 -0.334475 -0.334475 -0.34532 -0.34532 -0.224071 -0.224071 -0.129855
-0.129855 -0.197097 -0.197097 -0.127706 -0.127706 -0.124619 -0.124619 -0.192383 -0.192383 -0.115643
-0.115643 -0.0287147 -0.0287147 0.0753566 0.0753566 0.200949 0.200949 0.314332 0.314332 0.369072
0.369072 0.433896 0.433896 0.547643 0.547643 0.62483 0.62483 0.678482 0.678482 0.715531
0.715531 0.701984 0.701984 0.667566 0.667566 0.634867 0.634867 0.621002 0.621002 1.27571
1.26316 1.26316 1.27571 1.25513 1.25513 1.27643 1.27643 1.31249 1.31249 1.32452
1.32452 1.34892 1.34892 1.63174 1.63174 1.91585 1.91585 1.97582 1.97582 1.99229
1.99229 1.70057 1.70057 1.44589 1.44589 1.50111 1.50111 1.57299 1.57299 1.67955
1.67955 1.81438 1.81438 1.88867 1.88867 1.69657 1.69657 1.83768 1.83768 1.91328
1.91328 1.79718 1.79718 1.97476 1.97476 1.94828 1.94828 1.88865 1.88865 6.37414
6.14805 6.14805 6.37414 5.98952 5.98952 5.24706 5.24706 4.05364 4.05364 3.63225
3.63225 3.58676 3.58676 3.57864 3.57864 3.58416 3.58416 3.60236 3.60236 3.63175
3.63175 3.66956 3.66956 3.7117 3.7117 3.7585 3.7585 3.81125 3.81125 3.99919
3.99919 4.70443 4.70443 5.22282 5.22282 5.08473 5.08473 4.86363 4.86363 4.66518
4.66518 4.55155 4.55155 4.53481 4.53481 4.56788 4.56788 4.59296 4.59296 1.03189
1.03189 2.85201 2.85201 4.5986 4.5986 6.58777 6.58777 8.73235 8.73235 11.0463
11.0463 13.534 13.534 16.1996 16.1996 19.0378 19.0378 22.0054 22.0054 24.6863
24.6863 33.0505 33.0505 5.61253 5.61253 7.39096 7.39096 9.3201 9.3201 11.4273
11.4273 13.7243 13.7243 16.6914 16.6914 20.1378 20.1378 24.0184 24.0184 28.4492
28.4492 33.1498 33.1498 37.8511 37.8511 0.77954 0.77954 2.6539 2.6539 4.44571
4.44571 6.51022 6.51022 8.7661 8.7661 11.2282 11.2282 13.9411 13.9411 16.9123
16.9123 20.0409 20.0409 23.2127 23.2127 25.9811 25.9811 31.291 31.291 1.68111
1.68111 3.52094 3.52094 5.98826 5.98826 9.50934 9.50934 11.1634 11.1634 12.3766
12.3766 15.5905 15.5905 19.3539 19.3539 23.7341 23.7341 28.3771 28.3771 33.0639
33.0639 2.26953 2.26953 4.06742 4.06742 5.86703 5.86703 7.9579 7.9579 10.2423
10.2423 12.7425 12.7425 15.53 15.53 18.5306 18.5306 21.5339 21.5339 24.4382
24.4382 26.6941 26.6941 33.1681 33.1681 1.52941 1.52941 3.28166 3.28166 5.23267
5.23267 7.49319 7.49319 10.5723 10.5723 13.7774 13.7774 16.4699 16.4699 19.9345
19.9345 24.3715 24.3715 29.5525 29.5525 35.5796 35.5796 6.05937 6.05937 6.46834
6.46834 8.23024 8.23024 10.3568 10.3568 12.6286 12.6286 15.0948 15.0948 17.7626
17.7626 20.6248 20.6248 23.6497 23.6497 26.7564 26.7564 29.6925 29.6925 33.4149
33.4149 2.88516 2.88516 4.73864 4.73864 6.50108 6.50108 8.58704 8.58704 11.2232
11.2232 13.9615 13.9615 19.1611 19.1611 25.6403 25.6403 27.7031 27.7031 29.1627
29.1627 33.4409 33.4409 
alpha.water 1 384 float
2.7142e-06 9.2684e-06 9.2684e-06 2.7142e-06 1.41737e-05 1.41737e-05 0.000386191 0.000386191 0.00131486 0.00131486 0.0010625
0.0010625 0.000150169 0.000150169 7.95659e-05 7.95659e-05 0.000696953 0.000696953 0.00254429 0.00254429 0.00330635
0.00330635 0.00140206 0.00140206 2.44558e-10 2.44558e-10 3.63948e-10 3.63948e-10 4.60365e-10 4.60365e-10 0.000389238
0.000389238 0.00331183 0.00331183 0.00749074 0.00749074 0.00660734 0.00660734 0.00214674 0.00214674 0.00010755
0.00010755 0.00338544 0.00338544 0.0139414 0.0139414 0.0223087 0.0223087 0.0235054 0.0235054 1.01544e-06
5.33592e-07 5.33592e-07 1.01544e-06 5.17635e-08 5.17635e-08 0.00236031 0.00236031 0.00795539 0.00795539 0.00567654
0.00567654 0.001179 0.001179 0.00599544 0.00599544 0.00504557 0.00504557 0.000147687 0.000147687 1.14517e-05
1.14517e-05 0.000122384 0.000122384 0.000245231 0.000245231 0.000204431 0.000204431 0.000817757 0.000817757 0.00397422
0.00397422 0.00859065 0.00859065 0.010175 0.010175 0.00558237 0.00558237 0.000797005 0.000797005 5.12306e-05
5.12306e-05 6.18412e-05 6.18412e-05 4.66029e-05 4.66029e-05 1.40865e-05 1.40865e-05 7.41919e-06 7.41919e-06 1.0722e-07
2.41104e-07 2.41104e-07 1.0722e-07 1.96185e-07 1.96185e-07 1.73806e-08 1.73806e-08 1.7398e-08 1.7398e-08 0.0044364
0.0044364 0.0225443 0.0225443 0.0496554 0.0496554 0.063095 0.063095 0.063095 0.063095 0.0625114
0.0625114 0.0342042 0.0342042 0.00324026 0.00324026 2.46162e-10 2.46162e-10 2.65676e-10 2.65676e-10 2.65676e-10
2.65676e-10 2.83147e-10 2.83147e-10 0.0011671 0.0011671 0.0207103 0.0207103 0.0527594 0.0527594 0.0519106
0.0519106 0.0287161 0.0287161 0.018009 0.018009 0.0160323 0.0160323 0.0160899 0.0160899 0.212671
0.203303 0.203303 0.212671 0.195802 0.195802 0.158609 0.158609 0.0692748 0.0692748 0.00979062
0.00979062 0.000290372 0.000290372 2.58804e-10 2.58804e-10 2.78128e-10 2.78128e-10 3.00708e-06 3.00708e-06 1.19823e-05
1.19823e-05 1.50335e-05 1.50335e-05 6.05831e-06 6.05831e-06 2.28397e-10 2.28397e-10 2.6608e-10 2.6608e-10 0.0378596
0.0378596 0.122647 0.122647 0.169574 0.169574 0.169574 0.169574 0.169574 0.169574 0.169574
0.169574 0.169574 0.169574 0.169574 0.169574 0.169574 0.169574 0.169574 0.169574 6.3255e-06
6.3255e-06 1.02859e-05 1.02859e-05 5.57348e-06 5.57348e-06 2.62591e-07 2.62591e-07 1.81621e-06 1.81621e-06 5.51886e-06
5.51886e-06 4.68003e-06 4.68003e-06 3.14549e-05 3.14549e-05 0.000669489 0.000669489 0.00101659 0.00101659 0.000459907
0.000459907 0.0152652 0.0152652 0.169574 0.169574 0.125662 0.125662 0.0734981 0.0734981 0.032683
0.032683 0.00144188 0.00144188 0.00843774 0.00843774 0.0137571 0.0137571 0.00694188 0.00694188 0.000240784
0.000240784 0.0044472 0.0044472 0.0196301 0.0196301 1.01546e-06 1.01546e-06 1.01549e-06 1.01549e-06 1.01551e-06
1.01551e-06 8.51507e-06 8.51507e-06 3.83858e-05 3.83858e-05 5.52328e-05 5.52328e-05 8.62278e-05 8.62278e-05 0.000123338
0.000123338 0.00260028 0.00260028 0.00415121 0.00415121 0.00284779 0.00284779 0.0071233 0.0071233 0.0117527
0.0117527 0.0063046 0.0063046 0.106094 0.106094 0.220552 0.220552 0.120763 0.120763 2.86588e-10
2.86588e-10 0.000537055 0.000537055 0.0120032 0.0120032 0.0258683 0.0258683 0.02605 0.02605 0.0175363
0.0175363 6.24805e-07 6.24805e-07 5.73955e-07 5.73955e-07 5.51972e-09 5.51972e-09 3.49652e-05 3.49652e-05 0.000117277
0.000117277 0.000100317 0.000100317 0.000699303 0.000699303 0.00158506 0.00158506 0.00123008 0.00123008 0.000451956
0.000451956 0.000131088 0.000131088 0.000117395 0.000117395 1.4616e-05 1.4616e-05 2.18455e-05 2.18455e-05 2.19115e-05
2.19115e-05 0.0202827 0.0202827 0.0717852 0.0717852 0.0875724 0.0875724 0.036059 0.036059 2.62383e-10
2.62383e-10 1.52918e-05 1.52918e-05 0.000125811 0.000125811 0.00022246 0.00022246 0.114979 0.114979 0.010376
0.010376 0.00215306 0.00215306 0.00105295 0.00105295 0.00120543 0.00120543 0.000735742 0.000735742 0.000162952
0.000162952 4.21419e-07 4.21419e-07 4.21238e-07 4.21238e-07 2.04694e-10 2.04694e-10 0.00105499 0.00105499 0.00107486
0.00107486 0.0311699 0.0311699 0.0262194 0.0262194 0.015978 0.015978 0.0269572 0.0269572 0.0223205
0.0223205 0.0430193 0.0430193 0.223651 0.223651 0.386787 0.386787 0.240531 0.240531 0.0426228
0.0426228 1.98675e-05 1.98675e-05 
p_rgh 1 384 float
0 -0.0108614 -0.0108614 0 -0.0225451 -0.0225451 -0.0177301 -0.0177301 0.0107735 0.0107735 0.02866
0.02866 0.0434797 0.0434797 0.0784735 0.0784735 0.111314 0.111314 0.192486 0.192486 0.244079
0.244079 0.229311 0.229311 0.23538 0.23538 0.249145 0.249145 0.254234 0.254234 0.250854
0.250854 0.231998 0.231998 0.265615 0.265615 0.349617 0.349617 0.506913 0.506913 0.671963