# vtk DataFile Version 2.0
rotor
ASCII
DATASET POLYDATA
POINTS 384 float
0.02 0 0 0.0199572 -0.00130806 0 0.0199572 -0.00130806 0.01 0.02 0
0.01 0.0198289 -0.00261052 0 0.0198289 -0.00261052 0.01 0.0196157 -0.00390181 0
0.0196157 -0.00390181 0.01 0.0193185 -0.00517638 0 0.0193185 -0.00517638 0.01 0.0189386
-0.00642879 0 0.0189386 -0.00642879 0.01 0.0184776 -0.00765367 0 0.0184776 -0.00765367
0.01 0.0179375 -0.00884577 0 0.0179375 -0.00884577 0.01 0.0173205 -0.01 0
0.0173205 -0.01 0.01 0.0166294 -0.0111114 0 0.0166294 -0.0111114 0.01 0.0158671
-0.0121752 0 0.0158671 -0.0121752 0.01 0.0150368 -0.0131869 0 0.0150368 -0.0131869
0.01 0.0141421 -0.0141421 0 0.0141421 -0.0141421 0.01 0.0131869 -0.0150368 0
0.0131869 -0.0150368 0.01 0.0121752 -0.0158671 0 0.0121752 -0.0158671 0.01 0.0111114
-0.0166294 0 0.0111114 -0.0166294 0.01 0.01 -0.0173205 0 0.01 -0.0173205
0.01 0.00884577 -0.0179375 0 0.00884577 -0.0179375 0.01 0.00765367 -0.0184776 0
0.00765367 -0.0184776 0.01 0.00642879 -0.0189386 0 0.00642879 -0.0189386 0.01 0.00517638
-0.0193185 0 0.00517638 -0.0193185 0.01 0.00390181 -0.0196157 0 0.00390181 -0.0196157
0.01 0.00261052 -0.0198289 0 0.00261052 -0.0198289 0.01 0.00130806 -0.0199572 0
0.00130806 -0.0199572 0.01 3.58979e-11 -0.02 0 3.58979e-11 -0.02 0.01 3.58979e-11
-0.02 0 -0.00130806 -0.0199572 0 -0.00130806 -0.0199572 0.01 3.58979e-11 -0.02
0.01 -0.00261052 -0.0198289 0 -0.00261052 -0.0198289 0.01 -0.00390181 -0.0196157 0
-0.00390181 -0.0196157 0.01 -0.00517638 -0.0193185 0 -0.00517638 -0.0193185 0.01 -0.00642879
-0.0189386 0 -0.00642879 -0.0189386 0.01 -0.00765367 -0.0184776 0 -0.00765367 -0.0184776
0.01 -0.00884577 -0.0179375 0 -0.00884577 -0.0179375 0.01 -0.01 -0.0173205 0
-0.01 -0.0173205 0.01 -0.0111114 -0.0166294 0 -0.0111114 -0.0166294 0.01 -0.0121752
-0.0158671 0 -0.0121752 -0.0158671 0.01 -0.0131869 -0.0150368 0 -0.0131869 -0.0150368
0.01 -0.0141421 -0.0141421 0 -0.0141421 -0.0141421 0.01 -0.0150368 -0.0131869 0
-0.0150368 -0.0131869 0.01 -0.0158671 -0.0121752 0 -0.0158671 -0.0121752 0.01 -0.0166294
-0.0111114 0 -0.0166294 -0.0111114 0.01 -0.0173205 -0.01 0 -0.0173205 -0.01
0.01 -0.0179375 -0.00884577 0 -0.0179375 -0.00884577 0.01 -0.0184776 -0.00765367 0
-0.0184776 -0.00765367 0.01 -0.0189386 -0.00642879 0 -0.0189386 -0.00642879 0.01 -0.0193185
-0.00517638 0 -0.0193185 -0.00517638 0.01 -0.0196157 -0.00390181 0 -0.0196157 -0.00390181
0.01 -0.0198289 -0.00261052 0 -0.0198289 -0.00261052 0.01 -0.0199572 -0.00130806 0
-0.0199572 -0.00130806 0.01 -0.02 7.17959e-11 0 -0.02 7.17959e-11 0.01 -0.02
7.17959e-11 0 -0.0199572 0.00130806 0 -0.0199572 0.00130806 0.01 -0.02 7.17959e-11
0.01 -0.0198289 0.00261052 0 -0.0198289 0.00261052 0.01 -0.0196157 0.00390181 0
-0.0196157 0.00390181 0.01 -0.0193185 0.00517638 0 -0.0193185 0.00517638 0.01 -0.0189386
0.00642879 0 -0.0189386 0.00642879 0.01 -0.0184776 0.00765367 0 -0.0184776 0.00765367
0.01 -0.0179375 0.00884577 0 -0.0179375 0.00884577 0.01 -0.0173205 0.01 0
-0.0173205 0.01 0.01 -0.0166294 0.0111114 0 -0.0166294 0.0111114 0.01 -0.0158671
0.0121752 0 -0.0158671 0.0121752 0.01 -0.0150368 0.0131869 0 -0.0150368 0.0131869
0.01 -0.0141421 0.0141421 0 -0.0141421 0.0141421 0.01 -0.0131869 0.0150368 0
-0.0131869 0.0150368 0.01 -0.0121752 0.0158671 0 -0.0121752 0.0158671 0.01 -0.0111114
0.0166294 0 -0.0111114 0.0166294 0.01 -0.01 0.0173205 0 -0.01 0.0173205
0.01 -0.00884577 0.0179375 0 -0.00884577 0.0179375 0.01 -0.00765367 0.0184776 0
-0.00765367 0.0184776 0.01 -0.00642879 0.0189386 0 -0.00642879 0.0189386 0.01 -0.00517638
0.0193185 0 -0.00517638 0.0193185 0.01 -0.00390181 0.0196157 0 -0.00390181 0.0196157
0.01 -0.00261052 0.0198289 0 -0.00261052 0.0198289 0.01 -0.00130806 0.0199572 0
-0.00130806 0.0199572 0.01 3.58979e-11 0.02 0 3.58979e-11 0.02 0.01 3.58979e-11
0.02 0 0.00130806 0.0199572 0 0.00130806 0.0199572 0.01 3.58979e-11 0.02
0.01 0.00261052 0.0198289 0 0.00261052 0.0198289 0.01 0.00390181 0.0196157 0
0.00390181 0.0196157 0.01 0.00517638 0.0193185 0 0.00517638 0.0193185 0.01 0.00642879
0.0189386 0 0.00642879 0.0189386 0.01 0.00765367 0.0184776 0 0.00765367 0.0184776
0.01 0.00884577 0.0179375 0 0.00884577 0.0179375 0.01 0.01 0.0173205 0
0.01 0.0173205 0.01 0.0111114 0.0166294 0 0.0111114 0.0166294 0.01 0.0121752
0.0158671 0 0.0121752 0.0158671 0.01 0.0131869 0.0150368 0 0.0131869 0.0150368
0.01 0.0141421 0.0141421 0 0.0141421 0.0141421 0.01 0.0150368 0.0131869 0
0.0150368 0.0131869 0.01 0.0158671 0.0121752 0 0.0158671 0.0121752 0.01 0.0166294
0.0111114 0 0.0166294 0.0111114 0.01 0.0173205 0.01 0 0.0173205 0.01
0.01 0.0179375 0.00884577 0 0.0179375 0.00884577 0.01 0.0184776 0.00765367 0
0.0184776 0.00765367 0.01 0.0189386 0.00642879 0 0.0189386 0.00642879 0.01 0.0193185
0.00517638 0 0.0193185 0.00517638 0.01 0.0196157 0.00390181 0 0.0196157 0.00390181
0.01 0.0198289 0.00261052 0 0.0198289 0.00261052 0.01 0.0199572 0.00130806 0
0.0199572 0.00130806 0.01 0.02 0 0 0.02 0 0.01 0.0233333
0 0.01 0.0233333 0 0 0.0266667 0 0.01 0.0266667 0
0 0.03 0 0.01 0.03 0 0 0.0333333 0 0.01
0.0333333 0 0 0.0366667 0 0.01 0.0366667 0 0 0.04
0 0.01 0.04 0 0 0.0433333 0 0.01 0.0433333 0
0 0.0466667 0 0.01 0.0466667 0 0 0.05 0 0.01
0.05 0 0 0.0533333 0 0.01 0.0533333 0 0 0.0566667
0 0.01 0.0566667 0 0 0.06 0 0.01 0.06 0
0 0.0233333 0 0 0.0233333 0 0.01 0.0266667 0 0
0.0266667 0 0.01 0.03 0 0 0.03 0 0.01 0.0333333
0 0 0.0333333 0 0.01 0.0366667 0 0 0.0366667 0
0.01 0.04 0 0 0.04 0 0.01 0.0433333 0 0
0.0433333 0 0.01 0.0466667 0 0 0.0466667 0 0.01 0.05
0 0 0.05 0 0.01 0.0533333 0 0 0.0533333 0
0.01 0.0566667 0 0 0.0566667 0 0.01 4.18809e-11 -0.0233333 0.01
4.18809e-11 -0.0233333 0 4.78639e-11 -0.0266667 0.01 4.78639e-11 -0.0266667 0 5.38469e-11
-0.03 0.01 5.38469e-11 -0.03 0 5.98299e-11 -0.0333333 0.01 5.98299e-11 -0.0333333
0 6.58129e-11 -0.0366667 0.01 6.58129e-11 -0.0366667 0 7.17959e-11 -0.04 0.01
7.17959e-11 -0.04 0 7.77789e-11 -0.0433333 0.01 7.77789e-11 -0.0433333 0 8.37618e-11
-0.0466667 0.01 8.37618e-11 -0.0466667 0 8.97448e-11 -0.05 0.01 8.97448e-11 -0.05
0 9.57278e-11 -0.0533333 0.01 9.57278e-11 -0.0533333 0 1.01711e-10 -0.0566667 0.01
1.01711e-10 -0.0566667 0 1.07694e-10 -0.06 0.01 1.07694e-10 -0.06 0 4.18809e-11
-0.0233333 0 4.18809e-11 -0.0233333 0.01 4.78639e-11 -0.0266667 0 4.78639e-11 -0.0266667
0.01 5.38469e-11 -0.03 0 5.38469e-11 -0.03 0.01 5.98299e-11 -0.0333333 0
5.98299e-11 -0.0333333 0.01 6.58129e-11 -0.0366667 0 6.58129e-11 -0.0366667 0.01 7.17959e-11
-0.04 0 7.17959e-11 -0.04 0.01 7.77789e-11 -0.0433333 0 7.77789e-11 -0.0433333
0.01 8.37618e-11 -0.0466667 0 8.37618e-11 -0.0466667 0.01 8.97448e-11 -0.05 0
8.97448e-11 -0.05 0.01 9.57278e-11 -0.0533333 0 9.57278e-11 -0.0533333 0.01 1.01711e-10
-0.0566667 0 1.01711e-10 -0.0566667 0.01 -0.0233333 8.37618e-11 0.01 -0.0233333 8.37618e-11
0 -0.0266667 9.57278e-11 0.01 -0.0266667 9.57278e-11 0 -0.03 1.07694e-10 0.01
-0.03 1.07694e-10 0 -0.0333333 1.1966e-10 0.01 -0.0333333 1.1966e-10 0 -0.0366667
1.31626e-10 0.01 -0.0366667 1.31626e-10 0 -0.04 1.43592e-10 0.01 -0.04 1.43592e-10
0 -0.0433333 1.55558e-10 0.01 -0.0433333 1.55558e-10 0 -0.0466667 1.67524e-10 0.01
-0.0466667 1.67524e-10 0 -0.05 1.7949e-10 0.01 -0.05 1.7949e-10 0 -0.0533333
1.91456e-10 0.01 -0.0533333 1.91456e-10 0 -0.0566667 2.03422e-10 0.01 -0.0566667 2.03422e-10
0 -0.06 2.15388e-10 0.01 -0.06 2.15388e-10 0 -0.0233333 8.37618e-11 0
-0.0233333 8.37618e-11 0.01 -0.0266667 9.57278e-11 0 -0.0266667 9.57278e-11 0.01 -0.03
1.07694e-10 0 -0.03 1.07694e-10 0.01 -0.0333333 1.1966e-10 0 -0.0333333 1.1966e-10
0.01 -0.0366667 1.31626e-10 0 -0.0366667 1.31626e-10 0.01 -0.04 1.43592e-10 0
-0.04 1.43592e-10 0.01 -0.0433333 1.55558e-10 0 -0.0433333 1.55558e-10 0.01 -0.0466667
1.67524e-10 0 -0.0466667 1.67524e-10 0.01 -0.05 1.7949e-10 0 -0.05 1.7949e-10
0.01 -0.0533333 1.91456e-10 0 -0.0533333 1.91456e-10 0.01 -0.0566667 2.03422e-10 0
-0.0566667 2.03422e-10 0.01 4.18809e-11 0.0233333 0.01 4.18809e-11 0.0233333 0 4.78639e-11
0.0266667 0.01 4.78639e-11 0.0266667 0 5.38469e-11 0.03 0.01 5.38469e-11 0.03
0 5.98299e-11 0.0333333 0.01 5.98299e-11 0.0333333 0 6.58129e-11 0.0366667 0.01
6.58129e-11 0.0366667 0 7.17959e-11 0.04 0.01 7.17959e-11 0.04 0 7.77789e-11
0.0433333 0.01 7.77789e-11 0.0433333 0 8.37618e-11 0.0466667 0.01 8.37618e-11 0.0466667
0 8.97448e-11 0.05 0.01 8.97448e-11 0.05 0 9.57278e-11 0.0533333 0.01
9.57278e-11 0.0533333 0 1.01711e-10 0.0566667 0.01 1.01711e-10 0.0566667 0 1.07694e-10
0.06 0.01 1.07694e-10 0.06 0 4.18809e-11 0.0233333 0 4.18809e-11 0.0233333
0.01 4.78639e-11 0.0266667 0 4.78639e-11 0.0266667 0.01 5.38469e-11 0.03 0
5.38469e-11 0.03 0.01 5.98299e-11 0.0333333 0 5.98299e-11 0.0333333 0.01 6.58129e-11
0.0366667 0 6.58129e-11 0.0366667 0.01 7.17959e-11 0.04 0 7.17959e-11 0.04
0.01 7.77789e-11 0.0433333 0 7.77789e-11 0.0433333 0.01 8.37618e-11 0.0466667 0
8.37618e-11 0.0466667 0.01 8.97448e-11 0.05 0 8.97448e-11 0.05 0.01 9.57278e-11
0.0533333 0 9.57278e-11 0.0533333 0.01 1.01711e-10 0.0566667 0 1.01711e-10 0.0566667
0.01 
POLYGONS 192 960
4 0 1 2 3 4 1 4 5 2 4
4 6 7 5 4 6 8 9 7 4
8 10 11 9 4 10 12 13 11 4
12 14 15 13 4 14 16 17 15 4
16 18 19 17 4 18 20 21 19 4
20 22 23 21 4 22 24 25 23 4
24 26 27 25 4 26 28 29 27 4
28 30 31 29 4 30 32 33 31 4
32 34 35 33 4 34 36 37 35 4
36 38 39 37 4 38 40 41 39 4
40 42 43 41 4 42 44 45 43 4
44 46 47 45 4 46 48 49 47 4
50 51 52 53 4 51 54 55 52 4
54 56 57 55 4 56 58 59 57 4
58 60 61 59 4 60 62 63 61 4
62 64 65 63 4 64 66 67 65 4
66 68 69 67 4 68 70 71 69 4
70 72 73 71 4 72 74 75 73 4
74 76 77 75 4 76 78 79 77 4
78 80 81 79 4 80 82 83 81 4
82 84 85 83 4 84 86 87 85 4
86 88 89 87 4 88 90 91 89 4
90 92 93 91 4 92 94 95 93 4
94 96 97 95 4 96 98 99 97 4
100 101 102 103 4 101 104 105 102 4
104 106 107 105 4 106 108 109 107 4
108 110 111 109 4 110 112 113 111 4
112 114 115 113 4 114 116 117 115 4
116 118 119 117 4 118 120 121 119 4
120 122 123 121 4 122 124 125 123 4
124 126 127 125 4 126 128 129 127 4
128 130 131 129 4 130 132 133 131 4
132 134 135 133 4 134 136 137 135 4
136 138 139 137 4 138 140 141 139 4
140 142 143 141 4 142 144 145 143 4
144 146 147 145 4 146 148 149 147 4
150 151 152 153 4 151 154 155 152 4
154 156 157 155 4 156 158 159 157 4
158 160 161 159 4 160 162 163 161 4
162 164 165 163 4 164 166 167 165 4
166 168 169 167 4 168 170 171 169 4
170 172 173 171 4 172 174 175 173 4
174 176 177 175 4 176 178 179 177 4
178 180 181 179 4 180 182 183 181 4
182 184 185 183 4 184 186 187 185 4
186 188 189 187 4 188 190 191 189 4
190 192 193 191 4 192 194 195 193 4
194 196 197 195 4 196 198 199 197 4
0 3 200 201 4 201 200 202 203 4
203 202 204 205 4 205 204 206 207 4
207 206 208 209 4 209 208 210 211 4
211 210 212 213 4 213 212 214 215 4
215 214 216 217 4 217 216 218 219 4
219 218 220 221 4 221 220 222 223 4
198 224 225 199 4 224 226 227 225 4
226 228 229 227 4 228 230 231 229 4
230 232 233 231 4 232 234 235 233 4
234 236 237 235 4 236 238 239 237 4
238 240 241 239 4 240 242 243 241 4
242 244 245 243 4 244 223 222 245 4
50 53 246 247 4 247 246 248 249 4
249 248 250 251 4 251 250 252 253 4
253 252 254 255 4 255 254 256 257 4
257 256 258 259 4 259 258 260 261 4
261 260 262 263 4 263 262 264 265 4
265 264 266 267 4 267 266 268 269 4
48 270 271 49 4 270 272 273 271 4
272 274 275 273 4 274 276 277 275 4
276 278 279 277 4 278 280 281 279 4
280 282 283 281 4 282 284 285 283 4
284 286 287 285 4 286 288 289 287 4
288 290 291 289 4 290 269 268 291 4
100 103 292 293 4 293 292 294 295 4
295 294 296 297 4 297 296 298 299 4
299 298 300 301 4 301 300 302 303 4
303 302 304 305 4 305 304 306 307 4
307 306 308 309 4 309 308 310 311 4
311 310 312 313 4 313 312 314 315 4
98 316 317 99 4 316 318 319 317 4
318 320 321 319 4 320 322 323 321 4
322 324 325 323 4 324 326 327 325 4
326 328 329 327 4 328 330 331 329 4
330 332 333 331 4 332 334 335 333 4
334 336 337 335 4 336 315 314 337 4
150 153 338 339 4 339 338 340 341 4
341 340 342 343 4 343 342 344 345 4
345 344 346 347 4 347 346 348 349 4
349 348 350 351 4 351 350 352 353 4
353 352 354 355 4 355 354 356 357 4
357 356 358 359 4 359 358 360 361 4
148 362 363 149 4 362 364 365 363 4
364 366 367 365 4 366 368 369 367 4
368 370 371 369 4 370 372 373 371 4
372 374 375 373 4 374 376 377 375 4
376 378 379 377 4 378 380 381 379 4
380 382 383 381 4 382 361 360 383 
CELL_DATA 192
FIELD attributes 5
patchID 1 192 float
0 0 0 0 0 0 0 0 0 0 0
0 0 0 0 0 0 0 0 0 0
0 0 0 0 0 0 0 0 0 0
0 0 0 0 0 0 0 0 0 0
0 0 0 0 0 0 0 0 0 0
0 0 0 0 0 0 0 0 0 0
0 0 0 0 0 0 0 0 0 0
0 0 0 0 0 0 0 0 0 0
0 0 0 0 0 0 0 0 0 0
0 0 0 0 0 0 0 0 0 0
0 0 0 0 0 0 0 0 0 0
0 0 0 0 0 0 0 0 0 0
0 0 0 0 0 0 0 0 0 0
0 0 0 0 0 0 0 0 0 0
0 0 0 0 0 0 0 0 0 0
0 0 0 0 0 0 0 0 0 0
0 0 0 0 0 0 0 0 0 0
0 0 0 0 0 0 0 0 0 0
0 0 0 0 0 0 0 0 0 0
0 
p 1 192 float
0 -0.0194119 -0.0398739 -0.0707637 -0.0846019 -0.118897 -0.183869 -0.152389 -0.197275 -0.160281 -0.117516
-0.074816 -0.0312747 0.0518909 0.143832 0.25379 0.25653 0.431596 0.522182 0.744686 0.903595
0.586916 0.522807 0.503742 -1.24159 -1.26732 -1.30925 -1.12877 -1.21234 -1.17305 -1.19172
-1.20689 -1.22536 -1.15362 -1.07797 -0.944583 -0.819455 -0.845815 -0.658831 -0.648503 -0.477936
-0.468306 -0.488653 -0.42348 -0.411873 -0.411784 -0.475938 -0.503684 2.15853 2.13128 2.12175
2.1278 2.13964 2.64174 2.46022 2.14562 3.11648 3.14204 2.99708 3.01879 2.89871
3.04591 4.94735 4.5616 3.05938 3.00622 2.98699 2.71793 2.77683 2.79349 2.78236
2.93985 2.80573 2.59412 2.22825 1.23727 0.223337 0.151916 0.16289 0.198964 0.256874
0.334427 0.434848 0.634395 2.11769 2.15949 1.82146 1.80187 1.76202 1.67428 1.6076
1.55956 1.51434 1.46915 1.45424 1.48604 0 2.12227 3.78393 5.88956 8.13244
10.5588 13.1829 16.0034 19.0091 22.1368 25.2243 27.5451 1.48604 3.50911 4.42594
6.55375 8.77397 11.581 14.5067 17.5942 21.3405 25.4369 29.5685 34.4297 -1.24159
0.9482 2.62723 4.6935 6.89509 9.29506 11.8893 14.6636 17.5939 20.5707 23.3739
24.9358 0.503742 2.12874 5.53276 5.68105 7.95453 10.5086 13.4436 16.9586 20.8344
24.9961 29.7353 34.6108 2.15853 4.28936 5.74911 7.77794 9.94281 12.2688 14.8029
17.5274 20.3994 23.3359 26.5901 28.5626 -0.503684 1.28638 2.94827 5.74609 7.03348
9.68995 12.7351 16.2803 20.3634 25.0265 30.2859 35.7723 2.80573 2.1721 3.64743
5.59133 7.70037 9.99972 12.4904 15.1291 17.9189 20.8152 23.6807 25.8341 2.93985
4.71949 6.75552 8.92028 12.9869 14.4469 16.2499 19.5565 23.2952 27.4237 31.683
36.1261 
alpha.water 1 192 float
2.72079e-06 1.29992e-05 1.25369e-05 0.000601168 0.00120322 9.56209e-07 0.0011533 0.00307634 0.000755373 1.98234e-10 1.9871e-10
9.49367e-07 0.000983019 0.00274969 0.00487599 0.0079524 0.0131221 0.0189858 0.0194981 0.00585425 0.00324135
0.00792 0.0113452 0.015439 9.60552e-07 5.66543e-08 0.000204156 0.00680396 0.00565646 2.37904e-10 2.37904e-10
2.70616e-10 0.00011871 0.0086776 0.0126972 0.000449061 0.000406841 0.00308487 0.0080834 0.00634118 5.57161e-10
0.0025139 0.00458845 0.00386732 0.000958961 7.42289e-06 7.42285e-06 7.42282e-06 1.15423e-07 2.13103e-07 1.75215e-08
0.000586991 0.0410157 0.063093 0.063095 0.0407737 2.26907e-10 0.000110024 0.000191433 0.0109308 0.0104499
0.0602614 0.108439 0.105378 0.010883 1.10414e-09 1.11031e-09 0.00782821 0.0262412 0.0267166 0.0267268
0.0186933 0.208667 0.200099 0.184449 0.139616 0.0234105 1.47949e-09 7.08398e-08 7.19507e-06 1.13567e-05
9.98573e-10 1.036e-09 0.0322038 0.163189 0.169731 0.169731 0.169731 0.16965 0.169509 0.169731
0.169731 0.169731 0.169731 0.169731 0.169731 2.72079e-06 6.49872e-06 7.78423e-06 3.55114e-09 3.54888e-09
6.82906e-06 1.58299e-05 2.95034e-05 7.46402e-05 3.68543e-05 4.76695e-07 0.00109945 0.169731 0.164569 0.00809347
0.00123791 0.0040622 0.0218802 0.0191086 2.69759e-10 2.9239e-10 0.00189831 0.0178146 0.032498 9.60552e-07
7.99136e-07 8.00058e-07 5.63819e-05 0.000196512 0.000147906 5.44525e-05 1.97486e-05 1.97994e-05 2.36161e-05 2.40841e-05
0.000164509 0.015439 0.0512337 0.156717 0.0442892 1.30073e-09 0.00211502 0.0194504 0.022354 0.020189
0.000141143 1.19844e-09 0.000243007 1.15423e-07 7.25036e-07 1.58254e-07 1.30306e-08 1.30231e-08 1.30234e-08 5.05109e-05
6.2168e-05 4.58105e-05 3.25329e-10 0.0240058 0.011309 7.42282e-06 7.42286e-06 0.0211807 0.0507131 8.4093e-05
5.19433e-10 0.000220784 0.000805672 0.000698612 0.00130126 0.00180085 0.00143559 0.208667 0.0125843 0.00381131
0.00103791 0.000506744 0.00187381 0.00258732 0.00228322 0.000795468 3.43793e-05 2.60106e-10 0.000213211 0.0186933
0.0425496 0.00379355 0.0455038 0.210218 0.152502 3.75924e-10 7.65713e-05 0.000303523 0.000700182 0.00332475
0.00423972 
p_rgh 1 192 float
0 -0.0194119 -0.0398739 -0.0707637 -0.0846019 -0.118897 -0.183869 -0.152389 -0.197275 -0.160281 -0.117516
-0.074816 -0.0312747 0.0518909 0.143832 0.25379 0.25653 0.431596 0.522182 0.744686 0.903595
0.586916 0.522807 0.503742 -1.24159 -1.26732 -1.30925 -1.12877 -1.21234 -1.17305 -1.19172
-1.20689 -1.22536 -1.15362 -1.07797 -0.944583 -0.819455 -0.845815 -0.658831 -0.648503 -0.477936
-0.468306 -0.488653 -0.42348 -0.411873 -0.411784 -0.475938 -0.503684 2.15853 2.13128 2.12175
2.1278 2.13964 2.64174 2.46022 2.14562 3.11648 3.14204 2.99708 3.01879 2.89871
3.04591 4.94735 4.5616 3.05938 3.00622 2.98699 2.71793 2.77683 2.79349 2.78236
2.93985 2.80573 2.59412 2.22825 1.23727 0.223337 0.151916 0.16289 0.198964 0.256874
0.334427 0.434848 0.634395 2.11769 2.15949 1.82146 1.80187 1.76202 1.67428 1.6076
1.55956 1.51434 1.46915 1.45424 1.48604 0 2.12227 3.78393 5.88956 8.13244
10.5588 13.1829 16.0034 19.0091 22.1368 25.2243 27.5451 1.48604 3.50911 4.42594
6.55375 8.77397 11.581 14.5067 17.5942 21.3405 25.4369 29.5685 34.4297 -1.24159
0.9482 2.62723 4.6935 6.89509 9.29506 11.8893 14.6636 17.5939 20.5707 23.3739
24.9358 0.503742 2.12874 5.53276 5.68105 7.95453 10.5086 13.4436 16.9586 20.8344
24.9961 29.7353 34.6108 2.15853 4.28936 5.74911 7.77794 9.94281 12.2688 14.8029
17.5274 20.3994 23.3359 26.5901 28.5626 -0.503684 1.28638 2.94827 5.74609 7.03348
9.68995 12.7351 16.2803 20.3634 25.0265 30.2859 35.7723 2.80573 2.1721 3.64743
5.59133 7.70037 9.99972 12.4904 15.1291 17.9189 20.8152 23.6807 25.8341 2.93985
4.71949 6.75552 8.92028 12.9869 14.4469 16.2499 19.5565 23.2952 27.4237 31.683
36.1261 
U 3 192 float
0.0041094 0.125529 0 0.0123106 0.124992 0 0.0204591 0.123919 0 0.02852 0.122315
0 0.0364587 0.120188 0 0.0442413 0.117546 0 0.0518345 0.114401 0
0.0592057 0.110766 0 0.0663234 0.106657 0 0.0731571 0.102091 0 0.0796775
0.0970873 0 0.0858567 0.0916683 0 0.0916683 0.0858567 0 0.0970873 0.0796775
0 0.102091 0.0731571 0 0.106657 0.0663234 0 0.110766 0.0592057 0
0.114401 0.0518345 0 0.117546 0.0442413 0 0.120188 0.0364587 0 0.122315
0.02852 0 0.123919 0.0204591 0 0.124992 0.0123106 0 0.125529 0.0041094
0 0.125529 -0.0041094 0 0.124992 -0.0123106 0 0.123919 -0.0204591 0
0.122315 -0.02852 0 0.120188 -0.0364587 0 0.117546 -0.0442413 0 0.114401
-0.0518345 0 0.110766 -0.0592057 0 0.106657 -0.0663234 0 0.102091 -0.0731571
0 0.0970873 -0.0796775 0 0.0916683 -0.0858567 0 0.0858567 -0.0916683 0
0.0796775 -0.0970873 0 0.0731571 -0.102091 0 0.0663234 -0.106657 0 0.0592057
-0.110766 0 0.0518345 -0.114401 0 0.0442413 -0.117546 0 0.0364587 -0.120188
0 0.02852 -0.122315 0 0.0204591 -0.123919 0 0.0123106 -0.124992 0
0.0041094 -0.125529 0 -0.0041094 -0.125529 0 -0.0123106 -0.124992 0 -0.0204591
-0.123919 0 -0.02852 -0.122315 0 -0.0364587 -0.120188 0 -0.0442413 -0.117546
0 -0.0518345 -0.114401 0 -0.0592057 -0.110766 0 -0.0663234 -0.106657 0
-0.0731571 -0.102091 0 -0.0796775 -0.0970873 0 -0.0858567 -0.0916683 0 -0.0916683
-0.0858567 0 -0.0970873 -0.0796775 0 -0.102091 -0.0731571 0 -0.106657 -0.0663234
0 -0.110766 -0.0592057 0 -0.114401 -0.0518345 0 -0.117546 -0.0442413 0
-0.120188 -0.0364587 0 -0.122315 -0.02852 0 -0.123919 -0.0204591 0 -0.124992
-0.0123106 0 -0.125529 -0.0041094 0 -0.125529 0.0041094 0 -0.124992 0.0123106
0 -0.123919 0.0204591 0 -0.122315 0.02852 0 -0.120188 0.0364587 0
-0.117546 0.0442413 0 -0.114401 0.0518345 0 -0.110766 0.0592057 0 -0.106657
0.0663234 0 -0.102091 0.0731571 0 -0.0970873 0.0796775 0 -0.0916683 0.0858567
0 -0.0858567 0.0916683 0 -0.0796775 0.0970873 0 -0.0731571 0.102091 0
-0.0663234 0.106657 0 -0.0592057 0.110766 0 -0.0518345 0.114401 0 -0.0442413
0.117546 0 -0.0364587 0.120188 0 -0.02852 0.122315 0 -0.0204591 0.123919
0 -0.0123106 0.124992 0 -0.0041094 0.125529 0 0 0.136136 0
0 0.15708 0 0 0.178024 0 0 0.198968 0 0
0.219911 0 0 0.240855 0 0 0.261799 0 0 0.282743
0 0 0.303687 0 0 0.324631 0 0 0.345575 0
0 0.366519 0 0 0.136136 0 0 0.15708 0 0
0.178024 0 0 0.198968 0 0 0.219911 0 0 0.240855
0 0 0.261799 0 0 0.282743 0 0 0.303687 0
0 0.324631 0 0 0.345575 0 0 0.366519 0 0.136136
2.44349e-10 0 0.15708 2.81942e-10 0 0.178024 3.19534e-10 0 0.198968 3.57126e-10
0 0.219911 3.94718e-10 0 0.240855 4.32311e-10 0 0.261799 4.69903e-10 0
0.282743 5.07495e-10 0 0.303687 5.45087e-10 0 0.324631 5.8268e-10 0 0.345575
6.20272e-10 0 0.366519 6.57864e-10 0 0.136136 2.44349e-10 0 0.15708 2.81942e-10
0 0.178024 3.19534e-10 0 0.198968 3.57126e-10 0 0.219911 3.94718e-10 0
0.240855 4.32311e-10 0 0.261799 4.69903e-10 0 0.282743 5.07495e-10 0 0.303687
5.45087e-10 0 0.324631 5.8268e-10 0 0.345575 6.20272e-10 0 0.366519 6.57864e-10
0 -4.88699e-10 -0.136136 0 -5.63883e-10 -0.15708 0 -6.39068e-10 -0.178024 0
-7.14252e-10 -0.198968 0 -7.89437e-10 -0.219911 0 -8.64621e-10 -0.240855 0 -9.39806e-10
-0.261799 0 -1.01499e-09 -0.282743 0 -1.09017e-09 -0.303687 0 -1.16536e-09 -0.324631
0 -1.24054e-09 -0.345575 0 -1.31573e-09 -0.366519 0 -4.88699e-10 -0.136136 0
-5.63883e-10 -0.15708 0 -6.39068e-10 -0.178024 0 -7.14252e-10 -0.198968 0 -7.89437e-10
-0.219911 0 -8.64621e-10 -0.240855 0 -9.39806e-10 -0.261799 0 -1.01499e-09 -0.282743
0 -1.09017e-09 -0.303687 0 -1.16536e-09 -0.324631 0 -1.24054e-09 -0.345575 0
-1.31573e-09 -0.366519 0 -0.136136 2.44349e-10 0 -0.15708 2.81942e-10 0 -0.178024
3.19534e-10 0 -0.198968 3.57126e-10 0 -0.219911 3.94718e-10 0 -0.240855 4.32311e-10
0 -0.261799 4.69903e-10 0 -0.282743 5.07495e-10 0 -0.303687 5.45087e-10 0
-0.324631 5.8268e-10 0 -0.345575 6.20272e-10 0 -0.366519 6.57864e-10 0 -0.136136
2.44349e-10 0 -0.15708 2.81942e-10 0 -0.178024 3.19534e-10 0 -0.198968 3.57126e-10
0 -0.219911 3.94718e-10 0 -0.240855 4.32311e-10 0 -0.261799 4.69903e-10 0
-0.282743 5.07495e-10 0 -0.303687 5.45087e-10 0 -0.324631 5.8268e-10 0 -0.345575
6.20272e-10 0 -0.366519 6.57864e-10 0 
POINT_DATA  384
FIELD attributes 4
p 1 384 float
0 -0.00970595 -0.00970595 0 -0.0296429 -0.0296429 -0.0553188 -0.0553188 -0.0776828 -0.0776828 -0.101749
-0.101749 -0.151383 -0.151383 -0.168129 -0.168129 -0.174832 -0.174832 -0.178778 -0.178778 -0.138899
-0.138899 -0.096166 -0.096166 -0.0530454 -0.0530454 0.0103081 0.0103081 0.0978614 0.0978614 0.198811
0.198811 0.25516 0.25516 0.344063 0.344063 0.476889 0.476889 0.633434 0.633434 0.82414
0.82414 0.745255 0.745255 0.554861 0.554861 0.513274 0.513274 0.503742 0.503742 -1.24159
-1.25445 -1.25445 -1.24159 -1.28829 -1.28829 -1.21901 -1.21901 -1.17055 -1.17055 -1.1927
-1.1927 -1.18238 -1.18238 -1.19931 -1.19931 -1.21613 -1.21613 -1.18949 -1.18949 -1.1158
-1.1158 -1.01128 -1.01128 -0.882019 -0.882019 -0.832635 -0.832635 -0.752323 -0.752323 -0.653667
-0.653667 -0.563219 -0.563219 -0.473121 -0.473121 -0.47848 -0.47848 -0.456066 -0.456066 -0.417677
-0.417677 -0.411828 -0.411828 -0.443861 -0.443861 -0.489811 -0.489811 -0.503684 -0.503684 2.15853
2.14491 2.14491 2.15853 2.12651 2.12651 2.12477 2.12477 2.13372 2.13372 2.39069
2.39069 2.55098 2.55098 2.30292 2.30292 2.63105 2.63105 3.12926 3.12926 3.06956
3.06956 3.00794 3.00794 2.95875 2.95875 2.97231 2.97231 3.99663 3.99663 4.75448
4.75448 3.81049 3.81049 3.0328 3.0328 2.9966 2.9966 2.85246 2.85246 2.74738
2.74738 2.78516 2.78516 2.78793 2.78793 2.8611 2.8611 2.93985 2.93985 2.80573
2.69992 2.69992 2.80573 2.41119 2.41119 1.73276 1.73276 0.730304 0.730304 0.187626
0.187626 0.157403 0.157403 0.180927 0.180927 0.227919 0.227919 0.295651 0.295651 0.384638
0.384638 0.534621 0.534621 1.37604 1.37604 2.13859 2.13859 1.99048 1.99048 1.81167
1.81167 1.78194 1.78194 1.71815 1.71815 1.64094 1.64094 1.58358 1.58358 1.53695
1.53695 1.49174 1.49174 1.46169 1.46169 1.47014 1.47014 1.48604 1.48604 1.06114
1.06114 2.9531 2.9531 4.83674 4.83674 7.011 7.011 9.34562 9.34562 11.8708
11.8708 14.5932 14.5932 17.5063 17.5063 20.573 20.573 23.6805 23.6805 26.3847
26.3847 30.9874 30.9874 2.49758 2.49758 3.96753 3.96753 5.48984 5.48984 7.66386
7.66386 10.1775 10.1775 13.0438 13.0438 16.0504 16.0504 19.4674 19.4674 23.3887
23.3887 27.5027 27.5027 31.9991 31.9991 -0.146695 -0.146695 1.78771 1.78771 3.66037
3.66037 5.79429 5.79429 8.09507 8.09507 10.5922 10.5922 13.2765 13.2765 16.1287
16.1287 19.0823 19.0823 21.9723 21.9723 24.1549 24.1549 29.7733 29.7733 1.31624
1.31624 3.83075 3.83075 5.6069 5.6069 6.81779 6.81779 9.23157 9.23157 11.9761
11.9761 15.2011 15.2011 18.8965 18.8965 22.9153 22.9153 27.3657 27.3657 32.173
32.173 3.22394 3.22394 5.01924 5.01924 6.76353 6.76353 8.86038 8.86038 11.1058
11.1058 13.5358 13.5358 16.1651 16.1651 18.9634 18.9634 21.8676 21.8676 24.963
24.963 27.5763 27.5763 32.1674 32.1674 0.391348 0.391348 2.11733 2.11733 4.34718
4.34718 6.38978 6.38978 8.36172 8.36172 11.2125 11.2125 14.5077 14.5077 18.3218
18.3218 22.695 22.695 27.6562 27.6562 33.0291 33.0291 2.48891 2.48891 2.90977
2.90977 4.61938 4.61938 6.64585 6.64585 8.85005 8.85005 11.2451 11.2451 13.8097
13.8097 16.524 16.524 19.3671 19.3671 22.2479 22.2479 24.7574 24.7574 30.9801
30.9801 3.82967 3.82967 5.7375 5.7375 7.8379 7.8379 10.9536 10.9536 13.7169
13.7169 15.3484 15.3484 17.9032 17.9032 21.4258 21.4258 25.3594 25.3594 29.5534
29.5534 33.9045 33.9045 
alpha.water 1 384 float
2.72079e-06 7.86e-06 7.86e-06 2.72079e-06 1.2768e-05 1.2768e-05 0.000306852 0.000306852 0.000902194 0.000902194 0.000602088
0.000602088 0.000577128 0.000577128 0.00211482 0.00211482 0.00191586 0.00191586 0.000377687 0.000377687 1.98472e-10
1.98472e-10 4.74783e-07 4.74783e-07 0.000491984 0.000491984 0.00186635 0.00186635 0.00381284 0.00381284 0.0064142
0.0064142 0.0105372 0.0105372 0.016054 0.016054 0.0192419 0.0192419 0.0126762 0.0126762 0.0045478
0.0045478 0.00558067 0.00558067 0.0096326 0.0096326 0.0133921 0.0133921 0.015439 0.015439 9.60552e-07
5.08603e-07 5.08603e-07 9.60552e-07 0.000102106 0.000102106 0.00350406 0.00350406 0.00623021 0.00623021 0.00282823
0.00282823 2.37904e-10 2.37904e-10 2.5426e-10 2.5426e-10 5.93551e-05 5.93551e-05 0.00439816 0.00439816 0.0106874
0.0106874 0.00657313 0.00657313 0.000427951 0.000427951 0.00174586 0.00174586 0.00558414 0.00558414 0.00721229
0.00721229 0.00317059 0.00317059 0.00125695 0.00125695 0.00355117 0.00355117 0.00422789 0.00422789 0.00241314
0.00241314 0.000483192 0.000483192 7.42287e-06 7.42287e-06 7.42284e-06 7.42284e-06 7.42282e-06 7.42282e-06 1.15423e-07
1.64263e-07 1.64263e-07 1.15423e-07 1.15312e-07 1.15312e-07 0.000293504 0.000293504 0.0208013 0.0208013 0.0520543
0.0520543 0.063094 0.063094 0.0519344 0.0519344 0.0203869 0.0203869 5.50121e-05 5.50121e-05 0.000150729
0.000150729 0.00556112 0.00556112 0.0106904 0.0106904 0.0353556 0.0353556 0.0843502 0.0843502 0.106909
0.106909 0.0581305 0.0581305 0.0054415 0.0054415 1.10722e-09 1.10722e-09 0.00391411 0.00391411 0.0170347
0.0170347 0.0264789 0.0264789 0.0267217 0.0267217 0.02271 0.02271 0.0186933 0.0186933 0.208667
0.204383 0.204383 0.208667 0.192274 0.192274 0.162032 0.162032 0.0815132 0.0815132 0.0117053
0.0117053 3.61596e-08 3.61596e-08 3.63295e-06 3.63295e-06 9.27588e-06 9.27588e-06 5.67885e-06 5.67885e-06 1.01729e-09
1.01729e-09 0.0161019 0.0161019 0.0976964 0.0976964 0.16646 0.16646 0.169731 0.169731 0.169731
0.169731 0.169691 0.169691 0.16958 0.16958 0.16962 0.16962 0.169731 0.169731 0.169731
0.169731 0.169731 0.169731 0.169731 0.169731 0.169731 0.169731 0.169731 0.169731 4.60975e-06
4.60975e-06 7.14148e-06 7.14148e-06 3.89389e-06 3.89389e-06 3.55001e-09 3.55001e-09 3.4163e-06 3.4163e-06 1.13295e-05
1.13295e-05 2.26667e-05 2.26667e-05 5.20718e-05 5.20718e-05 5.57472e-05 5.57472e-05 1.86655e-05 1.86655e-05 0.000549963
0.000549963 0.0167987 0.0167987 0.16715 0.16715 0.0863312 0.0863312 0.00466569 0.00466569 0.00265006
0.00265006 0.0129712 0.0129712 0.0204944 0.0204944 0.0095543 0.0095543 2.81074e-10 2.81074e-10 0.000949155
0.000949155 0.00985646 0.00985646 0.0251563 0.0251563 8.79844e-07 8.79844e-07 7.99597e-07 7.99597e-07 2.8591e-05
2.8591e-05 0.000126447 0.000126447 0.000172209 0.000172209 0.000101179 0.000101179 3.71006e-05 3.71006e-05 1.9774e-05
1.9774e-05 2.17078e-05 2.17078e-05 2.38501e-05 2.38501e-05 9.42965e-05 9.42965e-05 0.000203758 0.000203758 0.0333363
0.0333363 0.103975 0.103975 0.100503 0.100503 0.0221446 0.0221446 0.00105751 0.00105751 0.0107827
0.0107827 0.0209022 0.0209022 0.0212715 0.0212715 0.0101651 0.0101651 7.05721e-05 7.05721e-05 0.000121504
0.000121504 4.20229e-07 4.20229e-07 4.41645e-07 4.41645e-07 8.56423e-08 8.56423e-08 1.30268e-08 1.30268e-08 1.30233e-08
1.30233e-08 2.5262e-05 2.5262e-05 5.63394e-05 5.63394e-05 5.39892e-05 5.39892e-05 2.29054e-05 2.29054e-05 0.0120029
0.0120029 0.0176574 0.0176574 0.00637229 0.00637229 7.42284e-06 7.42284e-06 0.0105941 0.0105941 0.0359469
0.0359469 0.0253986 0.0253986 4.20468e-05 4.20468e-05 0.000110392 0.000110392 0.000513228 0.000513228 0.000752142
0.000752142 0.000999936 0.000999936 0.00155106 0.00155106 0.00161822 0.00161822 0.110626 0.110626 0.0081978
0.0081978 0.00242461 0.00242461 0.000772327 0.000772327 0.00119028 0.00119028 0.00223057 0.00223057 0.00243527
0.00243527 0.00153934 0.00153934 0.000414924 0.000414924 1.71898e-05 1.71898e-05 0.000106606 0.000106606 0.00222647
0.00222647 0.0306215 0.0306215 0.0231716 0.0231716 0.0246487 0.0246487 0.127861 0.127861 0.18136
0.18136 0.076251 0.076251 3.82858e-05 3.82858e-05 0.000190047 0.000190047 0.000501852 0.000501852 0.00201247
0.00201247 0.00378224 0.00378224 
p_rgh 1 384 float
0 -0.00970595 -0.00970595 0 -0.0296429 -0.0296429 -0.0553188 -0.0553188 -0.0776828 -0.0776828 -0.101749
-0.101749 -0.151383 -0.151383 -0.168129 -0.168129 -0.174832 -0.174832 -0.178778 -0.178778 -0.138899
-0.138899 -0.096166 -0.096166 -0.0530454 -0.0530454 0.0103081 0.0103081 0.0978614 0.0978614 0.198811
0.198811 0.25516 0.25516 0.344063 0.344063 0.476889 0.476889 0.633434 0.633434 0.82414