# vtk DataFile Version 2.0
rotor
ASCII
DATASET POLYDATA
POINTS 384 float
0.02 0 0 0.0199572 -0.00130806 0 0.0199572 -0.00130806 0.01 0.02 0
0.01 0.0198289 -0.00261052 0 0.0198289 -0.00261052 0.01 0.0196157 -0.00390181 0
0.0196157 -0.00390181 0.01 0.0193185 -0.00517638 0 0.0193185 -0.00517638 0.01 0.0189386
-0.00642879 0 0.0189386 -0.00642879 0.01 0.0184776 -0.00765367 0 0.0184776 -0.00765367
0.01 0.0179375 -0.00884577 0 0.0179375 -0.00884577 0.01 0.0173205 -0.01 0
0.0173205 -0.01 0.01 0.0166294 -0.0111114 0 0.0166294 -0.0111114 0.01 0.0158671
-0.0121752 0 0.0158671 -0.0121752 0.01 0.0150368 -0.0131869 0 0.0150368 -0.0131869
0.01 0.0141421 -0.0141421 0 0.0141421 -0.0141421 0.01 0.0131869 -0.0150368 0
0.0131869 -0.0150368 0.01 0.0121752 -0.0158671 0 0.0121752 -0.0158671 0.01 0.0111114
-0.0166294 0 0.0111114 -0.0166294 0.01 0.01 -0.0173205 0 0.01 -0.0173205
0.01 0.00884577 -0.0179375 0 0.00884577 -0.0179375 0.01 0.00765367 -0.0184776 0
0.00765367 -0.0184776 0.01 0.00642879 -0.0189386 0 0.00642879 -0.0189386 0.01 0.00517638
-0.0193185 0 0.00517638 -0.0193185 0.01 0.00390181 -0.0196157 0 0.00390181 -0.0196157
0.01 0.00261052 -0.0198289 0 0.00261052 -0.0198289 0.01 0.00130806 -0.0199572 0
0.00130806 -0.0199572 0.01 3.58979e-11 -0.02 0 3.58979e-11 -0.02 0.01 3.58979e-11
-0.02 0 -0.00130806 -0.0199572 0 -0.00130806 -0.0199572 0.01 3.58979e-11 -0.02
0.01 -0.00261052 -0.0198289 0 -0.00261052 -0.0198289 0.01 -0.00390181 -0.0196157 0
-0.00390181 -0.0196157 0.01 -0.00517638 -0.0193185 0 -0.00517638 -0.0193185 0.01 -0.00642879
-0.0189386 0 -0.00642879 -0.0189386 0.01 -0.00765367 -0.0184776 0 -0.00765367 -0.0184776
0.01 -0.00884577 -0.0179375 0 -0.00884577 -0.0179375 0.01 -0.01 -0.0173205 0
-0.01 -0.0173205 0.01 -0.0111114 -0.0166294 0 -0.0111114 -0.0166294 0.01 -0.0121752
-0.0158671 0 -0.0121752 -0.0158671 0.01 -0.0131869 -0.0150368 0 -0.0131869 -0.0150368
0.01 -0.0141421 -0.0141421 0 -0.0141421 -0.0141421 0.01 -0.0150368 -0.0131869 0
-0.0150368 -0.0131869 0.01 -0.0158671 -0.0121752 0 -0.0158671 -0.0121752 0.01 -0.0166294
-0.0111114 0 -0.0166294 -0.0111114 0.01 -0.0173205 -0.01 0 -0.0173205 -0.01
0.01 -0.0179375 -0.00884577 0 -0.0179375 -0.00884577 0.01 -0.0184776 -0.00765367 0
-0.0184776 -0.00765367 0.01 -0.0189386 -0.00642879 0 -0.0189386 -0.00642879 0.01 -0.0193185
-0.00517638 0 -0.0193185 -0.00517638 0.01 -0.0196157 -0.00390181 0 -0.0196157 -0.00390181
0.01 -0.0198289 -0.00261052 0 -0.0198289 -0.00261052 0.01 -0.0199572 -0.00130806 0
-0.0199572 -0.00130806 0.01 -0.02 7.17959e-11 0 -0.02 7.17959e-11 0.01 -0.02
7.17959e-11 0 -0.0199572 0.00130806 0 -0.0199572 0.00130806 0.01 -0.02 7.17959e-11
0.01 -0.0198289 0.00261052 0 -0.0198289 0.00261052 0.01 -0.0196157 0.00390181 0
-0.0196157 0.00390181 0.01 -0.0193185 0.00517638 0 -0.0193185 0.00517638 0.01 -0.0189386
0.00642879 0 -0.0189386 0.00642879 0.01 -0.0184776 0.00765367 0 -0.0184776 0.00765367
0.01 -0.0179375 0.00884577 0 -0.0179375 0.00884577 0.01 -0.0173205 0.01 0
-0.0173205 0.01 0.01 -0.0166294 0.0111114 0 -0.0166294 0.0111114 0.01 -0.0158671
0.0121752 0 -0.0158671 0.0121752 0.01 -0.0150368 0.0131869 0 -0.0150368 0.0131869
0.01 -0.0141421 0.0141421 0 -0.0141421 0.0141421 0.01 -0.0131869 0.0150368 0
-0.0131869 0.0150368 0.01 -0.0121752 0.0158671 0 -0.0121752 0.0158671 0.01 -0.0111114
0.0166294 0 -0.0111114 0.0166294 0.01 -0.01 0.0173205 0 -0.01 0.0173205
0.01 -0.00884577 0.0179375 0 -0.00884577 0.0179375 0.01 -0.00765367 0.0184776 0
-0.00765367 0.0184776 0.01 -0.00642879 0.0189386 0 -0.00642879 0.0189386 0.01 -0.00517638
0.0193185 0 -0.00517638 0.0193185 0.01 -0.00390181 0.0196157 0 -0.00390181 0.0196157
0.01 -0.00261052 0.0198289 0 -0.00261052 0.0198289 0.01 -0.00130806 0.0199572 0
-0.00130806 0.0199572 0.01 3.58979e-11 0.02 0 3.58979e-11 0.02 0.01 3.58979e-11
0.02 0 0.00130806 0.0199572 0 0.00130806 0.0199572 0.01 3.58979e-11 0.02
0.01 0.00261052 0.0198289 0 0.00261052 0.0198289 0.01 0.00390181 0.0196157 0
0.00390181 0.0196157 0.01 0.00517638 0.0193185 0 0.00517638 0.0193185 0.01 0.00642879
0.0189386 0 0.00642879 0.0189386 0.01 0.00765367 0.0184776 0 0.00765367 0.0184776
0.01 0.00884577 0.0179375 0 0.00884577 0.0179375 0.01 0.01 0.0173205 0
0.01 0.0173205 0.01 0.0111114 0.0166294 0 0.0111114 0.0166294 0.01 0.0121752
0.0158671 0 0.0121752 0.0158671 0.01 0.0131869 0.0150368 0 0.0131869 0.0150368
0.01 0.0141421 0.0141421 0 0.0141421 0.0141421 0.01 0.0150368 0.0131869 0
0.0150368 0.0131869 0.01 0.0158671 0.0121752 0 0.0158671 0.0121752 0.01 0.0166294
0.0111114 0 0.0166294 0.0111114 0.01 0.0173205 0.01 0 0.0173205 0.01
0.01 0.0179375 0.00884577 0 0.0179375 0.00884577 0.01 0.0184776 0.00765367 0
0.0184776 0.00765367 0.01 0.0189386 0.00642879 0 0.0189386 0.00642879 0.01 0.0193185
0.00517638 0 0.0193185 0.00517638 0.01 0.0196157 0.00390181 0 0.0196157 0.00390181
0.01 0.0198289 0.00261052 0 0.0198289 0.00261052 0.01 0.0199572 0.00130806 0
0.0199572 0.00130806 0.01 0.02 0 0 0.02 0 0.01 0.0233333
0 0.01 0.0233333 0 0 0.0266667 0 0.01 0.0266667 0
0 0.03 0 0.01 0.03 0 0 0.0333333 0 0.01
0.0333333 0 0 0.0366667 0 0.01 0.0366667 0 0 0.04
0 0.01 0.04 0 0 0.0433333 0 0.01 0.0433333 0
0 0.0466667 0 0.01 0.0466667 0 0 0.05 0 0.01
0.05 0 0 0.0533333 0 0.01 0.0533333 0 0 0.0566667
0 0.01 0.0566667 0 0 0.06 0 0.01 0.06 0
0 0.0233333 0 0 0.0233333 0 0.01 0.0266667 0 0
0.0266667 0 0.01 0.03 0 0 0.03 0 0.01 0.0333333
0 0 0.0333333 0 0.01 0.0366667 0 0 0.0366667 0
0.01 0.04 0 0 0.04 0 0.01 0.0433333 0 0
0.0433333 0 0.01 0.0466667 0 0 0.0466667 0 0.01 0.05
0 0 0.05 0 0.01 0.0533333 0 0 0.0533333 0
0.01 0.0566667 0 0 0.0566667 0 0.01 4.18809e-11 -0.0233333 0.01
4.18809e-11 -0.0233333 0 4.78639e-11 -0.0266667 0.01 4.78639e-11 -0.0266667 0 5.38469e-11
-0.03 0.01 5.38469e-11 -0.03 0 5.98299e-11 -0.0333333 0.01 5.98299e-11 -0.0333333
0 6.58129e-11 -0.0366667 0.01 6.58129e-11 -0.0366667 0 7.17959e-11 -0.04 0.01
7.17959e-11 -0.04 0 7.77789e-11 -0.0433333 0.01 7.77789e-11 -0.0433333 0 8.37618e-11
-0.0466667 0.01 8.37618e-11 -0.0466667 0 8.97448e-11 -0.05 0.01 8.97448e-11 -0.05
0 9.57278e-11 -0.0533333 0.01 9.57278e-11 -0.0533333 0 1.01711e-10 -0.0566667 0.01
1.01711e-10 -0.0566667 0 1.07694e-10 -0.06 0.01 1.07694e-10 -0.06 0 4.18809e-11
-0.0233333 0 4.18809e-11 -0.0233333 0.01 4.78639e-11 -0.0266667 0 4.78639e-11 -0.0266667
0.01 5.38469e-11 -0.03 0 5.38469e-11 -0.03 0.01 5.98299e-11 -0.0333333 0
5.98299e-11 -0.0333333 0.01 6.58129e-11 -0.0366667 0 6.58129e-11 -0.0366667 0.01 7.17959e-11
-0.04 0 7.17959e-11 -0.04 0.01 7.77789e-11 -0.0433333 0 7.77789e-11 -0.0433333
0.01 8.37618e-11 -0.0466667 0 8.37618e-11 -0.0466667 0.01 8.97448e-11 -0.05 0
8.97448e-11 -0.05 0.01 9.57278e-11 -0.0533333 0 9.57278e-11 -0.0533333 0.01 1.01711e-10
-0.0566667 0 1.01711e-10 -0.0566667 0.01 -0.0233333 8.37618e-11 0.01 -0.0233333 8.37618e-11
0 -0.0266667 9.57278e-11 0.01 -0.0266667 9.57278e-11 0 -0.03 1.07694e-10 0.01
-0.03 1.07694e-10 0 -0.0333333 1.1966e-10 0.01 -0.0333333 1.1966e-10 0 -0.0366667
1.31626e-10 0.01 -0.0366667 1.31626e-10 0 -0.04 1.43592e-10 0.01 -0.04 1.43592e-10
0 -0.0433333 1.55558e-10 0.01 -0.0433333 1.55558e-10 0 -0.0466667 1.67524e-10 0.01
-0.0466667 1.67524e-10 0 -0.05 1.7949e-10 0.01 -0.05 1.7949e-10 0 -0.0533333
1.91456e-10 0.01 -0.0533333 1.91456e-10 0 -0.0566667 2.03422e-10 0.01 -0.0566667 2.03422e-10
0 -0.06 2.15388e-10 0.01 -0.06 2.15388e-10 0 -0.0233333 8.37618e-11 0
-0.0233333 8.37618e-11 0.01 -0.0266667 9.57278e-11 0 -0.0266667 9.57278e-11 0.01 -0.03
1.07694e-10 0 -0.03 1.07694e-10 0.01 -0.0333333 1.1966e-10 0 -0.0333333 1.1966e-10
0.01 -0.0366667 1.31626e-10 0 -0.0366667 1.31626e-10 0.01 -0.04 1.43592e-10 0
-0.04 1.43592e-10 0.01 -0.0433333 1.55558e-10 0 -0.0433333 1.55558e-10 0.01 -0.0466667
1.67524e-10 0 -0.0466667 1.67524e-10 0.01 -0.05 1.7949e-10 0 -0.05 1.7949e-10
0.01 -0.0533333 1.91456e-10 0 -0.0533333 1.91456e-10 0.01 -0.0566667 2.03422e-10 0
-0.0566667 2.03422e-10 0.01 4.18809e-11 0.0233333 0.01 4.18809e-11 0.0233333 0 4.78639e-11
0.0266667 0.01 4.78639e-11 0.0266667 0 5.38469e-11 0.03 0.01 5.38469e-11 0.03
0 5.98299e-11 0.0333333 0.01 5.98299e-11 0.0333333 0 6.58129e-11 0.0366667 0.01
6.58129e-11 0.0366667 0 7.17959e-11 0.04 0.01 7.17959e-11 0.04 0 7.77789e-11
0.0433333 0.01 7.77789e-11 0.0433333 0 8.37618e-11 0.0466667 0.01 8.37618e-11 0.0466667
0 8.97448e-11 0.05 0.01 8.97448e-11 0.05 0 9.57278e-11 0.0533333 0.01
9.57278e-11 0.0533333 0 1.01711e-10 0.0566667 0.01 1.01711e-10 0.0566667 0 1.07694e-10
0.06 0.01 1.07694e-10 0.06 0 4.18809e-11 0.0233333 0 4.18809e-11 0.0233333
0.01 4.78639e-11 0.0266667 0 4.78639e-11 0.0266667 0.01 5.38469e-11 0.03 0
5.38469e-11 0.03 0.01 5.98299e-11 0.0333333 0 5.98299e-11 0.0333333 0.01 6.58129e-11
0.0366667 0 6.58129e-11 0.0366667 0.01 7.17959e-11 0.04 0 7.17959e-11 0.04
0.01 7.77789e-11 0.0433333 0 7.77789e-11 0.0433333 0.01 8.37618e-11 0.0466667 0
8.37618e-11 0.0466667 0.01 8.97448e-11 0.05 0 8.97448e-11 0.05 0.01 9.57278e-11
0.0533333 0 9.57278e-11 0.0533333 0.01 1.01711e-10 0.0566667 0 1.01711e-10 0.0566667
0.01 
POLYGONS 192 960
4 0 1 2 3 4 1 4 5 2 4
4 6 7 5 4 6 8 9 7 4
8 10 11 9 4 10 12 13 11 4
12 14 15 13 4 14 16 17 15 4
16 18 19 17 4 18 20 21 19 4
20 22 23 21 4 22 24 25 23 4
24 26 27 25 4 26 28 29 27 4
28 30 31 29 4 30 32 33 31 4
32 34 35 33 4 34 36 37 35 4
36 38 39 37 4 38 40 41 39 4
40 42 43 41 4 42 44 45 43 4
44 46 47 45 4 46 48 49 47 4
50 51 52 53 4 51 54 55 52 4
54 56 57 55 4 56 58 59 57 4
58 60 61 59 4 60 62 63 61 4
62 64 65 63 4 64 66 67 65 4
66 68 69 67 4 68 70 71 69 4
70 72 73 71 4 72 74 75 73 4
74 76 77 75 4 76 78 79 77 4
78 80 81 79 4 80 82 83 81 4
82 84 85 83 4 84 86 87 85 4
86 88 89 87 4 88 90 91 89 4
90 92 93 91 4 92 94 95 93 4
94 96 97 95 4 96 98 99 97 4
100 101 102 103 4 101 104 105 102 4
104 106 107 105 4 106 108 109 107 4
108 110 111 109 4 110 112 113 111 4
112 114 115 113 4 114 116 117 115 4
116 118 119 117 4 118 120 121 119 4
120 122 123 121 4 122 124 125 123 4
124 126 127 125 4 126 128 129 127 4
128 130 131 129 4 130 132 133 131 4
132 134 135 133 4 134 136 137 135 4
136 138 139 137 4 138 140 141 139 4
140 142 143 141 4 142 144 145 143 4
144 146 147 145 4 146 148 149 147 4
150 151 152 153 4 151 154 155 152 4
154 156 157 155 4 156 158 159 157 4
158 160 161 159 4 160 162 163 161 4
162 164 165 163 4 164 166 167 165 4
166 168 169 167 4 168 170 171 169 4
170 172 173 171 4 172 174 175 173 4
174 176 177 175 4 176 178 179 177 4
178 180 181 179 4 180 182 183 181 4
182 184 185 183 4 184 186 187 185 4
186 188 189 187 4 188 190 191 189 4
190 192 193 191 4 192 194 195 193 4
194 196 197 195 4 196 198 199 197 4
0 3 200 201 4 201 200 202 203 4
203 202 204 205 4 205 204 206 207 4
207 206 208 209 4 209 208 210 211 4
211 210 212 213 4 213 212 214 215 4
215 214 216 217 4 217 216 218 219 4
219 218 220 221 4 221 220 222 223 4
198 224 225 199 4 224 226 227 225 4
226 228 229 227 4 228 230 231 229 4
230 232 233 231 4 232 234 235 233 4
234 236 237 235 4 236 238 239 237 4
238 240 241 239 4 240 242 243 241 4
242 244 245 243 4 244 223 222 245 4
50 53 246 247 4 247 246 248 249 4
249 248 250 251 4 251 250 252 253 4
253 252 254 255 4 255 254 256 257 4
257 256 258 259 4 259 258 260 261 4
261 260 262 263 4 263 262 264 265 4
265 264 266 267 4 267 266 268 269 4
48 270 271 49 4 270 272 273 271 4
272 274 275 273 4 274 276 277 275 4
276 278 279 277 4 278 280 281 279 4
280 282 283 281 4 282 284 285 283 4
284 286 287 285 4 286 288 289 287 4
288 290 291 289 4 290 269 268 291 4
100 103 292 293 4 293 292 294 295 4
295 294 296 297 4 297 296 298 299 4
299 298 300 301 4 301 300 302 303 4
303 302 304 305 4 305 304 306 307 4
307 306 308 309 4 309 308 310 311 4
311 310 312 313 4 313 312 314 315 4
98 316 317 99 4 316 318 319 317 4
318 320 321 319 4 320 322 323 321 4
322 324 325 323 4 324 326 327 325 4
326 328 329 327 4 328 330 331 329 4
330 332 333 331 4 332 334 335 333 4
334 336 337 335 4 336 315 314 337 4
150 153 338 339 4 339 338 340 341 4
341 340 342 343 4 343 342 344 345 4
345 344 346 347 4 347 346 348 349 4
349 348 350 351 4 351 350 352 353 4
353 352 354 355 4 355 354 356 357 4
357 356 358 359 4 359 358 360 361 4
148 362 363 149 4 362 364 365 363 4
364 366 367 365 4 366 368 369 367 4
368 370 371 369 4 370 372 373 371 4
372 374 375 373 4 374 376 377 375 4
376 378 379 377 4 378 380 381 379 4
380 382 383 381 4 382 361 360 383 
CELL_DATA 192
FIELD attributes 5
patchID 1 192 float
0 0 0 0 0 0 0 0 0 0 0
0 0 0 0 0 0 0 0 0 0
0 0 0 0 0 0 0 0 0 0
0 0 0 0 0 0 0 0 0 0
0 0 0 0 0 0 0 0 0 0
0 0 0 0 0 0 0 0 0 0
0 0 0 0 0 0 0 0 0 0
0 0 0 0 0 0 0 0 0 0
0 0 0 0 0 0 0 0 0 0
0 0 0 0 0 0 0 0 0 0
0 0 0 0 0 0 0 0 0 0
0 0 0 0 0 0 0 0 0 0
0 0 0 0 0 0 0 0 0 0
0 0 0 0 0 0 0 0 0 0
0 0 0 0 0 0 0 0 0 0
0 0 0 0 0 0 0 0 0 0
0 0 0 0 0 0 0 0 0 0
0 0 0 0 0 0 0 0 0 0
0 0 0 0 0 0 0 0 0 0
0 
p 1 192 float
0 -0.0197979 -0.036206 -0.0549824 -0.0379951 -0.0838822 -0.0949446 -0.112269 -0.128682 -0.0874009 -0.0639356
-0.194783 -0.207699 -0.222783 -0.24064 -0.269345 -0.296977 -0.304448 -0.252646 -0.157264 -0.00575712
-0.0950458 0.071282 0.16096 -1.85751 -1.88701 -1.88717 -1.87424 -1.49694 -1.90467 -1.82128
-2.00624 -1.88666 -1.94452 -1.84135 -1.74045 -1.62934 -1.50987 -1.38076 -1.23846 -1.111
-1.06799 -0.925606 -0.84181 -0.807386 -0.8125 -0.840407 -0.868135 -2.65949 -2.68385 -2.67455
-2.64371 -2.61711 -2.66072 -2.58413 -2.41703 -1.92686 -1.87145 -1.82153 -2.19644 -2.50664
-2.46932 -2.41304 -2.32609 -2.21615 -2.09132 -2.22336 -2.32745 -2.11187 -2.28081 -2.05806
-2.00628 2.38642 1.93737 2.02618 0.318835 -0.370495 -0.469875 -0.498069 -0.522129 -0.53911
-0.547756 -0.54998 -0.548357 -0.547916 -0.547654 -0.550825 -0.520728 0.364613 0.69143 0.497276
0.287332 0.0733262 -0.0432835 -0.0529241 -0.00393616 0 2.11403 3.76909 5.8268 8.06335
10.5081 13.1557 15.9973 19.0213 22.1439 25.1874 27.2782 -0.00393616 1.96841 3.17272
5.78225 7.14397 9.73146 12.5905 16.1853 20.2587 24.9361 30.8907 37.8679 -1.85751
0.176835 1.75768 3.6868 5.79279 8.11612 10.6797 13.4009 16.2534 19.2076 22.1778
24.4488 0.16096 1.98621 3.9769 6.22007 11.3003 10.7746 13.3986 17.0769 21.3614
26.4256 31.7418 36.5885 -2.65949 -0.674431 0.942859 2.9169 5.04852 7.41655 10.0584
12.8092 15.5932 18.4336 21.2457 23.3549 -0.868135 0.940118 2.70813 4.81055 7.33582
10.6185 14.6216 17.7584 21.1341 25.5853 30.0447 34.4551 2.38642 1.73368 3.20018
5.30493 7.49456 9.8794 12.452 15.2344 18.2065 21.3379 24.4811 27.3765 -2.00628
-0.135974 1.79744 3.74773 5.72968 8.57934 11.1393 16.2224 23.3762 25.4216 26.8062
31.3141 
alpha.water 1 192 float
2.71266e-06 1.63831e-05 1.25237e-05 0.000767764 0.00200155 0.000419252 9.28301e-05 0.000175451 0.000259645 0.00340159 0.00422324
0.000297757 1.98222e-10 5.26202e-10 4.21407e-10 1.36682e-05 0.00347446 0.00797867 0.00654396 0.00205391 5.71318e-10
0.0053798 0.0212296 0.0241712 1.01936e-06 5.17409e-08 5.17829e-08 0.00377544 0.0120231 0.00106914 0.000147162
0.00760619 0.0103904 2.23449e-10 2.6317e-10 1.57207e-05 0.000234377 0.000290353 5.95707e-05 3.56361e-05 0.00155811
0.0041512 0.00401467 0.000996762 3.50205e-05 3.94931e-05 2.22868e-05 7.19396e-06 1.06168e-07 4.09115e-07 1.73806e-08
1.73806e-08 1.74253e-08 0.0106884 0.0260535 0.0420407 0.063095 0.063095 0.063095 0.0473976 2.26647e-10
2.65676e-10 2.65676e-10 2.65676e-10 2.65676e-10 3.09518e-10 0.0150755 0.0471971 0.0471971 0.0390363 0.0196095
0.0159282 0.213553 0.194837 0.19767 0.110171 0.0182416 0.00100735 2.58787e-10 2.58787e-10 2.59337e-10
2.83109e-07 1.37884e-05 2.04642e-05 4.686e-06 2.12962e-10 2.53617e-10 0.0237534 0.1473 0.169574 0.169574
0.169574 0.169574 0.169574 0.169574 0.169574 2.71266e-06 1.01675e-05 1.10711e-05 1.00006e-06 1.17659e-08
3.04999e-06 8.50994e-06 8.07842e-09 6.04107e-05 0.000229812 0.000104104 0.00014834 0.169574 0.169063 0.0673752
0.0938988 0.0123644 2.34605e-10 0.00414288 0.0141255 0.0141255 0.00453127 2.95978e-10 3.10815e-10 1.01936e-06
7.09659e-06 7.23572e-06 9.03992e-06 2.68749e-05 8.34129e-05 4.97081e-05 0.00034983 0.000907595 0.00510112 0.00206316
0.00123043 0.0241712 4.59243e-10 4.99112e-10 0.128284 0.280035 0.114489 2.77593e-10 3.09245e-10 0.00649021
0.01364 0.0223177 0.0302624 1.06168e-07 1.21898e-06 4.19075e-09 4.1773e-09 4.89308e-05 4.01674e-09 4.01538e-09
7.82658e-05 0.000124157 0.000238165 8.67844e-05 4.12092e-10 7.19396e-06 2.90604e-05 2.68806e-05 2.68806e-05 0.00279663
0.0795616 0.103027 0.0756739 2.52939e-10 2.73663e-10 9.18201e-05 0.000667551 0.213553 0.0188414 0.00338624
0.000837705 0.00121151 0.000913963 0.000153944 7.23169e-10 7.20928e-10 7.752e-08 1.97573e-10 0.00533601 0.0159282
0.0462558 0.00357594 0.0289322 0.0318308 0.0164938 0.0196707 0.26467 0.396943 0.299002 2.1634e-10
1.01153e-05 
p_rgh 1 192 float
0 -0.0197979 -0.036206 -0.0549824 -0.0379951 -0.0838822 -0.0949446 -0.112269 -0.128682 -0.0874009 -0.0639356
-0.194783 -0.207699 -0.222783 -0.24064 -0.269345 -0.296977 -0.304448 -0.252646 -0.157264 -0.00575712
-0.0950458 0.071282 0.16096 -1.85751 -1.88701 -1.88717 -1.87424 -1.49694 -1.90467 -1.82128
-2.00624 -1.88666 -1.94452 -1.84135 -1.74045 -1.62934 -1.50987 -1.38076 -1.23846 -1.111
-1.06799 -0.925606 -0.84181 -0.807386 -0.8125 -0.840407 -0.868135 -2.65949 -2.68385 -2.67455
-2.64371 -2.61711 -2.66072 -2.58413 -2.41703 -1.92686 -1.87145 -1.82153 -2.19644 -2.50664
-2.46932 -2.41304 -2.32609 -2.21615 -2.09132 -2.22336 -2.32745 -2.11187 -2.28081 -2.05806
-2.00628 2.38642 1.93737 2.02618 0.318835 -0.370495 -0.469875 -0.498069 -0.522129 -0.53911
-0.547756 -0.54998 -0.548357 -0.547916 -0.547654 -0.550825 -0.520728 0.364613 0.69143 0.497276
0.287332 0.0733262 -0.0432835 -0.0529241 -0.00393616 0 2.11403 3.76909 5.8268 8.06335
10.5081 13.1557 15.9973 19.0213 22.1439 25.1874 27.2782 -0.00393616 1.96841 3.17272
5.78225 7.14397 9.73146 12.5905 16.1853 20.2587 24.9361 30.8907 37.8679 -1.85751
0.176835 1.75768 3.6868 5.79279 8.11612 10.6797 13.4009 16.2534 19.2076 22.1778
24.4488 0.16096 1.98621 3.9769 6.22007 11.3003 10.7746 13.3986 17.0769 21.3614
26.4256 31.7418 36.5885 -2.65949 -0.674431 0.942859 2.9169 5.04852 7.41655 10.0584
12.8092 15.5932 18.4336 21.2457 23.3549 -0.868135 0.940118 2.70813 4.81055 7.33582
10.6185 14.6216 17.7584 21.1341 25.5853 30.0447 34.4551 2.38642 1.73368 3.20018
5.30493 7.49456 9.8794 12.452 15.2344 18.2065 21.3379 24.4811 27.3765 -2.00628
-0.135974 1.79744 3.74773 5.72968 8.57934 11.1393 16.2224 23.3762 25.4216 26.8062
31.3141 
U 3 192 float
0.0041094 0.125529 0 0.0123106 0.124992 0 0.0204591 0.123919 0 0.02852 0.122315
0 0.0364587 0.120188 0 0.0442413 0.117546 0 0.0518345 0.114401 0
0.0592057 0.110766 0 0.0663234 0.106657 0 0.0731571 0.102091 0 0.0796775
0.0970873 0 0.0858567 0.0916683 0 0.0916683 0.0858567 0 0.0970873 0.0796775
0 0.102091 0.0731571 0 0.106657 0.0663234 0 0.110766 0.0592057 0
0.114401 0.0518345 0 0.117546 0.0442413 0 0.120188 0.0364587 0 0.122315
0.02852 0 0.123919 0.0204591 0 0.124992 0.0123106 0 0.125529 0.0041094
0 0.125529 -0.0041094 0 0.124992 -0.0123106 0 0.123919 -0.0204591 0
0.122315 -0.02852 0 0.120188 -0.0364587 0 0.117546 -0.0442413 0 0.114401
-0.0518345 0 0.110766 -0.0592057 0 0.106657 -0.0663234 0 0.102091 -0.0731571
0 0.0970873 -0.0796775 0 0.0916683 -0.0858567 0 0.0858567 -0.0916683 0
0.0796775 -0.0970873 0 0.0731571 -0.102091 0 0.0663234 -0.106657 0 0.0592057
-0.110766 0 0.0518345 -0.114401 0 0.0442413 -0.117546 0 0.0364587 -0.120188
0 0.02852 -0.122315 0 0.0204591 -0.123919 0 0.0123106 -0.124992 0
0.0041094 -0.125529 0 -0.0041094 -0.125529 0 -0.0123106 -0.124992 0 -0.0204591
-0.123919 0 -0.02852 -0.122315 0 -0.0364587 -0.120188 0 -0.0442413 -0.117546
0 -0.0518345 -0.114401 0 -0.0592057 -0.110766 0 -0.0663234 -0.106657 0
-0.0731571 -0.102091 0 -0.0796775 -0.0970873 0 -0.0858567 -0.0916683 0 -0.0916683
-0.0858567 0 -0.0970873 -0.0796775 0 -0.102091 -0.0731571 0 -0.106657 -0.0663234
0 -0.110766 -0.0592057 0 -0.114401 -0.0518345 0 -0.117546 -0.0442413 0
-0.120188 -0.0364587 0 -0.122315 -0.02852 0 -0.123919 -0.0204591 0 -0.124992
-0.0123106 0 -0.125529 -0.0041094 0 -0.125529 0.0041094 0 -0.124992 0.0123106
0 -0.123919 0.0204591 0 -0.122315 0.02852 0 -0.120188 0.0364587 0
-0.117546 0.0442413 0 -0.114401 0.0518345 0 -0.110766 0.0592057 0 -0.106657
0.0663234 0 -0.102091 0.0731571 0 -0.0970873 0.0796775 0 -0.0916683 0.0858567
0 -0.0858567 0.0916683 0 -0.0796775 0.0970873 0 -0.0731571 0.102091 0
-0.0663234 0.106657 0 -0.0592057 0.110766 0 -0.0518345 0.114401 0 -0.0442413
0.117546 0 -0.0364587 0.120188 0 -0.02852 0.122315 0 -0.0204591 0.123919
0 -0.0123106 0.124992 0 -0.0041094 0.125529 0 0 0.136136 0
0 0.15708 0 0 0.178024 0 0 0.198968 0 0
0.219911 0 0 0.240855 0 0 0.261799 0 0 0.282743
0 0 0.303687 0 0 0.324631 0 0 0.345575 0
0 0.366519 0 0 0.136136 0 0 0.15708 0 0
0.178024 0 0 0.198968 0 0 0.219911 0 0 0.240855
0 0 0.261799 0 0 0.282743 0 0 0.303687 0
0 0.324631 0 0 0.345575 0 0 0.366519 0 0.136136
2.44349e-10 0 0.15708 2.81942e-10 0 0.178024 3.19534e-10 0 0.198968 3.57126e-10
0 0.219911 3.94718e-10 0 0.240855 4.32311e-10 0 0.261799 4.69903e-10 0
0.282743 5.07495e-10 0 0.303687 5.45087e-10 0 0.324631 5.8268e-10 0 0.345575
6.20272e-10 0 0.366519 6.57864e-10 0 0.136136 2.44349e-10 0 0.15708 2.81942e-10
0 0.178024 3.19534e-10 0 0.198968 3.57126e-10 0 0.219911 3.94718e-10 0
0.240855 4.32311e-10 0 0.261799 4.69903e-10 0 0.282743 5.07495e-10 0 0.303687
5.45087e-10 0 0.324631 5.8268e-10 0 0.345575 6.20272e-10 0 0.366519 6.57864e-10
0 -4.88699e-10 -0.136136 0 -5.63883e-10 -0.15708 0 -6.39068e-10 -0.178024 0
-7.14252e-10 -0.198968 0 -7.89437e-10 -0.219911 0 -8.64621e-10 -0.240855 0 -9.39806e-10
-0.261799 0 -1.01499e-09 -0.282743 0 -1.09017e-09 -0.303687 0 -1.16536e-09 -0.324631
0 -1.24054e-09 -0.345575 0 -1.31573e-09 -0.366519 0 -4.88699e-10 -0.136136 0
-5.63883e-10 -0.15708 0 -6.39068e-10 -0.178024 0 -7.14252e-10 -0.198968 0 -7.89437e-10
-0.219911 0 -8.64621e-10 -0.240855 0 -9.39806e-10 -0.261799 0 -1.01499e-09 -0.282743
0 -1.09017e-09 -0.303687 0 -1.16536e-09 -0.324631 0 -1.24054e-09 -0.345575 0
-1.31573e-09 -0.366519 0 -0.136136 2.44349e-10 0 -0.15708 2.81942e-10 0 -0.178024
3.19534e-10 0 -0.198968 3.57126e-10 0 -0.219911 3.94718e-10 0 -0.240855 4.32311e-10
0 -0.261799 4.69903e-10 0 -0.282743 5.07495e-10 0 -0.303687 5.45087e-10 0
-0.324631 5.8268e-10 0 -0.345575 6.20272e-10 0 -0.366519 6.57864e-10 0 -0.136136
2.44349e-10 0 -0.15708 2.81942e-10 0 -0.178024 3.19534e-10 0 -0.198968 3.57126e-10
0 -0.219911 3.94718e-10 0 -0.240855 4.32311e-10 0 -0.261799 4.69903e-10 0
-0.282743 5.07495e-10 0 -0.303687 5.45087e-10 0 -0.324631 5.8268e-10 0 -0.345575
6.20272e-10 0 -0.366519 6.57864e-10 0 
POINT_DATA  384
FIELD attributes 4
p 1 384 float
0 -0.00989895 -0.00989895 0 -0.0280019 -0.0280019 -0.0455942 -0.0455942 -0.0464888 -0.0464888 -0.0609386
-0.0609386 -0.0894134 -0.0894134 -0.103607 -0.103607 -0.120476 -0.120476 -0.108041 -0.108041 -0.0756683
-0.0756683 -0.129359 -0.129359 -0.201241 -0.201241 -0.215241 -0.215241 -0.231712 -0.231712 -0.254993
-0.254993 -0.283161 -0.283161 -0.300712 -0.300712 -0.278547 -0.278547 -0.204955 -0.204955 -0.0815106
-0.0815106 -0.0504015 -0.0504015 -0.0118819 -0.0118819 0.116121 0.116121 0.16096 0.16096 -1.85751
-1.87226 -1.87226 -1.85751 -1.88709 -1.88709 -1.8807 -1.8807 -1.68559 -1.68559 -1.7008
-1.7008 -1.86298 -1.86298 -1.91376 -1.91376 -1.94645 -1.94645 -1.91559 -1.91559 -1.89294
-1.89294 -1.7909 -1.7909 -1.6849 -1.6849 -1.5696 -1.5696 -1.44532 -1.44532 -1.30961
-1.30961 -1.17473 -1.17473 -1.08949 -1.08949 -0.996798 -0.996798 -0.883708 -0.883708 -0.824598
-0.824598 -0.809943 -0.809943 -0.826454 -0.826454 -0.854271 -0.854271 -0.868135 -0.868135 -2.65949
-2.67167 -2.67167 -2.65949 -2.6792 -2.6792 -2.65913 -2.65913 -2.63041 -2.63041 -2.63892
-2.63892 -2.62243 -2.62243 -2.50058 -2.50058 -2.17195 -2.17195 -1.89916 -1.89916 -1.84649
-1.84649 -2.00899 -2.00899 -2.35154 -2.35154 -2.48798 -2.48798 -2.44118 -2.44118 -2.36957
-2.36957 -2.27112 -2.27112 -2.15373 -2.15373 -2.15734 -2.15734 -2.2754 -2.2754 -2.21966
-2.21966 -2.19634 -2.19634 -2.16944 -2.16944 -2.03217 -2.03217 -2.00628 -2.00628 2.38642
2.1619 2.1619 2.38642 1.98178 1.98178 1.17251 1.17251 -0.02583 -0.02583 -0.420185
-0.420185 -0.483972 -0.483972 -0.510099 -0.510099 -0.53062 -0.53062 -0.543433 -0.543433 -0.548868
-0.548868 -0.549169 -0.549169 -0.548136 -0.548136 -0.547785 -0.547785 -0.54924 -0.54924 -0.535776
-0.535776 -0.0780575 -0.0780575 0.528022 0.528022 0.594353 0.594353 0.392304 0.392304 0.180329
0.180329 0.0150214 0.0150214 -0.0481038 -0.0481038 -0.0284301 -0.0284301 -0.00393616 -0.00393616 1.05701
1.05701 2.94156 2.94156 4.79795 4.79795 6.94508 6.94508 9.28572 9.28572 11.8319
11.8319 14.5765 14.5765 17.5093 17.5093 20.5826 20.5826 23.6656 23.6656 26.2328
26.2328 32.5731 32.5731 0.982237 0.982237 2.57056 2.57056 4.47749 4.47749 6.46311
6.46311 8.43771 8.43771 11.161 11.161 14.3879 14.3879 18.222 18.222 22.5974
22.5974 27.9134 27.9134 34.3793 34.3793 -0.840338 -0.840338 0.967257 0.967257 2.72224
2.72224 4.7398 4.7398 6.95445 6.95445 9.39791 9.39791 12.0403 12.0403 14.8272
14.8272 17.7305 17.7305 20.6927 20.6927 23.3133 23.3133 30.5187 30.5187 1.07359
1.07359 2.98155 2.98155 5.09848 5.09848 8.76019 8.76019 11.0374 11.0374 12.0866
12.0866 15.2378 15.2378 19.2192 19.2192 23.8935 23.8935 29.0837 29.0837 34.1651
34.1651 -1.66696 -1.66696 0.134214 0.134214 1.92988 1.92988 3.98271 3.98271 6.23253
6.23253 8.73748 8.73748 11.4338 11.4338 14.2012 14.2012 17.0134 17.0134 19.8396
19.8396 22.3003 22.3003 28.905 28.905 0.0359915 0.0359915 1.82412 1.82412 3.75934
3.75934 6.07318 6.07318 8.97716 8.97716 12.6201 12.6201 16.19 16.19 19.4463
19.4463 23.3597 23.3597 27.815 27.815 32.2499 32.2499 2.06005 2.06005 2.46693
2.46693 4.25255 4.25255 6.39974 6.39974 8.68698 8.68698 11.1657 11.1657 13.8432
13.8432 16.7204 16.7204 19.7722 19.7722 22.9095 22.9095 25.9288 25.9288 29.3453
29.3453 -1.07113 -1.07113 0.830733 0.830733 2.77258 2.77258 4.73871 4.73871 7.15451
7.15451 9.85932 9.85932 13.6809 13.6809 19.7993 19.7993 24.3989 24.3989 26.1139
26.1139 29.0602 29.0602 
alpha.water 1 384 float
2.71266e-06 9.54788e-06 9.54788e-06 2.71266e-06 1.44534e-05 1.44534e-05 0.000390144 0.000390144 0.00138466 0.00138466 0.0012104
0.0012104 0.000256041 0.000256041 0.000134141 0.000134141 0.000217548 0.000217548 0.00183062 0.00183062 0.00381242
0.00381242 0.0022605 0.0022605 0.000148879 0.000148879 3.62212e-10 3.62212e-10 4.73804e-10 4.73804e-10 6.83431e-06
6.83431e-06 0.00174406 0.00174406 0.00572657 0.00572657 0.00726131 0.00726131 0.00429894 0.00429894 0.00102696
0.00102696 0.0026899 0.0026899 0.0133047 0.0133047 0.0227004 0.0227004 0.0241712 0.0241712 1.01936e-06
5.3555e-07 5.3555e-07 1.01936e-06 5.17619e-08 5.17619e-08 0.00188775 0.00188775 0.00789927 0.00789927 0.00654612
0.00654612 0.000608151 0.000608151 0.00387668 0.00387668 0.0089983 0.0089983 0.0051952 0.0051952 2.4331e-10
2.4331e-10 7.86048e-06 7.86048e-06 0.000125049 0.000125049 0.000262365 0.000262365 0.000174962 0.000174962 4.76034e-05
4.76034e-05 0.000796873 0.000796873 0.00285466 0.00285466 0.00408293 0.00408293 0.00250572 0.00250572 0.000515891
0.000515891 3.72568e-05 3.72568e-05 3.089e-05 3.089e-05 1.47404e-05 1.47404e-05 7.19396e-06 7.19396e-06 1.06168e-07
2.57641e-07 2.57641e-07 1.06168e-07 2.13248e-07 2.13248e-07 1.73806e-08 1.73806e-08 1.7403e-08 1.7403e-08 0.00534421
0.00534421 0.018371 0.018371 0.0340471 0.0340471 0.0525679 0.0525679 0.063095 0.063095 0.063095
0.063095 0.0552463 0.0552463 0.0236988 0.0236988 2.46162e-10 2.46162e-10 2.65676e-10 2.65676e-10 2.65676e-10
2.65676e-10 2.65676e-10 2.65676e-10 2.87597e-10 2.87597e-10 0.00753775 0.00753775 0.0311363 0.0311363 0.0471971
0.0471971 0.0431167 0.0431167 0.0293229 0.0293229 0.0177689 0.0177689 0.0159282 0.0159282 0.213553
0.204195 0.204195 0.213553 0.196253 0.196253 0.153921 0.153921 0.0642063 0.0642063 0.00962447
0.00962447 0.000503675 0.000503675 2.58787e-10 2.58787e-10 2.59062e-10 2.59062e-10 1.41684e-07 1.41684e-07 7.03575e-06
7.03575e-06 1.71263e-05 1.71263e-05 1.25751e-05 1.25751e-05 2.34311e-06 2.34311e-06 2.33289e-10 2.33289e-10 0.0118767
0.0118767 0.0855267 0.0855267 0.158437 0.158437 0.169574 0.169574 0.169574 0.169574 0.169574
0.169574 0.169574 0.169574 0.169574 0.169574 0.169574 0.169574 0.169574 0.169574 6.44008e-06
6.44008e-06 1.06193e-05 1.06193e-05 6.03558e-06 6.03558e-06 5.05913e-07 5.05913e-07 1.53088e-06 1.53088e-06 5.77996e-06
5.77996e-06 4.25901e-06 4.25901e-06 3.02094e-05 3.02094e-05 0.000145111 0.000145111 0.000166958 0.000166958 0.000126222
0.000126222 7.41702e-05 7.41702e-05 0.169318 0.169318 0.118219 0.118219 0.080637 0.080637 0.0531316
0.0531316 0.0061822 0.0061822 0.00207144 0.00207144 0.00913419 0.00913419 0.0141255 0.0141255 0.00932838
0.00932838 0.00226564 0.00226564 3.03397e-10 3.03397e-10 4.05797e-06 4.05797e-06 7.16615e-06 7.16615e-06 8.13782e-06
8.13782e-06 1.79574e-05 1.79574e-05 5.51439e-05 5.51439e-05 6.65605e-05 6.65605e-05 0.000199769 0.000199769 0.000628713
0.000628713 0.00300436 0.00300436 0.00358214 0.00358214 0.00164679 0.00164679 0.0157464 0.0157464 0.0120856
0.0120856 4.79177e-10 4.79177e-10 0.064142 0.064142 0.204159 0.204159 0.197262 0.197262 0.0572445
0.0572445 2.93419e-10 2.93419e-10 0.00324511 0.00324511 0.0100651 0.0100651 0.0179789 0.0179789 0.02629
0.02629 6.62574e-07 6.62574e-07 6.11585e-07 6.11585e-07 4.18403e-09 4.18403e-09 2.44675e-05 2.44675e-05 2.44674e-05
2.44674e-05 4.01606e-09 4.01606e-09 3.91349e-05 3.91349e-05 0.000101211 0.000101211 0.000181161 0.000181161 0.000162475
0.000162475 4.33924e-05 4.33924e-05 0.000333776 0.000333776 1.81272e-05 1.81272e-05 2.79705e-05 2.79705e-05 2.68806e-05
2.68806e-05 0.00141176 0.00141176 0.0411791 0.0411791 0.0912943 0.0912943 0.0893504 0.0893504 0.037837
0.037837 2.63301e-10 2.63301e-10 4.59102e-05 4.59102e-05 0.000379686 0.000379686 0.116197 0.116197 0.0111138
0.0111138 0.00211197 0.00211197 0.00102461 0.00102461 0.00106274 0.00106274 0.000533953 0.000533953 7.69724e-05
7.69724e-05 7.22048e-10 7.22048e-10 3.91205e-08 3.91205e-08 3.88588e-08 3.88588e-08 0.00266801 0.00266801 0.00267306
0.00267306 0.031092 0.031092 0.0249159 0.0249159 0.0162541 0.0162541 0.0303815 0.0303815 0.0241623
0.0241623 0.0180822 0.0180822 0.14217 0.14217 0.330806 0.330806 0.347973 0.347973 0.149501
0.149501 5.05776e-06 5.05776e-06 
p_rgh 1 384 float