/*--------------------------------*- C++ -*----------------------------------*\
| =========                 |                                                 |
| \\      /  F ield         | OpenFOAM: The Open Source CFD Toolbox           |
|  \\    /   O peration     | Version:  v1606+                                |
|   \\  /    A nd           | Web:      www.OpenFOAM.com                      |
|    \\/     M anipulation  |                                                 |
\*---------------------------------------------------------------------------*/
FoamFile
{
    version     2.0;
    format      ascii;
    class       surfaceScalarField;
    location    "0.47";
    object      phi.air;
}
// * * * * * * * * * * * * * * * * * * * * * * * * * * * * * * * * * * * * * //

dimensions      [0 3 -1 0 0 0 0];

internalField   nonuniform List<scalar> 
11770
(
-2.73782e-06
9.09097e-05
-7.35669e-07
8.71253e-05
3.7474e-06
8.45079e-05
6.50929e-06
8.49535e-05
8.59003e-06
8.4436e-05
9.93388e-06
8.33701e-05
1.1273e-05
8.26489e-05
1.22671e-05
8.29878e-05
1.2547e-05
8.43283e-05
1.21976e-05
8.6035e-05
1.11577e-05
8.77423e-05
9.15364e-06
8.92626e-05
5.83737e-06
9.04824e-05
2.32001e-06
9.10001e-05
-2.61403e-07
9.05697e-05
-2.92386e-06
9.0643e-05
-6.35044e-06
9.09273e-05
-9.57507e-06
9.03089e-05
-1.1405e-05
8.90308e-05
-1.23463e-05
8.7598e-05
-1.25551e-05
8.58981e-05
-1.20176e-05
8.41734e-05
-1.09217e-05
8.29516e-05
-9.67377e-06
8.27658e-05
-8.48728e-06
8.36132e-05
-6.48147e-06
8.46367e-05
-3.63197e-06
8.48585e-05
5.89589e-07
8.46668e-05
1.99028e-06
8.76992e-05
9.0924e-05
1.58017e-06
7.93582e-05
-9.93383e-07
7.85151e-05
-1.35142e-06
7.3999e-05
3.00867e-08
7.28882e-05
3.15361e-06
7.1646e-05
8.16599e-06
6.99686e-05
1.36254e-05
6.92892e-05
1.8372e-05
7.02459e-05
2.15259e-05
7.26201e-05
2.19316e-05
7.60334e-05
1.96781e-05
7.95454e-05
1.54702e-05
8.26414e-05
1.04207e-05
8.45957e-05
5.09868e-06
8.53429e-05
-4.60995e-07
8.49711e-05
-5.95214e-06
8.49997e-05
-1.11638e-05
8.51725e-05
-1.60052e-05
8.42689e-05
-2.00701e-05
8.22602e-05
-2.20523e-05
7.91551e-05
-2.13386e-05
7.56143e-05
-1.80926e-05
7.22922e-05
-1.32124e-05
7.00549e-05
-7.66825e-06
6.93307e-05
-2.73826e-06
7.02629e-05
8.77781e-08
7.20605e-05
1.50894e-06
7.29739e-05
1.44009e-06
7.42493e-05
-9.71432e-07
7.91527e-05
7.97213e-05
-2.53627e-06
8.17898e-05
-4.17292e-06
8.04851e-05
-5.90627e-06
7.56531e-05
-2.95079e-06
7.01467e-05
2.01422e-06
6.70103e-05
8.07166e-06
6.4623e-05
1.452e-05
6.38893e-05
2.00787e-05
6.57393e-05
2.40604e-05
6.9416e-05
2.54156e-05
7.50655e-05
2.32834e-05
8.16123e-05
1.82077e-05
8.74726e-05
1.26026e-05
9.01408e-05
6.43069e-06
9.11917e-05
-5.08479e-07
9.11849e-05
-7.37626e-06
9.11308e-05
-1.34986e-05
9.09237e-05
-1.89172e-05
8.96554e-05
-2.3684e-05
8.68251e-05
-2.5395e-05
8.08529e-05
-2.37659e-05
7.43625e-05
-1.96328e-05
6.88865e-05
-1.3909e-05
6.53343e-05
-7.33462e-06
6.3754e-05
-1.22587e-06
6.47971e-05
3.875e-06
6.72641e-05
6.68687e-06
7.02118e-05
4.83955e-06
7.57894e-05
3.32061e-06
8.07855e-05
8.23405e-05
-5.15509e-06
8.47884e-05
-8.56967e-06
8.15623e-05
-8.57915e-06
7.32968e-05
-3.13105e-06
6.38826e-05
3.02226e-06
6.09513e-05
8.96384e-06
5.91298e-05
1.45874e-05
5.90592e-05
1.9315e-05
6.19325e-05
2.32562e-05
6.65904e-05
2.57681e-05
7.36151e-05
2.54504e-05
8.21341e-05
2.0204e-05
9.15184e-05
1.31616e-05
9.54872e-05
6.09787e-06
9.65176e-05
-5.41984e-07
9.62308e-05
-7.18744e-06
9.6159e-05
-1.4196e-05
9.61674e-05
-2.11093e-05
9.48473e-05
-2.58292e-05
9.03903e-05
-2.56918e-05
8.09568e-05
-2.292e-05
7.26405e-05
-1.8706e-05
6.5797e-05
-1.38029e-05
6.13203e-05
-8.11928e-06
5.87679e-05
-2.02325e-06
5.90564e-05
4.29616e-06
6.09349e-05
9.69687e-06
6.38808e-05
9.20058e-06
7.37097e-05
5.24963e-06
8.22436e-05
8.55135e-05
-9.67254e-06
9.18463e-05
-1.15067e-05
8.18869e-05
-5.43965e-06
6.90355e-05
1.34736e-06
6.06927e-05
5.84904e-06
6.00788e-05
9.17664e-06
5.95681e-05
1.18806e-05
6.01002e-05
1.46449e-05
6.32383e-05
1.72622e-05
6.84219e-05
1.91931e-05
7.63405e-05
2.06406e-05
8.5526e-05
1.79563e-05
9.76346e-05
1.16563e-05
0.000103844
5.05007e-06
0.000104699
-5.72454e-07
0.000103476
-6.229e-06
0.000103416
-1.27734e-05
0.00010426
-1.88875e-05
0.000102989
-2.08653e-05
9.58773e-05
-1.91672e-05
8.40639e-05
-1.70034e-05
7.50669e-05
-1.41795e-05
6.73889e-05
-1.13339e-05
6.24735e-05
-8.56068e-06
5.96586e-05
-5.06308e-06
5.92304e-05
-3.87691e-07
5.97305e-05
6.34285e-06
6.05064e-05
1.22702e-05
6.94814e-05
9.90821e-06
8.30721e-05
9.2904e-05
-1.0787e-05
0.000101076
-4.76507e-06
7.94315e-05
3.63668e-06
6.75054e-05
6.27932e-06
6.38526e-05
7.19052e-06
6.34423e-05
8.01568e-06
6.21343e-05
8.99911e-06
6.20118e-05
1.05117e-05
6.4796e-05
1.1836e-05
7.08606e-05
1.19737e-05
8.11293e-05
1.1467e-05
9.37816e-05
1.04801e-05
0.00010846
6.86808e-06
0.000115982
2.88503e-06
0.00011567
-5.44933e-07
0.000113083
-3.99474e-06
0.000113051
-7.94398e-06
0.000115206
-1.13646e-05
0.000114964
-1.17814e-05
0.000106122
-1.21928e-05
9.18905e-05
-1.1671e-05
7.93988e-05
-1.02355e-05
6.96573e-05
-8.70885e-06
6.39802e-05
-7.64936e-06
6.15339e-05
-6.72641e-06
6.17389e-05
-5.7005e-06
6.29674e-05
-2.96899e-06
6.33566e-05
5.69611e-06
6.72627e-05
1.13634e-05
8.0522e-05
0.000102468
-3.48663e-07
0.000106971
8.64535e-06
8.19899e-05
1.07429e-05
7.47962e-05
7.996e-06
7.10263e-05
6.78632e-06
6.73838e-05
6.72836e-06
6.37926e-05
7.49785e-06
6.22528e-05
8.72804e-06
6.44856e-05
1.00357e-05
7.10106e-05
1.02687e-05
8.34984e-05
5.53898e-06
0.000102308
2.91401e-06
0.000119668
1.36725e-06
0.000127782
2.20548e-07
0.000126073
-4.73088e-07
0.000121895
-1.19259e-06
0.000121929
-2.39079e-06
0.000125749
-3.835e-06
0.000126701
-6.42265e-06
0.000116966
-1.05748e-05
9.96313e-05
-9.76815e-06
8.13015e-05
-8.48813e-06
6.96966e-05
-7.23781e-06
6.35522e-05
-6.46385e-06
6.17382e-05
-6.50838e-06
6.34141e-05
-7.71027e-06
6.69591e-05
-1.04023e-05
7.04991e-05
-7.86465e-06
7.40529e-05
1.49052e-06
8.20647e-05
0.000108571
1.34745e-05
0.000107994
1.66804e-05
9.08707e-05
1.1665e-05
8.37216e-05
7.06016e-06
7.73663e-05
5.17578e-06
7.05673e-05
5.22041e-06
6.45951e-05
6.60212e-06
6.15119e-05
8.42842e-06
6.31998e-05
1.09897e-05
6.96515e-05
1.43373e-05
8.20431e-05
8.08896e-06
0.000107389
5.51464e-08
0.000128936
-3.44249e-06
0.00013431
-3.11033e-06
0.000129892
-3.60822e-07
0.000124156
2.23725e-06
0.000124283
2.3466e-06
0.000129695
-1.53949e-06
0.000133456
-9.78002e-06
0.000125991
-1.41164e-05
0.000103297
-1.06741e-05
7.985e-05
-8.26585e-06
6.82137e-05
-6.18893e-06
6.18935e-05
-4.99479e-06
6.0994e-05
-5.08104e-06
6.42542e-05
-7.08121e-06
7.02167e-05
-1.18614e-05
7.69977e-05
-1.69326e-05
8.31576e-05
-1.26391e-05
9.0503e-05
0.000109852
1.66249e-05
0.000102346
1.39512e-05
9.8358e-05
7.39428e-06
9.20532e-05
3.26179e-06
8.33767e-05
1.72483e-06
7.40225e-05
2.75451e-06
6.56564e-05
5.50159e-06
6.08694e-05
9.07183e-06
6.23816e-05
1.2701e-05
7.13218e-05
1.68659e-05
8.41218e-05
1.81881e-05
0.000107078
7.19078e-06
0.000131505
-1.46661e-06
0.00013716
-3.25064e-06
0.0001304
-3.50474e-07
0.000123057
2.25396e-06
0.000123371
1.27371e-07
0.000130478
-8.95127e-06
0.000136787
-1.94323e-05
0.000129251
-1.59549e-05
0.000103261
-1.30277e-05
8.22709e-05
-9.10614e-06
6.90316e-05
-4.62472e-06
6.01196e-05
-2.47385e-06
6.06786e-05
-1.72694e-06
6.54805e-05
-3.4313e-06
7.37531e-05
-7.99648e-06
8.33428e-05
-1.53236e-05
9.22255e-05
-1.78017e-05
9.86886e-05
0.000104294
9.68752e-06
9.57811e-05
5.54199e-06
0.000104356
-1.35942e-07
9.99533e-05
-3.5982e-06
8.96498e-05
-4.32445e-06
7.73528e-05
-1.69834e-06
6.64608e-05
7.28485e-07
6.46417e-05
6.43154e-06
6.55903e-05
1.5652e-05
6.4277e-05
2.47516e-05
6.75559e-05
3.34521e-05
8.43261e-05
2.9259e-05
0.000113971
1.38459e-05
0.000129001
4.03532e-06
0.000120529
-8.11396e-07
0.000111546
-5.89296e-06
0.000112012
-1.57288e-05
0.00012077
-2.948e-05
0.000127288
-3.55763e-05
0.000114241
-2.50683e-05
7.98212e-05
-1.52872e-05
6.6677e-05
-5.90204e-06
6.38017e-05
-2.29444e-07
6.37013e-05
2.06553e-06
6.34306e-05
4.25112e-06
6.67916e-05
3.53085e-06
7.76048e-05
-3.64478e-07
8.99292e-05
-6.88903e-06
0.000100828
-1.10089e-05
0.000104862
9.72348e-05
9.1856e-06
8.77057e-05
-3.56388e-08
0.000109684
-9.01628e-06
0.000106338
-1.36462e-05
9.57472e-05
-1.55508e-05
8.36909e-05
-1.68396e-05
7.65933e-05
-1.94061e-05
7.39924e-05
-1.69948e-05
6.36203e-05
-5.62511e-06
5.00535e-05
1.01729e-05
4.53574e-05
3.07738e-05
5.50465e-05
4.19517e-05
9.10386e-05
3.1592e-05
0.000122397
1.58265e-05
0.00011985
-1.98379e-06
0.000112231
-1.98072e-05
0.0001127
-3.58331e-05
0.000120186
-4.53882e-05
0.000119807
-3.28942e-05
8.95578e-05
-1.2226e-05
5.01768e-05
4.99707e-06
4.4154e-05
1.6029e-05
5.05731e-05
1.74127e-05
6.40186e-05
1.59986e-05
7.33359e-05
1.35213e-05
7.6421e-05
1.28798e-05
8.31209e-05
8.92941e-06
9.55674e-05
-1.06474e-06
0.000108064
-9.65076e-06
0.000110059
8.8806e-05
1.34419e-05
7.29229e-05
-4.39045e-06
0.000118438
-2.56256e-05
0.00012214
-4.11057e-05
0.000109928
-5.14797e-05
9.77539e-05
-6.06574e-05
8.65254e-05
-5.98532e-05
7.10728e-05
-5.22917e-05
5.3476e-05
-4.01182e-05
3.81062e-05
-2.23238e-05
2.95758e-05
4.80576e-06
3.03207e-05
2.84676e-05
6.78413e-05
2.84777e-05
0.00011795
1.62507e-05
0.00012852
-2.23638e-06
0.000126449
-2.06119e-05
0.000126813
-3.28965e-05
0.000128678
-3.06934e-05
0.000113054
-2.72922e-06
6.21858e-05
2.19437e-05
2.76174e-05
3.94602e-05
2.85033e-05
5.134e-05
3.86244e-05
5.77113e-05
5.50841e-05
5.63348e-05
7.3711e-05
4.63135e-05
8.86561e-05
3.66314e-05
9.74205e-05
2.33697e-05
0.000108959
2.40678e-06
0.00012357
-1.45049e-05
0.000118174
7.37402e-05
7.86163e-07
7.48258e-05
-3.17657e-05
0.000133925
-7.54888e-05
0.000145568
-0.000100034
0.000119801
-9.9415e-05
8.89982e-05
-9.10657e-05
7.08189e-05
-7.68699e-05
5.3494e-05
-6.31952e-05
3.93507e-05
-5.2203e-05
2.79001e-05
-4.10398e-05
2.00389e-05
-2.41182e-05
1.70464e-05
5.19579e-06
4.34897e-05
1.85866e-05
0.000105296
1.10276e-05
0.000134926
-1.71913e-06
0.000138507
-1.43969e-05
0.000138804
-2.14611e-05
0.000134419
-3.87377e-06
9.6896e-05
2.59369e-05
3.73559e-05
4.03798e-05
1.64253e-05
5.098e-05
1.94766e-05
6.25898e-05
2.77314e-05
7.71241e-05
3.98111e-05
9.06289e-05
5.62038e-05
9.83633e-05
7.42468e-05
9.59732e-05
9.17574e-05
6.91044e-05
0.000120688
2.60471e-05
0.000146444
-4.83813e-06
0.000133046
7.03379e-05
-2.8133e-05
9.85157e-05
-6.13563e-05
0.000152033
-9.69165e-05
0.000161543
-0.000113348
0.000120159
-0.000101934
7.06967e-05
-8.58527e-05
5.15592e-05
-7.23229e-05
3.77021e-05
-6.1973e-05
2.74314e-05
-5.45851e-05
1.9888e-05
-4.9546e-05
1.51849e-05
-4.27537e-05
1.31095e-05
-1.70159e-05
2.50217e-05
8.54154e-06
8.5491e-05
6.83834e-06
0.000135499
-1.01995e-06
0.000145813
-8.92695e-06
0.000146101
-9.62594e-06
0.000134086
1.98669e-05
7.41997e-05
4.37257e-05
2.08115e-05
4.87911e-05
1.37081e-05
5.32086e-05
1.51678e-05
6.08389e-05
1.94063e-05
7.2043e-05
2.69815e-05
8.783e-05
3.82233e-05
0.000105188
5.32951e-05
0.000114038
7.47862e-05
9.09064e-05
0.000125323
5.60659e-05
0.000161104
2.38295e-05
0.000149374
9.1477e-05
-4.15799e-05
0.000131117
-5.71993e-05
0.000162267
-6.98774e-05
0.000166334
-8.7291e-05
0.0001262
-8.21516e-05
6.03906e-05
-7.12334e-05
3.85064e-05
-6.21507e-05
2.67419e-05
-5.55348e-05
1.90621e-05
-5.18918e-05
1.46673e-05
-4.98783e-05
1.26123e-05
-4.9321e-05
1.38984e-05
-3.347e-05
1.87154e-05
-2.69899e-06
6.53389e-05
3.46133e-06
0.000131851
-2.09234e-08
0.000151109
-2.96059e-06
0.00015076
3.72304e-06
0.000131077
3.46133e-05
5.44968e-05
4.7669e-05
1.63132e-05
4.8546e-05
1.3147e-05
5.07433e-05
1.23034e-05
5.45853e-05
1.39929e-05
6.14049e-05
1.84207e-05
7.20566e-05
2.57352e-05
8.46908e-05
3.84148e-05
8.84155e-05
6.45845e-05
6.64642e-05
0.000134472
5.5623e-05
0.000164458
3.98141e-05
0.000159283
0.000122645
-2.4676e-05
0.000151206
-3.00639e-05
0.000166191
-3.59772e-05
0.000168119
-5.59414e-05
0.000134622
-5.95948e-05
5.62579e-05
-5.35447e-05
3.02894e-05
-4.93729e-05
2.09569e-05
-4.59953e-05
1.47317e-05
-4.45678e-05
1.15708e-05
-4.30604e-05
9.59932e-06
-4.42505e-05
1.36053e-05
-3.99438e-05
2.34258e-05
-1.53442e-05
5.76744e-05
-2.48973e-06
0.000130677
-1.34727e-07
0.000157553
3.75904e-06
0.000155907
2.00823e-05
0.000128361
4.03317e-05
5.04656e-05
4.23471e-05
2.08184e-05
4.1922e-05
1.18659e-05
4.38005e-05
8.84292e-06
4.53432e-05
1.09454e-05
4.80857e-05
1.46421e-05
5.27954e-05
1.9844e-05
5.95965e-05
2.9024e-05
5.48849e-05
6.01373e-05
3.5253e-05
0.000142451
3.07165e-05
0.000164882
2.61147e-05
0.000162179
0.000143738
-6.17574e-06
0.000156719
-3.45896e-06
0.000162753
-4.94149e-06
0.000166983
-1.98089e-05
0.000142962
-3.31661e-05
6.09071e-05
-3.2122e-05
2.63846e-05
-3.49686e-05
2.41765e-05
-3.52107e-05
1.57401e-05
-3.48885e-05
1.02096e-05
-3.34113e-05
6.44749e-06
-3.44131e-05
1.35093e-05
-3.98533e-05
3.182e-05
-3.16251e-05
6.93957e-05
-1.33198e-05
0.000135952
-6.61405e-08
0.000163195
1.44899e-05
0.000160703
3.75458e-05
0.000129351
4.03282e-05
6.54078e-05
3.42545e-05
2.9097e-05
3.34367e-05
1.16355e-05
3.50239e-05
5.64462e-06
3.50509e-05
9.9318e-06
3.37716e-05
1.6736e-05
3.03029e-05
2.37638e-05
3.03192e-05
2.57899e-05
1.60456e-05
6.59802e-05
5.76434e-06
0.000147568
5.14031e-06
0.000162872
8.18642e-06
0.000158509
0.000151062
1.73976e-06
0.000157786
1.28998e-05
0.000155075
2.11543e-05
0.000161623
1.87929e-05
0.000148243
2.58213e-06
7.75766e-05
-6.47414e-06
3.43938e-05
-2.47925e-05
4.07503e-05
-2.9105e-05
2.2814e-05
-3.00459e-05
1.16396e-05
-2.70808e-05
4.00026e-06
-2.49295e-05
1.42244e-05
-3.199e-05
4.27384e-05
-4.3563e-05
8.80887e-05
-2.2458e-05
0.00014249
1.51211e-06
0.000169314
2.53161e-05
0.000167014
4.49043e-05
0.000136001
3.10678e-05
8.48699e-05
2.55055e-05
3.9097e-05
2.80811e-05
1.20788e-05
3.12961e-05
2.99297e-06
3.02115e-05
1.13072e-05
2.35018e-05
2.45975e-05
2.99815e-06
4.26994e-05
-8.17839e-06
3.74865e-05
-2.3025e-05
8.22444e-05
-1.89767e-05
0.000147874
-1.03126e-05
0.000157227
-4.15767e-08
0.000151827
0.000153741
4.7758e-06
0.000159315
2.2241e-05
0.000146849
4.24435e-05
0.000152065
5.62799e-05
0.000144058
4.72203e-05
9.39096e-05
2.1093e-05
6.58667e-05
-1.25895e-05
6.86272e-05
-3.08272e-05
4.14581e-05
-3.3246e-05
1.29424e-05
-2.0389e-05
-1.06529e-06
-1.27513e-05
1.28765e-05
-1.88125e-05
5.42901e-05
-3.07466e-05
9.27452e-05
-2.3181e-05
0.000132572
2.51849e-06
0.00015179
2.64384e-05
0.000150181
3.04692e-05
0.000127578
1.77973e-05
8.9798e-05
1.36111e-05
4.98663e-05
2.20077e-05
1.00989e-05
3.53684e-05
-2.17191e-06
3.1228e-05
1.25841e-05
1.15106e-05
4.3166e-05
-2.40108e-05
6.99601e-05
-5.23475e-05
6.81087e-05
-5.73689e-05
9.50424e-05
-3.97127e-05
0.000140178
-1.99978e-05
0.000148065
-4.25994e-06
0.00014492
0.000155603
1.18053e-05
0.000154539
2.98862e-05
0.00013873
5.1281e-05
0.000139595
7.03613e-05
0.000130793
5.87603e-05
9.81622e-05
1.6138e-05
8.7189e-05
-2.14703e-05
8.35681e-05
-4.69825e-05
4.16896e-05
-3.88941e-05
1.91916e-06
-2.46138e-05
-4.23545e-06
-6.708e-06
3.8012e-06
-6.32051e-06
4.24414e-05
-1.0944e-05
7.8826e-05
-1.08315e-05
0.000105483
1.53766e-06
0.000111635
1.29861e-05
0.000110906
1.07429e-05
0.000103068
6.56441e-06
7.60791e-05
8.37586e-06
3.76787e-05
2.71933e-05
4.94404e-07
4.40835e-05
-7.7066e-06
4.89691e-05
1.81947e-06
2.26192e-05
4.42448e-05
-1.48648e-05
8.57656e-05
-5.90866e-05
9.02968e-05
-7.1776e-05
9.85697e-05
-4.93747e-05
0.000122283
-2.99305e-05
0.00013634
-1.20103e-05
0.000136408
0.000150354
2.68285e-05
0.000128426
3.86095e-05
0.000121221
4.39142e-05
0.000121586
4.37086e-05
0.00011487
1.48829e-05
0.000106972
-2.18806e-05
0.000109115
-4.38391e-05
9.66362e-05
-6.60031e-05
4.75846e-05
-7.53945e-05
-4.84511e-06
-6.28218e-05
-2.23691e-05
-3.89392e-05
-1.65344e-05
-1.87477e-05
2.04812e-05
-8.12634e-06
5.93345e-05
-4.11845e-06
8.71303e-05
3.45293e-07
9.05968e-05
4.60784e-06
9.02937e-05
8.37219e-06
8.56186e-05
2.03437e-05
5.61952e-05
4.10195e-05
1.58078e-05
6.54235e-05
-2.02382e-05
7.60458e-05
-2.53769e-05
6.50742e-05
-3.14436e-06
4.44548e-05
5.03088e-05
2.47101e-05
9.80095e-05
-9.30994e-06
0.000111106
-3.79444e-05
0.000107799
-3.99647e-05
0.000108353
-3.76241e-05
0.000120339
-2.52461e-05
0.000118065
0.00012485
1.88279e-05
9.77178e-05
1.72517e-05
0.00010582
6.45435e-06
0.00011527
-1.13785e-05
0.000118191
-3.35403e-05
0.000121245
-4.55808e-05
0.000118711
-5.00696e-05
9.93438e-05
-6.03498e-05
5.18215e-05
-7.27907e-05
-4.366e-06
-7.14503e-05
-3.08415e-05
-5.5068e-05
-3.27641e-05
-3.15023e-05
1.17342e-06
-1.55917e-05
4.50394e-05
-6.35848e-06
7.6686e-05
-9.45836e-08
8.19997e-05
6.35509e-06
8.16234e-05
1.58674e-05
7.51287e-05
3.2302e-05
4.16586e-05
5.5512e-05
-2.98029e-06
7.10163e-05
-3.55957e-05
6.97668e-05
-3.24149e-05
5.79791e-05
-2.90809e-06
4.95938e-05
5.3287e-05
4.69459e-05
9.91597e-05
3.77934e-05
0.000118286
1.7916e-05
0.000120767
-3.50099e-06
0.000116651
-1.45986e-05
0.000114965
-1.65246e-05
0.00010349
9.60721e-05
-7.84473e-06
9.50906e-05
-2.08068e-05
0.000110252
-3.20044e-05
0.000120614
-4.22968e-05
0.000124699
-4.78618e-05
0.000125664
-4.75641e-05
0.000118083
-4.44356e-05
9.55162e-05
-4.79511e-05
5.17263e-05
-5.75479e-05
-3.29777e-06
-5.92263e-05
-3.58863e-05
-4.85498e-05
-4.18145e-05
-3.25078e-05
-1.04621e-05
-1.93837e-05
3.44885e-05
-8.85074e-06
6.70613e-05
-1.52824e-07
7.36644e-05
8.70163e-06
7.31684e-05
1.94176e-05
6.53916e-05
3.26781e-05
3.11026e-05
4.84446e-05
-1.42074e-05
5.80369e-05
-4.38792e-05
5.4877e-05
-3.63344e-05
4.55801e-05
-1.8409e-06
4.35537e-05
5.20692e-05
4.80427e-05
9.40964e-05
4.97315e-05
0.000116321
4.51924e-05
0.000124328
3.47856e-05
0.000123894
2.38107e-05
0.000120647
9.77294e-06
0.000109518
9.60285e-05
-1.93546e-05
0.000111599
-3.192e-05
0.000121126
-3.97114e-05
0.000127557
-4.47155e-05
0.000129294
-4.53969e-05
0.000126185
-4.10452e-05
0.000113676
-3.50264e-05
8.91778e-05
-3.50634e-05
4.93425e-05
-4.27408e-05
-2.46211e-06
-4.64512e-05
-3.82938e-05
-4.05144e-05
-4.66419e-05
-2.94447e-05
-1.73508e-05
-1.95247e-05
2.68378e-05
-9.63181e-06
5.80171e-05
-2.0255e-07
6.47388e-05
9.31012e-06
6.41781e-05
1.92998e-05
5.63087e-05
2.92841e-05
2.35303e-05
4.01064e-05
-2.0743e-05
4.51925e-05
-4.8173e-05
4.04757e-05
-3.81204e-05
3.32165e-05
-1.16662e-06
3.42769e-05
4.89199e-05
4.12231e-05
8.6929e-05
4.64877e-05
0.000111017
4.63951e-05
0.000124258
4.12572e-05
0.000128663
3.33738e-05
0.000127787
1.9982e-05
0.000121364
0.000113471
-1.85218e-05
0.000129742
-2.96952e-05
0.000132096
-3.64765e-05
0.0001342
-3.98463e-05
0.00013251
-3.81946e-05
0.000124503
-3.232e-05
0.000107875
-2.59081e-05
8.26481e-05
-2.43449e-05
4.63851e-05
-3.10952e-05
-9.39444e-07
-3.65447e-05
-3.86028e-05
-3.33434e-05
-4.92186e-05
-2.54603e-05
-2.15709e-05
-1.80022e-05
2.12219e-05
-9.26234e-06
4.99109e-05
-2.43153e-07
5.6111e-05
8.81137e-06
5.55285e-05
1.76161e-05
4.81954e-05
2.51461e-05
1.79684e-05
3.28254e-05
-2.47003e-05
3.52852e-05
-5.03432e-05
2.90902e-05
-3.78799e-05
2.29496e-05
1.23578e-07
2.53806e-05
4.5339e-05
3.22327e-05
7.99894e-05
3.85593e-05
0.000104772
4.07039e-05
0.000122092
3.76052e-05
0.000131637
3.07419e-05
0.00013451
1.91027e-05
0.000132827
0.000132237
-1.49454e-05
0.000144575
-2.41593e-05
0.000141235
-3.01286e-05
0.000140018
-3.21695e-05
0.000134455
-2.93766e-05
0.000121783
-2.3763e-05
0.000102339
-1.79522e-05
7.67927e-05
-1.5708e-05
4.3321e-05
-2.12723e-05
6.0948e-07
-2.73736e-05
-3.73983e-05
-2.60727e-05
-4.98474e-05
-2.07269e-05
-2.36363e-05
-1.53682e-05
1.73543e-05
-8.10999e-06
4.31327e-05
-2.86067e-07
4.85781e-05
7.5446e-06
4.80013e-05
1.4842e-05
4.1433e-05
2.02778e-05
1.41354e-05
2.54927e-05
-2.65809e-05
2.61355e-05
-5.06242e-05
1.95717e-05
-3.63283e-05
1.47166e-05
1.30622e-06
1.75516e-05
4.18393e-05
2.34903e-05
7.40107e-05
2.9206e-05
9.9132e-05
3.2327e-05
0.000119069
3.08203e-05
0.000133122
2.4942e-05
0.000140263
1.53827e-05
0.000142338
0.000147524
-1.18439e-05
0.000156335
-1.92088e-05
0.000148591
-2.38049e-05
0.000144516
-2.42395e-05
0.000134937
-2.09849e-05
0.000118661
-1.61237e-05
9.75531e-05
-1.13654e-05
7.19908e-05
-9.05081e-06
4.05165e-05
-1.30657e-05
1.72457e-06
-1.9246e-05
-3.53767e-05
-1.9299e-05
-4.90587e-05
-1.5815e-05
-2.41914e-05
-1.21117e-05
1.48673e-05
-6.48843e-06
3.79036e-05
-3.09027e-07
4.26449e-05
5.84409e-06
4.21023e-05
1.14686e-05
3.6251e-05
1.52739e-05
1.16608e-05
1.86937e-05
-2.70309e-05
1.80278e-05
-4.95415e-05
1.16386e-05
-3.41297e-05
8.37478e-06
2.00137e-06
1.10416e-05
3.87675e-05
1.57962e-05
6.92112e-05
2.05483e-05
9.44469e-05
2.39017e-05
0.000115861
2.39701e-05
0.000133161
1.98065e-05
0.000144405
1.2224e-05
0.000149932
0.000159669
-1.01399e-05
0.000166372
-1.57152e-05
0.000154217
-1.80947e-05
0.000146968
-1.69188e-05
0.000133949
-1.35387e-05
0.000115466
-9.50273e-06
9.36145e-05
-5.70794e-06
6.81672e-05
-3.65997e-06
3.81465e-05
-6.39491e-06
2.4928e-06
-1.23405e-05
-3.28274e-05
-1.35585e-05
-4.71829e-05
-1.12244e-05
-2.40056e-05
-8.61437e-06
1.32834e-05
-4.6429e-06
3.42459e-05
-2.81483e-07
3.84823e-05
4.02417e-06
3.79995e-05
7.95271e-06
3.26861e-05
1.06172e-05
1.01534e-05
1.28417e-05
-2.67128e-05
1.11205e-05
-4.74404e-05
5.19974e-06
-3.15407e-05
3.12923e-06
2.35967e-06
5.42392e-06
3.6199e-05
9.20755e-06
6.5405e-05
1.31045e-05
9.0643e-05
1.64012e-05
0.000112742
1.78368e-05
0.00013193
1.60255e-05
0.000146359
1.05016e-05
0.000155523
0.000170062
-9.42833e-06
0.000175669
-1.30641e-05
0.000157958
-1.30602e-05
0.000147188
-1.05932e-05
0.000131756
-7.20497e-06
0.000112302
-3.75766e-06
9.02898e-05
-6.32474e-07
6.50664e-05
1.02043e-06
3.62599e-05
-1.00084e-06
3.08372e-06
-6.17629e-06
-3.01522e-05
-8.25963e-06
-4.44214e-05
-6.81795e-06
-2.32463e-05
-5.05816e-06
1.24876e-05
-2.71575e-06
3.21698e-05
-1.72837e-07
3.60952e-05
2.32233e-06
3.56634e-05
4.61462e-06
3.07154e-05
6.20193e-06
9.64896e-06
7.30797e-06
-2.56335e-05
4.86094e-06
-4.45357e-05
-8.00154e-08
-2.90136e-05
-1.49208e-06
2.52904e-06
4.04445e-07
3.41034e-05
3.53114e-06
6.23019e-05
6.8575e-06
8.74297e-05
1.01133e-05
0.000109692
1.26286e-05
0.000129672
1.30322e-05
0.00014619
9.64021e-06
0.000159033
0.000179567
-8.73628e-06
0.000184245
-1.04673e-05
0.000159849
-8.53466e-06
0.000145542
-5.1579e-06
0.00012869
-1.75173e-06
0.000109137
1.33239e-06
8.73723e-05
3.93339e-06
6.25416e-05
5.26733e-06
3.47862e-05
3.67211e-06
3.64329e-06
-7.32218e-07
-2.74887e-05
-3.44045e-06
-4.10316e-05
-3.0917e-06
-2.18096e-05
-2.12719e-06
1.2414e-05
-1.06963e-06
3.13455e-05
1.15089e-08
3.5126e-05
1.12833e-06
3.46647e-05
2.21435e-06
2.99155e-05
2.47351e-06
1.03401e-05
2.31032e-06
-2.37841e-05
-6.0299e-07
-4.1125e-05
-4.56194e-06
-2.66955e-05
-5.64423e-06
2.73161e-06
-4.14046e-06
3.24922e-05
-1.5224e-06
5.97598e-05
1.4605e-06
8.45973e-05
4.72622e-06
0.000106648
8.02977e-06
0.000126656
1.01082e-05
0.000144377
8.6738e-06
0.000160631
0.000188074
-7.88222e-06
0.000191935
-7.7737e-06
0.000159936
-4.31062e-06
0.00014239
-2.90006e-07
0.000125001
3.15469e-06
0.00010597
5.96528e-06
8.47671e-05
8.13415e-06
6.05016e-05
9.06624e-06
3.3817e-05
7.60299e-06
4.38066e-06
3.86837e-06
-2.49036e-05
9.32404e-07
-3.73249e-05
3.80682e-08
-1.96463e-05
-1.42823e-07
1.33357e-05
7.11617e-08
3.13343e-05
1.96489e-07
3.50679e-05
5.34692e-07
3.44043e-05
1.14321e-06
2.95506e-05
-1.12964e-06
1.33255e-05
-2.19346e-06
-2.16087e-05
-5.14209e-06
-3.7512e-05
-8.3154e-06
-2.45262e-05
-9.37801e-06
3.1695e-06
-8.35356e-06
3.14373e-05
-6.20217e-06
5.7735e-05
-3.4794e-06
8.20715e-05
-1.6437e-07
0.000103596
3.74707e-06
0.000123057
7.25406e-06
0.000141167
7.69984e-06
0.000160387
0.000195581
-6.73682e-06
0.000198441
-4.77e-06
0.000158236
-6.55064e-08
0.000138066
4.42001e-06
0.000120903
7.81775e-06
0.0001029
1.03022e-05
8.25437e-05
1.19922e-05
5.89964e-05
1.24927e-05
3.33366e-05
1.10613e-05
5.31911e-06
7.87016e-06
-2.23305e-05
4.84397e-06
-3.33956e-05
3.1741e-06
-1.72184e-05
5.75387e-07
1.64949e-05
4.81406e-07
3.16062e-05
-3.08369e-08
3.56022e-05
-4.83772e-07
3.48899e-05
-5.96963e-07
2.98269e-05
-3.69119e-06
1.68322e-05
-5.73551e-06
-1.88524e-05
-8.8297e-06
-3.35934e-05
-1.15649e-05
-2.23215e-05
-1.27432e-05
3.91705e-06
-1.22378e-05
3.09535e-05
-1.06175e-05
5.62852e-05
-8.23904e-06
7.99395e-05
-4.98113e-06
0.000100655
-6.23404e-07
0.00011908
4.10281e-06
0.000136819
6.45069e-06
0.000158325
0.0002018
-5.19883e-06
0.00020338
-1.18066e-06
0.000154606
4.67051e-06
0.000132705
9.36834e-06
0.000116682
1.24573e-05
0.000100217
1.43916e-05
8.09373e-05
1.55072e-05
5.81335e-05
1.56067e-05
3.33756e-05
1.40473e-05
6.65022e-06
1.10187e-05
-1.94932e-05
7.68837e-06
-2.91077e-05
5.34033e-06
-1.43556e-05
1.93509e-06
2.01983e-05
1.09396e-06
3.25586e-05
-3.52293e-07
3.70152e-05
-1.9975e-06
3.65038e-05
-3.39306e-06
3.12718e-05
-5.46072e-06
1.90021e-05
-8.22322e-06
-1.55786e-05
-1.165e-05
-2.92326e-05
-1.44165e-05
-1.96931e-05
-1.58965e-05
5.18242e-06
-1.58646e-05
3.10423e-05
-1.48179e-05
5.54805e-05
-1.29635e-05
7.84022e-05
-1.00058e-05
9.80928e-05
-5.469e-06
0.000115016
3.30951e-07
0.000131516
4.72807e-06
0.00015435
0.000206297
-1.90321e-06
0.000205196
3.67206e-06
0.000149586
1.0106e-05
0.000126921
1.4555e-05
0.000112831
1.69569e-05
9.83089e-05
1.81505e-05
8.01481e-05
1.87521e-05
5.7877e-05
1.85668e-05
3.38104e-05
1.66549e-05
8.57481e-06
1.36442e-05
-1.63885e-05
9.89162e-06
-2.43456e-05
6.54745e-06
-1.06668e-05
4.05787e-06
2.27015e-05
2.07238e-06
3.45901e-05
-3.09206e-07
3.93389e-05
-2.86493e-06
3.89828e-05
-5.14964e-06
3.35535e-05
-7.0076e-06
2.09228e-05
-1.04501e-05
-1.17967e-05
-1.41116e-05
-2.45509e-05
-1.69872e-05
-1.6712e-05
-1.89138e-05
7.10254e-06
-1.9187e-05
3.15408e-05
-1.86502e-05
5.52705e-05
-1.74845e-05
7.76378e-05
-1.51733e-05
9.62763e-05
-1.09191e-05
0.000111361
-4.69415e-06
0.000125951
9.35513e-07
0.000149314
0.000207252
4.55973e-06
0.000201201
1.05555e-05
0.000144429
1.6433e-05
0.000121904
1.98943e-05
0.00011011
2.11276e-05
9.76675e-05
2.13978e-05
8.03742e-05
2.1638e-05
5.80986e-05
2.16234e-05
3.4255e-05
1.84068e-05
1.20902e-05
1.56458e-05
-1.3296e-05
1.16014e-05
-1.93439e-05
7.53497e-06
-6.57712e-06
5.352e-06
2.48033e-05
2.48548e-06
3.74923e-05
-1.59055e-07
4.19713e-05
-2.91837e-06
4.17003e-05
-5.97361e-06
3.65938e-05
-8.05356e-06
2.29509e-05
-1.2185e-05
-7.60351e-06
-1.61126e-05
-1.96272e-05
-1.88253e-05
-1.36788e-05
-2.20396e-05
1.05655e-05
-2.211e-05
3.19998e-05
-2.18627e-05
5.54598e-05
-2.15398e-05
7.78058e-05
-2.03274e-05
9.56614e-05
-1.70494e-05
0.000108826
-1.15341e-05
0.000121303
-5.7457e-06
0.000144402
0.000202223
1.27649e-05
0.00018998
1.87357e-05
0.000139773
2.29493e-05
0.000118789
2.47022e-05
0.000109215
2.43552e-05
9.86768e-05
2.34974e-05
8.1814e-05
2.31888e-05
5.90016e-05
2.29461e-05
3.50845e-05
2.02467e-05
1.53531e-05
1.7264e-05
-9.75434e-06
1.29047e-05
-1.41037e-05
8.58088e-06
-2.43404e-06
6.93146e-06
2.62576e-05
2.28758e-06
4.21858e-05
9.23959e-08
4.42975e-05
-2.10774e-06
4.40252e-05
-6.8504e-06
4.13507e-05
-8.99777e-06
2.4787e-05
-1.35409e-05
-3.20531e-06
-1.78725e-05
-1.43736e-05
-2.07963e-05
-1.02e-05
-2.34419e-05
1.37283e-05
-2.3627e-05
3.27357e-05
-2.37806e-05
5.61858e-05
-2.44683e-05
7.90742e-05
-2.47651e-05
9.66329e-05
-2.31227e-05
0.000108051
-1.9117e-05
0.000118404
-1.33876e-05
0.000140016
0.000190461
1.9095e-05
0.000173303
2.56547e-05
0.000135104
2.81551e-05
0.000117592
2.81035e-05
0.000110194
2.62409e-05
0.000101246
2.44315e-05
8.4301e-05
2.36377e-05
6.05395e-05
2.26442e-05
3.67921e-05
2.19799e-05
1.67352e-05
1.84652e-05
-5.53558e-06
1.36892e-05
-8.55373e-06
8.97977e-06
1.94142e-06
7.47799e-06
2.74201e-05
4.07367e-06
4.56775e-05
4.09767e-07
4.81877e-05
-3.23986e-06
4.79303e-05
-6.82266e-06
4.50364e-05
-9.01113e-06
2.65721e-05
-1.41466e-05
1.58326e-06
-1.90406e-05
-8.6592e-06
-2.25389e-05
-5.94953e-06
-2.31746e-05
1.50764e-05
-2.39743e-05
3.42325e-05
-2.44199e-05
5.73709e-05
-2.58919e-05
8.12279e-05
-2.76205e-05
9.90816e-05
-2.76831e-05
0.000109056
-2.52814e-05
0.000117318
-1.87583e-05
0.000135391
0.000174093
2.11615e-05
0.000155044
2.91295e-05
0.000129407
3.06167e-05
0.000117458
2.94832e-05
0.000112253
2.68477e-05
0.000104606
2.49747e-05
8.69538e-05
2.47708e-05
6.16782e-05
2.24076e-05
4.00735e-05
2.29126e-05
1.6982e-05
1.9172e-05
-1.07711e-06
1.37564e-05
-2.46089e-06
8.13774e-06
7.2608e-06
5.5864e-06
2.97657e-05
4.47875e-06
4.70219e-05
5.98947e-07
5.23456e-05
-3.25689e-06
5.20534e-05
-4.53353e-06
4.65165e-05
-7.69793e-06
2.94459e-05
-1.37945e-05
7.36532e-06
-1.94782e-05
-2.24629e-06
-2.33534e-05
-1.27308e-06
-2.29175e-05
1.54391e-05
-2.48919e-05
3.71437e-05
-2.45456e-05
5.79977e-05
-2.59376e-05
8.34273e-05
-2.84666e-05
0.000102348
-2.9662e-05
0.000111189
-2.83053e-05
0.000117332
-2.04325e-05
0.000129788
0.000156492
1.96413e-05
0.000138329
2.89703e-05
0.000122297
3.02944e-05
0.000117347
2.87333e-05
0.000114648
2.60172e-05
0.00010801
2.4523e-05
8.92895e-05
2.44107e-05
6.28877e-05
2.35755e-05
4.21032e-05
2.39502e-05
1.74767e-05
1.95786e-05
4.05632e-06
1.3348e-05
4.34022e-06
6.93303e-06
1.34035e-05
3.58641e-06
3.30431e-05
2.40463e-06
4.85916e-05
6.93324e-07
5.4526e-05
-1.03666e-06
5.42369e-05
-2.37006e-06
4.81963e-05
-6.0771e-06
3.30227e-05
-1.28737e-05
1.38376e-05
-1.94318e-05
4.89034e-06
-2.41249e-05
4.28254e-06
-2.40242e-05
1.62846e-05
-2.44376e-05
3.88103e-05
-2.37313e-05
5.84812e-05
-2.46755e-05
8.52837e-05
-2.73995e-05
0.000105785
-2.91533e-05
0.000113792
-2.79343e-05
0.000117343
-1.89282e-05
0.000123009
0.000140462
1.65943e-05
0.000124089
2.60198e-05
0.000114746
2.79448e-05
0.000116385
2.6639e-05
0.00011657
2.49562e-05
0.000110299
2.49281e-05
9.02209e-05
2.25097e-05
6.65504e-05
2.54591e-05
4.04728e-05
2.49991e-05
1.88899e-05
1.98229e-05
9.98104e-06
1.2903e-05
1.16715e-05
6.00725e-06
2.00635e-05
2.39905e-06
3.67336e-05
1.35624e-06
5.01671e-05
7.04881e-07
5.58313e-05
2.11212e-08
5.55619e-05
-1.1009e-06
4.98343e-05
-4.8405e-06
3.68359e-05
-1.19898e-05
2.07139e-05
-1.92073e-05
1.24768e-05
-2.47743e-05
1.06439e-05
-2.5664e-05
1.8186e-05
-2.2541e-05
3.70843e-05
-2.38471e-05
6.11598e-05
-2.33087e-05
8.57662e-05
-2.51157e-05
0.000108234
-2.67225e-05
0.000116038
-2.5136e-05
0.000116726
-1.60079e-05
0.000115799
0.000126838
1.35687e-05
0.000112082
2.16098e-05
0.000108006
2.41141e-05
0.000114495
2.40291e-05
0.000116949
2.41245e-05
0.000110655
2.58549e-05
8.94126e-05
2.50744e-05
6.87738e-05
2.78889e-05
3.89896e-05
2.6035e-05
2.16634e-05
2.01106e-05
1.65306e-05
1.27091e-05
1.93119e-05
5.54927e-06
2.70401e-05
1.81703e-06
4.06694e-05
8.48483e-07
5.17705e-05
7.10321e-07
5.6744e-05
5.41119e-07
5.64963e-05
-4.33405e-07