/*--------------------------------*- C++ -*----------------------------------*\
| =========                 |                                                 |
| \\      /  F ield         | OpenFOAM: The Open Source CFD Toolbox           |
|  \\    /   O peration     | Version:  2.4.0                                 |
|   \\  /    A nd           | Web:      www.OpenFOAM.org                      |
|    \\/     M anipulation  |                                                 |
\*---------------------------------------------------------------------------*/
FoamFile
{
    version     2.0;
    format      ascii;
    class       surfaceScalarField;
    location    "3.9";
    object      phiAlpha;
}
// * * * * * * * * * * * * * * * * * * * * * * * * * * * * * * * * * * * * * //

dimensions      [0 3 -1 0 0 0 0];

internalField   nonuniform List<scalar> 
5952
(
1.41229e-07
-1.52858e-07
1.86667e-07
-6.39601e-08
2.14328e-07
2.57611e-08
1.60771e-07
5.35563e-08
1.36209e-07
2.45624e-08
3.85483e-08
9.76606e-08
-5.388e-05
4.28018e-05
-1.01334e-06
2.29059e-05
-9.87142e-07
1.86551e-07
-7.49914e-07
7.62861e-08
-7.82088e-07
3.5842e-07
1.9028e-07
-7.2044e-07
8.80321e-09
-1.61661e-07
-7.37761e-08
-2.23769e-09
-3.7808e-05
3.01275e-06
-0.000208674
0.000104878
-0.000326017
0.000120076
-5.45882e-05
8.31069e-05
-1.19477e-05
5.47597e-07
-8.68468e-07
1.54185e-06
-8.96149e-07
4.19067e-07
-2.50122e-05
2.44301e-05
-0.000117944
4.16326e-05
-3.84789e-05
-0.000126882
2.77429e-08
5.11445e-09
5.6954e-08
7.40349e-08
-7.09322e-05
5.56136e-06
-0.000216525
9.85023e-05
-0.000251549
0.000160607
-1.06416e-06
0.000100706
-1.03304e-06
4.39642e-07
-2.49985e-05
2.59342e-05
-0.000513457
0.000142617
-0.000816981
0.000140455
-0.000857932
6.07218e-05
-9.07614e-05
-0.000847374
-3.96701e-08
4.47847e-08
-1.57359e-07
1.91762e-07
-3.77543e-05
9.19332e-07
-0.00016532
8.15177e-06
-0.000153147
5.88929e-05
5.04066e-06
6.20038e-05
-2.49098e-05
5.43103e-05
-0.000765497
0.000168842
-0.000967419
0.000182089
-0.000934274
0.000101657
-0.000872985
4.11286e-07
-0.000108704
-0.000856288
-3.58723e-07
1.75782e-05
-4.16791e-07
2.4979e-07
-2.52177e-07
5.6087e-07
-3.65919e-08
5.28967e-06
-1.84396e-05
7.7296e-05
-0.000116887
9.46929e-05
-0.000400683
0.00020668
-0.000533541
0.000114259
-0.000543746
8.3113e-05
-0.000534851
2.80752e-05
-0.000553403
1.45587e-05
-5.95251e-05
-0.000602436
-4.41171e-08
2.72392e-05
-1.29364e-07
3.3508e-07
-1.23371e-05
1.27686e-05
-0.000212028
0.000229495
-0.000521161
0.000394408
-0.000503704
0.000271575
-0.000214598
0.000138402
-0.000167656
3.76818e-06
-0.000378052
-9.11053e-10
-0.000400058
-3.72233e-05
-0.00031736
-8.158e-05
9.04801e-05
-0.000471489
-3.73622e-05
7.80576e-05
-0.000163059
0.000923668
-0.000341742
0.0012708
-0.000613895
0.000948687
-0.000467474
0.000623313
-0.000142755
0.000134604
-3.76819e-06
5.3935e-06
-2.87958e-16
-1.617e-11
-2.96921e-16
-9.11054e-10
-3.72233e-05
-2.16359e-16
-8.18096e-05
-8.09823e-05
-4.314e-05
2.67262e-05
-0.000109459
0.00016364
-0.000404764
0.00153455
-0.000607883
0.00154697
-0.000809826
0.00115099
-0.000410817
0.000656077
-5.39369e-06
3.22199e-05
-1.8539e-10
1.69278e-16
-5.16586e-09
2.78173e-11
2.29004e-09
-4.56761e-08
2.70417e-07
-2.68127e-07
-9.33702e-05
-4.41138e-06
-0.00020279
1.91318e-05
-0.000154426
0.00020327
-0.000437948
0.00169132
-0.000560726
0.00166983
-0.000658828
0.00124832
-0.000114976
0.000658836
-2.00946e-16
3.20142e-06
-2.72421e-16
1.6371e-16
2.79163e-11
-9.90909e-14
-6.4764e-07
-1.84787e-08
7.33436e-08
-3.933e-06
7.83481e-06
-1.52004e-05
-0.000202055
-0.000101853
-8.46188e-05
0.000117239
-0.00028027
0.00175951
-0.000393368
0.00178243
-0.000499703
0.00135512
-5.36774e-05
0.000620714
-4.35492e-11
2.39292e-06
-4.35535e-11
4.7889e-15
1.56653e-11
8.89903e-12
-1.8463e-08
-1.15274e-16
8.23359e-07
-5.38027e-06
5.65003e-06
-0.00019663
-0.00033116
-0.000152658
-3.27484e-05
1.95303e-05
-0.000194301
0.00157289
-0.000274222
0.00186237
-0.000326978
0.00140705
-2.77733e-06
0.000166682
-1.88011e-07
1.38486e-07
-8.89013e-12
9.14362e-08
-1.79125e-16
4.15084e-16
-1.72004e-16
-9.50294e-17
4.40685e-06
-1.19237e-06
-9.36537e-05
-0.000191127
-0.000759163
-6.08109e-05
1.17012e-05
7.82913e-06
-1.91875e-06
0.000333468
-0.000195578
0.00205552
-0.00011429
0.000978472
-2.18299e-05
4.67381e-05
-1.0326e-07
1.19386e-05
-1.48156e-08
7.42792e-10
-1.42881e-16
3.27122e-09
-1.03836e-16
-1.06608e-16
-1.19237e-06
-1.78075e-16
-3.99701e-05
-1.74361e-16
0.000105409
-0.000357541
-6.95853e-07
2.10514e-07
-5.88464e-07
1.69743e-07
-5.18869e-07
1.67785e-07
-4.54683e-07
-4.60571e-09
-4.03901e-07
-8.15763e-09
-3.45416e-07
-5.82702e-08
-3.31359e-07
-1.38225e-08
-2.57226e-05
7.31447e-07
-4.0613e-05
-6.87286e-08
-3.11881e-05
-2.34034e-07
-1.45387e-05
-6.28317e-08
-4.46915e-08
-0.000118488
-4.13782e-05
-2.80869e-05
-9.33039e-05
-8.5695e-06
-1.20169e-05
-4.0358e-07
-5.94821e-06
-3.85061e-07
-2.64366e-08
-3.16337e-07
-1.26732e-07
-3.01143e-07
-2.86227e-08
-2.50944e-07
6.8182e-07
-2.1775e-07
-9.64395e-08
-1.6818e-07
-2.89087e-07
-8.61989e-08
-1.3933e-07
-1.3089e-07
-0.000802158
-0.000160526
-0.00061944
-0.000270283
-0.000256555
-0.000218333
-1.51467e-05
-0.000111445
-1.24596e-05
-2.71329e-06
-1.1593e-05
-2.02669e-05
-7.26641e-05
-2.02986e-05
-1.61271e-05
-0.00013205
-2.7731e-07
-1.59456e-05
-7.67149e-08
-1.43767e-06
-6.24946e-08
-1.55114e-07
-1.87326e-07
-0.000805679
-0.000211014
-0.000722034
-0.000354778
-0.000510229
-0.000304595
-9.54973e-05
-0.000112995
1.42477e-07
-5.45186e-06
-3.28014e-05
-3.77904e-05
-0.000125272
-1.99397e-05
-3.32532e-05
-0.000169046
-2.31385e-05
-8.30374e-05
-1.4623e-06
-3.40788e-05
-2.63962e-08
-1.58438e-06
-2.13723e-07
-0.000600428
-0.000213324
-0.000514657
-0.000440247
-0.000275877
-0.00039661
-3.35324e-05
-0.000112076
-9.95043e-06
-1.24961e-07
-6.43508e-05
-2.73973e-05
-4.60858e-05
-2.17078e-05
-4.2911e-05
-8.4373e-05
-1.74138e-06
-7.16893e-05
-7.20716e-07
-4.17879e-05
-1.03489e-08
-6.90688e-06
-2.35004e-07
-0.000643486
-4.1e-05
-0.000511394
-0.000499197
-0.000204178
-0.000188826
-3.10265e-06
-7.84637e-05
-3.22761e-06
-1.3329e-16
-3.60223e-05
-1.10575e-06
-1.04297e-06
-5.60884e-07
3.50534e-07
-4.00358e-08
5.35508e-06
-7.18095e-17
1.7214e-06
-4.90125e-17
-1.04847e-07
-7.89285e-06
-2.73167e-06
-0.000405128
0.000386424
-0.000175219
-0.000432723
-5.06934e-05
-6.34065e-05
-7.35365e-06
1.07833e-06
-7.93469e-18
-7.35365e-06
3.18817e-18
-1.10575e-06
1.53194e-17
-5.60884e-07
2.45841e-17
-4.00358e-08
2.38013e-17
-7.26196e-17
2.42403e-17
-4.78587e-17
2.30219e-06
-3.31508e-06
-1.90379e-06
-0.000109652
0.000515253
-3.1209e-05
-0.000444961
-1.47303e-06
-0.000216012
1.40931e-05
-0.000150766
3.7739e-05
-0.000292876
1.15982e-06
-0.000131239
-8.55791e-08
-1.55243e-05
-4.5506e-09
-2.45959e-08
8.59626e-17
-4.66858e-09
2.00041e-09
-2.00041e-09
1.32676e-06
-7.10582e-10
-5.77031e-07
0.000130067
0.000282976
0.00011329
-0.000547065
0.000116301
-0.00050145
0.000256128
-0.000558725
0.000277028
-0.000519999
0.000192803
-0.000477687
1.76104e-08
-0.000236847
-6.9855e-09
-5.12408e-16
1.28201e-08
-5.42962e-09
3.22351e-09
-6.50792e-09
2.51292e-09
4.17196e-17
1.75305e-07
0.000205713
-9.90663e-05
0.000247829
-0.00050441
0.000351285
-0.000601536
0.000480225
-0.000691035
0.000576341
-0.000612746
0.000534558
-0.000346051
1.53686e-05
-8.99311e-05
-8.76912e-09
-3.53718e-07
3.89629e-08
-1.37669e-09
1.19201e-07
1.85417e-08
1.19313e-07
-1.11991e-10
6.15944e-07
0.000117741
-0.000415222
0.000277391
-0.000767751
0.000479441
-0.000807148
0.000477148
-0.000574542
0.000135191
-8.42731e-05
1.3536e-05
-9.99652e-11
4.84035e-06
-3.06089e-11
-4.39951e-08
-1.17034e-16
-4.53718e-08
-6.26035e-18
3.74702e-08
7.00294e-09
5.50599e-09
1.01182e-08
6.2145e-07
0.000285735
-0.000656264
0.000449272
-0.000935042
0.000428677
-0.000716853
8.42731e-05
-6.36452e-05
3.61001e-16
-5.28112e-16
2.93419e-16
-9.99652e-11
2.9319e-16
-3.06089e-11
2.63642e-16
-8.87715e-17
2.34091e-16
2.45768e-17
6.06775e-08
-3.25447e-10
7.07957e-08
2.16264e-16
9.8131e-06
1.63492e-07
-1.32684e-07
2.26499e-07
-1.14226e-07
3.55779e-07
-1.98379e-07
2.55902e-07
9.98769e-08
1.83296e-07
7.26056e-08
1.86606e-07
2.0503e-07
-2.72913e-06
4.02527e-06
-1.44809e-15
5.32519e-06
-1.81788e-15
3.69796e-16
-2.25687e-15
4.38987e-16
-2.43403e-15
1.77158e-16
3.10204e-16
-2.74423e-15
3.36975e-08
-9.65001e-08
2.03961e-07
-6.78802e-08
1.8092e-06
5.69473e-07
-8.97114e-05
5.52617e-05
-0.000150945
0.000138197
-8.05292e-06
5.70682e-05
-4.02765e-06
1.0917e-15
3.75624e-07
2.36741e-07
-1.30163e-05
6.04537e-06
-0.000215129
8.86988e-05
-0.00030262
6.07492e-05
5.93606e-06
-0.000259616
1.77324e-08
-3.56016e-08
1.33754e-06
2.08813e-08
-5.34706e-05
7.57457e-07
-0.000293493
0.00013077
-0.000207209
0.000209815
-3.48979e-15
0.00013729
-2.67484e-15
1.16378e-15
2.36741e-07
7.82976e-16
-0.000574831
5.81997e-05
-0.000887121
0.000171218
-0.000946974
0.000121127
-3.19518e-05
-0.000915223
-3.21148e-08
-6.60569e-17
3.26828e-08
2.30437e-15
7.9014e-07
2.50306e-15
-9.34123e-05
6.58296e-05
-0.000278428
0.000234578
-4.07532e-15
0.000117123
-4.5128e-15
1.13911e-15
-4.34566e-15
6.78383e-16
-0.000379215
1.22353e-05
-0.000918613
6.66832e-05
-0.00085758
5.33728e-05
-0.000116862
-0.000774534
-1.09237e-15
1.02631e-15
-7.57574e-16
1.92634e-15
-2.66398e-05
2.66398e-05
-0.00023182
0.000232491
-0.000325266
0.000306574
-2.16858e-15
0.000182713
-1.66863e-15
1.14148e-15
-1.65209e-15
6.05772e-16
-1.40758e-05
2.63111e-05
-0.000118772
2.0094e-06
-0.000471947
-1.19087e-05
-0.000148407
-0.000442005
3.99036e-09
4.2804e-08
-1.4314e-05
1.4318e-05
-0.000351589
0.000553209
-0.000601952
0.000854024
-0.000434171
0.000487054
-0.000213185
0.000153725
-0.000198879
9.22236e-05
-0.000626391
0.000200715
-0.000734098
0.000103388
-0.000601197
-8.27526e-05
-0.000461117
-9.43833e-05
-0.000117579
-0.000270166
4.2804e-08
1.99399e-15
-0.000226714
0.000292656
-0.000639565
0.00117954
-0.000689673
0.000902467
-0.000196261
0.00034503
-8.66515e-05
3.05672e-05
-0.000646065
0.000186933
-0.000729109
0.000253428
-0.000676294
8.09027e-05
-0.000444007
-8.21414e-05
-0.000190627
-9.73112e-05
-0.000210413
-0.000141375
2.25544e-09
-2.25544e-09
-0.000349678
0.000607122
-0.000555475
0.00138359
-0.000655974
0.00101174
-0.000175509
0.000391621
-0.000115953
4.81308e-05
-0.000908345
0.000114833
-0.000928836
0.000306342
-0.000576953
1.5184e-05
-0.000421769
-0.000271279
-0.000197363
-0.000375826
-0.00054639
-0.000118628
-1.9199e-06
1.19154e-07
-0.000373541
0.000884852
-0.000510759
0.00152037
-0.000604271
0.00110338
-0.00022046
0.000659732
-0.000101459
5.47672e-05
-0.000221625
1.39305e-05
-0.000240463
6.08055e-06
-0.000540307
-4.67185e-05
-0.000475459
-0.000367702
-0.000317159
-0.00052213
-0.000682081
-0.000193463
-9.62996e-06
1.5429e-06
-0.000223325
0.00102528
-0.000341761
0.00163869
-0.00046082
0.00122179
-0.000262415
0.00102435
-2.18557e-05
6.67656e-05
-7.92524e-06
3.03863e-16
-0.00027463
-2.32049e-06
-0.000283835
-3.87212e-05
-0.000197344
-4.24111e-07
-0.000206155
-2.44301e-05
-0.00061791
-9.84355e-05
-1.77903e-06
7.3049e-07
-0.000177364
0.000971283
-0.000295947
0.00175659
-0.000411363
0.00133758
-0.000250772
0.0011
-9.83704e-06
0.000160688
-9.83704e-06
2.79881e-16
-7.25265e-06
-5.00283e-07
-1.28125e-08
-1.2874e-07
-3.80598e-10
-4.36564e-07
-2.11276e-05
-3.30284e-06
-5.85712e-07
3.48512e-05
7.3049e-07
1.72185e-15
6.46491e-06
0.000565685
-9.80005e-05
0.00186145
-0.00017789
0.00141571
-0.000198547
0.00112249
-1.44473e-07
0.000147883
-1.44473e-07
2.25561e-16
-7.3716e-10
-9.46121e-09
-1.29114e-07
-3.84873e-10
-3.96885e-07
-1.32745e-06
3.61627e-07
-7.99811e-06
1.06015e-07
-2.16861e-06
-2.8623e-15
1.1767e-16
-2.85098e-15
-1.93276e-17
-2.75519e-15
-1.07192e-16
-2.52497e-15
-2.52433e-16
-2.27356e-15
-2.5677e-16
-1.10997e-08
1.10997e-08
-8.01353e-07
1.571e-07
-3.23661e-06
-4.6221e-07
-2.94022e-06
-9.02208e-17
-6.61436e-07
-2.39417e-16
-1.53365e-07
-6.18737e-08
-2.04733e-10
-0.000228731
-3.52648e-05
-0.000182624
-0.000108684
-0.000180838
-7.77222e-05
-0.00010279
-0.000150272
-3.30045e-05
-8.16871e-05
-4.62078e-06
-3.32074e-05
-1.76284e-06
-3.9487e-06
-4.23519e-16
3.29769e-07
-2.20276e-16
-2.98048e-16
-2.41913e-16
-2.13196e-16
-1.11106e-16
-6.18737e-08
-2.04733e-10
-0.000874285
-7.56753e-05
-0.000746708
-0.000248018
-0.000705789
-0.000188796
-0.000657601
-0.000290563
-0.000458204
-0.000292538
-0.000167279
-0.000260883
-1.95387e-05
-9.02404e-05
-5.29439e-07
-1.05995e-05
-3.15255e-16
-5.29439e-07
-2.15581e-08
2.15581e-08
-9.72611e-10
-1.90344e-07
-1.92606e-08
-0.000714472
-0.000142458
-0.000636638
-0.000325274
-0.00061169
-0.000222432
-0.000587637
-0.000315682
-0.000491115
-0.000389198
-0.000236353
-0.000232482
-0.000104051
-3.1466e-05
-2.87137e-05
-5.27225e-05
-7.18597e-06
-7.75496e-05
-1.69319e-06
-1.75576e-05
-2.74812e-07
-1.29238e-06
-6.64346e-07
-0.00044199
-0.0001445
-0.000249368
-0.000450628
-0.000208276
-0.00026484
-0.000249491
-0.000274617
-0.000211355
-0.000384172
-2.40583e-05
-0.000127484
-2.3065e-05
-8.21667e-07
-1.38085e-05
-3.33796e-15
-5.36207e-07
-7.51102e-05
4.32235e-08
-6.19665e-05
-4.99401e-07
-3.4111e-06
-4.93791e-07
-0.000150791
-0.000100567
-0.000135111
-0.000310122
-1.09283e-05
-0.000275922
8.51462e-06
-0.000294013
1.19433e-05
-0.000362667
8.21667e-07
-6.3375e-05
-9.06493e-19
-2.37433e-16
5.38226e-16
-8.69062e-17
1.63005e-05
-1.18573e-13
-9.70018e-08
-6.38101e-05
-5.21745e-08
-1.27432e-05
-5.45966e-07
-5.68103e-05
-9.37563e-05
-5.28616e-05
-0.000239092
-3.04027e-05
-0.00035332
7.02828e-05
-0.000247237
3.60178e-05
-0.000118857
-2.18805e-15
-9.83784e-06
1.00601e-16
-2.27488e-16
3.09199e-17
-1.67968e-12
1.19791e-14
-1.31451e-13
1.20452e-05
-1.00297e-13
5.94459e-07
-8.0113e-06
-1.28695e-06
-0.000155323
-0.000240499
-6.54905e-05
-0.000687599
1.48129e-06
-0.000582993
7.57889e-06
-0.000376265
1.93295e-06
-0.000137599
-1.88035e-12
-5.34855e-06
-1.88042e-12
-2.30064e-16
2.68821e-12
-5.13996e-12
1.07219e-13
-2.14869e-12
6.9384e-15
-1.69435e-17
1.96114e-06
-9.75756e-07
-6.48982e-07
-6.65142e-05
-0.000501451
4.03769e-05
-0.00079448
0.000126217
-0.000668982
0.000116056
-0.000635076
6.90621e-06
-0.000314524
-3.57105e-12
-4.38802e-05
-3.57061e-12
-1.34542e-16
6.32409e-12
2.17346e-12
5.71718e-12
-7.11094e-17
5.71717e-12
-6.42117e-18
1.14572e-07
2.39532e-08
-1.37177e-07
7.5795e-05
-0.000675522
0.000184724
-0.00088515
0.000182427
-0.000301126
0.000155848
-1.75556e-05
9.12998e-05
-2.18553e-08
-2.44009e-06
-2.95861e-05
1.36458e-16
-2.44009e-06
1.11647e-16
2.17349e-12
5.66557e-17
-1.61804e-17
4.46417e-17
5.62934e-18
2.39532e-08
2.85678e-17
4.97044e-08
0.000148317
-0.000449577
3.06177e-05
-3.2233e-05
1.72662e-05
-7.63524e-06
9.0008e-17
-2.89414e-07
1.07097e-09
-2.29262e-08
1.03822e-05
-1.14145e-08
-7.23922e-07
-7.7829e-07
-1.00194e-08
-6.01311e-07
1.12171e-16
-1.00194e-08
5.19562e-17
6.57853e-17
1.59589e-16
4.61832e-17
2.19811e-07
3.2233e-05
-3.57453e-05
7.59524e-17
-6.22948e-16
5.0198e-08
-7.68544e-06
2.06694e-07
-2.11366e-06
1.17416e-08
-9.47364e-09
3.26838e-10
-3.37337e-14
2.99032e-07
-1.01085e-14
1.56829e-06
-3.92762e-07
4.76895e-07
3.49483e-08
9.5376e-09
2.17997e-07
9.14093e-09
3.96674e-10
5.32667e-07
1.49129e-16
-1.70744e-16
2.42939e-16
-9.49262e-17
5.76818e-11
-5.76816e-11
1.61901e-06
2.98314e-07
7.2972e-09
2.77011e-07
-1.46635e-05
1.53769e-06
-6.54295e-05
1.18691e-05
-8.83212e-05
2.28917e-05
-9.74048e-05
9.08358e-06
-4.06197e-08
6.25732e-06
2.17923e-12
-4.06218e-08
-5.56325e-14
-6.75125e-16
-1.52422e-10
-6.16725e-08
-4.17488e-09
4.76649e-10
-2.21636e-07
8.04196e-08
-5.48874e-08
1.58972e-07
5.61607e-07
-1.02389e-08
-8.89022e-06
1.49419e-06
-8.70493e-06
2.78352e-06
-5.97924e-06
1.18029e-05
-8.98233e-05
1.36193e-05
-8.0969e-05
1.47701e-05
-3.62654e-05
3.47787e-07
4.23518e-08
-6.33994e-16
-1.85585e-07
-7.73378e-17
-1.52354e-16
6.86385e-07
-2.1747e-16
8.04128e-08
-6.50599e-09
1.65478e-07
-1.98418e-07
4.62671e-09
-6.00218e-08
5.35625e-08
-4.59042e-05
4.7621e-05
-0.000116237
0.000149679
-4.68832e-05
8.89055e-05
-1.30845e-05
3.59494e-05
-3.15069e-07
-2.37609e-06
-2.72717e-07
-6.62037e-16
-1.56565e-16
7.92268e-17
-2.40336e-05
2.472e-05
-4.50675e-05
0.000344459
-6.72989e-11
0.000294723
-4.69758e-16
4.55941e-09
-0.000111669
0.000111722
-0.000737556
0.000354778
-0.00105847
0.000389622
-0.00109817
0.000207749
-0.000818536
0.000193997
-0.000471047
-4.7302e-05
-0.000121396
-0.000405298
-2.75218e-06
9.89913e-07
-0.000417607
0.000533983
-0.000591011
0.00100749
-0.000457747
0.00084657
-0.000396178
0.000748241
-0.000590927
0.000640516
-0.000738261
0.000420883
-0.000771955
0.000423378
-0.000756419
0.000192134
-0.000755207
0.000192827
-0.000739219
-6.33589e-05
-0.000125928
-0.000734667
-3.17512e-05
4.1981e-05
-0.000391291
0.000933629
-0.000617199
0.00123313
-0.000590751
0.000820181
-0.000607913
0.000800943
-0.000518271
0.000579072
-0.000541952
0.00037501
-0.000698069
0.000454397
-0.000707994
0.000202105
-0.000805529
0.000290304
-0.000875159
6.27142e-06
-0.000234918
-0.000766219
-0.000162436
0.000237909
-0.000501987
0.00130405
-0.000525747
0.00125688
-0.000439659
0.000733859
-0.000400038
0.000760167
-0.000288298
0.000456143
-0.000323223
0.000369574
-0.000278979
0.00033439
-0.00021958
8.0494e-05
-6.01924e-05
0.000105325
-0.000166257
0.000104097
4.3801e-05
-0.000453153
-0.000140367
0.000385814
-0.000247777
0.00141145
-0.000238696
0.00124746
-0.000274538
0.000769729
-0.000358391
0.000898949
-0.000459933
0.000552609
-0.000465695
0.000436337
-0.000415343
0.000293082
-0.000364621
3.7435e-05
-0.000156326
-9.46627e-05
-0.000117258
6.16739e-05
0.000139693
-0.000169508
-0.000158567
0.000426086
-0.000322308
0.00157464
-0.000431481
0.00135666
-0.000499048
0.000837029
-0.000568228
0.000920068
-0.000615777
0.000690995
-0.000538059
0.000451744
-0.000345558
0.000163496
-0.00028067
5.0642e-06
-0.000369652
-6.45402e-05
-0.000260682
-9.05324e-05
-5.22096e-05
-3.46332e-05
-8.44585e-05
0.000502886
-0.000183822
0.00167424
-0.000101082
0.0010211
-0.000222261
3.26536e-05
-0.000541552
0.000897124
-0.000516686
0.000764899
-0.000218904
0.000239523
-8.90737e-06
1.29576e-05
-3.84317e-06
4.39444e-17
-0.000192528
-1.83882e-05
-0.000254134
-0.00023432
-0.000480227
7.98299e-05
-5.9257e-05
0.00098074
-0.000198076
0.00181248
-0.000130936
0.000995339
-0.000250016
4.15374e-05
-0.000574996
0.000517957
-0.00037268
0.00061295
-1.29576e-05
3.06964e-05
-9.89537e-16
3.65123e-16
-9.18197e-16
-6.46782e-17
-5.41532e-05
-5.2293e-05
-7.84943e-05
-0.000381227
-0.000621741
0.000151792
6.06912e-05
0.000898101
-4.61811e-05
0.00191979
-4.28405e-05
0.00123407
-5.82339e-05
0.000128244
-0.00023057
1.37295e-05
-3.07008e-05
4.86351e-05
-9.09743e-16
-4.389e-09
-9.18205e-16
3.30362e-16
-1.76979e-06
-1.65583e-06
-7.37501e-05
-4.49242e-05
-6.6553e-06
-3.39924e-05
0.000143991
-7.25639e-05
-7.22051e-16
-6.05316e-17
-7.78625e-16
-2.65628e-17
-8.27063e-07
-1.09042e-07
-2.27413e-06
-4.99953e-07
-1.09844e-06
-1.70449e-06
-4.95751e-07
-1.88701e-07
-6.10587e-08
-4.34692e-07
-2.45518e-08
-3.72696e-09
-1.49891e-06
-1.10915e-07
-9.19191e-07
-7.08189e-07
-5.04367e-07
-4.14825e-07
-5.04367e-07
-6.80734e-16
-8.9257e-17
-1.02429e-15
-8.73337e-17
-2.70208e-06
7.21148e-08
-7.00983e-06
-8.95726e-07
-6.69099e-06
-1.90392e-06
-5.48344e-06
-1.51566e-06
-1.74193e-08
-4.66472e-10
-8.70743e-09
-4.52644e-09
-9.65547e-08
-1.35306e-08
-2.74242e-08
-8.29073e-07
-4.89814e-07
-5.61921e-07
-1.54136e-06
-7.49249e-16
-3.25396e-16
-7.21129e-16
7.07611e-16
-3.65319e-07
4.37433e-07
-2.32266e-06
-1.01955e-08
-3.79473e-06
-6.23433e-17
-3.06858e-09
-1.87486e-10
-5.71125e-09
-1.72683e-10
2.75205e-09
-4.33244e-09
-8.42925e-08
-1.63241e-08
-7.90723e-07
-6.85453e-07
-2.72505e-07
-4.01131e-07
-1.06685e-07
-0.000225171
-0.000350719
-6.75121e-05
-0.000199546
-5.16781e-07
-7.10674e-05
-9.50901e-17
-5.26977e-07
-7.86453e-17
-7.90385e-17
-1.87486e-10
-1.09752e-16
-5.93765e-11
-2.75282e-09
2.65561e-09
-1.87531e-08
-9.86643e-09
-4.96284e-09
-2.07977e-07
-1.31743e-09
-2.02727e-08
-3.92167e-17
-6.23692e-08
-0.000671278
-0.00041418
-0.00053486
-0.000403591
-5.78674e-05
-0.000425415
-1.24138e-16
-4.55218e-05
-5.47887e-17
-1.46002e-16
-3.26628e-17
-1.39748e-16
-1.23509e-09
-8.83078e-17
9.67937e-10
-1.46375e-09
-1.39214e-13
-3.99878e-09
-2.90267e-18
-1.31757e-09
3.84588e-18
-5.55226e-17
3.26957e-09
-0.000572551
-0.000607815
-0.00048899
-0.000487412
-0.000237335
-0.000447773
-1.59578e-05
-0.00027992
-1.43805e-17
-2.56929e-05
2.74606e-17
-2.50197e-16
3.14505e-17
-1.34502e-16
1.11476e-09
-2.71132e-09
7.6216e-10
-6.85986e-10
6.20567e-10
4.74122e-11
6.20567e-10
-3.46268e-17
-4.74177e-09
-0.000391511
-0.000587614
-0.000183971
-0.000537905
-0.000154095
-0.000583221
-3.52948e-06
-0.000761827
1.13818e-05
-0.000676119
-4.22198e-10
-0.000118371
-4.22198e-10
-1.5372e-16
5.91539e-10
-1.05623e-09
1.13092e-16
-9.44475e-11
7.23479e-17
4.74122e-11
4.22933e-17
-1.60283e-17
5.90401e-08
-0.000108455
-0.000416612
-4.61789e-05
-0.000399057
2.86863e-06
-0.000742876
0.00014716
-0.00108143
0.000172055
-0.00102306
-1.61684e-10
-0.000218898
-1.61684e-10
-1.59457e-16
1.72656e-09
-6.04085e-17
4.10973e-09
-1.99347e-09
1.52444e-09
6.87334e-10
1.52444e-09
1.61655e-17
1.3087e-07
-9.96038e-07
-0.000455693
3.43047e-05
-0.000428914
0.000247051
-0.00108653
0.000343475
-0.00133086
0.000225521
-0.00057449
1.77403e-16
-4.83019e-05
1.14234e-16
-1.33649e-16
1.35513e-16
-5.8935e-17
1.94413e-08
-1.15778e-08
7.32741e-09
5.73096e-09
7.00233e-09
3.25083e-10
1.07464e-07
0.00014806
-0.000811275
0.000250432
-0.000765278
0.000417642
-0.00125399
0.000254082
-0.00101049
4.62175e-09
-5.73592e-05
-3.67601e-11
-5.8912e-12
1.38262e-16
-3.67604e-11
4.77261e-12
-4.77255e-12
5.59454e-08
-6.85318e-12
6.06385e-08
9.40925e-08
1.3784e-08
9.57307e-08
-4.70942e-09
0.000221011
-0.00088028
0.000393984
-0.000938546
0.000533548
-0.00139329
5.73592e-05
-0.000627419
4.40251e-16
-9.03094e-16
6.49093e-16
-5.89153e-12
2.92543e-11
-3.81084e-11
1.34044e-11
-3.81435e-12
8.71756e-09
-8.72847e-09
2.81078e-07
3.4654e-07
8.80015e-09
3.50194e-07
4.09073e-09
0.000370757
-0.000741418
0.000553091
-0.00112065
0.000514396
-0.00129787
-1.64369e-12
-0.000104848
-1.64368e-12
-1.02583e-15
4.73014e-12
1.88072e-12
7.24262e-11
-2.79272e-11
6.52309e-11
-1.50278e-11
4.02467e-07
-3.12261e-14
4.62577e-07
1.52527e-07
2.02923e-07
7.45134e-07
1.74945e-07
1.93737e-06
-1.93737e-06
2.27697e-06
5.53677e-08
1.80589e-06
4.73698e-07
1.29583e-06
5.10052e-07
4.82036e-07
8.13798e-07
-2.52705e-06
3.00908e-06
-4.34113e-06
1.8167e-06
-1.13817e-05
7.04058e-06
-3.77971e-05
1.17606e-05
-0.000107452
8.26245e-06
-0.000107699
-8.76584e-06
-1.19543e-05
-4.19451e-05
3.81908e-07
-1.97339e-06
-6.02888e-06
1.84155e-06
-2.61802e-06
7.18811e-05
-4.43833e-06
2.33117e-06
-7.05522e-05
4.97819e-05
-0.000396638
0.000348397
-0.000354059
0.000331673
-0.000194216
0.000147914
-0.000491858
4.88498e-05
-0.00106774
-1.45551e-05
-0.000978314
-6.68393e-05
-3.59902e-05
-6.71782e-06
-2.99535e-06
-2.91742e-07
-2.12862e-05
2.37777e-05
-9.73292e-06
6.33124e-05
-1.32311e-05
0.000141945
-0.000843168
0.00052001
-0.00118138
0.000568661
-0.00110435
0.000293135
-0.00106624
0.000186753
-0.00105151
4.93757e-05
-0.00100338
-3.25575e-05
-0.000789611
-3.3504e-05
-1.66003e-06
-3.18899e-05
-1.37523e-06
1.08349e-06
9.89967e-06
5.6365e-06
-4.78088e-06
7.68501e-05
-0.000610937
0.000485476
-0.00114835
0.000794224
-0.00113783
0.00054907
-0.00110091
0.000259458
-0.00108017
0.000133238
-0.00102281
2.4789e-05
-0.000464766
-2.33969e-05
-1.04165e-05
-5.58277e-07
-8.58508e-07
-1.13006e-05
-1.28397e-06
3.18982e-06
5.15022e-07
3.93646e-06
-9.75306e-05
5.20453e-06
-0.000808146
0.000519323
-0.000881203
0.000853616
-0.000856916
0.000525026
-0.000833133
0.000215393
-0.000760101
6.18351e-05
-0.000766888
-4.8379e-06
-7.89502e-05
-1.73949e-05
-9.80872e-06
1.46736e-06
-3.0431e-06
-3.59423e-05
-7.75846e-07
4.00431e-06
-1.85804e-06
5.00279e-06
-2.38261e-05
5.03646e-06
-0.00104912
0.000314416
-0.00112141
0.000926184
-0.00107603
0.000478949
-0.00102302
0.000162695
-0.000944647
-4.18485e-05
-0.000740148
-0.00017001
-0.000301675
-8.17834e-05
-0.000154845
7.08512e-05
-2.52784e-05
-0.000494959
-1.28719e-06
5.28355e-06
-2.49119e-06
6.25469e-06
-3.54957e-06
6.05034e-06
-0.000443663
6.64337e-05
-0.000766954
0.000727024
-0.000760592
0.00047286
-0.000763324
0.000169434
-0.000654833
-3.22796e-05
-0.00059661
-0.000105953
-0.000369984
-0.000115445
-0.00022026
-2.76131e-06
-0.000111377
-0.00026161
-8.56953e-07
5.98554e-06
-1.5923e-06
6.93943e-06
-7.23437e-06
1.18464e-05
-0.000240473
0.000225173
-0.000720398
0.000822056
-0.000872092
0.000622286
-0.000247195
4.86954e-05
-7.81709e-05
-3.33666e-18
-0.000119994
-7.9122e-17
-0.000384117
-6.84572e-05
-0.000371692
-0.000186776
-0.000280654
-0.000202421
-9.71707e-07
6.95725e-06
-4.0352e-06
1.01622e-05
-0.000108408
0.000306358
-0.000539511
0.00129574
-0.000764104
0.00113954
-0.000174379
0.000392308
-1.17816e-17
2.03377e-06
-9.96319e-18
-5.7168e-18
-6.29494e-17
-2.5574e-17
-7.09755e-05
-7.68855e-17
-0.000228049
-0.000164104
-0.000464991
-4.37138e-05
-5.48055e-07
8.17262e-06
-9.11263e-05
0.000100589
-0.00027282
0.0016858
-0.000386712
0.00148098
-0.000566946
0.00134259
-2.03377e-06
0.000284856
-4.67793e-17
1.77905e-17
-4.49661e-17
-6.92292e-18
-2.06094e-17
-3.59072e-17
1.77824e-08
-1.77824e-08
-5.13108e-05
-2.40157e-18
-2.10737e-17
2.48275e-06
-2.87655e-05
0.00186319
-0.00018989
0.00184378
-0.000322371
0.00201763
-0.000440881
0.00159928
-0.000431673
0.0014095
-2.06648e-06
0.000181548
-2.06648e-06
1.99261e-17
-2.05313e-08
-1.17255e-06
-2.05313e-08
-3.80113e-17
-1.3654e-18
9.81028e-09
-5.63216e-19
-3.22248e-18
-2.17558e-17
3.21496e-19
6.03204e-05
0.00180287
-1.18934e-05
0.002467
-8.35812e-05
0.0020891
-0.000249325
0.00176523
-0.00030001
0.00162013
-3.26722e-05
0.000156136
-3.37371e-05
1.06492e-06
-3.24972e-08
-7.24133e-06
-4.71193e-17
-3.24972e-08
-8.33141e-19
9.81028e-09
-2.11593e-18
-6.48818e-17
1.81137e-18
-7.84227e-17
1.91098e-05
-9.37757e-07
-0.000342959
-3.57713e-06
-0.00028715
-5.5809e-05
-0.000241697
-4.54533e-05
-6.15239e-05
-4.02636e-05
-1.38115e-05
-4.77106e-05
-1.17476e-05
-2.06383e-06
-7.41303e-06
-4.3346e-06
-7.62338e-06
2.10355e-07
-4.24874e-06
-3.37283e-06
-2.06911e-07
-7.74891e-06
1.21036e-08
-1.92834e-05
-1.38738e-06
-7.77847e-05
-1.64218e-06
-0.000246847
-1.53393e-05
-0.000248209
-4.40914e-05
-0.000244172
-4.43006e-05
-0.000102562
-6.04299e-05
-2.03502e-05
-2.09628e-05
-1.04142e-05
-1.42706e-05
-1.5244e-06
-1.00795e-05
-6.60632e-06
-5.71771e-06
-3.46202e-06
-8.33495e-06
-5.47706e-06
-1.56697e-05
-1.5327e-06
-4.53034e-06
6.35443e-06
-2.60925e-06
1.14985e-05
-4.3853e-05
1.14926e-05
-4.19772e-05
-7.78695e-06
-5.27382e-05
1.20688e-06
-1.72379e-05
5.42298e-06
-1.39866e-05
-3.46426e-05
-6.90253e-06
-5.33356e-06
-8.355e-07
-2.30254e-06
-1.03124e-06
-5.01308e-06
-1.63949e-05
-5.8748e-05
-1.20029e-05
-0.000220317
-0.000251205
-0.000238586
-0.000485575
-0.000120207
-0.000540693
-6.14407e-05
-0.000265671
-2.06464e-05
-0.000190196
-1.62973e-05
-8.92249e-05
-1.37497e-06
-4.2465e-05
-3.85104e-08
-2.07288e-05
-2.43993e-08
-1.48966e-06
2.40241e-07
-9.91718e-07
-1.61547e-05
-0.000462106
-0.000199611
-0.000518034
-0.000507505
-0.000427295
-0.000578447
-0.000229272
-0.000738449
-0.000115361
-0.000623082
-1.76986e-05
-0.000649774
6.94143e-06
-0.000271628
1.53276e-06
-4.13574e-05
9.29796e-06
-2.44408e-05
3.541e-06
-1.16914e-05
2.24387e-07
-1.56448e-06
-6.70371e-06
-0.000601344
-0.000347394
-0.000384919
-0.000723933
-0.000164854
-0.000798512
-1.76795e-05
-0.000887922
0.000120534
-0.000761295
0.000216328
-0.000594733
5.55965e-05
-0.000356232
-1.5534e-06
-7.01901e-05
4.56e-06
-1.05096e-05
6.59539e-06
-1.02377e-05
-1.15087e-07
-1.57494e-06
-1.78184e-06
-0.000279178
-0.000419422
-0.000172289
-0.000830821
8.75868e-06
-0.000979617
0.000157902
-0.00103728
8.10426e-05
-0.000174758
9.27914e-05
-3.8157e-06
0.000154129
-0.0002046
7.9905e-07
-7.21696e-05
1.13053e-06
-6.47182e-06
5.31539e-06
-1.26848e-07
-1.30863e-07
1.36109e-06
-1.70436e-06
-9.34588e-05
-0.00052839
6.32743e-05
-0.000987619
0.000176866
-0.00109341
8.02163e-05
-0.000397348
4.03534e-06
-4.20235e-06
2.19649e-07
-1.53539e-16
6.86186e-05
-7.18504e-17
6.6217e-05
-4.00098e-05
-2.70297e-06
-2.24024e-06
4.40362e-07
1.14275e-07
4.71316e-06
4.14869e-07
4.96398e-06
7.12187e-05
-0.000643328
0.00017916
-0.000903135
0.000128341
-0.000335772
4.20235e-06
-1.20887e-05
1.1217e-16
-2.05222e-16
7.37201e-17
-1.50958e-16
7.15435e-17
-9.1841e-17
1.49587e-05
-6.36343e-17
1.6906e-05
-1.37941e-06
2.97651e-06
2.19803e-06
1.56469e-06
2.52932e-07
1.14274e-05
0.000147063
-0.0002709
3.473e-05
-1.11914e-05
1.20865e-05
-1.70347e-07
9.9682e-17
-2.17487e-09
1.30778e-16
-8.82006e-16
1.48428e-16
-2.23013e-16
1.71373e-16
-1.58694e-16
1.38518e-16
-6.51673e-17
4.3847e-06
7.59741e-08
5.8564e-06
4.87573e-08
3.92387e-06
5.50539e-07
1.53513e-05
1.11914e-05
-2.90962e-17
1.29016e-17
-2.31584e-16
7.2167e-12
-1.7035e-07
2.27488e-09
-9.68702e-11
2.66874e-09
-1.80769e-06
3.12762e-16
2.66874e-09
3.08381e-16
-2.38653e-16
2.62252e-16
-2.96267e-17
7.59741e-08
5.29965e-17
1.39053e-06
4.49278e-08
1.89898e-06
1.1792e-07
5.92256e-06
7.20996e-18
-8.53472e-17
-2.92703e-10
-1.77077e-07
1.6586e-07
-7.86144e-07
1.65853e-07
-6.53299e-13
2.978e-05
-1.92148e-05
6.98617e-05
-9.03457e-05
5.54811e-05
-8.86329e-05
7.09311e-08
-2.2264e-06
3.02274e-16
7.09311e-08
4.49278e-08
2.37974e-16
1.34571e-07
1.18803e-07
3.38843e-07
8.13773e-06
0.000356247
-4.22259e-07
7.18953e-06
4.94038e-06
-3.93336e-05
0.00131553
-4.41651e-06
0.000281098
-2.25628e-05
5.00832e-05
-5.54794e-10
6.84408e-05
-3.12836e-09
9.97214e-10
-5.59664e-10
7.77403e-10
-4.61839e-17
-5.59664e-10
-1.28202e-17
-1.78335e-16
1.00443e-17
-2.04201e-16
-1.08325e-09
7.23732e-05
0.000104333
0.000670338
-7.05238e-09
4.1423e-06
3.2824e-05
8.46042e-06
4.69602e-05
-8.50971e-06
0.000161582
-2.34528e-05
0.000509848
-1.28367e-09
4.60132e-05
-1.31759e-09
4.00259e-10
-3.63076e-09
5.12854e-09
-9.78673e-11
-3.29338e-08
-3.13791e-18
-9.78682e-11
1.9273e-17
-2.62301e-16
-1.82026e-09
7.37011e-10
0.000129834
0.00078404
-1.38999e-18
6.89074e-07
9.63923e-05
3.34189e-06
1.64034e-05
4.35895e-06
0.000795453
-1.85923e-05
0.000928846
-6.06312e-08
2.90589e-06
-6.07797e-08
1.20901e-09
-2.83114e-08
-2.84461e-09
-9.58044e-11
-3.28547e-08
1.19956e-09
-1.90006e-06
-2.18669e-12
1.20175e-09
1.65725e-08
4.16989e-10
8.93989e-05
-5.63579e-18