/*--------------------------------*- C++ -*----------------------------------*\
| =========                 |                                                 |
| \\      /  F ield         | OpenFOAM: The Open Source CFD Toolbox           |
|  \\    /   O peration     | Version:  v1606+                                |
|   \\  /    A nd           | Web:      www.OpenFOAM.com                      |
|    \\/     M anipulation  |                                                 |
\*---------------------------------------------------------------------------*/
FoamFile
{
    version     2.0;
    format      ascii;
    class       volVectorField;
    location    "0.12";
    object      U.particles;
}
// * * * * * * * * * * * * * * * * * * * * * * * * * * * * * * * * * * * * * //

dimensions      [0 1 -1 0 0 0 0];

internalField   nonuniform List<vector> 
6000
(
(-0.0165297 -0.344986 0)
(-0.0141459 -0.348968 0)
(0.00271074 -0.348785 0)
(0.0145463 -0.352436 0)
(0.0249892 -0.356908 0)
(0.0326077 -0.362248 0)
(0.0369982 -0.368384 0)
(0.037864 -0.371524 0)
(0.0367782 -0.372016 0)
(0.0335383 -0.372193 0)
(0.02884 -0.371747 0)
(0.0234193 -0.371869 0)
(0.0174245 -0.372315 0)
(0.0107524 -0.372915 0)
(0.00357142 -0.372957 0)
(-0.00372558 -0.372751 0)
(-0.0107548 -0.372921 0)
(-0.0171842 -0.37245 0)
(-0.0229066 -0.371904 0)
(-0.0281833 -0.37183 0)
(-0.0329205 -0.372085 0)
(-0.036844 -0.372668 0)
(-0.0384956 -0.372553 0)
(-0.0375657 -0.368316 0)
(-0.0327879 -0.361771 0)
(-0.0243845 -0.355963 0)
(-0.013378 -0.352044 0)
(-0.000828805 -0.348238 0)
(0.0173004 -0.34927 0)
(0.01849 -0.348605 0)
(0.00487481 -0.11157 0)
(-0.00064277 -0.0900771 0)
(0.0125669 -0.0836473 0)
(0.0225062 -0.0786993 0)
(0.0306033 -0.0773123 0)
(0.0363384 -0.0797034 0)
(0.0395049 -0.0817718 0)
(0.0405709 -0.0840623 0)
(0.0395801 -0.0880071 0)
(0.0366481 -0.0896328 0)
(0.0320499 -0.0911739 0)
(0.0262395 -0.0919839 0)
(0.0194774 -0.0922837 0)
(0.0119413 -0.0930156 0)
(0.00393355 -0.0931003 0)
(-0.00412291 -0.0926448 0)
(-0.0120243 -0.0921226 0)
(-0.0194714 -0.0919112 0)
(-0.0261578 -0.0916416 0)
(-0.0319629 -0.0906292 0)
(-0.0365653 -0.0897192 0)
(-0.0394796 -0.0876732 0)
(-0.0403765 -0.0844168 0)
(-0.039291 -0.0823492 0)
(-0.0360039 -0.0800737 0)
(-0.0300525 -0.0785337 0)
(-0.0217344 -0.0793055 0)
(-0.0114022 -0.085307 0)
(0.00159003 -0.0917043 0)
(-0.00431508 -0.113447 0)
(0.00722151 -0.129673 0)
(0.00401443 -0.150618 0)
(0.0161091 -0.152596 0)
(0.0281338 -0.14922 0)
(0.0372428 -0.144331 0)
(0.0418671 -0.139065 0)
(0.0427794 -0.135369 0)
(0.0418254 -0.13356 0)
(0.039432 -0.132974 0)
(0.0359988 -0.132333 0)
(0.0314465 -0.131466 0)
(0.0256032 -0.130677 0)
(0.0188657 -0.129898 0)
(0.0115532 -0.129464 0)
(0.00386874 -0.129167 0)
(-0.00391555 -0.129064 0)
(-0.0116002 -0.129233 0)
(-0.0190043 -0.129814 0)
(-0.0258537 -0.130696 0)
(-0.0316924 -0.131618 0)
(-0.0362558 -0.132508 0)
(-0.0394912 -0.133135 0)
(-0.0415045 -0.133963 0)
(-0.042456 -0.135911 0)
(-0.0414637 -0.139768 0)
(-0.0368761 -0.145285 0)
(-0.0277748 -0.15055 0)
(-0.0157813 -0.154367 0)
(-0.00420246 -0.152351 0)
(-0.00753219 -0.130535 0)
(0.00968063 -0.106574 0)
(0.003626 -0.128363 0)
(0.0152727 -0.13483 0)
(0.0268161 -0.13345 0)
(0.0359876 -0.130043 0)
(0.0429282 -0.126555 0)
(0.0458009 -0.123051 0)
(0.0453303 -0.120434 0)
(0.0418039 -0.119299 0)
(0.0365145 -0.119179 0)
(0.0307577 -0.11926 0)
(0.0244734 -0.119242 0)
(0.0177656 -0.119131 0)
(0.0107926 -0.119192 0)
(0.00364647 -0.119175 0)
(-0.00359836 -0.119135 0)
(-0.0108343 -0.119123 0)
(-0.0179409 -0.119159 0)
(-0.0247572 -0.119343 0)
(-0.0310579 -0.119329 0)
(-0.0367735 -0.119137 0)
(-0.0418464 -0.119241 0)
(-0.0451813 -0.120492 0)
(-0.0456228 -0.123321 0)
(-0.0428003 -0.12702 0)
(-0.036047 -0.130787 0)
(-0.0270583 -0.134648 0)
(-0.0158264 -0.136111 0)
(-0.00444716 -0.129225 0)
(-0.0101762 -0.107388 0)
(0.00870018 -0.0679874 0)
(0.00229944 -0.0923213 0)
(0.0156305 -0.0986015 0)
(0.0264749 -0.0978976 0)
(0.0353347 -0.0955453 0)
(0.0423154 -0.0926372 0)
(0.0464781 -0.0899162 0)
(0.0471739 -0.0877776 0)
(0.0454042 -0.0867719 0)
(0.0404991 -0.0864276 0)
(0.0339433 -0.0865049 0)
(0.0264569 -0.0868178 0)
(0.0186686 -0.0873563 0)
(0.0110146 -0.0881393 0)
(0.00361947 -0.0886361 0)
(-0.00368667 -0.0886563 0)
(-0.011134 -0.0882157 0)
(-0.0188571 -0.0874271 0)
(-0.0267039 -0.0869324 0)
(-0.0341885 -0.0865739 0)
(-0.0407136 -0.0864323 0)
(-0.0454806 -0.0868042 0)
(-0.0471893 -0.0879303 0)
(-0.0464747 -0.0902198 0)
(-0.0424318 -0.0931049 0)
(-0.0356778 -0.0961589 0)
(-0.027102 -0.0988272 0)
(-0.0164932 -0.0996725 0)
(-0.00323869 -0.0929644 0)
(-0.00941099 -0.0683771 0)
(0.0116034 -0.0170671 0)
(0.00590413 -0.0459403 0)
(0.0194752 -0.0515386 0)
(0.0290036 -0.0490964 0)
(0.0359143 -0.0457612 0)
(0.0413796 -0.0429518 0)
(0.0451033 -0.0411045 0)
(0.0464967 -0.0401157 0)
(0.0458141 -0.0401195 0)
(0.0426261 -0.0406453 0)
(0.0371213 -0.0412894 0)
(0.0300105 -0.041888 0)
(0.0217969 -0.0426118 0)
(0.0131 -0.0435235 0)
(0.00431727 -0.0440709 0)
(-0.00446743 -0.044074 0)
(-0.0132694 -0.043552 0)
(-0.0219952 -0.0426191 0)
(-0.0302243 -0.0419322 0)
(-0.0373138 -0.0413009 0)
(-0.0427781 -0.0406213 0)
(-0.0459052 -0.0401168 0)
(-0.0465718 -0.0401772 0)
(-0.0452115 -0.0412367 0)
(-0.0416329 -0.0432109 0)
(-0.0363849 -0.0461098 0)
(-0.0297347 -0.0496843 0)
(-0.0205748 -0.0523403 0)
(-0.00706923 -0.0463461 0)
(-0.0125048 -0.0172177 0)
(0.0194124 0.040072 0)
(0.0159775 0.00698381 0)
(0.027638 0.00329169 0)
(0.0340067 0.00805517 0)
(0.0375939 0.0129804 0)
(0.0402598 0.0161814 0)
(0.0422971 0.0174974 0)
(0.0431916 0.0173762 0)
(0.0427775 0.0163092 0)
(0.0402982 0.0145709 0)
(0.0359105 0.01285 0)
(0.0298179 0.0113706 0)
(0.0222808 0.0100743 0)
(0.0137133 0.00885098 0)
(0.00456899 0.00818425 0)
(-0.00474951 0.00820651 0)
(-0.0138827 0.00888281 0)
(-0.0224384 0.0101197 0)
(-0.0299621 0.0113919 0)
(-0.0360342 0.0128947 0)
(-0.0403926 0.0146464 0)
(-0.0428444 0.0163769 0)
(-0.0432854 0.0174018 0)
(-0.0424445 0.0174814 0)
(-0.0405513 0.0160663 0)
(-0.0380855 0.0127812 0)
(-0.0347208 0.00761208 0)
(-0.0288364 0.00276285 0)
(-0.0173022 0.00670224 0)
(-0.0203741 0.0400905 0)
(0.0296268 0.0981941 0)
(0.0293665 0.063716 0)
(0.0391768 0.0619956 0)
(0.041543 0.0686394 0)
(0.0416747 0.0762366 0)
(0.0411834 0.0811818 0)
(0.0407539 0.0835085 0)
(0.0400236 0.0836608 0)
(0.0385783 0.0821601 0)
(0.0358096 0.079719 0)
(0.0317613 0.0770722 0)
(0.0264752 0.0746669 0)
(0.0200052 0.0726679 0)
(0.0124725 0.071071 0)
(0.00419659 0.070212 0)
(-0.00432131 0.0702324 0)
(-0.0125773 0.0711195 0)
(-0.0200824 0.0727489 0)
(-0.0265393 0.0747431 0)
(-0.0318284 0.0771716 0)
(-0.0358651 0.0798335 0)
(-0.0386208 0.0822643 0)
(-0.040117 0.0837371 0)
(-0.0409119 0.0835504 0)
(-0.0414688 0.0811401 0)
(-0.0421412 0.0761011 0)
(-0.0422597 0.0682349 0)
(-0.0404319 0.0616278 0)
(-0.0306365 0.0634925 0)
(-0.0305589 0.0983144 0)
(0.0373807 0.152477 0)
(0.0410691 0.117918 0)
(0.0499768 0.116188 0)
(0.0505327 0.123936 0)
(0.0492008 0.134218 0)
(0.0470171 0.14256 0)
(0.0446314 0.148496 0)
(0.0419369 0.151797 0)
(0.0386462 0.152629 0)
(0.0345257 0.151667 0)
(0.0296667 0.149697 0)
(0.0241791 0.14741 0)
(0.0180589 0.145285 0)
(0.0112228 0.143626 0)
(0.00378766 0.142731 0)
(-0.00385774 0.142753 0)
(-0.011282 0.143685 0)
(-0.0180973 0.145381 0)
(-0.0242115 0.147512 0)
(-0.0297107 0.149815 0)
(-0.0345676 0.151787 0)
(-0.0386984 0.15273 0)
(-0.0420478 0.151861 0)
(-0.0448076 0.148518 0)
(-0.0472846 0.142516 0)
(-0.0496097 0.134097 0)
(-0.0511856 0.123656 0)
(-0.0510296 0.115886 0)
(-0.0422628 0.117787 0)
(-0.038181 0.152681 0)
(0.0390236 0.195082 0)
(0.0457207 0.160094 0)
(0.0559501 0.155893 0)
(0.0585541 0.163786 0)
(0.0595023 0.175729 0)
(0.0587426 0.188044 0)
(0.0564721 0.199481 0)
(0.0527326 0.208974 0)
(0.0476271 0.215875 0)
(0.0414264 0.220104 0)
(0.0345405 0.222109 0)
(0.0273086 0.222587 0)
(0.0198534 0.222229 0)
(0.0121055 0.221628 0)
(0.00406044 0.22123 0)
(-0.00410295 0.221255 0)
(-0.0121553 0.221696 0)
(-0.0199075 0.222324 0)
(-0.0273699 0.222678 0)
(-0.0346213 0.222197 0)
(-0.0415209 0.220178 0)
(-0.0477509 0.21592 0)
(-0.0529088 0.208974 0)
(-0.0566951 0.199436 0)
(-0.0590124 0.187956 0)
(-0.0598485 0.175604 0)
(-0.0590451 0.1636 0)
(-0.0567286 0.155769 0)
(-0.0465833 0.160175 0)
(-0.0396192 0.195448 0)
(0.0344033 0.215187 0)
(0.0421689 0.180653 0)
(0.0557201 0.174768 0)
(0.063288 0.182883 0)
(0.0681323 0.196024 0)
(0.0705763 0.211536 0)
(0.0706561 0.227911 0)
(0.0682857 0.243919 0)
(0.0633921 0.258305 0)
(0.0562199 0.27004 0)
(0.0473322 0.278858 0)
(0.0373808 0.284983 0)
(0.0269122 0.288873 0)
(0.0162113 0.291079 0)
(0.00539318 0.292071 0)
(-0.00546634 0.29209 0)
(-0.0162993 0.291127 0)
(-0.027016 0.288928 0)
(-0.0375017 0.285027 0)
(-0.0474779 0.278885 0)
(-0.0563855 0.270045 0)
(-0.0635818 0.258279 0)
(-0.0685061 0.243855 0)
(-0.0709053 0.227817 0)
(-0.0708514 0.211416 0)
(-0.0684377 0.195895 0)
(-0.0636411 0.18277 0)
(-0.0561721 0.174745 0)
(-0.0426189 0.180867 0)
(-0.0347742 0.215738 0)
(0.0280817 0.211026 0)
(0.0385862 0.182163 0)
(0.0542818 0.178291 0)
(0.064756 0.188215 0)
(0.0710214 0.203845 0)
(0.0738992 0.222123 0)
(0.0739654 0.241337 0)
(0.0716571 0.260244 0)
(0.0672769 0.277954 0)
(0.0610088 0.293921 0)
(0.0529143 0.307836 0)
(0.0430667 0.31932 0)
(0.0317373 0.327976 0)
(0.0193753 0.333641 0)
(0.00646524 0.336408 0)
(-0.00659893 0.336407 0)
(-0.019505 0.333635 0)
(-0.0318587 0.32796 0)
(-0.0431875 0.319293 0)
(-0.0530411 0.307799 0)
(-0.0611428 0.293878 0)
(-0.0674254 0.277905 0)
(-0.0718308 0.260183 0)
(-0.0741704 0.241258 0)
(-0.0741359 0.222027 0)
(-0.0712856 0.203739 0)
(-0.0650385 0.188125 0)
(-0.0545608 0.178273 0)
(-0.0387851 0.182347 0)
(-0.0282619 0.211639 0)
(0.0231192 0.191555 0)
(0.0382851 0.175434 0)
(0.0544158 0.175442 0)
(0.0649552 0.188276 0)
(0.0704954 0.207102 0)
(0.0721033 0.228227 0)
(0.0706869 0.249807 0)
(0.0669559 0.270629 0)
(0.0614627 0.289863 0)
(0.0545955 0.306959 0)
(0.0465793 0.321567 0)
(0.0375373 0.333432 0)
(0.0275801 0.342383 0)
(0.0168637 0.348353 0)
(0.00563654 0.351333 0)
(-0.00576638 0.351328 0)
(-0.016986 0.348338 0)
(-0.0276912 0.34236 0)
(-0.0376404 0.3334 0)
(-0.0466781 0.321531 0)
(-0.0546927 0.306921 0)
(-0.0615642 0.289825 0)
(-0.0670694 0.270592 0)
(-0.0708198 0.249768 0)
(-0.0722628 0.228183 0)
(-0.0706866 0.207051 0)
(-0.0651749 0.188222 0)
(-0.0546368 0.17541 0)
(-0.0384182 0.17553 0)
(-0.0231792 0.192133 0)
(0.0234934 0.172531 0)
(0.0402803 0.164491 0)
(0.0553109 0.169769 0)
(0.0643293 0.186453 0)
(0.0683585 0.208578 0)
(0.0685688 0.232478 0)
(0.0659827 0.256246 0)
(0.0613624 0.278762 0)
(0.0552983 0.299294 0)
(0.0482214 0.317387 0)
(0.0404109 0.332768 0)
(0.0320365 0.345258 0)
(0.0232154 0.354724 0)
(0.0140544 0.361078 0)
(0.00467463 0.364263 0)
(-0.00478011 0.364257 0)
(-0.0141562 0.361059 0)
(-0.0233102 0.354696 0)
(-0.0321214 0.345224 0)
(-0.0404839 0.332735 0)
(-0.0482818 0.31736 0)
(-0.0553475 0.29928 0)
(-0.0614042 0.278765 0)
(-0.066024 0.256267 0)
(-0.0686206 0.232514 0)
(-0.0684374 0.208619 0)
(-0.0644538 0.186482 0)
(-0.0554837 0.16976 0)
(-0.0404233 0.164491 0)
(-0.0235711 0.172986 0)
(0.0274562 0.152235 0)
(0.0429511 0.152128 0)
(0.0553241 0.163422 0)
(0.0622297 0.184057 0)
(0.0647183 0.209384 0)
(0.0638358 0.235911 0)
(0.0605732 0.261734 0)
(0.0556453 0.285803 0)
(0.0496021 0.307471 0)
(0.0428374 0.326374 0)
(0.0355974 0.342332 0)
(0.0280225 0.355239 0)
(0.0201956 0.36501 0)
(0.01218 0.371572 0)
(0.00404303 0.374866 0)
(-0.00413559 0.374858 0)
(-0.012269 0.371552 0)
(-0.0202764 0.36498 0)
(-0.0280895 0.355205 0)
(-0.0356443 0.342303 0)
(-0.0428585 0.326361 0)
(-0.0495937 0.307486 0)
(-0.0556069 0.285858 0)
(-0.0605097 0.261834 0)
(-0.0637593 0.236054 0)
(-0.0646518 0.209559 0)
(-0.062207 0.18423 0)
(-0.0553965 0.163508 0)
(-0.0430938 0.152076 0)
(-0.0275997 0.152475 0)
(0.0318527 0.128502 0)
(0.0439993 0.139781 0)
(0.0530747 0.157477 0)
(0.0580922 0.181889 0)
(0.0593631 0.210206 0)
(0.0577743 0.239209 0)
(0.0542259 0.266978 0)
(0.0493688 0.292464 0)
(0.0437335 0.315071 0)
(0.0376488 0.33457 0)
(0.0312647 0.350917 0)
(0.024634 0.364105 0)
(0.0177801 0.374095 0)
(0.0107371 0.380816 0)
(0.00356494 0.384196 0)
(-0.00365235 0.384188 0)
(-0.010821 0.380794 0)
(-0.0178559 0.374061 0)
(-0.0246937 0.364066 0)
(-0.0312974 0.350885 0)
(-0.0376424 0.334562 0)
(-0.0436771 0.315109 0)
(-0.0492567 0.292569 0)
(-0.0540612 0.267163 0)
(-0.0575692 0.239476 0)
(-0.0591358 0.210546 0)
(-0.0578811 0.182257 0)
(-0.0529526 0.157748 0)
(-0.0440622 0.139736 0)
(-0.0320207 0.128418 0)
(0.0325807 0.101847 0)
(0.0414393 0.128063 0)
(0.0478649 0.152297 0)
(0.0517319 0.180194 0)
(0.0522982 0.21131 0)
(0.050396 0.242703 0)
(0.0469207 0.272311 0)
(0.0424831 0.299013 0)
(0.037595 0.322301 0)
(0.032485 0.342157 0)
(0.0271647 0.358731 0)
(0.0215748 0.372117 0)
(0.0156839 0.382294 0)
(0.00952046 0.389169 0)
(0.00316714 0.392636 0)
(-0.00325391 0.392628 0)
(-0.00960584 0.389144 0)
(-0.0157656 0.382254 0)
(-0.0216445 0.372066 0)
(-0.027208 0.358684 0)
(-0.0324821 0.342135 0)
(-0.0375251 0.322338 0)
(-0.0423321 0.299145 0)
(-0.0466868 0.272565 0)
(-0.050088 0.243088 0)
(-0.0519216 0.211825 0)
(-0.0513192 0.180789 0)
(-0.0474572 0.152828 0)
(-0.0412863 0.12809 0)
(-0.0326128 0.101416 0)
(0.0274082 0.0760342 0)
(0.0347457 0.117181 0)
(0.0399294 0.147588 0)
(0.043396 0.178812 0)
(0.0437347 0.212703 0)
(0.0418114 0.246569 0)
(0.0387684 0.277881 0)
(0.0352578 0.305414 0)
(0.0315998 0.328983 0)
(0.02778 0.348951 0)
(0.0236468 0.365672 0)
(0.0190752 0.379283 0)
(0.0140335 0.389721 0)
(0.00858572 0.396821 0)
(0.00286635 0.400417 0)
(-0.00294963 0.400409 0)
(-0.00867414 0.396795 0)
(-0.014128 0.389675 0)
(-0.0191715 0.379217 0)
(-0.0237311 0.365595 0)
(-0.0278281 0.348887 0)
(-0.0315809 0.328976 0)
(-0.0351401 0.305522 0)
(-0.0385302 0.278159 0)
(-0.0414487 0.247042 0)
(-0.0432547 0.213367 0)
(-0.0428126 0.179627 0)
(-0.0392779 0.148305 0)
(-0.0342758 0.117303 0)
(-0.0271417 0.0753089 0)
(0.0188429 0.0556418 0)
(0.0254443 0.107081 0)
(0.0305551 0.142478 0)
(0.033653 0.177456 0)
(0.0339239 0.214456 0)
(0.0324656 0.250832 0)
(0.0304329 0.28354 0)
(0.0284114 0.311364 0)
(0.0263974 0.334781 0)
(0.0240665 0.354679 0)
(0.0211098 0.371585 0)
(0.0174127 0.385567 0)
(0.013006 0.396432 0)
(0.00803329 0.403891 0)
(0.00269704 0.407691 0)
(-0.00276763 0.407685 0)
(-0.00811632 0.40387 0)
(-0.0131104 0.396388 0)
(-0.0175418 0.38549 0)
(-0.0212567 0.371475 0)
(-0.0242097 0.354552 0)
(-0.0265015 0.334683 0)
(-0.0284179 0.311381 0)
(-0.0302926 0.28377 0)
(-0.0321578 0.251317 0)
(-0.0334453 0.215187 0)
(-0.0330112 0.178412 0)
(-0.0298358 0.143224 0)
(-0.0246758 0.107362 0)
(-0.01828 0.0548954 0)
(0.011363 0.0420644 0)
(0.0160395 0.097693 0)
(0.0209362 0.136892 0)
(0.0229515 0.176081 0)
(0.0233891 0.216669 0)
(0.0231259 0.255674 0)
(0.0230475 0.288962 0)
(0.023217 0.316186 0)
(0.0230361 0.339108 0)
(0.0220526 0.358996 0)
(0.0199837 0.376333 0)
(0.0168194 0.390985 0)
(0.0127172 0.402538 0)
(0.00791199 0.41054 0)
(0.00267566 0.414636 0)
(-0.00271176 0.414637 0)
(-0.00796757 0.410535 0)
(-0.0128099 0.402512 0)
(-0.0169631 0.390917 0)
(-0.0201851 0.376204 0)
(-0.0223074 0.358801 0)
(-0.0233109 0.338887 0)
(-0.0234516 0.316034 0)
(-0.0231678 0.289023 0)
(-0.0230525 0.256074 0)
(-0.023084 0.217366 0)
(-0.0224414 0.177055 0)
(-0.0204104 0.137656 0)
(-0.0154222 0.0979801 0)
(-0.0109234 0.0414388 0)
(0.00627823 0.0335916 0)
(0.00831352 0.088742 0)
(0.0109449 0.131822 0)
(0.0116932 0.174976 0)
(0.0133747 0.220157 0)
(0.0158589 0.260992 0)
(0.0187213 0.293114 0)
(0.0211479 0.318971 0)
(0.0223956 0.341432 0)
(0.0221204 0.361746 0)
(0.0203592 0.37999 0)
(0.017259 0.395713 0)
(0.0130906 0.408247 0)
(0.00816076 0.416977 0)
(0.00278165 0.421461 0)
(-0.0027527 0.421471 0)
(-0.00815582 0.417002 0)
(-0.013134 0.408263 0)
(-0.017375 0.395685 0)
(-0.0205679 0.379879 0)
(-0.0224328 0.361524 0)
(-0.0228064 0.341107 0)
(-0.021646 0.318597 0)
(-0.0192366 0.292864 0)
(-0.01629 0.26114 0)
(-0.0136409 0.220691 0)
(-0.0115881 0.175838 0)
(-0.0109166 0.132452 0)
(-0.00815552 0.0889551 0)
(-0.00603116 0.0334185 0)
(0.0025528 0.0286021 0)
(0.00257497 0.0800646 0)
(0.000984654 0.127303 0)
(0.0034192 0.17436 0)
(0.00794729 0.226331 0)
(0.0140865 0.265139 0)
(0.0192627 0.294425 0)
(0.0227264 0.319115 0)
(0.0242912 0.341794 0)
(0.0239421 0.363172 0)
(0.0218728 0.382873 0)
(0.018393 0.400072 0)
(0.0138502 0.413849 0)
(0.00860003 0.423448 0)
(0.00295265 0.428378 0)
(-0.00282843 0.428404 0)
(-0.00849918 0.423517 0)
(-0.0137981 0.413933 0)
(-0.01842 0.400124 0)
(-0.0220071 0.382835 0)
(-0.0242093 0.362988 0)
(-0.0247135 0.341433 0)
(-0.0233181 0.318593 0)
(-0.0200218 0.293834 0)
(-0.0150135 0.26471 0)
(-0.00900925 0.226556 0)
(-0.00422104 0.174942 0)
(-0.0014776 0.128017 0)
(-0.00267266 0.0806633 0)
(-0.00241121 0.0288235 0)
(-0.000632645 0.0262501 0)
(-0.00333356 0.0743017 0)
(-0.00389292 0.121702 0)
(0.00347426 0.182345 0)
(0.0109162 0.23026 0)
(0.0182492 0.265278 0)
(0.0236584 0.292489 0)
(0.0267896 0.31701 0)
(0.0276719 0.340791 0)
(0.0265445 0.363903 0)
(0.0237257 0.385541 0)
(0.0195978 0.404513 0)
(0.0145481 0.419676 0)
(0.00896099 0.430183 0)
(0.0030947 0.435559 0)
(-0.00285723 0.435603 0)
(-0.00873997 0.430304 0)
(-0.0143655 0.419846 0)
(-0.0194785 0.404681 0)
(-0.0237069 0.38563 0)
(-0.0266539 0.363833 0)
(-0.0279392 0.340501 0)
(-0.0272374 0.316485 0)
(-0.0243098 0.291772 0)
(-0.0190952 0.264522 0)
(-0.0119642 0.229771 0)
(-0.00482082 0.182475 0)
(0.00323435 0.1233 0)
(0.00320656 0.0754051 0)
(0.000767929 0.026788 0)
(-0.00311099 0.0244594 0)
(-0.00809714 0.0722619 0)
(0.00135528 0.130297 0)
(0.00840991 0.187344 0)
(0.0177497 0.230892 0)
(0.0250096 0.262108 0)
(0.0294148 0.288281 0)
(0.0312796 0.313713 0)
(0.0309483 0.33935 0)
(0.02874 0.36472 0)
(0.0250097 0.388616 0)
(0.0201696 0.409497 0)
(0.0147151 0.426005 0)
(0.00895697 0.437327 0)
(0.00310577 0.443077 0)
(-0.00275999 0.443136 0)
(-0.00861425 0.437499 0)
(-0.0143874 0.426266 0)
(-0.0198804 0.409795 0)
(-0.0247882 0.388868 0)
(-0.0286269 0.364818 0)
(-0.0309643 0.339209 0)
(-0.0314438 0.313297 0)
(-0.0297599 0.287596 0)
(-0.0255647 0.261242 0)
(-0.0184872 0.230131 0)
(-0.00924847 0.187171 0)
(-0.00188281 0.13153 0)
(0.00775718 0.0740027 0)
(0.00336626 0.0252031 0)
(-0.00780118 0.0284018 0)
(-0.00197622 0.0799039 0)
(0.00644265 0.139248 0)
(0.0161101 0.190748 0)
(0.0260156 0.228099 0)
(0.0315498 0.256503 0)
(0.0341488 0.283127 0)
(0.0344908 0.310347 0)
(0.0328743 0.338363 0)
(0.0295609 0.366353 0)
(0.0249296 0.392668 0)
(0.0195672 0.415354 0)
(0.0139436 0.432997 0)
(0.00835641 0.44489 0)
(0.00290304 0.450859 0)
(-0.00248292 0.450928 0)
(-0.00792136 0.445098 0)
(-0.0134896 0.433335 0)
(-0.019111 0.415778 0)
(-0.0245028 0.39309 0)
(-0.0292034 0.366649 0)
(-0.0326215 0.338411 0)
(-0.0343521 0.31009 0)
(-0.0341385 0.282565 0)
(-0.0317183 0.255665 0)
(-0.0264454 0.227145 0)
(-0.0167832 0.190171 0)
(-0.00698882 0.139694 0)
(0.00172645 0.0821243 0)
(0.00802323 0.0293463 0)
(-0.00529163 0.0336838 0)
(0.00447934 0.0913402 0)
(0.0138325 0.145304 0)
(0.0258496 0.189777 0)
(0.0327035 0.221878 0)
(0.0356364 0.249933 0)
(0.0364833 0.278201 0)
(0.0354799 0.30775 0)
(0.032672 0.338548 0)
(0.0283011 0.369409 0)
(0.0229741 0.398084 0)
(0.0173778 0.422295 0)
(0.0120038 0.440627 0)
(0.00705425 0.452695 0)
(0.00245013 0.458664 0)
(-0.0020167 0.458734 0)
(-0.00658707 0.452913 0)
(-0.0114786 0.441005 0)
(-0.016794 0.422818 0)
(-0.0223637 0.398669 0)
(-0.0277144 0.369905 0)
(-0.032159 0.338804 0)
(-0.0350614 0.307677 0)
(-0.03615 0.277805 0)
(-0.0353946 0.249243 0)
(-0.0326398 0.220938 0)
(-0.0261662 0.188875 0)
(-0.0144313 0.145018 0)
(-0.00508376 0.0916253 0)
(0.0038211 0.0336219 0)
(0.00282747 0.0346553 0)
(0.0112468 0.0956636 0)
(0.0232144 0.147097 0)
(0.0322646 0.184251 0)
(0.0351973 0.214493 0)
(0.0362858 0.243892 0)
(0.0359149 0.274314 0)
(0.0337775 0.306563 0)
(0.0298198 0.340502 0)
(0.0245347 0.374358 0)
(0.0188183 0.405183 0)
(0.0134875 0.43029 0)
(0.00894638 0.448609 0)
(0.00513441 0.460363 0)
(0.00177958 0.466096 0)
(-0.00141032 0.466155 0)
(-0.00471789 0.460554 0)
(-0.00843834 0.448969 0)
(-0.0128592 0.43085 0)
(-0.0180821 0.4059 0)
(-0.023752 0.375059 0)
(-0.0290667 0.340971 0)
(-0.0331042 0.30669 0)
(-0.0353146 0.274096 0)
(-0.0357128 0.243406 0)
(-0.0346825 0.213746 0)
(-0.0319229 0.183335 0)
(-0.0233637 0.146417 0)
(-0.0115164 0.0954901 0)
(-0.00312693 0.0345981 0)
(0.00580156 0.0363284 0)
(0.0177573 0.0985794 0)
(0.0293306 0.14337 0)
(0.0324888 0.176883 0)
(0.0334876 0.20786 0)
(0.0336673 0.239095 0)
(0.032345 0.271917 0)
(0.0290373 0.307274 0)
(0.0239514 0.344731 0)
(0.0180308 0.381724 0)
(0.012537 0.414008 0)
(0.00827142 0.438898 0)
(0.00520449 0.45636 0)
(0.00291068 0.46735 0)
(0.00100475 0.472671 0)
(-0.000774563 0.472708 0)
(-0.00263262 0.467477 0)
(-0.00482319 0.456632 0)
(-0.00772768 0.439395 0)
(-0.0117936 0.414769 0)
(-0.0171285 0.382617 0)
(-0.0229993 0.345441 0)
(-0.0281391 0.307597 0)
(-0.0315166 0.271878 0)
(-0.0329196 0.238735 0)
(-0.0327269 0.207309 0)
(-0.0316918 0.1762 0)
(-0.0287776 0.142601 0)
(-0.017707 0.0981652 0)
(-0.00580197 0.036159 0)
(0.00768076 0.038681 0)
(0.0230762 0.0980027 0)
(0.0277578 0.136545 0)
(0.0279255 0.170408 0)
(0.0285236 0.202636 0)
(0.0280699 0.235723 0)
(0.0256307 0.271277 0)
(0.020997 0.310272 0)
(0.0149247 0.352094 0)
(0.00909196 0.391885 0)
(0.0050431 0.423918 0)
(0.00280932 0.447147 0)
(0.00163631 0.463078 0)
(0.000908062 0.473107 0)
(0.000308828 0.477986 0)
(-0.000265901 0.477996 0)
(-0.000834601 0.473148 0)
(-0.00148268 0.463206 0)
(-0.00250377 0.447465 0)
(-0.00449528 0.42456 0)
(-0.00825015 0.392872 0)
(-0.0138798 0.353088 0)
(-0.0199503 0.310827 0)
(-0.024657 0.271348 0)
(-0.027179 0.23549 0)
(-0.027606 0.202282 0)
(-0.0269409 0.169984 0)
(-0.02679 0.13597 0)
(-0.0225419 0.0974129 0)
(-0.00753276 0.0385288 0)
(0.0104064 0.0418387 0)
(0.021568 0.0924114 0)
(0.021333 0.129787 0)
(0.0210848 0.164691 0)
(0.0210881 0.198563 0)
(0.0195193 0.233832 0)
(0.0156536 0.27247 0)
(0.00955432 0.316747 0)
(0.0032805 0.364015 0)
(-0.000496327 0.404133 0)
(-0.00146703 0.433211 0)
(-0.00118026 0.453722 0)
(-0.000673048 0.468061 0)
(-0.000296703 0.477336 0)
(-0.000116005 0.481929 0)
(-2.93918e-05 0.481914 0)
(0.000153604 0.477297 0)
(0.000558713 0.468035 0)
(0.00114149 0.453793 0)
(0.00158884 0.433534 0)
(0.00095004 0.404938 0)
(-0.00243167 0.365238 0)
(-0.00847891 0.317719 0)
(-0.0145374 0.272734 0)
(-0.0184935 0.233728 0)
(-0.0201206 0.198328 0)
(-0.0201482 0.16436 0)
(-0.0203419 0.129414 0)
(-0.0206555 0.0918915 0)
(-0.0101589 0.0415673 0)
(0.0112621 0.0382716 0)
(0.0149532 0.0843444 0)
(0.0138471 0.122949 0)
(0.0131957 0.159017 0)
(0.0115284 0.195348 0)
(0.00843417 0.232605 0)
(0.00242848 0.27656 0)
(-0.00420328 0.330592 0)
(-0.00742334 0.380297 0)
(-0.00639275 0.415235 0)
(-0.00423929 0.439765 0)
(-0.00229798 0.457847 0)
(-0.00103751 0.471232 0)
(-0.000402668 0.480267 0)
(-0.000176615 0.484834 0)
(-0.000108773 0.484803 0)
(9.83585e-05 0.480178 0)
(0.000708664 0.471091 0)
(0.00194616 0.457688 0)
(0.00391168 0.439703 0)
(0.00623074 0.415533 0)
(0.00750004 0.38119 0)
(0.00513387 0.33215 0)
(-0.00119604 0.277313 0)
(-0.00740404 0.232491 0)
(-0.0106435 0.195128 0)
(-0.0124125 0.158741 0)
(-0.01306 0.122658 0)
(-0.0140994 0.0839652 0)
(-0.0107463 0.0375749 0)
(0.00727152 0.0296503 0)
(0.00722907 0.0766429 0)
(0.00679095 0.115294 0)
(0.00560697 0.152497 0)
(0.00119357 0.191507 0)
(-0.00460062 0.231724 0)
(-0.0125458 0.293257 0)
(-0.0129523 0.353239 0)
(-0.00936554 0.393553 0)
(-0.00519179 0.421243 0)
(-0.0021678 0.442521 0)
(-0.00035447 0.459692 0)
(0.00046529 0.473113 0)
(0.000521449 0.482466 0)
(0.000111743 0.48727 0)
(-0.000463952 0.487235 0)
(-0.000903487 0.482358 0)
(-0.000902476 0.47292 0)
(-0.000146789 0.459416 0)
(0.00161662 0.442211 0)
(0.00460642 0.421012 0)
(0.00889729 0.393816 0)
(0.013112 0.354478 0)
(0.0132781 0.295155 0)
(0.00543778 0.23186 0)
(-0.000517386 0.191206 0)
(-0.00502115 0.152355 0)
(-0.00634482 0.11509 0)
(-0.00672584 0.0763688 0)
(-0.006867 0.0291432 0)
(0.00325503 0.0236499 0)
(0.00127667 0.0689625 0)
(0.000658378 0.107622 0)
(-0.0021429 0.147276 0)
(-0.00693055 0.183589 0)
(-0.0148135 0.252766 0)
(-0.0130186 0.321029 0)
(-0.00811979 0.367436 0)
(-0.0029088 0.398519 0)
(0.000913293 0.422261 0)
(0.00305543 0.442516 0)
(0.0037247 0.46007 0)
(0.00331984 0.474349 0)
(0.00219585 0.484482 0)
(0.000664653 0.489731 0)
(-0.000999125 0.489705 0)
(-0.00256229 0.484394 0)
(-0.00375481 0.47417 0)
(-0.00425106 0.459771 0)
(-0.00369767 0.442086 0)
(-0.00167744 0.421747 0)
(0.00210681 0.39817 0)
(0.00719505 0.367622 0)
(0.0124711 0.32207 0)
(0.0144283 0.25504 0)
(0.00707368 0.183505 0)
(0.00229436 0.147292 0)
(-0.000658016 0.107539 0)
(-0.00114864 0.0687919 0)
(-0.00300777 0.0235775 0)
(1.06957e-05 0.0209811 0)
(-0.00263405 0.0617369 0)
(-0.00504967 0.100363 0)
(-0.0114524 0.138499 0)
(-0.0120103 0.204732 0)
(-0.0106218 0.281039 0)
(-0.00505506 0.335989 0)
(0.00181495 0.371882 0)
(0.00677533 0.397723 0)
(0.00916835 0.420285 0)
(0.00960625 0.441197 0)
(0.00859945 0.460095 0)
(0.00664908 0.475749 0)
(0.0041288 0.486912 0)
(0.00132353 0.492702 0)
(-0.00156179 0.492693 0)
(-0.0043988 0.486873 0)
(-0.00699164 0.475635 0)
(-0.00904792 0.459849 0)
(-0.0101991 0.440768 0)
(-0.00994145 0.419662 0)
(-0.00774357 0.396994 0)
(-0.00302992 0.371302 0)
(0.00390885 0.336246 0)
(0.00991832 0.282426 0)
(0.0109021 0.208648 0)
(0.0105859 0.138737 0)
(0.00502163 0.101193 0)
(0.00272027 0.0618988 0)
(0.000147069 0.0210329 0)
(-0.00207251 0.0192674 0)
(-0.00563505 0.0554104 0)
(-0.0129396 0.0924011 0)
(-0.012011 0.140967 0)
(-0.00871709 0.232713 0)
(-0.00367862 0.29807 0)
(0.006745 0.341589 0)
(0.0139383 0.369781 0)
(0.0171141 0.393787 0)
(0.0174116 0.417121 0)
(0.0158711 0.439792 0)
(0.0131101 0.460618 0)
(0.0096273 0.477898 0)
(0.00582321 0.490131 0)
(0.00191817 0.496436 0)
(-0.00200228 0.496451 0)
(-0.00593624 0.490158 0)
(-0.00980351 0.477889 0)
(-0.013391 0.460494 0)
(-0.0163016 0.439468 0)
(-0.0180355 0.416545 0)
(-0.0180067 0.392946 0)
(-0.0151713 0.3688 0)
(-0.00831919 0.340978 0)
(0.00221973 0.298835 0)
(0.00793071 0.235422 0)
(0.0117546 0.149486 0)
(0.0139184 0.0930615 0)
(0.00588053 0.055518 0)
(0.00219864 0.0191939 0)
(-0.00241586 0.0175737 0)
(-0.00782235 0.0511101 0)
(-0.0105291 0.0853353 0)
(-0.00725609 0.178712 0)
(-0.00262407 0.251679 0)
(0.0105483 0.306293 0)
(0.0217217 0.338588 0)
(0.0259334 0.363767 0)
(0.0261624 0.388647 0)
(0.0241628 0.414063 0)
(0.0206875 0.439201 0)
(0.0163768 0.462231 0)
(0.0116319 0.48111 0)
(0.00688817 0.494249 0)
(0.00230064 0.500939 0)
(-0.00220693 0.500978 0)
(-0.00680476 0.494353 0)
(-0.0115904 0.481234 0)
(-0.0164246 0.462283 0)
(-0.0208606 0.439073 0)
(-0.0245028 0.413662 0)
(-0.0267461 0.387908 0)
(-0.0268773 0.362694 0)
(-0.0232452 0.337344 0)
(-0.0127755 0.305831 0)
(0.00104162 0.253347 0)
(0.00643399 0.182239 0)
(0.0103305 0.0879089 0)
(0.00887002 0.050238 0)
(0.00235838 0.0171797 0)
(-0.00399191 0.019345 0)
(-0.00665197 0.0497712 0)
(-0.00415458 0.128625 0)
(1.35937e-05 0.200853 0)
(0.0126196 0.26399 0)
(0.0293187 0.303505 0)
(0.0345699 0.330452 0)
(0.0345087 0.356677 0)
(0.0321792 0.383956 0)
(0.0283115 0.412181 0)
(0.0232675 0.44018 0)
(0.0176372 0.46546 0)
(0.0121697 0.48554 0)
(0.00710291 0.4992 0)
(0.00240975 0.506075 0)
(-0.00213703 0.506135 0)
(-0.00682672 0.499374 0)
(-0.0118997 0.485793 0)
(-0.0173943 0.465726 0)
(-0.0230921 0.440341 0)
(-0.028286 0.412072 0)
(-0.0323222 0.383477 0)
(-0.0349134 0.355786 0)
(-0.0354153 0.329134 0)
(-0.0310739 0.302083 0)
(-0.0153315 0.264319 0)
(-0.00145322 0.202491 0)
(0.00326422 0.12992 0)
(0.00505921 0.0488056 0)
(0.00411925 0.0193243 0)
(-0.0112884 0.0262057 0)
(0.0028433 0.0707711 0)
(0.00391148 0.149429 0)
(0.0152832 0.214917 0)
(0.0350826 0.263863 0)
(0.04142 0.293851 0)
(0.0407499 0.321895 0)
(0.0382656 0.350773 0)
(0.0344061 0.380996 0)
(0.0290604 0.412566 0)
(0.022877 0.443389 0)
(0.0166711 0.470338 0)
(0.0111451 0.491056 0)
(0.00640114 0.504795 0)
(0.00220763 0.511613 0)
(-0.00178657 0.511689 0)
(-0.00595356 0.505022 0)
(-0.0106519 0.491427 0)
(-0.0161355 0.47081 0)
(-0.0223434 0.443848 0)
(-0.0285835 0.412845 0)
(-0.0340745 0.380889 0)
(-0.0381063 0.350214 0)
(-0.0408337 0.32085 0)
(-0.0419236 0.292337 0)
(-0.0371316 0.262402 0)
(-0.0179351 0.215683 0)
(-0.00503834 0.150544 0)
(-0.0028698 0.0728715 0)
(0.0114001 0.0267687 0)
(-0.0140063 0.0386881 0)
(0.00442936 0.101389 0)
(0.0167541 0.16547 0)
(0.0381903 0.219174 0)
(0.045086 0.254173 0)
(0.0434921 0.284708 0)
(0.0410529 0.315415 0)
(0.0376227 0.347082 0)
(0.0325525 0.380764 0)
(0.0261936 0.415746 0)
(0.0194437 0.448999 0)
(0.0134786 0.476769 0)
(0.00870903 0.497313 0)
(0.00493165 0.510609 0)
(0.00174337 0.517131 0)
(-0.00123943 0.517208 0)
(-0.00437668 0.510853 0)
(-0.0080567 0.497748 0)
(-0.0127028 0.477404 0)
(-0.0185639 0.449763 0)
(-0.0252855 0.416439 0)
(-0.0317121 0.381135 0)
(-0.036936 0.346912 0)
(-0.0405286 0.314715 0)
(-0.0431265 0.283475 0)
(-0.0450449 0.252452 0)
(-0.0402379 0.217851 0)
(-0.0192421 0.166003 0)
(-0.00552925 0.102197 0)
(0.0124512 0.0390883 0)
(0.00352229 0.0429053 0)
(0.0162455 0.113832 0)
(0.0383348 0.17194 0)
(0.0452987 0.211085 0)
(0.0422466 0.245535 0)
(0.0398529 0.278353 0)
(0.0371344 0.311354 0)
(0.0328387 0.346117 0)
(0.0267991 0.383563 0)
(0.0198122 0.422077 0)
(0.0134863 0.456774 0)
(0.0087977 0.484101 0)
(0.00552237 0.503627 0)
(0.00312113 0.516094 0)
(0.00115761 0.522189 0)
(-0.000656141 0.522255 0)
(-0.00255287 0.516311 0)
(-0.0048199 0.504049 0)
(-0.00790088 0.484795 0)
(-0.0123674 0.457752 0)
(-0.0185188 0.423183 0)
(-0.0254651 0.384436 0)
(-0.0315806 0.346425 0)
(-0.0360403 0.310975 0)
(-0.0389073 0.277393 0)
(-0.0411763 0.244193 0)
(-0.0446031 0.209164 0)
(-0.0398427 0.170637 0)
(-0.0181403 0.114475 0)
(-0.0042425 0.0432959 0)
(0.0102081 0.0481799 0)
(0.0332245 0.12265 0)
(0.0421455 0.165478 0)
(0.038912 0.202709 0)
(0.035604 0.239019 0)
(0.0330639 0.273993 0)
(0.0295868 0.309572 0)
(0.0244127 0.347774 0)
(0.0175428 0.390048 0)
(0.0110876 0.431477 0)
(0.00667789 0.465639 0)
(0.00413661 0.491186 0)
(0.00261111 0.509221 0)
(0.00153123 0.520798 0)
(0.0006268 0.526492 0)