# vtk DataFile Version 2.0
mixerVessel2D
ASCII
DATASET UNSTRUCTURED_GRID
POINTS 6528 float
0.02 0 0 0.0199572 -0.00130806 0 0.0198289 -0.00261052 0 0.0196157 -0.00390181
0 0.0193185 -0.00517638 0 0.0189386 -0.00642879 0 0.0184776 -0.00765367 0
0.0179375 -0.00884577 0 0.0173205 -0.01 0 0.0166294 -0.0111114 0 0.0158671
-0.0121752 0 0.0150368 -0.0131869 0 0.0141421 -0.0141421 0 0.0225 0
0 0.0224518 -0.00147157 0 0.0223075 -0.00293684 0 0.0220677 -0.00438953 0
0.0217333 -0.00582343 0 0.0213059 -0.00723239 0 0.0207873 -0.00861038 0 0.0201796
-0.0099515 0 0.0194856 -0.01125 0 0.0187081 -0.0125003 0 0.0178504 -0.0136971
0 0.0169164 -0.0148353 0 0.0159099 -0.0159099 0 0.025 0 0
0.0249465 -0.00163508 0 0.0247861 -0.00326315 0 0.0245196 -0.00487726 0 0.0241481
-0.00647048 0 0.0236733 -0.00803599 0 0.023097 -0.00956709 0 0.0224218 -0.0110572
0 0.0216506 -0.0125 0 0.0207867 -0.0138893 0 0.0198338 -0.015219 0
0.018796 -0.0164836 0 0.0176777 -0.0176777 0 0.0275 0 0 0.0274411
-0.00179859 0 0.0272647 -0.00358947 0 0.0269716 -0.00536498 0 0.026563 -0.00711752
0 0.0260406 -0.00883958 0 0.0254067 -0.0105238 0 0.024664 -0.0121629 0
0.0238157 -0.01375 0 0.0228654 -0.0152782 0 0.0218172 -0.0167409 0 0.0206756
-0.018132 0 0.0194454 -0.0194454 0 0.03 0 0 0.0299358 -0.00196209
0 0.0297433 -0.00391579 0 0.0294236 -0.00585271 0 0.0289778 -0.00776457 0
0.0284079 -0.00964318 0 0.0277164 -0.0114805 0 0.0269062 -0.0132687 0 0.0259808
-0.015 0 0.0249441 -0.0166671 0 0.0238006 -0.0182628 0 0.0225552 -0.0197804
0 0.0212132 -0.0212132 0 0.0325 0 0 0.0324304 -0.0021256 0
0.032222 -0.0042421 0 0.0318755 -0.00634044 0 0.0313926 -0.00841162 0 0.0307752
-0.0104468 0 0.0300261 -0.0124372 0 0.0291484 -0.0143744 0 0.0281458 -0.01625
0 0.0270228 -0.018056 0 0.025784 -0.0197847 0 0.0244348 -0.0214287 0
0.022981 -0.022981 0 0.035 0 0 0.0349251 -0.00228911 0 0.0347006
-0.00456842 0 0.0343275 -0.00682816 0 0.0338074 -0.00905867 0 0.0331426 -0.0112504
0 0.0323358 -0.0133939 0 0.0313905 -0.0154801 0 0.0303109 -0.0175 0
0.0291014 -0.019445 0 0.0277674 -0.0213067 0 0.0263144 -0.0230771 0 0.0247487
-0.0247487 0 0.0375 0 0 0.0374197 -0.00245262 0 0.0371792 -0.00489473
0 0.0367794 -0.00731589 0 0.0362222 -0.00970571 0 0.0355099 -0.012054 0
0.0346455 -0.0143506 0 0.0336327 -0.0165858 0 0.032476 -0.01875 0 0.0311801
-0.0208339 0 0.0297507 -0.0228286 0 0.028194 -0.0247255 0 0.0265165 -0.0265165
0 0.04 0 0 0.0399144 -0.00261613 0 0.0396578 -0.00522105 0
0.0392314 -0.00780361 0 0.038637 -0.0103528 0 0.0378772 -0.0128576 0 0.0369552
-0.0153073 0 0.0358749 -0.0176915 0 0.034641 -0.02 0 0.0332588 -0.0222228
0 0.0317341 -0.0243505 0 0.0300736 -0.0263738 0 0.0282843 -0.0282843 0
0.0425 0 0 0.042409 -0.00277963 0 0.0421364 -0.00554736 0 0.0416834
-0.00829134 0 0.0410518 -0.0109998 0 0.0402445 -0.0136612 0 0.0392649 -0.016264
0 0.0381171 -0.0187973 0 0.0368061 -0.02125 0 0.0353375 -0.0236117 0
0.0337175 -0.0258724 0 0.0319532 -0.0280222 0 0.030052 -0.030052 0 0.045
0 0 0.0449037 -0.00294314 0 0.044615 -0.00587368 0 0.0441353 -0.00877906
0 0.0434667 -0.0116469 0 0.0426119 -0.0144648 0 0.0415746 -0.0172208 0
0.0403593 -0.019903 0 0.0389711 -0.0225 0 0.0374161 -0.0250007 0 0.0357009
-0.0273943 0 0.0338328 -0.0296706 0 0.0318198 -0.0318198 0 0.0475 0
0 0.0473983 -0.00310665 0 0.0470936 -0.00619999 0 0.0465873 -0.00926679 0
0.0458815 -0.0122939 0 0.0449792 -0.0152684 0 0.0438843 -0.0181775 0 0.0426015
-0.0210087 0 0.0411362 -0.02375 0 0.0394948 -0.0263896 0 0.0376843 -0.0289162
0 0.0357124 -0.0313189 0 0.0335876 -0.0335876 0 0.05 0 0
0.0498929 -0.00327016 0 0.0495722 -0.00652631 0 0.0490393 -0.00975452 0 0.0482963
-0.012941 0 0.0473465 -0.016072 0 0.046194 -0.0191342 0 0.0448436 -0.0221144
0 0.0433013 -0.025 0 0.0415735 -0.0277785 0 0.0396677 -0.0304381 0
0.037592 -0.0329673 0 0.0353553 -0.0353553 0 0.02 0 0.01 0.0199572
-0.00130806 0.01 0.0198289 -0.00261052 0.01 0.0196157 -0.00390181 0.01 0.0193185 -0.00517638
0.01 0.0189386 -0.00642879 0.01 0.0184776 -0.00765367 0.01 0.0179375 -0.00884577 0.01
0.0173205 -0.01 0.01 0.0166294 -0.0111114 0.01 0.0158671 -0.0121752 0.01 0.0150368
-0.0131869 0.01 0.0141421 -0.0141421 0.01 0.0225 0 0.01 0.0224518 -0.00147157
0.01 0.0223075 -0.00293684 0.01 0.0220677 -0.00438953 0.01 0.0217333 -0.00582343 0.01
0.0213059 -0.00723239 0.01 0.0207873 -0.00861038 0.01 0.0201796 -0.0099515 0.01 0.0194856
-0.01125 0.01 0.0187081 -0.0125003 0.01 0.0178504 -0.0136971 0.01 0.0169164 -0.0148353
0.01 0.0159099 -0.0159099 0.01 0.025 0 0.01 0.0249465 -0.00163508 0.01
0.0247861 -0.00326315 0.01 0.0245196 -0.00487726 0.01 0.0241481 -0.00647048 0.01 0.0236733
-0.00803599 0.01 0.023097 -0.00956709 0.01 0.0224218 -0.0110572 0.01 0.0216506 -0.0125
0.01 0.0207867 -0.0138893 0.01 0.0198338 -0.015219 0.01 0.018796 -0.0164836 0.01
0.0176777 -0.0176777 0.01 0.0275 0 0.01 0.0274411 -0.00179859 0.01 0.0272647
-0.00358947 0.01 0.0269716 -0.00536498 0.01 0.026563 -0.00711752 0.01 0.0260406 -0.00883958
0.01 0.0254067 -0.0105238 0.01 0.024664 -0.0121629 0.01 0.0238157 -0.01375 0.01
0.0228654 -0.0152782 0.01 0.0218172 -0.0167409 0.01 0.0206756 -0.018132 0.01 0.0194454
-0.0194454 0.01 0.03 0 0.01 0.0299358 -0.00196209 0.01 0.0297433 -0.00391579
0.01 0.0294236 -0.00585271 0.01 0.0289778 -0.00776457 0.01 0.0284079 -0.00964318 0.01
0.0277164 -0.0114805 0.01 0.0269062 -0.0132687 0.01 0.0259808 -0.015 0.01 0.0249441
-0.0166671 0.01 0.0238006 -0.0182628 0.01 0.0225552 -0.0197804 0.01 0.0212132 -0.0212132
0.01 0.0325 0 0.01 0.0324304 -0.0021256 0.01 0.032222 -0.0042421 0.01
0.0318755 -0.00634044 0.01 0.0313926 -0.00841162 0.01 0.0307752 -0.0104468 0.01 0.0300261
-0.0124372 0.01 0.0291484 -0.0143744 0.01 0.0281458 -0.01625 0.01 0.0270228 -0.018056
0.01 0.025784 -0.0197847 0.01 0.0244348 -0.0214287 0.01 0.022981 -0.022981 0.01
0.035 0 0.01 0.0349251 -0.00228911 0.01 0.0347006 -0.00456842 0.01 0.0343275
-0.00682816 0.01 0.0338074 -0.00905867 0.01 0.0331426 -0.0112504 0.01 0.0323358 -0.0133939
0.01 0.0313905 -0.0154801 0.01 0.0303109 -0.0175 0.01 0.0291014 -0.019445 0.01
0.0277674 -0.0213067 0.01 0.0263144 -0.0230771 0.01 0.0247487 -0.0247487 0.01 0.0375
0 0.01 0.0374197 -0.00245262 0.01 0.0371792 -0.00489473 0.01 0.0367794 -0.00731589
0.01 0.0362222 -0.00970571 0.01 0.0355099 -0.012054 0.01 0.0346455 -0.0143506 0.01
0.0336327 -0.0165858 0.01 0.032476 -0.01875 0.01 0.0311801 -0.0208339 0.01 0.0297507
-0.0228286 0.01 0.028194 -0.0247255 0.01 0.0265165 -0.0265165 0.01 0.04 0
0.01 0.0399144 -0.00261613 0.01 0.0396578 -0.00522105 0.01 0.0392314 -0.00780361 0.01
0.038637 -0.0103528 0.01 0.0378772 -0.0128576 0.01 0.0369552 -0.0153073 0.01 0.0358749
-0.0176915 0.01 0.034641 -0.02 0.01 0.0332588 -0.0222228 0.01 0.0317341 -0.0243505
0.01 0.0300736 -0.0263738 0.01 0.0282843 -0.0282843 0.01 0.0425 0 0.01
0.042409 -0.00277963 0.01 0.0421364 -0.00554736 0.01 0.0416834 -0.00829134 0.01 0.0410518
-0.0109998 0.01 0.0402445 -0.0136612 0.01 0.0392649 -0.016264 0.01 0.0381171 -0.0187973
0.01 0.0368061 -0.02125 0.01 0.0353375 -0.0236117 0.01 0.0337175 -0.0258724 0.01
0.0319532 -0.0280222 0.01 0.030052 -0.030052 0.01 0.045 0 0.01 0.0449037
-0.00294314 0.01 0.044615 -0.00587368 0.01 0.0441353 -0.00877906 0.01 0.0434667 -0.0116469
0.01 0.0426119 -0.0144648 0.01 0.0415746 -0.0172208 0.01 0.0403593 -0.019903 0.01
0.0389711 -0.0225 0.01 0.0374161 -0.0250007 0.01 0.0357009 -0.0273943 0.01 0.0338328
-0.0296706 0.01 0.0318198 -0.0318198 0.01 0.0475 0 0.01 0.0473983 -0.00310665
0.01 0.0470936 -0.00619999 0.01 0.0465873 -0.00926679 0.01 0.0458815 -0.0122939 0.01
0.0449792 -0.0152684 0.01 0.0438843 -0.0181775 0.01 0.0426015 -0.0210087 0.01 0.0411362
-0.02375 0.01 0.0394948 -0.0263896 0.01 0.0376843 -0.0289162 0.01 0.0357124 -0.0313189
0.01 0.0335876 -0.0335876 0.01 0.05 0 0.01 0.0498929 -0.00327016 0.01
0.0495722 -0.00652631 0.01 0.0490393 -0.00975452 0.01 0.0482963 -0.012941 0.01 0.0473465
-0.016072 0.01 0.046194 -0.0191342 0.01 0.0448436 -0.0221144 0.01 0.0433013 -0.025
0.01 0.0415735 -0.0277785 0.01 0.0396677 -0.0304381 0.01 0.037592 -0.0329673 0.01
0.0353553 -0.0353553 0.01 0.0131869 -0.0150368 0 0.0121752 -0.0158671 0 0.0111114
-0.0166294 0 0.01 -0.0173205 0 0.00884577 -0.0179375 0 0.00765367 -0.0184776
0 0.00642879 -0.0189386 0 0.00517638 -0.0193185 0 0.00390181 -0.0196157 0
0.00261052 -0.0198289 0 0.00130806 -0.0199572 0 3.58979e-11 -0.02 0 0.0148353
-0.0169164 0 0.0136971 -0.0178504 0 0.0125003 -0.0187081 0 0.01125 -0.0194856
0 0.0099515 -0.0201796 0 0.00861038 -0.0207873 0 0.00723239 -0.0213059 0
0.00582343 -0.0217333 0 0.00438953 -0.0220677 0 0.00293684 -0.0223075 0 0.00147157
-0.0224518 0 4.03852e-11 -0.0225 0 0.0164836 -0.018796 0 0.015219 -0.0198338
0 0.0138893 -0.0207867 0 0.0125 -0.0216506 0 0.0110572 -0.0224218 0
0.00956709 -0.023097 0 0.00803599 -0.0236733 0 0.00647048 -0.0241481 0 0.00487726
-0.0245196 0 0.00326315 -0.0247861 0 0.00163508 -0.0249465 0 4.48724e-11 -0.025
0 0.018132 -0.0206756 0 0.0167409 -0.0218172 0 0.0152782 -0.0228654 0
0.01375 -0.0238157 0 0.0121629 -0.024664 0 0.0105238 -0.0254067 0 0.00883958
-0.0260406 0 0.00711752 -0.026563 0 0.00536498 -0.0269716 0 0.00358947 -0.0272647
0 0.00179859 -0.0274411 0 4.93597e-11 -0.0275 0 0.0197804 -0.0225552 0
0.0182628 -0.0238006 0 0.0166671 -0.0249441 0 0.015 -0.0259808 0 0.0132687
-0.0269062 0 0.0114805 -0.0277164 0 0.00964318 -0.0284079 0 0.00776457 -0.0289778
0 0.00585271 -0.0294236 0 0.00391579 -0.0297433 0 0.00196209 -0.0299358 0
5.38469e-11 -0.03 0 0.0214287 -0.0244348 0 0.0197847 -0.025784 0 0.018056
-0.0270228 0 0.01625 -0.0281458 0 0.0143744 -0.0291484 0 0.0124372 -0.0300261
0 0.0104468 -0.0307752 0 0.00841162 -0.0313926 0 0.00634044 -0.0318755 0
0.0042421 -0.032222 0 0.0021256 -0.0324304 0 5.83341e-11 -0.0325 0 0.0230771
-0.0263144 0 0.0213067 -0.0277674 0 0.019445 -0.0291014 0 0.0175 -0.0303109
0 0.0154801 -0.0313905 0 0.0133939 -0.0323358 0 0.0112504 -0.0331426 0
0.00905867 -0.0338074 0 0.00682816 -0.0343275 0 0.00456842 -0.0347006 0 0.00228911
-0.0349251 0 6.28214e-11 -0.035 0 0.0247255 -0.028194 0 0.0228286 -0.0297507
[...]
CELL_DATA 3072
FIELD attributes 5
cellID 1 3072 int
0 1 2 3 4 5 6 7 8 9 10
11 12 13 14 15 16 17 18 19 20
21 22 23 24 25 26 27 28 29 30
31 32 33 34 35 36 37 38 39 40
41 42 43 44 45 46 47 48 49 50
51 52 53 54 55 56 57 58 59 60
61 62 63 64 65 66 67 68 69 70
71 72 73 74 75 76 77 78 79 80
81 82 83 84 85 86 87 88 89 90
91 92 93 94 95 96 97 98 99 100
101 102 103 104 105 106 107 108 109 110
111 112 113 114 115 116 117 118 119 120
121 122 123 124 125 126 127 128 129 130
131 132 133 134 135 136 137 138 139 140
141 142 143 144 145 146 147 148 149 150
151 152 153 154 155 156 157 158 159 160
161 162 163 164 165 166 167 168 169 170
171 172 173 174 175 176 177 178 179 180
181 182 183 184 185 186 187 188 189 190
191 192 193 194 195 196 197 198 199 200
201 202 203 204 205 206 207 208 209 210
211 212 213 214 215 216 217 218 219 220
221 222 223 224 225 226 227 228 229 230
231 232 233 234 235 236 237 238 239 240
241 242 243 244 245 246 247 248 249 250
251 252 253 254 255 256 257 258 259 260
261 262 263 264 265 266 267 268 269 270
271 272 273 274 275 276 277 278 279 280
281 282 283 284 285 286 287 288 289 290
291 292 293 294 295 296 297 298 299 300
301 302 303 304 305 306 307 308 309 310
311 312 313 314 315 316 317 318 319 320
321 322 323 324 325 326 327 328 329 330
331 332 333 334 335 336 337 338 339 340
341 342 343 344 345 346 347 348 349 350
351 352 353 354 355 356 357 358 359 360
361 362 363 364 365 366 367 368 369 370
371 372 373 374 375 376 377 378 379 380
381 382 383 384 385 386 387 388 389 390
391 392 393 394 395 396 397 398 399 400
401 402 403 404 405 406 407 408 409 410
411 412 413 414 415 416 417 418 419 420
421 422 423 424 425 426 427 428 429 430
431 432 433 434 435 436 437 438 439 440
441 442 443 444 445 446 447 448 449 450
451 452 453 454 455 456 457 458 459 460
461 462 463 464 465 466 467 468 469 470
471 472 473 474 475 476 477 478 479 480
481 482 483 484 485 486 487 488 489 490
491 492 493 494 495 496 497 498 499 500
501 502 503 504 505 506 507 508 509 510
511 512 513 514 515 516 517 518 519 520
521 522 523 524 525 526 527 528 529 530
531 532 533 534 535 536 537 538 539 540
541 542 543 544 545 546 547 548 549 550
551 552 553 554 555 556 557 558 559 560
561 562 563 564 565 566 567 568 569 570
571 572 573 574 575 576 577 578 579 580
581 582 583 584 585 586 587 588 589 590
591 592 593 594 595 596 597 598 599 600
601 602 603 604 605 606 607 608 609 610
611 612 613 614 615 616 617 618 619 620
621 622 623 624 625 626 627 628 629 630
631 632 633 634 635 636 637 638 639 640
641 642 643 644 645 646 647 648 649 650
651 652 653 654 655 656 657 658 659 660
661 662 663 664 665 666 667 668 669 670
671 672 673 674 675 676 677 678 679 680
681 682 683 684 685 686 687 688 689 690
691 692 693 694 695 696 697 698 699 700
701 702 703 704 705 706 707 708 709 710
711 712 713 714 715 716 717 718 719 720
721 722 723 724 725 726 727 728 729 730
731 732 733 734 735 736 737 738 739 740
741 742 743 744 745 746 747 748 749 750
751 752 753 754 755 756 757 758 759 760
761 762 763 764 765 766 767 768 769 770
771 772 773 774 775 776 777 778 779 780
781 782 783 784 785 786 787 788 789 790
791 792 793 794 795 796 797 798 799 800
801 802 803 804 805 806 807 808 809 810
811 812 813 814 815 816 817 818 819 820
821 822 823 824 825 826 827 828 829 830
831 832 833 834 835 836 837 838 839 840
841 842 843 844 845 846 847 848 849 850
851 852 853 854 855 856 857 858 859 860
861 862 863 864 865 866 867 868 869 870
871 872 873 874 875 876 877 878 879 880
881 882 883 884 885 886 887 888 889 890
891 892 893 894 895 896 897 898 899 900
901 902 903 904 905 906 907 908 909 910
911 912 913 914 915 916 917 918 919 920
921 922 923 924 925 926 927 928 929 930
931 932 933 934 935 936 937 938 939 940
941 942 943 944 945 946 947 948 949 950
951 952 953 954 955 956 957 958 959 960
961 962 963 964 965 966 967 968 969 970
971 972 973 974 975 976 977 978 979 980
981 982 983 984 985 986 987 988 989 990
991 992 993 994 995 996 997 998 999 1000
1001 1002 1003 1004 1005 1006 1007 1008 1009 1010
1011 1012 1013 1014 1015 1016 1017 1018 1019 1020
1021 1022 1023 1024 1025 1026 1027 1028 1029 1030
1031 1032 1033 1034 1035 1036 1037 1038 1039 1040
1041 1042 1043 1044 1045 1046 1047 1048 1049 1050
1051 1052 1053 1054 1055 1056 1057 1058 1059 1060
1061 1062 1063 1064 1065 1066 1067 1068 1069 1070
1071 1072 1073 1074 1075 1076 1077 1078 1079 1080
1081 1082 1083 1084 1085 1086 1087 1088 1089 1090
1091 1092 1093 1094 1095 1096 1097 1098 1099 1100
1101 1102 1103 1104 1105 1106 1107 1108 1109 1110
1111 1112 1113 1114 1115 1116 1117 1118 1119 1120
1121 1122 1123 1124 1125 1126 1127 1128 1129 1130
1131 1132 1133 1134 1135 1136 1137 1138 1139 1140
1141 1142 1143 1144 1145 1146 1147 1148 1149 1150
1151 1152 1153 1154 1155 1156 1157 1158 1159 1160
1161 1162 1163 1164 1165 1166 1167 1168 1169 1170
1171 1172 1173 1174 1175 1176 1177 1178 1179 1180
1181 1182 1183 1184 1185 1186 1187 1188 1189 1190
1191 1192 1193 1194 1195 1196 1197 1198 1199 1200
1201 1202 1203 1204 1205 1206 1207 1208 1209 1210
1211 1212 1213 1214 1215 1216 1217 1218 1219 1220
1221 1222 1223 1224 1225 1226 1227 1228 1229 1230
1231 1232 1233 1234 1235 1236 1237 1238 1239 1240
1241 1242 1243 1244 1245 1246 1247 1248 1249 1250
1251 1252 1253 1254 1255 1256 1257 1258 1259 1260
1261 1262 1263 1264 1265 1266 1267 1268 1269 1270
1271 1272 1273 1274 1275 1276 1277 1278 1279 1280
1281 1282 1283 1284 1285 1286 1287 1288 1289 1290
1291 1292 1293 1294 1295 1296 1297 1298 1299 1300
1301 1302 1303 1304 1305 1306 1307 1308 1309 1310
1311 1312 1313 1314 1315 1316 1317 1318 1319 1320
1321 1322 1323 1324 1325 1326 1327 1328 1329 1330
1331 1332 1333 1334 1335 1336 1337 1338 1339 1340
1341 1342 1343 1344 1345 1346 1347 1348 1349 1350
1351 1352 1353 1354 1355 1356 1357 1358 1359 1360
1361 1362 1363 1364 1365 1366 1367 1368 1369 1370
1371 1372 1373 1374 1375 1376 1377 1378 1379 1380
1381 1382 1383 1384 1385 1386 1387 1388 1389 1390
1391 1392 1393 1394 1395 1396 1397 1398 1399 1400
1401 1402 1403 1404 1405 1406 1407 1408 1409 1410
1411 1412 1413 1414 1415 1416 1417 1418 1419 1420
1421 1422 1423 1424 1425 1426 1427 1428 1429 1430
1431 1432 1433 1434 1435 1436 1437 1438 1439 1440
1441 1442 1443 1444 1445 1446 1447 1448 1449 1450
1451 1452 1453 1454 1455 1456 1457 1458 1459 1460
1461 1462 1463 1464 1465 1466 1467 1468 1469 1470
1471 1472 1473 1474 1475 1476 1477 1478 1479 1480
1481 1482 1483 1484 1485 1486 1487 1488 1489 1490
1491 1492 1493 1494 1495 1496 1497 1498 1499 1500
1501 1502 1503 1504 1505 1506 1507 1508 1509 1510
1511 1512 1513 1514 1515 1516 1517 1518 1519 1520
1521 1522 1523 1524 1525 1526 1527 1528 1529 1530
1531 1532 1533 1534 1535 1536 1537 1538 1539 1540
1541 1542 1543 1544 1545 1546 1547 1548 1549 1550
1551 1552 1553 1554 1555 1556 1557 1558 1559 1560
1561 1562 1563 1564 1565 1566 1567 1568 1569 1570
1571 1572 1573 1574 1575 1576 1577 1578 1579 1580
1581 1582 1583 1584 1585 1586 1587 1588 1589 1590
1591 1592 1593 1594 1595 1596 1597 1598 1599 1600
1601 1602 1603 1604 1605 1606 1607 1608 1609 1610
1611 1612 1613 1614 1615 1616 1617 1618 1619 1620
1621 1622 1623 1624 1625 1626 1627 1628 1629 1630
1631 1632 1633 1634 1635 1636 1637 1638 1639 1640
1641 1642 1643 1644 1645 1646 1647 1648 1649 1650
1651 1652 1653 1654 1655 1656 1657 1658 1659 1660
1661 1662 1663 1664 1665 1666 1667 1668 1669 1670
1671 1672 1673 1674 1675 1676 1677 1678 1679 1680
1681 1682 1683 1684 1685 1686 1687 1688 1689 1690
1691 1692 1693 1694 1695 1696 1697 1698 1699 1700
1701 1702 1703 1704 1705 1706 1707 1708 1709 1710
1711 1712 1713 1714 1715 1716 1717 1718 1719 1720
1721 1722 1723 1724 1725 1726 1727 1728 1729 1730
1731 1732 1733 1734 1735 1736 1737 1738 1739 1740
1741 1742 1743 1744 1745 1746 1747 1748 1749 1750
1751 1752 1753 1754 1755 1756 1757 1758 1759 1760
1761 1762 1763 1764 1765 1766 1767 1768 1769 1770
1771 1772 1773 1774 1775 1776 1777 1778 1779 1780
1781 1782 1783 1784 1785 1786 1787 1788 1789 1790
1791 1792 1793 1794 1795 1796 1797 1798 1799 1800
1801 1802 1803 1804 1805 1806 1807 1808 1809 1810
1811 1812 1813 1814 1815 1816 1817 1818 1819 1820
1821 1822 1823 1824 1825 1826 1827 1828 1829 1830
1831 1832 1833 1834 1835 1836 1837 1838 1839 1840
1841 1842 1843 1844 1845 1846 1847 1848 1849 1850
1851 1852 1853 1854 1855 1856 1857 1858 1859 1860
1861 1862 1863 1864 1865 1866 1867 1868 1869 1870
1871 1872 1873 1874 1875 1876 1877 1878 1879 1880
1881 1882 1883 1884 1885 1886 1887 1888 1889 1890
1891 1892 1893 1894 1895 1896 1897 1898 1899 1900
1901 1902 1903 1904 1905 1906 1907 1908 1909 1910
1911 1912 1913 1914 1915 1916 1917 1918 1919 1920
1921 1922 1923 1924 1925 1926 1927 1928 1929 1930
1931 1932 1933 1934 1935 1936 1937 1938 1939 1940
1941 1942 1943 1944 1945 1946 1947 1948 1949 1950
1951 1952 1953 1954 1955 1956 1957 1958 1959 1960
1961 1962 1963 1964 1965 1966 1967 1968 1969 1970
1971 1972 1973 1974 1975 1976 1977 1978 1979 1980
1981 1982 1983 1984 1985 1986 1987 1988 1989 1990
1991 1992 1993 1994 1995 1996 1997 1998 1999 2000
2001 2002 2003 2004 2005 2006 2007 2008 2009 2010
2011 2012 2013 2014 2015 2016 2017 2018 2019 2020
2021 2022 2023 2024 2025 2026 2027 2028 2029 2030
2031 2032 2033 2034 2035 2036 2037 2038 2039 2040
2041 2042 2043 2044 2045 2046 2047 2048 2049 2050
2051 2052 2053 2054 2055 2056 2057 2058 2059 2060
2061 2062 2063 2064 2065 2066 2067 2068 2069 2070
2071 2072 2073 2074 2075 2076 2077 2078 2079 2080
2081 2082 2083 2084 2085 2086 2087 2088 2089 2090
2091 2092 2093 2094 2095 2096 2097 2098 2099 2100
2101 2102 2103 2104 2105 2106 2107 2108 2109 2110
2111 2112 2113 2114 2115 2116 2117 2118 2119 2120
2121 2122 2123 2124 2125 2126 2127 2128 2129 2130
2131 2132 2133 2134 2135 2136 2137 2138 2139 2140
2141 2142 2143 2144 2145 2146 2147 2148 2149 2150
2151 2152 2153 2154 2155 2156 2157 2158 2159 2160
2161 2162 2163 2164 2165 2166 2167 2168 2169 2170
2171 2172 2173 2174 2175 2176 2177 2178 2179 2180
2181 2182 2183 2184 2185 2186 2187 2188 2189 2190
2191 2192 2193 2194 2195 2196 2197 2198 2199 2200
2201 2202 2203 2204 2205 2206 2207 2208 2209 2210
2211 2212 2213 2214 2215 2216 2217 2218 2219 2220
2221 2222 2223 2224 2225 2226 2227 2228 2229 2230
2231 2232 2233 2234 2235 2236 2237 2238 2239 2240
2241 2242 2243 2244 2245 2246 2247 2248 2249 2250
2251 2252 2253 2254 2255 2256 2257 2258 2259 2260
2261 2262 2263 2264 2265 2266 2267 2268 2269 2270
2271 2272 2273 2274 2275 2276 2277 2278 2279 2280
2281 2282 2283 2284 2285 2286 2287 2288 2289 2290
2291 2292 2293 2294 2295 2296 2297 2298 2299 2300
2301 2302 2303 2304 2305 2306 2307 2308 2309 2310
2311 2312 2313 2314 2315 2316 2317 2318 2319 2320
2321 2322 2323 2324 2325 2326 2327 2328 2329 2330
2331 2332 2333 2334 2335 2336 2337 2338 2339 2340
2341 2342 2343 2344 2345 2346 2347 2348 2349 2350
2351 2352 2353 2354 2355 2356 2357 2358 2359 2360
2361 2362 2363 2364 2365 2366 2367 2368 2369 2370
2371 2372 2373 2374 2375 2376 2377 2378 2379 2380
2381 2382 2383 2384 2385 2386 2387 2388 2389 2390
2391 2392 2393 2394 2395 2396 2397 2398 2399 2400
2401 2402 2403 2404 2405 2406 2407 2408 2409 2410
2411 2412 2413 2414 2415 2416 2417 2418 2419 2420
2421 2422 2423 2424 2425 2426 2427 2428 2429 2430
2431 2432 2433 2434 2435 2436 2437 2438 2439 2440
2441 2442 2443 2444 2445 2446 2447 2448 2449 2450
2451 2452 2453 2454 2455 2456 2457 2458 2459 2460
2461 2462 2463 2464 2465 2466 2467 2468 2469 2470
2471 2472 2473 2474 2475 2476 2477 2478 2479 2480
2481 2482 2483 2484 2485 2486 2487 2488 2489 2490
2491 2492 2493 2494 2495 2496 2497 2498 2499 2500
2501 2502 2503 2504 2505 2506 2507 2508 2509 2510
2511 2512 2513 2514 2515 2516 2517 2518 2519 2520
2521 2522 2523 2524 2525 2526 2527 2528 2529 2530
2531 2532 2533 2534 2535 2536 2537 2538 2539 2540
2541 2542 2543 2544 2545 2546 2547 2548 2549 2550
2551 2552 2553 2554 2555 2556 2557 2558 2559 2560
2561 2562 2563 2564 2565 2566 2567 2568 2569 2570
2571 2572 2573 2574 2575 2576 2577 2578 2579 2580
2581 2582 2583 2584 2585 2586 2587 2588 2589 2590
2591 2592 2593 2594 2595 2596 2597 2598 2599 2600
2601 2602 2603 2604 2605 2606 2607 2608 2609 2610
2611 2612 2613 2614 2615 2616 2617 2618 2619 2620
2621 2622 2623 2624 2625 2626 2627 2628 2629 2630
2631 2632 2633 2634 2635 2636 2637 2638 2639 2640
2641 2642 2643 2644 2645 2646 2647 2648 2649 2650
2651 2652 2653 2654 2655 2656 2657 2658 2659 2660
2661 2662 2663 2664 2665 2666 2667 2668 2669 2670
2671 2672 2673 2674 2675 2676 2677 2678 2679 2680
2681 2682 2683 2684 2685 2686 2687 2688 2689 2690
2691 2692 2693 2694 2695 2696 2697 2698 2699 2700
2701 2702 2703 2704 2705 2706 2707 2708 2709 2710
2711 2712 2713 2714 2715 2716 2717 2718 2719 2720
2721 2722 2723 2724 2725 2726 2727 2728 2729 2730
2731 2732 2733 2734 2735 2736 2737 2738 2739 2740
2741 2742 2743 2744 2745 2746 2747 2748 2749 2750
2751 2752 2753 2754 2755 2756 2757 2758 2759 2760
2761 2762 2763 2764 2765 2766 2767 2768 2769 2770
2771 2772 2773 2774 2775 2776 2777 2778 2779 2780
2781 2782 2783 2784 2785 2786 2787 2788 2789 2790
2791 2792 2793 2794 2795 2796 2797 2798 2799 2800
2801 2802 2803 2804 2805 2806 2807 2808 2809 2810
2811 2812 2813 2814 2815 2816 2817 2818 2819 2820
2821 2822 2823 2824 2825 2826 2827 2828 2829 2830
2831 2832 2833 2834 2835 2836 2837 2838 2839 2840
2841 2842 2843 2844 2845 2846 2847 2848 2849 2850
2851 2852 2853 2854 2855 2856 2857 2858 2859 2860
2861 2862 2863 2864 2865 2866 2867 2868 2869 2870
2871 2872 2873 2874 2875 2876 2877 2878 2879 2880
2881 2882 2883 2884 2885 2886 2887 2888 2889 2890
2891 2892 2893 2894 2895 2896 2897 2898 2899 2900
2901 2902 2903 2904 2905 2906 2907 2908 2909 2910
2911 2912 2913 2914 2915 2916 2917 2918 2919 2920
2921 2922 2923 2924 2925 2926 2927 2928 2929 2930
2931 2932 2933 2934 2935 2936 2937 2938 2939 2940
2941 2942 2943 2944 2945 2946 2947 2948 2949 2950
2951 2952 2953 2954 2955 2956 2957 2958 2959 2960
2961 2962 2963 2964 2965 2966 2967 2968 2969 2970
2971 2972 2973 2974 2975 2976 2977 2978 2979 2980
2981 2982 2983 2984 2985 2986 2987 2988 2989 2990
2991 2992 2993 2994 2995 2996 2997 2998 2999 3000
3001 3002 3003 3004 3005 3006 3007 3008 3009 3010
3011 3012 3013 3014 3015 3016 3017 3018 3019 3020
3021 3022 3023 3024 3025 3026 3027 3028 3029 3030
3031 3032 3033 3034 3035 3036 3037 3038 3039 3040
3041 3042 3043 3044 3045 3046 3047 3048 3049 3050
3051 3052 3053 3054 3055 3056 3057 3058 3059 3060
3061 3062 3063 3064 3065 3066 3067 3068 3069 3070
3071 
p 1 3072 float
0 0.00493664 -0.0944271 -0.301174 -0.59592 -0.912684 -1.28017 -1.68116 -2.09244 -2.47767 -2.7775
-2.90846 1.50425 1.42489 1.27723 1.0775 0.864056 0.635432 0.439367 0.281224 0.168017
0.107512 0.0989135 0.0853237 3.04205 2.89287 2.69515 2.50356 2.37879 2.33043 2.36109
2.45438 2.59461 2.77523 2.99444 3.3175 4.81674 4.63245 4.45617 4.3684 4.40531
4.57723 4.84873 5.16379 5.47568 5.74179 5.94459 9.03355 6.72817 6.5611 6.47617
6.54755 6.81166 7.25019 7.77169 8.26202 8.65824 8.90499 8.97259 10.1792 8.70299
8.6018 8.63492 8.91027 9.42403 10.1405 10.9102 11.5592 12.1115 12.5029 12.8431
13.6482 10.7015 10.7145 10.8812 11.367 12.0988 13.0374 13.9714 14.6092 15.1928
15.4873 15.5581 15.9324 12.6917 12.8951 13.2027 13.8995 14.7842 15.872 17.0002
17.3363 17.9448 18.0231 17.5279 16.88 14.6202 15.1568 15.617 16.534 17.4924
18.5715 19.7384 19.5775 20.5287 20.854 21.2551 21.0625 16.358 17.4893 18.1157
19.2806 20.2394 21.2238 21.8343 22.8689 26.133 26.0266 25.5774 24.5558 17.4829
19.7971 20.5999 22.0723 23.0244 23.9087 24.3222 25.5331 32.5048 30.015 29.1223
27.8069 16.9577 21.9831 22.9489 24.7287 25.7217 26.5527 27.1391 27.3 31.8535
32.3096 32.0372 30.8054 -2.79644 -2.27376 -1.29334 -0.19126 0.989853 2.7302 4.28063
5.70782 6.70005 6.94868 6.67099 6.28897 -0.190369 0.0256328 0.934633 2.44821 3.33285
5.14457 5.3124 6.42477 8.04193 8.18629 7.67155 7.35737 5.62757 7.79937 7.84935
8.16924 9.73962 11.6398 14.6841 16.1857 12.0233 10.7493 8.78788 9.59801 11.8745
11.7704 12.0763 12.694 12.347 12.1426 12.6787 13.5435 19.4202 20.3614 11.7215
13.2253 14.7857 15.0637 15.0222 12.3747 13.7313 14.1124 14.6786 14.8967 12.9414
11.8809 14.9439 11.5757 13.4337 13.5765 13.8878 13.9168 14.5107 14.9791 15.518
15.7375 16.1238 16.3367 13.4947 16.161 17.1321 17.8551 16.4764 15.2952 15.3559
15.8321 16.5359 16.9661 17.4362 18.3693 19.3215 21.7911 15.0102 13.0498 13.6615
15.1167 15.7432 16.8425 18.096 19.197 23.8703 23.749 25.5256 24.0678 19.7875
18.8061 18.5836 17.8163 16.536 18.1123 20.033 21.8705 25.1893 28.9732 30.7693
30.0388 23.3579 22.4992 21.9858 23.0669 17.9652 19.664 21.9861 24.4695 27.8674
31.0888 36.5054 36.8084 26.6514 25.586 24.653 23.8136 19.442 21.5225 23.7518
26.4163 30.3589 34.285 39.4 42.1476 29.7023 28.4267 26.5743 22.7418 21.1088
22.705 24.8868 27.6255 31.3676 35.3531 41.8738 47.2545 2.89948 2.87762 2.75495
2.52758 2.25718 1.94418 1.5936 1.22815 0.879879 0.601259 0.460379 0.498877 4.46016
4.36706 4.22825 4.05759 3.86287 3.68235 3.5353 3.4259 3.36049 3.37856 3.57858
4.04228 6.01839 5.87962 5.72805 5.61605 5.57246 5.61078 5.72634 5.88996 6.05096
6.1603 6.01317 5.09095 7.79069 7.64918 7.56457 7.5806 7.72512 7.99862 8.3684
8.77506 9.15295 9.51352 9.97266 10.4031 9.68386 9.58799 9.6135 9.80246 10.1585
10.6574 11.2265 11.7673 12.1871 12.4647 12.6666 12.7248 11.6508 11.6369 11.7988
12.1762 12.7349 13.4221 14.1214 14.7015 15.0563 15.1604 15.0827 14.8795 13.6752
13.7772 14.0797 14.6438 15.3753 16.2019 16.9678 17.5249 17.7684 17.6911 17.3791
16.9528 15.7467 16.0128 16.4494 17.1881 18.045 18.9522 19.725 20.2178 20.3352
20.0935 19.5953 18.9906 17.8442 18.3677 18.9295 19.8181 20.7294 21.6432 22.3609
22.7586 22.7525 22.3776 21.7428 21.0101 19.8936 20.8626 21.5508 22.5452 23.4116
24.239 24.8354 25.1132 24.9971 24.5309 23.8129 23.0032 21.5682 23.4374 24.2933
25.336 26.0459 26.6876 27.1011 27.2411 27.0352 26.524 25.7783 24.9414 22.0939
25.9026 26.9981 28.0211 28.5069 28.9073 29.1101 29.1105 28.8398 28.3275 27.6033
26.7833 0.684815 0.984551 1.39838 2.02184 3.19654 4.70917 6.24515 7.49827 8.22073
8.39255 8.15371 7.7853 4.69969 4.92907 5.00744 5.36596 6.03948 7.33366 8.75839
9.71479 10.0359 9.84791 9.32024 8.76417 5.46672 6.43563 7.65052 9.14171 10.966
12.5114 12.0756 12.0375 11.854 11.3318 10.5075 9.6566 10.537 10.3582 10.2143
10.3656 11.0634 12.3136 13.1829 13.6203 13.5921 13.0479 12.057 10.9203 12.6477
12.5318 12.5226 12.7424 13.2995 14.0638 14.8085 15.3547 15.5475 15.1662 14.1847
12.8436 14.6307 14.4417 14.4205 14.6344 15.1303 15.8253 16.6472 17.3841 17.9136
17.8579 17.1136 15.6933 16.5373 16.2464 16.1747 16.3762 16.8879 17.6484 18.6741
19.7189 20.738 21.1838 20.9621 19.6125 18.4286 18.0363 17.9062 18.09 18.6416
19.51 20.8067 22.2473 23.9133 25.0532 25.674 24.6289 20.333 19.8484 19.6497
19.7944 20.3596 21.3149 22.875 24.7338 27.1572 29.1726 30.9671 30.6187 22.2443
21.6786 21.3932 21.465 21.9818 22.957 24.6838 26.8739 30.0224 32.9907 36.2827
37.0593 24.1318 23.4949 23.1026 23.0649 23.4558 24.3582 26.0729 28.3738 31.949
35.6353 40.6645 42.6228 25.9498 25.2507 24.7401 24.5619 24.7527 25.472 26.9458
29.0463 32.4602 36.0849 42.3536 45.1872 3.11065 3.08913 2.96505 2.73516 2.46107
2.14462 1.79092 1.42332 1.07507 0.800595 0.66686 0.704207 4.67223 4.57795 4.43688
4.26351 4.06691 3.88493 3.7373 3.62819 3.56554 3.59631 3.82546 4.32759 6.23563
6.09465 5.9408 5.82701 5.78286 5.82159 5.93764 6.09969 6.2547 6.34222 6.09754
5.27138 8.01377 7.8697 7.7837 7.79971 7.94601 8.22226 8.59455 9.00226 9.38198
9.75852 10.252 10.7284 9.91279 9.81477 9.8401 10.031 10.3906 10.8929 11.4633
12.0021 12.4183 12.6994 12.9136 12.9622 11.8849 11.8688 12.0319 12.4124 12.9754
13.6648 14.3617 14.934 15.2774 15.3723 15.291 15.0802 13.9141 14.0127 14.317
14.8839 15.6194 16.446 17.2056 17.7497 17.9763 17.8836 17.5611 17.1283 15.9902
16.25 16.6877 17.4268 18.2871 19.1924 19.9564 20.4336 20.532 20.2733 19.7626
19.1523 18.092 18.6054 19.1657 20.0494 20.9643 21.8757 22.5848 22.9678 22.944
22.5538 21.9063 21.1689 20.1475 21.1047 21.7833 22.7634 23.6357 24.4623 25.0538
25.3216 25.1922 24.7148 23.9841 23.1693 21.8466 23.6985 24.525 25.5399 26.2603
26.904 27.3189 27.4568 27.2448 26.728 25.9691 25.1238 22.3019 26.182 27.241