/*--------------------------------*- C++ -*----------------------------------*\
| =========                 |                                                 |
| \\      /  F ield         | OpenFOAM: The Open Source CFD Toolbox           |
|  \\    /   O peration     | Version:  v1606+                                |
|   \\  /    A nd           | Web:      www.OpenFOAM.com                      |
|    \\/     M anipulation  |                                                 |
\*---------------------------------------------------------------------------*/
FoamFile
{
    version     2.0;
    format      ascii;
    class       volScalarField;
    location    "0.02";
    object      k.air;
}
// * * * * * * * * * * * * * * * * * * * * * * * * * * * * * * * * * * * * * //

dimensions      [0 2 -2 0 0 0 0];

internalField   nonuniform List<scalar> 
6000
(
0.899975
0.953368
0.96445
0.970541
0.97401
0.975537
0.976151
0.976319
0.976071
0.975839
0.975558
0.97536
0.975165
0.97503
0.975
0.975051
0.975071
0.975249
0.975324
0.975625
0.976097
0.976154
0.976225
0.976168
0.975535
0.974063
0.970557
0.964444
0.953361
0.899972
0.594141
0.851855
0.920968
0.949392
0.964378
0.972803
0.977302
0.979494
0.980148
0.980135
0.979955
0.979615
0.979388
0.979224
0.979126
0.979072
0.979225
0.979398
0.979662
0.979912
0.980198
0.980202
0.979427
0.977325
0.972778
0.964334
0.949383
0.920966
0.851852
0.594141
0.447354
0.746797
0.849859
0.8967
0.921956
0.936309
0.944098
0.9481
0.949964
0.950699
0.950901
0.950842
0.950733
0.950616
0.95056
0.950534
0.9506
0.950711
0.950828
0.950872
0.950697
0.949971
0.94809
0.944103
0.936287
0.921921
0.896685
0.849847
0.746785
0.447351
0.376266
0.679339
0.799535
0.857749
0.889487
0.907712
0.918167
0.924029
0.927163
0.928718
0.929409
0.929654
0.929706
0.929685
0.929662
0.929653
0.929671
0.929688
0.929638
0.929392
0.928709
0.92716
0.924028
0.918167
0.907704
0.889476
0.857742
0.799528
0.679328
0.376263
0.34104
0.637309
0.764453
0.829618
0.866235
0.887662
0.900291
0.907625
0.911741
0.913933
0.91502
0.915508
0.915699
0.915757
0.915767
0.915764
0.915749
0.915689
0.915498
0.91501
0.913925
0.911737
0.907624
0.90029
0.887659
0.866232
0.829615
0.764449
0.637301
0.341036
0.323746
0.612154
0.740706
0.809246
0.84887
0.872548
0.886782
0.895223
0.900078
0.902747
0.904133
0.904802
0.905098
0.905213
0.905249
0.905247
0.905209
0.905092
0.904796
0.904127
0.902742
0.900074
0.895221
0.886782
0.872547
0.84887
0.809245
0.740705
0.612152
0.323745
0.315444
0.597982
0.725677
0.795325
0.836398
0.861355
0.876589
0.885756
0.891112
0.894111
0.895704
0.896499
0.896867
0.897023
0.897076
0.897075
0.89702
0.896864
0.896495
0.8957
0.894106
0.891108
0.885753
0.876588
0.861355
0.836398
0.795326
0.725676
0.597982
0.315447
0.311426
0.590299
0.716642
0.78628
0.827815
0.853332
0.869071
0.878639
0.884287
0.887486
0.889208
0.890082
0.890497
0.890677
0.890742
0.890741
0.890675
0.890495
0.89008
0.889205
0.887482
0.884283
0.878635
0.869069
0.853332
0.827815
0.786281
0.716641
0.590298
0.31143
0.30937
0.586139
0.711321
0.780541
0.822037
0.847682
0.863598
0.873335
0.87912
0.882419
0.88421
0.885126
0.885566
0.88576
0.885831
0.885831
0.88576
0.885566
0.885125
0.884207
0.882416
0.879115
0.87333
0.863595
0.84768
0.822037
0.780541
0.711321
0.586138
0.309372
0.308164
0.58383
0.708153
0.77689
0.818152
0.84371
0.859618
0.869381
0.875201
0.878534
0.880351
0.881285
0.881736
0.881937
0.88201
0.88201
0.881936
0.881736
0.881284
0.880347
0.87853
0.875195
0.869373
0.859612
0.843707
0.818152
0.776891
0.708155
0.583831
0.308164
0.307337
0.582454
0.706187
0.774513
0.815506
0.840899
0.856711
0.866424
0.872222
0.875549
0.877365
0.878303
0.878759
0.878962
0.879035
0.879033
0.878959
0.878755
0.8783
0.877362
0.875545
0.872216
0.866415
0.856702
0.840893
0.815505
0.774516
0.706191
0.582457
0.307338
0.306682
0.581535
0.70488
0.772905
0.813668
0.838888
0.854578
0.86421
0.869961
0.873259
0.875061
0.875995
0.876449
0.87665
0.876724
0.87672
0.876645
0.876442
0.875989
0.875057
0.873254
0.869952
0.864201
0.85457
0.838881
0.813665
0.772907
0.704886
0.581542
0.306684
0.306103
0.580836
0.70393
0.771752
0.812351
0.83743
0.853008
0.862561
0.868256
0.871519
0.873301
0.874226
0.874676
0.874875
0.87495
0.874947
0.874871
0.874668
0.87422
0.873296
0.871512
0.868245
0.862549
0.853001
0.837424
0.812348
0.771755
0.703937
0.580846
0.306108
0.305554
0.580236
0.703162
0.770859
0.811358
0.836346
0.851841
0.861328
0.866977
0.87021
0.871974
0.872889
0.873335
0.873534
0.873609
0.873607
0.87353
0.873329
0.872884
0.87197
0.870203
0.866966
0.861317
0.851834
0.836342
0.811358
0.770864
0.703171
0.580247
0.30556
0.305018
0.57967
0.702471
0.770092
0.810544
0.835489
0.850938
0.860382
0.865999
0.869208
0.870957
0.871865
0.872308
0.872507
0.872582
0.87258
0.872505
0.872304
0.871864
0.870956
0.869202
0.865987
0.86037
0.85093
0.835488
0.810547
0.770098
0.702482
0.579682
0.305025
0.304493
0.579113
0.701803
0.769362
0.8098
0.834743
0.850179
0.859602
0.865199
0.868394
0.870132
0.871034
0.871475
0.871672
0.871749
0.871746
0.871673
0.871473
0.871035
0.870134
0.868389
0.865186
0.859588
0.850168
0.834739
0.8098
0.769367
0.701812
0.579124
0.3045
0.303982
0.578562
0.701141
0.768633
0.809049
0.834009
0.849463
0.858888
0.86448
0.867664
0.869396
0.870295
0.870732
0.870931
0.87101
0.871007
0.870937
0.870734
0.8703
0.869396
0.867657
0.864461
0.858867
0.849446
0.834
0.809042
0.76863
0.701146
0.578571
0.30399
0.30348
0.578023
0.700491
0.767906
0.80827
0.833218
0.848706
0.858157
0.863758
0.866949
0.868681
0.869573
0.87001
0.870207
0.870288
0.870289
0.870218
0.870017
0.869578
0.868676
0.866935
0.863737
0.858138
0.848706
0.833209
0.808257
0.767895
0.70049
0.578029
0.303487
0.302973
0.577506
0.699873
0.76721
0.807504
0.832391
0.847848
0.857337
0.862999
0.8662
0.867941
0.868837
0.869265
0.869457
0.869538
0.869536
0.869474
0.869266
0.868834
0.867925
0.866186
0.862975
0.857366
0.847877
0.832384
0.807484
0.767191
0.699865
0.577507
0.30298
0.302464
0.577014
0.699301
0.766574
0.806805
0.831624
0.84701
0.856447
0.862099
0.865418
0.867177
0.868068
0.86849
0.868663
0.868739
0.868733
0.868658
0.868466
0.868036
0.867137
0.865405
0.862194
0.856555
0.84705
0.831612
0.806776
0.766546
0.699285
0.577011
0.30247
0.30196
0.576545
0.698773
0.766006
0.806198
0.830977
0.846312
0.855682
0.86128
0.864603
0.86641
0.867286
0.867687
0.867887
0.867889
0.867962
0.867809
0.867691
0.867186
0.866359
0.864624
0.861453
0.855791
0.846339
0.830952
0.80616
0.76597
0.698751
0.576537
0.301964
0.301452
0.576086
0.698274
0.765492
0.805675
0.830444
0.845767
0.855111
0.860663
0.863885
0.865682
0.86654
0.866957
0.867159
0.867199
0.867238
0.867125
0.866959
0.866497
0.865666
0.863929
0.860816
0.855168
0.845765
0.830407
0.80563
0.765454
0.69825
0.576074
0.301454
0.300935
0.575622
0.697783
0.765004
0.8052
0.82999
0.845328
0.854676
0.860212
0.863382
0.865127
0.866011
0.866442
0.866641
0.866711
0.86672
0.866635
0.866444
0.866009
0.865141
0.863422
0.86028
0.854691
0.845307
0.829951
0.80516
0.764973
0.69776
0.575608
0.300935
0.300408
0.575145
0.697281
0.764507
0.804732
0.829566
0.844946
0.854317
0.859863
0.863023
0.864747
0.865644
0.866082
0.866281
0.866355
0.866356
0.866279
0.866084
0.865654
0.864772
0.863049
0.85988
0.854306
0.844918
0.829536
0.80471
0.764494
0.697266
0.575131
0.300405
0.299877
0.574655
0.696756
0.763975
0.80422
0.829107
0.844552
0.853969
0.859539
0.862706
0.864431
0.865329
0.865771
0.865975
0.866053
0.866051
0.86598
0.865785
0.865357
0.86447
0.862737
0.859553
0.853957
0.844535
0.829104
0.804233
0.763986
0.696753
0.574642
0.29987
0.299349
0.57416
0.69621
0.763395
0.803627
0.828544
0.844071
0.853559
0.859169
0.862358
0.864094
0.864996
0.865444
0.865649
0.865729
0.865729
0.865672
0.865469
0.865042
0.864153
0.862404
0.859195
0.853559
0.844083
0.828598
0.803691
0.763435
0.696219
0.574148
0.299336
0.298832
0.573673
0.695657
0.762787
0.802972
0.827855
0.843406
0.853013
0.85868
0.861905
0.863666
0.864579
0.865034
0.865248
0.865305
0.865328
0.865244
0.865075
0.864622
0.863735
0.861939
0.858667
0.85301
0.843479
0.827971
0.803072
0.762846
0.695674
0.57366
0.298811
0.298322
0.573201
0.695116
0.762185
0.802308
0.82711
0.84259
0.852221
0.858013
0.861277
0.863028
0.863972
0.864437
0.864633
0.864706
0.864719
0.864642
0.864459
0.864002
0.86303
0.861228
0.857835
0.852214
0.842689
0.827238
0.80241
0.762246
0.695134
0.573188
0.298299
0.297807
0.572742
0.694598
0.761617
0.801685
0.826411
0.841795
0.851317
0.857139
0.860331
0.862069
0.863042
0.863523
0.863714
0.863924
0.863842
0.863858
0.863533
0.863149
0.862055
0.860268
0.856905
0.851288
0.841866
0.826513
0.801767
0.761666
0.694612
0.572732
0.297793
0.297287
0.572294
0.694108
0.761095
0.801129
0.825808
0.841119
0.850532
0.856209
0.859395
0.861125
0.862065
0.862547
0.862788
0.862972
0.862905
0.862879
0.862573
0.862158
0.861138
0.859353
0.856097
0.850512
0.841164
0.825878
0.801184
0.761127
0.694116
0.572287
0.29728
0.296765
0.571851
0.693639
0.760614
0.800635
0.825299
0.840577
0.849929
0.855513
0.858701
0.860433
0.861348
0.861815
0.862049
0.862167
0.862142
0.862062
0.861823
0.861379
0.860441
0.858679
0.855484
0.84993
0.840607
0.825342
0.800666
0.760628
0.693641
0.571847
0.29676
0.296237
0.571406
0.693181
0.760162
0.800194
0.824864
0.840139
0.849471
0.855029
0.858213
0.859948
0.860854
0.861309
0.861525
0.86161
0.861598
0.86151
0.861298
0.860852
0.859941
0.858196
0.855017
0.849472
0.84015
0.824878
0.800199
0.760162
0.69318
0.571405
0.296235
0.295701
0.570951
0.692721
0.759722
0.799781
0.824478
0.83976
0.849094
0.854645
0.857829
0.85957
0.860475
0.86092
0.861127
0.8612
0.86119
0.861103
0.860895
0.860451
0.85955
0.857814
0.854642
0.849089
0.83975
0.824463
0.799766
0.759712
0.69272
0.570955
0.295703
0.29516
0.570485
0.692252
0.759275
0.799369
0.824102
0.839404
0.848749
0.854301
0.857486
0.859233
0.860137
0.860577
0.860775
0.860843
0.860833
0.860752
0.860545
0.8601
0.859204
0.857471
0.854303
0.848741
0.839385
0.824071
0.799342
0.75926
0.692251
0.570494
0.295165
0.294615
0.570013
0.691769
0.758808
0.798936
0.8237
0.839037
0.848402
0.853958
0.857147
0.858902
0.859806
0.86024
0.860433
0.860496
0.860489
0.860407
0.860202
0.859756
0.858859
0.857132
0.853957
0.848394
0.839021
0.823671
0.798905
0.75879
0.69177
0.570025
0.294624
0.294074
0.56954
0.691272
0.758307
0.798459
0.823259
0.838631
0.848014
0.853594
0.856783
0.858526
0.859431
0.859881
0.860069
0.860132
0.860126
0.860043
0.859839
0.859388
0.858486
0.856747
0.85357
0.84801
0.838622
0.823235
0.798431
0.758294
0.691278
0.569555
0.294085
0.293541
0.569073
0.690765
0.757765
0.797911
0.822758
0.838174
0.847576
0.853165
0.856351
0.858095
0.859005
0.85945
0.85965
0.859725
0.859709
0.859622
0.859409
0.858964
0.858058
0.856327
0.853138
0.847572
0.83816
0.822723
0.797896
0.757768
0.690778
0.569091
0.293554
0.293022
0.56862
0.690258
0.757204
0.797301
0.822151
0.837633
0.847053
0.852667
0.855842
0.857596
0.858504
0.858951
0.859147
0.859242
0.859206
0.859137
0.858913
0.858479
0.857572
0.855833
0.852634
0.847051
0.837557
0.822091
0.797297
0.757222
0.690278
0.568638
0.293027
0.29251
0.568184
0.689768
0.756657
0.796688
0.821473
0.836957
0.846408
0.851918
0.855213
0.856992
0.8579
0.858355
0.858522
0.858536
0.858587
0.858521
0.858316
0.857904
0.85698
0.85526
0.852009
0.846286
0.836794
0.821403
0.796693
0.756685
0.689792
0.568199
0.292507
0.291999
0.567763
0.689304
0.756149
0.796124
0.820822
0.83619
0.845577
0.851088
0.854348
0.856144
0.857096
0.857516
0.85777
0.857728
0.857831
0.857707
0.857644
0.857092
0.856295
0.854422
0.851237
0.845491
0.836071
0.820777
0.796138
0.756181
0.689329
0.567777
0.291999
0.291492
0.567351
0.688863
0.755682
0.795621
0.820259
0.835536
0.844856
0.850394
0.853599
0.855365
0.856298
0.856745
0.856984
0.857024
0.857055
0.856967
0.856821
0.856334
0.855459
0.853663
0.850469
0.844847
0.835497
0.820253
0.795645
0.755713
0.688886
0.567363
0.291495
0.290985
0.56694
0.688436
0.755245
0.795171
0.81979
0.83504
0.844351
0.849893
0.853071
0.854816
0.85573
0.856184
0.856401
0.856479
0.856478
0.856403
0.856206
0.855752
0.854846
0.853096
0.849908
0.844354
0.835037
0.819804
0.795199
0.755272
0.688454
0.56695
0.290988
0.290475
0.566523
0.688013
0.754829
0.794755
0.819373
0.834626
0.843945
0.849487
0.852664
0.854406
0.855314
0.855763
0.855972
0.856054
0.856051
0.855972
0.855765
0.855315
0.854409
0.85267
0.849492
0.843952
0.834639
0.819396
0.794781
0.754846
0.688026
0.566531
0.290479
0.289963
0.566099
0.687585
0.754415
0.794356
0.818979
0.834238
0.843566
0.849124
0.852297
0.854038
0.854943
0.855388
0.855596
0.85568
0.855674
0.855596
0.855387
0.854941
0.854033
0.852297
0.849126
0.843587
0.834265
0.819009
0.794376
0.754423
0.687593
0.566105
0.289967
0.28945
0.565669
0.687148
0.753992
0.793954
0.818592
0.833856
0.843191
0.848748
0.851931
0.853668
0.854573
0.855017
0.855225
0.855312
0.855305
0.855226
0.855017
0.854572
0.853665
0.851932
0.848761
0.843223
0.833892
0.818624
0.793969
0.753994
0.687152
0.565674
0.289454
0.28894
0.565238
0.686703
0.753552
0.793533
0.81819
0.833467
0.842803
0.848362
0.851546
0.853284
0.854188
0.854634
0.854835
0.854919
0.854921
0.854842
0.854631
0.854191
0.853285
0.851546
0.848379
0.842838
0.833502
0.818217
0.793539
0.753545
0.686703
0.565243
0.288944
0.288436
0.564811
0.686253
0.753092
0.793088
0.81776
0.833051
0.842394
0.847946
0.851121
0.852862
0.853768
0.854212
0.854415
0.854491
0.854497
0.854418
0.854219
0.853768
0.852866
0.85113
0.847956
0.842411
0.833076
0.817776
0.79307
0.753072
0.686249
0.564816
0.288441
0.287941
0.564393
0.685803
0.752615
0.792604
0.817281
0.832586
0.841938
0.847494
0.850674
0.852412
0.853317
0.853755
0.853965
0.854044
0.854048
0.853966
0.853768
0.853316
0.85242
0.850686
0.847513
0.841961
0.832612
0.817271
0.792546
0.752577
0.685794
0.5644
0.287949
0.287453
0.563987
0.68536
0.75213
0.792073
0.816728
0.832002
0.841419
0.84699
0.850188
0.851919
0.852822
0.853266
0.853483
0.853552
0.853564
0.853477
0.853281
0.852827
0.851924
0.850188
0.847019
0.841442
0.832073
0.816677
0.791996
0.752083
0.685349
0.563998
0.287467
0.286974
0.563594
0.684929
0.751655
0.79154
0.816135
0.831366
0.84077
0.84642
0.849589
0.851362
0.85227
0.852701
0.852875
0.852989
0.852969
0.852911
0.852675
0.852266
0.851341
0.849606
0.846401
0.840852
0.831394
0.816077
0.791474
0.751616
0.684923
0.563608
0.28699
0.286504
0.563211
0.684514
0.751206
0.79105
0.815601
0.830802
0.840129
0.845709
0.848887
0.850653
0.851551
0.85205
0.852188
0.852319
0.852267
0.852226
0.851971
0.85156
0.850645
0.848892
0.845703
0.840154
0.830785
0.815549
0.791002
0.751179
0.684514
0.563226
0.286518
0.286039
0.562832
0.684111
0.750782
0.790608
0.815143
0.830329
0.839609
0.845138
0.848304
0.850049
0.850957
0.851423
0.851608
0.851701
0.851683
0.851612
0.851391
0.850955
0.850049
0.848304
0.845131
0.839595
0.830295
0.815101
0.790575
0.750766
0.684116
0.562847
0.28605
0.285576
0.562452
0.683714
0.750372
0.790193
0.814728
0.829917
0.839193
0.84471
0.84787
0.849603
0.850507
0.850953
0.851157
0.851234
0.851233
0.851154
0.850948
0.850505
0.849605
0.847869
0.844703
0.839175
0.829889
0.8147
0.790174
0.750367
0.683721
0.562464
0.285584
0.285115
0.562068
0.683315
0.749968
0.789788
0.81433
0.829527
0.83881
0.84433
0.847491
0.849219
0.850119
0.850564
0.850767
0.850844
0.850844
0.850766
0.850562
0.850119
0.84922
0.847487
0.844325
0.838802
0.829514
0.814317
0.789785
0.749974
0.683324
0.562076
0.28512
0.284656
0.561681
0.682912
0.749561
0.789388
0.813936
0.82914
0.838433
0.84396
0.847122
0.848846
0.849744
0.850186
0.850393
0.850465
0.850467
0.850389
0.850187
0.849743
0.848842
0.847112
0.843954
0.838432
0.829142
0.81394
0.789398
0.749578
0.682922
0.561686
0.284658
0.284201
0.561295
0.682505
0.749148
0.788983
0.81354
0.828752
0.83805
0.843578
0.846744
0.848462
0.849355
0.849798
0.850005
0.850078
0.85008
0.850001
0.849801
0.849356
0.848453
0.846725
0.843573
0.838057
0.828762
0.813557
0.789002
0.749174
0.682516
0.561295
0.2842
0.283753
0.560912
0.682098
0.748725
0.788561
0.81313
0.828352
0.837655
0.843184
0.846334
0.848057
0.848955
0.849394
0.849601
0.849677
0.849679
0.849598
0.849399
0.84895
0.848046
0.846323
0.843167
0.837648
0.828362
0.813152
0.788593
0.748756
0.682107
0.560908
0.283749
0.283313
0.560537
0.681692
0.748291
0.788107
0.812688
0.827925
0.837238
0.842753
0.845902
0.847627
0.848524
0.848969
0.849168
0.849254
0.849245
0.84917
0.848963
0.848522
0.847621
0.845894
0.842736
0.837219
0.82794
0.812731
0.788166
0.748321
0.681696
0.560528
0.283306
0.282883
0.56017
0.68129
0.747851
0.787626
0.812185
0.827464
0.836786
0.842302
0.845461
0.847182
0.848077
0.848519
0.848721
0.848796
0.848794
0.848721
0.848515
0.848073
0.847177
0.845444
0.842293
0.836778
0.827491
0.812274
0.787693
0.747874
0.681289
0.560158
0.282874
0.282462
0.559813
0.6809
0.747424
0.787155
0.811669
0.82693
0.836268
0.841819
0.844979
0.846702
0.84759
0.848038
0.848228
0.848311
0.848306
0.848238
0.848033
0.84759
0.846698
0.844966
0.841822
0.836303
0.826994
0.811757
0.787202
0.747434
0.680893
0.559799
0.282453
0.282048
0.559462
0.680522
0.747021
0.786722
0.811192
0.82638
0.835689
0.841253
0.84442
0.846141
0.847033
0.847443
0.847686
0.84772
0.847758
0.84766
0.847478
0.847044
0.846138
0.844458
0.841269
0.835715
0.826422
0.811232
0.786739
0.74702
0.680513
0.559451
0.282041
0.281639
0.559114
0.680151
0.746635
0.786322
0.810766
0.82591
0.835181
0.840707
0.843871
0.845585
0.846474
0.846904
0.847117
0.847184
0.847196
0.847111
0.846918
0.846485
0.8456
0.843918
0.840716
0.835179
0.825913
0.81077
0.78632
0.746628
0.680143
0.559106
0.281634
0.281232
0.558763
0.679783
0.746259
0.785941
0.81038
0.825513
0.834763
0.840266
0.843413
0.845128
0.846021
0.84646
0.84666
0.84674
0.846737
0.846659
0.846459
0.846025
0.845142
0.843429
0.840259
0.834749
0.825501
0.810372
0.785934
0.746252
0.679779
0.55876
0.281229
0.280828
0.558411
0.679415
0.745887
0.785569
0.81001
0.825142
0.834387
0.839884
0.843027
0.844741
0.845634
0.846074
0.846274
0.846353
0.846351
0.846274
0.846072
0.845635
0.844744
0.843022
0.839872
0.834373
0.825129
0.810001
0.785562
0.745881
0.679413
0.558411
0.280827
0.280429
0.558059
0.679046
0.745516
0.785198
0.809642
0.824777
0.834019
0.839511
0.842652
0.844368
0.84526
0.845701
0.845901
0.845979
0.845978
0.845899
0.845698
0.845257
0.844363
0.842642
0.839498
0.834005
0.824763
0.809633
0.785193
0.745513
0.679047
0.55806
0.28043
0.280039
0.557708
0.678675
0.745142
0.784826
0.809271
0.824406
0.833647
0.839134
0.842274
0.84399
0.844881
0.845321
0.845523
0.845599
0.845599
0.845522
0.845318
0.844875
0.843979
0.84226
0.839121
0.833634
0.824392
0.809261
0.784822
0.745145
0.678679
0.557711
0.28004
0.279658
0.557361
0.678303
0.744759
0.784447
0.808893
0.824025
0.833267
0.838747
0.841886
0.843607
0.844493
0.84493
0.845136
0.845207
0.845212
0.845135
0.84493
0.844486
0.84359
0.841871
0.838735
0.833254
0.824013
0.808884
0.784446
0.74477
0.678311
0.557365
0.279658
0.279285
0.557019
0.677932
0.744368
0.78406
0.808503
0.823631
0.832869
0.838357
0.841487
0.8432
0.844094
0.844526
0.844728
0.844805
0.844804
0.844729
0.844528
0.844091
0.843195
0.841477
0.838343
0.832866
0.823629
0.808501
0.78406
0.744381
0.67794
0.557023
0.279286
0.278913
0.556682
0.677565
0.743977
0.783662
0.808109
0.823237
0.832463
0.837949
0.841083
0.842793
0.84368
0.844116
0.844312
0.844391
0.844393
0.844317
0.844119
0.843684
0.842792
0.84108
0.83795
0.832462
0.823234
0.80811
0.78367
0.74399
0.677573
0.556685
0.278912
0.278552
0.556354
0.677207
0.74359
0.783249
0.807711
0.822832
0.832061
0.837542
0.840674
0.842383
0.843268
0.843702
0.843902
0.843979
0.843979
0.843907
0.843707
0.843271
0.842384
0.840675
0.83754
0.832061
0.822835
0.807716
0.78327
0.743603
0.677213
0.556356
0.278551
0.278204
0.556035
0.676857
0.743211
0.782837
0.807282
0.822417
0.831637
0.837122
0.840251
0.841958
0.842844
0.843277
0.843474
0.843553
0.843556
0.843481
0.843283
0.842851
0.841956
0.840254
0.837125
0.831651
0.822423
0.807291
0.782852
0.743221
0.676862
0.556037
0.278205
0.277868
0.555723
0.676517
0.742844
0.782438
0.806839
0.821948
0.831196
0.836659
0.839787
0.841504
0.842392
0.842832
0.843031
0.843107
0.843112
0.843034
0.842836
0.842379
0.841497
0.839794
0.836701
0.831224
0.82197
0.806835
0.782437
0.742847
0.67652
0.555726
0.277868
0.277539
0.555416
0.676182
0.742484
0.78205
0.806418
0.821508
0.830728
0.836205
0.839332
0.841045
0.841933
0.842369
0.842566
0.842646
0.842644
0.84257
0.842368
0.841922
0.841035
0.839338
0.836232
0.830748
0.821507
0.806398
0.782041
0.742485
0.676185
0.555419
0.27754
0.277218
0.555111
0.67585
0.74213
0.781672
0.80602
0.821099
0.830309
0.835783
0.838913
0.840622
0.841507
0.841942
0.842142
0.842218
0.842218
0.842142
0.841939
0.841495
0.840602
0.838906
0.835795
0.830316
0.821085
0.806
0.781665
0.74213
0.675853
0.555115
0.277219
0.276903
0.554808
0.675519
0.741778
0.781303
0.805641
0.820708
0.829924
0.835397
0.838528
0.840235
0.841119
0.841552
0.841752
0.841827
0.841827
0.84175
0.841544
0.841096
0.840203
0.838496
0.835397
0.829928
0.820708
0.805633
0.781301
0.74178
0.675522
0.554811
0.276905
0.276596
0.554505
0.675188
0.74143
0.780945
0.805273
0.82032
0.829531
0.835021
0.838152
0.839854
0.840736
0.841169
0.841368
0.84144
0.841441
0.841366
0.841162
0.840714
0.839816
0.838111
0.835002
0.829546
0.820347
0.805279
0.780949
0.741434
0.67519
0.554507
0.276597
0.276295
0.554202
0.674859
0.741086
0.780591
0.804905
0.819952
0.829156
0.834646
0.837774
0.839473
0.840351
0.84078
0.84097
0.841047
0.841053
0.840981
0.840782
0.840338
0.839442
0.837738
0.834623
0.829171
0.81998
0.804922
0.7806
0.74109
0.67486
0.554202
0.276295
0.276
0.553899
0.674529
0.740741
0.780237
0.804543
0.819589
0.828787
0.834265
0.837393
0.839088
0.83996
0.84038
0.840565
0.840651
0.84066
0.840595
0.8404
0.839962
0.839071
0.837366
0.834251
0.828801
0.819616
0.804566
0.78025
0.740745
0.674529
0.553898
0.276
0.275711
0.553597
0.674199
0.740395
0.779883
0.804188
0.81923
0.828418
0.833881
0.837008
0.838702
0.839568
0.839984
0.840174
0.840255
0.840268
0.840207
0.840016
0.839583
0.838697
0.836996
0.833882
0.828433
0.819252
0.804209
0.779898
0.740401
0.674198
0.553595
0.275711
0.275428
0.553294
0.673867
0.740049
0.779529
0.803831
0.81887
0.828052
0.833506
0.836624
0.838314
0.839177
0.839599
0.839793
0.83987
0.839878
0.839816
0.839628
0.8392
0.83832
0.836623
0.833512
0.828063
0.818886
0.80385
0.779544
0.740055
0.673866
0.553292
0.275428
0.275152
0.552991
0.673535
0.739703
0.779175
0.803473
0.818512
0.827685
0.833131
0.83624
0.837926
0.838793
0.839218
0.839413
0.839488
0.839493
0.839427
0.839241
0.838816
0.83794
0.836248
0.833146
0.827696
0.81852
0.803487
0.779188
0.739708
0.673533
0.552989
0.275151
0.27488
0.552688
0.673201
0.739357
0.778818
0.803112
0.818146
0.827322
0.832755
0.835857
0.837543
0.838414
0.838841
0.839036
0.839111
0.839113
0.839044
0.838856
0.838433
0.837561
0.835873
0.832769
0.827335
0.818156
0.803126
0.778829
0.739357
0.673199
0.552686
0.274879
0.274613
0.552384
0.672865
0.739007
0.778461
0.802747
0.817775
0.826944
0.832378
0.835476
0.837163
0.838035
0.838465
0.838662
0.838735
0.838735
0.838664
0.838474
0.838053
0.837187
0.835498
0.832393
0.826958
0.817798
0.802769
0.778468
0.739002
0.672863
0.552383
0.274613
0.27435
0.552078
0.672527
0.738649
0.778101
0.802385
0.817409
0.826573
0.832004
0.835099
0.836786
0.837662
0.838095
0.838297
0.838364
0.838362
0.838288
0.838096
0.837675
0.836816
0.835124
0.832019
0.826583
0.817426
0.802401
0.778105
0.738646
0.672527
0.552079
0.274351
0.274091
0.551771
0.672187
0.738291
0.777743
0.802027
0.817049
0.826214
0.831643
0.834731
0.836422
0.837303
0.837736
0.837933
0.838006
0.838003
0.837925
0.83773
0.837307
0.836448
0.834761
0.831643
0.826201
0.817045
0.802035
0.77774
0.738291
0.67219
0.551774
0.274092
0.273835
0.551464
0.671849
0.737939
0.77739
0.801679
0.816705
0.825872
0.831297
0.834383
0.836079
0.836967
0.837405
0.837598
0.837674
0.837667
0.837585
0.837383
0.83696
0.836092
0.834402
0.83128
0.825836
0.816682
0.801672
0.777379
0.737941
0.671856
0.55147
0.273837
0.273582
0.551159
0.671517
0.737595
0.777039
0.801343
0.816381
0.825551
0.830969
0.834065
0.83577
0.836668
0.837107
0.837308
0.837378
0.837369
0.837276
0.837072
0.836649
0.835776
0.834077
0.830954
0.825504
0.816336
0.801317
0.77703
0.737599
0.671525
0.551166
0.273584
0.273332
0.550856
0.671193
0.737266
0.776709
0.801022
0.816078
0.825252
0.83069
0.833803
0.835512
0.836409
0.836855
0.837061
0.837128
0.837115
0.837023
0.836819
0.836391
0.835512
0.833809
0.830685
0.825224
0.816036
0.800997
0.776705
0.737273
0.671202
0.550864
0.273335
0.273094
0.550555
0.670885
0.736966
0.77642
0.800744
0.815817
0.825023
0.830494
0.833625
0.835338
0.836231
0.836674
0.83688
0.836952
0.836943
0.83686
0.836657
0.836222
0.835337
0.833627
0.830495
0.825017
0.815804
0.800736
0.776423
0.736974
0.670894
0.550563
0.273097
0.272872
0.550264
0.670606
0.736712
0.776197
0.800552
0.81566
0.824908
0.830412
0.833564
0.835288
0.836184
0.836626
0.836829
0.836907
0.836904
0.836825
0.836622
0.836181
0.835287
0.833564
0.830414
0.82491
0.815662
0.800556
0.776204
0.73672
0.670614
0.550271
0.272874
0.272662
0.550005
0.670376
0.736529
0.77607
0.800481
0.815643
0.824936
0.830475
0.833652
0.835391
0.836297
0.836743
0.836948
0.837027
0.837027
0.836948
0.836743
0.836295
0.83539
0.833651
0.830477
0.82494
0.815647
0.800488
0.776077
0.736537
0.670383
0.550012
0.272664
0.272473
0.549804
0.670225
0.736452
0.776076
0.800562
0.815792
0.825144
0.830731
0.833942
0.835704
0.836624
0.837078
0.837288
0.837368
0.837368
0.837288
0.837079
0.836623
0.835703
0.833941
0.830733
0.825148
0.815797
0.800568
0.776082
0.736459
0.670231
0.549809
0.272474
0.272316
0.549694
0.670191
0.736518
0.776249
0.800849
0.816181
0.825617
0.831267
0.834522
0.836313
0.83725
0.837715
0.83793
0.838012
0.838012
0.83793
0.837716
0.837251
0.836313
0.834523
0.831269
0.825621
0.816186
0.800855
0.776254
0.736524
0.670196
0.549699
0.272318
0.272213
0.549717
0.670311
0.736784
0.77668
0.801438
0.816904
0.826446
0.832172
0.835479
0.837303
0.838259
0.838735
0.838955
0.83904
0.839041
0.838956
0.838736
0.838261
0.837304
0.83548
0.832174
0.826449
0.816908
0.801442
0.776685
0.736789
0.670316
0.549721
0.272215
0.272184
0.549884
0.67066
0.737364
0.777495
0.802464
0.818105
0.827777
0.833594
0.836957
0.838815
0.839791
0.840276
0.840501
0.840588
0.840588
0.840502
0.840277
0.839792
0.838817
0.836959
0.833596
0.82778
0.818108
0.802468
0.777499
0.737368
0.670664
0.549888
0.272185
0.272227
0.550254
0.671384
0.738474
0.778964
0.804233
0.8201
0.829927
0.83584
0.839258
0.841143
0.842131
0.842621
0.842848
0.842935
0.842935
0.842848
0.842622
0.842132
0.841144
0.839259
0.835842
0.82993
0.820104
0.804237
0.778968
0.738478
0.671388
0.550257
0.272228
0.27235
0.55088
0.672916
0.740746
0.78181
0.807493
0.823631
0.833614
0.839604
0.843054
0.844947
0.845933
0.846418
0.84664
0.846724
0.846724
0.84664
0.846419
0.845934
0.844948
0.843055
0.839606
0.833616
0.823634
0.807496
0.781814
0.74075
0.672919
0.550883
0.272351
0.27274
0.552569
0.67684
0.745983
0.787838
0.813967
0.830315
0.840368
0.846355
0.849773
0.85163
0.852584
0.853045
0.853252
0.853329
0.853329
0.853252
0.853046
0.852584
0.85163
0.849775
0.846357
0.84037
0.830318
0.81397
0.787841
0.745987
0.676843
0.552572
0.272741
0.274963
0.559621
0.687625
0.758115
0.800363
0.826434
0.842544
0.852327
0.858082
0.861323
0.863053
0.863922
0.864329
0.864503
0.864565
0.864565
0.864504
0.86433
0.863923
0.863054
0.861324
0.858084
0.852329
0.842547
0.826437
0.800367
0.758119
0.687629
0.559624
0.274964
0.283755
0.575797
0.702425
0.770906
0.811358
0.836038
0.851168
0.860305
0.865652
0.868642
0.870222
0.871001
0.871355
0.871499
0.871548
0.871548
0.8715
0.871356
0.871002
0.870223
0.868644
0.865654
0.860308
0.851172
0.836042
0.811362
0.770911
0.702429
0.575801
0.283756
0.279285
0.568845
0.694444
0.762662
0.803022
0.827687
0.842832
0.851995
0.857369
0.860383
0.861982
0.862775
0.863139
0.86329
0.863341
0.863341
0.86329
0.86314
0.862776
0.861983
0.860385
0.857371
0.851998
0.842836
0.827692
0.803027
0.762667
0.69445
0.56885
0.279287
0.264758
0.553393
0.678725
0.747428
0.788323
0.813429
0.828906
0.838304
0.843839
0.846962
0.848634
0.849476
0.849871
0.850041
0.850102
0.850102
0.850042
0.849872
0.849476
0.848635
0.846964
0.843841
0.838307
0.828909
0.813434
0.788328
0.747433
0.67873
0.553397
0.26476
0.263298
0.546837
0.66995
0.737947
0.778659
0.803761
0.819289
0.828747
0.834335
0.837501
0.839206
0.840074
0.840488
0.84067
0.840737
0.840737
0.84067
0.840488
0.840074
0.839207
0.837502
0.834336
0.828749
0.819292
0.803765
0.778663
0.737951
0.669954
0.54684
0.263299
0.263081
0.544788
0.667109
0.73443
0.774701
0.799543
0.814926
0.824312
0.829869
0.833028
0.834738
0.835614
0.836037
0.836226
0.836297
0.836297
0.836227
0.836037
0.835614
0.834738
0.833029
0.829871
0.824314
0.814929
0.799546
0.774706
0.734435
0.667114
0.544792
0.263082
0.263373
0.544904
0.666606
0.733434
0.773357
0.797965
0.813202
0.822501
0.828014
0.831153
0.832856
0.833734
0.83416
0.834352
0.834425
0.834425
0.834352
0.83416
0.833734
0.832857
0.831154
0.828015
0.822503
0.813205
0.797968
0.773361
0.733438
0.66661
0.544907
0.263374
0.263678
0.545569
0.666792
0.733306
0.773007
0.797462
0.8126
0.821838
0.827316
0.830438
0.832136
0.833012
0.833439
0.833632
0.833706
0.833706
0.833633
0.833439
0.833012
0.832136
0.830439
0.827317
0.82184
0.812602
0.797466
0.773011
0.73331
0.666797
0.545572
0.26368
0.263881
0.546117
0.667073
0.733396
0.772967
0.797332
0.812408
0.821608
0.827064
0.830174
0.831867
0.832741
0.833169
0.833363
0.833436
0.833436
0.833363
0.833169
0.832741
0.831867
0.830175
0.827065
0.82161
0.812411
0.797335
0.772971
0.7334
0.667076
0.54612
0.263883
0.264008
0.546484
0.667286
0.733501
0.772993
0.797303
0.812341
0.821517
0.826958
0.830061
0.831749
0.832622
0.833049
0.833244
0.833317
0.833317
0.833244
0.833049
0.832623
0.83175
0.830061
0.826959
0.821518
0.812344
0.797306
0.772997
0.733505
0.66729
0.546487
0.264009
0.264085
0.546719
0.667425
0.733572
0.773014
0.797288
0.812302
0.821461
0.826892
0.829989
0.831674
0.832546
0.832973
0.833167
0.833241
0.833241
0.833167
0.832973
0.832546
0.831675
0.829989
0.826893
0.821462
0.812304
0.797291
0.773018
0.733576
0.667429
0.546722
0.264086
0.264131
0.546865
0.667509
0.73361
0.773019
0.797268
0.812264
0.821411
0.826834