/*--------------------------------*- C++ -*----------------------------------*\
| =========                 |                                                 |
| \\      /  F ield         | OpenFOAM: The Open Source CFD Toolbox           |
|  \\    /   O peration     | Version:  v1606+                                |
|   \\  /    A nd           | Web:      www.OpenFOAM.com                      |
|    \\/     M anipulation  |                                                 |
\*---------------------------------------------------------------------------*/
FoamFile
{
    version     2.0;
    format      ascii;
    class       surfaceScalarField;
    location    "0.02";
    object      phi;
}
// * * * * * * * * * * * * * * * * * * * * * * * * * * * * * * * * * * * * * //

dimensions      [0 3 -1 0 0 0 0];

internalField   nonuniform List<scalar> 
11770
(
3.06919e-06
4.36613e-05
5.19119e-06
4.45637e-05
6.04465e-06
4.57861e-05
5.98531e-06
4.66526e-05
5.4129e-06
4.71193e-05
4.74471e-06
4.72043e-05
4.07549e-06
4.72137e-05
3.45923e-06
4.71272e-05
2.87747e-06
4.70937e-05
2.32628e-06
4.70794e-05
1.81165e-06
4.69651e-05
1.34163e-06
4.69841e-05
9.30793e-07
4.69117e-05
3.8678e-07
4.68433e-05
1.19838e-08
4.68702e-05
-4.1826e-07
4.69327e-05
-8.44948e-07
4.68674e-05
-1.2856e-06
4.69443e-05
-1.86154e-06
4.68778e-05
-2.3461e-06
4.70143e-05
-2.89086e-06
4.70633e-05
-3.4976e-06
4.70651e-05
-4.10414e-06
4.71451e-05
-4.75413e-06
4.71811e-05
-5.40454e-06
4.71934e-05
-6.00679e-06
4.715e-05
-6.06387e-06
4.66423e-05
-5.20083e-06
4.57773e-05
-3.07068e-06
4.4557e-05
4.36614e-05
1.96603e-06
4.2999e-05
3.52508e-06
4.43307e-05
4.39067e-06
4.62876e-05
4.64316e-06
4.7808e-05
4.50088e-06
4.86929e-05
4.09384e-06
4.90452e-05
3.59156e-06
4.91474e-05
3.03496e-06
4.91057e-05
2.51657e-06
4.90332e-05
2.06548e-06
4.89546e-05
1.59004e-06
4.88532e-05
1.19633e-06
4.87966e-05
7.98345e-07
4.87229e-05
3.65797e-07
4.86812e-05
-1.99843e-08
4.86662e-05
-3.60367e-07
4.86894e-05
-7.76249e-07
4.86901e-05
-1.14963e-06
4.87335e-05
-1.63224e-06
4.87668e-05
-2.05978e-06
4.88617e-05
-2.51944e-06
4.89471e-05
-3.06041e-06
4.90227e-05
-3.592e-06
4.91025e-05
-4.11294e-06
4.91307e-05
-4.52711e-06
4.90407e-05
-4.64207e-06
4.87016e-05
-4.39223e-06
4.78019e-05
-3.52932e-06
4.62829e-05
-1.96924e-06
4.43246e-05
4.2998e-05
1.32096e-06
4.11896e-05
2.17523e-06
4.30197e-05
2.73325e-06
4.52943e-05
3.02707e-06
4.70862e-05
3.0535e-06
4.82392e-05
2.83653e-06
4.8833e-05
2.50633e-06
4.90465e-05
2.12877e-06
4.90502e-05
1.76506e-06
4.89627e-05
1.43531e-06
4.88494e-05
1.11432e-06
4.87382e-05
8.28223e-07
4.86461e-05
5.4098e-07
4.85727e-05
2.63861e-07
4.85203e-05
-1.01626e-08
4.85022e-05
-2.63052e-07
4.85046e-05
-5.37238e-07
4.85261e-05
-8.13359e-07
4.85716e-05
-1.12226e-06
4.86378e-05
-1.43275e-06
4.87352e-05
-1.76747e-06
4.88461e-05
-2.13625e-06
4.89568e-05
-2.51021e-06
4.90437e-05
-2.85062e-06
4.90405e-05
-3.06722e-06
4.88291e-05
-3.0295e-06
4.8238e-05
-2.73668e-06
4.70826e-05
-2.17832e-06
4.52908e-05
-1.32418e-06
4.30154e-05
4.11871e-05
1.11682e-06
3.95768e-05
1.4681e-06
4.21814e-05
1.67549e-06
4.46032e-05
1.84235e-06
4.64359e-05
1.93276e-06
4.76638e-05
1.90229e-06
4.8376e-05
1.76281e-06
4.86961e-05
1.55461e-06
4.87666e-05
1.31773e-06
4.87065e-05
1.07804e-06
4.8595e-05
8.44991e-07
4.84764e-05
6.23786e-07
4.8372e-05
4.10338e-07
4.82904e-05
2.007e-07
4.8234e-05
-2.06995e-09
4.82088e-05
-2.0317e-07
4.82096e-05
-4.08615e-07
4.82354e-05
-6.21505e-07
4.82884e-05
-8.47086e-07
4.83675e-05
-1.07986e-06
4.84728e-05
-1.32005e-06
4.85921e-05
-1.55878e-06
4.87025e-05
-1.76869e-06
4.87623e-05
-1.90927e-06
4.8692e-05
-1.9395e-06
4.8373e-05
-1.84667e-06
4.76615e-05
-1.6793e-06
4.64332e-05
-1.47109e-06
4.46004e-05
-1.11937e-06
4.21782e-05
3.95733e-05
8.03435e-07
3.82795e-05
9.99345e-07
4.14975e-05
1.08114e-06
4.40357e-05
1.1593e-06
4.58729e-05
1.22804e-06
4.71098e-05
1.2566e-06
4.78611e-05
1.22225e-06
4.82426e-05
1.12821e-06
4.83714e-05
9.92412e-07
4.83518e-05
8.33953e-07
4.82621e-05
6.66448e-07
4.81519e-05
4.97338e-07
4.80487e-05
3.29764e-07
4.79653e-05
1.62804e-07
4.79081e-05
-1.19681e-09
4.78799e-05
-1.64893e-07
4.78803e-05
-3.30393e-07
4.7908e-05
-4.98317e-07
4.79636e-05
-6.68896e-07
4.80457e-05
-8.37063e-07
4.81491e-05
-9.95679e-07
4.82596e-05
-1.1323e-06
4.83491e-05
-1.22718e-06
4.83685e-05
-1.26199e-06
4.82398e-05
-1.23308e-06
4.78588e-05
-1.16308e-06
4.71075e-05
-1.0839e-06
4.58706e-05
-1.00139e-06
4.40337e-05
-8.05094e-07
4.14955e-05
3.8276e-05
4.70688e-07
3.73141e-05
6.10007e-07
4.08678e-05
6.67394e-07
4.349e-05
7.16441e-07
4.53366e-05
7.67072e-07
4.65721e-05
8.05573e-07
4.73351e-05
8.13035e-07
4.77468e-05
7.80777e-07
4.79144e-05
7.12199e-07
4.79303e-05
6.16655e-07
4.78669e-05
5.04315e-07
4.7773e-05
3.82504e-07
4.76789e-05
2.56125e-07
4.75998e-05
1.27508e-07
4.75447e-05
-1.35897e-09
4.75167e-05
-1.29969e-07
4.75169e-05
-2.58351e-07
4.75445e-05
-3.84973e-07
4.75985e-05
-5.07446e-07
4.76767e-05
-6.20387e-07
4.77711e-05
-7.15848e-07
4.78647e-05
-7.84904e-07
4.79286e-05
-8.17541e-07
4.79127e-05
-8.10315e-07
4.77452e-05
-7.7137e-07
4.73334e-05
-7.19959e-07
4.65702e-05
-6.69797e-07
4.53345e-05
-6.11194e-07
4.34882e-05
-4.71341e-07
4.08667e-05
3.73113e-05
2.31192e-07
3.65862e-05
3.11324e-07
4.02947e-05
3.47957e-07
4.29625e-05
3.82027e-07
4.48128e-05
4.23557e-07
4.60413e-05
4.65057e-07
4.68043e-05
4.92588e-07
4.72296e-05
4.95676e-07
4.7421e-05
4.71166e-07
4.74639e-05
4.22061e-07
4.74246e-05
3.54522e-07
4.73487e-05
2.74232e-07
4.72671e-05
1.85927e-07
4.71959e-05
9.31239e-08
4.71452e-05
-1.5875e-09
4.71191e-05
-9.62879e-08
4.71193e-05
-1.89182e-07
4.71452e-05
-2.77689e-07
4.7195e-05
-3.58306e-07
4.72656e-05
-4.26293e-07
4.73477e-05
-4.75025e-07
4.74226e-05
-4.99871e-07
4.74633e-05
-4.9692e-07
4.74203e-05
-4.69345e-07
4.72288e-05
-4.2749e-07
4.68033e-05
-3.85377e-07
4.604e-05
-3.50478e-07
4.4811e-05
-3.12495e-07
4.29605e-05
-2.31326e-07
4.02938e-05
3.65846e-05
6.87918e-08
3.60184e-05
8.58413e-08
3.9782e-05
9.49314e-08
4.24598e-05
1.15954e-07
4.42994e-05
1.52726e-07
4.55129e-05
1.97392e-07
4.62681e-05
2.37929e-07
4.66974e-05
2.63869e-07
4.69031e-05
2.6975e-07
4.69658e-05
2.55098e-07
4.69466e-05
2.22972e-07
4.6888e-05
1.77253e-07
4.68197e-05
1.22346e-07
4.67576e-05
6.15929e-08
4.67127e-05
-1.75505e-09
4.66892e-05
-6.54335e-08
4.66898e-05
-1.26248e-07
4.67129e-05
-1.81492e-07
4.67573e-05
-2.27311e-07
4.68187e-05
-2.59779e-07
4.68878e-05
-2.73955e-07
4.69448e-05
-2.68098e-07
4.69658e-05
-2.42103e-07
4.69032e-05
-2.01367e-07
4.66974e-05
-1.5646e-07
4.62679e-05
-1.19055e-07
4.55119e-05
-9.75431e-08
4.42982e-05
-8.74928e-08
4.2458e-05
-6.9095e-08
3.97809e-05
3.60177e-05
-4.4385e-08
3.55613e-05
-8.52837e-08
3.93246e-05
-1.05268e-07
4.19835e-05
-9.7186e-08
4.37964e-05
-6.40862e-08
4.49856e-05
-1.63602e-08
4.57266e-05
3.36872e-08
4.61537e-05
7.5453e-08
4.63676e-05
1.02799e-07
4.64444e-05
1.13926e-07
4.64413e-05
1.09392e-07
4.63981e-05
9.2177e-08
4.63424e-05
6.60379e-08
4.62891e-05
3.34678e-08
4.62506e-05
-1.83978e-09
4.62299e-05
-3.79351e-08
4.62313e-05
-7.03153e-08
4.62508e-05
-9.71231e-08
4.62897e-05
-1.1443e-07
4.63418e-05
-1.18779e-07
4.63982e-05
-1.07469e-07
4.64398e-05
-7.97119e-08
4.64447e-05
-3.77273e-08
4.63681e-05
1.26343e-08
4.61541e-05
6.06424e-08
4.5727e-05
9.43973e-08
4.4985e-05
1.02977e-07
4.37957e-05
8.34167e-08
4.19823e-05
4.3667e-08
3.93234e-05
3.5561e-05
-1.26486e-07
3.5184e-05
-2.15907e-07
3.8913e-05
-2.62722e-07
4.15313e-05
-2.6741e-07
4.33035e-05
-2.37867e-07
4.44594e-05
-1.87744e-07
4.51804e-05
-1.30826e-07
4.56008e-05
-7.75255e-08
4.58184e-05
-3.40813e-08
4.5905e-05
-3.40802e-09
4.59146e-05
1.32228e-08
4.58853e-05
1.94896e-08
4.58399e-05
1.74369e-08
4.57948e-05
8.81299e-09
4.57629e-05
-2.02745e-09
4.57443e-05
-1.38564e-08
4.57468e-05
-2.19273e-08
4.57626e-05
-2.50083e-08
4.57967e-05
-1.92054e-08
4.584e-05
-1.44322e-09
4.58846e-05
2.91512e-08
4.59136e-05
7.28271e-08
4.59057e-05
1.26526e-07
4.58192e-05
1.84434e-07
4.5601e-05
2.3511e-07
4.51809e-05
2.6502e-07
4.44592e-05
2.61069e-07
4.3303e-05
2.14428e-07
4.15308e-05
1.25647e-07
3.89121e-05
3.51836e-05
-1.87416e-07
3.48651e-05
-3.15459e-07
3.85375e-05
-3.85546e-07
4.10999e-05
-4.02914e-07
4.28208e-05
-3.77364e-07
4.39347e-05
-3.26039e-07
4.46305e-05
-2.64086e-07
4.50406e-05
-2.01837e-07
4.5258e-05
-1.45886e-07
4.53509e-05
-1.00801e-07
4.53713e-05
-6.68601e-08
4.53531e-05
-4.13559e-08
4.53161e-05
-2.37522e-08
4.52789e-05
-1.26571e-08
4.52535e-05
-2.62946e-09
4.5236e-05
6.88288e-09
4.5239e-05
1.87737e-08
4.52525e-05
3.55584e-08
4.52818e-05
6.08273e-08
4.53168e-05
9.54494e-08
4.53521e-05
1.40884e-07
4.53705e-05
1.96564e-07
4.53524e-05
2.59088e-07
4.52591e-05
3.23008e-07
4.50395e-05
3.75473e-07
4.46306e-05
4.01245e-07
4.3935e-05
3.84577e-07
4.28203e-05
3.14719e-07
4.10999e-05
1.86833e-07
3.85372e-05
3.4865e-05
-2.32652e-07
3.4589e-05
-3.90579e-07
3.81894e-05
-4.79887e-07
4.06851e-05
-5.09673e-07
4.23479e-05
-4.89693e-07
4.34132e-05
-4.38555e-07
4.40784e-05
-3.72781e-07
4.44743e-05
-3.03395e-07
4.46882e-05
-2.38593e-07
4.47858e-05
-1.81904e-07
4.48143e-05
-1.33857e-07
4.48047e-05
-9.28389e-08
4.47747e-05
-5.86694e-08
4.47443e-05
-3.06405e-08
4.4725e-05
-3.96009e-09
4.4709e-05
2.39928e-08
4.47107e-05
5.2789e-08
4.47234e-05
8.66981e-08
4.47476e-05
1.27648e-07
4.47756e-05
1.76137e-07
4.48035e-05
2.33297e-07
4.48133e-05
2.98645e-07
4.47871e-05
3.68011e-07
4.46898e-05
4.35248e-07
4.44722e-05
4.88367e-07
4.40771e-05
5.09094e-07
4.34133e-05
4.79614e-07
4.23477e-05
3.90571e-07
4.06855e-05
2.32405e-07
3.819e-05
3.45893e-05
-2.66102e-07
3.4344e-05
-4.46754e-07
3.78615e-05
-5.50971e-07
4.02827e-05
-5.91763e-07
4.18836e-05
-5.79283e-07
4.28967e-05
-5.29992e-07
4.35258e-05
-4.61804e-07
4.39032e-05
-3.89061e-07
4.41128e-05
-3.16795e-07
4.4211e-05
-2.50063e-07
4.42451e-05
-1.89405e-07
4.42415e-05
-1.36507e-07
4.42193e-05
-8.79353e-08
4.41932e-05
-4.49114e-08
4.41795e-05
-5.06033e-09
4.41667e-05
3.77551e-08
4.41653e-05
8.02582e-08
4.41784e-05
1.28352e-07
4.4197e-05
1.82347e-07
4.42192e-05
2.43279e-07
4.42402e-05
3.1132e-07
4.42429e-05
3.84834e-07
4.42112e-05
4.59063e-07
4.41132e-05
5.27359e-07
4.39014e-05
5.7874e-07
4.35228e-05
5.92404e-07
4.28961e-05
5.51534e-07
4.18841e-05
4.47458e-07
4.02836e-05
2.66329e-07
3.78631e-05
3.43452e-05
-2.91414e-07
3.41222e-05
-4.88805e-07
3.75481e-05
-6.03501e-07
3.98885e-05
-6.52808e-07
4.14255e-05
-6.48159e-07
4.23857e-05
-6.03103e-07
4.29751e-05
-5.34771e-07
4.33297e-05
-4.59724e-07
4.35328e-05
-3.80939e-07
4.36273e-05
-3.06451e-07
4.36659e-05
-2.36851e-07
4.36672e-05
-1.72855e-07
4.36506e-05
-1.123e-07
4.36277e-05
-5.63539e-08
4.36186e-05
-2.95973e-09
4.36083e-05
4.85379e-08
4.36091e-05
1.03533e-07
4.36187e-05
1.61428e-07
4.36345e-05
2.2635e-07
4.36497e-05
2.97641e-07
4.36643e-05
3.75075e-07
4.36609e-05
4.55583e-07
4.36261e-05
5.3363e-07
4.35305e-05
6.02774e-07
4.33274e-05
6.49321e-07
4.29711e-05
6.5464e-07
4.23849e-05
6.05021e-07
4.14267e-05
4.90229e-07
3.989e-05
2.9214e-07
3.75509e-05
3.41245e-05
-3.10144e-07
3.39169e-05
-5.19425e-07
3.72443e-05
-6.40316e-07
3.94983e-05
-6.95247e-07
4.09708e-05
-6.97536e-07
4.18794e-05
-6.58541e-07
4.24283e-05
-5.92492e-07
4.27562e-05
-5.13934e-07
4.2947e-05
-4.3462e-07
4.30411e-05
-3.52492e-07
4.30765e-05
-2.76181e-07
4.30837e-05
-2.01986e-07
4.30687e-05
-1.32314e-07
4.30503e-05
-6.66459e-08
4.3045e-05
-8.27633e-10
4.30344e-05
5.83471e-08
4.30428e-05
1.24448e-07
4.30452e-05
1.90614e-07
4.30613e-05
2.62534e-07
4.30711e-05
3.40522e-07
4.30798e-05
4.23776e-07
4.3071e-05
5.09877e-07
4.30333e-05
5.92114e-07
4.29413e-05
6.61626e-07
4.27508e-05
7.00865e-07
4.24244e-05
6.98345e-07
4.18792e-05
6.42826e-07
4.09729e-05
5.21471e-07
3.95006e-05
3.11218e-07
3.72485e-05
3.39207e-05
-3.23361e-07
3.37228e-05
-5.40104e-07
3.6946e-05
-6.64005e-07
3.9109e-05
-7.20238e-07
4.05152e-05
-7.27774e-07
4.13762e-05
-6.96332e-07
4.1887e-05
-6.34957e-07
4.21854e-05
-5.56872e-07
4.23598e-05
-4.76949e-07
4.2452e-05
-3.90089e-07
4.248e-05
-3.05055e-07
4.24887e-05
-2.22781e-07
4.24766e-05
-1.48187e-07
4.24662e-05
-7.35502e-08
4.24609e-05
-2.7265e-09
4.24538e-05
6.62464e-08
4.24642e-05
1.39647e-07
4.24621e-05
2.14476e-07
4.24768e-05
2.92122e-07
4.24842e-05
3.74442e-07
4.24884e-05
4.61191e-07
4.24759e-05
5.49916e-07
4.24359e-05
6.35177e-07
4.23471e-05
7.03504e-07
4.21734e-05
7.33729e-07
4.18846e-05
7.24765e-07
4.13778e-05
6.67458e-07
4.05187e-05
5.42671e-07
3.91125e-05
3.24796e-07
3.69516e-05
3.37284e-05
-3.32029e-07
3.35356e-05
-5.52075e-07
3.6649e-05
-6.7778e-07
3.87195e-05
-7.3211e-07
4.00557e-05
-7.39983e-07
4.08713e-05
-7.16287e-07
4.13513e-05
-6.63829e-07
4.16216e-05
-5.89249e-07
4.17742e-05
-5.06048e-07
4.18571e-05
-4.16773e-07
4.18798e-05
-3.23373e-07
4.18839e-05
-2.38819e-07
4.18809e-05
-1.58323e-07
4.18745e-05
-7.83285e-08
4.18698e-05
-6.20943e-09
4.18709e-05
7.43311e-08
4.18721e-05
1.45996e-07
4.18792e-05
2.28563e-07
4.18827e-05
3.113e-07
4.18898e-05
3.99768e-07
4.18886e-05
4.90836e-07
4.18735e-05
5.80618e-07
4.18357e-05
6.64921e-07
4.1752e-05
7.27394e-07
4.15998e-05
7.47739e-07
4.13526e-05
7.37558e-07
4.08755e-05
6.81782e-07
4.0061e-05
5.54867e-07
3.87245e-05
3.33649e-07
3.66561e-05
3.3543e-05
-3.36213e-07
3.33508e-05
-5.5685e-07
3.63509e-05
-6.84073e-07
3.83298e-05
-7.3752e-07
3.95935e-05
-7.41445e-07
4.03606e-05
-7.16477e-07
4.08124e-05
-6.75942e-07
4.10677e-05
-6.08442e-07
4.11932e-05
-5.25452e-07
4.12609e-05
-4.33658e-07
4.1275e-05
-3.3951e-07
4.12768e-05
-2.50326e-07
4.1279e-05
-1.64234e-07
4.12765e-05
-8.12054e-08
4.12748e-05
-4.23104e-09
4.12819e-05
7.93014e-08
4.1276e-05
1.517e-07
4.1294e-05
2.35509e-07
4.12865e-05
3.20775e-07
4.12914e-05
4.13803e-07
4.12821e-05
5.09924e-07
4.1265e-05
6.03755e-07
4.12285e-05
6.86274e-07
4.11571e-05
7.28924e-07
4.10442e-05
7.48447e-07
4.08194e-05
7.42488e-07
4.03671e-05
6.87744e-07
3.96003e-05
5.5932e-07
3.83362e-05
3.37716e-07
3.63592e-05
3.336e-05
-3.36283e-07
3.31645e-05
-5.56522e-07
3.60508e-05
-6.85033e-07
3.79397e-05
-7.39841e-07
3.9131e-05
-7.42372e-07
3.98469e-05
-7.09005e-07
4.02634e-05
-6.6063e-07
4.05041e-05
-6.03972e-07
4.06218e-05
-5.47054e-07
4.06896e-05
-4.48169e-07
4.06616e-05
-3.49817e-07
4.06643e-05
-2.57129e-07
4.06718e-05
-1.67575e-07
4.0672e-05
-8.00328e-08
4.06726e-05
-2.81597e-09
4.06897e-05
8.42238e-08
4.06749e-05
1.56139e-07
4.07074e-05
2.45338e-07
4.06829e-05
3.24884e-07
4.06978e-05
4.21183e-07
4.06722e-05
5.16573e-07
4.06543e-05
6.16488e-07
4.06148e-05
6.86834e-07
4.05717e-05
7.18145e-07
4.0498e-05
7.46385e-07
4.02758e-05
7.42617e-07
3.98548e-05
6.87254e-07
3.91386e-05
5.58029e-07
3.7947e-05
3.37324e-07
3.60598e-05
3.31749e-05
-3.33677e-07
3.29743e-05
-5.53383e-07
3.57488e-05
-6.82678e-07
3.75489e-05
-7.39414e-07
3.8669e-05
-7.44695e-07
3.93343e-05
-7.10056e-07
3.97116e-05
-6.48025e-07
3.99254e-05
-5.86096e-07
4.00434e-05
-5.38575e-07
4.01259e-05
-4.5216e-07
4.00591e-05
-3.51861e-07
4.00481e-05
-2.57013e-07
4.00604e-05
-1.71322e-07
4.00706e-05
-6.93976e-08
4.00545e-05
-1.45689e-08
4.01188e-05
9.90621e-08
4.00449e-05
1.49514e-07
4.01412e-05
2.64156e-07
4.00523e-05
3.1888e-07
4.01274e-05
4.27691e-07
4.00467e-05
5.15745e-07
4.00512e-05
6.1604e-07
3.99978e-05
6.62445e-07
4.00094e-05
7.1018e-07
3.99338e-05
7.43975e-07
3.9725e-05
7.38779e-07
3.93423e-05
6.82678e-07
3.86761e-05
5.5343e-07
3.75564e-05
3.33986e-07
3.57576e-05
3.29852e-05
-3.30097e-07
3.27793e-05
-5.48885e-07
3.54445e-05
-6.77903e-07
3.71565e-05
-7.36043e-07
3.8207e-05
-7.44927e-07
3.8824e-05
-7.15365e-07
3.91636e-05
-6.55448e-07
3.93474e-05
-5.77253e-07
3.94474e-05
-4.89707e-07
3.95206e-05
-4.35994e-07
3.94878e-05
-3.37465e-07
3.94323e-05
-2.56544e-07
3.94624e-05
-1.81145e-07
3.94772e-05
-8.80602e-08
3.94437e-05
-1.03766e-08
3.9523e-05
8.58138e-08
3.94308e-05
1.69812e-07
3.95392e-05
2.59158e-07
3.94454e-05
3.33641e-07
3.95351e-05
4.41484e-07
3.9422e-05
5.03877e-07
3.9471e-05
5.97897e-07
3.93874e-05
6.45208e-07
3.94446e-05
7.04304e-07
3.93569e-05
7.37838e-07
3.91732e-05
7.31368e-07
3.88298e-05
6.75428e-07
3.82121e-05
5.47219e-07
3.71634e-05
3.29524e-07
3.54524e-05
3.27897e-05
-3.26485e-07
3.25796e-05
-5.43447e-07
3.51373e-05
-6.70453e-07
3.6761e-05
-7.29027e-07
3.77442e-05
-7.40372e-07
3.83149e-05
-7.14604e-07
3.8618e-05
-6.58592e-07
3.87721e-05
-5.79373e-07
3.88493e-05
-4.75226e-07
3.88976e-05
-4.07647e-07
3.89015e-05
-3.3817e-07
3.88443e-05
-2.6503e-07
3.88704e-05
-1.80691e-07
3.88742e-05
-1.11344e-07
3.88549e-05
4.55165e-09
3.88882e-05
6.71221e-08
3.88489e-05
1.91746e-07
3.88955e-05
2.53347e-07
3.88651e-05
3.70789e-07
3.8899e-05
4.41384e-07
3.88333e-05
5.14329e-07
3.88796e-05
5.6699e-07
3.88162e-05
6.385e-07
3.88544e-05
6.96829e-07
3.87796e-05
7.28507e-07
3.8622e-05
7.21366e-07
3.83167e-05
6.65937e-07
3.77463e-05
5.40178e-07
3.67667e-05
3.25015e-07
3.51436e-05
3.25887e-05
-3.23106e-07
3.23757e-05
-5.37099e-07
3.48263e-05
-6.60165e-07
3.63605e-05
-7.17551e-07
3.72792e-05
-7.30375e-07
3.78062e-05
-7.08664e-07
3.80755e-05
-6.56862e-07
3.82e-05
-5.83146e-07
3.82555e-05
-4.91855e-07
3.82864e-05
-4.00818e-07
3.82907e-05
-3.47228e-07
3.82712e-05
-2.6393e-07
3.82677e-05
-1.7364e-07
3.82642e-05
-9.8724e-08
3.826e-05
3.1901e-09
3.82665e-05
7.76637e-08
3.82546e-05
1.86893e-07
3.82664e-05
2.69053e-07
3.82626e-05
3.78463e-07
3.82697e-05
4.37757e-07
3.82546e-05
5.27307e-07
3.82707e-05
5.59414e-07
3.82645e-05
6.32012e-07
3.8262e-05
6.86766e-07
3.82046e-05
7.15779e-07
3.80723e-05
7.08668e-07
3.78024e-05
6.54241e-07
3.72785e-05
5.32599e-07
3.63649e-05
3.20854e-07
3.48304e-05
3.23827e-05
-3.19952e-07
3.2168e-05
-5.2992e-07
3.45104e-05
-6.47628e-07
3.59538e-05
-7.0097e-07
3.68092e-05
-7.12628e-07
3.72954e-05
-6.95689e-07
3.75368e-05
-6.50653e-07
3.76337e-05
-5.80258e-07
3.76642e-05
-4.95103e-07
3.76806e-05
-4.09358e-07
3.76843e-05
-3.36179e-07
3.76776e-05
-2.56935e-07
3.76681e-05
-1.73626e-07
3.76604e-05
-9.02331e-08
3.76559e-05
1.53224e-09
3.76539e-05
8.52917e-08
3.76502e-05
1.84958e-07
3.76459e-05
2.74061e-07
3.76529e-05
3.675e-07
3.76555e-05
4.40174e-07
3.76616e-05
5.15358e-07
3.76751e-05
5.64354e-07
3.76949e-05
6.25931e-07
3.76796e-05
6.73514e-07
3.76359e-05
6.9885e-07
3.75253e-05
6.92948e-07
3.7286e-05
6.40989e-07
3.68073e-05
5.24703e-07
3.59569e-05
3.17138e-07
3.45123e-05
3.21723e-05
-3.1697e-07
3.19568e-05
-5.22219e-07
3.41893e-05
-6.34361e-07
3.5541e-05
-6.81035e-07
3.63319e-05
-6.86174e-07
3.67773e-05
-6.71979e-07
3.7e-05
-6.38871e-07
3.70785e-05
-5.73922e-07
3.70776e-05
-4.87475e-07
3.70726e-05
-4.03334e-07
3.70788e-05
-3.2686e-07
3.70799e-05
-2.49552e-07
3.70696e-05
-1.67621e-07
3.70573e-05
-8.54973e-08
3.70527e-05
4.15487e-09
3.70429e-05
8.90164e-08
3.70442e-05
1.814e-07
3.70319e-05
2.69732e-07
3.70433e-05
3.6014e-07
3.70439e-05
4.32548e-07
3.70681e-05
5.05239e-07
3.70812e-05
5.50911e-07
3.71279e-05
6.10414e-07
3.70985e-05
6.51981e-07
3.70723e-05
6.76801e-07
3.6978e-05
6.74658e-07
3.6765e-05
6.27699e-07
3.63304e-05
5.16866e-07
3.55429e-05
3.13856e-07
3.4189e-05
3.19581e-05
-3.14129e-07
3.17425e-05
-5.14533e-07
3.3863e-05
-6.22411e-07
3.51235e-05
-6.62699e-07
3.58478e-05
-6.55773e-07
3.62466e-05
-6.33752e-07
3.64547e-05
-6.14631e-07
3.65367e-05
-5.6206e-07
3.65028e-05
-4.69824e-07
3.64584e-05
-3.85821e-07
3.6473e-05
-3.14307e-07
3.64868e-05
-2.38936e-07
3.64728e-05
-1.60044e-07
3.6457e-05
-8.20936e-08
3.64538e-05
8.45979e-09
3.64299e-05
8.93691e-08
3.64421e-05
1.75946e-07
3.64233e-05
2.58451e-07
3.64398e-05
3.5148e-07
3.64296e-05
4.17231e-07
3.64808e-05
4.9228e-07
3.64844e-05
5.21346e-07
3.65767e-05
5.82546e-07
3.65149e-05
6.22048e-07
3.65101e-05
6.5132e-07
3.64255e-05
6.56601e-07
3.6236e-05
6.16177e-07
3.58464e-05
5.09621e-07
3.51241e-05
3.10971e-07
3.3861e-05
3.17407e-05
-3.1133e-07
3.15254e-05
-5.07403e-07
3.35323e-05
-6.12994e-07
3.47036e-05
-6.50001e-07
3.53602e-05
-6.33568e-07
3.57061e-05
-5.92947e-07
3.58903e-05
-5.64035e-07
3.59843e-05
-5.39407e-07
3.59554e-05
-4.39951e-07
3.58369e-05
-3.56236e-07
3.58669e-05
-2.98996e-07
3.59076e-05
-2.27727e-07
3.58796e-05
-1.49936e-07
3.58581e-05
-8.92691e-08
3.58707e-05
1.45693e-08
3.58052e-05
8.05709e-08
3.58537e-05
1.78411e-07
3.58046e-05
2.39989e-07
3.5856e-05
3.43945e-07
3.58039e-05
3.8402e-07
3.59186e-05
4.65438e-07
3.58807e-05
4.86353e-07
3.60328e-05
5.44591e-07
3.59338e-05
5.90249e-07
3.59411e-05
6.29702e-07
3.58624e-05
6.43399e-07
3.56983e-05
6.07577e-07
3.53576e-05
5.03417e-07
3.47028e-05
3.08453e-07
3.35292e-05
3.15206e-05
-3.08201e-07
3.13052e-05
-5.00986e-07
3.31983e-05
-6.05954e-07
3.4283e-05
-6.43064e-07
3.48726e-05
-6.26845e-07
3.51658e-05
-5.74361e-07
3.5314e-05
-5.089e-07
3.5395e-05
-4.84708e-07
3.54078e-05
-3.97818e-07
3.52273e-05
-3.33596e-07
3.52805e-05
-2.81823e-07
3.53333e-05
-2.1455e-07
3.529e-05
-1.43419e-07
3.52641e-05
-9.7853e-08
3.53027e-05
2.66166e-08
3.51584e-05
6.35126e-08
3.52949e-05
1.8681e-07
3.51591e-05
2.09918e-07
3.53107e-05
3.15332e-07
3.51762e-05
3.46247e-07
3.53647e-05
4.06589e-07
3.52976e-05
4.70885e-07
3.54446e-05
5.14122e-07
3.53672e-05
5.74291e-07
3.53572e-05
6.22488e-07
3.52904e-05
6.37791e-07
3.51589e-05
6.01969e-07
3.48688e-05
4.9834e-07
3.42809e-05
3.06134e-07
3.31946e-05
3.12984e-05
-3.04311e-07
3.10815e-05
-4.95034e-07
3.28626e-05
-6.00423e-07
3.38632e-05
-6.39403e-07
3.43872e-05
-6.28633e-07
3.46311e-05
-5.77479e-07
3.47392e-05
-4.94041e-07
3.4788e-05
-4.16817e-07
3.48073e-05
-3.87988e-07
3.46754e-05
-3.32305e-07
3.47015e-05
-2.61601e-07
3.47391e-05
-1.99345e-07
3.47045e-05
-1.42667e-07
3.46845e-05
-6.18585e-08
3.46988e-05
1.75692e-08
3.45568e-05
7.65621e-08
3.47129e-05
1.49535e-07
3.45637e-05
1.98583e-07
3.47386e-05
2.48132e-07
3.46038e-05
3.23865e-07
3.47652e-05
3.5945e-07
3.47387e-05
4.6753e-07
3.4813e-05
5.17701e-07
3.4793e-05
5.8359e-07
3.47677e-05
6.28563e-07
3.47218e-05
6.37704e-07
3.46258e-05
5.9843e-07
3.43836e-05
4.93958e-07
3.38601e-05
3.03528e-07
3.28586e-05
3.1074e-05
-2.99745e-07
3.08539e-05
-4.89221e-07
3.25262e-05
-5.95461e-07
3.34447e-05
-6.36813e-07
3.39046e-05
-6.31151e-07
3.4102e-05
-5.86773e-07
3.41717e-05
-5.12816e-07
3.4191e-05
-4.17865e-07
3.4189e-05
-4.01534e-07
3.41359e-05
-3.38066e-07
3.41149e-05
-2.53314e-07
3.41305e-05
-1.84623e-07
3.4112e-05
-1.21038e-07
3.40975e-05
-2.45303e-08
3.40793e-05
-4.36123e-09
3.40143e-05
9.32841e-08
3.40918e-05
1.01106e-07
3.40331e-05
2.00936e-07
3.41152e-05
2.13193e-07
3.40683e-05
3.14019e-07
3.41409e-05
3.68739e-07
3.41603e-05
4.68369e-07
3.41899e-05
5.41165e-07
3.41972e-05
6.00555e-07
3.41851e-05
6.35836e-07
3.41633e-05
6.37966e-07
3.41002e-05
5.95057e-07
3.39025e-05
4.89344e-07
3.3441e-05
3.00045e-07
3.2522e-05
3.08467e-05
-2.94946e-07
3.06224e-05
-4.83236e-07
3.21894e-05
-5.90194e-07
3.30276e-05
-6.34385e-07
3.34255e-05
-6.32724e-07
3.35776e-05
-5.94683e-07
3.36111e-05
-5.32393e-07
3.36062e-05
-4.56347e-07
3.35903e-05
-4.00898e-07
3.35582e-05
-3.38904e-07
3.35297e-05
-2.58529e-07
3.35269e-05
-1.82148e-07
3.35123e-05
-1.07603e-07
3.34996e-05
-3.6315e-08
3.3485e-05
-6.1466e-09
3.34611e-05
7.62032e-08
3.34871e-05
1.05856e-07
3.34806e-05
1.92886e-07
3.35052e-05
2.34079e-07
3.35042e-05
3.17461e-07
3.35344e-05
3.94195e-07
3.35604e-05
4.79646e-07
3.35811e-05
5.54415e-07
3.35996e-05
6.09063e-07
3.36079e-05
6.38236e-07
3.36115e-05
6.36051e-07
3.35795e-05
5.90542e-07
3.34246e-05
4.83925e-07
3.30235e-05
2.95697e-07
3.21851e-05
3.06158e-05
-2.90065e-07
3.0387e-05
-4.76463e-07
3.18517e-05
-5.83222e-07
3.26112e-05
-6.30156e-07
3.295e-05
-6.32082e-07
3.30576e-05
-5.9738e-07
3.30548e-05
-5.42456e-07
3.30297e-05
-4.72137e-07
3.29981e-05
-4.0459e-07
3.29691e-05
-3.38722e-07
3.29416e-05
-2.62124e-07
3.2928e-05
-1.86716e-07
3.29148e-05
-1.16209e-07
3.29068e-05
-5.08171e-08
3.28971e-05
-1.68952e-09
3.28901e-05
6.49637e-08
3.28985e-05
1.21879e-07
3.29015e-05
1.90659e-07
3.29139e-05
2.52315e-07
3.29202e-05
3.25707e-07
3.29387e-05
4.06533e-07
3.29571e-05
4.88535e-07
3.2977e-05
5.5789e-07
3.30083e-05
6.09355e-07
3.30347e-05
6.35851e-07
3.30633e-05
6.31243e-07
3.30621e-05
5.8379e-07
3.29496e-05
4.77325e-07
3.26068e-05
2.90894e-07
3.18474e-05
3.03812e-05
-2.85003e-07
3.01478e-05
-4.68258e-07
3.1512e-05
-5.73109e-07
3.21941e-05
-6.21538e-07
3.24771e-05
-6.26964e-07
3.25422e-05
-5.96654e-07
3.25039e-05
-5.42676e-07
3.24552e-05
-4.75077e-07
3.24098e-05
-4.0593e-07
3.2379e-05
-3.39291e-07
3.23542e-05
-2.61764e-07
3.23301e-05
-1.90577e-07
3.23222e-05
-1.20679e-07
3.23156e-05
-5.77712e-08
3.23129e-05
-1.16583e-09
3.23126e-05
6.23593e-08
3.23135e-05
1.25426e-07
3.2317e-05
1.93656e-07
3.23244e-05
2.58651e-07
3.23341e-05
3.32647e-07
3.23431e-05
4.09367e-07
3.2358e-05
4.8764e-07
3.23789e-05
5.55338e-07
3.24198e-05
6.05262e-07
3.24642e-05
6.28865e-07
3.25191e-05
6.22065e-07
3.2548e-05
5.73625e-07
3.24767e-05
4.6911e-07
3.21893e-05
2.85825e-07
3.15077e-05
3.01428e-05
-2.79673e-07
2.99048e-05
-4.58326e-07
3.11692e-05
-5.58958e-07
3.17741e-05
-6.06612e-07
3.20048e-05
-6.13759e-07
3.20298e-05
-5.90932e-07
3.19619e-05
-5.35874e-07
3.1881e-05
-4.71814e-07
3.18267e-05
-4.03266e-07
3.17908e-05
-3.34643e-07
3.17666e-05
-2.62059e-07
3.17374e-05
-1.92607e-07
3.17339e-05
-1.23816e-07
3.17266e-05
-6.02257e-08
3.1729e-05
-1.93548e-09
3.17342e-05
6.19377e-08
3.17295e-05
1.25542e-07
3.17335e-05
1.93452e-07
3.17365e-05
2.63271e-07
3.17453e-05
3.33447e-07
3.17516e-05
4.09802e-07
3.17636e-05
4.78142e-07
3.17909e-05
5.46315e-07
3.18322e-05
5.95736e-07
3.18957e-05
6.14997e-07
3.19805e-05
6.06785e-07
3.20366e-05
5.59514e-07
3.20039e-05
4.59118e-07
3.1769e-05
2.80469e-07
3.11648e-05
2.99005e-05
-2.74108e-07
2.96579e-05
-4.46901e-07
3.08222e-05
-5.41077e-07
3.13493e-05
-5.85005e-07
3.15303e-05
-5.94021e-07
3.15208e-05
-5.75106e-07
3.14253e-05
-5.2215e-07
3.13106e-05
-4.61293e-07
3.12473e-05
-3.95386e-07
3.12067e-05
-3.25776e-07
3.11797e-05
-2.61665e-07
3.1155e-05
-1.93023e-07
3.11471e-05
-1.26505e-07
3.11411e-05
-6.30337e-08
3.11478e-05
3.43987e-11
3.11527e-05
6.14855e-08
3.1149e-05
1.2401e-07
3.11529e-05
1.91024e-07
3.11515e-05
2.60199e-07
3.11581e-05
3.32277e-07
3.11628e-05
4.01653e-07
3.11767e-05
4.67836e-07
3.12052e-05
5.32145e-07
3.12503e-05
5.76697e-07
3.13336e-05
5.92578e-07
3.14468e-05
5.84942e-07
3.15261e-05
5.42199e-07
3.15281e-05
4.47749e-07
3.13444e-05
2.74898e-07
3.08178e-05
2.96544e-05
-2.68506e-07
2.94074e-05
-4.34801e-07
3.04705e-05
-5.21673e-07
3.09189e-05
-5.58153e-07
3.10501e-05
-5.6854e-07
3.10149e-05
-5.51402e-07
3.08922e-05
-5.01656e-07
3.07452e-05
-4.40151e-07
3.067e-05
-3.85072e-07
3.06344e-05
-3.20207e-07
3.05986e-05
-2.57338e-07
3.05771e-05
-1.88781e-07
3.05629e-05
-1.26178e-07
3.05632e-05
-6.30306e-08
3.05688e-05
-4.59078e-10
3.05731e-05
5.86856e-08
3.05737e-05
1.21773e-07
3.05734e-05
1.8593e-07
3.0571e-05
2.52997e-07
3.05747e-05
3.23281e-07
3.05772e-05
3.91572e-07
3.05926e-05
4.56408e-07
3.06232e-05
5.13639e-07
3.06774e-05
5.48774e-07
3.07827e-05
5.61947e-07
3.09176e-05
5.57952e-07
3.10138e-05
5.23568e-07
3.10458e-05
4.35842e-07
3.09149e-05
2.69367e-07
3.04662e-05
2.94047e-05
-2.63158e-07
2.91537e-05
-4.23089e-07
3.01146e-05
-5.03752e-07
3.04845e-05
-5.30384e-07
3.0562e-05
-5.32858e-07
3.0503e-05
-5.21518e-07
3.03669e-05
-4.74363e-07
3.01845e-05
-4.16855e-07
3.00982e-05
-3.75735e-07
3.00797e-05
-3.15693e-07
3.00251e-05
-2.49043e-07
2.99965e-05
-1.83496e-07
2.99832e-05
-1.20941e-07
2.99867e-05
-5.48758e-08
2.9989e-05
-7.82629e-09
3.00119e-05
5.54356e-08
2.99961e-05
1.14424e-07
2.99996e-05
1.81169e-07
2.99898e-05
2.41826e-07
2.99992e-05
3.13005e-07
2.99916e-05
3.76665e-07
3.00132e-05
4.46978e-07
3.00401e-05
4.9087e-07
3.01191e-05
5.10244e-07
3.02495e-05
5.25044e-07
3.03886e-05
5.30986e-07
3.04934e-05
5.06103e-07
3.05559e-05
4.24381e-07
3.04814e-05
2.64067e-07
3.01106e-05
2.91518e-05
-2.58298e-07
2.88975e-05
-4.12839e-07
2.97556e-05
-4.89622e-07
3.00484e-05
-5.09195e-07
3.00692e-05
-4.94973e-07
2.99766e-05
-4.7732e-07
2.98373e-05
-4.42787e-07
2.96386e-05
-3.78896e-07
2.95235e-05
-3.74332e-07
2.9564e-05
-3.0741e-07
2.94463e-05
-2.42401e-07
2.94206e-05
-1.78369e-07
2.94069e-05
-1.16934e-07
2.94146e-05
-3.63863e-08
2.93965e-05
-2.54705e-08
2.9489e-05
5.77225e-08
2.94018e-05
1.0021e-07
2.9445e-05
1.79256e-07
2.93991e-05
2.29156e-07
2.94371e-05
3.0224e-07
2.94044e-05
3.59951e-07
2.94441e-05
4.38581e-07
2.94496e-05
4.4494e-07
2.9601e-05
4.61896e-07
2.97207e-05
4.9392e-07
2.98444e-05
5.11888e-07
2.99631e-05
4.92242e-07
3.00631e-05
4.14377e-07
3.00464e-05
2.58994e-07
2.97525e-05
2.88963e-05
-2.53826e-07
2.86395e-05
-4.04566e-07
2.93954e-05
-4.79486e-07
2.96131e-05
-4.97054e-07
2.95768e-05
-4.72191e-07
2.9442e-05
-4.2912e-07
2.92846e-05
-4.01905e-07
2.91021e-05
-3.63835e-07
2.8977e-05
-3.35936e-07
2.90269e-05
-2.91041e-07
2.88916e-05
-2.38619e-07
2.88583e-05
-1.67473e-07
2.88261e-05
-1.32454e-07
2.887e-05
-3.92322e-08
2.87935e-05
-2.13842e-08
2.89621e-05
6.95211e-08
2.88012e-05
8.2992e-08
2.89235e-05
1.93604e-07
2.87785e-05
2.00671e-07
2.89211e-05
3.02903e-07
2.8794e-05
3.23579e-07
2.89144e-05
3.91464e-07
2.8874e-05
3.96128e-07
2.90869e-05
4.33691e-07
2.91732e-05
4.81803e-07
2.92865e-05
5.03052e-07
2.94321e-05
4.83025e-07
2.95732e-05
4.06571e-07
2.96125e-05
2.54314e-07
2.93938e-05
2.86387e-05
-2.49558e-07
2.83802e-05
-3.98155e-07
2.9036e-05
-4.72723e-07
2.91802e-05
-4.91737e-07
2.90887e-05
-4.69836e-07
2.89131e-05
-4.19385e-07
2.87272e-05
-3.83728e-07
2.85595e-05
-3.72725e-07
2.84587e-05
-2.86912e-07
2.84335e-05
-2.57451e-07
2.83549e-05
-2.15423e-07
2.83089e-05
-1.72054e-07
2.82764e-05
-1.27603e-07
2.8318e-05
-8.19782e-08
2.82414e-05
1.71427e-08
2.83557e-05
5.07292e-08
2.8261e-05
1.11403e-07
2.83559e-05
1.68815e-07
2.82151e-05
2.19305e-07
2.83627e-05
2.6684e-07
2.82414e-05
3.0329e-07
2.83703e-05
3.18605e-07
2.83516e-05
3.81104e-07
2.85173e-05
4.38771e-07
2.86083e-05
4.84563e-07
2.87337e-05
5.00309e-07
2.89093e-05
4.77332e-07
2.90889e-05
4.00738e-07
2.91816e-05
2.50208e-07
2.90362e-05
2.838e-05
-2.45601e-07
2.812e-05
-3.93256e-07
2.86786e-05
-4.68905e-07
2.87514e-05
-4.91046e-07
2.86067e-05
-4.77827e-07
2.83959e-05
-4.42244e-07
2.81876e-05
-4.03833e-07
2.8017e-05
-3.67716e-07
2.79181e-05
-2.9072e-07
2.7852e-05
-2.42191e-07
2.78017e-05
-1.98894e-07
2.77607e-05
-1.69924e-07
2.77433e-05
-1.03975e-07
2.7748e-05
-8.83817e-08
2.77217e-05
2.06156e-08
2.77421e-05
3.71581e-08
2.77399e-05
1.36446e-07
2.77515e-05
1.36681e-07
2.77105e-05
2.38382e-07
2.77566e-05
2.33129e-07
2.77424e-05
3.08039e-07