/*--------------------------------*- C++ -*----------------------------------*\
| =========                 |                                                 |
| \\      /  F ield         | OpenFOAM: The Open Source CFD Toolbox           |
|  \\    /   O peration     | Version:  v1606+                                |
|   \\  /    A nd           | Web:      www.OpenFOAM.com                      |
|    \\/     M anipulation  |                                                 |
\*---------------------------------------------------------------------------*/
FoamFile
{
    version     2.0;
    format      ascii;
    class       volScalarField;
    location    "0.02";
    object      Theta.particles;
}
// * * * * * * * * * * * * * * * * * * * * * * * * * * * * * * * * * * * * * //

dimensions      [0 2 -2 0 0 0 0];

internalField   nonuniform List<scalar> 
6000
(
9.24389e-05
9.19206e-05
9.3316e-05
9.38756e-05
9.36257e-05
9.28327e-05
9.23037e-05
9.18014e-05
9.14199e-05
9.11997e-05
9.09384e-05
9.07947e-05
9.05826e-05
9.06407e-05
9.04656e-05
9.05832e-05
9.0589e-05
9.06965e-05
9.0815e-05
9.09898e-05
9.11988e-05
9.14687e-05
9.18116e-05
9.2278e-05
9.28527e-05
9.36833e-05
9.38706e-05
9.33312e-05
9.19186e-05
9.24353e-05
0.00019165
0.000186522
0.000181273
0.00017799
0.000176296
0.000174565
0.000173443
0.000172483
0.000171924
0.00017163
0.000171157
0.000171071
0.000170764
0.000170666
0.000170573
0.000170732
0.000170629
0.000170857
0.000170908
0.000171308
0.000171636
0.000171929
0.000172562
0.000173422
0.000174631
0.000176387
0.000177974
0.000181273
0.000186513
0.000191644
0.000215422
0.000218116
0.000218173
0.00021573
0.00021159
0.000207156
0.000203601
0.000201023
0.000199367
0.000198349
0.000197627
0.000197218
0.000196875
0.000196715
0.00019661
0.000196669
0.000196718
0.00019692
0.000197189
0.000197684
0.000198364
0.000199387
0.00020106
0.000203611
0.000207203
0.000211651
0.000215747
0.000218195
0.000218123
0.000215436
0.000224646
0.000224997
0.000225968
0.000226317
0.00022544
0.000223373
0.000220867
0.000218498
0.000216563
0.000215133
0.000214126
0.000213448
0.000212986
0.000212705
0.000212582
0.000212597
0.000212723
0.000213003
0.000213454
0.000214156
0.000215162
0.000216591
0.000218525
0.00022089
0.000223408
0.00022548
0.00022634
0.000225989
0.000225014
0.000224666
0.000227302
0.000225804
0.000225688
0.000226126
0.000226118
0.000225356
0.000223977
0.000222359
0.000220837
0.00021956
0.000218546
0.000217797
0.000217274
0.000216945
0.000216794
0.0002168
0.000216956
0.000217284
0.000217808
0.000218569
0.00021959
0.000220867
0.000222386
0.000224006
0.000225389
0.000226149
0.000226149
0.000225708
0.000225825
0.000227324
0.000226768
0.000225243
0.0002245
0.000224582
0.000224504
0.000224057
0.000223204
0.000222091
0.000220924
0.000219857
0.000218946
0.000218231
0.000217713
0.000217381
0.000217222
0.000217227
0.000217389
0.000217722
0.000218243
0.000218966
0.000219884
0.000220952
0.000222118
0.000223231
0.000224085
0.000224529
0.000224604
0.000224519
0.000225264
0.000226788
0.000225548
0.000224222
0.000223305
0.000223009
0.000222765
0.000222365
0.00022173
0.000220889
0.000219948
0.000219025
0.000218229
0.00021759
0.000217112
0.0002168
0.000216648
0.000216652
0.000216808
0.000217121
0.000217601
0.000218247
0.000219045
0.000219975
0.000220917
0.000221756
0.000222389
0.000222787
0.000223029
0.000223324
0.000224241
0.000225565
0.000224108
0.000222874
0.000221893
0.000221426
0.000221072
0.000220667
0.000220135
0.000219472
0.000218737
0.000218008
0.000217345
0.000216796
0.000216375
0.000216095
0.000215957
0.00021596
0.000216102
0.000216382
0.000216805
0.000217362
0.000218023
0.00021876
0.000219496
0.000220158
0.000220689
0.000221093
0.000221445
0.00022191
0.000222892
0.000224125
0.000222664
0.000221451
0.000220426
0.000219851
0.000219427
0.000219014
0.000218539
0.000217986
0.000217385
0.000216787
0.000216234
0.00021577
0.000215407
0.000215163
0.000215041
0.000215046
0.000215168
0.000215412
0.000215776
0.000216248
0.000216796
0.000217405
0.000218007
0.000218559
0.000219033
0.000219445
0.000219868
0.000220443
0.000221469
0.000222682
0.000221251
0.000220033
0.000218974
0.000218328
0.000217867
0.000217458
0.00021703
0.00021656
0.00021606
0.000215563
0.000215104
0.000214714
0.000214403
0.000214196
0.000214091
0.000214098
0.000214199
0.000214409
0.000214718
0.000215112
0.000215568
0.000216074
0.000216578
0.000217049
0.000217477
0.000217882
0.000218343
0.000218989
0.000220049
0.000221269
0.000219877
0.000218653
0.000217572
0.000216877
0.000216403
0.000216022
0.000215651
0.000215257
0.00021484
0.000214429
0.000214052
0.000213719
0.000213453
0.000213281
0.00021319
0.000213201
0.000213283
0.000213464
0.000213723
0.000214052
0.000214429
0.000214852
0.000215273
0.000215666
0.00021604
0.000216418
0.00021689
0.000217586
0.000218667
0.000219894
0.00021854
0.000217321
0.000216233
0.000215505
0.000215027
0.000214693
0.000214398
0.000214084
0.000213748
0.000213417
0.000213112
0.000212825
0.0002126
0.000212462
0.00021238
0.000212393
0.000212465
0.00021262
0.000212832
0.000213104
0.000213414
0.000213759
0.000214097
0.000214403
0.000214706
0.000215043
0.000215518
0.000216247
0.000217335
0.000218556
0.000217234
0.000216024
0.000214949
0.000214206
0.000213722
0.000213438
0.000213229
0.000213005
0.000212751
0.000212501
0.00021226
0.000212023
0.000211836
0.000211731
0.000211656
0.000211669
0.000211733
0.000211862
0.00021203
0.000212253
0.000212497
0.000212766
0.000213018
0.000213228
0.000213444
0.000213736
0.000214219
0.000214964
0.00021604
0.00021725
0.000215958
0.000214753
0.000213702
0.000212961
0.000212468
0.000212217
0.000212087
0.000211955
0.000211786
0.000211609
0.000211433
0.00021124
0.000211087
0.000211005
0.000210941
0.000210955
0.000211007
0.000211119
0.000211251
0.000211426
0.000211609
0.000211805
0.000211975
0.000212094
0.000212219
0.00021248
0.000212977
0.000213718
0.000214771
0.000215977
0.000214707
0.000213503
0.00021248
0.000211756
0.000211247
0.000210997
0.000210924
0.000210879
0.000210787
0.000210673
0.000210549
0.000210402
0.00021028
0.000210219
0.000210168
0.000210183
0.000210225
0.000210316
0.00021042
0.00021055
0.000210679
0.00021081
0.000210903
0.000210942
0.000211006
0.000211264
0.000211779
0.0002125
0.000213527
0.000214731
0.000213467
0.000212268
0.000211273
0.000210583
0.00021006
0.000209772
0.00020971
0.000209734
0.000209712
0.000209659
0.000209587
0.000209481
0.000209395
0.00020935
0.000209314
0.000209332
0.000209359
0.000209434
0.000209503
0.000209597
0.000209678
0.000209751
0.000209778
0.000209751
0.000209806
0.000210097
0.00021062
0.000211302
0.0002123
0.0002135
0.000212236
0.000211046
0.000210076
0.000209428
0.000208918
0.000208581
0.000208461
0.000208503
0.000208552
0.000208553
0.00020853
0.000208472
0.000208412
0.000208387
0.000208363
0.000208377
0.000208404
0.000208451
0.000208504
0.000208558
0.000208597
0.00020862
0.000208587
0.00020852
0.000208657
0.000208988
0.000209486
0.000210118
0.000211089
0.000212279
0.000211005
0.000209835
0.000208891
0.000208274
0.000207814
0.000207481
0.000207291
0.000207258
0.000207308
0.00020736
0.000207383
0.000207365
0.00020734
0.000207326
0.000207311
0.000207328
0.00020734
0.000207385
0.000207414
0.000207452
0.000207453
0.000207429
0.000207348
0.000207353
0.000207596
0.000207922
0.000208355
0.000208951
0.000209891
0.000211061
0.000209768
0.000208629
0.00020772
0.000207125
0.000206714
0.000206453
0.000206282
0.00020618
0.00020619
0.000206087
0.000206147
0.000206184
0.000206185
0.000206193
0.000206227
0.0002062
0.000206286
0.000206239
0.000206315
0.000206283
0.000206271
0.0002062
0.000206176
0.000206332
0.000206608
0.000206845
0.000207225
0.000207796
0.000208697
0.000209836
0.00020851
0.000207412
0.000206548
0.000205984
0.000205616
0.00020541
0.000205345
0.000205312
0.000205295
0.000204949
0.00020489
0.000205028
0.000205089
0.000205074
0.000205268
0.000205089
0.000205345
0.000205126
0.000205328
0.000205139
0.000205145
0.000204996
0.000205167
0.000205438
0.000205591
0.000205755
0.000206095
0.000206637
0.000207492
0.000208588
0.000207221
0.000206171
0.000205355
0.000204828
0.000204512
0.000204349
0.000204345
0.000204447
0.00020456
0.000204076
0.000203848
0.000204068
0.000204148
0.000204116
0.000204391
0.000204122
0.000204466
0.000204175
0.000204442
0.000204121
0.000204152
0.000203889
0.000204248
0.000204451
0.000204502
0.000204642
0.000204939
0.00020545
0.000206257
0.000207304
0.000205893
0.000204893
0.000204124
0.000203633
0.000203365
0.000203238
0.000203256
0.000203374
0.000203526
0.000203311
0.000203028
0.000203208
0.000203307
0.000203242
0.000203552
0.000203256
0.000203603
0.000203318
0.000203572
0.000203205
0.00020324
0.000202918
0.000203265
0.000203332
0.000203351
0.000203476
0.000203733
0.00020422
0.000204982
0.000205976
0.000204527
0.000203575
0.000202846
0.000202387
0.000202153
0.000202041
0.000202062
0.000202188
0.000202349
0.000202377
0.000202252
0.000202359
0.000202415
0.00020242
0.000202504
0.000202433
0.000202525
0.000202462
0.000202466
0.000202247
0.000202229
0.000201967
0.000202115
0.000202098
0.00020211
0.000202232
0.000202467
0.000202935
0.000203659
0.000204606
0.000203128
0.000202217
0.000201517
0.000201089
0.000200875
0.000200747
0.000200737
0.000200855
0.000201028
0.000201145
0.00020118
0.000201218
0.000201258
0.000201288
0.000201307
0.000201299
0.000201301
0.000201274
0.000201211
0.000201088
0.000200993
0.000200888
0.000200823
0.000200758
0.000200774
0.000200911
0.000201143
0.000201595
0.00020229
0.000203196
0.000201703
0.000200826
0.000200144
0.000199744
0.000199548
0.000199396
0.000199301
0.000199357
0.000199521
0.000199703
0.00019981
0.000199859
0.000199893
0.000199919
0.000199912
0.000199921
0.000199876
0.000199853
0.000199759
0.000199651
0.000199546
0.000199489
0.000199358
0.000199305
0.000199361
0.00019953
0.000199772
0.000200204
0.000200881
0.000201754
0.000200258
0.000199413
0.000198745
0.000198366
0.000198196
0.000198054
0.000197877
0.000197738
0.000197835
0.000198056
0.000198208
0.00019827
0.000198298
0.000198313
0.000198302
0.000198303
0.000198241
0.000198195
0.000198079
0.00019797
0.000197865
0.00019792
0.000197732
0.000197783
0.000197917
0.000198117
0.000198368
0.000198781
0.000199446
0.00020029
0.000198802
0.000197992
0.000197344
0.000196978
0.000196821
0.000196761
0.000196593
0.00019621
0.000196006
0.000196223
0.000196437
0.000196451
0.000196466
0.000196543
0.000196472
0.000196528
0.000196399
0.000196386
0.000196182
0.000196198
0.000196054
0.000196413
0.000196138
0.000196323
0.000196509
0.000196705
0.00019695
0.000197349
0.000198
0.000198812
0.000197343
0.000196569
0.000195955
0.000195605
0.000195446
0.000195461
0.000195452
0.000194958
0.000194286
0.000194524
0.00019479
0.000194677
0.000194671
0.000194833
0.000194538
0.000194799
0.000194478
0.000194671
0.000194287
0.000194629
0.000194492
0.000195106
0.00019486
0.000195034
0.000195167
0.000195311
0.000195542
0.000195928
0.000196553
0.000197329
0.000195881
0.000195146
0.000194577
0.000194253
0.000194103
0.000194134
0.00019424
0.000193922
0.00019304
0.000193238
0.000193526
0.000193319
0.000193305
0.000193438
0.000192891
0.000193339
0.00019289
0.000193337
0.000192857
0.00019352
0.000193419
0.000194049
0.000193869
0.000193907
0.00019388
0.000193963
0.000194169
0.000194526
0.00019511
0.000195847
0.000194411
0.000193719
0.000193197
0.000192905
0.000192777
0.000192809
0.000192907
0.000192858
0.000192262
0.000192446
0.000192614
0.000192486
0.000192413
0.000192422
0.000191792
0.000192302
0.000191835
0.000192421
0.000191987
0.000192615
0.000192629
0.000192923
0.000192878
0.000192736
0.000192613
0.000192649
0.000192815
0.000193132
0.000193668
0.000194363
0.000192925
0.000192278
0.000191801
0.000191537
0.000191436
0.000191473
0.000191586
0.000191628
0.00019149
0.000191484
0.000191587
0.000191565
0.000191478
0.000191347
0.000191092
0.0001913
0.000191191
0.000191425
0.000191337
0.000191564
0.00019167
0.000191738
0.000191669
0.000191487
0.000191331
0.000191331
0.000191455
0.000191729
0.000192218
0.00019287
0.000191414
0.000190811
0.000190374
0.000190133
0.000190047
0.000190079
0.000190214
0.000190326
0.000190332
0.000190344
0.000190402
0.000190396
0.000190342
0.000190244
0.000190152
0.000190223
0.000190243
0.00019031
0.00019032
0.000190404
0.00019046
0.000190449
0.000190349
0.000190159
0.000189997
0.000189973
0.000190063
0.000190303
0.000190749
0.000191357
0.000189872
0.000189309
0.000188907
0.000188682
0.00018859
0.0001886
0.000188747
0.0001889
0.000188988
0.000189029
0.000189066
0.000189073
0.000189053
0.000188999
0.000188964
0.000189
0.000189027
0.000189066
0.000189078
0.000189101
0.000189088
0.000189027
0.000188913
0.000188732
0.000188582
0.00018855
0.000188625
0.00018884
0.00018925
0.000189817
0.000188296
0.000187768
0.000187391
0.000187179
0.000187068
0.000187045
0.000187174
0.000187346
0.000187488
0.000187554
0.00018758
0.000187597
0.000187614
0.000187601
0.000187609
0.000187626
0.000187643
0.000187661
0.000187661
0.000187638
0.000187571
0.000187476
0.000187348
0.000187185
0.000187074
0.000187058
0.000187137
0.000187332
0.000187714
0.000188245
0.000186685
0.000186184
0.000185824
0.000185624
0.000185492
0.000185426
0.000185487
0.000185669
0.000185842
0.000185933
0.000185965
0.000186001
0.000186031
0.000186057
0.000186087
0.000186094
0.000186099
0.000186097
0.000186088
0.000186027
0.000185943
0.000185823
0.000185665
0.000185515
0.000185477
0.0001855
0.000185594
0.000185774
0.000186137
0.00018664
0.000185043
0.000184565
0.000184212
0.000184031
0.000183892
0.000183759
0.00018371
0.000183892
0.000184077
0.000184179
0.000184225
0.00018427
0.000184313
0.000184352
0.000184397
0.000184399
0.000184404
0.000184396
0.000184372
0.0001843
0.000184198
0.000184065
0.000183879
0.000183753
0.000183818
0.000183891
0.000184001
0.000184172
0.000184525
0.000185006
0.000183379
0.000182922
0.000182572
0.000182416
0.000182302
0.000182086
0.000181863
0.000182019
0.000182208
0.000182313
0.000182378
0.000182433
0.000182474
0.000182519
0.000182557
0.00018257
0.000182579
0.000182572
0.000182547
0.000182458
0.000182354
0.000182185
0.000181996
0.000181984
0.00018216
0.000182263
0.00018237
0.00018254
0.000182889
0.000183351
0.000181706
0.000181271
0.000180927
0.000180782
0.000180722
0.000180476
0.000180043
0.00018006
0.000180425
0.000180351
0.000180407
0.000180471
0.00018053
0.000180549
0.000180754
0.000180611
0.000180681
0.000180635
0.000180635
0.000180521
0.0001804
0.000180202
0.000180231
0.000180357
0.000180576
0.000180643
0.000180724
0.000180901
0.000181245
0.000181687
0.000180033
0.000179624
0.000179297
0.00017915
0.000179113
0.000178933
0.000178395
0.000178344
0.000178799
0.000178567
0.000178524
0.000178571
0.000178677
0.000178623
0.000179093
0.000178716
0.000178902
0.000178609
0.00017886
0.000178502
0.000178595
0.000178328
0.000178726
0.000178967
0.000179041
0.000179033
0.000179102
0.00017928
0.000179607
0.000180023
0.000178366
0.000177984
0.000177681
0.000177535
0.000177482
0.000177381
0.000177052
0.000176967
0.000177447
0.000177065
0.000176976
0.000176969
0.000177098
0.000176985
0.000177585
0.000177127
0.000177321
0.000176877
0.000177197
0.000176817
0.000177033
0.000176877
0.00017747
0.00017761
0.000177512
0.00017746
0.000177516
0.000177677
0.000177977
0.000178361
0.000176704
0.000176352
0.000176078
0.000175947
0.000175909
0.000175868
0.000175815
0.000175893
0.000176075
0.000175957
0.000175863
0.000175759
0.000175918
0.000175699
0.000176112
0.000175805
0.000176051
0.000175505
0.000175975
0.000175481
0.000175899
0.000175718
0.000176105
0.000176098
0.000175972
0.00017591
0.000175946
0.000176081
0.000176351
0.000176702
0.000175044
0.000174723
0.000174478
0.000174361
0.000174351
0.000174365
0.000174402
0.000174539
0.000174631
0.000174631
0.000174599
0.000174583
0.000174606
0.000174578
0.000174638
0.000174631
0.000174619
0.000174512
0.000174563
0.000174504
0.000174536
0.000174573
0.00017462
0.000174558
0.000174425
0.000174357
0.000174373
0.000174484
0.000174725
0.000175043
0.00017338
0.000173091
0.000172871
0.000172759
0.000172768
0.000172824
0.000172898
0.000173024
0.000173114
0.000173159
0.000173157
0.000173159
0.000173178
0.000173166
0.000173169
0.000173184
0.000173174
0.000173138
0.000173137
0.00017311
0.000173105
0.000173107
0.000173075
0.000172975
0.000172845
0.000172776
0.000172781
0.000172877
0.000173092
0.000173379
0.000171708
0.000171447
0.000171249
0.000171135
0.00017114
0.000171218
0.000171318
0.000171428
0.000171517
0.000171568
0.000171602
0.000171612
0.000171648
0.000171641
0.000171622
0.000171637
0.000171635
0.00017162
0.000171605
0.000171581
0.000171553
0.00017152
0.000171442
0.000171327
0.000171206
0.000171153
0.000171164
0.000171251
0.000171445
0.000171704
0.000170023
0.000169784
0.000169603
0.000169489
0.000169467
0.000169542
0.000169651
0.000169751
0.000169826
0.000169897
0.000169944
0.000169974
0.000170009
0.000170015
0.000169987
0.000170003
0.000169996
0.000169996
0.000169963
0.000169943
0.000169901
0.000169837
0.000169736
0.000169607
0.000169504
0.000169486
0.000169516
0.000169598
0.000169775
0.000170012
0.000168322
0.0001681
0.000167928
0.000167819
0.000167758
0.000167798
0.000167902
0.000167987
0.000168085
0.000168151
0.000168222
0.000168246
0.000168294
0.000168306
0.000168284
0.000168285
0.000168287
0.000168274
0.000168251
0.000168209
0.000168158
0.00016808
0.00016796
0.000167819
0.000167746
0.000167788
0.000167837
0.000167913
0.000168083
0.000168303
0.000166607
0.000166397
0.00016623
0.000166126
0.000166021
0.00016601
0.000166086
0.000166155
0.000166258
0.000166351
0.000166411
0.000166456
0.00016649
0.000166518
0.000166496
0.000166501
0.00016649
0.000166484
0.000166444
0.000166404
0.000166347
0.000166256
0.000166124
0.000165973
0.000165985
0.000166086
0.000166137
0.000166204
0.000166374
0.000166582
0.000164885
0.000164684
0.000164516
0.000164414
0.000164284
0.000164215
0.000164304
0.000164264
0.000164367
0.000164469
0.000164544
0.000164584
0.000164628
0.000164643
0.000164628
0.000164629
0.000164622
0.0001646
0.000164571
0.000164518
0.000164455
0.000164366
0.000164215
0.000164117
0.000164282
0.000164401
0.000164426
0.000164487
0.000164659
0.000164857
0.000163166
0.000162974
0.000162804
0.000162701
0.000162581
0.000162514
0.000162622
0.000162465
0.000162397
0.000162578
0.000162593
0.000162669
0.000162671
0.000162785
0.000162668
0.000162749
0.000162653
0.000162729
0.0001626
0.000162602
0.000162524
0.000162458
0.00016228
0.000162407
0.000162659
0.000162734
0.000162719
0.000162784
0.000162954
0.000163139
0.000161459
0.000161281
0.000161117
0.000161016
0.000160945
0.000160908
0.000161072
0.000160818
0.000160648
0.0001608
0.000160777
0.000160844
0.000160788
0.000161025
0.000160806
0.000160959
0.000160803
0.000160953
0.00016076
0.000160775
0.000160747
0.000160696
0.000160581
0.000160867
0.000161096
0.000161044
0.000161038
0.000161105
0.000161265
0.000161439
0.000159769
0.000159607
0.000159458
0.000159372
0.000159337
0.000159353
0.000159459
0.000159382
0.000159139
0.000159271
0.000159155
0.000159225
0.000159105
0.000159424
0.000159145
0.000159376
0.000159155
0.000159372
0.000159122
0.000159183
0.000159174
0.000159218
0.000159133
0.000159473
0.00015947
0.000159406
0.000159395
0.000159454
0.000159599
0.000159758
0.000158095
0.00015795
0.000157817
0.00015775
0.000157739
0.000157782
0.000157871
0.000157927
0.000157926
0.000157945
0.000157869
0.00015791
0.000157745
0.000157965
0.000157781
0.00015797
0.000157827
0.000157968
0.000157836
0.000157852
0.000157904
0.000157913
0.000157917
0.000157934
0.000157878
0.000157803
0.000157779
0.000157825
0.000157953
0.000158096
0.000156436
0.000156308
0.000156189
0.000156139
0.000156145
0.000156201
0.000156291
0.000156383
0.00015643
0.000156449
0.00015643
0.000156428
0.000156408
0.000156443
0.000156423
0.000156455
0.000156439
0.000156457
0.000156422
0.000156403
0.00015643
0.000156429
0.000156415
0.000156374
0.000156289
0.000156207
0.000156173
0.000156211
0.000156325
0.000156451
0.000154788
0.000154676
0.000154569
0.000154531
0.000154543
0.000154605
0.000154696
0.000154792
0.000154856
0.000154888
0.000154895
0.000154905
0.000154897
0.000154908
0.000154907
0.000154921
0.000154915
0.000154918
0.000154896
0.000154882
0.000154891
0.00015487
0.000154831
0.000154767
0.00015468
0.000154602
0.000154565
0.000154606
0.000154708
0.000154817
0.000153148
0.000153049
0.000152952
0.000152923
0.000152928
0.000152989
0.000153074
0.000153162
0.000153228
0.000153267
0.000153299
0.000153321
0.000153325
0.000153327
0.000153335
0.000153336
0.000153335
0.000153326
0.00015331
0.000153301
0.000153297
0.00015325
0.000153192
0.000153121
0.000153038
0.000152979
0.000152952
0.000153002
0.000153093
0.000153189
0.000151513
0.000151424
0.000151334
0.000151311
0.000151302
0.000151347
0.000151416
0.000151494
0.000151563
0.000151617
0.00015166
0.000151691
0.000151707
0.000151703
0.000151719
0.000151714
0.000151714
0.000151697
0.00015168
0.000151676
0.000151658
0.000151599
0.00015153
0.000151445
0.000151367
0.000151338
0.00015134
0.00015139
0.000151476
0.000151561
0.000149884
0.000149802
0.000149712
0.000149691
0.000149678
0.000149689
0.000149722
0.000149791
0.000149874
0.00014993
0.000149985
0.000150018
0.00015004
0.000150042
0.000150054
0.000150052
0.000150052
0.000150034
0.000150019
0.000150009
0.000149987
0.000149917
0.000149838
0.000149747
0.000149676
0.000149687
0.000149727
0.000149771
0.000149854
0.000149934
0.000148265
0.000148187
0.000148094
0.000148071
0.000148071
0.00014807
0.000148007
0.000148063
0.000148152
0.000148223
0.00014828
0.000148317
0.000148341
0.000148343
0.000148356
0.000148357
0.000148356
0.00014834
0.000148325
0.000148312
0.00014828
0.000148215
0.000148128
0.000148025
0.00014799
0.000148051
0.000148115
0.000148149
0.000148235
0.000148313
0.000146665
0.000146591
0.000146493
0.000146466
0.000146502
0.000146506
0.000146344
0.00014633
0.000146399
0.00014647
0.000146537
0.000146578
0.000146601
0.000146606
0.000146627
0.000146619
0.000146616
0.000146605
0.00014659
0.000146578
0.000146543
0.000146474
0.000146383
0.000146301
0.000146344
0.00014645
0.000146511
0.000146534
0.000146628
0.000146704
0.00014509
0.000145021
0.000144925
0.000144897
0.000144947
0.000144994
0.000144805
0.000144727
0.000144686
0.000144751
0.00014482
0.00014486
0.000144935
0.000144862
0.000144976
0.000144889
0.000144931
0.000144889
0.000144873
0.000144902
0.000144778
0.000144775
0.000144725
0.000144691
0.000144788
0.000144902
0.000144923
0.000144948
0.000145046
0.000145118
0.000143547
0.000143482
0.00014339
0.000143362
0.000143406
0.000143469
0.000143404
0.000143284
0.00014315
0.000143157
0.000143223
0.000143278
0.000143358
0.000143268
0.000143382
0.000143302
0.000143349
0.000143303
0.000143288
0.000143307
0.000143102
0.000143199
0.000143239
0.000143247
0.000143326
0.000143361
0.000143365
0.000143398
0.000143494
0.000143563
0.000142035
0.000141974
0.00014189
0.000141866
0.000141909
0.000141984
0.00014202
0.000141972
0.000141812
0.000141784
0.000141837
0.000141853
0.000141976
0.000141834
0.000141991
0.000141865
0.000141951
0.000141882
0.000141856
0.000141878
0.000141645
0.000141827
0.000141924
0.000141935
0.000141904
0.000141869
0.000141858
0.000141887
0.000141977
0.000142041
0.000140556
0.000140498
0.000140421
0.000140397
0.00014044
0.000140518
0.000140576
0.000140576
0.000140528
0.000140501
0.000140547
0.00014056
0.000140587
0.000140596
0.000140592
0.0001406
0.000140602
0.000140585
0.000140553
0.000140496
0.0001404
0.000140524
0.000140566
0.000140533
0.000140467
0.00014041
0.000140386
0.000140411
0.000140493
0.000140554
0.000139107
0.000139052
0.000138979
0.000138949
0.000138989
0.000139063
0.00013913
0.000139157
0.000139149
0.000139142
0.000139168
0.000139185
0.000139199
0.000139214
0.000139209
0.000139214
0.000139213
0.000139196
0.000139163
0.000139117
0.000139107
0.000139141
0.000139149
0.000139103
0.000139031
0.000138968
0.000138938
0.000138967
0.000139043
0.000139099
0.000137684
0.000137631
0.000137563
0.000137522
0.000137549
0.000137615
0.00013768
0.000137728
0.000137749
0.000137755
0.000137772
0.000137791
0.000137797
0.000137816
0.000137814
0.000137815
0.000137809
0.000137795
0.000137768
0.000137741
0.000137736
0.000137739
0.000137723
0.000137668
0.000137598
0.000137536
0.000137507
0.00013755
0.000137621
0.000137674
0.000136282
0.000136232
0.000136166
0.000136117
0.000136118
0.000136171
0.000136237
0.000136296
0.000136339
0.000136356
0.000136366
0.000136387
0.000136394
0.000136408
0.000136413
0.000136407
0.0001364
0.000136386
0.000136369
0.000136353
0.000136346
0.000136332
0.000136292
0.000136235
0.000136169
0.000136111
0.000136093
0.000136152
0.000136221
0.000136272
0.000134901
0.000134851
0.000134785
0.000134737
0.000134698
0.000134736
0.000134804
0.000134876
0.000134923
0.00013495
0.000134959
0.000134983
0.000134991
0.000135007
0.000135009
0.000135006
0.000134994
0.000134985
0.000134969
0.000134963
0.000134952
0.000134924
0.000134868
0.00013481
0.000134748
0.000134701
0.000134705
0.000134769
0.000134839
0.00013489
0.000133542
0.000133488
0.000133422
0.000133379
0.000133306
0.000133311
0.000133385
0.000133455
0.00013351
0.000133543
0.000133558
0.000133578
0.000133596
0.000133603
0.000133608
0.000133604
0.000133597
0.000133585
0.000133575
0.00013357
0.000133555
0.00013352
0.000133461
0.000133392
0.000133332
0.000133308
0.000133349
0.000133403
0.000133474
0.000133529
0.000132205
0.000132144
0.000132074
0.000132036
0.000131957
0.000131908
0.000131967
0.000132051
0.000132104
0.000132145
0.000132165
0.000132188
0.0001322
0.000132215
0.000132215
0.000132218
0.000132207
0.000132197
0.000132181
0.000132177
0.000132159
0.000132116
0.000132053
0.000131982
0.000131926
0.000131944
0.000132014
0.000132058
0.00013213
0.000132192
0.000130892
0.000130823
0.000130746
0.000130711
0.000130649
0.000130536
0.000130563
0.000130642
0.00013071
0.000130748
0.000130775
0.000130799
0.000130817
0.000130826
0.000130834
0.000130826
0.00013082
0.000130801
0.000130794
0.000130784
0.000130764
0.000130713
0.00013065
0.000130574
0.000130556
0.000130608
0.000130687
0.000130731
0.000130808
0.000130878
0.0001296
0.00012953
0.000129447
0.000129407
0.000129365
0.000129227
0.000129216
0.00012926
0.000129335
0.000129388
0.0001294
0.000129432
0.000129445
0.000129464
0.000129464
0.000129461
0.000129444
0.000129421
0.000129432
0.000129424
0.000129411
0.000129313
0.000129247
0.000129213
0.000129251
0.000129317
0.000129377
0.000129428
0.000129514
0.000129586
0.000128336
0.000128268
0.000128179
0.000128129
0.000128095
0.000128011
0.000127961
0.000127959
0.000128036
0.000128095
0.000128103
0.000128125
0.000128142
0.000128157
0.000128159
0.000128149
0.000128129
0.000128101
0.000128138
0.000128143
0.000128116
0.000127968
0.000127918
0.000127945
0.000128044
0.000128074
0.000128103
0.000128161
0.000128254
0.000128323
0.000127108
0.000127043
0.000126952
0.000126899
0.000126877
0.000126856
0.00012682
0.000126785
0.00012684
0.000126894
0.000126888
0.000126909
0.000126916
0.000126934
0.000126931
0.000126926
0.000126911
0.000126893
0.000126955
0.000126964
0.000126933
0.000126752
0.000126729
0.000126807
0.000126902
0.000126871
0.000126881
0.00012694
0.000127033
0.0001271
0.000125922
0.000125859
0.000125767
0.000125719
0.000125717
0.000125726
0.000125735
0.000125736
0.000125757
0.000125783
0.000125802
0.000125824
0.000125839
0.000125849
0.000125849
0.000125844
0.000125832
0.000125822
0.000125841
0.000125857
0.000125819
0.000125688
0.000125686
0.000125749
0.000125784
0.000125725
0.000125714
0.000125765
0.000125856
0.000125919
0.00012478
0.000124718
0.000124628
0.000124587
0.000124599
0.000124626
0.000124666
0.000124671
0.000124666
0.000124686
0.000124715
0.000124739
0.000124756
0.000124765
0.00012477
0.000124765
0.000124752
0.000124746
0.000124763
0.000124787
0.000124765
0.000124657
0.000124634
0.000124668
0.000124678
0.000124621
0.000124595
0.000124636
0.000124724
0.000124784
0.000123683
0.000123624
0.000123535
0.000123499
0.000123513
0.00012356
0.000123636
0.000123632
0.000123599
0.000123616
0.000123657
0.000123682
0.000123698
0.00012372
0.000123722
0.000123717
0.000123705
0.000123699
0.00012372
0.000123738
0.000123737
0.000123643
0.000123603
0.000123596
0.000123594
0.000123543
0.000123515
0.000123551
0.000123637
0.000123695
0.000122632
0.000122573
0.000122485
0.00012245
0.00012247
0.00012254
0.000122633
0.000122646
0.000122582
0.000122588
0.000122634
0.000122663
0.000122688
0.000122726
0.000122719
0.000122708
0.000122696
0.000122689
0.000122704
0.00012273
0.000122716
0.000122666
0.000122611
0.000122565
0.000122544
0.000122492
0.000122471
0.000122507
0.000122592
0.000122649
0.000121626
0.000121568
0.00012148
0.000121448
0.000121477
0.000121563
0.000121635
0.000121664
0.00012162
0.000121609
0.00012165
0.000121695
0.000121739
0.000121789
0.00012177
0.00012175
0.00012173
0.00012172
0.000121728
0.000121746
0.000121733
0.000121698
0.000121646
0.000121588
0.000121546
0.000121485
0.000121469
0.000121505
0.00012159
0.000121646
0.000120662
0.000120605
0.000120519
0.000120489
0.000120523
0.0001206
0.000120667
0.00012071
0.000120704
0.000120684
0.000120723
0.00012079
0.000120846
0.000120892
0.000120872
0.000120852
0.000120816
0.0001208
0.000120799
0.000120802
0.00012079
0.000120754
0.000120702
0.00012064
0.000120581
0.00012052
0.000120507
0.000120544
0.000120628
0.000120684
0.000119741
0.000119683
0.0001196
0.000119569
0.000119603
0.000119671
0.000119737
0.00011979
0.000119815
0.000119809
0.000119857
0.000119933
0.000119991
0.000120019
0.000120021
0.00012
0.000119961
0.000119934
0.00011992
0.000119908
0.000119884
0.000119842
0.000119789
0.000119723
0.000119655
0.000119594
0.000119583
0.000119623
0.000119704
0.00011976
0.000118858
0.000118801
0.000118721
0.000118685
0.000118718
0.000118781
0.000118847
0.000118908
0.000118953
0.000118981
0.00011904
0.000119118
0.000119166
0.000119195
0.000119202
0.00011919
0.000119156
0.000119119
0.00011909
0.00011906
0.000119022
0.000118971
0.000118909
0.00011884
0.000118763
0.000118706
0.000118697
0.000118737
0.000118816
0.000118873
0.00011801
0.000117953
0.000117876
0.000117834
0.000117864
0.000117926
0.000117993
0.000118068
0.000118137
0.000118195
0.000118262
0.000118333
0.000118382
0.000118412
0.000118423
0.000118415
0.000118386
0.000118348
0.000118305
0.00011825
0.000118199