/*--------------------------------*- C++ -*----------------------------------*\
| =========                 |                                                 |
| \\      /  F ield         | OpenFOAM: The Open Source CFD Toolbox           |
|  \\    /   O peration     | Version:  2.4.0                                 |
|   \\  /    A nd           | Web:      www.OpenFOAM.org                      |
|    \\/     M anipulation  |                                                 |
\*---------------------------------------------------------------------------*/
FoamFile
{
    version     2.0;
    format      ascii;
    class       surfaceScalarField;
    location    "2";
    object      phi;
}
// * * * * * * * * * * * * * * * * * * * * * * * * * * * * * * * * * * * * * //

dimensions      [0 3 -1 0 0 0 0];

internalField   nonuniform List<scalar> 
9024
(
-6.03472e-08
6.03474e-08
-2.32224e-07
1.71877e-07
-4.37083e-07
2.04859e-07
-6.22605e-07
1.85522e-07
-7.65592e-07
1.42987e-07
-8.67394e-07
1.01802e-07
-9.43313e-07
7.59184e-08
-1.00689e-06
6.35737e-08
-1.06323e-06
5.6348e-08
-1.11082e-06
4.75839e-08
-1.1423e-06
3.14787e-08
2.06467e-08
-1.16294e-06
-1.69247e-07
2.29595e-07
-5.85783e-07
5.88412e-07
-1.04512e-06
6.64193e-07
-1.40855e-06
5.48956e-07
-1.64343e-06
3.77867e-07
-1.78092e-06
2.39293e-07
-1.86284e-06
1.57839e-07
-1.92473e-06
1.25464e-07
-1.97818e-06
1.09791e-07
-2.02007e-06
8.94752e-08
-2.04671e-06
5.81211e-08
2.22213e-08
-2.04828e-06
-5.37821e-08
2.83377e-07
-5.74947e-07
1.10958e-06
-1.1822e-06
1.27145e-06
-1.60233e-06
9.69084e-07
-1.84433e-06
6.19865e-07
-1.968e-06
3.62966e-07
-2.0276e-06
2.17435e-07
-2.08077e-06
1.78635e-07
-2.13054e-06
1.59557e-07
-2.16463e-06
1.2357e-07
-2.17508e-06
6.85678e-08
1.11387e-08
-2.16399e-06
1.10325e-07
1.73052e-07
-1.54783e-07
1.37468e-06
-6.59877e-07
1.77654e-06
-1.07607e-06
1.38528e-06
-1.39284e-06
9.36633e-07
-1.62634e-06
5.96469e-07
-1.75183e-06
3.42926e-07
-1.85715e-06
2.83956e-07
-1.93761e-06
2.40012e-07
-1.9573e-06
1.43264e-07
-1.89516e-06
6.42257e-09
-1.26253e-07
-1.75777e-06
-4.00792e-07
5.73844e-07
-2.40142e-07
1.21403e-06
-1.14117e-07
1.65052e-06
-1.82813e-07
1.45397e-06
-4.84091e-07
1.23791e-06
-8.45381e-07
9.5776e-07
-1.18521e-06
6.8276e-07
-1.45548e-06
5.54216e-07
-1.61718e-06
4.01719e-07
-1.63395e-06
1.6003e-07
-1.48336e-06
-1.44169e-07
-4.50335e-07
-1.15928e-06
-3.13845e-07
8.8769e-07
-2.75042e-07
1.17523e-06
-1.21927e-07
1.4974e-06
1.00809e-07
1.23124e-06
1.4552e-08
1.32417e-06
-3.42268e-07
1.31458e-06
-8.18193e-07
1.15868e-06
-1.21246e-06
9.48482e-07
-1.46328e-06
6.52544e-07
-1.55791e-06
2.54661e-07
-1.47827e-06
-2.23815e-07
-7.41244e-07
-1.18736e-06
4.78764e-08
8.39813e-07
-5.05906e-08
1.2737e-06
-3.50668e-08
1.48188e-06
-8.23728e-08
1.27854e-06
-2.33719e-07
1.47551e-06
-4.64415e-07
1.54528e-06
-7.94128e-07
1.4884e-06
-1.11249e-06
1.26684e-06
-1.36819e-06
9.0825e-07
-1.54372e-06
4.30184e-07
-1.62099e-06
-1.4654e-07
-7.81158e-07
-1.58108e-06
5.32364e-08
7.86577e-07
3.63422e-08
1.29059e-06
-6.39489e-09
1.52462e-06
-2.34017e-07
1.50617e-06
-3.99362e-07
1.64086e-06
-5.13662e-07
1.65958e-06
-6.70543e-07
1.64528e-06
-8.57974e-07
1.45427e-06
-1.05837e-06
1.10864e-06
-1.2657e-06
6.37515e-07
-1.47822e-06
6.59847e-08
-6.05754e-07
-1.65363e-06
-9.97232e-08
8.863e-07
-1.94022e-07
1.38489e-06
-2.07937e-07
1.53853e-06
-2.47729e-07
1.54596e-06
-2.50658e-07
1.64379e-06
-2.6702e-07
1.67594e-06
-2.878e-07
1.66606e-06
-3.26921e-07
1.49339e-06
-3.97224e-07
1.17895e-06
-5.15545e-07
7.55836e-07
-6.8735e-07
2.3779e-07
-4.5542e-07
-8.37684e-07
-2.92108e-07
1.17841e-06
-4.37212e-07
1.53e-06
-3.09822e-07
1.41114e-06
-1.85999e-07
1.42213e-06
-2.11288e-08
1.47892e-06
1.28303e-07
1.52651e-06
2.71664e-07
1.5227e-06
3.98285e-07
1.36677e-06
4.96264e-07
1.08097e-06
5.27396e-07
7.24704e-07
4.42336e-07
3.2285e-07
-4.14813e-07
4.01729e-07
-4.97878e-07
1.67629e-06
-6.15018e-07
1.64714e-06
-1.85995e-07
9.82119e-07
1.21049e-07
1.11509e-06
4.67641e-07
1.13233e-06
7.65513e-07
1.22863e-06
1.05089e-06
1.23732e-06
1.32443e-06
1.09323e-06
1.58097e-06
8.2443e-07
1.7781e-06
5.27576e-07
1.73748e-06
3.63475e-07
-4.61741e-07
1.7844e-06
-1.88279e-07
1.86456e-06
5.10004e-08
1.40786e-06
7.95655e-07
2.37464e-07
1.14652e-06
7.64221e-07
1.60444e-06
6.74412e-07
1.99821e-06
8.34858e-07
2.39241e-06
8.43124e-07
2.7792e-06
7.06441e-07
3.15672e-06
4.46912e-07
3.53733e-06
1.46967e-07
3.39975e-06
5.01051e-07
3.41574e-06
-4.77736e-07
-1.16963e-06
6.69117e-09
-1.15617e-06
-1.34599e-08
-1.09721e-06
-5.89678e-08
-9.84988e-07
-1.12219e-07
-8.13326e-07
-1.71662e-07
-5.82089e-07
-2.31237e-07
-2.99996e-07
-2.82093e-07
-2.12388e-09
-2.97873e-07
2.26859e-07
-2.28983e-07
3.00804e-07
-7.39454e-08
2.2268e-07
7.81245e-08
2.2268e-07
-2.02174e-06
-1.98522e-08
-1.96177e-06
-7.34354e-08
-1.86706e-06
-1.53676e-07
-1.71751e-06
-2.61767e-07
-1.49708e-06
-3.92088e-07
-1.19282e-06
-5.35499e-07
-7.81187e-07
-6.93727e-07
-2.72053e-07
-8.07007e-07
1.65125e-07
-6.6616e-07
3.30973e-07
-2.39793e-07
2.97972e-07
1.11126e-07
5.20651e-07
-2.13047e-06
-5.33776e-08
-2.07752e-06
-1.26382e-07
-2.02268e-06
-2.08515e-07
-1.95297e-06
-3.31477e-07
-1.84945e-06
-4.95612e-07
-1.69664e-06
-6.88312e-07
-1.42256e-06
-9.67807e-07
-8.60422e-07
-1.36914e-06
-2.56525e-07
-1.27006e-06
-1.00892e-07
-3.95427e-07
-1.31377e-07
1.4161e-07
3.89275e-07
-1.6011e-06
-2.10046e-07
-1.45884e-06
-2.68643e-07
-1.39081e-06
-2.76542e-07
-1.39341e-06
-3.28874e-07
-1.40121e-06
-4.87809e-07
-1.46721e-06
-6.22321e-07
-1.54663e-06
-8.8838e-07
-1.45927e-06
-1.4565e-06
-1.21728e-06
-1.51205e-06
-7.31613e-07
-8.81098e-07
-3.38392e-07
-2.5161e-07
5.08825e-08
-7.42064e-07
-6.27258e-07
-3.18201e-07
-6.92505e-07
7.29348e-08
-6.67678e-07
2.12239e-07
-4.68179e-07
1.44741e-07
-4.2031e-07
2.73615e-08
-5.04942e-07
-3.02997e-08
-8.30718e-07
-4.21588e-07
-1.06521e-06
-8.34756e-07
-1.09888e-06
-7.65084e-07
-9.5077e-07
-2.55232e-07
-7.61462e-07
-2.0435e-07
-6.30106e-07
-1.18451e-06
-3.15734e-08
-1.29104e-06
5.56923e-07
-1.25617e-06
1.07235e-06
-9.8361e-07
1.25659e-06
-6.04545e-07
1.23907e-06
-4.8742e-07
9.89956e-07
-5.81608e-07
5.35867e-07
-6.11122e-07
7.1268e-09
-5.70139e-07
-3.17505e-07
-6.26138e-07
-2.30141e-07
-8.48826e-07
-4.3449e-07
-1.45724e-06
-1.30835e-06
-1.09556e-06
-1.65271e-06
-5.04862e-07
-1.84687e-06
1.96261e-07
-1.68473e-06
7.44457e-07
-1.15274e-06
1.03821e-06
-7.8117e-07
1.09793e-06
-6.41336e-07
1.01753e-06
-5.3072e-07
8.77558e-07
-4.30164e-07
6.25124e-07
-3.73704e-07
2.22204e-07
-4.45906e-07
-2.12286e-07
-1.73152e-06
-1.23046e-06
-1.64588e-06
-1.73835e-06
-1.40625e-06
-2.08651e-06
-9.41569e-07
-2.14941e-06
-2.71279e-07
-1.82303e-06
3.1323e-07
-1.36568e-06
6.13339e-07
-9.41444e-07
8.17043e-07
-7.34424e-07
8.32873e-07
-4.45995e-07
6.05136e-07
-1.45967e-07
2.3406e-07
-7.48305e-08
2.17739e-08
-9.41614e-07
-1.12653e-06
-9.85812e-07
-1.69416e-06
-1.00526e-06
-2.06706e-06
-9.5783e-07
-2.19685e-06
-7.17377e-07
-2.06348e-06
-2.55211e-07
-1.82784e-06
1.48925e-07
-1.34558e-06
6.32586e-07
-1.21809e-06
8.83443e-07
-6.96852e-07
7.00538e-07
3.69382e-08
3.19681e-07
3.06027e-07
3.41455e-07
4.15789e-07
-1.14059e-06
4.45411e-07
-1.72378e-06
3.98563e-07
-2.02021e-06
2.03286e-07
-2.00157e-06
-1.41869e-07
-1.71833e-06
-3.91259e-07
-1.57845e-06
-2.55689e-07
-1.48115e-06
5.2197e-07
-1.99574e-06
1.07098e-06
-1.24586e-06
9.8598e-07
1.21936e-07
5.52009e-07
7.39997e-07
8.93464e-07
1.9522e-06
-1.30838e-06
2.14054e-06
-1.91213e-06
2.25554e-06
-2.1352e-06
2.27278e-06
-2.01881e-06
2.09849e-06
-1.54403e-06
1.60784e-06
-1.08781e-06
9.90073e-07
-8.63382e-07
9.64065e-07
-1.96974e-06
1.31586e-06
-1.59765e-06
1.37361e-06
6.41841e-08
9.88723e-07
1.12488e-06
1.88219e-06
3.63596e-06
-1.5286e-06
3.86479e-06
-2.14096e-06
3.97917e-06
-2.24959e-06
3.98288e-06
-2.02252e-06
3.85618e-06
-1.41733e-06
3.83087e-06
-1.0625e-06
3.72243e-06
-7.5494e-07
2.97831e-06
-1.22562e-06
2.21556e-06
-8.34902e-07
2.02428e-06
2.55466e-07
2.01687e-06
1.13229e-06
3.89906e-06
5.86923e-09
-5.86923e-09
-3.17458e-09
9.04383e-09
-2.66868e-08
2.35122e-08
-6.54526e-08
3.87658e-08
-1.1975e-07
5.42973e-08
-1.88462e-07
6.87124e-08
-2.69138e-07
8.06756e-08
-3.58601e-07
8.94633e-08
-4.52356e-07
9.37546e-08
-5.45144e-07
9.27883e-08
-6.29593e-07
8.44493e-08
6.73643e-08
-6.96958e-07
-2.5615e-08
1.97458e-08
-7.8448e-08
6.18769e-08
-1.63008e-07
1.08072e-07
-2.80011e-07
1.55768e-07
-4.2766e-07
2.01946e-07
-6.00706e-07
2.41758e-07
-7.90214e-07
2.70184e-07
-9.86295e-07
2.85545e-07
-1.17998e-06
2.87444e-07
-1.35857e-06
2.71372e-07
-1.50768e-06
2.3356e-07
1.74263e-07
-1.61458e-06
-2.81071e-08
4.78529e-08
-1.0957e-07
1.43339e-07
-2.36773e-07
2.35276e-07
-4.07065e-07
3.2606e-07
-6.18926e-07
4.13807e-07
-8.64142e-07
4.86975e-07
-1.12219e-06
5.28234e-07
-1.3781e-06
5.41452e-07
-1.62471e-06
5.34056e-07
-1.85427e-06
5.00926e-07
-2.04959e-06
4.2888e-07
2.89784e-07
-2.16511e-06
-3.75085e-08
8.53614e-08
-1.32587e-07
2.38418e-07
-2.75268e-07
3.77957e-07
-4.62113e-07
5.12905e-07
-6.99473e-07
6.51167e-07
-9.83921e-07
7.71423e-07
-1.27063e-06
8.14939e-07
-1.52902e-06
7.99847e-07
-1.76536e-06
7.70394e-07
-1.97676e-06
7.1233e-07
-2.158e-06
6.10122e-07
4.58378e-07
-2.3266e-06
-4.18956e-08
1.27257e-07
-1.46031e-07
3.42554e-07
-2.88484e-07
5.2041e-07
-4.55239e-07
6.7966e-07
-6.57233e-07
8.53161e-07
-9.44979e-07
1.05917e-06
-1.24314e-06
1.1131e-06
-1.46764e-06
1.02435e-06
-1.66829e-06
9.71043e-07
-1.85873e-06
9.02764e-07
-2.03931e-06
7.90702e-07
6.23162e-07
-2.20409e-06
-5.6043e-08
1.833e-07
-1.80765e-07
4.67276e-07
-3.34354e-07
6.73999e-07
-4.88226e-07
8.33532e-07
-6.37707e-07
1.00264e-06
-8.13702e-07
1.23516e-06
-1.01774e-06
1.31714e-06
-1.19743e-06
1.20404e-06
-1.36561e-06
1.13923e-06
-1.51847e-06
1.05562e-06
-1.65813e-06
9.30364e-07
7.49778e-07
-1.78475e-06
-8.00957e-08
2.63396e-07
-2.36342e-07
6.23522e-07
-4.10873e-07
8.4853e-07
-5.64613e-07
9.87272e-07
-6.74537e-07
1.11257e-06
-7.22844e-07
1.28347e-06
-8.03719e-07
1.39801e-06
-8.9583e-07
1.29615e-06
-9.86727e-07
1.23012e-06
-1.06293e-06
1.13182e-06
-1.12913e-06
9.9657e-07
8.05556e-07
-1.18491e-06
-1.12758e-07
3.76154e-07
-3.03084e-07
8.13847e-07
-4.8455e-07
1.03e-06
-6.23373e-07
1.12609e-06
-6.97768e-07
1.18696e-06
-6.90379e-07
1.27608e-06
-6.64442e-07
1.37208e-06
-6.47737e-07
1.27944e-06
-6.04411e-07
1.1868e-06
-5.80246e-07
1.10766e-06
-5.59549e-07
9.75873e-07
7.69966e-07
-5.23959e-07
-1.60515e-07
5.36669e-07
-3.93425e-07
1.04676e-06
-5.49748e-07
1.18632e-06
-6.23575e-07
1.19992e-06
-6.09829e-07
1.17322e-06
-5.11282e-07
1.17753e-06
-3.89512e-07
1.25031e-06
-3.16142e-07
1.20607e-06
-2.15429e-07
1.08608e-06
-1.04589e-07
9.96817e-07
-1.25596e-08
8.83844e-07
6.44115e-07
1.13291e-07
-2.26258e-07
7.62927e-07
-5.15781e-07
1.33628e-06
-6.08957e-07
1.2795e-06
-5.85135e-07
1.1761e-06
-4.50815e-07
1.0389e-06
-2.44716e-07
9.71435e-07
-2.87982e-08
1.03439e-06
1.37934e-07
1.03934e-06
2.83692e-07
9.40326e-07
4.32721e-07
8.47787e-07
5.27799e-07
7.88766e-07
4.57373e-07
7.14541e-07
-2.60327e-07
1.02325e-06
-5.5373e-07
1.62968e-06
-4.83063e-07
1.20883e-06
-3.26334e-07
1.01937e-06
-4.69594e-08
7.59522e-07
2.95806e-07
6.28669e-07
5.88478e-07
7.41718e-07
7.97283e-07
8.30536e-07
9.89313e-07
7.48296e-07
1.18766e-06
6.49444e-07
1.21128e-06
7.65147e-07
2.59624e-07
1.40902e-06
4.90483e-08
9.74205e-07
-1.04875e-07
1.78361e-06
2.89847e-07
8.14109e-07
5.7154e-07
7.37676e-07
9.52062e-07
3.79e-07
1.37734e-06
2.03394e-07
1.69363e-06
4.2542e-07
1.8873e-06
6.3687e-07
2.12934e-06
5.06251e-07
2.45423e-06
3.24559e-07
2.38039e-06
8.38986e-07
2.56262e-06
7.73941e-08
-7.34727e-07
3.77699e-08
-7.45842e-07
1.11141e-08
-7.45633e-07
-2.08219e-10
-7.14326e-07
-3.13073e-08
-6.56266e-07
-5.80604e-08
-5.32015e-07
-1.24251e-07
-3.88063e-07
-1.43952e-07
-2.52716e-07
-1.35347e-07
-1.4202e-07
-1.10695e-07
-6.14054e-08
-8.0615e-08
-1.42984e-08
-4.71071e-08
-1.42983e-08
-1.67732e-06
1.00511e-07
-1.66828e-06
2.0769e-09
-1.60149e-06
-6.70039e-08
-1.44898e-06
-1.83814e-07
-1.24644e-06
-2.60603e-07
-1.01746e-06
-3.53223e-07
-7.71238e-07
-3.90178e-07
-5.4253e-07
-3.64054e-07
-3.44098e-07
-3.09127e-07
-1.78043e-07
-2.46671e-07
-5.48193e-08
-1.70331e-07
-6.91176e-08
-2.20234e-06
1.37747e-07
-2.19655e-06
-3.71718e-09
-2.11305e-06
-1.50508e-07
-1.95636e-06
-3.40498e-07
-1.68783e-06
-5.29135e-07
-1.35929e-06
-6.81765e-07
-1.02685e-06
-7.22615e-07
-7.4718e-07
-6.43726e-07
-5.16636e-07
-5.39672e-07
-3.18782e-07
-4.44525e-07
-1.33856e-07
-3.55257e-07
-2.02973e-07
-2.45822e-06
2.69373e-07
-2.50391e-06
4.19727e-08
-2.44272e-06
-2.11702e-07
-2.27052e-06
-5.12699e-07
-1.97391e-06
-8.25745e-07
-1.56528e-06
-1.09039e-06
-1.08448e-06
-1.20342e-06
-7.09286e-07
-1.01892e-06
-5.33875e-07
-7.15083e-07
-4.38665e-07
-5.39735e-07
-2.68339e-07
-5.25583e-07
-4.71312e-07
-2.33587e-06
4.01153e-07
-2.41508e-06
1.21186e-07
-2.41073e-06
-2.16059e-07
-2.30612e-06
-6.17306e-07
-2.07584e-06
-1.05603e-06
-1.69448e-06
-1.47175e-06
-1.14664e-06
-1.75126e-06
-4.76685e-07
-1.68887e-06
-8.1893e-08
-1.10987e-06
-2.80019e-07
-3.41609e-07
-4.06679e-07
-3.98922e-07
-8.77992e-07
-1.89479e-06
5.1119e-07
-1.98382e-06
2.10224e-07
-2.04149e-06
-1.58393e-07
-2.05316e-06
-6.05629e-07
-1.9879e-06
-1.12129e-06
-1.79269e-06
-1.66696e-06
-1.39052e-06
-2.15343e-06
-6.87444e-07
-2.39195e-06
2.12355e-07
-2.00967e-06
5.53661e-07
-6.82915e-07
2.27382e-07
-7.26426e-08
-6.5061e-07
-1.23957e-06
5.6585e-07
-1.30589e-06
2.76545e-07
-1.39588e-06
-6.84078e-08
-1.51481e-06
-4.86696e-07
-1.65126e-06
-9.84836e-07
-1.7635e-06
-1.55472e-06
-1.75986e-06
-2.15707e-06
-1.50427e-06
-2.64754e-06
-8.30915e-07
-2.68303e-06
1.10532e-07
-1.62436e-06
2.59029e-07
-2.21139e-07
-3.91581e-07
-4.93214e-07
5.35106e-07
-4.93567e-07
2.76897e-07
-5.54842e-07
-7.13283e-09
-7.02443e-07
-3.39095e-07
-9.52373e-07
-7.34906e-07
-1.29077e-06
-1.21632e-06
-1.64225e-06
-1.80559e-06
-1.8551e-06
-2.43469e-06
-1.6874e-06
-2.85073e-06
-9.3463e-07
-2.37713e-06
-1.80638e-07
-9.75132e-07
-5.72218e-07
2.45344e-07
4.03053e-07
3.40868e-07
1.81373e-07
3.63144e-07
-2.94091e-08
2.6825e-07
-2.442e-07
2.0244e-08
-4.869e-07
-3.97404e-07
-7.98675e-07
-9.37925e-07
-1.26507e-06
-1.44479e-06
-1.92783e-06
-1.68217e-06
-2.61335e-06
-1.25742e-06
-2.80188e-06
-3.55676e-07
-1.87688e-06
-9.27894e-07
9.42944e-07
1.7465e-07
1.14162e-06
-1.7302e-08
1.26742e-06
-1.55207e-07
1.27575e-06
-2.52531e-07
1.10921e-06
-3.20365e-07
7.30607e-07
-4.20068e-07
1.6918e-07
-7.03642e-07
-4.08797e-07
-1.34985e-06
-9.10889e-07
-2.11125e-06
-1.0223e-06
-2.69047e-06
-4.41787e-07
-2.45739e-06
-1.36968e-06
1.69933e-06
-1.15655e-07
1.95736e-06
-2.75335e-07
2.15119e-06
-3.49033e-07
2.25408e-06
-3.5542e-07
2.18176e-06
-2.48048e-07
1.86785e-06
-1.06162e-07
1.35905e-06
-1.94839e-07
9.18081e-07
-9.08882e-07
5.11211e-07
-1.70438e-06
1.39626e-07
-2.31888e-06
5.32424e-08
-2.37101e-06
-1.31644e-06
2.85904e-06
-4.12077e-07
3.02302e-06
-4.39316e-07
3.13614e-06
-4.6215e-07
3.22933e-06
-4.4861e-07
3.19358e-06
-2.12301e-07
2.91517e-06
1.72251e-07
2.4945e-06
2.25829e-07
2.30984e-06
-7.24222e-07
2.2041e-06
-1.59864e-06
1.88996e-06
-2.00474e-06
1.2953e-06
-1.77635e-06
-2.11371e-08
7.98349e-09
-7.98349e-09
4.25652e-09
3.72701e-09
-1.25931e-08
1.68496e-08
-4.07277e-08
2.81346e-08
-8.08014e-08
4.00737e-08
-1.32531e-07
5.17301e-08
-1.95214e-07
6.26823e-08
-2.67543e-07
7.23293e-08
-3.47373e-07
7.98303e-08
-4.31327e-07
8.39541e-08
-5.14581e-07
8.32534e-08
7.62745e-08
-5.90855e-07
-2.21485e-08
1.41651e-08
-6.72886e-08
4.88671e-08
-1.365e-07
8.60608e-08
-2.302e-07
1.21835e-07
-3.45498e-07
1.55372e-07
-4.79912e-07
1.86143e-07
-6.30422e-07
2.13193e-07
-7.92654e-07
2.34561e-07
-9.60702e-07
2.47878e-07
-1.12698e-06
2.50237e-07
-1.28193e-06
2.38196e-07
2.08524e-07
-1.41418e-06
-2.54655e-08
3.96306e-08
-9.99563e-08
1.23358e-07
-2.12148e-07
1.98253e-07
-3.53442e-07
2.63129e-07
-5.17564e-07
3.19494e-07
-6.99699e-07
3.68278e-07
-8.95343e-07
4.08838e-07
-1.09816e-06
4.37377e-07
-1.30036e-06
4.50081e-07
-1.4944e-06
4.44277e-07
-1.67159e-06
4.15386e-07
3.59464e-07
-1.82253e-06
-3.80879e-08
7.77185e-08
-1.33534e-07
2.18804e-07
-2.71133e-07
3.35851e-07
-4.37519e-07
4.29515e-07
-6.23509e-07
5.05484e-07
-8.21998e-07
5.66767e-07
-1.02678e-06
6.13623e-07
-1.23168e-06
6.4227e-07
-1.43168e-06
6.50086e-07
-1.62204e-06
6.34638e-07
-1.79892e-06
5.9226e-07
5.18864e-07
-1.95832e-06
-4.37409e-08
1.21459e-07
-1.53275e-07
3.28339e-07
-3.04566e-07
4.87142e-07
-4.78426e-07
6.03375e-07
-6.63258e-07
6.90315e-07
-8.50293e-07
7.53802e-07
-1.0318e-06
7.95127e-07
-1.20282e-06
8.13293e-07
-1.36161e-06
8.0888e-07
-1.50996e-06
7.82981e-07
-1.65137e-06
7.33673e-07
6.56501e-07
-1.78901e-06
-5.0098e-08
1.71557e-07
-1.69202e-07
4.47443e-07
-3.25019e-07
6.42959e-07
-4.9184e-07
7.70197e-07
-6.57145e-07
8.55619e-07
-8.11284e-07
9.07942e-07
-9.45607e-07
9.2945e-07
-1.05392e-06
9.21605e-07
-1.13898e-06
8.93938e-07
-1.2093e-06
8.53309e-07
-1.27855e-06
8.02913e-07
7.36347e-07
-1.35839e-06
-6.06359e-08
2.32193e-07
-1.89641e-07
5.76449e-07
-3.44636e-07
7.97953e-07
-4.93741e-07
9.19302e-07
-6.27937e-07
9.89815e-07
-7.38784e-07
1.01879e-06
-8.14965e-07
1.00563e-06
-8.42485e-07
9.49125e-07
-8.27628e-07
8.7908e-07
-7.88501e-07
8.14183e-07
-7.5255e-07
7.66962e-07
7.25108e-07
-7.41311e-07
-7.95044e-08
3.11698e-07
-2.19504e-07
7.16449e-07
-3.66233e-07
9.44682e-07
-4.84646e-07
1.03771e-06
-5.79015e-07
1.08418e-06
-6.4636e-07
1.08614e-06
-6.69983e-07
1.02925e-06
-6.13337e-07
8.92479e-07
-4.8288e-07
7.48624e-07
-3.10826e-07
6.42129e-07
-1.44889e-07
6.01025e-07
5.99332e-07
-1.91138e-08
-1.05685e-07
4.17382e-07
-2.47367e-07
8.58131e-07
-3.62826e-07
1.06014e-06
-4.22457e-07
1.09734e-06
-4.62291e-07
1.12402e-06
-4.93548e-07
1.11739e-06
-4.90817e-07
1.02652e-06
-3.68451e-07
7.70113e-07
-1.17648e-07
4.9782e-07
2.01834e-07
3.22647e-07
5.13226e-07
2.89633e-07
3.47201e-07
7.65358e-07
-1.15637e-07
5.33019e-07
-2.11058e-07
9.53551e-07
-2.28368e-07
1.07745e-06
-1.6273e-07
1.03171e-06
-1.08565e-07
1.06985e-06
-1.08293e-07
1.11712e-06
-1.24453e-07
1.04268e-06
4.83695e-09
6.40823e-07
3.53845e-07
1.48812e-07
8.08502e-07
-1.3201e-07
1.25974e-06
-1.61605e-07
-2.40903e-08
1.63103e-06
2.16434e-08
5.11376e-07
1.32304e-07
8.42891e-07
3.50051e-07
8.59705e-07
6.68735e-07
7.13023e-07
9.21514e-07
8.17075e-07
9.91897e-07
1.04674e-06
9.23493e-07
1.11109e-06
9.18525e-07
6.45791e-07
1.24053e-06
-1.73193e-07
1.70202e-06
-5.93502e-07
2.2015e-06
-6.61081e-07
-4.75304e-07
2.65271e-06
9.22696e-07
-4.1132e-07
1.33789e-06
4.27697e-07
1.81279e-06
3.84807e-07
2.42168e-06
1.04129e-07
3.08705e-06
1.51705e-07
3.56895e-06
5.64841e-07
3.75567e-06
9.24363e-07
3.4663e-06
9.35167e-07
3.37086e-06
-7.77556e-08
3.34706e-06
-5.69701e-07
3.52545e-06
-8.39475e-07
3.85639e-06
-8.06243e-07
-6.52493e-07
6.16374e-08
-6.9128e-07
3.87871e-08
-7.08986e-07
1.77065e-08
-6.9782e-07
-1.1166e-08
-6.44025e-07
-5.37953e-08
-5.49472e-07
-9.4553e-08
-4.17208e-07
-1.32264e-07
-2.81233e-07
-1.35975e-07
-1.66023e-07
-1.15211e-07
-7.52575e-08
-9.07652e-08
-1.77364e-08
-5.7521e-08
-1.77364e-08
-1.51118e-06
1.58646e-07
-1.5606e-06
8.81979e-08
-1.5342e-06
-8.6851e-09
-1.44861e-06
-9.67641e-08
-1.31524e-06
-1.87165e-07
-1.13466e-06
-2.7513e-07
-9.11765e-07
-3.55158e-07
-6.60084e-07
-3.87655e-07
-4.26727e-07
-3.48568e-07
-2.13032e-07
-3.0446e-07
-5.84949e-08
-2.12058e-07
-7.62313e-08
-1.93774e-06
2.73857e-07
-2.00724e-06
1.57695e-07
-2.0308e-06
1.48769e-08
-1.97546e-06
-1.52105e-07
-1.84983e-06
-3.12798e-07
-1.6602e-06
-4.6476e-07
-1.39062e-06
-6.24733e-07
-1.04339e-06
-7.34888e-07
-6.12087e-07
-7.79872e-07
-2.8553e-07
-6.31017e-07
-5.91494e-08
-4.38439e-07
-1.35381e-07
-2.09543e-06
4.1097e-07
-2.20352e-06
2.65782e-07
-2.27266e-06
8.40218e-08
-2.29338e-06
-1.31389e-07
-2.23609e-06
-3.70089e-07
-2.07576e-06
-6.25091e-07
-1.81653e-06
-8.83956e-07
-1.45383e-06
-1.09759e-06
-1.03006e-06
-1.20364e-06
-5.49807e-07
-1.11127e-06
-1.65398e-07
-8.22847e-07
-3.00779e-07
-1.92457e-06
5.46534e-07
-2.05567e-06
3.96882e-07
-2.17409e-06
2.02437e-07
-2.26555e-06
-3.992e-08
-2.30056e-06
-3.35084e-07
-2.25152e-06
-6.74128e-07
-2.09255e-06
-1.04292e-06
-1.79527e-06
-1.39488e-06
-1.34659e-06
-1.65232e-06
-7.75739e-07
-1.68212e-06
-2.48731e-07
-1.34986e-06
-5.49509e-07
-1.45791e-06
6.46054e-07
-1.57933e-06
5.183e-07
-1.7176e-06
3.40711e-07
-1.85899e-06
1.01464e-07
-1.98314e-06
-2.10934e-07
-2.05821e-06
-5.99054e-07
-2.04393e-06
-1.05721e-06
-1.89134e-06
-1.54747e-06
-1.54823e-06
-1.99543e-06
-1.00747e-06
-2.22288e-06
-3.76403e-07
-1.98092e-06
-9.25912e-07
-7.71782e-07
6.76525e-07
-8.50237e-07
5.96755e-07
-9.73508e-07
4.63982e-07
-1.12971e-06
2.57669e-07
-1.30309e-06
-3.75561e-08
-1.46799e-06
-4.34153e-07
-1.58644e-06
-9.38765e-07
-1.60726e-06
-1.52665e-06
-1.45495e-06
-2.14774e-06
-1.08843e-06
-2.58939e-06
-4.99192e-07
-2.57016e-06
-1.4251e-06
4.0928e-08
6.16483e-07
2.56342e-08
6.12049e-07
-5.92465e-08
5.48863e-07
-1.98158e-07
3.96581e-07
-3.72014e-07
1.363e-07
-5.68734e-07
-2.37433e-07
-7.59887e-07
-7.47612e-07
-9.11647e-07
-1.37489e-06
-9.43894e-07
-2.1155e-06
-7.98912e-07
-2.73437e-06
-4.43155e-07
-2.92592e-06
-1.86826e-06
9.24835e-07
4.57006e-07
9.77067e-07
5.59817e-07
9.35176e-07
5.90754e-07
8.26393e-07
5.05364e-07
6.77549e-07
2.85144e-07
4.91953e-07
-5.18375e-08
2.85004e-07
-5.40662e-07
5.98922e-08
-1.14978e-06
-1.22884e-07
-1.93272e-06
-1.98792e-07
-2.65847e-06
-2.0212e-07
-2.92259e-06
-2.07038e-06
1.8846e-06
2.03434e-07
1.99375e-06
4.50667e-07
1.98136e-06
6.03145e-07
1.89778e-06
5.88942e-07
1.78299e-06
3.99936e-07
1.63084e-06
1.00308e-07
1.43739e-06
-3.47204e-07
1.17858e-06
-8.90967e-07
8.51915e-07
-1.60606e-06
5.24225e-07
-2.33077e-06
2.85991e-07
-2.68436e-06
-1.78439e-06
2.96899e-06
-1.12842e-07
3.11139e-06
3.08266e-07
3.10023e-06
6.14309e-07
3.02832e-06
6.60845e-07
2.95675e-06
4.71507e-07
2.86058e-06
1.96477e-07
2.71159e-06
-1.98212e-07
2.46779e-06
-6.47169e-07
2.03798e-06
-1.17625e-06
1.48047e-06
-1.77326e-06
8.69713e-07
-2.0736e-06
-9.14675e-07
4.17353e-06
-4.29981e-07
4.33218e-06
1.4962e-07
4.29606e-06
6.50425e-07
4.23127e-06
7.25629e-07
4.22937e-06
4.73409e-07
4.22572e-06
2.00135e-07
4.17077e-06
-1.43266e-07
4.0171e-06
-4.93501e-07
3.62626e-06
-7.85403e-07
2.92787e-06
-1.07488e-06
1.89356e-06
-1.03929e-06
9.78888e-07
-5.99354e-08
5.99354e-08
-1.59874e-07
9.99381e-08
-2.75813e-07
1.1594e-07
-5.24139e-07
2.48326e-07
-6.80503e-07
1.56364e-07
-5.43325e-07
-1.37178e-07
-3.90004e-07
-1.53321e-07
-2.51809e-07
-1.38195e-07
-1.8097e-07
-7.0839e-08
-1.09535e-07
-7.14344e-08
-2.81437e-08
-8.13917e-08
-1.15541e-07
8.73971e-08
-3.27854e-08
9.27209e-08
-1.2485e-07
1.92002e-07
-2.45836e-07
2.36926e-07
-2.19475e-07
2.21965e-07
-1.41285e-07
7.81741e-08
-1.40269e-07
-1.38194e-07
-7.19519e-08
-2.21638e-07
1.22355e-08
-2.22383e-07
1.17914e-07
-1.76518e-07
1.84489e-07
-1.38009e-07
2.20238e-07
-1.17141e-07
-1.07279e-07
2.11976e-07
-3.13125e-08
1.24033e-07
-9.02866e-08
2.50976e-07
-1.21267e-07
2.67906e-07
-6.35982e-08
1.64296e-07
5.00321e-08
-3.54562e-08
1.54747e-07
-2.42909e-07
2.64874e-07
-3.31764e-07
3.63052e-07
-3.20561e-07
4.43066e-07
-2.56532e-07
4.78673e-07
-1.73616e-07
4.59379e-07
-9.78462e-08
-4.74917e-08
3.99592e-07
-6.40719e-08
1.88105e-07
-1.52997e-07
3.39902e-07
-2.01424e-07
3.16332e-07
-1.51095e-07
1.13968e-07
7.47739e-08
-2.61325e-07
3.51678e-07
-5.19813e-07
5.86628e-07
-5.66715e-07
7.29552e-07
-4.63485e-07
7.91736e-07
-3.18715e-07
7.77609e-07
-1.59489e-07
6.93763e-07
-1.40005e-08
6.89945e-08
5.77277e-07
-1.08784e-07
2.96889e-07
-2.5479e-07
4.85907e-07
-3.41786e-07
4.03329e-07
-1.31345e-07
-9.64729e-08
2.75124e-07
-6.67795e-07
6.96737e-07
-9.41426e-07
1.02422e-06
-8.94201e-07
1.17786e-06
-6.17118e-07
1.21603e-06
-3.5689e-07
1.16578e-06
-1.09243e-07
1.00945e-06
1.42337e-07
2.33998e-07
8.44444e-07
-7.67237e-08
3.73613e-07
-1.10741e-07
5.19925e-07
-6.58569e-08
3.58444e-07
1.97956e-07
-3.60286e-07
5.86917e-07
-1.05676e-06
1.0252e-06
-1.37971e-06
1.42795e-06
-1.29695e-06
1.59969e-06
-7.88857e-07
1.57089e-06
-3.2809e-07
1.50705e-06
-4.53967e-08
1.38109e-06
2.68296e-07
4.17609e-07
1.19747e-06
-4.1264e-08
4.14877e-07
-1.0459e-07
5.83251e-07
5.30548e-08
2.008e-07
2.67795e-07
-5.75026e-07
4.93502e-07
-1.28246e-06
8.5922e-07
-1.74543e-06
1.40199e-06
-1.83972e-06
1.87911e-06
-1.26598e-06
1.94547e-06
-3.94452e-07
1.76558e-06
1.34495e-07
1.51815e-06
5.1572e-07
6.95491e-07
1.24027e-06
-6.61192e-08
4.80996e-07
-2.22311e-07
7.39443e-07
-2.4527e-07
2.23758e-07
-2.36159e-07
-5.84137e-07
-1.97254e-07
-1.32137e-06
4.23485e-09
-1.94692e-06
4.94082e-07
-2.32957e-06
1.21359e-06
-1.98549e-06
1.57884e-06
-7.59706e-07
1.49099e-06
2.22353e-07
1.27515e-06
7.31553e-07
9.36002e-07
1.03464e-06
-1.61078e-07
6.42074e-07
-3.30359e-07
9.08724e-07
-5.60834e-07
4.54233e-07
-6.9703e-07
-4.47941e-07
-7.8905e-07
-1.22935e-06
-8.3938e-07
-1.89659e-06
-6.62652e-07
-2.50629e-06
-1.56538e-07
-2.4916e-06
4.139e-07
-1.33014e-06
7.2018e-07
-8.39269e-08
7.69708e-07
6.82025e-07
1.02096e-06
6.84752e-07
-2.4609e-07
8.88165e-07
-4.06418e-07
1.06905e-06
-5.88278e-07
6.36093e-07
-5.38614e-07
-4.97604e-07
-4.55512e-07
-1.31245e-06
-6.75756e-07
-1.67634e-06
-1.00679e-06
-2.17526e-06
-1.04529e-06
-2.45309e-06
-5.69063e-07
-1.80637e-06
1.10844e-07
-7.63834e-07
3.30478e-07
4.62391e-07
9.87596e-07
3.63839e-07
-6.8879e-09
8.95052e-07
1.95503e-07
8.66661e-07
1.92999e-07
6.38597e-07
3.26668e-07
-6.31273e-07
6.05952e-07
-1.59173e-06
5.43601e-07
-1.61399e-06
1.06914e-07
-1.73858e-06
-2.25508e-07
-2.12067e-06
-1.84621e-07
-1.84726e-06
1.63326e-07
-1.11178e-06
1.98739e-07
4.26978e-07
1.07867e-06
1.07661e-07
1.21598e-06
-3.20927e-07
2.26599e-06
-1.83347e-07
2.71052e-06
1.94063e-07
2.55889e-06
-4.79645e-07
2.61647e-06
-1.64931e-06
2.49857e-06
-1.49609e-06
2.07918e-06
-1.31919e-06
1.66344e-06
-1.70493e-06
1.35613e-06
-1.53995e-06
1.07118e-06
-8.26833e-07
7.86138e-07
7.1202e-07
8.18479e-07
1.04633e-06
1.56143e-07
-6.87464e-08
1.93473e-07
-3.73291e-08
2.05285e-07
-1.18122e-08
2.04253e-07
1.03184e-09
1.99635e-07
4.61816e-09
1.94456e-07
5.17912e-09
1.81832e-07
1.26235e-08
1.51586e-07
3.02463e-08
9.14108e-08
6.01751e-08
3.22087e-08
5.92021e-08
3.53839e-08
-3.17529e-09
3.5384e-08
2.15689e-07
-7.24597e-08
2.17565e-07
-3.9205e-08
2.14744e-07
-8.99099e-09
1.80699e-07
3.50766e-08
1.38354e-07
4.69632e-08
1.05352e-07
3.81807e-08
7.35056e-08
4.447e-08
6.57686e-09
9.71751e-08
-1.08255e-07
1.75007e-07
-2.00008e-07
1.50955e-07
-8.97569e-08
-1.13426e-07
-5.43729e-08
3.37687e-07
-1.05548e-08
2.88555e-07
9.92691e-09
2.33628e-07
4.59357e-08
1.32037e-07
1.36668e-07
4.03853e-09
1.74962e-07
-1.63417e-07
2.05637e-07
-3.54285e-07
2.35337e-07
-5.74692e-07
3.17582e-07
-3.98759e-07
-9.26363e-10
-2.14838e-07
-3.29662e-08
-4.93951e-08
-2.78869e-07
-1.03768e-07
4.59187e-07
1.07535e-07
3.35883e-07
1.33231e-07
2.15287e-07
1.66531e-07
5.51231e-08
2.96832e-07
-1.59198e-07
3.89283e-07
-6.71604e-07
7.18043e-07
-1.296e-06
8.59735e-07
-1.42437e-06
4.45948e-07
-9.4749e-07
-4.77803e-07
-6.12624e-07
-3.67832e-07
-3.46119e-07
-5.45375e-07
-4.49887e-07
7.06256e-07
2.45723e-07
4.98976e-07
3.40512e-07
1.80619e-07
4.84888e-07
-2.43578e-08
5.01809e-07
-1.44792e-07
5.09717e-07
-4.90396e-07
1.06365e-06
-8.63077e-07
1.23242e-06
-9.90677e-07
5.73548e-07
-9.0136e-07
-5.67119e-07
-4.54447e-07
-8.14745e-07
-1.06735e-07
-8.93087e-07
-5.56621e-07
9.5562e-07
4.87578e-07
7.1729e-07
5.78842e-07
5.0604e-07
6.96138e-07
2.99387e-07
7.08461e-07
7.54612e-08
7.33643e-07
1.03807e-08
1.12873e-06
3.21972e-08
1.2106e-06
1.23557e-07
4.82188e-07
-3.39412e-08
-4.09621e-07
-1.19585e-07
-7.29102e-07
-8.61775e-08
-9.26494e-07
-6.42799e-07
9.78922e-07
7.48926e-07
7.69074e-07
7.8869e-07
6.34656e-07
8.30556e-07
5.07165e-07
8.35952e-07
4.04258e-07
8.3655e-07
5.65681e-07
9.67305e-07
7.2708e-07
1.0492e-06
6.14849e-07
5.94419e-07
2.04006e-07
1.22155e-09
-1.95324e-07
-3.29771e-07
-2.26657e-07
-8.95161e-07
-8.69456e-07
8.4989e-07
9.3368e-07
7.21884e-07
9.16697e-07
6.42095e-07
9.10344e-07
5.91837e-07
8.8621e-07
5.98007e-07
8.30381e-07
7.14673e-07
8.50639e-07
9.35846e-07
8.28026e-07
9.82641e-07
5.47624e-07
8.07893e-07
1.75969e-07
3.32004e-07
1.46118e-07
3.30579e-08
-5.96214e-07
-8.36398e-07
6.52825e-07
9.65607e-07
6.47562e-07
9.21959e-07
6.46407e-07
9.115e-07
6.52505e-07
8.80112e-07
7.05424e-07
7.77461e-07
8.31303e-07
7.2476e-07
9.76152e-07
6.83177e-07
9.79839e-07
5.43938e-07
8.88248e-07
2.6756e-07
8.34111e-07
2.00254e-07
4.66026e-07
-2.28129e-07
-3.70372e-07
5.09327e-07
8.2012e-07
6.49691e-07
7.81595e-07
7.72053e-07
7.89137e-07
8.72922e-07
7.79243e-07
9.17922e-07
7.32462e-07
9.04411e-07
7.38271e-07
1.0614e-06
5.26184e-07
1.11908e-06
4.86262e-07
1.10337e-06
2.83266e-07
9.77598e-07
3.2603e-07
4.34408e-07
3.15061e-07
6.40363e-08
3.67385e-07
5.60396e-07
6.75765e-07
4.73215e-07
9.9005e-07
4.74852e-07
1.16103e-06
6.08265e-07
1.25554e-06
6.37947e-07
1.28689e-06
7.06921e-07
1.42104e-06
3.92036e-07
1.38547e-06
5.21835e-07
1.3828e-06
2.85933e-07
1.27883e-06
4.29999e-07
5.70187e-07
1.02371e-06
6.34223e-07
1.17801e-06
2.00867e-07
1.55609e-06
9.51333e-08
1.9969e-06
3.40363e-08
2.30945e-06
2.95723e-07
2.36421e-06
5.8318e-07
2.3282e-06
7.42931e-07
2.37992e-06
3.40315e-07
2.62692e-06
2.74844e-07
2.55562e-06
3.57224e-07
2.14355e-06
8.42072e-07
1.41067e-06
1.75658e-06
2.0449e-06
1.22002e-06
1.83788e-06
-1.19333e-06
1.46409e-06
1.16379e-06
1.61838e-06
8.31756e-08
1.57761e-06
8.04987e-07
1.71965e-06
5.32375e-07
1.87902e-06
6.75488e-07
2.10433e-06
6.17814e-07
2.33913e-06
4.71641e-07
2.57383e-06
2.12211e-07
2.8625e-06
-1.417e-07
2.74058e-06
6.22971e-07
-4.1385e-07
2.67669e-06
2.21811e-06
1.88776e-06
-2.268e-06
2.28714e-06
1.09476e-06
2.35251e-06
1.78073e-08
2.36955e-06
7.87948e-07
2.44486e-06
4.57059e-07
2.57203e-06
5.48321e-07
2.82352e-06
3.66325e-07
3.11983e-06
1.7533e-07
3.36752e-06
-3.54798e-08
3.65014e-06
-4.24322e-07
3.51766e-06
7.55453e-07
-3.37282e-07
3.44109e-06
3.21148e-06
1.79626e-06
-3.11997e-06
3.26498e-06
1.04126e-06
3.05683e-06
2.25954e-07
3.1154e-06
7.29378e-07
3.20233e-06
3.70129e-07
3.30187e-06
4.48782e-07
3.41546e-06
2.52734e-07
3.8913e-06
-3.00506e-07
4.1401e-06
-2.84283e-07
4.2725e-06
-5.56725e-07
4.32905e-06
6.98903e-07
-2.04003e-07
4.19577e-06
4.02195e-06
1.56069e-06
-3.78638e-06
4.10549e-06
9.57714e-07
3.91284e-06
4.1861e-07
4.03592e-06
6.06293e-07
4.05087e-06
3.55188e-07
3.99689e-06
5.02756e-07
3.91945e-06
3.30172e-07
4.1217e-06
-5.02756e-07
4.35445e-06
-5.1703e-07
4.59129e-06