/*--------------------------------*- C++ -*----------------------------------*\
| =========                 |                                                 |
| \\      /  F ield         | OpenFOAM: The Open Source CFD Toolbox           |
|  \\    /   O peration     | Version:  v1606+                                |
|   \\  /    A nd           | Web:      www.OpenFOAM.com                      |
|    \\/     M anipulation  |                                                 |
\*---------------------------------------------------------------------------*/
FoamFile
{
    version     2.0;
    format      ascii;
    class       volScalarField;
    location    "0.36";
    object      alpha.particles;
}
// * * * * * * * * * * * * * * * * * * * * * * * * * * * * * * * * * * * * * //

dimensions      [0 0 0 0 0 0 0];

internalField   nonuniform List<scalar> 
6000
(
0.406752
0.428322
0.429565
0.429618
0.429663
0.429717
0.429723
0.429741
0.429785
0.429839
0.429897
0.429934
0.429952
0.429959
0.429991
0.430061
0.430112
0.430133
0.430138
0.430139
0.430198
0.430288
0.430314
0.430316
0.430317
0.430316
0.430314
0.430288
0.429389
0.406497
0.406714
0.406714
0.41588
0.424385
0.42771
0.429173
0.429616
0.429655
0.429785
0.429835
0.42987
0.429913
0.429944
0.429982
0.430007
0.430021
0.430073
0.430117
0.430137
0.43018
0.430188
0.430196
0.430276
0.430294
0.430237
0.429108
0.425575
0.416417
0.406481
0.40648
0.429345
0.429311
0.429302
0.42923
0.429307
0.42923
0.427786
0.429578
0.429666
0.429788
0.427324
0.423472
0.420255
0.417058
0.414695
0.415034
0.41715
0.420527
0.423731
0.42705
0.429773
0.430177
0.429778
0.427604
0.431037
0.433252
0.433632
0.433686
0.433775
0.433855
0.429452
0.429348
0.410715
0.37689
0.357292
0.349725
0.342296
0.34436
0.340919
0.336919
0.330568
0.323333
0.31753
0.312556
0.309352
0.309845
0.312839
0.317959
0.323562
0.330199
0.337064
0.339773
0.343628
0.342544
0.347556
0.352622
0.371686
0.406711
0.433861
0.433953
0.429463
0.396231
0.310579
0.280106
0.273305
0.275289
0.27415
0.273282
0.26432
0.256759
0.253027
0.249726
0.246908
0.245314
0.244852
0.244923
0.245368
0.247086
0.249998
0.253126
0.257136
0.264811
0.274317
0.275571
0.276119
0.273245
0.278811
0.309338
0.393787
0.433961
0.429452
0.305421
0.260591
0.260381
0.260579
0.270278
0.276591
0.276075
0.260101
0.245213
0.245153
0.245069
0.245004
0.244959
0.245017
0.244972
0.245026
0.245032
0.245089
0.245135
0.24523
0.261782
0.27808
0.278557
0.272177
0.262458
0.262265
0.262461
0.309638
0.433987
0.345808
0.264339
0.260447
0.260577
0.277747
0.305466
0.319691
0.320892
0.297944
0.263258
0.24666
0.245145
0.24508
0.245031
0.244979
0.245036
0.245059
0.245102
0.245139
0.246754
0.264025
0.300588
0.323457
0.322166
0.307464
0.279244
0.262448
0.262324
0.268367
0.364147
0.278259
0.260478
0.260588
0.273679
0.325377
0.369179
0.387869
0.390812
0.371749
0.316373
0.264515
0.248021
0.245147
0.245096
0.245112
0.245065
0.24513
0.24517
0.247755
0.264842
0.318987
0.374639
0.39295
0.389762
0.370576
0.325808
0.274623
0.262411
0.262376
0.291179
0.260582
0.260596
0.262981
0.315621
0.386182
0.425202
0.442965
0.44718
0.447176
0.406819
0.321491
0.271228
0.256865
0.253684
0.252915
0.252735
0.253628
0.2565
0.270742
0.323465
0.411279
0.448817
0.447974
0.443064
0.425202
0.385028
0.314305
0.263212
0.262391
0.262432
0.260628
0.261051
0.282913
0.380296
0.443316
0.463962
0.475932
0.482637
0.493009
0.493714
0.421884
0.335365
0.302246
0.292924
0.290566
0.290211
0.292292
0.301244
0.335425
0.425897
0.497185
0.493332
0.482023
0.47509
0.463231
0.44169
0.376414
0.279246
0.262421
0.262452
0.260635
0.273977
0.324782
0.454118
0.497975
0.502733
0.511294
0.519007
0.525855
0.52996
0.501787
0.428503
0.382715
0.367332
0.363625
0.36319
0.366179
0.381499
0.429165
0.50428
0.531068
0.526315
0.51879
0.510604
0.502199
0.497388
0.448644
0.316667
0.270408
0.262481
0.289153
0.316406
0.393815
0.499581
0.534832
0.538738
0.54175
0.541807
0.54178
0.54128
0.525926
0.501543
0.470816
0.457158
0.453973
0.453633
0.456201
0.470033
0.501772
0.526016
0.541956
0.542109
0.542126
0.542032
0.538813
0.534242
0.494237
0.383041
0.306993
0.285609
0.3572
0.388948
0.461745
0.525633
0.541727
0.541763
0.541822
0.541793
0.541796
0.541699
0.541708
0.539076
0.532079
0.527058
0.525563
0.525486
0.52691
0.531988
0.539008
0.542028
0.542025
0.542115
0.542121
0.542142
0.542086
0.542039
0.522874
0.45149
0.377905
0.34938
0.40504
0.440023
0.46363
0.464756
0.39504
0.489808
0.541691
0.541742
0.497292
0.36191
0.435159
0.481898
0.506401
0.518529
0.523868
0.5238
0.51812
0.505705
0.480508
0.43241
0.359164
0.499407
0.542062
0.542011
0.48026
0.391525
0.466553
0.462771
0.434216
0.400287
0.322951
0.339195
0.329411
0.219474
0.156492
0.231892
0.366804
0.414359
0.260721
0.167131
0.187151
0.229853
0.269736
0.299045
0.314035
0.313913
0.298245
0.268626
0.228271
0.185732
0.167022
0.26284
0.418574
0.362533
0.224872
0.15321
0.22602
0.330703
0.340857
0.32492
0.136125
0.128705
0.105766
0.0779119
0.0889722
0.158364
0.257738
0.287823
0.204583
0.135602
0.113282
0.110466
0.114878
0.120403
0.123962
0.123947
0.120309
0.114913
0.110594
0.113825
0.137028
0.207941
0.292619
0.256289
0.153429
0.0873111
0.0792118
0.109388
0.133322
0.14151
0.0481256
0.0495185
0.0518562
0.0586709
0.0851091
0.159384
0.251916
0.277852
0.213405
0.142445
0.114156
0.105662
0.105662
0.105662
0.105662
0.105662
0.105661
0.105661
0.105661
0.115098
0.144633
0.218632
0.28243
0.250758
0.154722
0.0834264
0.0585145
0.0522117
0.0503058
0.0493757
0.0406957
0.0427379
0.0502823
0.0613671
0.087534
0.159416
0.260849
0.291906
0.225227
0.151605
0.120349
0.108146
0.105663
0.105662
0.105662
0.105662
0.105662
0.105662
0.108931
0.121674
0.154646
0.23073
0.296077
0.258659
0.154973
0.0866615
0.0612187
0.0500881
0.0425789
0.0405268
0.0406956
0.0446499
0.0538663
0.0672427
0.0929249
0.158785
0.266978
0.306244
0.239975
0.161406
0.127351
0.114072
0.108538
0.107679
0.10792
0.108046
0.108025
0.109211
0.115267
0.128952
0.16543
0.246189
0.309969
0.263533
0.154912
0.0929824
0.0672676
0.0535498
0.0444261
0.0405268
0.0406957
0.0487124
0.0591195
0.0737111
0.100498
0.158655
0.269236
0.322892
0.260855
0.174543
0.134749
0.120622
0.115141
0.114098
0.11465
0.114855
0.114666
0.116101
0.121857
0.136627
0.17967
0.268582
0.325653
0.264645
0.155481
0.100962
0.0740151
0.05883
0.0484024
0.0405268
0.0415904
0.0534233
0.0637863
0.0803585
0.109074
0.159745
0.266353
0.339354
0.28924
0.192213
0.143414
0.127329
0.122164
0.121546
0.122361
0.122578
0.122142
0.123086
0.128631
0.145543
0.197983
0.2977
0.34016
0.258767
0.157052
0.109365
0.0809587
0.0637386
0.0529349
0.0413044
0.0453426
0.057711
0.0685627
0.087668
0.116352
0.161918
0.254499
0.351635
0.322416
0.21437
0.153686
0.134815
0.129178
0.128753
0.129732
0.129953
0.129357
0.130096
0.136199
0.156038
0.220241
0.329848
0.350213
0.247229
0.159802
0.116071
0.0884004
0.0688724
0.0569709
0.0447968
0.051509
0.0615695
0.07433
0.094779
0.121317
0.164487
0.246583
0.358595
0.352255
0.239053
0.165289
0.143186
0.136806
0.136347
0.137413
0.137648
0.13698
0.13777
0.144598
0.167928
0.245929
0.357951
0.355286
0.241356
0.162457
0.12056
0.095249
0.0748674
0.060644
0.0506691
0.0583079
0.0658552
0.0806069
0.100259
0.124681
0.167269
0.244786
0.361937
0.37608
0.264666
0.178123
0.152402
0.145419
0.144881
0.145985
0.146235
0.14555
0.14645
0.153851
0.181066
0.271877
0.380251
0.358339
0.240551
0.165398
0.123727
0.100231
0.0808989
0.0649202
0.0572202
0.0650483
0.0712875
0.086414
0.104357
0.128448
0.171716
0.246608
0.364848
0.391358
0.288372
0.191784
0.162413
0.155009
0.154401
0.155494
0.155766
0.155111
0.156133
0.163993
0.19485
0.294618
0.393164
0.361038
0.243042
0.170345
0.127745
0.104018
0.0861899
0.0704085
0.063723
0.0717125
0.077489
0.0923651
0.109032
0.134113
0.178553
0.250786
0.366937
0.395955
0.306305
0.205983
0.173493
0.165635
0.164875
0.165884
0.166177
0.165649
0.166874
0.175295
0.209323
0.311438
0.395947
0.363536
0.248289
0.177862
0.133921
0.108748
0.0919741
0.0765006
0.0700983
0.0783915
0.0832769
0.0990406
0.116456
0.143734
0.189349
0.259417
0.368987
0.396034
0.318599
0.221699
0.186336
0.177648
0.17652
0.177315
0.177607
0.177349
0.17898
0.188306
0.225187
0.32246
0.396009
0.366366
0.258395
0.189521
0.144084
0.116374
0.0985992
0.0822918
0.0766087
0.0852683
0.0901949
0.106683
0.127009
0.158075
0.205651
0.273662
0.37026
0.395966
0.328489
0.24028
0.20241
0.192115
0.190262
0.190631
0.190904
0.191085
0.193486
0.204467
0.243334
0.330926
0.395956
0.368697
0.274163
0.206573
0.158843
0.127218
0.106225
0.0894459
0.0834357
0.0924176
0.100462
0.117414
0.142093
0.177564
0.227792
0.293198
0.370102
0.396067
0.337805
0.26214
0.223913
0.21137
0.208233
0.207944
0.208235
0.209106
0.212849
0.226083
0.264676
0.339342
0.396045
0.369563
0.294807
0.229371
0.178765
0.142616
0.117133
0.0999132
0.0906539
0.100471
0.115244
0.134127
0.16372
0.204045
0.256464
0.316395
0.373383
0.38759
0.347843
0.288498
0.252904
0.238471
0.233716
0.232612
0.232972
0.234771
0.240212
0.255232
0.29082
0.349077
0.387332
0.373692
0.318346
0.258631
0.205872
0.16485
0.134476
0.11499
0.0989304
0.111496
0.136104
0.15946
0.194143
0.239237
0.29162
0.34222
0.381317
0.387375
0.36345
0.32178
0.291391
0.276359
0.270155
0.268192
0.268648
0.271471
0.278433
0.293929
0.324078
0.364579
0.387543
0.382103
0.344348
0.294398
0.241922
0.196189
0.160715
0.136319
0.110494
0.129173
0.164995
0.194936
0.235489
0.284032
0.33266
0.372565
0.397745
0.400357
0.389578
0.365051
0.341995
0.32787
0.32073
0.318006
0.31857
0.322335
0.330271
0.344731
0.367376
0.390869
0.401121
0.398998
0.374982
0.336061
0.287718
0.238621
0.197088
0.165758
0.129044
0.157976
0.205005
0.242515
0.288839
0.337548
0.379486
0.410625
0.427231
0.431252
0.42908
0.418832
0.40484
0.393427
0.386327
0.38316
0.383797
0.388099
0.395965
0.407619
0.421283
0.430909
0.432845
0.42913
0.413429
0.383408
0.342119
0.293032
0.245533
0.206455
0.158848
0.203004
0.259169
0.303412
0.35248
0.397085
0.432478
0.456395
0.468532
0.474087
0.476697
0.475208
0.470116
0.463377
0.458061
0.455256
0.455888
0.459711
0.465824
0.472781
0.477736
0.479172
0.476484
0.471021
0.459348
0.436397
0.401845
0.357332
0.307257
0.261461
0.204888
0.267394
0.327766
0.374327
0.420059
0.457048
0.484532
0.499877
0.507644
0.51204
0.514778
0.516304
0.515884
0.513843
0.511389
0.509976
0.51042
0.512377
0.515339
0.51765
0.518161
0.516963
0.514172
0.509795
0.502101
0.48746
0.460987
0.424686
0.378489
0.330857
0.270164
0.345951
0.403488
0.444862
0.478965
0.504274
0.51904
0.525818
0.529029
0.530868
0.531573
0.532874
0.532472
0.532014
0.530569
0.530038
0.529958
0.53035
0.531333
0.531861
0.532917
0.532021
0.531436
0.529682
0.526548
0.520154
0.506332
0.482189
0.448462
0.406862
0.349174
0.422155
0.468722
0.49808
0.514808
0.52599
0.531042
0.533951
0.535285
0.536625
0.536835
0.538165
0.537773
0.536939
0.534718
0.533515
0.533009
0.533245
0.534712
0.535705
0.537032
0.535953
0.536055
0.534664
0.533699
0.530996
0.526478
0.516184
0.500321
0.471523
0.425068
0.474731
0.509138
0.523952
0.5264
0.528719
0.530799
0.533621
0.535352
0.53818
0.53928
0.54115
0.541263
0.540118
0.537187
0.535186
0.534363
0.53492
0.537207
0.538878
0.539796
0.538173
0.537557
0.534852
0.533596
0.53084
0.528873
0.526871
0.524962
0.510744
0.476582
0.501731
0.528437
0.52915
0.525235
0.52635
0.526352
0.530693
0.533702
0.538092
0.541238
0.544006
0.544495
0.54293
0.539568
0.536953
0.535953
0.53698
0.540071
0.542412
0.542775
0.540301
0.537586
0.533593
0.531233
0.526694
0.52651
0.525881
0.530042
0.529215
0.502443
0.519977
0.534188
0.529234
0.516856
0.525363
0.516572
0.519566
0.527278
0.537957
0.544305
0.547252
0.547025
0.544901
0.541637
0.538837
0.537807
0.539167
0.542516
0.545325
0.546131
0.543463
0.537445
0.527875
0.52116
0.518009
0.525584
0.518055
0.530168
0.534994
0.520266
0.53383
0.534172
0.519671
0.499831
0.511556
0.489894
0.502241
0.52541
0.541858
0.549041
0.54974
0.547997
0.54597
0.543294
0.540774
0.53982
0.541214
0.544134
0.546771
0.548552
0.548112
0.541384
0.526353
0.504885
0.492084
0.512214
0.501536
0.521623
0.535012
0.534329
0.536344
0.52259
0.50816
0.47955
0.48308
0.481836
0.500705
0.534305
0.550334
0.552467
0.550298
0.548419
0.546838
0.544846
0.542847
0.542072
0.543251
0.545386
0.547543
0.549208
0.551392
0.549686
0.535221
0.503671
0.481956
0.482148
0.47883
0.510522
0.524924
0.537209
0.530723
0.495802
0.508143
0.479526
0.479525
0.48175
0.520305
0.550246
0.555118
0.553077
0.549972
0.549022
0.547927
0.546593
0.545174
0.544624
0.545451
0.546766
0.548357
0.549087
0.551955
0.55403
0.550479
0.523186
0.481997
0.478663
0.478665
0.508195
0.495596
0.53109
0.518805
0.495287
0.502864
0.479525
0.484399
0.511834
0.548618
0.557439
0.555531
0.552254
0.550268
0.550204
0.549479
0.548616
0.547675
0.547323
0.547828
0.548573
0.549588
0.549523
0.551193
0.554277
0.55653
0.549709
0.514474
0.484105
0.478664
0.498864
0.491334
0.518542
0.509676
0.495335
0.494935
0.491364
0.517314
0.548785
0.559164
0.55794
0.554595
0.5523
0.551746
0.551933
0.551319
0.550679
0.550051
0.549818
0.550117
0.550616
0.551261
0.551005
0.551416
0.553158
0.556766
0.558428
0.550172
0.519823
0.491126
0.491275
0.491365
0.50876
0.510049
0.504475
0.506696
0.52591
0.551158
0.560521
0.559808
0.557046
0.554255
0.553426
0.553618
0.55347
0.552913
0.5524
0.551965
0.551788
0.551957
0.552329
0.552812
0.552819
0.552656
0.552927
0.555669
0.558711
0.55986
0.552563
0.528375
0.505257
0.500956
0.509069
0.512284
0.52289
0.534161
0.553705
0.561455
0.561183
0.558943
0.556127
0.554458
0.554145
0.55388
0.553869
0.55383
0.553557
0.5533
0.553166
0.55323
0.553413
0.553629
0.553513
0.553245
0.552984
0.554337
0.557647
0.56013
0.560159
0.555117
0.536576
0.522232
0.512209
0.515842
0.54189
0.555484
0.561809
0.561842
0.560419
0.557415
0.55466
0.553021
0.552646
0.552891
0.553663
0.554135
0.554271
0.554231
0.554164
0.554147
0.5541
0.553853
0.553117
0.552106
0.551133
0.551935
0.555271
0.559181
0.560223
0.560188
0.556893
0.543996
0.517546
0.525196
0.555437
0.561843
0.561881
0.561851
0.558191
0.553268
0.548925
0.545737
0.547421
0.549992
0.552675
0.554071
0.554772
0.554997
0.555028
0.554972
0.55473
0.553989
0.552185
0.548897
0.544838
0.544846
0.548671
0.55576
0.56019
0.560233
0.560203
0.556571
0.529297
0.541671
0.561377
0.561881
0.561874
0.559282
0.550129
0.539588
0.53033
0.525013
0.536071
0.544663
0.551063
0.554037
0.555302
0.555775
0.555911
0.555871
0.555549
0.554436
0.551405
0.544581
0.535659
0.531175
0.531412
0.543841
0.5569
0.560207
0.560237
0.560178
0.545079
0.554224
0.561859
0.561883
0.561593
0.547947
0.525809
0.512172
0.506019
0.505983
0.521969
0.538787
0.549906
0.554359
0.55606
0.556663
0.556863
0.556884
0.556658
0.555603
0.552249
0.543731
0.530125
0.520415
0.511695
0.517745
0.5381
0.558131
0.560219
0.560221
0.554946
0.560197
0.561874
0.561833
0.547485
0.514372
0.491157
0.497286
0.508794
0.50686
0.510627
0.536962
0.550606
0.555445
0.557135
0.557679
0.557878
0.55796
0.557932
0.557381
0.554811
0.546763
0.533246
0.520306
0.503287
0.497475
0.499818
0.531108
0.560174
0.560223
0.559554
0.561864
0.561812
0.551715
0.497972
0.477905
0.488703
0.503675
0.519388
0.520015
0.515908
0.539793
0.553201
0.557269
0.558435
0.558772
0.558925
0.559037
0.559168
0.559173
0.558074
0.553247
0.543213
0.524957
0.506779
0.486556
0.48492
0.484974
0.534151
0.560165
0.560231
0.561823
0.554195
0.505634
0.474239
0.474238
0.488852
0.511978
0.53289
0.540883
0.531079
0.546827
0.556797
0.559222
0.559725
0.559862
0.559965
0.560079
0.560268
0.560581
0.560637
0.559063
0.555093
0.542371
0.516977
0.490329
0.484923
0.484858
0.492942
0.5411
0.560165
0.554854
0.518683
0.485148
0.474238
0.474239
0.495832
0.528048
0.547018
0.548937
0.543641
0.554118
0.559685
0.560767
0.560859
0.560892
0.560956
0.561043
0.56121
0.561568
0.562109
0.562295
0.562127
0.55882
0.545374
0.515139
0.490677
0.487153
0.498587
0.49924
0.547206
0.537632
0.493314
0.500217
0.482221
0.487788
0.524992
0.548086
0.553748
0.552124
0.552246
0.558847
0.561576
0.561912
0.561853
0.561844
0.561861
0.561887
0.561963
0.562183
0.562646
0.563216
0.564344
0.565313
0.563255
0.552534
0.532382
0.504123
0.505287
0.499221
0.523921
0.518153
0.493285
0.513306
0.524297
0.533293
0.550625
0.556266
0.556073
0.555128
0.557865
0.561645
0.562848
0.562858
0.562769
0.562721
0.562667
0.562595
0.56252
0.562487
0.562547
0.562821
0.563666
0.565369
0.566696
0.566682
0.561304
0.546027
0.528911
0.499228
0.500071
0.504393
0.518265
0.54544
0.55273
0.555307
0.557488
0.557835
0.557569
0.558369
0.561341
0.563404
0.563853
0.563748
0.563637
0.563534
0.563396
0.563208
0.562952
0.562612
0.56219
0.561779
0.561653
0.56306
0.566259
0.566779
0.566761
0.565706
0.556234
0.528918
0.502196
0.522907
0.551172
0.554117
0.55414
0.554138
0.556696
0.558249
0.559388
0.561398
0.563696
0.564728
0.564788
0.564623
0.564468
0.564306
0.564104
0.563832
0.563424
0.562777
0.561725
0.560123
0.55798
0.556821
0.559734
0.566195
0.566797
0.566795
0.566742
0.557477
0.521703
0.545765
0.55411
0.554116
0.547805
0.549092
0.555854
0.559481
0.561926
0.564137
0.565545
0.565879
0.5657
0.565463
0.565259
0.565066
0.564863
0.564601
0.564172
0.563373
0.561883
0.558742
0.553231
0.54539
0.539003
0.552027
0.565993
0.566812
0.566805
0.566715
0.546328
0.554114
0.554107
0.548389
0.523275
0.543893
0.557022
0.562399
0.565072
0.56655
0.567039
0.566866
0.56651
0.566194
0.565955
0.565787
0.565674
0.565552
0.565334
0.564784
0.563377
0.559966
0.551735
0.53328
0.513202
0.508664
0.545003
0.566273
0.566825
0.566783
0.5614
0.554106
0.546364
0.502905
0.504547
0.546561
0.561663
0.566505
0.567958
0.568307
0.568033
0.567506
0.567008
0.566622
0.566368
0.566254
0.566277
0.566392
0.566567
0.566658
0.566208
0.564098
0.55683
0.536175
0.507141
0.491885
0.491941
0.539331
0.566708
0.566829
0.566747
0.553117
0.502919
0.502737
0.513211
0.556508
0.567831
0.569744
0.569581
0.569095
0.568363
0.567615
0.566992
0.566554
0.566278
0.56618
0.566269
0.566615
0.567161
0.567858
0.568472
0.568442
0.565329
0.550348
0.514691
0.493673
0.485113
0.485233
0.547538
0.566704
0.566813
0.530298
0.502772
0.511928
0.539983
0.567023
0.571796
0.571172
0.570015
0.569081
0.568213
0.567375
0.56665
0.566094
0.565749
0.565646
0.565794
0.566198
0.566849
0.567742
0.568981
0.570353
0.570708
0.565658
0.542364
0.50733
0.486656
0.485113
0.49253
0.548902
0.566715
0.507772
0.50285
0.537217
0.56365
0.572731
0.572734
0.571291
0.569932
0.56884
0.567745
0.566668
0.565704
0.564956
0.564503
0.564363
0.564525
0.564979
0.56575
0.566866
0.568348
0.57012
0.572108
0.572496
0.565756
0.543484
0.505736
0.48638
0.491904
0.49214
0.553722
0.511617
0.525391
0.560518
0.57231
0.573747
0.572727
0.571055
0.569647
0.568255
0.566769
0.565265
0.563942
0.562993
0.562478
0.562326
0.562469
0.562895
0.563675
0.564916
0.566684
0.56899
0.571406
0.572844
0.572828
0.567115
0.547
0.514387
0.503295
0.492015
0.523941
0.525144
0.555606
0.571118
0.574007
0.573777
0.572181
0.570622
0.569071
0.567153
0.565003
0.562887
0.561235
0.560308
0.559966
0.559933
0.560062
0.560314
0.560829
0.561854
0.563716
0.566547
0.569703
0.572382
0.572914
0.57286
0.568338
0.552617
0.532395
0.493032
0.505103
0.542357
0.567981
0.574022
0.574057
0.573119
0.571616
0.570065
0.567945
0.56505
0.561838
0.559063
0.55754
0.557264
0.557577
0.557893
0.558075
0.55796
0.557809
0.557905
0.559099
0.56211
0.566371
0.570427
0.572894
0.572931
0.572881
0.569192
0.557737
0.528605
0.512384
0.557842
0.571757
0.57408
0.574028
0.572614
0.571202
0.568995
0.56528
0.560285
0.555647
0.552692
0.552643
0.554141
0.555802
0.556824
0.557159
0.556558
0.555236
0.553359
0.552221
0.553921
0.559482
0.566061
0.571239
0.572913
0.572935
0.572892
0.569519
0.556887
0.529048
0.565481
0.573033
0.574069
0.573671
0.572455
0.5702
0.565567
0.55765
0.547234
0.542857
0.541272
0.545792
0.550844
0.554663
0.556847
0.557376
0.556472
0.553474
0.548307
0.542167
0.537989
0.544379
0.554767
0.565747
0.571813
0.572925
0.572936
0.572886
0.567713
0.545372
0.568907
0.573342
0.574098
0.573729
0.57174
0.566259
0.55425
0.536233
0.518274
0.520798
0.522273
0.536591
0.547555
0.554139
0.557225
0.55808
0.556954
0.553012
0.543723
0.529891
0.513189
0.518634
0.526623
0.548701
0.565739
0.572527
0.572932
0.572929
0.571675
0.559925
0.570959
0.573553
0.57407
0.57324
0.567553
0.551829
0.522806
0.504296
0.501349
0.501354
0.505577
0.526897
0.545456
0.554479
0.558101
0.55918
0.558143
0.553768
0.54196
0.518511
0.496838
0.496838
0.491798
0.507046
0.544108
0.566319
0.572888
0.572933
0.572898
0.567427
0.572569
0.574044
0.57405
0.569082
0.549939
0.510478
0.482162
0.488241
0.502183
0.504358
0.50436
0.523241
0.546428
0.555941
0.55944
0.560469
0.559824
0.555951
0.543579
0.51441
0.498412
0.498918
0.485987
0.47673
0.494668
0.539295
0.56794
0.572897
0.572918
0.570927
0.573833
0.574009
0.57048
0.551805
0.494369
0.464766
0.474026
0.490502
0.505811
0.513686
0.51249
0.528054
0.551332
0.558946
0.561249
0.561918
0.56176
0.559464
0.549609
0.518753
0.508042
0.506202
0.490704
0.476708
0.460171
0.475436
0.54299
0.569484
0.572864
0.572859
0.573806
0.570967
0.554417
0.498793
0.453667
0.453589
0.470898
0.487835
0.508207
0.521913
0.533634
0.544936
0.558962
0.562594
0.563367
0.563597
0.563782
0.563237
0.558544
0.539165
0.526198
0.513732
0.495665
0.475991
0.460205
0.460178
0.481465
0.547446
0.569651
0.572831
0.570597
0.556763
0.51176
0.454516
0.453622
0.453669
0.464443
0.485831
0.5135
0.539486
0.552445
0.559867
0.564841
0.565516
0.565289
0.565235
0.565531
0.566025
0.565203
0.558759
0.548844
0.530821
0.501832
0.477522
0.460178
0.46021
0.460201
0.497587
0.548661
0.569457
0.55936
0.523495
0.503454
0.45498
0.453671
0.454373
0.463383
0.494789
0.535525
0.557302
0.563961
0.566878
0.567415
0.566824
0.566225
0.566078
0.566357
0.567174
0.567913
0.567338
0.563688
0.553937
0.528702
0.488207
0.46777
0.468378
0.466434
0.499692
0.504389
0.553777
0.542816
0.510511
0.526036
0.486496
0.463976
0.459854
0.480747
0.530174
0.559293
0.56702
0.568654
0.56847
0.567427
0.566371
0.565712
0.565556
0.565845
0.566687
0.567935
0.569124
0.569357
0.566937
0.557379
0.531311
0.499011
0.483579
0.495073
0.522154
0.502909
0.534347
0.524782
0.510502
0.539674
0.517154
0.482857
0.495838
0.532667
0.561212
0.569178
0.569599
0.568888
0.567544
0.565927
0.564424
0.563642
0.563452
0.563803
0.564766
0.566441
0.568194
0.569669
0.570251
0.569094
0.561556
0.543434
0.524519
0.521099
0.526162
0.502897
0.513923
0.511154
0.521594
0.539766
0.522078
0.522762
0.544715
0.564293
0.570048
0.57013
0.569592
0.567324
0.56457
0.562075
0.560223
0.559306
0.559053
0.559452
0.560574
0.562679
0.56536
0.568194
0.570278
0.570627
0.570386
0.565087
0.553098
0.541715
0.536588
0.518508
0.510514
0.511733
0.539136
0.542728
0.536674
0.554194
0.566883
0.570104
0.570174
0.57009
0.567176
0.562798
0.558606
0.555597
0.553876
0.55305
0.552702
0.552825
0.553631
0.555731
0.559281
0.563819
0.568112
0.570608
0.570688
0.57063
0.566427
0.557545
0.548843
0.538746
0.515621
0.516917
0.547216
0.551181
0.557162
0.567536
0.570143
0.57019
0.570113
0.566812
0.560021
0.553519
0.549312
0.547772
0.547384
0.547297
0.546766
0.545746
0.544691
0.544681
0.547159
0.55293
0.561137
0.56773
0.570655
0.570713
0.570585
0.566974
0.560006
0.549739
0.519947
0.520719
0.55369
0.561845
0.567691
0.570168
0.570204
0.570127
0.566005
0.554924
0.542802
0.537407
0.538026
0.541115
0.543603
0.544879
0.543992
0.541033
0.536029
0.530379
0.52647
0.52896
0.541267
0.557433
0.567532
0.570681
0.570726
0.570652
0.567651
0.558831
0.526715
0.530046
0.561379
0.568561
0.570194
0.570215
0.570147
0.565178
0.547309
0.524493
0.51421
0.518572
0.527496
0.536968
0.543306
0.545399
0.54445
0.539995
0.530027
0.518128
0.507261
0.502777
0.506574
0.527278
0.554975
0.56804
0.570708
0.570731
0.570695
0.565816
0.540468
0.545539
0.56697
0.570215
0.57022
0.570174
0.56522
0.54189
0.50444
0.492006
0.494193
0.506302
0.521012
0.536094
0.543818
0.546575
0.545696
0.540748
0.529696
0.512198
0.500436
0.493013
0.485074
0.484872
0.518168
0.55427
0.569407
0.570729
0.570724
0.569303
0.554845
0.557934
0.569449
0.570221
0.570218
0.566811
0.538569
0.492953
0.475529
0.485752
0.494843
0.502034
0.519751
0.53675
0.544907
0.547791
0.547147
0.54244
0.53081
0.512026
0.496948
0.494636
0.485081
0.46988
0.469866
0.508054
0.556966
0.570649
0.570738
0.570681
0.562939
0.564177
0.570192
0.570246
0.569345
0.543825
0.474836
0.461101
0.47548
0.488234
0.495631
0.5012
0.520326
0.538301
0.546192
0.548789
0.548408
0.544544
0.533633
0.513092
0.495908
0.49541
0.488305
0.47169
0.453534
0.453436
0.512897
0.563068
0.570689
0.570715
0.567098
0.567725
0.570237
0.570143
0.555019
0.478128
0.45684
0.46055
0.478618
0.490413
0.494174
0.501525
0.522997
0.540782
0.547613
0.549737
0.549558
0.546743
0.537852
0.516704
0.497342
0.493407
0.491313
0.478332
0.455816
0.451824
0.451612
0.537975
0.567715
0.570662
0.569535
0.570076
0.57014
0.562817
0.517511
0.456847
0.456813
0.462946
0.480265
0.489704
0.494119
0.503537
0.529299
0.544435
0.549424
0.550971
0.550935
0.549164
0.543247
0.525382
0.500635
0.492541
0.49139
0.482641
0.462244
0.451645
0.451826
0.481516
0.550879
0.568761
0.569535
0.569929
0.565419
0.541103
0.459504
0.456834
0.456852
0.465841
0.479443
0.488999
0.494645
0.514387
0.539379
0.54902
0.551929
0.552908
0.552949
0.55203
0.548975
0.538155
0.512684
0.493564
0.490936
0.483218
0.468626
0.452351
0.451659
0.451848
0.522672
0.55746
0.568647
0.565235
0.549237
0.511322
0.456857
0.456862
0.457464
0.468141
0.478376
0.48885
0.505329
0.534103
0.549543
0.55384
0.555182
0.555712
0.555773
0.555405
0.554231
0.549824
0.53399
0.505722
0.490949
0.482543
0.473648
0.456403
0.451849
0.457736
0.501981
0.537805
0.559754
0.553387
0.527019
0.509993
0.475529
0.459334
0.45936
0.467926
0.479202
0.499677
0.531065
0.551105
0.556665
0.557925
0.558312
0.558484
0.558523
0.55847
0.558269
0.557224
0.551792
0.532655
0.50327
0.483753
0.47358
0.460544
0.460613
0.491262
0.51203
0.519598
0.545822
0.543848
0.52697
0.529636
0.510514
0.466077
0.459862
0.469917
0.49384
0.529717
0.552946
0.559254
0.560128
0.560019
0.559598
0.559254
0.559221
0.559533
0.56007
0.560341
0.559809
0.554102
0.533387
0.500112
0.476345
0.463422
0.472248
0.527142
0.534348
0.524029
0.539489
0.542958
0.530271
0.531241
0.511845
0.471193
0.464426
0.487907
0.528821
0.554419
0.560562
0.560597
0.560453
0.559243
0.557907
0.55694
0.556851
0.557678
0.559034
0.560409
0.560927
0.560922
0.555985
0.534123
0.495996
0.471169
0.477999
0.522006
0.534319
0.53437
0.540918
0.537561
0.531262
0.531181
0.492828
0.477385
0.48527
0.52714
0.555246
0.560657
0.5607
0.560581
0.557635
0.553398
0.549201
0.546206
0.546012
0.548633
0.552617
0.557035
0.560336
0.560986
0.560954
0.5571
0.533631
0.494899
0.484881
0.495813
0.534347
0.53352
0.54029
0.504043
0.531065
0.520746
0.491311
0.491157
0.526044
0.555283
0.560678
0.560732
0.560401
0.555404
0.546726
0.536916
0.529477
0.524806
0.524655
0.528864
0.535616
0.545151
0.554221
0.559978
0.561006
0.560969
0.557381
0.533832
0.50057
0.495588
0.522986
0.530216
0.520784
0.453113
0.503972
0.494127
0.49193
0.524412
0.554766
0.5607
0.560752
0.560355
0.553395
0.539963
0.527593
0.516871
0.511224
0.507641
0.507877
0.511152
0.516184
0.526026
0.537922
0.551831
0.559803
0.561021
0.560981
0.557165
0.532374
0.49839
0.501001
0.513374
0.470833
0.449787
0.458211
0.484258
0.517519
0.553007
0.560722
0.56077
0.560363
0.552406
0.533787
0.516634
0.51429
0.508047
0.506267
0.505995
0.505995
0.506411
0.508526
0.513764
0.515478
0.531158
0.550794
0.55982
0.561039
0.560995
0.555723
0.52632
0.499065
0.474006
0.456225
0.449787
0.459476
0.506237
0.549377
0.560732
0.5608
0.56069
0.552585
0.533536
0.503654
0.495426
0.50761
0.506995
0.505823
0.506163
0.506139
0.506154
0.507993
0.508051
0.496184
0.501583
0.531565
0.551265
0.560296
0.561068
0.561011
0.553031
0.517878
0.47216
0.456224
0.454607
0.494152
0.543633
0.560637
0.560805
0.560749
0.553573
0.534654
0.508599
0.492911
0.49291
0.501352
0.50588
0.505701
0.506436
0.506434
0.506086
0.507275
0.502558
0.49373
0.49373
0.5071
0.533331
0.552494
0.561008
0.561079
0.561011
0.547799
0.502527
0.461057
0.485389
0.538482
0.55963
0.560804
0.560775
0.555483
0.534634
0.511387
0.495313
0.49291
0.492911
0.495027
0.503745
0.505489
0.506153
0.506163
0.506012
0.505452
0.49644
0.49373
0.49373
0.494532
0.51106
0.533398
0.554636
0.56104
0.561081
0.560432
0.541819
0.490462
0.525953
0.55636
0.560791
0.560795
0.557472
0.535541
0.508235
0.49572
0.492913
0.492912
0.492911
0.492913
0.50172
0.505113
0.50544
0.505853
0.505807
0.503178
0.49373
0.49373
0.493955
0.494009
0.4966
0.508456
0.534389
0.557151
0.561064
0.561069
0.557321
0.528443
0.54702
0.560457
0.560803
0.560015
0.537537
0.50273
0.497628
0.495709
0.496198
0.500146
0.494791
0.492914
0.500587
0.50486
0.505887
0.506282
0.50546
0.501178
0.493872
0.496899
0.502701
0.497142
0.496569
0.498911
0.503028
0.536146
0.560072
0.561076
0.560921
0.547952
0.555424
0.560781
0.560738
0.545313
0.501098
0.500999
0.500914
0.503707
0.509407
0.5152
0.504054
0.495134
0.499846
0.504672
0.506739
0.506915
0.504972
0.49981
0.496725
0.507996
0.517567
0.510975
0.506413
0.503153
0.501916
0.501994
0.545129
0.561011
0.561054
0.556051
0.560091
0.560709
0.552272
0.504199
0.501066
0.508514
0.517892
0.523009
0.526204
0.527762
0.517502
0.501388
0.50031
0.504878
0.507678
0.507664
0.50499
0.500331
0.503559
0.521717
0.529266
0.528133
0.526337
0.52143
0.511104
0.501917
0.504307
0.552243
0.560979
0.560621
0.559823
0.555522
0.522317
0.504219
0.51623
0.53127
0.537298
0.537812
0.53642
0.534605
0.528161
0.510336
0.503291
0.50662
0.509733
0.509584
0.506366
0.503464
0.513081
0.530993
0.535668
0.537871
0.539836
0.540177
0.534945
0.519207
0.504405
0.52137
0.555214
0.560003
0.554616
0.539807
0.522395
0.525021
0.542293
0.54575
0.543894
0.541842
0.540528
0.538904
0.534542
0.519731
0.509267
0.510776
0.513502
0.513295
0.510188
0.509639
0.522756
0.536445
0.539768
0.541414
0.542671
0.545249
0.547737
0.54546
0.527811
0.521522
0.538447
0.553998
0.549547
0.541297
0.535867
0.548471
0.548769
0.546412
0.543096
0.541759
0.541958
0.541742
0.53842
0.527202
0.516375
0.516397
0.518432
0.518219
0.515699
0.517063
0.529976
0.540008
0.542349
0.542334
0.542262
0.543909
0.547761
0.551528
0.551516
0.538754
0.542034
0.549264
0.553116
0.548698
0.548907
0.548857
0.548834
0.543621
0.540891
0.540904
0.542155
0.543129
0.540588
0.531753
0.522793
0.521957
0.523363
0.523157
0.521367
0.523636
0.534058
0.542014
0.543439
0.542187
0.540708
0.540613
0.543551
0.549742