/*--------------------------------*- C++ -*----------------------------------*\
| =========                 |                                                 |
| \\      /  F ield         | OpenFOAM: The Open Source CFD Toolbox           |
|  \\    /   O peration     | Version:  v1606+                                |
|   \\  /    A nd           | Web:      www.OpenFOAM.com                      |
|    \\/     M anipulation  |                                                 |
\*---------------------------------------------------------------------------*/
FoamFile
{
    version     2.0;
    format      ascii;
    class       volScalarField;
    location    "0.36";
    object      nut.air;
}
// * * * * * * * * * * * * * * * * * * * * * * * * * * * * * * * * * * * * * //

dimensions      [0 2 -1 0 0 0 0];

internalField   nonuniform List<scalar> 
6000
(
0.000528559
0.00486447
0.00774695
0.00844383
0.00866743
0.00876456
0.00880724
0.00882483
0.00883274
0.00883692
0.00884019
0.00884258
0.00884419
0.00884567
0.0088467
0.00884717
0.00884628
0.00884433
0.00884244
0.0088402
0.00883794
0.00883492
0.0088273
0.00880922
0.00876578
0.00866835
0.00844525
0.0077479
0.00486466
0.000528553
0.000441445
0.00295486
0.00588277
0.00769046
0.00859326
0.00901134
0.00920531
0.00929507
0.00934304
0.0093674
0.0093806
0.00938688
0.00939192
0.00939759
0.00940245
0.00940188
0.00939803
0.00939305
0.00938974
0.00938531
0.00937225
0.00934834
0.00930267
0.00921427
0.00902052
0.00860245
0.00769416
0.00587761
0.00294388
0.00044121
0.000368857
0.00240342
0.00511556
0.00713745
0.00836631
0.00903541
0.00938995
0.00956734
0.0096478
0.00966588
0.00966103
0.00965239
0.00964796
0.00964714
0.00964802
0.00964847
0.00964932
0.0096521
0.00965899
0.00967129
0.00967943
0.00966415
0.00958687
0.00941056
0.0090586
0.00839287
0.00715725
0.00511736
0.00239034
0.000368732
0.000329831
0.00235519
0.00509748
0.00716281
0.00848323
0.00926616
0.00971959
0.00995251
0.0100509
0.0100795
0.0100637
0.0100405
0.0100226
0.0100101
0.0100041
0.0100054
0.0100141
0.0100298
0.0100514
0.0100795
0.0100995
0.0100741
0.00997786
0.00974749
0.00929626
0.00851123
0.00718809
0.00511095
0.00234751
0.000330018
0.000324607
0.00262072
0.00539506
0.00736471
0.00860972
0.00937133
0.00983154
0.0100829
0.0102052
0.0102398
0.010241
0.0102154
0.0101812
0.0101533
0.0101387
0.0101413
0.0101603
0.0101927
0.0102312
0.0102609
0.0102642
0.0102347
0.0101146
0.0098646
0.00940495
0.00863893
0.00738935
0.00540921
0.00261445
0.000324413
0.000345465
0.00310307
0.00566915
0.00746058
0.00860479
0.00932573
0.0097797
0.0100437
0.0101853
0.0102474
0.0102501
0.010229
0.0101993
0.0101738
0.0101606
0.0101637
0.0101828
0.0102143
0.0102497
0.0102762
0.0102791
0.010221
0.0100818
0.00982009
0.00936867
0.00864464
0.00750634
0.00571081
0.00311515
0.000344213
0.000378338
0.0032582
0.00578932
0.00748508
0.00850739
0.00918239
0.00962988
0.00991913
0.0100965
0.0101877
0.0102147
0.0102141
0.0102009
0.0101854
0.010177
0.0101806
0.0101963
0.0102189
0.0102389
0.0102458
0.0102243
0.0101372
0.00996433
0.00968016
0.00923844
0.00856097
0.00753741
0.00583337
0.00328895
0.000379768
0.000383569
0.00325092
0.00576084
0.00737724
0.00833427
0.00901014
0.0094806
0.00980258
0.0100061
0.0101227
0.0101683
0.0101792
0.0101818
0.0101787
0.0101764
0.0101807
0.0101911
0.0102021
0.0102066
0.0102023
0.0101614
0.0100499
0.00985278
0.00953781
0.00907506
0.00840536
0.00744898
0.00583
0.00328734
0.000388217
0.000380453
0.00314181
0.00558333
0.00713939
0.0081299
0.00884948
0.00937204
0.00973687
0.00996127
0.0100779
0.0101297
0.0101435
0.01015
0.0101537
0.0101553
0.0101597
0.0101666
0.0101705
0.0101704
0.0101621
0.0101151
0.0100056
0.00978804
0.00943122
0.008918
0.00820825
0.00722717
0.00567353
0.00319598
0.000385555
0.000372968
0.00294432
0.00528233
0.00684844
0.00793481
0.00874008
0.00931401
0.00972695
0.00999019
0.0101056
0.0101385
0.0101469
0.010147
0.0101504
0.0101525
0.0101566
0.0101622
0.0101652
0.0101701
0.0101666
0.0101406
0.0100313
0.00977407
0.0093687
0.0088034
0.00801073
0.0069399
0.00538194
0.00300657
0.000378155
0.000362225
0.00267801
0.0049262
0.00663025
0.00784068
0.0086831
0.00929031
0.00975496
0.0100889
0.0102673
0.010289
0.0102577
0.010258
0.0102597
0.0102608
0.0102639
0.0102688
0.0102721
0.010278
0.0103153
0.010297
0.010121
0.0097922
0.00933445
0.00873441
0.00790059
0.00670326
0.00501749
0.00274006
0.000367644
0.000339556
0.002338
0.00469705
0.00660906
0.00793418
0.00876307
0.00935135
0.00985795
0.0102886
0.0105744
0.0106342
0.0105888
0.0105436
0.0105274
0.0105215
0.0105237
0.0105341
0.0105547
0.0106057
0.0106555
0.0105955
0.010311
0.00988547
0.00938504
0.00880119
0.00797132
0.00665239
0.00474818
0.00240872
0.000346096
0.000313401
0.00219145
0.00478461
0.00700318
0.00843013
0.00913094
0.00961044
0.0101136
0.0106331
0.0110495
0.0111464
0.0111564
0.011141
0.011129
0.0111197
0.0111205
0.0111317
0.0111455
0.0111641
0.0111592
0.0110651
0.0106482
0.0101339
0.00963842
0.00916637
0.00844556
0.00700414
0.00479811
0.00221885
0.00031878
0.000313153
0.00246866
0.00556255
0.00791414
0.00930945
0.00987026
0.010175
0.0105854
0.0111676
0.0116469
0.0117687
0.0118382
0.0118815
0.0119146
0.0119343
0.0119333
0.0119125
0.0118802
0.0118408
0.011777
0.0116585
0.0111762
0.0105983
0.0102002
0.00990106
0.00932354
0.00788987
0.00551492
0.00246052
0.0003173
0.000341611
0.00336476
0.00660756
0.00877796
0.00999399
0.0105709
0.010766
0.0110596
0.0115732
0.0119282
0.0121451
0.0123345
0.0124859
0.0125956
0.0126501
0.0126474
0.0125886
0.0124766
0.0123279
0.0121438
0.011932
0.0115769
0.0110636
0.0107822
0.0105846
0.00999615
0.00875707
0.00656618
0.00331487
0.000342624
0.000420061
0.0039414
0.00706341
0.00897531
0.00998526
0.0105974
0.0108979
0.0112328
0.0116343
0.01191
0.0120978
0.0123149
0.0125225
0.0126871
0.0127746
0.0127698
0.0126741
0.0125054
0.0122999
0.0120891
0.0119074
0.011631
0.011227
0.0108995
0.0105985
0.00998066
0.00896865
0.00704897
0.00392837
0.000417268
0.00045497
0.00397109
0.00693472
0.00871718
0.00968251
0.0103227
0.0107314
0.0111431
0.0115245
0.0117654
0.0119233
0.0121127
0.0123158
0.0124829
0.0125738
0.0125677
0.0124662
0.0122934
0.0120907
0.011907
0.0117547
0.0115115
0.011127
0.0107202
0.010314
0.00967416
0.00871185
0.00693482
0.00397711
0.000455517
0.000454454
0.00376787
0.00652565
0.00825592
0.00924017
0.00992622
0.0104233
0.010902
0.011314
0.0115693
0.0117254
0.0118911
0.0120755
0.0122306
0.0123149
0.012308
0.0122117
0.0120496
0.0118649
0.011704
0.0115509
0.0112915
0.010876
0.0104011
0.00990595
0.00922444
0.00824956
0.00653242
0.00378009
0.000455597
0.000447148
0.00342363
0.00602595
0.00771271
0.00873468
0.00945955
0.0100263
0.0105699
0.011035
0.0113347
0.0115075
0.0116602
0.0118253
0.011966
0.0120426
0.0120355
0.0119463
0.011798
0.0116315
0.0114816
0.0113089
0.0110034
0.0105345
0.00999442
0.00942894
0.00870975
0.00769987
0.00603071
0.00343514
0.000448922
0.000430742
0.00309012
0.00550777
0.0071394
0.00818751
0.00894509
0.00957212
0.010173
0.0107015
0.0110573
0.0112581
0.0114103
0.0115631
0.0116921
0.0117622
0.0117553
0.0116726
0.0115355
0.0113798
0.0112282
0.0110246
0.0106611
0.0101285
0.00953128
0.00890541
0.00815318
0.00711754
0.00550684
0.00309932
0.000432877
0.000412109
0.00279046
0.00500488
0.00656297
0.00761889
0.00840238
0.00907939
0.00973265
0.0103274
0.0107417
0.010977
0.0111371
0.0112863
0.0114094
0.0114758
0.0114691
0.0113903
0.0112586
0.0111052
0.0109436
0.0107025
0.0102795
0.00967881
0.00903001
0.00835422
0.00757525
0.00653201
0.00499708
0.00279753
0.000414242
0.000392196
0.00244423
0.00450307
0.00599256
0.00704308
0.00784825
0.00856549
0.00926291
0.00992765
0.0103976
0.010665
0.0108392
0.0109916
0.0111144
0.0111801
0.0111736
0.0110957
0.0109639
0.0108061
0.0106287
0.0103526
0.00987056
0.00920134
0.00850653
0.00779145
0.00699077
0.0059535
0.00449061
0.0024563
0.000394325
0.000371914
0.00210649
0.00402596
0.00544328
0.00647673
0.00729206
0.00803864
0.0087786
0.00950228
0.0100316
0.0103312
0.0105191
0.0106792
0.0108057
0.0108729
0.0108666
0.0107875
0.0106515
0.0104851
0.0102919
0.00998069
0.00943697
0.00870949
0.0079705
0.00722652
0.0064161
0.00539653
0.00400679
0.0021152
0.000374108
0.000351373
0.00183935
0.0036005
0.00493004
0.00592968
0.00674148
0.00750783
0.0082854
0.0090615
0.00964773
0.00998002
0.010183
0.0103535
0.0104855
0.0105551
0.010549
0.0104677
0.0103261
0.0101484
0.00993849
0.00959217
0.00899003
0.00820836
0.00743123
0.00666735
0.00586087
0.00487593
0.00357322
0.00184169
0.00035354
0.000331329
0.00163987
0.00323117
0.0044576
0.00540478
0.00620225
0.00698377
0.00779351
0.00861476
0.00925492
0.00962008
0.00983798
0.0100191
0.0101571
0.0102293
0.0102234
0.0101399
0.00999217
0.00980305
0.00957672
0.00919666
0.0085392
0.00771186
0.00689978
0.0061201
0.00532801
0.00439705
0.00319754
0.00163785
0.000333434
0.000312244
0.0014818
0.00291364
0.00402274
0.00490039
0.00567908
0.00647569
0.00731872
0.00817357
0.00885951
0.00925181
0.00948507
0.00967897
0.00982328
0.00989831
0.00989272
0.00980678
0.0096526
0.00945003
0.00920703
0.00879956
0.0080973
0.00723432
0.00638632
0.00558997
0.00481683
0.00395632
0.00287414
0.00147367
0.000314227
0.000294272
0.00135842
0.00263467
0.00361527
0.00441561
0.00517826
0.00599006
0.00686588
0.0077481
0.0084572
0.00887612
0.00913085
0.00933643
0.00948696
0.0095648
0.00955954
0.00947128
0.00931101
0.00909656
0.0088308
0.00839778
0.00767383
0.00678112
0.00589773
0.00508321
0.00432665
0.00354369
0.00259105
0.00134898
0.000296021
0.000277795
0.00127102
0.00237894
0.00322368
0.00394473
0.00469821
0.00553483
0.00644459
0.00734487
0.00805988
0.00850035
0.0087746
0.00899265
0.00915009
0.00923087
0.00922601
0.00913553
0.00896873
0.00874182
0.00845665
0.00800297
0.00727453
0.00636271
0.00544233
0.00460066
0.00385255
0.00314777
0.00232974
0.00125695
0.000279477
0.00026292
0.00119017
0.00212262
0.00283522
0.00349142
0.00423868
0.00510804
0.00606036
0.0069664
0.00767321
0.00812674
0.00842556
0.00865371
0.00881567
0.00889817
0.00889377
0.0088025
0.0086319
0.00839508
0.00808609
0.0076204
0.0069017
0.00598329
0.00501797
0.00414096
0.0033978
0.00275658
0.00206776
0.00116571
0.00026434
0.00024946
0.00108604
0.0018524
0.00244696
0.00305574
0.00380554
0.00471925
0.00571307
0.00661462
0.00730273
0.00776634
0.00808421
0.00832186
0.00848605
0.00856892
0.00856504
0.00847443
0.00830233
0.00805649
0.00772911
0.00725449
0.00655566
0.00564233
0.00463318
0.00370905
0.00296187
0.00236728
0.00179488
0.00105507
0.0002504
0.00023635
0.000935743
0.00156551
0.00207619
0.00264328
0.00340207
0.00436951
0.00539653
0.00627879
0.00694726
0.00741887
0.00775265
0.00799756
0.00816343
0.00824652
0.00824321
0.00815348
0.00798053
0.00772794
0.00738524
0.00690366
0.00622552
0.0053324
0.00428959
0.00330942
0.00255104
0.00199774
0.00150655
0.000901949
0.000236903
0.000221801
0.000748882
0.00128325
0.0017188
0.00225275
0.00304273
0.00407254
0.00509308
0.00594996
0.00660229
0.00708153
0.00742919
0.00768172
0.00785019
0.00793404
0.00793131
0.00784191
0.00766726
0.00740765
0.0070517
0.00656326
0.00590182
0.00503497
0.00400205
0.00295497
0.00216633
0.00164411
0.00122832
0.000717791
0.000221978
0.000205756
0.000597609
0.00102063
0.00136948
0.0018987
0.00274905
0.00382143
0.00480781
0.00563249
0.00627073
0.00675605
0.0071156
0.00737635
0.00754884
0.00763443
0.00763232
0.00754237
0.00736467
0.00709759
0.0067304
0.00623677
0.00559003
0.00475728
0.00376103
0.00267258
0.00181959
0.00130149
0.000970691
0.000570404
0.00020561
0.000190807
0.000448051
0.000743549
0.00105143
0.00160046
0.00255068
0.00360761
0.00455377
0.00534168
0.00596455
0.00645051
0.00681862
0.0070871
0.00726456
0.00735278
0.00735145
0.0072603
0.00707884
0.00680484
0.00642981
0.00593676
0.00530598
0.00451145
0.00355777
0.00249097
0.00153065
0.000994256
0.000700086
0.000426805
0.000190425
0.000175016
0.000307735
0.000496346
0.000788421
0.00139766
0.0024311
0.00345261
0.00435236
0.00510035
0.00570321
0.00618116
0.0065516
0.00682518
0.00700789
0.00709962
0.00709971
0.00700762
0.00682293
0.0065446
0.00616757
0.00568353
0.00507339
0.00431969
0.00341426
0.00238521
0.00133963
0.00074271
0.000467328
0.000295837
0.0001745
0.000158967
0.000217313
0.000341453
0.000596109
0.00131784
0.00238715
0.00337546
0.00422253
0.00492512
0.00549918
0.00595961
0.00632277
0.00659588
0.00678212
0.00687808
0.00688032
0.00678743
0.0066006
0.00632321
0.00595438
0.00548833
0.00490841
0.00420079
0.00334904
0.00235521
0.00127543
0.000565323
0.000325791
0.000210113
0.000158393
0.000143781
0.000164245
0.000258742
0.000519561
0.00140415
0.0024521
0.00338251
0.00416564
0.00481451
0.00534905
0.00578343
0.00612905
0.00639339
0.00657791
0.00667624
0.00668049
0.00658811
0.00640321
0.00613421
0.00578392
0.00534524
0.00480648
0.00415392
0.00336786
0.00243506
0.00138493
0.000503954
0.000250136
0.000160118
0.000143258
0.000131895
0.000131992
0.000230654
0.00061551
0.00162579
0.00261054
0.00346095
0.00416984
0.00475784
0.0052461
0.00564778
0.00596946
0.00621781
0.00639404
0.00649079
0.00649623
0.0064063
0.00622866
0.00597551
0.00565063
0.00524648
0.00475592
0.00416584
0.00345633
0.00260784
0.00161453
0.000606122
0.000226944
0.000129571
0.000131474
0.000120534
0.000125421
0.000282682
0.000816511
0.00185857
0.00280809
0.00358339
0.00421628
0.00474092
0.00518104
0.00554732
0.00584282
0.00607134
0.00623404
0.00632462
0.00632967
0.00624448
0.00607952
0.00584765
0.00555118
0.0051843
0.0047435
0.00421786
0.00358521
0.00280791
0.00185904
0.000811366
0.000281409
0.000124777
0.000120164
0.000108354
0.000166316
0.000402294
0.00121071
0.00219356
0.00303701
0.00373354
0.00428816
0.00474835
0.00514209
0.0054745
0.00574425
0.00595214
0.00609907
0.00618026
0.00618372
0.00610551
0.00595668
0.00574787
0.00547947
0.00514843
0.00475562
0.00429546
0.00374309
0.00305139
0.00221307
0.00123172
0.000406658
0.000166637
0.000108085
0.000103492
0.00025082
0.000821789
0.00173061
0.00256872
0.0032828
0.00387479
0.00434955
0.00475745
0.00511674
0.00542092
0.00566662
0.00585517
0.00598693
0.00605802
0.00605944
0.005989
0.00585634
0.00566904
0.00542643
0.00512585
0.00476995
0.00436425
0.00389279
0.0033074
0.00260087
0.00176561
0.000850191
0.000254746
0.000103469
0.000106826
0.000585519
0.00143133
0.00218631
0.00287802
0.00347724
0.00396807
0.00438013
0.00476267
0.00509976
0.00538
0.00560468
0.00577644
0.00589505
0.00595708
0.00595667
0.00589334
0.00577452
0.00560538
0.005385
0.00511049
0.00477994
0.00440288
0.00399294
0.00350688
0.00291404
0.00222527
0.00146787
0.000603448
0.000107074
0.000121684
0.000970647
0.00183032
0.00253587
0.00312269
0.0035946
0.00399689
0.00439587
0.00477113
0.00508905
0.00534839
0.00555594
0.00571425
0.00582219
0.00587696
0.00587529
0.00581768
0.00570936
0.00555404
0.0053513
0.00509898
0.00479001
0.00442473
0.0040283
0.00362576
0.00315409
0.00257105
0.00186232
0.00098817
0.00012253
0.000140981
0.00111772
0.00203272
0.00270719
0.00319296
0.00359833
0.00400274
0.00441818
0.00478129
0.00508212
0.00532546
0.00552102
0.0056691
0.00576859
0.00581784
0.00581542
0.00576206
0.00566117
0.00551532
0.00532439
0.00508843
0.00479851
0.00444738
0.00403943
0.00362917
0.00322215
0.0027372
0.00205742
0.00113333
0.000142316
0.000150642
0.00111583
0.0020235
0.0026555
0.00314137
0.0035749
0.00402431
0.00444056
0.00479336
0.00508171
0.0053161
0.00550345
0.00564303
0.00573529
0.00578005
0.00577705
0.00572686
0.00563151
0.00549236
0.00530884
0.00508181
0.00480518
0.00446649
0.00406175
0.00361175
0.00316717
0.00267549
0.00203875
0.00112776
0.000152275
0.000151475
0.00102932
0.00189579
0.00254586
0.00306498
0.00356957
0.00404721
0.00446513
0.00481374
0.00509761
0.00532766
0.00550696
0.00563766
0.00572266
0.00576304
0.0057592
0.00571148
0.00562098
0.00548804
0.00531104
0.00508907
0.00481771
0.00448667
0.00408332
0.00360932
0.00309696
0.00256092
0.00190402
0.00103609
0.000152982
0.000150246
0.000934296
0.00174305
0.00240988
0.00301215
0.00356776
0.0040699
0.00450004
0.0048563
0.0051413
0.00536356
0.00553167
0.00565218
0.00572907
0.00576447
0.00575911
0.00571323
0.0056274
0.00550127
0.00533241
0.00511744
0.00485077
0.00451874
0.00410417
0.00361184
0.00304659
0.0024291
0.0017421
0.000930979
0.00015155
0.000146746
0.000783006
0.00157964
0.00230768
0.00297525
0.00357961
0.00410519
0.00454637
0.00490771
0.0051926
0.00541374
0.00557395
0.00568238
0.00575006
0.00577967
0.00577196
0.00572721
0.00564565
0.00552667
0.00536807
0.00516364
0.0048966
0.00456301
0.00414788
0.0036336
0.00302819
0.00233713
0.00158823
0.00077574
0.000147558
0.000139776
0.000638037
0.00144829
0.00224247
0.00298007
0.00362812
0.00418351
0.0046448
0.00501128
0.00528221
0.00547627
0.00561837
0.00572016
0.00577865
0.00580213
0.00579145
0.00574689
0.00566856
0.00555555
0.00540542
0.00520972
0.00496906
0.00465321
0.00423565
0.00369681
0.00304455
0.00229648
0.00147207
0.000640507
0.000140217
0.000132014
0.000551123
0.00139111
0.00225241
0.00304448
0.00374568
0.0043244
0.00477229
0.00511926
0.00536945
0.00554672
0.00567037
0.00575419
0.00580635
0.00582499
0.00581143
0.00576616
0.00568936
0.00558054
0.00543997
0.00526616
0.00504418
0.00475543
0.00436676
0.00382897
0.00313422
0.00232499
0.00144796
0.000574071
0.000132827
0.000126095
0.000573248
0.00144886
0.00236084
0.0032238
0.0039394
0.0044741
0.00487212
0.00518361
0.00542018
0.00558443
0.00569976
0.00577793
0.00582675
0.00584314
0.00582775
0.00578122
0.00570395
0.00559604
0.00545854
0.00529368
0.00509462
0.00483363
0.00448089
0.00399843
0.00332774
0.0024628
0.00151814
0.000619679
0.000127626
0.000123779
0.000644325
0.0016048
0.00263179
0.00349026
0.00411281
0.00456464
0.00490932
0.00519701
0.00542141
0.00558012
0.00569898
0.00578502
0.00583658
0.00585414
0.00583868
0.00579091
0.0057114
0.00560015
0.00545711
0.00528782
0.00510169
0.00487352
0.00455736
0.004123
0.003542
0.00274291
0.00171525
0.000696917
0.000126457
0.00012495
0.000798537
0.00196342
0.00296376
0.00368916
0.00421559
0.00461397
0.00493002
0.00516937
0.00538047
0.00554613
0.00567866
0.00577653
0.00583528
0.00585748
0.00584389
0.00579558
0.00571323
0.00559665
0.00544622
0.00526651
0.00506717
0.00485639
0.00458618
0.00419781
0.00368463
0.00301645
0.00208921
0.000893793
0.000128528
0.000132371
0.00113763
0.00235669
0.00320146
0.0038157
0.0042922
0.00465713
0.00491395
0.00512313
0.0053098
0.00549037
0.00564277
0.00575536
0.00582506
0.00585391
0.00584367
0.00579582
0.00571127
0.00559011
0.00543229
0.00524012
0.00502563
0.00479446
0.00454128
0.00424079
0.00377209
0.00320061
0.0024099
0.00126789
0.00013803
0.000150693
0.00143491
0.00258258
0.00334305
0.00391229
0.00431651
0.00461303
0.0048679
0.00508201
0.00526263
0.00544592
0.0056084
0.00573086
0.00580937
0.00584481
0.00583857
0.00579215
0.00570658
0.00558253
0.0054203
0.00522087
0.00498655
0.00471897
0.00443388
0.00413368
0.0037987
0.0033077
0.00256021
0.00147099
0.000160032
0.000175417
0.00153846
0.00262724
0.00336995
0.00384249
0.00422131
0.00452725
0.00479475
0.00502175
0.00521931
0.00540924
0.00557648
0.00570504
0.00579023
0.00583153
0.00582943
0.00578522
0.00569992
0.00557485
0.00541109
0.00520821
0.0049671
0.00467983
0.00435526
0.00400946
0.00365015
0.00319524
0.00254538
0.00150368
0.000178504
0.00018696
0.00144926
0.00249231
0.00320217
0.00368046
0.00407505
0.004431
0.00472156
0.00496341
0.00517657
0.00537425
0.00554527
0.00567841
0.00576903
0.0058155
0.00581746
0.00577606
0.00569222
0.00556796
0.00540479
0.00520354
0.00496069
0.00466981
0.00431808
0.00392384
0.00348989
0.00302116
0.00235236
0.00136852
0.000183576
0.000185789
0.00131456
0.00230723
0.00301147
0.00354969
0.00398901
0.00435287
0.00465299
0.00490724
0.00513414
0.00533898
0.0055141
0.0056516
0.00574709
0.00579825
0.00580417
0.00576595
0.00568468
0.00556318
0.00540401
0.00520792
0.00497109
0.00468287
0.00432516
0.00388265
0.00338625
0.00283457
0.0021438
0.00121118
0.000180163
0.000177922
0.00107501
0.00206534
0.00285451
0.00345624
0.00391641
0.00428368
0.00458973
0.00485449
0.00509194
0.00530352
0.00548339
0.00562551
0.00572575
0.00578131
0.0057911
0.00575624
0.00567818
0.0055607
0.00540776
0.00522082
0.00500045
0.00472863
0.00437451
0.00390446
0.00332588
0.0026735
0.00189715
0.000946313
0.000170775
0.000167102
0.000890073
0.00189771
0.00276605
0.0033896
0.00384952
0.00421648
0.00452811
0.00480296
0.00505006
0.00526868
0.00545414
0.00560131
0.00570622
0.00576603
0.00577949
0.00574777
0.00567247
0.00555807
0.00541093
0.00523821
0.00503596
0.00479299
0.00447104
0.00399227
0.00335316
0.00258524
0.00171815
0.00076933
0.000159738
0.000158386
0.000814301
0.00187049
0.00274779
0.00333698
0.00377723
0.00414317
0.00446392
0.00475114
0.00500874
0.00523558
0.00542742
0.00557999
0.0056896
0.00575345
0.00577028
0.00574085
0.00566685
0.00555423
0.00540925
0.005238
0.00504752
0.00482986
0.00453988
0.00411374
0.00347242
0.00262706
0.00166151
0.000691585
0.000150543
0.000150923
0.000889766
0.0019286
0.00271241
0.00325235
0.00368064
0.00405852
0.0043961
0.00469872
0.00496875
0.00520484
0.00540386
0.0055622
0.00567647
0.00574404
0.0057637
0.00573556
0.00566172
0.00554607
0.00539378
0.00521224
0.00500975
0.00479633
0.0045434
0.0041716
0.00362677
0.00279521
0.00176925
0.000731276
0.000143455
0.000152214
0.00101021
0.00199283
0.00264305
0.00311636
0.0035652
0.00396758
0.00432633
0.00464648
0.00493022
0.00517681
0.00538385
0.00554829
0.00566705
0.00573774
0.00575926
0.00573149
0.00565585
0.00553486
0.00537269
0.0051751
0.00494886
0.00471121
0.0044801
0.00418738
0.00370296
0.00301952
0.00200547
0.000845547
0.000139505
0.000157984
0.00114873
0.00196106
0.00251708
0.00298674
0.00345353
0.00387776
0.00425703
0.00459538
0.00489464
0.00515351
0.00536963
0.00554027
0.00566295
0.00573586
0.00575812
0.00572937
0.00565035
0.00552266
0.00535001
0.00513687
0.00489019
0.00461993
0.00436455
0.0041025
0.00376256
0.00315178
0.00233295
0.00109938
0.000142822
0.000164097
0.00112263
0.00185705
0.00237277
0.00286987
0.00335107
0.00379332
0.00419215
0.00455014
0.00486679
0.00513951
0.00536523
0.0055415
0.00566682
0.0057405
0.00576224
0.00573172
0.00564908
0.00551472
0.0053318
0.00510402
0.0048357
0.00453581
0.00422316
0.00394631
0.00364547
0.0032444
0.00247671
0.00141654
0.000156547
0.000162273
0.00102752
0.00168441
0.00224244
0.00276367
0.00326053
0.00371927
0.00413878
0.00451861
0.00485517
0.0051428
0.00537745
0.00555746
0.00568284
0.00575504
0.00577504
0.00574256
0.00565576
0.00551769
0.0053268
0.00508445
0.00479322
0.00446516
0.00412571
0.00379084
0.00345874
0.00306439
0.00245556
0.00148302
0.000176391
0.000156674
0.000825954
0.00151865
0.0021181
0.00266818
0.00318258
0.00366202
0.00410659
0.00451191
0.0048651
0.00516256
0.00540086
0.00558036
0.00570466
0.00577544
0.00579323
0.00575863
0.00567395
0.00553558
0.00534056
0.00508724
0.00477799
0.00442472
0.0040496
0.00367131
0.00328647
0.00287261
0.00229228
0.00136325
0.000180689
0.000149058
0.000664712
0.00137298
0.00200701
0.00258446
0.00312362
0.00363285
0.00411081
0.00453646
0.00490846
0.0052169
0.00545622
0.0056307
0.00574674
0.00581077
0.00582623
0.00579368
0.00571216
0.00557821
0.00538427
0.00512404
0.00479775
0.00442076
0.00400454
0.00357519
0.00313491
0.00264837
0.00202443
0.00118286
0.000176755
0.000141194
0.000567113
0.00126236
0.0019181
0.00252406
0.00310025
0.0036541
0.00415544
0.0046129
0.00500493
0.00531935
0.0055518
0.00571412
0.00581706
0.00587125
0.00588266
0.00585168
0.00577619
0.00565077
0.00546743
0.00520997
0.00486683
0.00446196
0.00400611
0.00351277
0.00300444
0.00244945
0.00177252
0.000924186
0.000167279
0.000134412
0.000519969
0.0011935
0.00186386
0.00251322
0.0031467
0.00372711
0.00427606
0.00476171
0.00514936
0.00544976
0.00566183
0.00580308
0.00588909
0.00593181
0.00593838
0.00590955
0.00584328
0.00573454
0.00557085
0.00533251
0.00499524
0.00456478
0.00406826
0.00351468
0.00291611
0.00228562
0.00156668
0.000737422
0.000157189
0.000128086
0.000498722
0.00116431
0.00187458
0.00258359
0.00325816
0.00391143
0.00449309
0.004942
0.00530175
0.00557942
0.0057662
0.00588257
0.00595028
0.00598157
0.005983
0.005955
0.00589686
0.00580396
0.00566061
0.00544343
0.00513092
0.00473573
0.00421334
0.00359609
0.0029225
0.00218717
0.00142258
0.000627674
0.000146922
0.000122449
0.000494001
0.0012064
0.00197137
0.00274793
0.00352752
0.00421048
0.00470709
0.00509418
0.00541263
0.00566703
0.00583706
0.00593221
0.00598772
0.00601217
0.00600959
0.00597939
0.00592234
0.00583683
0.00570893
0.00549378
0.00521107
0.00486923
0.00441496
0.00379386
0.00303082
0.00222103
0.00136335
0.000568894
0.000137889
0.000117526
0.000549571
0.00132183
0.00218897
0.00310435
0.00388508
0.00444084
0.00485387
0.00519753
0.00548542
0.0057177
0.00586371
0.00594651
0.00600176
0.00602739
0.00602294
0.0059877
0.00592256
0.00583149
0.00571886
0.00553083
0.00525912
0.00493826
0.00455457
0.0040337
0.00329189
0.00237998
0.00146282
0.000585289
0.00013021
0.000116198
0.000630639
0.00157471
0.00262018
0.00348761
0.00412411
0.00458568
0.00497058
0.00530815
0.00556346
0.00573485
0.00584825
0.00593574
0.00600334
0.00603661
0.00603271
0.00599053
0.00591191
0.00580326
0.00568482
0.00554553
0.00531846
0.0050111
0.00463539
0.00418536
0.00357084
0.00270909
0.00165921
0.000679744
0.000125743
0.000119104
0.000857482
0.00205757
0.00305465
0.00376021
0.00427808
0.00472184
0.0051226
0.00542274
0.0056057
0.00570922
0.0058127
0.00592463
0.00600838
0.00605107
0.00604751
0.00599701
0.00590259
0.00576745
0.00562064
0.0054951
0.00535323
0.00510578
0.00473073
0.00428595
0.00375502
0.00306509
0.00206019
0.000867698
0.000127186
0.000130474
0.00126355
0.00246993
0.00334895
0.00396015
0.00443713
0.00488599
0.00523574
0.00544264
0.00556846
0.00567845
0.00579843
0.00592404
0.00601967
0.00606738
0.00606317
0.00600629
0.00589857
0.00574848
0.00557297
0.00542275
0.00527292
0.00510338
0.00483829
0.00439842
0.00390104
0.00330727
0.0024767
0.0012661
0.000136927
0.000152078
0.00148813
0.00269024
0.00352372
0.00412613
0.00460625
0.00496713
0.00518378
0.00534157
0.00550296
0.00565332
0.0058005
0.00593858
0.0060389
0.00608847
0.00608304
0.00602169
0.00590701
0.00574555
0.00555682
0.00536249
0.00517488
0.00498751
0.00477475
0.00449416
0.00404383
0.00344416
0.00267545
0.0015334
0.000159682
0.000174223
0.00158286
0.00273636
0.00356933
0.00416296
0.00457037
0.0048317
0.0050383
0.00524884
0.00545266
0.00564056
0.00581403
0.00596163
0.00606561
0.00611635
0.00611012
0.00604606
0.00592676
0.00575791
0.00555149
0.00532526
0.00508462
0.00482919
0.00459564
0.00434344
0.00402017
0.00351951
0.00271007
0.00160162
0.000181563
0.000187222
0.00157383
0.00273257
0.00353737
0.00404385
0.00437226
0.00463287
0.0048877
0.00516419
0.00541609
0.00564129
0.00583864
0.00599676
0.00610428
0.00615625
0.00615034
0.00608579
0.00596448
0.00579033
0.00557052
0.00531821
0.0050378
0.00474316
0.00444972
0.00416587
0.00385335
0.00336442
0.00261762
0.00151157
0.000188707
0.000189297
0.00146841
0.00259987
0.00337649
0.00386276
0.00418404
0.0044841
0.00480468
0.00512181
0.00541711
0.00567207
0.00588668
0.00605132
0.00616038
0.00621293
0.00620855
0.00614668
0.00602758
0.00585194
0.00562171
0.00534419
0.00503567
0.00469759
0.00435636
0.00400783
0.00363392
0.00318685
0.00245748
0.00139412
0.000187481
0.000186321
0.00132742
0.00244101
0.0031979
0.0036472
0.00402738
0.00439374
0.00476685
0.00513527
0.00546097
0.0057451
0.00596779
0.00613039
0.00623549
0.00628616
0.00628387
0.0062285
0.00611805
0.00594951
0.00571737
0.00542016
0.00507709
0.00470283
0.00429881
0.003888
0.00344513
0.00291679
0.00219486
0.00119711
0.000181222
0.000178659
0.00112939
0.00216286
0.00290583
0.00344894
0.00390811
0.00435009
0.00479056
0.0052028
0.00556978
0.00586299
0.00607824
0.00622726
0.00632166
0.00636735
0.00636666
0.00632004
0.00622378
0.00607201
0.00585445
0.00556133
0.00518431
0.00475663
0.00429832
0.00380462
0.00328546
0.00268892
0.00193913
0.000991996
0.000172121
0.000169724
0.000932646
0.00190172
0.00267407
0.00329099
0.00384174
0.00437871
0.00488682
0.0053548
0.00572872
0.00600338
0.00619493
0.0063246
0.00640557
0.00644483
0.00644442
0.00640511
0.00632242
0.00618928
0.00599416
0.00572429
0.0053659
0.00489619
0.00436003
0.00378971
0.00317148
0.00249958
0.00171382
0.000804786
0.000162296
0.00015891
0.000761217
0.00168394
0.00249421
0.00320193
0.00387164
0.00449188
0.00507486
0.00553583
0.00587378
0.00611786
0.00629063
0.00640525
0.00647503
0.00650763
0.00650623
0.00647122
0.00639622
0.00627108
0.00608545
0.00583721
0.00552021
0.00510191
0.00452322
0.00385782
0.00314702
0.00237472
0.0015409
0.000662161
0.000150777
0.000146787
0.000640355
0.00153692
0.00240928
0.003237
0.00399507
0.00470962
0.00525686
0.00565147
0.00594924
0.00618286
0.0063514
0.00645796
0.00652101
0.00654958
0.00654655
0.00651208
0.00644013
0.00631703
0.00612461
0.00587511
0.00559315
0.00524234
0.00475134
0.00404946
0.00323921
0.00237267
0.00145945
0.000580642
0.000139706
0.000136354
0.000599308
0.00152785
0.00248935
0.00338987
0.00424392
0.00490296
0.00535314
0.0056867
0.00597765
0.00621653
0.00638254
0.00648357
0.0065444
0.00657206
0.00656775
0.00653175
0.00646119
0.00634456
0.00615693
0.00591306
0.00561845
0.00529127
0.00489372
0.00430649
0.00346916
0.00251557
0.00153911
0.000599704
0.000130868
0.000129379
0.000673968
0.00165527
0.00269052
0.00369383
0.00446611
0.00500388
0.00538852
0.0057278
0.00600901
0.00624021
0.00639387
0.00648928
0.00655138
0.00658035
0.00657478
0.00653504
0.00646382
0.00635713
0.00619034
0.00594701
0.00566007
0.00532455
0.00495005
0.00447614
0.00378795
0.00281154
0.00171384
0.000688719
0.000126494
0.000128744
0.000779709
0.00191563
0.00307431
0.00398007
0.00459627
0.00504414
0.0054361
0.00576496
0.00604764
0.00624995
0.00638437
0.00648133
0.00654813
0.00658002
0.00657419
0.00653059
0.00645296
0.00634729
0.00619907
0.00598267
0.00569968
0.00537496
0.00499491
0.00458129
0.00403548
0.00321488
0.00208029
0.000849962
0.000127762
0.000133026
0.00103557
0.00235517
0.00343136
0.00418164
0.00469734
0.00511504
0.00548426
0.00581163
0.00605859
0.00623272
0.00635963
0.00646244
0.00654041
0.00657789
0.00657099
0.00651973
0.00643099
0.00631828
0.00618269
0.00600276
0.00574443
0.00542369
0.00506558
0.00465285
0.00417844
0.0035163
0.00249715
0.00117234
0.000135396
0.000145741
0.00132983
0.00268637
0.00367052
0.0042899
0.00476315
0.00516958