/*--------------------------------*- C++ -*----------------------------------*\
| =========                 |                                                 |
| \\      /  F ield         | OpenFOAM: The Open Source CFD Toolbox           |
|  \\    /   O peration     | Version:  v1606+                                |
|   \\  /    A nd           | Web:      www.OpenFOAM.com                      |
|    \\/     M anipulation  |                                                 |
\*---------------------------------------------------------------------------*/
FoamFile
{
    version     2.0;
    format      ascii;
    class       volVectorField;
    location    "0.36";
    object      U.airMean;
}
// * * * * * * * * * * * * * * * * * * * * * * * * * * * * * * * * * * * * * //

dimensions      [0 1 -1 0 0 0 0];

internalField   nonuniform List<vector> 
6000
(
(-0.0217742 0.305739 0)
(-0.0116618 0.273225 0)
(-0.00664582 0.284132 0)
(-0.00496023 0.283264 0)
(-0.00265662 0.28521 0)
(-0.000951358 0.284549 0)
(0.00278403 0.284431 0)
(0.00543384 0.283811 0)
(0.00722583 0.283971 0)
(0.00705743 0.283609 0)
(0.0062139 0.28322 0)
(0.00539494 0.283139 0)
(0.0041058 0.282336 0)
(0.00291435 0.281762 0)
(0.000976014 0.28288 0)
(-0.00106553 0.28213 0)
(-0.00231715 0.282177 0)
(-0.00349553 0.282375 0)
(-0.00437751 0.283192 0)
(-0.00599002 0.283381 0)
(-0.00713052 0.283532 0)
(-0.00698081 0.28358 0)
(-0.00501724 0.283827 0)
(-0.00198013 0.284418 0)
(0.0016511 0.284489 0)
(0.00333513 0.285631 0)
(0.00568113 0.283733 0)
(0.00785044 0.284177 0)
(0.0133042 0.273438 0)
(0.0227483 0.30642 0)
(-0.00230449 0.978039 0)
(-0.0180128 0.961545 0)
(-0.015716 0.968672 0)
(-0.0218453 0.964364 0)
(-0.0180338 0.962284 0)
(-0.0127496 0.956256 0)
(-0.00701447 0.955891 0)
(-0.00242307 0.956134 0)
(0.00161616 0.958842 0)
(0.00405617 0.960962 0)
(0.00506731 0.961838 0)
(0.00470167 0.961722 0)
(0.00362604 0.962788 0)
(0.0019318 0.962922 0)
(0.000772483 0.963487 0)
(-0.000204398 0.962652 0)
(-0.00168682 0.962686 0)
(-0.00313013 0.961961 0)
(-0.00414378 0.962273 0)
(-0.00414321 0.962636 0)
(-0.00310373 0.96098 0)
(-0.00106591 0.958897 0)
(0.00253487 0.955838 0)
(0.00748957 0.955429 0)
(0.0135963 0.956753 0)
(0.0191673 0.961711 0)
(0.023453 0.964097 0)
(0.0177981 0.967873 0)
(0.0194545 0.961947 0)
(0.00279297 0.980295 0)
(-0.0161409 0.855209 0)
(-0.0256703 0.791433 0)
(-0.0255493 0.810977 0)
(-0.0343679 0.795827 0)
(-0.0272131 0.790804 0)
(-0.0186915 0.786379 0)
(-0.00965462 0.789683 0)
(-0.00293691 0.791165 0)
(0.0018666 0.795396 0)
(0.00427225 0.798055 0)
(0.00522865 0.799769 0)
(0.00462336 0.801009 0)
(0.00339647 0.801683 0)
(0.00205133 0.801761 0)
(0.000993439 0.801855 0)
(-0.000132345 0.801632 0)
(-0.00147868 0.801467 0)
(-0.00285123 0.801365 0)
(-0.0043039 0.800906 0)
(-0.00445541 0.800167 0)
(-0.00346503 0.798228 0)
(-0.00118966 0.795502 0)
(0.00339627 0.79089 0)
(0.0103932 0.788377 0)
(0.0202361 0.785967 0)
(0.0292135 0.789969 0)
(0.0365778 0.795282 0)
(0.0276528 0.810153 0)
(0.0265463 0.793457 0)
(0.0161308 0.858216 0)
(-0.00799572 0.892653 0)
(-0.0326048 0.825713 0)
(-0.0507973 0.845426 0)
(-0.0572066 0.819897 0)
(-0.0479273 0.806278 0)
(-0.0333828 0.798176 0)
(-0.017099 0.801327 0)
(-0.00487979 0.805862 0)
(0.00203529 0.813974 0)
(0.00467921 0.820662 0)
(0.00474273 0.824992 0)
(0.00367625 0.827875 0)
(0.00224657 0.8289 0)
(0.00111308 0.8291 0)
(0.000660088 0.828789 0)
(0.00045655 0.828988 0)
(-0.000145311 0.828865 0)
(-0.00138402 0.828952 0)
(-0.00308904 0.827799 0)
(-0.00410359 0.825014 0)
(-0.00402902 0.820737 0)
(-0.00132272 0.814225 0)
(0.0057867 0.805817 0)
(0.0183716 0.799862 0)
(0.0356582 0.797553 0)
(0.0510142 0.805383 0)
(0.0604623 0.819695 0)
(0.053507 0.846066 0)
(0.0336074 0.828825 0)
(0.00798757 0.895927 0)
(-0.0138819 0.904145 0)
(-0.0589306 0.845687 0)
(-0.0837844 0.846425 0)
(-0.0828227 0.805214 0)
(-0.0681295 0.782636 0)
(-0.0462487 0.771823 0)
(-0.0218487 0.775556 0)
(-0.00137278 0.785127 0)
(0.0107258 0.796652 0)
(0.0146338 0.806324 0)
(0.0134699 0.811646 0)
(0.00988964 0.814764 0)
(0.00586557 0.815608 0)
(0.00291298 0.814839 0)
(0.00118724 0.813758 0)
(1.00632e-05 0.81393 0)
(-0.00187164 0.814694 0)
(-0.00499693 0.815702 0)
(-0.00925123 0.814902 0)
(-0.0129118 0.811872 0)
(-0.014132 0.80654 0)
(-0.0099761 0.796713 0)
(0.0029397 0.784785 0)
(0.0240014 0.773528 0)
(0.0491181 0.77033 0)
(0.0715777 0.781476 0)
(0.0864013 0.804992 0)
(0.0871283 0.848011 0)
(0.0609637 0.850961 0)
(0.014273 0.907921 0)
(-0.0261642 0.933087 0)
(-0.0839911 0.866293 0)
(-0.10174 0.835058 0)
(-0.0948491 0.780613 0)
(-0.0745814 0.75099 0)
(-0.0469853 0.738223 0)
(-0.0186653 0.744339 0)
(0.0057571 0.761591 0)
(0.0231564 0.78429 0)
(0.0307627 0.803072 0)
(0.0288246 0.814134 0)
(0.0220784 0.821308 0)
(0.0147547 0.821756 0)
(0.00829193 0.820098 0)
(0.00301377 0.818107 0)
(-0.00180911 0.818485 0)
(-0.00733597 0.820145 0)
(-0.0140426 0.82215 0)
(-0.0216177 0.821589 0)
(-0.0283182 0.81423 0)
(-0.0300011 0.803168 0)
(-0.0218746 0.783688 0)
(-0.00349646 0.760409 0)
(0.0213264 0.741979 0)
(0.0500309 0.736253 0)
(0.0779746 0.749698 0)
(0.0983063 0.780315 0)
(0.104745 0.836874 0)
(0.0862998 0.872667 0)
(0.0269861 0.938536 0)
(-0.0332642 0.988027 0)
(-0.0916984 0.890495 0)
(-0.104317 0.83041 0)
(-0.0962597 0.7622 0)
(-0.0726993 0.723093 0)
(-0.0423689 0.709064 0)
(-0.0133476 0.717216 0)
(0.011367 0.738472 0)
(0.0293082 0.767109 0)
(0.039864 0.796109 0)
(0.0403653 0.815302 0)
(0.0330122 0.82373 0)
(0.0234762 0.824934 0)
(0.0138034 0.823063 0)
(0.00483909 0.820748 0)
(-0.00384696 0.821252 0)
(-0.012993 0.823309 0)
(-0.0228781 0.825516 0)
(-0.0326772 0.824064 0)
(-0.0399513 0.815291 0)
(-0.0390037 0.795761 0)
(-0.0278589 0.766032 0)
(-0.0091012 0.736727 0)
(0.0159795 0.715124 0)
(0.0452565 0.706918 0)
(0.0760408 0.721837 0)
(0.0996494 0.762223 0)
(0.107102 0.832558 0)
(0.0938368 0.897844 0)
(0.0342215 0.994759 0)
(-0.0209737 1.0421 0)
(-0.0805407 0.917799 0)
(-0.0939338 0.830018 0)
(-0.0901603 0.743809 0)
(-0.0677406 0.695357 0)
(-0.0392195 0.680863 0)
(-0.00912955 0.693226 0)
(0.0156322 0.721701 0)
(0.0320252 0.754975 0)
(0.0420183 0.788424 0)
(0.0453255 0.815975 0)
(0.0398428 0.829998 0)
(0.0295538 0.832735 0)
(0.0179346 0.830614 0)
(0.00620444 0.827928 0)
(-0.00548314 0.828438 0)
(-0.0172412 0.830968 0)
(-0.0289716 0.833482 0)
(-0.0394339 0.830496 0)
(-0.0448401 0.81583 0)
(-0.0411417 0.787708 0)
(-0.0307031 0.753528 0)
(-0.0138531 0.719488 0)
(0.0115722 0.690476 0)
(0.0419159 0.678098 0)
(0.0706681 0.693189 0)
(0.0932934 0.743416 0)
(0.0961037 0.832416 0)
(0.0819804 0.925396 0)
(0.0218149 1.05012 0)
(-0.0120994 1.07808 0)
(-0.0628765 0.939027 0)
(-0.079109 0.825753 0)
(-0.0825235 0.721018 0)
(-0.0704218 0.665608 0)
(-0.0459363 0.647045 0)
(-0.0144423 0.660127 0)
(0.0171036 0.696471 0)
(0.0364234 0.741419 0)
(0.043394 0.780871 0)
(0.0438024 0.813848 0)
(0.0398515 0.832972 0)
(0.0308927 0.838415 0)
(0.0193565 0.836956 0)
(0.00666517 0.834417 0)
(-0.00633733 0.834832 0)
(-0.0189557 0.837318 0)
(-0.0304796 0.839144 0)
(-0.0394171 0.833433 0)
(-0.0432907 0.813478 0)
(-0.0428398 0.779668 0)
(-0.035512 0.739422 0)
(-0.0155152 0.693301 0)
(0.0172047 0.656284 0)
(0.0485618 0.643544 0)
(0.0724345 0.662476 0)
(0.0846003 0.719557 0)
(0.0803171 0.82793 0)
(0.0633491 0.946241 0)
(0.012254 1.08618 0)
(-0.00734997 1.10147 0)
(-0.0439231 0.955811 0)
(-0.0599045 0.824632 0)
(-0.0762432 0.708642 0)
(-0.0791205 0.64382 0)
(-0.0604734 0.618127 0)
(-0.0266355 0.620487 0)
(0.00955507 0.661005 0)
(0.0349552 0.720801 0)
(0.0423575 0.771407 0)
(0.0407892 0.808394 0)
(0.0367908 0.830918 0)
(0.0291747 0.839157 0)
(0.0185708 0.839331 0)
(0.00630374 0.837548 0)
(-0.00641771 0.837858 0)
(-0.0185488 0.839668 0)
(-0.0289852 0.839845 0)
(-0.0363654 0.831338 0)
(-0.0403282 0.808108 0)
(-0.0419693 0.770215 0)
(-0.0343378 0.718278 0)
(-0.00838622 0.657059 0)
(0.0285366 0.616146 0)
(0.0636082 0.617828 0)
(0.0811771 0.641216 0)
(0.0769947 0.70748 0)
(0.0595057 0.827182 0)
(0.0431562 0.96307 0)
(0.00741423 1.1093 0)
(-0.00443029 1.11067 0)
(-0.0252018 0.960112 0)
(-0.0409717 0.825046 0)
(-0.0709187 0.705871 0)
(-0.0887278 0.627899 0)
(-0.0779101 0.58531 0)
(-0.0416799 0.589547 0)
(-0.00140783 0.624561 0)
(0.0263785 0.697321 0)
(0.0354856 0.760814 0)
(0.034612 0.801495 0)
(0.0317691 0.827334 0)
(0.0255869 0.838351 0)
(0.01639 0.840301 0)
(0.00550517 0.83942 0)
(-0.00581643 0.839572 0)
(-0.0165142 0.840497 0)
(-0.0253727 0.838678 0)
(-0.031233 0.827524 0)
(-0.034106 0.801034 0)
(-0.035251 0.759495 0)
(-0.0261287 0.694343 0)
(0.00201367 0.620455 0)
(0.0422469 0.583985 0)
(0.0790704 0.581479 0)
(0.0893709 0.62536 0)
(0.0698066 0.705201 0)
(0.0388733 0.827906 0)
(0.0236652 0.966339 0)
(0.00405191 1.11789 0)
(-0.00212386 1.11196 0)
(-0.013641 0.959373 0)
(-0.0253376 0.831939 0)
(-0.0612593 0.715638 0)
(-0.089769 0.619657 0)
(-0.0881266 0.555278 0)
(-0.0526985 0.546762 0)
(-0.011445 0.595465 0)
(0.0175782 0.673771 0)
(0.0262263 0.749118 0)
(0.024886 0.791234 0)
(0.024552 0.821972 0)
(0.0202053 0.837252 0)
(0.0128813 0.841429 0)
(0.00428434 0.841675 0)
(-0.00468921 0.841738 0)
(-0.0130732 0.841471 0)
(-0.0200307 0.837369 0)
(-0.0241426 0.822192 0)
(-0.024572 0.791076 0)
(-0.0263659 0.748244 0)
(-0.0178119 0.670771 0)
(0.0120489 0.591677 0)
(0.0534231 0.54156 0)
(0.0881729 0.552182 0)
(0.0882485 0.618861 0)
(0.0580253 0.716091 0)
(0.0220812 0.834865 0)
(0.0118191 0.964715 0)
(0.00141039 1.11831 0)
(-0.000953056 1.10984 0)
(-0.01007 0.953412 0)
(-0.0160359 0.83778 0)
(-0.047393 0.726634 0)
(-0.0792578 0.619222 0)
(-0.0838661 0.530739 0)
(-0.0585581 0.511626 0)
(-0.0216555 0.56742 0)
(0.00767041 0.655311 0)
(0.0156822 0.742085 0)
(0.0141795 0.783268 0)
(0.015696 0.816356 0)
(0.0140463 0.836793 0)
(0.00907892 0.843315 0)
(0.00290398 0.8446 0)
(-0.00354805 0.844553 0)
(-0.00956637 0.843148 0)
(-0.0143255 0.83663 0)
(-0.0158281 0.816482 0)
(-0.0142804 0.783217 0)
(-0.0159541 0.741458 0)
(-0.00794543 0.652159 0)
(0.0219777 0.562135 0)
(0.0588567 0.50695 0)
(0.0828015 0.528597 0)
(0.0763159 0.619934 0)
(0.0432716 0.727639 0)
(0.0125187 0.840321 0)
(0.00801186 0.957721 0)
(0.000175457 1.11556 0)
(0.000605113 1.10603 0)
(-0.00897244 0.943793 0)
(-0.0107779 0.840232 0)
(-0.0354762 0.733447 0)
(-0.0636688 0.619063 0)
(-0.0710351 0.512445 0)
(-0.0565718 0.483365 0)
(-0.0304862 0.538378 0)
(-0.00610047 0.637823 0)
(0.0052956 0.73169 0)
(0.00735379 0.773953 0)
(0.00795356 0.807487 0)
(0.0078659 0.831234 0)
(0.00548386 0.840836 0)
(0.00154835 0.843452 0)
(-0.00259928 0.843337 0)
(-0.00645457 0.840511 0)
(-0.00875692 0.830885 0)
(-0.00865994 0.807377 0)
(-0.0077654 0.773717 0)
(-0.00509568 0.730784 0)
(0.00625597 0.634817 0)
(0.0302448 0.532967 0)
(0.0559317 0.479207 0)
(0.0692264 0.511419 0)
(0.0601325 0.620939 0)
(0.0314026 0.734701 0)
(0.00744856 0.842325 0)
(0.00699025 0.947138 0)
(-0.00131429 1.1108 0)
(0.00211491 1.10298 0)
(-0.0084314 0.935918 0)
(-0.0059717 0.842717 0)
(-0.0224256 0.740023 0)
(-0.0411621 0.621072 0)
(-0.0509608 0.502658 0)
(-0.0491584 0.465025 0)
(-0.0384741 0.519902 0)
(-0.0246454 0.627458 0)
(-0.0125 0.720762 0)
(-0.0031652 0.771551 0)
(-0.000854115 0.8066 0)
(0.000801342 0.830462 0)
(0.00118543 0.841434 0)
(-6.43732e-05 0.844414 0)
(-0.00165623 0.844219 0)
(-0.00289234 0.841048 0)
(-0.00243716 0.830004 0)
(-0.000510346 0.806106 0)
(0.00233513 0.770813 0)
(0.0124274 0.719206 0)
(0.0248231 0.626307 0)
(0.0379247 0.514878 0)
(0.0479171 0.461767 0)
(0.0486632 0.503093 0)
(0.037949 0.623738 0)
(0.0192308 0.741464 0)
(0.00335816 0.843983 0)
(0.00699261 0.938118 0)
(-0.00252052 1.10688 0)
(0.00301478 1.10564 0)
(-0.00621353 0.933095 0)
(0.00469795 0.843174 0)
(0.00094414 0.740725 0)
(-0.0082752 0.621586 0)
(-0.0230263 0.504418 0)
(-0.0352986 0.462935 0)
(-0.0405246 0.515262 0)
(-0.0384376 0.625408 0)
(-0.0299883 0.709176 0)
(-0.0193714 0.76453 0)
(-0.0136971 0.802407 0)
(-0.00896387 0.827227 0)
(-0.00499957 0.840145 0)
(-0.00237527 0.844281 0)
(-0.00018864 0.844143 0)
(0.00248568 0.839635 0)
(0.00666942 0.826491 0)
(0.0117985 0.801487 0)
(0.0180282 0.763235 0)
(0.0290913 0.707217 0)
(0.0381127 0.623531 0)
(0.0398 0.510649 0)
(0.0337569 0.46045 0)
(0.0208376 0.505491 0)
(0.00582806 0.624235 0)
(-0.00271372 0.742212 0)
(-0.0061493 0.843982 0)
(0.00543773 0.934551 0)
(-0.00322038 1.109 0)
(0.00648308 1.10878 0)
(0.00397474 0.925235 0)
(0.0266258 0.836113 0)
(0.0308642 0.738884 0)
(0.0235325 0.63032 0)
(0.00164836 0.521554 0)
(-0.0204221 0.475719 0)
(-0.0365106 0.52362 0)
(-0.0422913 0.630971 0)
(-0.0383703 0.707153 0)
(-0.0308072 0.763334 0)
(-0.0244172 0.802514 0)
(-0.0180939 0.827374 0)
(-0.0113792 0.840451 0)
(-0.00476318 0.844995 0)
(0.00172519 0.844868 0)
(0.00846166 0.839814 0)
(0.0154488 0.82638 0)
(0.0221531 0.801273 0)
(0.028898 0.761732 0)
(0.0365517 0.704934 0)
(0.0414278 0.629482 0)
(0.0355558 0.519665 0)
(0.0187431 0.474102 0)
(-0.0036988 0.523157 0)
(-0.0252615 0.632461 0)
(-0.0315745 0.740099 0)
(-0.0271819 0.836607 0)
(-0.00425685 0.92633 0)
(-0.00648733 1.11198 0)
(0.012469 1.11009 0)
(0.0191178 0.916188 0)
(0.0469973 0.828611 0)
(0.0529246 0.741463 0)
(0.0453236 0.646007 0)
(0.020178 0.547692 0)
(-0.00823533 0.499331 0)
(-0.032085 0.540098 0)
(-0.0421665 0.641177 0)
(-0.0399968 0.708623 0)
(-0.0357631 0.763803 0)
(-0.0301572 0.803297 0)
(-0.0235154 0.827956 0)
(-0.0153981 0.840721 0)
(-0.0062894 0.845048 0)
(0.0031274 0.844774 0)
(0.0123865 0.839941 0)
(0.0207664 0.826692 0)
(0.0276895 0.801808 0)
(0.0334477 0.762118 0)
(0.0376077 0.706269 0)
(0.0405482 0.637632 0)
(0.0307936 0.536471 0)
(0.00632475 0.498123 0)
(-0.0222152 0.548957 0)
(-0.0465835 0.647454 0)
(-0.0530415 0.742413 0)
(-0.0470636 0.829188 0)
(-0.0194566 0.917187 0)
(-0.0125116 1.11313 0)
(0.0205418 1.1025 0)
(0.0359213 0.903887 0)
(0.0612879 0.82199 0)
(0.065108 0.746853 0)
(0.0571435 0.663686 0)
(0.0310526 0.577876 0)
(-0.00234065 0.528474 0)
(-0.0302284 0.560254 0)
(-0.0402621 0.647904 0)
(-0.0376614 0.712141 0)
(-0.0356094 0.765717 0)
(-0.031123 0.804437 0)
(-0.0248137 0.827921 0)
(-0.0164191 0.839526 0)
(-0.00659412 0.843284 0)
(0.00370276 0.842923 0)
(0.0136358 0.838564 0)
(0.0221884 0.826434 0)
(0.0286519 0.802844 0)
(0.0332239 0.764007 0)
(0.0353638 0.709813 0)
(0.0383587 0.64389 0)
(0.028491 0.556972 0)
(0.000469873 0.52773 0)
(-0.033052 0.578803 0)
(-0.0582116 0.664131 0)
(-0.0649797 0.747455 0)
(-0.0610599 0.822874 0)
(-0.0362003 0.905146 0)
(-0.0207242 1.10554 0)
(0.0324342 1.08154 0)
(0.0530014 0.893574 0)
(0.0701004 0.820248 0)
(0.0701947 0.755199 0)
(0.0615558 0.681796 0)
(0.0339736 0.609285 0)
(-0.00291057 0.559707 0)
(-0.0293783 0.579807 0)
(-0.036533 0.652005 0)
(-0.0325804 0.716048 0)
(-0.0313476 0.768492 0)
(-0.0277986 0.805991 0)
(-0.0222457 0.828168 0)
(-0.0146531 0.838506 0)
(-0.00579653 0.841655 0)
(0.00345005 0.84127 0)
(0.0123257 0.837544 0)
(0.0199314 0.82664 0)
(0.0255213 0.804395 0)
(0.0291389 0.76681 0)
(0.0303805 0.713748 0)
(0.0343661 0.647779 0)
(0.0271146 0.576554 0)
(0.000802421 0.559187 0)
(-0.035984 0.609778 0)
(-0.0627883 0.681383 0)
(-0.0702116 0.755203 0)
(-0.0695421 0.821415 0)
(-0.0529986 0.895262 0)
(-0.0326093 1.08436 0)
(0.0428863 1.04466 0)
(0.065477 0.887861 0)
(0.0726934 0.824119 0)
(0.0690629 0.764982 0)
(0.0581128 0.698385 0)
(0.0281274 0.640456 0)
(-0.00627608 0.588782 0)
(-0.025094 0.594612 0)
(-0.0281765 0.653027 0)
(-0.023657 0.719931 0)
(-0.0235016 0.77246 0)
(-0.0210977 0.808899 0)
(-0.0168649 0.829753 0)
(-0.0110135 0.83912 0)
(-0.00431894 0.841842 0)
(0.00257875 0.841486 0)
(0.0092368 0.838175 0)
(0.0150203 0.82823 0)
(0.0192197 0.807236 0)
(0.0217574 0.770671 0)
(0.0216969 0.717629 0)
(0.0257224 0.648752 0)
(0.0222774 0.591598 0)
(0.00346309 0.58823 0)
(-0.0296134 0.640417 0)
(-0.0590236 0.697507 0)
(-0.0693435 0.763946 0)
(-0.0717966 0.825193 0)
(-0.0648473 0.890097 0)
(-0.0428037 1.04754 0)
(0.0442296 0.998433 0)
(0.0702942 0.888349 0)
(0.0675624 0.832221 0)
(0.0604423 0.775133 0)
(0.043308 0.716976 0)
(0.0188797 0.668056 0)
(3.40266e-05 0.60981 0)
(-0.011857 0.604415 0)
(-0.0142598 0.653274 0)
(-0.0116897 0.72676 0)
(-0.0128383 0.777969 0)
(-0.0125387 0.813099 0)
(-0.0102293 0.832788 0)
(-0.00666419 0.841549 0)
(-0.00262048 0.844085 0)
(0.00147462 0.843751 0)
(0.00545559 0.840665 0)
(0.00887299 0.831401 0)
(0.0109942 0.811505 0)
(0.0110946 0.776307 0)
(0.0101333 0.726124 0)
(0.0120815 0.649741 0)
(0.00850813 0.601986 0)
(-0.00377854 0.608642 0)
(-0.0208446 0.666532 0)
(-0.0435885 0.71634 0)
(-0.0610914 0.773279 0)
(-0.0667808 0.83249 0)
(-0.0688583 0.891135 0)
(-0.043949 1.00167 0)
(0.0427742 0.95058 0)
(0.0588555 0.887856 0)
(0.055045 0.842325 0)
(0.0449618 0.787534 0)
(0.0277473 0.733874 0)
(0.0230503 0.678398 0)
(0.0195105 0.621888 0)
(0.00959973 0.614836 0)
(0.00252247 0.658202 0)
(0.00113264 0.734617 0)
(-0.00102639 0.786016 0)
(-0.00370702 0.81947 0)
(-0.00367764 0.837876 0)
(-0.00248792 0.846137 0)
(-0.00100203 0.848636 0)
(0.000441505 0.848365 0)
(0.00184227 0.845347 0)
(0.00285179 0.836746 0)
(0.00263288 0.81815 0)
(-0.000445296 0.784507 0)
(-0.00227763 0.732198 0)
(-0.00418162 0.655802 0)
(-0.0127787 0.613531 0)
(-0.0233114 0.620594 0)
(-0.0266768 0.674815 0)
(-0.0292206 0.732666 0)
(-0.0455409 0.78546 0)
(-0.0552388 0.841246 0)
(-0.0570725 0.890777 0)
(-0.0423992 0.954859 0)
(0.0312638 0.91081 0)
(0.0386094 0.894315 0)
(0.0357085 0.847911 0)
(0.0289728 0.796676 0)
(0.0307948 0.738288 0)
(0.0440716 0.674385 0)
(0.0448892 0.632194 0)
(0.0328573 0.6304 0)
(0.0187859 0.670317 0)
(0.012178 0.742238 0)
(0.00851528 0.796597 0)
(0.00362341 0.82797 0)
(0.00177197 0.844801 0)
(0.000966557 0.852494 0)
(0.000342276 0.854952 0)
(-0.000360107 0.854761 0)
(-0.00106232 0.851823 0)
(-0.0020088 0.843837 0)
(-0.00398457 0.826813 0)
(-0.00900509 0.795308 0)
(-0.0127889 0.739982 0)
(-0.0201335 0.669009 0)
(-0.0353365 0.630004 0)
(-0.0479524 0.631407 0)
(-0.0484087 0.670736 0)
(-0.0342769 0.735042 0)
(-0.0303207 0.794171 0)
(-0.035403 0.84483 0)
(-0.0386774 0.897297 0)
(-0.029986 0.915628 0)
(0.0118422 0.883718 0)
(0.0232096 0.901433 0)
(0.0168567 0.848213 0)
(0.0298418 0.793244 0)
(0.0562691 0.725232 0)
(0.074051 0.669711 0)
(0.0692444 0.646522 0)
(0.0522991 0.651353 0)
(0.0320948 0.688529 0)
(0.0202334 0.75291 0)
(0.0143638 0.808771 0)
(0.00875361 0.837537 0)
(0.00564235 0.85281 0)
(0.00340464 0.859937 0)
(0.0013203 0.862354 0)
(-0.00081875 0.86211 0)
(-0.00296664 0.859376 0)
(-0.00533465 0.851893 0)
(-0.00860659 0.836418 0)
(-0.0141974 0.80769 0)
(-0.0203855 0.751015 0)
(-0.0330362 0.687918 0)
(-0.053923 0.65147 0)
(-0.0715315 0.646313 0)
(-0.0774275 0.667708 0)
(-0.0611155 0.720038 0)
(-0.0330846 0.78943 0)
(-0.0182424 0.844717 0)
(-0.0236143 0.903629 0)
(-0.0112154 0.889302 0)
(-0.00140235 0.875941 0)
(0.00606446 0.905435 0)
(0.0150463 0.837144 0)
(0.0575742 0.772028 0)
(0.0930319 0.704962 0)
(0.100349 0.675287 0)
(0.0886979 0.665686 0)
(0.0665746 0.675852 0)
(0.0422119 0.710594 0)
(0.0254878 0.766593 0)
(0.0171095 0.821274 0)
(0.0115972 0.847254 0)
(0.00729032 0.861016 0)
(0.00425377 0.867488 0)
(0.00168712 0.869727 0)
(-0.000795733 0.869556 0)
(-0.00343207 0.866967 0)
(-0.00658927 0.86023 0)
(-0.0111012 0.846228 0)
(-0.0166818 0.819748 0)
(-0.0254899 0.765192 0)
(-0.0428926 0.710511 0)
(-0.0676378 0.676249 0)
(-0.0901408 0.665828 0)
(-0.102559 0.674314 0)
(-0.0965705 0.701634 0)
(-0.0626226 0.766366 0)
(-0.018268 0.832465 0)
(-0.00749796 0.905945 0)
(0.00144836 0.881484 0)
(-0.0142084 0.882502 0)
(0.00529342 0.895467 0)
(0.0436408 0.805458 0)
(0.0982301 0.73961 0)
(0.119966 0.702059 0)
(0.118251 0.688525 0)
(0.101131 0.687965 0)
(0.0760239 0.702527 0)
(0.0489907 0.735264 0)
(0.0282079 0.783191 0)
(0.016858 0.831132 0)
(0.0107867 0.856708 0)
(0.00579435 0.868676 0)
(0.00291315 0.874133 0)
(0.00118992 0.875984 0)
(-0.000205349 0.87584 0)
(-0.00196803 0.873635 0)
(-0.00492848 0.86798 0)
(-0.0100025 0.855813 0)
(-0.0162956 0.829857 0)
(-0.0282129 0.782296 0)
(-0.0494544 0.735485 0)
(-0.0766596 0.703017 0)
(-0.10185 0.688236 0)
(-0.119267 0.687987 0)
(-0.121937 0.700141 0)
(-0.101723 0.735681 0)
(-0.0490414 0.8001 0)
(-0.00839534 0.893842 0)
(0.0147768 0.88805 0)
(-0.0161143 0.899301 0)
(0.0268204 0.85815 0)
(0.0873199 0.767596 0)
(0.122896 0.726821 0)
(0.134009 0.706739 0)
(0.126878 0.704166 0)
(0.107978 0.711356 0)
(0.0814668 0.730167 0)
(0.0526534 0.761421 0)
(0.0284777 0.802283 0)
(0.0131213 0.842063 0)
(0.00540355 0.865637 0)
(0.00105653 0.875291 0)
(-0.000365607 0.879126 0)
(3.79611e-05 0.880295 0)
(0.000977136 0.880183 0)
(0.00141846 0.878631 0)
(6.31359e-05 0.874638 0)
(-0.00426732 0.864559 0)
(-0.0122509 0.841066 0)
(-0.0281324 0.801752 0)
(-0.0526121 0.761769 0)
(-0.0814803 0.730652 0)
(-0.10799 0.711578 0)
(-0.126941 0.70375 0)
(-0.134551 0.705422 0)
(-0.124712 0.724303 0)
(-0.0910621 0.764062 0)
(-0.0310656 0.853467 0)
(0.0141582 0.903871 0)
(0.00816791 0.903054 0)
(0.0575709 0.808228 0)
(0.111793 0.747674 0)
(0.133561 0.721413 0)
(0.138036 0.713753 0)
(0.129379 0.719716 0)
(0.110334 0.73464 0)
(0.0830494 0.757959 0)
(0.0525231 0.788362 0)
(0.024734 0.823357 0)
(0.00528064 0.854229 0)
(-0.00386625 0.872181 0)
(-0.00617132 0.879153 0)
(-0.00460987 0.881176 0)
(-0.00130162 0.881522 0)
(0.00249002 0.881393 0)
(0.00584412 0.880461 0)
(0.00752149 0.87824 0)
(0.00527085 0.871075 0)
(-0.00410387 0.853448 0)
(-0.023917 0.823032 0)
(-0.0519333 0.788738 0)
(-0.0825071 0.758436 0)
(-0.109802 0.734831 0)
(-0.128922 0.719374 0)
(-0.137835 0.712809 0)
(-0.134058 0.719596 0)
(-0.113643 0.745396 0)
(-0.0606043 0.805386 0)
(-0.0116613 0.903939 0)
(0.0303832 0.876664 0)
(0.0749547 0.775011 0)
(0.118775 0.732727 0)
(0.134332 0.718365 0)
(0.137161 0.720809 0)
(0.128204 0.73467 0)
(0.108405 0.757316 0)
(0.0795767 0.785349 0)
(0.0465298 0.815265 0)
(0.0146993 0.84567 0)
(-0.00757255 0.866322 0)
(-0.0153005 0.876706 0)
(-0.0138515 0.879104 0)
(-0.00870222 0.879545 0)
(-0.00253505 0.879471 0)
(0.00382772 0.879326 0)
(0.00998238 0.878766 0)
(0.0150976 0.878077 0)
(0.0165717 0.875509 0)
(0.00886563 0.865646 0)
(-0.0134562 0.845415 0)
(-0.0454581 0.815688 0)
(-0.0786848 0.7858 0)
(-0.107613 0.757523 0)
(-0.127557 0.734438 0)
(-0.136679 0.719994 0)
(-0.134133 0.717019 0)
(-0.119165 0.73099 0)
(-0.0764825 0.773118 0)
(-0.0321844 0.87526 0)
(0.038601 0.84359 0)
(0.0805079 0.745125 0)
(0.116624 0.718806 0)
(0.131011 0.716006 0)
(0.133613 0.726418 0)
(0.123329 0.749262 0)
(0.100845 0.779274 0)
(0.0682322 0.811552 0)
(0.0316773 0.84024 0)
(-0.00295783 0.867121 0)
(-0.0236809 0.87475 0)
(-0.0254592 0.876181 0)
(-0.019871 0.87509 0)
(-0.0117054 0.875125 0)
(-0.00343489 0.875247 0)
(0.00469362 0.875088 0)
(0.0128648 0.874422 0)
(0.0208426 0.874104 0)
(0.026373 0.874925 0)
(0.0247436 0.873911 0)
(0.00460925 0.866741 0)
(-0.0300393 0.840791 0)
(-0.0668561 0.812039 0)
(-0.0997455 0.779561 0)
(-0.122478 0.749135 0)
(-0.132975 0.725732 0)
(-0.130565 0.714865 0)
(-0.116281 0.717339 0)
(-0.080723 0.743578 0)
(-0.0390017 0.841377 0)
(0.03966 0.800519 0)
(0.0797572 0.71829 0)
(0.111937 0.70591 0)
(0.12622 0.711909 0)
(0.126908 0.732205 0)
(0.112179 0.764125 0)
(0.0837269 0.800681 0)
(0.0451264 0.836156 0)
(0.0065166 0.862305 0)
(-0.0237463 0.883441 0)
(-0.0352165 0.875122 0)
(-0.0312884 0.870041 0)
(-0.0226642 0.867753 0)
(-0.0129077 0.868547 0)
(-0.00375067 0.869417 0)
(0.00505007 0.86929 0)
(0.0140278 0.868064 0)
(0.0234882 0.86702 0)
(0.0319183 0.8689 0)
(0.0358667 0.874 0)
(0.0251983 0.882587 0)
(-0.00443541 0.862902 0)
(-0.0430531 0.836757 0)
(-0.0821236 0.801151 0)
(-0.110973 0.764116 0)
(-0.126003 0.731678 0)
(-0.125599 0.710778 0)
(-0.111423 0.704548 0)
(-0.0793704 0.716864 0)
(-0.0393379 0.797911 0)
(0.0373484 0.755116 0)
(0.0764472 0.693353 0)
(0.106974 0.691816 0)
(0.118507 0.707984 0)
(0.113188 0.739432 0)
(0.0905753 0.780548 0)
(0.0531881 0.822956 0)
(0.0113801 0.859405 0)
(-0.0206995 0.877649 0)
(-0.0366165 0.887985 0)
(-0.0371157 0.869198 0)
(-0.0309182 0.860857 0)
(-0.0215553 0.859097 0)
(-0.0120481 0.861206 0)
(-0.00336239 0.862964 0)
(0.00491068 0.862907 0)
(0.0133783 0.860999 0)
(0.0225331 0.858704 0)
(0.0315567 0.86004 0)
(0.0376198 0.868058 0)
(0.03749 0.886522 0)
(0.0226102 0.877725 0)
(-0.00893587 0.860177 0)
(-0.0508686 0.823637 0)
(-0.0888209 0.780738 0)
(-0.111978 0.73907 0)
(-0.117663 0.707005 0)
(-0.106399 0.690437 0)
(-0.0759934 0.691945 0)
(-0.0369738 0.752719 0)
(0.0348259 0.710454 0)
(0.0732374 0.66829 0)
(0.0994274 0.67834 0)
(0.103891 0.706588 0)
(0.0891083 0.749315 0)
(0.0555219 0.800277 0)
(0.0116913 0.846628 0)
(-0.0229504 0.87629 0)
(-0.0383253 0.881899 0)
(-0.0376553 0.881114 0)
(-0.0308901 0.86164 0)
(-0.0251505 0.85157 0)
(-0.0171658 0.850899 0)
(-0.00938411 0.854322 0)
(-0.00233362 0.856855 0)
(0.00434591 0.856895 0)
(0.0111641 0.8544 0)
(0.0185577 0.850895 0)
(0.0260972 0.851158 0)
(0.0316491 0.860596 0)
(0.0382756 0.879767 0)
(0.0392308 0.881223 0)
(0.0249748 0.876664 0)
(-0.0091843 0.847501 0)
(-0.0531717 0.800837 0)
(-0.0875749 0.749217 0)
(-0.102723 0.705743 0)
(-0.0985966 0.677031 0)
(-0.0727533 0.666978 0)
(-0.0344709 0.708292 0)
(0.0325183 0.665492 0)
(0.0676986 0.645223 0)
(0.0849395 0.66759 0)
(0.0794515 0.709169 0)
(0.0519918 0.765259 0)
(0.00939496 0.824388 0)
(-0.0281812 0.865973 0)
(-0.0449139 0.881317 0)
(-0.0425613 0.874938 0)
(-0.0296904 0.869261 0)
(-0.0202791 0.855218 0)
(-0.0160298 0.844028 0)
(-0.0105907 0.844361 0)
(-0.00545094 0.848778 0)
(-0.000848692 0.851946 0)
(0.00348155 0.852082 0)
(0.00786281 0.849126 0)
(0.012602 0.844748 0)
(0.0175647 0.844031 0)
(0.0215179 0.85425 0)
(0.0302889 0.868627 0)
(0.0426809 0.874097 0)
(0.0457493 0.881022 0)
(0.0301447 0.866444 0)
(-0.00711458 0.825367 0)
(-0.0501592 0.765361 0)
(-0.0781431 0.70842 0)
(-0.0838731 0.666389 0)
(-0.0669497 0.643891 0)
(-0.0321121 0.663739 0)
(0.0284562 0.623117 0)
(0.0556133 0.625654 0)
(0.0607424 0.660955 0)
(0.0438289 0.719051 0)
(0.00524268 0.787729 0)
(-0.0339462 0.845103 0)
(-0.0534006 0.873148 0)
(-0.0512464 0.875236 0)
(-0.0354113 0.862018 0)
(-0.0180203 0.856543 0)
(-0.00849296 0.850493 0)
(-0.00512762 0.839395 0)
(-0.00283531 0.840357 0)
(-0.000765748 0.845395 0)
(0.000921581 0.84895 0)
(0.00243677 0.849161 0)
(0.00394208 0.845976 0)
(0.00564822 0.84111 0)
(0.00751917 0.839761 0)
(0.0102104 0.8499 0)
(0.0186825 0.85683 0)
(0.0349771 0.861397 0)
(0.0509573 0.874466 0)
(0.0539509 0.87291 0)
(0.0354067 0.846217 0)
(-0.00359328 0.788144 0)
(-0.04244 0.718571 0)
(-0.0597216 0.659743 0)
(-0.0547482 0.624416 0)
(-0.0279729 0.621742 0)
(0.0198287 0.585397 0)
(0.0361778 0.614596 0)
(0.0285339 0.662821 0)
(-0.000724173 0.736602 0)
(-0.0393914 0.810226 0)
(-0.0619181 0.855541 0)
(-0.0615502 0.868142 0)
(-0.0437987 0.861033 0)
(-0.0216069 0.847015 0)
(-0.00516302 0.846324 0)
(0.00361559 0.846834 0)
(0.00604333 0.837986 0)
(0.00525226 0.83932 0)
(0.00411361 0.844616 0)
(0.00275652 0.848296 0)
(0.00132068 0.848551 0)
(-0.00017516 0.845338 0)
(-0.00161037 0.840301 0)
(-0.00277964 0.838604 0)
(-0.00128743 0.847038 0)
(0.00617278 0.847506 0)
(0.0212319 0.847171 0)
(0.0424144 0.860228 0)
(0.0606206 0.867255 0)
(0.0617606 0.856205 0)
(0.0402171 0.810344 0)
(0.00176961 0.736685 0)
(-0.0276838 0.661711 0)
(-0.0355573 0.613492 0)
(-0.0194308 0.584317 0)
(0.00692355 0.55909 0)
(0.0130001 0.613448 0)
(-0.011194 0.673418 0)
(-0.0437711 0.760041 0)
(-0.0703604 0.819998 0)
(-0.0706007 0.852558 0)
(-0.0537698 0.854495 0)
(-0.0277325 0.843683 0)
(-0.00536128 0.835238 0)
(0.00834766 0.839377 0)
(0.0154263 0.844655 0)
(0.0161115 0.839446 0)
(0.01261 0.841242 0)
(0.00849064 0.846424 0)
(0.00437207 0.84994 0)
(0.000300615 0.85018 0)
(-0.00392106 0.847228 0)
(-0.00828666 0.842337 0)
(-0.0121896 0.840297 0)
(-0.0124083 0.845722 0)
(-0.00657383 0.841439 0)
(0.00565438 0.836613 0)
(0.026364 0.843536 0)
(0.0517684 0.853429 0)
(0.0691257 0.852797 0)
(0.0695809 0.820023 0)
(0.0433961 0.760456 0)
(0.0112581 0.672414 0)
(-0.0128004 0.612301 0)
(-0.00655782 0.558284 0)
(-0.00714032 0.550487 0)
(-0.0162297 0.626075 0)
(-0.0539519 0.691602 0)
(-0.0785497 0.778798 0)
(-0.0832459 0.820734 0)
(-0.0615301 0.841661 0)
(-0.032468 0.835684 0)
(-0.00396489 0.826661 0)
(0.0136511 0.82675 0)
(0.0226814 0.835584 0)
(0.0260237 0.844666 0)
(0.0238031 0.843514 0)
(0.0178062 0.845689 0)
(0.0113586 0.850231 0)
(0.00535802 0.853235 0)
(-0.000354925 0.853406 0)
(-0.00640036 0.85103 0)
(-0.012991 0.846762 0)
(-0.0193603 0.844551 0)
(-0.0223781 0.846329 0)
(-0.0200095 0.83834 0)
(-0.0121004 0.829262 0)
(0.00399019 0.827874 0)
(0.0309547 0.835221 0)
(0.0597146 0.841725 0)
(0.0806955 0.820889 0)
(0.0740733 0.778397 0)
(0.0513669 0.689786 0)
(0.0155777 0.624181 0)
(0.00725646 0.550121 0)
(-0.0193063 0.562113 0)
(-0.044012 0.656175 0)
(-0.0883264 0.716445 0)
(-0.0866824 0.786791 0)
(-0.0634392 0.806761 0)
(-0.0281934 0.820519 0)
(0.00301688 0.817143 0)
(0.024699 0.817012 0)
(0.0335667 0.825101 0)
(0.03515 0.837105 0)
(0.0326538 0.848386 0)
(0.0268598 0.849928 0)
(0.0190187 0.85187 0)
(0.0115594 0.85512 0)
(0.00528701 0.857231 0)
(-0.000381379 0.857312 0)
(-0.00655012 0.855788 0)
(-0.0139273 0.852753 0)
(-0.0220176 0.851085 0)
(-0.0284465 0.850358 0)
(-0.0316521 0.840118 0)
(-0.0308128 0.828026 0)
(-0.022906 0.819143 0)
(-0.0024443 0.817503 0)
(0.027713 0.820145 0)
(0.0623806 0.808705 0)
(0.0841964 0.787643 0)
(0.0839003 0.712036 0)
(0.042986 0.652698 0)
(0.0189752 0.561675 0)
(-0.0310674 0.590565 0)
(-0.0609971 0.691023 0)
(-0.0899782 0.727321 0)
(-0.0595257 0.772838 0)
(-0.0229652 0.787491 0)
(0.012052 0.803683 0)
(0.0366455 0.807969 0)
(0.0474251 0.816367 0)
(0.0467028 0.830547 0)
(0.0402195 0.844721 0)
(0.0320162 0.855983 0)
(0.0235086 0.857934 0)
(0.015348 0.858814 0)
(0.00876747 0.860211 0)
(0.00401661 0.861083 0)
(3.75963e-05 0.86101 0)
(-0.00433727 0.860474 0)
(-0.0104071 0.859297 0)
(-0.0184281 0.858944 0)
(-0.0272947 0.857914 0)
(-0.0361521 0.847656 0)
(-0.0433517 0.833441 0)
(-0.0448934 0.81857 0)
(-0.035457 0.808557 0)
(-0.0119974 0.803512 0)
(0.022874 0.789098 0)
(0.0599837 0.774559 0)
(0.0894814 0.725012 0)
(0.0585734 0.685456 0)
(0.0305412 0.589535 0)
(-0.0371882 0.635458 0)
(-0.0563742 0.713752 0)
(-0.0517895 0.719289 0)
(-0.0141773 0.749007 0)
(0.0174166 0.770035 0)
(0.0431767 0.792659 0)
(0.05714 0.807541 0)
(0.0568133 0.824298 0)