/*--------------------------------*- C++ -*----------------------------------*\
| =========                 |                                                 |
| \\      /  F ield         | OpenFOAM: The Open Source CFD Toolbox           |
|  \\    /   O peration     | Version:  v1606+                                |
|   \\  /    A nd           | Web:      www.OpenFOAM.com                      |
|    \\/     M anipulation  |                                                 |
\*---------------------------------------------------------------------------*/
FoamFile
{
    version     2.0;
    format      ascii;
    class       volScalarField;
    location    "1.05";
    object      p;
}
// * * * * * * * * * * * * * * * * * * * * * * * * * * * * * * * * * * * * * //

dimensions      [1 -1 -2 0 0 0 0];

internalField   nonuniform List<scalar> 
6000
(
107925
107924
107922
107922
107925
107931
107935
107934
107930
107925
107921
107918
107917
107917
107920
107924
107929
107934
107939
107944
107949
107953
107955
107955
107952
107952
107956
107961
107965
107968
107879
107875
107869
107861
107855
107853
107851
107842
107831
107824
107821
107819
107819
107821
107824
107828
107833
107839
107844
107848
107853
107860
107869
107875
107881
107888
107897
107907
107915
107919
107855
107851
107841
107830
107821
107811
107800
107784
107773
107767
107765
107765
107765
107767
107770
107774
107778
107783
107788
107793
107798
107806
107817
107831
107845
107857
107868
107880
107891
107894
107824
107819
107810
107798
107785
107771
107755
107743
107738
107734
107733
107733
107734
107736
107739
107743
107746
107749
107753
107757
107763
107769
107778
107792
107809
107824
107837
107849
107858
107862
107783
107781
107778
107769
107754
107738
107724
107718
107714
107712
107712
107712
107714
107717
107721
107724
107727
107730
107733
107736
107740
107745
107752
107764
107780
107795
107808
107816
107820
107822
107730
107731
107734
107734
107726
107711
107699
107694
107691
107689
107690
107692
107695
107699
107703
107707
107711
107713
107714
107715
107717
107721
107728
107738
107750
107762
107770
107769
107766
107766
107666
107670
107678
107685
107690
107685
107675
107669
107667
107667
107668
107671
107675
107680
107685
107689
107692
107694
107695
107695
107695
107697
107703
107710
107716
107718
107714
107708
107702
107699
107596
107602
107612
107624
107638
107652
107648
107644
107643
107644
107645
107648
107652
107656
107659
107661
107664
107666
107668
107670
107670
107671
107675
107676
107668
107658
107648
107640
107632
107627
107518
107528
107540
107553
107568
107594
107609
107610
107612
107612
107613
107615
107616
107617
107617
107616
107616
107620
107626
107632
107636
107637
107637
107625
107605
107589
107579
107569
107558
107549
107435
107448
107466
107474
107480
107494
107527
107543
107549
107551
107550
107546
107541
107542
107544
107546
107546
107548
107554
107567
107578
107580
107571
107545
107524
107513
107506
107498
107480
107466
107378
107385
107396
107391
107375
107366
107390
107412
107420
107428
107425
107416
107413
107425
107448
107462
107460
107454
107447
107457
107473
107478
107465
107439
107427
107429
107435
107432
107414
107402
107350
107350
107345
107326
107302
107295
107298
107302
107304
107308
107309
107312
107318
107330
107351
107369
107362
107342
107330
107330
107340
107348
107345
107328
107324
107341
107365
107376
107372
107368
107331
107326
107312
107291
107277
107272
107269
107268
107268
107268
107271
107277
107284
107293
107302
107305
107293
107282
107277
107274
107273
107273
107272
107269
107269
107277
107301
107334
107342
107344
107311
107305
107290
107273
107265
107263
107261
107259
107259
107259
107261
107264
107270
107277
107281
107276
107267
107263
107260
107257
107254
107252
107251
107251
107252
107255
107266
107292
107313
107320
107288
107282
107270
107260
107256
107255
107254
107253
107252
107252
107253
107255
107259
107264
107266
107260
107255
107254
107252
107250
107248
107247
107246
107246
107247
107247
107251
107264
107284
107293
107263
107257
107249
107246
107246
107247
107247
107245
107245
107245
107245
107247
107249
107251
107251
107248
107246
107245
107245
107244
107243
107242
107241
107241
107242
107242
107243
107248
107258
107265
107236
107233
107230
107231
107235
107237
107238
107238
107236
107236
107237
107237
107238
107238
107238
107236
107237
107237
107237
107237
107237
107237
107236
107236
107236
107236
107236
107235
107235
107238
107206
107207
107210
107216
107222
107226
107228
107229
107228
107228
107228
107228
107227
107224
107223
107223
107226
107228
107229
107230
107230
107231
107231
107231
107230
107229
107226
107219
107210
107206
107171
107177
107186
107198
107208
107214
107218
107220
107220
107219
107219
107217
107214
107209
107205
107205
107209
107212
107216
107219
107221
107222
107222
107222
107221
107217
107208
107191
107172
107163
107124
107135
107152
107171
107187
107200
107208
107211
107212
107210
107209
107207
107202
107192
107180
107177
107178
107183
107190
107197
107203
107206
107207
107206
107202
107191
107167
107137
107113
107101
107058
107074
107099
107125
107150
107172
107190
107199
107202
107200
107198
107195
107186
107163
107137
107124
107121
107124
107134
107146
107159
107168
107171
107167
107152
107122
107085
107052
107030
107019
106971
106989
107016
107046
107076
107108
107141
107170
107183
107183
107180
107172
107145
107096
107058
107035
107025
107024
107031
107043
107059
107073
107077
107066
107039
107004
106970
106944
106927
106918
106861
106875
106899
106927
106957
106991
107035
107085
107128
107141
107133
107103
107040
106982
106943
106917
106902
106895
106895
106901
106910
106917
106917
106906
106885
106861
106839
106821
106809
106803
106726
106737
106756
106779
106806
106840
106882
106930
106982
107016
107002
106950
106886
106838
106803
106778
106761
106750
106745
106743
106744
106745
106742
106735
106724
106712
106699
106688
106681
106678
106574
106581
106597
106618
106644
106676
106714
106753
106783
106808
106799
106760
106713
106675
106647
106625
106607
106594
106584
106578
106574
106571
106568
106566
106562
106559
106555
106551
106548
106546
106407
106413
106427
106448
106475
106508
106544
106575
106587
106595
106590
106567
106533
106504
106482
106461
106444
106429
106417
106407
106398
106393
106392
106395
106399
106404
106409
106411
106413
106413
106227
106232
106247
106269
106299
106333
106367
106390
106394
106394
106387
106373
106351
106329
106310
106292
106275
106259
106244
106230
106218
106211
106212
106221
106234
106249
106262
106272
106278
106280
106034
106040
106055
106078
106108
106141
106168
106186
106194
106191
106186
106179
106167
106150
106135
106119
106102
106085
106067
106048
106032
106022
106028
106045
106069
106094
106117
106134
106145
106149
105828
105835
105850
105873
105900
105927
105947
105964
105979
105979
105980
105981
105981
105971
105958
105944
105928
105910
105889
105865
105842
105832
105844
105871
105906
105943
105976
106000
106015
106022
105611
105618
105632
105653
105676
105697
105713
105729
105747
105753
105765
105778
105790
105789
105780
105769
105755
105737
105714
105685
105662
105661
105682
105714
105756
105801
105843
105872
105890
105898
105380
105386
105400
105418
105438
105457
105473
105486
105502
105513
105541
105569
105593
105604
105601
105595
105586
105570
105547
105520
105516
105538
105566
105596
105633
105679
105722
105752
105769
105777
105134
105140
105152
105170
105191
105212
105231
105245
105258
105269
105312
105357
105393
105415
105423
105426
105423
105413
105397
105385
105411
105451
105490
105522
105548
105582
105617
105639
105650
105655
104869
104873
104885
104906
104934
104965
104995
105020
105039
105052
105090
105147
105194
105228
105249
105262
105269
105269
105267
105280
105319
105373
105431
105469
105485
105501
105517
105522
105525
105526
104582
104585
104597
104622
104663
104713
104766
104813
104847
104863
104888
104944
105001
105046
105079
105104
105123
105137
105149
105184
105227
105292
105346
105378
105399
105399
105390
105383
105380
105379
104276
104275
104283
104312
104370
104445
104528
104608
104670
104701
104714
104755
104815
104869
104914
104952
104985
105013
105037
105081
105129
105189
105218
105232
105243
105235
105222
105212
105209
105209
103961
103946
103947
103975
104053
104157
104271
104383
104482
104539
104545
104579
104637
104698
104754
104805
104851
104893
104927
104974
105029
105055
105056
105054
105050
105038
105025
105017
105014
105014
103652
103621
103625
103652
103734
103860
104002
104142
104267
104353
104371
104404
104462
104530
104596
104660
104720
104769
104812
104863
104902
104891
104871
104855
104839
104823
104810
104801
104798
104796
103401
103372
103394
103424
103475
103587
103742
103904
104050
104165
104213
104241
104295
104365
104438
104511
104581
104635
104683
104728
104727
104698
104667
104640
104617
104596
104578
104566
104559
104555
103244
103232
103257
103285
103309
103375
103510
103679
103840
103976
104057
104085
104135
104202
104276
104354
104427
104478
104532
104542
104518
104484
104448
104414
104382
104352
104326
104306
104295
104291
103152
103151
103163
103181
103191
103228
103326
103478
103641
103783
103885
103930
103977
104040
104112
104187
104256
104298
104336
104326
104298
104261
104220
104177
104133
104089
104051
104024
104009
104004
103087
103085
103085
103084
103087
103114
103184
103310
103461
103600
103711
103777
103823
103880
103944
104010
104070
104106
104112
104104
104075
104035
103986
103931
103871
103810
103754
103717
103700
103697
103029
103024
103017
103004
103002
103019
103071
103174
103304
103433
103542
103620
103672
103723
103776
103828
103876
103902
103897
103885
103856
103811
103752
103681
103601
103515
103433
103387
103372
103378
102977
102971
102963
102948
102944
102945
102980
103060
103171
103286
103388
103467
103525
103572
103615
103652
103682
103693
103689
103676
103644
103593
103522
103434
103330
103223
103130
103071
103053
103071
102930
102926
102918
102906
102899
102891
102906
102964
103056
103156
103249
103326
103385
103430
103464
103487
103498
103493
103493
103482
103448
103388
103304
103197
103077
102967
102887
102827
102802
102827
102885
102884
102878
102870
102859
102851
102848
102878
102953
103041
103125
103199
103258
103301
103327
103337
103331
103321
103324
103313
103273
103203
103106
102982
102860
102770
102719
102678
102657
102676
102834
102839
102837
102834
102823
102815
102808
102816
102854
102937
103015
103086
103145
103186
103208
103210
103197
103194
103194
103176
103123
103041
102931
102807
102707
102646
102621
102607
102599
102608
102777
102790
102795
102796
102790
102785
102781
102779
102798
102848
102920
102987
103048
103089
103110
103111
103102
103101
103097
103065
102998
102906
102795
102689
102626
102595
102582
102579
102579
102583
102747
102752
102757
102759
102761
102761
102762
102763
102770
102795
102846
102905
102967
103010
103030
103033
103026
103023
103017
102973
102897
102803
102707
102631
102588
102575
102571
102571
102572
102574
102737
102737
102738
102739
102742
102746
102750
102752
102756
102770
102797
102838
102898
102945
102966
102970
102961
102957
102950
102898
102817
102724
102645
102596
102570
102566
102566
102568
102568
102570
102734
102734
102733
102734
102735
102738
102741
102743
102744
102754
102769
102798
102843
102892
102916
102920
102912
102908
102896
102841
102753
102666
102603
102572
102561
102561
102563
102564
102564
102565
102734
102734
102733
102734
102734
102736
102738
102738
102736
102742
102754
102773
102806
102850
102879
102885
102878
102866
102860
102802
102705
102623
102577
102560
102556
102558
102560
102560
102561
102561
102733
102733
102733
102733
102734
102735
102735
102735
102733
102735
102745
102755
102778
102818
102850
102852
102837
102831
102830
102766
102666
102592
102561
102553
102553
102555
102557
102557
102557
102558
102733
102733
102732
102733
102733
102733
102734
102734
102732
102732
102739
102744
102760
102791
102818
102821
102803
102805
102795
102725
102633
102573
102552
102550
102551
102553
102554
102554
102554
102554
102732
102732
102732
102732
102732
102732
102732
102732
102732
102731
102736
102739
102753
102770
102787
102788
102783
102784
102756
102679
102592
102556
102548
102549
102549
102550
102551
102551
102551
102550
102731
102731
102731
102731
102731
102731
102731
102731
102731
102731
102732
102736
102750
102763
102769
102769
102765
102752
102709
102623
102567
102549
102547
102547
102547
102547
102548
102548
102548
102547
102730
102730
102730
102730
102730
102730
102730
102731
102731
102731
102731
102738
102752
102763
102765
102760
102747
102721
102658
102590
102555
102546
102546
102546
102545
102545
102545
102545
102544
102544
102729
102729
102729
102729
102729
102729
102729
102730
102730
102731
102732
102748
102759
102768
102765
102753
102731
102688
102620
102569
102548
102544
102544
102544
102543
102543
102542
102542
102542
102542
102728
102728
102728
102728
102728
102728
102728
102729
102729
102730
102732
102745
102770
102775
102768
102750
102715
102658
102592
102553
102543
102541
102542
102542
102542
102542
102541
102541
102541
102541
102727
102727
102727
102727
102727
102727
102727
102728
102728
102729
102731
102740
102762
102785
102777
102752
102708
102640
102575
102547
102540
102540
102540
102541
102541
102540
102540
102540
102540
102540
102726
102726
102726
102726
102726
102726
102726
102726
102727
102727
102729
102734
102748
102770
102774
102753
102707
102630
102567
102545
102539
102539
102539
102540
102540
102540
102540
102539
102540
102540
102725
102725
102725
102725
102725
102725
102725
102725
102726
102726
102726
102728
102734
102743
102747
102738
102695
102621
102563
102543
102538
102538
102539
102539
102539
102539
102539
102539
102539
102539
102724
102724
102724
102724
102724
102724
102724
102724
102724
102724
102724
102724
102724
102723
102718
102713
102673
102604
102556
102539
102537
102538
102538
102538
102538
102538
102539
102539
102539
102539
102722
102722
102722
102722
102722
102722
102722
102723
102723
102722
102721
102719
102716
102709
102698
102684
102644
102578
102545
102537
102537
102538
102538
102538
102538
102538
102538
102538
102538
102539
102721
102721
102721
102721
102721
102721
102721
102721
102721
102720
102719
102716
102709
102697
102677
102651
102607
102556
102539
102537
102537
102537
102537
102537
102537
102538
102538
102538
102538
102538
102720
102720
102720
102720
102720
102720
102720
102720
102719
102718
102716
102712
102703
102686
102659
102622
102576
102544
102536
102536
102536
102536
102537
102537
102537
102537
102537
102538
102538
102538
102718
102718
102718
102718
102718
102718
102718
102718
102718
102717
102714
102709
102697
102677
102644
102604
102558
102539
102535
102535
102536
102536
102536
102536
102537
102537
102537
102537
102537
102537
102717
102717
102717
102717
102717
102717
102717
102717
102716
102715
102712
102705
102692
102668
102633
102591
102549
102536
102534
102535
102535
102535
102536
102536
102536
102536
102537
102537
102537
102537
102715
102715
102715
102715
102715
102715
102715
102715
102715
102713
102710
102702
102687
102660
102624
102580
102544
102535
102534
102534
102534
102534
102535
102535
102535
102536
102536
102536
102536
102536
102714
102714
102714
102714
102714
102714
102714
102714
102713
102712
102707
102699
102681
102653
102615
102572
102541
102533
102533
102533
102533
102534
102534
102534
102534
102535
102535
102535
102535
102535
102713
102713
102713
102713
102713
102713
102713
102713
102712
102710
102705
102695
102675
102645
102606
102564
102538
102532
102532
102532
102532
102532
102533
102533
102533
102533
102533
102533
102533
102533
102712
102712
102712
102712
102712
102712
102712
102711
102711
102708
102703
102691
102668
102636
102597
102556
102535
102531
102531
102531
102531
102531
102531
102531
102531
102531
102531
102531
102531
102531
102710
102710
102710
102711
102711
102711
102710
102710
102709
102707
102701
102686
102661
102626
102587
102549
102533
102530
102530
102530
102530
102530
102530
102530
102530
102530
102530
102529
102529
102529
102709
102709
102709
102709
102709
102709
102709
102709
102708
102705
102697
102680
102652
102616
102578
102543
102530
102529
102529
102529
102529
102529
102529
102529
102528
102528
102528
102528
102528
102528
102708
102708
102708
102708
102708
102708
102708
102707
102706
102702
102693
102672
102642
102607
102570
102539
102529
102528
102528
102528
102528
102528
102528
102527
102527
102527
102527
102527
102527
102527
102707
102707
102707
102707
102707
102706
102706
102705
102704
102699
102687
102664
102632
102597
102562
102535
102527
102527
102527
102527
102527
102527
102527
102526
102526
102526
102526
102526
102526
102526
102706
102706
102706
102705
102705
102704
102703
102703
102700
102694
102679
102655
102623
102589
102553
102531
102525
102526
102526
102526
102526
102526
102526
102525
102525
102525
102525
102525
102524
102524
102704
102704
102704
102703
102702
102701
102700
102699
102695
102687
102671
102645
102615
102580
102546
102528
102524
102525
102525
102525
102525
102525
102524
102524
102524
102524
102524
102523
102523
102523
102702
102702
102701
102700
102698
102697
102695
102693
102689
102679
102662
102637
102607
102573
102539
102525
102523
102524
102524
102524
102524
102524
102523
102523
102523
102523
102522
102522
102522
102522
102699
102698
102697
102695
102693
102691
102689
102686
102680
102670
102653
102630
102602
102568
102535
102524
102522
102523
102523
102522
102522
102522
102522
102522
102522
102521
102521
102521
102521
102521
102693
102692
102691
102688
102686
102684
102681
102677
102670
102659
102645
102625
102598
102564
102533
102522
102521
102521
102521
102521
102521
102521
102521
102521
102520
102520
102519
102519
102519
102519
102685
102684
102682
102680
102678
102675
102671
102666
102659
102651
102639
102622
102595
102560
102531
102521
102520
102520
102520
102520
102520
102520
102519
102519
102519
102518
102518
102518
102518
102518
102675
102674
102673
102670
102668
102665
102661
102657
102651
102644
102635
102618
102591
102556
102528
102519
102519
102519
102519
102518
102518
102518
102518
102517
102517
102516
102516
102516
102516
102516
102664
102664
102662
102660
102658
102655
102652
102648
102644
102638
102630
102613
102585
102550
102524
102517
102517
102517
102517
102517
102517
102516
102516
102516
102515
102515
102515
102515
102515
102515
102653
102653
102651
102650
102648
102646
102643
102640
102637
102633
102625
102609
102580
102543
102521
102515
102516
102515
102515
102515
102515
102515
102514
102514
102514
102513
102513
102513
102513
102513
102643
102642
102641
102640
102639
102637
102635
102633
102631
102627
102620
102604
102573
102537
102517
102513
102514
102513
102513
102513
102513
102513
102513
102513
102512
102512
102512
102512
102512
102512
102633
102633
102632
102632
102631
102629
102628
102626
102625
102622
102614
102597
102567
102531
102514
102511
102511
102511
102511
102511
102511
102511
102511
102511
102511
102511
102511
102510
102510
102510
102625
102625
102624
102624
102623
102622
102621
102620
102619
102616
102608
102590
102560
102526
102510
102507
102507
102507
102507
102508
102508
102509
102509
102509
102509
102509
102509
102509
102509
102509
102618
102618
102618
102617
102617
102616
102615
102614
102613
102609
102600
102581
102552
102519
102504
102503
102503
102503
102503
102504
102505
102505
102506
102507
102508
102508
102508
102508
102507
102507
102611
102611
102611
102611
102611
102610
102609
102608
102606
102602
102591
102572
102541
102510
102498
102498
102497
102497
102498
102499
102500
102501
102503
102504
102505
102506
102506
102506
102506
102506
102605
102605
102605
102605
102605
102604
102603
102602
102599
102594
102582
102560
102528
102499
102491
102492
102491
102491
102492
102493
102494
102496
102498
102500
102502
102503
102504
102504
102504
102504
102599
102599
102599
102599
102599
102598
102597
102595
102592
102586
102573
102548
102513
102489
102485
102485
102485
102485
102485
102486
102487
102489
102491
102494
102497
102499
102501
102502
102502
102502
102593
102593
102593
102593
102593
102591
102590
102588
102585
102578
102563
102534
102498
102480
102478
102478
102478
102478
102478
102478
102479
102481
102483
102486
102490
102493
102496
102498
102499
102499
102588
102588
102588
102587
102586
102585
102583
102580
102577
102569
102551
102520
102485
102471
102471
102471
102471
102471
102471
102471
102472
102473
102475
102477
102481
102485
102489
102492
102494
102495
102582
102582
102582
102581
102580
102578
102576
102573
102570
102560
102539
102504
102472
102463
102464
102464
102463
102463
102463
102463
102464
102465
102466
102468
102471
102474
102479
102483
102486
102488
102576
102576
102575
102574
102573
102571
102569
102567
102562
102550
102525
102486
102460
102455
102456
102456
102456
102456
102456
102456
102456
102457
102457
102458
102460
102463
102466
102470
102475
102477
102570
102570
102569
102568
102566
102564
102562
102560
102554
102539
102509
102469
102451
102449
102450
102449
102449
102449
102449
102449
102449
102449
102449
102449
102450
102451
102453
102456
102459
102462
102564
102563
102562
102561
102560
102558
102556
102552
102544
102526
102493
102457
102443
102443
102443
102443
102442
102442
102442
102442
102441
102441
102441
102440
102440
102439
102440
102441
102444
102446
102557
102556
102556
102555
102553
102551
102548
102543
102533
102510
102476
102446
102437
102437
102436
102436
102436
102435
102435
102434
102434
102433
102433
102432
102431
102430
102429
102429
102430
102430
102549
102549
102548
102548
102546
102543
102539
102533
102520
102494
102460
102436
102430
102431
102430
102430
102429
102428
102428
102427
102427
102426
102425
102424
102422
102421
102420
102419
102419
102419
102542
102542
102541
102540
102537
102534
102529
102521
102505
102477
102445
102427
102425
102425
102424
102423
102422
102422
102421
102420
102420
102419
102417
102416
102415
102414
102413
102412
102411
102410
102534
102534
102534
102532
102528
102524
102518
102507
102489
102462
102432
102420
102419
102418
102418
102417
102416
102415
102414
102414
102413
102412
102411
102409
102408
102407
102406
102405
102405
102404
102526
102526
102524
102522
102517
102512
102505
102491
102472
102447
102422
102414
102413
102412
102411
102410
102409
102408
102408
102407
102406
102405
102404
102403
102402
102401
102400
102400
102399
102399
102516
102515
102514
102510
102505
102499
102489
102474
102454
102433
102414
102408
102406
102406
102405
102404
102403
102402
102401
102401
102400
102399
102398
102397
102396
102395
102395
102394
102394
102393
102504
102503
102501
102497
102491
102483
102470
102455
102438
102420
102405
102401
102400
102399
102398
102397
102396
102396
102395
102395
102394
102393
102393
102391
102390
102390
102389
102389
102388
102388
102489
102488
102485
102480
102473
102463
102451
102437
102423
102408
102397
102394
102393
102392
102391
102390
102390
102389
102389
102389
102388
102388
102387
102386
102385
102384
102384
102383
102383
102383
102471
102469
102466
102461
102453
102443
102432
102421
102409
102398
102389
102387
102386
102385
102385
102384
102383
102383
102383
102383
102383
102382
102381
102380
102380
102379
102379
102378
102378
102378
102450
102448
102445
102439
102432
102424
102415
102406
102397
102388
102382
102381
102380
102379
102378
102378
102377
102377
102377
102377
102377
102376
102376
102375
102374
102374
102374
102373
102373
102373
102426
102425
102422
102417
102411
102405
102399
102392
102386
102379
102375
102374
102373
102372
102372
102371
102371
102371
102371
102371
102371
102371
102370
102370
102369
102369
102369
102368
102368
102368
102400
102399
102397
102393
102389
102386
102382
102378
102375
102370
102368
102368
102367
102366
102365
102365
102365
102365
102366
102366
102366
102365
102365
102365
102364
102364
102364
102364
102363
102363
102373
102372
102371
102369
102368
102367
102365
102365
102363
102362
102361
102361
102360
102360
102359
102359
102359
102360
102360
102360
102360
102360
102360
102359
102359
102359
102359
102359
102358
102358
102346
102346
102345
102345
102346
102348
102350
102350
102352
102353
102354
102354
102354
102354
102353
102353
102353
102354
102354
102354
102355
102354
102354
102354
102354
102354
102354
102354
102354
102353
102319
102320
102320
102322
102325
102330
102334
102337
102340
102343
102346
102347
102348
102347
102347
102347
102347
102348
102349
102349
102349
102349
102349
102349
102349
102349
102349
102349
102348
102348
102292
102293
102295
102299
102304
102311
102319
102324
102328
102332
102336
102339
102341
102340
102340
102341
102341
102342
102343
102344
102344
102344
102344
102344
102344
102344
102343
102343
102343
102343
102266
102267
102270
102275
102282
102291
102302
102310
102315
102320
102326
102331
102333
102333
102333
102333
102334
102336
102337
102338
102338
102338
102338
102338
102338
102338
102338
102337
102337
102338
102242
102242
102247
102253
102261
102270
102281
102293
102301
102307
102314
102320
102324
102324
102325
102326
102327
102329
102330
102331
102331
102331
102331
102331
102331
102332
102331
102331
102331
102331
102219
102219
102224
102229
102237
102247
102258
102270
102281
102291
102300
102308
102314
102315
102316
102317
102318
102320
102321
102322
102323
102323
102323
102323
102324
102324
102324
102324
102324
102324
102194
102195
102198
102204
102211
102221
102231
102244
102257
102269
102282
102294
102303
102304
102305
102306
102308
102310
102311
102313
102314
102315
102315
102315
102315
102316
102316
102316
102316
102316
102165
102166
102169
102175
102182
102191
102202
102215
102230
102246
102262
102278
102289
102291
102293
102294
102296
102298
102300
102302
102304
102305
102306
102307
102307
102307
102307
102307
102307
102307
102133
102134
102137
102143
102150
102160
102172
102186
102202
102221
102240
102261
102274
102277
102278
102280
102282
102285
102287
102290
102292
102294
102295
102296
102297
102297
102297
102297
102298
102298
102098
102100
102104
102109
102117
102127
102140
102155
102174
102194
102217
102242
102256
102260
102261
102263
102266
102270
102272
102275
102277
102279
102282
102284
102285
102286
102286
102286
102287
102287
102063
102065
102069
102074
102082
102092
102106
102122
102142
102165
102191
102221
102235
102241
102243
102246
102250
102252
102254
102255
102257
102260
102264
102268
102270
102272
102274
102274
102275
102275
102028
102028
102031
102037
102044
102055
102068
102085
102107
102132
102162
102195
102211
102218
102223
102227
102230
102230
102229
102227
102228
102231
102237
102244
102249
102254
102258
102260
102261
102261
101988
101988
101991
101995
102002
102011
102025
102043
102066
102093
102127
102162
102181
102191
102198
102203
102204
102200
102194
102188
102188
102191
102198
102208
102217
102227
102235
102241
102244
102244
101945
101945
101945
101947
101953
101963
101977
101996
102020
102049
102084
102121
102145
102157
102166
102170
102168
102158
102147
102141
102139
102142
102149
102159
102172
102187
102201
102212
102219
102221
101897
101893
101892
101894
101900
101910
101924
101944
101968
101997
102032
102069
102096
102111
102122
102125
102117
102103
102092
102088
102088
102090
102096
102105
102119
102136
102154
102170
102182
102186
101836
101834
101834
101836
101842
101852
101867
101886
101910
101939
101971
102004
102031
102051
102063
102063
102051
102040
102033
102033
102037
102043
102048
102054
102065
102079
102097
102114
102128
102133
101772
101771
101772
101775
101781
101790
101803
101822
101845
101873
101902
101928
101954
101977
101988
101986
101978
101972
101970
101975
101984
101991
101996
102002
102010
102021
102034
102049
102061
102066
101706
101706
101708
101712
101716
101722
101732
101751
101775
101802
101827
101849
101875
101895
101905
101905
101901
101899
101902
101910
101918
101922
101928
101936
101945
101954
101965
101977
101988
101992
101638
101639
101643
101648
101651
101655
101662
101678
101701
101727
101751
101773
101796
101814
101823
101824
101823
101823
101830
101836
101841
101841
101843
101849
101858
101868
101880
101893
101906
101911
101568
101573
101580
101587
101592
101595
101602
101613
101631
101656
101677
101701
101722
101737
101743
101745
101744
101746
101754
101762
101760
101755
101752
101753
101759
101767
101778
101791
101807
101816
101515
101519
101527
101534
101542
101550
101558
101566
101576
101593
101614
101636
101654
101664
101667
101667
101667
101671
101677
101685
101676
101666
101659
101658
101658
101662
101669
101679
101691
101702
101476
101477
101483
101492
101502
101513
101522
101530
101538
101547
101563
101579
101590
101595
101595
101593
101592
101598
101604
101602
101589
101576
101569
101565
101560
101557
101558
101562
101569
101576
101446
101447
101451
101459
101471
101482
101491
101498
101505
101512
101521
101529
101530
101529
101524
101521
101521
101526
101530
101516
101499
101486
101479
101473
101465
101454
101444
101441
101443
101448
101419
101421
101426
101433
101442
101452
101460
101467
101473
101478
101481
101477
101470
101463
101456
101452
101452
101454
101446
101425
101405
101392
101386
101380
101369
101352
101330
101314
101310
101318
101391
101394
101399
101405
101412
101419
101426
101433
101438
101440
101434
101421
101409
101398
101390
101385
101383
101376
101354
101329
101307
101295
101290
101287
101278
101257
101228
101208
101194
101189
101363
101366
101370
101374
101377
101381
101386
101391
101393
101389
101375
101361
101347
101335
101326
101319
101310
101289
101259
101228
101207
101198
101198
101201
101198
101180
101161
101142
101126
101118
101332
101334
101336
101337
101338
101339
101341
101341
101337
101327
101313
101300
101286
101275
101264
101253
101233
101201
101163
101136
101123
101121
101127
101135
101139
101132
101119
101104
101096
101094
101297
101296
101295
101294
101293
101292
101289
101283
101274
101264
101252
101240
101228
101217
101204
101187
101158
101119
101092
101083
101083
101086
101092
101099
101104
101100
101089
101082
101080
101079
101253
101251
101248
101245
101242
101236
101229
101221
101212
101203
101193
101183
101173
101161
101147
101126
101092
101065
101060
101062
101065
101069
101075