/*--------------------------------*- C++ -*----------------------------------*\
| =========                 |                                                 |
| \\      /  F ield         | OpenFOAM: The Open Source CFD Toolbox           |
|  \\    /   O peration     | Version:  v1606+                                |
|   \\  /    A nd           | Web:      www.OpenFOAM.com                      |
|    \\/     M anipulation  |                                                 |
\*---------------------------------------------------------------------------*/
FoamFile
{
    version     2.0;
    format      ascii;
    class       volVectorField;
    location    "1.05";
    object      U.particlesMean;
}
// * * * * * * * * * * * * * * * * * * * * * * * * * * * * * * * * * * * * * //

dimensions      [0 1 -1 0 0 0 0];

internalField   nonuniform List<vector> 
6000
(
(-0.00715887 -0.340505 0)
(0.00034324 -0.366497 0)
(0.0110668 -0.365752 0)
(0.0180628 -0.373703 0)
(0.0204254 -0.386383 0)
(0.0180252 -0.397345 0)
(0.0152444 -0.40602 0)
(0.0113737 -0.411893 0)
(0.0076194 -0.411875 0)
(0.00481097 -0.422552 0)
(0.00228924 -0.436265 0)
(0.00102612 -0.444908 0)
(0.00010145 -0.4485 0)
(-0.0006766 -0.452766 0)
(-0.00124972 -0.453716 0)
(-0.00201525 -0.45407 0)
(-0.00287246 -0.453103 0)
(-0.00413346 -0.449292 0)
(-0.00514259 -0.447976 0)
(-0.00703881 -0.440095 0)
(-0.00962256 -0.429944 0)
(-0.0118267 -0.416958 0)
(-0.0143346 -0.41062 0)
(-0.0166627 -0.405721 0)
(-0.0188108 -0.398122 0)
(-0.0197773 -0.387352 0)
(-0.0166711 -0.374785 0)
(-0.0096591 -0.367958 0)
(0.00095731 -0.36738 0)
(0.00827662 -0.34129 0)
(0.0160078 0.0347875 0)
(0.00870621 0.0518394 0)
(0.0193284 0.0477866 0)
(0.0292877 0.0505151 0)
(0.03844 0.0548108 0)
(0.0399761 0.0565381 0)
(0.0333026 0.0589527 0)
(0.0209127 0.0605613 0)
(0.00978531 0.0588277 0)
(0.00652259 0.0600677 0)
(0.00275037 0.0643079 0)
(-0.000637316 0.0631757 0)
(-0.00178315 0.0558951 0)
(-0.00196303 0.0512083 0)
(-0.000335719 0.0468851 0)
(0.00117985 0.0461181 0)
(0.00075001 0.0488049 0)
(-0.00103449 0.0525141 0)
(-0.00377705 0.0591292 0)
(-0.0089539 0.0620753 0)
(-0.0134383 0.0596985 0)
(-0.0161397 0.0578599 0)
(-0.0251182 0.0585223 0)
(-0.0346653 0.0586724 0)
(-0.0385214 0.0568503 0)
(-0.0366937 0.0547958 0)
(-0.0272489 0.0513197 0)
(-0.01724 0.0498023 0)
(-0.00674937 0.0537152 0)
(-0.0143953 0.0343759 0)
(0.00109499 -0.0408915 0)
(0.00367683 -0.0550453 0)
(0.0167457 -0.0591886 0)
(0.0247271 -0.0563377 0)
(0.0352528 -0.047924 0)
(0.0408615 -0.0337688 0)
(0.0364761 -0.0216524 0)
(0.025097 -0.0163117 0)
(0.0172235 -0.0236932 0)
(0.0113346 -0.03061 0)
(0.00549317 -0.0365724 0)
(0.00269439 -0.0421003 0)
(0.000662459 -0.045503 0)
(-0.000239129 -0.0469073 0)
(0.00200404 -0.0474445 0)
(0.00370535 -0.045139 0)
(0.00273607 -0.0419803 0)
(-0.00091751 -0.0398917 0)
(-0.0056633 -0.0354965 0)
(-0.0110958 -0.0335242 0)
(-0.0180604 -0.0315549 0)
(-0.0234408 -0.0271019 0)
(-0.0295111 -0.0225137 0)
(-0.0371782 -0.025872 0)
(-0.0380391 -0.0366925 0)
(-0.0326635 -0.049976 0)
(-0.0222698 -0.0585394 0)
(-0.0139982 -0.0604366 0)
(-0.00143232 -0.0548745 0)
(-0.000908478 -0.0392981 0)
(0.00769541 -0.0462698 0)
(0.00542408 -0.0585564 0)
(0.00807109 -0.0596659 0)
(0.0116937 -0.0565813 0)
(0.0200853 -0.0480835 0)
(0.0294647 -0.035668 0)
(0.0352518 -0.0202665 0)
(0.0339217 -0.0117373 0)
(0.0302319 -0.00996096 0)
(0.0236569 -0.00829517 0)
(0.0154175 -0.00866874 0)
(0.00670696 -0.00982996 0)
(-0.00096273 -0.0139883 0)
(-0.00214149 -0.0229267 0)
(0.00210658 -0.0296233 0)
(0.00663328 -0.027053 0)
(0.00809685 -0.0191328 0)
(0.00325341 -0.0125481 0)
(-0.00753278 -0.00828594 0)
(-0.0190815 -0.00809259 0)
(-0.0281702 -0.0104677 0)
(-0.0341612 -0.0136468 0)
(-0.0357655 -0.0158982 0)
(-0.0355574 -0.0239383 0)
(-0.0278351 -0.0378603 0)
(-0.0181143 -0.049445 0)
(-0.00955934 -0.0565407 0)
(-0.00698886 -0.058155 0)
(-0.00537687 -0.0561847 0)
(-0.00835449 -0.0441025 0)
(0.00542618 -0.0632456 0)
(-0.00139428 -0.0741005 0)
(-0.00221261 -0.0765888 0)
(-0.00210549 -0.0798856 0)
(0.00591916 -0.0741845 0)
(0.0161807 -0.0615358 0)
(0.0271785 -0.0424243 0)
(0.0330357 -0.0278188 0)
(0.0316601 -0.0220084 0)
(0.0258696 -0.0179304 0)
(0.0178066 -0.0165391 0)
(0.00646454 -0.0160731 0)
(-0.00261704 -0.0235564 0)
(-0.00453469 -0.0402852 0)
(0.000191798 -0.0505759 0)
(0.00662343 -0.046697 0)
(0.00981131 -0.0323457 0)
(0.00569618 -0.0179239 0)
(-0.00724578 -0.0107705 0)
(-0.0203312 -0.0148062 0)
(-0.0279307 -0.020862 0)
(-0.0328499 -0.0270112 0)
(-0.0332968 -0.0330657 0)
(-0.027347 -0.0453449 0)
(-0.0167241 -0.0645145 0)
(-0.00618418 -0.0765177 0)
(0.00274744 -0.0795371 0)
(0.00222535 -0.0739977 0)
(0.000749813 -0.0708213 0)
(-0.00667867 -0.0604667 0)
(0.0020454 -0.0640395 0)
(-0.00910133 -0.0697435 0)
(-0.0144211 -0.0782975 0)
(-0.0134976 -0.0866827 0)
(-0.00663691 -0.0838169 0)
(0.00582863 -0.0733574 0)
(0.0199441 -0.0549771 0)
(0.0328762 -0.0358536 0)
(0.0330937 -0.0226571 0)
(0.0265371 -0.0188352 0)
(0.0183393 -0.0183645 0)
(0.00627396 -0.0193776 0)
(-0.00392326 -0.0313715 0)
(-0.00733829 -0.0505816 0)
(-0.00425027 -0.062836 0)
(0.00277641 -0.0593232 0)
(0.00693854 -0.0427697 0)
(0.00421415 -0.0252461 0)
(-0.00403476 -0.0143979 0)
(-0.0143916 -0.0150524 0)
(-0.02312 -0.0196535 0)
(-0.0304975 -0.0268553 0)
(-0.0319614 -0.0397181 0)
(-0.0216227 -0.0578904 0)
(-0.00833476 -0.0768145 0)
(0.00479297 -0.0858618 0)
(0.0120878 -0.0850688 0)
(0.0123151 -0.0751101 0)
(0.00753464 -0.0665583 0)
(-0.00385872 -0.0622434 0)
(-0.00370557 -0.0527572 0)
(-0.0146936 -0.0669894 0)
(-0.020703 -0.0801 0)
(-0.0213791 -0.0908434 0)
(-0.014631 -0.0921592 0)
(-0.000960529 -0.0819983 0)
(0.0135761 -0.0658994 0)
(0.0319495 -0.0454447 0)
(0.0357273 -0.0250239 0)
(0.0285123 -0.0184094 0)
(0.0209756 -0.0190273 0)
(0.00971442 -0.0211582 0)
(0.000871019 -0.0337806 0)
(-0.00377302 -0.0561716 0)
(-0.00439177 -0.0708047 0)
(8.94508e-05 -0.0688299 0)
(0.00239091 -0.0517908 0)
(0.000855202 -0.0314514 0)
(-0.00411568 -0.0183974 0)
(-0.0106241 -0.0171769 0)
(-0.0191642 -0.018333 0)
(-0.0280229 -0.0269128 0)
(-0.030365 -0.046763 0)
(-0.0166052 -0.0681652 0)
(-0.0021569 -0.0855234 0)
(0.0119192 -0.0920043 0)
(0.0174751 -0.0879035 0)
(0.0167963 -0.0768277 0)
(0.0120482 -0.0646804 0)
(0.00176759 -0.0526664 0)
(-0.00365069 -0.0417192 0)
(-0.0145598 -0.0563017 0)
(-0.0206986 -0.0722968 0)
(-0.0212402 -0.0864011 0)
(-0.0169281 -0.0925228 0)
(-0.00546024 -0.0869114 0)
(0.00833372 -0.0726962 0)
(0.0236218 -0.0545011 0)
(0.0349195 -0.0307807 0)
(0.0323118 -0.0141843 0)
(0.02244 -0.013905 0)
(0.0168031 -0.0181815 0)
(0.0118086 -0.0318087 0)
(0.0057294 -0.0570912 0)
(0.000223158 -0.0734448 0)
(-0.00284875 -0.0726761 0)
(-0.00363418 -0.0582277 0)
(-0.00461828 -0.0356992 0)
(-0.00618197 -0.0230238 0)
(-0.0101853 -0.0159666 0)
(-0.0164754 -0.0138825 0)
(-0.0229396 -0.0261501 0)
(-0.0210871 -0.0513177 0)
(-0.0108317 -0.0731162 0)
(0.00200957 -0.0873814 0)
(0.0123837 -0.0913897 0)
(0.0139806 -0.0838506 0)
(0.0150667 -0.0708711 0)
(0.0115477 -0.0567943 0)
(0.00207066 -0.0430775 0)
(-0.00385916 -0.0358415 0)
(-0.00963991 -0.044709 0)
(-0.0152688 -0.062444 0)
(-0.0179177 -0.0808565 0)
(-0.0173623 -0.0908204 0)
(-0.00780579 -0.0912919 0)
(0.0032 -0.0803254 0)
(0.0164196 -0.060854 0)
(0.0348728 -0.0345764 0)
(0.043543 -0.0111803 0)
(0.0294317 0.000582133 0)
(0.0218634 -0.00725267 0)
(0.0224773 -0.0275399 0)
(0.0170313 -0.0540445 0)
(0.00826756 -0.0691636 0)
(-0.00237229 -0.0688873 0)
(-0.00679985 -0.0552689 0)
(-0.00990682 -0.0299365 0)
(-0.00868423 -0.017433 0)
(-0.0089598 -0.0051985 0)
(-0.0174018 -0.00239757 0)
(-0.01972 -0.0245941 0)
(-0.00916627 -0.0553687 0)
(-0.00165143 -0.0785619 0)
(0.00493113 -0.089231 0)
(0.00999492 -0.0889782 0)
(0.00941578 -0.0791099 0)
(0.00934615 -0.0630995 0)
(0.00724878 -0.0478921 0)
(0.00374892 -0.0396909 0)
(0.000744776 -0.0283062 0)
(-0.000914585 -0.0327837 0)
(-0.00423601 -0.0480889 0)
(-0.0108477 -0.0704343 0)
(-0.0147626 -0.0851659 0)
(-0.00700421 -0.0903262 0)
(0.0012349 -0.0820923 0)
(0.0163009 -0.0665127 0)
(0.0355029 -0.0368718 0)
(0.0461983 -0.00801864 0)
(0.0397245 0.00373466 0)
(0.0357284 0.00151809 0)
(0.0350934 -0.0188082 0)
(0.023934 -0.0449329 0)
(0.0137098 -0.0639858 0)
(-0.000999379 -0.0642642 0)
(-0.00746916 -0.0498889 0)
(-0.012928 -0.0240125 0)
(-0.00455755 -0.00779487 0)
(-0.00742318 0.00600642 0)
(-0.0183819 -0.000167605 0)
(-0.0110036 -0.0259899 0)
(0.0016927 -0.0602234 0)
(0.00883732 -0.0790881 0)
(0.0082206 -0.0859793 0)
(0.00789441 -0.0838549 0)
(0.00397378 -0.0719118 0)
(0.00293007 -0.052452 0)
(0.0016651 -0.0367536 0)
(0.00131619 -0.0313444 0)
(0.00191866 -0.0225167 0)
(0.00267948 -0.0279269 0)
(0.00377501 -0.0422071 0)
(0.00182854 -0.0638683 0)
(-0.00997608 -0.0824804 0)
(-0.00597228 -0.0878442 0)
(0.00143264 -0.0833104 0)
(0.0171532 -0.0713475 0)
(0.0281931 -0.0418583 0)
(0.0411114 -0.00487685 0)
(0.0394861 0.0102965 0)
(0.0322373 0.00802878 0)
(0.0397743 -0.0152597 0)
(0.0367491 -0.0394814 0)
(0.0227719 -0.0537056 0)
(0.00172742 -0.0570021 0)
(-0.00555496 -0.0453929 0)
(-0.00852263 -0.0233846 0)
(0.00306934 0.00142497 0)
(-0.00866159 0.00538616 0)
(-0.012518 -0.000746274 0)
(-0.00089231 -0.0304718 0)
(0.010992 -0.0618281 0)
(0.018118 -0.0780706 0)
(0.0130224 -0.0819335 0)
(0.00615905 -0.0804469 0)
(-0.00176527 -0.0686004 0)
(-0.0018381 -0.0458198 0)
(-0.00193647 -0.0305882 0)
(-0.000635465 -0.0250097 0)
(0.00368644 -0.0172842 0)
(0.00263233 -0.0240106 0)
(0.00602019 -0.0382988 0)
(0.00888204 -0.060328 0)
(0.00143996 -0.0818417 0)
(-0.00572752 -0.0924839 0)
(-0.000288741 -0.0924467 0)
(0.00989065 -0.0779445 0)
(0.0210402 -0.049214 0)
(0.0325238 -0.00952064 0)
(0.0372963 0.0104245 0)
(0.0289624 0.00883866 0)
(0.03534 -0.0142896 0)
(0.0358371 -0.0348631 0)
(0.0271447 -0.0453395 0)
(0.00880198 -0.0461269 0)
(-0.0010015 -0.0373512 0)
(-0.00187021 -0.0207917 0)
(0.00948852 0.00264295 0)
(-0.00176815 0.00606858 0)
(-0.00340502 -0.00212225 0)
(0.00728679 -0.0321316 0)
(0.016445 -0.0627693 0)
(0.0206697 -0.0774381 0)
(0.0147883 -0.0799327 0)
(0.00355316 -0.0780326 0)
(-0.00683185 -0.0649221 0)
(-0.00440272 -0.041018 0)
(-0.00259851 -0.0265513 0)
(-0.00262523 -0.0192336 0)
(0.00408561 -0.0140966 0)
(0.000873817 -0.0208892 0)
(0.00550745 -0.0354001 0)
(0.00822842 -0.0581347 0)
(0.00509767 -0.0763869 0)
(-0.00303477 -0.0910672 0)
(-0.00541844 -0.0897844 0)
(0.00343444 -0.0742752 0)
(0.00937346 -0.046685 0)
(0.0225813 -0.004137 0)
(0.0288097 0.018782 0)
(0.0235777 0.0168228 0)
(0.0292838 -0.00446633 0)
(0.0346431 -0.0241886 0)
(0.0262324 -0.0344376 0)
(0.0104214 -0.0381564 0)
(0.00556957 -0.0369117 0)
(0.0148614 -0.0242467 0)
(0.0238678 0.0072784 0)
(0.0123688 0.0146221 0)
(0.0100566 0.00345511 0)
(0.0210928 -0.0312786 0)
(0.0250919 -0.060151 0)
(0.0242959 -0.0736941 0)
(0.0201091 -0.0780864 0)
(0.00147045 -0.0757248 0)
(-0.0102051 -0.0608404 0)
(-0.00735562 -0.0387934 0)
(-0.00262212 -0.0236941 0)
(-0.00368868 -0.015194 0)
(0.00417369 -0.0108368 0)
(0.000249633 -0.0172668 0)
(0.00504334 -0.0306436 0)
(0.0054245 -0.050554 0)
(0.00256139 -0.0706044 0)
(-0.00339696 -0.0844205 0)
(-0.00853704 -0.0859843 0)
(-0.00451388 -0.0726584 0)
(0.000445587 -0.0457738 0)
(0.0110036 -0.0036942 0)
(0.0214777 0.0196588 0)
(0.022794 0.0208818 0)
(0.0253209 -0.00347977 0)
(0.0369016 -0.0179207 0)
(0.0287743 -0.0264275 0)
(0.0106467 -0.0307871 0)
(0.00480389 -0.034107 0)
(0.0191388 -0.0264181 0)
(0.0290316 0.00990252 0)
(0.0227427 0.0222767 0)
(0.0176614 0.0106935 0)
(0.0240229 -0.0243059 0)
(0.0281595 -0.0546482 0)
(0.0255571 -0.0647455 0)
(0.0225741 -0.0658749 0)
(0.000387225 -0.0678014 0)
(-0.0103225 -0.0553902 0)
(-0.00867152 -0.0352824 0)
(-0.00227617 -0.0205618 0)
(-0.00369921 -0.0105659 0)
(0.00526383 -0.00665798 0)
(0.00116238 -0.0129074 0)
(0.00470492 -0.0223015 0)
(0.00113302 -0.0409183 0)
(-0.00404554 -0.0629335 0)
(-0.00797905 -0.0759078 0)
(-0.0129755 -0.0788404 0)
(-0.0135462 -0.0663385 0)
(-0.0120425 -0.0420436 0)
(-0.00288458 -0.00385104 0)
(0.0112396 0.0180766 0)
(0.0244687 0.0200432 0)
(0.0287556 -0.00428818 0)
(0.0404805 -0.0136564 0)
(0.0344907 -0.0212894 0)
(0.0210761 -0.0268667 0)
(0.0119758 -0.0296845 0)
(0.0193824 -0.0325239 0)
(0.0244766 0.0147232 0)
(0.0257464 0.0345077 0)
(0.0168648 0.0232653 0)
(0.0186766 -0.0117636 0)
(0.0221264 -0.046934 0)
(0.018001 -0.0575018 0)
(0.0213302 -0.0569118 0)
(0.00097605 -0.0596632 0)
(-0.00687849 -0.0477855 0)
(-0.00636766 -0.029352 0)
(-0.000594971 -0.0163006 0)
(-0.00423531 -0.00632244 0)
(0.00520397 -0.00229046 0)
(0.000384002 -0.00701908 0)
(0.00661802 -0.0146174 0)
(0.00864673 -0.0350975 0)
(0.00438444 -0.059721 0)
(-0.00448625 -0.068816 0)
(-0.0210717 -0.0690705 0)
(-0.0268566 -0.0592468 0)
(-0.02469 -0.0359149 0)
(-0.0143161 -0.00614993 0)
(0.00194675 0.0107037 0)
(0.018415 0.00946313 0)
(0.0258546 -0.00187637 0)
(0.0367303 -0.0196974 0)
(0.0459689 -0.0229399 0)
(0.0375343 -0.0268494 0)
(0.0330903 -0.0338566 0)
(0.0252719 -0.0371424 0)
(0.0216517 0.0107164 0)
(0.0270115 0.0377142 0)
(0.016838 0.0302566 0)
(0.0164903 -0.00106761 0)
(0.0110761 -0.0375875 0)
(0.00294391 -0.0513484 0)
(0.0123708 -0.0524556 0)
(0.0025045 -0.0524848 0)
(-0.00359177 -0.0379138 0)
(-0.00351855 -0.0215143 0)
(0.00188254 -0.0106122 0)
(-0.00426284 -0.00137531 0)
(0.00550587 -4.88435e-05 0)
(0.00172674 -0.0013551 0)
(0.00945623 -0.0120956 0)
(0.015256 -0.0309708 0)
(0.00936674 -0.0570051 0)
(0.00197429 -0.0661726 0)
(-0.0155915 -0.0688031 0)
(-0.0381856 -0.0541191 0)
(-0.036978 -0.0265372 0)
(-0.0240443 -0.00376734 0)
(-0.0065456 0.00679647 0)
(0.0113841 0.00477225 0)
(0.0269406 -0.00936984 0)
(0.034821 -0.00970624 0)
(0.0484626 -0.015628 0)
(0.0486147 -0.0245111 0)
(0.0527771 -0.0335445 0)
(0.033681 -0.0385918 0)
(0.0227393 0.0125031 0)
(0.0282661 0.0452256 0)
(0.0225229 0.0410761 0)
(0.0232957 0.00765991 0)
(0.011986 -0.0301539 0)
(0.00366403 -0.0484886 0)
(0.00159147 -0.0577098 0)
(-0.00676765 -0.0519157 0)
(-0.0146848 -0.0276974 0)
(-0.0110782 -0.0151119 0)
(-0.00226065 -0.00641518 0)
(-0.00595728 0.00270624 0)
(0.00571031 -0.00755134 0)
(0.00724972 -0.00662279 0)
(0.020003 -0.00913043 0)
(0.0245891 -0.0229023 0)
(0.013382 -0.0520088 0)
(-0.000574694 -0.069329 0)
(-0.0193378 -0.0697254 0)
(-0.0393348 -0.0542044 0)
(-0.0436963 -0.0194914 0)
(-0.0319709 -0.000819838 0)
(-0.012391 0.000204863 0)
(0.00861097 -0.00507992 0)
(0.0264209 -0.0217643 0)
(0.0364228 -0.0144604 0)
(0.0536706 -0.0182051 0)
(0.0579532 -0.0229981 0)
(0.064422 -0.0316898 0)
(0.0449832 -0.0330349 0)
(0.0222196 0.0217148 0)
(0.0303803 0.0520038 0)
(0.0287165 0.050845 0)
(0.0310918 0.0187924 0)
(0.0244181 -0.0225892 0)
(0.0121874 -0.046564 0)
(-0.00420898 -0.0543197 0)
(-0.019877 -0.0413402 0)
(-0.0328688 -0.017705 0)
(-0.0254594 -0.00821147 0)
(-0.0106767 -0.00419841 0)
(-0.00968549 0.00363647 0)
(0.00476166 -0.00664478 0)
(0.0101922 -0.0238308 0)
(0.0193227 -0.0213129 0)
(0.0305508 -0.0221669 0)
(0.0185529 -0.0460561 0)
(0.00199619 -0.067134 0)
(-0.0210813 -0.0764047 0)
(-0.0419759 -0.0601992 0)
(-0.0457287 -0.0273781 0)
(-0.0341626 -0.0135192 0)
(-0.0121074 -0.0165898 0)
(0.0116508 -0.0259571 0)
(0.0285814 -0.0435829 0)
(0.0441477 -0.0412953 0)
(0.0585352 -0.0351234 0)
(0.0634796 -0.0343793 0)
(0.0663664 -0.0401814 0)
(0.0495744 -0.0255498 0)
(0.0206244 0.0258043 0)
(0.033054 0.0561832 0)
(0.0345749 0.0552074 0)
(0.0448633 0.0288446 0)
(0.03794 -0.0177908 0)
(0.0119268 -0.0502441 0)
(-0.0164702 -0.0440869 0)
(-0.0311802 -0.0292742 0)
(-0.0424666 -0.017185 0)
(-0.0332092 -0.0174491 0)
(-0.0196642 -0.0123506 0)
(-0.0138112 0.00128532 0)
(0.00293209 0.00504247 0)
(0.0115677 -0.0191108 0)
(0.0190806 -0.0433741 0)
(0.0214992 -0.0476905 0)
(0.0100175 -0.0558612 0)
(-0.00834288 -0.071002 0)
(-0.029749 -0.076981 0)
(-0.0435355 -0.0803785 0)
(-0.0421696 -0.0576759 0)
(-0.0279113 -0.0468883 0)
(-0.00595047 -0.0535435 0)
(0.0133314 -0.0619811 0)
(0.0333657 -0.0829027 0)
(0.0461912 -0.0757041 0)
(0.0591159 -0.0615721 0)
(0.0651541 -0.0550841 0)
(0.064734 -0.0440469 0)
(0.0485052 -0.0213736 0)
(0.0263405 0.0204683 0)
(0.0391204 0.0492957 0)
(0.0417612 0.0498093 0)
(0.0526367 0.0234371 0)
(0.0369592 -0.025435 0)
(0.00969016 -0.047445 0)
(-0.0119307 -0.0438615 0)
(-0.0295121 -0.0330547 0)
(-0.0376407 -0.034009 0)
(-0.0350071 -0.0404509 0)
(-0.0262557 -0.0269771 0)
(-0.0182582 -0.0128224 0)
(0.0059046 0.000749332 0)
(0.0129838 -0.0253286 0)
(0.0140763 -0.0560372 0)
(0.00655259 -0.0652504 0)
(-0.00443771 -0.0661135 0)
(-0.0192143 -0.0637663 0)
(-0.036104 -0.070929 0)
(-0.0427353 -0.0945796 0)
(-0.0371125 -0.0903699 0)
(-0.0252104 -0.0776607 0)
(-0.00544155 -0.0748547 0)
(0.0130167 -0.0861088 0)
(0.0283697 -0.105254 0)
(0.0383643 -0.104541 0)
(0.0514371 -0.0899673 0)
(0.0570369 -0.0764195 0)
(0.0554017 -0.0408667 0)
(0.0444159 -0.0192865 0)
(0.0281978 0.00581804 0)
(0.0371401 0.035929 0)
(0.0500606 0.0257315 0)
(0.0407276 -0.000803594 0)
(0.035685 -0.019562 0)
(0.0158254 -0.0385167 0)
(-0.00375132 -0.0431423 0)
(-0.018722 -0.0523181 0)
(-0.0267439 -0.0614028 0)
(-0.0320315 -0.067233 0)
(-0.02996 -0.0554932 0)
(-0.0181861 -0.0441672 0)
(0.0118732 -0.0437407 0)
(0.0145884 -0.0572677 0)
(0.00215606 -0.0601373 0)
(-0.00582506 -0.0556244 0)
(-0.0148175 -0.0514996 0)
(-0.0224957 -0.0457837 0)
(-0.0274204 -0.0645016 0)
(-0.0339036 -0.0950316 0)
(-0.0396958 -0.108152 0)
(-0.02777 -0.0968248 0)
(-0.00988553 -0.0847774 0)
(0.0061383 -0.0926115 0)
(0.023595 -0.114167 0)
(0.0342994 -0.117806 0)
(0.0475021 -0.104531 0)
(0.0503736 -0.0873718 0)
(0.0462532 -0.0447694 0)
(0.0396376 -0.0151613 0)
(0.0326315 0.00236245 0)
(0.0394171 0.0180542 0)
(0.0414185 0.00949009 0)
(0.0339306 -0.00301425 0)
(0.0304145 -0.0150113 0)
(0.0145713 -0.0357691 0)
(0.00360458 -0.0468918 0)
(-0.00422165 -0.0568457 0)
(-0.00978695 -0.0696019 0)
(-0.0144525 -0.0839112 0)
(-0.0187921 -0.0962398 0)
(-0.0136188 -0.09035 0)
(0.00968661 -0.0654393 0)
(0.0059149 -0.0629317 0)
(0.000978815 -0.0516255 0)
(-0.00688779 -0.0455927 0)
(-0.0137692 -0.0426883 0)
(-0.014853 -0.042913 0)
(-0.0157725 -0.0625761 0)
(-0.0196004 -0.0905226 0)
(-0.0288725 -0.109479 0)
(-0.0365497 -0.111642 0)
(-0.0210726 -0.100082 0)
(-0.000149303 -0.0982005 0)
(0.0195358 -0.116495 0)
(0.0307521 -0.117316 0)
(0.0431521 -0.106176 0)
(0.0459412 -0.0814408 0)
(0.0396516 -0.0474996 0)
(0.0377029 -0.0121928 0)
(0.0392144 -0.000160253 0)
(0.0379076 -0.00104884 0)
(0.0349423 0.000448644 0)
(0.0292671 -0.00618788 0)
(0.0249636 -0.0146072 0)
(0.0139906 -0.03634 0)
(0.0051641 -0.0523509 0)
(0.00383777 -0.0559921 0)
(-0.000348488 -0.0667454 0)
(-0.00387705 -0.0837394 0)
(-0.00470856 -0.103973 0)
(-0.00637951 -0.10814 0)
(0.0037428 -0.0630876 0)
(-0.00160683 -0.0573572 0)
(-0.00495615 -0.043894 0)
(-0.0106707 -0.0372416 0)
(-0.00951213 -0.0400185 0)
(-0.00242737 -0.0488056 0)
(-0.000592052 -0.0643992 0)
(-0.00505839 -0.0885587 0)
(-0.0151451 -0.108567 0)
(-0.0267589 -0.115529 0)
(-0.0289952 -0.107759 0)
(-0.00703878 -0.102351 0)
(0.0122087 -0.114886 0)
(0.0235208 -0.113118 0)
(0.0347395 -0.104539 0)
(0.0365699 -0.0694489 0)
(0.0302957 -0.0425591 0)
(0.0376668 -0.0166467 0)
(0.0486699 -0.00422058 0)
(0.042929 -0.0113171 0)
(0.0330599 -0.006839 0)
(0.0248423 -0.0106939 0)
(0.019421 -0.0156542 0)
(0.0114818 -0.0388675 0)
(0.000971919 -0.0572871 0)
(0.00384706 -0.0541332 0)
(0.0053044 -0.0599221 0)
(0.00202736 -0.0765416 0)
(0.000526161 -0.0971659 0)
(-0.000801412 -0.104813 0)
(0.00265547 -0.0548528 0)
(-0.00102876 -0.050258 0)
(-0.008962 -0.0365409 0)
(-0.00843411 -0.0351699 0)
(0.00025537 -0.0449936 0)
(0.00851809 -0.0574213 0)
(0.0128664 -0.0689053 0)
(0.00811884 -0.0889744 0)
(-0.00287265 -0.105505 0)
(-0.0139577 -0.113276 0)
(-0.0257383 -0.115737 0)
(-0.0198043 -0.11247 0)
(-0.00139317 -0.113996 0)
(0.0127313 -0.108306 0)
(0.0233166 -0.0948946 0)
(0.0224382 -0.0648041 0)
(0.020911 -0.0360612 0)
(0.0359006 -0.0178541 0)
(0.0513968 -0.00933421 0)
(0.0502078 -0.0143738 0)
(0.0358427 -0.0122503 0)
(0.0239541 -0.0123676 0)
(0.0180886 -0.0183055 0)
(0.0108499 -0.0352231 0)
(0.00133677 -0.0551199 0)
(-0.00330265 -0.057808 0)
(0.00391441 -0.0568197 0)
(0.00592549 -0.0684295 0)
(0.000439031 -0.0896453 0)
(0.00182907 -0.0974565 0)
(-0.000963881 -0.0500336 0)
(-0.00450396 -0.0390491 0)
(-0.0077689 -0.0310473 0)
(0.00363629 -0.0394977 0)
(0.0142948 -0.0542282 0)
(0.0178017 -0.0644179 0)
(0.0220825 -0.0749189 0)
(0.0211622 -0.0848803 0)
(0.00780395 -0.106293 0)
(-0.00442433 -0.113711 0)
(-0.0150319 -0.1132 0)
(-0.021462 -0.113224 0)
(-0.0129361 -0.11575 0)
(0.00371084 -0.106546 0)
(0.009954 -0.0835849 0)
(0.00988416 -0.059978 0)
(0.0170636 -0.0340802 0)
(0.034379 -0.0204111 0)
(0.0526227 -0.0152496 0)
(0.0564753 -0.0179863 0)
(0.0451129 -0.0176816 0)
(0.0278922 -0.016695 0)
(0.0224737 -0.018655 0)
(0.0120025 -0.0276589 0)
(0.00366109 -0.042561 0)
(-0.00996006 -0.0594999 0)
(-0.00566689 -0.0585523 0)
(0.00572894 -0.0619552 0)
(0.00465966 -0.0755283 0)
(0.00517055 -0.0861292 0)
(-0.0125797 -0.0422808 0)
(-6.05097e-05 -0.0315528 0)
(0.00343474 -0.037079 0)
(0.0203226 -0.0506888 0)
(0.026081 -0.0608478 0)
(0.0269987 -0.0705554 0)
(0.0266774 -0.0814901 0)
(0.0305896 -0.0786573 0)
(0.0164405 -0.102646 0)
(0.00409853 -0.116228 0)
(-0.00800167 -0.114265 0)
(-0.0150259 -0.111481 0)
(-0.0150994 -0.113047 0)
(-0.00600247 -0.105348 0)
(0.00283405 -0.0834582 0)
(0.00719964 -0.0649952 0)
(0.0189743 -0.0337707 0)
(0.0352045 -0.0236345 0)
(0.0535118 -0.0208825 0)
(0.0580256 -0.0222383 0)
(0.0539816 -0.0218366 0)
(0.0403745 -0.015574 0)
(0.028304 -0.0156956 0)
(0.00841997 -0.0201169 0)
(0.00618068 -0.0240911 0)
(-0.00453284 -0.0473545 0)
(-0.0149455 -0.0634224 0)
(-0.00387596 -0.0647085 0)
(0.00243933 -0.0646788 0)
(0.00973314 -0.0718821 0)
(-0.0172575 -0.023557 0)
(-0.00389648 -0.0245775 0)
(0.00812995 -0.0454207 0)
(0.0220909 -0.052958 0)
(0.026703 -0.0583915 0)
(0.0263055 -0.0684531 0)
(0.0271811 -0.0824595 0)
(0.0328314 -0.0797437 0)
(0.0248588 -0.0954203 0)
(0.0105163 -0.115849 0)
(-0.00279685 -0.115274 0)
(-0.0119869 -0.11121 0)
(-0.0125658 -0.109248 0)
(-0.0104758 -0.108355 0)
(0.000354513 -0.0860624 0)
(0.00435058 -0.0713607 0)
(0.0205447 -0.0358562 0)
(0.0368055 -0.0291568 0)
(0.0522189 -0.0288318 0)
(0.0582201 -0.0243242 0)
(0.0550684 -0.0208318 0)
(0.0514008 -0.0144453 0)
(0.0350724 -0.0110262 0)
(0.00566051 -0.0103893 0)
(0.00522424 -0.0131121 0)
(-0.000853444 -0.0289124 0)
(-0.0125821 -0.0538905 0)
(-0.0118626 -0.0668051 0)
(-0.00312692 -0.0628691 0)
(0.00946133 -0.0546434 0)
(-0.0063887 -0.00207698 0)
(0.00176635 -0.0236887 0)
(0.00819673 -0.0428113 0)
(0.0166381 -0.0523946 0)
(0.0192675 -0.0526749 0)
(0.0174441 -0.0637999 0)
(0.0189237 -0.0817017 0)
(0.0247704 -0.0885153 0)
(0.0265742 -0.0939071 0)
(0.0157256 -0.11648 0)
(0.00133208 -0.115424 0)
(-0.00927168 -0.112325 0)
(-0.0104712 -0.10764 0)
(-0.0100989 -0.109909 0)
(-0.00214763 -0.0850209 0)
(0.00809446 -0.0740998 0)
(0.0216759 -0.0398668 0)
(0.0369849 -0.0375259 0)
(0.0487204 -0.0352003 0)
(0.0529924 -0.0269436 0)
(0.0510509 -0.0189195 0)
(0.0489295 -0.0116438 0)
(0.041306 -0.00803322 0)
(0.010096 -0.00463626 0)
(0.00353123 -0.00868373 0)
(-0.00131904 -0.0205581 0)
(-0.0124731 -0.0466725 0)
(-0.0130289 -0.0658505 0)
(-0.00932052 -0.0699668 0)
(-0.00219463 -0.0460675 0)
(0.00455813 -0.00279706 0)
(0.00673153 -0.0250992 0)
(0.0104333 -0.0378078 0)
(0.014569 -0.042922 0)
(0.0153677 -0.0447339 0)
(0.0145272 -0.0587167 0)
(0.0151468 -0.0790363 0)
(0.0169349 -0.0932445 0)
(0.0217769 -0.0954289 0)
(0.0162811 -0.118723 0)
(0.00379058 -0.118967 0)
(-0.00760908 -0.113055 0)
(-0.0106729 -0.109083 0)
(-0.00906289 -0.111456 0)
(-0.00474646 -0.0922131 0)
(0.0108942 -0.0760972 0)
(0.0209496 -0.0482365 0)
(0.0346618 -0.047035 0)
(0.0422138 -0.0425569 0)
(0.0442978 -0.0311549 0)
(0.0454784 -0.0182275 0)
(0.0410626 -0.0092768 0)
(0.0406425 -0.00573262 0)
(0.0122791 -0.00414494 0)
(0.00283839 -0.00677417 0)
(-0.00221257 -0.0177302 0)
(-0.0117115 -0.0406856 0)
(-0.0156961 -0.066737 0)
(-0.0127157 -0.0771751 0)
(-0.0102131 -0.0601424 0)
(0.0107788 -0.0108187 0)
(0.0114768 -0.0324214 0)
(0.0131311 -0.0379378 0)
(0.0158547 -0.0395588 0)
(0.0177595 -0.0428173 0)
(0.0176607 -0.0565945 0)
(0.01773 -0.073505 0)
(0.0128991 -0.0957926 0)
(0.0139671 -0.103614 0)
(0.0126853 -0.124369 0)
(0.00515221 -0.132961 0)
(-0.00776002 -0.117073 0)
(-0.0114607 -0.111069 0)
(-0.0103751 -0.114781 0)
(-0.00837341 -0.103537 0)
(0.00480859 -0.0779847 0)
(0.0164839 -0.0548639 0)
(0.028181 -0.0569024 0)
(0.0343274 -0.0499057 0)
(0.0339178 -0.0386412 0)
(0.0337636 -0.0331355 0)
(0.0326783 -0.0116549 0)
(0.031062 -0.00195095 0)
(0.0139679 0.000582994 0)
(0.00120167 -0.00628496 0)
(-0.00550224 -0.0181025 0)
(-0.0142116 -0.0423176 0)
(-0.019521 -0.0705672 0)
(-0.0143932 -0.0860378 0)
(-0.0131774 -0.0713536 0)
(0.0137555 -0.0279346 0)
(0.0151293 -0.0432397 0)
(0.0178268 -0.0400701 0)
(0.0206436 -0.0388942 0)
(0.0201263 -0.0426307 0)
(0.02091 -0.0559629 0)
(0.0189368 -0.0755905 0)
(0.0138564 -0.0969508 0)
(0.0103562 -0.112948 0)
(0.00853377 -0.128974 0)
(0.00718739 -0.14447 0)
(-0.00660925 -0.138119 0)
(-0.0143807 -0.116081 0)
(-0.0131192 -0.117097 0)
(-0.0121923 -0.10917 0)
(-0.00607139 -0.0870006 0)
(0.0101014 -0.0684154 0)
(0.0234504 -0.0699306 0)
(0.029806 -0.0683245 0)
(0.0259236 -0.0686301 0)
(0.0228478 -0.0376836 0)
(0.0260888 -0.00477275 0)
(0.0240325 0.00829974 0)
(0.022285 0.010187 0)
(0.00500091 0.00109973 0)
(-0.00632028 -0.0161636 0)
(-0.0159068 -0.0427197 0)
(-0.0190839 -0.0736587 0)
(-0.0147473 -0.0925747 0)
(-0.0142611 -0.0841415 0)
(0.014511 -0.0437805 0)
(0.0172972 -0.0490176 0)
(0.0215852 -0.0404224 0)
(0.0226093 -0.0385638 0)
(0.02218 -0.0440285 0)
(0.0244911 -0.0560849 0)
(0.021015 -0.0741573 0)
(0.0151795 -0.0980151 0)
(0.0077071 -0.117918 0)
(0.00637036 -0.131963 0)
(0.00707146 -0.148547 0)
(-0.002849 -0.148055 0)
(-0.0157515 -0.13584 0)
(-0.016814 -0.119224 0)
(-0.0145474 -0.110257 0)
(-0.00823823 -0.0945302 0)
(0.00294729 -0.0859407 0)
(0.0196057 -0.0961992 0)
(0.0200908 -0.107876 0)
(0.0140318 -0.0810523 0)
(0.0163429 -0.0344578 0)
(0.0204079 0.00781661 0)
(0.0194116 0.0264803 0)
(0.0217846 0.0244179 0)
(0.0194849 0.0138181 0)
(-0.00124555 -0.00724793 0)
(-0.0154584 -0.0412482 0)
(-0.0168282 -0.0752719 0)
(-0.013801 -0.0982555 0)
(-0.0148674 -0.0946396 0)
(0.0165622 -0.0572863 0)
(0.0206753 -0.0551187 0)
(0.0252993 -0.045801 0)
(0.0248371 -0.0394656 0)
(0.0226933 -0.0470221 0)
(0.0251817 -0.0574335 0)
(0.0250298 -0.0716496 0)
(0.0168527 -0.0935279 0)
(0.00961921 -0.119109 0)
(0.00570149 -0.132417 0)
(0.00711529 -0.149741 0)
(-0.00192747 -0.147105 0)
(-0.014474 -0.138046 0)
(-0.0199344 -0.124224 0)
(-0.0167558 -0.111987 0)
(-0.00891684 -0.0987776 0)
(0.0024792 -0.102942 0)
(0.00500413 -0.160926 0)
(-0.00053145 -0.137311 0)
(0.00272457 -0.0869616 0)
(0.00655672 -0.032102 0)
(0.0141251 0.0179466 0)
(0.0128577 0.0407944 0)
(0.0194699 0.0409427 0)
(0.0249607 0.0255804 0)
(0.0146331 0.00610416 0)
(-0.00709463 -0.0354308 0)
(-0.0160618 -0.0790512 0)
(-0.0131839 -0.102756 0)
(-0.0139956 -0.104402 0)
(0.0208488 -0.0747272 0)
(0.0235305 -0.0665535 0)
(0.0292937 -0.0531941 0)
(0.0315506 -0.0427944 0)
(0.0247895 -0.0507399 0)
(0.0255526 -0.0647036 0)
(0.0278794 -0.0780483 0)
(0.0255753 -0.100442 0)
(0.00795324 -0.13234 0)
(0.00354529 -0.139318 0)
(0.00583546 -0.148622 0)
(-0.00291796 -0.1443 0)
(-0.015017 -0.13653 0)
(-0.020768 -0.124947 0)
(-0.0193271 -0.114955 0)
(-0.0114384 -0.106336 0)
(-0.00215331 -0.132281 0)
(-0.00798401 -0.183228 0)
(-0.0194754 -0.15305 0)
(-0.0123324 -0.0974996 0)
(-0.00757198 -0.0320513 0)
(0.00187091 0.0232947 0)
(0.00524276 0.0507154 0)
(0.0178476 0.0522531 0)
(0.0248889 0.0418279 0)
(0.0200293 0.0133927 0)
(0.0118551 -0.0234716 0)
(-0.0138933 -0.0743879 0)
(-0.0139759 -0.100709 0)
(-0.0129478 -0.11289 0)
(0.0209812 -0.095216 0)
(0.0235728 -0.0783878 0)
(0.0307196 -0.0600951 0)
(0.034441 -0.0434196 0)
(0.0264182 -0.0524504 0)
(0.0388054 -0.0697138 0)
(0.0408626 -0.106153 0)
(0.0335807 -0.154825 0)
(0.00739076 -0.185993 0)
(-0.00288509 -0.175397 0)
(-0.00274707 -0.161729 0)
(-0.00396413 -0.14365 0)
(-0.0150815 -0.135569 0)
(-0.0209096 -0.125149 0)
(-0.0206612 -0.116736 0)
(-0.0142991 -0.11226 0)
(-0.00560262 -0.153232 0)
(-0.0201958 -0.20423 0)
(-0.034418 -0.158141 0)
(-0.0256815 -0.112932 0)
(-0.0213022 -0.0371026 0)
(-0.0103408 0.0199156 0)
(-0.00010003 0.0484433 0)
(0.0183298 0.0623921 0)
(0.0261422 0.0584907 0)
(0.0188874 0.0227091 0)
(-0.000941972 -0.0328256 0)
(-0.0159864 -0.0733432 0)
(-0.0128851 -0.0993592 0)
(-0.011283 -0.115691 0)
(0.0137578 -0.121452 0)
(0.0179921 -0.0905423 0)
(0.026957 -0.0654338 0)
(0.0321554 -0.0439407 0)
(0.0338799 -0.0578575 0)
(0.0442586 -0.0956351 0)
(0.036086 -0.144107 0)
(0.0347919 -0.19981 0)
(0.0205506 -0.231771 0)
(-0.000339387 -0.217496 0)
(-0.00685659 -0.18215 0)
(-0.00383936 -0.142528 0)
(-0.0140562 -0.133876 0)
(-0.0199661 -0.124979 0)
(-0.0204278 -0.118393 0)
(-0.0166947 -0.118148 0)
(-0.00834132 -0.165257 0)
(-0.0303954 -0.217424 0)
(-0.0427179 -0.156602 0)
(-0.034791 -0.11335 0)
(-0.0312479 -0.0387125 0)
(-0.0164888 0.0149035 0)
(-0.00642768 0.0448616 0)
(0.0142624 0.0616916 0)
(0.0236214 0.0583161 0)
(0.00963377 0.0166914 0)
(-0.0171008 -0.0424118 0)
(-0.0171163 -0.0722479 0)
(-0.0132579 -0.10501 0)
(-0.011237 -0.12347 0)
(0.00602365 -0.139617 0)
(0.0106291 -0.106087 0)
(0.0197144 -0.0732178 0)
(0.0216221 -0.0705037 0)
(0.0324846 -0.101117 0)
(0.0384831 -0.152544 0)
(0.0387205 -0.212905 0)
(0.0406018 -0.266357 0)
(0.0352394 -0.288019 0)
(0.0162467 -0.256873 0)
(-0.00140384 -0.188336 0)
(-0.0022014 -0.140812 0)
(-0.0114946 -0.131682 0)
(-0.018102 -0.124227 0)
(-0.018912 -0.119332 0)
(-0.0179089 -0.121139 0)
(-0.00682713 -0.178521 0)
(-0.0366963 -0.229069 0)
(-0.0540647 -0.161905 0)
(-0.0496956 -0.116877 0)
(-0.0392066 -0.0506043 0)
(-0.0237085 0.011613 0)
(-0.0119155 0.0418481 0)
(0.0102478 0.0567996 0)
(0.0268442 0.057606 0)
(0.0177863 0.0250005 0)
(-0.0109 -0.0338237 0)
(-0.0131658 -0.0713557 0)
(-0.0103408 -0.109972 0)
(-0.00800787 -0.133862 0)
(-0.00493971 -0.144624 0)
(0.00611292 -0.130316 0)
(0.00695771 -0.105024 0)
(0.0131757 -0.109202 0)
(0.0245348 -0.147688 0)
(0.0293275 -0.212263 0)