/*--------------------------------*- C++ -*----------------------------------*\
| =========                 |                                                 |
| \\      /  F ield         | OpenFOAM: The Open Source CFD Toolbox           |
|  \\    /   O peration     | Version:  v1606+                                |
|   \\  /    A nd           | Web:      www.OpenFOAM.com                      |
|    \\/     M anipulation  |                                                 |
\*---------------------------------------------------------------------------*/
FoamFile
{
    version     2.0;
    format      ascii;
    class       volVectorField;
    location    "1.05";
    object      U.particles;
}
// * * * * * * * * * * * * * * * * * * * * * * * * * * * * * * * * * * * * * //

dimensions      [0 1 -1 0 0 0 0];

internalField   nonuniform List<vector> 
6000
(
(0.00992971 -0.356605 0)
(0.0333307 -0.400375 0)
(0.0459171 -0.415006 0)
(0.0335344 -0.435769 0)
(0.0120386 -0.443756 0)
(-0.00293128 -0.446975 0)
(0.000537146 -0.444923 0)
(-0.00287077 -0.445175 0)
(-0.0282473 -0.454294 0)
(-0.0582704 -0.474857 0)
(-0.0810731 -0.476086 0)
(-0.0960619 -0.470329 0)
(-0.101886 -0.460136 0)
(-0.1031 -0.450487 0)
(-0.0993482 -0.439795 0)
(-0.0908948 -0.433984 0)
(-0.0794737 -0.43231 0)
(-0.0657503 -0.433483 0)
(-0.0526595 -0.447165 0)
(-0.0462785 -0.478695 0)
(-0.0486204 -0.489089 0)
(-0.0583293 -0.476713 0)
(-0.0629405 -0.463539 0)
(-0.0661822 -0.46391 0)
(-0.069456 -0.455333 0)
(-0.0767416 -0.443339 0)
(-0.0787274 -0.441016 0)
(-0.0776471 -0.416486 0)
(-0.0573239 -0.380315 0)
(-0.0208365 -0.310071 0)
(0.0280341 -0.0322047 0)
(0.0440264 -0.023253 0)
(0.0793816 -0.011947 0)
(0.108334 0.0152211 0)
(0.101351 0.0221355 0)
(0.0769995 0.0543901 0)
(0.0160227 0.0839519 0)
(-0.0378654 0.0558164 0)
(-0.0652292 0.0295948 0)
(-0.0893109 0.0374128 0)
(-0.10315 0.0364148 0)
(-0.111052 0.025679 0)
(-0.113655 0.0142349 0)
(-0.112711 0.00272829 0)
(-0.103898 -0.00837413 0)
(-0.0930185 -0.0104886 0)
(-0.0811923 -0.00628633 0)
(-0.0694387 0.000921756 0)
(-0.0589832 0.0187674 0)
(-0.0529634 0.0452575 0)
(-0.0536539 0.0516154 0)
(-0.0612842 0.0633616 0)
(-0.0859392 0.0836953 0)
(-0.124908 0.0763747 0)
(-0.144865 0.0501542 0)
(-0.144217 0.0260635 0)
(-0.118243 0.00246543 0)
(-0.081527 -0.0132076 0)
(-0.0467214 -0.011371 0)
(-0.030468 -0.024663 0)
(0.0287211 -0.0712875 0)
(0.0362431 -0.0846415 0)
(0.0694228 -0.0847337 0)
(0.0991766 -0.0633816 0)
(0.111262 -0.0266106 0)
(0.0903348 0.00248723 0)
(0.0255369 0.00157451 0)
(-0.0463355 -0.0572316 0)
(-0.0803777 -0.129133 0)
(-0.0914714 -0.159211 0)
(-0.097246 -0.169427 0)
(-0.104941 -0.171054 0)
(-0.109924 -0.170591 0)
(-0.110995 -0.172665 0)
(-0.102284 -0.178336 0)
(-0.0904454 -0.17896 0)
(-0.0766676 -0.175739 0)
(-0.0690134 -0.173834 0)
(-0.0668865 -0.170771 0)
(-0.0673487 -0.168712 0)
(-0.0654427 -0.160579 0)
(-0.0734437 -0.141296 0)
(-0.0996177 -0.0836899 0)
(-0.127796 -0.0592296 0)
(-0.133947 -0.0663095 0)
(-0.120843 -0.0873919 0)
(-0.0886083 -0.107724 0)
(-0.0586851 -0.10895 0)
(-0.0317966 -0.101839 0)
(-0.0378954 -0.0960635 0)
(0.0199565 -0.0552808 0)
(0.0235126 -0.0503949 0)
(0.0320706 -0.0378432 0)
(0.0543598 -0.016508 0)
(0.0971511 0.00503179 0)
(0.0890557 0.0197589 0)
(0.0142397 0.000808904 0)
(-0.0576686 -0.0604284 0)
(-0.0771813 -0.0876861 0)
(-0.0857208 -0.0925314 0)
(-0.0970291 -0.0965611 0)
(-0.111814 -0.100499 0)
(-0.124505 -0.113112 0)
(-0.123248 -0.133477 0)
(-0.112351 -0.151396 0)
(-0.0936009 -0.163505 0)
(-0.0683734 -0.163496 0)
(-0.0504862 -0.153907 0)
(-0.0493153 -0.14171 0)
(-0.0589692 -0.131818 0)
(-0.0628943 -0.129726 0)
(-0.0633399 -0.107756 0)
(-0.0701221 -0.067303 0)
(-0.0980579 -0.0381526 0)
(-0.100177 -0.0310223 0)
(-0.0692019 -0.0387054 0)
(-0.029395 -0.0456269 0)
(-0.0249247 -0.0455565 0)
(-0.0237145 -0.0495606 0)
(-0.0158172 -0.0536907 0)
(0.00797346 -0.0232884 0)
(0.0116305 -0.0183189 0)
(0.0178877 -0.0175201 0)
(0.00501833 0.0193927 0)
(0.0247143 0.0566727 0)
(0.0325251 0.0512532 0)
(-0.0404235 0.0198706 0)
(-0.0853994 -0.0421447 0)
(-0.0952808 -0.0654996 0)
(-0.104026 -0.072571 0)
(-0.112266 -0.0752915 0)
(-0.125836 -0.076778 0)
(-0.138228 -0.0890081 0)
(-0.141064 -0.114818 0)
(-0.129387 -0.138163 0)
(-0.104906 -0.153605 0)
(-0.0726074 -0.156305 0)
(-0.0387007 -0.141797 0)
(-0.023837 -0.121769 0)
(-0.0213563 -0.119946 0)
(-0.0260809 -0.12734 0)
(-0.0270978 -0.112194 0)
(-0.0252689 -0.0674724 0)
(-0.0351784 -0.0197034 0)
(-0.0449324 -0.016675 0)
(-0.022288 -0.0209533 0)
(0.00498166 -0.0263921 0)
(-0.00930183 -0.0293103 0)
(-0.00399376 -0.0256269 0)
(-0.00168799 -0.0268835 0)
(0.00445323 -0.00505507 0)
(0.00478659 0.00341718 0)
(0.00325909 0.0149797 0)
(-0.00208649 0.030869 0)
(-0.00882524 0.0870286 0)
(-0.0426808 0.111781 0)
(-0.0758086 0.071906 0)
(-0.106221 0.0150878 0)
(-0.115235 -0.00395756 0)
(-0.126246 -0.0074644 0)
(-0.138296 -0.00938085 0)
(-0.161174 -0.0166869 0)
(-0.171919 -0.0387344 0)
(-0.16048 -0.0688618 0)
(-0.136776 -0.0954392 0)
(-0.10412 -0.115559 0)
(-0.0669108 -0.126843 0)
(-0.02621 -0.121807 0)
(0.0168445 -0.0991015 0)
(0.0378394 -0.0569391 0)
(0.0314673 -0.0455505 0)
(0.0135353 -0.0446524 0)
(0.00557321 -0.0254968 0)
(-0.00117215 0.008269 0)
(-0.00886388 0.0117786 0)
(0.0036321 -0.00173983 0)
(-0.00194823 -0.00916854 0)
(-0.00051148 -0.00960373 0)
(0.000454532 -0.0100739 0)
(-0.000114638 -0.00906149 0)
(0.000361361 0.0047587 0)
(-0.00364038 0.0167659 0)
(-0.00563686 0.0309856 0)
(-0.0111271 0.0504214 0)
(0.00545999 0.0848344 0)
(-0.0424982 0.17844 0)
(-0.0893023 0.17727 0)
(-0.104844 0.126954 0)
(-0.109953 0.0899563 0)
(-0.122419 0.0702019 0)
(-0.138399 0.0635942 0)
(-0.158761 0.0550731 0)
(-0.160357 0.0264814 0)
(-0.143986 -0.00671163 0)
(-0.118844 -0.042172 0)
(-0.0830652 -0.0749596 0)
(-0.0425354 -0.08733 0)
(-0.00918072 -0.0775264 0)
(0.0152703 -0.0533757 0)
(0.0490034 -0.0210031 0)
(0.0663158 0.0151257 0)
(0.0509765 0.0289758 0)
(0.0364991 0.0526656 0)
(0.0187542 0.0632254 0)
(0.00150793 0.0360194 0)
(0.00272211 0.015392 0)
(0.00255637 0.00231808 0)
(0.00565072 -0.000418156 0)
(0.00510697 -0.000457868 0)
(0.00101535 -0.000674043 0)
(-0.00596051 0.0111933 0)
(-0.015998 0.0251403 0)
(-0.0177322 0.0394114 0)
(-0.0150853 0.0594 0)
(0.00249601 0.0984131 0)
(-0.00915768 0.182448 0)
(-0.0926949 0.300955 0)
(-0.0935108 0.266817 0)
(-0.0976808 0.207299 0)
(-0.104737 0.176974 0)
(-0.119419 0.168321 0)
(-0.133764 0.153329 0)
(-0.131658 0.105676 0)
(-0.11685 0.0537918 0)
(-0.0906705 -0.00425043 0)
(-0.0509766 -0.0512235 0)
(-0.00821081 -0.0664715 0)
(0.0247943 -0.0470226 0)
(0.044973 -0.00925295 0)
(0.0654002 0.0373928 0)
(0.0785479 0.0902998 0)
(0.0699387 0.128614 0)
(0.0366922 0.150231 0)
(-0.0103808 0.112674 0)
(-0.00806214 0.0545122 0)
(0.00238845 0.0197409 0)
(0.00615477 0.00622982 0)
(0.0116982 0.00334194 0)
(0.0117187 0.00502902 0)
(0.00398231 0.00475843 0)
(-0.0149664 0.0158675 0)
(-0.0296558 0.0264627 0)
(-0.030248 0.0406719 0)
(-0.0246158 0.0651086 0)
(-0.014157 0.108509 0)
(-0.00894176 0.188119 0)
(-0.065613 0.363703 0)
(-0.082141 0.382125 0)
(-0.0848683 0.320017 0)
(-0.0860388 0.294231 0)
(-0.0906773 0.288926 0)
(-0.0906279 0.258868 0)
(-0.0933536 0.172146 0)
(-0.0883216 0.0891676 0)
(-0.0637931 0.00563656 0)
(-0.0210821 -0.0545583 0)
(0.0252227 -0.0666462 0)
(0.0563435 -0.0307015 0)
(0.0780388 0.0364803 0)
(0.0704652 0.112616 0)
(0.0767914 0.176817 0)
(0.062241 0.23387 0)
(0.0165127 0.23102 0)
(-0.0102878 0.156344 0)
(-0.0229214 0.0746289 0)
(-0.00599149 0.0193445 0)
(0.00751617 0.00148089 0)
(0.0178129 -0.000373414 0)
(0.0203222 0.00562321 0)
(0.0096532 0.00939171 0)
(-0.0354082 0.00525249 0)
(-0.0433058 0.0220592 0)
(-0.0347291 0.0275969 0)
(-0.0307568 0.059754 0)
(-0.0317702 0.10691 0)
(-0.0408728 0.200807 0)
(-0.0627275 0.371746 0)
(-0.0663716 0.42007 0)
(-0.0670514 0.372887 0)
(-0.0721315 0.361668 0)
(-0.0657467 0.35678 0)
(-0.0464748 0.305792 0)
(-0.0397791 0.20372 0)
(-0.0345253 0.0963717 0)
(-0.0195049 0.00370229 0)
(0.0053392 -0.0572327 0)
(0.0354798 -0.0656503 0)
(0.0588513 -0.0206717 0)
(0.0700561 0.0620908 0)
(0.0678363 0.158018 0)
(0.0632666 0.247808 0)
(0.055647 0.317293 0)
(0.0274147 0.291223 0)
(0.000276042 0.180065 0)
(-0.00959196 0.0911896 0)
(-0.00483838 0.0243943 0)
(0.0110586 -0.00699859 0)
(0.025014 -0.0145768 0)
(0.0338778 0.0023093 0)
(0.033061 0.0152143 0)
(0.0230279 -0.296344 0)
(-0.0175126 -0.0837984 0)
(-0.0283313 -0.00227333 0)
(-0.0233367 0.043506 0)
(-0.0228588 0.0816498 0)
(-0.0346046 0.118477 0)
(-0.0224946 0.284876 0)
(-0.0248762 0.314783 0)
(-0.0375475 0.282878 0)
(-0.0538672 0.297393 0)
(-0.0476296 0.281808 0)
(-0.0375906 0.218079 0)
(-0.00828631 0.144245 0)
(0.0123844 0.057515 0)
(0.0160123 -0.0265244 0)
(0.0275487 -0.0941617 0)
(0.0382064 -0.0866575 0)
(0.0397106 -0.0170088 0)
(0.0333762 0.0853468 0)
(0.0252575 0.180949 0)
(0.0250385 0.271264 0)
(0.0398024 0.34506 0)
(0.0526294 0.318233 0)
(0.0363459 0.215013 0)
(0.0164228 0.10233 0)
(0.01317 0.0277292 0)
(0.01916 -0.0229589 0)
(0.0311317 -0.0493732 0)
(0.0453213 -0.0404662 0)
(-0.00184237 -0.231152 0)
(0.02454 -0.305363 0)
(0.0526511 -0.307618 0)
(0.0278147 -0.174933 0)
(0.0132654 -0.0375621 0)
(0.0277412 -0.0605825 0)
(0.0170883 -0.163297 0)
(0.0264825 -0.0282454 0)
(0.0290881 -0.00593454 0)
(0.0176985 -0.0167434 0)
(-0.0122733 0.00591148 0)
(-0.0287042 -0.0265645 0)
(-0.0277678 -0.116294 0)
(-0.00795899 -0.22583 0)
(0.0245445 -0.243628 0)
(0.0425994 -0.214744 0)
(0.0403878 -0.195394 0)
(0.0304317 -0.151697 0)
(0.0178318 -0.0970769 0)
(0.00185419 -0.0130241 0)
(-0.00341048 0.0921384 0)
(0.00672865 0.217983 0)
(0.0372115 0.307937 0)
(0.0720602 0.298623 0)
(0.055705 0.195232 0)
(0.0271646 0.0968578 0)
(0.0289368 0.0205629 0)
(0.0265758 -0.0538611 0)
(0.0506535 -0.0947958 0)
(0.0282786 -0.194198 0)
(-0.0191043 -0.251226 0)
(0.0112597 -0.277518 0)
(0.0271066 -0.283322 0)
(0.0339867 -0.291899 0)
(0.0145148 -0.273667 0)
(-0.0201396 -0.250211 0)
(-0.0247642 -0.207923 0)
(0.00103716 -0.175387 0)
(0.037086 -0.161499 0)
(0.0286367 -0.155367 0)
(0.00304053 -0.143554 0)
(-0.0201145 -0.163113 0)
(-0.00676566 -0.241139 0)
(0.0170453 -0.319255 0)
(0.0451535 -0.352068 0)
(0.0601966 -0.36661 0)
(0.04343 -0.32121 0)
(-0.00903652 -0.271546 0)
(-0.0418282 -0.331808 0)
(-0.0519004 -0.334437 0)
(-0.0232426 -0.285017 0)
(0.0043278 -0.165865 0)
(0.0469108 -0.0148431 0)
(0.0843132 0.047336 0)
(0.0743943 -0.0693136 0)
(0.0615582 -0.151818 0)
(0.0279234 -0.012042 0)
(0.0285677 -0.0740307 0)
(0.0113558 -0.175929 0)
(-0.0589431 -0.270011 0)
(-0.0211592 -0.231558 0)
(0.0043952 -0.233267 0)
(0.000922804 -0.237673 0)
(-0.0292565 -0.249098 0)
(-0.0785351 -0.235497 0)
(-0.0915338 -0.214735 0)
(-0.0476911 -0.19117 0)
(-0.0141495 -0.167458 0)
(0.0162851 -0.16338 0)
(0.0273818 -0.152326 0)
(0.0143268 -0.142205 0)
(0.00548489 -0.152381 0)
(0.0268629 -0.21642 0)
(0.0470605 -0.30329 0)
(0.0609126 -0.332533 0)
(0.0499514 -0.3419 0)
(-0.0248787 -0.340342 0)
(-0.111732 -0.334404 0)
(-0.131952 -0.332438 0)
(-0.121598 -0.337045 0)
(-0.100211 -0.340808 0)
(-0.0764363 -0.330346 0)
(-0.00651223 -0.289276 0)
(0.061045 -0.269062 0)
(0.0877994 -0.288989 0)
(0.117668 -0.276432 0)
(0.0940376 -0.313572 0)
(0.0716831 -0.191384 0)
(-0.0213439 -0.310928 0)
(-0.0509674 -0.256337 0)
(-0.0186666 -0.210029 0)
(-0.00087701 -0.177348 0)
(-0.0141912 -0.182681 0)
(-0.0483823 -0.207578 0)
(-0.0965078 -0.218435 0)
(-0.1177 -0.203785 0)
(-0.0540529 -0.180233 0)
(-0.01123 -0.138791 0)
(0.0243982 -0.10702 0)
(0.0277228 -0.104544 0)
(0.0220108 -0.0879938 0)
(0.0218493 -0.0989938 0)
(0.045882 -0.173855 0)
(0.0639141 -0.264752 0)
(0.0611017 -0.288507 0)
(0.0224764 -0.294142 0)
(-0.0914702 -0.287651 0)
(-0.149633 -0.293348 0)
(-0.15859 -0.313975 0)
(-0.147177 -0.325651 0)
(-0.135681 -0.318693 0)
(-0.114131 -0.288477 0)
(-0.073319 -0.260877 0)
(-0.010683 -0.239385 0)
(0.0286505 -0.235193 0)
(0.105318 -0.219317 0)
(0.144237 -0.278181 0)
(0.122929 -0.322134 0)
(0.0741784 -0.296804 0)
(-0.00636973 -0.228307 0)
(-0.0136075 -0.18315 0)
(-0.00300868 -0.138972 0)
(-0.00767568 -0.153422 0)
(-0.0262475 -0.172242 0)
(-0.0662411 -0.177446 0)
(-0.114018 -0.16892 0)
(-0.0434316 -0.157832 0)
(-0.00930585 -0.137964 0)
(0.0338073 -0.0708252 0)
(0.0348926 -0.0519854 0)
(0.0293842 -0.0391154 0)
(0.0376568 -0.0551963 0)
(0.0675272 -0.135371 0)
(0.081763 -0.22919 0)
(0.0659918 -0.245794 0)
(-0.0115546 -0.23646 0)
(-0.127731 -0.223544 0)
(-0.172035 -0.241694 0)
(-0.174186 -0.269815 0)
(-0.158183 -0.278652 0)
(-0.144338 -0.276682 0)
(-0.117809 -0.258247 0)
(-0.0929181 -0.222727 0)
(-0.0509061 -0.186222 0)
(-0.00560021 -0.176446 0)
(0.0940675 -0.196096 0)
(0.140696 -0.246661 0)
(0.138492 -0.259567 0)
(0.106884 -0.238847 0)
(0.0317747 -0.181973 0)
(-0.000607394 -0.143287 0)
(-0.00567314 -0.103181 0)
(-0.0250395 -0.119397 0)
(-0.062051 -0.126446 0)
(-0.0941597 -0.111752 0)
(-0.091536 -0.122094 0)
(-0.0308748 -0.147345 0)
(0.00809538 -0.145008 0)
(0.00474805 -0.0377208 0)
(0.0396821 -0.00414003 0)
(0.0370904 0.00761463 0)
(0.0501818 -0.0118843 0)
(0.0875776 -0.0997321 0)
(0.0910528 -0.18499 0)
(0.0664789 -0.188344 0)
(-0.0331477 -0.161777 0)
(-0.107322 -0.158202 0)
(-0.132129 -0.168098 0)
(-0.138949 -0.172942 0)
(-0.142081 -0.18948 0)
(-0.135246 -0.205435 0)
(-0.116694 -0.208299 0)
(-0.0902167 -0.190921 0)
(-0.0559068 -0.160063 0)
(0.0149599 -0.142959 0)
(0.0971202 -0.187294 0)
(0.120727 -0.212599 0)
(0.12458 -0.205753 0)
(0.0949536 -0.168654 0)
(0.0448592 -0.122585 0)
(0.00662675 -0.0962729 0)
(-0.0123624 -0.0615853 0)
(-0.049225 -0.0735953 0)
(-0.107313 -0.0709974 0)
(-0.136798 -0.063805 0)
(-0.10912 -0.0728786 0)
(-0.0605279 -0.0966256 0)
(0.00368467 -0.102087 0)
(0.00229095 -0.0311378 0)
(0.0458279 0.0547045 0)
(0.044197 0.0515719 0)
(0.0615725 0.0271739 0)
(0.110726 -0.0704296 0)
(0.0974485 -0.1268 0)
(0.0599092 -0.118641 0)
(-0.0118259 -0.105832 0)
(-0.0653177 -0.0991835 0)
(-0.0976418 -0.0980309 0)
(-0.112863 -0.107051 0)
(-0.118927 -0.120886 0)
(-0.119088 -0.130811 0)
(-0.106562 -0.134332 0)
(-0.0779799 -0.129243 0)
(-0.035311 -0.118528 0)
(0.0362289 -0.113535 0)
(0.0906094 -0.12838 0)
(0.117981 -0.126225 0)
(0.119904 -0.109141 0)
(0.0920695 -0.0801401 0)
(0.0484774 -0.055009 0)
(0.00959083 -0.0441056 0)
(-0.0131658 -0.0150976 0)
(-0.0753062 -0.0141226 0)
(-0.155433 0.00116358 0)
(-0.174927 0.00138313 0)
(-0.147158 -0.0239499 0)
(-0.0911895 -0.0703897 0)
(-0.0423193 -0.0842362 0)
(-0.0101249 -0.0131117 0)
(0.0399346 0.0702374 0)
(0.0448437 0.100909 0)
(0.0810435 0.0717516 0)
(0.113134 -0.0385274 0)
(0.0995896 -0.0760549 0)
(0.0851711 -0.0658955 0)
(0.0303098 -0.0437288 0)
(-0.0209816 -0.0240762 0)
(-0.0532022 -0.0133553 0)
(-0.0686696 -0.0140624 0)
(-0.0774387 -0.0228491 0)
(-0.0795589 -0.0350684 0)
(-0.0702744 -0.0457376 0)
(-0.047841 -0.0512784 0)
(-0.0115929 -0.0477169 0)
(0.0401684 -0.0490441 0)
(0.0818053 -0.0471016 0)
(0.0965282 -0.0336666 0)
(0.0857142 -0.0179629 0)
(0.050638 -0.00554629 0)
(0.0246614 -0.00308034 0)
(0.00383389 -0.00588884 0)
(-0.0188954 0.0279745 0)
(-0.0997368 0.0676952 0)
(-0.149377 0.086471 0)
(-0.155334 0.0758166 0)
(-0.132584 0.048292 0)
(-0.120693 0.0340502 0)
(-0.117732 0.0266069 0)
(-0.0619027 0.0673856 0)
(0.0302932 0.111647 0)
(0.0635208 0.123528 0)
(0.0946889 0.0951808 0)
(0.111063 -0.000836176 0)
(0.128286 -0.0230273 0)
(0.118728 0.00336858 0)
(0.0700317 0.0363749 0)
(0.0267895 0.0449379 0)
(0.00574085 0.0451844 0)
(-0.0025938 0.0437079 0)
(-0.00867203 0.0413206 0)
(-0.0138772 0.0387668 0)
(-0.0143498 0.037305 0)
(-0.00372638 0.03721 0)
(0.0195282 0.0376544 0)
(0.0491836 0.034685 0)
(0.0589808 0.0322667 0)
(0.0398888 0.0279328 0)
(0.0170667 0.0272183 0)
(0.00804449 0.0217049 0)
(0.0030104 0.0151652 0)
(-0.00150089 0.00656899 0)
(-0.0227634 0.07673 0)
(-0.0650791 0.113092 0)
(-0.0787488 0.108839 0)
(-0.0572555 0.099066 0)
(-0.0406491 0.0931522 0)
(-0.0412967 0.0827 0)
(-0.0390427 0.0594914 0)
(-0.0683934 0.0808948 0)
(-0.0148744 0.188564 0)
(0.077852 0.205891 0)
(0.140182 0.140119 0)
(0.15869 0.0986865 0)
(0.122013 0.082503 0)
(0.0527088 0.0673449 0)
(0.0413591 0.0683206 0)
(0.0301217 0.0662339 0)
(0.0257117 0.0634959 0)
(0.0247332 0.0627356 0)
(0.0243655 0.063502 0)
(0.0235651 0.0641242 0)
(0.0222586 0.0637422 0)
(0.0217426 0.0645037 0)
(0.0234931 0.0643712 0)
(0.0211303 0.0600346 0)
(0.00976273 0.0569655 0)
(0.000459779 0.0532124 0)
(-0.00294336 0.0437766 0)
(-0.00406873 0.0337908 0)
(-0.00427167 0.0224006 0)
(-0.00364 0.00907104 0)
(0.000606108 0.0994594 0)
(-0.00864882 0.111576 0)
(-0.0066364 0.111883 0)
(0.000161697 0.119262 0)
(0.00243201 0.128034 0)
(-0.00375808 0.134967 0)
(-0.0161623 0.132645 0)
(-0.0351328 0.111886 0)
(-0.0435108 0.135634 0)
(0.0261053 0.264978 0)
(0.142871 0.273916 0)
(0.122883 0.187537 0)
(0.0324724 0.113479 0)
(0.0167314 0.0883356 0)
(0.0185165 0.0750188 0)
(0.0222225 0.0689773 0)
(0.0250737 0.066554 0)
(0.0275741 0.0667174 0)
(0.0294113 0.0687394 0)
(0.0303696 0.0717244 0)
(0.0297405 0.0754964 0)
(0.0262241 0.0792561 0)
(0.0191007 0.0805755 0)
(0.00983765 0.0779428 0)
(0.00314191 0.071514 0)
(-0.000610362 0.0642799 0)
(-0.00304407 0.0541327 0)
(-0.0048933 0.0413135 0)
(-0.00520707 0.0268885 0)
(-0.00396082 0.00991936 0)
(0.00930218 0.0827702 0)
(0.0103431 0.105691 0)
(0.0120039 0.115499 0)
(0.0123323 0.128026 0)
(0.0104569 0.140617 0)
(0.00543975 0.151205 0)
(-0.00104556 0.157232 0)
(-0.0141924 0.15604 0)
(-0.0628463 0.134405 0)
(-0.0558587 0.138454 0)
(0.0552399 0.177748 0)
(0.040691 0.156305 0)
(0.0167229 0.125306 0)
(0.0111575 0.098891 0)
(0.0120769 0.0788577 0)
(0.0183732 0.0697051 0)
(0.0234937 0.0674564 0)
(0.026983 0.0690189 0)
(0.0288421 0.0727405 0)
(0.0289681 0.0774692 0)
(0.0272518 0.082107 0)
(0.0237828 0.0855725 0)
(0.0190263 0.087018 0)
(0.0136553 0.0859383 0)
(0.00850509 0.0814086 0)
(0.00388693 0.0734539 0)
(-0.000170809 0.062066 0)
(-0.00321033 0.0476138 0)
(-0.004218 0.0308421 0)
(-0.00351625 0.0108783 0)
(0.00919543 0.0711428 0)
(0.0133399 0.102377 0)
(0.0157689 0.118125 0)
(0.016273 0.134044 0)
(0.0143893 0.149782 0)
(0.00857191 0.164154 0)
(0.000395117 0.17444 0)
(-0.0257964 0.176045 0)
(-0.062247 0.151271 0)
(-0.0659761 0.128241 0)
(-0.0220756 0.126798 0)
(0.0147494 0.147967 0)
(0.0142305 0.137145 0)
(0.00788373 0.102375 0)
(0.00831886 0.0789885 0)
(0.0158604 0.0684315 0)
(0.0224343 0.0664206 0)
(0.0267573 0.069545 0)
(0.0289691 0.0752514 0)
(0.0291748 0.0820274 0)
(0.0274928 0.08855 0)
(0.0243192 0.0935143 0)
(0.0202109 0.0957944 0)
(0.0155443 0.0946677 0)
(0.0106307 0.089724 0)
(0.00587891 0.0810406 0)
(0.00167589 0.068761 0)
(-0.00152246 0.0530941 0)
(-0.00292792 0.0344268 0)
(-0.00274185 0.0121695 0)
(0.00872029 0.0626189 0)
(0.0133887 0.0990878 0)
(0.0168832 0.118654 0)
(0.0185151 0.137181 0)
(0.0173309 0.155872 0)
(0.0106196 0.174167 0)
(-0.00173338 0.18776 0)
(-0.0373412 0.187844 0)
(-0.0668333 0.156072 0)
(-0.0689971 0.127394 0)
(-0.0500503 0.116061 0)
(-0.0205981 0.128808 0)
(-0.000496895 0.140777 0)
(0.0045728 0.100511 0)
(0.00569619 0.0758485 0)
(0.0138971 0.0650065 0)
(0.0216172 0.0637686 0)
(0.0268662 0.0685376 0)
(0.0296829 0.0762554 0)
(0.0303058 0.0850294 0)
(0.0288081 0.0934106 0)
(0.0254403 0.0999107 0)
(0.020819 0.103105 0)
(0.0156147 0.102121 0)
(0.0104395 0.0967333 0)
(0.0058342 0.0872509 0)
(0.0021251 0.0741111 0)
(-0.000572749 0.0575056 0)
(-0.00187949 0.0374541 0)
(-0.00187153 0.0135267 0)
(0.00796055 0.0539228 0)
(0.0125977 0.0942507 0)
(0.0169353 0.116628 0)
(0.0195978 0.137167 0)
(0.0192685 0.158561 0)
(0.0122559 0.181719 0)
(-0.00824653 0.201589 0)
(-0.0484488 0.200633 0)
(-0.0720607 0.155085 0)
(-0.0740722 0.124956 0)
(-0.0621589 0.108258 0)
(-0.0430684 0.110207 0)
(-0.0224929 0.131254 0)
(-0.000606794 0.0915701 0)
(0.00302853 0.0687962 0)
(0.0121716 0.0597268 0)
(0.0208734 0.0600246 0)
(0.0270547 0.0665728 0)
(0.0305626 0.0763859 0)
(0.0316112 0.087368 0)
(0.0301581 0.0979299 0)
(0.0262233 0.106303 0)
(0.0205077 0.110615 0)
(0.014281 0.109681 0)
(0.00863587 0.103463 0)
(0.00414872 0.0926639 0)
(0.00101639 0.0781656 0)
(-0.000850636 0.0604994 0)
(-0.00149039 0.0395513 0)
(-0.00114351 0.0145724 0)
(0.00654624 0.0460559 0)
(0.0110898 0.088134 0)
(0.0158323 0.112279 0)
(0.0186657 0.133965 0)
(0.0172192 0.15681 0)
(0.00572989 0.180754 0)
(-0.0211562 0.191587 0)
(-0.0456545 0.179423 0)
(-0.0711263 0.150862 0)
(-0.0774841 0.117525 0)
(-0.0683656 0.0986691 0)
(-0.0548875 0.0934042 0)
(-0.0409963 0.107535 0)
(-0.00725032 0.0768515 0)
(0.000371367 0.0590465 0)
(0.0105845 0.0530367 0)
(0.0201417 0.0553739 0)
(0.0272316 0.0638694 0)
(0.0315029 0.0759468 0)
(0.0329416 0.0895257 0)
(0.0313266 0.102774 0)
(0.0263353 0.113551 0)
(0.0189589 0.119248 0)
(0.0114836 0.118159 0)
(0.00543973 0.110498 0)
(0.00115849 0.0975634 0)
(-0.0013951 0.0808464 0)
(-0.00234215 0.0615927 0)
(-0.00194222 0.0400872 0)
(-0.000746427 0.0149435 0)
(0.00495469 0.0395933 0)
(0.00924749 0.0812603 0)
(0.013722 0.106193 0)
(0.015521 0.128176 0)
(0.0114973 0.149848 0)
(-0.00397465 0.168057 0)
(-0.0244512 0.171657 0)
(-0.0350876 0.164071 0)
(-0.0554335 0.145607 0)
(-0.075806 0.109402 0)
(-0.0694881 0.088764 0)
(-0.0590916 0.0783441 0)
(-0.0496769 0.0814833 0)
(-0.0118306 0.0613765 0)
(-0.00182062 0.0481595 0)
(0.00909669 0.0453373 0)
(0.0193687 0.0498495 0)
(0.027387 0.0603901 0)
(0.0325405 0.0749086 0)
(0.0344011 0.0914277 0)
(0.0324223 0.108014 0)
(0.0255164 0.122042 0)
(0.0153082 0.129592 0)
(0.00677394 0.12798 0)
(0.00111315 0.118065 0)
(-0.002427 0.101939 0)
(-0.00429715 0.0818655 0)
(-0.0042842 0.0602721 0)
(-0.00278492 0.0382703 0)
(-0.000649533 0.014205 0)
(0.00364454 0.0342653 0)
(0.0075451 0.0739517 0)
(0.0111304 0.0990824 0)
(0.0112929 0.121275 0)
(0.00503866 0.142245 0)
(-0.00869746 0.157958 0)
(-0.0212719 0.162774 0)
(-0.0270824 0.158069 0)
(-0.0469321 0.139486 0)
(-0.068641 0.104104 0)
(-0.0657828 0.080658 0)
(-0.0577172 0.0653801 0)
(-0.0508543 0.0572047 0)
(-0.0165438 0.0434699 0)
(-0.00385298 0.0363252 0)
(0.00740439 0.0369677 0)
(0.0182906 0.0437298 0)
(0.0273801 0.056185 0)
(0.0335873 0.0731606 0)
(0.0359972 0.0927133 0)
(0.0342494 0.112983 0)
(0.0248259 0.13204 0)
(0.00746668 0.142879 0)
(-0.00126267 0.139203 0)
(-0.00443644 0.12587 0)
(-0.0056595 0.105405 0)
(-0.0064797 0.0806013 0)
(-0.00547299 0.0559572 0)
(-0.00297945 0.0335656 0)
(-0.000476359 0.0118957 0)
(0.00284932 0.0294431 0)
(0.00616892 0.0663037 0)
(0.00841882 0.0915242 0)
(0.00716138 0.114347 0)
(0.000883279 0.135694 0)
(-0.00827793 0.151684 0)
(-0.0163748 0.159336 0)
(-0.0221237 0.156144 0)
(-0.0402709 0.136684 0)
(-0.0569877 0.102962 0)
(-0.058893 0.0752468 0)
(-0.0526221 0.0553437 0)
(-0.0473755 0.0377888 0)
(-0.0230048 0.0230852 0)
(-0.00657384 0.0234124 0)
(0.0050316 0.0281489 0)
(0.016786 0.0370633 0)
(0.0274485 0.0513308 0)
(0.0346797 0.0705798 0)
(0.0374204 0.0927448 0)
(0.0361174 0.116802 0)
(0.0226367 0.153104 0)
(-0.00782334 0.166512 0)
(-0.0130964 0.152918 0)
(-0.0101331 0.134069 0)
(-0.0067553 0.107288 0)
(-0.00622714 0.0759021 0)
(-0.00444106 0.0477165 0)
(-0.00141438 0.0258513 0)
(0.000402639 0.00807701 0)
(0.00264822 0.0245031 0)
(0.00471261 0.058467 0)
(0.00514459 0.0840083 0)
(0.00281141 0.107627 0)
(-0.00229213 0.129596 0)
(-0.00781038 0.147257 0)
(-0.0120537 0.157826 0)
(-0.0156899 0.158065 0)
(-0.0260393 0.140299 0)
(-0.0429509 0.103398 0)
(-0.0528877 0.0706785 0)
(-0.0480411 0.0466906 0)
(-0.0432277 0.0226656 0)
(-0.0279136 0.00572467 0)
(-0.0102566 0.00965978 0)
(0.00235723 0.0182925 0)
(0.0156426 0.0294181 0)
(0.0279837 0.0455748 0)
(0.035616 0.0669339 0)
(0.0379229 0.0901188 0)
(0.0373046 0.130476 0)
(0.00253188 0.232978 0)
(-0.0269354 0.226346 0)
(-0.0339559 0.178101 0)
(-0.0170875 0.146189 0)
(-0.00303731 0.107341 0)
(-0.00103724 0.0654653 0)
(0.000777 0.0343731 0)
(0.00292526 0.0155887 0)
(0.00241112 0.00348565 0)
(0.00256126 0.0195912 0)
(0.00177653 0.051464 0)
(-0.00021836 0.077703 0)
(-0.00367893 0.101916 0)
(-0.00773526 0.124144 0)
(-0.0104519 0.143331 0)
(-0.0100648 0.15762 0)
(-0.00754802 0.164305 0)
(-0.00716443 0.150995 0)
(-0.0343831 0.0965231 0)
(-0.0507375 0.0634955 0)
(-0.0469134 0.0362423 0)
(-0.0408876 0.010607 0)
(-0.0299333 -0.00702137 0)
(-0.0139053 -0.00420932 0)
(-0.000123463 0.00699936 0)
(0.0151979 0.0203949 0)
(0.0287339 0.0385171 0)
(0.0373196 0.06051 0)
(0.047578 0.0825669 0)
(0.0174566 0.236934 0)
(-0.0169428 0.31091 0)
(-0.0495547 0.27926 0)
(-0.057803 0.216353 0)
(-0.0387311 0.155086 0)
(0.00911824 0.104436 0)
(0.0144058 0.0438634 0)
(0.0124672 0.0160614 0)
(0.0102079 0.00345288 0)
(0.0051818 -0.00131089 0)
(0.000511235 0.0161016 0)
(-0.00387172 0.0469857 0)
(-0.00860017 0.0742995 0)
(-0.0140727 0.0989506 0)
(-0.0185599 0.120537 0)
(-0.0200209 0.139379 0)
(-0.0168745 0.156416 0)
(-0.00828854 0.171415 0)
(0.00736309 0.170968 0)
(-0.0472374 0.0839074 0)
(-0.0545532 0.0524135 0)
(-0.0511106 0.0220742 0)
(-0.0419715 -0.00140621 0)
(-0.0308934 -0.0174627 0)
(-0.0171964 -0.0164277 0)
(-0.00231805 -0.00523311 0)
(0.0148766 0.00997474 0)
(0.0288987 0.0306915 0)
(0.0352168 0.0473956 0)
(0.0605602 0.0890814 0)
(0.0221654 0.285717 0)
(-0.0315835 0.338595 0)
(-0.053354 0.301355 0)
(-0.0595579 0.220143 0)
(-0.045962 0.152153 0)
(0.0643405 0.0163448 0)
(0.0401962 -0.00120204 0)
(0.0282674 -0.0062745 0)
(0.0199732 -0.00876372 0)
(0.00822379 -0.00556119 0)
(-0.00202234 0.0161034 0)
(-0.0104611 0.0476896 0)
(-0.0193965 0.0762753 0)
(-0.028989 0.10078 0)
(-0.0368344 0.120416 0)
(-0.040322 0.136674 0)
(-0.0391166 0.152214 0)
(-0.0331191 0.170169 0)
(-0.00875904 0.197583 0)
(-0.0432586 0.13704 0)
(-0.0536301 0.031734 0)
(-0.0560216 0.00859329 0)
(-0.0463557 -0.0133589 0)
(-0.0337493 -0.0274371 0)
(-0.0198679 -0.027789 0)
(-0.00363849 -0.0178859 0)
(0.0139097 -0.00205193 0)
(0.0284282 0.0207956 0)
(0.0426098 0.0321712 0)
(0.0416612 0.157794 0)
(0.0390937 0.303309 0)
(-0.0168231 0.370961 0)
(-0.0199126 0.0218429 0)
(0.114455 -0.0873116 0)
(0.117103 -0.0591768 0)
(0.0762361 -0.0398488 0)
(0.0551604 -0.0299224 0)
(0.0429349 -0.0221603 0)
(0.02914 -0.0163788 0)
(0.0106264 -0.00778217 0)
(-0.00461443 0.0188111 0)
(-0.0176945 0.0528378 0)
(-0.0321282 0.0834307 0)
(-0.048393 0.107579 0)
(-0.0627794 0.124414 0)
(-0.070412 0.136218 0)
(-0.0720184 0.146368 0)
(-0.0716772 0.158489 0)
(-0.0682009 0.184113 0)
(-0.0591837 0.293739 0)
(-0.0724234 0.00103468 0)
(-0.065554 -0.00687635 0)
(-0.0544154 -0.028064 0)
(-0.0394392 -0.0394294 0)
(-0.0232905 -0.0402278 0)
(-0.00503515 -0.0308917 0)
(0.0126929 -0.0141917 0)
(0.0215233 0.00407867 0)
(0.0468588 0.0198915 0)
(0.0264312 0.195894 0)
(0.0347316 0.30166 0)
(0.0949764 0.105864 0)
(0.0882828 -0.0627439 0)
(0.10664 -0.0971081 0)
(0.100153 -0.0777904 0)
(0.0808053 -0.0549953 0)
(0.0669413 -0.0380873 0)
(0.0537109 -0.0260707 0)
(0.0350221 -0.0174012 0)
(0.0118522 -0.00742843 0)
(-0.00675676 0.0216682 0)
(-0.0246498 0.0592417 0)
(-0.0445321 0.0908516 0)
(-0.0720182 0.115561 0)
(-0.0955324 0.130286 0)
(-0.106599 0.138979 0)
(-0.109178 0.142987 0)
(-0.107641 0.147812 0)
(-0.109337 0.154509 0)
(-0.114765 0.190692 0)
(-0.0808775 -0.00758688 0)
(-0.0698107 -0.0282994 0)
(-0.0623801 -0.0441998 0)
(-0.0469051 -0.0533892 0)
(-0.0282874 -0.0546286 0)
(-0.00699025 -0.0454223 0)
(0.0134872 -0.025888 0)
(0.0198632 -0.0170979 0)
(0.0248181 0.0241595 0)
(0.0217518 0.225792 0)
(0.059694 0.234712 0)
(0.1188 -0.0777637 0)
(0.112082 -0.0949238 0)
(0.108809 -0.0974125 0)
(0.100418 -0.0800961 0)
(0.0877515 -0.0567578 0)
(0.0750161 -0.0379497 0)
(0.0587645 -0.0247715 0)
(0.0370064 -0.0152021 0)
(0.0120658 -0.00579162 0)
(-0.00659595 0.0239105 0)
(-0.0222972 0.0612989 0)
(-0.0584529 0.0954917 0)
(-0.105582 0.121567 0)
(-0.137094 0.131246 0)
(-0.145332 0.140038 0)
(-0.145902 0.141359 0)
(-0.14102 0.139244 0)
(-0.138083 0.136607 0)
(-0.137794 0.145824 0)
(-0.109643 0.0642631 0)
(-0.0759931 -0.0539047 0)
(-0.0731093 -0.0599901 0)
(-0.0569793 -0.0686224 0)
(-0.0363545 -0.0713123 0)
(-0.0141009 -0.0632685 0)
(0.00697759 -0.0394504 0)
(0.0167994 -0.026307 0)
(0.00137946 0.115699 0)
(0.0150046 0.247696 0)
(0.114068 -0.119217 0)
(0.114977 -0.126011 0)
(0.110989 -0.110221 0)
(0.108551 -0.0976995 0)
(0.101584 -0.0775956 0)
(0.0910351 -0.055328 0)
(0.0779224 -0.0369823 0)
(0.0602192 -0.0231404 0)
(0.0372625 -0.0129035 0)
(0.0120035 -0.00426207 0)
(-0.018736 0.0326712 0)
(-0.0166229 0.0806527 0)
(-0.101108 0.165104 0)
(-0.176736 0.243693 0)
(-0.180418 0.142207 0)
(-0.179275 0.138645 0)
(-0.17768 0.137733 0)
(-0.170831 0.129432 0)
(-0.163192 0.120412 0)
(-0.164479 0.106526 0)
(-0.165676 0.121405 0)
(-0.0891787 -0.0768103 0)
(-0.085819 -0.0750169 0)
(-0.0678774 -0.084917 0)
(-0.0458771 -0.0892172 0)
(-0.0240725 -0.0833846 0)
(-0.00770066 -0.0610949 0)
(0.0032262 -0.0370537 0)
(-0.0235623 0.152167 0)
(0.107028 -0.0204204 0)
(0.104316 -0.14732 0)
(0.102562 -0.138377 0)
(0.103852 -0.118182 0)
(0.105026 -0.0992435 0)
(0.100602 -0.0775976 0)
(0.0913659 -0.0554393 0)
(0.0778425 -0.0361746 0)
(0.0594477 -0.0212026 0)
(0.0365473 -0.0104711 0)
(0.011775 -0.00294488 0)
(-0.0624559 0.0505022 0)
(0.0091986 0.177052 0)
(-0.189019 0.346863 0)
(-0.271167 0.406313 0)
(-0.291389 0.25751 0)
(-0.214065 0.137804 0)
(-0.202204 0.134144 0)
(-0.191774 0.118021 0)
(-0.178831 0.0996105 0)
(-0.175701 0.0720888 0)
(-0.184813 0.058888 0)
(-0.0974063 -0.0850433 0)
(-0.0902222 -0.0907553 0)
(-0.0730486 -0.101893 0)
(-0.0522221 -0.106663 0)
(-0.0318067 -0.104089 0)
(-0.022634 -0.0901688 0)
(-0.0152758 -0.0584667 0)
(0.0258103 0.0934358 0)
(0.101875 -0.156745 0)
(0.095434 -0.155213 0)
(0.0947124 -0.141759 0)
(0.0980333 -0.122255 0)
(0.100558 -0.101349 0)
(0.0980613 -0.0784469 0)
(0.0899389 -0.0550355 0)
(0.0761205 -0.0337307 0)
(0.057394 -0.0170845 0)
(0.0350738 -0.00639782 0)
(0.0111657 -0.00119281 0)
(-0.0791811 0.076798 0)
(-0.0215314 0.223284 0)
(-0.19958 0.447479 0)
(-0.289287 0.457608 0)
(-0.316039 0.292757 0)
(-0.250231 0.16794 0)
(-0.21033 0.129054 0)
(-0.199647 0.110128 0)
(-0.185327 0.0812766 0)
(-0.175873 0.0458878 0)
(-0.179487 0.00298857 0)
(-0.124559 -0.0805596 0)
(-0.0903759 -0.109237 0)
(-0.0726227 -0.118938 0)
(-0.05223 -0.124524 0)
(-0.0327173 -0.126779 0)
(-0.0272951 -0.125082 0)
(-0.0204919 -0.0941425 0)
(0.0911401 -0.118453 0)
(0.0917431 -0.168345 0)
(0.0851931 -0.15812 0)