/*--------------------------------*- C++ -*----------------------------------*\
| =========                 |                                                 |
| \\      /  F ield         | OpenFOAM: The Open Source CFD Toolbox           |
|  \\    /   O peration     | Version:  v1606+                                |
|   \\  /    A nd           | Web:      www.OpenFOAM.com                      |
|    \\/     M anipulation  |                                                 |
\*---------------------------------------------------------------------------*/
FoamFile
{
    version     2.0;
    format      ascii;
    class       volScalarField;
    location    "1.78";
    object      epsilon.air;
}
// * * * * * * * * * * * * * * * * * * * * * * * * * * * * * * * * * * * * * //

dimensions      [0 2 -3 0 0 0 0];

internalField   nonuniform List<scalar> 
6000
(
134.276
16.7654
10.8057
10.1229
10.0149
9.9801
9.9023
9.82337
9.80961
9.85399
9.92922
9.93264
9.7808
9.66887
9.66854
9.7215
9.78034
9.8547
9.97172
10.0581
10.1307
10.1702
10.2028
10.2179
10.2193
10.192
10.2154
10.8634
16.7512
133.714
77.1328
23.9321
14.535
12.1782
11.5887
11.3498
11.0828
10.8901
11.0094
11.3784
11.7253
11.5694
11.0288
10.6673
10.6365
10.8114
10.9846
11.0968
11.1693
11.3225
11.6135
11.8316
11.9965
12.1551
12.3176
12.523
13.0231
15.2654
24.3285
80.0369
45.6818
20.9072
14.0961
11.9234
11.2432
10.9334
10.7065
10.5701
10.6736
10.9325
11.1909
11.3066
11.3059
11.2601
11.2247
11.2213
11.2699
11.3319
11.3781
11.4697
11.6581
11.8452
12.011
12.139
12.2322
12.3709
12.8691
14.7806
21.3995
48.8455
33.3602
17.1438
12.9197
11.266
10.688
10.539
10.5762
10.6572
10.8295
11.1923
11.5135
11.7273
11.9233
11.925
12.0334
12.1621
12.24
12.3443
12.4968
12.744
13.0117
13.196
13.2354
13.2259
13.2092
13.2438
13.5148
14.8045
18.6387
37.3985
24.7501
14.1731
11.7034
10.7403
10.422
10.4367
10.5547
10.7617
11.211
11.8686
12.2409
12.5242
13.0021
13.3134
13.7393
14.1582
14.4429
14.6329
14.9982
15.4109
15.5619
15.4224
15.1585
15.1179
15.2146
15.2514
15.2811
15.8472
18.8736
38.0355
24.2278
13.2046
11.3127
10.6984
10.4948
10.6059
10.8307
11.0566
11.615
12.5207
13.0822
13.7655
14.7485
15.5332
16.5391
17.4399
18.0411
18.4994
18.9393
18.629
17.9184
17.2849
16.8933
17.0318
17.3045
17.1399
16.8103
17.0593
19.8556
42.3882
26.6518
13.0526
11.0767
10.6188
10.6409
10.9277
11.2427
11.5451
12.1764
13.181
14.1333
15.3037
17.276
18.7267
20.5126
22.0699
23.0522
23.5375
23.0126
21.2373
19.5201
18.3744
17.8397
17.8579
17.9488
17.8076
17.5553
17.5819
20.2344
44.4527
27.2496
12.6821
10.5794
10.3046
10.5641
11.0075
11.5324
12.1551
13.0242
14.2118
15.5656
17.3714
20.4857
23.1068
25.8951
28.3829
29.6655
29.1238
26.545
23.5242
21.1636
19.5431
18.6373
18.052
17.5109
17.138
17.1315
17.6032
20.2507
45.3797
26.0959
12.1244
10.0475
9.9006
10.3631
11.0934
12.0064
13.0895
14.3264
15.8085
17.6757
20.3301
24.5644
29.0433
33.5255
37.692
39.3702
35.8341
30.8096
26.6288
23.5811
21.5163
20.0595
18.7759
17.6268
16.7748
16.4285
17.1304
19.7041
43.1666
22.4832
11.095
9.80928
9.97746
10.698
11.6878
12.997
14.5795
16.3653
18.3164
20.7939
24.4312
29.9862
36.7716
44.2939
51.5942
53.8007
45.0301
37.4429
32.0253
27.9334
25.0131
22.7703
20.7405
18.9928
17.727
17.0659
17.1624
18.3959
36.1787
20.669
10.8021
10.4047
10.8382
11.7923
13.0764
14.7747
16.8786
19.3174
22.0246
25.3943
30.2065
37.329
46.8543
58.8497
71.3575
72.8592
57.9591
48.4156
41.4394
35.2097
30.5829
27.3158
24.3473
21.8118
20.0489
19.1303
18.8091
17.6533
27.3116
23.692
11.8769
11.5229
12.148
13.3671
15.0658
17.2841
20.0585
23.3697
27.1773
31.8232
38.2287
47.2048
59.813
76.7159
94.9692
92.1364
74.7492
63.6952
54.0616
45.1359
38.2829
33.6807
29.5094
25.7681
23.2664
21.9829
21.26
18.5519
27.4901
32.9622
14.6339
13.3517
13.9211
15.3433
17.4658
20.3039
23.9251
28.4265
33.6384
39.7893
48.1031
59.2933
74.9494
95.4886
116.498
109.922
95.0053
81.6015
68.2879
56.8581
47.6498
41.2232
35.7909
30.4806
26.8315
24.6382
22.8097
21.1146
33.7635
35.3459
16.8558
14.7612
15.5649
17.4645
20.1287
23.5934
28.112
33.8937
40.7008
48.5396
58.8582
72.4336
90.9327
114.647
137.217
130.48
120.861
103.95
85.4056
70.1765
58.3291
49.4234
42.504
35.7061
30.3879
26.5505
23.8349
24.573
45.7754
34.7135
17.7015
15.8248
16.7409
18.9751
22.2727
26.5639
31.9363
38.8736
47.3975
57.1347
69.5667
85.7833
107.556
135.777
161.929
155.489
153.878
132.116
106.121
85.1369
69.4332
57.6652
48.4492
40.1796
33.157
27.9291
25.1943
26.781
49.0216
35.5574
18.5835
16.9866
18.1631
20.5317
23.9952
28.725
34.8041
42.722
52.8539
64.6871
79.6006
98.964
124.363
157.802
190.02
184.005
192.016
164.165
128.723
101.148
80.1209
64.7278
52.8886
43.0809
35.1669
29.7292
26.9855
29.0811
52.1072
39.1584
19.9058
18.3551
19.7389
22.3395
26.0218
30.8758
37.2284
45.8884
57.2748
71.2293
88.8794
111.517
140.52
178.889
217.892
212.888
228.569
196.038
150.808
117.175
91.0976
71.5419
57.1483
46.0714
37.8075
32.225
29.5643
32.3145
61.1298
45.191
21.7561
20.1877
21.7601
24.7142
28.8051
33.9925
40.6036
49.6745
61.9308
77.7879
97.9882
123.544
155.772
198.229
242.094
236.875
253.923
221.155
169.339
131.732
102.621
79.9449
63.0903
50.6782
41.7784
35.922
33.3779
36.925
77.3676
51.2638
24.5195
22.7724
24.5474
27.9236
32.529
38.2444
45.3144
54.8271
67.9074
85.3913
107.721
135.759
170.92
216.212
260.265
251.389
264.085
236.026
183.612
144.534
114.205
90.0086
71.2065
57.316
47.4931
41.2519
38.8418
43.6032
95.699
57.9606
28.6092
26.3714
28.3179
32.1179
37.2725
43.6496
51.3872
61.4397
75.3229
94.149
118.409
149.016
187.182
233.683
270.377
256.956
264.033
241.649
195.157
157.071
126.203
100.967
80.8603
65.594
54.8429
48.2561
45.9339
51.8594
112.482
68.2655
34.3118
31.2437
33.2611
37.4513
43.1559
50.2457
58.7848
69.4896
83.9629
103.734
129.837
163.382
205.359
251.987
272.165
259.615
260.941
239.85
204.312
170.331
138.986
112.319
91.0024
74.7124
63.1698
56.3343
54.146
61.1178
128.585
85.6573
41.8446
37.6802
39.6426
44.1722
50.4132
58.1885
67.5391
78.9486
93.7245
113.777
141.027
177.345
224.001
268.995
270.881
261.223
256.501
234.743
210.076
184.063
152.49
123.373
100.638
83.5824
71.5206
64.5375
62.548
70.7089
145.553
108.49
51.114
45.8732
47.7105
52.5218
59.2748
67.6628
77.6948
89.7244
104.67
124.225
150.867
187.726
234.373
268.747
262.537
254.261
244.981
226.244
208.952
189.655
161.401
132.57
108.9
91.5027
79.2225
72.1104
70.3291
79.9781
162.133
131.948
62.4349
55.7309
57.5089
62.6026
69.8676
78.8499
89.4468
101.839
116.634
135.074
159.128
191.021
228.455
248.484
242.459
234.745
225.248
212.323
198.604
182.061
160.56
137.045
115.295
98.341
86.0702
78.7786
77.1935
88.3325
176.879
157.305
75.5071
66.9574
68.7783
74.3421
82.2468
91.9831
103.229
115.821
129.95
146.219
165.646
188.839
213.431
222.853
219.084
213.425
205.775
195.342
183.731
171.847
155.642
139.069
121.189
104.808
92.2494
84.587
83.021
95.4612
190.416
181.314
89.5148
79.4378
81.3389
87.6067
96.4954
107.401
119.735
132.869
146.195
158.981
172.085
186.372
200.419
202.884
199.993
195.303
188.59
180.199
171.863
162.703
151.807
141.685
126.71
111.064
97.8686
89.3303
87.4083
100.451
200.637
204.066
105.177
93.144
95.1751
102.344
112.679
125.376
139.732
154.681
167.923
175.329
180.427
185.886
191.188
189.16
186.314
181.71
175.817
169.508
163.169
156.548
150.748
141.27
128.285
114.49
101.649
92.571
90.1809
102.929
196.636
233.793
122.6
108.175
110.123
118.337
130.514
145.762
163.633
181.565
194.118
196.134
192.888
188.978
185.209
181.389
178.188
173.411
168.23
162.995
157.357
153.046
148.48
138.489
126.824
114.478
102.492
94.1466
91.926
105.053
203.445
284.114
140.599
124.181
125.872
135.073
149.217
167.442
188.376
207.04
217.818
218.227
207.573
195.048
184.854
178.637
173.764
168.677
163.797
158.468
152.871
148.893
143.538
135.077
125.034
113.188
101.842
94.259
93.2479
107.66
217.493
319.288
158.107
139.978
141.857
152.037
167.868
188.184
209.61
226.307
232.495
230.849
215.612
198.65
186.083
177.103
170.184
164.657
159.632
153.911
147.895
142.612
137.361
131.313
122.945
111.36
100.556
93.6305
93.3695
109.94
226.359
351.799
178.365
155.878
157.613
168.838
186.44
208.443
230.476
245.594
244.432
236.107
217.974
199.21
184.816
173.875
165.697
159.785
154.477
148.464
142.207
136.749
132.274
127.732
120.255
108.937
98.4702
92.0589
92.2616
109.511
230.336
403.845
200.331
171.924
173.067
185.698
205.828
230.816
255.579
270.498
260.218
244.064
222.464
200.788
183.462
170.415
161.147
154.595
148.998
143.204
137.517
132.556
128.289
123.981
116.669
105.686
95.6908
89.6845
90.2521
107.708
231.37
465.635
219.305
186.799
188.251
203.021
226.703
255.966
285.508
301.005
280.973
256.83
230.991
205.434
184.569
168.907
157.882
150.26
144.378
139.109
134.147
129.39
124.689
119.711
112.202
101.756
92.3662
86.8025
87.6166
104.904
228.777
484.847
230.989
199.828
203.147
220.947
248.783
283.523
320.645
338.871
308.208
275.324
243.781
213.265
188.294
169.674
156.621
147.691
141.303
136.165
131.406
126.411
120.843
114.815
107.157
97.411
88.6697
83.5496
84.5757
101.599
223.454
495.736
241.565
211.568
217.432
238.654
271.145
312.843
360.238
383.927
342.375
299.704
260.907
224.156
194.625
172.774
157.625
147.29
139.911
134.075
128.715
123.064
116.602
109.628
101.926
92.8587
84.7497
80.023
81.1812
97.754
216.001
511.967
250.491
221.694
230.029
255.039
292.754
342.247
402.082
433.745
382.237
329.211
282.383
238.601
204.122
178.932
161.341
149.09
140.036
132.557
125.838
119.233
112.159
104.669
96.8403
88.2897
80.7279
76.3166
77.5246
93.5232
207.475
506.117
256.394
229.568
240.259
268.897
311.921
369.463
442.766
484.579
425.874
363.106
308.777
257.838
218.027
188.968
168.409
153.605
142.115
132.363
123.741
115.82
108.036
100.068
91.867
83.72
76.6648
72.5105
73.6882
88.9366
197.379
515.354
262.483
235.656
247.842
279.263
326.883
391.802
477.292
531.344
471.605
400.12
340.127
282.436
236.883
203.556
179.631
161.632
146.752
133.932
122.88
113.139
104.161
95.4636
86.9841
79.1365
72.6213
68.7035
69.7966
84.1905
186.54
529.637
266.501
239.252
252.352
285.486
336.146
406.527
500.603
567.99
514.981
436.583
374.668
312.089
260.956
223.292
195.391
173.147
154.049
137.581
123.543
111.478
100.859
91.1874
82.3799
74.7177
68.6631
65.0261
65.9905
79.5133
175.818
537.315
266.646
240.197
253.784
287.434
338.818
411.468
508.324
588.813
551.223
467.739
408.494
345.749
290.245
248.249
215.744
188.428
164.371
143.542
125.907
111.067
98.4542
87.6198
78.3695
70.7636
64.9534
61.5093
62.3517
75.0469
165.659
539.715
265.505
239.453
252.885
285.941
335.32
406.069
500.277
588.213
572.494
489.878
437.017
381.452
323.977
277.37
239.258
206.158
176.681
150.999
129.364
111.54
96.8708
84.8405
75.082
67.3635
61.6111
58.2638
58.9694
70.8407
156.192
544.698
265.137
238.043
250.782
282.007
328.332
394.239
482.019
570.45
574.438
501.331
457.798
416.044
360.271
308.05
263.086
223.521
188.742
158.466
132.865
112.271
95.8779
82.8102
72.4612
64.4962
58.7097
55.364
55.884
66.896
147.108
559.925
267.424
237.158
248.493
277.827
321.287
382.02
461.376
543.333
561.569
502.328
469.594
443.001
393.162
336.424
284.337
237.829
198.022
164.072
135.358
112.666
95.094
81.366
70.5324
62.2152
56.2626
52.8426
53.1252
63.2214
137.908
570.393
269.987
238.02
247.854
275.859
317.235
373.775
445.103
516.251
537.725
495.725
470.673
456.139
415.592
357.837
298.88
246.258
202.737
166.319
135.875
112.138
94.1205
80.3
69.2198
60.5549
54.3675
50.8242
50.8852
60.2015
130.584
550.481
268.884
238.98
248.801
276.072
317.097
370.661
433.475
493.027
513.344
484.183
463.678
454.516
424.455
368.784
304.552
247.609
201.995
164.986
134.59
111.008
93.1379
79.2229
68.164
59.3984
53.0636
49.4038
49.3337
58.1598
125.116
522.94
266.181
240.183
251.284
279.198
320.094
369.174
422.498
470.458
490.428
471.882
451.785
444.324
421.19
366.606
301.604
244.732
198.808
161.628
132.169
109.504
91.9226
78.0746
67.1476
58.5653
52.268
48.5353
48.3804
57.0833
121.195
519.964
267.095
242.958
255.112
283.746
322.604
364.324
406.652
446.504
468.312
458.974
439.314
428.463
407.318
354.661
292.444
239.14
195.026
158.925
130.07
107.684
90.4671
77.0119
66.3617
58.0047
51.8576
48.1342
47.9409
56.741
119.928
539.994
271.833
247.277
259.553
287.839
322.077
354.235
387.17
421.117
443.922
442.546
425.697
410.569
386.065
337.39
281.455
232.29
191
156.742
128.794
106.737
89.5262
76.2242
65.8812
57.8199
51.8525
48.1849
47.9609
56.6789
122.68
549.295
278.846
251.886
263.142
289.798
317.643
341.217
366.121
393.658
415.593
419.649
407.415
390.087
362.722
318.617
269.476
224.749
186.549
154.556
127.986
106.482
89.5455
76.4361
66.1347
58.1926
52.3686
48.7339
48.3946
56.5182
121.502
578.984
290.727
256.818
263.986
288.577
311.324
327.929
344.673
364.561
382.562
389.3
382.043
365.6
337.958
298.228
255.263
215.236
180.383
151.099
126.814
106.705
90.4673
77.7183
67.527
59.4228
53.4493
49.8154
49.4136
57.468
122.232
634.533
303.481
261.884
261.91
284.411
304.538
314.795
323.234
334.633
346.634
353.553
350.232
336.422
311.174
276.818
239.024
202.981
171.355
145.165
123.842
106.336
91.8401
80.2509
70.1473
61.6644
55.1847
51.2793
50.8373
58.9615
124.736
663.648
310.492
267.212
262.108
278.603
296.137
300.731
301.478
305.261
310.931
315.97
314.691
303.902
282.773
253.702
220.688
188.3
159.803
136.729
118.465
104.518
94.0055
84.746
74.2766
64.8673
57.5288
52.9861
52.3039
60.204
123.452
621.336
307.252
272.869
273.441
281.544
292.382
288.785
282.123
279.748
280.445
282.36
280.896
271.923
254.291
229.232
200.287
171.437
146.354
126.485
111.437
101.262
96.6542
91.3755
80.2999
68.7534
60.1379
54.8225
53.7103
61.3039
121.11
587.537
301.874
279.195
292.163
308.282
307.797
287.953
269.767
260.201
256.03
253.775
249.984
241.028
225.317
203.299
177.814
152.853
131.587
114.914
102.937
96.733
96.9643
94.8838
84.7807
72.259
62.4364
56.5579
55.1786
62.8753
121.597
516.467
285.683
277.343
303.899
336.079
340.33
300.487
265.618
246.788
236.435
228.694
221.022
210.494
195.314
175.46
153.498
132.812
115.467
102.517
94.8182
91.985
91.2809
89.8011
84.0673
73.6479
64.0884
58.243
57.0689
65.328
126.241
408.491
254.152
258.712
296.716
339.316
342.22
301.687
263.073
237.652
221.316
208.063
195.804
182.331
166.34
148.407
130.416
114.355
101.828
93.3584
88.2583
84.7975
82.6861
81.8746
80.1563
73.1662
65.5178
60.1217
59.5057
69.2988
141.691
365.987
227.178
232.269
269.58
313.876
311.914
281.784
250.936
226.787
208.893
193.154
177.56
161.734
145.343
129.273
114.609
102.322
92.8873
85.8954
80.8421
77.5318
75.7106
75.5447
76.2519
72.9695
66.9346
62.2463
61.531
72.3222
152.487
384.36
208.543
208.71
241.354
278.054
274.29
254.972
231.092
209.771
192.549
177.031
161.262
145.374
129.917
115.735
103.404
93.1981
85.1168
78.9858
74.5119
71.4706
69.9533
70.4121
72.5176
72.7619
68.3771
64.5885
63.9134
75.0556
160.123
382.661
190.189
186.746
216.488
245.243
240.794
227.411
209.484
190.154
172.858
157.436
142.702
128.587
115.47
103.792
93.7683
85.3797
78.4775
72.9638
68.8143
66.0917
65.0177
65.9534
68.8136
71.5356
70.2322
66.9429
66.5468
76.6559
156.92
348.543
171.213
166.901
193.737
216.391
210.202
199.911
186.373
169.861
153.572
138.758
125.342
113.299
102.634
93.2913
85.1463
78.0811
72.0535
67.1569
63.5221
61.3101
60.769
62.1831
65.6419
70.148
72.3997
69.0973
68.3088
77.7506
153.662
314.601
153.7
148.723
172.466
189.747
182.133
173.468
162.83
149.225
134.983
121.692
109.901
99.7422
91.0483
83.4995
76.8249
70.9109
65.8092
61.6786
58.7028
57.0893
57.1081
59.0468
63.2081
69.2488
74.1024
71.2762
68.8441
78.0581
152.316
282.625
137.828
132.22
152.166
164.85
156.789
149.062
140.135
128.905
116.987
105.757
95.8861
87.5399
80.5106
74.4232
68.9992
64.1563
59.9809
56.6482
54.3605
53.3441
53.8637
56.2571
60.9539
68.0131
74.7068
72.31
68.0688
75.697
146.601
261.641
125.13
117.796
133.656
142.685
134.535
127.372
119.448
110.006
100.251
91.2016
83.3395
76.7059
71.0986
66.2239
61.8687
57.9863
54.6713
52.0921
50.4474
49.9612
50.8727
53.5335
58.3881
65.6431
72.9926
71.3221
66.2039
72.0932
135.976
243.376
114.234
105.427
117.687
123.317
115.36
108.601
101.368
93.3284
85.472
78.4754
72.4878
67.3425
62.8909
58.994
55.528
52.4707
49.9104
47.9977
46.9134
46.8647
48.0587
50.8166
55.5461
62.5079
69.8405
68.8638
64.8455
71.614
137.703
223.484
104.261
94.5468
103.944
106.908
99.1123
92.6693
86.0383
79.201
73.0006
67.8217
63.4353
59.465
55.8897
52.7501
49.9982
47.6216
45.694
44.3437
43.7284
44.0271
45.4356
48.2133
52.7622
59.4379
66.8452
66.6408
63.8234
72.2847
144.97
196.058
93.2662
84.4621
91.9783
92.687
85.3169
79.2467
73.28
67.5725
62.8469
59.2272
56.0964
52.9609
50.0083
47.4368
45.2419
43.409
41.9939
41.103
40.8707
41.4529
43.0369
45.8336
50.2752
56.8636
64.6319
65.0765
62.523
71.1233
145.831
159.252
80.1948
74.4394
81.1778
80.2177
73.4288
67.9163
62.7561
58.1747
54.8004
52.4854
50.2425
47.6308
45.1023
42.9522
41.1848
39.7768
38.7679
38.245
38.3214
39.141
40.8788
43.7202
48.1287
54.7136
62.7004
63.5422
61.3273
70.3314
146.224
130.284
67.8879
64.316
70.5346
68.7506
63.0246
58.3748
54.1454
50.6834
48.5593
47.2884
45.5785
43.2455
41.0081
39.1751
37.7346
36.6554
35.9641
35.7325
36.0573
37.0758
38.9495
41.8531
46.2616
52.8342
60.8657
61.8453
60.0996
69.9607
148.893
111.766
58.0158
54.9947
60.2053
58.3586
54.0467
50.4415
47.1776
44.8004
43.8121
43.2962
41.807
39.5968
37.5734
35.9855
34.7964
33.9708
33.5262
33.5227
34.0467
35.2243
37.2095
40.1672
44.5549
51.0268
58.865
60.0234
58.5871
68.9962
150.394
97.2281
50.1626
47.3608
51.0968
49.4546
46.5193
43.9264
41.5967
40.2674
40.2597
40.1719
38.6603
36.5175
34.6709
33.2771
32.2829
31.6528
31.3984
31.5703
32.2473
33.5425
35.6021
38.5757
42.8766
49.1237
56.5933
57.7978
56.4781
66.8633
148.065
85.6989
44.0216
41.4214
43.5699
42.164
40.3356
38.6157
37.1774
36.8514
37.596
37.5957
35.9374
33.8813
32.1968
30.9612
30.1191
29.6394
29.5279
29.8285
30.6116
31.9774
34.0598
36.9868
41.0975
46.9316
53.801
55.0675
53.2792
61.6927
130.432
76.7026
39.5602
36.7354
37.356
36.3014
35.2994
34.3096
33.7235
34.285
35.5137
35.3094
33.5308
31.6008
30.0699
28.9667
28.2437
27.8775
27.8673
28.2524
29.0929
30.4759
32.5197
35.3265
39.136
44.386
50.4375
51.6672
49.276
55.1523
110.775
72.7101
36.6889
32.7394
32.3679
31.6736
31.2304
30.8575
31.0481
32.3212
33.6861
33.1894
31.405
29.6227
28.2305
27.2372
26.6073
26.3216
26.3767
26.8039
27.6525
28.9969
30.9371
33.5476
36.9566
41.4737
46.4985
47.5361
44.7668
49.2942
97.8163
71.0549
33.9349
29.3973
28.5232
28.044
27.9511
28.1157
28.9522
30.6674
31.9105
31.2559
29.5563
27.9136
26.6347
25.7287
25.1689
24.936
25.0241
25.4552
26.2672
27.5229
29.3028
31.658
34.611
38.3409
42.2682
42.7546
40.2392
43.9806
86.2646
69.129
31.596
26.7675
25.6042
25.1907
25.3181
25.9497
27.268
29.1233
30.2474
29.5942
27.9866
26.4428
25.2461
24.4056
23.8956
23.6931
23.787
24.1907
24.932
26.0634
27.6489
29.7221
32.2399
35.2699
38.2262
38.2339
36.788
41.2022
82.5641
67.3298
29.6451
24.6116
23.3316
22.9816
23.3421
24.3147
25.891
27.7961
28.8915
28.238
26.6661
25.1727
24.0302
23.238
22.7617
22.5723
22.6511
23.0049
23.655
24.646
26.0338
27.8449
30.019
32.5749
34.9884
34.7062
34.1105
39.4616
82.5376
64.9843
27.9352
22.8289
21.5574
21.3363
21.9048
23.0632
24.7459
26.7368
27.8357
27.116
25.5274
24.0576
22.9557
22.2027
21.7488
21.5599
21.6088
21.899
22.4498
23.3016
24.5098
26.1104
28.0591
30.3319
32.3739
31.9751
31.7356
37.409
79.2054
59.6329
26.1332
21.2882
20.1185
20.0978
20.7825
21.9989
23.7027
25.7711
26.8945
26.0903
24.4804
23.0528
22.0009
21.2862
20.8467
20.6477
20.6569
20.8762
21.3276
22.0512
23.1075
24.553
26.3747
28.4993
30.2403
29.7065
29.7674
35.522
76.3885
54.4116
24.6997
20.1001
19.0166
19.1452
19.8575
21.0314
22.6808
24.7418
25.8943
25.0533
23.4688
22.1334
21.1575
20.4827
20.0498
19.8302
19.7926
19.9383
20.2937
20.9031
21.8339
23.168
24.9265
26.9732
28.4757
27.8287
28.0769
33.9826
75.2256
52.2864
23.6889
19.1792
18.1921
18.4163
19.0765
20.1466
21.6874
23.6654
24.8233
23.9937
22.4989
21.3006
20.4207
19.7833
19.3491
19.0992
19.0105
19.0835
19.348
19.8552
20.6787
21.9242
23.6494
25.6482
26.8847
26.1716
26.4424
32.0955
71.225
50.0311
22.7139
18.4308
17.5132
17.7378
18.3917
19.3287
20.7319
22.5341
23.67
22.9336
21.603
20.5638
19.7728
19.1639
18.723
18.4389
18.2996
18.3063
18.4878
18.9013
19.6277
20.7873
22.4716
24.3857
25.4008
24.6349
24.8417
29.7655
64.5165
46.1763
21.7662
17.8414
16.9835
17.184
17.7742
18.605
19.8743
21.4695
22.4918
21.9238
20.8169
19.9137
19.1768
18.5834
18.1364
17.8238
17.6434
17.5966
17.7093
18.0386
18.6731
19.7388
21.3662
23.2309
23.9953
23.2336
23.4607
27.7674
58.7707
45.1442
21.2781
17.478
16.6514
16.8517
17.3415
18.0405
19.1384
20.4891
21.3964
21.0684
20.1627
19.3111
18.5809
17.9923
17.5478
17.2236
17.0212
16.942
17.0063
17.2667
17.8165
18.7843
20.3448
22.2367
22.913
22.2043
22.6279
27.017
58.3607
45.7826
21.1159
17.2732
16.4681
16.6607
17.0164
17.5608
18.4433
19.5859
20.4697
20.3858
19.5787
18.6923
17.9383
17.3518
16.9226
16.6115
16.4128
16.3265
16.3676
16.5798
17.0571
17.9317
19.4254
21.4466
22.2921
21.5815
22.1785
26.9435
59.8523
45.9298
20.9885
17.159
16.392
16.4958
16.6475
17.0096
17.7065
18.7189
19.6525
19.7253
18.9348
17.9938
17.2224
16.6493
16.2497
15.9738
15.8015
15.7309
15.7731
15.9611
16.3814
17.1674
18.5731
20.765
21.9693
21.25
21.7653
26.448
58.9872
45.6415
20.835
17.0829
16.3138
16.1672
16.1029
16.3209
16.92
17.8399
18.7312
18.8651
18.114
17.1803
16.4351
15.9007
15.5432
15.3117
15.1752
15.1316
15.1922
15.3777
15.7581
16.4602
17.7333
19.9892
21.6649
21.0671
21.4712
25.9782
57.4851
45.618
20.6943
16.9675
16.0075
15.5548
15.382
15.559
16.0939
16.8935
17.5818
17.72
17.0862
16.2562
15.597
15.1316
14.8244
14.633
14.5249
14.5048
14.5895
14.7854
15.1449
15.7786
16.864
18.9193
21.1033
20.9696
21.263
25.6451
56.527
45.7897
20.4144
16.5601
15.3369
14.7919
14.6364
14.8013
15.2285
15.8144
16.2721
16.3549
15.9199
15.2657
14.733
14.3563
14.1027
13.9392
13.8397
13.8087
13.8947
14.0961
14.4546
15.0584
15.9893
17.6359
19.9916
20.7068
21.1335
25.5174
56.3682
45.3693
19.7814
15.7417
14.4834
14.0255
13.9271
14.0539
14.343
14.6926
14.9731
15.0126
14.7091
14.2502
13.8598
13.569
13.3511
13.1887
13.0828
13.0712
13.1596
13.3529
13.7144
14.3182
15.1919
16.4609
18.523
20.0496
21.024
25.6068
57.1989
43.1141
18.671
14.7698
13.6339
13.2767
13.2336
13.3605
13.5589
13.705
13.7783
13.7972
13.6247
13.3131
13.026
12.7938
12.5963
12.4248
12.3112
12.2948
12.3622
12.5468
12.9173
13.5517
14.4866
15.6251
17.0764
18.8045
20.6626
25.82
59.5904
38.8743
17.2246
13.7796
12.8256
12.6033
12.6818
12.8711
12.9903
12.9232
12.7961
12.7688
12.7021
12.5014
12.2678
12.0546
11.8527
11.6579
11.5214
11.4759
11.5296
11.7038
12.0477
12.6414
13.5608
14.7326
15.9771
17.4714
19.5723
25.0528
59.4844
33.9356
15.745
12.903
12.1749
12.1129
12.3477
12.5765
12.4757
12.1605
11.9628
11.9394
11.9317
11.7719
11.5513
11.3301
11.105
10.8972
10.7576
10.7052
10.7481
10.8983
11.1867
11.6724
12.4323
13.4792
14.6953
16.0358
17.9343
22.843
54.4773
30.9022
14.7891
12.3368
11.758
11.785
12.0723
12.0895
11.7817
11.5209
11.3664
11.2902
11.2358
11.086
10.8675
10.6294
10.3878
10.1841
10.0493
9.99113
10.0147
10.1289
10.3557
10.7306
11.2995
12.0985
13.1112
14.2991
15.9133
19.8936
44.8891
30.8496
14.5118
12.0671
11.4422
11.3845
11.4849
11.3546
11.1646
11.007
10.9162
10.7818
10.6206
10.4387
10.2081
9.96013
9.72665
9.53756
9.40491
9.3335
9.32895
9.40112
9.5687
9.8534
10.2743
10.8483
11.581
12.4813
13.779
16.959
36.821
31.5056
14.527
11.857
11.0219
10.7739
10.7528
10.6703
10.4964
10.4318
10.3595
10.2133
10.0225
9.80964
9.57454
9.33884
9.1231
8.94235
8.80564
8.71862
8.68734
8.72119
8.83438
9.04146
9.34825
9.75553
10.2561
10.8713
11.8152
14.218
29.1249
33.1259
14.6403
11.5601
10.608
10.2602
10.0858
9.8893
9.8033
9.76653
9.6819
9.53277
9.35814
9.16167
8.94574
8.73321
8.53634
8.3658
8.22989
8.13425
8.08449
8.08804
8.1548
8.29536
8.51275
8.80127
9.14881
9.55122
10.192
12.0664
22.9758
33.3691
14.4258
11.1364
10.129
9.7073
9.41038
9.21394
9.12508
9.07433
8.97824
8.83914
8.68569
8.51287
8.32538
8.13895
7.96326
7.8069
7.67684
7.57844
7.51669
7.49699
7.52601
7.61209
7.76265
7.9589
8.21256
8.50975
8.92318
10.3002
19.1393
31.7008
13.7719
10.5305
9.53486
9.08254
8.77177
8.58267
8.4839
8.40727
8.30743
8.18731
8.0525
7.90065
7.73756
7.57397
7.41741
7.27456
7.15122
7.05219
6.98166
6.9435
6.94154
6.98283
7.08305
7.24382
7.40398
7.67647
8.00098
9.06733
17.161
26.9544
12.3933
9.82357
8.90359
8.45211
8.16636
7.9905
7.88283
7.79179
7.69569
7.58981
7.46998
7.33547
7.19181
7.04649
6.90534
6.77359
6.656
6.55665
6.47897
6.42559
6.39898
6.40464
6.46109
6.59301
6.75915
6.93085
7.33895
8.45747
16.9862
21.43
11.1823
9.03373
8.25675
7.85911
7.60205
7.43483
7.3219
7.23036
7.14109
7.04473
6.93671
6.8164
6.68818
6.55732
6.42832
6.30535
6.19226
6.09242
6.00867
5.94313
5.89749
5.877
5.89758
5.98559
6.14584
6.38524
6.74654
8.19632
17.8941
18.3149
9.94513
8.25247
7.65548
7.30612
7.07054
6.91453
6.80599
6.71866
6.63539
6.54695
6.4487
6.34014
6.22434
6.10499
5.9856
5.8695
5.75982
5.65937
5.57061
5.49553
5.43598
5.39699
5.39162
5.44356
5.57612
5.8501
6.32173
7.99426
18.9199
16.4161
8.8735
7.61057
7.11183
6.79141
6.57626
6.43375
6.33289
6.25115
6.17371
6.09228
6.00242
5.90365
5.79787
5.68768
5.57582
5.46502
5.35787
5.25679
5.16401
5.08168
5.01212
4.95996
4.93687
4.96226
5.06606
5.31671
5.8703
7.61171
18.2739
15.092
8.35884
7.12405
6.62111
6.32536
6.1224
5.99203
5.90017
5.82455
5.75301
5.67787
5.5953
5.50457
5.40675
5.30369
5.19757
5.0907
4.98532
4.8836
4.7877
4.69993
4.62304
4.56157
4.52596
4.53197
4.6098
4.82372
5.34171
6.86248
16.0444
15.3604
8.01715
6.68183
6.19131
5.88369
5.702
5.58775
5.50538
5.43664
5.37102
5.30186
5.22569
5.14144
5.04966
4.95179
4.8497
4.74544
4.64106
4.53863
4.4403
4.34849
4.26622
4.19797
4.15276
4.14439
4.20003
4.37808
4.83263
6.15665
12.9256
16.3842
7.84058
6.27396
5.75752
5.47287
5.31617
5.21796
5.1459
5.08518
5.02644
4.96356
4.89314
4.81389
4.72621
4.63148
4.53156
4.42844
4.32416
4.22078
4.12046
4.02564
3.93939
3.86607
3.81325
3.79345
3.8299
3.97461
4.36388
5.51852
10.7756
16.3232
7.5044
5.87748
5.3467
5.09434
4.96149
4.87932
4.81996
4.76982
4.71996
4.66429
4.59918
4.5234
4.43754
4.3434
4.24324
4.13937
4.03398
3.92916
3.827
3.72986
3.64065
3.56342
3.50441
3.47508
3.49395
3.60587
3.92494
4.88412
9.06869
15.0098
6.79986
5.42164
4.95307
4.73978
4.63268
4.57036
4.52823
4.49288
4.45519
4.40849
4.3486
4.27421
4.18686
4.08962
3.98585
3.87859
3.77033
3.66314
3.55897
3.45986
3.3684
3.28805
3.22402
3.1862
3.18886
3.26857
3.51678
4.28545
7.71715
12.1017
6.11573
4.96948
4.56882
4.40407
4.32824
4.29257
4.27443
4.26028
4.23994
4.20522
4.15048
4.07405
3.97982
3.87368
3.76126
3.64682
3.53321
3.42232
3.31565
3.21471
3.12145
3.03863
2.97048
2.92476
2.91308
2.96326
3.14797
3.7569
6.69686
9.62085
5.5113
4.52573
4.20758
4.09141
4.05392
4.05286
4.06728
4.08317
4.08754
4.06892
4.01882
3.9342
3.82415
3.7002
3.5718
3.44498
3.32275
3.20638
3.09646
2.99363
2.8989
2.81416
2.74266
2.69005
2.66628
2.69174
2.82577
3.31476
5.94136
7.96149
4.82686
4.09562
3.87455
3.81315
3.82132
3.86369
3.9218
3.97823
4.01607
4.01671
3.96913
3.86584
3.72664
3.57285
3.41921
3.27373
3.13907
3.01516
2.90109
2.79613
2.70015
2.61405
2.53995
2.48196
2.44861
2.45539
2.55337
2.95881
5.38401
6.78075
4.19241
3.70114
3.58013
3.58358
3.64641
3.74449
3.8581
3.96559
4.03492
4.04689
3.99475
3.86658
3.68472
3.49008
3.3029
3.13314
2.98254
2.84912
2.72994
2.62251
2.52536
2.43824
2.36228
2.30046
2.2599
2.25384
2.32866
2.67976
4.97702
5.89541
3.6651
3.35762
3.34016
3.41925
3.554
3.71937
3.89027
4.04542
4.14452
4.15256
4.07276
3.9025
3.67833
3.44224
3.21996
3.02359
2.85488
2.71035
2.58503
2.47454
2.37592
2.28777
2.21033
2.14578
2.10014
2.08605
2.146
2.46683
4.69117
5.2959
3.26717
3.09765
3.18072
3.35506
3.57032
3.8041
4.05321
4.27386
4.34654
4.26986
4.12754
3.9373
3.68917
3.42182
3.17019
2.94878
2.7612
2.60408
2.47114
2.35632
2.25522
2.16535
2.08614
2.01918
1.96987
1.95112
2.002
2.30811
4.50003
5.07017
3.02855
2.96829
3.15292
3.41653
3.72752
4.07927
4.42666
4.58977
4.50541
4.33778
4.18012
3.99105
3.71993
3.43042
3.16013
2.91778
2.71118
2.53956
2.3966
2.27501
2.16916
2.07567
1.99334
1.92327
1.87047
1.8479
1.89519
2.19319
4.35588
5.19829
3.0297
3.01298
3.27477
3.66317
4.13259
4.64175
4.92838
4.83024
4.62652
4.47498
4.34245
4.125
3.79483
3.47791
3.19259
2.93607
2.71512
2.5291
2.37322
2.24085
2.12621
2.02549
1.93726
1.86209
1.80471
1.77857
1.82371
2.12136
4.27077
5.81246
3.2276
3.25131
3.63081
4.18965
4.85132
5.37756
5.35613
5.04827
4.8885
4.81535
4.70211
4.34363
3.91748
3.57793
3.27778
3.0076
2.7714
2.57107
2.40303
2.25876
2.13324
2.02275
1.92482
1.84126
1.77702
1.74633
1.78972
2.09118
4.24597
7.33303
3.79896
3.79443
4.28624
5.02501
5.77706
5.96682
5.66408
5.44767
5.4389
5.46424
5.12329
4.53826
4.07478
3.71634
3.40926
3.1368
2.89472
2.68199
2.50032
2.33765
2.19205
2.06349
1.95201
1.85791
1.78568
1.74978
1.79031
2.0924
4.25086
9.71139
4.80044
4.64842
5.22416
6.09627
6.579
6.33785
6.10167
6.15206
6.34427
6.08347
5.35728
4.72408
4.24177
3.87187
3.5657
3.30046
3.06595
2.85738
2.67711
2.49893
2.32553
2.16969
2.03463
1.92115
1.83383
1.78696
1.81958
2.11915
4.29571
12.746
6.11421
5.74895
6.37597
7.14041
7.09062
6.80807
6.88925
7.22752
7.105
6.2951
5.51483
4.8869
4.408
4.03655
3.73087
3.47539
3.25903
3.0749
2.91635
2.72888
2.52751
2.34261
2.1831
2.04875
1.94245
1.88036
1.90132
2.19888
4.42776
16.4959
7.65351
7.02161
7.60227
7.82665
7.53828
7.59889
8.10079
8.09723
7.24384
6.36723
5.62703
5.03902
4.581
4.2127
3.90643
3.64339
3.4318
3.28199
3.16693
3.00729
2.78409
2.57365
2.39196
2.23832
2.11466
2.03808
2.04794
2.34727
4.6423
20.8781
9.34334
8.32923
8.51565
8.22973
8.18212
8.72633
8.98714
8.14296
7.21101
6.40505
5.74131
5.20636
4.76922
4.40414
4.07157
3.79039
3.57534
3.44228
3.33988
3.24607
3.08448
2.86607
2.66887
2.49823
2.35816
2.26562
2.26243
2.56361
4.96067
25.1556
10.9829
9.38743
8.94896
8.69927
9.09443
9.53094
8.91398
8.00705
7.18692
6.4882
5.9081
5.4118
4.97805
4.58458
4.23353
3.94858
3.7344
3.59977
3.49829
3.44707
3.40327
3.23385
3.03205
2.84738
2.68943
2.57967
2.56277
2.86939
5.43681
28.3992
12.2455
9.90661
9.25078
9.30108
9.80317
9.4734
8.70221
7.94592
7.26443
6.68257
6.16356
5.68835
5.21766
4.78741
4.44096
4.15946
3.95126
3.81821
3.73667
3.70387
3.72165
3.6663
3.50212
3.31043
3.13396
3.00212
2.97137
3.29173
6.12193
30.6149
12.9789
10.1884