/*--------------------------------*- C++ -*----------------------------------*\
| =========                 |                                                 |
| \\      /  F ield         | OpenFOAM: The Open Source CFD Toolbox           |
|  \\    /   O peration     | Version:  v1606+                                |
|   \\  /    A nd           | Web:      www.OpenFOAM.com                      |
|    \\/     M anipulation  |                                                 |
\*---------------------------------------------------------------------------*/
FoamFile
{
    version     2.0;
    format      ascii;
    class       volScalarField;
    location    "1.78";
    object      p_rgh;
}
// * * * * * * * * * * * * * * * * * * * * * * * * * * * * * * * * * * * * * //

dimensions      [1 -1 -2 0 0 0 0];

internalField   nonuniform List<scalar> 
6000
(
107275
107274
107274
107276
107280
107287
107297
107308
107317
107324
107327
107329
107332
107333
107331
107329
107326
107320
107309
107295
107281
107267
107255
107245
107238
107234
107232
107229
107224
107222
107254
107253
107252
107251
107250
107253
107261
107270
107278
107286
107291
107296
107304
107310
107312
107308
107301
107291
107278
107266
107251
107237
107225
107215
107208
107204
107203
107200
107199
107199
107276
107271
107267
107265
107261
107254
107252
107261
107273
107285
107295
107309
107325
107337
107334
107328
107321
107312
107298
107278
107254
107234
107218
107209
107207
107211
107213
107212
107210
107206
107275
107274
107271
107266
107258
107237
107220
107225
107245
107257
107267
107288
107324
107350
107349
107339
107331
107316
107285
107245
107204
107175
107152
107140
107142
107161
107175
107175
107178
107176
107265
107263
107258
107252
107238
107206
107179
107177
107194
107210
107212
107254
107320
107363
107370
107360
107342
107304
107244
107172
107118
107089
107070
107062
107065
107079
107102
107097
107112
107108
107247
107241
107220
107204
107182
107164
107154
107153
107154
107158
107158
107202
107298
107363
107376
107374
107341
107258
107158
107084
107045
107037
107035
107037
107037
107039
107039
107029
107030
107032
107177
107168
107155
107154
107157
107161
107162
107161
107159
107158
107158
107163
107257
107369
107376
107369
107319
107180
107081
107046
107043
107046
107050
107063
107072
107070
107053
107040
107036
107035
107156
107158
107164
107169
107183
107184
107178
107173
107169
107166
107163
107162
107213
107367
107392
107382
107309
107125
107063
107050
107051
107064
107095
107128
107149
107155
107138
107082
107050
107047
107190
107188
107215
107241
107267
107258
107240
107220
107200
107178
107169
107166
107199
107349
107417
107406
107312
107113
107069
107059
107064
107105
107167
107217
107253
107274
107282
107206
107092
107065
107301
107298
107344
107371
107387
107373
107345
107314
107274
107225
107183
107173
107215
107346
107445
107431
107290
107125
107084
107080
107094
107163
107244
107316
107352
107376
107390
107370
107210
107141
107389
107393
107429
107437
107444
107446
107435
107412
107379
107309
107234
107208
107253
107370
107468
107451
107216
107138
107120
107127
107151
107227
107311
107398
107418
107427
107424
107429
107321
107273
107236
107224
107335
107379
107404
107426
107447
107456
107456
107387
107322
107280
107310
107398
107457
107367
107116
107157
107201
107226
107233
107277
107338
107434
107438
107418
107401
107342
107264
107315
107008
106976
107078
107217
107337
107383
107411
107438
107465
107398
107383
107357
107363
107419
107415
107248
107097
107200
107331
107358
107323
107310
107326
107414
107432
107401
107280
107118
107110
107208
106898
106881
106885
106935
107041
107191
107319
107399
107432
107362
107365
107394
107379
107412
107419
107221
107078
107253
107441
107453
107409
107334
107316
107351
107406
107224
107027
106975
106980
107071
106905
106889
106887
106886
106887
106935
107028
107181
107308
107311
107324
107377
107367
107398
107430
107227
107049
107261
107472
107472
107477
107380
107297
107235
107165
107023
106980
106984
106986
107030
106952
106899
106899
106911
106921
106924
106922
106995
107157
107259
107292
107364
107363
107373
107431
107253
107010
107202
107469
107462
107500
107450
107312
107179
107091
107020
106992
106994
106997
107095
107026
106909
106938
106982
107011
107008
106991
107032
107152
107255
107307
107362
107368
107359
107426
107280
106963
107105
107456
107443
107486
107503
107403
107251
107162
107083
107026
107020
107047
107241
107095
106937
107004
107076
107119
107127
107108
107129
107220
107314
107368
107393
107384
107370
107423
107275
106911
107015
107440
107435
107455
107501
107496
107396
107295
107191
107135
107111
107174
107417
107157
106995
107073
107158
107212
107230
107220
107224
107300
107402
107439
107439
107420
107409
107419
107211
106853
106958
107413
107439
107450
107493
107532
107519
107438
107333
107285
107264
107376
107544
107233
107069
107134
107224
107289
107317
107318
107304
107351
107456
107482
107473
107452
107433
107399
107098
106794
106934
107299
107409
107454
107494
107537
107569
107554
107473
107401
107425
107545
107610
107355
107153
107205
107289
107364
107402
107406
107385
107389
107462
107495
107478
107437
107392
107306
106982
106777
106940
107189
107349
107415
107465
107515
107565
107596
107561
107474
107531
107608
107610
107537
107281
107302
107362
107439
107483
107487
107462
107426
107444
107478
107458
107400
107307
106974
106846
106784
106949
107122
107198
107234
107406
107478
107535
107587
107591
107529
107562
107607
107600
107677
107492
107429
107443
107507
107545
107545
107521
107478
107433
107420
107405
107331
106962
106445
106554
106684
106857
106952
106838
106749
107134
107433
107505
107562
107592
107560
107571
107600
107591
107724
107673
107567
107521
107557
107585
107583
107563
107524
107464
107401
107334
107150
106568
106073
106150
106390
106518
106481
106329
106360
106841
107373
107480
107541
107587
107580
107580
107594
107586
107709
107721
107672
107596
107592
107610
107614
107596
107561
107512
107437
107331
107096
106390
105936
105936
106049
106094
106076
106086
106279
106682
107181
107430
107521
107578
107598
107593
107594
107589
107656
107705
107702
107653
107625
107635
107636
107612
107577
107540
107493
107391
107176
106322
105918
105917
105932
105947
105986
106087
106355
106636
106541
106909
107410
107574
107613
107618
107625
107623
107611
107688
107697
107678
107657
107656
107640
107606
107567
107514
107507
107500
107356
106324
105985
105968
105973
105985
106050
106206
106404
106444
106224
106417
107038
107541
107624
107653
107658
107585
107606
107573
107691
107689
107679
107667
107638
107595
107441
107149
107448
107484
107118
106445
106209
106148
106130
106136
106224
106345
106339
106210
106168
106319
106758
107406
107628
107626
107533
107438
107580
107256
107640
107685
107693
107676
107644
107437
106803
106349
106739
106797
106666
106546
106420
106339
106310
106304
106354
106349
106191
106072
106157
106375
106731
107220
107508
107482
107443
107349
107378
107262
107483
107586
107696
107696
107649
107304
106432
105944
106101
106214
106319
106422
106400
106363
106350
106333
106316
106244
106069
106045
106159
106464
106854
107187
107422
107431
107403
107386
107293
107273
107290
107372
107579
107728
107691
107273
106329
105888
105970
106087
106171
106235
106260
106258
106254
106237
106180
106100
106045
106047
106165
106547
107000
107288
107427
107464
107458
107447
107466
107295
107290
107286
107482
107702
107734
107220
106289
105886
105976
106101
106144
106140
106121
106111
106111
106103
106074
106050
106048
106050
106181
106633
107167
107406
107481
107506
107515
107512
107749
107393
107319
107313
107460
107700
107620
107162
106284
105898
106005
106134
106160
106128
106080
106057
106054
106054
106053
106052
106052
106060
106226
106727
107351
107526
107569
107574
107577
107580
107903
107779
107543
107416
107502
107623
107548
107229
106291
105921
106048
106175
106185
106145
106094
106070
106071
106081
106090
106094
106093
106115
106311
106831
107526
107652
107674
107669
107651
107652
107947
107945
107843
107650
107548
107614
107567
107322
106279
105926
106069
106204
106216
106183
106143
106130
106148
106184
106214
106228
106226
106249
106445
106980
107656
107780
107769
107767
107733
107728
107989
107990
107979
107878
107726
107676
107634
107468
106264
105904
106064
106223
106263
106254
106241
106253
106308
106381
106437
106464
106464
106484
106659
107177
107738
107880
107858
107851
107805
107801
107920
108034
108031
107989
107906
107803
107766
107694
106274
105884
106039
106227
106320
106354
106377
106436
106541
106647
106725
106770
106788
106813
106971
107397
107803
107938
107931
107918
107872
107862
107932
108073
108073
108042
108000
107938
107891
107892
106334
105875
105982
106210
106369
106461
106532
106654
106819
106960
107055
107122
107163
107202
107336
107598
107842
107968
107972
107967
107928
107920
107964
108106
108117
108090
108056
108029
107993
107963
106477
105874
105900
106162
106391
106540
106669
106870
107112
107293
107392
107466
107525
107562
107624
107708
107807
107891
108009
108004
107970
107968
108005
108044
108157
108141
108108
108099
108076
107952
106709
105907
105821
106067
106369
106564
106733
106986
107294
107529
107657
107728
107808
107828
107795
107738
107745
107823
107974
108035
108006
108008
108055
107934
108157
108168
108140
107985
108047
107946
107014
105969
105761
105942
106279
106506
106658
106873
107195
107528
107805
107906
107992
108021
107951
107804
107772
107804
107919
108051
108040
108042
108123
107830
108179
108175
107938
107693
107988
107987
107324
106032
105726
105823
106109
106326
106442
106657
106987
107447
107919
108087
108118
108137
108111
107988
107829
107825
107884
108078
108077
108074
108177
107752
107927
107834
107588
107574
107958
108021
107575
106109
105715
105740
105932
106116
106298
106613
106988
107485
108014
108183
108180
108174
108168
108144
107992
107878
107877
108119
108125
108107
108164
107698
107648
107575
107568
107601
107864
107951
107380
106192
105706
105704
105820
106036
106411
106891
107265
107694
108178
108223
108171
107962
108039
108157
108126
107958
107845
108040
108157
108141
108044
107866
107690
107605
107599
107688
107561
107578
107027
106168
105716
105697
105784
106119
106846
107657
107966
108062
108135
108125
107908
107870
107859
108031
108111
107963
107806
107888
108188
108195
108076
108084
108125
107943
107893
107722
107124
107076
106676
106091
105735
105690
105787
106335
107508
108197
108347
108381
108343
108093
107911
107899
107888
107915
107983
107905
107798
107816
108096
108233
108082
107907
108316
108163
108070
107462
106747
106679
106411
106025
105755
105692
105803
106528
107964
108234
108355
108438
108466
108421
108246
108063
107928
107923
107926
107873
107816
107805
107952
108268
108013
107460
108388
108306
107988
107031
106569
106447
106297
106018
105790
105717
105839
106603
107817
108169
108289
108378
108493
108531
108528
108443
108309
108134
107990
107912
107860
107805
107779
108302
108002
107495
108444
108435
107637
106681
106424
106366
106313
106058
105853
105774
105909
106552
107424
107921
108110
108150
108278
108432
108563
108559
108541
108441
108249
108043
107904
107816
107791
108102
108041
107528
108273
108520
107472
106487
106383
106383
106371
106151
105957
105873
106011
106500
107123
107643
107907
107955
108021
108109
108397
108592
108602
108584
108510
108307
108026
107819
107818
107955
108311
107567
108064
108599
107756
106552
106418
106454
106460
106285
106111
106020
106147
106537
107097
107632
107953
108001
107984
108122
108275
108526
108636
108641
108629
108548
108282
107870
107847
108118
108642
107828
107916
108654
108513
107148
106709
106656
106595
106464
106326
106234
106347
106676
107203
107756
108096
108101
108021
108181
108411
108591
108673
108680
108682
108675
108550
108137
107879
108155
108811
108621
107945
108261
108591
108433
107418
107119
106889
106768
106674
106593
106696
107002
107514
108054
108301
108232
108114
108202
108435
108538
108038
108710
108725
108731
108710
108416
107978
108196
108833
108848
108509
108264
108591
108571
108076
107727
107455
107336
107304
107259
107349
107623
108049
108415
108470
108408
108384
108366
108085
106988
106239
108134
108766
108781
108784
108626
108081
108240
108710
108870
108819
108393
108206
107905
107615
107880
107988
108003
108056
108084
108174
108391
108580
108612
108582
108522
108221
107314
106157
105485
105428
106966
108677
108831
108839
108726
108044
108288
108404
108894
108882
108541
107081
106131
106249
106978
107604
107847
108028
108177
108284
108405
108458
108381
108072
107314
106304
105561
105312
105258
105282
106012
108233
108878
108894
108459
107886
108565
108169
108741
108911
108339
106223
105379
105421
105683
106096
106468
106773
107003
107092
107061
106880
106535
106018
105549
105324
105262
105255
105256
105262
105393
106824
108792
108948
108248
107929
108689
108164
107795
108439
107059
105531
105270
105293
105342
105397
105459
105525
105576
105581
105537
105460
105372
105300
105265
105258
105259
105260
105259
105264
105290
105638
107712
108911
108184
108008
108815
108052
107230
107602
106491
105370
105268
105300
105335
105342
105339
105333
105324
105310
105293
105279
105270
105266
105266
105265
105267
105268
105268
105273
105288
105343
106451
108489
108226
108691
108916
107890
107168
107415
106593
105361
105267
105324
105364
105370
105365
105354
105336
105316
105299
105286
105279
105276
105276
105277
105278
105278
105278
105283
105297
105303
105748
107957
108622
108969
108978
107890
107200
107504
106712
105398
105273
105350
105403
105414
105410
105396
105368
105337
105313
105299
105291
105289
105288
105287
105287
105287
105288
105293
105306
105305
105509
107479
108957
109032
109035
107996
107226
107678
106755
105443
105283
105372
105438
105458
105458
105441
105403
105359
105327
105310
105302
105299
105298
105297
105296
105296
105297
105303
105314
105307
105438
107025
109069
109098
109079
108229
107259
107808
106766
105470
105295
105394
105473
105506
105511
105489
105438
105380
105339
105320
105312
105309
105308
105307
105306
105305
105307
105316
105320
105309
105411
106586
108670
109171
109162
108450
107374
108005
106689
105477
105314
105421
105514
105561
105571
105541
105470
105395
105349
105329
105322
105319
105317
105316
105315
105315
105317
105331
105326
105311
105411
106490
108175
108639
109016
108782
107846
108266
106600
105471
105345
105457
105564
105624
105638
105594
105495
105403
105356
105338
105332
105329
105327
105325
105325
105324
105328
105347
105336
105313
105428
106659
108081
107704
108611
109153
108480
108613
106484
105470
105393
105506
105629
105700
105708
105641
105508
105405
105361
105346
105340
105338
105335
105334
105334
105332
105340
105364
105349
105327
105452
106758
108271
107736
108339
109376
109129
108995
106367
105488
105459
105571
105711
105792
105783
105674
105510
105403
105364
105353
105348
105346
105343
105341
105343
105342
105352
105383
105369
105351
105479
106848
108335
107769
108353
109441
109415
109266
106316
105551
105540
105650
105809
105905
105861
105688
105500
105399
105369
105360
105355
105353
105351
105349
105352
105353
105365
105403
105396
105381
105518
106951
108410
107805
108504
109476
109489
109132
106355
105640
105629
105741
105919
106027
105924
105681
105477
105397
105374
105367
105362
105361
105359
105358
105363
105367
105381
105425
105427
105416
105576
107025
108600
107839
108705
109537
109553
108731
106342
105730
105722
105845
106035
106134
105953
105644
105451
105397
105382
105375
105371
105370
105369
105370
105376
105385
105400
105450
105462
105455
105640
107124
108822
108370
109265
109602
109617
108224
106251
105818
105826
105975
106161
106202
105951
105586
105432
105399
105391
105385
105381
105381
105381
105384
105393
105407
105424
105476
105501
105500
105687
107189
109216
109106
109568
109672
109453
107820
106223
105929
105963
106141
106297
106229
105892
105531
105426
105403
105402
105397
105393
105394
105395
105401
105413
105433
105452
105505
105545
105550
105728
107116
109499
109606
109690
109645
109167
107638
106297
106084
106159
106342
106408
106208
105783
105499
105428
105413
105415
105411
105407
105409
105413
105422
105437
105460
105484
105539
105593
105608
105752
106945
109672
109757
109759
109346
109067
107548
106465
106302
106434
106575
106446
106076
105674
105488
105437
105429
105429
105429
105425
105427
105434
105447
105465
105490
105519
105574
105645
105673
105798
106824
109396
109831
109830
109347
109100
107523
106650
106569
106740
106761
106404
105929
105617
105488
105454
105449
105446
105448
105446
105448
105458
105475
105496
105520
105554
105609
105696
105746
105921
106989
109031
109512
109684
109470
109163
107552
106861
106849
106959
106804
106309
105882
105611
105495
105474
105472
105465
105468
105470
105473
105486
105505
105529
105553
105590
105644
105748
105824
106088
107510
109002
108910
109360
109708
109241
107871
107190
107069
107013
106713
106281
105927
105665
105521
105494
105494
105488
105489
105496
105502
105516
105538
105564
105590
105626
105682
105798
105903
106273
107917
109268
108955
109174
109949
109430
108249
107568
107227
106942
106637
106355
106101
105786
105572
105510
105510
105516
105513
105525
105535
105550
105573
105601
105630
105663
105721
105843
105983
106464
108215
109402
108996
109329
110018
109509
108572
108000
107398
106868
106650
106549
106357
105906
105623
105526
105522
105548
105543
105554
105572
105587
105610
105640
105673
105702
105760
105882
106069
106662
108495
109581
109042
109591
109669
109448
108924
108558
107926
106984
106761
106790
106554
105959
105644
105539
105535
105578
105579
105584
105611
105627
105650
105681
105716
105745
105798
105917
106151
106879
108758
109835
109425
109902
109227
109433
109340
109331
108952
107481
106983
107011
106638
105966
105642
105547
105555
105610
105622
105618
105653
105670
105693
105723
105760
105791
105836
105954
106229
107086
109049
110037
109982
110202
109235
109637
109761
109814
109474
108103
107339
107157
106627
105948
105638
105557
105587
105650
105671
105663
105701
105720
105743
105771
105808
105839
105879
105991
106307
107313
109255
110184
110309
110307
109620
109843
109992
110022
109537
108400
107599
107205
106575
105934
105650
105590
105634
105704
105732
105726
105761
105782
105803
105829
105863
105896
105929
106029
106391
107687
109506
109917
110275
110154
110038
110058
110157
110190
109584
108538
107747
107231
106562
105982
105717
105666
105703
105780
105812
105811
105841
105863
105884
105906
105936
105969
105992
106075
106479
108023
109859
109852
109848
110072
110295
110266
110314
110261
109497
108572
107899
107373
106719
106156
105870
105793
105812
105884
105919
105925
105950
105972
105994
106016
106043
106074
106086
106149
106560
108159
110162
110079
110027
110135
110431
110412
110421
110187
109365
108601
108117
107674
107080
106496
106129
105984
105969
106024
106062
106076
106100
106127
106154
106180
106211
106236
106236
106269
106623
108121
110329
110316
110292
110414
110464
110457
110329
109864
109267
108752
108460
108146
107622
106998
106507
106250
106182
106208
106246
106271
106307
106348
106388
106429
106471
106488
106467
106460
106688
107989
110309
110538
110504
110603
110501
110319
109923
109584
109316
109075
108959
108804
108361
107649
106997
106602
106456
106443
106478
106521
106584
106651
106719
106789
106848
106861
106808
106753
106881
107994
109957
110614
110667
110722
110367
110018
109701
109596
109543
109597
109650
109638
109266
108451
107610
107057
106809
106755
106779
106849
106953
107063
107178
107295
107381
107388
107305
107198
107269
108020
109537
110626
110761
110789
110029
109880
109801
109876
110090
110283
110370
110352
110060
109335
108404
107660
107286
107190
107205
107316
107484
107655
107832
108007
108122
108123
108009
107852
107879
108275
109290
110328
110719
110796
110025
110028
110220
110422
110610
110654
110670
110599
110482
110116
109290
108443
107955
107831
107845
108023
108270
108503
108731
108939
109067
109068
108941
108762
108726
108873
109464
110246
110491
110609
110165
110438
110640
110683
110696
110655
110582
110625
110742
110656
110139
109371
108865
108726
108759
109009
109293
109537
109751
109925
110026
110037
109957
109827
109744
109704
109874
110328
110574
110501
110512
110732
110674
110660
110566
110444
110395
110548
110838
111042
110891
110327
109881
109753
109817
110051
110267
110427
110544
110624
110671
110687
110678
110650
110609
110519
110391
110419
110606
110508
110747
110748
110636
110653
110507
110254
110268
110594
110995
111111
111053
110847
110644
110582
110641
110748
110817
110858
110882
110896
110907
110918
110929
110933
110923
110913
110817
110645
110648
110499
110773
110650
110628
110672
110653
110329
110338
110886
111101
111078
110964
110940
110922
110918
110946
110963
110966
110965
110961
110958
110957
110956
110949
110920
110879
110917
110936
110883
110792
110503
110717
110410
110571
110652
110702
110625
110811
111072
111078
110984
110932
110975
110972
110975
110991
110994
110990
110983
110976
110970
110964
110955
110929
110868
110766
110791
110890
110920
110913
110628
110531
110386
110483
110707
110849
110911
111032
111033
111007
110933
110945
110981
110973
110975
110986
110987
110984
110978
110972
110966
110961
110950
110912
110808
110657
110566
110716
110874
110881
110791
110349
110369
110736
110890
110953
110974
110979
110981
110936
110906
110949
110961
110953
110957
110965
110966
110964
110960
110956
110953
110952
110948
110916
110803
110640
110517
110389
110679
110834
110840
110367
110716
110912
110911
110912
110916
110920
110925
110886
110896
110923
110924
110922
110927
110933
110934
110934
110932
110930
110929
110932
110938
110926
110848
110702
110557
110271
110240
110651
110793
110596
110863
110856
110850
110849
110851
110860
110854
110846
110869
110880
110879
110881
110887
110891
110893
110894
110894
110894
110895
110901
110912
110916
110883
110796
110674
110369
110208
110193
110692
110761
110797
110789
110781
110723
110749
110783
110792
110809
110826
110830
110830
110834
110839
110843
110845
110847
110848
110850
110852
110859
110871
110885
110880
110844
110777
110571
110302
110157
110395
110731
110724
110712
110537
110557
110659
110726
110750
110771
110778
110777
110778
110782
110785
110788
110791
110794
110796
110799
110803
110809
110821
110838
110849
110842
110814
110721
110515
110128
110151
110658
110643
110297
110301
110477
110641
110701
110721
110727
110724
110721
110722
110723
110726
110728
110732
110735
110739
110743
110748
110754
110765
110781
110799
110809
110805
110772
110673
110389
110174
110589
110041
110052
110255
110542
110662
110683
110679
110671
110664
110660
110659
110660
110661
110664
110668
110673
110678
110683
110689
110695
110705
110720
110739
110757
110769
110764
110727
110596
110292
110292
109621
110097
110415
110617
110654
110639
110619
110606
110598
110593
110591
110590
110591
110595
110600
110606
110613
110620
110627
110634
110643
110657
110675
110696
110715
110727
110718
110644
110353
109929
109587
110295
110559
110618
110602
110573
110551
110536
110527
110520
110516
110515
110517
110522
110529
110537
110546
110555
110564
110572
110581
110592
110609
110630
110652
110673
110681
110635
110396
109881
110017
110490
110581
110564
110533
110503
110480
110464
110452
110443
110437
110435
110438
110445
110456
110467
110479
110490
110500
110509
110518
110527
110541
110562
110586
110610
110624
110601
110429
110007
110407
110539
110518
110496
110459
110430
110407
110388
110373
110361
110352
110348
110353
110364
110379
110395
110411
110425
110437
110447
110455
110463
110474
110491
110516
110543
110559
110553
110437
110220
110456
110469
110448
110420
110384
110355
110331
110309
110288
110268
110251
110247
110257
110276
110298
110321
110342
110360
110375
110386
110395
110401
110408
110419
110442
110473
110493
110495
110420
110302
110398
110396
110378
110340
110307
110280
110254
110223
110185
110142
110113
110117
110142
110177
110213
110246
110273
110296
110314
110328
110337
110343
110346
110350
110365
110397
110430
110434
110389
110271
110321
110326
110298
110262
110234
110207
110170
110110
110017
109921
109871
109918
109991
110063
110122
110169
110205
110233
110255
110271
110282
110288
110290
110289
110292
110312
110357
110370
110348
110218
110243
110242
110218
110191
110166
110129
110055
109904
109653
109478
109413
109576
109774
109927
110027
110092
110138
110172
110198
110216
110229
110236
110238
110234
110230
110233
110266
110296
110296
110160
110173
110168
110151
110129
110099
110027
109848
109424
109020
108948
108944
109183
109520
109792
109941
110025
110078
110115
110143
110163
110178
110187
110190
110186
110179
110178
110181
110211
110228
110107
110114
110111
110097
110073
110018
109850
109365
108705
108586
108651
108723
108979
109425
109751
109908
109986
110033
110066
110092
110112
110128
110140
110145
110142
110133
110126
110128
110133
110145
110060
110067
110065
110049
110019
109879
109433
108659
108333
108465
108559
108709
109005
109472
109798
109921
109974
110004
110028
110049
110067
110082
110094
110102
110101
110093
110081
110077
110080
110081
110022
110028
110026
110006
109913
109543
108614
108207
108291
108413
108556
108785
109164
109708
109907
109956
109971
109978
109991
110010
110027
110040
110052
110062
110065
110058
110043
110032
110031
110033
109992
109999
109992
109936
109658
108705
107834
108003
108261
108414
108653
109016
109621
109915
109962
109949
109928
109914
109923
109950
109981
109999
110013
110025
110031
110028
110013
109994
109987
109988
109969
109971
109942
109762
108998
107813
107788
107905
108243
108520
108930
109570
109918
109945
109922
109882
109820
109769
109781
109830
109905
109944
109967
109985
109998
110001
109991
109967
109947
109946
109947
109935
109822
109392
108145
107768
107785
107914
108332
108844
109530
109916
109938
109907
109848
109707
109538
109380
109426
109487
109732
109867
109915
109939
109958
109971
109970
109951
109921
109907
109919
109834
109561
108738
107854
107765
107806
108079
108694
109480
109909
109937
109904
109835
109610
109276
108989
108803
108906
108830
109245
109689
109847
109894
109916
109934
109944
109936
109908
109877
109828
109626
109203
108314
107936
107814
107991
108588
109397
109891
109942
109909
109838
109533
109039
108648
108560
108546
108510
108190
108394
109259
109695
109840
109879
109898
109912
109916
109898
109864
109667
109364
108899
108420
108111
108013
108522
109336
109860
109946
109917
109859
109546
108924
108494
108489
108558
108555
108271
108023
108016
108573
109361
109716
109838
109865
109880
109891
109884
109857
109463
109159
108857
108495
108260
108522
109236
109809
109947
109923
109887
109634
109075
108807
108541
108493
108534
108556
108173
108020
108012
108106
108834
109456
109738
109836
109852
109863
109866
109848
109187
108772
108722
108463
108524
109113
109719
109923
109923
109899
109751
109290
109160
109076
108917
108577
108413
108372
108121
108056
108020
108067
108418
109036
109523
109755
109827
109838
109845
109837
108847
108291
108359
108434
108881
109563
109867
109914
109899
109807
109428
109285
109360
109347
109385
109074
108659
108278
108111
108102
108109
108156
108314
108575
109108
109579
109765
109816
109824
109824
108565
108224
108239
108552
109298
109766
109887
109889
109854
109487
109054
109346
109354
109379
109480
109473
109200
108638
108304
108207
108139
108141
108171
108239
108527
109247
109620
109762
109805
109809
108343
108201
108299
108927
109597
109818
109870
109865
109699
109097
109044
109396
109347
109387
109468
109471
109477
109275
108868
108561
108298
108145
108131
108118
108131
108803
109375
109638
109747
109790
108279
108209
108602
109333
109704
109824
109846
109795
109451
108890
109102
109390
109341
109400
109451
109437
109327
109402
109361
109114
108794
108453
108172
108116
108102
108389
109113
109455
109634
109736
108263
108442
108995
109517
109730
109811
109812
109652
108928
108877
109410
109525
109409
109426
109410
109195
109199
109387
109395
109394
109276
109086
108669
108272
108097
108189
108873
109282
109467
109640
108224
108679
109206
109565
109732
109790
109736
109421
108916
109346
109772
109647
109503
109445
109342
109145
109181
109385
109381
109441
109403
109412
109289
108901
108447
108274
108685
109151
109285
109507
107974
108612
109208
109575
109736
109778
109707
109471
109276
109776
109759
109594
109500
109423
109273
109123
109337
109457
109420
109481
109449
109444
109461
109383
109075
108677
108677
109039
109168
109360
107265
108466
109163
109597
109763
109808
109796
109709
109744
109738
109548
109415
109418
109372
109244
109091
109416
109511
109505
109544
109550
109519
109519
109503
109418
109154
108866
109000
109122
109245
106931
108335
109176
109660
109791
109802
109803
109799
109784
109697
109229
109030
109274
109304
109210
109051
109308
109472
109475
109483
109577
109593
109600
109584
109550
109435
109198
109077
109127
109202
106918
108257
109294
109738
109782
109789
109774
109759
109662
109600
109196
108776
108941
109217
109184
109015
109159
109397
109367
109206
109381
109527
109613
109643
109633
109587
109460
109283
109212
109219
107149
108296
109449
109756
109765
109708
108627
108640
109295
109462
109265
108629
108613
109052
109135
109040
109081
109317
109183
108873
108868
109262
109511
109629
109651
109662
109613
109493
109365
109288
107159
108225
109528
109702
109733
108980
107084
106234
106282
108248
109220
108705
108587
108753
108985
109008
109037
109276
109024
108856
108847
109049
109264
109483
109621
109655
109678
109632
109520
109369
105830
108354
109505
109470
109570
109116
107679
105692
103805
103933
106209
108375
108681
108792
108891
108878
108919
109162
109028
108934
108974
108979
108860
108695
109417
109638
109677
109701
109636
109430
103959
108531
109332
109056
109178
109200
108812
106862
103300
101544
101883
103553
105476
106899
107974
108462
109087
109173
109172
108528
106769
105711
104899
104382
107626
109474
109679
109714
109714
109473
102659
103627
108247
108633
109068
109218
109155
107498
102711
100931
100779
100906
101263
101847
103114
104764
106752
108365
106514
103144
101716
101377