/*--------------------------------*- C++ -*----------------------------------*\
| =========                 |                                                 |
| \\      /  F ield         | OpenFOAM: The Open Source CFD Toolbox           |
|  \\    /   O peration     | Version:  v1606+                                |
|   \\  /    A nd           | Web:      www.OpenFOAM.com                      |
|    \\/     M anipulation  |                                                 |
\*---------------------------------------------------------------------------*/
FoamFile
{
    version     2.0;
    format      ascii;
    class       volScalarField;
    location    "1.78";
    object      pMean;
}
// * * * * * * * * * * * * * * * * * * * * * * * * * * * * * * * * * * * * * //

dimensions      [1 -1 -2 0 0 0 0];

internalField   nonuniform List<scalar> 
6000
(
107505
107505
107505
107505
107505
107505
107505
107506
107506
107506
107506
107507
107507
107507
107507
107507
107506
107506
107506
107506
107505
107504
107504
107503
107503
107503
107504
107504
107504
107504
107433
107434
107433
107433
107432
107432
107432
107432
107433
107433
107433
107434
107434
107434
107434
107434
107434
107433
107433
107432
107431
107430
107430
107429
107429
107430
107431
107432
107432
107432
107386
107387
107386
107386
107386
107386
107387
107387
107387
107388
107388
107389
107389
107389
107389
107389
107389
107388
107388
107387
107385
107384
107383
107383
107383
107383
107384
107384
107385
107384
107333
107332
107332
107331
107331
107332
107332
107333
107334
107335
107335
107335
107336
107336
107336
107336
107336
107335
107334
107333
107330
107329
107329
107328
107328
107329
107329
107329
107329
107330
107281
107281
107280
107280
107280
107280
107280
107281
107281
107282
107283
107283
107284
107284
107285
107284
107284
107283
107281
107280
107278
107277
107276
107277
107277
107277
107277
107277
107277
107278
107231
107230
107230
107230
107230
107230
107230
107229
107229
107230
107231
107231
107231
107232
107233
107233
107232
107230
107229
107228
107226
107225
107225
107225
107225
107226
107227
107227
107227
107228
107181
107180
107179
107179
107179
107179
107179
107178
107177
107178
107178
107179
107179
107180
107180
107180
107179
107178
107177
107176
107175
107174
107173
107172
107173
107175
107176
107177
107177
107178
107129
107128
107127
107126
107127
107127
107127
107126
107126
107127
107127
107127
107126
107127
107127
107127
107126
107125
107124
107124
107123
107122
107120
107119
107120
107122
107124
107125
107126
107128
107076
107073
107072
107072
107073
107073
107074
107074
107075
107076
107076
107075
107075
107075
107076
107075
107074
107073
107072
107072
107071
107069
107067
107066
107065
107067
107069
107070
107073
107075
107019
107018
107017
107017
107018
107019
107021
107023
107024
107024
107025
107026
107026
107026
107026
107025
107024
107023
107022
107021
107020
107018
107015
107013
107011
107011
107013
107015
107018
107021
106963
106962
106961
106961
106962
106964
106968
106971
106972
106973
106975
106976
106977
106978
106978
106978
106977
106975
106974
106972
106970
106968
106965
106962
106958
106956
106957
106960
106963
106965
106908
106907
106905
106905
106906
106910
106915
106918
106920
106921
106923
106925
106927
106929
106930
106930
106930
106928
106927
106924
106922
106919
106916
106912
106907
106903
106902
106904
106907
106910
106854
106852
106851
106850
106852
106856
106862
106866
106868
106870
106871
106873
106875
106878
106880
106881
106881
106882
106880
106878
106874
106871
106868
106863
106858
106853
106850
106851
106853
106856
106801
106799
106798
106798
106800
106805
106810
106814
106816
106818
106820
106821
106824
106827
106830
106831
106831
106833
106833
106830
106827
106823
106819
106815
106809
106804
106801
106800
106801
106803
106750
106749
106748
106748
106751
106754
106759
106763
106766
106768
106770
106772
106773
106776
106779
106780
106781
106782
106783
106781
106779
106775
106771
106766
106762
106757
106753
106751
106752
106753
106700
106700
106700
106701
106702
106704
106708
106712
106715
106719
106721
106723
106725
106727
106728
106729
106729
106730
106730
106729
106727
106724
106721
106717
106713
106709
106706
106704
106703
106704
106652
106651
106652
106653
106653
106654
106657
106661
106666
106670
106673
106675
106676
106677
106678
106678
106677
106676
106676
106675
106674
106671
106668
106665
106662
106660
106657
106655
106654
106654
106602
106602
106603
106603
106604
106603
106605
106610
106616
106621
106624
106626
106627
106627
106626
106625
106624
106623
106622
106621
106619
106616
106612
106610
106608
106606
106605
106604
106603
106602
106552
106552
106552
106552
106552
106553
106555
106559
106565
106570
106574
106575
106575
106574
106572
106571
106570
106568
106569
106568
106564
106559
106555
106552
106549
106548
106548
106548
106547
106546
106501
106501
106500
106499
106500
106502
106505
106509
106513
106518
106522
106522
106521
106519
106517
106515
106515
106515
106516
106515
106510
106504
106498
106493
106490
106488
106487
106487
106488
106487
106448
106447
106446
106447
106449
106453
106457
106460
106463
106467
106469
106469
106467
106463
106460
106459
106460
106462
106463
106461
106455
106448
106441
106435
106431
106428
106426
106425
106426
106426
106390
106391
106392
106395
106398
106403
106408
106411
106414
106417
106418
106418
106415
106410
106406
106404
106406
106407
106407
106405
106399
106391
106382
106375
106370
106366
106364
106363
106363
106363
106330
106332
106335
106340
106344
106350
106354
106358
106362
106365
106367
106366
106362
106357
106353
106351
106351
106351
106350
106346
106339
106329
106320
106312
106306
106302
106301
106300
106300
106301
106268
106269
106273
106278
106284
106289
106294
106298
106304
106309
106312
106311
106307
106302
106298
106296
106294
106293
106290
106284
106275
106265
106255
106247
106240
106237
106236
106236
106237
106237
106203
106204
106208
106212
106218
106223
106228
106232
106239
106247
106251
106252
106249
106245
106241
106238
106235
106233
106228
106219
106209
106198
106188
106180
106174
106171
106171
106173
106173
106174
106137
106137
106140
106144
106149
106153
106158
106163
106170
106178
106185
106188
106187
106184
106181
106177
106174
106170
106163
106152
106140
106129
106121
106114
106110
106108
106108
106110
106111
106112
106071
106071
106073
106075
106079
106083
106087
106093
106099
106107
106115
106121
106123
106121
106118
106115
106111
106105
106096
106083
106071
106060
106054
106050
106047
106046
106047
106048
106050
106050
106006
106007
106007
106008
106010
106014
106018
106023
106029
106036
106044
106052
106056
106056
106054
106051
106046
106038
106026
106012
106000
105991
105987
105986
105985
105985
105986
105988
105990
105990
105942
105943
105942
105941
105942
105945
105949
105953
105958
105964
105972
105981
105988
105990
105989
105985
105980
105969
105955
105940
105929
105922
105919
105919
105921
105922
105924
105927
105930
105930
105878
105878
105876
105875
105874
105876
105878
105883
105887
105893
105901
105910
105918
105923
105923
105918
105911
105898
105882
105868
105858
105852
105850
105851
105854
105858
105861
105865
105868
105869
105811
105810
105809
105806
105805
105805
105807
105811
105816
105822
105830
105839
105848
105854
105855
105850
105840
105827
105811
105798
105790
105785
105783
105784
105787
105792
105797
105801
105805
105807
105743
105742
105740
105737
105734
105733
105735
105739
105745
105752
105760
105769
105778
105784
105785
105780
105770
105757
105744
105733
105726
105722
105720
105720
105723
105728
105733
105738
105742
105744
105674
105673
105670
105666
105663
105662
105665
105670
105677
105684
105692
105701
105709
105715
105715
105709
105701
105690
105679
105672
105667
105664
105662
105660
105661
105665
105670
105675
105680
105682
105605
105603
105600
105597
105595
105595
105599
105605
105612
105619
105626
105635
105642
105646
105645
105640
105633
105625
105618
105613
105610
105608
105606
105604
105603
105605
105609
105614
105618
105620
105536
105533
105530
105527
105528
105531
105537
105544
105552
105558
105563
105570
105576
105579
105577
105573
105567
105562
105558
105557
105555
105554
105552
105550
105548
105547
105550
105554
105558
105559
105466
105463
105460
105459
105463
105469
105477
105485
105493
105499
105502
105506
105511
105513
105512
105509
105505
105503
105501
105501
105500
105500
105498
105496
105494
105492
105493
105496
105498
105500
105400
105396
105394
105396
105401
105410
105419
105428
105436
105441
105443
105444
105447
105450
105450
105448
105447
105446
105445
105445
105446
105445
105444
105443
105440
105438
105437
105438
105441
105442
105341
105339
105339
105341
105346
105353
105363
105372
105380
105384
105385
105384
105386
105388
105390
105390
105390
105390
105390
105390
105391
105390
105390
105389
105387
105385
105383
105383
105384
105385
105290
105290
105292
105293
105295
105300
105308
105317
105324
105328
105327
105326
105327
105329
105332
105334
105335
105336
105336
105336
105336
105335
105335
105335
105334
105332
105330
105328
105328
105329
105243
105244
105246
105246
105246
105248
105254
105261
105267
105271
105271
105269
105269
105272
105276
105279
105281
105281
105282
105281
105281
105280
105280
105280
105280
105278
105276
105275
105274
105274
105195
105197
105198
105197
105194
105195
105198
105203
105209
105213
105214
105214
105214
105217
105222
105226
105227
105228
105228
105227
105227
105226
105225
105225
105224
105223
105222
105221
105220
105219
105146
105147
105146
105142
105139
105138
105139
105143
105149
105153
105157
105159
105160
105163
105168
105173
105175
105175
105174
105174
105172
105171
105169
105168
105167
105166
105166
105165
105165
105164
105095
105095
105090
105085
105081
105079
105079
105082
105087
105093
105098
105103
105106
105110
105115
105119
105121
105121
105121
105119
105117
105115
105113
105110
105109
105109
105109
105109
105109
105109
105042
105039
105033
105027
105023
105019
105018
105020
105026
105033
105040
105046
105051
105055
105061
105065
105067
105067
105066
105065
105062
105059
105055
105052
105050
105051
105052
105053
105053
105054
104985
104982
104975
104969
104963
104960
104959
104961
104967
104975
104983
104990
104996
105001
105006
105011
105012
105012
105012
105010
105007
105003
104998
104994
104993
104993
104994
104997
104999
105000
104929
104925
104918
104911
104906
104903
104903
104906
104912
104920
104928
104935
104941
104946
104952
104956
104957
104957
104957
104956
104953
104948
104943
104940
104938
104937
104938
104941
104944
104945
104874
104869
104863
104857
104853
104852
104853
104857
104862
104869
104876
104882
104888
104893
104899
104903
104904
104905
104905
104904
104901
104896
104892
104888
104885
104883
104884
104886
104889
104891
104822
104818
104813
104809
104806
104806
104808
104811
104816
104821
104827
104832
104838
104843
104848
104852
104853
104854
104855
104853
104850
104846
104841
104837
104833
104831
104831
104833
104836
104837
104774
104770
104767
104764
104762
104763
104765
104768
104772
104776
104781
104785
104789
104794
104798
104802
104804
104805
104805
104804
104800
104796
104791
104787
104783
104781
104780
104781
104783
104784
104729
104726
104724
104722
104721
104721
104723
104726
104728
104732
104736
104739
104742
104746
104750
104753
104755
104756
104756
104754
104751
104747
104742
104738
104734
104731
104730
104731
104732
104733
104686
104685
104683
104681
104681
104681
104682
104684
104686
104688
104691
104694
104696
104699
104702
104705
104706
104707
104707
104705
104702
104697
104693
104689
104685
104682
104680
104680
104680
104681
104644
104644
104643
104642
104642
104642
104642
104643
104644
104645
104646
104648
104650
104652
104655
104656
104657
104658
104658
104656
104652
104648
104644
104641
104637
104634
104631
104630
104630
104630
104602
104602
104602
104602
104602
104602
104601
104600
104600
104601
104602
104603
104604
104606
104607
104608
104608
104608
104608
104605
104602
104598
104595
104592
104589
104585
104583
104581
104579
104579
104559
104559
104560
104561
104561
104560
104558
104556
104556
104556
104556
104557
104558
104558
104560
104560
104559
104559
104557
104554
104550
104547
104545
104542
104539
104537
104534
104532
104529
104529
104515
104515
104516
104517
104516
104515
104513
104511
104509
104509
104509
104509
104510
104510
104511
104510
104509
104508
104506
104502
104498
104495
104492
104490
104488
104487
104485
104483
104480
104479
104469
104470
104471
104470
104469
104467
104464
104463
104462
104461
104461
104461
104461
104461
104461
104459
104458
104456
104453
104449
104445
104441
104438
104436
104434
104434
104434
104432
104430
104429
104422
104422
104422
104421
104418
104416
104414
104413
104413
104412
104412
104412
104412
104411
104410
104408
104405
104403
104399
104395
104391
104386
104382
104379
104378
104378
104380
104380
104379
104378
104374
104374
104372
104369
104366
104365
104364
104364
104364
104363
104362
104361
104361
104360
104358
104356
104352
104349
104345
104340
104336
104331
104326
104322
104319
104320
104322
104324
104325
104325
104324
104323
104319
104316
104315
104315
104315
104315
104314
104312
104311
104310
104309
104308
104306
104302
104298
104294
104290
104285
104280
104274
104269
104263
104260
104260
104263
104265
104268
104269
104272
104270
104266
104265
104265
104266
104266
104265
104263
104260
104258
104256
104256
104254
104251
104248
104244
104239
104234
104229
104224
104217
104211
104205
104201
104201
104203
104206
104209
104211
104219
104217
104215
104216
104217
104217
104216
104213
104210
104207
104203
104201
104199
104198
104195
104192
104188
104182
104177
104172
104167
104160
104154
104148
104143
104142
104143
104146
104149
104151
104167
104166
104167
104169
104169
104168
104165
104160
104155
104151
104147
104144
104142
104140
104137
104134
104130
104124
104119
104115
104109
104104
104098
104092
104087
104084
104084
104086
104089
104091
104116
104117
104120
104122
104120
104116
104111
104104
104099
104094
104090
104087
104084
104081
104078
104075
104070
104065
104060
104056
104051
104047
104042
104038
104033
104029
104028
104028
104030
104032
104065
104068
104072
104072
104067
104061
104054
104047
104041
104036
104032
104028
104025
104022
104018
104014
104009
104004
104000
103996
103993
103989
103986
103983
103980
103976
103973
103972
103973
103973
104015
104017
104018
104015
104009
104001
103994
103987
103981
103976
103972
103969
103965
103961
103957
103953
103948
103943
103939
103936
103933
103930
103928
103926
103925
103923
103920
103917
103916
103917
103961
103962
103959
103954
103947
103940
103932
103926
103920
103916
103912
103908
103904
103900
103896
103891
103885
103881
103877
103874
103871
103869
103867
103867
103867
103867
103866
103863
103861
103861
103902
103900
103896
103890
103883
103876
103868
103862
103857
103854
103850
103846
103842
103837
103833
103827
103822
103817
103814
103810
103808
103806
103805
103805
103806
103808
103809
103808
103806
103806
103837
103834
103829
103822
103815
103809
103802
103797
103794
103790
103787
103783
103778
103774
103769
103763
103757
103753
103750
103746
103743
103742
103741
103742
103744
103747
103749
103750
103749
103749
103769
103765
103759
103752
103746
103740
103735
103731
103728
103725
103722
103718
103713
103709
103704
103698
103693
103688
103685
103682
103679
103677
103676
103678
103680
103684
103687
103689
103690
103690
103698
103694
103689
103682
103677
103671
103667
103665
103662
103659
103655
103651
103647
103643
103638
103633
103627
103623
103620
103617
103614
103612
103611
103613
103615
103619
103623
103626
103627
103628
103627
103624
103619
103614
103608
103604
103600
103598
103595
103591
103587
103584
103580
103576
103572
103567
103562
103559
103555
103552
103549
103547
103546
103547
103549
103553
103558
103561
103563
103564
103558
103556
103552
103547
103541
103536
103533
103531
103528
103524
103520
103517
103513
103510
103506
103502
103498
103495
103491
103487
103484
103482
103481
103481
103483
103487
103491
103495
103497
103498
103492
103489
103486
103480
103474
103470
103467
103464
103461
103458
103454
103451
103448
103445
103442
103438
103435
103432
103428
103424
103420
103417
103416
103415
103417
103420
103423
103427
103429
103430
103426
103424
103420
103414
103408
103404
103400
103397
103395
103392
103389
103387
103384
103382
103379
103376
103373
103370
103366
103361
103357
103353
103350
103349
103351
103353
103356
103359
103362
103363
103362
103359
103354
103349
103343
103337
103333
103330
103328
103327
103325
103324
103321
103319
103316
103314
103311
103308
103304
103299
103293
103288
103284
103283
103284
103287
103290
103293
103295
103296
103297
103294
103290
103284
103277
103271
103266
103263
103262
103262
103262
103260
103259
103257
103254
103251
103248
103244
103240
103234
103228
103222
103218
103217
103219
103221
103225
103228
103230
103231
103232
103229
103225
103219
103211
103205
103200
103198
103198
103198
103198
103198
103196
103194
103191
103188
103184
103180
103176
103169
103162
103157
103154
103154
103156
103158
103162
103165
103167
103168
103168
103165
103160
103154
103147
103142
103138
103136
103136
103136
103136
103135
103133
103131
103127
103123
103119
103114
103109
103104
103098
103094
103092
103093
103095
103098
103102
103104
103106
103107
103105
103101
103096
103090
103085
103081
103079
103077
103076
103075
103074
103072
103070
103067
103063
103059
103054
103049
103043
103039
103035
103033
103032
103033
103036
103039
103043
103045
103046
103047
103042
103039
103034
103029
103026
103023
103021
103019
103018
103016
103013
103010
103007
103003
102999
102994
102989
102983
102979
102976
102974
102973
102973
102974
102977
102980
102984
102986
102987
102987
102980
102978
102974
102971
102969
102967
102965
102963
102960
102956
102952
102948
102944
102939
102935
102929
102923
102918
102915
102914
102913
102913
102914
102915
102918
102921
102924
102926
102927
102928
102921
102919
102917
102914
102913
102911
102909
102905
102901
102896
102890
102885
102880
102875
102870
102864
102858
102854
102852
102852
102852
102853
102854
102856
102858
102860
102863
102865
102866
102867
102863
102862
102861
102859
102857
102855
102851
102846
102841
102834
102827
102821
102816
102811
102805
102799
102794
102791
102790
102790
102791
102792
102794
102795
102797
102799
102801
102803
102805
102806
102805
102805
102804
102803
102800
102796
102791
102785
102778
102771
102763
102757
102751
102746
102740
102734
102730
102728
102727
102728
102729
102731
102732
102734
102735
102737
102739
102741
102743
102744
102745
102747
102746
102743
102739
102734
102727
102720
102713
102706
102698
102692
102686
102680
102674
102669
102666
102665
102665
102666
102667
102669
102671
102672
102673
102675
102676
102679
102680
102682
102684
102685
102683
102679
102674
102668
102661
102654
102647
102640
102633
102626
102620
102615
102609
102605
102603
102602
102602
102603
102605
102607
102609
102611
102612
102613
102615
102617
102618
102619
102620
102619
102616
102612
102606
102600
102593
102587
102580
102574
102567
102561
102555
102550
102545
102541
102540
102539
102539
102540
102542
102545
102547
102550
102552
102553
102554
102556
102557
102557
102554
102552
102548
102543
102537
102531
102525
102519
102514
102508
102502
102497
102491
102486
102482
102479
102477
102477
102477
102478
102480
102482
102486
102489
102491
102493
102494
102495
102496
102496
102488
102485
102480
102474
102468
102462
102458
102453
102449
102444
102439
102434
102429
102424
102420
102418
102416
102415
102415
102416
102417
102420
102423
102426
102429
102431
102433
102434
102435
102436
102421
102418
102413
102406
102401
102397
102394
102391
102387
102383
102378
102373
102368
102363
102360
102357
102355
102354
102353
102354
102355
102358
102361
102363
102366
102369
102371
102373
102375
102375
102356
102353
102348
102343
102339
102336
102334
102331
102328
102324
102319
102314
102309
102304
102301
102298
102296
102294
102293
102292
102293
102295
102297
102300
102303
102306
102309
102312
102313
102314
102294
102290
102287
102284
102282
102279
102277
102275
102272
102268
102262
102256
102250
102246
102242
102239
102236
102234
102232
102231
102231
102232
102234
102236
102240
102243
102247
102249
102251
102253
102234
102232
102231
102230
102228
102225
102223
102220
102217
102213
102207
102200
102193
102188
102184
102181
102177
102174
102172
102170
102169
102170
102171
102173
102176
102180
102184
102186
102189
102190
102179
102178
102178
102178
102176
102174
102171
102168
102164
102159
102152
102144
102137
102131
102127
102123
102119
102115
102113
102111
102110
102109
102110
102111
102114
102117
102120
102123
102126
102127
102127
102127
102128
102127
102126
102123
102120
102116
102111
102105
102098
102089
102081
102075
102070
102065
102061
102058
102056
102054
102053
102053
102052
102053
102053
102055
102058
102061
102063
102065
102077
102078
102078
102077
102076
102073
102068
102064
102058
102052
102043
102034
102026
102020
102014
102009
102005
102003
102002
102001
102000
102000
101999
101998
101997
101997
101998
102001
102003
102005
102028
102028
102029
102028
102025
102021
102017
102011
102005
101997
101988
101980
101972
101965
101959
101954
101952
101950
101950
101950
101949
101949
101948
101946
101945
101944
101944
101945
101946
101948
101977
101978
101978
101977
101973
101969
101963
101957
101950
101942
101933
101924
101917
101910
101904
101900
101899
101898
101899
101899
101899
101898
101898
101897
101895
101894
101893
101892
101892
101892
101924
101925
101924
101922
101918
101913
101907
101901
101894
101886
101877
101869
101861
101855
101850
101847
101847
101847
101848
101849
101849
101849
101848
101848
101847
101846
101844
101842
101840
101839
101868
101868
101865
101863
101859
101855
101850
101844
101837
101829
101821
101813
101807
101801
101797
101796
101796
101797
101798
101799
101799
101800
101800
101800
101799
101797
101795
101793
101790
101788
101808
101806
101804
101801
101798
101795
101792
101787
101781
101773
101765
101758
101753
101749
101747
101746
101746
101747
101748
101750
101751
101752
101752
101751
101750
101749
101747
101744
101742
101740
101747
101745
101742
101740
101739
101737
101735
101730
101723
101715
101708
101703
101700
101697
101696
101696
101697
101698
101700
101701
101702
101702
101702
101702
101701
101700
101698
101696
101694
101693
101689
101686
101684
101683
101682
101681
101678
101673
101666
101659
101654
101650
101648
101647
101647
101648
101649
101650
101651
101651
101652
101652
101652
101652
101651
101650
101649
101648
101647
101646
101634
101632
101631
101630
101629
101627
101624
101618
101612
101607
101603
101600
101599
101598
101599
101600
101601
101601
101602
101602
101603
101603
101602
101602
101601
101600
101599
101599
101599
101599
101583
101582
101582
101581
101579
101576
101571
101566
101561
101557
101554
101552
101551
101551
101551
101552
101552
101553
101554
101554
101554
101554
101553
101553
101552
101551
101550
101550
101550
101551
101534
101534
101534
101532
101529
101525
101520
101515
101510
101508
101506
101504
101503
101503
101504
101504
101505
101506
101506
101507
101507
101507
101506
101505
101504
101503
101502
101501
101501
101502
101485
101486
101486
101483
101479
101475
101470
101465
101461
101459
101458
101457
101457
101457
101457
101458
101458
101459
101460
101461
101461
101461
101461
101459
101458
101457
101455
101454
101454
101455
101436
101437
101435
101433
101429
101424
101420
101416
101413
101412
101411
101410
101410
101411
101411
101412
101412
101413
101414
101415
101416
101416
101416
101415
101414
101412
101411
101409
101408
101408
101386
101385
101384
101382
101379
101375
101371
101368
101365
101364
101364
101364
101364
101365
101366
101366
101367
101368
101369
101370
101371
101371
101371
101370
101369
101368
101366
101365
101364
101363
101335
101335
101333
101332
101329
101326
101323
101320
101318
101318
101317
101318
101319
101320
101321
101321
101322
101323
101324
101325
101326
101326
101326
101326
101325
101324
101323
101321
101320
101320
101286
101285
101284
101283
101281
101278
101276
101273
101272
101271
101272
101273
101274
101276
101277
101277
101278
101279
101280
101281
101281
101281
101281
101281
101281
101281
101280
101279
101278
101277
101237
101236
101236
101235
101234
101232
101230
101228
101227
101227
101228
101230
101231
101232
101233
101234
101235
101236
101236
101237
101237
101237
101237
101238
101238
101238
101238
101237
101236
101236
101189
101188
101188
101188
101188
101187
101185
101184
101184
101185
101187
101188
101190
101191
101191
101192
101192
101193
101193
101193
101194
101194
101194
101195
101196
101196
101196
101196
101196
101196
101143
101141
101142
101142
101143
101143
101143
101143
101144
101145
101147
101148
101149
101149
101150
101150
101150
101150
101150
101150
101151
101151
101152
101153
101154
101155
101156
101157
101157
101158
101098
101097
101097
101098
101099
101101
101102
101104
101105
101107
101107
101108
101109
101109
101109
101109
101109
101109
101109
101109
101109
101109
101110
101111
101113
101115
101117
101118
101119
101120
101057
101055
101056
101056
101058
101061
101064
101066
101067
101068
101068
101068
101069
101069
101069
101069
101069
101068
101068
101068
101068
101068
101069
101071
101073
101075
101078
101080
101081
101082
101017
101016
101016
101017
101019
101023
101026
101029
101030
101030
101029
101029
101029
101029
101030
101030
101030
101029
101028
101027
101027
101027
101028
101030
101033
101036
101039
101042
101044
101045
100980
100979
100979
100980
100983
100986
100990
100992
100993
100992
100991
100990
100990
100991
100991
100991
100991
100990
100989
100988
100987
100988
100989
100991
100993
100997
101000
101004
101007
101008
100944
100944
100944
100945
100948
100951
100955
100957
100956
100954
100953
100952
100952
100953
100953
100953
100953
100952
100951
100950
100949
100949
100951
100953
100955
100959
100963
100967
100970
100972
100909
100909
100910
100911
100914
100917
100920
100921
100919
100917
100915
100915
100915
100916
100916
100917
100916
100916
100915
100913
100913
100913
100914
100916
100919
100922
100926
100930
100934
100935
100876
100875
100876
100878
100881
100883
100885
100885
100883
100881
100879
100879
100879
100880
100881
100882
100881
100881
100880
100879
100879
100879
100880
100881
100884
100887
100890
100894
100898
100900
100843
100843
100844
100846
100848
100850
100850
100849
100847
100844
100843
100843
100844
100846
100847
100848
100848
100848
100847
100847
100847
100847
100848
100848
100850
100853
100856
100860
100863
100865
100812
100812
100813
100814
100815
100816
100815
100813
100810
100809
100808
100810
100811
100813
100815
100816
100816
100816
100816
100817
100817
100817
100817
100817
100818
100820
100823
100826
100829
100831
100781
100781
100782
100782
100782
100780
100778
100776
100774
100774
100776
100778
100780
100782
100783
100784
100785
100786
100786
100787
100787
100788
100788
100788
100788
100789
100791
100794
100797
100799
100750
100750
100750
100749
100746
100742
100740
100739
100740
100742
100744
100747
100749
100751
100753
100754
100755
100756
100756
100757
100758
100759
100759
100759
100759
100759
100761
100764
100767
100768
100717
100717
100715
100712
100708
100704
100703
100705
100707
100710
100714
100717
100719
100721
100722
100724
100725
100726
100727
100728
100729
100730
100731
100731
100731
100731
100732
100734
100737
100738
100683
100682
100679
100674
100671
100669
100670
100672
100675
100679
100683
100687
100690
100691
100693
100694
100696
100697
100698
100700
100701
100702
100703
100703
100703
100703
100704
100706
100708
100710
100649
100648
100643
100640
100637
100637
100638
100641
100644
100648
100653
100657
100660
100663
100664
100666
100667
100669
100671
100672
100673
100674
100675
100676
100676
100676
100677
100678
100680
100682
100616
100615
100611
100608
100607
100607
100609
100612
100615
100619
100623
100628
100632
100635
100637
100638
100640
100642
100644
100645
100647
100648
100648
100649
100650
100650
100651
100652
100654
100654
100586
100586
100582
100579
100579
100579
100581
100583
100587
100591
100595
100599
100603
100607
100610
100612
100614
100616
100618
100620
100621
100622
100623
100623
100624
100625
100625
100626
100628
100628
100559
100559
100556
100553
100553
100554
100555
100558
100561
100565
100568
100572
100576
100580
100584
100586
100589
100591
100593
100595
100596
100597
100598
100599
100599
100600
100601
100602
100603
100603
100534
100534
100532
100530
100529
100531
100532
100535
100537
100541
100543
100546
100550
100554
100558
100561
100564
100566
100568
100570
100572
100573
100574
100575
100576
100576
100577
100578
100579
100579
100511
100511
100510
100508
100508
100509
100511
100513
100516
100518
100521
100523
100526
100529
100533
100537
100540
100542
100545
100546
100548
100549
100550
100551
100552
100553
100554
100555
100556
100556
100488
100489
100488
100488
100488
100489
100491
100494
100496
100498
100499
100501
100503
100506
100509
100513
100516
100519
100521
100523
100524
100526
100527
100528
100530
100530
100531
100532
100533
100533
100467
100467
100468
100468
100469
100470
100472
100474
100476
100478
100479
100480
100481
100483
100486
100489
100493
100496
100498
100500
100502
100503
100505
100506
100507
100508
100509
100509
100510
100510
100446
100446
100447
100448
100450
100451
100453
100456
100457
100459
100460
100461
100461
100462
100464
100466
100470
100474
100476
100478
100480
100482
100483
100485
100485
100486
100487
100488
100488
100488
100426
100427
100428
100429
100431
100433
100435
100437
100439
100440
100441
100442
100442
100442
100443
100445
100448
100452
100455
100457
100459
100461
100463
100464
100464
100465
100466
100467
100467
100467
100407
100408
100409
100411
100413
100415
100417
100419
100420
100422
100423
100423
100423
100423
100423
100424
100427
100430
100433
100436
100438
100441
100442
100444
100444
100445
100445
100446
100447
100447
100390
100390
100392
100393
100395
100397
100399
100400
100402
100403
100404
100405
100405
100404
100404
100405
100406
100409
100413
100416
100418
100421