/*--------------------------------*- C++ -*----------------------------------*\
| =========                 |                                                 |
| \\      /  F ield         | OpenFOAM: The Open Source CFD Toolbox           |
|  \\    /   O peration     | Version:  v1606+                                |
|   \\  /    A nd           | Web:      www.OpenFOAM.com                      |
|    \\/     M anipulation  |                                                 |
\*---------------------------------------------------------------------------*/
FoamFile
{
    version     2.0;
    format      ascii;
    class       volVectorField;
    location    "1.78";
    object      U.particles;
}
// * * * * * * * * * * * * * * * * * * * * * * * * * * * * * * * * * * * * * //

dimensions      [0 1 -1 0 0 0 0];

internalField   nonuniform List<vector> 
6000
(
(0.00330675 -0.352146 0)
(0.00714019 -0.440962 0)
(-0.00042925 -0.443448 0)
(-0.00566076 -0.442866 0)
(-0.0146698 -0.405309 0)
(-0.0241183 -0.347868 0)
(-0.0162121 -0.328145 0)
(-0.00183268 -0.362286 0)
(0.00308376 -0.421406 0)
(-0.000410737 -0.457694 0)
(-0.0110484 -0.464586 0)
(-0.0192658 -0.457608 0)
(-0.00688507 -0.440273 0)
(0.0137531 -0.48076 0)
(0.0273283 -0.504885 0)
(0.0334949 -0.50072 0)
(0.0335666 -0.486001 0)
(0.0328068 -0.460354 0)
(0.0288851 -0.418745 0)
(0.0328405 -0.358411 0)
(0.043938 -0.322213 0)
(0.0512296 -0.30622 0)
(0.0605226 -0.285322 0)
(0.0668532 -0.284206 0)
(0.0671448 -0.293694 0)
(0.0560238 -0.304592 0)
(0.0341826 -0.324798 0)
(0.0222134 -0.384919 0)
(0.0212614 -0.431731 0)
(0.0124758 -0.363916 0)
(0.0300834 0.0887483 0)
(0.000815871 0.108884 0)
(-0.0107975 0.107762 0)
(-0.0088366 0.124981 0)
(-0.00777137 0.124955 0)
(-0.00611869 0.0823619 0)
(0.00831416 0.0503475 0)
(0.0289744 0.0573813 0)
(0.0581983 0.100678 0)
(0.0534239 0.140868 0)
(0.0200709 0.142414 0)
(-0.0111531 0.155323 0)
(-0.00417564 0.116751 0)
(0.0101463 0.0961188 0)
(0.0237105 0.0762902 0)
(0.0210385 0.0881337 0)
(-0.00524631 0.114599 0)
(-0.023313 0.143271 0)
(-0.0248257 0.143681 0)
(-0.00500668 0.122859 0)
(0.0152641 0.124706 0)
(0.0285898 0.128922 0)
(0.0435145 0.135542 0)
(0.0564222 0.152324 0)
(0.0701375 0.177278 0)
(0.0576362 0.172298 0)
(0.0301776 0.146952 0)
(-0.00746247 0.160444 0)
(-0.0184469 0.152327 0)
(-0.0332959 0.100193 0)
(-0.0157739 0.0130573 0)
(-0.022598 0.0536997 0)
(-0.0230024 0.0204234 0)
(-0.00977883 -0.00573546 0)
(0.0109866 -0.0167786 0)
(0.0241917 -0.0331667 0)
(0.0344264 -0.0690597 0)
(0.0443453 -0.0893534 0)
(0.0659544 -0.0745744 0)
(0.0771288 -0.024123 0)
(0.0451693 0.0350754 0)
(0.0201519 0.0258286 0)
(0.00785637 -0.0181618 0)
(0.00809009 -0.0235792 0)
(0.0050147 0.000756845 0)
(-0.00365698 0.0423021 0)
(-0.0257096 0.0578745 0)
(-0.0410768 0.026781 0)
(-0.0341434 -0.0100567 0)
(-0.0210788 -0.0176318 0)
(-0.0249813 -0.0196272 0)
(-0.0261097 -0.0365535 0)
(-0.0219048 -0.0458812 0)
(-0.00671801 -0.0379558 0)
(-0.000860197 -0.00544374 0)
(0.00500406 0.0830681 0)
(-0.021342 0.106013 0)
(-0.039579 0.0726812 0)
(-0.0175248 0.0574397 0)
(0.00151649 0.0227704 0)
(-0.00760387 0.0358697 0)
(0.00388115 0.0613875 0)
(0.0197448 0.0545329 0)
(0.0315494 0.0451994 0)
(0.0392675 0.02777 0)
(0.0575294 -0.0201224 0)
(0.0867918 -0.087391 0)
(0.103883 -0.123576 0)
(0.109564 -0.112765 0)
(0.114476 -0.0529645 0)
(0.100921 0.0348481 0)
(0.06163 0.0672509 0)
(0.0303097 0.0489064 0)
(0.0166187 0.0390349 0)
(-0.00648664 0.0495423 0)
(-0.0116067 0.0773124 0)
(-0.0267902 0.0987312 0)
(-0.0543539 0.0728141 0)
(-0.0763168 0.0171563 0)
(-0.116962 -0.0233748 0)
(-0.162837 -0.077121 0)
(-0.182342 -0.157144 0)
(-0.186313 -0.199801 0)
(-0.161981 -0.216336 0)
(-0.129922 -0.192568 0)
(-0.0670187 -0.117471 0)
(-0.0305274 -0.048489 0)
(-0.0167506 -0.0486405 0)
(-0.00114724 -0.0367955 0)
(-0.00175073 -0.0315526 0)
(0.00309708 -0.0302305 0)
(0.025851 -0.0264893 0)
(0.040872 -0.0511708 0)
(0.0611371 -0.100648 0)
(0.0702395 -0.130568 0)
(0.100352 -0.162897 0)
(0.133446 -0.191707 0)
(0.159969 -0.20044 0)
(0.166261 -0.187099 0)
(0.157262 -0.14368 0)
(0.162652 -0.0471487 0)
(0.140487 0.0210011 0)
(0.0701836 0.0497466 0)
(0.0509195 0.0581426 0)
(0.0362437 0.0721526 0)
(0.00263947 0.0988531 0)
(-0.0237848 0.111027 0)
(-0.0625607 0.0464539 0)
(-0.124602 -0.0685946 0)
(-0.20886 -0.139167 0)
(-0.246608 -0.216062 0)
(-0.25908 -0.279683 0)
(-0.251019 -0.314661 0)
(-0.21176 -0.338424 0)
(-0.167755 -0.341454 0)
(-0.107164 -0.319992 0)
(-0.0292146 -0.266933 0)
(0.0135618 -0.242499 0)
(0.0169572 -0.227176 0)
(0.00209393 -0.221273 0)
(0.00677773 -0.124972 0)
(0.0141473 -0.136336 0)
(0.029641 -0.165931 0)
(0.0526758 -0.19389 0)
(0.0757278 -0.2029 0)
(0.110537 -0.218467 0)
(0.146369 -0.223534 0)
(0.176301 -0.220918 0)
(0.195401 -0.202556 0)
(0.194398 -0.163687 0)
(0.202447 -0.0950853 0)
(0.216567 -0.0141587 0)
(0.114396 0.0484203 0)
(0.0683296 0.0723131 0)
(0.0575282 0.0889059 0)
(0.0343495 0.102777 0)
(-0.00542124 0.0960832 0)
(-0.115009 -0.0202089 0)
(-0.222561 -0.133554 0)
(-0.288914 -0.181626 0)
(-0.293882 -0.244872 0)
(-0.289839 -0.284916 0)
(-0.268892 -0.318797 0)
(-0.224532 -0.348346 0)
(-0.175971 -0.36295 0)
(-0.127675 -0.355461 0)
(-0.0730032 -0.321129 0)
(-0.00895065 -0.278049 0)
(0.0171493 -0.287817 0)
(0.00829935 -0.286947 0)
(0.00267978 -0.173178 0)
(0.00920765 -0.180082 0)
(0.0327589 -0.193418 0)
(0.0527922 -0.197125 0)
(0.088801 -0.207067 0)
(0.111804 -0.225402 0)
(0.143506 -0.226991 0)
(0.173845 -0.218352 0)
(0.197537 -0.195228 0)
(0.207588 -0.150505 0)
(0.21964 -0.101483 0)
(0.258033 -0.0296922 0)
(0.156015 0.0453177 0)
(0.0851884 0.0759082 0)
(0.0760798 0.0997026 0)
(0.0556604 0.112272 0)
(0.00647087 0.0951302 0)
(-0.143351 -0.0253016 0)
(-0.230025 -0.101735 0)
(-0.277333 -0.130773 0)
(-0.27331 -0.1729 0)
(-0.248508 -0.210936 0)
(-0.238266 -0.253202 0)
(-0.206463 -0.292958 0)
(-0.172862 -0.325515 0)
(-0.136226 -0.33504 0)
(-0.0893448 -0.3161 0)
(-0.037741 -0.231719 0)
(0.00282175 -0.207125 0)
(0.00892472 -0.220462 0)
(0.00449992 -0.122423 0)
(0.0298757 -0.125789 0)
(0.038733 -0.128149 0)
(0.054391 -0.145327 0)
(0.0750814 -0.169408 0)
(0.0883059 -0.175935 0)
(0.104032 -0.173478 0)
(0.124911 -0.164314 0)
(0.161631 -0.140566 0)
(0.18184 -0.112453 0)
(0.211535 -0.0661357 0)
(0.256334 -0.0137124 0)
(0.24959 0.0392608 0)
(0.132775 0.0844399 0)
(0.0920014 0.120797 0)
(0.0767222 0.12545 0)
(0.00916238 0.103645 0)
(-0.156313 0.0169651 0)
(-0.2052 -0.0275886 0)
(-0.250364 -0.0554459 0)
(-0.241699 -0.0987249 0)
(-0.210936 -0.131756 0)
(-0.196623 -0.165725 0)
(-0.168555 -0.215608 0)
(-0.146059 -0.257587 0)
(-0.116086 -0.271479 0)
(-0.0869189 -0.269395 0)
(-0.0629775 -0.185529 0)
(-0.0313773 -0.110388 0)
(-0.00503647 -0.118232 0)
(0.0165011 -0.0477511 0)
(0.0342592 -0.0293438 0)
(0.0399023 -0.0514953 0)
(0.0467621 -0.0905402 0)
(0.0330921 -0.112506 0)
(0.0408026 -0.115435 0)
(0.0604279 -0.118193 0)
(0.0898801 -0.120881 0)
(0.132393 -0.104526 0)
(0.148863 -0.0679206 0)
(0.1883 -0.028887 0)
(0.236971 0.0158362 0)
(0.269356 0.0676925 0)
(0.183023 0.117519 0)
(0.110461 0.141347 0)
(0.0970612 0.144816 0)
(0.00334805 0.131733 0)
(-0.177176 0.0755296 0)
(-0.19772 0.0402363 0)
(-0.207631 0.0111281 0)
(-0.196085 -0.027225 0)
(-0.164925 -0.0711549 0)
(-0.145544 -0.110334 0)
(-0.114128 -0.15489 0)
(-0.083412 -0.190255 0)
(-0.0696811 -0.205373 0)
(-0.0611412 -0.204542 0)
(-0.0781046 -0.136979 0)
(-0.0758916 -0.0321865 0)
(-0.019072 -0.0233562 0)
(0.0174946 0.00776806 0)
(0.0386838 0.0564949 0)
(0.0243301 -0.0159961 0)
(0.0154073 -0.0334499 0)
(-0.00338628 -0.0466554 0)
(-0.00708174 -0.0621811 0)
(0.004182 -0.0767236 0)
(0.0373602 -0.0861281 0)
(0.0787466 -0.0587776 0)
(0.123851 -0.0343179 0)
(0.14877 0.00819501 0)
(0.208673 0.0545083 0)
(0.259006 0.0967413 0)
(0.193732 0.145651 0)
(0.130927 0.161844 0)
(0.116513 0.168013 0)
(0.0182851 0.173442 0)
(-0.188793 0.139385 0)
(-0.190644 0.101757 0)
(-0.170761 0.0731723 0)
(-0.141159 0.0393338 0)
(-0.101509 0.000422904 0)
(-0.0833844 -0.0450507 0)
(-0.0637054 -0.10934 0)
(-0.0407248 -0.15301 0)
(-0.0258517 -0.157874 0)
(-0.0298795 -0.141612 0)
(-0.0429634 -0.089551 0)
(-0.0954844 0.0196895 0)
(-0.0287168 0.0303983 0)
(0.0135331 -0.0412306 0)
(0.0161543 0.0197417 0)
(-0.00577545 -0.0072848 0)
(-0.0152097 -0.0177556 0)
(-0.025655 -0.0239025 0)
(-0.0291071 -0.0335328 0)
(-0.0282293 -0.0475676 0)
(-0.0117545 -0.0706203 0)
(0.0320335 -0.0564928 0)
(0.0879744 0.00666572 0)
(0.104124 0.0484473 0)
(0.176174 0.0861305 0)
(0.240112 0.11075 0)
(0.211919 0.163265 0)
(0.15832 0.179043 0)
(0.124135 0.193725 0)
(-0.0292073 0.217002 0)
(-0.184007 0.18629 0)
(-0.171786 0.145244 0)
(-0.103492 0.1203 0)
(-0.0496879 0.106538 0)
(-0.0283716 0.0656974 0)
(-0.0216784 0.0115181 0)
(-0.0152309 -0.083934 0)
(0.000717268 -0.129947 0)
(0.00380982 -0.135124 0)
(-0.00724262 -0.117156 0)
(-0.0284069 -0.0716556 0)
(-0.0653584 0.0126824 0)
(-0.022726 0.0357503 0)
(0.00341888 -0.24077 0)
(0.00936981 -0.197898 0)
(-0.0199732 -0.0543644 0)
(-0.0333609 -0.0249117 0)
(-0.0444767 -0.0269748 0)
(-0.0408607 -0.0391397 0)
(-0.0387116 -0.0504066 0)
(-0.0258843 -0.0682947 0)
(0.00693109 -0.0716431 0)
(0.0445589 0.00683735 0)
(0.0854623 0.0625835 0)
(0.152454 0.0848512 0)
(0.231728 0.113366 0)
(0.256209 0.14723 0)
(0.215717 0.187795 0)
(0.107967 0.235619 0)
(-0.0732304 0.259747 0)
(-0.140574 0.22716 0)
(-0.10911 0.177937 0)
(-0.0701314 0.146698 0)
(-0.015656 0.142089 0)
(0.0348674 0.109401 0)
(0.020181 0.0307568 0)
(0.0338047 -0.0773781 0)
(0.0368526 -0.132566 0)
(0.0357419 -0.137615 0)
(0.0202181 -0.121406 0)
(-0.0336341 -0.11033 0)
(-0.0920598 -0.0956306 0)
(-0.00129133 -0.078982 0)
(-0.00261177 -0.365548 0)
(0.0190333 -0.354206 0)
(0.0253404 -0.347238 0)
(0.0026481 -0.221224 0)
(-0.0177199 -0.108411 0)
(-0.0262302 -0.0611794 0)
(-0.0306465 -0.0625399 0)
(-0.0135409 -0.0827033 0)
(0.0116109 -0.0897202 0)
(0.0391592 -0.0485543 0)
(0.104452 0.0218928 0)
(0.144094 0.0659845 0)
(0.231145 0.103383 0)
(0.262808 0.132505 0)
(0.238411 0.181416 0)
(0.133387 0.274708 0)
(-0.0244096 0.312095 0)
(-0.0819509 0.266628 0)
(-0.113675 0.18894 0)
(-0.0945291 0.157778 0)
(-0.0404243 0.142958 0)
(0.0289574 0.124437 0)
(0.0336582 0.0472332 0)
(0.0690418 -0.104939 0)
(0.0511866 -0.156549 0)
(0.0505555 -0.147487 0)
(0.0236975 -0.173217 0)
(-0.0603515 -0.261955 0)
(-0.0560147 -0.224899 0)
(0.0184298 -0.217433 0)
(-0.00571424 -0.386642 0)
(0.0252182 -0.374277 0)
(0.0412353 -0.390598 0)
(0.0648991 -0.394723 0)
(0.0821932 -0.368841 0)
(0.057622 -0.246867 0)
(0.025971 -0.140324 0)
(0.0267252 -0.118647 0)
(0.0329167 -0.130756 0)
(0.0705185 -0.100196 0)
(0.124521 -0.0321923 0)
(0.167086 0.0262622 0)
(0.215582 0.0675637 0)
(0.27424 0.120601 0)
(0.250637 0.191104 0)
(0.155388 0.330308 0)
(0.023228 0.378259 0)
(-0.081331 0.293235 0)
(-0.158444 0.205353 0)
(-0.127178 0.170044 0)
(-0.111848 0.131262 0)
(-0.0450443 0.107509 0)
(-0.00241136 0.0299927 0)
(0.00181763 -0.143619 0)
(0.000934787 -0.217333 0)
(-0.0293938 -0.232163 0)
(-0.0936032 -0.302535 0)
(-0.0716299 -0.284061 0)
(-0.0426881 -0.267154 0)
(0.0233376 -0.270367 0)
(-0.00700039 -0.361019 0)
(0.0248808 -0.349087 0)
(0.0341355 -0.365964 0)
(0.0630412 -0.376695 0)
(0.095739 -0.379833 0)
(0.126582 -0.369486 0)
(0.142897 -0.347051 0)
(0.145051 -0.258051 0)
(0.111227 -0.230973 0)
(0.116125 -0.151287 0)
(0.153595 -0.0808195 0)
(0.206796 -0.0231523 0)
(0.219588 0.0398406 0)
(0.290492 0.105485 0)
(0.288447 0.196749 0)
(0.204346 0.372122 0)
(0.0758759 0.459394 0)
(-0.104633 0.337135 0)
(-0.18132 0.233836 0)
(-0.145153 0.171914 0)
(-0.14816 0.130782 0)
(-0.113694 0.0932538 0)
(-0.0598797 0.00999322 0)
(-0.053606 -0.181978 0)
(-0.102213 -0.291038 0)
(-0.132796 -0.307647 0)
(-0.0972969 -0.278072 0)
(-0.0680235 -0.271939 0)
(-0.0416586 -0.2605 0)
(0.0249054 -0.25491 0)
(-0.00966357 -0.320817 0)
(0.0181803 -0.299152 0)
(0.0275322 -0.326227 0)
(0.0617405 -0.343601 0)
(0.0918892 -0.346947 0)
(0.129537 -0.343221 0)
(0.154766 -0.325839 0)
(0.199908 -0.30571 0)
(0.178096 -0.268167 0)
(0.164202 -0.17015 0)
(0.192579 -0.103692 0)
(0.236507 -0.0497883 0)
(0.252172 0.020191 0)
(0.297151 0.09194 0)
(0.334261 0.200552 0)
(0.258837 0.400162 0)
(0.130279 0.537665 0)
(-0.0768974 0.398157 0)
(-0.175192 0.266493 0)
(-0.160688 0.174451 0)
(-0.173007 0.132615 0)
(-0.170354 0.0863955 0)
(-0.117187 0.0243987 0)
(-0.0809932 -0.0991824 0)
(-0.114156 -0.238161 0)
(-0.149554 -0.272415 0)
(-0.0948397 -0.245663 0)
(-0.0699008 -0.240607 0)
(-0.0337869 -0.218727 0)
(0.0303223 -0.219806 0)
(-0.0119188 -0.284182 0)
(0.0257473 -0.266499 0)
(0.0409513 -0.298974 0)
(0.0669382 -0.318177 0)
(0.0996808 -0.317638 0)
(0.130008 -0.303175 0)
(0.157789 -0.28872 0)
(0.211079 -0.262829 0)
(0.201716 -0.230236 0)
(0.200675 -0.153715 0)
(0.228311 -0.100877 0)
(0.26118 -0.0520025 0)
(0.281173 0.0108173 0)
(0.314523 0.0917937 0)
(0.370703 0.209062 0)
(0.300583 0.430081 0)
(0.161942 0.613004 0)
(-0.0415983 0.486863 0)
(-0.163001 0.313795 0)
(-0.184193 0.195584 0)
(-0.193546 0.13164 0)
(-0.197627 0.0832426 0)
(-0.180777 0.0277533 0)
(-0.126499 -0.06316 0)
(-0.0895605 -0.149165 0)
(-0.147112 -0.222332 0)
(-0.0980426 -0.212003 0)
(-0.0605419 -0.203328 0)
(-0.0267826 -0.196792 0)
(0.040301 -0.169434 0)
(-0.0167585 -0.25415 0)
(0.0266861 -0.233076 0)
(0.043983 -0.263173 0)
(0.0720927 -0.28149 0)
(0.0989395 -0.28533 0)
(0.13125 -0.279268 0)
(0.161623 -0.260923 0)
(0.216038 -0.241408 0)
(0.221562 -0.198509 0)
(0.224048 -0.127102 0)
(0.248924 -0.0835046 0)
(0.276161 -0.0424066 0)
(0.301301 0.0123388 0)
(0.33844 0.101532 0)
(0.38826 0.227259 0)
(0.325626 0.455106 0)
(0.16859 0.710297 0)
(-0.0286 0.59764 0)
(-0.16086 0.375691 0)
(-0.22762 0.258334 0)
(-0.222173 0.144952 0)
(-0.218796 0.0803525 0)
(-0.211598 0.0162797 0)
(-0.167765 -0.0428817 0)
(-0.106385 -0.0826563 0)
(-0.114178 -0.153428 0)
(-0.107665 -0.182403 0)
(-0.0451891 -0.167057 0)
(-0.0100372 -0.152362 0)
(0.0432391 -0.109949 0)
(-0.0201371 -0.216807 0)
(0.0327275 -0.202754 0)
(0.0559562 -0.237588 0)
(0.0806819 -0.261094 0)
(0.107053 -0.266003 0)
(0.134684 -0.258068 0)
(0.167234 -0.240084 0)
(0.208989 -0.223273 0)
(0.238993 -0.181944 0)
(0.232058 -0.104431 0)
(0.254936 -0.0659911 0)
(0.277415 -0.0290154 0)
(0.303609 0.0246491 0)
(0.335225 0.11306 0)
(0.36963 0.245834 0)
(0.318275 0.485436 0)
(0.169019 0.839438 0)
(0.0391839 0.767039 0)
(-0.165071 0.426829 0)
(-0.215455 0.290774 0)
(-0.226344 0.172516 0)
(-0.213179 0.0835898 0)
(-0.197936 0.0179394 0)
(-0.176618 -0.0361218 0)
(-0.127139 -0.0692968 0)
(-0.0828924 -0.0868599 0)
(-0.0995388 -0.145048 0)
(-0.0319156 -0.135026 0)
(0.00218055 -0.113416 0)
(0.0275907 -0.0580582 0)
(-0.0276843 -0.183761 0)
(0.0361304 -0.18047 0)
(0.0642492 -0.212343 0)
(0.0884394 -0.238186 0)
(0.11127 -0.247607 0)
(0.136909 -0.243963 0)
(0.168565 -0.229086 0)
(0.200806 -0.206401 0)
(0.245099 -0.172876 0)
(0.232368 -0.0928538 0)
(0.247018 -0.0512522 0)
(0.261241 -0.0148544 0)
(0.273791 0.0398971 0)
(0.283474 0.124884 0)
(0.289679 0.260656 0)
(0.265995 0.538021 0)
(0.170291 0.950888 0)
(0.153229 0.925579 0)
(-0.123612 0.512491 0)
(-0.163573 0.310955 0)
(-0.170607 0.186665 0)
(-0.168303 0.0929112 0)
(-0.161601 0.0242064 0)
(-0.151631 -0.0288119 0)
(-0.135086 -0.066812 0)
(-0.10068 -0.0684837 0)
(-0.0841544 -0.124904 0)
(-0.0280725 -0.118996 0)
(0.00557568 -0.0866786 0)
(0.00686915 -0.0323255 0)
(-0.0425429 -0.138648 0)
(0.0339205 -0.157783 0)
(0.0679315 -0.188565 0)
(0.0939718 -0.217831 0)
(0.114299 -0.23078 0)
(0.137391 -0.230877 0)
(0.164435 -0.220087 0)
(0.195659 -0.198822 0)
(0.23038 -0.174493 0)
(0.233394 -0.0969869 0)
(0.233665 -0.043473 0)
(0.241127 -0.00798045 0)
(0.242468 0.0401174 0)
(0.230478 0.117199 0)
(0.194606 0.238894 0)
(0.144808 0.681015 0)
(0.170444 0.982849 0)
(0.212998 0.962567 0)
(0.0924315 0.729467 0)
(-0.0494907 0.342696 0)
(-0.0898977 0.195679 0)
(-0.116524 0.0960938 0)
(-0.127437 0.0255012 0)
(-0.128746 -0.0248724 0)
(-0.123186 -0.0615051 0)
(-0.109992 -0.0793603 0)
(-0.0803449 -0.113051 0)
(-0.0278934 -0.116751 0)
(-0.00252936 -0.0846221 0)
(0.000792158 -0.0297656 0)
(-0.062706 -0.0895035 0)
(0.0201286 -0.135326 0)
(0.0627698 -0.16601 0)
(0.0947423 -0.198324 0)
(0.114313 -0.217572 0)
(0.136292 -0.224431 0)
(0.160279 -0.217776 0)
(0.187371 -0.199473 0)
(0.212991 -0.170088 0)
(0.241525 -0.124556 0)
(0.224541 -0.0450206 0)
(0.226572 -0.00791361 0)
(0.224309 0.0263404 0)
(0.205575 0.0852298 0)
(0.138656 0.12957 0)
(0.114329 0.64659 0)
(0.175859 0.942091 0)
(0.232194 0.928981 0)
(0.25932 0.777223 0)
(0.227584 0.467332 0)
(-0.0216016 0.173989 0)
(-0.0882341 0.0886389 0)
(-0.109792 0.0172843 0)
(-0.116751 -0.0292249 0)
(-0.116668 -0.0630385 0)
(-0.112647 -0.089201 0)
(-0.0953601 -0.117464 0)
(-0.0386519 -0.131342 0)
(-0.0150566 -0.0916287 0)
(-0.00359437 -0.0343004 0)
(-0.0280212 -0.0492188 0)
(-0.00335658 -0.123145 0)
(0.0414663 -0.156941 0)
(0.087743 -0.187765 0)
(0.111043 -0.212252 0)
(0.131454 -0.225337 0)
(0.153268 -0.222791 0)
(0.174869 -0.204261 0)
(0.195747 -0.173847 0)
(0.216105 -0.133252 0)
(0.225772 -0.0799666 0)
(0.221443 -0.0221357 0)
(0.215334 -0.00629204 0)
(0.122622 -0.0754444 0)
(0.0501571 -0.0310022 0)
(0.111989 0.436008 0)
(0.192236 0.718248 0)
(0.245617 0.710334 0)
(0.274129 0.630601 0)
(0.241059 0.414656 0)
(0.0114453 0.111978 0)
(-0.102045 0.0438997 0)
(-0.121224 -0.00803788 0)
(-0.116518 -0.0429465 0)
(-0.114171 -0.0727422 0)
(-0.113095 -0.105726 0)
(-0.10214 -0.137634 0)
(-0.0545625 -0.150155 0)
(-0.0279337 -0.10692 0)
(-0.00745918 -0.0435223 0)
(-0.00733864 -0.0362517 0)
(-0.0138215 -0.10699 0)
(0.0162569 -0.163168 0)
(0.0685021 -0.194211 0)
(0.100471 -0.221859 0)
(0.120246 -0.233243 0)
(0.138215 -0.226135 0)
(0.154499 -0.202511 0)
(0.168101 -0.168557 0)
(0.180697 -0.12732 0)
(0.190935 -0.0777408 0)
(0.187879 -0.0551112 0)
(0.144412 -0.0965342 0)
(2.53926e-05 -0.110304 0)
(-0.0534344 -0.0123895 0)
(0.100357 0.218776 0)
(0.188074 0.395727 0)
(0.213785 0.384598 0)
(0.215929 0.341001 0)
(0.164357 0.247736 0)
(-0.00829853 0.111276 0)
(-0.130445 -0.0100734 0)
(-0.123596 -0.0296305 0)
(-0.113025 -0.0547681 0)
(-0.109544 -0.085174 0)
(-0.107211 -0.12162 0)
(-0.100529 -0.1582 0)
(-0.0677489 -0.171566 0)
(-0.0378918 -0.130045 0)
(-0.00808832 -0.0572134 0)
(0.00732932 -0.0386622 0)
(0.0064863 -0.110049 0)
(0.0166701 -0.165452 0)
(0.0488768 -0.20459 0)
(0.0860335 -0.236831 0)
(0.106185 -0.239616 0)
(0.121022 -0.224262 0)
(0.130522 -0.196305 0)
(0.135407 -0.159413 0)
(0.13823 -0.11313 0)
(0.142081 -0.0581816 0)
(0.13627 -0.0193521 0)
(0.0727618 -0.052347 0)
(-0.0919948 -0.0314387 0)
(-0.136038 0.0504914 0)
(0.0632316 0.142851 0)
(0.128253 0.23069 0)
(0.140766 0.239772 0)
(0.122357 0.238568 0)
(0.0312499 0.237664 0)
(-0.0222831 0.13434 0)
(0.121205 -0.075056 0)
(-0.0549868 -0.105872 0)
(-0.10179 -0.0611256 0)
(-0.0997472 -0.094013 0)
(-0.0983032 -0.139476 0)
(-0.0935003 -0.178937 0)
(-0.0723725 -0.194329 0)
(-0.0387295 -0.163811 0)
(0.00158479 -0.0824218 0)
(0.0261173 -0.0526093 0)
(0.0296226 -0.121665 0)
(0.034518 -0.172604 0)
(0.0498067 -0.214075 0)
(0.0769807 -0.243604 0)
(0.0965611 -0.241233 0)
(0.106564 -0.221 0)
(0.108286 -0.191119 0)
(0.0999277 -0.152857 0)
(0.0838706 -0.101771 0)
(0.0713495 -0.0361652 0)
(0.0644637 0.0401461 0)
(0.0209803 0.0317612 0)
(-0.173669 0.0883657 0)
(-0.230573 0.246136 0)
(-0.0245759 0.280311 0)
(0.0220319 0.30748 0)
(0.0272326 0.317241 0)
(-0.00586869 0.336445 0)
(-0.0134675 0.292525 0)
(0.0876579 -0.0344537 0)
(0.0942515 -0.267555 0)
(0.0316708 -0.358837 0)
(-0.0712521 -0.192998 0)
(-0.0887885 -0.115828 0)
(-0.0880241 -0.163611 0)
(-0.084981 -0.198781 0)
(-0.0725459 -0.212999 0)
(-0.0514959 -0.181736 0)
(-0.0246103 -0.0847259 0)
(0.0321783 -0.0940655 0)
(0.0472129 -0.131574 0)
(0.050818 -0.17909 0)
(0.0601233 -0.219483 0)
(0.0771783 -0.246027 0)
(0.0932684 -0.243537 0)
(0.100901 -0.223018 0)
(0.0973365 -0.190858 0)
(0.0733659 -0.150849 0)
(0.0201626 -0.0930353 0)
(-0.0348619 -0.0237623 0)
(-0.0598849 0.0687128 0)
(-0.0785792 0.181434 0)
(-0.330957 0.20454 0)
(-0.315185 0.436004 0)
(-0.17557 0.454004 0)
(-0.122112 0.438361 0)
(-0.0839673 0.430031 0)
(-0.0327239 0.378887 0)
(0.026421 0.280952 0)
(0.0842145 -0.145867 0)
(0.0333097 -0.297618 0)
(0.00349101 -0.353681 0)
(0.0194935 -0.399236 0)
(-0.0618045 -0.345092 0)
(-0.0841157 -0.205202 0)
(-0.0793987 -0.223656 0)
(-0.0764453 -0.224772 0)
(-0.0722017 -0.200288 0)
(-0.07888 -0.161986 0)
(0.0267433 -0.12254 0)
(0.0582338 -0.146329 0)
(0.0617855 -0.189919 0)
(0.0700597 -0.224427 0)
(0.0816137 -0.24964 0)
(0.0948088 -0.251658 0)
(0.104575 -0.235251 0)
(0.106465 -0.200049 0)
(0.0915712 -0.169059 0)
(-0.0619542 -0.0702887 0)
(-0.186154 0.00464712 0)
(-0.234173 0.0620162 0)
(-0.340469 0.0175886 0)
(-0.429411 0.264656 0)
(-0.332671 0.406043 0)
(-0.210438 0.412869 0)
(-0.152682 0.429574 0)
(-0.0899652 0.417997 0)
(-0.0133838 0.330171 0)
(0.0575136 0.144888 0)
(0.0342139 -0.162598 0)
(5.60941e-05 -0.269738 0)
(0.00939834 -0.323386 0)
(0.0453832 -0.389212 0)
(0.0485781 -0.424417 0)
(-0.0811298 -0.295569 0)
(-0.0778125 -0.255643 0)
(-0.0733411 -0.258914 0)
(-0.0687883 -0.238643 0)
(-0.00877821 -0.350474 0)
(-0.00214569 -0.210784 0)
(0.0119527 -0.26009 0)
(0.0610193 -0.210666 0)
(0.0757371 -0.233138 0)
(0.0855107 -0.258921 0)
(0.0967024 -0.269348 0)
(0.110293 -0.262452 0)
(0.120902 -0.228773 0)
(0.114735 -0.359606 0)
(0.0397647 -0.314084 0)
(-0.189166 -0.198036 0)
(-0.303027 -0.172744 0)
(-0.346296 -0.197297 0)
(-0.374073 -0.0253069 0)
(-0.307761 0.0959897 0)
(-0.220508 0.180382 0)
(-0.164751 0.265354 0)
(-0.0903498 0.255099 0)
(-0.015426 0.125649 0)
(0.0260671 -0.0399201 0)
(-0.00503973 -0.188676 0)
(0.000728425 -0.25227 0)
(0.0311641 -0.311471 0)
(0.0626353 -0.371941 0)
(0.0757236 -0.405154 0)
(0.0568223 -0.416649 0)
(-0.0488893 -0.307155 0)
(-0.00301096 -0.37719 0)
(0.00112063 -0.389928 0)
(-0.000712396 -0.364789 0)
(-0.0494717 -0.228176 0)
(0.00027064 -0.2992 0)
(-0.00461428 -0.293546 0)
(0.0680844 -0.266483 0)
(0.0842949 -0.276982 0)
(0.0941992 -0.297088 0)
(0.114453 -0.304117 0)
(0.160024 -0.353798 0)
(0.0811438 -0.404236 0)
(0.0430094 -0.273538 0)
(-0.0933644 -0.207788 0)
(-0.223637 -0.243267 0)
(-0.259313 -0.245134 0)
(-0.273679 -0.204108 0)
(-0.255554 -0.126953 0)
(-0.207324 -0.0137877 0)
(-0.155102 0.0425601 0)
(-0.101978 0.0305849 0)
(-0.0576364 -0.051476 0)
(-0.0313918 -0.135049 0)
(-0.0163058 -0.193278 0)
(0.031293 -0.228432 0)
(0.0571375 -0.28922 0)
(0.0822667 -0.355019 0)
(0.0903687 -0.385053 0)
(0.0791957 -0.393439 0)
(0.0495009 -0.392513 0)
(0.0248767 -0.383445 0)
(0.00789732 -0.377209 0)
(0.000929286 -0.358552 0)
(-0.0664062 -0.186767 0)
(0.0113226 -0.272045 0)
(-0.017267 -0.35112 0)
(-0.0170434 -0.385441 0)
(0.067032 -0.320875 0)
(0.0849012 -0.32598 0)
(0.11096 -0.341384 0)
(0.130708 -0.377662 0)
(0.0360963 -0.382389 0)
(0.0231558 -0.19706 0)
(-0.0850931 -0.128421 0)
(-0.19785 -0.195518 0)
(-0.234284 -0.241777 0)
(-0.250447 -0.236919 0)
(-0.253568 -0.196444 0)
(-0.219034 -0.135935 0)
(-0.167053 -0.096388 0)
(-0.117536 -0.098707 0)
(-0.0779916 -0.133436 0)
(-0.0381386 -0.158614 0)
(0.0112576 -0.174203 0)
(0.0560375 -0.207853 0)
(0.0905895 -0.271251 0)
(0.10442 -0.333049 0)
(0.104397 -0.361469 0)
(0.0917757 -0.367682 0)
(0.064003 -0.365629 0)
(0.0356778 -0.363673 0)
(0.0156272 -0.361984 0)
(0.00357863 -0.346411 0)
(-0.0855703 -0.123895 0)
(0.0082469 -0.220138 0)
(-0.00291688 -0.29048 0)
(-0.00915925 -0.378036 0)
(-0.000605566 -0.422091 0)
(0.0608847 -0.360735 0)
(0.0912067 -0.37744 0)
(0.0564072 -0.430169 0)
(-0.00338145 -0.344187 0)
(0.00592897 -0.108298 0)
(-0.0640838 -0.0544711 0)
(-0.191691 -0.131751 0)
(-0.237847 -0.207645 0)
(-0.264745 -0.21385 0)
(-0.273427 -0.19329 0)
(-0.23902 -0.156417 0)
(-0.178302 -0.142413 0)
(-0.133796 -0.148747 0)
(-0.0831965 -0.149824 0)
(-0.0349548 -0.1542 0)
(0.0287117 -0.157123 0)
(0.0858361 -0.178034 0)
(0.127142 -0.237535 0)
(0.128219 -0.303114 0)
(0.116292 -0.333749 0)
(0.0985651 -0.338493 0)
(0.0722908 -0.336946 0)
(0.0454578 -0.337843 0)
(0.0224932 -0.341296 0)
(0.00607279 -0.330373 0)
(-0.0587288 -0.0629472 0)
(-0.00707264 -0.159043 0)
(0.000320944 -0.254627 0)
(0.00902589 -0.339686 0)
(-0.00629521 -0.408407 0)
(0.00199643 -0.412935 0)
(0.0306256 -0.431964 0)
(-0.0191531 -0.469025 0)
(-0.0133062 -0.316308 0)
(-0.00560161 -0.0273471 0)
(-0.0916542 0.0214598 0)
(-0.211771 -0.0819706 0)
(-0.268283 -0.155917 0)
(-0.301387 -0.154314 0)
(-0.298753 -0.147315 0)
(-0.257019 -0.145518 0)
(-0.199909 -0.158812 0)
(-0.148635 -0.167128 0)
(-0.0907809 -0.174233 0)
(-0.0344577 -0.178038 0)
(0.0295728 -0.165732 0)
(0.103345 -0.173287 0)
(0.151914 -0.212211 0)
(0.149308 -0.269166 0)
(0.119793 -0.302731 0)
(0.0999706 -0.307095 0)
(0.0759631 -0.305864 0)
(0.0526276 -0.309321 0)
(0.0292689 -0.317172 0)
(0.00949405 -0.310655 0)
(-0.0133528 -0.0444018 0)
(-0.0213378 -0.11848 0)
(-0.00906755 -0.20622 0)
(0.0160366 -0.287941 0)
(0.0111415 -0.383304 0)
(0.000532503 -0.436858 0)
(-0.00965626 -0.465996 0)
(-0.0100639 -0.448538 0)
(-0.0125352 -0.292933 0)
(-0.0265093 0.0495596 0)
(-0.123255 0.0846839 0)
(-0.255849 -0.052285 0)
(-0.302063 -0.112539 0)
(-0.316955 -0.117476 0)
(-0.309179 -0.125329 0)
(-0.26348 -0.142299 0)
(-0.202657 -0.161173 0)
(-0.152337 -0.173132 0)
(-0.0938415 -0.182819 0)
(-0.0347813 -0.186635 0)
(0.0284869 -0.175704 0)
(0.11084 -0.174979 0)
(0.158162 -0.197929 0)
(0.161431 -0.232389 0)
(0.118679 -0.265967 0)
(0.0959595 -0.275061 0)
(0.074852 -0.275825 0)
(0.0569533 -0.28019 0)
(0.0361167 -0.290322 0)
(0.0141826 -0.286302 0)
(-0.00148906 -0.0459853 0)
(-0.00660249 -0.119497 0)
(-0.00495359 -0.180773 0)
(0.0137445 -0.247858 0)
(0.0246308 -0.343193 0)
(0.0123132 -0.412461 0)
(0.000914256 -0.442463 0)
(-0.00107791 -0.428095 0)
(-0.0153801 -0.258111 0)
(-0.0489432 0.106305 0)
(-0.150001 0.135987 0)
(-0.282452 -0.00957377 0)
(-0.31445 -0.0634971 0)
(-0.322668 -0.0766611 0)
(-0.30851 -0.0911647 0)
(-0.256978 -0.118102 0)
(-0.201197 -0.13934 0)
(-0.155027 -0.15709 0)
(-0.0984746 -0.170469 0)
(-0.0400505 -0.175098 0)
(0.0171669 -0.175085 0)
(0.102206 -0.153318 0)
(0.163604 -0.169845 0)
(0.16074 -0.186099 0)
(0.114966 -0.228377 0)
(0.0857523 -0.243777 0)
(0.0723321 -0.250973 0)
(0.0593489 -0.255409 0)
(0.0432887 -0.26304 0)
(0.0213046 -0.256029 0)
(0.0139783 -0.0465987 0)
(0.0120897 -0.127015 0)
(0.0130201 -0.184562 0)
(0.0199099 -0.229917 0)
(0.0265714 -0.299621 0)
(0.0191946 -0.385551 0)
(0.010728 -0.415892 0)
(0.008763 -0.397925 0)
(-0.0219269 -0.19505 0)
(-0.0535783 0.170921 0)
(-0.150319 0.208936 0)
(-0.279034 0.0676332 0)
(-0.305909 0.00619243 0)
(-0.317634 -0.0155221 0)
(-0.299112 -0.0419175 0)
(-0.253747 -0.0830135 0)
(-0.208568 -0.106362 0)
(-0.167122 -0.136398 0)
(-0.115889 -0.155395 0)
(-0.0610091 -0.165285 0)
(-0.00670704 -0.166 0)
(0.0707933 -0.143096 0)
(0.150821 -0.132357 0)
(0.15543 -0.142235 0)
(0.110444 -0.191868 0)
(0.0779531 -0.218207 0)
(0.069145 -0.22935 0)
(0.0575006 -0.236296 0)
(0.0456149 -0.239721 0)
(0.0288426 -0.21815 0)
(0.0427992 -0.0787367 0)
(0.0265927 -0.150608 0)
(0.0283149 -0.190606 0)
(0.0312942 -0.230409 0)
(0.0335856 -0.279672 0)
(0.0287119 -0.349606 0)
(0.0249093 -0.385752 0)
(0.0226924 -0.364834 0)
(-0.0397099 -0.100867 0)
(-0.0596341 0.22854 0)
(-0.14335 0.268068 0)
(-0.268866 0.120992 0)
(-0.289311 0.0524287 0)
(-0.296207 0.0261309 0)
(-0.279009 0.00373956 0)
(-0.249088 -0.0276521 0)
(-0.217147 -0.0736953 0)
(-0.185643 -0.1072 0)
(-0.1385 -0.12918 0)
(-0.0922555 -0.139874 0)
(-0.0396385 -0.142562 0)
(0.0213747 -0.135623 0)
(0.107731 -0.106123 0)
(0.142389 -0.114063 0)
(0.108523 -0.154624 0)
(0.0728743 -0.196828 0)
(0.0598561 -0.212566 0)
(0.050197 -0.219715 0)
(0.0386303 -0.219266 0)
(0.0258478 -0.177601 0)
(0.0115538 -0.141979 0)
(0.0268688 -0.169518 0)
(0.0346987 -0.198603 0)
(0.040456 -0.232721 0)
(0.0424958 -0.277298 0)
(0.0407338 -0.329569 0)
(0.0414504 -0.359647 0)
(0.0489315 -0.336322 0)
(-0.0537929 -0.0302032 0)
(-0.0466926 0.291485 0)
(-0.115111 0.336522 0)
(-0.229161 0.202209 0)
(-0.256181 0.125652 0)
(-0.274229 0.0921196 0)
(-0.266422 0.0648469 0)
(-0.237356 0.0155142 0)
(-0.209419 -0.0188408 0)
(-0.178726 -0.0553317 0)
(-0.14254 -0.0880064 0)
(-0.105895 -0.105981 0)
(-0.0653902 -0.118878 0)
(-0.016933 -0.12278 0)
(0.0395895 -0.115234 0)
(0.0931582 -0.111934 0)
(0.0896905 -0.131612 0)
(0.0645933 -0.177509 0)
(0.0443316 -0.199553 0)
(0.0364311 -0.207491 0)
(0.0273029 -0.20279 0)
(0.0167406 -0.147113 0)
(0.0111689 -0.142521 0)
(0.0311767 -0.171571 0)
(0.041044 -0.204945 0)
(0.0483939 -0.237719 0)
(0.0522194 -0.278577 0)
(0.0514616 -0.32335 0)
(0.0519942 -0.343189 0)
(0.0570232 -0.317309 0)
(-0.0417018 -0.0334299 0)
(-0.031526 0.361246 0)
(-0.0635885 0.414948 0)
(-0.178378 0.288375 0)
(-0.224872 0.184232 0)
(-0.247743 0.150288 0)
(-0.241318 0.129976 0)
(-0.216884 0.0980527 0)
(-0.191986 0.0363178 0)
(-0.163871 -0.0188656 0)
(-0.135056 -0.0528901 0)
(-0.105644 -0.079884 0)
(-0.0736483 -0.0994572 0)
(-0.0403532 -0.114281 0)
(-0.00375762 -0.12568 0)
(0.026493 -0.135079 0)
(0.0526097 -0.140802 0)
(0.0430799 -0.163332 0)
(0.0258274 -0.190488 0)
(0.021312 -0.199487 0)
(0.0156921 -0.191669 0)
(0.00856821 -0.128178 0)
(0.0107192 -0.112252 0)
(0.0441325 -0.176833 0)
(0.0501169 -0.213378 0)
(0.0577932 -0.243886 0)
(0.0631761 -0.281194 0)
(0.0634029 -0.319779 0)
(0.0530788 -0.333821 0)
(0.043748 -0.289609 0)
(-0.0348755 -0.0614144 0)
(-0.0231788 0.369222 0)
(-0.0223706 0.477545 0)
(-0.121332 0.370918 0)
(-0.174231 0.242219 0)
(-0.200352 0.194764 0)
(-0.201016 0.170214 0)
(-0.178821 0.108551 0)
(-0.160992 0.0542272 0)
(-0.149174 0.0073914 0)
(-0.123441 -0.0370573 0)
(-0.0974344 -0.066931 0)
(-0.0753684 -0.0908755 0)
(-0.0532896 -0.11029 0)
(-0.0313201 -0.130282 0)
(-0.0129513 -0.151539 0)
(0.00462933 -0.162971 0)
(0.0209852 -0.165794 0)
(0.0116163 -0.185006 0)
(0.00683519 -0.196734 0)
(0.00624137 -0.18536 0)
(0.0030559 -0.118276 0)
(-0.000221181 -0.105954 0)
(0.0263482 -0.228592 0)
(0.0535691 -0.230651 0)
(0.0660026 -0.255271 0)
(0.0788778 -0.28765 0)
(0.0831467 -0.345879 0)
(0.0465316 -0.338069 0)
(0.0553786 -0.243966 0)
(0.0136093 -0.0912577 0)
(-0.0135596 0.317247 0)
(0.00990345 0.527487 0)
(-0.0617107 0.448118 0)
(-0.112654 0.289709 0)
(-0.12968 0.208451 0)
(-0.131031 0.162466 0)