/*--------------------------------*- C++ -*----------------------------------*\
| =========                 |                                                 |
| \\      /  F ield         | OpenFOAM: The Open Source CFD Toolbox           |
|  \\    /   O peration     | Version:  2.4.0                                 |
|   \\  /    A nd           | Web:      www.OpenFOAM.org                      |
|    \\/     M anipulation  |                                                 |
\*---------------------------------------------------------------------------*/
FoamFile
{
    version     2.0;
    format      ascii;
    class       surfaceScalarField;
    location    "1";
    object      phiAlpha;
}
// * * * * * * * * * * * * * * * * * * * * * * * * * * * * * * * * * * * * * //

dimensions      [0 3 -1 0 0 0 0];

internalField   nonuniform List<scalar> 
5952
(
-4.62153e-22
2.32922e-23
-5.18225e-21
1.54371e-21
-4.83647e-20
5.93142e-21
-7.58668e-19
3.21419e-20
-8.19781e-18
3.45832e-19
-2.26575e-17
2.76098e-18
-1.04381e-10
2.7875e-11
-6.05643e-09
1.76631e-09
-7.65507e-09
2.30801e-09
-4.29841e-09
-1.65707e-09
-2.68577e-08
2.05101e-09
-4.85608e-12
-2.68368e-08
-9.59277e-21
1.12871e-21
-8.69835e-20
2.81433e-20
-4.4947e-19
1.26441e-19
-2.51241e-18
3.81228e-19
-1.33541e-17
1.45056e-18
-2.77235e-17
5.3982e-18
-1.71426e-08
8.32754e-10
-1.16757e-07
3.6402e-08
-1.64654e-07
5.08498e-08
-2.05101e-09
3.51158e-08
-1.03328e-16
1.16952e-17
-4.85609e-12
-1.0642e-16
-4.5009e-19
2.61404e-20
-8.86849e-18
1.98312e-18
-6.38464e-19
1.64015e-17
-5.25878e-18
3.20671e-18
-2.40239e-17
4.2238e-18
-5.81491e-17
1.44352e-17
-1.20372e-07
1.61729e-08
-2.21712e-07
6.30057e-08
-2.45083e-07
7.3508e-08
-1.05137e-09
8.70479e-09
-1.05137e-09
1.24214e-17
7.26372e-12
-6.79218e-10
-3.17948e-19
4.33693e-20
-6.19049e-18
1.77829e-18
-3.87067e-17
1.52532e-17
-2.9692e-12
1.34276e-12
2.04178e-12
3.25469e-12
2.04173e-12
3.33467e-17
-1.01389e-07
1.24349e-08
-2.78562e-07
6.52697e-08
-1.35573e-07
5.888e-08
-5.88501e-10
3.41644e-09
-5.88501e-10
2.16263e-17
2.77202e-11
-4.06081e-10
-6.34191e-19
1.96485e-19
-7.23068e-18
4.16443e-18
-3.50802e-17
2.13587e-17
-1.81603e-12
5.27696e-13
1.70168e-12
1.23372e-12
1.70158e-12
8.75061e-17
-8.51043e-08
1.20883e-08
-1.93758e-07
3.39923e-08
-3.44334e-09
1.57448e-08
-1.18028e-16
-2.69009e-11
-1.24677e-16
2.35261e-17
2.77202e-11
-1.47132e-16
-2.42582e-18
1.93766e-18
-1.31986e-17
1.61155e-17
-9.89842e-14
3.39205e-14
-1.28566e-13
2.08324e-15
2.43828e-14
2.9951e-14
-3.48911e-09
3.48913e-09
-2.3985e-08
4.06978e-08
-3.73523e-08
4.29222e-08
-1.93913e-08
1.05727e-08
-1.06215e-08
2.50104e-09
-5.74537e-09
3.70908e-09
6.7095e-10
-5.85225e-10
-2.15151e-16
2.91678e-17
-4.19987e-15
1.23927e-15
-2.02645e-15
9.74144e-17
-5.87531e-17
8.9609e-17
2.97705e-14
9.81453e-17
-1.19412e-08
3.22526e-08
-2.66158e-08
8.12687e-08
-3.38399e-09
8.31834e-08
-2.71646e-09
2.36546e-09
-6.19293e-09
2.79325e-10
-9.80693e-09
4.19727e-09
1.41175e-09
-7.42192e-09
-7.59221e-17
1.04895e-16
-4.59287e-17
3.63024e-16
-5.18507e-17
1.03678e-16
-6.01477e-17
7.12157e-17
-5.55625e-17
6.40439e-17
-4.30887e-09
1.87094e-08
-3.47838e-09
8.04382e-08
-8.00888e-09
8.77139e-08
-4.19826e-10
4.18863e-09
-1.40502e-10
3.38371e-16
-4.37393e-11
-3.57656e-12
-2.23591e-12
4.69396e-10
-1.16699e-12
1.01453e-12
-4.01946e-17
4.95612e-12
-4.47601e-17
9.88687e-17
-1.9325e-14
1.93605e-14
1.71016e-13
1.35154e-14
3.35031e-09
-2.96369e-10
2.44508e-09
2.92293e-09
-9.84303e-09
2.71735e-08
8.96789e-12
6.71044e-09
3.01812e-16
8.96686e-12
7.34079e-12
-1.09177e-11
-5.90259e-10
1.52663e-10
8.57819e-14
7.27789e-13
5.04576e-12
6.3565e-15
-7.3512e-12
9.0774e-11
5.46384e-11
2.08095e-10
2.11782e-10
1.89288e-11
2.78047e-10
9.25681e-12
1.03984e-09
2.89695e-11
4.12517e-09
2.66002e-09
2.99165e-09
7.36692e-10
5.94648e-09
3.08271e-11
6.15116e-09
2.7654e-10
-1.35097e-10
5.20386e-09
-4.21903e-19
7.2779e-13
8.49802e-18
6.34756e-15
1.82861e-17
9.0774e-11
5.52741e-17
2.08095e-10
5.44422e-14
1.88744e-11
6.25412e-11
-1.87436e-09
1.4298e-16
9.15105e-11
1.54519e-16
2.66002e-09
1.64592e-16
7.36692e-10
-1.68201e-12
3.25093e-11
1.59604e-10
2.8764e-09
1.88927e-10
9.51669e-10
7.67512e-08
-1.67638e-07
1.81455e-07
-1.89575e-07
3.81723e-07
-2.18651e-07
6.96729e-07
-2.85828e-07
9.89101e-07
-2.78005e-07
1.15213e-06
-2.73905e-07
1.19652e-06
1.31014e-07
1.27399e-06
2.78755e-07
1.09904e-06
1.28141e-08
4.17931e-07
-1.16535e-07
2.36776e-08
-8.828e-08
8.01674e-09
-3.66276e-08
-1.5204e-08
-7.53035e-11
-3.35721e-10
-2.68351e-11
-3.35721e-10
-8.80056e-18
-1.2056e-09
-1.27405e-09
-8.44191e-10
-6.32061e-09
-1.07866e-08
5.65266e-09
-3.15819e-09
-2.64254e-09
-2.61051e-09
3.0791e-09
-2.43016e-10
-2.68026e-10
-2.42615e-11
-1.78315e-10
-7.19999e-14
-3.00652e-10
-7.28762e-14
-1.38225e-16
-7.53034e-11
-8.46924e-17
-2.86708e-11
-7.98865e-17
-1.64333e-17
-3.07185e-09
-2.30871e-17
-9.77412e-09
-1.27626e-16
2.81478e-09
-1.48997e-10
2.2899e-08
-6.00272e-09
3.56517e-08
-7.99072e-09
1.64813e-08
1.95638e-08
3.20832e-09
1.79396e-08
1.52706e-10
-1.80764e-09
-6.74328e-09
-3.19145e-10
-2.94372e-11
-1.82694e-15
-1.73036e-15
-7.00405e-17
-1.7709e-15
-5.77129e-17
-3.78513e-17
-4.28982e-17
-1.40004e-16
-1.48997e-10
-5.58968e-17
5.22513e-10
-2.18511e-09
5.9451e-08
-1.72811e-08
7.63583e-08
8.56585e-09
9.23283e-08
-3.93963e-09
4.17364e-08
6.82233e-08
4.65302e-08
-2.46646e-14
-2.52342e-12
-1.15114e-14
-1.03186e-14
-2.60781e-16
-8.56153e-15
-2.44787e-16
-7.26296e-17
-7.87462e-17
-4.81379e-16
7.05008e-16
-8.40813e-16
-5.70218e-10
-9.63084e-17
-5.42231e-10
-5.02989e-17
1.36916e-08
-1.76835e-08
8.21783e-09
3.26747e-09
4.98694e-09
6.91437e-08
5.37547e-08
-3.43757e-14
-2.48931e-12
-2.57842e-14
-9.28326e-17
-6.44299e-15
-6.2863e-15
-4.97025e-16
-6.09842e-15
-5.69931e-16
-6.73487e-16
-2.08637e-17
-1.94841e-15
2.91132e-17
-1.42149e-16
7.06104e-17
-9.18715e-17
1.54484e-07
-1.98656e-08
7.47999e-08
1.989e-07
2.25243e-08
3.39558e-07
2.08459e-07
-6.08574e-15
-1.17125e-09
-6.66688e-15
-1.15131e-16
-2.82893e-14
-1.07265e-14
-6.62666e-15
-1.0606e-13
-7.10679e-16
-6.84241e-15
-1.54734e-17
-2.42685e-15
3.79467e-17
-2.96765e-16
8.16224e-17
-1.33858e-16
3.31765e-07
-6.64394e-08
3.69121e-07
4.19007e-07
1.47217e-07
5.98724e-07
3.55676e-07
-1.25138e-09
-2.40489e-09
-4.39496e-15
-1.25138e-09
-2.89191e-14
-1.17606e-14
-1.72885e-15
3.39121e-14
-9.0023e-16
-8.08025e-15
-3.53542e-18
-6.29093e-16
4.70821e-17
-1.07663e-15
8.46268e-17
-1.73217e-16
4.91326e-07
-1.44165e-07
4.01403e-07
5.45733e-07
1.71289e-07
8.28837e-07
5.26965e-07
4.06378e-10
-9.59297e-10
-4.45668e-12
-2.87687e-10
-3.3639e-15
-4.49396e-12
7.39644e-15
1.00581e-12
3.92609e-16
2.05956e-14
6.83758e-17
-5.12176e-16
9.91079e-17
2.90851e-16
1.53778e-16
-2.22758e-16
4.49941e-07
-1.79814e-07
3.84224e-07
6.19291e-07
1.63426e-07
1.04964e-06
6.90391e-07
2.73137e-10
-1.56438e-09
8.13655e-12
-3.20261e-10
2.39868e-12
-2.80062e-12
8.42185e-13
-6.34345e-11
1.19769e-14
-1.72848e-11
1.9979e-16
8.65321e-15
2.60192e-16
1.37769e-14
8.58773e-16
-1.37488e-16
7.58594e-08
-5.31737e-08
2.65422e-07
4.57431e-07
1.23903e-07
1.19115e-06
8.14294e-07
1.73412e-09
4.60001e-10
3.24126e-11
1.21483e-10
2.96114e-11
-2.59147e-16
4.53692e-10
-2.79549e-10
3.24903e-10
-2.3795e-10
-5.10814e-12
1.0985e-10
2.325e-14
-1.21903e-11
2.31824e-14
-7.80612e-17
5.37458e-09
-7.08953e-17
2.34192e-07
1.23799e-07
1.20621e-07
1.30473e-06
9.27343e-07
6.29818e-11
1.04938e-09
6.07122e-16
1.84463e-10
2.32482e-12
-2.32503e-12
1.14427e-09
1.59617e-10
1.04021e-09
-1.9908e-12
6.34692e-10
-1.73819e-09
1.52143e-16
7.10869e-12
4.87772e-17
2.3608e-17
2.75473e-18
-2.48729e-17
5.81523e-08
4.21053e-10
1.4771e-07
1.18685e-06
1.07505e-06
3.10607e-08
-1.83784e-08
8.60255e-08
-9.57467e-08
1.24621e-08
-1.33475e-07
4.59698e-16
1.26217e-08
4.03333e-16
-1.60278e-10
9.28014e-09
1.04899e-09
2.5098e-16
9.28725e-09
1.37466e-16
1.37122e-16
7.1961e-17
4.06322e-17
3.68625e-10
5.24279e-11
3.10282e-07
3.93629e-07
1.38533e-06
1.24724e-29
-1.84234e-28
7.35615e-27
-3.57725e-26
1.30733e-25
-3.70874e-25
4.15431e-25
-5.78078e-25
2.68834e-25
3.41627e-26
3.90867e-26
3.82617e-26
-3.13828e-23
2.74402e-25
-3.7232e-21
1.15315e-22
-5.95366e-20
4.05567e-21
-4.83397e-19
3.99987e-20
-2.39208e-18
2.34393e-19
8.78737e-19
-7.54995e-18
-5.98364e-27
-1.48057e-27
6.44789e-27
-2.79563e-25
1.42915e-25
-2.53717e-24
-1.19905e-24
3.72853e-25
-5.90162e-22
9.96143e-24
-4.02703e-20
1.26637e-21
-7.6061e-19
5.32104e-20
-6.35839e-18
7.25429e-19
-3.2834e-17
4.72166e-18
-1.64296e-16
1.96765e-17
-9.65753e-16
8.03448e-17
3.81572e-16
-4.18326e-15
-2.76964e-26
-3.23914e-26
-3.17053e-24
-7.06925e-25
-9.87379e-23
2.89622e-24
-4.62707e-21
1.10221e-22
-1.11809e-19
5.38639e-21
-1.29771e-18
1.27445e-19
-8.28543e-18
1.35888e-18
-3.33874e-17
7.70251e-18
-1.06074e-16
2.71449e-17
-3.23258e-16
7.45319e-17
-8.83692e-16
1.93187e-16
4.37586e-16
-1.48237e-15
-3.9701e-24
5.0284e-26
-2.20674e-22
7.75723e-24
-5.51557e-21
2.46636e-22
-8.35415e-20
5.2372e-21
-8.08091e-19
8.0278e-20
-5.10206e-18
8.16992e-19
-2.09676e-17
5.22417e-18
-5.86388e-17
2.07784e-17
-1.26563e-16
5.44772e-17
-2.51247e-16
1.07027e-16
-4.69176e-16
1.87557e-16
2.98066e-16
-6.48852e-16
-1.03552e-22
4.83888e-24
-3.0464e-21
2.83046e-22
-3.71184e-20
3.83739e-21
-3.09528e-19
3.37986e-20
-1.94147e-18
2.67417e-19
-9.0009e-18
1.81657e-18
-2.98507e-17
9.10892e-18
-7.01101e-17
3.13452e-17
-1.22753e-16
7.42274e-17
-1.8058e-16
1.26392e-16
-2.48748e-16
1.73149e-16
2.11747e-16
-3.14027e-16
-6.9223e-22
8.10339e-23
-1.16526e-20
2.18658e-21
-9.11159e-20
1.57483e-20
-5.30185e-19
8.03734e-20
-2.53013e-18
4.17598e-19
-9.75963e-18
2.20784e-18
-2.90222e-17
9.70617e-18
-6.3366e-17
3.15186e-17
-1.01885e-16
7.51546e-17
-1.2851e-16
1.29898e-16
-1.42894e-16
1.67385e-16
1.79242e-16
-1.57776e-16
-1.88369e-21
4.28272e-22
-2.1049e-20
6.54487e-21
-1.15518e-19
2.9843e-20
-4.99112e-19
9.88077e-20
-1.93215e-18
3.65208e-19
-6.64638e-18
1.64901e-18
-1.90132e-17
6.79417e-18
-4.10448e-17
2.12378e-17
-6.38265e-17
5.30635e-17
-7.40233e-17
1.04579e-16
-6.77461e-17
1.50257e-16
1.64849e-16
-5.96571e-17
-5.26294e-21
3.94676e-21
-2.55385e-20
1.98764e-20
-7.99248e-20
3.74763e-20
-2.40229e-19
6.78127e-20
-7.3377e-19
1.73981e-19
-2.31987e-18
7.53826e-19
-6.87778e-18
3.11924e-18
-1.56156e-17
9.08337e-18
-2.17949e-17
2.22445e-17
-1.54468e-17
5.46116e-17
6.41813e-18
9.90046e-17
1.32694e-16
2.83121e-17
-2.60204e-18
1.6599e-18
-1.32056e-17
1.08838e-17
-2.12075e-17
1.97036e-17
-7.84752e-18
1.55514e-17
-3.28339e-19
5.0835e-18
-8.57412e-20
1.70099e-18
-5.22682e-19
9.63567e-19
-1.69912e-18
2.46993e-18
6.88543e-19
4.75912e-18
9.93273e-18
1.70406e-17
4.06936e-17
3.59876e-17
6.42685e-17
8.72786e-17
-1.47483e-18
4.3199e-18
-1.17621e-18
7.70422e-18
1.14753e-20
1.7975e-18
8.52761e-18
-1.22013e-17
1.31314e-17
-6.51292e-18
5.36878e-19
1.38657e-17
4.55827e-19
5.54172e-19
2.48661e-19
2.20701e-18
3.68283e-19
5.10958e-18
1.29913e-17
4.66557e-18
3.23161e-17
5.44629e-18
1.13702e-17
7.64168e-17
2.23384e-22
4.31967e-18
7.19929e-20
7.63245e-18
8.9986e-09
-1.01453e-10
6.97698e-08
-1.19427e-07
6.72382e-08
-2.33405e-07
4.20521e-09
-3.49748e-09
3.95011e-12
4.20126e-09
1.09198e-08
2.39918e-07
9.53077e-09
6.73321e-09
3.6767e-17
9.53077e-09
3.88739e-17
1.19989e-18
8.44174e-16
1.54919e-16
5.86975e-08
-7.22018e-09
2.13016e-07
-3.48467e-09
7.96708e-07
-3.1467e-07
1.45581e-06
-7.14501e-07
1.65936e-06
-7.61487e-07
1.35572e-06
-1.69968e-07
1.43482e-06
3.45978e-07
1.90324e-06
3.24793e-07
1.82445e-06
-6.99439e-09
1.01105e-06
5.61324e-07
8.28871e-07
1.89151e-07
2.64465e-07
-3.85771e-07
-2.74733e-17
2.09566e-18
-7.40466e-17
5.49659e-18
-9.91519e-17
9.49606e-18
-1.51472e-16
3.43503e-16
-1.98284e-16
4.72384e-16
-2.10934e-16
3.40165e-16
-2.17627e-15
1.98378e-15
-1.48932e-14
-3.61381e-13
-9.72769e-15
-2.29964e-16
-4.34294e-18
-1.4537e-14
-1.31786e-21
-3.43521e-19
-3.59951e-20
-4.41745e-15
1.29077e-15
-2.40065e-16
9.91574e-16
-1.24141e-14
1.2322e-14
-3.1633e-12
1.45855e-12
-2.87401e-11
-3.7389e-12
-4.42716e-11
-1.2965e-11
-2.61208e-11
-1.64153e-11
-9.2181e-14
-4.7686e-12
-9.24354e-14
-2.20834e-17
-1.22125e-18
2.40985e-14
-2.34996e-19
-8.25788e-18
-5.06688e-19
6.26028e-16
5.81895e-16
1.28846e-15
1.25163e-16
-2.99247e-11
5.74224e-13
-1.28475e-10
7.51369e-12
-1.25346e-10
-6.86793e-12
-1.17408e-10
-2.09037e-11
-8.864e-11
-1.28796e-11
-4.90495e-13
-2.12776e-13
-7.9498e-17
-4.90501e-13
-1.37945e-17
2.40104e-14
-8.33763e-19
-3.11241e-17
-6.05748e-18
-4.75385e-16
3.33312e-16
-7.67595e-16
1.82199e-16
-4.32403e-11
1.16649e-12
-1.31988e-10
6.89581e-12
-1.38136e-10
-7.21756e-13
-5.81139e-11
-2.69652e-17
-4.45198e-13
-1.37504e-15
-6.57779e-13
-1.12774e-16
-3.64591e-12
-3.31091e-13
-4.10879e-13
-1.50527e-11
-4.54586e-15
-6.76717e-12
-4.56038e-15
-4.02547e-16
2.23313e-16
-7.05676e-16
2.19627e-16
-7.20482e-12
9.48647e-14
-6.65721e-12
4.15871e-14
-1.21195e-16
-3.7225e-18
-1.22274e-16
-4.68473e-17
-1.95053e-16
-1.26364e-15
-2.35187e-16
-7.81817e-17
-3.3083e-13
-2.59644e-16
-1.84668e-11
-1.16448e-11
-3.30031e-12
-6.87212e-11
-5.75279e-11
-2.02371e-16
1.75789e-16
-8.43789e-14
6.68842e-15
-4.15919e-14
1.4488e-16
-9.64979e-17
3.87906e-17
-1.56795e-16
2.50929e-18
-1.52104e-16
-4.03652e-17
-1.25418e-14
-6.29623e-16
6.04442e-15
-7.15796e-14
2.10998e-13
-2.04984e-13
-4.72665e-12
-9.29575e-13
-3.14178e-11
-3.75646e-11
-8.89458e-11
-1.8695e-16
1.54111e-16
-5.75269e-17
4.21356e-16
-5.25806e-17
9.11575e-17
-6.70372e-17
4.50427e-17
-8.66644e-17
1.38636e-17
-6.56092e-17
-2.7097e-17
-6.43803e-16
-3.14905e-17
-2.57819e-13
-2.19674e-14
-9.68945e-14
-1.92451e-12
1.17973e-12
-3.61172e-12
-2.10965e-11
-4.9286e-12
-3.16472e-16
3.55606e-17
1.39258e-16
2.97079e-17
1.27091e-16
1.49678e-17
8.38205e-17
3.36177e-18
4.42116e-17
-7.16805e-18
1.47477e-17
-8.53132e-18
-4.72886e-18
-1.42305e-17
-1.06458e-17
-2.19704e-14
-1.87585e-17
-3.40705e-12
-1.05618e-12
-3.71625e-12
-3.44591e-11
-7.45719e-17
-8.88485e-11
-3.91044e-16
1.18407e-16
9.65946e-17
1.17994e-16
1.08283e-16
9.59099e-17
8.98545e-17
6.67877e-17
5.50727e-17
3.8889e-17
2.08046e-17
1.78482e-17
-2.97451e-19
6.9326e-18
-1.08772e-17
3.5544e-18
-2.62399e-17
2.70175e-14
-2.91069e-17
-1.82025e-11
-1.65804e-11
-6.17672e-12
-4.4e-10
-6.17712e-12
1.27427e-16
3.91045e-17
1.54054e-16
7.09951e-17
1.48584e-16
7.69934e-17
1.2125e-16
5.71619e-17
8.47474e-17
2.78075e-17
5.02386e-17
4.83436e-18
2.83683e-17
-1.20353e-17
2.7224e-17
-3.80585e-17
1.36699e-17
-5.1259e-17
8.38587e-13
-2.47343e-17
1.50974e-11
-2.95396e-10
-2.36609e-10
1.35501e-16
2.94499e-17
1.44064e-16
4.07647e-17
1.4855e-16
5.45471e-17
1.33281e-16
4.68596e-17
1.0303e-16
2.68764e-17
6.92826e-17
8.07384e-18
8.40518e-17
-5.5416e-17
9.54614e-17
1.20719e-16
6.54824e-17
-3.45528e-17
1.63119e-17
-4.06525e-17
8.56987e-11
-8.75171e-13
-1.5091e-10
5.3663e-09
1.28739e-08
1.29918e-16
5.3663e-09
7.33606e-17
2.23459e-17
9.09537e-18
1.06785e-16
9.11576e-18
2.96877e-17
8.86948e-18
5.07129e-18
1.97083e-14
-1.27893e-14
4.95037e-14
-7.10564e-13
9.47884e-17
4.88645e-14
7.07655e-17
-5.25214e-17
8.81781e-13
-1.7572e-12
6.36528e-11
3.00937e-31
-6.44352e-30
4.16536e-28
-3.1862e-27
1.08739e-26
-4.93758e-26
4.22113e-26
-1.44149e-25
2.9754e-26
-8.53809e-26
5.53474e-27
4.83532e-28
7.94053e-28
3.77635e-28
8.02151e-26
4.72937e-25
-8.70002e-22
1.77515e-22
-5.2133e-21
1.33496e-21
-1.57659e-20
3.94422e-21
7.81073e-21
-3.44763e-20
1.7603e-30
-1.3479e-28
3.56707e-27
-4.49429e-26
9.63084e-26
-6.18563e-25
4.68566e-25
-2.17218e-24
5.30714e-25
-1.50442e-24
6.45082e-25
2.27899e-24
-1.94507e-21
5.00114e-22
-1.31512e-20
4.98592e-21
-4.34244e-20
1.65224e-20
-1.02645e-19
3.69331e-20
-1.97825e-19
6.49386e-20
9.55421e-20
-3.30329e-19
3.74989e-29
-3.34226e-27
1.08888e-26
-3.84253e-25
1.33873e-25
-4.41925e-24
-1.83228e-24
-1.37246e-23
-3.68402e-22
1.49512e-23
-3.83581e-21
9.57922e-22
-1.82541e-20
7.17894e-21
-5.64576e-20
2.62831e-20
-1.33483e-19
6.44681e-20
-2.62171e-19
1.22766e-19
-4.48504e-19
1.94499e-19
2.64696e-19
-6.87385e-19
-1.24252e-25
-2.20573e-26
-4.28117e-24
-1.34983e-24
-6.54986e-23
-6.38151e-24
-7.13753e-22
2.21112e-23
-3.90447e-21
5.85265e-22
-1.4687e-20
4.61557e-21
-4.25555e-20
2.00396e-20
-1.01127e-19
5.83052e-20
-2.05333e-19
1.27776e-19
-3.66159e-19
2.27173e-19
-5.8496e-19
3.41989e-19
4.45418e-19
-8.49794e-19
-3.42354e-24
9.76146e-26
-8.57441e-23
4.48738e-24
-7.25186e-22
4.8975e-23
-3.30086e-21
3.39323e-22
-1.0543e-20
1.97266e-21
-2.68928e-20
9.07563e-21
-5.91276e-20
3.15367e-20
-1.17082e-19
8.34923e-20
-2.12046e-19
1.75202e-19
-3.51431e-19
3.03106e-19
-5.32591e-19
4.4479e-19
5.62828e-19
-7.40306e-19
-2.94378e-23
2.73328e-24
-4.19765e-22
6.45157e-23
-2.22504e-21
3.58189e-22
-7.13994e-21
1.11213e-21
-1.7153e-20
3.31276e-21
-3.39913e-20
1.08501e-20
-5.95194e-20
3.36547e-20
-9.7736e-20
8.73113e-20
-1.5562e-19
1.84703e-19
-2.39082e-19
3.2234e-19
-3.45991e-19
4.72193e-19
5.87863e-19
-4.62561e-19
-9.88375e-23
1.95371e-23
-9.46152e-22
2.65702e-22
-3.79503e-21
9.64993e-22
-9.8086e-21
1.9119e-21
-1.94924e-20
3.41067e-21
-3.19345e-20
8.15259e-21
-4.4645e-20
2.45024e-20
-5.5785e-20
6.77713e-20
-6.82163e-20
1.54172e-19
-8.93015e-20
2.84787e-19
-1.24165e-19
4.31651e-19
5.42221e-19
-1.68238e-19
-1.61246e-22
5.45154e-23
-1.1402e-21
4.89735e-22
-3.6806e-21
1.31892e-21
-8.04767e-21
1.84836e-21
-1.38767e-20
1.88844e-21
-1.92898e-20
2.75344e-21
-1.97563e-20
1.00006e-20
-8.87255e-21
3.60012e-20
1.17374e-20
1.01158e-19
3.75035e-20
2.10694e-19
6.02486e-20
3.4398e-19
4.53751e-19
6.76314e-20
-2.67477e-21
2.5995e-22
-7.38531e-20
8.98415e-21
-6.67122e-19
9.99463e-20
-2.48221e-19
3.47705e-19
-4.40132e-18
1.14859e-17
-2.30349e-21
-5.69031e-18
2.95669e-21
2.18873e-22
1.82571e-20
1.15525e-20
5.22596e-20
4.94479e-20
1.05822e-19
1.26418e-19
1.68487e-19
2.34214e-19
3.36643e-19
2.2062e-19
-1.48443e-19
5.18642e-20
-1.78225e-20
6.04407e-19
1.24452e-20
5.65392e-20
1.89154e-14
1.47e-16
7.28769e-14
1.03885e-14
7.73355e-14
3.0282e-13
1.19397e-15
-1.20079e-14
3.18973e-19
1.16203e-15
2.46439e-19
6.77851e-20
2.28471e-19
1.13584e-19
2.36714e-19
1.5882e-19
2.25238e-19
2.87294e-19
8.82128e-24
5.18542e-20
3.62055e-21
6.00788e-19
7.10085e-12
-1.59479e-10
1.59232e-16
7.10066e-12
-7.03565e-14
7.95133e-14
7.4903e-12
7.16971e-12
7.62232e-12
4.65171e-13
1.39888e-12
-1.76516e-14
3.44029e-17
1.39882e-12
3.70045e-19
3.41524e-17
8.88257e-19
3.51973e-19
3.63964e-19
7.42771e-19
9.34548e-10
-4.5588e-11
4.67914e-09
-1.75683e-16
6.35537e-09
-7.98509e-18
6.12906e-09
-3.24747e-09
1.83e-09
-6.2752e-09
2.36914e-11
-3.34117e-10
2.91274e-11
6.58197e-11
7.02665e-12
3.64739e-12
2.39447e-11
1.06204e-11
3.72474e-12
1.91974e-12
3.07867e-17
3.72462e-12
3.2728e-19
3.09306e-17
-6.19744e-20
1.19805e-20
-9.71909e-20
1.49116e-20
-1.37201e-19
1.4774e-20
-1.77689e-19
1.00837e-20
-2.13739e-19
1.73436e-23
-2.13797e-19
-4.24591e-20
-1.78306e-19
-8.18714e-20
-1.17644e-19
-1.08177e-19
-5.30852e-20
-1.09865e-19
-1.03612e-20
-8.05748e-20
-2.15986e-23
-3.17894e-20
-5.29499e-22
-4.93301e-19
1.2012e-19
-6.70156e-19
1.27762e-19
-8.35493e-19
1.08088e-19
-9.5911e-19
5.50433e-20
-1.00452e-18
-3.83325e-20
-9.61899e-19
-1.72277e-19
-8.24539e-19
-3.08693e-19
-6.04514e-19
-4.19206e-19
-3.42237e-19
-4.63557e-19
-1.1345e-19
-3.97395e-19
-3.6443e-21
-2.13497e-19
-1.91293e-20
-9.60179e-19
3.11944e-19
-1.23569e-18
3.1324e-19
-1.47516e-18
2.50883e-19
-1.63972e-18
1.18824e-19
-1.70625e-18
-7.4232e-20
-1.67445e-18
-3.06259e-19
-1.52422e-18
-5.6181e-19
-1.23509e-18
-8.14237e-19
-8.14749e-19
-9.95961e-19
-3.49955e-19
-9.82332e-19
-3.2053e-20
-6.52524e-19
-1.1739e-19
-1.13611e-18
5.04421e-19
-1.41255e-18
4.89667e-19
-1.64913e-18
3.84871e-19
-1.82282e-18
1.90398e-19
-1.92934e-18
-6.71159e-20
-1.98739e-18
-3.42934e-19
-1.95948e-18
-6.8258e-19
-1.77374e-18
-1.09609e-18
-1.35169e-18
-1.52493e-18
-7.10584e-19
-1.75029e-18
-1.17067e-19
-1.39726e-18
-3.745e-19
-9.51131e-19
6.17312e-19
-1.14382e-18
5.81711e-19
-1.30957e-18
4.51938e-19
-1.45364e-18
2.4129e-19
-1.58249e-18
-2.41044e-20
-1.74439e-18
-2.57061e-19
-1.90898e-18
-5.88443e-19
-1.97706e-18
-1.09999e-18
-1.76646e-18
-1.82028e-18
-1.12543e-18
-2.50527e-18
-2.74757e-19
-2.40667e-18
-8.48762e-19
-5.68146e-19
6.24716e-19
-6.48382e-19
5.6367e-19
-7.09054e-19
4.20863e-19
-7.79069e-19
2.31969e-19
-8.83966e-19
1.76459e-20
-1.07706e-18
-1.17748e-19
-1.36947e-18
-3.40346e-19
-1.70246e-18
-8.09383e-19
-1.85045e-18
-1.72644e-18
-1.44623e-18
-2.99995e-18
-4.73447e-19
-3.53052e-18
-1.54871e-18
-2.06481e-19
5.64944e-19
-2.2265e-19
4.82369e-19
-2.14646e-19
3.26588e-19
-2.08981e-19
1.61333e-19
-2.65093e-19
3.21762e-20
-3.89253e-19
-2.41034e-20
-6.3977e-19
-1.09915e-19
-1.05867e-18
-4.04387e-19
-1.5091e-18
-1.29713e-18
-1.50355e-18
-3.06966e-18
-6.35781e-19
-4.53707e-18
-2.41203e-18
5.43358e-20
4.84793e-19
2.62596e-20
4.11128e-19
-1.25775e-21
2.57849e-19
-5.9117e-21
1.0017e-19
-1.42104e-20
1.32931e-20
-3.9948e-20
-8.3193e-21
-1.24852e-19
-2.90996e-20
-3.72153e-19
-1.49946e-19
-8.38698e-19
-8.20172e-19
-1.18118e-18
-2.76793e-18
-6.59423e-19
-5.19071e-18
-3.28869e-18
2.41902e-19
3.8226e-19
2.21365e-19
3.39255e-19
1.64218e-19
2.23297e-19
9.37788e-20
9.73273e-20
3.99543e-20
2.12247e-20
1.71184e-20
-8.07793e-21
1.36099e-20
-3.48314e-20
1.9338e-20
-1.44592e-19
-4.95405e-20
-7.16956e-19
-4.4181e-19
-2.40055e-18
-4.37659e-19
-5.33328e-18
-3.93554e-18
3.30576e-19
2.7265e-19
3.30803e-19
2.61951e-19
2.80615e-19
1.92522e-19
2.01995e-19
1.0335e-19
1.31087e-19
3.61752e-20
8.41191e-20
-1.84792e-21
6.74604e-20
-4.09364e-20
1.27154e-19
-1.98745e-19
3.00749e-19
-8.67813e-19
3.78368e-19
-2.504e-18
1.37492e-19
-5.25658e-18
-4.014e-18
5.19877e-19
2.75986e-19
4.16879e-19
2.15689e-19
3.53199e-19
1.59655e-19
2.85225e-19
9.71781e-20
2.18933e-19
4.25878e-20
1.65632e-19
3.63822e-21
1.78019e-19
-1.12796e-19
4.07116e-19
-4.69277e-19
9.92658e-19
-1.46129e-18
1.53508e-18
-3.12936e-18
1.27859e-18
-5.25074e-18
-2.99603e-18
3.29116e-19
1.65408e-19
3.74214e-19
5.29531e-19
3.68363e-19
1.21149e-19
3.33655e-19
8.28702e-20
2.85108e-19
4.1067e-20
2.48693e-19
5.47659e-21
9.19948e-19
-1.78315e-18
1.79902e-18
-3.34996e-18
3.4648e-18
-4.10972e-18
4.99684e-18
-5.12954e-18
4.69826e-18
-5.49988e-18
1.28052e-18
-1.54162e-08
1.54162e-08
-6.1375e-08
4.59588e-08
-1.23782e-07
6.2407e-08
-1.8708e-07
6.32986e-08
-2.38514e-07
5.14337e-08
-2.71462e-07
3.29479e-08
-2.85858e-07
1.43957e-08
-2.80677e-07
-5.18024e-09
-2.61222e-07
-1.9455e-08
-2.33278e-07
-2.79442e-08
-2.01386e-07
-3.18926e-08
-2.24253e-08
-1.7896e-07
-6.16477e-08
7.70638e-08
-1.89391e-07
1.73702e-07
-3.43855e-07
2.16871e-07
-4.91682e-07
2.11125e-07
-6.05226e-07
1.64978e-07
-6.71174e-07
9.88953e-08
-6.87342e-07
3.0564e-08
-6.62855e-07
-2.95745e-08
-6.1405e-07
-6.76341e-08
-5.54792e-07
-8.66106e-08
-4.87258e-07
-9.93523e-08
-7.27934e-08
-4.36498e-07
-9.42727e-08
1.71337e-07
-2.91247e-07
3.70677e-07
-5.24722e-07
4.50346e-07
-7.42281e-07
4.28684e-07
-8.96919e-07
3.19617e-07
-9.75058e-07
1.77034e-07
-9.8919e-07
4.4696e-08
-9.45049e-07
-7.26376e-08
-8.5496e-07
-1.52579e-07
-7.47363e-07
-1.98144e-07
-6.66567e-07
-1.86155e-07
-1.2529e-07
-6.07489e-07
-1.1946e-07
2.90796e-07
-3.63128e-07
6.14345e-07
-6.55182e-07
7.424e-07
-9.30285e-07
7.03786e-07
-1.10204e-06
4.91377e-07
-1.16633e-06
2.41316e-07
-1.16727e-06
4.56395e-08
-1.09587e-06
-1.44035e-07
-9.8752e-07
-2.60932e-07
-8.53599e-07
-3.33377e-07
-7.25639e-07
-3.14115e-07
-2.58264e-07
-5.07264e-07
-1.13846e-07
4.04642e-07
-3.51566e-07
8.52065e-07
-6.43754e-07
1.03459e-06
-9.18247e-07
9.78279e-07
-9.25761e-07
4.63421e-07
-8.323e-07
1.0535e-07
-8.21719e-07
1.36627e-08
-8.81275e-07
-3.59574e-08
-9.29995e-07
-1.72496e-07
-8.32909e-07
-4.05456e-07
-7.37253e-07
-4.09771e-07
-3.64503e-07
-6.31014e-07
-7.03152e-08
4.74957e-07
-2.26777e-07
1.00853e-06
-4.1598e-07
1.22379e-06
-4.21334e-07
9.25571e-07
-1.13344e-07
1.85709e-08
-1.33148e-08
2.51377e-12
3.62955e-11
1.47617e-18
-3.59211e-08
-2.29644e-17
-1.34755e-07
-5.08036e-17
-3.64672e-07
-8.30838e-09
-5.46331e-07
-1.02194e-07
-2.6983e-07
-5.79906e-07
-8.99966e-09
4.83957e-07
-3.94979e-08
1.03902e-06
-6.13018e-08
1.23867e-06
5.71885e-09
6.81409e-07
-2.51373e-12
1.69302e-09
-7.61431e-18
5.63256e-17
-1.64759e-17
1.78904e-17
-2.31246e-17
-8.51105e-18
-3.37734e-17
-2.21476e-17
-8.30838e-09
-2.29096e-17
-6.52372e-08
-3.15876e-17
-3.02094e-17
-1.41999e-07
4.56153e-08
4.38341e-07
1.51154e-07
9.33486e-07
3.11534e-07
1.07829e-06
1.48077e-07
6.61298e-07
1.01055e-16
8.66066e-08
6.30859e-17
8.21333e-17
2.97992e-17
4.05461e-17
1.08796e-17
6.44577e-18
-5.91829e-18
-5.05217e-18
-1.82536e-17
-6.40409e-18
-2.70001e-17
-1.80722e-17
-2.69802e-17
-3.49981e-17
5.77393e-08
3.80602e-07
2.41065e-07
7.5016e-07
4.84484e-07
8.3487e-07
4.80845e-07
5.78645e-07
2.65479e-08
3.42947e-07
1.07895e-16
2.65479e-08
7.68678e-17
5.52513e-17
6.01504e-17
1.09517e-17
4.13813e-17
7.49538e-18
1.32671e-17
1.90501e-17
-6.2201e-18
1.15711e-18
-1.79248e-17
-1.4715e-17
6.0758e-08
3.19844e-07
2.89092e-07
5.21827e-07
5.66096e-07
5.57866e-07
8.71723e-07
2.73017e-07
5.35113e-07
5.0449e-07
4.65196e-08
2.81586e-07
9.85346e-17
4.65196e-08
1.1342e-16
1.50634e-18
8.48392e-17
1.83886e-17
6.43142e-17
4.42874e-17
3.95586e-17
2.49438e-17
-7.29251e-18
2.77526e-17
1.72268e-07
1.47577e-07
5.03499e-07
1.90595e-07
7.84359e-07
2.77007e-07
1.06674e-06
-9.36686e-09
1.07438e-06
4.96848e-07
9.60004e-07
1.98251e-07
1.65486e-07
4.28979e-07
3.87714e-08
-1.5774e-07
1.30404e-08
-3.92031e-08
-6.09623e-12
1.30465e-08
3.9106e-09
7.22384e-08
3.9106e-09
1.17044e-16
2.19614e-07
-2.03048e-17
5.02654e-07
-2.26712e-18
9.82255e-07
-6.63582e-20
1.51801e-06
-8.4981e-20
1.42923e-06
5.85628e-07
1.60216e-06
2.53225e-08
1.5018e-06
4.3219e-07
1.42169e-06
-1.69775e-07
1.36714e-06
-3.08613e-07
1.33996e-06
8.06979e-09
1.77023e-06
3.49523e-08
1.39382e-06
2.67366e-07
-1.67224e-07
-1.18003e-08
-1.40789e-07
-2.64349e-08
-1.31554e-07
-9.23456e-09
-1.3518e-07
3.62616e-09
-1.31096e-07
-3.96637e-09
-1.17192e-07
-1.38603e-08
-9.32719e-08
-2.39205e-08
-6.93023e-08
-2.4015e-08
-5.08736e-08
-1.84383e-08
-3.58222e-08
-1.50519e-08
-1.50714e-08
-2.07508e-08
-1.50713e-08
-4.05555e-07
-2.89494e-08
-3.78969e-07
-3.21781e-08
-3.96329e-07
4.90416e-09
-4.18722e-07
2.48681e-08
-3.9121e-07
-4.1304e-08
-3.41399e-07
-7.10868e-08
-2.74196e-07
-9.11229e-08
-2.09788e-07
-8.77418e-08
-1.55636e-07
-7.25895e-08
-1.0815e-07
-6.25378e-08
-4.58971e-08
-8.30041e-08
-6.09693e-08
-3.85899e-07
-3.32323e-08
-3.6679e-07
-5.12498e-08
-3.55462e-07
-6.35666e-09
-5.29305e-07
9.9067e-09
-5.03876e-07
-6.67325e-08
-4.45553e-07
-1.2941e-07
-3.61717e-07
-1.74958e-07
-2.55056e-07
-1.86792e-07
-2.00299e-07
-1.17612e-07
-1.84783e-07
-6.71405e-08
-9.64556e-08
-1.70731e-07
-1.57425e-07
-3.76067e-07
-6.62566e-08
-3.20101e-07
-1.07142e-07
-3.41762e-07
1.53777e-08
-5.47644e-07
1.30017e-08
-5.34617e-07
-7.97597e-08
-4.97398e-07
-1.66629e-07
-4.34889e-07
-2.37468e-07
-3.29514e-07
-2.8407e-07
-1.53135e-07
-2.51962e-07
-9.47489e-08
-1.34089e-07
-6.68016e-08
-1.73899e-07
-2.04768e-07
-4.30858e-07
-2.5155e-07
-3.64701e-07
-7.24821e-08
-5.3918e-07
1.35383e-07
-5.75091e-07
-6.42078e-08
-5.07386e-07
-1.47464e-07
-4.77657e-07
-1.96358e-07
-4.56187e-07
-2.58937e-07
-4.058e-07
-3.34457e-07
-2.94297e-07
-3.72938e-07
-1.30161e-07
-3.12221e-07
-1.52118e-08
-2.67058e-07
-1.9849e-07
-4.0487e-07
-4.04532e-07
-2.68477e-07
-2.05203e-07
-1.30506e-07
1.57746e-08
-1.468e-07
-5.80224e-08
-2.03705e-07
-9.05588e-08
-2.76042e-07
-1.24022e-07
-3.51292e-07
-1.83686e-07
-3.97321e-07
-2.88426e-07
-3.80725e-07
-3.89532e-07
-2.437e-07
-4.49248e-07
-8.2333e-08
-4.65061e-07
-2.80823e-07
-2.99486e-07
-1.21266e-08
-2.85437e-07
-9.06255e-08
-6.5747e-08
-1.49348e-07
2.0421e-08
-1.30177e-07
1.01323e-08
-8.027e-08
-5.38217e-08
-6.00677e-08
-1.52083e-07
-8.54242e-08
-2.33278e-07
-2.07233e-07
-2.57861e-07
-3.64951e-07
-1.75213e-07
-5.296e-07
-1.97344e-08
-6.26481e-07
-3.68528e-07
-1.21266e-08
-2.97082e-17
-5.61058e-08
-3.09865e-17
-5.05452e-08
-3.00123e-17
1.91561e-09
-2.63611e-09
1.02781e-07
-4.6306e-08
1.20487e-07
-5.46144e-08
5.3355e-08
-1.82916e-08
-3.20108e-08
-1.21869e-07
-1.17378e-07
-2.79583e-07
-1.44009e-07
-5.01692e-07
-8.18988e-08
-6.95366e-07
-4.50419e-07
-1.80211e-17
-3.01635e-17
-1.84249e-17
-3.0608e-17
-1.50188e-17
-3.3393e-17
-2.63611e-09
-2.75602e-17
-5.44616e-10
-1.73238e-17
1.01577e-07
-1.09706e-17
1.66886e-07
-1.68868e-08
1.33064e-07
-8.80461e-08
3.1378e-08
-1.77898e-07
-9.10248e-08
-3.79897e-07
-6.33177e-08
-7.31523e-07
-5.01489e-07
1.8369e-17
-3.05088e-17
1.11069e-17
-3.5119e-17
9.24131e-18
-4.67227e-17
9.79863e-18
-3.18527e-17
5.80213e-18
-1.33272e-17
6.82227e-18
-1.19908e-17
2.74499e-08
-8.35592e-10
1.6811e-07
-7.19112e-08
1.78314e-07
-1.58584e-07
2.53077e-08
-2.27518e-07
-3.77621e-09
-7.11562e-07
-5.05265e-07
1.13328e-16
-1.02482e-10
9.13673e-17
-2.88777e-17
7.74507e-17
-6.1157e-17
4.89281e-17
-3.38889e-17
1.99823e-17
-1.80131e-18
3.70764e-18
8.66525e-18
-8.35592e-10
1.34269e-17
4.15016e-08
-2.87633e-08
2.6759e-07
-8.78193e-08
2.98952e-07
-1.02176e-07
2.63122e-07
-6.58292e-07
-2.56964e-07
7.22548e-07
3.34934e-07
6.47842e-07
8.94554e-09
5.00271e-07
-2.31577e-07
5.78939e-08
-2.99119e-07
7.05464e-17
5.78939e-08
2.65297e-17
5.2685e-17
1.76397e-17
2.23139e-17
4.44358e-08
-4.05658e-08
2.3628e-07
-1.06191e-07
9.87081e-07
-2.04179e-07
1.22218e-06
-4.70196e-07
9.65221e-07
3.92686e-06
-1.76841e-07
-4.0652e-06
3.86345e-06
-2.48482e-07
3.80191e-06
-3.53496e-07
3.50596e-06
-5.50703e-07
3.1641e-06
-5.45139e-07
3.5822e-06
-2.69284e-07
4.54991e-06
-1.36347e-07
5.09485e-06
-1.98869e-09
4.96104e-06
1.61268e-07
4.75956e-06
8.44422e-08
4.47703e-06
1.94754e-07
2.80266e-07
3.57888e-06
5.32108e-06
-3.02964e-07
-5.1585e-06
5.38629e-06
-3.16005e-07
5.39607e-06
-3.60969e-07
5.39352e-06
-5.54259e-07
3.87145e-06
-7.61837e-07
3.29244e-06
-6.58473e-07
3.54307e-06
-3.91932e-07
3.64418e-06
-9.814e-08
5.79821e-06
2.74316e-07
5.52833e-06
3.54856e-07
4.89437e-06
4.78731e-07
6.43617e-07
4.50872e-06
6.21232e-06
-6.12299e-07
-3.48412e-06
6.3508e-06
-4.52071e-07
6.36374e-06
-3.95578e-07
6.52327e-06
-6.44573e-07
6.61803e-06
-8.00457e-07
6.19317e-06
-6.62367e-07
3.89988e-06
-4.43077e-07
4.66005e-06
3.41451e-08
6.24609e-06
2.73543e-07
6.11685e-06
4.81612e-07
5.79457e-06
7.4387e-07
9.68974e-07
5.47801e-06
6.61348e-06
-6.87728e-06
-5.94007e-07
5.97777e-06
-5.72935e-07
6.06732e-06
-6.27592e-07
6.95428e-06
-7.56486e-07
7.06442e-06
-7.09632e-07
6.97246e-06
-5.70405e-07
6.89605e-06
-3.66667e-07
6.60749e-06