/*--------------------------------*- C++ -*----------------------------------*\
| =========                 |                                                 |
| \\      /  F ield         | OpenFOAM: The Open Source CFD Toolbox           |
|  \\    /   O peration     | Version:  2.4.0                                 |
|   \\  /    A nd           | Web:      www.OpenFOAM.org                      |
|    \\/     M anipulation  |                                                 |
\*---------------------------------------------------------------------------*/
FoamFile
{
    version     2.0;
    format      ascii;
    class       volVectorField;
    location    "1";
    object      U;
}
// * * * * * * * * * * * * * * * * * * * * * * * * * * * * * * * * * * * * * //

dimensions      [0 1 -1 0 0 0 0];

internalField   nonuniform List<vector> 
3072
(
(0.00639913 0.133596 0)
(0.0167463 0.133271 0)
(0.0263955 0.133011 -4.2683e-26)
(0.0359447 0.132497 -1.09052e-26)
(0.04556 0.131591 5.62556e-27)
(0.055193 0.130228 -3.56869e-26)
(0.0644567 0.128488 -3.56255e-26)
(0.0710113 0.12666 3.2397e-26)
(0.0789323 0.122712 1.53421e-26)
(0.0856941 0.118689 -3.20081e-25)
(0.0963353 0.111109 -8.54463e-26)
(0.103393 0.105633 -1.66941e-25)
(0.00543813 0.14958 8.81276e-27)
(0.0166785 0.150134 -2.00209e-27)
(0.0279226 0.150765 -3.46193e-26)
(0.0390317 0.15104 0)
(0.0498737 0.150684 -1.17584e-26)
(0.0602624 0.149389 7.27786e-26)
(0.070165 0.146864 0)
(0.0792864 0.144702 0)
(0.0921087 0.14096 0)
(0.104124 0.139607 -4.64535e-25)
(0.115931 0.136372 -8.43923e-26)
(0.12139 0.132165 7.32882e-26)
(0.00818824 0.165129 8.82982e-27)
(0.0225713 0.166066 0)
(0.0360822 0.167155 0)
(0.0491966 0.168149 1.15253e-25)
(0.0622267 0.168978 4.81945e-26)
(0.0756453 0.169815 1.9249e-25)
(0.0905521 0.17147 2.54998e-25)
(0.101846 0.171106 0)
(0.117533 0.166047 0)
(0.127723 0.161236 -2.63315e-25)
(0.133835 0.155172 -1.02529e-25)
(0.140135 0.149319 3.65791e-25)
(0.0103376 0.18088 1.99761e-28)
(0.0275609 0.18183 5.76702e-26)
(0.0432297 0.182747 1.78366e-26)
(0.0581875 0.183301 1.28004e-25)
(0.0727936 0.183238 1.34294e-26)
(0.0870503 0.182072 1.85896e-25)
(0.100394 0.179066 1.97052e-25)
(0.109801 0.17764 1.51761e-25)
(0.123426 0.171874 -3.16547e-25)
(0.132847 0.167095 -1.25383e-25)
(0.142796 0.16425 -5.76354e-25)
(0.151938 0.159684 -6.0311e-26)
(0.0125642 0.196606 0)
(0.0324381 0.19766 4.96561e-26)
(0.0499785 0.198322 1.03931e-25)
(0.066434 0.198252 -4.35878e-26)
(0.082321 0.197421 -2.97042e-25)
(0.0974154 0.196528 2.4619e-25)
(0.109523 0.193629 2.71739e-25)
(0.121476 0.189436 2.88091e-25)
(0.134295 0.185816 1.3248e-25)
(0.145858 0.179414 1.34108e-25)
(0.153637 0.173574 -2.26811e-25)
(0.162286 0.167092 -4.79391e-25)
(0.0149541 0.212407 1.96935e-27)
(0.0371299 0.213888 1.10747e-26)
(0.0558874 0.214268 1.40106e-34)
(0.0730682 0.212992 0)
(0.0899265 0.209865 -1.75743e-25)
(0.105987 0.207388 -1.01343e-25)
(0.114292 0.205455 0)
(0.127076 0.197723 1.44579e-25)
(0.138968 0.192513 2.00841e-25)
(0.150391 0.185771 0)
(0.158521 0.179414 -5.50773e-25)
(0.167982 0.171897 -1.00837e-24)
(0.0179512 0.228386 0)
(0.0420442 0.230981 1.2197e-25)
(0.0608819 0.231326 -3.83113e-25)
(0.0767321 0.228616 0)
(0.0916123 0.221523 2.93324e-26)
(0.105193 0.210082 -7.3489e-25)
(0.112864 0.203356 -1.80355e-26)
(0.127019 0.196692 4.95103e-26)
(0.141599 0.190961 -6.0221e-27)
(0.154342 0.187638 -5.44837e-25)
(0.16302 0.183433 -1.2382e-25)
(0.169716 0.175231 -6.0206e-25)
(0.0222499 0.244636 0)
(0.047863 0.249128 1.35623e-25)
(0.065888 0.249699 -2.86811e-25)
(0.0792519 0.246822 -3.00955e-25)
(0.0910573 0.239039 0)
(0.102725 0.224749 -6.0147e-25)
(0.116099 0.212 1.51916e-25)
(0.136193 0.206386 -2.0314e-26)
(0.150912 0.200809 -3.1245e-26)
(0.157625 0.19128 1.07419e-25)
(0.162247 0.184003 6.25439e-25)
(0.167412 0.176434 3.7648e-26)
(0.0283953 0.260975 0)
(0.0540599 0.266915 1.48029e-25)
(0.0699524 0.265595 3.10133e-25)
(0.0798587 0.261434 -3.25432e-25)
(0.0878517 0.252335 -6.92635e-25)
(0.0983549 0.238973 0)
(0.122176 0.224159 0)
(0.147846 0.217379 0)
(0.153504 0.21269 0)
(0.154338 0.198301 5.34115e-25)
(0.157297 0.185617 6.31723e-26)
(0.161806 0.174866 6.99531e-26)
(0.0360466 0.277011 0)
(0.0580384 0.281509 1.5482e-25)
(0.069877 0.272994 6.20942e-25)
(0.0763125 0.264714 -5.51386e-25)
(0.0825536 0.253776 -1.20302e-24)
(0.0947483 0.242767 7.0456e-25)
(0.12045 0.226643 0)
(0.138634 0.207761 3.28204e-25)
(0.136669 0.199475 9.20841e-25)
(0.139978 0.191736 0)
(0.145171 0.180443 -1.02436e-24)
(0.151029 0.168864 2.80263e-26)
(0.0433221 0.289832 0)
(0.0524821 0.283997 -1.51874e-25)
(0.0578735 0.261817 -1.81924e-34)
(0.0608798 0.246763 -5.30641e-25)
(0.0650525 0.231196 -4.37682e-25)
(0.0758189 0.215171 6.36062e-26)
(0.0997776 0.198416 4.50244e-25)
(0.116949 0.183638 5.6244e-25)
(0.117376 0.177128 5.20011e-25)
(0.120667 0.171955 7.42163e-25)
(0.126735 0.163917 -7.81417e-25)
(0.134366 0.154998 -8.72883e-25)
(0.0117353 0.268111 7.25989e-26)
(0.0215669 0.251677 3.12785e-25)
(0.0310226 0.221793 -4.60255e-25)
(0.0374334 0.206548 0)
(0.042024 0.193542 0)
(0.0513761 0.176887 -6.96656e-25)
(0.0758215 0.156388 -2.52922e-25)
(0.0941427 0.143243 -4.82613e-25)
(0.0921714 0.141176 0)
(0.0935475 0.138247 5.71282e-25)
(0.100564 0.134258 0)
(0.111768 0.130944 -1.83406e-24)
(0.108921 0.0984597 1.19857e-25)
(0.113403 0.0901104 3.41812e-27)
(0.116873 0.0811617 4.51543e-26)
(0.118903 0.0719389 1.45335e-25)
(0.120912 0.0613647 4.91834e-26)
(0.126733 0.0493407 0)
(0.129509 0.0454102 0)
(0.132821 0.0349296 -4.44007e-26)
(0.135023 0.0295422 -6.84793e-26)
(0.136581 0.0210216 0)
(0.136585 0.0129667 0)
(0.134603 0.00480695 6.85285e-27)
(0.127203 0.126188 -8.5091e-36)
(0.132407 0.118083 0)
(0.135517 0.1085 4.05606e-25)
(0.136392 0.0980989 2.13084e-25)
(0.137178 0.0839343 1.09519e-25)
(0.138477 0.0629343 9.64932e-26)
(0.136437 0.0548445 2.77942e-26)
(0.13685 0.0410609 9.20741e-27)
(0.13911 0.0307752 0)
(0.144587 0.0225174 0)
(0.147543 0.0187919 0)
(0.149352 0.0103093 -1.47336e-26)
(0.146483 0.143258 -3.12815e-25)
(0.151244 0.136151 1.80224e-25)
(0.154139 0.128064 2.42512e-25)
(0.155555 0.118839 2.23582e-26)
(0.157226 0.106592 -5.17361e-26)
(0.157333 0.0871548 0)
(0.153439 0.0715596 0)
(0.150404 0.0543431 2.26132e-25)
(0.152352 0.0298281 -2.50685e-27)
(0.150235 0.0228017 0)
(0.152176 0.0103979 0)
(0.161984 0.00331671 -8.91384e-27)
(0.159125 0.154701 -5.3362e-25)
(0.164157 0.148963 3.23157e-25)
(0.167145 0.142222 7.52042e-27)
(0.168701 0.133855 -8.84716e-27)
(0.169525 0.122376 0)
(0.169151 0.105926 -2.30998e-25)
(0.167809 0.0873553 0)
(0.171083 0.0681032 -1.11947e-25)
(0.170403 0.043995 -5.72844e-26)
(0.168983 0.0325529 0)
(0.176295 0.00660565 2.08055e-26)
(0.180405 -0.00177234 -1.83781e-26)
(0.168476 0.162263 -5.68423e-25)
(0.172507 0.157244 0)
(0.174811 0.151831 0)
(0.175745 0.145105 0)
(0.17556 0.135602 0)
(0.173797 0.121386 -3.10812e-36)
(0.171117 0.101516 2.90348e-25)
(0.167731 0.0750905 -2.55984e-25)
(0.169806 0.0493308 0)
(0.183486 0.0236182 9.25391e-26)
(0.1944 0.00302459 3.63356e-26)
(0.196742 -0.00337197 -5.26373e-26)
(0.173041 0.166822 5.40039e-25)
(0.176433 0.161769 5.36757e-25)
(0.178631 0.157198 2.29413e-26)
(0.180041 0.15225 8.32924e-26)
(0.180919 0.145728 -5.12977e-25)
(0.180671 0.1355 4.49182e-25)
(0.179708 0.11832 5.55812e-25)
(0.177935 0.0892253 1.1336e-25)
(0.183028 0.0504806 1.89892e-25)
(0.19341 0.0149602 5.87116e-26)
(0.202964 -0.00310959 7.24863e-26)
(0.210304 -0.00631717 2.77834e-36)
(0.17312 0.168179 6.17162e-25)
(0.176538 0.162801 -3.97894e-26)
(0.179018 0.158272 0)
(0.181516 0.153949 0)
(0.184835 0.149496 -5.21138e-25)
(0.188235 0.143444 1.38363e-25)
(0.191585 0.131345 -5.13315e-25)
(0.193195 0.103569 4.23797e-25)
(0.199407 0.0555252 1.94152e-25)
(0.20789 0.013059 0)
(0.217681 -0.00919293 1.3357e-25)
(0.22551 -0.011328 3.7561e-26)
(0.171557 0.169382 -7.73363e-26)
(0.174526 0.162836 -5.61922e-25)
(0.176557 0.157112 -5.75624e-25)
(0.179821 0.151352 -2.29049e-26)
(0.185833 0.146303 -8.73007e-26)
(0.194105 0.142695 -8.0686e-25)
(0.203981 0.136596 -7.7157e-25)
(0.211787 0.115668 -3.90319e-25)
(0.219046 0.0645511 0)
(0.224039 0.0133435 1.40819e-26)
(0.23411 -0.0152428 9.63883e-27)
(0.241188 -0.016578 2.36724e-26)
(0.165846 0.167203 -1.81329e-26)
(0.169132 0.161113 -5.18186e-26)
(0.171616 0.155327 -5.43466e-25)
(0.175394 0.147285 5.96816e-25)
(0.183485 0.138164 4.07454e-26)
(0.196385 0.132598 -7.11978e-25)
(0.214616 0.129342 0)
(0.235742 0.118748 -4.52926e-25)
(0.24807 0.0773345 0)
(0.247741 0.0176978 0)
(0.252062 -0.0189924 0)
(0.257344 -0.0201924 1.83659e-26)
(0.156458 0.160526 1.79365e-26)
(0.161778 0.155977 9.50382e-25)
(0.165559 0.152715 -9.77151e-25)
(0.169934 0.144802 -4.87608e-25)
(0.178896 0.130324 9.90364e-26)
(0.192676 0.117296 0)
(0.215574 0.110247 0)
(0.245721 0.107656 -8.76105e-25)
(0.265404 0.0853065 0)
(0.26677 0.0269087 -3.12173e-26)
(0.266975 -0.0199821 7.21834e-26)
(0.273176 -0.0224082 -1.74004e-26)
(0.143031 0.147765 9.02027e-25)
(0.151906 0.145098 8.08877e-25)
(0.158278 0.146119 -8.40957e-25)
(0.164843 0.142907 7.55851e-26)
(0.175827 0.127886 1.04158e-24)
(0.186716 0.105317 -7.00048e-25)
(0.208013 0.0855836 6.34238e-25)
(0.244617 0.0826558 -6.5288e-25)
(0.277291 0.081123 0)
(0.283775 0.0426192 -4.26796e-25)
(0.282357 -0.021356 7.23888e-27)
(0.287492 -0.0257097 -2.18583e-26)
(0.125055 0.12698 1.85989e-24)
(0.138345 0.125986 0)
(0.147922 0.130399 0)
(0.159254 0.134049 1.06596e-24)
(0.177437 0.128104 1.08972e-24)
(0.186217 0.106508 -4.83454e-25)
(0.196117 0.0687703 1.09491e-24)
(0.229335 0.0491226 2.2445e-25)
(0.262172 0.0593269 -1.80587e-25)
(0.285001 0.0439934 -3.87017e-25)
(0.290746 -0.0197463 0)
(0.289574 -0.0328232 -2.82087e-26)
(0.1334 -0.00587212 2.38158e-27)
(0.132201 -0.0154109 0)
(0.130553 -0.0242259 4.3645e-26)
(0.128442 -0.0327885 0)
(0.125963 -0.0412635 8.90221e-27)
(0.123214 -0.0497169 3.45684e-27)
(0.120203 -0.0582067 0)
(0.116943 -0.0667398 -2.01104e-26)
(0.113474 -0.0753676 -3.58263e-26)
(0.109789 -0.0841427 -4.5632e-26)
(0.105834 -0.0930838 1.59364e-25)
(0.101513 -0.102136 1.66566e-25)
(0.149425 -0.00381766 -1.06447e-26)
(0.148785 -0.012838 -2.78274e-27)
(0.147543 -0.0225065 4.30072e-26)
(0.145731 -0.0325156 0)
(0.143582 -0.0428187 -8.62334e-27)
(0.141243 -0.0535152 4.08616e-27)
(0.138761 -0.0646938 0)
(0.136189 -0.0764187 -1.87735e-25)
(0.133492 -0.0887314 1.98065e-25)
(0.130599 -0.101615 3.32195e-26)
(0.127406 -0.114922 4.3329e-25)
(0.123792 -0.128313 2.03495e-25)
(0.164909 -0.00514245 -9.66773e-27)
(0.164483 -0.0158877 0)
(0.163595 -0.0272189 8.59478e-26)
(0.162193 -0.0391239 0)
(0.16024 -0.0516076 0)
(0.157794 -0.0647821 -1.78555e-25)
(0.155008 -0.0786975 2.55727e-26)
(0.151927 -0.0933709 -2.61999e-25)
(0.148543 -0.108751 2.19769e-25)
(0.144835 -0.124651 0)
(0.140791 -0.140687 -4.22316e-35)
(0.136446 -0.156261 2.63726e-25)
(0.180804 -0.00592694 -2.25756e-26)
(0.180969 -0.0183211 -4.96561e-26)
(0.180756 -0.0312801 1.01466e-25)
(0.179789 -0.0449288 -1.44629e-27)
(0.177868 -0.0594621 -2.08031e-26)
(0.175034 -0.0749547 -2.23675e-25)
(0.171422 -0.0913459 0)
(0.167099 -0.108458 0)
(0.162118 -0.126078 -2.56636e-25)
(0.156604 -0.143845 0)
(0.150758 -0.161208 -5.70972e-25)
(0.14488 -0.177479 2.98056e-25)
(0.196656 -0.00762643 -2.33323e-26)
(0.197723 -0.0222869 -1.12623e-25)
(0.198393 -0.0369078 1.13887e-25)
(0.197883 -0.0519458 0)
(0.195802 -0.0678785 0)
(0.192199 -0.0849354 -2.58387e-25)
(0.187281 -0.102921 0)
(0.181121 -0.121362 8.01096e-26)
(0.173807 -0.139901 -5.25375e-26)
(0.165663 -0.158106 1.47607e-25)
(0.157169 -0.175349 -2.00769e-25)
(0.14892 -0.191033 1.34704e-25)
(0.212595 -0.0101707 2.67224e-26)
(0.214858 -0.0274821 -5.96543e-26)
(0.216474 -0.0434567 1.26252e-25)
(0.216297 -0.0592161 -2.45283e-25)
(0.213756 -0.0757499 4.50441e-26)
(0.209047 -0.0935803 -1.14962e-34)
(0.202598 -0.112338 -6.96345e-26)
(0.194408 -0.131041 -7.31694e-25)
(0.18441 -0.149215 0)
(0.173103 -0.166627 0)
(0.161337 -0.182573 -7.60044e-25)
(0.149947 -0.196694 -2.39885e-25)
(0.228587 -0.0137255 7.66791e-28)
(0.232221 -0.0338652 1.36749e-25)
(0.234498 -0.0505131 0)
(0.234171 -0.0660207 -2.95266e-25)
(0.230632 -0.0822408 -3.14285e-25)
(0.224524 -0.100187 -3.28725e-25)
(0.216761 -0.119221 -6.55936e-25)
(0.207086 -0.137429 -1.26567e-24)
(0.194772 -0.154073 7.50495e-25)
(0.180255 -0.169808 1.62998e-25)
(0.165005 -0.183606 -1.40048e-24)
(0.149887 -0.195478 -7.85436e-25)
(0.244551 -0.0182395 -5.79102e-26)
(0.249386 -0.0409268 1.32491e-25)
(0.251359 -0.0570578 0)
(0.249678 -0.0710729 3.15011e-25)
(0.24403 -0.0861637 -3.38159e-25)
(0.236051 -0.104006 -7.89285e-25)
(0.227643 -0.123434 -7.84229e-25)
(0.218068 -0.14104 -6.95592e-25)
(0.204989 -0.155031 5.02916e-25)
(0.187962 -0.168688 -6.17786e-25)
(0.169826 -0.179899 -1.10612e-24)
(0.150808 -0.189069 -4.91939e-25)
(0.260293 -0.0234172 -2.4329e-26)
(0.265525 -0.0475749 1.22884e-25)
(0.265308 -0.0612145 2.43425e-25)
(0.260136 -0.0721844 3.17799e-25)
(0.250293 -0.0855572 0)
(0.239139 -0.103777 0)
(0.230572 -0.124438 -7.26823e-25)
(0.223496 -0.142357 -5.9007e-25)
(0.212895 -0.152194 -1.25435e-25)
(0.19503 -0.164032 -5.76906e-25)
(0.176111 -0.17291 -5.552e-25)
(0.154105 -0.179115 0)
(0.27544 -0.0284713 -5.01577e-26)
(0.279035 -0.0520483 1.48777e-25)
(0.274019 -0.0601878 4.18501e-34)
(0.263212 -0.0663074 0)
(0.246693 -0.0780584 -6.16766e-25)
(0.229229 -0.097616 0)
(0.218611 -0.120242 -5.87861e-25)
(0.215375 -0.140852 -3.41064e-25)
(0.212071 -0.143934 -1.15083e-24)
(0.196049 -0.154942 0)
(0.18063 -0.162956 0)
(0.15899 -0.166252 1.08268e-24)
(0.288227 -0.0304556 3.16409e-34)
(0.284796 -0.0500375 -1.08974e-25)
(0.27225 -0.0485425 -4.8083e-25)
(0.256159 -0.0483308 5.30629e-25)
(0.236326 -0.057474 -6.03425e-25)
(0.212183 -0.0781743 -8.83059e-26)
(0.191854 -0.103391 7.39169e-25)
(0.184907 -0.132988 1.4985e-25)
(0.1911 -0.124794 -4.00115e-25)
(0.180544 -0.137774 9.64002e-25)
(0.174905 -0.14818 -6.35412e-25)
(0.161275 -0.148595 1.07117e-24)
(0.288126 -0.0132731 -8.32663e-26)
(0.270098 -0.034541 -9.54327e-26)
(0.248641 -0.0320403 -3.69936e-25)
(0.234474 -0.0325037 4.30414e-25)
(0.21872 -0.0441302 0)
(0.197166 -0.0673976 4.16473e-25)
(0.177168 -0.0973276 4.38295e-25)
(0.155872 -0.114348 1.84063e-25)
(0.147818 -0.0965873 5.43989e-25)
(0.14115 -0.117628 5.90731e-25)
(0.148211 -0.13321 4.85375e-26)
(0.153141 -0.126085 0)
(0.0966933 -0.111129 -6.18924e-26)
(0.0912265 -0.119753 -1.54845e-26)
(0.0849854 -0.127577 1.67736e-25)
(0.0779042 -0.134153 1.43078e-26)
(0.0699312 -0.139117 -1.78879e-26)
(0.0609615 -0.142004 5.52411e-26)
(0.0512599 -0.142552 -2.22127e-26)
(0.0411383 -0.141236 2.52383e-26)
(0.0308115 -0.138774 2.68417e-27)
(0.0205283 -0.136094 0)
(0.010707 -0.134096 0)
(0.00227041 -0.133357 3.71481e-27)
(0.119649 -0.141236 7.26768e-26)
(0.114886 -0.152968 5.7571e-26)
(0.109429 -0.16274 5.08113e-25)
(0.103166 -0.169852 0)
(0.0959136 -0.173827 -1.23476e-25)
(0.0875389 -0.17475 0)
(0.0779129 -0.172817 -7.79663e-36)
(0.0666857 -0.168489 1.25467e-25)
(0.0536037 -0.162677 2.52014e-26)
(0.038707 -0.156618 0)
(0.0226658 -0.151711 0)
(0.00685979 -0.149251 1.51669e-26)
(0.131894 -0.170607 2.30057e-25)
(0.127247 -0.182925 -3.53775e-25)
(0.122559 -0.192541 2.83254e-25)
(0.11775 -0.199012 0)
(0.112558 -0.202139 -2.72631e-25)
(0.10655 -0.201988 3.58911e-26)
(0.0989056 -0.198863 1.95139e-25)
(0.088636 -0.193178 1.02146e-25)
(0.0746887 -0.185596 -1.60668e-25)
(0.056357 -0.177204 0)
(0.0341468 -0.169597 -4.28602e-26)
(0.010451 -0.1653 8.49185e-27)
(0.139354 -0.191922 3.06809e-25)
(0.134534 -0.203898 -1.48603e-34)
(0.130605 -0.212994 -1.65585e-26)
(0.127481 -0.21906 -3.19604e-26)
(0.124762 -0.222135 0)
(0.121735 -0.222355 -2.90074e-25)
(0.117268 -0.219841 6.12816e-25)
(0.109774 -0.214697 2.62877e-25)
(0.097242 -0.207094 -1.77968e-25)
(0.077534 -0.197647 0)
(0.0497687 -0.187808 -1.28773e-25)
(0.0163307 -0.181309 -8.23964e-27)
(0.141623 -0.204611 -6.69769e-26)
(0.135889 -0.215687 2.45311e-25)
(0.13204 -0.224113 0)
(0.130014 -0.229978 0)
(0.12937 -0.2335 -3.0651e-25)
(0.129302 -0.234887 -3.008e-25)
(0.12857 -0.234182 5.92932e-25)
(0.125279 -0.231229 0)
(0.116642 -0.225618 -1.43236e-25)
(0.0987379 -0.217166 -1.36967e-25)
(0.0678752 -0.20645 -5.54856e-35)
(0.0241304 -0.197672 2.62136e-26)
(0.140027 -0.208722 -4.28245e-26)
(0.132495 -0.218489 6.61281e-26)
(0.127841 -0.226015 -6.21421e-25)
(0.126024 -0.23155 3.79776e-26)
(0.126571 -0.235471 3.26654e-25)
(0.128675 -0.238159 6.02984e-25)
(0.131207 -0.239755 6.06722e-25)
(0.132369 -0.240093 0)
(0.12919 -0.238346 0)
(0.116309 -0.233491 -1.57246e-25)
(0.0864492 -0.224525 2.28198e-25)
(0.0338102 -0.214441 3.29052e-26)
(0.136523 -0.205568 -5.24597e-26)
(0.126312 -0.213858 5.79532e-25)
(0.119999 -0.220377 -6.09551e-25)
(0.117519 -0.22542 6.45007e-25)
(0.118268 -0.229479 6.79563e-25)
(0.121374 -0.233158 7.07777e-25)
(0.12586 -0.236824 -2.44202e-25)
(0.130337 -0.240607 6.56714e-26)
(0.13244 -0.243614 7.07808e-26)
(0.126416 -0.244454 0)
(0.102103 -0.24037 1.80064e-25)
(0.0445318 -0.231541 4.0968e-26)
(0.133253 -0.197128 0)
(0.119499 -0.204128 5.93798e-25)
(0.110788 -0.209837 0)
(0.106967 -0.214435 5.01039e-25)
(0.107164 -0.218465 -8.72937e-26)
(0.11026 -0.222748 -5.88551e-25)
(0.11525 -0.227855 1.44693e-35)
(0.121132 -0.234418 0)
(0.126672 -0.241774 3.43832e-25)
(0.127024 -0.249043 4.92077e-26)
(0.111303 -0.25215 2.00209e-26)
(0.0545932 -0.248505 3.68512e-26)
(0.131922 -0.18534 -1.90676e-26)
(0.11383 -0.191656 -1.48612e-27)
(0.102098 -0.197092 5.22426e-25)
(0.0964175 -0.201513 -5.12084e-25)
(0.0955321 -0.205472 5.38458e-26)
(0.0979555 -0.210019 6.00054e-27)
(0.102366 -0.215872 5.53241e-25)
(0.107865 -0.224191 0)
(0.114253 -0.23455 3.36636e-25)
(0.118394 -0.247521 0)
(0.111413 -0.258466 -2.06188e-25)
(0.0613963 -0.26429 1.28615e-25)
(0.132749 -0.171395 0)
(0.110089 -0.178238 9.69125e-25)
(0.0951569 -0.184367 1.38511e-24)
(0.087355 -0.189057 -5.1554e-25)
(0.0850265 -0.192951 -1.18064e-26)
(0.0863077 -0.197398 4.77713e-25)
(0.0894831 -0.203222 0)
(0.0934208 -0.212137 0)
(0.0983065 -0.223652 0)
(0.102456 -0.240485 0)
(0.100919 -0.258248 -2.32418e-25)
(0.0609565 -0.277001 1.40106e-25)
(0.133263 -0.155265 2.64745e-26)
(0.107211 -0.164955 8.68069e-25)
(0.0900753 -0.173215 5.47905e-34)
(0.0805749 -0.178793 -8.49992e-25)
(0.0767795 -0.182616 -7.98097e-25)
(0.076671 -0.186533 -2.35392e-26)
(0.0782615 -0.191451 4.39169e-25)
(0.0801064 -0.19951 0)
(0.0820416 -0.209864 5.04973e-25)
(0.0824731 -0.227597 2.97092e-25)
(0.079741 -0.249409 2.07537e-25)
(0.0473202 -0.282582 1.96777e-34)
(0.129841 -0.135867 0)
(0.103019 -0.153052 0)
(0.0859654 -0.164985 2.60309e-34)
(0.0760499 -0.171821 -7.2894e-25)
(0.0713174 -0.175443 -7.2758e-25)
(0.0699134 -0.178257 0)
(0.0698625 -0.18128 3.80175e-25)
(0.0696915 -0.186632 0)
(0.0686241 -0.193025 7.37988e-25)
(0.0637724 -0.206874 1.8306e-25)
(0.0516139 -0.226988 1.45644e-25)
(0.00706714 -0.268273 4.51608e-27)
(-0.0058821 -0.133398 -7.53514e-38)
(-0.0153626 -0.132087 -2.19843e-27)
(-0.0240672 -0.130186 -1.24824e-28)
(-0.0324652 -0.127775 4.27123e-26)
(-0.0407352 -0.124999 0)
(-0.0489933 -0.121959 -4.35189e-26)
(-0.0572983 -0.118753 0)
(-0.0657023 -0.11539 -4.55935e-26)
(-0.0742524 -0.111901 -1.7283e-25)
(-0.0830302 -0.108301 -6.71333e-26)
(-0.0920788 -0.104531 -7.79418e-26)
(-0.101352 -0.100471 -1.0504e-25)
(-0.00358671 -0.149398 -2.74829e-26)
(-0.0121514 -0.148526 -4.07544e-27)
(-0.0214434 -0.146905 1.04676e-27)
(-0.0311714 -0.144652 8.11743e-26)
(-0.0412611 -0.141929 -1.03465e-26)
(-0.051729 -0.139021 1.18867e-28)
(-0.0627739 -0.136143 1.74067e-25)
(-0.0745127 -0.133329 -1.04492e-25)
(-0.0870223 -0.13059 -1.68125e-25)
(-0.1003 -0.12785 -2.30377e-25)
(-0.114189 -0.124984 -4.39357e-25)
(-0.128296 -0.121834 -6.33374e-27)
(-0.00465577 -0.164889 -1.94304e-26)
(-0.0145344 -0.164227 0)
(-0.0252014 -0.162876 0)
(-0.0366705 -0.160859 8.57745e-26)
(-0.0489905 -0.158318 0)
(-0.0621122 -0.155343 2.70735e-25)
(-0.0761395 -0.152018 1.89423e-25)
(-0.0911636 -0.148543 -2.3997e-26)
(-0.107174 -0.144984 1.18468e-25)
(-0.123966 -0.141347 -5.34607e-25)
(-0.141073 -0.137623 -2.02197e-25)
(-0.157751 -0.133818 3.38513e-25)
(-0.00527267 -0.180778 4.53533e-26)
(-0.0165033 -0.180765 4.95626e-26)
(-0.0286253 -0.180192 -1.0033e-25)
(-0.0417425 -0.178715 1.0246e-25)
(-0.0559957 -0.176201 0)
(-0.0714845 -0.172672 4.53857e-25)
(-0.0881706 -0.168275 6.66636e-26)
(-0.105988 -0.163245 0)
(-0.124719 -0.157798 4.36725e-25)
(-0.143906 -0.152149 -3.81812e-25)
(-0.162817 -0.146544 -7.81566e-26)
(-0.180513 -0.141281 -6.94403e-25)
(-0.00679338 -0.196661 5.01755e-26)
(-0.0200027 -0.197675 4.18636e-37)
(-0.0336441 -0.198132 -2.26792e-25)
(-0.0480778 -0.197267 0)
(-0.0636787 -0.194626 8.92754e-27)
(-0.0806152 -0.190166 2.86416e-25)
(-0.09889 -0.184047 0)
(-0.118311 -0.176631 2.72152e-25)
(-0.138459 -0.168361 3.81335e-25)
(-0.158649 -0.159758 1.42339e-25)
(-0.17797 -0.151403 0)
(-0.195425 -0.143918 -6.21284e-25)
(-0.0093226 -0.212635 2.81711e-26)
(-0.024992 -0.215049 -1.8501e-25)
(-0.0398967 -0.216676 -1.26162e-25)
(-0.0549142 -0.216418 2.75238e-25)
(-0.0709017 -0.213474 5.32703e-26)
(-0.0882052 -0.20778 -2.38191e-25)
(-0.106919 -0.19948 0)
(-0.126768 -0.1891 -2.99693e-25)
(-0.147164 -0.177344 1.11101e-25)
(-0.16724 -0.165098 1.54369e-25)
(-0.185961 -0.153325 -5.26607e-25)
(-0.202336 -0.142981 1.99012e-25)
(-0.0130694 -0.228695 2.87435e-26)
(-0.0314231 -0.232738 -1.22325e-25)
(-0.0470364 -0.235278 0)
(-0.0616689 -0.235356 2.68741e-25)
(-0.0769527 -0.231872 2.82966e-25)
(-0.0935259 -0.224856 2.99104e-25)
(-0.111639 -0.214352 5.09949e-25)
(-0.130947 -0.200966 -7.38485e-25)
(-0.150737 -0.185571 -1.50671e-25)
(-0.169984 -0.169408 6.34037e-25)
(-0.18754 -0.153853 -1.34543e-24)
(-0.202424 -0.14022 -1.06931e-25)
(-0.0180399 -0.244777 5.44002e-26)
(-0.0386692 -0.250191 -1.27256e-26)
(-0.0540401 -0.25249 0)
(-0.0672094 -0.252036 -3.10643e-25)
(-0.0808167 -0.247577 6.08655e-25)
(-0.0958493 -0.239401 6.00849e-25)
(-0.112724 -0.227294 7.41481e-25)
(-0.130972 -0.211713 2.20194e-25)
(-0.149751 -0.193388 8.69634e-25)
(-0.167917 -0.173741 1.46487e-24)
(-0.184196 -0.154528 -4.91043e-25)
(-0.197586 -0.137478 0)
(-0.0239881 -0.260691 5.66381e-26)
(-0.0452188 -0.266138 0)
(-0.0588521 -0.265439 0)
(-0.069554 -0.262653 -3.16173e-25)
(-0.0808294 -0.256451 3.25109e-25)
(-0.094138 -0.247355 6.59294e-25)
(-0.109635 -0.234904 0)
(-0.127061 -0.218889 -7.11221e-26)
(-0.144991 -0.199567 5.13402e-25)
(-0.162312 -0.178038 5.91906e-25)
(-0.177628 -0.1562 5.63987e-25)
(-0.189882 -0.136186 -1.08227e-24)
(-0.029953 -0.275914 -6.33e-26)
(-0.0480913 -0.277852 -2.59754e-26)
(-0.0580594 -0.269361 2.97381e-25)
(-0.0658387 -0.261791 6.07194e-25)
(-0.0753841 -0.252577 0)
(-0.0874611 -0.242789 6.01118e-25)
(-0.102122 -0.231382 6.54898e-25)
(-0.119088 -0.21744 6.17723e-25)
(-0.136905 -0.200299 -1.19686e-24)
(-0.154076 -0.17995 0)
(-0.169148 -0.157952 1.52427e-24)
(-0.180975 -0.136556 -9.75565e-25)
(-0.0324414 -0.287093 -5.34133e-27)
(-0.0417464 -0.277869 3.5463e-26)
(-0.047485 -0.256846 2.62369e-25)
(-0.0538667 -0.242611 5.51018e-25)
(-0.0629473 -0.230253 8.78484e-26)
(-0.0749841 -0.220634 5.88337e-25)
(-0.0899563 -0.211646 5.40959e-25)
(-0.107082 -0.202082 -4.98142e-25)
(-0.125484 -0.190077 -9.56498e-25)
(-0.143369 -0.174702 8.84708e-25)
(-0.159147 -0.156297 8.66702e-25)
(-0.171545 -0.136573 0)
(-0.00578632 -0.26787 -1.89972e-25)
(-0.0158089 -0.247718 -2.08937e-25)
(-0.0230889 -0.217761 2.29063e-26)
(-0.0325515 -0.200777 -3.24985e-25)
(-0.0436096 -0.188789 0)
(-0.0571167 -0.181045 2.82213e-25)
(-0.0734794 -0.175453 5.35205e-25)
(-0.0917294 -0.170865 -6.0541e-25)
(-0.111033 -0.16547 -4.86616e-26)
(-0.130122 -0.157695 6.3109e-25)
(-0.147279 -0.146431 -6.61405e-25)
(-0.161162 -0.132154 -6.80742e-25)
(-0.110663 -0.0959521 -5.75096e-26)
(-0.119663 -0.0907864 -1.77627e-25)
(-0.127857 -0.08481 8.51781e-26)
(-0.134727 -0.0779336 7.60055e-26)
(-0.139876 -0.070117 -7.46156e-26)
(-0.142837 -0.0612336 0)
(-0.143316 -0.0515444 2.25904e-26)
(-0.141821 -0.0413859 -9.72777e-27)
(-0.139131 -0.0309898 0)
(-0.136243 -0.0206217 -3.87585e-26)
(-0.13411 -0.0107223 0)
(-0.133343 -0.00224498 0)
(-0.141973 -0.118236 -3.18624e-26)
(-0.154386 -0.114048 -4.52424e-25)
(-0.164671 -0.109148 -2.26928e-26)
(-0.172079 -0.103394 -3.13288e-25)
(-0.176099 -0.0965576 0)
(-0.176851 -0.0884706 0)
(-0.174597 -0.0789973 1.1397e-26)
(-0.169847 -0.067777 1.22939e-26)
(-0.163571 -0.0545487 0)
(-0.157078 -0.0393679 -1.80283e-26)
(-0.151847 -0.0229723 -9.42386e-27)
(-0.149249 -0.00687879 2.84093e-27)
(-0.173065 -0.129973 -2.72085e-25)
(-0.186084 -0.126133 -3.00977e-35)
(-0.196076 -0.122279 0)
(-0.202616 -0.118256 1.79995e-35)
(-0.205564 -0.113737 -1.02608e-26)
(-0.205057 -0.108254 3.43899e-26)
(-0.201454 -0.100949 2.87326e-25)
(-0.195214 -0.0907936 0)
(-0.187028 -0.0766996 0)
(-0.178029 -0.0579314 0)
(-0.169896 -0.0350442 -4.2583e-26)
(-0.165312 -0.0106458 -8.36446e-27)
(-0.19603 -0.136673 -3.00828e-25)
(-0.208615 -0.132958 6.08212e-25)
(-0.217875 -0.13019 0)
(-0.223761 -0.128163 5.99694e-25)
(-0.226437 -0.126393 0)
(-0.226138 -0.12412 0)
(-0.223054 -0.120188 2.78337e-25)
(-0.2173 -0.112977 -7.35938e-26)
(-0.209041 -0.100411 -7.82483e-26)
(-0.198886 -0.0802481 0)
(-0.188337 -0.051533 5.21436e-26)
(-0.181355 -0.0168468 3.12944e-26)
(-0.210167 -0.137881 -6.82723e-25)
(-0.221719 -0.133677 2.41657e-25)
(-0.230044 -0.131397 -3.08897e-27)
(-0.235433 -0.130797 3.07132e-25)
(-0.238298 -0.131337 3.06812e-25)
(-0.238991 -0.132194 0)
(-0.237636 -0.132141 2.93084e-25)
(-0.234078 -0.129298 0)
(-0.227865 -0.120825 0)
(-0.21874 -0.102629 -1.37702e-25)
(-0.207245 -0.0707285 3.11996e-26)
(-0.197785 -0.0251495 6.70074e-26)
(-0.215668 -0.134875 -4.86433e-25)
(-0.22574 -0.129504 6.73773e-25)
(-0.232819 -0.126954 0)
(-0.23749 -0.126929 0)
(-0.240421 -0.128855 8.34191e-25)
(-0.242184 -0.131955 -3.6076e-26)
(-0.24302 -0.135189 1.29212e-34)
(-0.242767 -0.136865 7.62911e-26)
(-0.240534 -0.134029 4.01206e-25)
(-0.235165 -0.121143 -1.58989e-25)
(-0.225538 -0.0904268 0)
(-0.214662 -0.0355073 -3.33457e-26)
(-0.214059 -0.129557 6.39104e-25)
(-0.222433 -0.122454 1.22712e-24)
(-0.228051 -0.118975 1.97333e-26)
(-0.231741 -0.118725 -5.75867e-25)
(-0.234406 -0.12103 1.14911e-24)
(-0.236881 -0.125112 5.83431e-25)
(-0.239638 -0.130181 3.01985e-25)
(-0.242806 -0.13507 3.17305e-25)
(-0.245425 -0.137554 3.3828e-25)
(-0.245948 -0.13179 0)
(-0.241454 -0.107006 -1.45936e-25)
(-0.231908 -0.0470238 -1.53014e-25)
(-0.207579 -0.123962 5.5038e-25)
(-0.214321 -0.114715 1.08691e-24)
(-0.218499 -0.10981 5.50303e-25)
(-0.221139 -0.108742 -5.83224e-25)
(-0.223321 -0.110668 5.49319e-25)
(-0.226108 -0.114667 5.25928e-25)
(-0.23015 -0.120023 -9.43906e-27)
(-0.236041 -0.126068 3.18199e-25)
(-0.243044 -0.131844 -3.50785e-25)
(-0.250137 -0.132561 0)
(-0.253109 -0.116782 -2.14026e-25)
(-0.249032 -0.0579086 -1.03149e-25)
(-0.198574 -0.119833 0)
(-0.203966 -0.108173 5.17342e-25)
(-0.206898 -0.101419 5.14004e-25)
(-0.208562 -0.0990363 -3.11134e-26)
(-0.210166 -0.100009 5.29867e-25)
(-0.212948 -0.103204 5.37212e-25)
(-0.217606 -0.10773 -5.65978e-25)
(-0.225201 -0.113075 0)
(-0.235201 -0.119424 -3.46352e-25)
(-0.248057 -0.123833 -2.25911e-26)
(-0.259115 -0.117069 -2.47947e-25)
(-0.264937 -0.0654637 9.72995e-27)
(-0.18898 -0.118118 0)
(-0.193492 -0.104164 0)
(-0.195484 -0.0952943 0)
(-0.19629 -0.0911443 9.3444e-25)
(-0.197226 -0.0906387 7.06439e-28)
(-0.199666 -0.0924945 5.32854e-25)
(-0.20423 -0.0954975 0)
(-0.212391 -0.0989472 5.56472e-25)
(-0.223529 -0.103472 0)
(-0.240249 -0.107608 3.81536e-25)
(-0.258388 -0.106318 -2.44679e-25)
(-0.277635 -0.0655035 1.31466e-27)
(-0.179763 -0.118087 0)
(-0.184112 -0.102852 0)
(-0.185655 -0.0921352 -8.71724e-25)
(-0.18582 -0.0860443 9.03086e-25)
(-0.18602 -0.0836693 -1.36587e-24)
(-0.187707 -0.0837794 -4.52783e-25)
(-0.191322 -0.0848536 2.07675e-26)
(-0.198631 -0.0858996 5.36252e-25)
(-0.208572 -0.0871795 -5.23982e-25)
(-0.226147 -0.0871646 3.10224e-25)
(-0.248722 -0.0844062 2.18195e-25)
(-0.282874 -0.0515976 1.53936e-25)
(-0.170578 -0.116857 0)
(-0.175685 -0.102548 0)
(-0.177524 -0.0912122 -8.01581e-25)
(-0.177492 -0.0836753 -8.29506e-25)
(-0.17706 -0.0794731 -8.01684e-25)
(-0.177592 -0.0777522 -4.09427e-25)
(-0.179307 -0.0768439 -3.97888e-25)
(-0.183921 -0.0756136 0)
(-0.189805 -0.0736785 -3.7711e-25)
(-0.20347 -0.0678729 1.87931e-25)
(-0.22471 -0.0553465 3.43538e-26)
(-0.267602 -0.0108827 7.32498e-26)
(-0.133636 0.00643089 -9.77448e-27)
(-0.133894 0.017083 0)
(-0.134665 0.0269328 0)
(-0.13518 0.036471 6.63769e-27)
(-0.134871 0.0457356 -3.15655e-26)
(-0.133373 0.0546546 0)
(-0.1306 0.0631722 0)
(-0.126528 0.0712614 -5.30822e-26)
(-0.121242 0.0788519 -1.55655e-25)
(-0.11504 0.0858886 -5.03944e-26)
(-0.108188 0.0923347 4.8416e-26)
(-0.100947 0.0985106 -5.14008e-26)
(-0.149893 0.00681402 9.05113e-27)
(-0.152656 0.0203879 0)
(-0.156638 0.0330478 0)
(-0.160366 0.0446187 9.67548e-26)
(-0.162802 0.0550285 -2.24752e-25)
(-0.163164 0.0644865 5.84138e-27)
(-0.161162 0.0732126 6.08635e-26)
(-0.156891 0.0813279 -3.31608e-25)
(-0.15066 0.089186 -2.1799e-25)
(-0.143091 0.0967358 -4.24616e-25)
(-0.134611 0.103717 0)
(-0.124886 0.111249 6.18794e-36)
(-0.165554 0.0124255 1.64965e-26)
(-0.169819 0.0322399 0)
(-0.17576 0.0482621 0)
(-0.181648 0.0612129 1.96788e-25)
(-0.185914 0.0712006 -2.18372e-25)
(-0.187219 0.0794221 2.36011e-25)
(-0.185582 0.0870256 0)
(-0.181324 0.0941056 -2.22699e-25)
(-0.174304 0.101277 -2.08478e-25)
(-0.164989 0.108309 -2.58201e-25)
(-0.154176 0.116181 -5.53591e-26)
(-0.142046 0.125847 2.13491e-25)
(-0.181336 0.0182534 1.67083e-26)
(-0.186164 0.0447017 -4.13191e-26)
(-0.193062 0.0640201 0)
(-0.200592 0.0778278 1.01696e-25)
(-0.206481 0.085642 -1.20064e-25)
(-0.208097 0.0910278 2.68393e-25)
(-0.206565 0.096593 0)
(-0.202381 0.101952 2.98385e-25)
(-0.194969 0.108276 -2.92575e-25)
(-0.185418 0.11505 2.62175e-26)
(-0.172905 0.123919 3.3902e-26)
(-0.158428 0.133753 6.22676e-25)
(-0.196732 0.0238023 1.73466e-26)
(-0.200408 0.0565215 -4.2772e-26)
(-0.205877 0.0790344 -9.45038e-26)
(-0.212971 0.0937628 0)
(-0.2185 0.0980259 3.22863e-25)
(-0.219557 0.0996157 -1.90373e-25)
(-0.218216 0.103683 -2.69843e-25)
(-0.214783 0.107723 2.95356e-25)
(-0.207927 0.113889 0)
(-0.19948 0.120489 0)
(-0.1877 0.130715 0)