/*--------------------------------*- C++ -*----------------------------------*\
| =========                 |                                                 |
| \\      /  F ield         | OpenFOAM: The Open Source CFD Toolbox           |
|  \\    /   O peration     | Version:  v1606+                                |
|   \\  /    A nd           | Web:      www.OpenFOAM.com                      |
|    \\/     M anipulation  |                                                 |
\*---------------------------------------------------------------------------*/
FoamFile
{
    version     2.0;
    format      ascii;
    class       volScalarField;
    location    "0.38";
    object      nut.particles;
}
// * * * * * * * * * * * * * * * * * * * * * * * * * * * * * * * * * * * * * //

dimensions      [0 2 -1 0 0 0 0];

internalField   nonuniform List<scalar> 
6000
(
1.18462e-05
1.07118e-05
1.18195e-05
1.19351e-05
1.20391e-05
1.19574e-05
1.19555e-05
1.21067e-05
1.22984e-05
1.24607e-05
1.2554e-05
1.26197e-05
1.26919e-05
1.27526e-05
1.28383e-05
1.27836e-05
1.27193e-05
1.26747e-05
1.26206e-05
1.25719e-05
1.24221e-05
1.22026e-05
1.20056e-05
1.18942e-05
1.19228e-05
1.1995e-05
1.19057e-05
1.17543e-05
1.07724e-05
1.18089e-05
6.11775e-06
6.124e-06
6.25085e-06
6.65674e-06
7.18096e-06
7.57219e-06
7.89102e-06
8.09382e-06
8.17908e-06
8.26032e-06
8.35568e-06
8.50848e-06
8.67512e-06
8.8321e-06
8.9407e-06
8.93562e-06
8.83007e-06
8.68602e-06
8.52469e-06
8.38728e-06
8.29032e-06
8.20217e-06
8.11675e-06
7.92576e-06
7.58829e-06
7.21351e-06
6.68956e-06
6.25432e-06
6.11934e-06
6.12438e-06
9.36391e-06
1.09857e-05
1.23133e-05
1.39165e-05
1.49805e-05
1.55134e-05
1.54489e-05
1.5352e-05
1.54601e-05
1.55996e-05
1.58479e-05
1.61221e-05
1.64172e-05
1.66792e-05
1.68376e-05
1.6833e-05
1.66743e-05
1.64175e-05
1.61532e-05
1.58835e-05
1.56439e-05
1.55261e-05
1.54057e-05
1.55588e-05
1.56731e-05
1.50933e-05
1.39998e-05
1.23722e-05
1.09295e-05
9.29817e-06
9.91075e-06
1.08578e-05
1.30789e-05
1.42649e-05
1.30088e-05
1.12492e-05
9.96118e-06
9.7781e-06
9.63289e-06
9.9173e-06
1.01746e-05
1.0017e-05
9.62745e-06
9.17077e-06
8.86428e-06
8.89879e-06
9.21788e-06
9.66042e-06
1.00551e-05
1.01918e-05
9.93861e-06
9.63791e-06
9.79252e-06
1.00114e-05
1.13784e-05
1.33174e-05
1.4475e-05
1.32073e-05
1.08791e-05
9.94176e-06
1.0604e-05
1.22051e-05
1.02023e-05
6.55215e-06
4.39578e-06
3.61001e-06
3.17895e-06
3.02591e-06
2.84102e-06
2.75659e-06
2.77693e-06
2.67527e-06
2.53167e-06
2.39926e-06
2.31288e-06
2.32022e-06
2.4087e-06
2.54034e-06
2.67989e-06
2.77701e-06
2.75696e-06
2.84557e-06
3.04324e-06
3.19883e-06
3.64282e-06
4.45737e-06
6.70079e-06
1.05968e-05
1.22602e-05
1.06292e-05
1.11592e-05
8.03566e-06
3.19034e-06
2.20548e-06
1.94541e-06
1.76772e-06
1.62849e-06
1.50392e-06
1.35563e-06
1.2418e-06
1.25357e-06
1.25092e-06
1.24458e-06
1.24982e-06
1.25418e-06
1.2541e-06
1.25024e-06
1.24581e-06
1.25244e-06
1.25328e-06
1.24279e-06
1.36788e-06
1.52788e-06
1.65606e-06
1.79628e-06
1.97564e-06
2.23498e-06
3.28178e-06
8.73557e-06
1.11485e-05
1.26459e-05
3.04846e-06
1.87602e-06
1.76178e-06
1.74678e-06
1.80702e-06
1.76444e-06
1.62217e-06
1.36714e-06
1.1314e-06
1.09494e-06
1.16849e-06
1.19655e-06
1.20426e-06
1.20782e-06
1.20808e-06
1.2049e-06
1.19734e-06
1.16857e-06
1.0915e-06
1.13566e-06
1.38864e-06
1.65973e-06
1.8087e-06
1.84846e-06
1.78728e-06
1.80278e-06
1.91984e-06
3.35418e-06
1.26175e-05
6.5343e-06
2.1126e-06
1.85326e-06
1.75642e-06
2.0344e-06
2.54356e-06
2.7409e-06
2.60863e-06
2.09755e-06
1.40873e-06
1.06583e-06
1.12431e-06
1.17436e-06
1.18429e-06
1.18379e-06
1.18408e-06
1.18468e-06
1.17466e-06
1.12207e-06
1.06275e-06
1.43845e-06
2.1474e-06
2.67054e-06
2.80421e-06
2.599e-06
2.07472e-06
1.79861e-06
1.90839e-06
2.21625e-06
8.4545e-06
2.90362e-06
1.91438e-06
1.85048e-06
1.94717e-06
2.69516e-06
3.73114e-06
4.27039e-06
4.25647e-06
3.79589e-06
2.61198e-06
1.34156e-06
1.07864e-06
1.13171e-06
1.14631e-06
1.1439e-06
1.14438e-06
1.14746e-06
1.13205e-06
1.07559e-06
1.36756e-06
2.73328e-06
3.87694e-06
4.31476e-06
4.30566e-06
3.76156e-06
2.71364e-06
1.97464e-06
1.90816e-06
1.99474e-06
3.55774e-06
2.11836e-06
1.94091e-06
1.85537e-06
2.35938e-06
3.57016e-06
4.75203e-06
5.47315e-06
5.80527e-06
5.90144e-06
5.75672e-06
2.73127e-06
1.28035e-06
1.15959e-06
1.1514e-06
1.14008e-06
1.13964e-06
1.15087e-06
1.15743e-06
1.28383e-06
2.89737e-06
6.02123e-06
5.94922e-06
5.79038e-06
5.43827e-06
4.72441e-06
3.54929e-06
2.358e-06
1.89082e-06
1.98221e-06
2.29539e-06
2.0786e-06
1.99118e-06
1.91158e-06
3.23095e-06
4.98698e-06
5.7501e-06
6.52961e-06
7.02772e-06
8.41417e-06
1.40428e-05
7.12607e-06
2.27752e-06
1.47918e-06
1.37733e-06
1.34265e-06
1.34081e-06
1.37241e-06
1.47155e-06
2.33203e-06
7.61458e-06
1.66574e-05
8.42992e-06
6.97396e-06
6.44597e-06
5.68458e-06
4.90828e-06
3.14754e-06
1.88318e-06
2.01348e-06
2.1286e-06
2.06767e-06
1.97132e-06
2.08276e-06
5.19282e-06
8.40228e-06
7.87783e-06
8.89961e-06
1.9868e-05
0.000274813
0.000945637
8.37223e-05
5.50232e-06
2.75394e-06
2.23695e-06
2.14042e-06
2.13565e-06
2.22264e-06
2.75902e-06
5.69649e-06
0.00011858
0.000992463
0.000292148
1.8214e-05
8.81007e-06
7.80395e-06
8.19148e-06
4.86088e-06
1.99692e-06
1.9914e-06
2.1108e-06
2.26452e-06
2.01012e-06
2.69548e-06
8.17458e-06
0.000198574
0.000276633
0.00107464
0.00244201
0.00319162
0.00311512
0.00095074
1.35111e-05
6.85933e-06
4.98552e-06
4.67235e-06
4.66203e-06
4.96168e-06
6.92515e-06
1.38564e-05
0.00102014
0.00321198
0.00325589
0.00241972
0.00100624
0.000235919
0.000158245
7.55032e-06
2.53624e-06
2.00426e-06
2.28507e-06
3.57954e-06
3.00056e-06
4.61571e-06
1.11642e-05
0.00203721
0.0031952
0.00319692
0.00319735
0.00320375
0.00318261
0.00267492
0.00149536
3.74072e-05
1.28842e-05
1.19247e-05
1.19079e-05
1.28877e-05
4.31918e-05
0.00162551
0.0027176
0.00324664
0.00326809
0.00326155
0.00326131
0.00325698
0.00178497
1.03196e-05
4.33018e-06
2.91736e-06
3.51875e-06
7.41179e-06
7.22355e-06
1.23522e-05
2.09009e-05
3.47886e-05
0.00261808
0.00318593
0.00319655
0.00315752
2.16039e-05
3.87728e-05
0.000307982
0.000280018
0.000269669
0.000273589
0.000267535
0.00026964
0.00025648
0.000266726
3.78682e-05
2.18826e-05
0.00322049
0.00326178
0.00324747
0.00123045
3.39845e-05
1.95767e-05
1.15083e-05
6.87877e-06
7.10975e-06
8.27601e-06
1.08958e-05
1.63737e-05
1.37865e-05
3.70532e-06
3.88448e-06
1.54595e-05
2.74871e-05
4.14481e-06
1.78454e-06
2.9307e-06
6.25143e-06
1.17962e-05
1.69854e-05
2.01163e-05
2.00523e-05
1.66852e-05
1.14274e-05
6.02665e-06
2.83094e-06
1.81134e-06
4.54201e-06
2.9859e-05
1.49418e-05
3.65315e-06
3.78601e-06
1.41568e-05
1.56816e-05
1.04836e-05
8.08436e-06
3.00119e-06
3.14187e-06
2.69047e-06
1.36341e-06
7.91277e-07
8.99716e-07
2.07205e-06
2.7376e-06
1.18864e-06
7.80351e-07
7.30853e-07
7.87644e-07
9.26822e-07
1.09068e-06
1.21009e-06
1.20772e-06
1.08269e-06
9.19323e-07
7.84914e-07
7.33219e-07
7.97765e-07
1.26905e-06
2.86492e-06
2.03495e-06
8.71649e-07
7.94234e-07
1.423e-06
2.71586e-06
3.14203e-06
3.03721e-06
1.12061e-06
9.2623e-07
7.95241e-07
6.99895e-07
6.49065e-07
7.4291e-07
1.25449e-06
1.64105e-06
1.14993e-06
7.8225e-07
6.50602e-07
6.38502e-07
6.483e-07
6.47039e-07
6.44253e-07
6.44096e-07
6.46824e-07
6.47698e-07
6.36551e-07
6.56546e-07
8.11774e-07
1.20719e-06
1.67882e-06
1.22225e-06
7.25046e-07
6.47938e-07
7.00841e-07
7.98744e-07
9.32181e-07
1.12671e-06
9.68995e-07
8.07273e-07
7.1652e-07
6.5786e-07
6.07628e-07
6.7576e-07
1.20405e-06
1.80704e-06
1.29448e-06
8.45465e-07
6.61249e-07
6.37972e-07
6.39426e-07
6.38915e-07
6.35033e-07
6.34705e-07
6.38236e-07
6.3824e-07
6.39709e-07
6.69178e-07
8.82378e-07
1.37425e-06
1.80939e-06
1.15521e-06
6.59762e-07
6.05333e-07
6.56547e-07
7.16455e-07
8.10344e-07
9.6896e-07
9.74362e-07
8.11363e-07
7.06814e-07
6.36579e-07
5.89112e-07
6.1782e-07
1.05636e-06
1.85834e-06
1.53272e-06
8.97658e-07
6.83453e-07
6.44862e-07
6.3847e-07
6.38637e-07
6.38825e-07
6.39279e-07
6.39497e-07
6.40613e-07
6.48353e-07
6.92304e-07
9.32764e-07
1.63124e-06
1.81052e-06
9.86339e-07
6.05552e-07
5.87432e-07
6.3426e-07
7.05702e-07
8.1455e-07
9.74928e-07
9.69683e-07
7.99663e-07
6.9458e-07
6.32857e-07
5.82714e-07
5.80883e-07
8.72628e-07
1.82129e-06
1.89852e-06
1.01665e-06
7.05494e-07
6.55808e-07
6.51991e-07
6.53876e-07
6.56864e-07
6.57367e-07
6.55384e-07
6.54296e-07
6.58918e-07
7.1398e-07
1.06166e-06
2.02411e-06
1.75543e-06
8.07e-07
5.73187e-07
5.80507e-07
6.30489e-07
6.92978e-07
8.02822e-07
9.72618e-07
9.41626e-07
7.81729e-07
6.88841e-07
6.31807e-07
5.75126e-07
5.63751e-07
7.43743e-07
1.73869e-06
2.37156e-06
1.1826e-06
7.3896e-07
6.70849e-07
6.67195e-07
6.70147e-07
6.73775e-07
6.74216e-07
6.71314e-07
6.68726e-07
6.73635e-07
7.50328e-07
1.24401e-06
2.49337e-06
1.65311e-06
7.11693e-07
5.58365e-07
5.70758e-07
6.2878e-07
6.88079e-07
7.83625e-07
9.46334e-07
8.96916e-07
7.59237e-07
6.86268e-07
6.26429e-07
5.68425e-07
5.56888e-07
6.84459e-07
1.5892e-06
2.77863e-06
1.39215e-06
7.85873e-07
6.87642e-07
6.8063e-07
6.84736e-07
6.88949e-07
6.89696e-07
6.8581e-07
6.82103e-07
6.90859e-07
8.0325e-07
1.48509e-06
2.85387e-06
1.48518e-06
6.60791e-07
5.50179e-07
5.6375e-07
6.21253e-07
6.85996e-07
7.60437e-07
9.01393e-07
8.3773e-07
7.37695e-07
6.80015e-07
6.14623e-07
5.60589e-07
5.51704e-07
6.55942e-07
1.41312e-06
3.04525e-06
1.64486e-06
8.45844e-07
7.08682e-07
6.96947e-07
7.01774e-07
7.07233e-07
7.07835e-07
7.02829e-07
6.9853e-07
7.12342e-07
8.65526e-07
1.73972e-06
3.03599e-06
1.3185e-06
6.4096e-07
5.45639e-07
5.55181e-07
6.0826e-07
6.76857e-07
7.40537e-07
8.39559e-07
7.93258e-07
7.26221e-07
6.63819e-07
6.00284e-07
5.5675e-07
5.52552e-07
6.4646e-07
1.28871e-06
3.05765e-06
1.86325e-06
8.76514e-07
7.28937e-07
7.13726e-07
7.19954e-07
7.26918e-07
7.27686e-07
7.21386e-07
7.15758e-07
7.33312e-07
8.8278e-07
1.95058e-06
2.97924e-06
1.2174e-06
6.32594e-07
5.4796e-07
5.52611e-07
5.94749e-07
6.57563e-07
7.28146e-07
7.97651e-07
7.69198e-07
7.14227e-07
6.51303e-07
5.94091e-07
5.55651e-07
5.58853e-07
6.49161e-07
1.22933e-06
3.02943e-06
2.03543e-06
8.98513e-07
7.49942e-07
7.3285e-07
7.40366e-07
7.48908e-07
7.498e-07
7.42372e-07
7.35856e-07
7.55906e-07
9.26716e-07
2.11589e-06
2.94147e-06
1.17397e-06
6.40536e-07
5.54936e-07
5.52041e-07
5.9008e-07
6.4831e-07
7.11733e-07
7.72408e-07
7.4208e-07
6.82111e-07
6.39156e-07
5.93014e-07
5.61526e-07
5.75034e-07
6.72317e-07
1.21446e-06
3.01829e-06
2.16524e-06
9.63194e-07
7.78469e-07
7.56765e-07
7.63542e-07
7.72731e-07
7.73406e-07
7.65759e-07
7.60812e-07
7.86691e-07
9.92277e-07
2.20969e-06
2.9272e-06
1.18002e-06
6.68252e-07
5.72639e-07
5.58112e-07
5.88581e-07
6.34834e-07
6.79481e-07
7.42504e-07
7.09981e-07
6.61854e-07
6.23731e-07
5.84789e-07
5.69236e-07
6.02595e-07
7.11633e-07
1.23329e-06
2.98264e-06
2.24154e-06
1.05456e-06
8.16235e-07
7.87312e-07
7.91578e-07
7.99467e-07
7.99778e-07
7.92597e-07
7.89833e-07
8.21552e-07
1.07211e-06
2.25887e-06
2.9316e-06
1.21873e-06
7.09791e-07
6.00224e-07
5.65397e-07
5.80166e-07
6.18685e-07
6.60799e-07
7.09851e-07
6.96245e-07
6.53494e-07
6.11215e-07
5.86347e-07
5.86661e-07
6.42254e-07
7.78519e-07
1.30228e-06
2.84037e-06
2.25032e-06
1.14843e-06
8.38449e-07
8.1714e-07
8.17856e-07
8.23266e-07
8.23162e-07
8.17416e-07
8.17149e-07
8.28117e-07
1.16232e-06
2.26158e-06
2.82201e-06
1.30269e-06
7.81123e-07
6.40803e-07
5.83331e-07
5.81313e-07
6.0503e-07
6.50503e-07
6.95201e-07
6.85123e-07
6.4647e-07
6.06664e-07
5.99106e-07
6.24899e-07
7.05237e-07
8.96884e-07
1.45333e-06
2.6274e-06
2.19911e-06
1.25819e-06
8.99641e-07
8.31177e-07
8.35026e-07
8.3752e-07
8.36881e-07
8.33029e-07
8.24446e-07
9.11058e-07
1.27618e-06
2.21869e-06
2.61525e-06
1.45791e-06
9.02487e-07
7.04875e-07
6.23434e-07
5.9574e-07
6.02714e-07
6.44026e-07
6.82518e-07
6.74993e-07
6.54029e-07
6.22992e-07
6.35536e-07
6.89405e-07
7.85654e-07
1.0722e-06
1.66566e-06
2.53523e-06
2.20019e-06
1.42504e-06
1.0463e-06
9.3014e-07
9.01846e-07
8.98312e-07
8.99919e-07
9.06908e-07
9.40194e-07
1.06394e-06
1.45023e-06
2.21839e-06
2.52677e-06
1.67521e-06
1.08294e-06
7.90856e-07
6.90405e-07
6.35008e-07
6.21383e-07
6.52838e-07
6.72381e-07
6.76624e-07
6.80258e-07
6.67034e-07
7.06601e-07
7.86335e-07
9.64351e-07
1.34017e-06
1.96395e-06
2.58337e-06
2.3348e-06
1.70506e-06
1.30153e-06
1.1393e-06
1.0874e-06
1.07559e-06
1.07886e-06
1.09736e-06
1.15651e-06
1.32644e-06
1.7348e-06
2.34907e-06
2.57683e-06
1.97872e-06
1.35982e-06
9.77107e-07
7.90307e-07
7.09124e-07
6.67616e-07
6.79253e-07
6.73962e-07
6.96002e-07
7.35815e-07
7.50705e-07
8.19243e-07
9.55977e-07
1.26281e-06
1.75239e-06
2.40704e-06
2.8294e-06
2.68741e-06
2.19003e-06
1.751e-06
1.52715e-06
1.43611e-06
1.40762e-06
1.41308e-06
1.45239e-06
1.5535e-06
1.78525e-06
2.22432e-06
2.69936e-06
2.82888e-06
2.43025e-06
1.78881e-06
1.29194e-06
9.72771e-07
8.24001e-07
7.53311e-07
7.35177e-07
6.94619e-07
7.53299e-07
8.39911e-07
8.8261e-07
1.0132e-06
1.3005e-06
1.77178e-06
2.4277e-06
3.13154e-06
3.47987e-06
3.41973e-06
3.05586e-06
2.58465e-06
2.26817e-06
2.10844e-06
2.04729e-06
2.0579e-06
2.13872e-06
2.31504e-06
2.63895e-06
3.10233e-06
3.44499e-06
3.49899e-06
3.17691e-06
2.49378e-06
1.82928e-06
1.33787e-06
1.03203e-06
8.88013e-07
8.41495e-07
7.54553e-07
8.81815e-07
1.01964e-06
1.13633e-06
1.43767e-06
1.9409e-06
2.67463e-06
3.59638e-06
4.39474e-06
4.77604e-06
4.81562e-06
4.62524e-06
4.20711e-06
3.77616e-06
3.47768e-06
3.3369e-06
3.35409e-06
3.51645e-06
3.82973e-06
4.28251e-06
4.708e-06
4.89174e-06
4.84823e-06
4.49355e-06
3.71879e-06
2.78493e-06
2.01713e-06
1.47872e-06
1.15446e-06
1.02395e-06
8.86256e-07
1.14327e-06
1.42667e-06
1.71349e-06
2.28009e-06
3.16137e-06
4.42402e-06
5.79165e-06
6.6997e-06
7.12019e-06
7.29619e-06
7.33095e-06
7.15296e-06
6.79451e-06
6.39065e-06
6.09857e-06
6.07703e-06
6.35768e-06
6.81958e-06
7.25126e-06
7.45541e-06
7.43162e-06
7.2572e-06
6.84924e-06
5.96289e-06
4.60511e-06
3.30456e-06
2.36765e-06
1.75605e-06
1.44797e-06
1.15225e-06
1.7972e-06
2.32901e-06
2.90313e-06
3.96782e-06
5.69913e-06
8.06683e-06
9.84e-06
1.06318e-05
1.43658e-05
1.83675e-05
2.36459e-05
2.53324e-05
2.50904e-05
2.14209e-05
1.78495e-05
1.76197e-05
2.18391e-05
2.89616e-05
3.13983e-05
3.01901e-05
2.32205e-05
1.76218e-05
1.12645e-05
9.98015e-06
8.28789e-06
5.93168e-06
4.14064e-06
3.00473e-06
2.38489e-06
1.83615e-06
3.29156e-06
4.13792e-06
5.25616e-06
7.32112e-06
1.05246e-05
6.33268e-05
0.00026696
0.000392322
0.000470853
0.000475914
0.000554216
0.000669094
0.000880616
0.00111925
0.00131642
0.00136304
0.00123116
0.00100452
0.000756348
0.000619551
0.000513523
0.000498637
0.000405696
0.000280797
7.65648e-05
1.08324e-05
7.62418e-06
5.46847e-06
4.27978e-06
3.3837e-06
6.17675e-06
7.31612e-06
9.33381e-06
1.23239e-05
0.000108394
0.000335258
0.000662292
0.000837093
0.00112747
0.00119777
0.00144883
0.00186022
0.00250873
0.00323045
0.00383519
0.00397777
0.00354689
0.00282371
0.002074
0.00159708
0.00128094
0.00119686
0.000898339
0.000734139
0.000383676
0.000135345
1.27128e-05
9.68841e-06
7.58971e-06
6.35344e-06
1.01072e-05
1.19528e-05
1.44917e-05
3.90798e-05
0.000166962
0.000223384
0.00058354
0.000814839
0.00126779
0.00163426
0.00226118
0.00311427
0.00414712
0.00513486
0.00587235
0.00602835
0.00549014
0.00451298
0.00336963
0.00243274
0.00173935
0.00135307
0.000885073
0.000654101
0.00025548
0.000192919
5.29042e-05
1.82447e-05
1.22961e-05
1.03134e-05
1.39798e-05
6.95061e-05
7.38072e-05
4.62187e-05
0.000198723
0.000134195
0.000283932
0.000515795
0.0012365
0.00219464
0.00345848
0.00479272
0.00607814
0.00714748
0.00786052
0.00798783
0.00744514
0.00639216
0.00500132
0.00357343
0.00226886
0.00131523
0.000608992
0.000342609
0.00014068
0.000226264
5.74967e-05
0.000103933
9.86097e-05
1.40888e-05
0.000143811
0.000143227
8.63657e-05
5.25353e-05
0.000200226
3.85606e-05
2.61997e-05
0.000278302
0.00156579
0.00371278
0.00567829
0.00720994
0.00847461
0.00943165
0.0100147
0.0100955
0.00962644
0.00867327
0.0073049
0.00563872
0.00366347
0.00163519
0.000362162
3.98714e-05
3.64531e-05
0.000227724
6.43644e-05
0.000124888
0.000193609
0.000176378
0.000443401
0.000127098
0.000100182
1.42978e-05
9.22862e-05
1.26624e-05
1.26575e-05
0.000485441
0.0036868
0.00727831
0.00901583
0.0101626
0.0111104
0.0117998
0.0121905
0.0122213
0.0118781
0.0111597
0.0101158
0.00874751
0.00688109
0.0035847
0.00059415
1.36387e-05
1.28918e-05
8.89024e-05
1.44978e-05
0.000133831
0.000192829
0.000581089
0.000450793
6.12303e-05
0.000100057
1.23584e-05
1.26555e-05
1.21173e-05
5.63679e-05
0.00276654
0.00972684
0.0120602
0.0124328
0.0130072
0.0135327
0.013924
0.014131
0.0141226
0.0139039
0.013436
0.0128178
0.0120043
0.0112829
0.00901036
0.00292588
8.02212e-05
1.18316e-05
1.23933e-05
1.21621e-05
0.000112212
3.66053e-05
0.000566946
0.000286398
6.16696e-05
7.63035e-05
1.22697e-05
1.2249e-05
3.2e-05
0.00213897
0.0123601
0.0165454
0.0155287
0.0150135
0.0152226
0.0153825
0.0155496
0.0156412
0.0156182
0.0154821
0.0151877
0.0149029
0.0145241
0.0146364
0.0152264
0.0118654
0.00239002
3.77829e-05
1.20569e-05
1.19644e-05
4.86794e-05
3.55481e-05
0.000244206
0.000113644
8.03007e-05
4.00027e-05
1.37205e-05
8.491e-05
0.00285704
0.0159267
0.0214803
0.0189681
0.0167874
0.0163307
0.0163709
0.0164303
0.0165653
0.0166578
0.0166588
0.0165508
0.0163077
0.0161441
0.0159412
0.016065
0.0175645
0.0199512
0.0159845
0.00339404
0.000114059
1.35025e-05
1.83692e-05
3.55167e-05
8.81931e-05
8.06342e-05
0.00020291
0.000166714
0.000538358
0.00551924
0.0206356
0.0237649
0.0221715
0.0182887
0.0163574
0.0160162
0.0162098
0.0165802
0.0170183
0.0172789
0.0173561
0.0172312
0.0168945
0.0165245
0.015998
0.0158851
0.0168917
0.0202578
0.0222999
0.0214291
0.00711612
0.000783671
0.000122814
9.29636e-05
6.38097e-05
8.05959e-05
0.000771375
0.00204241
0.0104723
0.0236222
0.0238276
0.0237252
0.0194161
0.0152714
0.0141388
0.0144168
0.0153612
0.0163211
0.0171738
0.0177439
0.0179536
0.017794
0.0172546
0.0164421
0.0154701
0.0146203
0.0143559
0.0170009
0.0222222
0.0223463
0.0222109
0.0138459
0.00288163
0.000668982
6.99298e-05
0.000113805
0.00399862
0.0143203
0.0237282
0.0238604
0.0237419
0.0189536
0.0108791
0.00836981
0.00919713
0.0111173
0.0136592
0.0157157
0.0172966
0.0182776
0.0186809
0.0185002
0.0176991
0.0162771
0.0142189
0.0119024
0.00967966
0.00952607
0.0151527
0.0222373
0.0223621
0.0222864
0.0190924
0.00558862
0.000153413
0.000542791
0.0147474
0.0237822
0.0238781
0.0237677
0.0166888
0.00552921
0.00201411
0.00176909
0.00344444
0.00692408
0.0114465
0.0150966
0.0175967
0.0190538
0.0196896
0.0195515
0.0185417
0.0164699
0.0129389
0.00859342
0.00455244
0.00278896
0.00346998
0.0107847
0.022218
0.0223663
0.0223088
0.0193817
0.00111632
0.00391095
0.0237212
0.023889
0.0238072
0.016127
0.00266659
0.000307227
0.000307764
0.000333392
0.000886871
0.00407488
0.00998591
0.0152695
0.0184239
0.0202266
0.0210552
0.021068
0.0201159
0.0176781
0.0131878
0.00648097
0.00177724
0.000555653
0.00014881
0.000761002
0.00762287
0.0221942
0.022366
0.0222564
0.0073643
0.0129853
0.0238443
0.0238469
0.0186366
0.00163737
4.22566e-05
3.72593e-05
0.000344178
0.000402663
0.000421327
0.0035711
0.0107551
0.0166368
0.020077
0.0218889
0.0227881
0.0230339
0.0225435
0.0206354
0.0158107
0.00760969
0.00146239
0.000129795
1.52655e-05
1.56422e-05
0.000107772
0.00674747
0.0222074
0.0223429
0.0183369
0.0223442
0.0238646
0.0229462
0.00118981
1.38327e-05
1.3886e-05
3.67722e-05
0.000448785
0.000977652
0.000853221
0.00482594
0.0136902
0.019612
0.0225159
0.0239856
0.0248351
0.025299
0.0254516
0.0249649
0.0220151
0.0134475
0.00288883
0.000199365
2.00899e-05
1.26249e-05
1.28904e-05
1.8697e-05
0.00998478
0.0222329
0.0223298
0.0238957
0.0236372
0.00109494
1.21836e-05
1.171e-05
1.18345e-05
3.91251e-05
0.000733476
0.0028453
0.00287255
0.00867127
0.0185167
0.0234103
0.0253225
0.026362
0.027112
0.0276954
0.0282981
0.02914
0.0295701
0.0254894
0.0118792
0.00165112
8.53444e-05
1.33335e-05
1.32999e-05
1.3287e-05
8.03433e-05
0.00911398
0.0222457
0.0236527
0.000908817
1.28079e-05
1.12555e-05
1.09824e-05
1.1952e-05
0.000103908
0.00236961
0.00674321
0.0071709
0.0148561
0.0237554
0.0270996
0.0281755
0.0288953
0.0295118
0.0300616
0.0307605
0.032075
0.0344429
0.036797
0.032302
0.0156731
0.00304397
7.06814e-05
1.42768e-05
1.36227e-05
1.44108e-05
2.66923e-05
0.0110166
0.00383968
1.45287e-05
1.48445e-05
1.27245e-05
1.24773e-05
1.61011e-05
0.00117193
0.00784734
0.0116857
0.0131628
0.0216719
0.0285466
0.0305004
0.0310488
0.0315169
0.0319028
0.0322091
0.0326141
0.0334702
0.0351302
0.0389397
0.0447651
0.0448611
0.0289047
0.00692695
0.0011394
1.77791e-05
1.73979e-05
1.4352e-05
0.000779667
0.00015783
1.31408e-05
3.08718e-05
0.000214445
0.000438036
0.00150797
0.00736592
0.0145187
0.0164545
0.0199224
0.0281368
0.0329051
0.0338248
0.0340061
0.0341633
0.0341584
0.0339792
0.0337143
0.0334378
0.0339019
0.0358463
0.0408566
0.0486839
0.0488974
0.0472736
0.0234181
0.0033314
0.000274886
1.39342e-05
3.90595e-05
2.17164e-05
2.31903e-05
0.00198217
0.00551156
0.00642214
0.00977547
0.0151228
0.0190385
0.0215045
0.0271395
0.0342847
0.0371461
0.0372624
0.0370634
0.0367837
0.0362536
0.0354235
0.0342674
0.0328031
0.0311749
0.0299617
0.0308846
0.0387914
0.0487684
0.0490688
0.0488619
0.0388815
0.00952075
0.00047466
4.51558e-05
7.5125e-05
0.00310009
0.00957565
0.00959088
0.00961962
0.0139206
0.0187363
0.0232287
0.0280564
0.0350918
0.0404331
0.0414847
0.0408751
0.0401912
0.0394137
0.0383726
0.0369397
0.0349117
0.0319919
0.0279276
0.0229776
0.0189684
0.0185883
0.0326616
0.0487845
0.049118
0.0490494
0.0485652
0.0126776
0.000460769
0.00161426
0.00953396
0.00957602
0.0062268
0.00798872
0.0152053
0.0228737
0.0300834
0.0373602
0.0439711
0.0466183
0.045911
0.044554
0.0433713
0.0422218
0.0409316
0.0392553
0.0367433
0.0328265
0.0265592
0.0177094
0.00972837
0.00433191
0.00486238
0.0182767
0.0486298
0.0491269
0.049089
0.0460761
0.00420176
0.00928034
0.00954604
0.00757752
0.000751954
0.00606597
0.0181422
0.031689
0.0421185
0.0494266
0.0529106
0.0522737
0.0500257
0.0479731
0.0464449
0.0452616
0.0442122
0.0430215
0.0411039
0.0373415
0.0302248
0.0188579
0.00613212
0.000809673
0.000108807
0.000204403
0.010077
0.0485765
0.0491291
0.0489412
0.022901
0.00928291
0.00628574
6.31206e-05
6.78708e-05
0.00701946
0.0293614
0.0497468
0.0585763
0.0611588
0.0596187
0.0560637
0.0526522
0.0501391
0.048499
0.0476121
0.047328
0.0475278
0.0477996
0.0469215
0.0421882
0.029534
0.0101085
0.00088047
1.47899e-05
1.27409e-05
1.46212e-05
0.00853349
0.0486867
0.04909
0.0469476
0.00865502
1.85428e-05
1.7187e-05
0.000140482
0.0170504
0.0589018
0.0731774
0.0713805
0.0674161
0.0619443
0.0566532
0.0525662
0.0498543
0.0481765
0.0474892
0.0480251
0.0498227
0.0527386
0.0563898
0.058892
0.0543309
0.030665
0.00354511
3.65501e-05
1.26498e-05
1.25817e-05
1.3382e-05
0.0138984
0.0485275
0.0490303
0.000993618
1.70034e-05
9.31665e-05
0.00244604
0.053471
0.079131
0.0775397
0.0750067
0.0674802
0.0609559
0.0552636
0.0508148
0.0476807
0.0458129
0.0452357
0.0459699
0.0480864
0.0517209
0.0573915
0.0665126
0.0750181
0.0705531
0.028468
0.00120361
1.47734e-05
1.25475e-05
1.25584e-05
2.60239e-05
0.0111099
0.0485982
7.82228e-05
1.68795e-05
0.00226395
0.0346285
0.0812606
0.0812628
0.0778424
0.0748788
0.0658539
0.0580779
0.0514525
0.0462232
0.0425214
0.0403959
0.0397543
0.04048
0.042666
0.0466778
0.0531114
0.0629068
0.0751932
0.0781875
0.0773827
0.0276425
0.00130942
1.486e-05
1.2326e-05
1.24786e-05
1.4643e-05
0.0156572
0.000111826
0.000654023
0.0263596
0.0801208
0.0830211
0.0810285
0.0773183
0.0726918
0.0619629
0.0526243
0.0446979
0.038661
0.0347457
0.0327151
0.0321065
0.032635
0.0343533
0.0377564
0.0437328
0.0535686
0.0697334
0.0782423
0.080331
0.0797823
0.03438
0.00202154
1.54257e-05
1.40601e-05
1.32351e-05
0.000788715
0.000571616
0.0160973
0.0775054
0.0830562
0.0830686
0.0797366
0.0763598
0.0683279
0.0555026
0.0442215
0.0352627
0.0293069
0.0262039
0.0249801
0.0247294
0.0250633
0.0259569
0.0278657
0.031844
0.0397962
0.0551777
0.0757098
0.0803354
0.0810554
0.08087
0.0425628
0.00333729
0.000152359
1.29918e-05
5.86358e-05
0.00358982
0.0586029
0.0830239
0.0831029
0.0817029
0.0783535
0.0752713
0.0613877
0.0455335
0.0326353
0.0241151
0.0200154
0.0188851
0.0190965
0.019499
0.0197494
0.0197981
0.0199086
0.0209525
0.0250687
0.0359958
0.0571801
0.0772702
0.0810334
0.0810814
0.080932
0.0497412
0.00707496
0.00022733
6.32865e-05
0.0179591
0.077934
0.0831497
0.0831057
0.0803025
0.0774644
0.069819
0.0486378
0.0296564
0.0181418
0.0126716
0.0120679
0.0134291
0.0154481
0.0168524
0.0172052
0.0163979
0.0146841
0.0128081
0.0127058
0.0166606
0.0307708
0.0582839
0.078442
0.0810709
0.0810895
0.0807947
0.0535256
0.00801054
0.00028831
0.0419504
0.0806497
0.0831231
0.0823325
0.0797655
0.076138
0.0528151
0.0253031
0.00978931
0.00521229
0.00379871
0.00591587
0.00935202
0.0133592
0.0163483
0.0172155
0.0152909
0.0115108
0.00721971
0.00462824
0.00339329
0.00803934
0.0231878
0.0595231
0.0795837
0.0810973
0.0810968
0.0808485
0.0431623
0.00199374
0.0635501
0.0815718
0.0831926
0.0820359
0.078886
0.0592687
0.0210722
0.00355973
0.000612296
0.000416203
0.00039184
0.00213377
0.0064288
0.0123447
0.0167935
0.0180632
0.015709
0.0100107
0.00395149
0.00109864
0.000136344
0.000467442
0.00221911
0.0173971
0.0631199
0.0810101
0.0811135
0.0811022
0.0767706
0.0143024
0.076619
0.0821766
0.0831278
0.0818901
0.0698129
0.0197953
0.00128961
2.4278e-05
1.38649e-05
1.49859e-05
2.77581e-05
0.000679461
0.00497441
0.0125559
0.0181171
0.0199889
0.0173601
0.0104077
0.0027351
0.000226398
1.35487e-05
1.37393e-05
2.07643e-05
0.000564305
0.0140646
0.0721537
0.0810757
0.0811219
0.0810353
0.0467165
0.0803542
0.0831087
0.0831292
0.0772971
0.0199535
0.000650628
1.28758e-05
1.25637e-05
1.32631e-05
1.51963e-05
1.50056e-05
0.000339761
0.00523736
0.0139595
0.0203725
0.0227232
0.0205331
0.0125054
0.00301066
7.05461e-05
1.31942e-05
1.34832e-05
1.17887e-05
1.17719e-05
9.66319e-05
0.0128518
0.0789506
0.0811309
0.0810963
0.0763155
0.0830743
0.0831026
0.0809402
0.023081
0.000180901
1.17286e-05
1.10032e-05
1.25912e-05
1.35858e-05
2.0838e-05
3.38392e-05
0.000454351
0.00725162
0.0176131
0.0237717
0.0261659
0.0253135
0.0179262
0.00485269
9.79853e-05
2.01921e-05
1.35536e-05
1.19179e-05
1.01272e-05
9.7288e-06
1.69524e-05
0.0169707
0.0809009
0.0811386
0.0810301
0.0830671
0.0820297
0.0277711
0.000231099
8.99096e-06
9.64133e-06
1.09213e-05
1.20745e-05
1.32094e-05
4.56105e-05
0.000224969
0.00193551
0.0141451
0.024562
0.0289092
0.0308437
0.0317062
0.0279161
0.0127919
0.000781888
0.000161687
2.77252e-05
1.16297e-05
1.01958e-05
9.38109e-06
9.05371e-06
2.75148e-05
0.021314
0.080868
0.0810976
0.0814676
0.0277645
0.000692388
8.80414e-06
8.85517e-06
8.92362e-06
1.03536e-05
1.11109e-05
1.34014e-05
0.000160779
0.002308
0.0112105
0.0280307
0.0346735
0.0361259
0.0372445
0.0392961
0.040787
0.031764
0.00952858
0.00223998
0.000132168
1.25655e-05
1.00399e-05
8.9627e-06
9.01403e-06
8.7408e-06
7.75015e-05
0.0248592
0.0807458
0.0323439
0.000501069
0.00010646
9.27847e-06
8.13411e-06
8.66017e-06
9.91223e-06
1.13208e-05
2.54307e-05
0.00211574
0.0161747
0.0347587
0.0446224
0.0442859
0.0429565
0.043156
0.0453385
0.0502776
0.0530074
0.0400715
0.0187105
0.0028333
3.10065e-05
1.11204e-05
9.90546e-06
8.585e-06
8.42892e-06
1.29282e-05
0.000508529
0.0277757
0.00505983
0.000105851
0.000295752
1.45371e-05
1.07816e-05
9.57492e-06
1.04167e-05
1.30475e-05
0.00142838
0.0212915
0.0475702
0.055864
0.0524223
0.0466413
0.0436
0.0431355
0.0449667
0.0499791
0.0586973
0.0631523
0.0559818
0.0284613
0.00368502
4.67841e-05
1.16742e-05
1.14443e-05
1.29223e-05
0.000210386
2.11318e-05
0.00321552
0.00101396
0.000105117
0.00135854
0.00136192
1.60412e-05
1.16604e-05
1.4376e-05
0.00169214
0.0271693
0.0627071
0.0638752
0.0573948
0.0487617
0.0421491
0.0387676
0.0378653
0.0392567
0.0437983
0.052624
0.0633439
0.0726076
0.0726598
0.041709
0.00767293
0.000470964
4.06146e-05
4.56991e-05
0.000493776
2.05708e-05
0.00023763
0.000103781
0.000172471
0.00437502
0.000614847
2.58229e-05
0.000127311
0.00374428
0.0376421
0.0701857
0.0705352
0.0637982
0.0479037
0.0366968
0.0300373
0.0266366
0.0254838
0.0264608
0.0300975
0.0378619
0.0510455
0.0672966
0.0752273
0.0751929
0.0551452
0.0172684
0.00333007
0.0010728
0.000938165
6.65803e-05
5.2029e-05
7.68555e-05
0.00169797
0.00438339
0.000603752
0.000717443
0.0111636
0.0511165
0.0706181
0.0711193
0.0688552
0.045382
0.0286526
0.0197974
0.0152912
0.0130781
0.0122277
0.0126122
0.0145474
0.0193111
0.0293774
0.0468522
0.0697163
0.0753192
0.075272
0.0620391
0.0265176
0.0075984
0.00337511
0.0010223
5.47147e-05
0.000171662
0.00515171
0.00440384
0.00148078
0.0153804
0.0603438
0.0708404
0.071196
0.0705293
0.0413215
0.0199727
0.0111488
0.00751415
0.00594273
0.00513378
0.00469807
0.00458408
0.0047976
0.006002
0.00968993
0.0195775
0.0425822
0.0720203
0.0753505
0.0753168
0.062966
0.0309996
0.0120072
0.00408792
0.00011748
0.000199859
0.00754023
0.00869217
0.015984
0.0605399
0.0709211
0.0712086
0.0704664
0.0355302
0.0109053
0.00450967
0.00289306
0.00260627
0.00261248
0.00251629
0.00226309
0.00187139
0.00136042
0.00108439
0.00128439
0.00282277
0.0108374
0.0381281
0.0724318
0.0753766
0.0753513
0.0638176
0.0355774
0.0109328
0.00023545
0.000310724
0.0137077
0.0298863
0.0590907
0.0709351
0.0712157
0.0703535
0.0275741
0.0041549
0.000703167
0.000443957
0.000653083
0.00118797
0.00190238
0.00243919
0.00213293
0.00123342
0.000504972
0.000172028
8.05566e-05
8.76262e-05
0.000435387
0.00579114
0.0357885
0.074936
0.0754063
0.075387
0.0678487
0.0283897
0.000934939
0.00117229
0.0305052
0.0643891
0.0709565
0.0712244
0.0703533
0.023861
0.00130306
4.41891e-05
1.72477e-05
3.45785e-05
0.000185027
0.000777881
0.00196622
0.00269177
0.00236422
0.0012774
0.000305608
5.06308e-05
1.38746e-05
1.30937e-05
1.321e-05
6.40579e-05
0.00394661
0.0390616
0.0753177
0.0754173
0.075419
0.0533145
0.00544508
0.00649118
0.0540389
0.0709258
0.0712224
0.0704324
0.0250456
0.000701965
1.28092e-05
1.19553e-05
1.25712e-05
1.49628e-05
9.8667e-05
0.000776198
0.00217457
0.00318709
0.00285689
0.00147264
0.00030831
2.80185e-05
1.31457e-05
1.24207e-05
1.16041e-05
1.13796e-05
1.75655e-05
0.00404066
0.0499
0.0754131
0.0754198
0.0706166
0.0194733
0.021908
0.0702799
0.0712146
0.0706303
0.0316183
0.000469854
1.13158e-05
1.05686e-05
1.14657e-05
1.24163e-05
1.34289e-05
7.87476e-05
0.000836695
0.00248163
0.00364741
0.00338064
0.00182421
0.000354563
2.388e-05
1.26267e-05
1.23086e-05
1.13119e-05
1.01969e-05
9.9311e-06
1.3447e-05
0.00508687
0.0683857