/*--------------------------------*- C++ -*----------------------------------*\
| =========                 |                                                 |
| \\      /  F ield         | OpenFOAM: The Open Source CFD Toolbox           |
|  \\    /   O peration     | Version:  v1606+                                |
|   \\  /    A nd           | Web:      www.OpenFOAM.com                      |
|    \\/     M anipulation  |                                                 |
\*---------------------------------------------------------------------------*/
FoamFile
{
    version     2.0;
    format      ascii;
    class       volScalarField;
    location    "0.38";
    object      pMean;
}
// * * * * * * * * * * * * * * * * * * * * * * * * * * * * * * * * * * * * * //

dimensions      [1 -1 -2 0 0 0 0];

internalField   nonuniform List<scalar> 
6000
(
109278
109278
109278
109278
109278
109278
109278
109278
109278
109278
109278
109278
109278
109278
109278
109278
109278
109278
109278
109278
109278
109278
109278
109278
109278
109278
109278
109278
109278
109277
109206
109207
109206
109207
109207
109207
109208
109208
109208
109208
109208
109208
109208
109208
109208
109208
109208
109208
109208
109208
109208
109208
109208
109208
109207
109207
109206
109206
109206
109206
109154
109155
109155
109156
109156
109157
109158
109158
109159
109159
109159
109159
109159
109159
109159
109159
109159
109159
109159
109159
109159
109159
109158
109158
109157
109156
109155
109155
109155
109154
109098
109098
109098
109100
109101
109103
109104
109105
109106
109107
109107
109107
109107
109107
109108
109108
109107
109107
109107
109107
109106
109106
109105
109104
109103
109101
109099
109098
109097
109097
109042
109042
109043
109046
109049
109052
109054
109055
109056
109057
109057
109057
109058
109058
109058
109058
109058
109057
109057
109057
109056
109056
109055
109054
109052
109049
109046
109043
109042
109042
108987
108988
108990
108993
108997
109000
109003
109005
109006
109006
109007
109007
109007
109007
109007
109007
109007
109007
109007
109006
109006
109006
109005
109003
109000
108996
108992
108989
108987
108987
108932
108932
108934
108937
108940
108944
108948
108951
108952
108953
108953
108954
108954
108954
108954
108954
108954
108954
108954
108953
108953
108952
108950
108947
108944
108940
108936
108933
108931
108931
108874
108874
108874
108876
108879
108883
108888
108891
108894
108895
108896
108896
108897
108897
108897
108897
108897
108896
108896
108896
108895
108893
108891
108887
108883
108878
108874
108872
108872
108873
108813
108811
108810
108812
108815
108820
108824
108828
108831
108833
108834
108835
108836
108836
108836
108836
108836
108836
108835
108834
108833
108830
108827
108823
108819
108814
108810
108809
108810
108812
108751
108750
108749
108749
108752
108757
108761
108765
108767
108769
108772
108774
108775
108775
108776
108776
108775
108775
108774
108772
108769
108766
108764
108761
108756
108751
108748
108748
108749
108750
108691
108690
108689
108688
108690
108695
108700
108703
108705
108707
108710
108713
108715
108716
108716
108716
108716
108715
108713
108710
108707
108705
108703
108700
108694
108690
108688
108688
108690
108691
108632
108631
108629
108628
108629
108634
108639
108642
108644
108645
108648
108651
108654
108655
108656
108656
108655
108654
108651
108648
108644
108643
108642
108639
108633
108629
108628
108629
108631
108632
108572
108572
108570
108568
108569
108572
108578
108581
108582
108583
108586
108589
108592
108594
108594
108594
108594
108592
108589
108586
108583
108582
108581
108578
108572
108569
108568
108570
108572
108573
108513
108512
108510
108508
108508
108511
108516
108520
108521
108522
108524
108527
108530
108531
108532
108532
108531
108530
108527
108524
108522
108521
108520
108516
108511
108508
108509
108510
108512
108513
108453
108452
108450
108449
108449
108451
108454
108458
108460
108462
108464
108466
108468
108469
108470
108470
108469
108468
108466
108464
108462
108460
108458
108455
108451
108449
108449
108451
108452
108453
108393
108392
108390
108389
108389
108390
108393
108396
108399
108401
108403
108405
108407
108408
108408
108408
108408
108407
108405
108403
108401
108399
108396
108393
108390
108389
108389
108390
108392
108393
108332
108331
108329
108327
108327
108327
108329
108332
108335
108338
108340
108342
108344
108345
108346
108346
108345
108344
108343
108341
108338
108335
108333
108329
108327
108327
108328
108329
108331
108332
108269
108268
108265
108263
108262
108261
108263
108266
108269
108272
108275
108277
108279
108280
108281
108281
108280
108279
108277
108275
108272
108269
108266
108263
108262
108262
108264
108266
108268
108269
108203
108201
108198
108195
108193
108192
108194
108197
108201
108204
108207
108209
108211
108212
108213
108213
108212
108211
108209
108207
108204
108201
108197
108194
108193
108194
108196
108199
108201
108203
108133
108131
108127
108124
108121
108121
108123
108126
108130
108133
108136
108139
108140
108142
108142
108142
108142
108141
108139
108136
108134
108130
108127
108123
108121
108122
108124
108128
108131
108133
108060
108057
108053
108050
108048
108048
108050
108054
108058
108061
108063
108065
108067
108068
108068
108068
108068
108067
108065
108063
108061
108058
108054
108051
108048
108048
108050
108054
108057
108060
107983
107981
107976
107974
107973
107975
107977
107980
107984
107986
107987
107989
107990
107991
107991
107991
107991
107990
107989
107987
107986
107984
107981
107978
107975
107974
107974
107977
107981
107984
107905
107902
107899
107898
107900
107901
107903
107905
107906
107908
107908
107909
107910
107911
107911
107911
107911
107910
107909
107908
107907
107906
107905
107903
107902
107900
107899
107899
107902
107905
107825
107823
107823
107824
107825
107826
107826
107825
107826
107826
107826
107826
107827
107827
107827
107827
107827
107827
107826
107826
107826
107825
107825
107826
107826
107825
107824
107823
107823
107825
107745
107745
107747
107748
107749
107747
107745
107742
107741
107740
107740
107740
107740
107741
107741
107741
107740
107740
107740
107740
107740
107740
107742
107744
107747
107749
107748
107748
107746
107746
107667
107668
107671
107671
107669
107665
107659
107655
107652
107651
107651
107651
107651
107651
107651
107651
107651
107651
107650
107650
107651
107652
107654
107658
107664
107669
107671
107671
107669
107668
107589
107590
107592
107590
107584
107576
107569
107563
107560
107559
107558
107559
107559
107560
107560
107560
107560
107559
107558
107558
107558
107560
107563
107568
107576
107584
107590
107592
107591
107589
107508
107510
107509
107503
107494
107484
107475
107469
107465
107463
107463
107464
107466
107467
107468
107468
107467
107466
107464
107463
107463
107464
107468
107474
107483
107493
107503
107509
107510
107508
107424
107425
107419
107410
107398
107387
107378
107371
107367
107366
107367
107369
107372
107374
107375
107375
107374
107371
107369
107366
107365
107366
107370
107377
107386
107397
107409
107419
107425
107424
107334
107332
107323
107312
107300
107288
107278
107270
107266
107266
107269
107273
107277
107280
107281
107281
107279
107277
107273
107269
107266
107266
107269
107277
107287
107299
107311
107322
107331
107334
107238
107233
107223
107211
107198
107185
107175
107168
107166
107167
107172
107177
107182
107185
107187
107187
107185
107182
107177
107172
107167
107165
107167
107174
107184
107197
107210
107222
107232
107237
107137
107131
107121
107108
107094
107082
107072
107067
107067
107070
107076
107082
107087
107091
107092
107092
107090
107087
107082
107076
107070
107066
107066
107071
107080
107093
107107
107120
107130
107136
107034
107028
107017
107004
106990
106979
106972
106970
106973
106977
106983
106989
106993
106996
106997
106997
106996
106993
106988
106983
106977
106972
106970
106971
106978
106989
107002
107016
107026
107032
106929
106923
106912
106899
106888
106880
106877
106879
106883
106887
106892
106896
106899
106901
106902
106902
106901
106899
106895
106891
106887
106882
106878
106876
106879
106886
106898
106911
106922
106928
106825
106819
106808
106797
106789
106786
106787
106791
106795
106799
106801
106803
106805
106806
106807
106807
106806
106804
106802
106800
106798
106794
106790
106786
106785
106788
106796
106807
106817
106823
106721
106715
106706
106699
106695
106697
106700
106704
106708
106710
106710
106710
106711
106711
106711
106711
106710
106710
106709
106709
106708
106707
106704
106699
106696
106695
106698
106705
106714
106720
106619
106615
106609
106606
106606
106610
106615
106618
106620
106619
106618
106616
106615
106615
106614
106614
106614
106614
106615
106617
106618
106618
106617
106614
106609
106606
106605
106608
106614
106618
106520
106518
106516
106517
106520
106525
106528
106530
106529
106527
106524
106521
106519
106518
106517
106517
106517
106518
106520
106523
106526
106528
106529
106527
106524
106520
106516
106515
106517
106520
106425
106425
106427
106431
106436
106439
106440
106439
106436
106432
106429
106425
106422
106420
106419
106419
106420
106421
106424
106427
106431
106434
106438
106439
106438
106435
106430
106426
106424
106425
106332
106334
106340
106345
106349
106351
106349
106345
106340
106335
106331
106327
106324
106323
106322
106322
106322
106324
106326
106329
106333
106338
106343
106347
106349
106348
106345
106339
106334
106332
106241
106245
106252
106257
106259
106257
106252
106246
106240
106235
106231
106228
106226
106225
106225
106225
106225
106226
106227
106230
106233
106238
106244
106250
106255
106258
106257
106251
106245
106241
106151
106155
106160
106162
106161
106156
106149
106142
106136
106132
106129
106128
106127
106127
106127
106127
106127
106127
106128
106129
106131
106135
106141
106148
106155
106160
106162
106160
106155
106151
106060
106063
106064
106061
106056
106049
106042
106034
106030
106027
106027
106028
106028
106029
106029
106029
106029
106029
106028
106028
106028
106030
106034
106041
106049
106056
106062
106064
106063
106060
105965
105966
105962
105956
105948
105940
105931
105925
105923
105923
105925
105927
105929
105930
105930
105931
105931
105930
105929
105927
105925
105924
105926
105932
105940
105949
105956
105963
105966
105966
105864
105862
105856
105847
105838
105828
105821
105817
105817
105820
105823
105827
105829
105830
105831
105832
105832
105831
105829
105826
105823
105820
105820
105823
105830
105839
105848
105857
105863
105865
105757
105754
105746
105737
105726
105718
105713
105712
105715
105719
105723
105727
105729
105731
105732
105733
105732
105732
105730
105727
105723
105719
105716
105716
105721
105728
105738
105748
105755
105759
105648
105644
105635
105625
105617
105611
105609
105611
105615
105619
105624
105627
105630
105632
105633
105633
105633
105633
105631
105629
105625
105621
105617
105614
105614
105619
105628
105637
105646
105650
105539
105533
105525
105517
105511
105508
105510
105514
105518
105522
105525
105528
105531
105533
105534
105535
105535
105534
105533
105531
105528
105525
105520
105516
105513
105514
105520
105528
105535
105541
105430
105425
105419
105413
105410
105411
105415
105419
105422
105425
105428
105430
105433
105434
105435
105436
105436
105436
105435
105434
105432
105430
105426
105421
105416
105414
105416
105422
105428
105432
105325
105321
105317
105314
105315
105318
105322
105326
105328
105329
105331
105333
105335
105336
105337
105337
105338
105338
105337
105337
105337
105336
105334
105329
105324
105319
105318
105320
105324
105327
105224
105222
105220
105220
105223
105228
105231
105234
105234
105234
105235
105236
105237
105238
105239
105239
105239
105239
105240
105240
105241
105242
105241
105238
105234
105228
105224
105223
105224
105226
105127
105126
105127
105130
105134
105138
105140
105141
105140
105139
105139
105140
105140
105140
105140
105140
105140
105141
105141
105142
105144
105146
105147
105146
105144
105140
105134
105130
105128
105129
105033
105034
105037
105041
105045
105047
105047
105046
105045
105044
105043
105043
105043
105042
105042
105041
105041
105041
105041
105042
105044
105047
105049
105051
105052
105051
105047
105041
105036
105035
104943
104945
104949
104953
104954
104953
104951
104948
104947
104947
104946
104945
104944
104943
104942
104942
104941
104941
104941
104941
104942
104944
104948
104953
104957
104958
104957
104953
104947
104944
104853
104856
104860
104861
104859
104856
104852
104849
104848
104848
104848
104846
104844
104843
104842
104841
104840
104840
104839
104838
104838
104838
104841
104847
104855
104861
104863
104862
104857
104854
104762
104764
104766
104764
104760
104755
104750
104748
104748
104749
104748
104746
104744
104742
104740
104739
104738
104737
104737
104735
104734
104732
104732
104737
104745
104754
104761
104764
104763
104761
104667
104667
104666
104662
104655
104649
104647
104647
104648
104648
104646
104644
104641
104639
104637
104636
104635
104634
104634
104632
104630
104627
104625
104625
104631
104640
104650
104659
104663
104663
104567
104566
104560
104552
104546
104544
104545
104548
104548
104547
104544
104540
104538
104535
104534
104532
104531
104531
104530
104529
104527
104524
104520
104517
104518
104525
104535
104546
104555
104558
104462
104457
104448
104441
104440
104443
104446
104448
104447
104444
104440
104436
104433
104430
104428
104427
104427
104426
104426
104426
104425
104422
104418
104412
104410
104413
104420
104431
104441
104447
104350
104344
104338
104334
104338
104344
104348
104348
104344
104338
104333
104329
104326
104324
104322
104321
104321
104321
104322
104323
104323
104322
104319
104314
104308
104306
104310
104318
104327
104333
104238
104234
104230
104233
104241
104247
104248
104244
104237
104231
104225
104221
104218
104216
104215
104215
104215
104215
104216
104218
104221
104223
104222
104219
104213
104207
104206
104210
104216
104221
104131
104128
104131
104139
104146
104147
104143
104136
104127
104120
104115
104112
104110
104108
104108
104108
104108
104108
104109
104112
104116
104121
104125
104126
104122
104116
104110
104108
104110
104113
104028
104031
104039
104046
104048
104043
104033
104023
104014
104008
104004
104002
104001
104000
104000
104000
104000
104001
104002
104004
104008
104014
104022
104028
104030
104027
104020
104013
104010
104011
103931
103937
103946
103949
103943
103931
103919
103908
103900
103894
103892
103891
103892
103892
103892
103893
103893
103893
103893
103894
103897
103903
103913
103923
103931
103933
103930
103924
103917
103914
103839
103843
103847
103842
103829
103814
103801
103791
103784
103781
103781
103782
103783
103785
103786
103786
103786
103785
103785
103785
103786
103790
103798
103811
103824
103833
103836
103834
103828
103823
103744
103745
103740
103727
103711
103696
103682
103673
103669
103668
103670
103673
103676
103678
103680
103680
103680
103679
103677
103676
103675
103676
103682
103693
103708
103723
103734
103738
103736
103733
103640
103636
103624
103609
103592
103576
103564
103557
103555
103557
103562
103566
103570
103574
103576
103576
103576
103574
103572
103568
103565
103564
103567
103576
103589
103606
103622
103633
103637
103637
103527
103520
103506
103489
103473
103459
103449
103445
103445
103450
103456
103462
103467
103471
103473
103474
103474
103472
103468
103463
103458
103455
103455
103461
103472
103487
103504
103519
103530
103533
103410
103401
103388
103372
103357
103346
103339
103338
103341
103347
103353
103360
103366
103370
103373
103374
103373
103371
103367
103362
103356
103352
103350
103351
103358
103371
103386
103402
103416
103423
103293
103285
103272
103259
103247
103239
103237
103239
103244
103249
103255
103261
103267
103271
103273
103275
103274
103272
103269
103264
103259
103254
103251
103249
103252
103260
103273
103287
103300
103308
103179
103172
103162
103152
103144
103141
103143
103147
103152
103156
103161
103165
103170
103173
103175
103176
103176
103175
103173
103170
103166
103163
103159
103155
103154
103157
103165
103176
103187
103195
103071
103066
103059
103052
103049
103050
103055
103061
103065
103068
103069
103072
103074
103076
103078
103078
103079
103079
103078
103077
103076
103076
103073
103068
103063
103062
103065
103072
103079
103085
102970
102966
102962
102960
102961
102966
102972
102976
102979
102979
102979
102979
102979
102980
102980
102981
102981
102982
102983
102984
102986
102987
102987
102984
102979
102974
102972
102974
102978
102982
102874
102872
102873
102875
102880
102885
102888
102890
102890
102889
102887
102885
102884
102882
102882
102882
102882
102884
102886
102889
102893
102896
102897
102898
102896
102892
102887
102884
102883
102885
102783
102785
102789
102794
102799
102801
102801
102799
102797
102795
102793
102789
102786
102784
102782
102782
102782
102783
102786
102791
102795
102799
102803
102807
102809
102808
102805
102799
102794
102792
102696
102701
102709
102713
102714
102713
102708
102704
102700
102697
102693
102689
102685
102683
102681
102680
102680
102681
102683
102687
102692
102697
102703
102709
102715
102718
102719
102715
102708
102703
102612
102617
102623
102625
102622
102617
102610
102603
102597
102593
102589
102585
102582
102580
102579
102578
102577
102578
102579
102581
102584
102589
102596
102604
102613
102620
102625
102625
102621
102616
102526
102528
102531
102529
102522
102513
102504
102496
102490
102486
102483
102480
102478
102477
102475
102474
102474
102473
102473
102474
102475
102479
102485
102494
102505
102515
102524
102528
102529
102527
102433
102434
102431
102424
102415
102404
102395
102386
102381
102378
102376
102375
102374
102373
102372
102371
102370
102369
102369
102368
102368
102369
102373
102381
102392
102404
102416
102424
102429
102431
102334
102332
102325
102315
102305
102295
102285
102278
102274
102272
102271
102271
102271
102270
102270
102269
102268
102266
102265
102263
102263
102263
102266
102272
102281
102293
102305
102316
102325
102328
102231
102226
102217
102206
102197
102188
102180
102174
102171
102169
102168
102169
102169
102169
102168
102168
102167
102165
102163
102162
102161
102161
102164
102168
102175
102185
102196
102207
102218
102223
102125
102119
102111
102102
102093
102085
102079
102074
102070
102068
102068
102068
102069
102069
102069
102068
102067
102066
102064
102063
102063
102064
102066
102070
102076
102083
102092
102102
102111
102117
102021
102016
102009
102002
101995
101988
101982
101977
101974
101971
101970
101970
101970
101970
101970
101969
101969
101968
101968
101968
101969
101971
101973
101977
101982
101988
101995
102002
102009
102014
101921
101917
101913
101907
101901
101894
101889
101884
101881
101877
101875
101873
101873
101872
101872
101872
101872
101872
101873
101875
101877
101881
101884
101887
101891
101896
101902
101908
101912
101916
101826
101823
101820
101815
101809
101803
101798
101794
101789
101785
101781
101778
101776
101775
101774
101774
101775
101776
101779
101782
101786
101791
101795
101799
101802
101807
101812
101817
101819
101822
101733
101732
101730
101724
101718
101713
101708
101703
101698
101693
101687
101684
101681
101679
101678
101679
101680
101682
101685
101689
101694
101700
101706
101710
101714
101718
101724
101728
101730
101731
101643
101643
101640
101634
101628
101623
101618
101612
101606
101600
101594
101590
101587
101585
101585
101585
101586
101588
101592
101596
101602
101608
101615
101621
101626
101630
101635
101640
101642
101643
101556
101555
101550
101544
101539
101533
101527
101521
101514
101508
101503
101499
101496
101495
101494
101494
101496
101498
101501
101505
101511
101517
101523
101530
101536
101542
101547
101552
101555
101557
101469
101466
101462
101455
101449
101443
101437
101431
101425
101419
101415
101411
101409
101408
101407
101408
101408
101410
101413
101417
101422
101427
101434
101440
101446
101452
101459
101464
101468
101471
101382
101379
101374
101367
101361
101355
101350
101344
101338
101334
101330
101327
101325
101324
101324
101324
101325
101326
101329
101332
101336
101341
101346
101352
101358
101364
101371
101377
101382
101384
101296
101293
101287
101282
101276
101271
101265
101260
101255
101251
101248
101246
101244
101243
101243
101243
101244
101245
101247
101250
101253
101257
101262
101268
101273
101279
101285
101291
101296
101298
101211
101208
101204
101200
101195
101190
101184
101179
101175
101172
101169
101167
101165
101165
101164
101165
101165
101166
101168
101170
101173
101177
101181
101187
101192
101198
101203
101206
101210
101214
101129
101126
101124
101121
101116
101112
101106
101102
101097
101094
101091
101089
101088
101088
101087
101088
101088
101089
101090
101092
101095
101099
101103
101108
101114
101119
101123
101126
101129
101131
101050
101048
101047
101044
101040
101036
101031
101026
101021
101018
101015
101014
101013
101012
101012
101012
101013
101013
101014
101016
101019
101022
101027
101032
101037
101042
101045
101048
101050
101051
100974
100973
100972
100969
100966
100962
100957
100951
100947
100943
100941
100940
100939
100939
100939
100939
100939
100939
100940
100941
100944
100947
100952
100958
100963
100967
100970
100973
100974
100975
100901
100900
100900
100897
100894
100889
100883
100878
100873
100870
100868
100867
100867
100867
100867
100867
100867
100867
100868
100869
100870
100874
100878
100884
100890
100894
100898
100900
100901
100901
100829
100829
100829
100826
100822
100817
100811
100805
100801
100799
100797
100796
100796
100796
100796
100796
100797
100797
100797
100797
100799
100802
100806
100811
100817
100822
100826
100829
100829
100829
100757
100758
100758
100755
100750
100745
100739
100734
100731
100729
100727
100727
100727
100727
100727
100727
100727
100727
100727
100728
100729
100731
100734
100739
100745
100750
100755
100758
100758
100757
100685
100686
100685
100682
100678
100673
100668
100665
100662
100661
100660
100659
100659
100659
100659
100659
100659
100660
100660
100660
100661
100662
100665
100668
100672
100677
100682
100684
100686
100684
100615
100616
100614
100611
100608
100605
100603
100602
100600
100599
100599
100598
100598
100598
100598
100598
100599
100599
100599
100599
100600
100601
100602
100603
100605
100608
100611
100613
100615
100614
100551
100550
100549
100547
100545
100545
100545
100546
100546
100546
100545
100545
100545
100545
100545
100545
100545
100545
100545
100546
100546
100547
100546
100545
100544
100545
100546
100548
100549
100550
100491
100490
100488
100487
100488
100489
100492
100494
100496
100497
100497
100496
100496
100496
100497
100497
100497
100497
100497
100497
100497
100496
100495
100492
100489
100487
100487
100488
100489
100490
100434
100433
100433
100433
100435
100439
100443
100447
100449
100450
100451
100451
100451
100451
100451
100451
100451
100451
100451
100451
100450
100449
100447
100443
100439
100435
100433
100432
100432
100434
100382
100381
100382
100384
100388
100393
100397
100401
100404
100406
100407
100407
100407
100408
100408
100408
100408
100408
100407
100407
100406
100404
100401
100397
100393
100388
100384
100381
100380
100381
100333
100333
100336
100340
100345
100350
100354
100358
100361
100363
100365
100366
100366
100366
100366
100366
100366
100366
100366
100365
100363
100361
100358
100354
100350
100345
100340
100335
100333
100332
100290
100291
100295
100300
100305
100309
100313
100317
100320
100323
100325
100326
100326
100326
100327
100327
100326
100326
100326
100324
100323
100320
100317
100313
100309
100305
100300
100294
100290
100289
100251
100253
100258
100263
100267
100271
100274
100278
100281
100284
100286
100287
100288
100288
100288
100288
100288
100288
100287
100285
100283
100281
100277
100274
100270
100266
100262
100257
100252
100250
100217
100219
100223
100228
100231
100234
100237
100240
100244
100246
100248
100250
100251
100251
100252
100252
100251
100251
100250
100248
100246
100243
100240
100237
100233
100230
100227
100223
100218
100216
100186
100187
100190
100194
100197
100199
100202
100205
100208
100211
100213
100214
100215
100216
100216
100216
100216
100215
100214
100212
100210
100207
100205
100202
100199
100196
100193
100190
100186
100185
100156
100157
100159
100162
100165
100167
100169
100172
100175
100177
100179
100181
100182
100183
100183
100183
100182
100182
100181
100179
100177
100174
100171
100169
100166
100164
100161
100158
100156
100156
100130
100129
100131
100133
100135
100137
100139
100141
100143
100146
100148
100149
100150
100151
100151
100151
100151
100150
100149
100147
100145
100143
100141
100139
100137
100134
100132
100130
100128
100129
100105
100104
100105
100107
100109
100110
100112
100113
100115
100117
100119
100120
100121
100122
100122
100122
100122
100121
100120
100118
100117
100115
100113
100111
100110
100108
100106
100105
100104
100104
100084
100083
100083
100084
100086
100087
100088
100089
100090
100091
100093
100094
100095
100095
100095
100095
100095
100095
100094
100093
100091
100090
100088
100087
100086
100085
100084
100083
100082
100083
100066
100064
100065
100065
100066
100066
100067
100067
100068
100069
100070
100071
100071
100072
100072
100072
100072
100071
100071
100070
100069
100068
100067
100066
100066
100066
100065
100064
100064
100065
100051
100049
100049
100049
100049
100049
100049
100049
100049
100050
100050
100051
100051
100051
100051
100051
100051
100051
100051
100050
100050
100049
100049
100049
100049
100049
100049
100049
100049
100051
100038
100037
100036
100036
100036
100035
100034
100034
100034
100034
100034
100034
100035
100035
100035
100035
100035
100035
100034
100034
100034
100034
100034
100034
100035
100036
100036
100036
100037
100038
100028
100026
100026
100025
100025
100024
100023
100022
100022
100022
100022
100021
100021
100021
100021
100021
100021
100021
100021
100022
100022
100022
100022
100023
100024
100025
100025
100026
100026
100028
100019
100018
100017
100017
100016
100015
100014
100014
100013
100012
100012
100012
100011
100011
100011
100011
100011
100011
100012
100012
100012
100013
100014
100014
100015
100016
100017
100017
100018
100019
100012
100011
100011
100010
100009
100009
100008
100007
100006
100006
100005
100005
100005
100005
100005
100005
100005
100005
100005
100005
100006
100006
100007
100008
100009
100009
100010
100011
100011
100012
100006
100006
100005
100005
100005
100004
100004
100004
100003
100003
100003
100003
100003
100003
100003
100003
100003
100003
100003
100003
100003
100003
100004
100004
100005
100005
100005
100005
100006
100006
100003
100003
100003
100003
100003
100003
100003
100003
100003
100003
100003
100002
100002
100002
100002
100002
100002
100002
100002
100003
100003
100003
100003
100003
100003
100003
100003
100003
100003
100003
100003
100003
100003
100002
100002
100002
100002
100002
100002
100002
100002
100002
100002
100002
100002
100002
100002
100002
100002
100002
100002
100002
100002
100002
100002
100002
100002
100003
100003
100003
100002
100002
100002
100002
100002
100002
100002
100002
100002
100002
100002
100002
100002
100002
100002
100002
100002
100002
100002
100002
100002
100002
100002
100002
100002
100002
100002
100002
100002
100002
100002
100002
100002
100002
100002
100002
100002
100002
100002
100002
100002
100002
100002
100002
100002
100002
100002
100002
100002
100002
100002
100002
100002
100002
100002
100002
100002
100002
100002
100002
100002
100002
100002
100002
100002
100002
100002
100002
100002
100002
100002
100002
100002
100002
100002
100002
100002
100002
100002
100002
100002
100002
100002
100002
100002
100002
100002
100002
100002
100002
100002
100002
100002
100002
100002
100002
100002
100002
100002
100002
100002
100002
100002
100002
100002
100002
100002
100002
100002
100002
100002
100002
100002
100002
100002
100002
100002
100002
100002
100002
100002
100002
100002
100002
100002
100002
100002
100002
100002
100002
100002
100002
100002
100002
100002
100002
100002
100002
100002
100002
100002
100002
100002
100002
100002
100002
100002
100002
100002
100002
100002
100002
100002
100002
100002
100002
100002
100002
100002
100002
100002
100002
100002
100002
100002
100002
100002
100002
100002
100002
100002
100002
100002
100002
100002
100002
100002
100002
100002
100002
100002
100002
100002
100002
100002
100002
100002
100002
100002
100002
100002
100002
100002
100002
100002
100002
100002
100002
100002
100002
100002
100002
100002
100002
100002
100002
100002
100002
100002
100002
100002
100002
100002
100002
100002
100002
100002
100002
100002
100002
100002
100002
100002
100002
100002
100002
100002
100002
100002
100002
100002
100002
100002
100002
100002
100002
100002
100002
100002
100002
100002
100002
100002
100002
100002
100002
100002
100002
100002
100002
100002
100002
100002
100002
100002
100002
100002
100002
100002
100002
100002
100002
100002
100002
100002
100002
100002
100002
100002
100002
100002
100002
100002
100002
100002
100002
100002
100002
100002
100002
100002
100002
100002
100002
100002
100002
100002
100002
100002
100002
100002
100002
100002
100002
100002
100002
100002
100002
100002
100002
100002
100002
100002
100002
100002
100002
100002
100002
100002
100002
100002
100002
100002
100002
100002
100002
100002
100002
100002
100002
100002
100002
100002
100002
100002
100002
100002
100002
100002
100002
100002
100002
100002
100002
100002
100002
100002
100002
100002
100002
100002
100002
100002
100002
100002
100002
100002
100002
100002
100002
100002
100002
100002
100002
100002
100002
100002
100002
100002
100002
100002
100002
100002
100002
100002
100002
100002
100002
100002
100002
100002
100002
100002
100002
100002
100002
100002
100002
100002
100002
100002
100002
100002
100002
100002
100002
100002
100002
100002
100002
100002
100002
100002
100002
100002
100002
100002
100002
100002
100002
100002
100002
100002
100002
100002
100002
100002
100002
100002
100002
100002
100002
100002
100002
100002
100002
100002
100002
100002
100002
100002
100002
100002
100002
100002
100002
100002
100002
100002
100002
100002
100002
100002
100002
100002
100002
100002
100002
100002
100002
100002
100002
100002
100002
100002
100002
100002
100002
100002
100002
100002
100002
100002
100002
100002
100002
100002
100002
100002
100002
100002
100002
100002
100002
100002
100002
100002
100002
100002
100002
100002
100002
100002
100002
100002
100002
100002
100002
100002
100002
100002
100002
100002
100002
100002
100002
100002
100002
100002
100002
100002
100002
100002
100002
100002
100002
100002
100002
100002
100002
100002
100002