/*--------------------------------*- C++ -*----------------------------------*\
| =========                 |                                                 |
| \\      /  F ield         | OpenFOAM: The Open Source CFD Toolbox           |
|  \\    /   O peration     | Version:  v1606+                                |
|   \\  /    A nd           | Web:      www.OpenFOAM.com                      |
|    \\/     M anipulation  |                                                 |
\*---------------------------------------------------------------------------*/
FoamFile
{
    version     2.0;
    format      ascii;
    class       volScalarField;
    location    "0.98";
    object      p_rgh;
}
// * * * * * * * * * * * * * * * * * * * * * * * * * * * * * * * * * * * * * //

dimensions      [1 -1 -2 0 0 0 0];

internalField   nonuniform List<scalar> 
6000
(
106959
106957
106957
106956
106953
106949
106946
106943
106943
106947
106953
106961
106969
106977
106985
106991
106997
107002
107006
107010
107014
107019
107026
107034
107044
107056
107066
107074
107081
107087
106921
106923
106926
106927
106925
106923
106921
106921
106925
106931
106939
106948
106958
106968
106977
106985
106991
106995
106998
107000
107003
107005
107009
107015
107023
107033
107041
107046
107048
107049
106904
106919
106937
106951
106954
106953
106946
106936
106938
106946
106957
106967
106977
106987
106998
107006
107012
107014
107016
107018
107020
107020
107025
107038
107057
107070
107075
107070
107054
107037
106810
106836
106870
106911
106944
106962
106964
106952
106949
106958
106969
106980
106993
107009
107025
107037
107041
107038
107034
107033
107034
107032
107040
107062
107083
107083
107058
107020
106976
106942
106718
106738
106766
106827
106886
106926
106959
106971
106975
106987
107001
107014
107031
107051
107071
107085
107090
107085
107074
107065
107067
107065
107071
107086
107077
107050
107003
106928
106869
106840
106687
106689
106692
106712
106776
106843
106894
106935
106963
106986
107006
107027
107046
107064
107082
107100
107116
107126
107119
107103
107099
107093
107085
107060
107033
106996
106898
106824
106804
106802
106697
106699
106686
106659
106652
106692
106760
106807
106841
106875
106907
106942
106972
107002
107032
107061
107083
107097
107100
107088
107069
107057
107028
106985
106938
106858
106812
106802
106806
106808
106712
106742
106718
106662
106614
106605
106624
106652
106672
106698
106727
106765
106815
106873
106928
106986
107023
107042
107039
106996
106949
106956
106897
106826
106794
106803
106820
106834
106828
106817
106754
106815
106782
106689
106617
106604
106599
106596
106595
106600
106606
106619
106648
106691
106746
106808
106880
106928
106890
106788
106734
106740
106712
106699
106735
106812
106875
106905
106883
106841
106814
106892
106882
106754
106636
106610
106606
106604
106603
106603
106605
106607
106627
106660
106711
106769
106810
106827
106791
106695
106635
106622
106623
106640
106721
106853
106956
106988
106953
106894
106889
106964
106988
106866
106687
106617
106613
106612
106613
106614
106620
106639
106674
106714
106770
106841
106884
106876
106824
106721
106636
106613
106615
106618
106703
106896
107042
107060
107024
106956
106976
107046
107065
106992
106772
106640
106620
106618
106629
106631
106649
106705
106769
106813
106872
106940
106968
106927
106851
106756
106660
106619
106620
106621
106679
106924
107128
107114
107096
107015
107084
107132
107129
107069
106868
106682
106629
106630
106656
106662
106698
106804
106896
106924
106972
107022
107022
106960
106870
106788
106704
106639
106625
106626
106669
106997
107171
107152
107168
107081
107183
107186
107175
107116
106958
106750
106663
106661
106698
106714
106771
106934
107039
107035
107055
107075
107053
106991
106907
106836
106769
106682
106634
106630
106693
107108
107205
107201
107217
107166
107227
107210
107206
107163
107061
106866
106734
106716
106752
106784
106867
107073
107164
107134
107125
107119
107099
107072
107037
106988
106895
106766
106669
106641
106770
107142
107228
107255
107264
107252
107243
107211
107223
107196
107205
107117
106893
106800
106817
106862
106976
107176
107243
107207
107184
107184
107204
107223
107231
107217
107114
106940
106780
106717
106922
107230
107294
107310
107304
107302
107239
107218
107228
107247
107330
107364
107169
106936
106893
106939
107061
107211
107271
107252
107249
107267
107300
107327
107342
107350
107320
107203
107025
106948
107171
107356
107351
107335
107320
107313
107223
107229
107267
107312
107346
107357
107341
107097
106979
107005
107096
107195
107273
107274
107292
107315
107333
107346
107360
107377
107396
107381
107304
107262
107364
107396
107360
107331
107310
107298
107211
107263
107281
107300
107306
107296
107287
107218
107070
107051
107089
107155
107252
107278
107299
107311
107318
107325
107336
107352
107376
107404
107417
107413
107402
107368
107331
107301
107280
107265
107191
107235
107246
107248
107239
107183
107225
107246
107144
107083
107071
107113
107220
107270
107281
107282
107285
107287
107294
107306
107323
107345
107363
107363
107339
107306
107277
107251
107232
107218
107128
107178
107186
107181
107147
107068
107159
107201
107185
107117
107066
107086
107198
107249
107249
107241
107240
107239
107241
107246
107255
107265
107270
107265
107249
107227
107205
107186
107170
107158
107073
107111
107117
107100
107004
107020
107087
107143
107178
107151
107090
107084
107177
107212
107202
107190
107185
107181
107177
107175
107176
107177
107174
107165
107152
107136
107121
107107
107097
107087
107011
107034
107038
107002
106940
107031
107058
107073
107122
107146
107113
107087
107135
107156
107142
107129
107122
107113
107104
107096
107091
107085
107075
107063
107049
107035
107024
107016
107011
107006
106938
106947
106953
106921
106893
107025
107009
106944
107024
107074
107084
107060
107072
107083
107071
107061
107052
107038
107024
107011
107000
106988
106974
106957
106940
106925
106914
106912
106913
106915
106847
106844
106866
106872
106885
106955
106910
106773
106881
106967
107009
107006
107003
107005
106996
106988
106975
106957
106938
106921
106906
106889
106870
106849
106826
106806
106787
106795
106798
106811
106736
106678
106756
106809
106851
106883
106796
106609
106684
106822
106913
106937
106933
106927
106920
106911
106894
106871
106848
106828
106809
106789
106766
106739
106705
106674
106616
106661
106643
106705
106589
106382
106604
106704
106777
106813
106675
106524
106514
106621
106803
106859
106863
106853
106844
106832
106809
106782
106756
106733
106712
106691
106667
106637
106594
106542
106473
106508
106426
106577
106350
106177
106359
106577
106694
106756
106635
106502
106388
106413
106693
106782
106794
106783
106770
106751
106723
106692
106663
106637
106615
106597
106582
106565
106538
106478
106422
106422
106371
106426
106190
106143
106141
106415
106611
106696
106694
106510
106301
106289
106590
106711
106730
106717
106696
106669
106636
106601
106568
106539
106514
106496
106491
106493
106498
106484
106455
106410
106329
106343
106227
106118
106112
106228
106516
106634
106685
106543
106289
106233
106447
106637
106673
106656
106625
106589
106549
106509
106470
106431
106393
106353
106362
106381
106409
106439
106450
106433
106372
106332
106279
106104
106082
106078
106429
106577
106634
106602
106332
106180
106274
106564
106624
106598
106555
106510
106463
106416
106366
106309
106234
106108
106168
106236
106282
106324
106364
106388
106375
106319
106294
106084
106055
106042
106353
106505
106572
106592
106426
106154
106163
106510
106580
106541
106487
106432
106378
106323
106259
106167
105991
105828
105863
106021
106134
106203
106252
106291
106307
106258
106351
106127
106095
106049
106167
106418
106508
106547
106487
106170
106154
106475
106531
106480
106418
106356
106295
106231
106147
105996
105774
105761
105741
105722
105930
106073
106145
106191
106217
106189
106366
106300
106251
106130
106102
106325
106429
106480
106471
106243
106214
106447
106469
106415
106350
106282
106214
106137
106028
105851
105747
105776
105696
105504
105634
105914
106045
106102
106132
106119
106313
106317
106287
106181
106042
106236
106346
106407
106425
106311
106271
106397
106405
106350
106283
106210
106132
106040
105910
105845
105843
105839
105766
105452
105362
105714
105936
106028
106063
106057
106199
106185
106112
106040
105990
106120
106253
106330
106365
106325
106284
106336
106343
106290
106219
106138
106042
105930
105839
105745
105731
105768
105751
105420
105276
105491
105815
105957
106008
106011
106089
106033
105900
105827
105875
105949
106131
106243
106304
106309
106286
106297
106289
106237
106163
106065
105936
105814
105725
105176
104987
105682
105564
105200
105217
105353
105690
105893
105966
105981
105991
105794
105749
105718
105795
105782
105991
106137
106237
106291
106291
106282
106258
106199
106110
105983
105801
105745
105101
104138
104074
104787
104697
104492
104836
105183
105576
105832
105937
105964
105845
105571
105704
105672
105733
105643
105982
105997
106086
106246
106291
106281
106252
106171
106051
105892
105660
104705
103823
103603
103604
103751
103747
103704
103945
104467
105271
105737
105917
105965
105322
105305
105582
105550
105506
105330
105255
105249
105647
106141
106277
106288
106265
106146
105951
105658
104331
103634
103547
103542
103502
103461
103417
103388
103422
103596
104303
105574
105888
105969
104233
104451
104743
104752
104547
104281
104012
104650
105487
106107
106282
106299
106280
106078
105674
104416
103701
103550
103546
103545
103510
103439
103373
103331
103314
103326
103534
105073
105900
105959
103474
103533
103603
103609
103518
103442
103550
104631
105717
106141
106309
106329
106312
105964
104619
103939
103691
103571
103549
103549
103531
103445
103368
103324
103301
103293
103331
104411
105903
105968
103300
103300
103300
103299
103293
103291
103385
104409
105969
106112
106339
106371
106358
105995
104267
104007
103873
103641
103553
103552
103535
103447
103362
103319
103298
103290
103311
103898
105760
106029
103285
103283
103281
103280
103280
103283
103310
103779
105465
105907
106337
106418
106412
106219
104738
104138
104048
103729
103557
103537
103527
103446
103356
103310
103294
103287
103300
103608
105590
106028
103284
103283
103281
103279
103280
103283
103295
103409
104640
106014
106358
106478
106473
106358
105648
104378
104255
103857
103573
103540
103540
103463
103355
103300
103287
103283
103293
103488
105034
106073
103284
103283
103281
103280
103280
103284
103295
103350
104159
106212
106376
106516
106543
106515
106222
104902
104487
104048
103627
103545
103570
103526
103378
103295
103280
103279
103285
103390
104067
105681
103284
103283
103281
103280
103280
103286
103298
103335
103737
105510
106275
106547
106614
106600
106456
105780
104817
104343
103730
103549
103584
103601
103419
103297
103278
103277
103279
103317
103530
105342
103284
103283
103281
103280
103281
103287
103301
103331
103455
104272
106344
106531
106668
106676
106617
106372
105398
104739
103904
103553
103555
103618
103462
103309
103277
103276
103276
103293
103447
105234
103284
103283
103280
103280
103281
103288
103304
103344
103434
103839
105486
106314
106697
106751
106712
106578
106113
105198
104190
103572
103499
103622
103537
103360
103290
103282
103277
103289
103449
105273
103284
103283
103280
103280
103281
103288
103307
103356
103468
103717
104474
106222
106704
106823
106790
106704
106509
105728
104615
103670
103455
103584
103648
103492
103351
103320
103292
103296
103490
105293
103284
103282
103280
103280
103282
103289
103309
103367
103506
103766
104351
106346
106686
106894
106869
106798
106665
106249
105103
103835
103437
103490
103696
103652
103473
103421
103345
103325
103609
104991
103284
103282
103280
103279
103282
103289
103311
103377
103548
103895
104436
105562
106432
106937
106930
106874
106786
106591
105527
104021
103434
103410
103696
103698
103592
103554
103445
103392
103700
104604
103283
103282
103280
103279
103282
103289
103313
103389
103593
104012
104631
105160
106367
106986
106971
106928
106874
106726
105858
104210
103435
103348
103500
103585
103622
103623
103548
103485
103741
104414
103283
103282
103280
103279
103281
103289
103314
103402
103645
104146
104846
105281
106575
107061
107002
106969
106949
106811
106096
104363
103440
103307
103326
103389
103550
103582
103584
103564
103775
104337
103283
103282
103279
103279
103281
103288
103315
103414
103705
104291
105068
105734
106812
107127
107007
107000
107026
106901
106237
104433
103441
103288
103267
103278
103373
103438
103531
103591
103788
104202
103283
103281
103279
103279
103281
103287
103315
103426
103771
104448
105314
106073
106952
107174
107003
107005
107107
106993
106307
104397
103415
103280
103254
103241
103254
103289
103379
103513
103691
103914
103283
103281
103279
103279
103280
103286
103314
103437
103845
104619
105557
106352
107031
107212
106988
106963
107167
107079
106251
104193
103365
103273
103252
103232
103215
103215
103250
103354
103471
103561
103282
103281
103279
103278
103278
103284
103312
103449
103931
104808
105800
106545
106948
107162
106849
106856
107149
107139
106064
103969
103322
103266
103251
103232
103207
103190
103193
103231
103283
103319
103282
103280
103278
103277
103275
103282
103309
103461
104042
105022
106015
106688
106880
106983
106802
106816
107111
107101
105744
103787
103289
103256
103250
103233
103207
103183
103173
103179
103197
103215
103281
103280
103278
103276
103273
103279
103305
103475
104179
105260
106228
106801
106926
106894
106840
106850
107014
106941
105610
103694
103263
103247
103246
103235
103208
103181
103166
103163
103171
103183
103281
103280
103278
103275
103273
103277
103301
103492
104342
105518
106430
106885
106978
106961
106897
106911
106929
106893
105667
103615
103243
103238
103242
103236
103211
103181
103163
103160
103165
103174
103280
103279
103277
103274
103273
103275
103296
103510
104507
105770
106608
106972
107030
107017
106951
106980
106962
106951
105728
103537
103229
103231
103239
103238
103215
103181
103162
103159
103164
103172
103280
103279
103277
103274
103273
103273
103292
103525
104634
105977
106738
107046
107085
107070
107022
107070
107026
107010
105776
103456
103216
103224
103238
103240
103220
103181
103161
103159
103163
103172
103279
103279
103276
103273
103273
103273
103290
103533
104697
106103
106833
107106
107138
107125
107118
107144
107095
107069
105819
103361
103206
103218
103237
103242
103227
103183
103160
103159
103163
103172
103278
103278
103276
103273
103273
103273
103290
103533
104710
106164
106896
107157
107200
107210
107205
107208
107180
107124
105741
103270
103196
103213
103236
103243
103232
103188
103161
103158
103163
103172
103277
103278
103276
103274
103273
103273
103291
103507
104535
106035
106882
107205
107278
107281
107280
107270
107270
107092
105205
103231
103188
103208
103234
103244
103235
103195
103164
103159
103164
103172
103275
103277
103276
103274
103274
103274
103293
103478
104246
105572
106635
107193
107345
107354
107359
107337
107341
106818
104381
103208
103180
103201
103231
103245
103239
103206
103173
103164
103167
103174
103275
103277
103276
103275
103274
103274
103300
103469
104063
105141
106267
107059
107400
107441
107438
107405
107400
106210
103662
103183
103174
103194
103227
103246
103246
103222
103190
103175
103176
103182
103275
103277
103277
103276
103274
103275
103316
103494
104020
104914
105924
106831
107438
107532
107515
107493
107432
105353
103290
103166
103170
103188
103220
103247
103255
103243
103217
103199
103196
103201
103275
103277
103279
103280
103276
103278
103346
103603
104089
104867
105711
106557
107357
107608
107588
107600
107284
104609
103193
103163
103169
103182
103210
103244
103263
103267
103254
103238
103233
103238
103275
103278
103285
103288
103281
103285
103385
103765
104359
104971
105659
106343
107138
107661
107649
107687
107042
104250
103185
103163
103168
103179
103200
103235
103267
103284
103288
103284
103283
103287
103276
103279
103294
103303
103291
103297
103425
103936
104741
105395
105757
106277
106948
107577
107701
107750
106917
104164
103195
103163
103169
103177
103190
103223
103263
103290
103305
103315
103323
103324
103276
103283
103309
103322
103307
103317
103472
104091
105155
106020
106199
106363
106882
107446
107749
107814
106894
104227
103215
103163
103170
103176
103183
103208
103250
103285
103307
103324
103336
103336
103276
103289
103327
103345
103328
103347
103535
104239
105530
106649
106846
106805
106961
107399
107783
107786
107008
104631
103236
103162
103171
103177
103180
103196
103231
103270
103298
103318
103335
103337
103277
103296
103346
103367
103354
103390
103623
104398
105837
107139
107410
107336
107303
107450
107765
107759
107409
105025
103244
103162
103173
103179
103179
103187
103214
103249
103278
103300
103324
103339
103278
103303
103363
103386
103382
103442
103739
104579
106077
107444
107742
107670
107571
107578
107742
107791
107662
105183
103230
103162
103176
103184
103180
103184
103204
103231
103257
103280
103307
103340
103279
103308
103379
103405
103411
103501
103878
104796
106286
107607
107913
107830
107689
107655
107784
107904
107753
105049
103202
103162
103181
103191
103185
103184
103199
103220
103242
103265
103292
103324
103279
103311
103394
103425
103442
103562
104037
105069
106542
107727
108025
107931
107756
107734
107872
108004
107769
104564
103192
103164
103187
103200
103195
103187
103197
103216
103236
103257
103281
103305
103279
103316
103409
103450
103477
103623
104215
105414
106893
107900
108111
108024
107863
107899
108002
108081
107783
104239
103192
103169
103196
103212
103208
103194
103198
103215
103234
103253
103272
103288
103281
103328
103428
103483
103519
103694
104415
105790
107245
108068
108174
108119
108021
108045
108128
108145
107780
104152
103204
103179
103208
103226
103225
103206
103202
103216
103235
103253
103266
103276
103293
103354
103459
103527
103573
103784
104621
106094
107465
108157
108234
108195
108151
108152
108213
108205
107683
104129
103227
103195
103224
103244
103243
103221
103210
103219
103236
103253
103263
103267
103328
103403
103512
103585
103642
103896
104807
106275
107544
108167
108293
108274
108252
108242
108277
108264
107216
104004
103251
103219
103246
103265
103264
103237
103222
103226
103241
103256
103261
103260
103403
103490
103603
103670
103731
104019
104969
106380
107549
108179
108410
108401
108379
108355
108354
108182
106271
103715
103272
103249
103275
103293
103289
103256
103239
103240
103252
103262
103262
103254
103533
103632
103744
103790
103844
104151
105169
106550
107615
108243
108545
108538
108523
108498
108480
107864
105245
103512
103296
103287
103312
103326
103319
103281
103262
103262
103270
103274
103263
103248
103724
103837
103943
103958
103993
104317
105581
107088
107892
108334
108626
108627
108614
108601
108586
107532
104541
103441
103329
103333
103356
103365
103353
103313
103294
103294
103297
103287
103264
103243
103975
104099
104196
104179
104187
104561
106296
107845
108161
108403
108610
108686
108675
108662
108649
107341
104224
103433
103369
103386
103407
103411
103389
103353
103334
103333
103324
103296
103262
103241
104269
104403
104480
104438
104416
104890
106993
108386
108380
108464
108605
108739
108731
108722
108550
107337
104158
103454
103418
103446
103465
103460
103429
103396
103381
103375
103348
103300
103259
103241
104546
104699
104736
104683
104643
105180
107297
108581
108569
108593
108649
108711
108756
108690
108565
107697
104223
103507
103483
103520
103535
103515
103477
103447
103435
103419
103371
103303
103257
103242
104719
104889
104894
104853
104813
105290
107072
108630
108640
108681
108725
108723
108744
108715
108706
107936
104295
103598
103577
103614
103621
103587
103546
103519
103504
103471
103399
103312
103259
103242
104766
104941
104941
104924
104892
105191
106361
108127
108571
108678
108720
108735
108762
108765
108760
107505
104276
103716
103700
103732
103733
103696
103655
103627
103600
103541
103447
103341
103270
103242
104758
104951
104951
104941
104907
105017
105720
107302
108449
108637
108725
108742
108781
108785
108654
106007
104184
103835
103842
103876
103879
103857
103826
103793
103744
103655
103534
103407
103306
103249
104764
104959
104962
104947
104918
104929
105294
106595
108231
108675
108819
108800
108836
108840
107734
104878
104085
103943
103983
104034
104060
104071
104062
104035
103971
103854
103698
103536
103391
103288
104773
104907
104976
104965
104930
104930
105132
106132
107832
108736
108976
108919
108983
108817
106159
104402
104085
104051
104105
104179
104248
104304
104335
104337
104292
104173
103986
103772
103558
103397
104784
104881
104988
105054
105024
105007
105140
105896
107623
108939
109065
109039
109063
107809
105052
104259
104145
104157
104194
104282
104388
104490
104583
104634
104640
104572
104403
104154
103863
103617
104796
104894
105067
105229
105218
105187
105253
105852
107664
109127
109120
109121
109117
106752
104628
104262
104230
104243
104255
104338
104451
104586
104718
104826
104891
104908
104835
104642
104327
103971
104806
104981
105237
105463
105475
105442
105483
106098
108000
109185
109170
109190
109111
106160
104520
104295
104287
104294
104298
104362
104465
104608
104752
104878
104977
105054
105099
105039
104835
104412
104868
105164
105479
105763
105804
105776
105837
106614
108510
109239
109228
109259
108958
105907
104512
104335
104321
104322
104329
104370
104463
104592
104722
104832
104932
105045
105152
105164
105130
104781
105084
105429
105796
106142
106211
106190
106250
107101
108779
109272
109283
109314
108803
105842
104568
104380
104351
104348
104355
104376
104451
104551
104648
104738
104848
104976
105092
105170
105170
104923
105429
105779
106199
106591
106682
106656
106688
107465
108901
109268
109272
109368
108599
105804
104672
104458
104399
104385
104382
104387
104444
104514
104592
104693
104822
104928
104990
105097
105090
104848
105870
106230
106691
107105
107208
107159
107113
107817
109137
109290
109275
109390
108380
105829
104834
104583
104482
104443
104420
104412
104447
104505
104585
104708
104846
104914
104903
104914
104892
104634
106414
106778
107260
107670
107768
107676
107511
108164
109325
109333
109324
109367
108273
105961
105046
104760
104612
104532
104477
104453
104461
104512
104600
104737
104866
104896
104823
104733
104673
104389
107046
107408
107882
108241
108320
108183
107908
108508
109453
109433
109372
109442
108195
106183
105307
104984
104785
104651
104554
104501
104486
104519
104618
104768
104870
104871
104743
104604
104538
104260
107736
108074
108491
108755
108809
108667
108353
108853
109544
109544
109456
109524
108142
106450
105626
105255
104995
104792
104639
104546
104512
104524
104632
104791
104874
104861
104689
104541
104487
104264
108411
108690
109000
109160
109195
109104
108871
109204
109629
109625
109587
109574
108229
106808
106026
105586
105234
104943
104724
104589
104536
104535
104658
104830
104903
104871
104673
104522
104468
104267
108975
109159
109357
109446
109470
109441
109357
109489
109678
109678
109682
109513
108329
107215
106523
105996
105504
105101
104809
104635
104571
104570
104722
104906
104977
104912
104682
104523
104452
104272
109376
109465
109584
109638
109652
109637
109605
109617
109710
109714
109721
109269
108441
107686
107121
106499
105821
105271
104902
104699
104631
104650
104838
105031
105101
104995
104716
104539
104445
104278
109641
109670
109733
109759
109750
109709
109632
109589
109617
109679
109540
109067
108617
108214
107793
107094
106197
105464
105018
104798
104737
104790
105005
105199
105263
105104
104796
104593
104452
104284
109804
109805
109825
109825
109776
109692
109570
109478
109456
109442
109283
109073
108867
108731
108485
107749
106622
105699
105176
104952
104908
104993
105220
105403
105455
105238
104928
104705
104494
104289
109876
109869
109861
109829
109712
109557
109431
109369
109373
109359
109277
109187
109183
109212
109123
108404
107079
105993
105400
105183
105158
105267
105488
105658
105694
105415
105112
104879
104614
104324
109896
109876
109844
109771
109586
109430
109382
109391
109405
109423
109419
109471
109583
109644
109618
108974
107556
106361
105721
105516
105504
105627
105844
106002
106014
105671
105357
105119
104836
104475
109913
109870
109818
109751
109591
109460
109439
109479
109552
109634
109730
109845
109925
109943
109915
109373
108024
106819
106178
105986
105980
106118
106345
106497
106464
106055
105695
105432
105171
104784
109958
109915
109865
109822
109704
109596
109598
109680
109790
109900
110001
110064
110084
110070
110034
109579
108453
107368
106796
106630
106642
106812
107062
107210
107101
106638
106187
105850
105632
105246
110040
110005
109966
109936
109849
109765
109784
109873
109975
110058
110109
110127
110123
110112
110047
109652
108823
107985
107564
107464
107577
107872
108175
108298
108079
107527
106922
106426
106220
105879
110053
110055
110043
109980
109879
109849
109903
109996
110075
110125
110146
110146
110139
110115
109993
109647
109105
108613
108439
108571
108946
109366
109567
109501
109167
108705
108014
107252
106928
106700
110058
110060
110064
109951
109873
109890
109994
110082
110135
110161
110162
110153
110138
110063
109852
109590
109317
109210
109429
109834
110172
110349
110402
110372
110184
109746
109206
108414
107709
107639
110055
110060
110048
109871
109876
109961
110088
110145
110173
110175
110163
110149
110103
109938
109691
109563
109533
109826
110227
110470
110575
110616
110635
110641
110600
110452
110149
109564
108617
108428
109729
110040
109991
109871
109893
110076
110160
110178
110188
110172
110153
110123
110018
109784
109612
109593
109861
110287
110513
110587
110611
110624
110647
110672
110687
110664
110561
110332
109593
108815
108098
108987
109750
109886
110001
110163
110171
110178
110186
110154
110127
110068
109900
109665
109610
109787
110223
110485
110552
110558
110557
110565
110592
110634
110673
110696
110683
110591
110226
109112
107802
107891
109046
109991
110096
110169
110171
110174
110180
110116
110087
109992
109798
109654
109731
110115
110426
110506
110504
110493
110477
110472
110503
110564
110622
110667
110700
110685
110413
109471
107815
107927
108729
110056
110170
110170
110166
110164
110131
110067
110040
109924
109757
109704
109999
110335
110451
110459
110439
110405
110358
110320
110335
110431
110541
110613
110671
110709
110560
109811
108451
108570
109053
110083
110177
110165
110112
109642
109962
110046
110001
109892
109773
109886
110208
110376
110413
110399
110364
110300
110201
110088
110042
110085
110369
110527
110615
110669
110619
110172
109453
109463
109598
110092
110176
109982
109150
108420
109108
109958
109996
109897
109856
110054
110258
110352
110369
110344
110292
110196
110040
109863
109768
109749
109922
110380
110536
110598
110606
110408
109843
109847
109843
109919
109699
109024
108220
108196
108203
109108
109911
109926
109936
110093
110249
110329
110332
110298
110233
110117
109957
109840
109749
109704
109689
110090
110418
110529
110562
110489
109520
109775
109726
109407
108869
108275
108200
108201
108202
108225
109141
109916
109977
110086
110246
110313
110304
110264
110193
110077
109951
109879
109818
109746
109637
109416
110127
110463
110506
110511
108908
109198
109213
108988
108682
108348
108223
108211
108211
108211
108407
109495
110004
110091
110252
110303
110285
110245
110171
110051
109956
109934
109914
109867
109308
107824
109042
110220
110463
110488
108646
108723
108892
109001
108884
108681
108469
108332
108306
108343
108484
109174
109969
110141
110259
110294
110274
110234
110138
110012
109885
109741
109440
108683
107118
105706
107098
109550
110324
110469
108624
108723
108916
109046
109052
108918
108778
108709
108776
108900
109000
109347
109987
110209
110259
110289
110265
110189
109946
109139
108289
107638
106844
105828
104961
104735
105733
108536
109975
110373
108632
108762
108893
109054
109062
109055
109135
109288
109470
109602
109663
109762
110068
110229
110249
110274
110227
109918
108294
106396
105477
105128
104858
104741
104743
104745
105377
107929
109874
110175
108638
108767
108843
109009
109131
109346
109623
109846
109967
110006
110013
110035
110113
110182
110183
110205
110089
108399
105726
104789
104754
104754
104755
104755
104756
104756
105471
107720
109935
110112
108643
108788
108921
109177
109496
109829
110048
110134
110143
110125
110102
110081
110071
110065
109984
110106
109440
106574
104857
104769
104769
104804
104916
104948
104940
105080
105851
107708
109728
110070
108656
108988
109292
109669
109993
110168
110214
110205
110175
110145
110116
110084
110044
110001
109893
110005
108495
106003
104962
104836
104884
105201
105518
105619
105610
105867
106596
107783
108837
109178
108937
109451
109842
110116
110239
110255
110237
110202
110167
110136
110107
110079
110041
110003
109912
109751
108103
106204
105417
105251
105359
105927
106418
106622
106636
106859
107357
107776
107730
107360
109481
109942
110191
110280
110279
110258
110214
110172
110136
110106
110074
110048
110020
109990
109938
109603
108282
106868
106230
106044
106153
106752
107338
107661
107724
107759
107770
107511
106991
106768
109935
110205
110303
110301
110277
110222
110170
110146
110136
110117
110086
110046
110008
109974
109933
109662
108806
107844
107267
107059
107110
107571
108133
108522
108656
108445
107954
107256
106793
106788
110143
110294
110325
110298
110233
110187
110182
110183
110184
110172
110139
110088
110037
109993
109942
109778
109392
108828
108364
108139
108121
108368
108769
109104
109234
108936
108169
107308
106842
106803
110225
110326
110325
110272
110238
110241
110265
110280
110277
110257
110214
110149
110082
110025
109967
109889
109765
109538
109281
109098
109033
109103
109322
109521
109515
109299
108591
107687
107107
106816
110278
110355
110340
110308
110325
110357
110371
110363
110335
110293
110234
110168
110106
110050
110005
109971
109941
109888
109809
109724
109671
109689
109825
109906
109782
109620
109222
108439
107685
106899
110357
110412
110398
110403
110426
110426
110401
110360
110319
110266
110206
110149
110098
110063
110041
110032
110031
110026
110011
109992
109986
110025
110124
110185
110107
109979
109856
109347
108508
107418
110453
110472
110463
110463
110445
110413
110374
110326
110269
110198
110142
110103
110081
110073
110074
110081
110087
110089
110085
110082
110095
110141