/*--------------------------------*- C++ -*----------------------------------*\
| =========                 |                                                 |
| \\      /  F ield         | OpenFOAM: The Open Source CFD Toolbox           |
|  \\    /   O peration     | Version:  v1606+                                |
|   \\  /    A nd           | Web:      www.OpenFOAM.com                      |
|    \\/     M anipulation  |                                                 |
\*---------------------------------------------------------------------------*/
FoamFile
{
    version     2.0;
    format      ascii;
    class       volVectorField;
    location    "0.98";
    object      U.particlesMean;
}
// * * * * * * * * * * * * * * * * * * * * * * * * * * * * * * * * * * * * * //

dimensions      [0 1 -1 0 0 0 0];

internalField   nonuniform List<vector> 
6000
(
(-0.00740808 -0.344056 0)
(5.83519e-06 -0.368948 0)
(0.0105747 -0.367198 0)
(0.018261 -0.372898 0)
(0.021484 -0.384944 0)
(0.0198892 -0.395559 0)
(0.017259 -0.403788 0)
(0.0142805 -0.409721 0)
(0.0120483 -0.408765 0)
(0.010492 -0.417966 0)
(0.00840241 -0.431716 0)
(0.00722744 -0.440786 0)
(0.00599713 -0.444998 0)
(0.00470553 -0.45004 0)
(0.00343396 -0.451332 0)
(0.00178142 -0.451641 0)
(4.37479e-07 -0.450321 0)
(-0.00220965 -0.44597 0)
(-0.00401512 -0.444101 0)
(-0.0065781 -0.434757 0)
(-0.00940231 -0.423506 0)
(-0.0111792 -0.411184 0)
(-0.0131065 -0.406857 0)
(-0.0150226 -0.402198 0)
(-0.0171482 -0.395052 0)
(-0.0182754 -0.384324 0)
(-0.0152661 -0.372473 0)
(-0.0080035 -0.36823 0)
(0.00226071 -0.369323 0)
(0.00887918 -0.345978 0)
(0.0166056 0.031233 0)
(0.00896235 0.0486218 0)
(0.0185472 0.0451742 0)
(0.0278757 0.0482341 0)
(0.037582 0.0533152 0)
(0.0409458 0.0549807 0)
(0.0378672 0.0580146 0)
(0.0283065 0.0616382 0)
(0.0177842 0.0601089 0)
(0.0143441 0.0605001 0)
(0.0100949 0.0649233 0)
(0.0061534 0.0646308 0)
(0.0044216 0.0584633 0)
(0.00370953 0.0551038 0)
(0.00449549 0.0517117 0)
(0.00504789 0.051477 0)
(0.00366553 0.0543402 0)
(0.000947415 0.0577788 0)
(-0.00263164 0.0636887 0)
(-0.00865974 0.0648342 0)
(-0.0138936 0.0617172 0)
(-0.0174921 0.0593182 0)
(-0.0264191 0.0591121 0)
(-0.0344334 0.0583288 0)
(-0.0366897 0.0557032 0)
(-0.0339434 0.0533833 0)
(-0.0250063 0.0492067 0)
(-0.0161992 0.0473439 0)
(-0.0071287 0.0501322 0)
(-0.015223 0.0308256 0)
(0.000967829 -0.0485137 0)
(0.0051049 -0.0609948 0)
(0.0177053 -0.0642348 0)
(0.0250335 -0.0622253 0)
(0.0355621 -0.0549608 0)
(0.0431594 -0.0406377 0)
(0.042654 -0.0265258 0)
(0.0337775 -0.0171346 0)
(0.0258945 -0.0197006 0)
(0.0190584 -0.0245734 0)
(0.0121425 -0.0300781 0)
(0.0086342 -0.0357023 0)
(0.00610167 -0.039859 0)
(0.00487337 -0.0417998 0)
(0.00651396 -0.0422305 0)
(0.00741237 -0.0398243 0)
(0.00552019 -0.03661 0)
(0.0011184 -0.0342247 0)
(-0.0040581 -0.0293386 0)
(-0.0100781 -0.0266236 0)
(-0.0183335 -0.0246287 0)
(-0.0247595 -0.0209517 0)
(-0.0314991 -0.019743 0)
(-0.0384951 -0.0270604 0)
(-0.038376 -0.0399753 0)
(-0.0323181 -0.0537597 0)
(-0.022702 -0.0614836 0)
(-0.0157264 -0.0634291 0)
(-0.00350637 -0.0596185 0)
(-0.000130231 -0.0452613 0)
(0.00831487 -0.0518567 0)
(0.00742278 -0.0646409 0)
(0.0107771 -0.066236 0)
(0.0143246 -0.0649782 0)
(0.0226361 -0.0585201 0)
(0.0337042 -0.0460395 0)
(0.043205 -0.0279822 0)
(0.0437951 -0.0153761 0)
(0.0392565 -0.0105892 0)
(0.0314056 -0.00778926 0)
(0.0219674 -0.00766682 0)
(0.0125328 -0.00899956 0)
(0.00455742 -0.0130617 0)
(0.00299465 -0.0216743 0)
(0.00672886 -0.0278597 0)
(0.0104966 -0.0244368 0)
(0.010767 -0.0159619 0)
(0.00465775 -0.00911098 0)
(-0.00682405 -0.00476458 0)
(-0.0186762 -0.00488384 0)
(-0.0288467 -0.00738166 0)
(-0.0363697 -0.0117073 0)
(-0.0396161 -0.0165161 0)
(-0.0391404 -0.0278315 0)
(-0.0304283 -0.044462 0)
(-0.0204377 -0.0562794 0)
(-0.0127283 -0.0625082 0)
(-0.00989064 -0.0641605 0)
(-0.00717395 -0.0622843 0)
(-0.00897322 -0.0490253 0)
(0.00627264 -0.066283 0)
(-0.00010568 -0.0780543 0)
(1.55113e-06 -0.0821737 0)
(0.00171466 -0.0898586 0)
(0.0114461 -0.0890044 0)
(0.0234974 -0.0773432 0)
(0.0375333 -0.0557693 0)
(0.0444021 -0.0363101 0)
(0.0417341 -0.0262362 0)
(0.0346173 -0.0202563 0)
(0.0251497 -0.0185401 0)
(0.0128978 -0.0185569 0)
(0.00329187 -0.0265188 0)
(0.00116069 -0.0431559 0)
(0.00562305 -0.0527091 0)
(0.011277 -0.047488 0)
(0.0129205 -0.0320436 0)
(0.00675993 -0.017756 0)
(-0.00711743 -0.0112907 0)
(-0.0210672 -0.0146432 0)
(-0.0300727 -0.0196399 0)
(-0.0369117 -0.0267643 0)
(-0.0392505 -0.0363818 0)
(-0.0334022 -0.0537612 0)
(-0.0210331 -0.0744706 0)
(-0.00989649 -0.0859316 0)
(-0.000848924 -0.0875551 0)
(-0.000136806 -0.0805049 0)
(-0.000608454 -0.0761382 0)
(-0.00758193 -0.064146 0)
(0.00243248 -0.0634461 0)
(-0.00884294 -0.0696492 0)
(-0.0137959 -0.080671 0)
(-0.0115666 -0.0940275 0)
(-0.00231097 -0.0981795 0)
(0.0137363 -0.0918053 0)
(0.0301125 -0.0723013 0)
(0.0437844 -0.0495111 0)
(0.0430824 -0.0320977 0)
(0.0358404 -0.0260019 0)
(0.0268957 -0.0251106 0)
(0.014635 -0.026264 0)
(0.00432855 -0.0380957 0)
(0.000361117 -0.056598 0)
(0.00248816 -0.0676127 0)
(0.00817363 -0.0623343 0)
(0.0103555 -0.0439778 0)
(0.0045958 -0.0258845 0)
(-0.00710273 -0.016375 0)
(-0.0191318 -0.0192717 0)
(-0.0283531 -0.0236279 0)
(-0.0363548 -0.0310059 0)
(-0.0385868 -0.0466656 0)
(-0.0272153 -0.0687021 0)
(-0.0120231 -0.0882307 0)
(0.00217671 -0.0953773 0)
(0.0104822 -0.0920122 0)
(0.0115193 -0.0792547 0)
(0.00717619 -0.0683592 0)
(-0.00441015 -0.0627981 0)
(-0.00397306 -0.0487086 0)
(-0.0153628 -0.0637151 0)
(-0.0214919 -0.0791145 0)
(-0.0214584 -0.0945289 0)
(-0.0135074 -0.102641 0)
(0.00323006 -0.0990916 0)
(0.0207661 -0.0847932 0)
(0.0398136 -0.0620231 0)
(0.0434772 -0.0373878 0)
(0.0364741 -0.0278694 0)
(0.0293194 -0.0284838 0)
(0.0181752 -0.0311843 0)
(0.00901726 -0.0431225 0)
(0.00356991 -0.064352 0)
(0.0017203 -0.0770474 0)
(0.00454263 -0.0723409 0)
(0.0043873 -0.0529641 0)
(2.32176e-05 -0.0319812 0)
(-0.00773602 -0.0203936 0)
(-0.016895 -0.0219717 0)
(-0.0265934 -0.0252855 0)
(-0.0349424 -0.0350328 0)
(-0.036208 -0.0578675 0)
(-0.0197932 -0.0810575 0)
(-0.0030194 -0.0966693 0)
(0.0121593 -0.0997619 0)
(0.0184509 -0.0920057 0)
(0.0178549 -0.0774839 0)
(0.0127653 -0.0629212 0)
(0.00186985 -0.0494408 0)
(-0.0043883 -0.0356058 0)
(-0.0158777 -0.0509513 0)
(-0.0219405 -0.0686259 0)
(-0.0219932 -0.0864149 0)
(-0.0174799 -0.0988248 0)
(-0.00495701 -0.0988787 0)
(0.0113681 -0.0880875 0)
(0.0278026 -0.0676958 0)
(0.040258 -0.0391377 0)
(0.0384197 -0.0206344 0)
(0.0292809 -0.0218648 0)
(0.023901 -0.0277234 0)
(0.0182055 -0.0406767 0)
(0.0110248 -0.0645445 0)
(0.00407272 -0.0785189 0)
(-0.000949717 -0.0747292 0)
(-0.00412333 -0.0576837 0)
(-0.00761885 -0.0342822 0)
(-0.011461 -0.0237836 0)
(-0.0173685 -0.0203798 0)
(-0.0242271 -0.021602 0)
(-0.0292985 -0.0367082 0)
(-0.0241319 -0.0645341 0)
(-0.0101329 -0.08576 0)
(0.00459357 -0.0965377 0)
(0.0155587 -0.0957366 0)
(0.0171105 -0.0840024 0)
(0.0174454 -0.0679367 0)
(0.0129985 -0.0517507 0)
(0.00242347 -0.0367419 0)
(-0.00499701 -0.0275139 0)
(-0.0114599 -0.0375491 0)
(-0.0170462 -0.0570161 0)
(-0.0187075 -0.0781754 0)
(-0.0182117 -0.0934136 0)
(-0.00887686 -0.0986955 0)
(0.00319297 -0.0900585 0)
(0.0183384 -0.0684952 0)
(0.0383156 -0.0378239 0)
(0.0483169 -0.0129642 0)
(0.0341045 -0.00114568 0)
(0.0258092 -0.0092114 0)
(0.0255566 -0.0286742 0)
(0.0185356 -0.0547269 0)
(0.0082183 -0.0692076 0)
(-0.00416809 -0.0668399 0)
(-0.0104053 -0.0511131 0)
(-0.0150037 -0.02507 0)
(-0.0147844 -0.0148462 0)
(-0.015713 -0.00622634 0)
(-0.0247932 -0.0074041 0)
(-0.0251744 -0.0342668 0)
(-0.0102469 -0.0671659 0)
(0.000746079 -0.0892203 0)
(0.00940393 -0.0954908 0)
(0.0149222 -0.0895699 0)
(0.0136549 -0.0756927 0)
(0.0124347 -0.0571369 0)
(0.0089012 -0.039833 0)
(0.0043653 -0.0307634 0)
(-0.00111668 -0.0162031 0)
(-0.00399952 -0.0225285 0)
(-0.00739556 -0.0412581 0)
(-0.0123774 -0.0663267 0)
(-0.0146338 -0.0854352 0)
(-0.00842549 -0.093588 0)
(-0.000135742 -0.0872161 0)
(0.0165444 -0.0697902 0)
(0.0367562 -0.0357091 0)
(0.0499457 -0.00490888 0)
(0.04395 0.00799278 0)
(0.0389873 0.00729563 0)
(0.0368811 -0.0111932 0)
(0.0228823 -0.0365658 0)
(0.0105454 -0.0555006 0)
(-0.00585278 -0.0551255 0)
(-0.0133831 -0.0402536 0)
(-0.0196202 -0.0149009 0)
(-0.0104649 -0.000622545 0)
(-0.0131466 0.0105899 0)
(-0.0247844 3.17816e-05 0)
(-0.0159432 -0.0311817 0)
(-0.00056597 -0.0685294 0)
(0.00984265 -0.086545 0)
(0.0116331 -0.0889537 0)
(0.0123392 -0.0812653 0)
(0.00827643 -0.065602 0)
(0.00600295 -0.043719 0)
(0.00370669 -0.0252895 0)
(0.00218785 -0.0191351 0)
(-0.000188806 -0.00886077 0)
(-0.000783029 -0.0151985 0)
(-5.28574e-06 -0.0333746 0)
(-0.000888952 -0.058903 0)
(-0.00975217 -0.0792384 0)
(-0.00684304 -0.0877554 0)
(-0.000779752 -0.0851407 0)
(0.0158692 -0.070711 0)
(0.0283902 -0.0369238 0)
(0.0429743 0.00303958 0)
(0.0417295 0.0196338 0)
(0.0339941 0.0200033 0)
(0.0403784 -0.000744604 0)
(0.0348431 -0.0245168 0)
(0.0187394 -0.0391177 0)
(-0.00405971 -0.0426995 0)
(-0.0115315 -0.0315132 0)
(-0.0142885 -0.0101594 0)
(-0.00148133 0.0139113 0)
(-0.0132936 0.0160304 0)
(-0.0173992 0.0058863 0)
(-0.00566837 -0.0305451 0)
(0.00714871 -0.0654323 0)
(0.0166161 -0.0816019 0)
(0.0130804 -0.0825808 0)
(0.00798081 -0.0752902 0)
(0.00142057 -0.0597757 0)
(0.000612246 -0.0350487 0)
(0.000289864 -0.016991 0)
(0.000564124 -0.011092 0)
(0.00177235 -0.00475326 0)
(-0.000713556 -0.0124173 0)
(0.00263656 -0.0291733 0)
(0.00669876 -0.0549425 0)
(0.00201223 -0.0769266 0)
(-0.00358586 -0.090137 0)
(-0.00181671 -0.0905249 0)
(0.00829358 -0.0747023 0)
(0.0198071 -0.0429172 0)
(0.033119 -0.000254709 0)
(0.0387428 0.0219909 0)
(0.0293183 0.0235316 0)
(0.0346844 0.00321365 0)
(0.0332578 -0.017225 0)
(0.0231673 -0.0280889 0)
(0.00371673 -0.0293612 0)
(-0.00521153 -0.0209397 0)
(-0.00418466 -0.00390382 0)
(0.00824742 0.0214446 0)
(-0.00495056 0.0237547 0)
(-0.0077442 0.0114562 0)
(0.00207763 -0.0258242 0)
(0.0114717 -0.0610931 0)
(0.0172038 -0.0753323 0)
(0.0111431 -0.077143 0)
(0.00200118 -0.0707891 0)
(-0.00524806 -0.0542519 0)
(-0.00279591 -0.029093 0)
(-0.000355073 -0.013463 0)
(-0.00155092 -0.00666942 0)
(0.00320188 -0.00339852 0)
(-0.000657374 -0.0114782 0)
(0.00442736 -0.0278087 0)
(0.00863514 -0.0536031 0)
(0.007953 -0.074199 0)
(0.000787271 -0.0905385 0)
(-0.00382148 -0.089965 0)
(0.00181063 -0.0738521 0)
(0.00808202 -0.0445143 0)
(0.0227323 0.000763612 0)
(0.0296719 0.0265556 0)
(0.0228053 0.0291949 0)
(0.027696 0.0107452 0)
(0.0318594 -0.00879323 0)
(0.0222899 -0.0185003 0)
(0.00663684 -0.0216858 0)
(0.00460586 -0.0200745 0)
(0.0169081 -0.00625421 0)
(0.0266889 0.0269761 0)
(0.0125543 0.0345749 0)
(0.00784546 0.0214641 0)
(0.0168196 -0.0189494 0)
(0.0187494 -0.0521163 0)
(0.0170162 -0.0672522 0)
(0.0118567 -0.0715954 0)
(-0.00252619 -0.0660387 0)
(-0.0106177 -0.0490801 0)
(-0.00625691 -0.0261822 0)
(-0.000896207 -0.0121626 0)
(-0.00291301 -0.00456686 0)
(0.00411207 -0.00263114 0)
(0.000630068 -0.0105623 0)
(0.00745249 -0.0253627 0)
(0.00996288 -0.0491771 0)
(0.00820263 -0.0719462 0)
(0.00183899 -0.0869332 0)
(-0.0054349 -0.088321 0)
(-0.0045547 -0.0743118 0)
(-0.00123139 -0.0465027 0)
(0.00996794 -0.00219332 0)
(0.0205827 0.0241942 0)
(0.0203277 0.0302161 0)
(0.0224091 0.0088207 0)
(0.0340917 -0.00515261 0)
(0.0262073 -0.0132733 0)
(0.0100856 -0.0172271 0)
(0.00838287 -0.0209622 0)
(0.0258026 -0.0131216 0)
(0.0362254 0.0253952 0)
(0.0276521 0.0391006 0)
(0.0202381 0.0274574 0)
(0.0232423 -0.0117971 0)
(0.0231617 -0.0453601 0)
(0.0178575 -0.0586151 0)
(0.0123101 -0.0605119 0)
(-0.00570399 -0.0574103 0)
(-0.0141162 -0.0423934 0)
(-0.00986754 -0.0230824 0)
(-0.00144898 -0.0103732 0)
(-0.0035623 -0.00200839 0)
(0.00553141 -0.00205111 0)
(0.00264682 -0.0102494 0)
(0.0100171 -0.0211172 0)
(0.0119041 -0.0430206 0)
(0.00718317 -0.0668688 0)
(-0.000535957 -0.0797472 0)
(-0.0101306 -0.0834869 0)
(-0.013873 -0.071492 0)
(-0.0140515 -0.0458209 0)
(-0.00516508 -0.00634241 0)
(0.00849305 0.0184932 0)
(0.0210994 0.0255451 0)
(0.0256874 0.0042329 0)
(0.0386417 -0.00444389 0)
(0.0344299 -0.011659 0)
(0.0249298 -0.0172894 0)
(0.0195363 -0.0208652 0)
(0.0290455 -0.0243059 0)
(0.0344217 0.0264831 0)
(0.0347961 0.0481496 0)
(0.0245488 0.0367515 0)
(0.0226777 -0.00239996 0)
(0.0209056 -0.0421091 0)
(0.0135259 -0.0553899 0)
(0.0109049 -0.0540442 0)
(-0.00700907 -0.0511425 0)
(-0.0144712 -0.036893 0)
(-0.0110476 -0.0192715 0)
(-0.00141286 -0.00864594 0)
(-0.00430515 4.34057e-05 0)
(0.00599625 -9.75271e-05 0)
(0.00216212 -0.00652042 0)
(0.0109994 -0.0158365 0)
(0.0153132 -0.0384312 0)
(0.0141886 -0.0636503 0)
(0.00137342 -0.0728209 0)
(-0.0173126 -0.076139 0)
(-0.0287467 -0.0671446 0)
(-0.0275117 -0.0432567 0)
(-0.0175505 -0.0123116 0)
(-0.0024231 0.00702097 0)
(0.013904 0.0107743 0)
(0.0224687 0.00345242 0)
(0.0355282 -0.0146373 0)
(0.0490644 -0.0178152 0)
(0.0458344 -0.0228983 0)
(0.0457129 -0.0310106 0)
(0.039007 -0.0331079 0)
(0.0347171 0.0200521 0)
(0.0394726 0.0499363 0)
(0.0275393 0.04161 0)
(0.0254189 0.00598723 0)
(0.0156746 -0.0366446 0)
(0.00289666 -0.053661 0)
(0.00240356 -0.0539048 0)
(-0.00779076 -0.04849 0)
(-0.0128113 -0.0315977 0)
(-0.00928963 -0.0157834 0)
(0.000126024 -0.00632302 0)
(-0.00463535 0.00252111 0)
(0.00651851 0.000533979 0)
(0.00365411 -0.00226212 0)
(0.0132277 -0.0142811 0)
(0.0197442 -0.0351788 0)
(0.0129884 -0.0624574 0)
(0.002198 -0.0712259 0)
(-0.0172934 -0.0744555 0)
(-0.0388024 -0.0659329 0)
(-0.0408779 -0.0372717 0)
(-0.028191 -0.0133181 0)
(-0.0119844 -0.000599628 0)
(0.00609041 0.00258579 0)
(0.0239953 -0.00802842 0)
(0.0345785 -0.00820288 0)
(0.0543967 -0.0160532 0)
(0.0591839 -0.02626 0)
(0.0655422 -0.0352347 0)
(0.045723 -0.0398283 0)
(0.0342362 0.0159214 0)
(0.0400312 0.0522808 0)
(0.0330328 0.0486749 0)
(0.0327116 0.0123911 0)
(0.018973 -0.0308132 0)
(0.00383391 -0.051966 0)
(-0.00631596 -0.0587525 0)
(-0.0153074 -0.0505646 0)
(-0.0221863 -0.0252373 0)
(-0.0156613 -0.0133316 0)
(-0.00404625 -0.00505501 0)
(-0.00652206 0.00454071 0)
(0.00675856 -0.00899079 0)
(0.00915162 -0.0087838 0)
(0.0238815 -0.0121063 0)
(0.0297846 -0.028047 0)
(0.0165122 -0.0597516 0)
(-9.14737e-05 -0.0780208 0)
(-0.023175 -0.0787544 0)
(-0.0410432 -0.0678506 0)
(-0.0481037 -0.034417 0)
(-0.0367687 -0.0137984 0)
(-0.0183854 -0.0108836 0)
(0.00309129 -0.0107966 0)
(0.0246577 -0.0256724 0)
(0.0384231 -0.0184063 0)
(0.0601567 -0.0227301 0)
(0.0665797 -0.0276085 0)
(0.0744079 -0.0366117 0)
(0.0541471 -0.0376134 0)
(0.0302296 0.0216475 0)
(0.0393966 0.054693 0)
(0.0375305 0.0539025 0)
(0.0391681 0.0197065 0)
(0.0299098 -0.0250611 0)
(0.0113196 -0.0510422 0)
(-0.00977962 -0.0580531 0)
(-0.0264541 -0.043931 0)
(-0.0391201 -0.0189709 0)
(-0.029584 -0.00918652 0)
(-0.0124548 -0.00488584 0)
(-0.0104383 0.00396329 0)
(0.00535856 -0.00889794 0)
(0.0123399 -0.0286502 0)
(0.0238616 -0.0274726 0)
(0.0363997 -0.029633 0)
(0.0227941 -0.0557347 0)
(0.0035969 -0.0778413 0)
(-0.0229823 -0.0883882 0)
(-0.0431582 -0.0780406 0)
(-0.0490848 -0.0453709 0)
(-0.0389409 -0.0311554 0)
(-0.0182464 -0.0318954 0)
(0.00776021 -0.0358472 0)
(0.0284491 -0.0525907 0)
(0.0463409 -0.0500774 0)
(0.063391 -0.0433311 0)
(0.0696705 -0.0423995 0)
(0.0733204 -0.0485018 0)
(0.0556031 -0.0326385 0)
(0.0248202 0.0226477 0)
(0.0383408 0.0555187 0)
(0.0398692 0.0548128 0)
(0.0502226 0.0268887 0)
(0.0412749 -0.0228541 0)
(0.0109103 -0.0572872 0)
(-0.0205952 -0.0504399 0)
(-0.0358979 -0.0343943 0)
(-0.0470564 -0.0211787 0)
(-0.0362972 -0.020957 0)
(-0.0212854 -0.0148058 0)
(-0.0146859 0.000686635 0)
(0.00348651 0.00266614 0)
(0.013949 -0.0257225 0)
(0.0226901 -0.0534082 0)
(0.0249203 -0.0590542 0)
(0.0122712 -0.0685855 0)
(-0.00682418 -0.0861535 0)
(-0.0266354 -0.0963012 0)
(-0.0408127 -0.105497 0)
(-0.0435752 -0.0824411 0)
(-0.0326102 -0.0690049 0)
(-0.0115019 -0.0738313 0)
(0.0106858 -0.0772565 0)
(0.0333733 -0.0974418 0)
(0.0477338 -0.0891427 0)
(0.0624256 -0.0736081 0)
(0.0693739 -0.0660652 0)
(0.0689784 -0.0537625 0)
(0.0514565 -0.0291901 0)
(0.0276008 0.0157756 0)
(0.0412511 0.0467252 0)
(0.0440304 0.0473016 0)
(0.0554569 0.0190965 0)
(0.0381839 -0.0331154 0)
(0.00856186 -0.0563133 0)
(-0.0142218 -0.0520222 0)
(-0.032285 -0.0398949 0)
(-0.0405003 -0.0402296 0)
(-0.0373942 -0.0462555 0)
(-0.0278865 -0.0308678 0)
(-0.0193311 -0.0145852 0)
(0.00664635 -0.00336568 0)
(0.0139998 -0.0332132 0)
(0.0143031 -0.0668598 0)
(0.005572 -0.0777905 0)
(-0.00611058 -0.0802119 0)
(-0.0207097 -0.0800386 0)
(-0.0370328 -0.0898806 0)
(-0.0421269 -0.116565 0)
(-0.0364122 -0.119442 0)
(-0.0291152 -0.106854 0)
(-0.0123137 -0.0999221 0)
(0.00965327 -0.107514 0)
(0.0287512 -0.12428 0)
(0.0404826 -0.121039 0)
(0.0541438 -0.104209 0)
(0.0598578 -0.0889334 0)
(0.0577897 -0.0503638 0)
(0.0457195 -0.0270323 0)
(0.028121 -0.000114355 0)
(0.0375779 0.0320789 0)
(0.0513988 0.0210882 0)
(0.0414785 -0.00734475 0)
(0.0362763 -0.0273589 0)
(0.0154065 -0.0474672 0)
(-0.00500421 -0.0520622 0)
(-0.0205779 -0.0612652 0)
(-0.0288087 -0.0701372 0)
(-0.0341884 -0.0753365 0)
(-0.0318165 -0.0615978 0)
(-0.019217 -0.0481309 0)
(0.0119706 -0.0513674 0)
(0.0141877 -0.0666631 0)
(0.000483666 -0.0709752 0)
(-0.00818561 -0.0677633 0)
(-0.0174264 -0.0653301 0)
(-0.0244453 -0.0632151 0)
(-0.0288655 -0.0838356 0)
(-0.0349021 -0.116764 0)
(-0.0391409 -0.130717 0)
(-0.0284395 -0.125271 0)
(-0.015838 -0.115484 0)
(0.00323111 -0.116665 0)
(0.0242256 -0.134118 0)
(0.0359945 -0.135281 0)
(0.0497239 -0.119494 0)
(0.0522245 -0.100319 0)
(0.0473415 -0.054311 0)
(0.0399036 -0.0225052 0)
(0.0321835 -0.0038398 0)
(0.0393767 0.0127697 0)
(0.041571 0.00338644 0)
(0.0337272 -0.0101616 0)
(0.0302822 -0.0230537 0)
(0.0137268 -0.0451605 0)
(0.00242809 -0.0567172 0)
(-0.00548779 -0.0667355 0)
(-0.010987 -0.0794515 0)
(-0.0156008 -0.0935903 0)
(-0.0200201 -0.105456 0)
(-0.0143662 -0.0976037 0)
(0.00929773 -0.0732198 0)
(0.00488172 -0.0722785 0)
(-0.000615795 -0.0618567 0)
(-0.00902415 -0.0573389 0)
(-0.0158195 -0.057243 0)
(-0.0166485 -0.0596847 0)
(-0.0167659 -0.0820749 0)
(-0.0196446 -0.112338 0)
(-0.0277084 -0.131914 0)
(-0.0342509 -0.13233 0)
(-0.0201739 -0.120007 0)
(-0.00184594 -0.119467 0)
(0.0195838 -0.136087 0)
(0.0316931 -0.134565 0)
(0.0446701 -0.120872 0)
(0.0470272 -0.0935389 0)
(0.0397658 -0.0569188 0)
(0.0373186 -0.0191608 0)
(0.03874 -0.00652759 0)
(0.0372896 -0.00782459 0)
(0.0341854 -0.0065614 0)
(0.028278 -0.0139409 0)
(0.0239303 -0.023102 0)
(0.012524 -0.0463412 0)
(0.00350708 -0.0631896 0)
(0.00260259 -0.0664464 0)
(-0.00131655 -0.0769572 0)
(-0.00460516 -0.0938454 0)
(-0.00517335 -0.114001 0)
(-0.00672206 -0.116738 0)
(0.00323346 -0.0698798 0)
(-0.00267153 -0.0660792 0)
(-0.00642231 -0.053628 0)
(-0.0124894 -0.0486657 0)
(-0.0109751 -0.0545528 0)
(-0.00313548 -0.0658571 0)
(-0.000848099 -0.0842487 0)
(-0.00368617 -0.110667 0)
(-0.0120698 -0.130771 0)
(-0.0240238 -0.136122 0)
(-0.0270344 -0.126006 0)
(-0.00575734 -0.120508 0)
(0.0121523 -0.133801 0)
(0.0235943 -0.129562 0)
(0.0352962 -0.118589 0)
(0.0365995 -0.0801953 0)
(0.0293228 -0.0512504 0)
(0.0368541 -0.0237222 0)
(0.0484476 -0.0108182 0)
(0.0422444 -0.0188956 0)
(0.0317318 -0.0145507 0)
(0.0230756 -0.0190479 0)
(0.0174893 -0.0245916 0)
(0.0092851 -0.0495033 0)
(-0.0015742 -0.0690215 0)
(0.00199225 -0.0650598 0)
(0.00420147 -0.0702438 0)
(0.00130426 -0.0866209 0)
(0.000131529 -0.107023 0)
(-0.000873961 -0.113309 0)
(0.00246536 -0.0606762 0)
(-0.00132615 -0.0583379 0)
(-0.0097577 -0.0458339 0)
(-0.00910807 -0.0465528 0)
(0.000182271 -0.0593529 0)
(0.00895025 -0.0750138 0)
(0.013382 -0.0895154 0)
(0.0105196 -0.112524 0)
(0.00152819 -0.127509 0)
(-0.0103685 -0.133324 0)
(-0.0233935 -0.133719 0)
(-0.0181266 -0.129174 0)
(-0.0010717 -0.131348 0)
(0.0118794 -0.123421 0)
(0.0227381 -0.107548 0)
(0.0211223 -0.0746653 0)
(0.0189162 -0.04389 0)
(0.034604 -0.0247796 0)
(0.0510117 -0.0162072 0)
(0.0496828 -0.0221999 0)
(0.0343473 -0.0204753 0)
(0.0217494 -0.0210492 0)
(0.0156679 -0.027712 0)
(0.00816662 -0.0459516 0)
(-0.00170646 -0.0671488 0)
(-0.00631428 -0.069559 0)
(0.00213583 -0.0675519 0)
(0.00497862 -0.0784763 0)
(-0.00020924 -0.0992413 0)
(0.00187226 -0.105551 0)
(-0.00112462 -0.0553417 0)
(-0.00419061 -0.0461918 0)
(-0.00707809 -0.0400036 0)
(0.00511694 -0.0510957 0)
(0.0163036 -0.0689858 0)
(0.0196117 -0.0824073 0)
(0.023914 -0.0967078 0)
(0.0238731 -0.114043 0)
(0.0130285 -0.12843 0)
(-0.0004336 -0.1332 0)
(-0.0122092 -0.130143 0)
(-0.0198809 -0.128393 0)
(-0.0121919 -0.131013 0)
(0.00215488 -0.120127 0)
(0.00815654 -0.0945474 0)
(0.00738895 -0.0689038 0)
(0.0145076 -0.0413661 0)
(0.0326831 -0.0272759 0)
(0.0520392 -0.0224446 0)
(0.0561252 -0.0260906 0)
(0.0440301 -0.0264128 0)
(0.0257502 -0.025878 0)
(0.0201749 -0.0283295 0)
(0.00921188 -0.0381322 0)
(0.000542435 -0.0540477 0)
(-0.013796 -0.0718751 0)
(-0.00857818 -0.0701931 0)
(0.0041631 -0.0722807 0)
(0.0043446 -0.0844214 0)
(0.00533249 -0.093646 0)
(-0.0133166 -0.0470174 0)
(0.00113064 -0.0380834 0)
(0.00656623 -0.0464553 0)
(0.0244728 -0.0629465 0)
(0.0302869 -0.0757977 0)
(0.0306148 -0.0886923 0)
(0.0300725 -0.104571 0)
(0.0332603 -0.116877 0)
(0.0228909 -0.126453 0)
(0.00817847 -0.134834 0)
(-0.00515151 -0.13021 0)
(-0.0134146 -0.125299 0)
(-0.0144152 -0.126246 0)
(-0.00833368 -0.117279 0)
(0.000311943 -0.0934324 0)
(0.00429423 -0.0736655 0)
(0.0163351 -0.0406321 0)
(0.0333444 -0.0304884 0)
(0.0527808 -0.028389 0)
(0.0576122 -0.0306939 0)
(0.0534242 -0.0310291 0)
(0.0391139 -0.0249264 0)
(0.0265253 -0.0254467 0)
(0.00558426 -0.0303381 0)
(0.00353078 -0.0345464 0)
(-0.00764881 -0.059269 0)
(-0.0184111 -0.0762216 0)
(-0.00639319 -0.0761592 0)
(0.00191281 -0.0741674 0)
(0.00965559 -0.0789021 0)
(-0.0172057 -0.0272377 0)
(-0.00197801 -0.0329026 0)
(0.0133612 -0.0553899 0)
(0.0279882 -0.0651696 0)
(0.0325407 -0.0727552 0)
(0.0315459 -0.0857374 0)
(0.0324399 -0.10472 0)
(0.0339602 -0.120004 0)
(0.0293729 -0.124031 0)
(0.0148042 -0.133001 0)
(-3.81196e-05 -0.130172 0)
(-0.0106833 -0.123873 0)
(-0.012101 -0.120504 0)
(-0.0131342 -0.118898 0)
(-0.00248445 -0.0951994 0)
(0.00109771 -0.0798542 0)
(0.0178636 -0.0424629 0)
(0.0348989 -0.0361731 0)
(0.0512477 -0.036843 0)
(0.0577245 -0.0330392 0)
(0.0546018 -0.030221 0)
(0.0511202 -0.0240999 0)
(0.0341822 -0.0208599 0)
(0.00322421 -0.0202705 0)
(0.00327662 -0.022992 0)
(-0.0027424 -0.0395198 0)
(-0.0148878 -0.0658036 0)
(-0.0141013 -0.0788371 0)
(-0.00403066 -0.0738769 0)
(0.00896896 -0.0614348 0)
(-0.00473242 -0.00770542 0)
(0.00565078 -0.0349675 0)
(0.015347 -0.0539107 0)
(0.0237688 -0.0643836 0)
(0.0262307 -0.0662083 0)
(0.0239002 -0.0798031 0)
(0.0256168 -0.101651 0)
(0.0280955 -0.120833 0)
(0.0279376 -0.127927 0)
(0.0199462 -0.133621 0)
(0.00381175 -0.129153 0)
(-0.00838048 -0.123872 0)
(-0.0105216 -0.117237 0)
(-0.0126343 -0.119069 0)
(-0.00521354 -0.0930491 0)
(0.00503084 -0.0821219 0)
(0.0189598 -0.0463288 0)
(0.0349427 -0.0449022 0)
(0.0473406 -0.043635 0)
(0.0520131 -0.0360369 0)
(0.0503158 -0.028564 0)
(0.0487554 -0.0216496 0)
(0.0414691 -0.0182537 0)
(0.00873578 -0.0146039 0)
(0.00225687 -0.0185499 0)
(-0.00247902 -0.0305949 0)
(-0.0139971 -0.057634 0)
(-0.0142936 -0.0771116 0)
(-0.0100924 -0.0807001 0)
(-0.00257234 -0.0531955 0)
(0.0054596 -0.00979616 0)
(0.01069 -0.0381159 0)
(0.0184834 -0.0502153 0)
(0.0231064 -0.0542082 0)
(0.023547 -0.0573301 0)
(0.0223013 -0.0734358 0)
(0.0224655 -0.0968069 0)
(0.0226157 -0.117128 0)
(0.0211951 -0.132145 0)
(0.0191618 -0.136988 0)
(0.00581423 -0.131508 0)
(-0.00717471 -0.123411 0)
(-0.0113863 -0.117522 0)
(-0.0114651 -0.11951 0)
(-0.00799737 -0.0997521 0)
(0.00797385 -0.0835359 0)
(0.0180545 -0.0547993 0)
(0.0322511 -0.0548095 0)
(0.0401193 -0.0514754 0)
(0.0424797 -0.0407471 0)
(0.0441928 -0.0282389 0)
(0.0405866 -0.0198729 0)
(0.0415837 -0.0166086 0)
(0.011971 -0.0146874 0)
(0.00234462 -0.0168958 0)
(-0.00275591 -0.0277439 0)
(-0.0127172 -0.0511994 0)
(-0.0168254 -0.0777639 0)
(-0.0134502 -0.0874386 0)
(-0.0105129 -0.0673341 0)
(0.0116487 -0.0180544 0)
(0.0147629 -0.0464468 0)
(0.0209552 -0.0518813 0)
(0.0259559 -0.0509722 0)
(0.0274298 -0.0549211 0)
(0.0270147 -0.0704252 0)
(0.026605 -0.0892888 0)
(0.0209122 -0.115218 0)
(0.0170288 -0.134472 0)
(0.0146331 -0.143985 0)
(0.00688311 -0.14498 0)
(-0.00770635 -0.126396 0)
(-0.0126559 -0.118548 0)
(-0.012887 -0.122107 0)
(-0.0118735 -0.110937 0)
(0.00138463 -0.0847717 0)
(0.0131097 -0.0613111 0)
(0.0250448 -0.0650089 0)
(0.0313675 -0.0591993 0)
(0.0310062 -0.0487649 0)
(0.031223 -0.0446607 0)
(0.0318795 -0.0242632 0)
(0.0322958 -0.0140559 0)
(0.0148914 -0.0103797 0)
(0.00144576 -0.0167555 0)
(-0.00566336 -0.0283332 0)
(-0.0149856 -0.0529651 0)
(-0.0206995 -0.081717 0)
(-0.0152451 -0.0965813 0)
(-0.0138322 -0.0785683 0)
(0.014762 -0.0357843 0)
(0.0176852 -0.0584141 0)
(0.0248116 -0.0568805 0)
(0.0318112 -0.051268 0)
(0.0311033 -0.0545072 0)
(0.0316852 -0.0691947 0)
(0.0291056 -0.0904578 0)
(0.0232424 -0.113948 0)
(0.0170031 -0.136394 0)
(0.0110732 -0.148835 0)
(0.00885262 -0.155539 0)
(-0.0065762 -0.147467 0)
(-0.0159342 -0.122845 0)
(-0.0158167 -0.123721 0)
(-0.0159398 -0.116063 0)
(-0.0103387 -0.0935838 0)
(0.00609853 -0.0751314 0)
(0.0197281 -0.0784297 0)
(0.0262606 -0.0785591 0)
(0.0219173 -0.0806451 0)
(0.0184801 -0.0528377 0)
(0.0236989 -0.0224297 0)
(0.0252446 -0.00694836 0)
(0.0247803 -0.00194688 0)
(0.00636618 -0.00928285 0)
(-0.00602123 -0.0264178 0)
(-0.0165201 -0.0533581 0)
(-0.0201261 -0.0848775 0)
(-0.0156522 -0.103337 0)
(-0.0151404 -0.0919393 0)
(0.0165604 -0.0526423 0)
(0.0204641 -0.0669859 0)
(0.028261 -0.0621123 0)
(0.0342196 -0.0535875 0)
(0.034288 -0.0559993 0)
(0.0364494 -0.0688694 0)
(0.0321499 -0.0880581 0)
(0.0252622 -0.113488 0)
(0.0161114 -0.136044 0)
(0.0111424 -0.150499 0)
(0.00872713 -0.157772 0)
(-0.00230452 -0.156419 0)
(-0.0172454 -0.142863 0)
(-0.0196302 -0.125097 0)
(-0.0183673 -0.116297 0)
(-0.0126778 -0.100731 0)
(-0.00169434 -0.0931018 0)
(0.0154728 -0.105934 0)
(0.0157659 -0.120067 0)
(0.00741145 -0.0941219 0)
(0.00853575 -0.0524741 0)
(0.0153852 -0.0132377 0)
(0.0170488 0.00756286 0)
(0.0244759 0.00919835 0)
(0.0228884 0.00341064 0)
(-0.000316404 -0.0169389 0)
(-0.0160484 -0.0516227 0)
(-0.0177722 -0.0863973 0)
(-0.0147286 -0.109193 0)
(-0.0158975 -0.102987 0)
(0.0190986 -0.0693148 0)
(0.0233073 -0.0764213 0)
(0.0302941 -0.0687983 0)
(0.0355388 -0.0582757 0)
(0.0353091 -0.0597147 0)
(0.0377544 -0.0700104 0)
(0.0370738 -0.0846801 0)
(0.0276363 -0.107553 0)
(0.0191146 -0.135223 0)
(0.0121415 -0.150115 0)
(0.00910372 -0.156553 0)
(-0.000691737 -0.153597 0)
(-0.0154001 -0.143929 0)
(-0.0226343 -0.129401 0)
(-0.0205248 -0.117126 0)
(-0.0133206 -0.104276 0)
(-0.00214175 -0.110361 0)
(-0.000129938 -0.174474 0)
(-0.00677866 -0.150469 0)
(-0.00599521 -0.103041 0)
(-0.0044088 -0.0516091 0)
(0.00432993 -0.0074045 0)
(0.00720072 0.0172166 0)
(0.0181634 0.0216069 0)
(0.0278313 0.0143971 0)
(0.0158554 -0.00220099 0)
(-0.00753839 -0.0451279 0)
(-0.0172219 -0.0901752 0)
(-0.0142284 -0.113754 0)
(-0.0150415 -0.113288 0)
(0.0217559 -0.0893164 0)
(0.0249913 -0.08805 0)
(0.0331382 -0.0768235 0)
(0.039491 -0.0648833 0)
(0.0373944 -0.064626 0)
(0.038384 -0.0776346 0)
(0.0405991 -0.0908989 0)
(0.0376257 -0.113868 0)
(0.0184468 -0.147359 0)
(0.0120395 -0.156559 0)
(0.00887538 -0.153015 0)
(-0.000850666 -0.148806 0)
(-0.0152959 -0.140823 0)
(-0.0230349 -0.128912 0)
(-0.0229595 -0.119137 0)
(-0.0158262 -0.111286 0)
(-0.00688358 -0.140776 0)
(-0.0137117 -0.197119 0)
(-0.027933 -0.166564 0)
(-0.0238783 -0.115633 0)
(-0.0199226 -0.0530513 0)
(-0.0103234 -0.00177393 0)
(-0.00452223 0.0256528 0)
(0.0121017 0.032127 0)
(0.0233441 0.0276389 0)
(0.0208065 0.00543282 0)
(0.0121289 -0.0321012 0)
(-0.0153555 -0.084932 0)
(-0.0153214 -0.111321 0)
(-0.0140114 -0.122279 0)
(0.0207509 -0.109637 0)
(0.0250226 -0.0995807 0)
(0.0341208 -0.0848219 0)
(0.04138 -0.0687663 0)
(0.0390965 -0.067741 0)
(0.0526853 -0.0828648 0)
(0.0548239 -0.120427 0)
(0.0466134 -0.171008 0)
(0.0184477 -0.202494 0)
(0.00717488 -0.190653 0)
(0.00067777 -0.165333 0)
(-0.00129641 -0.146373 0)
(-0.0146978 -0.138206 0)
(-0.0226492 -0.127677 0)
(-0.0240065 -0.119713 0)
(-0.0186104 -0.116434 0)
(-0.0103118 -0.16214 0)
(-0.0264325 -0.21803 0)
(-0.0447934 -0.172517 0)
(-0.0385904 -0.133141 0)
(-0.03429 -0.0590499 0)
(-0.0233951 -0.0039391 0)
(-0.0133113 0.0254355 0)
(0.00775127 0.0401931 0)
(0.0220442 0.0420609 0)
(0.0180878 0.0134824 0)
(-0.00256673 -0.0420399 0)
(-0.0182368 -0.0837902 0)
(-0.014465 -0.109771 0)
(-0.0123684 -0.125275 0)
(0.0145088 -0.135973 0)
(0.0202107 -0.111737 0)
(0.0299958 -0.0915054 0)
(0.0384819 -0.0751355 0)
(0.0469615 -0.0767949 0)
(0.0586648 -0.110415 0)
(0.0498032 -0.160544 0)
(0.0479386 -0.218138 0)
(0.032333 -0.249945 0)
(0.00983843 -0.232739 0)
(-0.00256933 -0.186442 0)
(-0.000610025 -0.143508 0)
(-0.0129907 -0.134748 0)
(-0.0211042 -0.125891 0)
(-0.0233262 -0.120002 0)
(-0.0207859 -0.121397 0)
(-0.0129364 -0.17378 0)
(-0.0378118 -0.230822 0)
(-0.0547823 -0.172259 0)
(-0.0482686 -0.13245 0)
(-0.0449202 -0.0587409 0)
(-0.0308001 -0.00445872 0)
(-0.0193604 0.0247625 0)
(0.00441861 0.0409335 0)
(0.0178163 0.0385326 0)
(0.0065903 0.00264582 0)
(-0.0208318 -0.0525903 0)
(-0.0202008 -0.0830868 0)
(-0.0151404 -0.116172 0)
(-0.0125906 -0.133809 0)
(0.00753191 -0.154816 0)
(0.0138477 -0.128085 0)
(0.0233351 -0.105227 0)
(0.0292764 -0.11338 0)
(0.0443095 -0.128742 0)
(0.0522914 -0.172252 0)
(0.0523482 -0.2338 0)
(0.0538459 -0.288531 0)
(0.0476475 -0.308973 0)
(0.0272899 -0.272412 0)
(0.00513606 -0.193856 0)
(0.00160347 -0.140119 0)
(-0.00971257 -0.130729 0)
(-0.018601 -0.1234 0)
(-0.0211979 -0.119437 0)
(-0.0214871 -0.123114 0)
(-0.0108501 -0.186375 0)
(-0.0454723 -0.241738 0)
(-0.0669603 -0.1756 0)
(-0.0641391 -0.129347 0)
(-0.0535682 -0.0644573 0)
(-0.0350278 -0.00610089 0)
(-0.0219569 0.0232029 0)
(0.00310724 0.0396416 0)
(0.0232402 0.0404278 0)
(0.0157988 0.00912187 0)
(-0.0142817 -0.0446789 0)
(-0.0165268 -0.0825603 0)
(-0.0127199 -0.122415 0)
(-0.00978786 -0.145558 0)
(-0.00153532 -0.161184 0)
(0.00688588 -0.157608 0)
(0.0116112 -0.150926 0)
(0.0212557 -0.161324 0)
(0.0353063 -0.185603 0)
(0.041673 -0.237493 0)
(0.040983 -0.290325 0)
(0.0485089 -0.313745 0)
(0.0545555 -0.322019 0)
(0.0528701 -0.313813 0)