/*--------------------------------*- C++ -*----------------------------------*\
| =========                 |                                                 |
| \\      /  F ield         | OpenFOAM: The Open Source CFD Toolbox           |
|  \\    /   O peration     | Version:  v1606+                                |
|   \\  /    A nd           | Web:      www.OpenFOAM.com                      |
|    \\/     M anipulation  |                                                 |
\*---------------------------------------------------------------------------*/
FoamFile
{
    version     2.0;
    format      ascii;
    class       volVectorField;
    location    "1.37";
    object      U;
}
// * * * * * * * * * * * * * * * * * * * * * * * * * * * * * * * * * * * * * //

dimensions      [0 1 -1 0 0 0 0];

internalField   nonuniform List<vector> 
6000
(
(0.0127652 -0.0369846 0)
(0.0543285 -0.0867415 0)
(0.0855744 -0.0779206 0)
(0.106677 -0.068775 0)
(0.107544 -0.0655366 0)
(0.0895348 -0.106546 0)
(0.0795668 -0.136838 0)
(0.0844401 -0.142776 0)
(0.0929306 -0.137503 0)
(0.0710984 -0.120087 0)
(0.018387 -0.0902876 0)
(-0.0144682 -0.089619 0)
(-0.0114908 -0.0988237 0)
(-0.00128299 -0.102258 0)
(0.00564962 -0.102218 0)
(0.00837894 -0.0992596 0)
(0.000791218 -0.0993227 0)
(-0.0300707 -0.100583 0)
(-0.0819446 -0.112919 0)
(-0.106642 -0.120582 0)
(-0.103136 -0.113977 0)
(-0.115573 -0.0935875 0)
(-0.141561 -0.0715606 0)
(-0.162435 -0.0384943 0)
(-0.154933 -0.0152824 0)
(-0.117886 -0.0054119 0)
(-0.0719541 0.00203731 0)
(-0.0350644 0.00350987 0)
(-0.014328 -0.0147263 0)
(-5.81902e-05 0.00897038 0)
(0.0325966 0.575098 0)
(0.0668513 0.626603 0)
(0.123685 0.636689 0)
(0.162128 0.656343 0)
(0.187425 0.685128 0)
(0.186278 0.710034 0)
(0.153242 0.691895 0)
(0.111397 0.657999 0)
(0.0761338 0.676062 0)
(0.0368395 0.711493 0)
(0.01269 0.7286 0)
(0.000894216 0.654728 0)
(-0.00653093 0.624101 0)
(-0.00394516 0.628899 0)
(-0.00220162 0.63359 0)
(-0.00189049 0.641078 0)
(-0.0120132 0.67052 0)
(-0.0322252 0.713624 0)
(-0.0591968 0.70655 0)
(-0.102605 0.656172 0)
(-0.174842 0.656556 0)
(-0.244786 0.701615 0)
(-0.279015 0.695898 0)
(-0.274534 0.653647 0)
(-0.207622 0.60141 0)
(-0.12069 0.555323 0)
(-0.0480044 0.568408 0)
(0.00550269 0.598059 0)
(0.0219497 0.65428 0)
(-0.00338063 0.62678 0)
(-0.0115102 0.392931 0)
(-0.0158665 0.350675 0)
(0.0240394 0.32965 0)
(0.0747025 0.370594 0)
(0.128097 0.426706 0)
(0.179694 0.471259 0)
(0.182587 0.496819 0)
(0.132835 0.494847 0)
(0.0680583 0.542878 0)
(0.0223912 0.564486 0)
(0.0102303 0.544834 0)
(0.00106517 0.510037 0)
(-0.0097896 0.462565 0)
(-0.013876 0.451747 0)
(-0.013805 0.458363 0)
(-0.0204866 0.478828 0)
(-0.0329734 0.520043 0)
(-0.0417284 0.553013 0)
(-0.0548261 0.571886 0)
(-0.0946843 0.591931 0)
(-0.176869 0.595403 0)
(-0.244462 0.567058 0)
(-0.274795 0.516221 0)
(-0.227896 0.391739 0)
(-0.11692 0.303125 0)
(-0.018818 0.284517 0)
(0.0360266 0.32859 0)
(0.0591729 0.389601 0)
(0.0566902 0.474185 0)
(0.0212541 0.502814 0)
(-0.0185425 0.459453 0)
(-0.0515957 0.420276 0)
(-0.0678714 0.389217 0)
(-0.0638021 0.40999 0)
(-0.00945477 0.440848 0)
(0.0905532 0.492969 0)
(0.157415 0.578737 0)
(0.119366 0.626717 0)
(0.0453657 0.634689 0)
(0.00382399 0.615859 0)
(-0.0140309 0.587734 0)
(-0.0171532 0.551205 0)
(-0.00786519 0.508259 0)
(-0.00163774 0.485084 0)
(-0.00796626 0.490794 0)
(-0.0185889 0.52298 0)
(-0.0308517 0.550261 0)
(-0.0386536 0.57881 0)
(-0.0532992 0.606103 0)
(-0.0775841 0.639617 0)
(-0.130109 0.679757 0)
(-0.190311 0.640895 0)
(-0.191754 0.541292 0)
(-0.100575 0.35527 0)
(-0.00843464 0.250657 0)
(0.0494734 0.270505 0)
(0.0852141 0.355564 0)
(0.0752878 0.427182 0)
(0.0419493 0.517768 0)
(0.0194786 0.538536 0)
(-0.0357836 0.47502 0)
(-0.0895492 0.438701 0)
(-0.132367 0.403932 0)
(-0.137953 0.366588 0)
(-0.119849 0.34065 0)
(-0.0448116 0.358685 0)
(0.0711774 0.523581 0)
(0.115542 0.676306 0)
(0.0647763 0.685284 0)
(0.00783263 0.649627 0)
(-0.0207667 0.599673 0)
(-0.0136296 0.538962 0)
(0.0228619 0.479719 0)
(0.0414272 0.490107 0)
(0.0307213 0.513221 0)
(0.0151122 0.542597 0)
(0.00180052 0.57189 0)
(-0.0116021 0.600192 0)
(-0.0267641 0.633971 0)
(-0.0502867 0.678362 0)
(-0.0759062 0.729045 0)
(-0.101212 0.678109 0)
(-0.0649332 0.471516 0)
(-0.00861959 0.238673 0)
(0.0410193 0.176952 0)
(0.07773 0.232736 0)
(0.072115 0.29864 0)
(0.0340562 0.429888 0)
(-0.000864507 0.518001 0)
(0.0059272 0.549186 0)
(-0.0172401 0.505528 0)
(-0.0426171 0.42182 0)
(-0.0865919 0.356562 0)
(-0.13271 0.358053 0)
(-0.140351 0.331279 0)
(-0.118531 0.280055 0)
(-0.0474564 0.398785 0)
(0.0455201 0.659575 0)
(0.0571601 0.755383 0)
(0.0160404 0.706402 0)
(0.0066533 0.614621 0)
(0.0386736 0.503147 0)
(0.0764424 0.440525 0)
(0.0834903 0.487534 0)
(0.0701853 0.535227 0)
(0.0512383 0.559359 0)
(0.0362971 0.586757 0)
(0.01653 0.629845 0)
(0.00136961 0.666935 0)
(-0.0177066 0.721303 0)
(-0.02063 0.763133 0)
(0.00860048 0.665541 0)
(0.0331749 0.410947 0)
(0.0347223 0.231203 0)
(0.0545926 0.158247 0)
(0.0547564 0.210951 0)
(-0.0014882 0.370491 0)
(-0.0440081 0.552331 0)
(-0.0488707 0.584484 0)
(-0.0106677 0.591338 0)
(0.00995607 0.609342 0)
(0.0235164 0.568821 0)
(-0.0117808 0.497921 0)
(-0.0550291 0.366246 0)
(-0.0767632 0.278536 0)
(-0.127433 0.276997 0)
(-0.0841844 0.31556 0)
(-0.0370764 0.562967 0)
(0.019346 0.766343 0)
(0.0450339 0.717931 0)
(0.0792062 0.580954 0)
(0.113268 0.464542 0)
(0.121567 0.434653 0)
(0.108031 0.495037 0)
(0.0918201 0.552672 0)
(0.0708527 0.579651 0)
(0.0468718 0.603149 0)
(0.0222437 0.65044 0)
(-0.000809211 0.681315 0)
(-0.00599705 0.725963 0)
(0.0223122 0.733957 0)
(0.070144 0.611677 0)
(0.0686178 0.412585 0)
(0.0355212 0.25912 0)
(0.0138833 0.137957 0)
(-0.039232 0.289971 0)
(-0.120588 0.498705 0)
(-0.118313 0.507568 0)
(-0.0808565 0.500203 0)
(-0.0185206 0.510963 0)
(0.0267726 0.503126 0)
(0.0861311 0.493568 0)
(0.105369 0.519591 0)
(0.0703924 0.521794 0)
(0.0121073 0.401811 0)
(-0.0407847 0.256968 0)
(-0.0711503 0.300631 0)
(-0.0526981 0.50424 0)
(-0.00496905 0.700943 0)
(0.07093 0.659188 0)
(0.118634 0.531101 0)
(0.133541 0.451367 0)
(0.122548 0.448597 0)
(0.103895 0.500413 0)
(0.092153 0.554783 0)
(0.0786694 0.589114 0)
(0.0577278 0.616943 0)
(0.0328074 0.658728 0)
(0.0114919 0.685812 0)
(0.00596451 0.700562 0)
(0.0404801 0.67609 0)
(0.0798284 0.571137 0)
(0.07475 0.452675 0)
(0.0216918 0.328451 0)
(-0.0976493 0.195183 0)
(-0.243435 0.400502 0)
(-0.268105 0.492056 0)
(-0.17538 0.463903 0)
(-0.105725 0.453735 0)
(-0.0273984 0.466305 0)
(0.0299272 0.45889 0)
(0.105099 0.453934 0)
(0.165605 0.478471 0)
(0.243468 0.507768 0)
(0.237268 0.505699 0)
(0.108434 0.383161 0)
(-0.0178542 0.329223 0)
(-0.0230478 0.49584 0)
(0.00287978 0.623877 0)
(0.0646811 0.589375 0)
(0.100664 0.497446 0)
(0.107693 0.462507 0)
(0.0990903 0.474388 0)
(0.0915888 0.522765 0)
(0.0907849 0.572745 0)
(0.0890267 0.611751 0)
(0.0777822 0.648706 0)
(0.0604995 0.683892 0)
(0.0438296 0.699884 0)
(0.0347297 0.694205 0)
(0.0475093 0.656652 0)
(0.0721622 0.57439 0)
(0.0791147 0.493161 0)
(0.0494314 0.422717 0)
(-0.177849 0.414293 0)
(-0.433757 0.484974 0)
(-0.405413 0.399384 0)
(-0.261518 0.337696 0)
(-0.141929 0.366731 0)
(-0.041295 0.392734 0)
(0.0381317 0.379451 0)
(0.128616 0.367326 0)
(0.227047 0.369265 0)
(0.364182 0.404368 0)
(0.425984 0.520728 0)
(0.312828 0.581467 0)
(0.0727504 0.426305 0)
(0.00166307 0.525452 0)
(0.0012846 0.600973 0)
(0.0300503 0.579057 0)
(0.0508398 0.516241 0)
(0.0562492 0.487375 0)
(0.0561455 0.504673 0)
(0.063206 0.543148 0)
(0.0822952 0.589331 0)
(0.101584 0.633089 0)
(0.107488 0.679442 0)
(0.101905 0.713431 0)
(0.0925473 0.723175 0)
(0.0707449 0.696498 0)
(0.0492282 0.622943 0)
(0.0591239 0.522212 0)
(0.0838481 0.45745 0)
(0.0488734 0.471151 0)
(-0.233313 0.719035 0)
(-0.489308 0.529357 0)
(-0.442051 0.274544 0)
(-0.307542 0.172614 0)
(-0.168673 0.238898 0)
(-0.0519765 0.278949 0)
(0.0438133 0.27646 0)
(0.14464 0.258335 0)
(0.259619 0.218396 0)
(0.408049 0.261255 0)
(0.487232 0.479232 0)
(0.439718 0.742155 0)
(0.136963 0.578502 0)
(-0.0046313 0.534105 0)
(-0.00973274 0.562881 0)
(0.00332906 0.510619 0)
(0.0162045 0.430024 0)
(0.0156351 0.385565 0)
(0.00869834 0.38693 0)
(0.0221379 0.405788 0)
(0.050253 0.441467 0)
(0.0791226 0.486706 0)
(0.0865141 0.549619 0)
(0.078329 0.590419 0)
(0.0627496 0.613415 0)
(0.0476878 0.627124 0)
(0.0428552 0.578609 0)
(0.0502087 0.442654 0)
(0.0424686 0.420362 0)
(-0.0658701 0.669184 0)
(-0.279367 1.10035 0)
(-0.358541 0.598883 0)
(-0.379027 0.166888 0)
(-0.301648 0.0471904 0)
(-0.172983 0.108114 0)
(-0.0571514 0.159958 0)
(0.0465058 0.172226 0)
(0.155658 0.147578 0)
(0.271591 0.0863144 0)
(0.399173 0.134581 0)
(0.459069 0.429455 0)
(0.446339 0.89655 0)
(0.222241 0.848696 0)
(-0.000994342 0.549636 0)
(-0.0505957 0.506727 0)
(-0.0615163 0.459526 0)
(-0.0546402 0.426654 0)
(-0.0413164 0.443739 0)
(-0.0347825 0.470049 0)
(0.00245551 0.473974 0)
(0.0560208 0.510503 0)
(0.0893682 0.596316 0)
(0.0698669 0.730299 0)
(0.00827407 0.816269 0)
(-0.0610409 0.88205 0)
(-0.116174 0.839518 0)
(-0.120476 0.748931 0)
(-0.100059 0.611358 0)
(-0.130998 0.64205 0)
(-0.223235 0.909784 0)
(-0.211883 1.17035 0)
(-0.245728 0.78735 0)
(-0.262024 0.147608 0)
(-0.264647 -0.0431601 0)
(-0.15776 -0.0016949 0)
(-0.0532169 0.0518169 0)
(0.0432937 0.075573 0)
(0.156437 0.0462378 0)
(0.270287 -0.0295285 0)
(0.377552 0.0270491 0)
(0.437735 0.446833 0)
(0.428046 1.08514 0)
(0.277944 1.23345 0)
(0.0468742 0.89443 0)
(-0.131267 0.760041 0)
(-0.21451 0.658327 0)
(-0.202127 0.533256 0)
(-0.159467 0.532288 0)
(-0.0989977 0.50787 0)
(-0.0398789 0.456049 0)
(0.00696504 0.507639 0)
(0.0312333 0.635984 0)
(-0.0152756 0.811995 0)
(-0.0989947 0.868374 0)
(-0.175929 0.878913 0)
(-0.234608 0.802448 0)
(-0.217428 0.636154 0)
(-0.172388 0.52517 0)
(-0.151795 0.604328 0)
(-0.153522 0.837992 0)
(-0.0602262 1.00153 0)
(-0.0664287 0.879903 0)
(-0.153394 0.22706 0)
(-0.192121 -0.104965 0)
(-0.126296 -0.0916228 0)
(-0.0417601 -0.0396598 0)
(0.0351644 -0.0130259 0)
(0.13401 -0.0534048 0)
(0.223232 -0.14103 0)
(0.311698 -0.0688036 0)
(0.400941 0.536146 0)
(0.299162 1.22551 0)
(0.167406 1.31657 0)
(0.0192662 1.05539 0)
(-0.144036 0.825741 0)
(-0.208575 0.603791 0)
(-0.183234 0.405253 0)
(-0.137396 0.373481 0)
(-0.0646505 0.353284 0)
(-0.0158651 0.372163 0)
(-0.00612941 0.400042 0)
(-0.013253 0.573214 0)
(-0.0471218 0.805958 0)
(-0.110921 0.881186 0)
(-0.187672 0.891416 0)
(-0.226825 0.791239 0)
(-0.192517 0.574458 0)
(-0.149355 0.454834 0)
(-0.106252 0.542083 0)
(-0.0544013 0.785893 0)
(0.0184523 0.921522 0)
(0.0695781 0.884514 0)
(-0.0448112 0.371842 0)
(-0.0945831 -0.127022 0)
(-0.0794509 -0.154501 0)
(-0.0229188 -0.106635 0)
(0.0174313 -0.0850997 0)
(0.0937186 -0.12691 0)
(0.138751 -0.223642 0)
(0.180371 -0.145292 0)
(0.213505 0.554374 0)
(0.102881 1.2823 0)
(0.0446858 1.32725 0)
(-0.0200443 1.13374 0)
(-0.0987186 0.880033 0)
(-0.12136 0.603041 0)
(-0.108062 0.374398 0)
(-0.0785004 0.318801 0)
(-0.0231971 0.292185 0)
(0.0202967 0.337617 0)
(0.0144356 0.448934 0)
(-0.0193477 0.597768 0)
(-0.0533597 0.855893 0)
(-0.111659 0.959257 0)
(-0.178807 0.955947 0)
(-0.195481 0.786067 0)
(-0.16474 0.522729 0)
(-0.138863 0.436191 0)
(-0.0851538 0.468453 0)
(-0.0163461 0.721525 0)
(0.0522225 0.856588 0)
(0.118892 0.859062 0)
(0.0523388 0.499305 0)
(0.00317997 -0.106948 0)
(-0.0308389 -0.181418 0)
(-0.00099278 -0.137816 0)
(0.00410623 -0.130022 0)
(0.056193 -0.169587 0)
(0.072971 -0.260432 0)
(0.0754089 -0.16088 0)
(0.0562905 0.644311 0)
(-0.0255941 1.31374 0)
(-0.0235391 1.36215 0)
(-0.0446498 1.18829 0)
(-0.0517938 0.905355 0)
(-0.0361241 0.597099 0)
(-0.0199693 0.361622 0)
(-0.00152586 0.28125 0)
(0.0295881 0.252121 0)
(0.0473128 0.317806 0)
(0.0345486 0.470244 0)
(-0.0104379 0.635116 0)
(-0.0624482 0.898863 0)
(-0.117412 1.02222 0)
(-0.169691 0.996461 0)
(-0.170825 0.773537 0)
(-0.160786 0.537867 0)
(-0.120394 0.371674 0)
(-0.0767497 0.439314 0)
(-0.00108735 0.630313 0)
(0.0705401 0.814235 0)
(0.129582 0.83755 0)
(0.11839 0.555267 0)
(0.0765481 -0.0498743 0)
(0.0100837 -0.171483 0)
(0.0198507 -0.13639 0)
(-0.00884615 -0.152118 0)
(0.0258279 -0.193813 0)
(0.0359093 -0.265694 0)
(0.00328695 -0.1274 0)
(-0.0650611 0.70573 0)
(-0.0852571 1.32395 0)
(-0.0627418 1.35537 0)
(-0.0449809 1.1806 0)
(-0.000728958 0.877139 0)
(0.0453795 0.571315 0)
(0.0563339 0.348996 0)
(0.0640546 0.257489 0)
(0.078707 0.238463 0)
(0.0755855 0.323058 0)
(0.0498136 0.509626 0)
(-0.0103242 0.696158 0)
(-0.0787056 0.952909 0)
(-0.130713 1.07303 0)
(-0.162161 1.01742 0)
(-0.155165 0.762248 0)
(-0.138349 0.508931 0)
(-0.0958705 0.321462 0)
(-0.0568123 0.370754 0)
(0.00570399 0.538952 0)
(0.0686525 0.759489 0)
(0.141413 0.801676 0)
(0.175565 0.574574 0)
(0.108933 0.00479177 0)
(0.0304397 -0.143193 0)
(0.0321575 -0.109858 0)
(-0.0200614 -0.151869 0)
(-0.00337331 -0.211612 0)
(0.0054053 -0.254658 0)
(-0.0510964 -0.0376053 0)
(-0.163779 0.725322 0)
(-0.125587 1.30665 0)
(-0.081359 1.32893 0)
(-0.0239531 1.12805 0)
(0.0542264 0.817326 0)
(0.110369 0.535775 0)
(0.124775 0.372514 0)
(0.128211 0.245169 0)
(0.122195 0.242994 0)
(0.10089 0.345746 0)
(0.0596087 0.56239 0)
(-0.0151394 0.772615 0)
(-0.0948108 1.0143 0)
(-0.141902 1.10591 0)
(-0.15619 1.02297 0)
(-0.140287 0.752389 0)
(-0.112134 0.480747 0)
(-0.0630206 0.281842 0)
(-0.03136 0.317506 0)
(0.0173358 0.51067 0)
(0.0834788 0.669314 0)
(0.160552 0.71783 0)
(0.224913 0.583987 0)
(0.142009 0.104637 0)
(0.0468355 -0.102563 0)
(0.0404255 -0.067407 0)
(-0.0232264 -0.128865 0)
(-0.026394 -0.217384 0)
(-0.0359683 -0.229281 0)
(-0.118239 0.0797359 0)
(-0.244862 0.742911 0)
(-0.167567 1.24885 0)
(-0.0809637 1.26343 0)
(0.0165202 1.04379 0)
(0.11286 0.742077 0)
(0.158352 0.493613 0)
(0.175503 0.34942 0)
(0.174204 0.247719 0)
(0.147991 0.266687 0)
(0.114236 0.384857 0)
(0.0617122 0.62832 0)
(-0.0231578 0.858031 0)
(-0.107613 1.0777 0)
(-0.150405 1.1304 0)
(-0.151693 1.01202 0)
(-0.125572 0.722454 0)
(-0.0739009 0.432582 0)
(-0.0250539 0.247427 0)
(-0.0312652 0.285378 0)
(-0.000708399 0.443754 0)
(0.0774472 0.607898 0)
(0.168467 0.670767 0)
(0.246755 0.57639 0)
(0.188566 0.207408 0)
(0.0569891 -0.0381301 0)
(0.0178869 -0.0174995 0)
(-0.0138181 -0.0998006 0)
(-0.0371285 -0.195128 0)
(-0.0822047 -0.163296 0)
(-0.213607 0.209676 0)
(-0.297644 0.750748 0)
(-0.19255 1.14878 0)
(-0.0642066 1.15657 0)
(0.0591392 0.938659 0)
(0.156307 0.66593 0)
(0.204386 0.497694 0)
(0.21194 0.339353 0)
(0.191979 0.270071 0)
(0.153891 0.303833 0)
(0.113274 0.433825 0)
(0.0559479 0.702235 0)
(-0.0332866 0.948995 0)
(-0.117083 1.1411 0)
(-0.162459 1.15445 0)
(-0.158849 0.992367 0)
(-0.104787 0.710371 0)
(-0.0203426 0.367737 0)
(-0.0203428 0.244368 0)
(-0.0433878 0.287527 0)
(-0.0300689 0.393472 0)
(0.0428843 0.495972 0)
(0.148073 0.55634 0)
(0.234804 0.531688 0)
(0.219726 0.307679 0)
(0.0747367 0.0578093 0)
(-0.00338006 0.0172223 0)
(-0.00849977 -0.0794384 0)
(-0.0603738 -0.144837 0)
(-0.158236 -0.0484674 0)
(-0.283815 0.295174 0)
(-0.317233 0.713652 0)
(-0.185889 1.01059 0)
(-0.033216 1.02382 0)
(0.0962592 0.824182 0)
(0.175514 0.590023 0)
(0.216628 0.454827 0)
(0.217705 0.345803 0)
(0.183753 0.307554 0)
(0.138089 0.347957 0)
(0.0985401 0.484076 0)
(0.0438209 0.777227 0)
(-0.0426096 1.03845 0)
(-0.122237 1.20239 0)
(-0.162448 1.17212 0)
(-0.141981 0.942511 0)
(-0.0484603 0.60208 0)
(0.00989632 0.330476 0)
(-0.0174627 0.272234 0)
(-0.0470158 0.303187 0)
(-0.0408499 0.358133 0)
(0.0158262 0.409775 0)
(0.108528 0.458204 0)
(0.202802 0.471777 0)
(0.22141 0.378503 0)
(0.14226 0.183082 0)
(0.00844071 0.0307875 0)
(-0.0196515 -0.0370929 0)
(-0.109271 -0.0455496 0)
(-0.243008 0.0793805 0)
(-0.334465 0.355615 0)
(-0.319458 0.658763 0)
(-0.144326 0.846317 0)
(0.00291379 0.880625 0)
(0.114 0.711913 0)
(0.181687 0.559691 0)
(0.199803 0.434286 0)
(0.186467 0.368137 0)
(0.1489 0.35074 0)
(0.104283 0.395178 0)
(0.0703411 0.526125 0)
(0.0265833 0.847334 0)
(-0.0503025 1.12458 0)
(-0.126949 1.26063 0)
(-0.151279 1.18299 0)
(-0.0982631 0.909486 0)
(0.0084582 0.502476 0)
(0.0155168 0.338581 0)
(-0.0238714 0.314988 0)
(-0.0586326 0.322436 0)
(-0.0596463 0.334573 0)
(-0.0241427 0.34602 0)
(0.0447209 0.371225 0)
(0.130254 0.401149 0)
(0.183578 0.389316 0)
(0.156712 0.287703 0)
(0.0626163 0.142474 0)
(-0.0428064 0.0254357 0)
(-0.114489 0.0982647 0)
(-0.234933 0.177246 0)
(-0.268288 0.335832 0)
(-0.238142 0.505423 0)
(-0.10542 0.723116 0)
(0.0400524 0.795963 0)
(0.125715 0.652426 0)
(0.159311 0.514168 0)
(0.157025 0.438488 0)
(0.130714 0.400596 0)
(0.0934628 0.391017 0)
(0.0552982 0.436977 0)
(0.0319755 0.551678 0)
(0.0104136 0.895638 0)
(-0.0536942 1.19127 0)
(-0.121901 1.29596 0)
(-0.117352 1.15231 0)
(-0.0201955 0.788402 0)
(0.0385859 0.456931 0)
(0.000703054 0.382424 0)
(-0.0460796 0.362828 0)
(-0.081939 0.345802 0)
(-0.093159 0.3258 0)
(-0.0796475 0.305333 0)
(-0.0379814 0.30199 0)
(0.0303188 0.326944 0)
(0.0986194 0.359388 0)
(0.113122 0.329908 0)
(0.0554256 0.254043 0)
(-0.0436502 0.0874995 0)
(-0.0817054 0.188007 0)
(-0.160692 0.258451 0)
(-0.168241 0.332908 0)
(-0.104559 0.393049 0)
(-0.0593918 0.581699 0)
(0.0511552 0.676167 0)
(0.104083 0.594309 0)
(0.106811 0.509804 0)
(0.087589 0.462358 0)
(0.0592045 0.435506 0)
(0.0252692 0.42711 0)
(-0.00310554 0.466305 0)
(-0.0147425 0.564458 0)
(-0.0225476 0.920772 0)
(-0.0596724 1.29708 0)
(-0.0961041 1.29748 0)
(-0.0557736 1.1299 0)
(0.0582581 0.685053 0)
(0.0384486 0.479276 0)
(-0.00765279 0.433073 0)
(-0.0473248 0.402825 0)
(-0.0780434 0.368072 0)
(-0.0949843 0.331642 0)
(-0.0998445 0.293973 0)
(-0.0915353 0.264278 0)
(-0.0589962 0.261261 0)
(0.00269333 0.300363 0)
(0.0500482 0.337465 0)
(0.0379981 0.321978 0)
(-0.0279509 0.133954 0)
(-0.0499893 0.233878 0)
(-0.0746546 0.291285 0)
(-0.0534712 0.317782 0)
(-0.0253595 0.36648 0)
(-0.00902851 0.512585 0)
(0.0313568 0.614199 0)
(0.0472889 0.582696 0)
(0.0344947 0.528052 0)
(0.010669 0.491214 0)
(-0.0149467 0.466233 0)
(-0.0402712 0.456366 0)
(-0.0578256 0.481317 0)
(-0.0649628 0.570913 0)
(-0.0694638 0.924084 0)
(-0.0682998 1.3064 0)
(-0.0470254 1.32625 0)
(0.0573594 1.0125 0)
(0.101782 0.646281 0)
(0.0589625 0.531646 0)
(0.0186401 0.483013 0)
(-0.0222002 0.439135 0)
(-0.0536477 0.392813 0)
(-0.0754745 0.346165 0)
(-0.0887873 0.299375 0)
(-0.0942727 0.258176 0)
(-0.089614 0.232643 0)
(-0.0617894 0.240227 0)
(-0.00871232 0.296553 0)
(0.0170586 0.354169 0)
(-0.0144884 0.162994 0)
(-0.0193236 0.231493 0)
(-0.00367798 0.282667 0)
(0.0113155 0.305586 0)
(0.00417371 0.375162 0)
(-0.00700771 0.498909 0)
(-0.0038063 0.579259 0)
(-0.00134113 0.580895 0)
(-0.0179131 0.547681 0)
(-0.0421612 0.515872 0)
(-0.0666996 0.490348 0)
(-0.0891014 0.476479 0)
(-0.101576 0.48934 0)
(-0.103627 0.577506 0)
(-0.103286 0.910182 0)
(-0.0654638 1.27289 0)
(0.0454838 1.23657 0)
(0.162202 0.91212 0)
(0.140212 0.665403 0)
(0.109348 0.579965 0)
(0.0646661 0.530238 0)
(0.017872 0.477134 0)
(-0.0194021 0.422303 0)
(-0.0484202 0.367729 0)
(-0.0695552 0.312577 0)
(-0.0822424 0.264128 0)
(-0.0863478 0.227115 0)
(-0.0771232 0.213992 0)
(-0.0413101 0.243114 0)
(-0.00412181 0.343588 0)
(-0.00403713 0.176671 0)
(0.000585415 0.216599 0)
(0.0157289 0.263784 0)
(0.017945 0.30721 0)
(0.000739233 0.394164 0)
(-0.0212066 0.520369 0)
(-0.0380549 0.59429 0)
(-0.0451699 0.60164 0)
(-0.0615765 0.572337 0)
(-0.0816773 0.538756 0)
(-0.101042 0.510094 0)
(-0.117733 0.491218 0)
(-0.12653 0.495558 0)
(-0.126673 0.573749 0)
(-0.114592 0.872919 0)
(-0.0199233 1.1762 0)
(0.149188 1.10213 0)
(0.218464 0.855908 0)
(0.206226 0.689596 0)
(0.170766 0.631195 0)
(0.120005 0.579764 0)
(0.0670981 0.52147 0)
(0.0219969 0.460104 0)
(-0.0198172 0.402823 0)
(-0.0554441 0.335228 0)
(-0.0752872 0.275221 0)
(-0.0817169 0.226941 0)
(-0.076026 0.199453 0)
(-0.0498208 0.211563 0)
(-0.0112836 0.308073 0)
(0.00361012 0.176956 0)
(0.0139749 0.205844 0)
(0.022943 0.256553 0)
(0.00818957 0.326698 0)
(-0.0304311 0.421886 0)
(-0.0564561 0.53935 0)
(-0.0679102 0.602003 0)
(-0.0719907 0.612349 0)
(-0.0870135 0.592491 0)
(-0.106733 0.559562 0)
(-0.12327 0.526201 0)
(-0.133494 0.500511 0)
(-0.138355 0.496586 0)
(-0.132703 0.562285 0)
(-0.102055 0.799372 0)
(0.0539108 1.01019 0)
(0.217203 0.964191 0)
(0.264344 0.811655 0)
(0.254961 0.722951 0)
(0.222808 0.680526 0)
(0.178075 0.630223 0)
(0.12939 0.570316 0)
(0.0817182 0.504262 0)
(0.0141327 0.454241 0)
(-0.0553908 0.369964 0)
(-0.0851446 0.290913 0)
(-0.0896815 0.22595 0)
(-0.0791425 0.183876 0)
(-0.0524237 0.179255 0)
(-0.0130862 0.27991 0)
(0.0111543 0.16373 0)
(0.0370389 0.18885 0)
(0.0566084 0.254978 0)
(0.00783265 0.402391 0)
(-0.108514 0.501051 0)
(-0.122898 0.55077 0)
(-0.0970829 0.596513 0)
(-0.0812712 0.616258 0)
(-0.0955214 0.61367 0)
(-0.122484 0.579285 0)
(-0.138654 0.536906 0)
(-0.137755 0.502985 0)
(-0.129881 0.493441 0)
(-0.115246 0.536184 0)
(-0.0585381 0.681641 0)
(0.103643 0.843259 0)
(0.223418 0.869652 0)
(0.255555 0.793573 0)
(0.255608 0.747447 0)
(0.246998 0.71012 0)
(0.234632 0.664405 0)
(0.214633 0.611183 0)
(0.179111 0.568991 0)
(0.077956 0.58328 0)
(-0.0756924 0.427919 0)
(-0.125365 0.299425 0)
(-0.118819 0.216406 0)
(-0.094546 0.161938 0)
(-0.0598657 0.141614 0)
(-0.0255046 0.247364 0)
(0.0194267 0.133578 0)
(0.068562 0.149958 0)
(0.132175 0.293056 0)
(0.10924 0.443869 0)
(-0.0791555 0.502413 0)
(-0.139904 0.535099 0)
(-0.0949873 0.585551 0)
(-0.0616108 0.628481 0)
(-0.0807184 0.663733 0)
(-0.136957 0.627429 0)
(-0.154806 0.537333 0)
(-0.141312 0.484463 0)
(-0.109855 0.472089 0)
(-0.0702786 0.491485 0)
(0.0105964 0.588376 0)
(0.109432 0.742671 0)
(0.16021 0.829232 0)
(0.185605 0.802615 0)
(0.197844 0.761486 0)
(0.213476 0.726376 0)
(0.240595 0.694333 0)
(0.250492 0.647147 0)
(0.201841 0.60528 0)
(0.0280614 0.70282 0)
(-0.181304 0.548346 0)
(-0.177639 0.310711 0)
(-0.156531 0.189959 0)
(-0.122546 0.127653 0)
(-0.0758063 0.101647 0)
(-0.0454582 0.204269 0)
(0.0198784 0.0850237 0)
(0.12063 0.0830314 0)
(0.189575 0.0625558 0)
(0.358133 0.746868 0)
(0.25458 0.809115 0)
(0.0896234 0.569563 0)
(-0.0176112 0.476741 0)
(-0.0568708 0.551751 0)
(-0.125085 0.656405 0)
(-0.215396 0.605199 0)
(-0.181038 0.558386 0)
(-0.14767 0.451472 0)
(-0.0958491 0.426168 0)
(-0.0125889 0.427228 0)
(0.0872374 0.536395 0)
(0.125263 0.626198 0)
(0.0927124 0.735181 0)
(0.113605 0.746248 0)
(0.150984 0.706615 0)
(0.186396 0.644653 0)
(0.204759 0.59008 0)
(0.168102 0.670804 0)
(0.0246031 0.824311 0)
(-0.1308 1.0654 0)
(-0.295292 0.78639 0)
(-0.333008 0.224409 0)
(-0.205913 0.119051 0)
(-0.165989 0.0742291 0)
(-0.106686 0.0525656 0)
(-0.0756759 0.139897 0)
(0.0167813 0.0236674 0)
(0.130879 -0.0467918 0)
(0.182653 0.058565 0)
(0.403933 0.553522 0)
(0.585791 0.801253 0)
(0.556835 0.849202 0)
(0.332716 0.808576 0)
(0.102489 0.84282 0)
(-0.0644132 0.932081 0)
(-0.219999 0.832739 0)
(-0.313679 0.489911 0)
(-0.227155 0.414924 0)
(-0.0908988 0.4055 0)
(0.0740746 0.382954 0)
(0.158151 0.341551 0)
(0.201621 0.793328 0)
(0.163169 0.876007 0)
(0.151776 0.787486 0)
(0.145774 0.734535 0)
(0.118669 0.737835 0)
(0.0404844 0.793761 0)
(-0.0719858 0.891004 0)
(-0.175759 0.963559 0)
(-0.188384 1.00821 0)
(-0.191411 0.839092 0)
(-0.321494 0.320404 0)
(-0.285941 0.0341176 0)
(-0.200501 0.00549024 0)
(-0.138781 -0.01204 0)
(-0.102305 0.0378422 0)
(0.0098684 -0.0249919 0)
(0.10526 -0.111794 0)
(0.107364 -0.0995757 0)
(0.293061 0.249198 0)
(0.518606 0.588628 0)
(0.595341 0.85698 0)
(0.452796 0.958704 0)
(0.23342 0.977912 0)
(0.0801419 0.991437 0)
(-0.0311877 0.909979 0)
(-0.159975 0.653339 0)
(-0.217776 0.281323 0)
(-0.146316 0.101253 0)
(-0.0143505 0.0945802 0)
(0.103646 0.482284 0)
(0.160052 0.818788 0)
(0.202012 0.895534 0)
(0.197257 0.856805 0)
(0.143099 0.813684 0)
(0.0617557 0.805387 0)
(-0.0341092 0.825646 0)
(-0.110514 0.874902 0)
(-0.153437 0.926542 0)
(-0.13869 0.942256 0)
(-0.0969728 0.81008 0)
(-0.231188 0.445514 0)
(-0.296388 0.00328897 0)
(-0.203963 -0.0705326 0)
(-0.135678 -0.0872039 0)
(-0.0960293 -0.073394 0)
(0.0113604 -0.0601204 0)
(0.0955327 -0.160027 0)
(0.0904831 -0.175238 0)
(0.179923 0.060785 0)
(0.32807 0.416293 0)
(0.436165 0.862684 0)
(0.359663 1.08614 0)
(0.218743 1.10326 0)
(0.123285 1.06978 0)
(0.0662251 0.947504 0)
(0.010789 0.680857 0)
(-0.0677716 0.376683 0)
(-0.095464 0.152524 0)
(-0.0728827 0.0916341 0)
(-0.00935838 0.319702 0)
(0.0909043 0.626545 0)
(0.160027 0.768712 0)
(0.164358 0.796393 0)
(0.123381 0.804029 0)
(0.0618912 0.83135 0)
(-0.00585983 0.874851 0)
(-0.0600154 0.92285 0)
(-0.0896068 0.946989 0)
(-0.0822256 0.921408 0)
(-0.054301 0.81618 0)
(-0.133494 0.559288 0)
(-0.235143 0.0110208 0)
(-0.189319 -0.133434 0)
(-0.105371 -0.155997 0)
(-0.073412 -0.158436 0)
(0.046774 -0.0875475 0)
(0.0921175 -0.223377 0)
(0.111277 -0.190339 0)
(0.147381 0.0102599 0)
(0.192901 0.31732 0)
(0.261804 0.850733 0)
(0.229785 1.16642 0)
(0.158352 1.19342 0)
(0.113764 1.13218 0)
(0.0979682 0.986277 0)
(0.0773336 0.7276 0)
(0.012073 0.40346 0)
(-0.0408044 0.110721 0)
(-0.0647521 0.00944384 0)
(-0.025976 0.219777 0)
(0.069075 0.551781 0)
(0.122905 0.745289 0)
(0.130103 0.820804 0)
(0.103088 0.853547 0)
(0.0639852 0.890724 0)
(0.0217783 0.928423 0)
(-0.0122851 0.956933 0)
(-0.0311571 0.957133 0)
(-0.0315878 0.912223 0)
(-0.0215161 0.819738 0)
(-0.0536553 0.625006 0)
(-0.165225 0.109334 0)
(-0.162616 -0.244661 0)
(-0.0880835 -0.225518 0)
(-0.0414975 -0.238642 0)
(0.136703 -0.158732 0)
(0.0433021 -0.297642 0)
(0.0842953 -0.193887 0)
(0.0954199 -0.0237829 0)
(0.10397 0.291727 0)
(0.114717 0.841349 0)
(0.113355 1.1927 0)
(0.0934178 1.22646 0)
(0.0926776 1.1404 0)
(0.117658 0.980123 0)
(0.130027 0.760911 0)
(0.0908061 0.473614 0)
(0.0373124 0.171502 0)
(-0.0145503 0.0474851 0)
(-0.0178261 0.152623 0)
(0.0511908 0.487772 0)
(0.095339 0.718952 0)
(0.104191 0.827783 0)
(0.0888092 0.87808 0)
(0.0671016 0.921021 0)
(0.0435084 0.957408 0)
(0.0240335 0.976384 0)
(0.0127748 0.965465 0)
(0.0101925 0.911885 0)
(0.0121659 0.822348 0)
(0.00918912 0.656204 0)
(-0.0648684 0.210067 0)
(-0.0714228 -0.278013 0)
(-0.072247 -0.279809 0)
(-0.00517681 -0.285319 0)
(0.0246769 -0.271717 0)
(0.0128959 -0.248808 0)
(0.00303244 -0.203943 0)
(0.0188265 -0.0315913 0)
(0.0125328 0.317384 0)
(-0.00457948 0.837137 0)
(0.0160033 1.18242 0)
(0.0421544 1.21718 0)
(0.08005 1.10796 0)
(0.130402 0.942951 0)
(0.165433 0.763087 0)
(0.151115 0.515429 0)
(0.105122 0.222109 0)
(0.0465913 0.0869411 0)
(0.0117684 0.128859 0)
(0.0407818 0.443069 0)
(0.0702533 0.694578 0)
(0.082654 0.829305 0)
(0.0783177 0.891711 0)
(0.0693298 0.93641 0)
(0.0593665 0.972583 0)
(0.0503992 0.987874 0)
(0.0449291 0.971637 0)
(0.0431218 0.913576 0)
(0.0431502 0.821579 0)
(0.0485476 0.660166 0)
(0.0270885 0.256751 0)
(0.0331227 -0.24278 0)
(-0.0100981 -0.340177 0)
(0.0038252 -0.283225 0)
(-0.00701387 -0.226953 0)
(-0.0480894 -0.231877 0)
(-0.0705456 -0.201666 0)
(-0.0714148 -0.0239957 0)
(-0.0922054 0.344134 0)
(-0.100754 0.832875 0)
(-0.052391 1.14176 0)
(0.0199305 1.17913 0)
(0.0847089 1.04937 0)
(0.14382 0.892561 0)
(0.186208 0.745431 0)
(0.192768 0.538791 0)
(0.160059 0.272737 0)
(0.103069 0.14503 0)
(0.0419508 0.148786 0)
(0.0348648 0.427925 0)
(0.0456273 0.676573 0)
(0.0579416 0.822299 0)
(0.0636982 0.893573 0)
(0.06502 0.941275 0)
(0.0666419 0.978897 0)
(0.067679 0.990987 0)
(0.0686192 0.97384 0)
(0.0693953 0.914499 0)
(0.0688728 0.820333 0)
(0.0707692 0.655283 0)
(0.0775602 0.254943 0)
(0.0882186 -0.218628 0)
(0.0471914 -0.302034 0)
(0.0166548 -0.269831 0)
(-0.0159883 -0.19867 0)
(-0.0626796 -0.189133 0)
(-0.095687 -0.179041 0)
(-0.133427 0.00023383 0)
(-0.177266 0.367547 0)
(-0.172472 0.801821 0)
(-0.0906276 1.05916 0)
(0.0187789 1.09693 0)
(0.103983 0.982105 0)
(0.163108 0.842549 0)
(0.199483 0.71759 0)
(0.210201 0.542442 0)
(0.182313 0.30959 0)
(0.128603 0.212356 0)
(0.0562462 0.202282 0)
(0.0277468 0.441028 0)
(0.0235282 0.669911 0)
(0.033242 0.810852 0)
(0.0427452 0.885068 0)
(0.0517992 0.933843 0)
(0.0620379 0.973102 0)
(0.0742064 0.987537 0)
(0.0849004 0.970171 0)
(0.091949 0.913151 0)
(0.0942157 0.819099 0)
(0.098095 0.650669 0)
(0.10497 0.23954 0)
(0.0937502 -0.21121 0)
(0.0454617 -0.257931 0)
(0.0322031 -0.223449 0)
(-0.0306928 -0.147227 0)
(-0.0832096 -0.151753 0)
(-0.132473 -0.13236 0)
(-0.18319 0.0585457 0)
(-0.219322 0.382486 0)
(-0.201712 0.74367 0)
(-0.102177 0.943509 0)
(0.023297 0.982119 0)
(0.118456 0.901189 0)
(0.175303 0.797191 0)
(0.206521 0.694288 0)
(0.216573 0.550009 0)
(0.191283 0.346015 0)
(0.146206 0.267301 0)
(0.0630729 0.253505 0)
(0.0123656 0.460329 0)
(3.90375e-05 0.668982 0)
(0.00751353 0.802937 0)
(0.0192186 0.875468 0)
(0.0320107 0.920905 0)
(0.0485556 0.955391 0)
(0.0689045 0.970177 0)
(0.0903368 0.956908 0)
(0.107253 0.905362 0)
(0.116043 0.814064 0)
(0.12488 0.645758 0)
(0.132367 0.253774 0)
(0.104589 -0.181049 0)
(0.049153 -0.224407 0)
(0.0314626 -0.188097 0)
(-0.0339897 -0.0869666 0)
(-0.0918763 -0.0937804 0)
(-0.148831 -0.0765034 0)
(-0.201531 0.0929397 0)
(-0.234283 0.38138 0)
(-0.210521 0.676628 0)
(-0.0980665 0.827063 0)
(0.0227517 0.868468 0)
(0.119982 0.828196 0)
(0.174505 0.756284 0)
(0.203124 0.677193 0)
(0.209487 0.55714 0)
(0.179419 0.382441 0)
(0.134144 0.32267 0)
(0.0614678 0.361308 0)
(-0.00382475 0.497792 0)
(-0.023333 0.67222 0)
(-0.0183821 0.793014 0)
(-0.0060772 0.862066 0)
(0.00914576 0.906043 0)
(0.0283435 0.935021 0)
(0.0535673 0.94334 0)
(0.082906 0.932335 0)
(0.110724 0.887947 0)
(0.128124 0.804445 0)
(0.137319 0.638 0)
(0.151087 0.27221 0)
(0.107055 -0.14434 0)
(0.0505665 -0.176435 0)
(0.0329546 -0.144389 0)
(-0.0346823 -0.0233194 0)
(-0.0919503 -0.0352286 0)
(-0.152046 -0.0142438 0)
(-0.208387 0.130379 0)
(-0.23888 0.40618 0)
(-0.196279 0.594923 0)
(-0.101475 0.711567 0)
(0.0139875 0.76005 0)
(0.101789 0.757693 0)
(0.155764 0.714378 0)
(0.186976 0.660863 0)
(0.192358 0.568672 0)
(0.150362 0.418833 0)
(0.0970551 0.367855 0)
(0.0386969 0.426882 0)
(-0.0198076 0.538866 0)
(-0.0461047 0.681069 0)
(-0.0442981 0.785472 0)
(-0.032121 0.847842 0)
(-0.0149028 0.888153 0)
(0.00696252 0.912285 0)
(0.0347551 0.915188 0)
(0.0688022 0.899395 0)
(0.106447 0.859631 0)
(0.135422 0.787584 0)
(0.151154 0.630011 0)
(0.168513 0.27934 0)
(0.103643 -0.0962352 0)
(0.0479155 -0.132974 0)
(0.0332048 -0.1026 0)
(-0.0295181 0.0374355 0)
(-0.0835337 0.0241273 0)