/*--------------------------------*- C++ -*----------------------------------*\
| =========                 |                                                 |
| \\      /  F ield         | OpenFOAM: The Open Source CFD Toolbox           |
|  \\    /   O peration     | Version:  v1606+                                |
|   \\  /    A nd           | Web:      www.OpenFOAM.com                      |
|    \\/     M anipulation  |                                                 |
\*---------------------------------------------------------------------------*/
FoamFile
{
    version     2.0;
    format      ascii;
    class       volScalarField;
    location    "0.74";
    object      k.air;
}
// * * * * * * * * * * * * * * * * * * * * * * * * * * * * * * * * * * * * * //

dimensions      [0 2 -2 0 0 0 0];

internalField   nonuniform List<scalar> 
6000
(
0.88401
0.945139
0.964539
0.980639
0.995814
1.00798
1.01528
1.0151
1.01094
1.00674
1.00427
1.00323
1.00463
1.00726
1.00905
1.00945
1.00811
1.00607
1.00542
1.00716
1.00972
1.01383
1.01755
1.01747
1.00973
0.997113
0.981626
0.965403
0.945595
0.884123
0.623272
0.887084
0.986617
1.05198
1.11056
1.16717
1.21065
1.21867
1.19731
1.17649
1.1723
1.18138
1.19352
1.20817
1.21845
1.22094
1.21405
1.20262
1.19402
1.18631
1.19319
1.21476
1.23404
1.22312
1.17668
1.11746
1.05746
0.991849
0.891047
0.624967
0.470734
0.811129
0.979843
1.0855
1.17184
1.24395
1.29191
1.30592
1.30201
1.30754
1.32329
1.33868
1.34992
1.35912
1.36579
1.36877
1.36847
1.36592
1.36091
1.35042
1.33929
1.3362
1.34011
1.32339
1.27025
1.19233
1.10067
0.990473
0.81926
0.473955
0.372266
0.70915
0.952978
1.11263
1.24414
1.35525
1.43944
1.49197
1.50629
1.50962
1.54043
1.5769
1.60487
1.62485
1.63951
1.6437
1.63775
1.62778
1.60932
1.58271
1.56075
1.56439
1.55103
1.49208
1.39904
1.27798
1.1377
0.971761
0.723257
0.377471
0.283402
0.61784
0.911143
1.11281
1.26925
1.41043
1.53166
1.63562
1.72389
1.76161
1.81689
1.88711
1.9363
1.97826
2.00326
2.00898
1.99323
1.96277
1.92969
1.87516
1.83806
1.81223
1.71861
1.60487
1.47116
1.31699
1.14948
0.94055
0.639133
0.290692
0.252805
0.612605
0.912546
1.13967
1.31629
1.46368
1.602
1.73837
1.89177
2.02795
2.13958
2.26297
2.34494
2.37937
2.39766
2.40449
2.40044
2.37447
2.30308
2.20802
2.13176
2.00805
1.84589
1.69762
1.54475
1.38318
1.19384
0.954958
0.64193
0.263226
0.271018
0.674478
0.970921
1.21943
1.43162
1.59048
1.72534
1.87366
2.05807
2.30336
2.55403
2.74009
2.77606
2.78861
2.81282
2.81652
2.80464
2.81104
2.77413
2.62338
2.42837
2.19811
2.00999
1.8513
1.70286
1.52822
1.30064
1.03573
0.71856
0.285458
0.324972
0.778175
1.07687
1.33442
1.57798
1.78693
1.93135
2.08131
2.29443
2.6324
3.04304
3.25233
3.20293
3.2052
3.22695
3.2359
3.22517
3.24301
3.31186
3.13719
2.78417
2.4585
2.25014
2.09845
1.94095
1.71327
1.45034
1.17118
0.845491
0.349884
0.385088
0.888309
1.20532
1.47814
1.74164
1.9964
2.20108
2.37741
2.60749
2.99528
3.48753
3.68012
3.63411
3.62706
3.61764
3.63968
3.66328
3.69043
3.77857
3.6366
3.19253
2.80411
2.58845
2.42495
2.20468
1.92745
1.63958
1.33845
0.98542
0.424048
0.442063
1.00642
1.35157
1.64781
1.9362
2.22624
2.49272
2.73759
2.98627
3.37682
3.88246
4.08034
4.08797
4.06223
4.01535
4.04235
4.12106
4.16337
4.20466
4.08583
3.62278
3.22302
3.00923
2.78655
2.49989
2.18448
1.86567
1.53264
1.14026
0.497706
0.502637
1.13137
1.50907
1.83451
2.15482
2.48117
2.79307
3.10741
3.41398
3.78778
4.24533
4.47717
4.5631
4.50061
4.43396
4.46703
4.59189
4.69239
4.65922
4.49294
4.07241
3.70167
3.46482
3.1691
2.83308
2.47825
2.12028
1.74753
1.30922
0.57838
0.575967
1.26281
1.67138
2.02713
2.38149
2.74173
3.09054
3.46026
3.85624
4.21864
4.56232
4.83543
5.00053
4.9176
4.86111
4.90695
5.05974
5.23856
5.13146
4.87905
4.53584
4.22775
3.92955
3.56751
3.19116
2.79634
2.39415
1.97796
1.49175
0.67578
0.612728
1.39031
1.82396
2.21279
2.60397
2.99713
3.38015
3.79905
4.27892
4.63607
4.8501
5.12847
5.3586
5.32576
5.30249
5.35537
5.51325
5.73711
5.60173
5.26142
4.99078
4.77403
4.40769
3.98485
3.56812
3.12967
2.67562
2.20994
1.67559
0.732563
0.669096
1.46203
1.93722
2.37588
2.81623
3.25098
3.67276
4.13639
4.66039
5.02522
5.17556
5.40936
5.67628
5.77877
5.78054
5.81791
5.9656
6.18182
6.04306
5.65195
5.43282
5.29364
4.9182
4.44587
3.97472
3.47253
2.94537
2.40476
1.81605
0.821854
0.694215
1.51276
2.01616
2.49812
3.01357
3.51485
3.99058
4.48132
4.98461
5.40202
5.6115
5.7739
6.04636
6.28188
6.29774
6.29497
6.4635
6.66313
6.4882
6.10479
5.9125
5.77077
5.46972
4.98824
4.43398
3.82349
3.18123
2.56456
1.91207
0.867118
0.672263
1.5174
2.0817
2.60535
3.20082
3.80513
4.3357
4.80057
5.23338
5.70806
6.00742
6.13446
6.3573
6.58664
6.65532
6.76732
7.06769
7.29297
7.03928
6.66807
6.4641
6.25906
6.06406
5.63009
4.95586
4.17657
3.40271
2.70478
1.9596
0.859798
0.664861
1.54203
2.1643
2.73822
3.37975
4.0414
4.60387
5.02372
5.37176
5.80338
6.09461
6.24166
6.40813
6.5738
6.72844
7.05462
7.55817
7.87919
7.62827
7.2246
6.98047
6.74933
6.62634
6.23153
5.44611
4.51084
3.63269
2.86009
2.04244
0.876516
0.688048
1.61823
2.29023
2.8936
3.51015
4.11122
4.62787
5.01945
5.35339
5.70075
5.95896
6.11796
6.28064
6.46767
6.69201
7.10394
7.71918
8.14709
8.01171
7.59764
7.32539
7.07838
6.86591
6.45318
5.69906
4.76967
3.87944
3.06041
2.18045
0.930483
0.747813
1.72751
2.41367
3.01221
3.57446
4.0923
4.55594
4.93459
5.23719
5.52533
5.75608
5.92812
6.10429
6.32051
6.5974
7.04676
7.66191
8.11671
8.11228
7.824
7.55781
7.23751
6.88482
6.44813
5.75757
4.92292
4.07677
3.25234
2.33942
1.00833
0.818821
1.83274
2.50065
3.07161
3.58433
4.04971
4.49153
4.86307
5.12553
5.357
5.5713
5.75712
5.94714
6.18118
6.49197
6.95925
7.55432
8.00086
8.05359
7.888
7.62739
7.23563
6.85564
6.40303
5.75262
4.99534
4.19905
3.39682
2.48188
1.08627
0.8691
1.90506
2.54551
3.07849
3.55316
3.98175
4.39522
4.7787
5.06333
5.27086
5.45885
5.64184
5.84139
6.08814
6.42092
6.90347
7.50021
7.93868
7.96683
7.81387
7.55487
7.19005
6.81717
6.34347
5.71239
5.005
4.25918
3.48736
2.58893
1.15251
0.879428
1.92669
2.5406
3.03957
3.48798
3.89914
4.28435
4.65722
4.98773
5.24065
5.43293
5.61061
5.80822
6.05543
6.39918
6.89565
7.49276
7.90433
7.86067
7.67247
7.44251
7.15294
6.79248
6.29072
5.66419
4.98378
4.27836
3.54045
2.66632
1.19514
0.874533
1.92634
2.51651
2.9863
3.40849
3.80167
4.17441
4.53106
4.87485
5.1885
5.43907
5.63508
5.8276
6.06663
6.41152
6.91431
7.48798
7.81855
7.70546
7.50973
7.33533
7.11693
6.76346
6.24394
5.61805
4.95411
4.27766
3.56943
2.71776
1.22487
0.869766
1.91245
2.48629
2.93736
3.34016
3.71501
4.07082
4.41616
4.75683
5.0956
5.4186
5.67394
5.87905
6.10856
6.4399
6.92221
7.44091
7.65054
7.51369
7.34889
7.22819
7.05323
6.72161
6.20101
5.57505
4.92448
4.26894
3.58118
2.74453
1.25404
0.86599
1.9006
2.46395
2.90324
3.29255
3.6522
3.99049
4.31953
4.64928
4.98824
5.33641
5.66168
5.92122
6.15078
6.45799
6.89271
7.3135
7.43382
7.31812
7.19407
7.10211
6.95759
6.66099
6.15231
5.5333
4.89551
4.25592
3.58267
2.75526
1.25963
0.868644
1.89304
2.45283
2.88813
3.27352
3.62364
3.94022
4.24577
4.55805
4.88481
5.22934
5.57954
5.89878
6.15566
6.4476
6.81987
7.14162
7.22891
7.1505
7.04541
6.95183
6.8335
6.5914
6.10781
5.49312
4.86045
4.23156
3.56821
2.74633
1.24627
0.869165
1.89388
2.45316
2.88657
3.27154
3.62237
3.92186
4.19898
4.48467
4.79268
5.12366
5.47082
5.81118
6.11426
6.41248
6.73344
6.99505
7.08021
7.02401
6.90363
6.78911
6.69717
6.5213
6.07177
5.44666
4.81386
4.19455
3.53887
2.72232
1.22697
0.86932
1.89593
2.45255
2.88303
3.26851
3.61744
3.91573
4.16907
4.42804
4.71138
5.0237
5.35785
5.69968
6.03541
6.36149
6.65842
6.89819
6.99575
6.9307
6.76927
6.62385
6.54877
6.43685
6.0287
5.40313
4.77092
4.15826
3.50979
2.69979
1.21692
0.875657
1.90625
2.46265
2.8904
3.2686
3.60083
3.89479
4.14024
4.37599
4.63767
4.92855
5.24739
5.585
5.93702
6.29079
6.58864
6.84044
6.94893
6.84982
6.63923
6.46024
6.37622
6.31142
5.96888
5.37681
4.74831
4.13784
3.49313
2.68885
1.21729
0.898602
1.9359
2.49712
2.92819
3.29058
3.58984
3.85829
4.09604
4.32265
4.56527
4.8374
5.14004
5.46939
5.82682
6.19608
6.50429
6.77587
6.88453
6.75213
6.50345
6.29529
6.18016
6.12548
5.90026
5.36054
4.75229
4.1481
3.50055
2.69236
1.22125
0.921109
1.97769
2.54312
2.96894
3.29777
3.5687
3.81933
4.04477
4.26589
4.49523
4.75164
5.03893
5.35844
5.70824
6.07195
6.39519
6.68137
6.77745
6.61675
6.35183
6.12899
5.98232
5.8967
5.7735
5.3565
4.79262
4.19861
3.54355
2.72045
1.22703
0.93227
2.00601
2.5726
2.9843
3.28347
3.53456
3.77137
3.9914
4.20849
4.42877
4.67341
4.94913
5.25952
5.59788
5.93518
6.23724
6.50065
6.60915
6.47331
6.20693
5.98047
5.81717
5.69139
5.57026
5.32041
4.85669
4.28547
3.62193
2.77355
1.2506
0.93861
2.02236
2.57346
2.96273
3.24317
3.48795
3.7234
3.9461
4.15588
4.36781
4.60203
4.86994
5.17563
5.50811
5.81958
6.06358
6.26187
6.37559
6.32675
6.09525
5.87864
5.71547
5.56311
5.40193
5.20516
4.90583
4.4009
3.73511
2.8555
1.28617
0.940373
2.039
2.57142
2.93241
3.20787
3.46328
3.70776
3.92591
4.11562
4.30837
4.52995
4.79344
5.10308
5.44429
5.75414
5.9703
6.13805
6.25477
6.25696
6.0584
5.84282
5.67305
5.50051
5.31026
5.0952
4.83142
4.44241
3.84188
2.96656
1.33158
0.973205
2.09603
2.60682
2.95577
3.23798
3.49088
3.73534
3.94699
4.08662
4.24048
4.44481
4.70754
5.03117
5.40568
5.76937
6.02252
6.19559
6.33257
6.35894
6.15088
5.90862
5.70639
5.50327
5.28336
5.03689
4.72955
4.35551
3.85165
3.0462
1.4032
1.10771
2.22583
2.71635
3.05316
3.33936
3.58474
3.7956
3.95209
4.03459
4.14816
4.33105
4.59522
4.94099
5.37137
5.83734
6.20967
6.49204
6.7052
6.79324
6.51038
6.16594
5.87707
5.60306
5.32837
5.03297
4.68566
4.27647
3.78052
3.06925
1.48862
1.14781
2.28355
2.78563
3.1173
3.38397
3.59991
3.77143
3.89804
3.95524
4.00357
4.16704
4.42989
4.79265
5.26874
5.84565
6.3936
6.81601
7.19729
7.44267
7.16165
6.64646
6.20192
5.81602
5.45288
5.08855
4.70366
4.2785
3.77436
3.08613
1.54747
1.12316
2.25207
2.7455
3.05603
3.28563
3.47083
3.62117
3.71705
3.76512
3.81914
3.9403
4.19321
4.55519
5.03557
5.64961
6.34719
6.94331
7.38393
7.65095
7.47491
7.00506
6.50568
6.0496
5.62067
5.2032
4.78706
4.35293
3.85362
3.14353
1.56926
1.11173
2.21225
2.66881
2.93609
3.12273
3.27342
3.39868
3.48557
3.53451
3.59767
3.708
3.89429
4.22831
4.68224
5.25638
5.94433
6.63038
7.14666
7.43276
7.31837
6.94726
6.50603
6.07352
5.65316
5.24028
4.83364
4.41027
3.90591
3.14796
1.54117
1.09015
2.13846
2.56197
2.80068
2.96036
3.0815
3.17777
3.24977
3.30171
3.36051
3.46108
3.61889
3.86424
4.25698
4.75815
5.35424
5.97925
6.4822
6.84482
6.89839
6.67401
6.27784
5.85172
5.45637
5.09239
4.74409
4.37479
3.90839
3.17383
1.56009
1.04845
2.03518
2.43614
2.66196
2.80702
2.90578
2.97701
3.03105
3.07584
3.1271
3.2082
3.33843
3.52791
3.81304
4.22997
4.72153
5.2493
5.695
6.08533
6.2732
6.18563
5.88528
5.51066
5.16334
4.8564
4.57023
4.26394
3.85492
3.16698
1.58355
0.999747
1.92462
2.30995
2.53078
2.66694
2.74922
2.80097
2.83728
2.86817
2.90545
2.96451
3.05928
3.19701
3.3977
3.72393
4.11972
4.55755
4.93791
5.30825
5.55067
5.56791
5.38288
5.09815
4.8178
4.5654
4.32463
4.05894
3.70008
3.08
1.56725
0.949817
1.81695
2.19063
2.40881
2.53892
2.61026
2.64823
2.66894
2.68302
2.70166
2.73724
2.79919
2.89267
3.02935
3.27215
3.58527
3.9402
4.26138
4.58062
4.82115
4.91003
4.83209
4.65095
4.44401
4.24339
4.04037
3.80539
3.47927
2.90867
1.51128
0.901123
1.71609
2.08001
2.29522
2.42076
2.4856
2.51464
2.52276
2.52021
2.51834
2.52996
2.56363
2.62405
2.71346
2.87859
3.12344
3.3951
3.68307
3.94296
4.15955
4.29125
4.30282
4.21832
4.08079
3.92599
3.75438
3.5427
3.24024
2.71049
1.42281
0.85353
1.62212
1.97707
2.1884
2.31021
2.3718
2.39572
2.39477
2.37736
2.35533
2.34389
2.35345
2.38932
2.44831
2.5504
2.73974
2.94181
3.19189
3.40703
3.60337
3.75951
3.84046
3.83251
3.75599
3.63769
3.48912
3.29386
3.0081
2.51135
1.33139
0.807018
1.53455
1.88068
2.08717
2.20594
2.2664
2.28798
2.28082
2.2514
2.21113
2.17821
2.16716
2.18314
2.22093
2.28047
2.41809
2.59177
2.79392
2.97721
3.15758
3.32732
3.45715
3.50997
3.48047
3.3904
3.25608
3.07057
2.79622
2.32585
1.24413
0.763648
1.45372
1.78991
1.99062
2.10711
2.16781
2.18876
2.17778
2.13922
2.08385
2.03203
2.00306
2.00225
2.02385
2.06117
2.15829
2.31584
2.47821
2.63715
2.80537
2.98372
3.14782
3.24782
3.25608
3.1865
3.05901
2.87695
2.60956
2.16089
1.16462
0.723981
1.37913
1.70392
1.89818
2.01332
2.0752
2.09664
2.0834
2.0381
1.97075
1.90363
1.85908
1.84445
1.85319
1.87951
1.95441
2.08617
2.22127
2.36287
2.52375
2.70906
2.89808
3.03571
3.07698
3.02258
2.89703
2.71293
2.4485
2.01773
1.09391
0.6877
1.30966
1.62196
1.80982
1.92451
1.98816
2.01061
1.9957
1.94514
1.86885
1.79001
1.73274
1.70679
1.70513
1.72203
1.78186
1.88932
2.00658
2.13591
2.2929
2.484
2.69153
2.86024
2.93261
2.89294
2.76692
2.57668
2.31131
1.89466
1.03158
0.65401
1.24403
1.54332
1.72571
1.84078
1.9064
1.9296
1.91265
1.85746
1.77467
1.68759
1.62081
1.58547
1.57525
1.58337
1.62947
1.72022
1.82462
1.94473
2.0986
2.29302
2.51366
2.70873
2.8117
2.79013
2.66435
2.46573
2.19599
1.78988
0.976717
0.62212
1.17872
1.46803
1.64695
1.76256
1.82949
1.85212
1.83201
1.77231
1.68507
1.59312
1.52011
1.47767
1.46024
1.46086
1.49641
1.57331
1.66733
1.7803
1.93048
2.125
2.35359
2.57019
2.70362
2.70578
2.58403
2.37713
2.1007
1.70146
0.929084
0.590429
1.1145
1.39716
1.57416
1.68995
1.75664
1.77665
1.75177
1.68748
1.5978
1.50424
1.42823
1.38111
1.35799
1.35332
1.37977
1.44504
1.52967
1.63617
1.78107
1.97232
2.20376
2.43631
2.59951
2.63108
2.51995
2.30743
2.02336
1.6276
0.887716
0.559292
1.05506
1.33229
1.50722
1.62236
1.68676
1.70186
1.67083
1.60218
1.51193
1.41971
1.34355
1.29422
1.26689
1.25787
1.27699
1.33174
1.40815
1.50754
1.64519
1.82993
2.0594
2.30179
2.49207
2.55704
2.46547
2.25263
1.96143
1.56703
0.852152
0.530658
1.00297
1.27356
1.44595
1.5589
1.61868
1.62677
1.58846
1.51612
1.42731
1.33901
1.26523
1.21578
1.18541
1.17284
1.18645
1.23217
1.29981
1.39125
1.51954
1.69489
1.918
2.16404
2.37654
2.47576
2.41281
2.20737
1.91219
1.51888
0.822724
0.504903
0.959225
1.2205
1.38945
1.49849
1.55146
1.55042
1.50417
1.42903
1.34334
1.2609
1.19193
1.14341
1.11168
1.09773
1.10684
1.14415
1.203
1.28466
1.40196
1.56561
1.77864
2.02283
2.25056
2.38162
2.35445
2.16639
1.8721
1.47995
0.798871
0.484706
0.92251
1.17327
1.33699
1.44002
1.48388
1.47197
1.4181
1.34139
1.26009
1.18483
1.12244
1.07646
1.04579
1.03145
1.03663
1.06557
1.11441
1.1859
1.29199
1.4418
1.6416
1.87911
2.11475
2.27322
2.28545
2.12383
1.83674
1.44671
0.779563
0.469656
0.891632
1.1308
1.28759
1.3822
1.41449
1.39139
1.33089
1.25426
1.17858
1.11157
1.05724
1.01574
0.987358
0.973216
0.975039
0.996046
1.03449
1.09502
1.18846
1.32329
1.50784
1.73463
1.97147
2.15246
2.20239
2.07574
1.8033
1.41674
0.762835
0.459059
0.86544
1.09177
1.23998
1.32347
1.34235
1.3088
1.24332
1.16856
1.09969
1.04187
0.996772
0.960338
0.935326
0.922444
0.921726
0.934829
0.962589
1.01124
1.09105
1.21154
1.37905
1.59173
1.8243
2.02202
2.10534
2.01912
1.76913
1.38829
0.747241
0.450903
0.841845
1.05529
1.19285
1.26242
1.26729
1.22464
1.15603
1.08452
1.02327
0.975162
0.939088
0.90914
0.889193
0.878307
0.875399
0.881417
0.898768
0.935233
1.00133
1.10642
1.25597
1.45273
1.67675
1.88468
1.99591
1.9532
1.73321
1.36056
0.731795
0.44338
0.819708
1.02105
1.14515
1.19903
1.19025
1.13965
1.06961
1.00245
0.94932
0.911125
0.883922
0.862681
0.848982
0.840757
0.835842
0.834933
0.842306
0.86683
0.918888
1.00796
1.14047
1.31936
1.53125
1.74231
1.87532
1.87506
1.69264
1.33357
0.716036
0.436909
0.799958
0.988294
1.0959
1.13307
1.11196
1.05453
0.984727
0.922956
0.878455
0.850514
0.83301
0.821102
0.814202
0.8088
0.801842
0.794695
0.793006
0.805848
0.843826
0.917342
1.03305
1.1926
1.38914
1.59685
1.74818
1.78234
1.6422
1.30619
0.700396
0.429773
0.781769
0.955661
1.04492
1.06462
1.03257
0.969823
0.901834
0.846405
0.810987
0.793537
0.785918
0.783631
0.783915
0.781233
0.772569
0.759646
0.749694
0.751331
0.775321
0.833301
0.933172
1.07299
1.25219
1.45152
1.61428
1.67275
1.57499
1.2733
0.684368
0.42345
0.765699
0.922146
0.990829
0.993163
0.951728
0.885815
0.821017
0.77288
0.747036
0.7403
0.741904
0.749532
0.757127
0.756669
0.746298
0.728502
0.710709
0.702297
0.712358
0.754378
0.836795
0.958566
1.12054
1.30764
1.47377
1.54519
1.4816
1.21995
0.665314
0.415988
0.750288
0.885879
0.932603
0.919421
0.869164
0.802248
0.742159
0.70238
0.686324
0.68856
0.70045
0.71834
0.732053
0.733036
0.720838
0.699093
0.675082
0.657187
0.654178
0.679053
0.743445
0.849871
0.99403
1.166
1.32922
1.4048
1.36128
1.13335
0.638571
0.409247
0.733704
0.845039
0.869347
0.843153
0.785145
0.719059
0.665202
0.6348
0.628753
0.638387
0.661568
0.688399
0.706181
0.707787
0.693849
0.669766
0.641721
0.615571
0.601308
0.609543
0.656258
0.745218
0.871741
1.02972
1.18659
1.26101
1.2232
1.01064
0.599594
0.397709
0.713155
0.796264
0.799702
0.763422
0.700132
0.636601
0.590712
0.57075
0.573097
0.592067
0.624897
0.657485
0.677146
0.678688
0.664204
0.639777
0.609933
0.578593
0.553578
0.54724
0.574508
0.645613
0.757343
0.90222
1.05186
1.12443
1.08211
0.865743
0.547183
0.383938
0.675975
0.736546
0.725114
0.679417
0.614031
0.555482
0.519465
0.509914
0.520416
0.54983
0.589445
0.624363
0.643853
0.645107
0.631683
0.608791
0.579378
0.545634
0.512053
0.493465
0.501566
0.554289
0.65021
0.780612
0.925474
0.998005
0.951102
0.727503
0.485928
0.364959
0.619775
0.666593
0.645898
0.592073
0.527609
0.476732
0.452219
0.453075
0.473366
0.511846
0.554368
0.588376
0.606254
0.607637
0.596349
0.576307
0.549078
0.515344
0.477619
0.446987
0.439253
0.470749
0.550017
0.665821
0.804562
0.877842
0.833213
0.609706
0.422911
0.339642
0.55029
0.589222
0.561992
0.502817
0.442183
0.402775
0.391247
0.40239
0.433847
0.476996
0.518714
0.549545
0.565446
0.567511
0.558883
0.542084
0.517894
0.486149
0.447903
0.408571
0.388115
0.397683
0.457445
0.558404
0.685135
0.765247
0.732957
0.516329
0.363616
0.31082
0.478296
0.5056
0.474432
0.412648
0.361572
0.336413
0.338349
0.36035
0.400088
0.443768
0.482056
0.509196
0.523698
0.526825
0.52063
0.50663
0.485303
0.456335
0.419833
0.378147
0.345289
0.337814
0.373075
0.458111
0.571789
0.655985
0.647944
0.448319
0.313339
0.280074
0.40668
0.41791
0.382711
0.326949
0.289205
0.280329
0.292968
0.325718
0.368183
0.409739
0.444296
0.46881
0.482763
0.48697
0.482619
0.470626
0.451367
0.424727
0.390644
0.3502
0.309646
0.289862
0.300533
0.362541
0.462087
0.55211
0.57613
0.396618
0.272517
0.249371
0.33904
0.330542
0.293504
0.249289
0.228263
0.231845
0.253935
0.293284
0.336216
0.375666
0.407841
0.431039
0.444962
0.450061
0.447023
0.436413
0.418515
0.393354
0.360951
0.321909
0.279349
0.248611
0.243375
0.27977
0.363034
0.462022
0.508672
0.35657
0.24251
0.219206
0.267519
0.252554
0.215672
0.184681
0.17839
0.189123
0.220362
0.263931
0.307381
0.345733
0.376589
0.398999
0.41286
0.418501
0.416367
0.406811
0.389999
0.365929
0.334593
0.296379
0.253184
0.214059
0.199058
0.21579
0.278579
0.375407
0.433858
0.325282
0.221278
0.187975
0.203047
0.187185
0.152632
0.13537
0.137165
0.154311
0.193219
0.239402
0.283076
0.320579
0.350371
0.372005
0.385608
0.39151
0.390044
0.381409
0.365632
0.342608
0.312231
0.274665
0.231079
0.186488
0.164376
0.167409
0.211676
0.289871
0.349411
0.292985
0.205329
0.159949
0.153764
0.130048
0.106554
0.0998487
0.105382
0.126924
0.170823
0.218591
0.262394
0.299212
0.328074
0.348966
0.362219
0.368212
0.36724
0.359392
0.344591
0.322595
0.29309
0.255982
0.211965
0.164405
0.135388
0.131019
0.158891
0.215793
0.26817
0.266391
0.190404
0.133642
0.11483
0.0909913
0.0767526
0.0755924
0.0818363
0.104597
0.151533
0.201019
0.245167
0.281404
0.309327
0.329391
0.342186
0.348194
0.347695
0.34065
0.326806
0.305716
0.276872
0.239936
0.195278
0.145374
0.111241
0.102995
0.117357
0.154595
0.204164
0.228404
0.173747
0.109759
0.0891435
0.0695216
0.0590381
0.0590344
0.064445
0.0865384
0.135388
0.186902
0.231271
0.266688
0.293441
0.312492
0.324748
0.330789
0.330827
0.324681
0.311902
0.291845
0.263733
0.226833
0.181028
0.12854
0.0910857
0.0811329
0.0873075
0.112434
0.148701
0.17595
0.156618
0.0923798
0.0746241
0.0574386
0.048041
0.047608
0.051997
0.0727731
0.122978
0.17575
0.21915
0.253186
0.278732
0.296795
0.308675
0.315043
0.315846
0.310824
0.299346
0.280611
0.253597
0.217021
0.170001
0.114427
0.0748247
0.0644178
0.0666903
0.0835862
0.106207
0.130725
0.135956
0.0808541
0.0639299
0.0484964
0.0397883
0.0391081
0.0427806
0.0628549
0.113033
0.163526
0.204932
0.237846
0.262973
0.280754
0.292815
0.299839
0.301404
0.297385
0.287189
0.269872
0.244245
0.208959
0.162538
0.104689
0.0626065
0.0519753
0.052718
0.0659895
0.0821841
0.104352
0.116212
0.0707962
0.0532488
0.0398629
0.0327185
0.032539
0.0362958
0.0566322
0.104553
0.150722
0.190052
0.22217
0.247358
0.265434
0.277883
0.285458
0.287519
0.284093
0.275069
0.259172
0.234982
0.201336
0.157221
0.101355
0.0548241
0.0424061
0.0424031
0.0535013
0.0684884
0.0895746
0.101575
0.0599131
0.043163
0.0323081
0.0273492
0.027648
0.0318229
0.0537808
0.0984112
0.140361
0.177347
0.208345
0.233352
0.251762
0.264136
0.271655
0.274123
0.271292
0.263264
0.248903
0.226875
0.195672
0.154499
0.102355
0.0523027
0.0349681
0.0340688
0.0425287
0.0565547
0.0769757
0.0901814
0.0487592
0.0353724
0.0261687
0.0221918
0.0225819
0.0287669
0.0538527
0.094975
0.133585
0.168007
0.197326
0.221265
0.239176
0.250771
0.257843
0.260839
0.259137
0.252206
0.239449
0.219957
0.192377
0.155228
0.106465
0.0540582
0.0311311
0.0274885
0.0323169
0.0450241
0.0634725
0.0792902
0.0389781
0.0283438
0.0194632
0.0169446
0.0185217
0.0289019
0.0562
0.0953649
0.131543
0.162941
0.189529
0.210949
0.226904
0.237558
0.244378
0.247963
0.2478
0.242902
0.232494
0.215802
0.192371
0.15913
0.11547
0.0624788
0.0320501
0.0241905
0.0243936
0.0333875
0.0508965
0.0679101
0.0308388
0.0204397
0.0145745
0.0145583
0.0183914
0.0319164
0.0627052
0.0984133
0.132355
0.160608
0.183611
0.202073
0.215766
0.225306
0.232029
0.236098
0.237342
0.23499
0.227801
0.21479
0.195149
0.167888
0.131341
0.0834692
0.0409777
0.025051
0.0218901
0.0241498
0.0384517
0.0559717
0.024577
0.0155837
0.0137222
0.014974
0.0211908
0.0404856
0.0706369
0.102991
0.133908
0.158288
0.177796
0.193742
0.205847
0.214502
0.221037
0.225449
0.227871
0.227546
0.22345
0.214683
0.200607
0.179558
0.150982
0.114527
0.068646
0.0357
0.0238927
0.0219065
0.0275873
0.043393
0.0214799
0.0153315
0.0155616
0.0195492
0.0305532
0.0521015
0.078606
0.107965
0.135724
0.156014
0.172217
0.185812
0.196596
0.204748
0.211113
0.215837
0.21911
0.220327
0.21852
0.213366
0.204138
0.189484
0.168109
0.145358
0.109505
0.068651
0.0386346
0.0257075
0.024286
0.0324883
0.0213279
0.0189208
0.0247747
0.0334118
0.0461891
0.0650926
0.0878867
0.113167
0.136495
0.153279
0.166786
0.178358
0.187934
0.195668
0.201915
0.206842
0.210585
0.212983
0.212941
0.210299
0.204519
0.195042
0.18003
0.166784
0.146737
0.107775
0.0745088
0.0454994
0.0284477
0.0282464
0.0236514
0.0319459
0.0418592
0.0512374
0.0634983
0.080079
0.0994284
0.118865
0.136503
0.150058
0.161109
0.171194
0.179816
0.187077
0.193111
0.19802
0.201967
0.20509
0.206954
0.206573
0.203482
0.197116
0.18732
0.178363
0.171861
0.143936
0.110055
0.0800628
0.0481504
0.0297389
0.0316779
0.0493532
0.0594277
0.0697193
0.082072
0.0972919
0.113791
0.12839
0.139013
0.148569
0.156878
0.165126
0.172561
0.1791
0.184677
0.189371
0.193329
0.196851
0.200205
0.202188
0.201045
0.196983
0.190946
0.184034
0.186969
0.177332
0.143992
0.112374
0.0781897
0.0385809
0.0417713
0.0637061
0.0762895
0.0878074
0.100262
0.114236
0.127505
0.13787
0.143829
0.148816
0.154894
0.161155
0.166934
0.17237
0.177248
0.181547
0.18536
0.188956
0.192778
0.196563
0.197214
0.195487
0.192887
0.189696
0.194904
0.197721
0.175235
0.143895
0.10675
0.0526707
0.0471311
0.0751697
0.0904691
0.102216
0.113686
0.125773
0.135686
0.14224
0.146091
0.149121
0.153561
0.158858
0.163789
0.167974
0.171803
0.175575
0.179158
0.182687
0.186465
0.190787
0.193612
0.195522
0.197907
0.201139
0.203696
0.20626
0.204639
0.176941
0.136121
0.0662069
0.0496919
0.0808106
0.0985372
0.11072
0.121805
0.131248
0.137744
0.142188
0.145848
0.148844
0.152317
0.156909
0.161972
0.166186
0.169425
0.172633
0.176101
0.179907
0.184365
0.190269
0.194396
0.199714
0.212145
0.225828
0.223356
0.217598
0.224141
0.210702
0.170376
0.0836086
0.0512142
0.0804898
0.0989879
0.113301
0.124994
0.132804
0.13696
0.140535
0.144414
0.147832
0.15112
0.155151
0.159742
0.164509
0.16875
0.172537
0.176492
0.181013
0.186657
0.193611
0.198783
0.207478
0.22639
0.246009
0.244455
0.232646
0.231123
0.230405
0.207884
0.105265
0.0507233
0.0776948
0.0966504
0.112292
0.125303
0.132955
0.135855
0.139125
0.143034
0.146544
0.149838
0.153608
0.157824
0.162331
0.167185
0.172199
0.177517
0.183348
0.1899
0.19648
0.203225
0.211999
0.228001
0.245925
0.248441
0.240746
0.235679
0.233499
0.21888
0.1213
0.0470883
0.0688358
0.0915083
0.110643
0.125312
0.132758
0.135638
0.139031
0.142468
0.145493
0.148478
0.151863
0.155744
0.160058
0.164814
0.170141
0.176009
0.182333
0.189326
0.196615
0.204711
0.212965
0.225412
0.238551
0.243283
0.239355
0.236434
0.233555
0.214502
0.12517
0.0410499
0.0632429
0.0906043
0.111343
0.125798
0.132654
0.136371
0.139738
0.142541
0.145022
0.147584
0.150401
0.153604
0.157418
0.161851
0.166738
0.172169
0.178492
0.18589
0.194211
0.203192
0.212179
0.221785
0.230059
0.23403
0.235025
0.233737
0.228496
0.204845
0.122207
0.0399837
0.0650293
0.0929353
0.113908
0.127023
0.134044
0.138642
0.1411
0.143146
0.145355
0.147694
0.150165
0.15276
0.155766
0.159417
0.163623
0.168384
0.174092
0.181062
0.189475
0.199323
0.209912
0.219596
0.22574
0.228421
0.229028
0.225423
0.216164
0.190554
0.115032
0.0419661
0.0733107
0.0995725
0.118187
0.130027
0.137999
0.140911
0.142631
0.144611
0.146643
0.148736
0.150946
0.153276
0.155862
0.158835
0.162225
0.166196
0.171102
0.177451
0.18567
0.195803
0.207217
0.217509
0.221878
0.221492
0.219319
0.213526
0.201735
0.174232
0.104692
0.0487426
0.08552
0.108838
0.124983
0.135857
0.140864
0.142509
0.14454
0.146727
0.148754
0.150703
0.152672
0.154674
0.156811
0.15929
0.162226
0.16563
0.169813
0.175242
0.182452
0.191726
0.202555
0.212111
0.214447
0.210763
0.207029
0.200493
0.186994
0.158066
0.0950739
0.054079
0.0926006
0.115432
0.13079
0.138575
0.141413
0.143916
0.146579
0.148973
0.150984
0.15279
0.154518
0.156235
0.158066
0.160155
0.162616
0.1656
0.169231
0.173809
0.179654
0.186938
0.195068
0.201341
0.201927
0.197262
0.192711
0.185591
0.17144
0.142839
0.0877199
0.0557292
0.093877
0.115865
0.130344
0.137165
0.141232
0.145087
0.148463
0.151054
0.153046
0.154693
0.156169
0.157597
0.159129
0.160888
0.162986
0.165523
0.168608
0.172372
0.176825
0.181896
0.186778
0.189448
0.187725
0.181787
0.175378
0.167679
0.153977
0.12694
0.0800412
0.0558498
0.0914673
0.112004
0.125052
0.133729
0.140513
0.145927
0.149921
0.152669
0.1546
0.156075
0.157313
0.158497
0.159778
0.16127
0.163051
0.165227
0.167719
0.170626
0.173712
0.17677
0.178798
0.178611
0.174725
0.167005
0.157515
0.146829
0.13196
0.105256
0.0698985
0.0538386
0.0832819
0.101912
0.11761
0.130155
0.139609
0.146197
0.150549
0.153367
0.155269
0.156669
0.157793
0.158856
0.159993
0.161313
0.162886
0.164655
0.166603
0.168612
0.170488
0.171747
0.171596
0.16905
0.163263
0.153876
0.141553
0.126365
0.106565
0.0782951
0.0586867
0.0471078
0.066407
0.091839
0.11239
0.127891
0.13878
0.145813
0.15031
0.153256
0.155235
0.156669
0.157812
0.158877
0.159983
0.161218
0.162582
0.164037
0.165503
0.166699
0.167521
0.167395
0.165486
0.161106
0.153778
0.143049
0.128788
0.110194
0.0849656
0.0564971
0.0477455
0.0396474
0.0578118
0.088164
0.110875
0.126819
0.137581
0.144719
0.14956
0.15278
0.15495
0.156507
0.157742
0.158848
0.159938
0.161072
0.16227
0.163444
0.164472
0.165067
0.165088
0.163942
0.160719
0.154906
0.146536
0.135122
0.120305
0.101095
0.0758481
0.0473521
0.0387022
0.0363553
0.058573
0.0892817
0.111281
0.126091
0.136341
0.143651
0.148796
0.152273
0.15468
0.156429
0.157766
0.158881
0.159901
0.160902
0.161892
0.162793
0.163455
0.163655
0.163174
0.161326
0.157372
0.150755
0.141882
0.130448
0.116167
0.0983541
0.0757294
0.0478776
0.034388
0.0366456
0.0642882
0.0931489
0.11242
0.126083
0.136089
0.143428
0.148663
0.152239
0.154738
0.156543
0.157894
0.158932
0.159803
0.160608
0.161349
0.161978
0.162361
0.162356
0.161714
0.159795
0.156052
0.149588
0.140592
0.129319
0.115669
0.099031
0.0784314
0.0529785
0.0345824
0.0405684
0.0747453
0.097664
0.114413
0.126751
0.136649
0.143851
0.148967
0.152468
0.154963
0.156713
0.157928
0.158816
0.159513
0.1601
0.160609
0.160992
0.161156
0.161026
0.160311
0.159
0.156432
0.150781
0.141789
0.130447
0.117075
0.101923
0.0849531
0.0644066
0.0382203
0.04681
0.0801252
0.100873
0.116593
0.128365
0.137969
0.144609
0.149273
0.152472
0.154818
0.156461
0.157593
0.158366
0.158937
0.159417
0.159797
0.160028
0.1601
0.159948
0.159638
0.159197
0.158312
0.154197
0.145635
0.13443
0.121223
0.106655
0.0900281
0.0705334
0.0457251
0.0493978
0.0818422
0.10238
0.11749
0.129004
0.137832
0.143985
0.148368
0.151568
0.153924
0.155593
0.15676
0.157596
0.158239
0.15876
0.159171
0.159435
0.159635
0.15962
0.159579
0.15968
0.159672
0.156534
0.149256
0.139433
0.126843
0.112177
0.0947903
0.0748344
0.0482968
0.0510395
0.0818054
0.101684
0.116486
0.127685
0.135799
0.14154
0.146021
0.149604
0.152309
0.154259
0.155677
0.156745
0.157604
0.158338
0.158974
0.159387
0.159422
0.159184
0.158942
0.158987
0.158598
0.155724
0.149616
0.141149
0.129804
0.115701
0.0990005
0.0783058
0.0499586
0.0505247
0.0796601
0.0991006
0.114096
0.125096
0.132962
0.138993
0.14396
0.147882
0.150816
0.152982
0.154635
0.155963
0.15715
0.158251
0.159127
0.159242
0.158732
0.158026
0.157326
0.156623
0.155109
0.152269
0.147625
0.140255
0.129535
0.115503
0.0989657
0.0788372
0.0511625
0.0471785
0.0753946
0.0981759
0.113669
0.124293
0.131968
0.138055
0.143002
0.146868
0.149798
0.152031
0.153808
0.155328
0.156834
0.158324
0.159033
0.158511
0.157621
0.156714
0.155521
0.153769
0.15125
0.148166
0.144191
0.13783
0.127341
0.112707
0.0960973
0.0770377
0.0508418
0.0450146
0.0753722
0.0992141
0.114491
0.124759
0.132249
0.138194
0.142937
0.146572
0.149348
0.151511
0.153292
0.154867
0.15652
0.15815
0.158355
0.157643
0.156786
0.155572
0.153939
0.151677
0.148778
0.145493
0.141654
0.135964
0.125897
0.110594
0.0914008
0.0694687
0.0478667
0.045558
0.0784657
0.102539
0.116909
0.126422
0.13355
0.139141
0.143525
0.146912
0.149507
0.151542
0.153221
0.154709
0.156288
0.157596
0.157631
0.157141