/*--------------------------------*- C++ -*----------------------------------*\
| =========                 |                                                 |
| \\      /  F ield         | OpenFOAM: The Open Source CFD Toolbox           |
|  \\    /   O peration     | Version:  v1606+                                |
|   \\  /    A nd           | Web:      www.OpenFOAM.com                      |
|    \\/     M anipulation  |                                                 |
\*---------------------------------------------------------------------------*/
FoamFile
{
    version     2.0;
    format      ascii;
    class       volVectorField;
    location    "0.74";
    object      U.air;
}
// * * * * * * * * * * * * * * * * * * * * * * * * * * * * * * * * * * * * * //

dimensions      [0 1 -1 0 0 0 0];

internalField   nonuniform List<vector> 
6000
(
(-0.0172524 0.298377 0)
(0.00763786 0.280312 0)
(0.0290241 0.293125 0)
(0.0346581 0.298391 0)
(0.0168426 0.288536 0)
(-0.0168667 0.272419 0)
(-0.0547642 0.251016 0)
(-0.0793588 0.212982 0)
(-0.089264 0.206837 0)
(-0.0935942 0.202818 0)
(-0.0892475 0.185598 0)
(-0.0688231 0.156187 0)
(-0.042276 0.155659 0)
(-0.0221219 0.145195 0)
(-0.00712968 0.143219 0)
(0.00628301 0.140572 0)
(0.0211437 0.139166 0)
(0.0418111 0.146296 0)
(0.0707801 0.143482 0)
(0.0896933 0.186768 0)
(0.0929765 0.195389 0)
(0.0897575 0.202808 0)
(0.0848434 0.216148 0)
(0.063921 0.255821 0)
(0.0258857 0.278435 0)
(-0.00754001 0.295315 0)
(-0.0257216 0.30358 0)
(-0.0221609 0.296259 0)
(-0.00360067 0.28397 0)
(0.0187658 0.30052 0)
(0.0115838 1.06362 0)
(0.0341899 1.01893 0)
(0.0886151 1.05525 0)
(0.101573 1.0966 0)
(0.0929445 1.1551 0)
(0.0539958 1.20011 0)
(-0.0297471 1.21066 0)
(-0.118269 1.17134 0)
(-0.16676 1.10705 0)
(-0.155824 1.06083 0)
(-0.114885 1.04123 0)
(-0.0729613 1.04263 0)
(-0.0384085 1.05144 0)
(-0.0159279 1.07646 0)
(-0.00258721 1.08554 0)
(0.00605015 1.08824 0)
(0.0157435 1.07799 0)
(0.038987 1.05409 0)
(0.074663 1.04725 0)
(0.118085 1.04029 0)
(0.163002 1.06617 0)
(0.171942 1.10647 0)
(0.124342 1.16521 0)
(0.0374987 1.20929 0)
(-0.044285 1.19897 0)
(-0.080885 1.15262 0)
(-0.0891545 1.09702 0)
(-0.0793998 1.06026 0)
(-0.0318464 1.0249 0)
(-0.0119199 1.06797 0)
(0.0203377 0.790599 0)
(0.0822507 0.69278 0)
(0.167109 0.763128 0)
(0.188078 0.817973 0)
(0.163691 0.875697 0)
(0.105832 0.946381 0)
(-0.00358659 1.01873 0)
(-0.140661 0.987987 0)
(-0.212551 0.889566 0)
(-0.182272 0.780417 0)
(-0.110611 0.724954 0)
(-0.0427229 0.717888 0)
(-0.00670973 0.742467 0)
(0.00151137 0.779021 0)
(0.0048233 0.80702 0)
(0.00231839 0.809811 0)
(-0.00207373 0.776208 0)
(0.00751774 0.734833 0)
(0.0486451 0.711474 0)
(0.118875 0.721516 0)
(0.192453 0.778101 0)
(0.229346 0.889677 0)
(0.155587 0.989383 0)
(0.0127458 1.01667 0)
(-0.0969716 0.942669 0)
(-0.154986 0.872906 0)
(-0.178952 0.817682 0)
(-0.159931 0.768637 0)
(-0.079945 0.700269 0)
(-0.0192709 0.789216 0)
(0.0901812 0.734305 0)
(0.196072 0.623562 0)
(0.31934 0.716538 0)
(0.379648 0.835008 0)
(0.357937 0.945605 0)
(0.283363 1.04434 0)
(0.18309 1.14119 0)
(0.0250544 1.1083 0)
(-0.136025 0.964361 0)
(-0.184372 0.824716 0)
(-0.0978548 0.752512 0)
(0.0042217 0.781494 0)
(0.0546038 0.872854 0)
(0.0584838 0.96162 0)
(0.0281139 0.993479 0)
(-0.0264568 1.00872 0)
(-0.0598454 0.957854 0)
(-0.0516475 0.858885 0)
(0.00430827 0.771763 0)
(0.109917 0.74749 0)
(0.20265 0.823516 0)
(0.153708 0.95843 0)
(-0.0112402 1.11239 0)
(-0.176803 1.14224 0)
(-0.280986 1.04329 0)
(-0.356747 0.94219 0)
(-0.378304 0.834769 0)
(-0.31878 0.722996 0)
(-0.192762 0.631829 0)
(-0.0866233 0.736891 0)
(0.112376 0.498732 0)
(0.234446 0.427766 0)
(0.380354 0.523951 0)
(0.500401 0.704803 0)
(0.552659 0.8839 0)
(0.525893 1.01545 0)
(0.465883 1.17572 0)
(0.340951 1.24905 0)
(0.0903934 1.08974 0)
(-0.0917371 0.782885 0)
(-0.0615903 0.633381 0)
(0.0866789 0.703179 0)
(0.158154 0.837518 0)
(0.121746 0.91346 0)
(0.044474 0.942217 0)
(-0.037862 0.968398 0)
(-0.131318 0.927258 0)
(-0.159743 0.830539 0)
(-0.0698686 0.685334 0)
(0.0832362 0.622848 0)
(0.117756 0.777025 0)
(-0.0705358 1.09416 0)
(-0.335483 1.26175 0)
(-0.465585 1.17846 0)
(-0.53065 1.01411 0)
(-0.558366 0.879171 0)
(-0.506445 0.703346 0)
(-0.385717 0.526747 0)
(-0.233702 0.427475 0)
(-0.109981 0.503067 0)
(0.0752833 0.347105 0)
(0.170372 0.311744 0)
(0.275573 0.377022 0)
(0.418532 0.557774 0)
(0.563989 0.793952 0)
(0.629339 0.982817 0)
(0.603816 1.14459 0)
(0.54831 1.27993 0)
(0.381136 1.28251 0)
(0.13339 0.910253 0)
(0.0815414 0.556591 0)
(0.161443 0.636209 0)
(0.125468 0.81426 0)
(0.0282657 0.968455 0)
(0.00498801 0.970823 0)
(0.012619 1.01865 0)
(-0.0482905 0.983072 0)
(-0.159984 0.792451 0)
(-0.166683 0.618259 0)
(-0.0412371 0.533633 0)
(-0.0834833 0.905414 0)
(-0.354423 1.30527 0)
(-0.542012 1.29742 0)
(-0.607529 1.15556 0)
(-0.639125 0.988438 0)
(-0.573685 0.791446 0)
(-0.428764 0.558072 0)
(-0.283667 0.378321 0)
(-0.171438 0.305973 0)
(-0.0797144 0.352715 0)
(0.0164118 0.271911 0)
(0.0725078 0.253164 0)
(0.120077 0.270041 0)
(0.22377 0.388814 0)
(0.410499 0.619354 0)
(0.603893 0.910469 0)
(0.669376 1.17604 0)
(0.627428 1.32523 0)
(0.550381 1.3875 0)
(0.411424 1.07537 0)
(0.249477 0.579401 0)
(0.0925829 0.638533 0)
(-0.0960094 0.95505 0)
(-0.184196 0.906638 0)
(-0.06848 0.802526 0)
(0.0926559 0.872837 0)
(0.158025 0.984195 0)
(0.03052 0.942948 0)
(-0.108973 0.574037 0)
(-0.202373 0.53325 0)
(-0.336843 1.08736 0)
(-0.512218 1.43506 0)
(-0.621198 1.36098 0)
(-0.678765 1.19621 0)
(-0.612096 0.916141 0)
(-0.418695 0.617218 0)
(-0.23131 0.388661 0)
(-0.12456 0.26984 0)
(-0.0742579 0.246774 0)
(-0.0214456 0.275399 0)
(-0.00716547 0.279869 0)
(0.0154322 0.251299 0)
(0.0224982 0.244806 0)
(0.072135 0.293499 0)
(0.194434 0.433025 0)
(0.410383 0.709762 0)
(0.602365 1.12202 0)
(0.644926 1.36301 0)
(0.638431 1.44005 0)
(0.596186 1.20996 0)
(0.357151 0.80528 0)
(0.00277266 0.918239 0)
(-0.290206 1.01099 0)
(-0.288856 0.778264 0)
(-0.104658 0.556759 0)
(0.122453 0.661656 0)
(0.282597 0.858848 0)
(0.268058 0.997977 0)
(-0.00562196 0.788807 0)
(-0.315876 0.714288 0)
(-0.529773 1.23164 0)
(-0.602985 1.52316 0)
(-0.648273 1.42372 0)
(-0.617352 1.14224 0)
(-0.417203 0.714704 0)
(-0.201455 0.431133 0)
(-0.0774803 0.292897 0)
(-0.0260076 0.243052 0)
(-0.0179864 0.247355 0)
(0.00535949 0.281147 0)
(-0.00426311 0.287337 0)
(-0.0076604 0.256233 0)
(-0.0142181 0.238547 0)
(-0.00157237 0.253288 0)
(0.0575921 0.320219 0)
(0.191608 0.506987 0)
(0.391968 0.955753 0)
(0.554394 1.31176 0)
(0.651089 1.4388 0)
(0.626254 1.33981 0)
(0.340694 1.1359 0)
(-0.0762801 1.24094 0)
(-0.325579 1.09412 0)
(-0.267339 0.651915 0)
(-0.100588 0.356614 0)
(0.0840412 0.451102 0)
(0.290914 0.756432 0)
(0.344924 1.06426 0)
(0.0936598 1.12877 0)
(-0.298765 1.02346 0)
(-0.579632 1.37103 0)
(-0.632012 1.5584 0)
(-0.576077 1.39587 0)
(-0.416379 0.964751 0)
(-0.201861 0.507736 0)
(-0.0661146 0.317573 0)
(-0.00456153 0.251064 0)
(0.0106919 0.235398 0)
(0.00515573 0.252744 0)
(0.00312803 0.287865 0)
(-0.00745717 0.300946 0)
(-0.0226859 0.268906 0)
(-0.0332956 0.245475 0)
(-0.0333415 0.24052 0)
(-0.0073527 0.269522 0)
(0.0544861 0.388776 0)
(0.167166 0.791487 0)
(0.377778 1.1416 0)
(0.586794 1.37484 0)
(0.590279 1.48251 0)
(0.287787 1.50422 0)
(-0.134363 1.54033 0)
(-0.297165 1.14297 0)
(-0.187258 0.51754 0)
(-0.0828208 0.249895 0)
(0.00997283 0.295968 0)
(0.197846 0.579472 0)
(0.341457 1.11904 0)
(0.195991 1.38866 0)
(-0.195661 1.38454 0)
(-0.525981 1.52845 0)
(-0.579985 1.5372 0)
(-0.418185 1.24327 0)
(-0.199475 0.77542 0)
(-0.0681056 0.3815 0)
(-0.00170105 0.264093 0)
(0.0267916 0.235192 0)
(0.028913 0.240033 0)
(0.0205928 0.26436 0)
(0.00710949 0.29998 0)
(-0.0134334 0.331805 0)
(-0.0393599 0.2918 0)
(-0.0525234 0.253685 0)
(-0.0526024 0.233491 0)
(-0.0369182 0.244989 0)
(-0.0149544 0.342982 0)
(0.0254294 0.684819 0)
(0.221139 0.921455 0)
(0.467231 1.23237 0)
(0.53734 1.63859 0)
(0.233309 1.86995 0)
(-0.169974 1.83454 0)
(-0.243983 1.10937 0)
(-0.119714 0.406108 0)
(-0.0664219 0.208322 0)
(-0.0363413 0.216002 0)
(0.0906334 0.394174 0)
(0.29635 1.05341 0)
(0.279074 1.64669 0)
(-0.079417 1.75739 0)
(-0.425633 1.7292 0)
(-0.469063 1.46502 0)
(-0.261593 1.0289 0)
(-0.0543299 0.639048 0)
(0.00314109 0.325695 0)
(0.0292317 0.236504 0)
(0.0460454 0.225319 0)
(0.0481375 0.246403 0)
(0.0391159 0.285001 0)
(0.0146544 0.331422 0)
(-0.0248854 0.380035 0)
(-0.070633 0.329744 0)
(-0.0842897 0.262192 0)
(-0.074939 0.224919 0)
(-0.0569601 0.228806 0)
(-0.0473527 0.331301 0)
(-0.0160728 0.602882 0)
(0.142249 0.734439 0)
(0.341963 1.04689 0)
(0.443614 1.7631 0)
(0.17269 2.18291 0)
(-0.14411 2.06858 0)
(-0.153538 1.0133 0)
(-0.0790811 0.339566 0)
(-0.0572399 0.182951 0)
(-0.0504363 0.166669 0)
(0.0249409 0.265866 0)
(0.210193 0.872732 0)
(0.312495 1.84171 0)
(0.0347022 2.04076 0)
(-0.292743 1.95245 0)
(-0.33923 1.37115 0)
(-0.167688 0.81886 0)
(0.0031708 0.543451 0)
(0.041165 0.309131 0)
(0.0518728 0.217669 0)
(0.0705867 0.215259 0)
(0.0815255 0.253958 0)
(0.0745682 0.319336 0)
(0.0293032 0.384518 0)
(-0.0358927 0.528952 0)
(-0.116581 0.390226 0)
(-0.141716 0.258124 0)
(-0.101106 0.206388 0)
(-0.0695837 0.209234 0)
(-0.0501928 0.315523 0)
(0.00425965 0.518902 0)
(0.115871 0.606445 0)
(0.225481 0.892252 0)
(0.291716 1.85787 0)
(0.11022 2.37837 0)
(-0.0181461 2.2195 0)
(-0.00415404 0.932843 0)
(-0.0127562 0.347194 0)
(-0.0480118 0.182773 0)
(-0.0542522 0.131705 0)
(-0.0190504 0.196642 0)
(0.112787 0.64932 0)
(0.26251 1.95748 0)
(0.112979 2.26453 0)
(-0.125869 2.15028 0)
(-0.201543 1.32049 0)
(-0.124085 0.665622 0)
(-0.0122347 0.454471 0)
(0.0491819 0.286373 0)
(0.0705621 0.192687 0)
(0.103976 0.194995 0)
(0.144498 0.252171 0)
(0.120877 0.390421 0)
(0.036707 0.525941 0)
(-0.0520746 0.466508 0)
(-0.157288 0.457832 0)
(-0.184397 0.271033 0)
(-0.1174 0.163882 0)
(-0.0580638 0.174635 0)
(-0.0197582 0.277396 0)
(0.0341552 0.440045 0)
(0.0852313 0.548348 0)
(0.0860499 0.832325 0)
(0.0979182 1.89817 0)
(0.135408 2.45928 0)
(0.250345 2.23215 0)
(0.255197 0.989466 0)
(0.0852417 0.481738 0)
(-0.0596474 0.246681 0)
(-0.0883912 0.134622 0)
(-0.0703291 0.18244 0)
(-0.0250656 0.520163 0)
(0.117832 1.93722 0)
(0.115304 2.40343 0)
(0.0439687 2.25226 0)
(-0.0294699 1.36463 0)
(-0.0499556 0.591471 0)
(-0.0128894 0.395816 0)
(0.0370013 0.243672 0)
(0.0758684 0.155754 0)
(0.131549 0.150357 0)
(0.206251 0.26056 0)
(0.163369 0.425923 0)
(0.0524626 0.470217 0)
(-0.0324249 0.628338 0)
(-0.101727 0.490812 0)
(-0.151001 0.213839 0)
(-0.127242 0.109584 0)
(-0.0187387 0.123513 0)
(0.0167296 0.259879 0)
(0.0161559 0.411731 0)
(-0.0221181 0.574345 0)
(-0.105655 0.881719 0)
(-0.0696008 1.77131 0)
(0.25748 2.2969 0)
(0.597073 2.06444 0)
(0.598873 1.11658 0)
(0.27675 0.692504 0)
(-0.0826824 0.356809 0)
(-0.167932 0.196931 0)
(-0.136371 0.251433 0)
(-0.179009 0.560723 0)
(-0.133151 1.84551 0)
(0.00935777 2.44085 0)
(0.161076 2.22492 0)
(0.213691 1.46938 0)
(0.101455 0.643853 0)
(0.0263922 0.407443 0)
(0.0167153 0.230321 0)
(0.0528725 0.112099 0)
(0.147982 0.0947541 0)
(0.156415 0.205662 0)
(0.100193 0.529092 0)
(0.0288602 0.631515 0)
(0.0249926 0.543414 0)
(0.0562439 0.525387 0)
(0.0161575 0.332632 0)
(-0.0163188 0.0730271 0)
(0.0607359 0.0964015 0)
(0.0786694 0.282203 0)
(0.00479286 0.49504 0)
(-0.17239 0.69461 0)
(-0.275185 0.929609 0)
(-0.144145 1.52557 0)
(0.322095 1.93893 0)
(0.763614 1.84474 0)
(0.779501 1.27436 0)
(0.442414 1.02454 0)
(0.0729307 0.57326 0)
(-0.0513823 0.140775 0)
(-0.143552 0.268484 0)
(-0.328198 0.697446 0)
(-0.403269 1.72065 0)
(-0.131981 2.29863 0)
(0.214188 2.03119 0)
(0.416199 1.47555 0)
(0.272124 0.846986 0)
(0.0411793 0.560292 0)
(-0.0685625 0.280555 0)
(-0.0275356 0.0899719 0)
(0.0432226 0.083005 0)
(-0.0320769 0.334291 0)
(-0.0695985 0.525329 0)
(-0.0243238 0.54675 0)
(0.0399437 0.474448 0)
(0.133378 0.461079 0)
(0.196545 0.323442 0)
(0.247133 0.117483 0)
(0.231851 0.104189 0)
(0.257472 0.312906 0)
(0.188819 0.528927 0)
(-0.0929417 0.809694 0)
(-0.245254 0.859835 0)
(-0.114269 1.23195 0)
(0.276259 1.4915 0)
(0.579182 1.46406 0)
(0.60196 1.33339 0)
(0.407355 1.12944 0)
(0.308876 0.648621 0)
(0.196044 0.361043 0)
(-0.000509858 0.472201 0)
(-0.295173 0.972947 0)
(-0.397805 1.5892 0)
(-0.163954 2.04179 0)
(0.204563 1.76644 0)
(0.447477 1.43657 0)
(0.296387 1.05442 0)
(-0.130097 0.694742 0)
(-0.268549 0.302562 0)
(-0.210788 0.0975716 0)
(-0.223095 0.151052 0)
(-0.203648 0.36259 0)
(-0.140397 0.464916 0)
(-0.0412663 0.486167 0)
(0.0434276 0.392672 0)
(0.156112 0.395769 0)
(0.243326 0.252455 0)
(0.335446 0.112045 0)
(0.379023 0.0654138 0)
(0.429698 0.267671 0)
(0.375191 0.650116 0)
(0.263641 0.961679 0)
(0.131331 0.898688 0)
(0.111667 0.968978 0)
(0.273141 1.19433 0)
(0.359986 1.27565 0)
(0.368152 1.29277 0)
(0.394915 1.02065 0)
(0.473148 0.572453 0)
(0.476052 0.387497 0)
(0.385031 0.592156 0)
(0.20757 1.10136 0)
(0.00577267 1.51262 0)
(-0.013389 1.74756 0)
(0.113327 1.49108 0)
(0.136305 1.29826 0)
(-0.0580588 1.32241 0)
(-0.37826 0.988764 0)
(-0.430529 0.275171 0)
(-0.420103 0.0769639 0)
(-0.351172 0.176294 0)
(-0.254566 0.301669 0)
(-0.146527 0.390767 0)
(-0.0429121 0.417642 0)
(0.0340887 0.306458 0)
(0.143406 0.341124 0)
(0.19256 0.198962 0)
(0.22838 0.0516045 0)
(0.208049 -0.00448929 0)
(0.271214 0.197287 0)
(0.349045 0.511736 0)
(0.48628 0.814825 0)
(0.550551 0.923868 0)
(0.47929 0.961757 0)
(0.428744 1.07621 0)
(0.398726 1.17362 0)
(0.426615 1.14877 0)
(0.546795 0.890939 0)
(0.64903 0.503119 0)
(0.691262 0.383382 0)
(0.679698 0.596477 0)
(0.627341 1.13562 0)
(0.44081 1.64862 0)
(0.173093 1.72203 0)
(-0.0441378 1.51075 0)
(-0.289366 1.42903 0)
(-0.432779 1.35113 0)
(-0.38419 0.854354 0)
(-0.311687 0.231309 0)
(-0.32608 0.0266724 0)
(-0.281098 0.107008 0)
(-0.206175 0.226228 0)
(-0.126304 0.322749 0)
(-0.0404443 0.353308 0)
(-0.00157994 0.231889 0)
(0.101954 0.278606 0)
(0.120345 0.174809 0)
(0.105228 0.0695757 0)
(0.0206416 -0.0190391 0)
(0.00554829 0.0553363 0)
(0.134358 0.302549 0)
(0.381556 0.606804 0)
(0.578526 0.790838 0)
(0.629662 0.892221 0)
(0.605498 1.00635 0)
(0.592478 1.09503 0)
(0.644757 1.05589 0)
(0.753874 0.801865 0)
(0.81728 0.46817 0)
(0.846145 0.391314 0)
(0.814787 0.602556 0)
(0.726653 1.1585 0)
(0.543816 1.78629 0)
(0.210271 1.89584 0)
(-0.147962 1.72249 0)
(-0.43296 1.51226 0)
(-0.441632 1.20223 0)
(-0.263454 0.659054 0)
(-0.166 0.158149 0)
(-0.173578 -0.0117079 0)
(-0.180774 0.0759146 0)
(-0.143698 0.177167 0)
(-0.098751 0.268254 0)
(-0.0339755 0.285235 0)
(-0.022405 0.239695 0)
(0.0136566 0.253049 0)
(0.00777836 0.177361 0)
(-0.0222441 0.112858 0)
(-0.0870962 0.0546883 0)
(-0.150793 0.038965 0)
(-0.096261 0.151003 0)
(0.11238 0.35762 0)
(0.376867 0.608398 0)
(0.568083 0.80914 0)
(0.661858 0.978458 0)
(0.726874 1.0717 0)
(0.81335 1.00907 0)
(0.911055 0.764683 0)
(0.933859 0.481367 0)
(0.925948 0.428666 0)
(0.836973 0.658628 0)
(0.653897 1.26307 0)
(0.417005 1.95211 0)
(0.122525 2.08963 0)
(-0.153345 1.91138 0)
(-0.338803 1.54261 0)
(-0.281249 1.04175 0)
(-0.121973 0.518984 0)
(-0.0398303 0.0980014 0)
(-0.0687196 0.00378851 0)
(-0.0938776 0.0693514 0)
(-0.0873565 0.149969 0)
(-0.0663848 0.225173 0)
(-0.020906 0.225401 0)
(-0.0159064 0.267373 0)
(-0.0226347 0.264149 0)
(-0.0415828 0.210579 0)
(-0.0818041 0.165337 0)
(-0.136721 0.122878 0)
(-0.194534 0.0997563 0)
(-0.215143 0.0885938 0)
(-0.121026 0.196247 0)
(0.0973696 0.380414 0)
(0.358765 0.637195 0)
(0.572485 0.880856 0)
(0.725166 1.0014 0)
(0.864846 0.950112 0)
(0.973383 0.751692 0)
(0.97682 0.531154 0)
(0.93193 0.510097 0)
(0.793636 0.791174 0)
(0.535625 1.4707 0)
(0.256427 2.16632 0)
(0.0396853 2.30488 0)
(-0.123839 2.07672 0)
(-0.188861 1.5706 0)
(-0.109984 0.921805 0)
(0.00553946 0.391925 0)
(0.0436625 0.0784955 0)
(0.0135786 0.0283235 0)
(-0.0210697 0.0755203 0)
(-0.0347923 0.137901 0)
(-0.0311319 0.189347 0)
(-0.0038499 0.181266 0)
(-0.0118831 0.306276 0)
(-0.0344612 0.290479 0)
(-0.0613121 0.253947 0)
(-0.101278 0.218813 0)
(-0.150371 0.187995 0)
(-0.196768 0.169147 0)
(-0.225957 0.144208 0)
(-0.232916 0.133549 0)
(-0.125841 0.224622 0)
(0.0891933 0.413015 0)
(0.357795 0.687534 0)
(0.600922 0.858171 0)
(0.791794 0.852263 0)
(0.914499 0.720599 0)
(0.96332 0.628573 0)
(0.875463 0.629816 0)
(0.653461 0.932316 0)
(0.38411 1.71756 0)
(0.118472 2.34216 0)
(-0.00557378 2.44009 0)
(-0.0622636 2.14588 0)
(-0.0335732 1.53671 0)
(0.0334493 0.841261 0)
(0.0884708 0.332158 0)
(0.0991071 0.0878974 0)
(0.0695897 0.0584787 0)
(0.0346079 0.0918481 0)
(0.0131618 0.132416 0)
(-0.00119079 0.165295 0)
(0.00971667 0.158341 0)
(-0.0093684 0.340081 0)
(-0.0341947 0.321586 0)
(-0.0653483 0.295818 0)
(-0.105532 0.272151 0)
(-0.154594 0.25006 0)
(-0.206719 0.233078 0)
(-0.249244 0.214397 0)
(-0.26059 0.189186 0)
(-0.239698 0.17681 0)
(-0.134044 0.259123 0)
(0.099175 0.484491 0)
(0.404468 0.697434 0)
(0.645567 0.762822 0)
(0.790627 0.7068 0)
(0.834072 0.666645 0)
(0.751837 0.770893 0)
(0.490001 1.1562 0)
(0.214366 1.94284 0)
(0.030252 2.45592 0)
(-0.000857679 2.49109 0)
(0.0279241 2.1294 0)
(0.093445 1.48677 0)
(0.128282 0.852363 0)
(0.145984 0.30575 0)
(0.141764 0.104961 0)
(0.111574 0.0850324 0)
(0.074834 0.107446 0)
(0.0466012 0.131183 0)
(0.0202539 0.153811 0)
(0.0178524 0.14755 0)
(-0.00542119 0.359153 0)
(-0.0268787 0.348538 0)
(-0.0561126 0.331944 0)
(-0.095897 0.324886 0)
(-0.151231 0.317445 0)
(-0.213483 0.30417 0)
(-0.269421 0.276291 0)
(-0.30734 0.247743 0)
(-0.307386 0.225523 0)
(-0.259946 0.211179 0)
(-0.139744 0.284309 0)
(0.101111 0.446289 0)
(0.373739 0.576999 0)
(0.562279 0.611441 0)
(0.623134 0.674286 0)
(0.529289 0.895088 0)
(0.289327 1.38224 0)
(0.0650108 2.09158 0)
(-0.00206954 2.49334 0)
(0.0529981 2.46368 0)
(0.138617 2.07213 0)
(0.190556 1.45112 0)
(0.19078 0.842249 0)
(0.189978 0.295854 0)
(0.180052 0.124073 0)
(0.144481 0.112146 0)
(0.101911 0.124698 0)
(0.0639179 0.134596 0)
(0.0319054 0.146094 0)
(0.0178294 0.144704 0)
(-0.0018419 0.355449 0)
(-0.0120055 0.358264 0)
(-0.0268959 0.348173 0)
(-0.0601485 0.364738 0)
(-0.126583 0.377655 0)
(-0.22057 0.386682 0)
(-0.301935 0.347515 0)
(-0.34613 0.297807 0)
(-0.365121 0.261009 0)
(-0.347279 0.237092 0)
(-0.270823 0.230971 0)
(-0.13652 0.279414 0)
(0.0801072 0.363545 0)
(0.311304 0.468775 0)
(0.363552 0.681913 0)
(0.276529 1.01587 0)
(0.0991647 1.54728 0)
(-0.0225213 2.15259 0)
(0.025375 2.44712 0)
(0.155428 2.37197 0)
(0.2659 2.0097 0)
(0.284593 1.45339 0)
(0.23412 0.869843 0)
(0.217144 0.296048 0)
(0.198972 0.148643 0)
(0.159374 0.153108 0)
(0.115387 0.154274 0)
(0.070985 0.150914 0)
(0.0371742 0.145472 0)
(0.0134484 0.142547 0)
(-4.69217e-05 0.342804 0)
(0.00178912 0.352327 0)
(0.00381021 0.341386 0)
(-0.00760189 0.369918 0)
(-0.0561758 0.40896 0)
(-0.19604 0.447917 0)
(-0.334582 0.407665 0)
(-0.404803 0.341462 0)
(-0.419598 0.285365 0)
(-0.411948 0.243033 0)
(-0.371398 0.213333 0)
(-0.27841 0.193224 0)
(-0.15603 0.188184 0)
(0.0249372 0.313896 0)
(0.106449 0.677619 0)
(0.0357362 1.05262 0)
(-0.0453015 1.61858 0)
(-0.0382929 2.12189 0)
(0.106777 2.32504 0)
(0.286265 2.25176 0)
(0.396398 1.96366 0)
(0.378122 1.5017 0)
(0.262708 0.943188 0)
(0.210345 0.32124 0)
(0.166467 0.212468 0)
(0.165072 0.202269 0)
(0.125214 0.187186 0)
(0.0842338 0.169031 0)
(0.0475252 0.152354 0)
(0.0137675 0.14455 0)
(-0.00693762 0.335753 0)
(-0.0128 0.34499 0)
(-0.0197401 0.348571 0)
(-0.0351438 0.398291 0)
(-0.0698397 0.488246 0)
(-0.182274 0.598424 0)
(-0.318906 0.480881 0)
(-0.448223 0.360958 0)
(-0.483652 0.294918 0)
(-0.473295 0.240262 0)
(-0.445152 0.191988 0)
(-0.391112 0.147211 0)
(-0.309131 0.099602 0)
(-0.214376 0.167069 0)
(-0.113907 0.652039 0)
(-0.137566 1.08014 0)
(-0.125635 1.60033 0)
(0.00966384 1.99789 0)
(0.23163 2.15383 0)
(0.431159 2.12573 0)
(0.526129 1.94408 0)
(0.469731 1.60107 0)
(0.289949 1.0957 0)
(0.133534 0.418318 0)
(0.136213 0.248261 0)
(0.163756 0.231054 0)
(0.138734 0.217147 0)
(0.101786 0.196897 0)
(0.0594314 0.176045 0)
(0.0171653 0.161897 0)
(-0.0119813 0.353504 0)
(-0.033596 0.372573 0)
(-0.0754686 0.389529 0)
(-0.107734 0.428909 0)
(-0.158018 0.535029 0)
(-0.261197 0.644906 0)
(-0.386764 0.578469 0)
(-0.465814 0.380337 0)
(-0.533557 0.280955 0)
(-0.538259 0.226282 0)
(-0.516161 0.173008 0)
(-0.487355 0.119832 0)
(-0.442878 0.0653904 0)
(-0.379721 0.10212 0)
(-0.307168 0.620087 0)
(-0.250273 1.05877 0)
(-0.138741 1.49152 0)
(0.115862 1.7993 0)
(0.388328 1.96418 0)
(0.582216 2.01837 0)
(0.657608 1.95445 0)
(0.585559 1.75609 0)
(0.401223 1.35561 0)
(0.111554 0.563436 0)
(0.135893 0.260919 0)
(0.163082 0.247685 0)
(0.146699 0.246729 0)
(0.113896 0.233911 0)
(0.0694171 0.214033 0)
(0.0215053 0.194623 0)
(-0.0149899 0.381386 0)
(-0.0384434 0.414065 0)
(-0.106287 0.468656 0)
(-0.176184 0.518506 0)
(-0.28134 0.677112 0)
(-0.388661 0.747954 0)
(-0.432771 0.590221 0)
(-0.514744 0.370066 0)
(-0.546255 0.263698 0)
(-0.586914 0.201538 0)
(-0.578581 0.156488 0)
(-0.563549 0.111161 0)
(-0.54494 0.0703891 0)
(-0.500536 0.104399 0)
(-0.435747 0.578194 0)
(-0.316572 1.02764 0)
(-0.0961803 1.27749 0)
(0.246203 1.5384 0)
(0.542249 1.76958 0)
(0.71764 1.93672 0)
(0.775485 1.97747 0)
(0.739368 1.89645 0)
(0.602443 1.58258 0)
(0.321639 0.849284 0)
(0.157412 0.30767 0)
(0.197928 0.268791 0)
(0.165227 0.281948 0)
(0.124559 0.280248 0)
(0.0767095 0.264311 0)
(0.0243273 0.241258 0)
(-0.00707915 0.393291 0)
(-0.0461003 0.457141 0)
(-0.118998 0.572475 0)
(-0.245048 0.643837 0)
(-0.387878 0.802824 0)
(-0.469066 0.786573 0)
(-0.477209 0.602526 0)
(-0.523025 0.375995 0)
(-0.566438 0.240583 0)
(-0.606398 0.173773 0)
(-0.620159 0.138656 0)
(-0.614537 0.112391 0)
(-0.605771 0.0909394 0)
(-0.581966 0.141301 0)
(-0.533304 0.516054 0)
(-0.366755 0.910256 0)
(-0.0709707 1.04252 0)
(0.340665 1.3032 0)
(0.642805 1.59558 0)
(0.785312 1.88052 0)
(0.819254 1.98142 0)
(0.824795 1.95589 0)
(0.786203 1.83551 0)
(0.638691 1.20296 0)
(0.253951 0.497377 0)
(0.26001 0.317694 0)
(0.206682 0.334227 0)
(0.144564 0.336929 0)
(0.0851748 0.32193 0)
(0.0261335 0.299695 0)
(0.00140536 0.422259 0)
(-0.0426371 0.516615 0)
(-0.119988 0.697922 0)
(-0.260536 0.805218 0)
(-0.417297 0.919659 0)
(-0.494323 0.807042 0)
(-0.492598 0.578521 0)
(-0.51308 0.378283 0)
(-0.554672 0.24645 0)
(-0.600635 0.149482 0)
(-0.629306 0.123194 0)
(-0.635126 0.115438 0)
(-0.631751 0.116555 0)
(-0.629321 0.212791 0)
(-0.585356 0.533213 0)
(-0.400092 0.780425 0)
(-0.0823403 0.725696 0)
(0.294288 0.981574 0)
(0.621695 1.4678 0)
(0.768948 1.92037 0)
(0.799352 2.05792 0)
(0.843512 2.03029 0)
(0.920169 1.90548 0)
(0.901727 1.49428 0)
(0.644956 0.899999 0)
(0.372722 0.476767 0)
(0.285802 0.429545 0)
(0.179036 0.419987 0)
(0.0988494 0.395702 0)
(0.0305939 0.368298 0)
(-0.0103696 0.447899 0)
(-0.0531663 0.579899 0)
(-0.11944 0.81613 0)
(-0.232866 0.977525 0)
(-0.357179 1.03758 0)
(-0.411684 0.842651 0)
(-0.443652 0.579033 0)
(-0.453202 0.393014 0)
(-0.504965 0.255648 0)
(-0.554115 0.149039 0)
(-0.603499 0.119805 0)
(-0.622254 0.119793 0)
(-0.616036 0.136371 0)
(-0.604918 0.24914 0)
(-0.516613 0.483707 0)
(-0.311267 0.654518 0)
(-0.0905245 0.56166 0)
(0.130598 0.738571 0)
(0.407474 1.2762 0)
(0.59096 1.87957 0)
(0.656368 2.0385 0)
(0.763993 1.98649 0)
(0.934073 1.8685 0)
(1.04096 1.64184 0)
(0.992962 1.23199 0)
(0.685331 0.817027 0)
(0.403631 0.603055 0)
(0.219387 0.544079 0)
(0.102205 0.48653 0)
(0.0308739 0.444881 0)
(-0.0346162 0.533676 0)
(-0.108018 0.68971 0)
(-0.177601 0.918513 0)
(-0.218665 1.10529 0)
(-0.246082 1.11743 0)
(-0.265365 0.890054 0)
(-0.309053 0.614946 0)
(-0.381897 0.439709 0)
(-0.440318 0.285745 0)
(-0.496763 0.178739 0)
(-0.554185 0.136026 0)
(-0.581525 0.125187 0)
(-0.56853 0.137423 0)
(-0.522954 0.225644 0)
(-0.427232 0.429059 0)
(-0.285361 0.569246 0)
(-0.166248 0.537801 0)
(-0.0520677 0.658924 0)
(0.165064 1.10632 0)
(0.364887 1.86553 0)
(0.471356 2.03071 0)
(0.610876 1.93164 0)
(0.796423 1.79905 0)
(0.954203 1.66216 0)
(1.01219 1.42632 0)
(0.889494 1.19378 0)
(0.631459 0.915699 0)
(0.29256 0.7022 0)
(0.116012 0.588276 0)
(0.0232462 0.511892 0)
(-0.0468017 0.674071 0)
(-0.155033 0.850605 0)
(-0.248186 1.02045 0)
(-0.224915 1.15562 0)
(-0.157788 1.1394 0)
(-0.0903979 0.978493 0)
(-0.14638 0.779176 0)
(-0.328704 0.565708 0)
(-0.442095 0.32841 0)
(-0.471855 0.216856 0)
(-0.511255 0.1619 0)
(-0.53564 0.129479 0)
(-0.517145 0.122203 0)
(-0.445967 0.164946 0)
(-0.361221 0.367526 0)
(-0.263941 0.566784 0)
(-0.221575 0.573952 0)
(-0.139806 0.693825 0)
(-0.0253176 1.05949 0)
(0.128463 1.85933 0)
(0.309056 2.04102 0)
(0.446624 1.90488 0)
(0.598204 1.76781 0)
(0.725023 1.65429 0)
(0.795249 1.50053 0)
(0.77466 1.3033 0)
(0.686801 1.17935 0)
(0.439678 0.987335 0)
(0.15478 0.713132 0)
(0.0303315 0.548688 0)
(-0.0809153 0.696321 0)
(-0.166722 0.840852 0)
(-0.264423 0.90416 0)
(-0.255039 0.981296 0)
(-0.17715 0.964239 0)
(-0.127793 0.858874 0)
(-0.189934 0.78966 0)
(-0.375384 0.704074 0)
(-0.481091 0.42801 0)
(-0.485147 0.229024 0)
(-0.483958 0.16912 0)
(-0.487359 0.122623 0)
(-0.46056 0.0943972 0)
(-0.376042 0.0891996 0)
(-0.243537 0.244376 0)
(-0.0749886 0.506355 0)
(-0.115513 0.594773 0)
(-0.130817 0.757974 0)
(-0.138071 1.22258 0)
(-0.0560963 1.90519 0)
(0.161428 2.05711 0)
(0.298493 1.90929 0)
(0.409936 1.77074 0)
(0.509785 1.65225 0)
(0.579573 1.51743 0)
(0.600735 1.3567 0)
(0.587216 1.23065 0)
(0.539478 1.14561 0)
(0.33563 0.982827 0)
(0.087696 0.617982 0)
(-0.037307 0.813592 0)
(-0.151431 0.996649 0)
(-0.308641 1.01666 0)
(-0.400545 0.974051 0)
(-0.448234 0.940026 0)
(-0.496685 0.914673 0)
(-0.539877 0.897167 0)
(-0.579052 0.755678 0)
(-0.619091 0.360571 0)
(-0.551108 0.204667 0)
(-0.462458 0.136689 0)
(-0.432957 0.0970187 0)
(-0.397219 0.0477069 0)
(-0.317156 0.00577394 0)
(-0.177639 0.0520094 0)
(0.0921907 0.378119 0)
(0.219822 0.682513 0)
(0.211807 0.72013 0)
(0.102843 1.17663 0)
(0.0368838 1.67124 0)
(0.0649949 1.91948 0)
(0.15841 1.87349 0)
(0.252868 1.75166 0)
(0.346605 1.63213 0)
(0.418392 1.50715 0)
(0.45984 1.36238 0)
(0.473204 1.23148 0)
(0.468492 1.08977 0)
(0.375364 1.0256 0)
(0.202562 0.7588 0)
(-0.102472 0.767836 0)
(-0.262394 0.92424 0)
(-0.430603 0.955445 0)
(-0.594399 0.906129 0)
(-0.708762 0.823919 0)
(-0.74011 0.720671 0)
(-0.67634 0.624237 0)
(-0.557671 0.49195 0)
(-0.543752 0.276224 0)
(-0.577077 0.0358207 0)
(-0.492751 0.0514653 0)
(-0.376551 0.0419206 0)
(-0.339249 -0.0138893 0)
(-0.274218 -0.0745608 0)
(-0.167557 -0.118125 0)
(0.0467051 0.0281388 0)
(0.402824 0.464802 0)
(0.71761 0.72227 0)
(0.812026 1.3342 0)
(0.705856 1.76961 0)
(0.501422 1.7754 0)
(0.397554 1.6137 0)
(0.380921 1.4771 0)
(0.41062 1.38436 0)
(0.464195 1.30271 0)
(0.508601 1.19346 0)
(0.524998 1.12412 0)
(0.458563 1.032 0)
(0.318183 1.11478 0)
(0.116321 0.985738 0)
(-0.131745 0.924132 0)
(-0.318783 1.05455 0)
(-0.486038 1.06155 0)
(-0.628202 0.961552 0)
(-0.710466 0.80337 0)
(-0.71549 0.629676 0)
(-0.646938 0.473282 0)
(-0.529973 0.310463 0)
(-0.446119 0.116611 0)
(-0.475668 -0.0174455 0)
(-0.516345 -0.102308 0)
(-0.385112 -0.0456352 0)
(-0.284384 -0.0789241 0)
(-0.233884 -0.148581 0)
(-0.153603 -0.223311 0)
(-0.0378195 -0.224234 0)
(0.208097 0.00893 0)
(0.595289 0.196476 0)
(0.904803 0.933729 0)
(1.11486 1.5749 0)
(1.1638 1.75884 0)
(1.13138 1.66077 0)
(1.05762 1.50995 0)
(0.966623 1.38486 0)
(0.877323 1.28432 0)
(0.772084 1.20092 0)
(0.628668 1.15999 0)
(0.428741 1.14542 0)
(0.22204 1.16247 0)
(0.0692276 1.02721 0)
(-0.118267 1.16727 0)
(-0.297084 1.24897 0)
(-0.445955 1.22176 0)
(-0.559355 1.068 0)
(-0.616973 0.842653 0)
(-0.616713 0.606469 0)
(-0.576181 0.404757 0)
(-0.509213 0.22884 0)
(-0.445794 0.0512878 0)
(-0.42044 -0.104185 0)
(-0.458914 -0.180912 0)
(-0.507056 -0.199176 0)
(-0.329499 -0.147861 0)
(-0.206262 -0.229022 0)
(-0.136957 -0.306985 0)
(-0.043847 -0.355435 0)
(0.0878963 -0.26303 0)
(0.352667 -0.151888 0)
(0.571253 0.519598 0)
(0.881563 1.11586 0)
(1.15155 1.3351 0)
(1.33518 1.33096 0)
(1.38707 1.27533 0)
(1.3292 1.21497 0)
(1.20332 1.16096 0)
(1.03234 1.13612 0)
(0.821277 1.16041 0)
(0.576401 1.20593 0)
(0.335919 1.2361 0)
(0.128738 1.10694 0)
(-0.0967266 1.34487 0)
(-0.246902 1.39593 0)
(-0.366129 1.33615 0)
(-0.451231 1.13815 0)
(-0.494604 0.862541 0)
(-0.504706 0.587928 0)
(-0.495074 0.362433 0)
(-0.470713 0.179321 0)
(-0.440006 0.0153202 0)
(-0.410627 -0.127375 0)
(-0.394855 -0.235717 0)
(-0.428795 -0.299145 0)
(-0.383458 -0.390324 0)
(-0.222427 -0.349962 0)
(-0.12956 -0.39616 0)
(-0.0484047 -0.44745 0)
(0.0328851 -0.429889 0)
(0.191376 -0.340377 0)
(0.26828 0.213734 0)
(0.553154 0.736526 0)
(0.887277 0.987041 0)
(1.15663 1.10328 0)
(1.28702 1.16903 0)
(1.28777 1.20536 0)
(1.20605 1.23168 0)
(1.06144 1.27879 0)
(0.87182 1.3686 0)
(0.645321 1.46526 0)
(0.400575 1.50602 0)
(0.154466 1.40168 0)
(-0.08271 1.49905 0)
(-0.200783 1.51571 0)
(-0.286724 1.42247 0)
(-0.345355 1.19008 0)
(-0.379134 0.883776 0)
(-0.400029 0.590543 0)
(-0.416663 0.352458 0)
(-0.42359 0.158286 0)
(-0.417257 -0.00942158 0)
(-0.393312 -0.153718 0)
(-0.356972 -0.267058 0)
(-0.337005 -0.36665 0)
(-0.339255 -0.487831 0)
(-0.233814 -0.497003 0)
(-0.111698 -0.487613 0)
(-0.0495485 -0.523488 0)
(0.0104151 -0.540299 0)
(0.113428 -0.403391 0)
(0.12369 0.036241 0)
(0.345329 0.416646 0)
(0.64954 0.675039 0)
(0.910015 0.891139 0)
(1.05782 1.07743 0)
(1.09658 1.21887 0)
(1.04993 1.32478 0)
(0.940591 1.43408 0)
(0.78874 1.56632 0)
(0.599674 1.69356 0)
(0.379196 1.75077 0)
(0.141531 1.66417 0)
(-0.0703024 1.62297 0)
(-0.159312 1.6015 0)
(-0.214651 1.47833 0)
(-0.251907 1.22577 0)
(-0.27813 0.906116 0)
(-0.307903 0.609698 0)
(-0.344373 0.367022 0)
(-0.374494 0.160004 0)
(-0.385213 -0.0263999 0)
(-0.37045 -0.18423 0)
(-0.334201 -0.30696 0)
(-0.297739 -0.414996 0)
(-0.314423 -0.55519 0)
(-0.240927 -0.609255 0)
(-0.106305 -0.583461 0)
(-0.0555924 -0.588492 0)
(0.0034658 -0.60619 0)
(0.0679391 -0.400553 0)
(0.0802047 -0.0825878 0)
(0.239737 0.167413 0)
(0.473251 0.408599 0)
(0.686657 0.687131 0)
(0.822385 0.967731 0)
(0.871786 1.1998 0)
(0.847531 1.37881 0)
(0.769873 1.5394 0)
(0.656626 1.71082 0)
(0.512047 1.87574 0)
(0.331045 1.9676 0)
(0.122296 1.90358 0)
(-0.0581295 1.7222 0)
(-0.118601 1.65929 0)
(-0.152057 1.51319 0)
(-0.173645 1.24948 0)
(-0.194143 0.92957 0)
(-0.230363 0.641692 0)
(-0.280121 0.39903 0)
(-0.325255 0.177516 0)
(-0.350052 -0.0318309 0)
(-0.344933 -0.213101 0)