/*--------------------------------*- C++ -*----------------------------------*\
| =========                 |                                                 |
| \\      /  F ield         | OpenFOAM: The Open Source CFD Toolbox           |
|  \\    /   O peration     | Version:  2.4.0                                 |
|   \\  /    A nd           | Web:      www.OpenFOAM.org                      |
|    \\/     M anipulation  |                                                 |
\*---------------------------------------------------------------------------*/
FoamFile
{
    version     2.0;
    format      ascii;
    class       volScalarField;
    location    "7.875";
    object      alpha.water;
}
// * * * * * * * * * * * * * * * * * * * * * * * * * * * * * * * * * * * * * //

dimensions      [0 0 0 0 0 0 0];

internalField   nonuniform List<scalar> 
4608
(
2.62587e-06
9.32602e-06
9.3351e-06
0.000537044
0.00144657
0.000602263
2.25077e-10
7.39788e-05
0.0249832
0.0442291
0.015946
1.91395e-10
1.39424e-06
8.79956e-05
0.000385188
0.000620191
0.000627579
1.00379e-05
1.04147e-05
0.00919126
0.00239888
0.00376604
0.000674578
2.18094e-10
1.35235e-08
0.000243535
0.000630537
9.77136e-05
9.71819e-05
0.0359112
0.0903628
8.67203e-10
8.61507e-10
8.9203e-10
9.20771e-10
1.42721e-06
7.52558e-08
0.000320424
0.000599928
1.75683e-10
0.0182389
0.130028
0.142151
0.0378592
8.35039e-10
1.4776e-05
7.24232e-05
2.44773e-05
7.35766e-06
0.000471793
0.000599102
1.51795e-10
0.0392082
0.142151
0.142151
0.11766
8.32682e-10
2.21223e-05
0.000110588
3.4553e-05
3.6146e-05
0.000618654
0.000579365
1.28341e-10
0.0114544
0.123852
0.142151
0.0896535
8.3501e-10
1.53828e-05
0.000113048
3.39822e-05
3.06968e-05
0.000371908
0.000253323
1.08667e-10
0.000108521
0.0201395
0.0607607
0.0172482
8.32672e-10
1.51942e-06
0.000125207
0.000216751
4.35556e-06
1.47497e-05
0.000131559
9.78655e-11
9.75432e-11
1.08066e-10
1.27039e-10
1.48174e-10
1.62357e-07
5.44041e-06
5.13079e-05
0.000247612
1.11852e-10
1.11275e-10
1.32282e-10
0.0149802
0.0340251
0.052492
0.0331482
1.52659e-10
1.50891e-10
2.2669e-06
1.24363e-06
3.93924e-05
9.41052e-11
9.41052e-11
1.10251e-10
0.0126456
0.0885132
0.119796
0.119428
0.07317
0.00141749
8.61061e-11
7.27334e-11
7.23869e-11
2.661e-05
1.39171e-05
1.41163e-05
0.000860201
0.00885496
0.0292767
0.0623513
0.0575205
0.0161336
7.18441e-11
5.52277e-11
5.53367e-11
0.000528168
0.000612366
0.00100507
0.0011749
0.00104937
0.000519065
7.22485e-05
0.000733956
0.000458983
0.000423408
0.00351087
0.004239
2.30265e-10
0.00418149
0.0727458
0.0890962
0.0890427
0.0885198
0.0351057
0.0031197
0.0253722
0.0494714
0.0316453
0.0228727
0.00118981
0.0480131
0.0707941
0.0398258
0.000214012
0.000162597
0.000111844
0.00386105
0.0502612
0.0840054
0.0897272
0.0897272
1.32015e-06
2.19601e-10
9.57195e-07
0.000480487
0.00247739
0.00237026
6.25074e-05
1.01839e-10
1.01839e-10
1.08931e-10
0.00608937
0.0566338
1.5059e-10
3.49944e-05
0.0040732
0.0063876
0.00638514
0.0062977
0.000379099
1.01839e-10
1.36219e-10
9.14741e-05
0.000275121
3.93945e-09
1.37788e-10
0.000631778
0.00611156
0.00638514
0.00638353
0.00415309
1.01993e-10
1.05137e-10
1.16655e-10
1.44086e-10
0.00143355
0.00626234
1.17344e-10
7.89379e-06
0.000313464
0.00312314
0.00501705
4.32863e-05
1.01978e-10
1.1417e-10
1.44147e-10
6.45226e-05
0.000198982
0.000148854
1.08885e-10
1.09166e-10
1.14005e-10
1.35805e-10
1.14347e-10
1.12973e-10
4.0205e-07
1.38962e-10
1.59996e-10
1.78253e-10
0.000123706
0.000599195
0.000517945
0.000922051
0.00166037
0.00173819
0.000257078
1.3062e-10
8.59868e-07
0.000340127
0.000997268
0.000178576
9.37077e-05
0.000690602
0.00015536
0.000306816
0.00133946
0.00174811
0.00160647
0.0001189
4.65732e-07
0.00098446
0.00288264
0.00188419
1.59993e-05
2.21127e-07
7.41764e-11
7.48123e-11
1.36225e-05
0.000326263
0.000693086
0.000315375
3.84296e-07
0.000710976
0.00289241
0.00260971
0.000156079
2.21141e-07
5.52277e-11
5.53372e-11
3.13861e-08
1.89481e-10
1.43776e-07
2.28799e-07
3.09983e-07
3.84291e-07
0.00247416
0.00157269
0.000123969
2.21159e-07
0.00418476
0.00109311
1.90679e-10
1.74873e-10
1.73827e-10
0.000595328
0.00234886
0.00217154
0.0016223
0.00389256
0.00352984
2.21172e-07
8.72286e-07
7.83854e-08
0.000663367
0.00668498
0.000825033
1.01644e-09
1.02105e-09
0.0002944
0.0017018
0.00942028
0.00999331
0.00753135
5.1824e-07
2.32741e-07
0.00277982
0.00543444
0.000632619
0.00538322
0.0206954
0.00574245
3.80138e-10
0.00100966
0.00133528
0.000306143
5.189e-07
0.000678629
0.00277963
0.000739308
0.000690344
0.0163927
0.0207596
0.00535182
3.60735e-10
4.01071e-10
0.00017799
0.000733909
2.63854e-05
0.000449157
0.00116385
0.00128406
0.00446508
0.0162922
0.0128225
0.000921931
3.70418e-10
0.000210026
0.000893464
0.000881689
0.000157047
0.000438656
0.000440854
0.00981669
0.033879
0.00401224
6.25053e-05
0.000315988
4.85779e-05
0.000116231
0.000856807
0.000837196
0.000233354
0.000455677
0.000482237
0.020037
0.0352036
0.0108403
3.13798e-10
3.47234e-10
4.35642e-05
1.20006e-05
0.000128639
0.000198571
0.000215427
0.000577842
0.000477128
0.0149616
0.0351694
0.0133048
3.13609e-10
6.76165e-07
1.03939e-05
3.63748e-10
3.50232e-10
3.38059e-10
1.97528e-05
0.00311648
0.0109984
0.011549
0.0179572
0.00629413
3.1376e-10
2.47196e-05
0.000229958
0.000149789
0.000182785
3.12753e-10
1.97528e-05
0.0085334
0.025988
0.0208259
3.05231e-05
4.05216e-05
0.000101841
4.47646e-06
0.000217095
0.000953962
0.000954248
0.000946152
1.97528e-05
0.00928484
0.025988
0.025988
0.0011511
2.70269e-05
3.66288e-05
5.14724e-06
2.24501e-05
0.000146924
0.000360048
0.000601102
0.000118214
0.00509813
0.0170045
0.017984
0.0117244
0.00336874
2.09522e-07
2.27432e-07
1.41139e-10
1.43879e-10
2.00238e-05
3.07111e-05
4.38737e-05
0.000684835
0.000721123
0.000435152
0.000832293
0.00133751
0.000882163
1.26345e-05
1.39911e-10
0.00188351
0.00283456
0.00286044
0.00262523
0.00164085
5.88657e-10
6.37649e-10
0.00113774
0.014589
0.019292
0.0191625
0.00281514
0.00148623
9.22749e-06
7.43338e-06
9.73335e-05
2.32665e-05
6.22416e-10
0.00420271
0.0191956
0.0192185
0.0190777
0.0102966
0.00557442
0.00643195
0.0113924
0.00902629
6.28729e-06
6.58757e-10
6.54947e-10
0.00284482
0.010571
0.00358398
9.17043e-10
9.15646e-10
9.35398e-10
0.00227943
0.0193155
0.0295792
4.64267e-05
0.000524421
0.00707556
0.00943099
0.0100961
0.00716225
3.51e-05
9.15547e-10
9.27445e-10
9.24286e-10
9.278e-10
0.00230523
2.18966e-05
0.000311583
0.00658559
0.00908782
0.00944241
0.00697812
0.000111916
9.43808e-10
9.56136e-10
9.5044e-10
1.44691e-07
2.96208e-09
1.94868e-05
6.40467e-07
0.000175595
0.00128325
0.00260816
0.000730515
3.69736e-10
0.00358778
0.00987918
0.00657028
1.49061e-07
6.31871e-05
5.55667e-07
5.03981e-09
3.32222e-10
3.17566e-10
3.17659e-10
3.18667e-10
3.44894e-10
0.0102843
0.0213544
0.0213358
0.00828303
1.76123e-06
3.12918e-10
3.12728e-10
3.12872e-10
3.19841e-10
7.56635e-06
1.22436e-05
3.65032e-10
0.00488401
0.0185461
0.0213544
0.0213358
5.59925e-06
0.000538644
0.000239761
0.000213383
0.000156869
2.15072e-05
2.15483e-05
3.66231e-05
1.83142e-10
1.80297e-10
0.00693351
0.00922749
0.0070033
0.000571471
0.000222942
2.11664e-05
1.31098e-06
8.62019e-07
6.04731e-05
2.13969e-10
1.93405e-10
1.8186e-10
1.64715e-10
1.656e-10
0.0149771
2.9451e-05
8.38368e-06
8.8526e-11
0.00187845
0.0160687
0.018294
0.00859076
0.00237225
0.000443039
5.4717e-08
1.64719e-10
0.00857795
0.00147726
7.45675e-06
1.00612e-10
2.80572e-07
8.77115e-11
0.0159171
0.0225636
0.0225869
0.0114796
2.06812e-10
1.54944e-07
6.98489e-10
1.38226e-07
1.94412e-08
0.000938967
0.0095144
0.081202
0.0178942
7.66143e-10
0.00114854
0.00484106
0.0041684
0.0107014
0.0853422
1.87671e-07
5.40692e-05
0.052376
0.097802
0.097802
0.0270557
7.60027e-10
0.000257797
0.000407891
0.000403035
0.00232811
0.0210579
2.91482e-07
2.91729e-07
0.0178309
0.0879192
0.0410153
7.84254e-10
7.58932e-10
8.08236e-10
8.43942e-10
0.0593035
0.139733
0.140334
1.76755e-08
0.000218892
0.00849878
0.013855
0.0025065
7.83362e-10
1.38439e-06
8.38263e-10
0.0543144
0.139733
0.140334
0.086754
1.76728e-08
0.000347496
0.00184566
4.05519e-10
1.68292e-09
4.95625e-06
3.66744e-06
0.000115744
0.0208294
0.0388388
0.0158602
0.0036793
1.56738e-06
0.000131354
3.74872e-10
3.82237e-10
2.81178e-07
1.61536e-06
4.03522e-10
0.000526339
0.00133664
4.73416e-10
4.50383e-10
4.49843e-10
1.70726e-08
2.0544e-05
3.52215e-10
3.52216e-10
3.52216e-10
3.82742e-10
3.78427e-10
0.000164396
0.000654819
0.000486365
4.28597e-10
4.28784e-10
7.79305e-05
0.000607201
0.0130662
0.0382458
0.0372339
3.52682e-10
3.52309e-10
3.75615e-10
0.000339841
0.00146709
0.00146425
0.00134103
3.96136e-05
0.00109895
0.050728
0.124441
0.124441
0.0959944
0.0165096
3.78093e-10
3.63533e-10
0.000280752
0.000691673
0.000696096
6.83751e-10
6.97053e-10
0.0247533
0.105118
0.124441
0.124441
0.0620438
2.3305e-06
3.39837e-10
3.56512e-10
3.63203e-10
3.69492e-10
0.000216949
0.00191489
0.0025451
0.00684716
0.0419517
0.0404351
0.0220356
0.001541
3.53378e-10
3.73414e-10
3.42215e-10
0.00650773
0.00341276
0.00665566
0.00672579
0.00671909
0.00392516
0.00177624
0.0018183
0.00217609
0.00125962
1.60018e-05
3.43073e-10
0.00721126
0.0930187
0.091682
0.0117119
2.13355e-09
2.22644e-09
0.00107432
0.00903475
0.0319336
0.0465324
0.0186933
0.0186933
0.0186933
0.0213303
2.22803e-09
1.14312e-05
2.1635e-09
0.00144444
0.0602487
0.0981078
0.0762049
0.0465609
0.0406488
0.03476
0.0198789
0.108651
2.18393e-09
2.18421e-09
5.0142e-10
0.0106522
0.087624
0.0980554
0.0928505
0.0813976
0.112859
0.112943
0.109673
4.99408e-10
0.00218075
3.67594e-05
4.52527e-10
4.52647e-10
4.52526e-10
4.52536e-10
4.52536e-10
4.52536e-10
4.7596e-10
0.0598814
0.115458
4.76063e-10
9.31457e-05
0.000402421
0.000383678
4.55397e-10
4.92984e-10
4.8643e-10
9.30677e-06
4.89864e-10
4.88359e-10
4.62367e-10
4.61793e-10
4.73016e-10
0.000126884
0.000476501
0.00047951
0.000247656
7.35623e-05
7.35585e-05
9.64567e-05
0.00061233
0.000909622
0.000667876
0.000932318
4.58249e-10
1.6375e-05
5.91934e-05
6.64772e-05
0.000573351
0.000896997
0.000632518
9.13131e-05
0.00150707
0.00986421
0.011546
0.00188144
4.4998e-10
4.50294e-10
4.51662e-10
4.98909e-08
0.000235942
0.000896269
0.000896997
0.000511845
0.000683895
0.0103055
0.012882
0.00182803
0.00106062
0.0016306
0.00163557
0.00068394
5.88222e-05
5.84989e-05
0.000667493
0.000171673
1.16276e-09
0.000533655
0.0108995
0.00763616
3.75617e-10
0.000293125
0.000935658
0.000930701
0.000926207
0.00056728
1.51794e-06
1.16178e-09
1.14965e-09
1.14942e-09
1.15334e-09
0.0186006
0.011006
0.00367628
1.48112e-05
1.67412e-05
0.000371139
0.000659487
0.000575428
0.000267395
2.91e-05
1.16389e-09
1.16721e-09
0.011426
0.0129741
0.0129733
0.0106294
0.00060033
7.28869e-11
1.36887e-05
1.29266e-11
1.7907e-05
0.0454365
0.104585
0.0649197
0.00390484
0.208337
0.207376
0.190555
0.123208
0.00409626
3.73222e-10
4.06901e-10
0.000867807
0.104556
0.169733
0.169733
0.169733
0.0235763
0.00732316
0.00441458
0.00841485
4.21954e-10
4.0278e-10
0.00231551
0.0750181
0.103582
0.102532
0.0366133
0.0432497
0.00321353
3.31984e-10
3.32483e-10
3.59708e-10
3.92415e-10
0.00532324
0.0177037
0.0157806
0.00138964
0.00305949
3.06734e-10
3.10334e-10
0.00103082
3.05682e-10
3.05689e-10
3.30619e-10
0.000229882
0.00610786
0.00762349
2.78206e-10
2.85926e-10
2.71754e-10
2.76556e-10
2.77954e-10
2.05541e-05
2.041e-05
2.9722e-10
3.25506e-10
0.00063877
0.0016155
2.88129e-10
2.59077e-10
2.59009e-10
2.47309e-10
2.47306e-10
2.50788e-10
2.06991e-05
2.22559e-05
9.10479e-09
3.89503e-05
0.000201866
3.53558e-09
5.05583e-08
7.04833e-08
2.63969e-10
1.27745e-08
1.80515e-08
2.71674e-10
0.000267186
4.35677e-07
9.7723e-07
1.1759e-05
8.32826e-10
4.06737e-09
2.14666e-07
2.99762e-07
2.59641e-07
1.21857e-08
1.96146e-08
7.36697e-09
0.00113181
6.54834e-09
1.07275e-06
1.88415e-06
8.40806e-10
2.27005e-10
2.27057e-10
2.27654e-10
1.53295e-07
2.5227e-08
1.28702e-09
7.82557e-10
0.00236661
6.31594e-09
1.10313e-06
1.95681e-05
0.000127531
5.30484e-05
0.000106029
3.84365e-05
2.24579e-10
2.24567e-10
2.24568e-10
2.24563e-10
0.00245832
6.54813e-09
1.10311e-06
7.83957e-06
0.000122181
0.000729234
0.0007828
0.000784863
0.000779513
0.000489773
9.3886e-05
1.62892e-05
0.00200211
6.3159e-09
6.55278e-09
8.81938e-07
4.6948e-06
9.64466e-05
0.000184765
0.000307954
0.000290584
0.000459544
0.000447375
0.000147692
0.000892201
0.00178578
0.00227831
0.00227675
0.000734177
5.52505e-05
1.37191e-05
1.36624e-05
1.83059e-05
2.56327e-05
4.9635e-05
5.04944e-05
0.169733
0.169733
0.169733
0.168841
0.0911921
0.124128
0.169731
0.16964
0.160645
0.16918
0.169731
0.169731
0.0175663
0.00957466
0.00787083
0.0156289
0.0218417
0.0146929
0.00269599
0.00309919
0.017753
0.0328214
0.0493694
0.06983
3.54811e-10
3.83446e-10
0.00650115
0.0247074
0.0224548
0.00474886
1.18696e-09
1.18691e-09
1.19626e-09
1.23239e-09
1.25535e-09
1.26042e-09
0.00257986
0.02366
0.0247074
0.0247074
0.0073998
1.22133e-09
1.22175e-09
1.2266e-09
0.000647799
0.00456702
0.00682866
0.00294485
2.81955e-10
0.00649179
0.0199746
0.0104851
7.9336e-06
8.05071e-06
2.87699e-05
2.67557e-05
2.69837e-05
0.00433548
0.0148301
0.0101423
6.95834e-05
0.000465054
0.000671197
1.37331e-05
1.36848e-05
1.45031e-05
5.70041e-05
5.7288e-05
3.49591e-05
8.43286e-05
0.0148429
0.0265634
1.64508e-06
7.12071e-05
0.000381862
0.0004668
0.000150798
2.27615e-06
1.16673e-05
3.49253e-05
7.62871e-06
7.26332e-06
0.00151798
0.0234698
6.57589e-10
5.74978e-10
0.000139154
0.000467925
0.000262015
2.24826e-06
2.27616e-06
2.24829e-06
2.27619e-06
6.75329e-06
4.51765e-06
4.51765e-06
7.13807e-06
4.99421e-06
5.34562e-06
5.36013e-05
1.7127e-05
2.73162e-05
0.000230307
0.000451294
0.000143534
1.83955e-05
4.51766e-06
4.51765e-06
8.01451e-06
8.30043e-07
2.97145e-10
2.82295e-10
2.85034e-10
2.6342e-10
0.00150778
0.00235343
0.00208991
0.00146506
0.000629141
4.55754e-06
3.27157e-10
2.99487e-10
2.86614e-10
2.67062e-10
2.6342e-10
2.6342e-10
0.000227625
0.00220058
0.00244633
0.00244948
0.00234759
0.000443884
2.19056e-05
1.44472e-06
3.00923e-10
2.65994e-10
0.000578682
0.00105809
0.00075522
1.09083e-05
2.90122e-06
3.81791e-05
0.000918143
0.00136347
0.00112265
0.00295823
0.00299426
0.00168325
9.92256e-05
5.65383e-06
5.66045e-06
5.65381e-06
5.66043e-06
0.000997588
0.00412881
0.00424158
6.64451e-10
0.000537401
0.00208646
0.00322964
0.0031828
0.000875855
5.65383e-06
1.02917e-05
2.80121e-05
2.14084e-05
1.48582e-10
0.00116209
0.44663
0.140972
0.00600917
0.00317889
0.00319258
0.00199977
4.09071e-05
4.04704e-06
5.40464e-06
7.76461e-07
1.42901e-10
1.43656e-10
0.996092
0.99434
0.627003
0.0733081
5.65386e-06
2.4616e-06
1.60096e-06
1.71785e-06
1.60096e-06
7.28525e-05
0.0105021
0.0122897
1
1
0.995544
0.967932
0.949436
0.859456
0.453505
0.0335542
1.72193e-06
1.60097e-06
0.00131821
0.0169773
1
1
1
1
1
1
0.999506
1
0.880461
0.406815
0.0358313
0.0183919
0.996635
1
1
1
1
1
1
1
1
1
0.930691
0.356055
0.98523
1
1
0.999999
0.999992
0.999998
1
1
1
1
1
1
0.970677
1
1
0.999956
0.999771
0.999765
0.99988
1
1
1
1
1
0.936633
1
0.999945
0.999874
0.999882
0.999967
1
0.988772
0.974689
0.98419
1
1
0.973255
1
0.999999
0.999998
1
1
1
1
0.911097
0.479648
0.489654
0.875499
0.788232
0.999999
1
1
1
1
1
1
0.897535
0.427456
0.407711
0.610226
0.00424433
0.00392063
0.000506074
2.13115e-10
1.88219e-10
0.00385639
0.00661069
0.0065264
0.00141779
0.00884474
0.0134994
0.00771447
0.00420066
0.00424433
0.00153564
2.39931e-10
5.48977e-07
6.38474e-07
8.79681e-06
2.05412e-06
2.08622e-06
2.05412e-06
0.0105173
0.0151151
0.00023136
0.00101684
0.00105079
0.000236333
6.385e-07
7.42849e-07
2.65307e-05
0.000129012
0.000146551
6.12899e-05
2.37388e-05
0.00502572
0.00503328
3.59479e-05
3.56531e-05
3.59479e-05
0.000102303
0.00027997
0.000323943
0.000560277
0.000881764
0.000651002
8.24907e-05
5.4164e-05
0.0191468
0.0151081
0.00156959
3.56531e-05
0.000558423
0.000947029
0.000865889
0.00017658
0.00148214
0.0029263
0.00286469
0.000966294
0.0190866
0.019105
0.0177409
0.00430964
7.84843e-05
7.6489e-05
7.56369e-05
7.32925e-05
7.56367e-05
0.00184285
0.00455367
0.00458332
0.0179704
0.0154402
0.0167854
0.00937001
0.000108334
0.000464987
0.000540253
0.000155547
0.000119468
0.000118473
0.000599
0.003425
0.586058
0.0349861
0.00251732
0.00261704
0.00260703
0.00254582
0.0022723
8.45902e-05
0.000716832
0.00193062
0.00245676
1.35047e-10
0.996495
0.486327
0.0100605
0.000166656
0.000595688
0.000587558
0.00032369
7.86526e-05
6.16341e-10
6.36703e-10
0.0407751
0.071741
1
0.94426
0.243384
6.58041e-10
6.69644e-10
6.40681e-10
6.72133e-10
6.20283e-10
6.60548e-10
6.09691e-10
6.5167e-10
0.274356
1
1
0.615114
0.0349641
0.0333978
0.0919373
0.157515
0.223872
0.240074
0.0811495
0.0567555
0.421886
0.995884
1
0.790907
0.442222
0.588506
0.73473
0.829086
0.884735
0.930546
0.866653
0.616169
0.729617
0.000572322
5.32747e-05
3.29518e-10
3.48679e-10
3.14641e-10
3.34188e-10
3.0345e-10
0.000123526
0.00088373
0.000916534
0.00157275
0.00249796
0.0146069
0.0063544
0.000292895
0.000776356
0.00100569
0.000418906
1.65575e-05
5.1273e-06
1.96855e-06
0.00694855
0.0108253
0.0105023
0.00544116
0.00382865
0.0032577
0.00395992
0.00391852
0.00351138
0.000275749
5.17157e-06
1.96411e-06
0.000635958
0.00179
0.00123343
6.74295e-05
1.70067e-05
1.74376e-11
2.02697e-11
1.19707e-05
3.35222e-08
0.00056522
0.0051447
0.00470618
0.000546272
9.12406e-05
9.04964e-05
5.93793e-05
4.55237e-11
1.65796e-11
5.33546e-14
6.96752e-14
2.80996e-08
2.12834e-10
0.000105731
1.84649e-12
0.0162266
0.149506
0.257514
0.00356069
0.000207995
3.51202e-11
2.60891e-11
6.55888e-10
9.67061e-10
3.57148e-10
5.21452e-14
2.04339e-21
5.50927e-12
0.423504
0.928521
0.00313681
0.000524037
4.8228e-11
7.32781e-08
4.32454e-08
9.40387e-10
-2.53998e-11
-8.40531e-11
-5.73953e-11
1.44375e-13
0.498344
0.999611
1.29642e-10
8.99531e-11
1.39516e-10
6.1001e-07
6.26682e-07
1.73787e-08
1.91524e-11
9.23978e-12
1.80901e-20
1.13473e-11
0.592652
0.999611
0.126509
0.120934
0.0217427
2.71228e-11
2.46775e-11
2.525e-11
5.66365e-14
4.73523e-14
3.24949e-21
0.0203349
0.751117
0.999613
0.813003
0.931263
0.749778
0.275978
0.203765
0.186479
0.0487225
2.75351e-11
2.12085e-20
0.043975
0.772929
0.999612
0.965151
0.977656
0.977676
0.874493
0.594602
0.624367
0.629787
0.445541
0.149891
0.261698
0.879323
0.999611
0.86149
0.84918
0.942066
0.833893
0.58031
0.611601
0.863214
0.868736
0.858114
0.833867
0.799963
0.828779
0.00239739
0.000348194
1.1485e-10
1.23815e-10
8.43296e-11
8.5909e-11
0.00711681
0.0138309
0.00971114
0.000927305
1.65811e-09
3.91487e-08
0.00256258
3.81831e-05
4.09527e-05
7.12913e-06
1.06952e-10
7.43696e-11
6.96164e-05
8.38647e-05
7.48852e-11
8.34059e-11
1.21765e-10
1.06569e-10
0.000955904
0.000942251
0.000773448
8.91582e-05
8.36781e-11
6.13189e-11
3.31104e-11
6.41332e-11
6.52414e-11
0.0136536
0.055044
0.0667235
9.12406e-05
9.97334e-05
0.000103104
0.000118637
1.67096e-05
3.32944e-11
1.17107e-11
0.0274047
0.202298
0.468428
0.675245
0.714296
0.139539
0.00485593
4.82365e-11
2.16416e-11
1.29115e-07
6.29663e-08
2.5914e-17
0.149346
0.80296
1
1
1
0.867384
0.290505
0.00180717
2.61847e-11
4.52401e-12
3.70057e-10
4.31682e-20
0.284202
0.958114
1
1
1
0.99961
0.943147
0.333575
0.00169175
-7.48414e-10
-2.03634e-09
-6.14471e-10
0.368818
0.988174
1
1
1
0.999611
0.999613
0.897918
0.199692
2.65834e-11
-1.33842e-10
-1.38189e-11
0.462536
0.998751
0.999998
0.999979
0.99997
0.999612
0.999613
0.999612
0.605079
0.0164446
2.12175e-11
5.45645e-20
0.526155
1
1
0.999869
0.999849
0.999612
0.999612
0.999613
0.829383
0.0940189
2.23337e-11
1.22214e-11
0.449242
0.998779
1
1
1
0.999612
0.999612
0.999612
0.955479
0.235673
3.89434e-11
1.18699e-11
0.295188
0.96872
0.997446
0.988142
0.964871
0.927216
0.999612
0.999611
0.91214
0.450503
5.61785e-11
1.6564e-11
0.253023
0.797097
0.823663
0.74749
0.66912
1.43407e-10
1.4384e-10
1.43393e-10
1.44064e-10
1.68922e-10
1.65333e-10
7.24148e-05
0.00824967
0.011744
0.0124232
0.00597237
0.00378197
1.71244e-10
1.72333e-10
1.74623e-10
1.74474e-10
1.97815e-10
1.90979e-10
2.1469e-10
2.23363e-10
2.16291e-10
0.0244928
0.0362621
0.0364483
0.124077
0.191088
0.25405
0.270283
0.190215
0.0957447
0.038779
0.003783
3.0807e-10
3.23869e-10
0.00767641
0.0319397
0.777224
0.843931
0.908818
0.948887
0.983732
1
0.923908
0.607696
0.25434
0.03912
0.00019974
0.000140373
1
1
1
1
1
1
1
1
1
0.895465
0.284935
0.00242854
1
0.999899
0.99942
0.999392
0.999787
0.999997
1
1
1
1
1
0.5056
1
0.999998
0.998856
0.998739
0.998784
0.999888
1
1
1
1
1
0.993909
0.999992
1
1
0.999854
0.99967
0.999752
0.999995
1
1
1
1
1
0.999923
1
1
1
0.999999
0.999997
0.999997
1
1
1
1
1
1
1
1
1
1
1
1
1
1
1
1
1
0.928462
0.891157
0.865209
0.860261
0.908453
0.982276
0.989338
0.977097
0.975794
0.97838
0.961738
0.914558
0.604876
0.526086
0.453161
0.417765
0.451153
0.68075
0.824818
0.797672
0.733372
0.649547
0.574669
0.52973
0.00466135
0.0129741
0.0108025
0.0014535
6.19604e-11
3.91647e-11
1.50028e-11
1.94074e-15
0.0468982
0.639155
0.925796
0.551555
0.0164593
0.000802272
0.000864365
0.000611358
7.67376e-05
4.13251e-11
1.89413e-11
5.70404e-15
0.0261339
0.776603
1
0.968841
0.0324649
0.00432443
8.48667e-06
7.8227e-06
4.4399e-06
5.27945e-07
2.39028e-11
1.9408e-15
2.00304e-11
0.661231
1
1
0.00428016
0.0050245
0.00249797
3.34573e-11
2.8527e-12
2.62068e-12
2.91665e-12
5.70411e-15
2.34735e-12
0.588524
1
1
0.000140373
0.000800358
0.000816373
0.000207933
3.25524e-11
2.71058e-11
1.78025e-11
2.3355e-12
5.7041e-15
0.480723
0.999483
1
0.0125362
2.41451e-10
8.49407e-05
0.000340639
0.000204017
1.77883e-05
3.16011e-11
7.19065e-12
1.94079e-15
0.333054
0.979016
1
0.359913
0.000255217
2.06846e-05
0.000413833
0.00043897
0.00022132
3.60785e-11
1.21214e-11
5.70418e-15
0.178801
0.914686
1
0.757806
0.066415
2.24947e-10
3.64891e-05
4.60998e-05
4.38109e-05
1.05558e-05
2.33046e-11
1.94081e-15
0.0579027
0.774201
1
0.919774
0.191025
1.84037e-10
2.03468e-10
0.0030314
0.00181723
4.76947e-11
2.16487e-11
1.44374e-13
1.12414e-11
0.503734
0.995537
1
0.353404
2.18117e-10
0.0364881
0.230996
0.319203
0.158885
0.00452508
2.22422e-11
3.51543e-12
0.223396
0.917094
0.813246
0.243709
1.97786e-10
0.254711
0.552229
0.55221
0.499653
0.0909705
2.67234e-11
1.30078e-12
0.0348163
0.641734
0.304586
0.0214024
0.00183403
0.00337686
0.361262
0.552229
0.552117
0.259524
0.0132202
1.08853e-11
8.65032e-12
0.206062
0.0695538
2.69454e-05
1.37054e-05
0.00247879
0.0201118
0.0203901
0.0204595
0.0096009
0.00174019
0.000994224
0.000824532
0.000426654
0.916063
0.699043
0.206196
0.00125637
9.59625e-05
0.000548546
0.0134388
0.0202862
0.0203428
0.0130693
0.000247469
0.000180621
1
0.999851
0.999995
0.910708
0.336019
0.00367037
0.00139895
0.00157983
0.00159105
0.00153463
0.00167183
0.000569986
0.999996
0.999997
0.999996
0.999995
0.999996
0.910209
0.433861
0.0284165
0.00422367
0.00217437
0.00244355
0.00514154
1
1
0.999952
0.999905
0.999892
0.99989
0.994008
0.986604
0.862654
0.538453
0.484034
0.514439
1
1
1
0.999351
0.999305
0.999436
0.999967
1
1
1
1
1
1
0.999999
0.999993
1
0.999694
0.998628
0.998617
0.999231
0.999919
0.999998
1
1
1
1
1
1
1
0.999791
0.998153
0.998064
0.998077
0.999379
0.999965
1
0.999984
0.999954
0.999985
1
1
1
0.999788
0.999551
0.999676
0.999982
0.999236
0.996438
1
1
0.999787
0.993272
1
1
1
1
1
1
1
0.973014
0.998655
1
1
0.999344
0.879932
0.50491
0.342884
0.526255
0.936016
1
1
0.999999
0.874636
1
0.997521
0.918657
0.54534
0.055473
0.00854275
0.0119622
0.287161
0.912655
0.928429
0.843872
0.000292242
0.000129005
1.3067e-05
4.08235e-07
4.56296e-07
0.000691368
0.00139315
0.00141476
0.000789287
0.000191016
6.13215e-06
6.81146e-06
0.000440173
0.000583896
0.000591877
0.000149928
5.17002e-06
0.000180078
0.000311439
0.000117402
1.06687e-12
0.00473054
0.0273953
6.56876e-10
7.35729e-05
5.0666e-05
0.000217539
0.000277016
0.000198079
5.01136e-06
2.75311e-11
-5.95238e-12
-5.65219e-11
-3.69844e-11
0.13392
0.445815
0.00295489
3.47909e-05
8.91706e-10
8.57623e-10
3.50622e-05
3.94183e-05
3.4754e-06
2.34394e-11
-2.19898e-10
-4.6836e-10
8.57261e-13
0.583309
0.540524
0.440182
0.194239
0.0134684
4.52746e-06
4.54638e-06
4.02864e-06
3.00686e-07
2.26468e-11
-1.4837e-09
-2.62452e-10
0.482496
1
1
1
0.744599
0.106506
6.20939e-08
7.10525e-08
4.61384e-08
9.14025e-09
2.71875e-11
4.9347e-20
0.465522
1
1
1
1
0.894444
0.217137
3.21805e-11
2.93845e-12
2.17724e-12
7.64303e-13
5.63281e-20
0.41681
1
1
1
1
1
0.774789
0.0863792
2.61923e-11
1.84165e-11
4.73374e-12
4.15476e-20
0.326297
0.999621
1
1
1
1
0.983377
0.331937
5.24444e-11
2.7951e-11
8.58137e-12
5.15525e-20
0.270488
0.776374
0.706735
0.856658
0.994615
1
1
0.609886
0.0110984
3.56275e-11
1.39195e-11
1.01247e-13
0.180679
0.58319
0.0411656
0.045069
0.593758
0.988839
1
0.73723
0.074092
0.0089373
0.00135228
3.7862e-12
0.275698
0.566996
0.0342982
0.00371836
0.0219897
0.688414
1
0.693584
0.563466
0.582407
0.514642
0.210767
0.246121
0.571511
0.606439
0.526949
0.397184
0.293439
0.3517
0.40127
0.492048
0.635423
0.926601
0.922518
0.964852
0.210899
0.357083
0.255328
0.00993719
1.9811e-10
2.06584e-10
0.010906
0.0940252
0.381259
0.681228
0.84951
0.909837
0.0813557
0.220159
0.208523
0.0168953
1.8021e-10
1.80079e-10
2.06441e-10
0.00779391
0.0420827
0.0817399
0.169648
0.25626
0.0238678
0.0950191
0.121997
0.0372789
1.80049e-10
5.11976e-07
1.18044e-06
4.24838e-08
2.40275e-10
2.2246e-10
2.41993e-10
2.63229e-10
0.00241802
0.0554499
0.108778
0.0792874
1.80269e-10
2.26501e-10
4.92412e-07
5.68169e-06
5.19167e-06
2.40898e-10
3.62629e-06
1.43703e-06
0.00199329
0.0197249
0.0332339
0.0366446
0.0209169
3.01016e-10
3.00989e-10
3.25143e-10
0.00047579
0.000578121
0.000321177
0.000581301
8.9601e-06
1.69576e-09
5.51498e-06
7.15547e-05
0.00112335
0.00088287
0.00132777
0.00521525
0.00656684
0.00552751
0.0043199
0.0038477
9.22423e-05
1.68461e-09
4.4847e-06
8.84845e-06
4.94978e-10
5.0822e-10
0.00137049
0.00667727
0.00724624
0.00724624
0.00724624
0.0031348
1.88575e-05
1.67506e-09
1.31977e-08
4.69323e-10
4.83812e-10
4.99566e-10
0.000147261
0.00223263
0.00583725
0.00715292
0.00272677
1.74136e-05
1.77985e-09
1.77371e-09
1.79624e-09
2.63569e-09
4.95397e-10
9.01268e-07
1.01817e-05
3.51261e-05
0.000166934
0.000393315
0.000100277
1.79299e-05
6.01513e-08
1.86352e-08
1.82684e-09
2.09436e-08
1.06899e-07
1.10413e-07
2.2067e-08
2.76498e-10
2.60653e-10
2.44306e-10
2.27903e-10
3.8452e-06
5.42244e-10
5.49631e-10
1.10424e-08
1.063e-08
2.04867e-08
7.62842e-08
9.60847e-08
9.61003e-08
7.16596e-08
2.29034e-10
2.0974e-10
1.31013e-10
0.973932
0.941126
0.927662
1
1
1
0.989407
0.978146
0.985837
0.951729
0.681047
0.454907
0.958288
0.95773
0.91455
0.902265
1
1
1
1
1
0.994921
0.783252
0.493421
0.370679
0.46593
0.376607
0.50085
1
1
1
1
1
0.999416
0.973114
0.883415
9.71462e-05
0.00250421
0.000693065
0.226249
0.890832
1
1
0.999999
0.999999
1
1
1
3.24969e-10
3.26059e-10
3.23983e-10
0.00405327
0.291978
0.727107
0.942841
1
1
0.999999
0.999997
0.999997
0.000759744
0.000319611
2.44911e-05
5.38344e-10
5.51747e-10
0.0978307
0.483728
0.858621
1
1
0.999999
0.999998
0.00170404
0.000112193
0.000107604
6.59841e-05
5.57932e-10
5.47923e-10
0.000748921
0.269268
0.706946
0.957351
1
1
7.68854e-05
0.000149696
0.000395615
0.00073573
0.000655578
0.000357734
0.000114051
0.000111376
0.0802826
0.482327
0.808953
0.957852
7.77077e-05
0.000134917
6.91077e-05
0.00113185
0.00178988
0.00178989
0.000935992
0.000107932
3.33175e-07
3.289e-07
0.138296
0.603785
4.30894e-05
5.84745e-05
2.70451e-05
8.04251e-05
0.00105432
0.00161402
0.00162487
0.000923503
7.07686e-07
1.33308e-05
2.15033e-10
0.0265208
2.43748e-06
2.33163e-05
2.93529e-05
2.97633e-09
5.42201e-10
5.48526e-10
0.000182477
0.000162557
0.000291743
0.000109554
2.09578e-10
2.19826e-10
1.37695e-10
7.86714e-07
9.20328e-06
5.04402e-07
5.98907e-10
5.38394e-10
5.36217e-10
1.27647e-06
5.21283e-05
3.03525e-05
5.24525e-06
2.14193e-10
0.454934
0.454907
0.731199
0.83848
0.57557
0.495233
0.494832
0.544702
0.539827
0.557001
0.604453
0.469216
0.454907
0.536044
0.926044
0.9606
0.857507
0.760669
0.68192
0.690825
0.543125
0.299625
0.24978
0.245786
0.884407
0.859237
0.953124
0.989839
0.998846
0.998502
0.990753
0.977987
0.872582
0.714272
0.683475
0.833398
1
1
1
0.994133
0.997715
1
1
1
1
1
1
1
0.999999
1
0.999781
0.999445
0.998952
0.999738
1
0.999999
0.999999
1
1
1
0.999998
0.999998
1
1
0.999988
0.999912
0.999967
1
1
1
1
1
1
0.999999
0.999999
0.999999
0.999999
0.999999
0.999994
0.999999
1
0.999999
0.999998
0.999998
0.993107
1
1
0.999999
0.999999
0.999999
1
1
1
0.999999
0.999999
1
0.879125
0.994252
1
1
1
1
1
1
1
1
1
0.977341
0.328095
0.7879
0.967254
1
1
1
1
1
1
1
0.960051
0.53531
0.000855212
0.139543
0.567197
0.904232
1
1
1
1
0.989988
0.79615
0.458127
0.0396367
2.2075e-10
0.000272233
0.0292063
0.238215
0.53337
0.704714
0.766042
0.623227
0.353066
0.164485
0.0291733
4.92582e-11
0.192992
0.100155
0.0295336
1.05505e-07
0.00277712
0.000147034
0.0397848
0.292642
0.503283
0.489204
0.172753
0.151056
0.217134
0.0806042
0.00948493
1.05503e-07
1.05503e-07
1.05524e-07
0.00401555
0.0856568
0.189123
0.18854
0.0547358
0.0301995
0.723014
0.239014
2.49955e-07
3.08913e-07
2.65919e-06
1.0553e-07
0.000524684
0.00357031
0.00990654
0.0221435
0.0456924
0.0134921
0.933026
0.440713
0.0612148
1.05504e-07
1.05505e-07
1.05505e-07
1.05522e-07
0.000192047
0.00162347
0.00552763
0.0121753
0.014871
0.999972
0.856281
0.329512
1.0552e-07
1.05524e-07
1.05523e-07
8.95043e-06
9.7081e-05
0.000160854
0.00016402
0.00104213
0.00361105
1
0.996984
0.755617
0.247613
0.101389
0.059689
1.98897e-05
1.05983e-07
0.000122546
0.000390885
0.000355133
0.000130052
1
0.999988
0.982097
0.847738
0.737092
0.692159
0.406032
0.0655398
0.000118127
0.000140527
0.000243815
2.05408e-05
1
0.999995
1
1
1
1
0.99264
0.600633
0.0763713
7.02324e-05
8.25305e-05
7.62869e-05
0.868215
1
1
0.999999
1
1
1
0.983441
0.464231
0.0188549
2.87671e-11
9.21928e-05
0.278951
0.917796
1
0.999998
0.999998
1
1
0.999841
0.801524
0.184011
2.67463e-11
6.64848e-05
8.72176e-11
0.366628
0.998056
1
1
1
1
1
0.942508
0.377938
2.7473e-11
4.13638e-06
6.83109e-11
0.0156863
0.543368
1
1
1
1
1
0.99577
0.609129
0.0115711
1.53855e-11
0.328998
0.371798
0.126274
0.0608646
0.087364
0.0810677
0.00476485
0.00118164
0.00323048
0.106648
0.373569
0.520231
0.066642
0.0779857
0.00459237
3.1949e-10
0.000372245
0.00401521
0.00706194
0.00106253
3.97711e-05
0.00075082
0.0460414
0.243897
2.91939e-10
3.01828e-10
3.04046e-10
3.02095e-10
0.00996647
0.0212025
0.0212353
0.00924415
4.13229e-05
0.00366296
0.00619446
0.00700442
2.77801e-10
2.80448e-10
2.75048e-10
2.7543e-10
3.0035e-10
0.00674007
0.0169776
0.01591
2.18562e-10
8.86517e-06
1.98981e-10