/*--------------------------------*- C++ -*----------------------------------*\
| =========                 |                                                 |
| \\      /  F ield         | OpenFOAM: The Open Source CFD Toolbox           |
|  \\    /   O peration     | Version:  v1606+                                |
|   \\  /    A nd           | Web:      www.OpenFOAM.com                      |
|    \\/     M anipulation  |                                                 |
\*---------------------------------------------------------------------------*/
FoamFile
{
    version     2.0;
    format      ascii;
    class       volScalarField;
    location    "0.7";
    object      p;
}
// * * * * * * * * * * * * * * * * * * * * * * * * * * * * * * * * * * * * * //

dimensions      [1 -1 -2 0 0 0 0];

internalField   nonuniform List<scalar> 
11640
(
5196.95559135
5196.10361915
5194.60859898
5192.32831064
5189.70271537
5186.82010302
5183.39060904
5179.51975678
5175.61677888
5171.94822297
5168.59811763
5165.59735438
5162.93882549
5160.62486096
5158.71947336
5157.23316394
5155.99337793
5154.95768535
5154.23588932
5153.81687082
5196.33676541
5195.43731848
5194.09606815
5192.90573223
5191.81032699
5189.77600246
5186.24929835
5181.59137462
5176.72448856
5172.1272315
5167.88369246
5164.01420952
5160.49850556
5157.48549095
5155.39732237
5154.37789383
5153.87831727
5153.29955637
5152.63323992
5152.1214792
5195.08866334
5194.43500802
5194.6300841
5195.90622787
5196.53176243
5194.77033695
5190.17842914
5183.78312991
5177.14402682
5170.81241707
5164.89729657
5159.39769603
5154.26876485
5149.83372028
5147.00420084
5146.42128754
5147.60697267
5148.94855386
5149.1815011
5148.74069975
5193.22604496
5193.88313858
5196.94110334
5200.64182344
5202.28386388
5199.98480576
5193.676112
5185.00673801
5176.08989367
5167.66307318
5159.75748607
5152.31894236
5145.26727608
5139.06133438
5135.02589656
5134.30744741
5136.74696206
5140.70847347
5143.41743059
5143.79739527
5191.28623476
5193.88794441
5199.79157349
5205.3005018
5207.0667494
5203.65834836
5195.33067725
5184.14581679
5173.11259897
5162.80531288
5153.13501802
5143.97330079
5135.16039553
5127.2570227
5121.82421608
5120.5071866
5123.55702061
5129.47251849
5135.13441539
5137.34865816
5189.26427981
5193.73496447
5201.50407516
5207.92037713
5209.39289138
5204.6491549
5194.41322333
5180.69354259
5168.34861297
5156.88358919
5146.13471962
5135.81131816
5125.70773825
5116.46172662
5109.62546333
5107.39031335
5110.46675633
5117.49953368
5125.34290823
5129.61494956
5186.73520185
5192.21208015
5200.76105359
5207.44749156
5208.49734608
5202.7114769
5191.44830814
5175.30317418
5162.59880463
5150.94259636
5140.11501509
5129.19564714
5118.3575794
5108.07733798
5099.85438217
5096.61766644
5099.32144008
5106.84247568
5115.77495602
5121.35718903
5183.66658022
5189.36230369
5198.07422183
5204.71802499
5205.5995959
5199.479572
5187.62220404
5171.69886282
5158.8566828
5147.79514194
5137.25424264
5126.87501438
5115.40582138
5102.65557259
5092.71543256
5088.5822304
5090.76565852
5098.17958473
5107.31551445
5113.27774119
5180.37604912
5186.11556891
5194.78460423
5201.398971
5202.22044426
5195.97148709
5184.06041442
5168.38906735
5155.72804936
5144.56381188
5134.06258862
5123.33300839
5111.19670854
5097.27102852
5086.67193499
5081.77162266
5083.47869774
5090.61945048
5099.63232197
5105.58142555
5177.00747468
5182.75658775
5191.40064846
5198.0307103
5198.8767232
5192.7439901
5180.94096635
5165.57031543
5152.94021661
5141.53144411
5130.57977234
5119.1559314
5106.29549989
5091.69894072
5080.50113877
5075.11814598
5076.51690814
5083.49918513
5092.4675317
5098.4212179
5173.60469963
5179.37062857
5188.07022069
5194.73688433
5195.67598146
5189.71097426
5178.14046867
5163.08544467
5150.39954746
5138.59874321
5126.97139406
5114.60933246
5100.99113213
5086.06070322
5074.53274976
5068.90330092
5070.17299485
5077.16427264
5086.09930862
5092.16099642
5169.99938328
5175.34521297
5183.67382455
5190.16596767
5191.29678453
5185.97368495
5175.62391561
5163.43363566
5150.26018968
5136.80096732
5123.2418057
5109.39161802
5095.05661869
5080.54893975
5069.2318647
5063.80464561
5065.15793941
5072.16916426
5081.180038
5087.16779877
5166.04198446
5170.00655035
5176.97034889
5182.63906319
5183.64851765
5178.80957268
5168.97286983
5156.43785864
5143.23869721
5129.98026941
5116.58734621
5102.99617236
5089.19558373
5075.97038452
5065.922619
5061.44973106
5063.35035824
5070.27861399
5078.68069474
5083.83359972
5162.11061353
5163.99465293
5168.48235012
5172.56289384
5173.12711266
5168.75776832
5159.855696
5148.28389824
5135.84102677
5123.28039957
5110.68200904
5098.10034909
5085.74167816
5074.39444013
5066.22802587
5063.17496415
5065.57214391
5071.85946142
5078.60901567
5082.08332018
5158.80846119
5158.72552313
5159.94239939
5161.65694808
5161.16477119
5156.94247087
5149.00067704
5138.73049264
5127.7269405
5116.70643006
5105.78425619
5095.15959331
5084.95690535
5075.94548581
5069.8787316
5068.14136827
5070.59403003
5075.47086736
5079.66391822
5081.31662613
5155.90344578
5154.86195675
5153.4651268
5152.20022952
5150.0359903
5145.54822728
5138.46452306
5129.68855115
5120.43255838
5111.29844281
5102.41981863
5094.03397966
5086.23989973
5079.63908534
5075.49244613
5074.59395226
5076.39370865
5079.0635006
5080.65567513
5081.21646349
5153.59134042
5152.34672573
5149.81980482
5146.34748039
5142.161031
5136.91757549
5130.32233827
5122.80226887
5115.08856804
5107.59591314
5100.54933316
5094.12654768
5088.42343539
5083.82246369
5081.02462671
5080.23935625
5080.69156308
5081.15652351
5081.39539033
5081.82759913
5151.77879189
5150.47780227
5147.72444295
5143.62284856
5138.50904529
5132.61256912
5126.05934388
5119.17735958
5112.35219729
5105.81751821
5099.87082103
5094.64523611
5090.23066902
5086.794364
5084.53087231
5083.3008301
5082.56030774
5082.17189046
5082.32472726
5082.82509839
5150.54997919
5149.18440425
5146.35079398
5142.16789314
5136.89456507
5130.82652543
5124.28064711
5117.57728533
5110.99976517
5104.84105369
5099.31789397
5094.57891179
5090.70938188
5087.73635398
5085.61042123
5084.24307846
5083.50419323
5083.26967682
5083.45132557
5083.86556235
5149.94108465
5148.49672588
5145.60698551
5141.39817097
5136.11393393
5130.04807266
5123.5236314
5116.86286665
5110.37839308
5104.34692425
5098.98942264
5094.45336081
5090.82033554
5088.09389325
5086.21772884
5085.07663192
5084.50884728
5084.34343853
5084.43082027
5084.58785598
4871.35078343
4870.45887962
4868.89814208
4866.61591339
4864.21000834
4861.54188381
4858.03998979
4853.9158859
4849.7307527
4845.7904502
4842.17487989
4838.9145538
4836.000929
4833.54252471
4831.84055123
4830.86444608
4829.97355086
4828.99671538
4828.29964604
4827.92304916
4870.62995475
4869.72858885
4868.67140301
4868.35649905
4868.46284734
4867.20751055
4863.21405876
4857.40716092
4851.25036025
4845.39260241
4839.89563585
4834.77892808
4830.02323245
4826.06068559
4824.06390783
4824.5219405
4826.10634544
4826.92065622
4826.63916539
4826.18273027
4869.34946967
4869.03636244
4870.9102753
4875.34760519
4878.95058366
4878.3117143
4872.56104025
4863.49927135
4853.68328962
4844.33656107
4835.43176266
4826.95330824
4818.85857819
4811.90020927
4808.2501406
4809.47615953
4814.60241616
4820.17481991
4822.70281779
4822.71017794
4867.56493474
4869.7792927
4877.4594347
4887.20839522
4893.09830549
4891.74300565
4882.99958646
4869.75687072
4855.64901316
4842.17922498
4829.24954448
4816.80570553
4804.77602845
4794.14374091
4787.86392418
4788.57947007
4796.04989631
4806.89291431
4815.1109272
4817.55950732
4866.04676623
4872.58349069
4886.3096636
4899.88414436
4906.61557553
4903.48279555
4891.25812395
4873.63597667
4855.74549368
4838.59476223
4822.09350634
4806.14750396
4790.62302227
4776.57949112
4767.32843074
4766.54676176
4774.96649476
4789.56429903
4803.73281148
4810.35932036
4864.89198156
4875.60964181
4893.57295313
4909.39432958
4915.86401961
4910.43689895
4895.00454516
4873.39848632
4853.17384503
4833.67630501
4814.93848788
4796.80680121
4778.94996404
4762.412986
4750.32747292
4747.48033093
4755.72191723
4772.40975822
4790.7270086
4801.52911524
4863.03936853
4876.33311549
4896.33535496
4913.01889125
4918.88105458
4911.44260304
4893.3826972
4869.10909081
4847.91875344
4827.14859414
4807.4171161
4788.76040808
4769.91379038
4752.77129857
4738.55884842
4733.86886398
4741.41882775
4758.89706586
4779.20395179
4792.47430965
4860.1708496
4874.12631078
4894.68219867
4911.53886948
4917.19913111
4909.34123915
4890.84470754
4865.55243329
4844.76174545
4825.5754421
4807.21678946
4789.07678202
4769.96660258
4747.5532148
4731.31493891
4725.20509206
4732.03085701
4749.42122988
4770.11648411
4784.04313008
4856.84268665
4870.76900915
4891.37309786
4908.17881771
4913.81474057
4905.85602219
4887.34733248
4862.10144065
4841.53306351
4822.47241276
4804.27841183
4786.01400788
4765.90505232
4742.4669686
4725.05339548
4718.16212607
4724.49622572
4741.63030829
4762.23530334
4776.16473407
4853.44696136
4867.37194454
4887.96482982
4904.77362395
4910.41606647
4902.25736052
4883.87636465
4859.32986979
4838.84346503
4819.62294221
4801.02861305
4781.95808051
4761.20395492
4736.80248302
4718.67851482
4711.27340185
4717.29787746
4734.29094474
4754.89605595
4768.89508911
4850.01748674
4863.9434328
4884.52088122
4901.37330225
4907.03920084
4899.02428158
4880.74690955
4856.36058539
4835.83874791
4816.57250645
4797.37342593
4777.46857997
4755.8405998
4731.08493275
4712.5507071
4704.8636667
4710.7618822
4727.70049864
4748.49128278
4762.57361145
4846.22787599
4859.45588504
4879.48396065
4896.16392143
4902.27508304
4895.53035575
4878.93459118
4859.18550948
4838.06524327
4816.69334329
4795.03457773
4772.90223914
4749.86883549
4726.22678971
4708.0716105
4700.77557068
4706.96942725
4723.8965014
4744.25581577
4757.80193779
4841.62026117
4852.26790701
4870.01553056
4885.53793904
4891.79476024
4886.41953708
4871.31516446
4851.40303123
4830.40373376
4809.34360356
4788.10218082
4766.59973512
4744.67677137
4723.40089293
4707.79883742
4702.46042318
4709.27917567
4725.50499094
4743.97677142
4755.23157863
4836.7068822
4843.06271598
4856.29577393
4869.22739221
4875.25374821
4871.46023887
4858.73026703
4840.97671685
4821.73485058
4802.34970752
4782.88256813
4763.41429483
4744.16430737
4726.31970704
4714.02777709
4711.14849695
4718.41331674
4732.7103864
4747.20192455
4754.49683109
4832.74984196
4834.67063042
4841.5374074
4850.2432846
4854.82707791
4852.03413473
4841.80462348
4827.02793028
4810.94362948
4794.83946161
4778.87369559
4763.2097022
4747.93876267
4734.33072306
4725.7098457
4724.88137016
4731.61253481
4742.41894385
4751.19448827
4754.38127444
4829.81128399
4829.11350552
4829.94104647
4832.9039216
4834.66165663
4831.92981978
4823.94907217
4812.55191263
4800.22397757
4788.02438088
4776.19101415
4764.8208802
4754.05388103
4744.84864421
4739.56002809
4739.83205769
4744.66125725
4750.49526058
4753.77534834
4754.58995382
4827.43892219
4826.13376066
4823.88814985
4821.69990431
4819.51003563
4815.64981402
4809.04454029
4800.47241271
4791.43038345
4782.66889977
4774.41153305
4766.78325025
4759.90279279
4754.33617963
4751.33032496
4751.37971318
4753.11296326
4754.51020478
4755.07586369
4755.42022092
4825.61830264
4824.2644679
4821.43239919
4817.25122579
4812.34746993
4806.83408505
4800.36581742
4793.2315543
4786.05190878
4779.30259162
4773.13022835
4767.70890356
4763.13526036
4759.60799496
4757.45478438
4756.59883456
4756.22701742
4755.97974664
4756.17458372
4756.59967997
4824.40963691
4823.00275426
4820.09129627
4815.78251386
4810.36953504
4804.16194443
4797.48768402
4790.67617502
4784.0522892
4777.88335736
4772.38660242
4767.71935502
4763.95999237
4761.12823597
4759.16363971
4757.95760559
4757.35727005
4757.2012216
4757.41172354
4757.74870985
4823.83476279
4822.36134904
4819.39433258
4815.0723144
4809.65744615
4803.45515428
4796.80103616
4790.03866281
4783.48617145
4777.42676641
4772.08260733
4767.6049808
4764.06702031
4761.47268372
4759.74514559
4758.755597
4758.32347646
4758.25007215
4758.37000841
4758.50433708
4546.14609482
4545.26190762
4543.60153542
4541.47202935
4539.14058136
4536.46684414
4532.91095035
4528.69077695
4524.40884141
4520.37953508
4516.68852701
4513.36276895
4510.38843516
4507.88669986
4506.1969375
4505.33182415
4504.58487539
4503.67668273
4503.00146725
4502.67498099
4545.43504631
4544.52235265
4543.54775115
4543.48246101
4543.80226397
4542.51374585
4538.50237946
4532.47858052
4526.07739046
4519.97063268
4514.23588124
4508.89326779
4503.92066711
4499.77047351
4497.68930175
4498.25961995
4500.14794917
4501.32351458
4501.24201429
4500.83513783
4544.1136414
4543.95509379
4546.28685332
4551.2604274
4555.11755307
4554.41584057
4548.33476706
4538.79219483
4528.66958693
4518.91658248
4509.60664856
4500.74166662
4492.28148483
4484.99221986
4481.10457771
4482.31020267
4487.71765592
4493.86412718
4496.94597668
4497.1811151
4542.4269429
4545.09689602
4553.54814414
4563.91024181
4569.97470983
4568.41625118
4559.18012943
4545.18084851
4530.68478847
4516.6670087
4503.19829961
4490.25105328
4477.76299386
4466.71314059
4460.04522347
4460.568698
4468.18813093
4479.59047773
4488.65214331
4491.68586866
4541.12877075
4548.39688265
4563.05249024
4577.18832252
4583.94136384
4580.39337682
4567.5259074
4548.95050974
4530.42779846
4512.64508844
4495.56670184
4479.12093905
4463.21627531
4448.81816878
4439.04528468
4437.85588589
4446.23809657
4461.30739172
4476.39709442
4483.94390511
4540.19063039
4551.82832036
4570.80137396
4587.07538019
4593.3388375
4587.15519396
4570.89253582
4547.8355061
4527.06794986
4507.09796599
4487.98833756
4469.60037325
4451.7234223
4434.78128304
4421.87604116
4418.30414796
4426.28276434
4443.34449808
4462.57852218
4474.5044248
4538.38883853
4552.72671121
4573.77073088
4590.78103099
4596.22589746
4587.4601678
4567.78897227
4541.10257709
4519.06981434
4498.11271363
4478.38301438
4459.65330483
4442.42835722
4425.15876191
4409.91387489
4404.26927131
4411.41928071
4429.19019935
4450.41325338
4464.92582442
4535.51674746
4550.64903225
4572.16534922
4589.38902635
4594.6614405
4585.24071722
4564.74218469
4534.54386652
4515.3799766
4498.0982297
4481.97116601
4465.73109538
4448.38669217
4420.96322975
4402.85354248
4395.34569907
4401.61289908
4419.24678549
4440.85892444
4456.06106355
4532.1522537
4547.28858517
4568.75878898
4585.94318787
4591.05467174
4581.55039308
4561.33673952
4530.60499752
4512.09897705
4495.06396278
4479.01069362
4462.64517673
4444.3402453
4415.2464093
4396.21466817
4387.91864452
4393.67793902
4411.06116367
4432.60068496
4447.81464418
4528.72009933
4543.85896974
4565.34173628
4582.48078593
4587.60192526
4578.21965974
4558.15085379
4528.00761988
4509.85662372
4492.3502012
4476.01791229
4458.85580518
4439.82199385
4409.45086813
4389.49606445
4380.67873572
4386.13509175
4403.40456899
4424.97006453
4440.24431655
4525.25430645
4540.39062226
4561.87083318
4579.04150752
4584.28641269
4574.89363105
4554.77232411
4523.95884133
4505.57785255
4488.34503665
4472.04170577
4454.25196729
4434.11817718
4403.71693946
4383.15649822
4374.03349664
4379.37488921
4396.67193819
4418.36118874
4433.72541412
4521.39489092
4535.79874206
4556.72750447
4573.75402848
4579.63976748
4572.07254942
4554.51220063
4535.61102116
4514.74204101
4493.45602076
4471.240098
4448.52079125
4424.63470071
4398.45832967
4378.49738909
4369.87797274
4375.50928914
4392.77395693
4414.12648627
4428.9216501
4516.61997365
4528.31329891
4546.94304938
4562.81379262
4568.76787835
4562.80304597
4546.84988705
4526.43372532
4504.95452929
4483.44022966
4461.63783701
4439.52070299
4416.76172398
4394.59995669
4377.61332848
4371.41722911
4378.00126375
4394.70012195
4414.20275605
4426.55561344
4511.42748424
4518.58171206
4532.67638601
4546.02389355
4551.96199788
4547.72490984
4534.37414196
4516.14691846
4496.23533145
4476.10669729
4455.87410987
4435.73087254
4415.45484516
4396.75289133
4383.69151535
4380.3870287
4387.72566255
4402.62962543
4418.15115029
4426.2669961
4507.19046466
4509.56730969
4517.18860866
4526.31779053
4530.92282477
4527.7960139
4516.99346557
4501.58367196
4484.79406146
4467.98673128
4451.34401633
4434.97756371
4419.02602854
4404.82553212
4395.77886435
4394.85257695
4401.88560408
4413.38583105
4423.04280042
4426.68096848
4504.16434835
4503.55524836
4504.7541105
4508.0993162
4509.93758185
4506.97201411
4498.51879344
4486.54370934
4473.61430498
4460.85489657
4448.47659484
4436.62674766
4425.43557599
4415.89731406
4410.45324608
4410.85786517
4416.13585153
4422.64177499
4426.45864378
4427.35670982
4501.72120873
4500.30951421
4498.08548937
4496.02865868
4493.88901957
4489.8780378
4482.92126054
4473.90622508
4464.43232364
4455.2997287
4446.7119909
4438.8387076
4431.78468456
4426.13455006
4423.20744196
4423.56352926
4425.74980096
4427.55579827
4428.31918912
4428.59926045
4499.88537747
4498.42938902
4495.44485709
4491.08689145
4486.04754742
4480.35317366
4473.61126719
4466.17622741
4458.74657317
4451.78011022
4445.48841439
4440.03386244
4435.50554893
4432.09642139
4430.14681382
4429.58569483
4429.52980138
4429.48431803
4429.76717968
4430.14906134
4498.68839342
4497.19435138
4494.12575572
4489.57624139
4483.88109379
4477.37671773
4470.41752631
4463.36206768
4456.54966412
4450.2672352
4444.74684551
4440.14602914
4436.5379525
4433.92057398
4432.21522675
4431.27964476
4430.92453752
4430.94574081
4431.25017268
4431.56665832
4498.13809276
4496.58693392
4493.4565642
4488.90028485
4483.20558474
4476.70723455
4469.76589346
4462.75201399
4456.00975597
4449.83713386
4444.46587286
4440.05295785
4436.6608717
4434.27887493
4432.81444212
4432.09858295
4431.9188485
4432.04328394
4432.27932568
4432.44466724
4221.66570323
4220.78516291
4219.14985995
4216.97484529
4214.65544299
4211.89693797
4208.27692579
4203.9949935
4199.66875217
4195.61368755
4191.91401289
4188.58892766
4185.62211522
4183.13518592
4181.46908125
4180.64694444
4179.95107446
4179.07226536
4178.41084549
4178.10588598
4220.96426351
4220.0063605
4219.02678428
4218.97792572
4219.28342743
4218.04281097
4213.94200149
4207.81132701
4201.31421506
4195.13223116
4189.34131252
4183.95847893
4178.95787093
4174.7882929
4172.69744958
4173.29503882
4175.26002113
4176.54140468
4176.52481978
4176.12475076
4219.6302102
4219.43261836
4221.82093251
4226.9016253
4230.77441751
4230.02786319
4223.83414158
4214.12829785
4203.8296871
4193.93743667
4184.51498254
4175.56599472
4167.05001487
4159.72307905
4155.78178345
4156.96376577
4162.41350133
4168.68705393
4171.91218411
4172.19654022
4217.92346942
4220.64710039
4229.23303938
4239.7002671
4245.75771609
4244.10275255
4234.68917676
4220.4212869
4205.63497086
4191.4004591
4177.75901611
4164.69218477
4152.15290723
4141.10694526
4134.34882171
4134.78469938
4142.37805076
4153.86391874
4163.10457333
4166.2700601
4216.63683535
4224.03981353
4238.85088624
4253.07007559
4259.76068473
4256.02609466
4242.86947674
4223.61289529
4204.69228197
4186.56962656
4169.26323917
4152.71447728
4136.90034126
4122.77988656
4112.92868812
4111.59225061
4119.86523502
4134.95727968
4150.20961269
4157.96180221
4215.70936094
4227.53077384
4246.69301037
4263.03053885
4269.10097913
4262.62252833
4246.03299428
4221.8745205
4200.49235484
4180.07790096
4160.67997338
4142.22707005
4124.5846779
4108.42542563
4095.32513506
4091.52174564
4099.2996136
4116.32851816
4135.69994472
4147.872243
4213.91655236
4228.46474168
4249.64501829
4266.59748088
4271.70068308
4262.24978848
4241.26001407
4207.95529124
4184.38394794
4162.70568099
4142.4448389
4123.45301669
4106.34025624
4097.40345319
4082.5060365
4076.83081161
4083.77444151
4101.47753933
4122.83138385
4137.62050958
4210.97897771
4226.35854428
4248.03415359
4265.31494212
4270.72275837
4262.02755857
4242.63185177
4093.3824518
4075.15010771
4067.42368021
4073.35308199
4090.86823467
4112.60540588
4128.10025781
4207.56184958
4222.95906438
4244.59276205
4261.82214145
4267.09195817
4258.04265115
4239.1925839
4086.30943864
4067.71539122
4059.35278407
4064.77686158
4082.04384703
4103.72516555
4119.25071569
4204.08877014
4219.4816134
4241.09304492
4258.25062145
4263.3486455
4254.43762023
4235.49174643
4079.06658038
4060.21877221
4051.51251758
4056.66645793
4073.84018307
4095.57045006
4111.17488717
4200.57964592
4215.96456614
4237.56640644
4254.72742933
4259.87823537
4250.92880129
4231.81091325
4072.63905377
4053.51583797
4044.45631871
4049.4860876
4066.70827609
4088.58602389
4104.30946088
4196.66318576
4211.30570755
4232.34705642
4249.35299775
4255.11401672
4247.60652847
4229.97692947
4220.02906178
4198.32585186
4176.0456978
4152.55650275
4128.02870731
4101.78648368
4070.79542158
4049.52510023
4040.1941919
4045.40663612
4062.6154337
4084.20213608
4099.36900659
4191.80168993
4203.69407358
4222.40792239
4238.2010542
4243.94381985
4237.70925562
4221.50590184
4202.23748985
4180.46503309
4158.08482313
4135.18882329
4111.83899643
4088.26222309
4065.67181236
4048.1718194
4041.51332322
4047.86761816
4064.61688892
4084.40973437
4097.11384785
4186.48902316
4193.77752482
4207.93588907
4221.20141575
4226.89609562
4222.35450476
4208.69989616
4190.53312262
4170.23011219
4149.52884006
4128.62896704
4107.72544657
4086.85870126
4067.62780361
4054.12702944
4050.5694668
4057.85933398
4072.92651067
4088.77424059
4097.18206296
4182.12544459
4184.54658747
4192.19367409
4201.19208505
4205.52980496
4202.03232218
4190.79404843
4175.00567265
4157.72594183
4140.40485692
4123.25180905
4106.44098269
4090.10574479
4075.61385408
4066.37346868
4065.407829
4072.56073993
4084.31575838
4094.28783325
4098.1316559
4179.0222012
4178.34644886
4179.48984874
4182.66184775
4184.2015136
4180.83334179
4171.90788892
4159.45740692
4146.04404821
4132.83995454
4120.07637532
4107.93361092
4096.5414992
4086.90563658
4081.46992775
4082.01319465
4087.53855679
4094.34675751
4098.41024889
4099.42982643
4176.52148955
4175.01692275
4172.59023015
4170.29106411
4167.81851319
4163.3887426
4155.95677723
4146.46604321
4136.55583741
4127.05802913
4118.21058407
4110.19022414
4103.09939989
4097.51970877
4094.76854743
4095.39971457
4097.90456701
4099.98423669
4100.93562661
4101.32634566
4174.64464506
4173.069105
4169.84641105
4165.15084169
4159.71962816
4153.58374521
4146.3743459
4138.494859
4130.68726094
4123.43706132
4116.98717882
4111.50461258
4107.0710275
4103.86236888
4102.1963535
4101.97215663
4102.25342233
4102.47989266
4102.96645558
4103.48502761
4173.4359209
4171.82688379
4168.51337385
4163.59301244
4157.45038398
4150.4623317
4143.02781985
4135.54638871
4128.38899418
4121.87781325
4116.26193433
4111.70330603
4108.26678879
4105.93022778
4104.58105789
4104.03487023
4104.05336666
4104.38363998
4104.91871339
4105.37459955
4172.88929508
4171.20955282
4167.82266266
4162.89932768
4156.76261127
4149.78653102
4142.37692009
4134.94605693
4127.87654013
4121.49479111
4116.05156779
4111.70768145
4108.51747554
4106.4482454
4105.37143882
4105.07696817
4105.30179247
4105.76289107
4106.23163678
4106.50871214
3897.86673581
3896.97814977
3895.33123255
3893.11148325
3890.77102399
3887.95665709
3884.26885405
3879.95525168
3875.61221188
3871.5607785
3867.88302167
3864.59803684
3861.68098455
3859.24018465
3857.60370931
3856.7964863
3856.10627519
3855.22673024
3854.56996247
3854.26913703
3897.15868007
3896.16588389
3895.14945551
3895.05370045
3895.28881139
3894.01103518
3889.86442363
3883.68583727
3877.16035434
3870.97253743
3865.1985918
3859.85249765
3854.90049082
3850.77807002
3848.70685483
3849.30244814
3851.25645116
3852.52958875
3852.510085
3852.09813648
3895.80036614
3895.54887108
3897.87284229
3902.89475736
3906.70182351
3905.89676215
3899.63863233
3889.85185532
3879.48695167
3869.56223875
3860.14085028
3851.22251822
3842.76206078
3835.49819079
3831.56338943
3832.71566842
3838.1163456
3844.34580741
3847.54274147
3847.7957058
3894.04856226
3896.7119707
3905.21302775
3915.61998755
3921.5851153
3919.8502439
3910.33256266
3895.90702981
3880.99192116
3866.67532337
3853.00326402
3839.95419487
3827.4835078
3816.55307899
3809.78742874
3810.16029135
3817.65061336
3829.03531071
3838.20168109
3841.31743761
3892.71508969
3900.042956
3914.7425359
3928.85632901
3935.45288162
3931.5799505
3918.21090319
3898.51263047
3879.34732921
3861.06789938
3843.69271139
3827.16109153
3811.48645154
3797.69748116
3787.86670885
3786.45205772
3794.56574862
3809.49518903
3824.62362258
3832.30543119
3891.73020881
3903.4802684
3922.48843248
3938.68795821
3944.65442631
3937.9676618
3921.07667178
3896.29696184
3874.49603546
3853.77374197
3834.21960025
3815.76580325
3798.33284036
3782.81113881
3769.63883967
3765.73377258
3773.28686855
3790.09673565
3809.30268025
3821.39064125
3889.90402006
3904.31559208
3925.37135996
3942.20177621
3947.05734306
3937.04165909
3915.08361921
3880.11166707
3855.87295364
3833.76954065
3813.47194997
3794.91705424
3778.01773646
3770.6187251
3755.82586584
3750.20802644
3756.90855627
3774.35643702
3795.5278382
3810.23287695
3886.8836919
3902.1649274
3923.69591681
3940.81847002
3945.96547168
3936.98198721
3916.41081484
3767.8466091
3748.15523918
3740.14298316
3745.6450072
3762.83055824
3784.3703256
3799.79268388
3883.41254278
3898.71517023
3920.18973233
3937.21513987
3942.10044014
3932.96079509
3912.32916586
3759.86565686
3739.88065531
3731.20891722
3736.17067898
3753.1000027
3774.60104018
3790.07966122
3879.89346661
3895.18643625
3916.62116052
3933.58029927
3938.42523773
3929.31382034
3908.59128624
3751.95919122
3731.54896256
3722.54053872
3727.24389187
3744.10159017
3765.68484523
3781.2758147
3876.34167954
3891.61789479
3913.03179973
3929.98327188
3934.89531113
3925.86164113
3905.07827645
3744.92515132
3724.22305527
3714.82701787
3719.42680953
3736.37030473
3758.14719939
3773.89987515
3872.37598621
3886.90057104
3907.74533271
3924.53703529
3930.08073833
3922.7820361
3904.67281345
3897.70818024
3875.19027331
3852.38317577
3828.05280554
3802.52566102
3775.11460903
3742.48663444
3720.10317924
3710.18671816
3714.95974982
3731.94324266
3753.49458171
3768.73386429
3867.45065321
3879.2120234
3897.69601459
3913.21311453
3918.6845869
3912.09536316
3895.5600437
3876.9435727
3854.73715616
3831.6500218
3807.90685415
3783.76781577
3759.56042657
3736.34146667
3718.2554177
3711.19239507
3717.26919149
3733.91090001
3753.7507571
3766.56811032
3862.06256772
3869.2146138
3883.11603632
3896.06238079
3901.37747871
3896.45413165
3882.41354575
3864.19213087
3843.41459043
3822.12125259
3800.58369567
3779.05887656
3757.63003384
3737.94263266
3724.04988815
3720.2589304
3727.44052676
3742.5258204
3758.4891922
3767.03905378
3857.61593404
3859.89732893
3867.25783777
3875.85847046
3879.74130109
3875.74583485
3863.97985276
3847.74365805
3829.90771901
3812.02831688
3794.3606088
3777.12483439
3760.4621348
3745.76608857
3736.39032291
3735.40148175
3742.62326901
3754.5120819
3764.65388084
3768.66388312
3854.42986454
3853.61745791
3854.47234102
3857.18082698
3858.18799474
3854.23936446
3844.70806449
3831.68050242
3817.69612401
3803.98433745
3790.81270047
3778.39149048
3766.85109235
3757.1989431
3751.83960439
3752.55039931
3758.29538759
3765.32840812
3769.60647409
3770.82054458
3851.88794211
3850.2373267
3847.45949505
3844.6812031
3841.62323544
3836.55236272
3828.46578755
3818.3547852
3807.88800285
3797.94322699
3788.79444158
3780.63027408
3773.55090937
3768.12228228
3765.62579265
3766.582283
3769.42939231
3771.81646131
3773.03893418
3773.66475122
3849.93186242
3848.18703605
3844.63375208
3839.4428413
3833.39578779
3826.58366148
3818.69552555
3810.18953176
3801.85303332
3794.21544468
3787.5496525
3782.03201873
3777.73537484
3774.81086683
3773.53642205
3773.76209634
3774.49232553
3775.11393827
3775.93823539
3776.73233978
3848.69002423
3846.91922713
3843.26475107
3837.82324708
3831.05059538
3823.37670564
3815.26190778
3807.16464523
3799.50674797
3792.65923784
3786.89242573
3782.37553798
3779.16419627
3777.20741514
3776.34871095
3776.34753649
3776.90407764
3777.70576563
3778.62208902
3779.34470645
3848.12983395
3846.26481987
3842.51291488
3837.07990492
3830.31908651
3822.66537885
3814.58838592
3806.56114025
3799.01941544
3792.3367098
3786.78549912
3782.53286428
3779.62388112
3777.99596386
3777.47091858
3777.7826501
3778.60015478
3779.56829459
3780.41334909
3780.89097106
3574.75190576
3573.84870625
3572.17584648
3569.91226641
3567.52526324
3564.68422621
3560.9378497
3556.59785616
3552.2596063
3548.23348427
3544.60289208
3541.38131956
3538.53409996
3536.15581291
3534.56220269
3533.77832394
3533.09695663
3532.22261383
3531.56189436
3531.25344978
3574.03025809
3573.00456187
3571.94595644
3571.7976649
3571.97809182
3570.63257804
3566.44703541
3560.23342401
3553.69637729
3547.52276488
3541.78683756
3536.49620226
3531.60838657
3527.54409677
3525.49736713
3526.0937465
3528.03474697
3529.29482851
3529.26261347
3528.83129848
3572.6417408
3572.34115482
3574.59628057
3579.54036671
3583.2805259
3582.40628109
3576.08212673
3566.23141298
3555.81976579
3545.87961297
3536.47575677
3527.60051858
3519.20186977
3512.00047626
3508.06371008
3509.17656072
3514.51362578
3520.68162779
3523.83399124
3524.04769705
3570.84405821
3573.44443157
3581.84923087
3592.14722506
3598.0362599
3596.21308938
3586.57469065
3572.04903587
3557.03170533
3542.65772895
3528.96764137
3515.93556161
3503.51871173
3492.67313547
3485.86258742
3486.14114478
3493.49459569
3504.74348618
3513.80617482
3516.85476821
3569.45546174
3576.70407986
3591.28318868
3605.28740619
3611.75227069
3607.73088662
3594.12716371
3574.20693019
3554.80188995
3536.38246627
3518.94524896
3502.41238971
3486.80718801
3473.24004192
3463.33929039
3461.78297547
3469.67541287
3484.38476451
3499.34297923
3506.92371408
3568.4097695
3580.06839826
3598.92461862
3614.97731267
3620.80221039
3613.89311376
3596.57490653
3571.52394872
3549.39738011
3528.46027715
3508.7758744
3490.24834388
3472.85125781
3457.80616588
3444.38490231
3440.25795734
3447.47974135
3463.98424176
3482.95983518
3494.92529187
3566.51558215
3580.82496974
3601.70820185
3618.36008195
3622.945413
3612.54983946
3589.95599158
3554.01847592
3529.25675237
3506.88650324
3486.48424827
3467.77904344
3450.78638788
3444.40999615
3429.52372302
3423.72244439
3430.00043855
3447.08205978
3467.99062189
3482.56761168
3563.43830985
3578.60085763
3599.93386845
3616.79648241
3621.51693291
3612.14425656