/*--------------------------------*- C++ -*----------------------------------*\
| =========                 |                                                 |
| \\      /  F ield         | OpenFOAM: The Open Source CFD Toolbox           |
|  \\    /   O peration     | Version:  v1606+                                |
|   \\  /    A nd           | Web:      www.OpenFOAM.com                      |
|    \\/     M anipulation  |                                                 |
\*---------------------------------------------------------------------------*/
FoamFile
{
    version     2.0;
    format      ascii;
    class       surfaceScalarField;
    location    "1.4";
    object      phi;
}
// * * * * * * * * * * * * * * * * * * * * * * * * * * * * * * * * * * * * * //

dimensions      [0 3 -1 0 0 0 0];

internalField   nonuniform List<scalar> 
1460
(
-4.06367e-08
4.06367e-08
-9.08017e-09
-3.15565e-08
9.34878e-08
-1.02568e-07
2.28692e-07
-1.35204e-07
3.4362e-07
-1.14928e-07
4.10197e-07
-6.65769e-08
4.39977e-07
-2.97797e-08
4.4835e-07
-8.37267e-09
4.46516e-07
1.83414e-09
4.43151e-07
3.36474e-09
4.39427e-07
3.72362e-09
8.9084e-09
4.30519e-07
-5.78447e-08
9.84814e-08
6.0042e-08
-1.49443e-07
2.14269e-07
-2.56795e-07
3.40205e-07
-2.61141e-07
4.28769e-07
-2.03492e-07
4.94486e-07
-1.32293e-07
5.43025e-07
-7.83189e-08
5.61195e-07
-2.65428e-08
5.52109e-07
1.09206e-08
5.26704e-07
2.877e-08
4.80054e-07
5.03728e-08
1.02001e-07
3.86962e-07
3.36506e-08
6.48308e-08
1.42239e-07
-2.58032e-07
2.38299e-07
-3.52855e-07
2.85778e-07
-3.0862e-07
3.04358e-07
-2.22073e-07
3.16051e-07
-1.43986e-07
3.16805e-07
-7.9073e-08
3.30833e-07
-4.05712e-08
3.49254e-07
-7.50063e-09
3.34798e-07
4.32265e-08
2.42705e-07
1.42466e-07
3.17662e-07
2.70441e-08
1.65596e-08
4.82712e-08
3.00047e-08
-2.71477e-07
-3.09976e-08
-2.91852e-07
-1.27171e-07
-2.12446e-07
-2.08105e-07
-1.41139e-07
-2.43399e-07
-1.08691e-07
-2.13242e-07
-1.0923e-07
-1.35706e-07
-1.18107e-07
-4.08116e-08
-1.02395e-07
5.32295e-09
-2.90802e-09
-6.75801e-08
2.15369e-07
5.73412e-07
-3.23331e-07
-6.68759e-08
1.15147e-07
-2.38504e-07
-9.9849e-08
-4.75313e-07
-5.50425e-08
-6.80673e-07
-7.08636e-09
-8.03417e-07
-1.83945e-08
-8.25642e-07
-8.64667e-08
-7.46366e-07
-1.88506e-07
-5.9998e-07
-2.64494e-07
-4.40102e-07
-2.62273e-07
-3.29277e-07
-1.13733e-07
-3.33452e-07
2.19544e-07
7.37805e-07
-4.97844e-07
-2.36034e-07
3.51181e-07
-6.20823e-07
2.8494e-07
-1.01173e-06
3.35866e-07
-1.31324e-06
2.94423e-07
-1.47492e-06
1.43288e-07
-1.48615e-06
-7.52426e-08
-1.35216e-06
-3.22493e-07
-1.12033e-06
-4.96325e-07
-8.50179e-07
-5.32423e-07
-6.11655e-07
-3.52257e-07
-4.67491e-07
7.53806e-08
6.9555e-07
-4.25237e-07
-4.29391e-07
7.80573e-07
-9.94578e-07
8.50127e-07
-1.52322e-06
8.64507e-07
-1.9176e-06
6.88801e-07
-2.12019e-06
3.45882e-07
-2.12384e-06
-7.15939e-08
-1.95225e-06
-4.9408e-07
-1.64562e-06
-8.02959e-07
-1.25289e-06
-9.25151e-07
-8.28413e-07
-7.76736e-07
-4.5928e-07
-2.93752e-07
3.89856e-07
-1.53586e-07
-5.44785e-07
1.32536e-06
-1.1953e-06
1.50064e-06
-1.77825e-06
1.44746e-06
-2.18477e-06
1.09532e-06
-2.36336e-06
5.24477e-07
-2.32515e-06
-1.09808e-07
-2.139e-06
-6.80228e-07
-1.84142e-06
-1.10054e-06
-1.44348e-06
-1.32309e-06
-9.41031e-07
-1.27919e-06
-3.4858e-07
-8.86203e-07
-1.8012e-07
2.21396e-07
-4.68691e-07
1.79405e-06
-1.02739e-06
2.05934e-06
-1.48728e-06
1.90735e-06
-1.7454e-06
1.35343e-06
-1.78063e-06
5.59714e-07
-1.65436e-06
-2.36087e-07
-1.45693e-06
-8.77649e-07
-1.23729e-06
-1.32019e-06
-9.89284e-07
-1.57109e-06
-6.50798e-07
-1.61767e-06
-1.29764e-07
-1.40724e-06
-8.76658e-07
5.66775e-07
-2.00046e-07
1.9941e-06
-4.79797e-07
2.33909e-06
-6.43497e-07
2.07105e-06
-6.56117e-07
1.36605e-06
-5.28966e-07
4.32563e-07
-3.22905e-07
-4.42148e-07
-1.08572e-07
-1.09198e-06
7.39357e-08
-1.50269e-06
2.18116e-07
-1.71527e-06
3.56019e-07
-1.75557e-06
5.79495e-07
-1.63071e-06
-1.3178e-06
1.02064e-06
2.55157e-07
1.73894e-06
3.68137e-07
2.22611e-06
5.31767e-07
1.90742e-06
7.4138e-07
1.15644e-06
9.66821e-07
2.07122e-07
1.17392e-06
-6.49243e-07
1.35183e-06
-1.26989e-06
1.51209e-06
-1.66296e-06
1.65994e-06
-1.86313e-06
1.78374e-06
-1.87937e-06
1.87948e-06
-1.72645e-06
-1.44707e-06
2.00875e-06
6.28168e-07
1.11077e-06
1.30503e-06
1.54925e-06
1.84765e-06
1.3648e-06
2.2549e-06
7.49196e-07
2.51824e-06
-5.62251e-08
2.65894e-06
-7.89939e-07
2.74847e-06
-1.35942e-06
2.8496e-06
-1.76409e-06
2.98185e-06
-1.99538e-06
3.12877e-06
-2.02629e-06
3.25817e-06
-1.85585e-06
3.34291e-06
-1.53182e-06
4.14876e-07
1.56433e-08
3.95803e-07
1.90722e-08
3.8073e-07
1.50731e-08
3.98205e-07
-1.74746e-08
4.59365e-07
-6.11597e-08
5.74346e-07
-1.14982e-07
7.1228e-07
-1.37934e-07
8.02216e-07
-8.99356e-08
7.69208e-07
3.30071e-08
5.79146e-07
1.90063e-07
2.65345e-07
3.13801e-07
2.65345e-07
2.0876e-07
1.93845e-07
-5.39504e-08
2.81783e-07
-3.1875e-07
2.79873e-07
-4.7487e-07
1.38646e-07
-4.6059e-07
-7.54397e-08
-3.13473e-07
-2.62099e-07
-8.96593e-08
-3.61747e-07
1.37311e-07
-3.16905e-07
2.88895e-07
-1.18577e-07
2.80407e-07
1.9855e-07
1.3403e-07
4.60178e-07
3.99375e-07
-3.27601e-07
5.4849e-07
-7.42258e-07
6.9644e-07
-1.09579e-06
6.33409e-07
-1.34019e-06
3.83046e-07
-1.46276e-06
4.71282e-08
-1.43622e-06
-2.88646e-07
-1.24702e-06
-5.5094e-07
-9.1951e-07
-6.44417e-07
-5.40701e-07
-4.97386e-07
-2.45452e-07
-9.66994e-08
-6.87201e-08
2.83447e-07
3.30655e-07
-7.29204e-07
9.54364e-07
-1.16404e-06
1.13127e-06
-1.5508e-06
1.02017e-06
-1.87532e-06
7.07565e-07
-2.12001e-06
2.91827e-07
-2.24163e-06
-1.67034e-07
-2.19325e-06
-5.99312e-07
-1.91126e-06
-9.26414e-07
-1.38168e-06
-1.02697e-06
-6.89594e-07
-7.88781e-07
-1.54593e-07
-2.51555e-07
1.76062e-07
-7.67777e-07
1.2243e-06
-1.05405e-06
1.41755e-06
-1.32859e-06
1.29471e-06
-1.60823e-06
9.87199e-07
-1.89866e-06
5.82255e-07
-2.16958e-06
1.03892e-07
-2.34985e-06
-4.1904e-07
-2.34243e-06
-9.3384e-07
-2.01371e-06
-1.35569e-06
-1.28891e-06
-1.51358e-06
-3.90211e-07
-1.15026e-06
-2.14149e-07
-4.59023e-07
1.25808e-06
-5.25541e-07
1.48407e-06
-6.13603e-07
1.38277e-06
-7.3294e-07
1.10654e-06
-9.07954e-07
7.57269e-07
-1.16605e-06
3.61986e-07
-1.48823e-06
-9.68532e-08
-1.79022e-06
-6.31856e-07
-1.91298e-06
-1.23292e-06
-1.62559e-06
-1.80097e-06
-7.94937e-07
-1.98091e-06
-1.00909e-06
7.00457e-08
1.03445e-06
2.06547e-07
1.34757e-06
2.65558e-07
1.32376e-06
2.69572e-07
1.10252e-06
2.20102e-07
8.0674e-07
9.36229e-08
4.88465e-07
-1.47982e-07
1.44751e-07
-5.14632e-07
-2.65205e-07
-9.38198e-07
-8.09353e-07
-1.22072e-06
-1.51845e-06
-9.39841e-07
-2.26179e-06
-1.94893e-06
6.91692e-07
5.64155e-07
1.0034e-06
1.03586e-06
1.15884e-06
1.16832e-06
1.20633e-06
1.05502e-06
1.18789e-06
8.25187e-07
1.10783e-06
5.68519e-07
9.45975e-07
3.06609e-07
6.84426e-07
-3.65669e-09
2.9537e-07
-4.20297e-07
-1.88604e-07
-1.03447e-06
-5.03817e-07
-1.94658e-06
-2.45274e-06
1.26197e-06
-1.31037e-07
1.7726e-06
5.25222e-07
2.04664e-06
8.94286e-07
2.1238e-06
9.77864e-07
2.08035e-06
8.68636e-07
1.97699e-06
6.71884e-07
1.82712e-06
4.56476e-07
1.59985e-06
2.23611e-07
1.26333e-06
-8.37712e-08
8.03909e-07
-5.75054e-07
2.25025e-07
-1.3677e-06
-2.22772e-06
1.67974e-06
-7.90138e-07
2.34491e-06
-1.39952e-07
2.81241e-06
4.26787e-07
3.02172e-06
7.68558e-07
3.01617e-06
8.74188e-07
2.88117e-06
8.06881e-07
2.68672e-06
6.50927e-07
2.44542e-06
4.64909e-07
2.10894e-06
2.52709e-07
1.59414e-06
-6.02515e-08
8.79623e-07
-6.5318e-07
-1.3481e-06
2.29527e-06
-1.07666e-06
2.77478e-06
-6.19468e-07
3.30523e-06
-1.0366e-07
3.70195e-06
3.71838e-07
3.87435e-06
7.01787e-07
3.83438e-06
8.46851e-07
3.64686e-06
8.38447e-07
3.36882e-06
7.42953e-07
2.99724e-06
6.24283e-07
2.45101e-06
4.85977e-07
1.55079e-06
2.47048e-07
2.0269e-07
3.40324e-06
-1.13698e-06
3.52706e-06
-7.43285e-07
3.78885e-06
-3.6546e-07
4.14205e-06
1.86429e-08
4.45144e-06
3.92393e-07
4.60624e-06
6.9205e-07
4.57217e-06
8.7252e-07
4.37026e-06
9.44862e-07
4.02182e-06
9.72726e-07
3.4476e-06
1.06019e-06
2.3343e-06
1.36035e-06
2.53699e-06
-3.39246e-08
3.39246e-08
-9.46632e-09
-2.44583e-08
1.04151e-07
-1.13618e-07
2.42994e-07
-1.38843e-07
3.5586e-07
-1.12865e-07
4.18677e-07
-6.28171e-08
4.44726e-07
-2.60494e-08
4.51e-07
-6.27394e-09
4.47473e-07
3.52722e-09
4.42808e-07
4.66426e-09
4.37792e-07
5.0164e-09
1.03118e-08
4.2748e-07
-5.34617e-08
8.73863e-08
7.19174e-08
-1.49837e-07
2.20154e-07
-2.61854e-07
3.43426e-07
-2.62115e-07
4.3054e-07
-1.99979e-07
4.95511e-07
-1.27789e-07
5.43029e-07
-7.35671e-08
5.58603e-07
-2.18476e-08
5.48971e-07
1.31585e-08
5.23286e-07
3.03493e-08
4.75492e-07
5.28107e-08
1.06346e-07
3.79458e-07
2.94968e-08
5.78895e-08
1.42712e-07
-2.63053e-07
2.37738e-07
-3.5688e-07
2.84222e-07
-3.08599e-07
3.02969e-07
-2.18727e-07
3.14254e-07
-1.39073e-07
3.13803e-07
-7.31168e-08
3.29144e-07
-3.71882e-08
3.46791e-07
-4.4889e-09
3.29955e-07
4.71857e-08
2.33244e-07
1.49522e-07
3.29093e-07
1.04967e-08
1.60829e-08
4.18066e-08
3.04379e-08
-2.77408e-07
-3.1791e-08
-2.94651e-07
-1.28504e-07
-2.11886e-07
-2.08944e-07
-1.38286e-07
-2.43175e-07
-1.04842e-07
-2.10966e-07
-1.05326e-07
-1.33588e-07
-1.14566e-07
-4.09527e-08
-9.71241e-08
4.57573e-10
5.77543e-09
-8.03025e-08
2.30282e-07
5.93701e-07
-3.44911e-07
-6.74634e-08
1.0927e-07
-2.37656e-07
-1.07215e-07
-4.73376e-07
-5.89303e-08
-6.77282e-07
-7.98055e-09
-7.98345e-07
-1.72236e-08
-8.1913e-07
-8.40568e-08
-7.39657e-07
-1.84799e-07
-5.95029e-07
-2.59194e-07
-4.39045e-07
-2.53108e-07
-3.33732e-07
-9.95383e-08
-3.46309e-07
2.42859e-07
7.63705e-07
-5.16312e-07
-2.33944e-07
3.43214e-07
-6.18052e-07
2.76893e-07
-1.00674e-06
3.29756e-07
-1.30565e-06
2.9093e-07
-1.46522e-06
1.42343e-07
-1.47539e-06
-7.38824e-08
-1.34169e-06
-3.18497e-07
-1.11201e-06
-4.88874e-07
-8.4572e-07
-5.194e-07
-6.14767e-07
-3.30492e-07
-4.7558e-07
1.03673e-07
7.23373e-07
-4.35248e-07
-4.26931e-07
7.70146e-07
-9.90146e-07
8.40107e-07
-1.51686e-06
8.56471e-07
-1.90934e-06
6.83413e-07
-2.11053e-06
3.43531e-07
-2.11357e-06
-7.08444e-08
-1.94189e-06
-4.90177e-07
-1.63592e-06
-7.94847e-07
-1.24487e-06
-9.1045e-07
-8.2249e-07
-7.52868e-07
-4.58368e-07
-2.60449e-07
4.1796e-07
-1.52955e-07
-5.43063e-07
1.31321e-06
-1.19243e-06
1.48947e-06
-1.77439e-06
1.43844e-06
-2.18017e-06
1.08919e-06
-2.35841e-06
5.21778e-07
-2.3202e-06
-1.09057e-07
-2.13383e-06
-6.76546e-07
-1.83547e-06
-1.09321e-06
-1.43593e-06
-1.30999e-06
-9.31355e-07
-1.25744e-06
-3.36303e-07
-8.55502e-07
-1.513e-07
2.32958e-07
-4.68207e-07
1.78142e-06
-1.02693e-06
2.0482e-06
-1.48677e-06
1.89828e-06
-1.74488e-06
1.3473e-06
-1.78043e-06
5.5733e-07
-1.65441e-06
-2.35075e-07
-1.45717e-06
-8.73786e-07
-1.2372e-06
-1.31318e-06
-9.87338e-07
-1.55985e-06
-6.44084e-07
-1.60069e-06
-1.1582e-07
-1.38377e-06
-8.50799e-07
5.83679e-07
-2.00902e-07
1.98232e-06
-4.81361e-07
2.32865e-06
-6.45039e-07
2.06195e-06
-6.57367e-07
1.35962e-06
-5.29874e-07
4.29837e-07
-3.23371e-07
-4.41578e-07
-1.08841e-07
-1.08832e-06
7.36654e-08
-1.49569e-06
2.18258e-07
-1.70445e-06
3.58348e-07
-1.74078e-06
5.87044e-07
-1.61246e-06
-1.29769e-06
1.03393e-06
2.52316e-07
1.73e-06
3.64653e-07
2.21632e-06
5.29179e-07
1.89743e-06
7.40219e-07
1.14858e-06
9.67168e-07
2.02887e-07
1.17538e-06
-6.49787e-07
1.35406e-06
-1.267e-06
1.51489e-06
-1.65652e-06
1.66306e-06
-1.85262e-06
1.78716e-06
-1.86488e-06
1.88414e-06
-1.70945e-06
-1.4298e-06
2.01625e-06
6.25613e-07
1.10439e-06
1.30217e-06
1.53976e-06
1.84573e-06
1.35386e-06
2.25424e-06
7.40071e-07
2.51853e-06
-6.13966e-08
2.66018e-06
-7.91441e-07
2.75081e-06
-1.35764e-06
2.853e-06
-1.7587e-06
2.98584e-06
-1.98545e-06
3.13286e-06
-2.0119e-06
3.26224e-06
-1.83882e-06
3.34749e-06
-1.51505e-06
4.10607e-07
1.68734e-08
3.90289e-07
2.03182e-08
3.7431e-07
1.59787e-08
3.91561e-07
-1.72511e-08
4.52501e-07
-6.09401e-08
5.68312e-07
-1.15811e-07
7.08003e-07
-1.39691e-07
7.99554e-07
-9.15517e-08
7.67238e-07
3.23166e-08
5.77657e-07
1.89581e-07
2.64652e-07
3.13005e-07
2.64652e-07
1.95931e-07
2.004e-07
-7.16075e-08
2.87857e-07
-3.38655e-07
2.83026e-07
-4.9404e-07
1.38134e-07
-4.77314e-07
-7.76657e-08
-3.27713e-07
-2.65412e-07
-1.01471e-07
-3.65933e-07
1.28189e-07
-3.21212e-07
2.8195e-07
-1.21445e-07
2.76028e-07
1.95503e-07
1.32052e-07
4.56981e-07
3.96704e-07
-3.5087e-07
5.61767e-07
-7.68553e-07
7.0554e-07
-1.12204e-06
6.36516e-07
-1.36607e-06
3.82165e-07
-1.48781e-06
4.40675e-08
-1.45929e-06
-2.93924e-07
-1.26764e-06
-5.57587e-07
-9.36426e-07
-6.52426e-07
-5.51589e-07
-5.06282e-07
-2.50559e-07
-1.05527e-07
-6.98606e-08
2.76283e-07
3.26843e-07
-7.54604e-07
9.71461e-07
-1.1884e-06
1.13934e-06
-1.57275e-06
1.02087e-06
-1.89542e-06
7.04835e-07
-2.13893e-06
2.87576e-07
-2.25931e-06
-1.73549e-07
-2.21059e-06
-6.06303e-07
-1.92757e-06
-9.35447e-07
-1.39498e-06
-1.03887e-06
-6.97144e-07
-8.03366e-07
-1.55956e-07
-2.64905e-07
1.70887e-07
-7.85755e-07
1.2409e-06
-1.06781e-06
1.4214e-06
-1.33749e-06
1.29054e-06
-1.61266e-06
9.80008e-07
-1.8995e-06
5.74419e-07
-2.16957e-06
9.65192e-08
-2.35054e-06
-4.25338e-07
-2.34581e-06
-9.40173e-07
-2.02053e-06
-1.36415e-06
-1.29708e-06
-1.52682e-06
-3.9455e-07
-1.16744e-06
-2.23663e-07
-4.66658e-07
1.27231e-06
-5.28564e-07
1.48331e-06
-6.11412e-07
1.37339e-06
-7.25377e-07
1.09397e-06
-8.95393e-07
7.44436e-07
-1.15008e-06
3.51203e-07
-1.47121e-06
-1.04205e-07
-1.77533e-06
-6.36055e-07
-1.90389e-06
-1.23559e-06
-1.62482e-06
-1.80588e-06
-7.9916e-07
-1.9931e-06
-1.02282e-06
7.16388e-08
1.04772e-06
2.10178e-07
1.34477e-06
2.72035e-07
1.31153e-06
2.79204e-07
1.0868e-06
2.32757e-07
7.90883e-07
1.09304e-07
4.74655e-07
-1.29184e-07
1.34284e-07
-4.93981e-07
-2.71258e-07
-9.18182e-07
-8.11388e-07
-1.20717e-06
-1.51689e-06
-9.3651e-07
-2.26376e-06
-1.95933e-06
7.00953e-07
5.79724e-07
1.011e-06
1.03472e-06
1.16595e-06
1.15658e-06
1.21366e-06
1.03909e-06
1.19561e-06
8.08931e-07
1.11652e-06
5.53745e-07
9.56496e-07
2.94311e-07
6.97616e-07
-1.23788e-08
3.11127e-07
-4.24898e-07
-1.72228e-07
-1.03354e-06
-4.93357e-07
-1.94263e-06
-2.45269e-06
1.27671e-06
-1.1331e-07
1.78333e-06
5.28104e-07
2.05456e-06
8.85354e-07
2.1302e-06
9.6345e-07
2.08565e-06
8.53476e-07
1.98148e-06
6.57921e-07
1.83178e-06
4.44005e-07
1.6061e-06
2.13299e-07
1.27137e-06
-9.01663e-08
8.13533e-07
-5.75699e-07
2.33386e-07
-1.36249e-06
-2.2193e-06
1.69416e-06
-7.73538e-07
2.35581e-06
-1.33548e-07
2.81994e-06
4.2122e-07
3.02794e-06
7.55458e-07
3.02213e-06
8.59285e-07
2.88644e-06
7.93607e-07
2.69068e-06
6.39765e-07
2.44859e-06
4.55391e-07
2.11283e-06
2.45596e-07
1.59913e-06
-6.19951e-08
8.8415e-07
-6.47511e-07
-1.33515e-06
2.30459e-06
-1.06187e-06
2.78218e-06
-6.11147e-07
3.30904e-06
-1.05638e-07
3.70443e-06
3.60075e-07
3.87822e-06
6.85487e-07
3.84017e-06
8.31657e-07
3.65306e-06
8.26878e-07
3.37372e-06
7.34735e-07
3.00062e-06
6.18692e-07
2.45396e-06
4.84664e-07
1.55393e-06
2.52524e-07
2.18772e-07
3.40872e-06
-1.12311e-06
3.53199e-06
-7.34415e-07
3.79052e-06
-3.64167e-07
4.14044e-06
1.01532e-08
4.44974e-06
3.76191e-07
4.60726e-06
6.74135e-07
4.57631e-06
8.57827e-07
4.37586e-06
9.35188e-07
4.02685e-06
9.677e-07
3.45186e-06
1.05965e-06
2.33919e-06
1.3652e-06
2.55796e-06
3.65486e-06
1.98709e-06
3.62514e-06
1.57897e-06
3.8174e-06
1.17254e-06
4.02186e-06
5.44732e-07
4.12374e-06
-1.58101e-07
4.13666e-06
-8.02858e-07
4.14138e-06
-1.36415e-06
4.192e-06
-1.81471e-06
4.28776e-06
-2.09114e-06
4.40098e-06
-2.13951e-06
4.50601e-06
-1.96088e-06
-1.61294e-06
4.58713e-06
6.08453e-06
2.04595e-06
6.01318e-06
1.65032e-06
5.97343e-06
1.21229e-06
5.87777e-06
6.40396e-07
5.73802e-06
-1.83474e-08
5.61814e-06
-6.82982e-07
5.56342e-06
-1.30943e-06
5.57624e-06
-1.82753e-06
5.6276e-06
-2.1425e-06
5.6819e-06
-2.1938e-06
5.71613e-06
-1.99511e-06
-1.62393e-06
5.72712e-06
7.31009e-06
1.82584e-06
7.40807e-06
1.55234e-06
7.40208e-06
1.21827e-06
7.28831e-06
7.54168e-07
7.13552e-06
1.34447e-07
7.01031e-06
-5.57771e-07
6.94662e-06
-1.24574e-06
6.93125e-06
-1.81216e-06
6.92875e-06
-2.14e-06
6.90708e-06
-2.17213e-06
6.85597e-06
-1.94401e-06
-1.55386e-06
6.78591e-06
8.089e-06
8.3079e-06
8.41388e-06
8.39966e-06
8.32217e-06
8.25269e-06
8.21666e-06
8.18678e-06
8.11936e-06
7.99937e-06
7.84596e-06
7.69336e-06
4.63096e-06
-1.18081e-06
4.63646e-06
-7.48782e-07
4.64704e-06
-3.76042e-07
4.73496e-06
-6.92709e-08
4.91762e-06
2.09728e-07
5.12209e-06
4.87584e-07
5.24803e-06
7.46579e-07
5.23039e-06
9.62498e-07
5.05396e-06
1.14916e-06
4.7401e-06
1.37405e-06
4.39938e-06
1.70107e-06
2.41572e-06
4.52065e-06
5.72411e-06
-1.1778e-06
5.71093e-06
-7.35603e-07
5.68124e-06
-3.4635e-07
5.64277e-06
-3.08015e-08
5.63599e-06
2.16506e-07
5.69237e-06
4.31207e-07
5.79109e-06
6.47854e-07
5.87342e-06
8.8017e-07
5.89325e-06
1.12933e-06
5.86244e-06
1.40486e-06
5.87115e-06
1.69236e-06
2.15351e-06
6.13336e-06
6.71497e-06
-1.10686e-06
6.6581e-06
-6.78739e-07
6.61853e-06
-3.06777e-07
6.5859e-06
1.83254e-09
6.54949e-06
2.52915e-07
6.5174e-06
4.63289e-07
6.50917e-06
6.56093e-07
6.5339e-06
8.55437e-07
6.58608e-06
1.07716e-06
6.66391e-06
1.32703e-06
6.77869e-06
1.57758e-06
1.84694e-06
7.08527e-06
7.56817e-06
7.48077e-06
7.4307e-06
7.41202e-06
7.41129e-06
7.41289e-06
7.4077e-06
7.40092e-06
7.4107e-06
7.46276e-06
7.57965e-06
7.82557e-06
3.65077e-06
1.97427e-06
3.62268e-06
1.56786e-06
3.81468e-06
1.16186e-06
4.01856e-06
5.36198e-07
4.12081e-06
-1.63646e-07
4.13489e-06
-8.05525e-07
4.14142e-06
-1.36416e-06
4.19346e-06
-1.81074e-06
4.28976e-06
-2.08175e-06
4.40287e-06
-2.12502e-06
4.50755e-06
-1.94351e-06
-1.59592e-06
4.58843e-06
6.07392e-06
2.0337e-06
6.00338e-06
1.6384e-06
5.96382e-06
1.20142e-06
5.86841e-06
6.31612e-07
5.73086e-06
-2.61004e-08
5.61362e-06
-6.88282e-07
5.56152e-06
-1.31207e-06
5.5758e-06
-1.82501e-06
5.6274e-06
-2.13336e-06
5.6813e-06
-2.17891e-06
5.71506e-06
-1.97728e-06
-1.60649e-06
5.72564e-06
7.30126e-06
1.81771e-06
7.39685e-06
1.54281e-06
7.3901e-06
1.20816e-06
7.27744e-06
7.44277e-07
7.12844e-06
1.22898e-07
7.00613e-06
-5.65971e-07
6.94478e-06
-1.25072e-06
6.93029e-06
-1.81052e-06
6.92749e-06
-2.13057e-06
6.90523e-06
-2.15664e-06
6.85397e-06
-1.92602e-06
-1.53664e-06
6.78412e-06
8.08771e-06
8.30399e-06
8.4087e-06
8.39511e-06
8.3183e-06
8.25118e-06
8.21636e-06
8.18615e-06
8.11765e-06
7.99696e-06
7.84397e-06
7.69313e-06
4.63244e-06
-1.16712e-06
4.63841e-06
-7.40384e-07
4.64876e-06
-3.74525e-07
4.73474e-06
-7.5827e-08
4.91509e-06
1.95845e-07
5.11893e-06
4.70298e-07
5.24657e-06
7.30184e-07
5.23162e-06
9.50135e-07
5.05705e-06
1.14227e-06
4.74375e-06
1.37295e-06
4.40306e-06
1.70588e-06
2.43187e-06
5.72204e-06
-1.16352e-06
5.70832e-06
-7.26669e-07
5.67933e-06
-3.45538e-07
5.64305e-06
-3.95387e-08
5.63731e-06
2.01581e-07
5.69217e-06
4.15434e-07
5.78898e-06
6.33383e-07
5.87093e-06
8.68179e-07
5.89195e-06
1.12126e-06
5.86301e-06
1.40189e-06
5.87408e-06
1.69481e-06
2.16422e-06
6.71277e-06
-1.09216e-06
6.65412e-06
-6.68018e-07
6.61338e-06
-3.04805e-07
6.58332e-06
-9.47031e-09
6.55131e-06
2.33591e-07
6.52121e-06
4.4553e-07
6.51164e-06
6.42956e-07
6.53364e-06
8.46175e-07
6.58385e-06
1.07105e-06
6.66139e-06
1.32435e-06
6.77733e-06
1.57886e-06
1.85373e-06
7.56992e-06
7.48271e-06
7.43029e-06
7.4109e-06
7.41227e-06
7.41637e-06
7.41165e-06
7.40331e-06
7.41057e-06
7.46024e-06
7.57559e-06
)
;

boundaryField
{
    rotor
    {
        type            calculated;
        value           nonuniform List<scalar> 
96
(
-4.03766e-23
5.8935e-24
5.1156e-23
-6.36929e-23
-7.11374e-23
-1.42688e-23
1.65798e-22
-6.96381e-23
8.83791e-23
6.31759e-23
2.55902e-24
-2.44794e-23
-3.54654e-23
-3.85144e-24
-6.4106e-24
-3.51551e-23
-3.90585e-23
3.71197e-23
1.14823e-22
1.14151e-22
-2.66506e-23
-1.05879e-22
2.61077e-24
-7.13449e-24
-6.46241e-24
-4.07385e-23
4.62186e-23
1.5202e-22
1.23431e-22
1.18906e-23
-3.74557e-23
1.19166e-22
3.67321e-23
-3.77413e-24
-7.44445e-24
4.05058e-23
-3.7559e-23
2.38588e-23
6.87613e-24
-4.52106e-23
-2.33679e-23
2.66767e-23
9.56411e-24
8.29782e-24
7.72378e-23
1.49487e-22
4.05317e-23
-4.78472e-23
4.23516e-22
4.23516e-22
8.47033e-22
0
0
0
0
0
0
-8.47033e-22
-8.47033e-22
-1.69407e-21
-8.47033e-22
-4.23516e-22
0
0
0
0
0
8.47033e-22
-8.47033e-22
0
0
0
4.23516e-22
4.23516e-22
0
0
-8.47033e-22
8.47033e-22
0
0
0
-8.47033e-22
-1.69407e-21
-1.69407e-21
4.23516e-22
0
0
0
8.47033e-22
8.47033e-22
0
8.47033e-22
8.47033e-22
0
-8.47033e-22
0
)
;
    }
    stator
    {
        type            calculated;
        value           nonuniform 0();
    }
    AMI1
    {
        type            cyclicAMI;
        value           nonuniform List<scalar> 
48
(
1.56072e-06
1.33344e-06
1.11229e-06
7.68384e-07
2.11942e-07
-4.88294e-07
-1.2097e-06
-1.78229e-06
-2.07258e-06
-2.05214e-06
-1.7906e-06
-1.40127e-06
-9.81668e-07
-5.91338e-07
-2.56713e-07
2.0519e-08
2.53643e-07
4.61691e-07
6.61275e-07
8.62219e-07
1.06738e-06
1.27497e-06
1.46069e-06
1.60102e-06
1.55557e-06
1.32653e-06
1.10346e-06
7.5787e-07
1.99705e-07
-4.9885e-07
-1.21591e-06
-1.78031e-06
-2.06206e-06
-2.03596e-06
-1.77303e-06
-1.3858e-06
-9.68955e-07
-5.80808e-07
-2.52387e-07
9.92435e-09
2.32216e-07
4.4143e-07
6.47679e-07
8.54518e-07
1.06379e-06
1.27468e-06
1.46352e-06
1.60751e-06
)
;
    }
    AMI2
    {
        type            cyclicAMI;
        value           nonuniform 0();
    }
    front
    {
        type            empty;
        value           nonuniform 0();
    }
    back
    {
        type            empty;
        value           nonuniform 0();
    }
    procBoundary3to2
    {
        type            processor;
        value           nonuniform List<scalar> 8(-4.53119e-06 -6.14339e-06 -7.08997e-06 -7.82388e-06 4.52916e-06 6.14172e-06 7.08783e-06 7.8218e-06);
    }
}


// ************************************************************************* //
