/*--------------------------------*- C++ -*----------------------------------*\
| =========                 |                                                 |
| \\      /  F ield         | OpenFOAM: The Open Source CFD Toolbox           |
|  \\    /   O peration     | Version:  2.4.0                                 |
|   \\  /    A nd           | Web:      www.OpenFOAM.org                      |
|    \\/     M anipulation  |                                                 |
\*---------------------------------------------------------------------------*/
FoamFile
{
    version     2.0;
    format      ascii;
    class       volScalarField;
    location    "1.2";
    object      alpha.water;
}
// * * * * * * * * * * * * * * * * * * * * * * * * * * * * * * * * * * * * * //

dimensions      [0 0 0 0 0 0 0];

internalField   nonuniform List<scalar> 
3072
(
5.63074e-15
1.14588e-13
1.70629e-12
1.13662e-11
1.13688e-11
1.13688e-11
2.21544e-05
0.0432588
0.0780081
0.0780081
0.0227818
2.30638e-11
7.76208e-14
9.08713e-13
7.7614e-12
7.78206e-12
2.67932e-11
0.00202501
0.0155169
0.00400389
0.00070995
0.000805748
1.91565e-06
6.96496e-08
6.58459e-13
9.57386e-13
3.9784e-11
7.94151e-05
0.0133121
0.0200861
0.0242284
6.68146e-11
7.33319e-05
8.26722e-05
8.18613e-07
1.75963e-10
4.17297e-10
1.07397e-08
4.77085e-12
4.89978e-11
0.0840417
0.28168
0.0288647
6.26394e-11
4.45173e-05
7.1487e-05
1.76244e-10
1.78553e-10
2.5106e-10
8.9761e-08
3.66965e-11
0.000271999
0.16218
0.309632
0.150647
6.24702e-11
1.96203e-06
4.87994e-06
3.32715e-06
4.45572e-06
9.14072e-11
1.50769e-07
4.88185e-07
4.71682e-06
0.143459
0.309071
0.251192
6.24669e-11
6.31237e-11
6.26925e-11
6.26919e-11
8.0181e-11
5.36836e-11
1.03069e-07
5.06027e-07
2.40084e-10
0.0361751
0.251338
0.20363
6.32551e-11
0.00111113
0.0119945
0.014724
0.00149806
2.04833e-11
1.32356e-08
7.46907e-08
3.19862e-10
2.2291e-05
0.0642348
0.111102
6.33764e-11
0.000826532
0.0119319
0.0176315
0.0150565
1.59155e-06
1.04771e-07
1.16245e-09
1.1422e-09
1.16125e-09
0.0121465
0.107746
0.101761
0.000825114
0.00210684
0.00599938
0.00250962
1.23435e-06
5.55268e-11
1.19158e-05
6.0621e-05
9.37569e-06
6.21966e-07
0.0890676
0.124582
0.0900154
0.0287659
1.00785e-09
1.03281e-09
2.58834e-11
2.5868e-11
4.47859e-06
3.48818e-05
8.03951e-06
6.2197e-07
0.00070406
0.0401156
0.0732877
0.0773299
0.0533028
0.0183292
0.00213661
0.00108919
2.18219e-06
2.36952e-06
2.2992e-06
6.44912e-07
6.21952e-07
0.000588255
0.250571
0.769557
0.907119
0.899868
2.33811e-10
2.54068e-10
0.0220884
0.126661
0.126661
0.109423
0.0206239
0.0355317
0.00516805
0.00796961
0.000642025
0.00167046
1.84449e-10
1.94917e-10
0.023006
0.0727678
0.0841354
0.0542514
0.0812033
0.103568
0.199746
0.222223
0.11485
0.103064
1.81028e-10
1.34738e-10
2.34893e-11
2.35166e-11
2.35877e-11
2.37326e-11
2.46668e-11
0.000155561
0.125463
0.257714
0.257936
0.193822
2.22078e-10
1.77414e-10
2.39834e-07
1.93097e-05
2.72232e-05
2.45538e-05
1.24551e-06
6.97282e-11
7.00588e-11
0.0422816
0.0923808
0.0884313
3.40975e-06
4.92645e-09
1.98798e-06
4.26349e-06
1.40966e-07
1.79156e-10
1.41556e-10
9.53807e-11
5.371e-11
0.0785375
0.120925
0.145534
5.05435e-05
4.96436e-10
8.61405e-06
2.48606e-05
2.84913e-05
3.59071e-05
6.79993e-05
5.84163e-06
5.37105e-11
0.0568871
0.307307
0.695121
5.28346e-05
0.000108374
8.57969e-06
1.77511e-05
8.06112e-05
0.000133847
0.000132128
5.31456e-05
5.37161e-11
0.239769
0.795298
1
0.00234115
0.000630415
6.06127e-05
1.96719e-05
1.84497e-05
9.17801e-05
0.00011736
6.04544e-05
5.37391e-11
0.297869
0.952619
1
0.00084868
0.000854685
0.000834459
0.000117823
1.86245e-10
1.63674e-10
1.62358e-10
1.32607e-06
8.60522e-11
0.21325
0.951161
1
1.00824e-09
0.000625748
0.000805079
0.000346884
2.24955e-10
1.87657e-10
1.58926e-10
1.33828e-10
1.10027e-10
0.00667
0.916778
1
0.0142138
0.00390107
2.97361e-10
2.71163e-10
2.4833e-10
0.00833532
0.026227
0.0235589
0.00346174
0.0020609
0.809151
1
0.808028
0.590736
0.376002
0.251068
0.202558
0.206778
0.380731
0.603195
0.501098
0.118178
0.250345
0.954598
4.5295e-21
7.26531e-19
8.13404e-18
1.05766e-16
2.22514e-15
3.06159e-14
2.65749e-13
1.52342e-12
5.95665e-12
1.67098e-11
3.00311e-11
3.00317e-11
3.59499e-17
3.79673e-15
1.22782e-13
1.85075e-12
1.56631e-11
8.13779e-11
2.69235e-10
5.69415e-10
7.6373e-10
2.44004e-10
7.44297e-11
7.36228e-06
8.0223e-16
5.14074e-14
9.15805e-13
7.86446e-12
4.0233e-11
1.34575e-10
3.0289e-10
4.52186e-10
4.06006e-10
2.40475e-07
4.27507e-05
7.54814e-05
6.27291e-15
2.24128e-13
2.51632e-12
1.48834e-11
5.65296e-11
1.49874e-10
2.83764e-10
3.78311e-10
3.71044e-10
1.51051e-05
7.54814e-05
7.53969e-05
2.51542e-14
5.74233e-13
4.57957e-12
2.06592e-11
6.34915e-11
1.44416e-10
2.49716e-10
3.25837e-10
3.33797e-10
7.58925e-06
6.93845e-05
7.48064e-05
6.34199e-14
1.02889e-12
6.39677e-12
2.36751e-11
6.21755e-11
1.26237e-10
2.0539e-10
2.70226e-10
3.01344e-10
1.48772e-06
1.44796e-05
1.99986e-05
1.0735e-13
1.3547e-12
7.04382e-12
2.27552e-11
5.42733e-11
1.05255e-10
1.74315e-10
2.51566e-10
5.25919e-09
1.42826e-08
2.63108e-10
2.39411e-10
1.29576e-13
1.31095e-12
5.859e-12
1.68324e-11
3.69598e-11
6.95673e-11
1.26467e-10
2.91957e-10
1.18823e-09
8.02481e-10
2.30343e-10
2.04492e-10
7.67458e-13
1.74547e-12
4.6403e-12
1.00229e-11
1.75738e-11
2.59334e-11
1.91471e-11
1.85398e-11
1.91661e-11
4.59728e-10
2.04544e-10
1.7898e-10
1.83103e-12
2.19308e-12
3.35425e-12
4.62497e-12
5.19283e-12
4.89849e-12
9.26493e-06
5.54246e-05
0.000113085
1.01879e-12
8.82919e-13
8.80908e-13
2.06177e-12
1.91427e-12
1.66768e-12
1.50931e-12
1.89405e-12
2.48332e-11
4.874e-11
6.2531e-05
0.0403627
0.0848278
0.103384
0.188787
3.32626e-15
3.32626e-15
3.32626e-15
3.32627e-15
2.21671e-11
0.0127635
0.0715982
0.105436
0.0548749
0.33139
0.790995
0.828728
3.29957e-11
4.66963e-08
7.84975e-07
1.39266e-06
4.93419e-07
2.82137e-10
1.86275e-07
9.54682e-09
9.34563e-09
9.17039e-09
5.95022e-11
7.57704e-13
2.91145e-05
2.90808e-05
8.08452e-06
1.79468e-10
1.80277e-10
2.40865e-10
4.39412e-06
9.21636e-06
1.70292e-06
1.02663e-10
5.64721e-11
1.28412e-11
1.85805e-05
1.50114e-10
1.78136e-07
6.42621e-10
2.18843e-10
2.53483e-10
9.27474e-07
2.33381e-05
3.99464e-05
2.1161e-05
1.62805e-06
6.01954e-11
1.73764e-05
1.38899e-10
1.86271e-10
4.38125e-10
3.35524e-10
2.11831e-10
1.72212e-10
9.59382e-07
0.000101288
0.000148952
8.81924e-05
1.56043e-05
3.03045e-06
1.39127e-10
5.47998e-10
6.17982e-10
2.73454e-10
1.77522e-10
1.37519e-10
2.13081e-06
9.26701e-05
0.000148543
0.000148952
9.39368e-05
2.21834e-06
1.38901e-10
2.13649e-10
2.12939e-10
1.68425e-10
1.23103e-10
1.01755e-10
1.14191e-10
5.65967e-06
7.44998e-05
0.000139754
5.00776e-05
1.35775e-08
1.51096e-10
1.26721e-10
1.00441e-10
7.80135e-11
6.9228e-11
6.33903e-11
7.86559e-11
7.91508e-11
8.16582e-11
2.32885e-07
8.83972e-06
1.90408e-10
1.63376e-10
1.32574e-10
1.05279e-10
8.39883e-11
8.16159e-11
5.91615e-11
6.80829e-11
1.7894e-10
4.06751e-09
6.95247e-08
0.000130574
1.73989e-10
1.6045e-10
1.4426e-10
1.26648e-10
1.12267e-10
9.81094e-11
8.15989e-11
6.98681e-11
5.94957e-11
8.85751e-09
8.42991e-11
0.000163619
2.93876e-11
5.40071e-11
7.65154e-11
9.18033e-11
1.01416e-10
1.22099e-10
1.0465e-10
8.71877e-11
6.48746e-11
6.2662e-09
8.16285e-11
0.000100333
0.202603
0.0889707
0.00855253
6.85426e-11
4.49892e-11
0.00100287
0.00528964
0.00277428
9.13687e-11
1.12333e-10
7.77999e-10
7.12167e-10
0.828737
0.828735
0.64287
0.105811
7.13602e-11
0.00455536
0.28277
0.488446
0.269315
0.00958804
1.89993e-10
2.2686e-06
1.16664e-22
2.14286e-20
3.16719e-19
8.84648e-19
9.19895e-19
1.56579e-17
3.19212e-16
3.38022e-15
1.82865e-14
5.2981e-14
1.02867e-13
1.61513e-13
1.49291e-20
6.10584e-19
8.2075e-18
1.12191e-16
1.43128e-15
1.09083e-14
4.67497e-14
1.20646e-13
2.2253e-13
3.41042e-13
4.65687e-13
5.89481e-13
2.3503e-19
1.38122e-17
2.60984e-16
2.65521e-15
1.55857e-14
5.58464e-14
1.35376e-13
2.51977e-13
3.91755e-13
5.40417e-13
6.86764e-13
8.23446e-13
7.48424e-18
2.37673e-16
2.39712e-15
1.26512e-14
4.28785e-14
1.05581e-13
2.05567e-13
3.36271e-13
4.83763e-13
6.33306e-13
7.72668e-13
8.93296e-13
8.31352e-17
1.34887e-15
7.85969e-15
2.73248e-14
6.90835e-14
1.40104e-13
2.41466e-13
3.67057e-13
5.05103e-13
6.41252e-13
7.61603e-13
8.55258e-13
3.4833e-16
3.46431e-15
1.44863e-14
3.96338e-14
8.41892e-14
1.51249e-13
2.41164e-13
3.50672e-13
4.71789e-13
5.91672e-13
6.94521e-13
7.65195e-13
7.60167e-16
5.46195e-15
1.85051e-14
4.33054e-14
8.1844e-14
1.35502e-13
2.05761e-13
2.93283e-13
3.95243e-13
5.02457e-13
5.98907e-13
6.6499e-13
1.01015e-15
5.84598e-15
1.68855e-14
3.44919e-14
5.85254e-14
9.08984e-14
1.36993e-13
1.979e-13
2.79359e-13
3.79748e-13
4.81252e-13
5.5339e-13
9.53849e-14
7.58153e-13
2.96979e-12
5.89432e-12
3.60996e-14
3.2921e-14
3.28993e-14
3.29196e-14
3.29039e-14
7.77261e-13
5.13203e-13
4.49448e-13
1.35966e-13
6.72847e-13
2.27044e-12
8.52317e-14
3.42603e-14
5.75071e-06
2.87536e-05
3.83898e-05
1.12776e-05
1.83409e-11
5.09623e-13
5.95533e-13
5.57586e-17
6.30521e-17
7.51884e-16
8.99647e-08
3.06275e-06
3.84209e-06
3.58675e-06
0.00051161
0.000654084
0.000492722
6.74733e-05
1.04135e-11
3.70999e-05
1.82043e-05
1.33532e-06
5.58275e-11
3.80604e-11
5.22211e-05
0.000189172
0.000192774
0.000197077
0.00186207
0.0024294
0.00202629
2.24712e-13
2.90994e-13
3.60925e-13
4.36597e-13
5.21249e-13
6.04725e-13
6.53831e-13
6.66574e-13
6.30535e-13
5.18393e-13
2.8827e-13
8.28541e-15
7.08248e-13
8.19291e-13
9.20464e-13
1.01e-12
1.08732e-12
1.14677e-12
1.19483e-12
1.22908e-12
1.23276e-12
1.15887e-12
8.94766e-13
1.7244e-13
9.4592e-13
1.05141e-12
1.13844e-12
1.20685e-12
1.25794e-12
1.30875e-12
1.37748e-12
1.46844e-12
1.56852e-12
1.62257e-12
1.48231e-12
6.76753e-13
9.90318e-13
1.06251e-12
1.11255e-12
1.14711e-12
1.17634e-12
1.22373e-12
1.32358e-12
1.4941e-12
1.73022e-12
1.94743e-12
1.9741e-12
1.34288e-12
9.16213e-13
9.44901e-13
9.49284e-13
9.44798e-13
9.52585e-13
9.96906e-13
1.14089e-12
1.44591e-12
1.93189e-12
2.31855e-12
2.47647e-12
1.90324e-12
7.93316e-13
7.77347e-13
7.28341e-13
6.72423e-13
6.4995e-13
6.91833e-13
9.06197e-13
1.5263e-12
2.71648e-12
3.09316e-12
3.25929e-12
2.31613e-12
6.82942e-13
6.42668e-13
5.47646e-13
4.23339e-13
3.28392e-13
3.66214e-13
6.75418e-13
2.12968e-12
5.80426e-12
5.12515e-12
4.87376e-12
2.78717e-12
5.85181e-13
5.6371e-13
4.84816e-13
3.5358e-13
1.647e-13
1.02576e-13
3.58604e-13
3.64581e-12
1.57836e-11
1.04852e-11
8.55989e-12
3.98884e-12
4.67135e-13
4.72528e-13
4.36025e-13
3.55211e-13
2.46781e-13
1.58681e-13
1.32813e-13
6.0113e-12
4.00914e-11
2.3443e-11
1.67209e-11
8.03399e-12
4.77922e-13
3.93384e-13
3.59258e-13
3.24963e-13
2.75405e-13
2.26282e-13
2.56765e-13
1.10429e-11
7.89033e-11
4.91695e-11
3.27499e-11
1.95027e-11
4.72857e-13
3.98556e-13
4.39364e-12
2.77169e-13
2.57125e-13
2.30013e-13
8.00834e-13
1.31927e-11
1.1265e-10
7.49969e-11
5.53317e-11
4.36489e-11
0.000361148
2.31245e-11
7.47948e-12
7.29858e-08
8.84272e-08
2.19027e-08
3.4093e-11
3.55601e-11
5.85628e-11
8.14839e-11
7.08981e-08
1.95036e-08
1
1
1
1
1
1
0.999981
0.999944
0.999989
0.999998
0.999998
0.999998
1
1
1
1
0.99965
0.998328
0.998703
1
0.999029
0.964634
0.91714
0.885405
1
1
1
0.998495
0.996883
0.997514
1
1
0.957053
0.693166
0.610627
0.6179
1
1
0.999964
0.999309
0.999244
1
1
0.982356
0.873414
0.719469
0.592711
0.642069
1
1
0.999991
0.999976
0.999976
0.931477
0.554402
0.289794
0.201355
0.254968
0.402975
0.52908
1
1
0.999999
1
0.921523
0.391594
0.0198799
6.0252e-11
6.03004e-11
6.0252e-11
6.03004e-11
6.176e-11
1
1
1
1
0.846638
0.119263
1.36376e-10
1.05503e-10
8.771e-11
7.32519e-11
6.34249e-11
5.74381e-11
1
1
1
1
0.937598
0.293974
1.70742e-10
1.46893e-10
1.26498e-10
1.07521e-10
8.98883e-11
7.36667e-11
1
1
1
1
1
0.770403
0.0743204
1.53012e-10
1.25818e-10
1.31353e-10
1.14095e-10
9.82661e-11
1
1
1
1
1
1
0.637669
0.0473096
1.4913e-10
0.00118395
1.43423e-10
1.57981e-05
1
1
1
1
1
1
0.961601
0.890461
0.780774
0.403213
0.259395
0.395152
0.200859
0.18994
0.206303
0.329661
0.469042
0.667514
0.945531
0.860027
0.70877
0.728249
0.938874
0.941422
0.999998
0.999998
0.999759
0.999684
0.999634
0.999522
0.999572
0.999925
1
1
1
0.999999
0.908617
0.955019
0.997183
1
1
0.999969
0.998581
0.998162
1
1
1
0.999994
0.64237
0.804831
1
1
1
1
0.997865
0.963587
0.958711
0.991251
0.983629
0.999821
0.811886
0.919202
1
1
1
1
1
0.962495
0.847557
0.814641
0.805125
0.881654
0.719103
0.891799
0.997079
1
1
1
0.999999
0.999999
0.97738
0.844649
0.757232
0.757232
0.0470426
0.296941
0.731498
0.983356
1
1
0.999997
0.999996
0.999997
0.998709
0.93104
0.766168
5.60512e-11
6.44631e-11
0.0766858
0.430669
0.868291
1
1
0.999996
0.999997
0.996957
0.996171
0.979767
6.05299e-11
5.59491e-11
5.57372e-11
6.57508e-11
0.16595
0.676176
0.982161
0.999997
0.999997
0.994988
0.988897
0.999128
7.85013e-11
6.50239e-11
8.22927e-11
9.24856e-11
9.44164e-11
0.0233901
0.39226
0.812855
0.999997
0.999679
0.988919
0.989601
1.0554e-10
8.79898e-11
0.000864879
0.00159615
1.13535e-10
8.69253e-11
1.19363e-10
0.0662013
0.591983
0.999679
0.998112
0.971752
0.168682
0.0069907
0.0102896
0.0186687
0.014893
9.41025e-11
0.0102563
0.00386822
0.00211944
0.441666
0.998108
0.99099
0.939892
0.494496
0.00740541
6.36777e-06
0.0951105
0.366503
0.429022
0.500205
0.0932125
0.0812599
0.142196
0.847007
0.277782
0.316914
0.192689
0.0161081
6.21998e-07
6.21972e-07
6.21955e-07
0.269781
0.930622
0.999032
1
1
0.847569
0.904729
0.905652
0.624465
0.0654591
0.00597918
0.0214969
0.0895342
0.0971449
0.149816
0.817379
1
0.475904
0.776243
0.906331
0.905652
0.777697
0.415684
0.422816
0.357753
0.374172
0.633167
0.972786
1
0.797876
0.818268
0.709871
0.710246
0.740957
0.91585
0.999506
0.9996
0.997672
1
1
1
1
1
1
1
0.830303
0.779789
0.917701
0.996133
1
0.953112
0.338928
0.906378
0.999967
0.999797
0.999977
1
0.982215
0.663377
0.649165
0.896701
1
1
0.90848
0.595572
0.996751
0.993211
0.994633
1
1
0.707946
0.652399
0.841042
1
1
1
0.870464
1
0.996418
0.992954
0.993526
0.97812
0.943342
0.928353
0.963005
1
1
1
1
0.524614
0.195576
0.149893
0.0584389
0.073247
0.240323
0.594252
0.743071
0.622595
0.44455
0.449533
0.729365
0.280882
0.264825
0.25958
0.145892
0.202651
0.70233
0.748851
0.748851
0.748851
0.748851
0.267493
0.0432589
0.664201
0.709931
0.75269
0.481015
0.269185
0.380158
0.686211
0.748851
0.711492
0.508184
0.0858379
5.6321e-11
0.998603
0.973236
0.835963
0.702171
0.46244
0.12382
0.108307
0.113091
0.0701803
0.00853074
3.37351e-05
8.91967e-07
0.828727
0.828737
0.828727
0.798113
0.188189
0.1525
0.718453
0.996748
0.988622
0.378493
1.63119e-10
2.74968e-07
0.37165
0.823118
0.828728
0.828724
0.374134
0.491118
0.948774
0.996874
0.996874
0.831121
0.102009
9.14343e-11
3.37751e-11
0.217454
0.781393
0.778639
0.501754
0.552469
0.931499
0.996874
0.996874
0.983989
0.316751
1.05104e-10
2.33762e-11
0.0315848
0.139165
0.119441
0.0763217
0.0851892
0.35383
0.659425
0.597418
0.450153
0.271769
0.0105978
7.66781e-11
6.85691e-11
6.3549e-09
5.44447e-09
5.11957e-10
5.65831e-11
4.65785e-11
0.000717346
0.00089669
0.000596352
0.000584759
0.0022885
6.766e-11
6.10506e-08
7.84668e-08
5.85107e-08
8.41459e-11
6.97092e-11
7.31878e-11
5.01726e-11
5.16134e-11
0.000317033
0.00205989
0.00251081
2.07303e-09
3.13943e-10
2.96695e-10
3.20392e-10
3.87713e-07
2.13281e-06
5.31387e-06
4.5405e-06
9.08311e-07
1.77823e-07
0.000553721
0.00182973
2.64232e-09
3.42803e-06
9.30069e-06
1.40755e-05
4.55121e-06
1.65644e-05
1.72661e-05
1.73529e-05
1.77826e-07
1.88266e-07
1.77827e-07
7.3862e-05
0.00385765
0.00395944
0.000953374
2.64107e-08
2.75371e-08
4.45474e-08
3.59175e-08
8.3505e-07
2.73198e-06
2.70065e-06
9.87137e-07
1.64795e-07
0.00163155
0.000764976
0.00232335
0.00275391
0.00147723
2.70736e-05
8.95217e-08
1.6491e-05
3.02013e-05
3.03399e-05
1.29319e-05
4.78109e-11
0.000885123
5.97673e-06
4.80078e-11
0.00520998
0.0121461
0.0110397
0.00203583
7.64871e-06
4.87272e-06
1.28539e-05
1.15647e-05
8.13756e-07
1.99745e-05
4.63677e-11
4.50849e-11
0.000176708
0.011281
0.0128605
0.0128041
0.00475002
3.22828e-11
1.21639e-11
1.18903e-11
1.42346e-07
3.2707e-12
3.25976e-12
3.28794e-12
3.10407e-11
0.000133978
0.000584764
0.192813
0.151716
0.0448549
4.6688e-11
0.538533
0.941421
2.60381e-11
3.27122e-12
2.25508e-05
4.58486e-05
2.63767e-05
8.3916e-11
6.29777e-11
3.99406e-11
3.99406e-11
3.99406e-11
0.00106099
0.296029
1.34351e-09
6.6496e-09
4.04499e-09
2.26019e-05
0.000109992
0.000107877
6.76338e-05
1.15501e-07
4.76179e-11
5.2265e-11
4.00148e-11
4.56722e-11
2.5214e-07
2.33765e-07
8.25538e-08
4.13506e-08
9.13497e-06
0.000102543
7.58193e-05
1.87037e-06
2.02532e-11
2.02526e-11
2.02526e-11
2.02526e-11
0.941422
0.52898
0.00847877
8.49504e-11
6.48858e-11
0.0213752
0.732992
0.948863
0.948863
0.596676
0.153153
0.20657
0.471611
0.213616
0.00513657
8.68185e-11
6.78971e-11
6.48858e-11
0.519398
0.948191
0.948863
0.948863
0.851342
0.777425
0.00229679
9.4472e-11
1.13467e-10
1.02142e-10
8.98985e-11
1.04061e-10
0.0717892
0.32197
0.584008
0.605166
0.499295
0.469221
2.04293e-11
0.0569495
0.133542
0.206496
0.2679
0.297733
0.315195
0.375385
0.478888
0.478675
0.483005
0.565388
0.809706
0.897515
0.931048
0.938144
0.937516
0.958842
0.977655
0.993484
0.907953
0.791495
0.751941
0.726352
0.0975654
0.229677
0.2995
0.273373
0.277468
0.331184
0.381804
0.337592
0.165515
0.0968998
0.0546318
0.0248753
5.54109e-12
5.5246e-12
5.5237e-12
5.52371e-12
5.5237e-12
5.52378e-12
1.08732e-11
0.00563652
8.3057e-11
8.99112e-11
9.3561e-11
8.21598e-11
1.44043e-06
1.46062e-05
5.52372e-12
1.58242e-11
2.47744e-11
2.92321e-11
3.07894e-11
4.52867e-11
6.68664e-11
7.32168e-11
7.82273e-11
8.28959e-11
0.750038
0.871539
0.946708
0.992975
0.999148
0.999422
0.999142
0.999422
0.938706
0.785192
0.526075
0.193614
0.0216273
0.0981035
0.254462
0.487592
0.627298
0.649847
0.560891
0.360395
0.242728
0.0933817
0.00682652
8.82763e-07
6.5662e-11
6.57787e-11
7.61461e-11
0.00322501
0.0157936
0.0237429
0.0197813
0.00071738
0.000730137
0.0103835
0.00809511
2.73645e-07
9.63076e-10
6.15628e-08
9.75268e-08
3.79241e-09
1.70766e-09
1.16752e-09
1.76217e-09
0.000913764
0.00347618
0.00333636
0.000660007
3.98096e-06
0.0349912
0.0122332
4.93751e-11
4.89382e-11
4.87726e-11
4.87498e-11
4.87499e-11
4.87498e-11
4.87499e-11
4.89337e-11
7.4184e-07
4.63224e-11
2.73661e-07
0.00147674
0.0030508
0.00165009
0.000131578
4.87552e-11
8.2426e-09
6.14412e-09
1.87531e-08
9.0533e-07
1.22321e-06
1.15102e-06
5.47898e-05
0.00235904
0.00426377
0.00421942
0.000667071
4.96266e-11
4.73334e-08
5.77582e-08
7.85526e-08
2.59241e-07
3.63306e-07
1.63417e-07
0.000126463
0.00020894
0.000381418
0.00065536
0.000838368
3.96304e-05
4.91484e-08
4.9923e-08
7.19127e-08
4.87716e-08
3.27876e-11
1.70654e-11
2.31416e-11
2.28306e-11
3.71574e-12
3.7222e-12
1.8948e-11
0.00294752
0.0146504
0.00951132
1.53133e-14
1.56338e-14
1.53139e-14
8.10202e-12
3.13077e-08
1.02956e-11
1.00877e-11
1.8168e-11
2.19662e-11
2.93119e-11
4.48296e-11
6.09433e-11
1.2306e-10
2.37095e-10
3.59734e-09
1.72082e-09
4.76472e-09
2.28265e-08
1.28267e-12
3.34225e-12
6.34716e-12
1.34629e-11
2.92496e-11
6.39542e-11
1.28211e-10
1.44305e-10
1.05509e-07
6.56675e-07
3.6134e-15
6.07223e-14
2.66807e-13
8.53497e-13
2.71909e-12
8.32921e-12
2.37168e-11
6.56947e-11
2.93188e-10
6.19071e-09
1.08968e-08
7.86913e-12
1.11797e-05
4.93348e-05
5.02741e-05
2.73559e-05
1.49191e-08
1.49313e-08
8.36102e-08
0.000260726
0.0018063
0.00243289
0.00232763
0.000573638
3.00079e-06
1.23757e-05
1.49256e-05
3.47292e-09
1.79678e-08
1.49205e-08
1.55704e-06
0.00148234
0.00250366
0.00251815
0.00140373
0.00019204
4.54119e-07
1.93947e-11
1.93398e-11
1.25903e-08
5.55231e-08
1.49481e-08
4.05176e-05
0.000564133
0.00103075
0.000896059
1.59113e-05
1.96792e-10
7.83077e-12
3.89075e-11
6.72027e-11
9.10845e-11
2.72759e-10
1.61516e-06
1.47097e-05
1.43929e-05
2.70048e-10
2.32351e-10
1.93713e-10
1.62982e-10
0.000268752
0.00184744
0.00185031
0.0007665
0.00026016
1.62019e-11
1.60347e-11
1.62019e-11
1.74461e-11
1.39541e-11
1.25784e-11
1.24256e-11
0.00020253
0.00037609
9.98116e-05
1.11252e-07
2.72789e-11
3.41343e-11
3.66328e-11
3.59606e-11
3.26585e-11
2.88107e-11
2.6089e-11
2.4914e-11
5.81407e-07
2.11251e-11
2.52998e-11
2.03364e-11
2.74184e-11
3.42979e-11
3.88669e-11
3.96405e-11
3.69333e-11
3.32118e-11
3.17295e-11
3.53061e-11
6.73108e-13
3.57697e-12
9.42104e-12
1.59961e-11
2.44962e-11
3.33013e-11
4.01327e-11
4.31441e-11
4.18283e-11
3.86562e-11
4.05816e-11
5.31017e-11
1.62633e-11
3.77178e-11
1.85517e-06
4.28928e-06
3.60678e-06
2.99888e-11
3.03124e-11
5.12286e-11
0.138453
0.332981
0.556608
0.783569
2.6279e-11
4.04069e-11
2.47583e-11
2.44411e-11
4.64866e-11
0.184366
0.473513
0.724222
0.876565
0.962551
1
1
4.21702e-11
0.000192347
0.0437949
0.388443
0.743278
0.92721
0.99683
1
1
1
1
1
0.0610298
0.488294
0.824751
0.969859
1
1
1
1
1
1
1
1
0.957183
1
1
1
1
1
1
1
1
0.957841
0.772305
0.751647
1
1
1
1
1
1
1
1
1
0.889488
0.177723
0.0169785
1
1
1
1
1
1
1
1
1
0.953868
0.308097
6.71859e-12
1
1
1
1
1
1
1
1
1
0.99317
0.477476
6.49392e-12
6.85671e-12
0.000279579
0.000172311
5.69521e-12
2.08217e-11
2.28415e-11
2.76929e-11
3.4183e-11
4.04854e-11
4.1042e-11
3.53095e-11
2.32936e-11
5.37688e-12
0.000232035
8.46141e-05
5.78809e-12
1.37201e-11
1.36299e-11
1.51521e-11
1.79217e-11
1.90709e-11
1.54655e-11
5.02562e-12
3.11904e-13
5.07967e-12
7.84699e-06
5.38458e-09
2.61774e-10
1.1023e-11
1.02161e-11
8.86848e-12
8.70185e-12
8.05782e-12
4.98412e-12
1.16688e-12
1.12784e-13
5.07008e-12
1.83256e-11
8.23616e-12
5.05259e-12
5.05655e-12
1.006e-11
8.50361e-12
6.27127e-12
4.48369e-12
2.31427e-12
6.659e-13
1.17256e-13
5.07556e-12
2.05838e-11
1.08406e-11
9.14297e-07
3.55787e-07
9.95619e-12
9.94358e-12
6.81593e-12
4.0141e-12
1.86729e-12
5.78174e-13
9.44525e-14
0.00387136
1.74233e-11
2.26539e-06
7.7893e-06
7.81012e-06
9.96697e-12
1.0978e-11
6.85747e-12
3.69204e-12
1.52968e-12
4.24714e-13
5.8468e-14
0.154521
4.85225e-12
2.77264e-06
7.82464e-06
3.73304e-06
4.56623e-08
2.01442e-11
8.22496e-12
3.11124e-12
1.05733e-12
2.48074e-13
2.74843e-14
0.398032
4.85217e-12
4.42728e-07
3.22606e-06
1.52106e-07
2.8416e-11
1.21423e-11
5.14686e-12
1.98165e-12
5.79844e-13
1.10564e-13
9.49456e-15
0.671376
0.0188212
4.3144e-12
1.96815e-11
2.59629e-11
1.43084e-11
7.81889e-12
3.43151e-12
1.09187e-12
2.44246e-13
3.48334e-14
2.22074e-15
0.85372
0.160361
4.2858e-12
1.05976e-11
1.52811e-11
1.08855e-11
5.37474e-12
1.81585e-12
4.16027e-13
6.4399e-14
6.341e-15
2.88291e-16
0.950929
0.317514
4.2858e-12
5.39166e-12
1.10987e-11
6.34793e-12
2.22615e-12
4.83766e-13
6.71692e-14
6.16864e-15
3.72369e-16
1.17143e-17
0.995705
0.50795
4.2858e-12
4.30927e-12
4.77856e-12
1.10645e-12
1.36391e-13
9.80625e-15
4.47239e-16
1.56529e-17
9.19989e-19
4.56468e-20
2.01273e-10
2.16399e-09
1.39708e-08
1.9361e-08
1.63595e-09
1.7113e-09
0.00011761
0.00033742
0.000452234
4.98269e-11
5.39791e-11
2.89477e-09
7.68066e-12
9.77522e-12
3.72406e-11
6.75485e-10
5.77869e-10
8.95982e-06
3.36549e-05
5.96969e-11
4.74449e-11
3.26011e-11
3.89383e-11
5.27912e-11
5.27121e-12
3.05243e-11
7.39054e-11
9.07313e-11
1.66212e-07
1.41438e-06
5.79342e-11
4.18263e-11
3.92337e-11
5.45928e-11
1.52893e-10
3.93654e-10
1.42333e-13
3.39613e-12
5.49512e-11
8.41477e-10
1.50815e-08
3.0264e-11
4.83635e-11
2.76643e-11
2.90864e-11
3.33937e-11
4.49694e-11
5.24307e-11
4.21492e-15
1.52951e-13
3.50567e-12
5.06322e-11
2.50235e-11
1.59379e-11
2.90949e-11
1.80188e-11
2.10267e-11
2.21231e-11
2.07362e-11
1.58093e-11
1.12383e-16
6.53844e-15
1.71276e-13
3.13234e-12
1.11569e-11
5.32081e-12
1.10296e-11
9.80911e-12
1.24728e-11
1.36711e-11
1.29739e-11
1.08561e-11
3.19701e-18
2.41625e-16
6.4573e-15
1.63929e-13
1.42129e-12
1.17056e-12
2.80365e-12
3.59277e-12
5.04912e-12
5.90771e-12
5.95058e-12
5.30684e-12
6.34038e-20
7.92367e-18
2.3219e-16
7.12627e-15
9.49332e-14
1.68043e-13
4.86642e-13
8.37577e-13
1.29722e-12
1.60304e-12
1.6612e-12
1.46347e-12
9.98672e-22
1.9974e-19
6.7933e-18
2.49522e-16
4.17258e-15
1.54932e-14
5.51125e-14
1.19006e-13
2.0077e-13
2.57083e-13
2.63617e-13
2.13591e-13
9.99333e-24
3.1614e-21
1.29363e-19
6.10691e-18
1.25654e-16
8.34278e-16
3.64304e-15
9.39707e-15
1.7036e-14
2.2096e-14
2.14682e-14
1.47472e-14
4.86403e-26
2.43377e-23
1.19963e-21
7.81026e-20
2.09333e-18
2.1162e-17
1.12886e-16
3.37409e-16
6.48706e-16
8.29702e-16
7.22757e-16
3.73197e-16
6.59499e-29
5.30122e-26
3.03503e-24
2.87565e-22
1.04881e-20
1.47585e-19
9.59002e-19
3.26957e-18
6.58819e-18
8.03291e-18
5.77138e-18
1.80677e-18
5.56862e-11
5.5821e-11
5.57057e-11
5.59028e-11
4.98047e-06
0.00018555
0.000148543
1.33197e-08
1.30015e-08
1.26851e-08
2.60647e-09
1.61073e-10
1.45221e-10
7.46736e-11
1.62613e-07
4.59829e-07
4.91582e-07
3.2719e-06
1.92622e-05
2.05854e-05
2.58859e-06
2.59336e-11
2.48094e-11
2.1077e-13
8.33897e-10
1.34366e-09
2.01328e-10
2.02128e-10
2.0817e-10
4.52233e-11
2.14151e-09
2.15666e-06
2.24666e-06
1.73967e-07
8.96437e-15
6.6967e-15
8.49961e-11
1.33595e-10
2.00598e-10
3.56161e-10
5.47179e-10
4.51438e-11
2.11345e-09
2.4956e-11
2.49251e-11
8.62978e-10
3.23999e-12
1.91564e-14
1.27191e-11
1.28506e-11
1.62984e-11
2.24298e-11
2.47772e-11
3.22036e-11
6.19891e-13
1.00591e-10
2.48909e-11
1.07625e-12
3.65239e-14
8.33756e-16
7.83195e-12
4.71324e-12
2.46033e-12
1.523e-12
1.25072e-12
8.73647e-13
1.80137e-13
5.75169e-13
5.31519e-13
6.62975e-14
4.02947e-15
1.05766e-16
4.18298e-12
2.64373e-12
1.14085e-12
3.70876e-13
1.01237e-13
3.17872e-14
5.81175e-15
6.76423e-16
7.60649e-17
8.58819e-18
7.42633e-19
3.2965e-20
1.17766e-12
8.19589e-13
3.79247e-13
1.18402e-13
2.60767e-14
4.22822e-15
5.22635e-16
5.0787e-17
4.00111e-18
2.61751e-19
1.43902e-20
5.31467e-22
1.60584e-13
1.15125e-13
5.72226e-14
1.90102e-14
4.35011e-15
7.07561e-16
8.40862e-17
7.46721e-18
4.99537e-19
2.45354e-20
8.28402e-22
1.65942e-23
9.45318e-15
6.45425e-15
3.16183e-15
1.03465e-15
2.30947e-16
3.61598e-17
4.06698e-18
3.34084e-19
2.00308e-20
8.42112e-22
2.23497e-23
3.04306e-25
1.80571e-16
1.07873e-16
4.56825e-17
1.25608e-17
2.31382e-18
2.95511e-19
2.68605e-20
1.76512e-21
8.35309e-23
2.72482e-24
5.73069e-26
8.20284e-28
5.19257e-19
2.31154e-19
5.82063e-20
8.5105e-21
7.97005e-22
5.07464e-23
2.27847e-24
7.35279e-26
1.71004e-27
3.60545e-29
6.44621e-30
4.16698e-31
2.36255e-15
1.23742e-14
5.63625e-14
2.62297e-13
1.22675e-12
5.33429e-12
1.97435e-11
5.64955e-11
1.06857e-10
7.15299e-11
4.11411e-12
1.38541e-11
1.92139e-16
1.46226e-15
6.67682e-15
2.40569e-14
7.42973e-14
2.09471e-13
5.47786e-13
1.2644e-12
2.38851e-12
3.49683e-12
3.98847e-12
4.15112e-12
1.46311e-17
1.85956e-16
1.16968e-15
5.01311e-15
1.59165e-14
3.972e-14
8.48225e-14
1.66754e-13
3.1656e-13
5.7738e-13
9.72487e-13
1.45743e-12
6.92649e-19
1.47722e-17
1.36191e-16
7.75983e-16
3.07474e-15
9.07832e-15
2.02292e-14
3.66304e-14
5.79796e-14
8.41506e-14
1.17419e-13
1.62611e-13
1.93659e-20
5.90842e-19
8.08513e-18
6.82612e-17
3.89286e-16
1.45549e-15
3.88353e-15
8.03411e-15
1.36156e-14
1.96222e-14
2.42839e-14
2.68845e-14
6.49564e-22
2.37071e-20
3.39566e-19
4.03349e-18
3.06975e-17
1.45887e-16
4.71843e-16
1.15699e-15
2.30948e-15
3.85543e-15
5.32035e-15
5.93082e-15
1.79527e-23
7.68886e-22
1.1017e-20
1.66616e-19
1.72499e-18
1.05445e-17
4.04409e-17
1.10316e-16
2.41381e-16
4.68572e-16
7.94828e-16
1.02528e-15
4.17641e-25
2.06021e-23
2.86565e-22
5.26038e-21
7.38822e-20
5.77502e-19
2.57067e-18
7.57299e-18
1.71559e-17
3.38582e-17
6.93584e-17
1.10797e-16
7.24679e-27
4.04302e-25
5.52959e-24
1.22348e-22
2.28485e-21
2.2428e-20
1.14558e-19
3.60427e-19
8.26032e-19
1.59591e-18
3.47891e-18
6.80757e-18
8.19714e-29
5.08116e-27
6.86194e-26
1.83953e-24
4.49485e-23
5.4586e-22
3.17021e-21
1.05418e-20
2.40224e-20
4.49583e-20
9.68671e-20
2.15907e-19
4.84028e-31
3.26744e-29
4.32068e-28
1.40832e-26
4.45412e-25
6.62659e-24
4.34616e-23
1.51342e-22
3.37057e-22
5.93616e-22
1.16436e-21
2.68408e-21
8.7295e-34
6.31347e-32
7.97308e-31
3.16829e-29
1.29641e-27
2.36053e-26
1.74503e-25
6.32521e-25
1.35347e-24
2.13262e-24
3.12602e-24
6.23708e-24
5.94632e-11
1.19419e-10
1.35888e-10
6.2011e-11
4.34509e-09
2.50997e-07
5.30292e-07
4.72887e-10
9.48523e-10
1.05046e-09
1.04931e-09
7.54263e-10
5.12079e-12
6.93727e-12
1.02189e-11
3.51054e-11
2.49264e-10
1.10096e-09
6.35387e-11
4.70964e-10
9.67086e-10
1.3219e-09
1.11271e-09
7.60913e-11
1.92434e-12
2.32449e-12
2.80811e-12
3.92402e-12
7.40653e-12
1.82851e-11
4.68121e-11
1.64472e-10
3.70035e-10
4.84261e-10
2.25335e-10
2.3376e-14
2.2411e-13
3.05577e-13
4.21034e-13
6.41573e-13
1.21717e-12
3.13563e-12
9.15769e-12
3.00543e-11
7.10349e-11
7.96965e-11
4.75065e-12
1.11135e-15
2.81245e-14
3.01004e-14
3.60787e-14
5.47059e-14
1.1974e-13
3.80609e-13
1.16232e-12
3.44366e-12
7.69814e-12
5.87716e-12
3.15379e-14
1.08985e-15
5.42417e-15
4.21189e-15
3.01744e-15
2.64861e-15
5.34152e-15
2.5797e-14
1.02153e-13
2.80012e-13
5.14682e-13
1.979e-13
3.56934e-15
6.37271e-17
9.63037e-16
6.43203e-16
2.95491e-16
1.12365e-16
8.13287e-17
7.00582e-16
5.30774e-15
1.59107e-14
2.23368e-14
3.40794e-15
1.20028e-16
2.18332e-18
1.13159e-16
6.94177e-17
1.84243e-17
3.00704e-18
2.7122e-19
4.77723e-18
1.35774e-16
5.43635e-16
6.00586e-16
4.46896e-17
1.94742e-18
3.57163e-20
7.13593e-18
4.02022e-18
6.09998e-19
3.75939e-20
8.74595e-22
3.4207e-21
1.50561e-18
9.3874e-18
8.53143e-18
4.25076e-19
1.62517e-20
2.70761e-22
2.03715e-19
9.59787e-20
1.28663e-20
6.97241e-22
1.83729e-23
5.20689e-25
6.23674e-21
7.05722e-20
5.13144e-20
2.08558e-21
6.32968e-23
8.88956e-25
1.99098e-21
7.03533e-22
9.14761e-23
5.36463e-24
1.6048e-25
2.80563e-27
7.97913e-24
1.86344e-22
9.17672e-23
3.48173e-24
8.23986e-26
9.05377e-28
2.77376e-24
5.87533e-25
4.6272e-26
1.71136e-27
3.43185e-29
4.24067e-31
2.02356e-27
1.00839e-25
2.65463e-26
7.3329e-28
1.07144e-29
6.99259e-32
6.8728e-13
2.28537e-12
5.65047e-12
1.17199e-11
2.04702e-11
3.05016e-11
3.97561e-11
4.63939e-11
4.9232e-11
5.00334e-11
5.70679e-11
0.0924655
1.67317e-13
9.00036e-13
2.99903e-12
7.62812e-12
1.5328e-11
2.53407e-11
3.62122e-11
4.65734e-11
5.42803e-11
5.50827e-11
4.35855e-05
0.376541
3.5469e-14
2.93803e-13
1.3213e-12
4.15085e-12
9.72961e-12
1.8051e-11
2.83182e-11
3.98922e-11
5.23631e-11
6.51599e-11
0.00813303
0.548745
5.89256e-15
7.31987e-14
4.45358e-13
1.76057e-12
4.94587e-12
1.05359e-11
1.82547e-11
2.76202e-11
3.85845e-11
5.16772e-11
0.00638658
0.543963
6.64146e-16
1.25196e-14
1.05584e-13
5.46149e-13
1.93383e-12
4.99745e-12
1.00578e-11
1.70011e-11
2.60518e-11
3.87067e-11
0.00317712
0.500208
4.3922e-17
1.30034e-15
1.58636e-14
1.13153e-13
5.38754e-13
1.82434e-12
4.6326e-12
9.43875e-12
1.67846e-11
2.89968e-11
0.000516016
0.427587
1.37608e-18
6.8639e-17
1.30836e-15
1.39189e-14
9.69358e-14
4.71558e-13
1.66579e-12
4.50741e-12