/*--------------------------------*- C++ -*----------------------------------*\
| =========                 |                                                 |
| \\      /  F ield         | OpenFOAM: The Open Source CFD Toolbox           |
|  \\    /   O peration     | Version:  v1606+                                |
|   \\  /    A nd           | Web:      www.OpenFOAM.com                      |
|    \\/     M anipulation  |                                                 |
\*---------------------------------------------------------------------------*/
FoamFile
{
    version     2.0;
    format      ascii;
    class       surfaceScalarField;
    location    "0.82";
    object      phi.particles;
}
// * * * * * * * * * * * * * * * * * * * * * * * * * * * * * * * * * * * * * //

dimensions      [0 3 -1 0 0 0 0];

internalField   nonuniform List<scalar> 
11770
(
-7.15085e-07
-7.88648e-06
6.85935e-07
-7.56962e-06
2.77462e-06
-8.51818e-06
4.22343e-06
-1.03589e-05
4.72906e-06
-1.29608e-05
4.36227e-06
-1.61186e-05
3.64741e-06
-1.80038e-05
2.48334e-06
-1.9488e-05
4.96721e-07
-2.05804e-05
-1.88984e-06
-2.2439e-05
-3.41238e-06
-2.31959e-05
-3.46903e-06
-2.38082e-05
-2.65043e-06
-2.49062e-05
-1.59527e-06
-2.71387e-05
-5.68775e-07
-2.83815e-05
2.24396e-07
-2.8663e-05
9.15424e-07
-2.7292e-05
1.52905e-06
-2.51307e-05
1.58598e-06
-2.42172e-05
5.01703e-07
-2.3193e-05
-1.49512e-06
-2.22255e-05
-3.32516e-06
-2.08633e-05
-4.38913e-06
-1.95816e-05
-5.01231e-06
-1.80275e-05
-5.22789e-06
-1.58432e-05
-4.54129e-06
-1.27604e-05
-2.97622e-06
-1.038e-05
-7.86701e-07
-8.64087e-06
7.13461e-07
-7.74044e-06
-8.26549e-06
4.10354e-07
1.14597e-05
1.27956e-06
1.10987e-05
3.96448e-06
8.4253e-06
6.4465e-06
7.88744e-06
7.86722e-06
8.42369e-06
7.82837e-06
7.9085e-06
4.94661e-06
7.68055e-06
-3.26299e-07
6.33454e-06
-4.1291e-06
3.716e-06
-5.53251e-06
1.19341e-06
-5.90831e-06
4.32777e-07
-5.54789e-06
-1.25857e-06
-4.52769e-06
-3.42964e-06
-2.69016e-06
-4.32957e-06
-3.31259e-07
-5.31993e-06
1.67511e-06
-4.98555e-06
2.97164e-06
-4.00298e-06
3.77746e-06
-2.91044e-06
4.10532e-06
-1.61688e-06
3.83455e-06
-2.03818e-07
2.52786e-06
1.07425e-06
-1.20286e-06
3.58977e-06
-6.0244e-06
6.16894e-06
-8.39431e-06
7.38113e-06
-8.19928e-06
7.73332e-06
-6.66432e-06
8.30627e-06
-4.17474e-06
7.89494e-06
-1.43906e-06
8.37547e-06
-4.62427e-07
1.09075e-05
1.14826e-05
9.55915e-07
6.68841e-06
-2.86378e-07
7.18728e-06
8.34946e-07
4.03829e-06
3.36137e-06
3.39541e-06
5.66e-06
5.26753e-06
6.20723e-06
8.23526e-06
3.31542e-06
1.11418e-05
-1.68045e-06
9.90458e-06
-5.18476e-06
5.04043e-06
-6.46144e-06
7.77443e-07
-6.40255e-06
-2.05333e-06
-5.87696e-06
-3.94311e-06
-5.11063e-06
-4.88221e-06
-3.08711e-06
-6.04143e-06
-6.70193e-08
-7.20865e-06
2.32637e-06
-6.44626e-06
3.45726e-06
-5.28624e-06
3.98289e-06
-4.92939e-06
4.60747e-06
-4.34046e-06
4.81074e-06
-2.86391e-06
3.75476e-06
1.65039e-07
5.59017e-07
4.69079e-06
-4.02437e-06
9.49505e-06
-6.5195e-06
1.06078e-05
-5.81811e-06
7.85063e-06
-3.56244e-06
5.13451e-06
-1.17327e-06
3.36299e-06
2.08708e-08
3.94255e-06
-8.77239e-07
6.95111e-06
7.07683e-06
-4.53043e-07
4.08442e-06
-1.22643e-06
6.79342e-06
-1.35016e-06
4.74918e-06
-4.96522e-07
4.10518e-06
1.19966e-06
5.91987e-06
2.30019e-06
9.55047e-06
4.48017e-07
1.48831e-05
-3.05118e-06
1.67752e-05
-5.47771e-06
1.18208e-05
-6.42743e-06
6.78684e-06
-6.32467e-06
4.01882e-06
-5.91916e-06
2.78354e-06
-5.16435e-06
2.16311e-06
-3.07541e-06
-8.48535e-07
5.38919e-08
-2.66714e-06
2.65497e-06
-1.54043e-06
3.68741e-06
1.02807e-06
3.88929e-06
2.16042e-06
4.49466e-06
1.94892e-06
5.0422e-06
2.93957e-06
4.47865e-06
6.02117e-06
2.36737e-06
1.12278e-05
-7.34047e-07
1.61153e-05
-2.28526e-06
1.45672e-05
-1.26042e-06
9.45745e-06
2.32414e-07
5.9196e-06
9.9076e-07
3.91164e-06
9.13031e-07
4.3639e-06
3.26027e-07
6.00429e-06
3.99301e-06
-1.15513e-06
-5.39824e-06
-1.92322e-06
-5.70786e-06
-2.8494e-06
-4.14559e-07
-2.77329e-06
2.03747e-06
-1.9105e-06
4.7798e-06
-7.81302e-07
9.38788e-06
-1.73388e-06
1.52533e-05
-6.03107e-06
2.10276e-05
-8.79146e-06
2.04272e-05
-8.25211e-06
1.3934e-05
-7.12562e-06
9.27755e-06
-5.89806e-06
7.23594e-06
-4.59134e-06
5.0562e-06
-2.7061e-06
1.38913e-06
-3.75689e-07
-1.02225e-07
1.62392e-06
7.03669e-07
2.91034e-06
3.16579e-06
3.94509e-06
5.48652e-06
5.48743e-06
6.11105e-06
7.27532e-06
7.4889e-06
8.27742e-06
1.23663e-05
5.90854e-06
1.92369e-05
2.07253e-06
2.04576e-05
1.10037e-06
1.53181e-05
1.93351e-06
9.29148e-06
2.59588e-06
4.35937e-06
2.55973e-06
1.24863e-06
1.56384e-06
-1.79163e-06
8.60649e-07
-6.0682e-06
-6.13805e-06
-5.93861e-09
-1.91215e-05
2.66326e-07
-2.16374e-05
-2.55375e-06
-1.55411e-05
-3.56549e-06
-6.1074e-06
-3.16519e-06
1.60805e-06
-2.34902e-06
7.67487e-06
-2.04147e-06
1.47348e-05
-5.05418e-06
2.16084e-05
-9.59858e-06
2.60105e-05
-1.00358e-05
2.1982e-05
-7.51188e-06
1.46871e-05
-5.73172e-06
1.04648e-05
-4.54673e-06
6.57579e-06
-3.41335e-06
3.73443e-06
-2.26963e-06
2.44976e-06
-7.72598e-07
2.48583e-06
1.16275e-06
3.61337e-06
3.3603e-06
6.12527e-06
6.18636e-06
9.02159e-06
9.39259e-06
1.21635e-05
9.33633e-06
1.969e-05
5.48585e-06
2.47176e-05
2.75216e-06
2.14979e-05
2.57817e-06
1.47693e-05
3.01112e-06
7.2015e-06
3.13202e-06
3.46993e-07
1.99129e-06
-7.89471e-06
-5.28849e-07
-1.68854e-05
-1.67158e-07
-2.1746e-05
-1.99499e-05
8.24424e-07
-2.20041e-05
4.75225e-06
-2.37763e-05
3.30893e-06
-2.50924e-05
-6.40221e-07
-1.911e-05
-1.97368e-06
-7.25226e-06
-1.56111e-06
3.65752e-06
-1.50277e-06
1.25935e-05
-2.65851e-06
2.14801e-05
-7.10399e-06
2.77624e-05
-9.5515e-06
2.78756e-05
-7.6273e-06
1.97992e-05
-5.87649e-06
1.25459e-05
-4.9191e-06
7.99221e-06
-4.04813e-06
5.04482e-06
-3.1766e-06
3.39655e-06
-2.03389e-06
3.0085e-06
-3.57859e-07
3.77249e-06
2.12166e-06
5.75448e-06
5.91184e-06
9.62902e-06
9.14193e-06
1.61595e-05
7.66029e-06
2.52618e-05
3.75039e-06
2.68664e-05
1.97826e-06
2.1426e-05
1.39467e-06
1.25307e-05
1.21739e-06
2.21889e-06
-5.3557e-07
-9.49165e-06
-4.01815e-06
-2.05086e-05
-4.87157e-06
-2.56651e-05
-8.88879e-07
-2.43575e-05
-2.25804e-05
4.64837e-07
-1.77643e-05
5.56321e-06
-2.0353e-05
8.00038e-06
-2.31744e-05
7.91989e-06
-2.45322e-05
4.03699e-06
-1.94903e-05
2.31126e-06
-6.12596e-06
1.64344e-06
7.43636e-06
-1.02332e-07
1.99078e-05
-3.06627e-06
2.83108e-05
-6.3194e-06
2.97963e-05
-6.66914e-06
2.29077e-05
-5.30005e-06
1.42884e-05
-4.43965e-06
8.84773e-06
-4.10064e-06
5.20015e-06
-3.85603e-06
2.78675e-06
-3.20212e-06
1.93681e-06
-1.80546e-06
2.66429e-06
6.64103e-07
4.85989e-06
4.45372e-06
9.14951e-06
6.51638e-06
1.79718e-05
4.2324e-06
2.7369e-05
8.28202e-07
2.74754e-05
-1.54657e-06
1.94922e-05
-3.15536e-06
5.76833e-06
-5.73752e-06
-9.0157e-06
-8.91566e-06
-2.10305e-05
-8.12432e-06
-2.50088e-05
-5.5297e-06
-2.37163e-05
-5.45389e-07
-2.09202e-05
-1.81316e-05
-5.2159e-08
-1.27728e-05
5.73115e-06
-1.61365e-05
8.81256e-06
-1.97377e-05
1.21792e-05
-2.21825e-05
1.32768e-05
-2.3914e-05
1.06315e-05
-1.87658e-05
7.34799e-06
-4.98284e-06
4.10889e-06
1.18931e-05
4.97196e-07
2.61832e-05
-2.31448e-06
3.04797e-05
-3.235e-06
2.39447e-05
-2.98043e-06
1.50063e-05
-3.07347e-06
8.55968e-06
-3.93927e-06
3.9176e-06
-4.74623e-06
5.84839e-07
-4.72382e-06
-7.18415e-07
-3.64164e-06
-3.18882e-07
-1.42324e-06
2.51205e-06
1.33416e-06
7.8452e-06
2.77787e-06
1.69128e-05
5.56284e-08
2.62168e-05
-4.97232e-06
2.33374e-05
-9.149e-06
9.59567e-06
-1.26255e-05
-7.67277e-06
-1.42695e-05
-2.02797e-05
-1.21349e-05
-2.41098e-05
-8.50902e-06
-2.25213e-05
-5.41338e-06
-2.02076e-05
3.1427e-07
-1.67143e-05
-1.26184e-05
-4.34311e-07
-7.9541e-06
5.44891e-06
-1.2147e-05
8.95625e-06
-1.59648e-05
1.24549e-05
-1.96356e-05
1.68624e-05
-2.29648e-05
1.90258e-05
-2.4864e-05
1.6916e-05
-1.9173e-05
1.44845e-05
-4.79942e-06
9.48977e-06
1.27141e-05
3.26367e-06
2.38643e-05
9.73065e-07
2.21647e-05
5.23768e-07
1.4255e-05
-9.40547e-07
7.12656e-06
-3.40367e-06
8.05589e-07
-5.82129e-06
-6.89441e-06
-6.83643e-06
-9.91889e-06
-6.09686e-06
-8.06048e-06
-4.38544e-06
-1.89059e-06
-2.60478e-06
5.13355e-06
-3.00611e-06
1.23845e-05
-9.58262e-06
1.86616e-05
-1.56154e-05
1.05444e-05
-1.7548e-05
-6.82494e-06
-1.83634e-05
-1.92634e-05
-1.57589e-05
-2.33731e-05
-1.17954e-05
-2.25689e-05
-8.10922e-06
-1.97077e-05
-4.74788e-06
-1.64511e-05
1.67594e-06
-1.24775e-05
-7.29747e-06
-1.35007e-06
-4.64597e-06
3.96459e-06
-9.60333e-06
8.06881e-06
-1.38628e-05
1.19847e-05
-1.78859e-05
1.6074e-05
-2.24697e-05
1.93161e-05
-2.75856e-05
2.101e-05
-2.6205e-05
2.2991e-05
-1.7985e-05
2.32095e-05
-4.2762e-06
1.59011e-05
1.10219e-05
7.99296e-06
1.57429e-05
5.46698e-06
1.31038e-05
1.32288e-06
4.14168e-06
-5.61813e-06
-8.98969e-06
-1.0096e-05
-2.01954e-05
-9.5585e-06
-2.59514e-05
-8.21527e-06
-2.42409e-05
-7.61385e-06
-1.34592e-05
-7.95234e-06
2.21914e-06
-1.43506e-05
9.05097e-06
-2.13102e-05
1.17025e-05
-2.06963e-05
3.85632e-07
-1.74055e-05
-1.62732e-05
-1.59558e-05
-2.27787e-05
-1.41043e-05
-2.401e-05
-1.08721e-05
-2.12348e-05
-6.77504e-06
-1.78608e-05
-2.90611e-06
-1.4073e-05
1.77946e-06
-9.48653e-06
-4.2361e-06
-6.83633e-07
-3.09537e-06
1.10825e-06
-8.36771e-06
5.52333e-06
-1.28564e-05
1.04428e-05
-1.71323e-05
1.42377e-05
-2.23068e-05
1.62499e-05
-3.0478e-05
1.76887e-05
-3.01817e-05
2.00017e-05
-2.28931e-05
2.56439e-05
-1.1692e-05
2.8885e-05
3.47357e-06
2.28804e-05
1.11514e-05
1.15654e-05
1.2181e-05
-1.84149e-06
3.3023e-06
-1.09298e-05
-1.47231e-05
-1.27076e-05
-2.55286e-05
-1.07852e-05
-3.30267e-05
-8.24872e-06
-3.64327e-05
-7.21887e-06
-2.9706e-05
-1.37708e-05
-2.37665e-06
-2.28364e-05
1.12526e-05
-2.31457e-05
1.23459e-05
-1.82427e-05
-1.5677e-06
-1.43684e-05
-1.81536e-05
-1.30715e-05
-2.4072e-05
-1.2213e-05
-2.4744e-05
-9.47659e-06
-2.03084e-05
-4.71246e-06
-1.66033e-05
-5.96728e-07
-1.26492e-05
7.40969e-07
-8.37313e-06
-3.02467e-06
-2.84683e-07
-2.75865e-06
4.78163e-08
-7.91873e-06
2.38226e-06
-1.27125e-05
7.37979e-06
-1.71459e-05
1.14928e-05
-2.22659e-05
1.29996e-05
-3.1835e-05
1.47094e-05
-3.28419e-05
1.74889e-05
-2.58611e-05
2.44023e-05
-1.46878e-05
3.15037e-05
1.86144e-07
3.00599e-05
1.0984e-05
1.86678e-05
1.38218e-05
4.78542e-06
8.6994e-06
-3.4423e-06
-8.44425e-06
-7.90881e-06
-2.13609e-05
-8.84942e-06
-2.95801e-05
-6.51484e-06
-3.67313e-05
-2.05766e-06
-3.79156e-05
-1.01724e-05
-3.80965e-06
-2.32933e-05
1.66344e-05
-2.2323e-05
1.66215e-05
-1.65398e-05
-1.28934e-06
-1.29769e-05
-1.83906e-05
-1.16049e-05
-2.47547e-05
-1.07407e-05
-2.53245e-05
-7.75477e-06
-1.98739e-05
-2.86184e-06
-1.61153e-05
-2.18843e-07
-1.25721e-05
3.94842e-07
-8.24322e-06
-2.93952e-06
3.94304e-07
-2.96599e-06
6.38043e-07
-8.29262e-06
1.42483e-06
-1.2867e-05
3.7952e-06
-1.73166e-05
7.45749e-06
-2.19259e-05
9.33269e-06
-3.01252e-05
1.15901e-05
-3.37296e-05
1.52724e-05
-2.75104e-05
2.26398e-05
-1.67898e-05
3.15311e-05
-2.60304e-06
3.25445e-05
1.06202e-05
2.40001e-05
1.63148e-05
1.34359e-05
1.43316e-05
6.98677e-06
7.46627e-07
1.39393e-06
-1.74187e-05
-2.71602e-06
-2.58086e-05
-4.11435e-06
-3.5374e-05
-2.18853e-06
-4.0677e-05
-9.55715e-06
-1.01558e-06
-2.20316e-05
2.33368e-05
-2.12091e-05
2.15855e-05
-1.56711e-05
-5.70735e-07
-1.27788e-05
-1.81788e-05
-1.12976e-05
-2.50495e-05
-9.64637e-06
-2.58607e-05
-6.0467e-06
-1.96e-05
-2.41938e-06
-1.65617e-05
-9.34835e-07
-1.32013e-05
-3.12029e-07
-8.89233e-06
-3.3474e-06
1.14623e-06
-3.62111e-06
1.64483e-06
-8.8336e-06
2.1325e-06
-1.32219e-05
2.92545e-06
-1.74362e-05
4.3477e-06
-2.16603e-05
5.91339e-06
-2.70163e-05
7.93271e-06
-3.28528e-05
1.09644e-05
-2.88302e-05
1.90654e-05
-1.80702e-05
2.98009e-05
-4.81141e-06
3.23489e-05
9.296e-06
2.64855e-05
1.71667e-05
2.15659e-05
1.69138e-05
2.02611e-05
7.86474e-06
1.76262e-05
-8.81363e-06
1.1896e-05
-1.99379e-05
4.16774e-06
-3.20705e-05
-7.35974e-07
-4.12547e-05
-9.62961e-06
-7.73796e-07
-2.06761e-05
2.94219e-05
-2.02582e-05
2.56552e-05
-1.57185e-05
-2.43818e-07
-1.40806e-05
-1.82525e-05
-1.20735e-05
-2.55096e-05
-8.9604e-06
-2.64909e-05
-5.51316e-06
-1.98017e-05
-3.04758e-06
-1.74346e-05
-1.81789e-06
-1.40734e-05
-1.01743e-06
-1.01667e-05
-4.38733e-06
2.16913e-06
-6.04594e-06
2.88702e-06
-9.39223e-06
3.14592e-06
-1.3749e-05
3.50903e-06
-1.75535e-05
3.7907e-06
-2.14402e-05
3.7009e-06
-2.54587e-05
4.63751e-06
-3.04674e-05
6.26455e-06
-3.17877e-05
1.4159e-05
-1.90391e-05
2.64777e-05
-4.80885e-06
3.04948e-05
9.22642e-06
2.63215e-05
1.8092e-05
2.12231e-05
1.85852e-05
2.3554e-05
1.33252e-05
3.42993e-05
7.11e-06
3.70277e-05
-1.5264e-06
2.30435e-05
-1.7995e-05
4.67578e-06
-3.74361e-05
-8.94787e-06
-6.61165e-06
-1.82857e-05
3.28345e-05
-1.8763e-05
2.84038e-05
-1.53695e-05
-3.02526e-08
-1.50876e-05
-1.85126e-05
-1.26486e-05
-2.62849e-05
-8.47075e-06
-2.68446e-05
-5.53983e-06
-2.04214e-05
-3.7682e-06
-1.82909e-05
-2.64704e-06
-1.51575e-05
-1.53098e-06
-1.16584e-05
-5.66234e-06
4.04411e-06
-2.3099e-05
3.90744e-06
-1.37298e-05
4.18281e-06
-1.46039e-05
4.3772e-06
-1.77224e-05
4.24908e-06
-2.13141e-05
3.49095e-06
-2.48105e-05
3.0749e-06
-2.89886e-05
3.18752e-06
-3.35186e-05
1.09637e-05
-1.56115e-05
2.37145e-05
1.87789e-06
2.72198e-05
1.25451e-05
2.36519e-05
1.97264e-05
2.10401e-05
2.27584e-05
2.39689e-05
2.33423e-05
3.50737e-05
2.35267e-05
4.53748e-05
1.92093e-05
3.73732e-05
-1.96814e-07
1.37354e-05
-3.04486e-05
-4.9725e-06
-1.13655e-05
-1.45584e-05
3.2571e-05
-1.59077e-05
3.04535e-05
-1.40521e-05
1.28076e-06
-1.47041e-05
-1.81746e-05
-1.23629e-05
-2.68233e-05
-7.99056e-06
-2.64065e-05
-5.58133e-06
-2.12664e-05
-4.24434e-06
-1.91588e-05
-3.49095e-06
-1.65593e-05
-2.47164e-06
-1.35528e-05
-9.20022e-06
-1.1192e-06
-3.55926e-05
2.19117e-06
-2.92696e-05
4.49709e-06
-2.28665e-05
5.09527e-06
-1.92147e-05
4.82973e-06
-2.2366e-05
2.49457e-06
-2.73058e-05
-1.05447e-06
-3.24297e-05
-9.83982e-07
-3.88909e-05
5.22953e-06
-1.68538e-05
1.38719e-05
5.9615e-06
1.90037e-05
1.17546e-05
2.13965e-05
1.90526e-05
2.58599e-05
2.56043e-05
3.45149e-05
3.00192e-05
4.29283e-05
3.0481e-05
4.70248e-05
2.42877e-05
3.91226e-05
4.09586e-06
1.76201e-05
-2.45581e-05
7.46771e-07
-9.71971e-06
-8.39499e-06
3.02206e-05
-1.19388e-05
3.36692e-05
-1.09206e-05
5.73245e-06
-1.13243e-05
-1.52484e-05
-9.97428e-06
-2.62438e-05
-7.18825e-06
-2.57662e-05
-5.4869e-06
-2.21124e-05
-4.43445e-06
-2.00935e-05
-4.08438e-06
-1.81906e-05
-3.2901e-06
-1.5704e-05
-2.28535e-05
-3.66654e-06
-2.45305e-05
-2.66479e-06
-3.32659e-05
5.09358e-07
-3.48754e-05
4.94862e-06
-3.19989e-05
4.14425e-06
-3.5064e-05
4.48158e-07
-3.98541e-05
-5.91538e-06
-4.37585e-05
-9.44699e-06
-4.81052e-05
-2.25456e-06
-3.4129e-05
7.95154e-06
-1.38526e-05
1.56673e-05
-9.55518e-06
2.3717e-05
1.67367e-06
3.27636e-05
1.35708e-05
4.09098e-05
2.03184e-05
4.52472e-05
1.98427e-05
4.54768e-05
1.11153e-05
3.70391e-05
-4.6018e-06
1.7207e-05
-2.0956e-05
5.02298e-06
-6.62634e-06
-1.26724e-06
3.00888e-05
-7.09607e-06
3.86532e-05
-6.38846e-06
1.83875e-05
-6.75902e-06
-2.90698e-07
-7.27588e-06
-2.40777e-05
-6.3769e-06
-2.52346e-05
-5.20781e-06
-2.28938e-05
-4.3411e-06
-2.11816e-05
-3.48874e-06
-1.99937e-05
-1.63394e-06
-2.26084e-05
-3.59621e-05
-7.85066e-06
-9.69862e-06
-6.02152e-06
-2.00385e-05
-5.21059e-06
-3.13961e-05
-5.63206e-06
-3.68078e-05
-5.33654e-06
-4.18564e-05
-4.3441e-06
-4.46455e-05
-3.73543e-06
-4.70496e-05
-4.39176e-06
-4.93777e-05
-1.53708e-06
-4.77228e-05
6.02762e-06
-3.99103e-05
1.38646e-05
-3.72502e-05
2.36675e-05
-2.87898e-05
3.4221e-05
-1.61714e-05
4.01417e-05
-7.39915e-06
4.09482e-05
-6.05493e-06
3.86112e-05
-9.92019e-06
3.30945e-05
-1.31449e-05
1.65598e-05
-1.65488e-05
5.45523e-06
-4.99133e-06
2.85014e-06
3.25436e-05
-5.02591e-07
4.36755e-05
3.7566e-06
3.48333e-05
2.71343e-07
2.17027e-05
-6.82799e-06
-1.62099e-05
-5.81371e-06
-2.49516e-05
-4.47794e-06
-2.39719e-05
-3.24364e-06
-2.28462e-05
-1.79797e-07
-2.34351e-05
4.68849e-07
-3.59176e-05
-3.92532e-05
-9.63761e-06
-4.67832e-06
-9.24425e-06
-1.34853e-05
-9.68053e-06
-1.99181e-05
-1.01267e-05
-2.71473e-05
-7.64205e-06
-3.41271e-05
-4.74492e-06
-3.78121e-05
-1.66828e-06
-4.16864e-05
-9.42499e-08
-4.4758e-05
1.02633e-06
-4.85678e-05
4.16262e-06
-4.93487e-05
7.68083e-06
-5.02402e-05
1.28999e-05
-4.87353e-05
1.96828e-05
-4.20238e-05
2.49408e-05
-3.29456e-05
2.72361e-05
-2.68589e-05
2.90163e-05
-2.09522e-05
2.94449e-05
-1.57549e-05
1.5789e-05
-1.28486e-05
4.12527e-06
-7.80573e-06
4.89454e-06
3.1513e-05
6.32506e-06
4.61317e-05
1.26546e-05
4.38799e-05
1.31936e-05
3.36329e-05
2.71208e-06
-6.65537e-06
-3.0031e-06
-3.08234e-05
-2.96055e-06
-2.63742e-05
-1.01475e-06
-2.66518e-05
-7.70382e-07
-3.56328e-05
-9.66809e-07
-4.37441e-05
-4.00766e-05
-2.97768e-06
-3.35818e-06
-6.4841e-06
-1.03176e-05
-9.55299e-06
-1.69659e-05
-1.06161e-05
-2.34385e-05
-9.53304e-06
-2.89764e-05
-7.32705e-06
-3.31519e-05
-4.62425e-06
-3.8174e-05
-1.57719e-06
-4.13505e-05
6.46585e-07
-4.56776e-05
1.32089e-06
-4.96989e-05
1.64767e-06
-5.2858e-05
3.93522e-06
-5.38949e-05
9.75641e-06
-5.04018e-05
1.69239e-05
-4.19376e-05
2.18411e-05
-3.21007e-05
2.69003e-05
-2.2804e-05
3.05047e-05
-1.64669e-05
2.15248e-05
-1.09916e-05
8.35605e-06
-1.07922e-05
6.3259e-06
2.21943e-05
1.06853e-05
4.46492e-05
1.67006e-05
4.48819e-05
1.83304e-05
3.45676e-05
1.18529e-05
-1.08405e-05
2.41181e-06
-4.04471e-05
-1.17144e-06
-3.76432e-05
-2.5709e-07
-3.78026e-05
-8.42688e-07
-4.47332e-05
-5.46627e-07
-4.32552e-05
-4.01481e-05
-1.93247e-06
-3.11695e-06
-3.49378e-06
-9.00897e-06
-4.80589e-06
-1.51803e-05
-6.25308e-06
-2.10109e-05
-7.42486e-06
-2.63033e-05
-7.85893e-06
-3.08411e-05
-6.83739e-06
-3.54042e-05
-4.58988e-06
-3.90969e-05
-3.36149e-06
-4.24355e-05
-3.31882e-06
-4.68446e-05
-2.94448e-06
-5.0443e-05
-1.55007e-06
-5.30054e-05
4.00318e-06
-5.11041e-05
1.3845e-05
-4.2874e-05
2.17049e-05
-3.10216e-05
2.74626e-05
-2.25932e-05
3.18062e-05
-1.61447e-05
2.63052e-05
-9.903e-06
1.37554e-05
-1.00529e-05
8.46283e-06
1.06807e-05
1.16329e-05
3.65739e-05
1.65867e-05
3.80089e-05
1.53562e-05
2.42553e-05
1.00794e-05
-2.4131e-05
6.70063e-06
-4.24306e-05
3.43229e-06
-4.48329e-05
1.3171e-06
-4.40088e-05
1.52034e-07
-4.26876e-05
-3.53214e-08
-4.15004e-05
-3.93554e-05
-4.50703e-07
-2.28816e-06
-1.52919e-06
-8.46135e-06
-2.52545e-06
-1.42346e-05
-3.45212e-06
-1.978e-05
-4.18543e-06
-2.49328e-05
-4.62521e-06
-2.94975e-05
-4.98649e-06
-3.35969e-05
-5.09848e-06
-3.69414e-05
-4.5184e-06
-4.03092e-05
-3.92174e-06
-4.33612e-05
-4.09489e-06
-4.6888e-05
-4.16765e-06
-5.0605e-05
5.40006e-08
-5.1084e-05
1.11152e-05
-4.33546e-05
2.07851e-05
-2.88532e-05
2.64334e-05
-2.13488e-05
3.12855e-05
-1.51645e-05
3.03368e-05
-8.30029e-06
2.0225e-05
-6.05082e-06
1.12059e-05
5.45728e-06
1.08632e-05
2.23623e-05
1.24498e-05
2.28912e-05
9.34418e-06
6.4776e-06
6.0294e-06
-3.12263e-05
6.2366e-06
-4.01718e-05
4.92952e-06
-4.12314e-05
2.06364e-06
-4.03826e-05
5.07869e-07
-3.98368e-05
1.77846e-07
-3.92798e-05
-3.75886e-05
9.302e-07
-6.87113e-07
5.53675e-07
-7.71159e-06
-4.57128e-07
-1.35696e-05
-1.33677e-06
-1.88865e-05
-2.16343e-06
-2.39013e-05
-2.71053e-06
-2.8537e-05
-3.06918e-06
-3.25414e-05
-3.22922e-06
-3.57875e-05
-3.46262e-06
-3.85716e-05
-4.05976e-06
-4.10337e-05
-4.99393e-06
-4.37929e-05
-6.03573e-06
-4.72802e-05
-4.22112e-06
-5.07002e-05
7.01082e-06
-4.62281e-05
1.81366e-05
-2.8546e-05
2.26047e-05
-2.00935e-05
2.64193e-05
-1.27912e-05
2.66455e-05
-5.8064e-06
2.03207e-05
-6.25496e-07
1.26842e-05
4.26275e-06
9.78896e-06
1.06357e-05
9.4598e-06
8.7082e-06
6.63424e-06
-4.71301e-06
3.6657e-06
-3.03669e-05
3.37353e-06
-3.71677e-05
2.59885e-06
-3.83626e-05
1.10109e-06
-3.78301e-05
2.56541e-07
-3.73203e-05
4.41258e-07
-3.69967e-05
-3.5159e-05
4.25464e-06
-2.43838e-06
2.3571e-06
-8.39478e-06
1.50474e-06
-1.27322e-05
5.24001e-07
-1.79724e-05
-5.71234e-07
-2.31769e-05
-1.39894e-06
-2.78321e-05
-2.01432e-06
-3.16824e-05
-2.35115e-06
-3.49451e-05
-2.54947e-06
-3.76465e-05
-2.62498e-06
-3.99213e-05
-3.13042e-06
-4.19069e-05
-5.3174e-06
-4.42833e-05
-6.98077e-06
-4.84662e-05
1.83554e-06
-4.89693e-05
1.21072e-05
-3.19359e-05
1.55033e-05
-2.02757e-05
1.94233e-05
-1.15771e-05
2.17664e-05
-3.63954e-06
2.01783e-05
3.83759e-06
1.56618e-05
5.13892e-06
1.19511e-05
6.24141e-06
1.26244e-05
3.73648e-06
8.74337e-06
-6.17995e-06
3.20826e-06
-2.72868e-05
2.72798e-06
-3.39515e-05
1.44676e-06
-3.61337e-05
3.5469e-07
-3.6247e-05
-7.2647e-08
-3.56121e-05
2.61784e-07
-3.49224e-05
-3.26339e-05
3.07279e-06
-3.44293e-06
5.89838e-06
-7.95007e-06
3.70738e-06
-1.32494e-05
2.04015e-06
-1.73617e-05
9.01574e-07
-2.21394e-05
-4.45679e-07
-2.73106e-05
-1.58264e-06
-3.1418e-05
-2.17467e-06
-3.42169e-05
-2.48937e-06
-3.69619e-05
-2.5925e-06
-3.92937e-05
-2.48892e-06
-4.12025e-05
-3.3664e-06
-4.28006e-05
-6.08685e-06
-4.53312e-05
-3.19054e-06
-4.86282e-05
4.95102e-06
-3.92976e-05
1.03956e-05
-2.3286e-05
1.47189e-05
-1.41279e-05
1.9172e-05
-5.02578e-06
2.0901e-05
3.51763e-06
1.89291e-05
8.26459e-06
1.62951e-05
9.29144e-06
1.76375e-05
8.36504e-06
1.18183e-05
-3.47962e-06
4.89804e-06
-2.17974e-05
4.71678e-06
-2.91306e-05
2.3379e-06
-3.31249e-05
9.95357e-07
-3.42925e-05
3.01086e-07
-3.39983e-05
2.5708e-07
-3.31871e-05
-3.06351e-05
-9.81677e-07
-2.78493e-06
2.02687e-06
-6.8296e-06
5.536e-06
-1.16881e-05
5.32399e-06
-1.63059e-05
2.57805e-06
-2.22289e-05
-6.75672e-07
-2.73087e-05
-1.60514e-06
-3.06698e-05
-2.65884e-06
-3.38164e-05
-3.07121e-06
-3.65395e-05
-3.20538e-06
-3.89097e-05
-3.08493e-06
-4.08862e-05
-2.72164e-06
-4.24728e-05
-4.41017e-06
-4.38292e-05
-6.76249e-06
-4.62092e-05
-1.61603e-06
-4.52595e-05
7.05183e-06
-3.02549e-05
1.3094e-05
-1.94159e-05
1.90975e-05
-1.42975e-05
2.41378e-05
-6.39882e-06
2.57374e-05
4.36748e-06
2.54206e-05
1.47798e-05
2.49426e-05
1.78984e-05
1.68505e-05
5.35902e-06
9.95322e-06
-1.03388e-05
8.06467e-06
-2.2037e-05
4.54171e-06
-2.85956e-05
2.50897e-06
-3.17954e-05
1.10475e-06
-3.2394e-05
4.51631e-07
-3.17933e-05
-2.91308e-05
-7.07032e-07
-2.25134e-06
-1.43869e-06
-6.28914e-06
-2.2767e-06
-1.02187e-05
4.32655e-07
-1.41578e-05
3.33446e-06
-1.90511e-05
8.97915e-07
-2.35883e-05
-2.93647e-06
-3.14362e-05
-3.82835e-06
-3.34194e-05
-4.16342e-06
-3.63661e-05
-4.30764e-06
-3.88712e-05
-4.14505e-06
-4.08322e-05
-3.74624e-06
-4.24001e-05
-3.09181e-06
-4.35997e-05
-5.34583e-06
-4.45604e-05
-5.12394e-06
-4.57435e-05
2.76608e-06
-3.84803e-05
1.2328e-05
-2.70145e-05
2.06967e-05
-2.75653e-05
2.90091e-05
-2.13125e-05
3.5172e-05
-1.04307e-05
3.62397e-05
9.64836e-06
3.49898e-05
2.4194e-05
2.63883e-05
1.91443e-05
1.58122e-05
5.33711e-06
1.07342e-05
-1.19481e-05
6.07697e-06
-2.2404e-05
3.14619e-06
-2.83328e-05
1.54607e-06
-3.05649e-05
6.82358e-07
-3.04426e-05
-2.78355e-05
-4.83622e-07
-2.18038e-06
-1.24413e-06
-6.12113e-06
-2.01177e-06
-9.61511e-06
-3.00766e-06
-1.30739e-05
-4.36363e-06
-1.64302e-05
-3.362e-06
-1.91522e-05
-2.73878e-06
-2.60124e-05
-5.29067e-06
-3.44399e-05
-5.81416e-06
-3.67258e-05
-5.75504e-06
-3.90916e-05
-5.52549e-06
-4.11354e-05
-5.05112e-06
-4.25928e-05
-4.39039e-06
-4.36743e-05
-3.85709e-06
-4.42012e-05
-6.52013e-06
-4.42177e-05
-2.50533e-06
-4.24573e-05
8.10819e-06
-3.43204e-05
1.68813e-05
-3.76958e-05
2.72195e-05
-3.37869e-05
3.7862e-05
-2.29851e-05
4.43598e-05
-4.34158e-06
4.56734e-05
2.22587e-05
3.81654e-05
3.03595e-05
2.42189e-05
2.22825e-05
1.40994e-05
7.04813e-07
7.79777e-06
-1.43558e-05
3.919e-06
-2.36251e-05
1.85534e-06
-2.82203e-05
7.44519e-07
-2.8903e-05
-2.66007e-05
1.06708e-08
-2.37974e-06
-6.15299e-07
-5.98821e-06
-1.62802e-06
-9.21871e-06
-2.78269e-06
-1.24503e-05
-3.85173e-06
-1.54202e-05
-5.80853e-06
-1.82782e-05
-8.23476e-06
-2.16563e-05
-7.78992e-06
-2.90698e-05
-7.93799e-06
-3.84916e-05
-7.58555e-06
-3.9904e-05
-7.14888e-06
-4.17936e-05
-6.55441e-06
-4.31007e-05
-5.80928e-06
-4.40156e-05
-5.0055e-06
-4.43661e-05
-7.00803e-06
-4.36286e-05
-5.8188e-06
-4.24834e-05
1.49462e-06
-3.94772e-05
1.03229e-05
-4.32501e-05
2.15728e-05
-4.14123e-05
3.38626e-05
-2.92683e-05
4.52958e-05
-1.40288e-05
5.21328e-05
1.43096e-05
4.75161e-05
3.56872e-05
3.20597e-05
3.61549e-05
1.78009e-05
1.83952e-05
9.33698e-06
-4.10668e-06
4.04777e-06
-1.81727e-05
1.71545e-06
-2.58294e-05
5.33938e-07
-2.74367e-05
-2.5796e-05
5.48712e-07
-2.85098e-06
2.31613e-07
-5.79749e-06
-8.28245e-07
-8.65633e-06
-2.26031e-06
-1.16095e-05
-4.43385e-06
-1.45034e-05
-7.0666e-06
-1.81441e-05
-9.09591e-06
-2.12686e-05
-1.14267e-05
-2.55696e-05
-1.02427e-05
-3.44431e-05
-9.79709e-06
-4.31254e-05
-8.87333e-06
-4.27024e-05
-8.3659e-06
-4.41257e-05
-7.48835e-06
-4.46298e-05
-6.5474e-06
-4.4829e-05
-6.33327e-06
-4.40218e-05
-7.52203e-06
-4.25276e-05
-3.49453e-06
-4.57007e-05
6.40145e-06
-4.6713e-05
1.65369e-05
-4.51531e-05
2.78854e-05
-3.39582e-05
4.07757e-05
-1.80022e-05
5.3049e-05
6.68515e-06
5.64303e-05
3.51447e-05
4.62816e-05
4.50343e-05
2.79124e-05
3.77851e-05
1.21836e-05
1.17215e-05
4.66013e-06
-1.13931e-05
1.87573e-06
-2.32264e-05
4.1418e-07
-2.61934e-05
-2.55587e-05
7.70789e-07
-3.09595e-06
9.8361e-07
-5.94669e-06
1.32e-07
-8.21237e-06
-1.55326e-06
-1.05191e-05
-5.32518e-06
-1.26979e-05
-9.47661e-06
-1.85144e-05
-1.16875e-05
-2.0731e-05
-1.35141e-05
-2.81156e-05
-1.41401e-05
-3.64548e-05
-1.22454e-05
-4.61193e-05
-1.11393e-05
-4.52353e-05
-1.02508e-05
-4.52156e-05
-9.44362e-06
-4.55769e-05
-8.33134e-06
-4.55696e-05
-7.79714e-06
-4.49801e-05
-8.60616e-06
-4.37485e-05
-4.54372e-06
-5.34452e-05
4.63852e-06
-5.1963e-05
1.23967e-05
-4.85364e-05
2.19584e-05
-3.8264e-05
3.43547e-05
-1.97246e-05
4.83461e-05
2.63327e-06
5.76008e-05
3.14112e-05
5.64163e-05
4.97021e-05
4.2154e-05
4.93012e-05
2.04923e-05
3.21341e-05
7.80244e-06
2.13275e-08
3.80989e-06
-1.75254e-05
1.06564e-06
-2.37602e-05
-2.52985e-05
9.12033e-08
-3.0817e-06
-3.47279e-07
-5.82391e-06
-9.73968e-07
-7.30604e-06
-3.57842e-06
-9.17724e-06
-1.26589e-05
-1.38389e-05
-1.60632e-05
-2.17029e-05
-1.55238e-05
-2.4749e-05
-2.17479e-05
-3.42722e-05
-2.35074e-05
-4.34134e-05
-1.70451e-05
-4.75823e-05
-1.40334e-05
-4.79152e-05
-1.25802e-05
-4.66771e-05
-1.15235e-05
-4.68062e-05
-1.02098e-05
-4.66384e-05
-9.25832e-06
-4.64539e-05
-9.1299e-06
-4.53956e-05
-4.38941e-06
-5.79056e-05
3.57705e-06
-6.04055e-05
9.42378e-06
-5.37682e-05
1.65706e-05
-4.2593e-05
2.73326e-05
-2.07345e-05
4.18164e-05
3.63741e-06
5.51624e-05
3.00555e-05
5.94673e-05
5.21169e-05
5.4733e-05
5.55608e-05
3.65021e-05
4.84583e-05
1.7381e-05
2.09318e-05
8.94151e-06
-4.30459e-06
3.16182e-06
-1.43587e-05
-2.25417e-05
1.04632e-07
-3.02521e-06
-6.91871e-07
-5.3984e-06
-2.54651e-06
-5.56957e-06
-1.41891e-05
-5.25284e-06
-2.4221e-05
-1.21249e-05
-2.44624e-05
-1.92795e-05
-2.38534e-05
-2.49064e-05
-2.45035e-05
-3.92755e-05
-2.53412e-05
-4.70576e-05
-2.02595e-05
-5.00545e-05
-1.62236e-05
-4.97141e-05
-1.47525e-05
-4.82163e-05
-1.33669e-05
-4.80738e-05
-1.20039e-05
-4.79793e-05
-1.08134e-05
-4.79482e-05
-1.07175e-05
-4.6975e-05
-6.38355e-06
-5.85485e-05
1.3878e-06
-7.00394e-05
6.77544e-06
-6.0223e-05
1.10917e-05
-4.70646e-05
1.95225e-05
-2.24066e-05
3.34695e-05
4.60546e-06
4.93215e-05
3.03009e-05
5.79024e-05
5.34181e-05
5.6819e-05
6.0125e-05
5.14532e-05
5.67414e-05
3.17087e-05
2.80933e-05
1.24486e-05
4.16271e-06
6.30349e-06
-3.00331e-06
-1.56792e-05
6.34227e-07
-3.65557e-06
-6.81665e-08
-4.7461e-06
-4.44129e-06
-2.34813e-06
-1.41389e-05
2.21923e-06
-1.56255e-05
-2.39179e-06
-1.17762e-05
-8.75735e-06
-1.20519e-05
-1.74424e-05
-1.68909e-05
-4.76731e-05
-2.36929e-05
-6.66599e-05
-2.19484e-05
-6.27162e-05
-1.79748e-05
-5.21789e-05
-1.6539e-05
-4.97104e-05
-1.50973e-05
-4.94408e-05
-1.36599e-05
-4.94864e-05
-1.22709e-05
-4.94457e-05
-1.19543e-05
-4.85182e-05
-8.44452e-06
-5.82686e-05
-2.17411e-06
-7.75928e-05
2.06204e-06
-6.53764e-05
5.90559e-06
-4.90175e-05
1.39364e-05
-1.96535e-05
2.53732e-05
5.47963e-06
4.07783e-05
2.9917e-05
5.27988e-05
5.28504e-05
5.51596e-05
6.27142e-05
3.88503e-05
5.98702e-05
1.37813e-05
1.92659e-05
6.54171e-06
3.61869e-06
5.97941e-06
-1.2048e-07
-1.05345e-05
4.77381e-07
-4.52919e-06
-1.49508e-06
-3.40995e-06
-5.68985e-06
2.19644e-06
-9.72653e-06
7.33571e-06
-6.68432e-06
3.98297e-06
-2.37241e-06
-1.42056e-05
4.67134e-06
-2.83495e-05
1.66013e-06
-6.96727e-05
-1.55364e-05
-9.70907e-05
-2.21428e-05
-9.20218e-05
-2.00663e-05
-6.35629e-05
-1.8199e-05
-5.13825e-05
-1.66774e-05
-5.07833e-05
-1.52494e-05
-5.11383e-05
-1.37277e-05
-5.1022e-05
-1.32622e-05
-5.01596e-05
-9.81548e-06
-5.95789e-05
-7.04931e-06
-8.51259e-05
-6.02515e-06
-6.92871e-05
-1.32543e-06
-4.2768e-05
8.90536e-06
-1.16997e-05
1.98942e-05
1.00582e-05
3.33214e-05
3.02825e-05
4.68584e-05
5.22931e-05
5.09774e-05
6.3931e-05
2.72336e-05
6.14968e-05
9.21499e-07
1.91716e-05
-9.7785e-07
4.16814e-06
-8.95927e-08
-1.76024e-06
-9.6674e-06
-6.2349e-07
-3.29957e-06
-3.30698e-06
6.48054e-07
-5.05222e-06
5.43321e-06
-1.6047e-06
6.9123e-06
6.47284e-06
-7.9224e-06
1.46788e-05
-5.04537e-05
2.05152e-05
-6.95763e-05
1.50516e-05
-9.53087e-05
9.27804e-07
-0.000112157
-1.34718e-05
-0.000114484
-2.05208e-05
-8.44494e-05
-1.99627e-05
-5.4085e-05
-1.80976e-05
-5.24797e-05
-1.6686e-05
-5.2994e-05
-1.51429e-05
-5.27735e-05
-1.48257e-05
-5.19739e-05
-1.1846e-05
-6.44201e-05
-1.4316e-05
-9.72665e-05
-1.53985e-05
-7.07043e-05
-7.73572e-06
-2.42758e-05
4.15881e-06
-4.76311e-06
1.60817e-05
1.34331e-05
2.7113e-05
3.07104e-05
4.10994e-05
5.14962e-05
4.74608e-05
6.4408e-05
2.32631e-05
6.21154e-05
-3.01719e-06
2.39103e-05
-3.82984e-06
5.90961e-06
-1.46365e-06
-3.17418e-06
-9.65573e-06
-2.9793e-06
-6.88331e-07
-4.60343e-06
-4.84195e-06
-4.00245e-07
-8.11245e-06
9.34117e-06
-2.58615e-05
1.31909e-05
-5.06619e-05
8.11175e-06
-8.48776e-05
4.59199e-06
-9.83929e-05
5.57727e-06
-0.000106378
7.11779e-06
-0.000112792
-1.07762e-07
-0.000118838
-1.50993e-05
-0.000101078
-2.17703e-05
-6.11318e-05
-1.93475e-05
-5.48881e-05
-1.79084e-05
-5.50149e-05
-1.61948e-05
-5.48842e-05
-1.50882e-05
-5.44198e-05
-1.3248e-05
-6.84644e-05
-2.02258e-05
-0.000107643
-2.46713e-05
-7.01678e-05
-1.17321e-05
-5.10107e-06
3.54187e-06
6.81115e-06
1.22321e-05
1.62774e-05
2.19427e-05
3.20149e-05
3.55644e-05
4.97628e-05
4.46376e-05
6.39692e-05
2.35317e-05
6.13405e-05
-1.70608e-06
3.07271e-05
-2.74178e-06
8.1714e-06
-8.29528e-07
-4.38888e-06
-9.87641e-06
-4.31277e-06
-4.72654e-06
-2.60015e-06
-3.50227e-05
6.97973e-07
-4.70393e-05
3.4045e-06
-6.92389e-05
2.53066e-06
-8.47222e-05
2.34211e-06
-9.36256e-05
3.65529e-06
-9.94111e-05
5.90385e-06
-0.000105571
8.49588e-06
-0.000111759
3.78772e-06
-0.000118756
-1.28787e-05
-0.000110733
-2.24725e-05
-7.27827e-05
-2.05269e-05
-5.70919e-05
-1.90214e-05
-5.69288e-05
-1.75297e-05
-5.74404e-05
-1.5708e-05