/*--------------------------------*- C++ -*----------------------------------*\
| =========                 |                                                 |
| \\      /  F ield         | OpenFOAM: The Open Source CFD Toolbox           |
|  \\    /   O peration     | Version:  v1606+                                |
|   \\  /    A nd           | Web:      www.OpenFOAM.com                      |
|    \\/     M anipulation  |                                                 |
\*---------------------------------------------------------------------------*/
FoamFile
{
    version     2.0;
    format      ascii;
    class       volVectorField;
    location    "0.82";
    object      U.airMean;
}
// * * * * * * * * * * * * * * * * * * * * * * * * * * * * * * * * * * * * * //

dimensions      [0 1 -1 0 0 0 0];

internalField   nonuniform List<vector> 
6000
(
(-0.0191573 0.269288 0)
(-0.00449542 0.234361 0)
(0.00899594 0.245155 0)
(0.0204866 0.247271 0)
(0.026955 0.245935 0)
(0.0274945 0.243357 0)
(0.0250602 0.241334 0)
(0.0208875 0.238524 0)
(0.0155428 0.237457 0)
(0.00999418 0.234189 0)
(0.00483191 0.228298 0)
(0.00158853 0.224377 0)
(-0.000660295 0.224315 0)
(-0.00139872 0.222096 0)
(-0.000896952 0.22294 0)
(-0.000295293 0.222785 0)
(-0.000320131 0.22286 0)
(-0.00199571 0.223708 0)
(-0.00375675 0.223228 0)
(-0.00726532 0.228659 0)
(-0.0120674 0.234049 0)
(-0.0173809 0.237756 0)
(-0.0226551 0.239656 0)
(-0.0266029 0.24216 0)
(-0.0289915 0.244072 0)
(-0.0279548 0.247202 0)
(-0.0207536 0.2479 0)
(-0.00875696 0.245 0)
(0.00487824 0.234543 0)
(0.0196173 0.269937 0)
(0.0091594 0.997773 0)
(0.00149339 0.981803 0)
(0.0179941 0.981841 0)
(0.0303058 0.981906 0)
(0.0435866 0.993248 0)
(0.0489013 1.0021 0)
(0.0453948 1.00741 0)
(0.0340715 1.01183 0)
(0.0214272 1.01167 0)
(0.0124373 1.01095 0)
(0.00483988 1.01233 0)
(-0.001396 1.01172 0)
(-0.00475763 1.00983 0)
(-0.00487244 1.008 0)
(-0.00145071 1.00583 0)
(0.00247596 1.00627 0)
(0.00352207 1.00953 0)
(0.00175869 1.01059 0)
(-0.00244432 1.01243 0)
(-0.00883126 1.01193 0)
(-0.0159032 1.01082 0)
(-0.0252835 1.01126 0)
(-0.0379535 1.01065 0)
(-0.0483131 1.00631 0)
(-0.050831 1.00108 0)
(-0.0442871 0.990978 0)
(-0.0300452 0.980447 0)
(-0.0172408 0.981487 0)
(-0.00127398 0.981897 0)
(-0.00909558 0.998035 0)
(-0.0104284 0.824534 0)
(-0.0026593 0.763647 0)
(0.0197369 0.769379 0)
(0.031681 0.767779 0)
(0.0467573 0.779767 0)
(0.0559991 0.796278 0)
(0.0559931 0.813903 0)
(0.0449705 0.823274 0)
(0.0302513 0.82304 0)
(0.0165468 0.815889 0)
(0.00697314 0.809071 0)
(0.00210074 0.803451 0)
(-0.00157749 0.798594 0)
(-0.00273798 0.791428 0)
(0.000669048 0.788323 0)
(0.00368304 0.791101 0)
(0.00288998 0.796437 0)
(-0.00101855 0.800855 0)
(-0.00540526 0.80396 0)
(-0.0100988 0.809019 0)
(-0.0196529 0.815693 0)
(-0.0328897 0.822883 0)
(-0.0472698 0.822419 0)
(-0.0572549 0.811763 0)
(-0.0557783 0.794204 0)
(-0.0459054 0.777573 0)
(-0.0306485 0.76617 0)
(-0.0184982 0.768182 0)
(0.00388427 0.76403 0)
(0.0111202 0.825769 0)
(0.0098104 0.86081 0)
(0.0162305 0.796567 0)
(0.0244025 0.803884 0)
(0.0340252 0.801034 0)
(0.047147 0.813718 0)
(0.0573876 0.831674 0)
(0.0636063 0.855619 0)
(0.0589871 0.873645 0)
(0.0446172 0.880405 0)
(0.0279105 0.873748 0)
(0.0154828 0.866509 0)
(0.0059996 0.860283 0)
(-0.00253308 0.854024 0)
(-0.00398654 0.842592 0)
(0.00114349 0.835941 0)
(0.00653105 0.840925 0)
(0.0069268 0.850968 0)
(0.000793046 0.857881 0)
(-0.00931611 0.860944 0)
(-0.0183764 0.865229 0)
(-0.0296868 0.872868 0)
(-0.0457022 0.878912 0)
(-0.058978 0.871533 0)
(-0.0628275 0.852433 0)
(-0.0561213 0.829131 0)
(-0.0456029 0.811265 0)
(-0.0323988 0.799699 0)
(-0.0229816 0.803465 0)
(-0.0148914 0.797472 0)
(-0.00896419 0.862882 0)
(0.0133869 0.823249 0)
(0.0127773 0.773722 0)
(0.0180716 0.775517 0)
(0.031827 0.767635 0)
(0.0494761 0.78105 0)
(0.06304 0.802526 0)
(0.0728686 0.833461 0)
(0.0742506 0.862853 0)
(0.0617179 0.880487 0)
(0.0422596 0.873777 0)
(0.0276698 0.86319 0)
(0.0137023 0.859541 0)
(-0.0009056 0.847142 0)
(-0.00502237 0.825362 0)
(0.0018718 0.814356 0)
(0.00973917 0.822213 0)
(0.0108604 0.840194 0)
(0.000500959 0.855348 0)
(-0.0166454 0.861126 0)
(-0.0299289 0.860416 0)
(-0.0427428 0.871837 0)
(-0.0613135 0.877837 0)
(-0.0729752 0.85979 0)
(-0.0714197 0.82993 0)
(-0.0618605 0.799686 0)
(-0.0481826 0.778403 0)
(-0.0305957 0.766289 0)
(-0.0170654 0.775263 0)
(-0.0117206 0.77451 0)
(-0.0126322 0.826564 0)
(0.00273609 0.80701 0)
(-0.0056414 0.768766 0)
(-0.000228673 0.752783 0)
(0.0157861 0.739287 0)
(0.0395422 0.752018 0)
(0.0655864 0.777389 0)
(0.0844911 0.813194 0)
(0.0932814 0.852983 0)
(0.0861888 0.885094 0)
(0.067419 0.885545 0)
(0.0501247 0.873503 0)
(0.0309444 0.876313 0)
(0.00725367 0.861275 0)
(-0.00472272 0.826036 0)
(0.00114189 0.806993 0)
(0.0115513 0.818361 0)
(0.0109334 0.847522 0)
(-0.00837854 0.874013 0)
(-0.0338276 0.878678 0)
(-0.0510313 0.868936 0)
(-0.0660843 0.882057 0)
(-0.0838686 0.881699 0)
(-0.0911931 0.849752 0)
(-0.0827832 0.810332 0)
(-0.0641252 0.774932 0)
(-0.0384696 0.74985 0)
(-0.0155218 0.738324 0)
(0.000102307 0.752743 0)
(0.00617201 0.769108 0)
(-0.00313576 0.810982 0)
(-0.00607066 0.817072 0)
(-0.019844 0.766474 0)
(-0.025345 0.738395 0)
(-0.0179325 0.710553 0)
(0.0108559 0.708996 0)
(0.056489 0.734384 0)
(0.0918792 0.78054 0)
(0.110655 0.833769 0)
(0.108476 0.881373 0)
(0.0944351 0.891799 0)
(0.0754037 0.880469 0)
(0.0497833 0.890574 0)
(0.015551 0.876931 0)
(-0.0048369 0.822691 0)
(-0.00174577 0.790394 0)
(0.0117914 0.80564 0)
(0.00821236 0.851725 0)
(-0.0194591 0.89417 0)
(-0.0537724 0.891369 0)
(-0.0749817 0.87367 0)
(-0.0905337 0.886393 0)
(-0.10388 0.878468 0)
(-0.107436 0.831315 0)
(-0.0892126 0.778128 0)
(-0.0541073 0.732587 0)
(-0.0100975 0.708256 0)
(0.0172601 0.710741 0)
(0.024086 0.73871 0)
(0.0191201 0.767168 0)
(0.00542601 0.820813 0)
(-0.00363815 0.831411 0)
(-0.0256346 0.78594 0)
(-0.0478005 0.742421 0)
(-0.0489891 0.69261 0)
(-0.0192337 0.663035 0)
(0.0361558 0.680836 0)
(0.0886515 0.744045 0)
(0.118069 0.81573 0)
(0.123601 0.878189 0)
(0.114142 0.897567 0)
(0.0943675 0.894188 0)
(0.0629227 0.91125 0)
(0.0228913 0.897117 0)
(-0.00358815 0.824755 0)
(-0.00476699 0.773782 0)
(0.00530135 0.792316 0)
(0.000906391 0.858655 0)
(-0.0297503 0.915436 0)
(-0.0685457 0.909476 0)
(-0.0932012 0.883048 0)
(-0.107401 0.890021 0)
(-0.116865 0.876646 0)
(-0.113699 0.814682 0)
(-0.0852913 0.741957 0)
(-0.0339818 0.680708 0)
(0.0191996 0.664061 0)
(0.0472885 0.693687 0)
(0.0449318 0.74284 0)
(0.0232191 0.785949 0)
(0.00176272 0.834743 0)
(-0.00765701 0.849164 0)
(-0.0325929 0.813779 0)
(-0.0637853 0.751145 0)
(-0.0708903 0.672939 0)
(-0.0455366 0.61732 0)
(0.00650338 0.618412 0)
(0.0655953 0.693101 0)
(0.109666 0.788492 0)
(0.129782 0.868321 0)
(0.123839 0.902818 0)
(0.100526 0.91161 0)
(0.0674357 0.937535 0)
(0.0270319 0.915568 0)
(-0.00186227 0.832275 0)
(-0.00752524 0.762795 0)
(-0.00872111 0.78266 0)
(-0.0124384 0.863011 0)
(-0.0374648 0.93332 0)
(-0.0726695 0.931848 0)
(-0.0977632 0.893185 0)
(-0.114196 0.893265 0)
(-0.12165 0.869066 0)
(-0.10487 0.788919 0)
(-0.0630047 0.691719 0)
(-0.00592277 0.62007 0)
(0.0442722 0.61972 0)
(0.0686788 0.674991 0)
(0.0600393 0.752343 0)
(0.0283484 0.813923 0)
(0.00544308 0.849272 0)
(-0.0123514 0.87326 0)
(-0.0419067 0.838084 0)
(-0.0717269 0.763605 0)
(-0.0830055 0.657835 0)
(-0.0672384 0.580803 0)
(-0.0268798 0.566004 0)
(0.0294365 0.637635 0)
(0.0847647 0.74574 0)
(0.117933 0.848192 0)
(0.120989 0.910092 0)
(0.09282 0.9265 0)
(0.0629618 0.962307 0)
(0.025479 0.932349 0)
(-0.00464664 0.839041 0)
(-0.0131392 0.7597 0)
(-0.0232284 0.779936 0)
(-0.0253762 0.858823 0)
(-0.0405236 0.940563 0)
(-0.0624817 0.950844 0)
(-0.0856488 0.89986 0)
(-0.108178 0.900096 0)
(-0.109549 0.852762 0)
(-0.0814403 0.748526 0)
(-0.0283148 0.637966 0)
(0.0281465 0.569863 0)
(0.0672735 0.583546 0)
(0.0819663 0.660693 0)
(0.0686947 0.765778 0)
(0.0379143 0.837975 0)
(0.0108337 0.871617 0)
(-0.0143932 0.89474 0)
(-0.0460067 0.855981 0)
(-0.0748039 0.774465 0)
(-0.0896061 0.645623 0)
(-0.0851745 0.552862 0)
(-0.0581577 0.518623 0)
(-0.0113113 0.582246 0)
(0.0503263 0.695192 0)
(0.0901875 0.816783 0)
(0.102181 0.916161 0)
(0.077956 0.944406 0)
(0.0468448 0.983655 0)
(0.0173583 0.951393 0)
(-0.0128817 0.845744 0)
(-0.0207916 0.76203 0)
(-0.0320166 0.779606 0)
(-0.0283441 0.849987 0)
(-0.0334971 0.936958 0)
(-0.0356533 0.965015 0)
(-0.0599414 0.912415 0)
(-0.0841139 0.909628 0)
(-0.0829502 0.829224 0)
(-0.0478871 0.701321 0)
(0.0132223 0.58139 0)
(0.0605178 0.521399 0)
(0.086018 0.555881 0)
(0.0889555 0.650074 0)
(0.0721847 0.778793 0)
(0.042249 0.855574 0)
(0.0128955 0.890633 0)
(-0.0135717 0.917723 0)
(-0.0450612 0.87385 0)
(-0.0731746 0.786539 0)
(-0.0895867 0.638951 0)
(-0.0927499 0.533288 0)
(-0.0757368 0.483999 0)
(-0.0411434 0.527306 0)
(0.0127074 0.644598 0)
(0.0548612 0.783398 0)
(0.0691182 0.915212 0)
(0.0549542 0.96344 0)
(0.0276018 1.00207 0)
(0.00827604 0.970194 0)
(-0.0167649 0.852407 0)
(-0.0225902 0.766828 0)
(-0.030557 0.776858 0)
(-0.0210694 0.839099 0)
(-0.0153851 0.924893 0)
(0.000427771 0.969546 0)
(-0.0219206 0.931208 0)
(-0.0463194 0.918502 0)
(-0.0477861 0.807426 0)
(-0.00976238 0.651449 0)
(0.045574 0.526526 0)
(0.0798048 0.489155 0)
(0.0937521 0.537713 0)
(0.0882491 0.645693 0)
(0.06938 0.791607 0)
(0.0415357 0.87311 0)
(0.0120201 0.911203 0)
(-0.0120824 0.937941 0)
(-0.0396291 0.889054 0)
(-0.0645862 0.796208 0)
(-0.083721 0.633952 0)
(-0.0912438 0.518033 0)
(-0.0825544 0.45817 0)
(-0.0580993 0.486878 0)
(-0.0177651 0.600113 0)
(0.0169519 0.754002 0)
(0.0309415 0.910231 0)
(0.0262357 0.977574 0)
(0.0103944 1.01087 0)
(0.00575562 0.98382 0)
(-0.00769946 0.860646 0)
(-0.0169339 0.772305 0)
(-0.0217176 0.771933 0)
(-0.0115393 0.827315 0)
(0.00931603 0.902844 0)
(0.0356856 0.967783 0)
(0.0177106 0.955468 0)
(-0.00579961 0.930383 0)
(-0.00796856 0.790894 0)
(0.0247501 0.605705 0)
(0.0657339 0.486571 0)
(0.0872003 0.467685 0)
(0.0905774 0.525368 0)
(0.0798133 0.644303 0)
(0.0589872 0.802439 0)
(0.0357055 0.887203 0)
(0.0106374 0.929301 0)
(-0.00860943 0.954978 0)
(-0.0305881 0.899277 0)
(-0.0492841 0.806145 0)
(-0.0717223 0.634531 0)
(-0.0862936 0.506638 0)
(-0.085963 0.439695 0)
(-0.0695191 0.455765 0)
(-0.0394573 0.564919 0)
(-0.0160365 0.732576 0)
(-0.00490284 0.900071 0)
(-0.00197022 0.982593 0)
(-0.000145073 1.00622 0)
(0.0121456 0.979422 0)
(0.0149128 0.868219 0)
(-0.00343864 0.78207 0)
(-0.0112442 0.768722 0)
(-0.00145162 0.815678 0)
(0.0353121 0.870415 0)
(0.0639835 0.962327 0)
(0.0521467 0.978192 0)
(0.0331805 0.93848 0)
(0.0317297 0.779956 0)
(0.0552585 0.570719 0)
(0.078703 0.460789 0)
(0.0878916 0.456422 0)
(0.0811628 0.519078 0)
(0.0639582 0.64809 0)
(0.0420155 0.811028 0)
(0.0262021 0.895339 0)
(0.0073423 0.94417 0)
(-0.00399764 0.96198 0)
(-0.019904 0.903838 0)
(-0.028089 0.812366 0)
(-0.0528441 0.644652 0)
(-0.0798371 0.505162 0)
(-0.0923927 0.428679 0)
(-0.0853334 0.430729 0)
(-0.0642583 0.537324 0)
(-0.0469216 0.719371 0)
(-0.0344722 0.88672 0)
(-0.0218755 0.978 0)
(-0.001365 0.9877 0)
(0.0303005 0.956441 0)
(0.0514619 0.879567 0)
(0.0228084 0.800577 0)
(0.00532245 0.774498 0)
(0.0116181 0.802513 0)
(0.0542351 0.836412 0)
(0.0770745 0.958448 0)
(0.0753327 0.997307 0)
(0.0642668 0.943011 0)
(0.0678429 0.775477 0)
(0.0805451 0.549349 0)
(0.0864178 0.448918 0)
(0.086118 0.453171 0)
(0.0695839 0.519359 0)
(0.0449205 0.656492 0)
(0.0225812 0.814085 0)
(0.0170319 0.897783 0)
(0.00357311 0.949569 0)
(-0.000292214 0.965899 0)
(-0.0104792 0.90179 0)
(-0.00612254 0.811215 0)
(-0.0287349 0.661376 0)
(-0.0612135 0.515419 0)
(-0.0912537 0.431747 0)
(-0.104718 0.417671 0)
(-0.098474 0.51565 0)
(-0.0781873 0.705319 0)
(-0.0538741 0.864236 0)
(-0.0266101 0.959083 0)
(0.00104511 0.957641 0)
(0.0458138 0.920023 0)
(0.080485 0.882637 0)
(0.0670006 0.830419 0)
(0.0382007 0.787456 0)
(0.0375086 0.789061 0)
(0.0629035 0.815149 0)
(0.0760417 0.954133 0)
(0.0801139 1.00633 0)
(0.0827914 0.938152 0)
(0.0982396 0.771819 0)
(0.101352 0.543489 0)
(0.0914925 0.445186 0)
(0.0813896 0.453589 0)
(0.0571628 0.525459 0)
(0.0290969 0.670357 0)
(0.00879605 0.81246 0)
(0.0135006 0.897161 0)
(0.00285384 0.955894 0)
(0.00153145 0.966619 0)
(-0.00379548 0.897278 0)
(0.00750888 0.805025 0)
(-0.00653575 0.681203 0)
(-0.0407006 0.535538 0)
(-0.0796257 0.449499 0)
(-0.112746 0.426251 0)
(-0.13024 0.501795 0)
(-0.107511 0.681797 0)
(-0.0642653 0.830141 0)
(-0.0190399 0.930686 0)
(0.0102131 0.934716 0)
(0.0530076 0.875783 0)
(0.0874519 0.879381 0)
(0.0987775 0.853677 0)
(0.0765878 0.821131 0)
(0.0655246 0.804311 0)
(0.062192 0.814734 0)
(0.0640118 0.957905 0)
(0.0712149 1.00545 0)
(0.0925266 0.921884 0)
(0.122597 0.764114 0)
(0.120827 0.550626 0)
(0.0984556 0.452778 0)
(0.0757239 0.458762 0)
(0.0445065 0.538084 0)
(0.0113246 0.686108 0)
(-0.00173573 0.808473 0)
(0.00909741 0.894251 0)
(0.00219123 0.964932 0)
(-0.00013371 0.965625 0)
(0.000567088 0.888982 0)
(0.0173319 0.799808 0)
(0.0167717 0.693335 0)
(-0.0135142 0.559163 0)
(-0.061155 0.476454 0)
(-0.119324 0.457635 0)
(-0.151233 0.504951 0)
(-0.134343 0.651513 0)
(-0.0748017 0.784299 0)
(-0.0109143 0.892067 0)
(0.0295728 0.916489 0)
(0.0559224 0.853018 0)
(0.0833515 0.863734 0)
(0.110722 0.861195 0)
(0.102465 0.842032 0)
(0.0934107 0.826382 0)
(0.0689725 0.837239 0)
(0.0480554 0.966713 0)
(0.0654562 0.993389 0)
(0.103471 0.893428 0)
(0.146304 0.749428 0)
(0.147069 0.566592 0)
(0.112511 0.472792 0)
(0.0674083 0.474993 0)
(0.0198054 0.564653 0)
(-0.0131804 0.70106 0)
(-0.0124618 0.805683 0)
(0.00507887 0.888842 0)
(0.00166975 0.971869 0)
(0.00246853 0.96712 0)
(0.0115629 0.877406 0)
(0.0272664 0.791638 0)
(0.0363492 0.701862 0)
(0.00799243 0.593635 0)
(-0.0429925 0.523536 0)
(-0.113255 0.495797 0)
(-0.158556 0.518809 0)
(-0.14737 0.622423 0)
(-0.0861497 0.73522 0)
(-0.0108333 0.844214 0)
(0.0457561 0.893247 0)
(0.0650354 0.845574 0)
(0.0843522 0.840437 0)
(0.111349 0.864031 0)
(0.114756 0.856452 0)
(0.10553 0.841825 0)
(0.0650938 0.879286 0)
(0.0315409 0.9702 0)
(0.0671807 0.967721 0)
(0.120423 0.85794 0)
(0.17146 0.725224 0)
(0.176457 0.584269 0)
(0.120669 0.51035 0)
(0.0464093 0.519619 0)
(-0.00714752 0.603256 0)
(-0.0339988 0.709404 0)
(-0.0234372 0.795674 0)
(-0.00425373 0.879132 0)
(-0.00243292 0.978845 0)
(0.0105501 0.954003 0)
(0.0298821 0.863763 0)
(0.0395018 0.780107 0)
(0.0310264 0.706447 0)
(-0.00415648 0.627755 0)
(-0.060108 0.565167 0)
(-0.122834 0.53849 0)
(-0.166277 0.534795 0)
(-0.15014 0.584359 0)
(-0.0882483 0.683815 0)
(-0.0109961 0.787579 0)
(0.0540928 0.858673 0)
(0.0824857 0.834048 0)
(0.0901707 0.820724 0)
(0.108946 0.856112 0)
(0.119091 0.86124 0)
(0.106144 0.86722 0)
(0.0560171 0.924885 0)
(0.0329459 0.96691 0)
(0.0806681 0.929807 0)
(0.142645 0.815865 0)
(0.200544 0.690947 0)
(0.203809 0.60488 0)
(0.135198 0.572108 0)
(0.0510438 0.571294 0)
(-0.00715037 0.631343 0)
(-0.030668 0.709005 0)
(-0.0352868 0.779511 0)
(-0.0254282 0.867253 0)
(-0.0132759 0.970264 0)
(0.0144294 0.931657 0)
(0.0357161 0.843662 0)
(0.0323807 0.776807 0)
(-0.00200905 0.723085 0)
(-0.0519989 0.659986 0)
(-0.112141 0.610515 0)
(-0.166201 0.567149 0)
(-0.186928 0.535496 0)
(-0.162273 0.547362 0)
(-0.102719 0.625581 0)
(-0.0256509 0.733109 0)
(0.0479081 0.813587 0)
(0.0937937 0.818968 0)
(0.104685 0.808302 0)
(0.1137 0.84084 0)
(0.117679 0.857498 0)
(0.100783 0.890441 0)
(0.0622952 0.959044 0)
(0.0600935 0.950636 0)
(0.115608 0.886363 0)
(0.186525 0.764998 0)
(0.227066 0.659654 0)
(0.223178 0.630651 0)
(0.163379 0.631341 0)
(0.0866809 0.630877 0)
(0.0259466 0.660169 0)
(-0.0115792 0.72045 0)
(-0.0400537 0.77966 0)
(-0.0435252 0.845264 0)
(-0.0209585 0.935899 0)
(0.0120583 0.892143 0)
(0.0126687 0.823075 0)
(-0.0155581 0.795001 0)
(-0.0594395 0.763046 0)
(-0.111254 0.709642 0)
(-0.162117 0.656925 0)
(-0.196472 0.582945 0)
(-0.209258 0.513328 0)
(-0.183367 0.498971 0)
(-0.120798 0.566039 0)
(-0.0413588 0.671316 0)
(0.0381188 0.76321 0)
(0.0998585 0.786142 0)
(0.122778 0.795105 0)
(0.128008 0.826717 0)
(0.120512 0.85489 0)
(0.100756 0.908653 0)
(0.0803915 0.969351 0)
(0.0956354 0.929721 0)
(0.152376 0.835312 0)
(0.211581 0.723573 0)
(0.231696 0.646209 0)
(0.219192 0.641638 0)
(0.178093 0.667467 0)
(0.131999 0.676451 0)
(0.0829478 0.70259 0)
(0.0371647 0.752232 0)
(0.000407572 0.796198 0)
(-0.0211111 0.822539 0)
(-0.017424 0.886202 0)
(0.00222786 0.886716 0)
(-0.0286869 0.850074 0)
(-0.0694863 0.824775 0)
(-0.106187 0.786129 0)
(-0.143824 0.737383 0)
(-0.172573 0.680378 0)
(-0.197297 0.602838 0)
(-0.216105 0.510634 0)
(-0.21081 0.455643 0)
(-0.158181 0.498685 0)
(-0.0705281 0.601319 0)
(0.0178739 0.700244 0)
(0.091147 0.746336 0)
(0.127326 0.778148 0)
(0.13601 0.821919 0)
(0.123726 0.86335 0)
(0.102721 0.920217 0)
(0.100418 0.967964 0)
(0.129656 0.905299 0)
(0.177712 0.792343 0)
(0.214702 0.69615 0)
(0.220991 0.64234 0)
(0.19747 0.652992 0)
(0.169408 0.682823 0)
(0.14976 0.696869 0)
(0.122781 0.724918 0)
(0.0869777 0.768022 0)
(0.0576322 0.812244 0)
(0.0238045 0.84228 0)
(-0.00361787 0.874895 0)
(-0.0131931 0.895979 0)
(-0.0571909 0.873718 0)
(-0.0927609 0.842405 0)
(-0.121199 0.807506 0)
(-0.143932 0.759323 0)
(-0.157781 0.695919 0)
(-0.175669 0.622156 0)
(-0.200633 0.527537 0)
(-0.215269 0.446745 0)
(-0.190617 0.443872 0)
(-0.116882 0.531683 0)
(-0.0151867 0.640728 0)
(0.062752 0.706521 0)
(0.109957 0.756802 0)
(0.128322 0.817791 0)
(0.118828 0.874627 0)
(0.103727 0.928392 0)
(0.120149 0.953063 0)
(0.162647 0.877169 0)
(0.199082 0.769492 0)
(0.215565 0.684251 0)
(0.203501 0.649021 0)
(0.169057 0.66611 0)
(0.149099 0.685504 0)
(0.1429 0.701408 0)
(0.130376 0.740357 0)
(0.107225 0.783285 0)
(0.0828432 0.822643 0)
(0.0503772 0.860959 0)
(0.013663 0.877906 0)
(-0.0201823 0.924928 0)
(-0.0575618 0.912106 0)
(-0.0942658 0.869326 0)
(-0.112615 0.826788 0)
(-0.121189 0.770713 0)
(-0.129657 0.706803 0)
(-0.14606 0.639521 0)
(-0.174221 0.548967 0)
(-0.203004 0.460616 0)
(-0.200318 0.426059 0)
(-0.155915 0.470169 0)
(-0.071596 0.565818 0)
(0.0141183 0.658619 0)
(0.0733341 0.724769 0)
(0.103768 0.809412 0)
(0.101891 0.882527 0)
(0.101367 0.924247 0)
(0.138197 0.923444 0)
(0.188896 0.85033 0)
(0.218132 0.758522 0)
(0.218711 0.684695 0)
(0.189925 0.665802 0)
(0.147879 0.679253 0)
(0.130698 0.681995 0)
(0.12644 0.697942 0)
(0.11711 0.744474 0)
(0.105451 0.795157 0)
(0.0877235 0.840468 0)
(0.0532222 0.892847 0)
(0.020916 0.903888 0)
(-0.0215801 0.960385 0)
(-0.0538428 0.947383 0)
(-0.0791622 0.887708 0)
(-0.0810695 0.833453 0)
(-0.0826395 0.773389 0)
(-0.0957432 0.718044 0)
(-0.117012 0.655813 0)
(-0.147502 0.56973 0)
(-0.18236 0.474782 0)
(-0.196619 0.421123 0)
(-0.173066 0.443012 0)
(-0.118972 0.508786 0)
(-0.0416188 0.598995 0)
(0.0291205 0.679016 0)
(0.0675333 0.791188 0)
(0.0798558 0.878494 0)
(0.100929 0.902321 0)
(0.151108 0.880533 0)
(0.207378 0.820963 0)
(0.235369 0.750529 0)
(0.229061 0.694854 0)
(0.186736 0.690575 0)
(0.136748 0.694598 0)
(0.115735 0.678831 0)
(0.105371 0.70013 0)
(0.0935346 0.745646 0)
(0.0877984 0.799541 0)
(0.0823189 0.854935 0)
(0.0539888 0.92265 0)
(0.0238187 0.934778 0)
(-0.0259307 0.991866 0)
(-0.0402897 0.966939 0)
(-0.045587 0.888369 0)
(-0.0371128 0.826546 0)
(-0.0425791 0.776523 0)
(-0.0614813 0.728474 0)
(-0.0898662 0.670716 0)
(-0.124434 0.587757 0)
(-0.16288 0.490368 0)
(-0.188791 0.419494 0)
(-0.181589 0.418838 0)
(-0.144018 0.465794 0)
(-0.0849981 0.54051 0)
(-0.0163297 0.627919 0)
(0.0312893 0.75987 0)
(0.0588209 0.854525 0)
(0.100102 0.86497 0)
(0.162025 0.832654 0)
(0.220444 0.787618 0)
(0.25006 0.738515 0)
(0.240392 0.712315 0)
(0.188954 0.724646 0)
(0.132358 0.718149 0)
(0.0979964 0.682037 0)
(0.0796394 0.709533 0)
(0.067993 0.750993 0)
(0.0602184 0.798797 0)
(0.0622857 0.858661 0)
(0.0509401 0.941807 0)
(0.0310651 0.967863 0)
(-0.0255298 1.02231 0)
(-0.0235667 0.963789 0)
(-0.0102596 0.880648 0)
(-0.0064793 0.826626 0)
(-0.0116427 0.78287 0)
(-0.0312555 0.741998 0)
(-0.0608299 0.686903 0)
(-0.0993831 0.605551 0)
(-0.141389 0.506408 0)
(-0.176467 0.42388 0)
(-0.181365 0.401208 0)
(-0.158777 0.43464 0)
(-0.114401 0.493376 0)
(-0.0575718 0.577018 0)
(-0.00154653 0.721727 0)
(0.0361595 0.819004 0)
(0.0983808 0.811901 0)
(0.171319 0.780216 0)
(0.232143 0.75108 0)
(0.261361 0.72599 0)
(0.247718 0.734061 0)
(0.190923 0.766639 0)
(0.130567 0.75475 0)
(0.0799203 0.706332 0)
(0.0570521 0.724375 0)
(0.0409278 0.757889 0)
(0.035299 0.806053 0)
(0.0331417 0.86075 0)
(0.0381556 0.9451 0)
(0.0330432 1.00696 0)
(-0.0137511 1.04446 0)
(-0.00300209 0.946934 0)
(0.0144303 0.874418 0)
(0.0157081 0.824518 0)
(0.0102912 0.786883 0)
(-0.0065193 0.754015 0)
(-0.0331679 0.703345 0)
(-0.0692277 0.623607 0)
(-0.113769 0.523933 0)
(-0.159704 0.434353 0)
(-0.178029 0.392359 0)
(-0.168007 0.413287 0)
(-0.136432 0.460849 0)
(-0.0924865 0.534335 0)
(-0.0341429 0.678914 0)
(0.0241979 0.773629 0)
(0.0967873 0.749015 0)
(0.175593 0.724469 0)
(0.240006 0.712396 0)
(0.270457 0.714792 0)
(0.253889 0.760881 0)
(0.195546 0.817568 0)
(0.134259 0.806442 0)
(0.0700153 0.746783 0)
(0.0363231 0.745709 0)
(0.0142335 0.76789 0)
(0.00617183 0.810249 0)
(0.00686928 0.865548 0)
(0.0178174 0.938708 0)
(0.0188067 1.04245 0)
(-0.000584288 1.04912 0)
(0.0138389 0.933937 0)
(0.0316735 0.870429 0)
(0.0335663 0.828645 0)
(0.0277426 0.795206 0)
(0.0140759 0.767223 0)
(-0.00873178 0.718905 0)
(-0.0409284 0.643109 0)
(-0.0828039 0.547146 0)
(-0.137964 0.453566 0)
(-0.173094 0.391759 0)
(-0.172355 0.400147 0)
(-0.149892 0.440185 0)
(-0.11381 0.505109 0)
(-0.0613787 0.628024 0)
(0.0136358 0.716813 0)
(0.0878692 0.688478 0)
(0.167415 0.665228 0)
(0.236799 0.669482 0)
(0.271311 0.703655 0)
(0.257132 0.793265 0)
(0.20507 0.869909 0)
(0.143955 0.868518 0)
(0.0668226 0.804821 0)
(0.0191469 0.778203 0)
(-0.00938848 0.783917 0)
(-0.0210262 0.81487 0)
(-0.0175729 0.864493 0)
(-0.00221145 0.934643 0)
(0.00280428 1.05684 0)
(0.0103249 1.04589 0)
(0.027794 0.919058 0)
(0.0444529 0.864104 0)
(0.0485676 0.830288 0)
(0.0424071 0.804328 0)
(0.0278721 0.780433 0)
(0.00896767 0.737079 0)
(-0.0212059 0.663094 0)
(-0.0618905 0.573226 0)
(-0.117909 0.480863 0)
(-0.1677 0.398809 0)
(-0.17136 0.386433 0)
(-0.153711 0.42424 0)
(-0.123225 0.486001 0)
(-0.0775871 0.583126 0)
(-0.00829642 0.663735 0)
(0.067116 0.635464 0)
(0.143923 0.604046 0)
(0.216227 0.619648 0)
(0.261358 0.689401 0)
(0.253602 0.814555 0)
(0.211035 0.916378 0)
(0.155746 0.935718 0)
(0.0746544 0.876071 0)
(0.00824566 0.820823 0)
(-0.0277627 0.805005 0)
(-0.0435839 0.819623 0)
(-0.040609 0.857975 0)
(-0.0219319 0.924025 0)
(-0.00932612 1.0598 0)
(0.0191529 1.02695 0)
(0.0400194 0.904347 0)
(0.0556241 0.85709 0)
(0.060924 0.832093 0)
(0.0507425 0.816441 0)
(0.0332028 0.795061 0)
(0.0122446 0.751439 0)
(-0.0180814 0.685351 0)
(-0.0601459 0.601073 0)
(-0.109171 0.506871 0)
(-0.157558 0.412276 0)
(-0.174729 0.373037 0)
(-0.157454 0.406197 0)
(-0.12749 0.468274 0)
(-0.0856445 0.550909 0)
(-0.0278524 0.612901 0)
(0.0456233 0.581803 0)
(0.115757 0.543431 0)
(0.187983 0.562336 0)
(0.235562 0.664784 0)
(0.230782 0.826539 0)
(0.209283 0.950004 0)
(0.168528 0.994158 0)
(0.0971465 0.952205 0)
(0.0137493 0.877428 0)
(-0.0363721 0.833278 0)
(-0.0588347 0.826649 0)
(-0.0585135 0.849602 0)
(-0.0405069 0.908889 0)
(-0.0195805 1.04194 0)
(0.0247196 0.997417 0)
(0.0509818 0.888319 0)
(0.0664707 0.848931 0)
(0.0689455 0.836251 0)
(0.0527311 0.831662 0)
(0.0296067 0.812354 0)
(-0.000841501 0.769461 0)
(-0.0338687 0.707272 0)
(-0.073266 0.626077 0)
(-0.108452 0.526668 0)
(-0.143005 0.421897 0)
(-0.164198 0.368059 0)
(-0.1565 0.379902 0)
(-0.126306 0.44189 0)
(-0.0825861 0.51915 0)
(-0.0282614 0.570976 0)
(0.0320359 0.533832 0)
(0.0938116 0.492148 0)
(0.152973 0.51166 0)
(0.181111 0.641067 0)
(0.191689 0.820553 0)
(0.194359 0.961674 0)
(0.174588 1.03282 0)
(0.121108 1.01803 0)
(0.043054 0.946533 0)
(-0.0298657 0.873962 0)
(-0.064974 0.837702 0)
(-0.0707027 0.841965 0)
(-0.0544827 0.89041 0)
(-0.0259812 1.01163 0)
(0.0306225 0.960547 0)
(0.0603884 0.870833 0)
(0.0728421 0.843499 0)
(0.0677158 0.844836 0)
(0.0432705 0.850223 0)
(0.0127128 0.832565 0)
(-0.0233029 0.791811 0)
(-0.058001 0.728524 0)
(-0.0850141 0.640992 0)
(-0.103829 0.5354 0)
(-0.122875 0.427351 0)
(-0.139045 0.362427 0)
(-0.13689 0.364701 0)
(-0.111675 0.408302 0)
(-0.0708164 0.481112 0)
(-0.0199587 0.530287 0)
(0.0335686 0.493516 0)
(0.0733906 0.443081 0)
(0.0963417 0.475377 0)
(0.11514 0.609171 0)
(0.141177 0.797888 0)
(0.161325 0.951902 0)
(0.164185 1.04885 0)
(0.135132 1.0635 0)
(0.0734694 1.01168 0)
(-0.000919616 0.930662 0)
(-0.055409 0.858684 0)
(-0.0724178 0.836092 0)
(-0.0619574 0.868404 0)
(-0.031905 0.971552 0)
(0.0374688 0.915221 0)
(0.0681548 0.854757 0)
(0.0739291 0.843138 0)
(0.0596005 0.85856 0)
(0.0273402 0.872173 0)
(-0.00784383 0.853892 0)
(-0.0445277 0.814074 0)
(-0.0718418 0.742856 0)
(-0.0853605 0.645134 0)
(-0.0896099 0.535698 0)
(-0.0982166 0.431003 0)
(-0.111533 0.360646 0)
(-0.113131 0.351211 0)
(-0.0931773 0.383312 0)
(-0.0600422 0.4428 0)
(-0.0138923 0.484123 0)
(0.0271336 0.446117 0)
(0.052125 0.427206 0)
(0.05149 0.456729 0)
(0.0607406 0.580014 0)
(0.0888087 0.771079 0)
(0.114351 0.929213 0)
(0.133477 1.04423 0)
(0.128744 1.08716 0)
(0.0890233 1.06104 0)
(0.0230542 0.986445 0)
(-0.0294661 0.895666 0)
(-0.0601507 0.843027 0)
(-0.0615485 0.853176 0)
(-0.0345867 0.92263 0)
(0.0405137 0.862977 0)
(0.0685143 0.840949 0)
(0.0647313 0.848695 0)
(0.0411959 0.877662 0)
(0.00518118 0.896615 0)
(-0.0269074 0.876189 0)
(-0.0532461 0.829103 0)
(-0.0683338 0.748569 0)
(-0.072325 0.641765 0)
(-0.0716172 0.531269 0)
(-0.0755104 0.433829 0)
(-0.0879853 0.363614 0)
(-0.094083 0.344967 0)
(-0.0798264 0.365488 0)
(-0.0538099 0.409777 0)
(-0.012081 0.444377 0)
(0.0217511 0.416858 0)
(0.0386793 0.406777 0)
(0.0341719 0.448018 0)
(0.0313399 0.556756 0)
(0.0442562 0.744159 0)
(0.0664131 0.902824 0)
(0.0919901 1.02576 0)
(0.106086 1.09102 0)
(0.0892779 1.09343 0)
(0.0383882 1.03264 0)
(-0.0131772 0.926002 0)
(-0.0449907 0.860284 0)
(-0.0543998 0.846341 0)
(-0.033863 0.876013 0)
(0.0362864 0.811722 0)
(0.0569677 0.832961 0)
(0.0436308 0.862175 0)
(0.0115256 0.899217 0)
(-0.0220712 0.91767 0)
(-0.0437507 0.891554 0)
(-0.05309 0.836586 0)
(-0.05158 0.746591 0)
(-0.051888 0.637771 0)
(-0.0551495 0.528952 0)
(-0.0587419 0.436762 0)
(-0.0694135 0.370188 0)
(-0.0791195 0.343863 0)
(-0.0705562 0.354726 0)
(-0.0523192 0.383711 0)
(-0.0180698 0.406526 0)
(0.0147818 0.389121 0)
(0.0345961 0.390724 0)
(0.0335072 0.445938 0)
(0.0211801 0.555159 0)
(0.0130731 0.728887 0)
(0.0267535 0.880079 0)
(0.0537848 1.0008 0)
(0.0814514 1.07996 0)
(0.0860531 1.10946 0)
(0.058319 1.07094 0)
(0.009494 0.963025 0)
(-0.028523 0.879364 0)
(-0.0423034 0.844931 0)
(-0.0303581 0.833351 0)
(0.0246711 0.771098 0)
(0.0367145 0.833357 0)
(0.0138069 0.882712 0)
(-0.0195603 0.923153 0)
(-0.0451045 0.92876 0)
(-0.0541031 0.888715 0)
(-0.0497435 0.820748 0)
(-0.0378251 0.736758 0)
(-0.0383626 0.635809 0)
(-0.0485666 0.52903 0)
(-0.05042 0.441378 0)
(-0.055266 0.377828 0)
(-0.0665066 0.346034 0)
(-0.0623201 0.349334 0)
(-0.0494475 0.36806 0)
(-0.0265303 0.377024 0)
(0.00387198 0.361498 0)
(0.027477 0.374851 0)
(0.0302065 0.445673 0)
(0.0120643 0.566642 0)
(-0.00912406 0.723668 0)
(-0.00179494 0.861306 0)
(0.0269486 0.971718 0)
(0.0632659 1.05679 0)
(0.085407 1.10775 0)
(0.0808699 1.09442 0)
(0.0411653 1.00544 0)
(-0.00151833 0.905483 0)
(-0.0236086 0.850793 0)
(-0.020196 0.801779 0)
(0.00882279 0.749005 0)
(0.0111995 0.84436 0)
(-0.018194 0.906643 0)
(-0.0474293 0.945289 0)
(-0.0654212 0.935304 0)
(-0.0685786 0.889806 0)
(-0.0602044 0.808777 0)
(-0.041433 0.716773 0)
(-0.0273769 0.622345 0)
(-0.0338643 0.530246 0)
(-0.0520699 0.438756 0)
(-0.0531666 0.386358 0)
(-0.0545101 0.349948 0)
(-0.0535731 0.34555 0)
(-0.0440921 0.359756 0)
(-0.0290022 0.359089 0)
(-0.00622238 0.338225 0)
(0.0148894 0.360074 0)
(0.0146715 0.449115 0)
(-0.0072345 0.584568 0)
(-0.0290358 0.724963 0)
(-0.0196505 0.842115 0)
(0.0112426 0.939353 0)
(0.0519009 1.02529 0)
(0.0855823 1.09276 0)
(0.0993586 1.10515 0)
(0.0740479 1.04394 0)
(0.0301556 0.937228 0)
(-0.0014297 0.865619 0)
(-0.0072893 0.787403 0)
(-0.00286324 0.745145 0)
(-0.0131778 0.863455 0)
(-0.0496007 0.933599 0)
(-0.0719816 0.965864 0)
(-0.0813429 0.939151 0)
(-0.0726133 0.876239 0)
(-0.0538705 0.785609 0)
(-0.0318151 0.695235 0)
(-0.0162714 0.608292 0)
(-0.0149843 0.523903 0)
(-0.038038 0.444822 0)
(-0.0577872 0.377793 0)
(-0.0520634 0.353556 0)
(-0.0460143 0.342935 0)
(-0.0388844 0.355632 0)
(-0.0267259 0.348663 0)
(-0.0101116 0.322474 0)
(0.00208984 0.352846 0)
(-0.0110701 0.461076 0)
(-0.0355722 0.599259 0)
(-0.0464852 0.718998 0)
(-0.0293466 0.818953 0)
(0.00170698 0.906658 0)
(0.0409358 0.990749 0)
(0.078277 1.0675 0)
(0.103771 1.10359 0)
(0.0990049 1.07548 0)
(0.0607403 0.976755 0)
(0.0198289 0.891051 0)
(0.00247107 0.787143 0)
(-0.0142874 0.757892 0)
(-0.0381798 0.892033 0)
(-0.0708017 0.956871 0)
(-0.0776351 0.975128 0)
(-0.0737817 0.935027 0)
(-0.0564024 0.864904 0)
(-0.0350384 0.771207 0)
(-0.0156203 0.683737 0)
(-0.00440293 0.604542 0)
(-0.00349412 0.529367 0)
(-0.0191691 0.454099 0)
(-0.047339 0.385314 0)
(-0.053606 0.342818 0)
(-0.0415814 0.338883 0)
(-0.0340643 0.351363 0)
(-0.0234828 0.341384 0)
(-0.0112546 0.313126 0)
(-0.00796851 0.35924 0)
(-0.0330386 0.480805 0)
(-0.0522042 0.606764 0)
(-0.0508743 0.706308 0)
(-0.0316284 0.794392 0)
(-0.00414139 0.876218 0)
(0.0296308 0.958634 0)
(0.0649807 1.0412 0)
(0.0949454 1.09234 0)
(0.103576 1.09108 0)
(0.0832168 1.01729 0)
(0.0385875 0.924273 0)
(0.0121356 0.800121 0)
(-0.0249302 0.788597 0)
(-0.0514455 0.919752 0)
(-0.0678347 0.970599 0)
(-0.0665337 0.978223 0)
(-0.0567848 0.929511 0)
(-0.0360959 0.852512 0)
(-0.0148004 0.758375 0)
(0.000637994 0.674849 0)
(0.00675624 0.602966 0)
(0.00411503 0.535917 0)
(-0.00827324 0.466679 0)
(-0.0317267 0.395166 0)
(-0.046819 0.34044 0)
(-0.039101 0.332364 0)
(-0.028752 0.34725 0)
(-0.0201582 0.337111 0)
(-0.0107666 0.309799 0)
(-0.0126247 0.372266 0)
(-0.0380489 0.494772 0)
(-0.0495967 0.602501 0)
(-0.0453623 0.691182 0)
(-0.0299618 0.772681 0)
(-0.00881991 0.850674 0)
(0.018017 0.931043 0)
(0.0496639 1.01481 0)
(0.0803932 1.07698 0)
(0.0940719 1.09588 0)
(0.0861157 1.04599 0)