/*--------------------------------*- C++ -*----------------------------------*\
| =========                 |                                                 |
| \\      /  F ield         | OpenFOAM: The Open Source CFD Toolbox           |
|  \\    /   O peration     | Version:  v1606+                                |
|   \\  /    A nd           | Web:      www.OpenFOAM.com                      |
|    \\/     M anipulation  |                                                 |
\*---------------------------------------------------------------------------*/
FoamFile
{
    version     2.0;
    format      ascii;
    class       surfaceVectorField;
    location    "0.7";
    object      Uf;
}
// * * * * * * * * * * * * * * * * * * * * * * * * * * * * * * * * * * * * * //

dimensions      [0 1 -1 0 0 0 0];

internalField   nonuniform List<vector> 
1460
(
(0.118721 -0.0535593 6.41733e-20)
(0.134134 -0.0423646 1.34853e-20)
(0.107551 -0.0564711 0)
(0.126324 -0.0390734 2.11377e-19)
(0.0959855 -0.0593801 -2.5291e-19)
(0.115184 -0.0431503 -2.07481e-19)
(0.0860615 -0.0645526 -2.34122e-21)
(0.102861 -0.0513468 -2.57612e-19)
(0.0790523 -0.07238 -2.99638e-21)
(0.0925781 -0.0630991 3.6425e-19)
(0.0746877 -0.0810313 2.76311e-21)
(0.0865437 -0.0751695 6.16083e-20)
(0.0726762 -0.0902409 1.2981e-19)
(0.0835863 -0.0891475 4.44025e-20)
(0.0707755 -0.100022 -2.56742e-19)
(0.0839359 -0.103616 -1.46088e-21)
(0.0678276 -0.110324 -1.29468e-19)
(0.0843027 -0.118312 1.04683e-19)
(0.0650089 -0.122191 3.96603e-19)
(0.0814247 -0.135997 -5.05693e-19)
(0.0619114 -0.13888 2.06722e-19)
(0.0758276 -0.160924 5.64908e-19)
(0.068317 -0.193951 -1.12522e-19)
(0.0550558 -0.163795 -1.3525e-19)
(0.140188 -0.0325139 1.62518e-19)
(0.152109 -0.0381688 -1.03846e-19)
(0.130307 -0.0310743 8.3933e-21)
(0.142795 -0.0291055 2.14627e-19)
(0.117904 -0.0391426 -2.11412e-19)
(0.128576 -0.036256 -3.47307e-20)
(0.106907 -0.0525207 1.09055e-19)
(0.113933 -0.0524461 -9.31961e-20)
(0.0980218 -0.0691787 4.37037e-19)
(0.101959 -0.0728844 -1.73486e-19)
(0.0925263 -0.089248 1.01897e-19)
(0.0930246 -0.0961521 4.39274e-19)
(0.0905254 -0.10953 -1.06722e-19)
(0.088026 -0.118702 -2.25287e-19)
(0.0911715 -0.128352 3.38959e-19)
(0.0879148 -0.139453 1.1678e-19)
(0.089813 -0.149708 -2.87852e-19)
(0.0882918 -0.161008 4.8338e-19)
(0.0827298 -0.180993 -3.31734e-19)
(0.0813872 -0.192272 -6.11337e-19)
(0.0712615 -0.223333 2.70808e-19)
(0.0677887 -0.235813 1.89767e-19)
(0.0540627 -0.283249 2.20121e-19)
(0.0602407 -0.268934 2.02065e-19)
(0.153267 -0.0282108 -6.36388e-20)
(0.173128 -0.0294039 -4.77529e-20)
(0.141129 -0.0274052 1.70315e-19)
(0.161899 -0.0198263 1.54517e-19)
(0.125664 -0.0437335 8.85008e-20)
(0.146272 -0.0353954 -5.33215e-20)
(0.110765 -0.0689495 -3.90177e-19)
(0.129381 -0.0623463 -1.00746e-20)
(0.100683 -0.0967791 -1.94073e-19)
(0.112133 -0.0935769 -3.84763e-19)
(0.0948248 -0.122733 9.72174e-20)
(0.100448 -0.123635 2.68205e-19)
(0.0917024 -0.145703 0)
(0.0935168 -0.149449 -1.67386e-19)
(0.0893795 -0.168314 2.69297e-19)
(0.0899692 -0.172364 1.53813e-19)
(0.0829434 -0.200082 1.90667e-19)
(0.0838776 -0.201507 4.19251e-19)
(0.0692978 -0.245444 -8.59525e-20)
(0.0688667 -0.245257 -2.17544e-19)
(0.0530776 -0.295508 1.26537e-19)
(0.049125 -0.296813 -6.41194e-21)
(0.0349113 -0.340291 7.7177e-20)
(0.0423849 -0.33626 7.00015e-22)
(0.174436 -0.0178835 1.61469e-19)
(0.195069 -0.0238743 0)
(0.163965 -0.024878 -7.17172e-20)
(0.183816 -0.0198416 1.63717e-19)
(0.148633 -0.0518402 -1.5416e-19)
(0.169405 -0.0454429 -1.74661e-19)
(0.131315 -0.0861761 2.7329e-21)
(0.151868 -0.0802919 9.01595e-20)
(0.114949 -0.121174 8.59368e-20)
(0.130721 -0.11695 -1.039e-20)
(0.102771 -0.151201 -4.06082e-21)
(0.113892 -0.149897 1.74522e-19)
(0.0944784 -0.17588 -1.37822e-20)
(0.102643 -0.176664 -1.67437e-19)
(0.0856792 -0.203929 3.04299e-19)
(0.092932 -0.202827 2.19158e-20)
(0.0707589 -0.245448 1.1688e-20)
(0.0775195 -0.240163 1.47257e-19)
(0.0500029 -0.296697 -1.41167e-19)
(0.053869 -0.290142 -2.55484e-19)
(0.0322257 -0.341927 -6.32258e-20)
(0.0306942 -0.338242 4.66572e-20)
(0.0199353 -0.36767 -6.00125e-20)
(0.0267367 -0.367703 -1.13865e-19)
(0.19402 -0.0192664 0)
(0.214814 -0.0233653 -6.1121e-20)
(0.186146 -0.0364546 7.5899e-20)
(0.206041 -0.0295508 1.11738e-19)
(0.171056 -0.071106 7.5899e-20)
(0.194191 -0.0619031 7.6874e-20)
(0.152989 -0.110375 8.08669e-20)
(0.17534 -0.101428 0)
(0.133634 -0.146671 8.08669e-20)
(0.153002 -0.139674 2.02257e-19)
(0.116794 -0.176437 4.96662e-21)
(0.13278 -0.173346 2.36993e-19)
(0.102311 -0.20325 -1.36562e-19)
(0.116538 -0.201593 8.39794e-21)
(0.0851619 -0.238008 -1.43374e-19)
(0.0992286 -0.233004 -3.50755e-20)
(0.061324 -0.284908 -1.22326e-19)
(0.0743346 -0.275782 -2.05215e-19)
(0.0352292 -0.332633 -6.46419e-20)
(0.0436001 -0.323682 -1.22898e-19)
(0.0184715 -0.364391 5.11174e-20)
(0.018955 -0.359752 1.33674e-19)
(0.0125654 -0.370941 -8.33864e-20)
(0.0197537 -0.371429 3.17543e-21)
(0.21389 -0.0287325 2.11874e-20)
(0.230693 -0.0298135 -2.10199e-20)
(0.209229 -0.0538766 1.13192e-19)
(0.227163 -0.0463699 -5.97605e-20)
(0.195717 -0.0919171 0)
(0.217892 -0.0814015 9.02751e-20)
(0.17618 -0.132521 1.21918e-19)
(0.199106 -0.121524 0)
(0.154797 -0.169143 3.61995e-19)
(0.175809 -0.160264 8.11436e-21)
(0.13428 -0.199804 2.4226e-19)
(0.153398 -0.194286 1.34394e-19)
(0.11368 -0.230864 1.1527e-19)
(0.13267 -0.225247 9.69991e-20)
(0.0884692 -0.270415 -9.39257e-20)
(0.108385 -0.261022 2.3684e-20)
(0.0572947 -0.315582 -2.05423e-19)
(0.0759858 -0.303547 -2.80328e-19)
(0.0278576 -0.352016 7.95966e-20)
(0.040541 -0.342197 -3.40933e-21)
(0.0128461 -0.366145 -1.50582e-21)
(0.0155385 -0.361913 -7.20356e-20)
(0.0124098 -0.355307 7.52721e-20)
(0.0194371 -0.355352 5.79566e-20)
(0.231999 -0.0445352 -1.10599e-19)
(0.241844 -0.0420077 7.75652e-20)
(0.230513 -0.0737307 -8.50418e-20)
(0.244801 -0.0663059 -1.56521e-19)
(0.21885 -0.111976 9.13647e-20)
(0.2382 -0.100734 4.43563e-21)
(0.198872 -0.152012 -1.11428e-19)
(0.220689 -0.139135 0)
(0.175638 -0.188645 -2.17971e-19)
(0.196618 -0.177245 -3.71774e-20)
(0.151907 -0.22153 -1.33898e-20)
(0.171987 -0.211895 -1.08546e-19)
(0.126283 -0.256102 5.07583e-21)
(0.147308 -0.245139 8.42403e-20)
(0.0950257 -0.295414 -1.62983e-19)
(0.11786 -0.281506 -1.54878e-19)
(0.0590762 -0.33234 -7.39166e-20)
(0.0810151 -0.318123 1.24008e-19)
(0.0279323 -0.353578 -1.55848e-19)
(0.0435655 -0.343734 -1.21181e-19)
(0.0140939 -0.350518 3.08008e-21)
(0.0190786 -0.347257 -1.53693e-19)
(0.0176551 -0.32691 1.63284e-19)
(0.0229345 -0.326125 2.48265e-19)
(0.246691 -0.0630372 5.09868e-20)
(0.249243 -0.0566945 8.56973e-20)
(0.247865 -0.0934229 -6.87808e-20)
(0.257252 -0.0862373 -2.3633e-20)
(0.238016 -0.129373 -8.55872e-20)
(0.253272 -0.117418 -3.35979e-20)
(0.217966 -0.167542 7.63395e-20)
(0.237367 -0.152374 -5.38391e-20)
(0.192903 -0.20386 7.26852e-20)
(0.212546 -0.188727 1.7156e-19)
(0.166232 -0.237963 -1.17236e-20)
(0.185211 -0.223196 4.8543e-20)
(0.136964 -0.272506 -7.56114e-20)
(0.156869 -0.256392 -1.98183e-19)
(0.10235 -0.30657 1.31478e-19)
(0.124272 -0.289337 -1.99647e-20)
(0.0646628 -0.332034 7.02019e-20)
(0.0862291 -0.317062 1.52355e-19)
(0.0336581 -0.338675 -1.18181e-19)
(0.0496694 -0.330031 -1.23822e-19)
(0.0206849 -0.322819 3.93293e-21)
(0.0268645 -0.321568 6.33278e-20)
(0.0260898 -0.294475 0)
(0.0294751 -0.291594 0)
(0.25763 -0.0806792 4.56195e-21)
(0.255382 -0.07046 5.22072e-20)
(0.259628 -0.110438 5.21049e-21)
(0.26438 -0.103357 -1.70664e-20)
(0.250959 -0.142016 -9.67193e-22)
(0.261295 -0.12893 1.13583e-19)
(0.231066 -0.176778 4.26641e-20)
(0.246664 -0.159257 -8.83332e-20)
(0.204009 -0.211302 1.45319e-19)
(0.221366 -0.192291 8.0775e-20)
(0.174332 -0.244185 -1.35104e-19)
(0.191174 -0.224984 5.02239e-20)
(0.142483 -0.275303 -1.37384e-19)
(0.159497 -0.255795 -1.75367e-19)
(0.107039 -0.301762 -8.01437e-23)
(0.125417 -0.283329 4.72153e-20)
(0.070677 -0.316546 -4.55615e-20)
(0.0888435 -0.302606 -1.00787e-19)
(0.0420592 -0.313125 5.82143e-20)
(0.0556526 -0.306841 4.01262e-20)
(0.030544 -0.291913 5.82143e-20)
(0.0357136 -0.293288 -6.24815e-20)
(0.0348987 -0.268017 -5.32359e-20)
(0.0383239 -0.262743 0)
(0.266326 -0.0945492 2.79449e-20)
(0.264932 -0.0819272 2.70903e-20)
(0.264875 -0.122212 8.81552e-20)
(0.265728 -0.113232 -2.71504e-21)
(0.256139 -0.147964 2.49027e-20)
(0.261725 -0.133419 3.15912e-20)
(0.236125 -0.177578 -4.37726e-20)
(0.246565 -0.157601 -1.81454e-20)
(0.207442 -0.208585 -1.11596e-20)
(0.221412 -0.186349 -2.30948e-20)
(0.175089 -0.238465 2.67499e-21)
(0.189519 -0.216382 2.54598e-20)
(0.141505 -0.264958 3.18174e-21)
(0.155524 -0.244016 2.02532e-20)
(0.106931 -0.284706 -5.53214e-20)
(0.121145 -0.266573 1.46103e-20)
(0.07393 -0.292767 -1.47975e-20)
(0.0874632 -0.280208 -1.6221e-20)
(0.0492318 -0.286043 -8.01645e-20)
(0.0588301 -0.281036 9.79029e-20)
(0.0395044 -0.267798 -1.76233e-19)
(0.0420672 -0.269115 -1.87825e-19)
(0.0407357 -0.251043 -1.43367e-20)
(0.0449461 -0.247736 -3.22957e-21)
(0.270346 -0.105941 3.62065e-22)
(0.272775 -0.0853044 2.67574e-20)
(0.263463 -0.127442 -5.23787e-20)
(0.270388 -0.117452 -3.45428e-20)
(0.252001 -0.145536 -9.35749e-21)
(0.25855 -0.130363 -3.07949e-20)
(0.231376 -0.168796 2.96563e-21)
(0.238598 -0.147633 8.74366e-21)
(0.202243 -0.195853 1.236e-20)
(0.211367 -0.171045 -1.40563e-20)
(0.168875 -0.222852 4.01617e-20)
(0.1788 -0.198131 2.76145e-20)
(0.13459 -0.245779 2.74268e-20)
(0.144814 -0.22317 1.29698e-20)
(0.101547 -0.261581 5.62404e-20)
(0.111499 -0.242681 2.44565e-20)
(0.0724265 -0.267477 1.0075e-19)
(0.0809303 -0.253876 6.34704e-20)
(0.051703 -0.26274 -2.61824e-21)
(0.0564851 -0.254954 -2.38656e-20)
(0.0433715 -0.250891 -2.42284e-20)
(0.0423812 -0.246931 5.35533e-20)
(0.0407064 -0.23389 8.20274e-20)
(0.0471187 -0.237633 -1.24541e-20)
(0.28784 -0.0973047 -6.21301e-20)
(0.199363 -0.0570944 -2.35198e-22)
(0.269619 -0.118106 -1.26098e-20)
(0.203945 -0.080753 -2.02358e-20)
(0.247739 -0.130603 -1.99731e-20)
(0.205303 -0.0907214 -8.47802e-21)
(0.219513 -0.150266 -1.56277e-20)
(0.201986 -0.112827 -2.46706e-20)
(0.186448 -0.174464 1.40572e-21)
(0.186839 -0.141438 5.82335e-23)
(0.153442 -0.199087 1.55798e-21)
(0.15887 -0.171811 1.03326e-20)
(0.120866 -0.219919 8.99643e-21)
(0.126657 -0.195909 1.62184e-21)
(0.0903546 -0.234151 3.44235e-20)
(0.0950357 -0.213085 1.12659e-20)
(0.0646386 -0.240069 -6.16433e-20)
(0.0671672 -0.222635 1.93633e-20)
(0.0470148 -0.237543 3.59034e-20)
(0.0458926 -0.223734 -2.2865e-20)
(0.0400183 -0.228224 1.62145e-19)
(0.0340015 -0.21659 5.34356e-20)
(0.0437533 -0.213848 2.00629e-22)
(0.0331121 -0.202314 1.23295e-20)
(0.0432438 -0.195828 5.73094e-20)
(0.0592763 -0.230599 1.60041e-19)
(0.0308322 -0.22806 0)
(0.0515667 -0.263471 -1.50633e-19)
(0.0227453 -0.252334 0)
(0.0486195 -0.286287 0)
(0.0195252 -0.264099 2.50486e-20)
(0.049957 -0.296778 -7.0497e-20)
(0.0185777 -0.263549 7.23767e-20)
(0.0510053 -0.296232 1.3241e-19)
(0.0164493 -0.25086 -8.47577e-21)
(0.0526824 -0.286308 -2.07768e-20)
(0.0116318 -0.227668 -3.0459e-20)
(0.0524105 -0.269055 -2.51894e-20)
(0.00354383 -0.197336 -1.45551e-21)
(0.0476959 -0.245392 3.07117e-20)
(-0.00934775 -0.16446 1.11445e-19)
(0.0368428 -0.216645 -2.5806e-20)
(-0.0275949 -0.136315 -1.57119e-21)
(0.0156351 -0.184044 1.96874e-19)
(-0.0448519 -0.122395 -2.60823e-19)
(-0.0166569 -0.150336 -2.56352e-19)
(-0.0438453 -0.128193 -1.94952e-20)
(0.0543559 -0.306495 -3.798e-20)
(0.0460677 -0.321904 -9.18418e-21)
(0.0558284 -0.328717 -1.53487e-19)
(0.0465095 -0.344027 -3.2437e-20)
(0.0630103 -0.335857 -7.18327e-20)
(0.0540859 -0.34999 -9.58834e-20)
(0.0712325 -0.332738 3.83138e-20)
(0.0642992 -0.344911 -7.30339e-20)
(0.0765329 -0.3221 3.8433e-20)
(0.0742697 -0.333925 1.72246e-19)
(0.0792001 -0.308113 -3.93148e-20)
(0.0797136 -0.321449 -1.32228e-19)
(0.0788278 -0.28987 3.73025e-20)
(0.0845837 -0.307459 5.39444e-20)
(0.0724368 -0.265427 6.55598e-21)
(0.0867908 -0.29142 8.58758e-21)
(0.0549286 -0.232973 6.22483e-20)
(0.0824656 -0.270886 0)
(0.0218211 -0.19311 -4.72642e-20)
(0.0628398 -0.241564 1.28439e-19)
(-0.020231 -0.155712 -1.2873e-20)
(0.0179332 -0.199164 -1.54181e-19)
(-0.0390467 -0.150731 1.88399e-19)
(0.0416728 -0.358996 -4.45976e-21)
(0.0332166 -0.363947 -1.86002e-19)
(0.0494925 -0.363997 2.87241e-20)
(0.0435182 -0.366786 1.27629e-19)
(0.0612508 -0.357416 -9.75141e-20)
(0.0597629 -0.356029 -1.28751e-19)
(0.0732618 -0.345613 6.25493e-20)
(0.0755579 -0.340336 0)
(0.0839456 -0.333223 2.68482e-22)
(0.0876231 -0.325494 5.22466e-21)
(0.0924003 -0.320982 -3.83788e-20)
(0.0952218 -0.313508 -6.27326e-20)
(0.0987877 -0.309939 2.48222e-20)
(0.100336 -0.304368 3.38165e-20)
(0.101667 -0.297932 1.68832e-21)
(0.104663 -0.29767 4.97838e-21)
(0.0943644 -0.279288 6.62581e-20)
(0.107358 -0.290587 -1.29534e-20)
(0.0642175 -0.245086 3.58076e-20)
(0.100429 -0.276717 6.72648e-20)
(0.00338406 -0.192796 5.21611e-20)
(0.063488 -0.246358 -3.52832e-20)
(-0.019987 -0.188976 1.99967e-20)
(0.0358212 -0.371113 -5.46762e-20)
(0.0268849 -0.372061 -5.24157e-20)
(0.0542534 -0.358385 -3.03084e-20)
(0.0469703 -0.357186 0)
(0.0739871 -0.338915 -3.03084e-20)
(0.0702583 -0.334422 2.2427e-20)
(0.0889751 -0.320247 -5.79076e-20)
(0.0886582 -0.313365 0)
(0.0977617 -0.3063 -5.79076e-20)
(0.0992182 -0.298504 -5.69862e-20)
(0.102425 -0.297089 1.0376e-20)
(0.104071 -0.289097 -2.33594e-20)
(0.105977 -0.292088 1.36953e-20)
(0.105914 -0.283863 1.05205e-20)
(0.110455 -0.290492 -9.83546e-21)
(0.107393 -0.282305 1.79535e-20)
(0.11311 -0.288843 -1.31532e-20)
(0.110728 -0.283311 -4.76024e-20)
(0.0987592 -0.275942 0)
(0.113687 -0.282801 4.73188e-20)
(0.0405797 -0.233451 -6.92928e-20)
(0.0960732 -0.273335 2.56441e-20)
(0.011051 -0.235103 4.81146e-20)
(0.0379018 -0.357203 3.17543e-21)
(0.027117 -0.357325 1.43497e-19)
(0.0634108 -0.332686 5.39077e-20)
(0.0540429 -0.329966 -1.69383e-21)
(0.0857599 -0.308883 5.39077e-20)
(0.0803899 -0.302449 -3.68196e-21)
(0.0997585 -0.291774 2.16247e-21)
(0.0978497 -0.283369 -9.71303e-20)
(0.106096 -0.281473 -2.15267e-20)
(0.106009 -0.273693 2.64779e-20)
(0.107695 -0.276004 -2.36892e-20)
(0.108399 -0.269467 -2.12828e-20)
(0.107282 -0.273845 1.47872e-20)
(0.107912 -0.26832 0)
(0.107796 -0.274659 -1.9819e-20)
(0.106703 -0.269278 1.72763e-20)
(0.111546 -0.27891 1.41847e-20)
(0.106936 -0.272168 -3.51962e-20)
(0.110974 -0.282 6.99908e-20)
(0.110795 -0.275852 6.86004e-20)
(0.0705094 -0.260258 1.6451e-19)
(0.1094 -0.279441 4.27832e-20)
(0.0418456 -0.270769 7.18886e-20)
(0.0432102 -0.328563 1.43492e-19)
(0.0313189 -0.328163 2.2987e-19)
(0.0715338 -0.29921 -6.15034e-20)
(0.0608721 -0.294742 -9.48335e-20)
(0.09301 -0.277563 -1.59479e-19)
(0.0864044 -0.26905 -6.51824e-20)
(0.104127 -0.266208 -7.40907e-20)
(0.100977 -0.256981 -9.64151e-20)
(0.10791 -0.262252 2.66726e-20)
(0.106228 -0.254201 2.45934e-20)
(0.108059 -0.262142 2.36902e-21)
(0.106923 -0.255097 2.27334e-20)
(0.106735 -0.263741 2.32907e-21)
(0.105716 -0.257455 -8.06449e-21)
(0.105408 -0.266254 2.32907e-21)
(0.104051 -0.260668 1.03228e-22)
(0.106236 -0.270481 2.07993e-20)
(0.102932 -0.264743 0)
(0.109704 -0.277871 3.63137e-20)
(0.104035 -0.2696 2.10474e-20)
(0.0863374 -0.27315 -3.49113e-20)
(0.108781 -0.276264 -1.75276e-20)
(0.0629357 -0.291757 -5.10269e-20)
(0.047755 -0.292874 -4.05825e-21)
(0.0375372 -0.292687 8.77443e-20)
(0.0746616 -0.264556 -9.76815e-20)
(0.0659563 -0.260334 -1.19128e-20)
(0.0932649 -0.250088 -4.25174e-21)
(0.0870024 -0.243237 -8.94155e-20)
(0.101704 -0.246506 1.00189e-21)
(0.0981192 -0.239603 1.01304e-21)
(0.104136 -0.247948 2.00497e-20)
(0.101851 -0.241162 0)
(0.103862 -0.25096 1.18879e-20)
(0.102464 -0.243724 2.02728e-20)
(0.102526 -0.254655 -1.0414e-20)
(0.101374 -0.2468 6.33719e-21)
(0.101129 -0.25913 -2.25223e-21)
(0.0995044 -0.250925 -8.72853e-21)
(0.100427 -0.26466 0)
(0.097794 -0.25637 -4.42491e-21)
(0.10286 -0.272949 -3.52224e-20)
(0.0966611 -0.263943 0)
(0.0901374 -0.278594 -3.52224e-20)
(0.100456 -0.271288 -3.56143e-20)
(0.0717682 -0.300929 4.97493e-20)
(0.0524392 -0.259294 8.42944e-20)
(0.0442233 -0.261587 0)
(0.0758143 -0.239664 -2.93014e-21)
(0.0676045 -0.238596 8.51736e-20)
(0.0902964 -0.234406 -8.68831e-20)
(0.0837998 -0.231572 -8.77893e-20)
(0.0969473 -0.235894 0)
(0.0927988 -0.231023 0)
(0.0994518 -0.237983 0)
(0.0974446 -0.231058 -1.37642e-20)
(0.0994582 -0.240236 1.46277e-20)
(0.0987767 -0.231372 1.3412e-20)
(0.0978613 -0.243494 8.10385e-21)
(0.0975449 -0.233006 8.57476e-21)
(0.0956391 -0.248631 -1.07917e-20)
(0.0946533 -0.237051 -6.59187e-21)
(0.0933975 -0.256142 -4.4747e-21)
(0.0912935 -0.243734 -1.15161e-21)
(0.0930077 -0.266604 0)
(0.0878138 -0.254474 -1.19471e-20)
(0.0850346 -0.278775 5.03092e-20)
(0.0878182 -0.265153 1.0829e-20)
(0.0677322 -0.300554 2.76733e-20)
(0.0569094 -0.240004 0)
(0.0490957 -0.244085 5.2633e-20)
(0.0743458 -0.231005 0)
(0.0667629 -0.231569 1.2162e-19)
(0.0860351 -0.229233 0)
(0.0802874 -0.226592 -5.98776e-20)
(0.0932567 -0.227462 -1.39093e-20)
(0.0902336 -0.221279 0)
(0.0966017 -0.225367 1.39294e-22)
(0.095996 -0.215966 -2.54579e-20)
(0.0964444 -0.224703 7.42283e-21)
(0.0972118 -0.212695 3.02681e-21)
(0.0936412 -0.226876 -6.13053e-21)
(0.0946536 -0.212794 -6.1907e-21)
(0.0894057 -0.232651 2.97825e-21)
(0.0895894 -0.217092 0)
(0.0846794 -0.242391 -9.09477e-21)
(0.0834518 -0.225525 1.41065e-20)
(0.0810278 -0.256592 -1.12991e-21)
(0.0764986 -0.239458 7.11865e-22)
(0.072315 -0.274665 -1.07866e-20)
(0.0713606 -0.255369 2.23859e-21)
(0.0508046 -0.292859 -1.86469e-20)
(0.0584475 -0.234714 1.74572e-19)
(0.0510373 -0.235654 2.95852e-21)
(0.0727777 -0.227409 6.23548e-20)
(0.0654575 -0.224692 6.9071e-20)
(0.0848674 -0.219471 -6.04711e-20)
(0.0794077 -0.212964 -6.0418e-20)
(0.0931776 -0.210749 -1.15252e-20)
(0.0907496 -0.200387 0)
(0.0964534 -0.203945 -2.26771e-20)
(0.096737 -0.190455 8.51931e-21)
(0.0948899 -0.201053 -1.07652e-20)
(0.0967169 -0.185181 -1.0865e-20)
(0.0896517 -0.203019 0)
(0.0918191 -0.185206 0)
(0.0821711 -0.210174 1.04314e-20)
(0.0836961 -0.190693 0)
(0.0733813 -0.222716 2.16919e-20)
(0.0738843 -0.201261 7.73154e-21)
(0.0647334 -0.2411 3.19815e-21)
(0.0624943 -0.21846 9.43593e-21)
(0.0512284 -0.265254 -4.73361e-21)
(0.0510395 -0.239609 -1.53416e-20)
(0.0206607 -0.278209 -2.69706e-20)
(0.0586685 -0.224993 -1.09422e-19)
(0.0492518 -0.21903 -9.57054e-20)
(0.0730399 -0.210438 -5.44825e-20)
(0.0636885 -0.20141 -8.69139e-21)
(0.0862425 -0.194572 2.1866e-21)
(0.0791065 -0.181897 4.50454e-20)
(0.0947909 -0.180829 2.03832e-20)
(0.0914938 -0.16493 0)
(0.0969989 -0.172036 2.03832e-20)
(0.0970542 -0.153936 2.84079e-20)
(0.0932671 -0.169259 0)
(0.0953256 -0.149736 6.73074e-21)
(0.0850947 -0.172504 0)
(0.0878762 -0.151802 0)
(0.0739302 -0.181521 -1.97588e-21)
(0.0766517 -0.159376 0)
(0.0600466 -0.196644 -3.9113e-21)
(0.0628799 -0.17169 -2.30241e-21)
(0.0433582 -0.219259 -4.11102e-21)
(0.045914 -0.190203 -3.6528e-21)
(0.0166637 -0.248925 -2.7602e-20)
(0.0268905 -0.214188 -1.58219e-20)
(-0.0212143 -0.249974 -5.18028e-20)
(0.0556188 -0.19493 6.03889e-21)
(0.0423782 -0.18185 3.77593e-20)
(0.0712963 -0.173046 9.19875e-20)
(0.0587489 -0.157223 4.93125e-20)
(0.0857279 -0.15291 4.56345e-20)
(0.0761034 -0.134213 -3.12766e-20)
(0.0944082 -0.13859 7.91527e-21)
(0.0893138 -0.117795 0)
(0.0955159 -0.131734 1.49179e-20)
(0.0943692 -0.110076 -5.27502e-21)
(0.0898044 -0.131959 6.79035e-21)
(0.0911886 -0.110186 1.05565e-20)
(0.0792026 -0.138041 0)
(0.0818407 -0.116215 -3.45859e-21)
(0.0652618 -0.148826 -3.11923e-22)
(0.0686168 -0.126437 -2.74639e-22)
(0.0474763 -0.164003 -9.94118e-22)
(0.052478 -0.139595 7.69693e-22)
(0.0224719 -0.185967 -1.36119e-20)
(0.030887 -0.155224 -3.69262e-21)
(-0.0315727 -0.219972 4.28445e-21)
(-6.53136e-05 -0.16969 1.62863e-20)
(-0.0699444 -0.175006 1.81946e-20)
(-0.0537875 -0.118518 -1.2848e-19)
(-0.0419742 -0.133574 2.78286e-19)
(-0.0564917 -0.10752 1.2043e-19)
(-0.0392488 -0.126365 -6.15644e-19)
(-0.0590682 -0.0959541 4.36429e-19)
(-0.0427409 -0.114986 3.63529e-19)
(-0.0642789 -0.0859438 1.23024e-19)
(-0.0512474 -0.10292 8.19007e-21)
(-0.0721892 -0.0789079 -2.54906e-19)
(-0.0631253 -0.0925625 0)
(-0.0808849 -0.074596 2.96236e-21)
(-0.0752423 -0.086458 -2.59646e-19)
(-0.0901222 -0.0726312 2.56508e-19)
(-0.0892292 -0.0835506 2.61278e-19)
(-0.099919 -0.0707288 2.68209e-19)
(-0.10369 -0.0839895 -1.07157e-19)
(-0.11022 -0.0678034 -1.97609e-19)
(-0.118354 -0.0843134 2.73197e-19)
(-0.122103 -0.0650618 -6.69011e-19)
(-0.136118 -0.0814006 -1.50497e-19)
(-0.138889 -0.0620009 -8.29705e-21)
(-0.16123 -0.0758292 -4.8951e-19)
(-0.194451 -0.0683326 5.12935e-19)
(-0.163999 -0.05507 -4.23914e-20)
(-0.0322573 -0.140244 -2.06097e-19)
(-0.0379231 -0.152092 4.02272e-20)
(-0.0308005 -0.130247 -3.80512e-19)
(-0.0290576 -0.142854 -4.38778e-19)
(-0.0389669 -0.117923 -5.8377e-20)
(-0.0361962 -0.128654 4.04344e-19)
(-0.0525935 -0.106927 -1.09772e-19)
(-0.0526502 -0.114101 -3.01445e-19)
(-0.0694496 -0.0980525 0)
(-0.0733141 -0.102179 1.9256e-19)
(-0.0895815 -0.0925627 0)
(-0.0965827 -0.0932633 0)
(-0.109795 -0.0906234 -1.09187e-19)
(-0.119052 -0.0882722 1.89507e-19)
(-0.128508 -0.0912801 -1.09187e-19)
(-0.139684 -0.088261 -2.97316e-20)
(-0.149955 -0.0898398 3.13753e-19)
(-0.161313 -0.0884839 -1.76305e-19)
(-0.181532 -0.0826739 2.53988e-20)
(-0.192919 -0.0813763 4.7941e-19)
(-0.224163 -0.0712022 1.73365e-20)
(-0.236767 -0.0677364 -3.67982e-19)
(-0.284258 -0.054111 -2.0101e-20)
(-0.269866 -0.0602608 1.13656e-19)
(-0.0281767 -0.153359 -1.99996e-19)
(-0.0293261 -0.173216 5.13336e-20)
(-0.0275495 -0.14126 3.5512e-19)
(-0.0199796 -0.162032 -7.36027e-20)
(-0.0441248 -0.125918 1.75124e-19)
(-0.0357832 -0.146493 5.33149e-20)
(-0.0695268 -0.111148 1.31599e-21)
(-0.0629682 -0.129657 -1.12008e-19)
(-0.0973743 -0.101159 1.95834e-19)
(-0.0942654 -0.112513 1.9881e-19)
(-0.12323 -0.0953017 1.9273e-19)
(-0.124184 -0.100979 0)
(-0.146027 -0.0921371 2.82372e-19)
(-0.149784 -0.0940636 1.95659e-19)
(-0.168676 -0.0897148 -8.41113e-20)
(-0.172692 -0.0904819 2.51452e-19)
(-0.200836 -0.0830729 -1.61649e-20)
(-0.202232 -0.0841042 -3.29925e-19)
(-0.246571 -0.069286 8.32572e-20)
(-0.246436 -0.0688615 3.40191e-20)
(-0.296672 -0.0531203 -4.24388e-19)
(-0.298058 -0.0491543 1.60429e-19)
(-0.341188 -0.0351717 -4.62342e-19)
(-0.337132 -0.0426098 -1.46656e-19)
(-0.0180284 -0.174517 1.92298e-19)
(-0.0239574 -0.195096 4.40407e-19)
(-0.0253325 -0.164117 -3.87542e-19)
(-0.020254 -0.183907 -1.3554e-19)
(-0.0525501 -0.148862 -2.42035e-19)
(-0.0460878 -0.169577 -2.60004e-19)
(-0.0870191 -0.131607 8.52881e-20)
(-0.0810524 -0.152047 7.90576e-21)
(-0.121899 -0.115373 0)
(-0.117628 -0.130983 1.53885e-19)
(-0.151624 -0.103339 0)
(-0.150339 -0.114436 -4.38141e-19)
(-0.176188 -0.095034 1.58762e-19)
(-0.176918 -0.103265 1.42303e-19)
(-0.204598 -0.0860387 1.05078e-20)
(-0.203366 -0.0934089 3.36847e-20)
(-0.246644 -0.0708624 -2.83807e-19)
(-0.241279 -0.0776663 -3.52902e-20)
(-0.298029 -0.0500502 1.12885e-19)
(-0.291515 -0.0538863 -2.44704e-19)
(-0.3429 -0.0324742 1.28822e-19)
(-0.33929 -0.0309065 3.51469e-19)
(-0.368047 -0.0205001 -1.17107e-19)
(-0.36807 -0.0272716 -1.15499e-19)
(-0.0196455 -0.194032 1.67652e-19)
(-0.0235969 -0.214743 3.13911e-19)
(-0.0371138 -0.186202 1.35306e-20)
(-0.0301233 -0.206027 -2.81859e-19)
(-0.0719042 -0.171182 -5.38621e-21)
(-0.0626243 -0.19417 7.68304e-20)
(-0.111115 -0.153164 7.48158e-20)
(-0.102108 -0.175353 -8.22858e-20)
(-0.147157 -0.133966 -2.96079e-19)
(-0.140215 -0.153109 1.58063e-19)
(-0.176695 -0.117297 -2.95361e-19)
(-0.173661 -0.133178 -3.2858e-19)
(-0.203698 -0.10279 1.52275e-20)
(-0.201926 -0.117036 2.63574e-19)
(-0.239017 -0.0854155 -1.04538e-20)
(-0.233819 -0.0995437 -1.75144e-20)
(-0.286258 -0.061389 7.87361e-21)
(-0.27704 -0.0743835 1.5201e-20)
(-0.333737 -0.0353947 -4.04622e-21)
(-0.324834 -0.0436735 -1.97844e-19)
(-0.364825 -0.0189798 1.04404e-19)
(-0.360261 -0.0193745 1.92548e-19)
(-0.370657 -0.0134072 -8.73069e-20)
(-0.371153 -0.0205938 -4.92001e-20)
(-0.0292043 -0.213822 -7.92235e-20)
(-0.0301228 -0.230529 3.47241e-20)
(-0.0545254 -0.209137 -2.21579e-19)
(-0.046939 -0.227007 -2.13932e-19)
(-0.0926018 -0.195634 0)
(-0.0820407 -0.217656 9.66841e-20)
(-0.133082 -0.176176 0)
(-0.122075 -0.1989 1.99456e-19)
(-0.169477 -0.154955 1.22773e-19)
(-0.160673 -0.175733 -1.00726e-19)
(-0.200119 -0.134593 2.44209e-19)
(-0.194583 -0.15357 1.03505e-19)
(-0.231558 -0.113967 2.35352e-19)
(-0.225737 -0.132931 1.20354e-19)
(-0.271548 -0.0885756 9.31889e-21)
(-0.261928 -0.108483 1.25348e-19)
(-0.316693 -0.0573391 -1.93876e-19)
(-0.304576 -0.0759323 -1.82967e-19)
(-0.352562 -0.0281484 1.15402e-21)
(-0.342802 -0.0406535 -7.9985e-20)
(-0.365905 -0.013568 6.30642e-22)
(-0.36174 -0.0161012 1.63765e-19)
(-0.354426 -0.0134148 -1.66536e-19)
(-0.354497 -0.0204771 -3.98133e-20)
(-0.0449735 -0.231841 -7.48911e-20)
(-0.0422892 -0.241626 4.08629e-20)
(-0.0742753 -0.230261 9.24918e-20)
(-0.0667633 -0.24451 8.8333e-21)
(-0.11251 -0.218555 2.99714e-19)
(-0.101234 -0.237801 2.53942e-20)
(-0.152438 -0.198636 9.72974e-20)
(-0.139558 -0.220284 1.1054e-19)
(-0.188972 -0.175549 -1.19637e-19)
(-0.177575 -0.196312 -1.78043e-19)
(-0.221964 -0.151958 -1.7695e-20)
(-0.212205 -0.171867 -3.22077e-20)
(-0.256839 -0.126324 7.63434e-21)
(-0.245632 -0.147253 -6.80564e-20)
(-0.296283 -0.0949654 -6.88685e-20)
(-0.282179 -0.117698 1.52258e-19)
(-0.332877 -0.059076 -7.38755e-20)
(-0.318622 -0.0808209 5.91949e-20)
(-0.353421 -0.0282809 8.05945e-20)
(-0.343656 -0.0436462 -1.08685e-19)
(-0.349663 -0.0149106 3.74077e-22)
(-0.346469 -0.0196675 7.65284e-20)
(-0.325653 -0.0186772 -1.37837e-20)
(-0.324899 -0.0240269 -7.37179e-20)
(-0.063364 -0.246471 1.33276e-19)
(-0.0568695 -0.249026 1.29181e-19)
(-0.0938015 -0.247472 -6.26246e-20)
(-0.0865188 -0.2569 -4.1983e-20)
(-0.129763 -0.237582 -1.6268e-19)
(-0.117812 -0.252747 2.20252e-20)
(-0.16787 -0.217514 -1.64117e-19)
(-0.152649 -0.236807 -8.92276e-20)
(-0.204148 -0.19254 -8.19255e-20)
(-0.188956 -0.212008 -2.53624e-20)
(-0.238323 -0.165971 -7.77198e-20)
(-0.223411 -0.184769 -5.86355e-20)
(-0.272959 -0.13671 7.14083e-20)
(-0.25666 -0.156465 -6.95401e-20)
(-0.306887 -0.102079 2.71601e-19)
(-0.289553 -0.123827 1.4155e-19)
(-0.331879 -0.0645537 1.40031e-20)
(-0.316945 -0.0858584 1.32885e-19)
(-0.337893 -0.0339627 -1.14927e-19)
(-0.329368 -0.0496455 -1.14461e-20)
(-0.321584 -0.0214688 6.5784e-20)
(-0.320413 -0.027363 -5.03954e-20)
(-0.293185 -0.0269888 -8.7543e-22)
(-0.290326 -0.0305069 7.01061e-20)
(-0.0808602 -0.25738 -3.6794e-20)
(-0.0704966 -0.255262 6.4756e-21)
(-0.110692 -0.259226 4.82758e-20)
(-0.103524 -0.264022 -3.64919e-21)
(-0.142234 -0.250377 9.81984e-20)
(-0.129134 -0.260767 5.42378e-20)
(-0.176964 -0.230436 5.17792e-20)
(-0.159411 -0.246007 0)
(-0.211436 -0.203393 -2.96866e-22)
(-0.192382 -0.220659 5.22874e-20)
(-0.244286 -0.173759 -5.01684e-20)
(-0.225008 -0.190472 -2.11977e-20)
(-0.275313 -0.141928 0)
(-0.255739 -0.158804 -2.86612e-20)
(-0.301503 -0.106538 0)
(-0.283087 -0.124741 4.67485e-20)
(-0.315846 -0.0704096 1.0353e-19)
(-0.30202 -0.0883141 0)
(-0.312007 -0.0422274 5.37333e-20)
(-0.305859 -0.0554904 1.04546e-19)
(-0.290672 -0.0311671 -1.16425e-19)
(-0.292103 -0.0360368 -4.91626e-21)
(-0.26703 -0.0355492 -1.62303e-19)
(-0.261836 -0.0391455 -6.54982e-20)
(-0.0945951 -0.266156 4.29178e-20)
(-0.0818869 -0.264964 6.99003e-21)
(-0.122332 -0.264471 -2.04991e-22)
(-0.113273 -0.265486 5.8802e-20)
(-0.148073 -0.255566 -4.31228e-20)
(-0.133508 -0.261274 -2.53371e-20)
(-0.177616 -0.235435 0)
(-0.157645 -0.24596 1.55903e-20)
(-0.208529 -0.206682 2.97552e-20)
(-0.186301 -0.220676 -1.27527e-20)
(-0.238291 -0.174308 4.57122e-22)
(-0.216221 -0.188715 5.52715e-20)
(-0.264604 -0.140739 1.82666e-20)
(-0.243706 -0.154699 -4.17164e-20)
(-0.284079 -0.106258 4.72119e-20)
(-0.266044 -0.120359 3.18719e-21)
(-0.291833 -0.0735078 0)
(-0.279409 -0.0868447 -3.44114e-20)
(-0.284945 -0.0492106 4.69712e-20)
(-0.28003 -0.0585373 8.09094e-20)
(-0.266863 -0.039856 -4.76126e-20)
(-0.268139 -0.0421682 1.59588e-20)
(-0.250413 -0.0410838 -5.36714e-20)
(-0.247286 -0.0454387 -4.06037e-20)
(-0.105901 -0.270333 3.88272e-20)
(-0.0852676 -0.272873 2.96811e-21)
(-0.127467 -0.263209 4.31409e-20)
(-0.117386 -0.270303 1.17229e-20)
(-0.145562 -0.251545 3.40917e-20)
(-0.130394 -0.258313 1.3094e-20)
(-0.168736 -0.230759 2.86415e-21)
(-0.147626 -0.238201 8.77796e-21)
(-0.195669 -0.201503 1.22135e-20)
(-0.170935 -0.210792 -1.29851e-20)
(-0.222518 -0.168067 1.36128e-20)
(-0.197882 -0.178083 1.62575e-20)
(-0.245257 -0.133777 -5.70585e-20)
(-0.22275 -0.144032 -2.02098e-20)
(-0.260846 -0.100822 -7.9172e-20)
(-0.242069 -0.110743 -2.47468e-20)
(-0.266576 -0.0719178 4.6933e-20)
(-0.253087 -0.0803086 -1.3488e-20)
(-0.261841 -0.051506 5.21812e-20)
(-0.254094 -0.056105 3.80872e-20)
(-0.250231 -0.0434557 1.4321e-20)
(-0.246184 -0.0422768 1.60209e-21)
(-0.23341 -0.0407907 1.22664e-20)
(-0.23731 -0.0473437 -6.59873e-21)
(-0.0972618 -0.287853 -2.5326e-20)
(-0.0570424 -0.199418 1.40386e-21)
(-0.118078 -0.269572 -1.63206e-20)
(-0.0806666 -0.203906 -1.99495e-20)
(-0.130587 -0.24757 -1.99456e-20)
(-0.0907133 -0.205172 -2.25241e-20)
(-0.150193 -0.219183 -1.44748e-20)
(-0.112755 -0.201739 -2.34787e-20)
(-0.174273 -0.185927 -9.52644e-21)
(-0.14128 -0.186505 8.98752e-21)
(-0.19874 -0.152775 -1.70719e-20)
(-0.171558 -0.158414 -1.82656e-20)
(-0.219403 -0.12015 1.14774e-20)
(-0.195527 -0.126093 2.03253e-21)
(-0.233481 -0.0896933 4.49345e-20)
(-0.212557 -0.0944401 1.81165e-20)
(-0.239315 -0.0641263 -2.37491e-20)
(-0.22199 -0.0666327 7.43665e-21)
(-0.236829 -0.0467091 -1.25931e-20)
(-0.22306 -0.0454978 -1.75641e-20)
(-0.227662 -0.0399073 2.05753e-21)
(-0.215997 -0.0337757 1.12019e-19)
(-0.213446 -0.043772 -1.25594e-19)
(-0.201857 -0.0330249 -1.68462e-19)
(-0.196232 -0.0431594 4.37952e-20)
(-0.231206 -0.0592809 -4.19637e-19)
(-0.228561 -0.0307448 2.80992e-19)
(-0.264062 -0.0516064 3.82832e-19)
(-0.252819 -0.0227337 1.0129e-19)
(-0.286771 -0.0487358 0)
(-0.264516 -0.0195859 4.93914e-20)
(-0.297136 -0.0501214 2.08372e-19)
(-0.263901 -0.0186717 -5.66639e-21)
(-0.2965 -0.0511545 -2.01252e-19)
(-0.251141 -0.0165381 3.24441e-21)
(-0.286517 -0.0528312 4.88892e-20)
(-0.227903 -0.0117088 -4.86978e-20)
(-0.269228 -0.052507 -4.75575e-21)
(-0.197527 -0.00361875 -6.07067e-21)
(-0.245547 -0.0477755 -1.05028e-20)