/*--------------------------------*- C++ -*----------------------------------*\
| =========                 |                                                 |
| \\      /  F ield         | OpenFOAM: The Open Source CFD Toolbox           |
|  \\    /   O peration     | Version:  v1606+                                |
|   \\  /    A nd           | Web:      www.OpenFOAM.com                      |
|    \\/     M anipulation  |                                                 |
\*---------------------------------------------------------------------------*/
FoamFile
{
    version     2.0;
    format      ascii;
    class       volVectorField;
    location    "2.1";
    object      ddt0(U);
}
// * * * * * * * * * * * * * * * * * * * * * * * * * * * * * * * * * * * * * //

dimensions      [0 1 -2 0 0 0 0];

internalField   nonuniform List<vector> 
11640
(
(-0.000431083541454 0.00123980935113 -0.00162397932188)
(-0.000101150879194 9.25537218457e-06 -0.00128081937325)
(0.00109478921806 -0.00117496912777 -0.00075797261877)
(0.00279391456773 -0.00213294860897 -0.000243417648945)
(0.00511417618949 -0.0030101634989 0.000268270797959)
(0.00803008982344 -0.00398566400698 0.000696848880382)
(0.0116738061163 -0.00501701540853 0.00127014778017)
(0.0158651674107 -0.00603838008887 0.0019573973943)
(0.0201354032103 -0.00699288475212 0.00269186875228)
(0.02406441922 -0.00779980632606 0.0036924890996)
(0.0269133791425 -0.0083249014395 0.00456480299797)
(0.0286783127824 -0.00875902028012 0.00549297510497)
(0.0289488889762 -0.0091111279093 0.00656594472895)
(0.0275975110844 -0.00959759571799 0.00689148051615)
(0.024626197266 -0.00966056968634 0.0074226611536)
(0.0207006797232 -0.00994580011993 0.00791337400096)
(0.0160303483416 -0.0103166428431 0.00835570300964)
(0.0109677735531 -0.0107232957868 0.00870188958019)
(0.005885887608 -0.0112050683162 0.00897591684456)
(0.00175894651929 -0.0116671660395 0.00902904799964)
(-0.00168094840539 0.00494624379406 -0.00136674306368)
(-0.00237173394489 0.00274651275482 -0.0038669263087)
(-0.000739173892545 0.000209646135396 -0.00418949263392)
(0.0013513951846 -0.00233577766346 -0.00391451744032)
(0.00370981304457 -0.00501978679425 -0.00349736794545)
(0.00656062756515 -0.00814255656911 -0.00294078425477)
(0.0102546802481 -0.011585546174 -0.00213869834819)
(0.0147028928835 -0.0151168503557 -0.00113003675462)
(0.0194034041156 -0.0181876100918 2.29688836437e-05)
(0.023671330234 -0.0207853052945 0.00136475382813)
(0.0268384917082 -0.0227592309046 0.00274701543691)
(0.0286547693041 -0.0242792085359 0.00422562634971)
(0.0288152616454 -0.0255488488941 0.00570660813718)
(0.0276624743411 -0.0270999818112 0.00692593622031)
(0.024841084685 -0.0275951255274 0.00730487964507)
(0.0205541545517 -0.0285894721334 0.00806693942174)
(0.0157042714279 -0.0296878998819 0.0088215426781)
(0.0103931909814 -0.0307804100007 0.009334551514)
(0.00521323159608 -0.0319812409552 0.0092227712899)
(0.0014379705953 -0.0330038147854 0.00789723422919)
(-0.00282612635202 0.00979840474436 -0.000947776616216)
(-0.00486579506682 0.0081750130111 -0.00428721453116)
(-0.0036169860451 0.00548217653005 -0.00513726250734)
(-0.00199520884548 0.00205763584498 -0.00516532395535)
(-0.00012617995978 -0.0023706049937 -0.00500674624341)
(0.00225481843801 -0.00772390546718 -0.00455819040709)
(0.00567624123881 -0.0137081875956 -0.00382871800749)
(0.0103876579446 -0.0196737112594 -0.00282159004541)
(0.0156404702873 -0.0250828818512 -0.00161065077975)
(0.0205494396721 -0.0296278654721 -0.000232368962515)
(0.0244479105173 -0.0332546968384 0.00132781205811)
(0.0267073429697 -0.0361545677265 0.00301185513563)
(0.0268798539734 -0.0385445589675 0.00469499117888)
(0.0262073328035 -0.0408364603296 0.00680310986694)
(0.0237453526671 -0.0425451095667 0.00636823755339)
(0.0192066319786 -0.0446370587865 0.00698285978667)
(0.0144078058922 -0.046651113506 0.00782113912185)
(0.00913680883438 -0.0484944291053 0.008542952593)
(0.00402480747223 -0.0500709475239 0.00852858715914)
(0.000891840700669 -0.051140193331 0.00693913456899)
(-0.00364151472826 0.0154709813759 -0.000534345157428)
(-0.00716239592636 0.0144712509893 -0.00408361663366)
(-0.00691840681046 0.0117025353218 -0.00523309470909)
(-0.00639106682484 0.00729584801001 -0.0056129116621)
(-0.00562663353436 0.00103644663002 -0.00561214602771)
(-0.00418046584327 -0.00655869996576 -0.00523632083582)
(-0.00127297896779 -0.0148539803812 -0.00467828768028)
(0.00379050464973 -0.0228767745435 -0.00386133985909)
(0.00969721698748 -0.0297470200386 -0.00289770079307)
(0.0156366466712 -0.0354370507176 -0.00158948041347)
(0.0204540504572 -0.0404176295163 2.65090499653e-05)
(0.0233002371584 -0.0446794815866 0.00197489981105)
(0.0239418877162 -0.0485787378901 0.00386663660218)
(0.0234208760661 -0.052026908247 0.00599528810538)
(0.0209347072741 -0.0553537934979 0.00513689846341)
(0.0165387895466 -0.0587707489248 0.00553869223704)
(0.0120679514527 -0.0619022514517 0.0062855480984)
(0.00719773348972 -0.0646360976137 0.00707369967426)
(0.00270881043461 -0.0666631085871 0.00716330533095)
(0.000388403606828 -0.0676894806511 0.00564079750659)
(-0.00422800013108 0.0218275692848 -0.000217735765487)
(-0.0092267912692 0.0211669791395 -0.0037138024601)
(-0.0105265754233 0.0181718511215 -0.00512336683014)
(-0.0114841565443 0.0125719997754 -0.00570847843992)
(-0.011980403055 0.00432011968314 -0.00576371177685)
(-0.0117659568627 -0.00551160306998 -0.00575238804701)
(-0.00988398174271 -0.0158891476874 -0.00580706767254)
(-0.00437467861174 -0.0259683042593 -0.00533391472066)
(0.00251142676487 -0.0337963799607 -0.00487327170037)
(0.00943783010555 -0.0410033907392 -0.00378205349302)
(0.0149186662219 -0.0475762878635 -0.0021092125715)
(0.0183578543276 -0.0532513849277 -0.000186408954788)
(0.0193578126937 -0.0582975503864 0.00217164813863)
(0.019103563758 -0.0610922950621 0.00463427288549)
(0.0167065612656 -0.0646732321875 0.00373665664707)
(0.0126258381213 -0.0694131463391 0.00397532076015)
(0.00873466662021 -0.0737965503055 0.00456949179959)
(0.00458229365432 -0.0774211883058 0.00530480121792)
(0.00106821104702 -0.0799892603778 0.00541913065705)
(-0.000116055278101 -0.0812678892086 0.00410103989876)
(-0.00473208372789 0.0285939857976 9.6761608749e-05)
(-0.0112700148524 0.0281557825645 -0.00320938233794)
(-0.014142798507 0.0248837255904 -0.00465542583329)
(-0.0166879828623 0.0184344964246 -0.00539939672563)
(-0.0189678575346 0.00905111557884 -0.00590555162917)
(-0.0208646120828 -0.00121276975751 -0.00668808227661)
(-0.020815333918 -0.0120683360141 -0.00809615876221)
(-0.0158093996431 -0.0218818026194 -0.00929822142847)
(-0.00732524722675 -0.0275873800807 -0.0094836448001)
(0.000572173968138 -0.0332252453337 -0.00830963203872)
(0.00721156817855 -0.0391441472668 -0.00620561443511)
(0.0121161749037 -0.045625283759 -0.00393461680185)
(0.0154564015626 -0.0524398507379 -0.000739126403737)
(0.0155077118047 -0.0591396721938 0.00165532075563)
(0.0114861956237 -0.0677254669438 0.00178473599509)
(0.00727177434508 -0.0757206239158 0.00236096657964)
(0.00424027458387 -0.0820419230137 0.00340588736513)
(0.00115327300106 -0.0865445991585 0.00373603099251)
(-0.00107170957243 -0.0896342908363 0.00357718277547)
(-0.000826578705306 -0.0912846027977 0.00245618547166)
(-0.00517234937637 0.0354546464953 0.000613902767251)
(-0.0130078444142 0.0351439443452 -0.00237071217351)
(-0.0173552475354 0.0317940196456 -0.00380062745087)
(-0.0212353856457 0.0249684225849 -0.00468858678968)
(-0.0245541616969 0.0155441440887 -0.00561432292305)
(-0.0285893688762 0.0072462607735 -0.00718560017126)
(-0.0301032381023 4.85751923187e-05 -0.00958743426778)
(-0.0240349856577 0.000797575489274 -0.0146284970312)
(-0.0133917205152 -0.00416131283324 -0.0124271100126)
(-0.0053383925907 -0.00828954008157 -0.0106281754226)
(0.00122635011436 -0.0164967374416 -0.00825471661024)
(0.00437284222274 -0.0266473936998 -0.00564565355253)
(0.00506252320618 -0.0438434332409 -0.00290005762939)
(0.00308235912401 -0.0564712535306 -0.000398220700503)
(0.000365900019042 -0.0695026217257 0.00120493685552)
(-0.00152243266443 -0.0796353912605 0.001372203717)
(-0.00229912348878 -0.0868481202468 0.00183119656749)
(-0.00336695036079 -0.0922268384272 0.00198439581065)
(-0.00368049964807 -0.0958014974801 0.00183768190593)
(-0.00165647889363 -0.0977373553268 0.000698391810606)
(-0.00562667114779 0.0419203202228 0.00124063898373)
(-0.0145921981867 0.0416844241182 -0.00127721198935)
(-0.0203656424315 0.0384401427011 -0.00263628678675)
(-0.0253009387753 0.0317695177944 -0.00363636591907)
(-0.0292502205324 0.0227070916484 -0.00466137239657)
(-0.0349645965248 0.0156420693745 -0.00623557641372)
(-0.0326288185733 0.0122478603983 -0.00786921328238)
(-0.0293786363468 0.015799886436 -0.0035880980468)
(-0.0241847273782 0.010304000754 -0.00306751208972)
(-0.0163661710252 0.00477845535505 -0.00149203979986)
(-0.0116961820197 -0.00449604904238 -0.000315561817895)
(-0.0128990097694 -0.0171581904125 0.00125677927413)
(-0.0100842711846 -0.0371005046022 0.000244420255593)
(-0.0100314479197 -0.0514790882882 0.00240183203079)
(-0.0118008976203 -0.0691829658568 0.000869958182394)
(-0.011009452376 -0.0808977398304 -3.59493818586e-05)
(-0.00955851390811 -0.0889617183057 8.21190659509e-05)
(-0.00850407098488 -0.0948076459999 0.000131603140445)
(-0.00665595574893 -0.0987002171575 -0.000107262591559)
(-0.00262630341571 -0.100954048784 -0.0010747288677)
(-0.00599116481529 0.0474448015582 0.00202578611201)
(-0.0159432349634 0.047278151849 7.42759160005e-05)
(-0.0228246442956 0.0442277967602 -0.00109891691635)
(-0.0285200562746 0.0378629665273 -0.00209292172481)
(-0.0327572224704 0.029112617434 -0.00294661787984)
(-0.0388029137734 0.0225545580562 -0.00454782109144)
(-0.0365277937082 0.0206138885965 -0.00637857770239)
(-0.0334104555304 0.0212938729117 -0.00404387493258)
(-0.0293864608051 0.0165638931231 -0.00390300182346)
(-0.0223483256045 0.00818266608364 -0.00213959424854)
(-0.020847114921 -0.00232367355311 0.000327140830334)
(-0.026979314316 -0.0158864075246 0.00238038629325)
(-0.029869277132 -0.0335821353782 0.00135691166617)
(-0.0300283306465 -0.0505169143344 0.00288333443439)
(-0.0278817270027 -0.0681496984579 -7.48975954805e-05)
(-0.0224599962452 -0.0801494522775 -0.00137493719845)
(-0.0178144618361 -0.0886908186571 -0.00151287207169)
(-0.0140895260684 -0.0946965812395 -0.00163665306593)
(-0.00991616725032 -0.0987339106063 -0.00198715714497)
(-0.00372034410724 -0.101181853262 -0.00278282876251)
(-0.00642463591842 0.0513006287317 0.00313730897992)
(-0.0172943908926 0.0511599454267 0.00160619381833)
(-0.0252218935039 0.0481734917968 0.000584221869211)
(-0.0316781741299 0.0417377126009 -0.000391669214371)
(-0.0365960800593 0.0332587064195 -0.0010803088813)
(-0.0431892734221 0.0272416321209 -0.00257116601304)
(-0.04182044265 0.0275366638646 -0.00428927376714)
(-0.0413374559271 0.0282292895658 -0.00201671398134)
(-0.0398129394043 0.0219634077455 -0.00190861531773)
(-0.0346783638878 0.00981758777168 -0.000226649072839)
(-0.0350422964348 -0.00462513835141 0.00192216041511)
(-0.0426200184552 -0.022234113599 0.00341240045429)
(-0.0460527289477 -0.0396314783712 0.00119147123411)
(-0.0426951312725 -0.0550325495341 0.00125431847798)
(-0.0407494937364 -0.0686846766511 -0.00119542159801)
(-0.0327918984021 -0.0788665634717 -0.0029009165032)
(-0.025883154198 -0.0867572325887 -0.00315908992087)
(-0.0197041612222 -0.0923759957583 -0.00331247929078)
(-0.0132413117082 -0.0963129677431 -0.00368218057912)
(-0.00485975905257 -0.0988311242443 -0.00440988982695)
(-0.00671845561524 0.0535087519362 0.00407472584994)
(-0.0185430300584 0.0531548871635 0.00308903576001)
(-0.0275446921386 0.0499858682227 0.00226016902122)
(-0.0345942097469 0.043087192095 0.00140655235355)
(-0.0396514460655 0.0341973922225 0.000887835787147)
(-0.0447898798271 0.0278551439081 -0.000100869176893)
(-0.0434438200547 0.0304382568894 -0.00137428615955)
(-0.0458244117493 0.0336540242081 0.00211223606865)
(-0.0494376515158 0.0272010998542 0.00123297119271)
(-0.0487447924564 0.0113895905159 0.00190205839317)
(-0.0527637829184 -0.00708935493024 0.00293891970922)
(-0.061529475508 -0.0269391164699 0.00422726149765)
(-0.0627526010408 -0.0417623557286 0.00130356919731)
(-0.0576333869612 -0.0556751857758 0.000884551173467)
(-0.0526423082023 -0.0674190389004 -0.00123576747042)
(-0.0420863662797 -0.0764535518414 -0.00401260340151)
(-0.0333002335609 -0.08331682602 -0.00456049475622)
(-0.0249769267381 -0.0882579396085 -0.00476559243109)
(-0.0164890564629 -0.0918211513381 -0.00515078021913)
(-0.00602729077738 -0.0942716393091 -0.00584304379047)
(-0.00725127334286 0.0540793783525 0.0053047088633)
(-0.0202127740647 0.0534664180398 0.00468661597056)
(-0.0304936684783 0.0499765072297 0.00388346256857)
(-0.0390287211555 0.0429720872994 0.00320748008705)
(-0.0452351811158 0.0330752415705 0.00264973226744)
(-0.0482374725028 0.0237612764864 0.00256087860562)
(-0.0471893341632 0.0194003858527 0.00419052822633)
(-0.0516869924563 0.00996467745745 0.00936651417192)
(-0.0606606333644 0.00240384011547 0.0099181673313)
(-0.0661583565678 -0.0119375096661 0.0101426857301)
(-0.0702929223364 -0.0264520606628 0.00926256310341)
(-0.0750145483188 -0.0405473100232 0.00769624189951)
(-0.0754808016539 -0.047902719402 0.00345789041322)
(-0.0698964228797 -0.058390026673 -0.000842993072851)
(-0.0619291724165 -0.0657084059324 -0.00359288282252)
(-0.0504989170936 -0.0729191305573 -0.00534146023768)
(-0.0398447104541 -0.078419659174 -0.00586537655956)
(-0.0296632141881 -0.0825146387681 -0.00599314734216)
(-0.0193671806982 -0.0855798005849 -0.00641367018865)
(-0.00707956686859 -0.0878386681985 -0.00712214163351)
(-0.00795008450859 0.0525377689826 0.00597010194483)
(-0.0223705788219 0.0517673897769 0.00582835013803)
(-0.0342210712279 0.0482940198144 0.00526022690287)
(-0.0441249627586 0.0415719037419 0.0045157799975)
(-0.0515854447696 0.0317773569205 0.00364396494484)
(-0.0556529417235 0.0210273834843 0.00291102424299)
(-0.0575728844124 0.00998542080312 0.00406494321242)
(-0.0629297002082 -0.00491647606377 0.00523270044154)
(-0.0714611190979 -0.0161869544017 0.00557999342929)
(-0.0779872583263 -0.0269443007133 0.00435671091222)
(-0.0826526580288 -0.0373937228092 0.00313405381193)
(-0.0857580613723 -0.046606421372 0.00161739160126)
(-0.0840417618264 -0.0525865594779 -0.000757407086299)
(-0.0779244398369 -0.059312274972 -0.00325900486231)
(-0.0688390424961 -0.0638465441575 -0.00520571672484)
(-0.0570655416748 -0.0684654590081 -0.00645379562366)
(-0.0452530755567 -0.0724173701218 -0.00688005223662)
(-0.0335811898881 -0.0755508670532 -0.00713773543446)
(-0.0218608658761 -0.0780202378438 -0.00733168192821)
(-0.00802004092849 -0.0799649367785 -0.00808846179554)
(-0.00866165195887 0.0490605384381 0.00700693153789)
(-0.0247494823405 0.0481764726549 0.00716201865623)
(-0.038592064402 0.0448318770422 0.00662917010746)
(-0.0507929730935 0.0387589167423 0.00587270202837)
(-0.0604939160368 0.0296164142588 0.00484292585738)
(-0.0673913446459 0.0186648164396 0.00363637510026)
(-0.0728042299843 0.00612585076696 0.00324016465913)
(-0.0788859388844 -0.00793353806727 0.0035161350429)
(-0.0851705333612 -0.0204959539182 0.00300262549228)
(-0.0897619272534 -0.0313552463632 0.00167551236763)
(-0.0920824733059 -0.0408353815651 3.72468702103e-06)
(-0.0922962630272 -0.0483226554522 -0.00192503189479)
(-0.0889776766597 -0.0528270520534 -0.00388989631472)
(-0.0821880561452 -0.0566519728277 -0.00561871472639)
(-0.0727742118281 -0.0594267339947 -0.00682656258376)
(-0.0612095253267 -0.062315600719 -0.00745026948117)
(-0.0488923673868 -0.0649875130644 -0.00757840059366)
(-0.036354986723 -0.0673480195667 -0.00782352027979)
(-0.0237247994716 -0.0692381496561 -0.00790075687077)
(-0.00872095434422 -0.0710016163678 -0.00889164930349)
(-0.00936359212325 0.0441997801027 0.00798121663262)
(-0.0271600570136 0.0432574592581 0.00841826089861)
(-0.0429579597579 0.0401307300594 0.00789740389506)
(-0.0572508794965 0.0348764266374 0.00711089964923)
(-0.0690367419077 0.0273190743095 0.00590506853843)
(-0.0781154830431 0.0178622276393 0.00453066321751)
(-0.0852053534522 0.00678078317259 0.00338107185298)
(-0.0914605539099 -0.0048025013591 0.00216304010181)
(-0.0966661706175 -0.015767097544 0.00097777386583)
(-0.0999701796009 -0.0253797945576 -0.000575502117678)
(-0.100777720836 -0.0338501265399 -0.00215296628791)
(-0.0988643443182 -0.0406364214744 -0.00384895870476)
(-0.0938975523259 -0.0453724897362 -0.00538671936068)
(-0.0861330320683 -0.0491994344338 -0.00662360450367)
(-0.0761017673423 -0.05198123561 -0.00741539198238)
(-0.0644334689875 -0.0542695652488 -0.00820297713464)
(-0.051625541874 -0.056422486 -0.00819125374763)
(-0.0384671290668 -0.058191283238 -0.00793237931644)
(-0.025147740042 -0.0596165687312 -0.00814936185257)
(-0.00937182155918 -0.060972460926 -0.00937573537288)
(-0.0100284478107 0.0378933676774 0.00895087490021)
(-0.0293546007767 0.0369535087964 0.00951577868353)
(-0.0469624725028 0.0341244924178 0.00899819041313)
(-0.0631742999573 0.0295966065223 0.00814138298988)
(-0.0767936244919 0.0233035025961 0.006874069631)
(-0.0876079357452 0.0154157316307 0.00531496400493)
(-0.0960123214213 0.00620210605591 0.0037517268999)
(-0.102355324815 -0.00355473691984 0.00212866744189)
(-0.106586787066 -0.0128111967506 0.000480520928606)
(-0.108486026761 -0.0211085731285 -0.00121212703455)
(-0.107770312001 -0.0280755178755 -0.00288992735356)
(-0.104365665238 -0.0336155350442 -0.00443215391683)
(-0.0981751166385 -0.0378086939099 -0.00579533409754)
(-0.0895174335281 -0.0411025836994 -0.00689136004078)
(-0.0788507188351 -0.0435428440474 -0.00761701947979)
(-0.066620724564 -0.0455527210672 -0.00793106493706)
(-0.0534767445965 -0.0472113257096 -0.00787395905897)
(-0.0399473825628 -0.0485460534038 -0.00775253773457)
(-0.0261547392667 -0.0496341249356 -0.00816727768487)
(-0.00976552220927 -0.0505898898133 -0.00978052992928)
(-0.0106539671998 0.0302778657638 0.00982043422806)
(-0.0313376057249 0.0294121774099 0.0104635866811)
(-0.050401306486 0.0268909063368 0.00988232272207)
(-0.0681505020665 0.0231267636734 0.00894398573171)
(-0.0831875336169 0.0181086174066 0.00760872675787)
(-0.0952233058265 0.0119473230105 0.00598094507157)
(-0.104377543823 0.00487217127339 0.00420971571533)
(-0.110795772533 -0.00253687596754 0.00234490667308)
(-0.114543760288 -0.00973525781429 0.000498738517834)
(-0.115467727149 -0.0162446257161 -0.0012776392471)
(-0.113523913183 -0.0218423929542 -0.00295146037775)
(-0.108868340692 -0.0263559951772 -0.00437232081998)
(-0.10160780977 -0.0298976820014 -0.005581112006)
(-0.0921093412593 -0.0327117235964 -0.00648355781458)
(-0.0808460710056 -0.0348850465199 -0.00710033239718)
(-0.0682676638581 -0.0365593263351 -0.00738786119187)
(-0.0548439666329 -0.037842775378 -0.00745021683292)
(-0.040967885301 -0.0388220465822 -0.00753627941904)
(-0.026770042077 -0.0394429376316 -0.00812952356029)
(-0.00995875350779 -0.039920148628 -0.00989971147311)
(-0.0112137044322 0.0216203589509 0.010545853915)
(-0.0330877462984 0.0207545054305 0.0112083141472)
(-0.053283807241 0.0186066199167 0.0105727707043)
(-0.0720486037157 0.0156521791578 0.00950856858243)
(-0.0881012633412 0.0118740074572 0.00808963111028)
(-0.100973195865 0.0073922843389 0.00640929143826)
(-0.110621288328 0.002397231187 0.0045580238771)
(-0.117093488068 -0.00281691831507 0.00263693500117)
(-0.120415416827 -0.00789202630379 0.000723983165931)
(-0.120706340783 -0.0124838691578 -0.00110345310098)
(-0.11798323266 -0.0164936953341 -0.00271527404879)
(-0.112465541802 -0.0198664448865 -0.00410692369541)
(-0.104463556146 -0.0225593478203 -0.00523000007818)
(-0.0943526177737 -0.024730214258 -0.00608120666382)
(-0.0825933147031 -0.0264674055653 -0.00667868213586)
(-0.0695912542353 -0.0277717516985 -0.00704738182847)
(-0.0557873425582 -0.0286807359736 -0.00729609840814)
(-0.0415137433933 -0.029189545922 -0.00750455162444)
(-0.0268931776775 -0.029248409187 -0.00809261706172)
(-0.00990641814754 -0.0290148461003 -0.00986072454617)
(-0.011789490733 0.0124965520819 0.0110327465003)
(-0.0346961226035 0.0116897871071 0.011386092528)
(-0.0556033431035 0.0100097285703 0.010621335123)
(-0.0749376972662 0.00795485659116 0.0094211544324)
(-0.091519199833 0.00558012152473 0.00788701409299)
(-0.104818769726 0.00286557599809 0.00615478411898)
(-0.114727737491 -0.000112698469274 0.00424894124876)
(-0.121243990493 -0.0032299691441 0.0022851210065)
(-0.124399969598 -0.00625805518723 0.000352009669691)
(-0.124285851891 -0.00907166392396 -0.00143296298597)
(-0.121114425878 -0.0115348952859 -0.0030605274468)
(-0.115133341818 -0.0136816474489 -0.00444064673009)
(-0.106652363944 -0.0154438925286 -0.00558260518272)
(-0.0961320287899 -0.0168687593078 -0.00647618174895)
(-0.0839984397097 -0.0180381809603 -0.00711320902177)
(-0.070594789036 -0.0188796928207 -0.00757289322024)
(-0.0563558703522 -0.0193617137769 -0.00783449866837)
(-0.0415800970488 -0.0193968849506 -0.0079840151996)
(-0.0263824713413 -0.0188969291037 -0.00834872140865)
(-0.00945708541831 -0.0179450534181 -0.00970157413195)
(-0.012316369022 0.0040251602355 0.0111426422795)
(-0.0359885952255 0.00365860177627 0.0102975591737)
(-0.0571908215008 0.00294424796843 0.00917889296568)
(-0.0766100113972 0.00216147178073 0.00782905244929)
(-0.0933199181994 0.00133561189078 0.00624108713624)
(-0.106843514429 0.000425098965437 0.00449665158053)
(-0.116963772852 -0.000578830351492 0.00262743186391)
(-0.123566788916 -0.00164282225174 0.000743148656975)
(-0.12669358154 -0.0026846998215 -0.00114369394129)
(-0.126496494273 -0.00365760972112 -0.00290282288668)
(-0.123179788137 -0.00456299596447 -0.00449609309524)
(-0.117014219157 -0.00534333057743 -0.00592961438481)
(-0.108330140138 -0.00600901372692 -0.00707917289634)
(-0.0975619906125 -0.00655210623391 -0.00811691611174)
(-0.085171079968 -0.00701801587141 -0.00883717635299)
(-0.071396500391 -0.00732426369445 -0.0093615521106)
(-0.0566978247848 -0.0074473404011 -0.00968331079235)
(-0.041316710844 -0.00733789457079 -0.00979507645297)
(-0.0254301036324 -0.00691194755799 -0.00971423442202)
(-0.00873612914127 -0.006195752533 -0.00964646209016)
(0.000439625321954 0.00208689133231 -0.00255647557893)
(0.000776325414356 0.00225567851588 -0.0020413399452)
(0.00204755003134 0.00152747535558 -0.000861742557554)
(0.00379173609044 0.000669935880911 0.000411638876298)
(0.00610671468685 -0.000314642303965 0.00170740125331)
(0.00909821608901 -0.00147253498418 0.00304349603091)
(0.0128911298026 -0.0027548359595 0.00464069897793)
(0.0171469363815 -0.00405729704163 0.00644943608634)
(0.0214943943137 -0.00525685315549 0.00853021302121)
(0.0254666820512 -0.00634245729723 0.0109601605207)
(0.0284426498703 -0.0072365032373 0.013454634908)
(0.0300920570737 -0.00798178181411 0.0159015588003)
(0.0299248331749 -0.00862675475965 0.0183278742181)
(0.0282826813824 -0.00899165217375 0.0199290136817)
(0.0254585487423 -0.00961495190369 0.0215725205972)
(0.0214457658399 -0.0101903304011 0.0229607234088)
(0.0167080582698 -0.0107866112287 0.0240879981847)
(0.0115649524669 -0.011329742842 0.0250237869445)
(0.00635680990858 -0.0119631754121 0.0257615753335)
(0.0022168181854 -0.0124891804105 0.0260032075162)
(0.000493381453882 0.00569774346372 -0.00229201074402)
(0.000445167126871 0.00550319390463 -0.00585945387942)
(0.00139673184422 0.00365612958254 -0.00606900942331)
(0.00322304160548 0.00133829284526 -0.00529023065434)
(0.00552325670196 -0.0014778793094 -0.00420727911712)
(0.00852191542928 -0.00482348492916 -0.00268860629401)
(0.0123621979076 -0.00862184931311 -0.00072316170828)
(0.0168855424996 -0.0125827867698 0.00158083081577)
(0.0216141275735 -0.0161097108036 0.00428575464226)
(0.0259103838794 -0.0190884791862 0.00729453945795)
(0.0291081293926 -0.0215215788991 0.0104262111737)
(0.0308533576458 -0.0235026278292 0.0135864277395)
(0.0308290088916 -0.0250451430364 0.0167101146477)
(0.0289813047424 -0.0259543133461 0.0192451695543)
(0.0258429673141 -0.0276514010071 0.0209630045555)
(0.0218098877683 -0.0291693365023 0.0226492584406)
(0.0170129082556 -0.0305816845151 0.0240816305223)
(0.0117835615779 -0.0319350667751 0.0250952139337)
(0.00702768715264 -0.0332355906055 0.0250614566846)
(0.00287269063574 -0.0342151361011 0.0229119623718)
(-0.000258553966666 0.0105944925299 -0.00140873934104)
(-0.00144405213191 0.0100519430622 -0.0063959087337)
(-0.00117926922952 0.00768079375152 -0.00780671334283)
(5.40055610565e-05 0.00434763845648 -0.0077821180653)
(0.00185771041277 7.76216495253e-06 -0.00722922407071)
(0.00442362400327 -0.00532601238984 -0.00595393562462)
(0.00796618419568 -0.0115573298266 -0.00417447103564)
(0.0127259039359 -0.0180507113761 -0.00205031823361)
(0.0181004267777 -0.0239036135416 0.000598704604114)
(0.0230373131573 -0.028720149111 0.00369269920307)
(0.0268682842284 -0.0326527303748 0.00703671569439)
(0.0291735697137 -0.0357848547812 0.0103917019452)
(0.0297605308289 -0.0381535104847 0.0138405526962)
(0.0277725297307 -0.0399463409234 0.0171620957943)
(0.0243185790542 -0.0425409908848 0.0185816242281)
(0.0205071473435 -0.0450613153904 0.0203040592544)
(0.0158453977069 -0.0474351375826 0.0219290827122)
(0.0108057427091 -0.0495803981347 0.0230695240809)
(0.00633993876788 -0.0513543842041 0.0229850474222)
(0.00264856840299 -0.0524166888263 0.0203882420308)
(-0.00105684060967 0.0162068423394 -0.00052686194547)
(-0.00372696117807 0.0159760350863 -0.00598409597813)
(-0.00469245560333 0.0134680882402 -0.00823312197843)
(-0.00458496898382 0.00947987422319 -0.00906619560277)
(-0.00386023877777 0.00403154677298 -0.00898813125177)
(-0.0022684908683 -0.00303472831517 -0.00813595046099)
(0.000584608511985 -0.011606392423 -0.00686270491927)
(0.00560733410055 -0.0207811100072 -0.00572736379416)
(0.0119268924501 -0.0286459362912 -0.00364240947527)
(0.0180267423793 -0.0350030342069 -0.000794025514401)
(0.0228728648837 -0.0403047002437 0.00253308466923)
(0.0260671928584 -0.0446656972498 0.00599292284613)
(0.0272152441762 -0.0482276464759 0.00972670484951)
(0.0250930439514 -0.0516111348825 0.0129566817558)
(0.0214341530147 -0.0553743468886 0.0147056388186)
(0.0178742971432 -0.0591926866546 0.0164633872756)
(0.0135120608013 -0.0627687576652 0.0180182447333)
(0.00886105383207 -0.0658953919598 0.0192821977096)
(0.0050408302628 -0.0682069528884 0.0192205186553)
(0.00217278148158 -0.0692471052685 0.0165975334743)
(-0.0018429572327 0.0224904807752 0.000244899698605)
(-0.00622338458016 0.0225793622984 -0.00541171634479)
(-0.00879610617759 0.0202650774381 -0.00832847633107)
(-0.0101720340261 0.0160249791164 -0.00974095578101)
(-0.0108713974764 0.00971831528998 -0.0101833803623)
(-0.0108277097548 0.00106835542698 -0.0101766234423)
(-0.00937957061113 -0.00963338801163 -0.0102799743219)
(-0.00398927128062 -0.0213893488363 -0.0115920736649)
(0.00384963251053 -0.0311741066976 -0.0107821411319)
(0.0113959858207 -0.0389521826057 -0.00844889324376)
(0.0172591110717 -0.0456660565048 -0.00487345077444)
(0.0210682236007 -0.0513635785762 -0.000788694332817)
(0.0224529184177 -0.0563992691593 0.00362959165871)
(0.0203832541959 -0.0606928757263 0.00733917997876)
(0.0171278660974 -0.0649621400859 0.0101293683465)
(0.0139189127522 -0.0697647834525 0.0119167224298)
(0.0100948780102 -0.074604112341 0.0133514065781)
(0.00615440922492 -0.0787570912878 0.0144057711107)
(0.00331496173171 -0.08168779492 0.0144446674375)
(0.00159265449356 -0.0829760190973 0.0121184581733)
(-0.00263556245161 0.0294581923124 0.00104489448123)
(-0.00879671719236 0.0299340202755 -0.00446702635301)
(-0.0129215076897 0.0279263897464 -0.00772744963716)
(-0.0161427106726 0.0239518971276 -0.00980527282896)
(-0.0189768060026 0.0175194118838 -0.011045430405)
(-0.0214652715004 0.00863883917195 -0.0123050021743)
(-0.0222444150336 -0.00318021475343 -0.014255530276)
(-0.0168474398302 -0.0186657535926 -0.0189654247025)
(-0.00705789838689 -0.0267255605602 -0.020479079832)
(0.0024393892232 -0.0346613793586 -0.01887501245)
(0.00994800275114 -0.0422591772715 -0.0142449634469)
(0.0148795285511 -0.0492739814243 -0.00864875690887)
(0.018269123867 -0.0569827724669 -0.00363706948638)
(0.0168130484739 -0.061166233902 0.000416809851055)
(0.0126730385819 -0.0677740747421 0.00468830882342)
(0.00883470281541 -0.0753755031148 0.00676484197191)
(0.00533641632618 -0.0819165863018 0.00771670677343)
(0.0026253763977 -0.0875698638581 0.00879148111112)
(0.00106120774009 -0.0913741278417 0.00906493447623)
(0.000759547281434 -0.0931024368335 0.00723556139074)
(-0.00345447617541 0.0365822861252 0.00233523931568)
(-0.0110905837608 0.0374752732395 -0.00277392793447)
(-0.0166343634958 0.0358169367719 -0.00628028835273)
(-0.021351863984 0.0323212417054 -0.00876626177487)
(-0.0260279774658 0.0271714175427 -0.010722639961)
(-0.0315641744882 0.0209569278163 -0.0142262267078)
(-0.0381285214358 0.0125261625657 -0.0181424737046)
(-0.0295761577708 0.00991892322856 -0.0365017648913)
(-0.0139824070973 0.00323567168894 -0.0377106468733)
(-0.00419199076694 -0.0019673786837 -0.0385692850547)
(0.00338950970568 -0.0102911318169 -0.033126806242)
(0.00712702998741 -0.0183468043664 -0.0277735136256)
(0.0107079098378 -0.0340183002158 -0.0207855080055)
(0.00891570570052 -0.0535829610191 -0.00576451643872)
(0.00262225837122 -0.0661497034441 -1.04327612701e-05)
(-0.000186005507776 -0.0772838949671 0.00201855637902)
(-0.00127981013946 -0.0862234586494 0.00301177147278)
(-0.00207901381027 -0.0930965252002 0.00368429716664)
(-0.00178484914691 -0.097564876649 0.00355997390929)
(-0.000230240131175 -0.0995960897274 0.00200549193588)
(-0.00420065221606 0.0432200080415 0.00399328226015)
(-0.0131210975227 0.0443712390831 -0.000431279277962)
(-0.0199262613841 0.043013165194 -0.00371444516471)
(-0.0256603737704 0.0400625437726 -0.00617010212405)
(-0.0305817533554 0.0361985974572 -0.00804885997903)
(-0.0380675803352 0.0321149894494 -0.0104699027544)
(-0.0419339449105 0.0264308207425 -0.0114739153251)
(-0.031358617114 0.0282676779936 -0.0181805346962)
(-0.0203518927267 0.0210070385795 -0.0160476573135)