/*--------------------------------*- C++ -*----------------------------------*\
| =========                 |                                                 |
| \\      /  F ield         | OpenFOAM: The Open Source CFD Toolbox           |
|  \\    /   O peration     | Version:  v1606+                                |
|   \\  /    A nd           | Web:      www.OpenFOAM.com                      |
|    \\/     M anipulation  |                                                 |
\*---------------------------------------------------------------------------*/
FoamFile
{
    version     2.0;
    format      ascii;
    class       volScalarField;
    location    "2.1";
    object      epsilon;
}
// * * * * * * * * * * * * * * * * * * * * * * * * * * * * * * * * * * * * * //

dimensions      [0 2 -3 0 0 0 0];

internalField   nonuniform List<scalar> 
11640
(
0.00147700790752
0.00174629033259
0.00192075121495
0.0020121718859
0.00205193108776
0.00206357907416
0.00205919024235
0.00204872274246
0.00203850743176
0.00202756455456
0.00201641524679
0.00200624419727
0.00200132971271
0.00200517203738
0.00201525014337
0.00201802638119
0.00198850819945
0.00190183606292
0.00172895107502
0.00146182825676
0.0017471376651
0.00335435033729
0.0043203888113
0.00484557788403
0.00511219869356
0.00522375953158
0.00523450890673
0.00518754935721
0.00513344098435
0.00508431433583
0.00503685305808
0.00501036056142
0.00505743839838
0.00511096119565
0.00511746168129
0.00502411316582
0.00478419444185
0.0042776997571
0.00330921617235
0.001717364393
0.00192291139762
0.00432594582601
0.0058422636546
0.00673998929221
0.00721169204288
0.00736953260891
0.00732225814707
0.00718394458753
0.00704875999552
0.00692969355837
0.0068175831231
0.00691560319498
0.00711609006607
0.00732141071704
0.00742054207324
0.00726367826564
0.00675212550055
0.00582103313021
0.00428633754293
0.00188335930476
0.00201511612644
0.00486703759221
0.0067681617985
0.00791676466418
0.00846459343958
0.00855354636946
0.00835860536595
0.00805090083177
0.00778696793001
0.00756648088932
0.00740515844687
0.00770012502664
0.00810797110097
0.0085574480985
0.00887529631769
0.00879663087895
0.00814553180838
0.00684679389274
0.00484123930059
0.00196884019766
0.00206208471371
0.00516420134822
0.00728886509357
0.00852805661526
0.00901167397092
0.00889596845601
0.00841744159396
0.00784074770119
0.00742119552128
0.0071032461889
0.00700871190392
0.00744077253881
0.00806765797111
0.00886126209239
0.00954426562601
0.00969463477503
0.00905950936795
0.00755333126851
0.00519209557129
0.00201216854236
0.00208958783488
0.00530631868694
0.00750922880845
0.00870083883098
0.00898261935407
0.00850939550561
0.00757041757596
0.00661653018964
0.00605484357117
0.00569190833619
0.00563184096739
0.00610383952955
0.00690712890561
0.00817276330961
0.00942598584585
0.00998817939045
0.00952779179084
0.0079731593808
0.00541987279347
0.0020495639539
0.00210010980573
0.00533784014219
0.00751435252984
0.00857972110789
0.00857747846832
0.00761168343858
0.00600542538386
0.00450764957942
0.00387784744237
0.00358223929437
0.003727664631
0.00409322970098
0.00489722823641
0.00666047270962
0.00866707024729
0.00978652186136
0.00961607724711
0.00813482034499
0.00552878167681
0.0020815389968
0.0020947983371
0.00530212798745
0.00742091423662
0.00836191448776
0.00813004261573
0.00680494463372
0.00466902186252
0.0030720285322
0.00254865986729
0.00239953121998
0.00241118208439
0.00263807622432
0.00329040637972
0.00512580412833
0.00773734304358
0.00934435406988
0.00945787689008
0.00810536805276
0.00553843653304
0.00210004742439
0.0020846207852
0.00526202730404
0.00734202939411
0.00821061822144
0.00786143980859
0.00637450872535
0.00412313738536
0.0025805928717
0.0020779889718
0.00195883879486
0.00198513649693
0.00215669307765
0.00272313206717
0.00443061273554
0.00718440296598
0.00902430445764
0.00930641584551
0.00804500715482
0.00552248215355
0.00211113289031
0.00207731616678
0.00525249655016
0.00733792698231
0.00820924924502
0.00786260316193
0.0063677896141
0.00411116101734
0.00255558613467
0.00205907209093
0.00193917113691
0.00195194172192
0.00211605992236
0.00267327283689
0.00436287940021
0.00713226142078
0.00900450818947
0.00930541729368
0.00804776353834
0.00552534892934
0.00212193039154
0.00207508300702
0.00528073487134
0.00742055009538
0.00837393606069
0.00814487647762
0.00679516985562
0.00463450487281
0.00298350763085
0.00244812567604
0.00228461366006
0.00228544704835
0.00246959839019
0.0030682930864
0.00485747010341
0.00756930020077
0.00931186608675
0.00948603083637
0.00813743572106
0.00555935215775
0.00213370596916
0.00207215789421
0.00532813573477
0.0075605036993
0.00866780096875
0.00869629908647
0.00775301430857
0.00606105284578
0.00460383551065
0.00398030618649
0.0037019750687
0.00351384131144
0.0038440887372
0.0046442416144
0.00647978656526
0.0086793215158
0.00994802520004
0.00980974110009
0.00827799357539
0.00560431268352
0.0021404045117
0.0020629181659
0.00535373173718
0.00768431299223
0.00896817309918
0.00928307506036
0.00877601244313
0.00770950997282
0.00661886438865
0.00600078662583
0.00564084062118
0.00575038709975
0.00628844086313
0.00716217120227
0.00856237463498
0.00997652224923
0.0106114745458
0.0100786965921
0.00835131549447
0.00560717920878
0.00213197202625
0.00204957280326
0.00532724849571
0.00771249597228
0.00915492395155
0.00975324255842
0.00966786027004
0.00915121874621
0.00853463332601
0.00808779423848
0.00778086924118
0.00795408436336
0.00849384407607
0.00922189396841
0.0101263566442
0.0108667623642
0.0109520614722
0.0100967472474
0.00825803645226
0.00554035239746
0.00211020780396
0.00204124523532
0.00525294660458
0.00758918320684
0.00910367845868
0.00989595254942
0.0101074064181
0.00993580919401
0.00959876215814
0.00930726261319
0.00909316754361
0.00937934999262
0.00980191890282
0.0103023013453
0.0108160489481
0.0110917679796
0.0108161492164
0.00979488988381
0.00798957449093
0.00542020130489
0.00208908093594
0.00202548093467
0.00512819023482
0.00729041425588
0.00872262065303
0.0095727470568
0.00995199826611
0.0100022950535
0.0098782243012
0.00972608601639
0.00966338008986
0.00987914085399
0.0101309475548
0.0104025448428
0.0106268269169
0.0106201294601
0.0101782976931
0.00917682274862
0.00756702909889
0.00524333929046
0.00206351059569
0.00198207631096
0.00485266005829
0.0067947474641
0.00799019983516
0.00871622741473
0.00910289998961
0.00923557800748
0.00921869314794
0.00917558335865
0.00925487306568
0.00935756177286
0.00946464689804
0.00957132708617
0.00962321386215
0.00950217605951
0.00908001655327
0.00826686962049
0.00695814308696
0.00493404664775
0.00201308409475
0.00188986677367
0.00429431659997
0.00588055093269
0.00683132613016
0.00736035413527
0.00762706134718
0.00774207494149
0.00778791873203
0.0078207665971
0.00785271864967
0.00788180844461
0.00791278221626
0.00794036422148
0.00793195532486
0.00782257824133
0.00753074398094
0.00696594752195
0.00598189072269
0.00435361817063
0.00191147094375
0.00171738205911
0.00330128711092
0.00430230470964
0.00488134000642
0.00519357052347
0.00534581795513
0.00541201209247
0.00544065347041
0.00545532154436
0.00546458233076
0.005472582991
0.00548167026856
0.00548872038254
0.00547917569829
0.00542374393257
0.00527154168056
0.00495116196287
0.00435815665407
0.00333337722278
0.00172723311033
0.00145559403122
0.00171076128058
0.0018804743195
0.00197379134637
0.00202074759425
0.00204232650635
0.00205322752199
0.00206270772275
0.00207161457713
0.00207993497985
0.00208738198302
0.00209300755921
0.0020971275179
0.00209681874759
0.00209014227521
0.00206716349843
0.00201507481359
0.00191213688391
0.00172786633441
0.00145263569957
0.001970323664
0.00276003444065
0.00329231228875
0.00357913553455
0.00370417555998
0.00373803566347
0.00373872510665
0.00373796135808
0.00374469432137
0.0037548454408
0.0037637268664
0.00376419625175
0.00376084497984
0.00376187918275
0.00376435518987
0.00373735394461
0.00361393612115
0.00331735921146
0.0027724275956
0.00197508230348
0.00276024784292
0.00346225539846
0.00410703425426
0.00448383445311
0.00466822427327
0.00473817781205
0.00474607041289
0.00472723358826
0.00470681446058
0.00469365625004
0.00468806186881
0.0046929819542
0.00471666430201
0.00474318115914
0.00474316953186
0.00467754732078
0.00449709892186
0.00411877686087
0.00345599139527
0.00275368418479
0.00329613966799
0.00411130163074
0.00490844402271
0.00539737750133
0.00564274651871
0.00572175822835
0.00570263546999
0.00564686051085
0.00559599558612
0.00556310592442
0.0055514576447
0.00559891212335
0.00569091778245
0.00579152108421
0.00584152445077
0.00575519631042
0.00546888151979
0.00493871151207
0.00410731933355
0.00329421861386
0.00357990181585
0.0044948226037
0.00540777824801
0.00596868988797
0.00622520088273
0.00626005572403
0.00616738470749
0.00603914980733
0.00593373785108
0.00586991351376
0.00586017742613
0.00598079368595
0.00617468884516
0.00640091833496
0.00656806027729
0.00653245064245
0.00619023908988
0.00550879105815
0.00450757957327
0.00359564821997
0.00369207319938
0.00468403070552
0.00566184696297
0.00623927982961
0.00645171587852
0.00638839587158
0.00616845447896
0.00592630072641
0.00573721981426
0.00563332675286
0.00563784731054
0.00581674289029
0.006124082615
0.00652205015672
0.0068811184337
0.00697554104399
0.00665318918835
0.00587964375651
0.00473371089366
0.00372742682604
0.00371239096917
0.00475005421966
0.005745981557
0.00629316479914
0.0064145127276
0.00619592293079
0.00577841581527
0.00536261236147
0.00504624999727
0.00489476339377
0.00489331387904
0.00508398606628
0.00550126231261
0.00613157744777
0.00677858917863
0.00709361307432
0.00687180326224
0.00608101153171
0.00484711802476
0.00376144518807
0.00369601302611
0.004747207708
0.00572991248808
0.00622094101509
0.00622387733825
0.00580558050746
0.00510271993448
0.00436690084477
0.00386352661714
0.00369605255726
0.00370263904822
0.00384838865497
0.00435952865964
0.00531039350268
0.00634855312562
0.00695255988843
0.00688911741438
0.00614365559751
0.00488437453959
0.00375367709476
0.00367269551065
0.00471807881639
0.00567749203222
0.00611332314187
0.00601212213736
0.00542467322429
0.00448415154613
0.00340756555179
0.00280354770823
0.00268115156935
0.00266400312458
0.00274900041424
0.00325702483033
0.0043851498011
0.00581463318386
0.00669449061383
0.00679100062037
0.00611855194728
0.00487727905924
0.00373546919088
0.00365779102078
0.00469502164904
0.00563957154714
0.00604278475377
0.00587752569067
0.00516810145283
0.0040067521111
0.00281970712913
0.00221517478505
0.00210213411712
0.00208857485787
0.00214157409745
0.00260368496022
0.00380480380151
0.00545457987895
0.00650664189701
0.00670694287454
0.0060871006796
0.00486532278583
0.00372273981068
0.00365730269552
0.00469381440831
0.00564179235196
0.00604844546872
0.00588555481966
0.005174119303
0.00401705174525
0.0028307309927
0.00221398549985
0.00208358952167
0.00205878710769
0.00209541523241
0.00254544557753
0.00375141841364
0.00542802769592
0.00650462442982
0.0067165496026
0.0060978352912
0.00487006373261
0.00371663530751
0.00367400432057
0.00471801088307
0.0056895297163
0.00613669826252
0.00604102070857
0.00544199193503
0.00450715488141
0.00346375754157
0.00279781418573
0.00261785547753
0.00256740362273
0.00259715022716
0.00305240108729
0.004219310322
0.00575127798537
0.00671091605471
0.00683918672863
0.0061633656557
0.00489864331211
0.00372290667822
0.00370875704303
0.00476026149276
0.00576904242442
0.00628454325412
0.00630504250052
0.00588021195145
0.00513188776753
0.0044969651858
0.00394647703392
0.003734384872
0.00366659326908
0.00376089153711
0.00426101409217
0.00526705586002
0.00641259389012
0.00709317423742
0.00704385889774
0.00626328405908
0.00494312748584
0.00374376365774
0.00375864657933
0.0048065888009
0.00585434639188
0.00644760321524
0.00660169999527
0.00638931453819
0.00593589616881
0.00546421125862
0.00513157463943
0.00499154978613
0.0050453650226
0.00529054541343
0.0057572002949
0.00645432845737
0.00716229186893
0.00749664374994
0.00722897318902
0.00633859659101
0.00498018959524
0.00377746043027
0.00380808858839
0.00483751164472
0.0059115503111
0.00657410175194
0.00685125613821
0.00682725529746
0.00661816128143
0.0063663092931
0.00618237849288
0.00610419787065
0.00620459847639
0.00646286599517
0.0068401407808
0.00729862688261
0.00767696328979
0.00772691481372
0.00728496816578
0.00633455176213
0.00498760618617
0.00380657770789
0.0038273563174
0.00483052884916
0.00590285931141
0.00660566790412
0.00697075959326
0.00708083822073
0.00703369415883
0.00692780824461
0.00684205975542
0.00681602954068
0.00694449926108
0.00715633207646
0.00741991203925
0.00768791828413
0.00783434214568
0.00769490039667
0.00716458633841
0.0062315132585
0.00494997458149
0.0038048035273
0.00378424803338
0.00475238602667
0.0057846390639
0.00647995417805
0.00688162766678
0.00706686565776
0.00711505744162
0.00709825056887
0.00707453753207
0.00709169030459
0.00719457584218
0.00733134194752
0.00748241433117
0.00760578853481
0.00760825430332
0.00738367403437
0.00686432672954
0.00602185925698
0.004841376078
0.00374246190262
0.00363245145179
0.00454493201562
0.00550552725878
0.00614159617751
0.00651685665461
0.00671351926993
0.00679530423749
0.00681707411747
0.00682801024564
0.00686802166559
0.00692720097094
0.00699544069186
0.00706280180147
0.00709850685301
0.00704201628012
0.00682456323314
0.00638840188729
0.00567170338517
0.00461100865883
0.00357951583809
0.00331848897696
0.00413622779188
0.00497518506756
0.00552253379151
0.00583911537112
0.00600328292797
0.00607937272022
0.00611411657922
0.00613718331183
0.00616083316242
0.00618712180798
0.00621550237705
0.00623996028703
0.00624134517802
0.0061830295134
0.00601518936561
0.00567775698764
0.00509167648813
0.00418064114033
0.00326111782221
0.00276714803755
0.00345690275367
0.00412482887118
0.00454514207794
0.00478151100301
0.00490212523039
0.00495815929932
0.00498335323674
0.00499652173251
0.00500607665588
0.00501566634163
0.00502591901675
0.00503346573438
0.00502685800157
0.00498385892873
0.00486747618988
0.00462516469051
0.00418557474084
0.00347317934738
0.00271606688488
0.00197342083502
0.00275660121577
0.0033100247854
0.00364004723192
0.00382048897405
0.00391270075105
0.00395593121148
0.00397220890733
0.00397381210801
0.00396760449343
0.00395945632625
0.00394781811438
0.00393465765994
0.00391130680759
0.00386609307502
0.00377187891668
0.00359151981999
0.00326637640785
0.00271933372515
0.00193666620294
0.00233398600672
0.00361967028801
0.00451165019212
0.00501306953178
0.00524748741652
0.00532303870086
0.00532721617362
0.00531328097757
0.0053046213156
0.00530497897937
0.00531106763029
0.0053178015387
0.00532762772714
0.00533983957405
0.00533810772346
0.00526975486136
0.00503842442302
0.00452867078072
0.00362216836974
0.00233123900748
0.00361810967799
0.0040791250029
0.00472954270456
0.00513914390929
0.00534785363825
0.00542651142743
0.00543375168839
0.00541167530997
0.00538736872057
0.00537256789018
0.00536951056543
0.0053776397348
0.00539539131791
0.00541386729505
0.00540777687021
0.00533437130149
0.00513316202913
0.00472451071174
0.00405369304832
0.00359206413631
0.00451518572865
0.00473212284224
0.00538236254009
0.00582136543286
0.00605014104705
0.00612526419241
0.00610791086794
0.00605488598277
0.00600338426457
0.00597119441367
0.0059627941293
0.00598357741026
0.00603348638374
0.00609063162687
0.00611561495229
0.00604413816189
0.00581258067425
0.00536805678278
0.00469536053699
0.00449572896318
0.00501151469451
0.005144771484
0.00582867883253
0.00629598223797
0.00652097269852
0.00655651429666
0.00648053734769
0.00637153417704
0.006269807668
0.00620916399024
0.00619767377508
0.00624869083307
0.00635705939987
0.0064843840789
0.00658066607381
0.0065516728265
0.00631341226482
0.00582286146582
0.0051095362459
0.00501951232301
0.00522611186191
0.00535335106538
0.00606521630201
0.00653569943893
0.0067234379131
0.00668575865174
0.00652470058407
0.00634937052336
0.00616286579401
0.00605769828794
0.00604085668634
0.00612961503991
0.0063259185819
0.00654378931349
0.00675074427845
0.00680816446645
0.00660132952255
0.00608761505967
0.0053310133602
0.00527068623424
0.00527985299725
0.00542616437793
0.00614725788175
0.00659434343469
0.00671627319016
0.00657759245733
0.00632010610726
0.00610428928937
0.00573992511856
0.00555490883515
0.00551697368771
0.00563781205943
0.00599320354344
0.00630351110172
0.0066541067306
0.00684241304356
0.0067080446566
0.00620479431085
0.0054224277668
0.00535537289387
0.00526148660301
0.00542346912885
0.00613653867396
0.00654351275013
0.00658523404279
0.00633641741131
0.00600375481802
0.00582574972827
0.00491769543381
0.00457569633035
0.00450855724976
0.00464210466581
0.00538506442172
0.00585390414707
0.00637418760836
0.00671992949048
0.00668642248949
0.00622302625971
0.0054390370039
0.00536019403427
0.00522441962011
0.00539274092414
0.00609051670014
0.00645638736812
0.00642555169608
0.00609796161447
0.00601407753764
0.00580983805258
0.00390991476163
0.00368933540129
0.00370322113722
0.00389271147839
0.00532936306608
0.005340871013
0.00604214687196
0.00653854327407
0.00660666988664
0.00619377919046
0.00542353973515
0.00533493162111
0.00520050464402
0.00536889891696
0.00605600781738
0.00639463614752
0.00630264704039
0.00582537610513
0.00523222788572
0.00438604900264
0.00258957302789
0.00235840229074
0.002378370177
0.00254122866592
0.00376669112755
0.00447961727916
0.00568969869293
0.00638858456126
0.00654405654452
0.00616895019847
0.00540921011453
0.00531383609733
0.00520252915099
0.00536893636368
0.00605902468995
0.00640139591077
0.00631236837969
0.00583737593879
0.0052838737627
0.00451748348083
0.00269742756325
0.00242188211956
0.00239269911783
0.00251220916075
0.00369870466498
0.00442157166686
0.00567329051786
0.00639656726567
0.00656001380693
0.00618254059325
0.00541374616488
0.00530901292317
0.00523570524823
0.00539690288758
0.00610445110347
0.00648159403183
0.00645709784352
0.0061285802547
0.00620312071344
0.00671528443313
0.00465687317005
0.0043153082252
0.00425442080877
0.00428311988266
0.00548446838067
0.00521562458883
0.00602277285738
0.00658518837289
0.00667101575484
0.00624522418137
0.0054441445481
0.00532828663679
0.0052986867094
0.00544574984536
0.00617824383596
0.0066076136077
0.00666668276119
0.00640249100464
0.00601016221647
0.0062188160388
0.00529691672166
0.00494186885626
0.00476861318152
0.00474937163286
0.00537712732949
0.00586758021164
0.00648928050748
0.00688408491103
0.0068484152977
0.0063441338646
0.00549654584701
0.00537195745253
0.0053819438176
0.00550079263714
0.00625605239976
0.00674245032024
0.00690186597165
0.00678085956725
0.00649674061514
0.00624326320603
0.00590523674692
0.00574796529743
0.00574302120013
0.00588878134235
0.00624251350693
0.00662784807506
0.00702262664236
0.00721078455878
0.00703083507826
0.00644265053761
0.00555434971885
0.00543097191104
0.00545297491132
0.00553840008073
0.00630579907269
0.00683924441469
0.00708847805778
0.0071011532689
0.00696792312173
0.00679710595253
0.00663522573342
0.00656031883047
0.00659566543865
0.00673535298115
0.00696668669855
0.00722338563216
0.00743200488438
0.00744537067539
0.0071456974869
0.00649824748592
0.00559194457939
0.00547337552727
0.00546369247784
0.00552918777512
0.00629175227308
0.00685040978436
0.00716197940531
0.00727174990114
0.00725192333933
0.00717954189596
0.00710897223611
0.00708508283325
0.00713503878202
0.00724571535351
0.00739685588771
0.00754471359959
0.00761693617954
0.00750869835038
0.00713684258418
0.00647275996444
0.00557624683188
0.00545309336492
0.00536475485191
0.00543155674167
0.00617432193917
0.00672838004254
0.00706588543724
0.00723032923379
0.00728057659148
0.00727473909839
0.00725825191426
0.00726669669985
0.00731367296719
0.00738897292222
0.00747635861622
0.00754185448069
0.00752630343681
0.00735595791589
0.00696984403802
0.00633088027509
0.00546692905593
0.00532567201387
0.00508622021952
0.00519320114668
0.00590363787578
0.00642949148739
0.00675541368758
0.00693095501472
0.00700875450682
0.00703526145956
0.00704649848664
0.0070660471924
0.00709966430561
0.00714354475167
0.007186702525
0.00720365309164
0.0071508930749
0.0069737097704
0.00661666305897
0.00602833132944
0.00521269865108
0.00502737727293
0.0045420252839
0.0047504666283
0.00542376282542
0.00590773203267
0.00620347949283
0.00636427955822
0.0064415672158
0.00647554633388
0.00649340553542
0.00650949593043
0.00652930464956
0.00655215615124
0.00657070932457
0.0065667575404
0.00650841421351
0.00635045834148
0.00603719061444
0.00550873818523
0.00475017454214
0.00447414641495
0.0036181589333
0.00406057919543
0.00472293737588
0.0051694174316
0.00543224328567
0.00557186589654
0.00563850591199
0.00566725415323
0.00567959570594
0.00568688640824
0.00569425664716
0.0057022217443
0.00570601670325
0.00569224431321
0.00563621735678
0.00549882943884
0.00522679342475
0.00475473844921
0.00403960955359
0.00356464206065
0.00232641818157
0.00359768845143
0.00452523747853
0.00509479522567
0.00542273077583
0.00559679020671
0.00568133500455
0.00571681882549
0.00572662074872
0.00572426704198
0.00571505002673
0.0057002461327
0.00567842227477
0.00563606840053
0.0055487359347
0.00537233904772
0.00504602089334
0.00448379388985
0.0035707421622
0.00231519541411
0.00252077535982
0.00418706923563
0.0053712282645
0.00605748886673
0.00639217620602
0.00650638250606
0.00650960070428
0.00647604684252
0.00644623492086
0.00643163496155
0.00643271641137
0.00644654608841
0.00647179431507
0.00649874143226
0.00649493048652
0.00638836110022
0.00606065626988
0.00537098690468
0.00417525538298
0.00250935178552
0.00418334500865
0.00456900803589
0.00526512898175
0.00572160313237
0.00596114134806
0.00605254133085
0.00606084399755
0.00603527412799
0.00600673041921
0.0059900033638
0.00598909742604
0.00600283197078
0.00602623424625
0.00604734848271
0.00603889973474
0.00595252780701
0.00571964912315
0.00526132971961
0.00453710359939
0.00413465371108
0.00537328207731
0.00526601448062
0.00585647769797
0.00628308996733
0.00651255629134
0.00659152450131
0.00657915953146
0.00653028863603
0.00647974746726
0.00644977394368
0.00644586704295
0.00646701759717
0.00650961064859
0.00655389234004
0.00656776607196
0.00649420714402
0.00626948129685
0.00584077221809
0.00521926820107
0.00532912846014
0.0060535906871
0.00572277853324
0.00628762287078
0.00670971961656
0.0069229569205
0.00696596004885
0.00690853928267
0.00681865038549
0.00672064547978
0.00666373071856
0.00665659009221
0.00669741664974
0.00678513412648
0.00687076215102
0.00693207665303
0.00689669070924
0.00668944568658
0.00626659290601
0.00567553184106
0.00604404691854
0.00636623410551
0.00595950281291
0.00652288049146
0.00693512833166
0.00711399842911
0.00710348594251
0.00700004456945
0.00689371964485
0.00670480238294
0.00660124668154
0.00659045901559
0.00666903252965
0.00684766548315
0.00695162147288
0.00706690054823
0.00709133510213
0.00692036602286
0.00650761635482
0.00592288931622
0.00640383421868
0.00645807857609
0.00604495139017
0.00660765460835
0.00699726782347
0.00712704520018
0.00706158457581
0.00697582550757
0.00708709334545
0.00663537612012
0.00644051815659
0.00642834247711
0.00658410880563
0.00703863830082
0.00691969427499
0.00702114673462
0.00711196587205
0.00699535054971
0.00660573989754
0.00602405087593
0.00654047792449
0.00644391846755
0.00604558489316
0.00660095358629
0.00695881635778
0.00703671678964
0.0069487866242
0.007192343723
0.0104592926064
0.00816739062264
0.00772293788873
0.00772009559981
0.0080736256641
0.0100665584277
0.00718876635681
0.00690822546537
0.00702527861196
0.00696993111481
0.00661511771856
0.00604187523275
0.00656215875548
0.00639719428485
0.00601423466666
0.00655820904984
0.00688263818861
0.00691191392586
0.00686983920081
0.00968581939777
0.0100160058952
0.00689968655011
0.00690994852101
0.00690676810547
0.00658845433809
0.00602627368382
0.00653703451564
0.00636579753369
0.00599008921273
0.00652587174942
0.00682496742001
0.00679052768455
0.00655314261482
0.00801876251612
0.00797834023404
0.00649650667474
0.00677642319145
0.00685611705407
0.00656848192519
0.00601256894436
0.00651477877589
0.00637113060353
0.00599276621015
0.00653153007732
0.00683424274873
0.00680288355105
0.0065774084922
0.00822291244196
0.00800696469032
0.00650286462848
0.00679596199203
0.00687953970427
0.00658697185922
0.00602046821189
0.0065177247781
0.00641993081428
0.00602704312602
0.00658021880448
0.00691488812873
0.00694926598507
0.00694185499972
0.0107555069441
0.0105871356977
0.00696416301742
0.00699113432155
0.00699283973395
0.00665456620413
0.00605784500557
0.00655389334213
0.00650760745996
0.00608543377028
0.00665767516769
0.00703539644777
0.00712455428293
0.00700223436666
0.00710023072272
0.0107492111074
0.00872049439929
0.00838614680341
0.00845057092989
0.00889183714185
0.010944941062
0.00730679430608
0.00708935919523
0.007232853597
0.00716203951706
0.00675932236098
0.00612096714983
0.00662519270703
0.00661686667796
0.0061515320599
0.00674027469671
0.0071653227025
0.00733192044085
0.00728138098181
0.00715039281544
0.00716647396075
0.00678995261948
0.00662999213422
0.00663633845209
0.00679744627401
0.00719316096474
0.00725605319823
0.00742620146035
0.00750891723983
0.0073422417345
0.00687002642595
0.00619188502571
0.00670929803511
0.00669899501914
0.00619626723499
0.00679391937417
0.00725801996439
0.0074963182113
0.00754000130506
0.00746915167024
0.00737011621519
0.00722430595566
0.00715426685139
0.00717913533398
0.00729301329598
0.00748363080262
0.00763872968527
0.00775440448036
0.00773237777043
0.00747636433415
0.00694723643253
0.00624092425938
0.00676247489683
0.00669087208947
0.00618328198784
0.00678024213084
0.00726692568737
0.00755643568686
0.00767466935855
0.00768076106822
0.00763743774622
0.00758150030562
0.0075624902853
0.00759598583553
0.0076799415804
0.00779543768733
0.00789415498432
0.00792843844751
0.00782167038708
0.00750343186482
0.00694418430724
0.0062258832109
0.00672067532333
0.00653183664854
0.00606535409686
0.00665840112398
0.0071476671028
0.00746103259853
0.00762378327088
0.00768372876425
0.00769098344747
0.00768428107991
0.00769280585709
0.00772826267304
0.00778818953419
0.00785704097387
0.00790187383003
0.00787600895332
0.00771937553341
0.00737658021477
0.00681515661347
0.00609855209097
0.00652759908257
0.0061362243378
0.00578922571059
0.00638088150912
0.00686150409752
0.00717403757887
0.00734994643873
0.00743368481506
0.00746728193407
0.00748241400191
0.00750062701726
0.00753065842359
0.00757082216711
0.00760927465088
0.00762068987637
0.00756622976808
0.00739621911885
0.00705882110085
0.00651333933656
0.00580436114625
0.00610131306258
0.00539534165054
0.00529312056969
0.00590611066732
0.00637900686867
0.00668069033032
0.00685156735922
0.00693771117018
0.00697756165243
0.00699803105773
0.0070152500577
0.00703648087335
0.00706117560424
0.00708049124155
0.00707460399427
0.00701116205394
0.00684527373986
0.00652364372152
0.00599710336099
0.00528469066512
0.00533974581057
0.00417107844443
0.00454679697889
0.00525339528988
0.00574925553549
0.00605148082652
0.00621802807198
0.00630086484631
0.00633812479685
0.00635445961821
0.00636405110116
0.00637368264672
0.00638376748964
0.00638769639157
0.00636904218564
0.00629890105632
0.00613404230482
0.00581836467158
0.00528869724765
0.00451876443934
0.00412478280816
0.00249981816681
0.00413979800035
0.00536830520035
0.00614448180987
0.00660320916514
0.00685591934243
0.00698438914752
0.00704295751383
0.00706414112623
0.00706673233755
0.00706125689179
0.00704826700818
0.00702206317393
0.00696336368323
0.00683566121229
0.00658048281421
0.00612050335404
0.00534937019352
0.00413189519313
0.00251032580904
0.00263664062834
0.00457913025748
0.00598791613147
0.00682170968508
0.00723775535087
0.00738183357407
0.00738074363684
0.00732729208957
0.00727656295457
0.00724778479019
0.00724506399651
0.00726684674916
0.00730744291044
0.00735023107422
0.00734759169403
0.00720991449067
0.00680243336185
0.00596971104892
0.00455437341792
0.00261867937011
0.0045733151812
0.00492838308404
0.00567572054067
0.00617789146161
0.00644673200033
0.00655050424482
0.00655961304025
0.00652978511167
0.00649601875283
0.00647655597076
0.00647729976686
0.00649708691715
0.00652872039443
0.00655574046256
0.00654711079091
0.00644831898565
0.00618465844603
0.00567680621961
0.00489263940399
0.00450322822907
0.00598651913726
0.00567481873289
0.00624232811429
0.00667141608438
0.00690785689026
0.00699306440483
0.00698546576538
0.006938866027
0.00688786508667
0.00685896944475
0.00685946535288
0.00688753923851
0.00693426787102
0.00697732492692
0.00698648851416
0.00690661189633
0.00667370402736
0.00623691394296
0.00562448456464
0.00591991618764
0.00681396798583
0.00617560276653
0.00667400921847
0.00707359795401
0.00728372848727
0.00733536004143
0.00729219659758
0.00721263013037
0.00711426547307
0.00705859233812
0.00705745913574
0.0071058551211
0.00719561130469
0.00726784670869
0.007312857926
0.00726923568507
0.00706705532773
0.00666523846714
0.00612761548069
0.00679030582772
0.0072070042871
0.00644048465232
0.0069148275708
0.0072935023188
0.00747044737429
0.00748232002504
0.0074164508618
0.00733633260174
0.00713374626269
0.00702479200842
0.00702245133251
0.00711801169795
0.00731136732238
0.00737677310949
0.00744795352459
0.00744992205047
0.00728632827642
0.00691218660021
0.0064089759571
0.00724506823151
0.00733022324385
0.00653954833417
0.00700508951099
0.00736042112474
0.00749976232558
0.00748677622684
0.00748985382418
0.00766652666979
0.00712189727774
0.00689350258225
0.00689550412449
0.00710965759363
0.00766513216668
0.00745214383218
0.00744592453032
0.00748089638143
0.00736103591502
0.00701584506275
0.00653060101397
0.00743124333772
0.00731917562227
0.00654456200345
0.0070029678066
0.00733202925497
0.00743887861017
0.00745167860305
0.00788731478842
0.0114239939472
0.0085566897752
0.0079883194272
0.00799083104587
0.0084845259301
0.0110258178084
0.00792849104938
0.00742020816246
0.00742623285712
0.00734586360963
0.00703137187775
0.00655872518774
0.00747238566814
0.0072646844231
0.00651341103099
0.0069632711695
0.00726427136486
0.00733822066351
0.00744683572593
0.0106105283429
0.0107170524439
0.00748906714191