/*--------------------------------*- C++ -*----------------------------------*\
| =========                 |                                                 |
| \\      /  F ield         | OpenFOAM: The Open Source CFD Toolbox           |
|  \\    /   O peration     | Version:  v1606+                                |
|   \\  /    A nd           | Web:      www.OpenFOAM.com                      |
|    \\/     M anipulation  |                                                 |
\*---------------------------------------------------------------------------*/
FoamFile
{
    version     2.0;
    format      ascii;
    class       volScalarField;
    location    "2.1";
    object      epsilon_0;
}
// * * * * * * * * * * * * * * * * * * * * * * * * * * * * * * * * * * * * * //

dimensions      [0 2 -3 0 0 0 0];

internalField   nonuniform List<scalar> 
11640
(
0.00150786835583
0.00177992071609
0.00195570978912
0.00204759657657
0.00208762407117
0.00209954521131
0.00209562913877
0.00208588344201
0.00207663271815
0.00206677268546
0.0020568318641
0.00204806912783
0.00204420117295
0.00204833149969
0.00205932004255
0.00206314843676
0.0020337509322
0.00194582451554
0.0017699379458
0.00149777313038
0.00178078234744
0.00341252273233
0.00439121730324
0.00492115693838
0.00518918989572
0.00530133975543
0.00531276567313
0.00526732657764
0.00521570548784
0.00516967930927
0.00512584697699
0.00510170206778
0.0051493369887
0.0052038724884
0.00521153859188
0.00511911283076
0.00487846845077
0.00436522543055
0.00337897025164
0.00175612759895
0.00195794836501
0.00439699973565
0.00593256986485
0.00683828022158
0.00731289813728
0.00747118880908
0.00742352985471
0.00728624073881
0.00715397178304
0.0070394528041
0.00693389387022
0.00703624796323
0.00724019432961
0.00744792583893
0.00754871945443
0.00739128792268
0.00687488450165
0.00593173079488
0.00437188099133
0.00192390656286
0.00205083857094
0.00494349578392
0.00686766156643
0.00802786742981
0.00858081612909
0.00867003140443
0.00847238515561
0.00816281294831
0.00790016868132
0.00768446285078
0.00753293944306
0.00783670504067
0.008249317629
0.00870157169577
0.00902143761474
0.00894268510928
0.00828608041216
0.00697061703504
0.00493310243697
0.00201007134378
0.0020986565949
0.00524346453195
0.00739436485375
0.00864913220623
0.00914005462743
0.00902219649367
0.00853539223149
0.00795122176827
0.00752950763188
0.00721512776615
0.00713695535612
0.00757901468042
0.00821148726679
0.00900825665104
0.00969358837134
0.00984441613416
0.0092064762259
0.00768453277862
0.00528731966418
0.00205325835891
0.00212737995884
0.00538817640924
0.00762009829081
0.00882994420271
0.00911779883929
0.0086355507092
0.00767912765098
0.00671077779537
0.00614299347802
0.00578142527708
0.00574019403079
0.00622250456011
0.00703458047184
0.00830931290689
0.00956840862124
0.0101321896015
0.00967280651841
0.00810661725632
0.00551759471528
0.00209051584609
0.0021390985511
0.00542220984518
0.00762905908886
0.00871268953687
0.00871186146136
0.00772668618232
0.00609407879196
0.00457636091103
0.00394144288752
0.0036466782295
0.00380788594553
0.00417762888483
0.00499142538973
0.00677654844476
0.00880003453953
0.00992395734741
0.00975773729986
0.00826861009538
0.00562808656227
0.0021228253837
0.00213474583592
0.00538855686735
0.00753775295914
0.00849526677674
0.00825994019003
0.00690804372312
0.00474223749564
0.00313146242469
0.00260221489503
0.00244936686018
0.00245988930161
0.00268732740747
0.00334718590474
0.00521578322909
0.00786008863994
0.00947648688475
0.00959740759939
0.00823938971418
0.0056387537995
0.00214189921403
0.00212559372041
0.00535102925104
0.00746191692468
0.00834633114406
0.00799179772566
0.00647490292908
0.00419317220027
0.00263701688902
0.00212804788105
0.00200412556955
0.00202647088267
0.00219538164583
0.0027667138619
0.0045055695695
0.00729825828595
0.00915283544899
0.00944497122097
0.00817929442827
0.00562340936712
0.00215347209334
0.00211943069422
0.00534459977304
0.00746207289476
0.00834982716974
0.00799822907319
0.00647353841391
0.00418611541404
0.00261555411268
0.00211173647147
0.00198573807045
0.00199319276587
0.00215424128722
0.00271582215989
0.00443556775926
0.00724385141736
0.00913218122596
0.00944411163024
0.00818256816587
0.00562673686567
0.00216468272145
0.00211839090791
0.00537621147589
0.0075497864558
0.00852155089659
0.00828992114583
0.0069126727008
0.0047215819608
0.00305480718266
0.00251056334954
0.00233921964404
0.00233298713458
0.00251347661143
0.00311631261472
0.00493623383993
0.0076845306399
0.00944215924398
0.00962658360632
0.00827347017734
0.00566131362197
0.00217673748357
0.0021165207077
0.00542672714706
0.00769426237871
0.00882203953632
0.008852762683
0.00789003346544
0.00616813108878
0.0046860461047
0.00405176969793
0.00376906261591
0.00357802841696
0.00391099431663
0.00472024329379
0.00658247778783
0.00880544133797
0.0100860059
0.00995597802828
0.00841708130986
0.0057072118455
0.0021836423266
0.00210811314026
0.0054546366513
0.00782110959096
0.00912636539781
0.00944786892512
0.00893018355373
0.0078439054158
0.0067332362075
0.00610948145691
0.00575060360677
0.00586022558637
0.00640582094863
0.00728735402943
0.00869995037636
0.0101248167665
0.0107668993637
0.0102371254525
0.0084962535304
0.00571130153936
0.00217534565761
0.00209478705864
0.00543055246407
0.00785126982555
0.00931448803986
0.00992164157924
0.00983337644262
0.00930699295883
0.00867994246973
0.00822975659317
0.00792520606343
0.00810003273746
0.00864783131022
0.0093831953377
0.0102948473934
0.0110406178739
0.011128594481
0.0102687978878
0.00840818213495
0.00564503166503
0.00215375187657
0.00208610453271
0.00535908003691
0.00773068590733
0.00926493767671
0.0100666480593
0.0102798602077
0.0101057079275
0.00976447011276
0.00947282766871
0.00926246130577
0.00955202489259
0.00998118997538
0.0104877369155
0.0110065354859
0.0112846567285
0.0110069746627
0.00997391678708
0.00814036447305
0.00552424357753
0.00213282347239
0.00207044355581
0.00522881063107
0.00743349834035
0.00888466330506
0.00974410018672
0.0101269298365
0.0101780398783
0.0100535280239
0.00990189705026
0.00983945393689
0.0100595572209
0.0103163974424
0.010592927795
0.010821133004
0.0108151887952
0.0103679744571
0.00935100387405
0.00771266546231
0.00534550582514
0.00210724673816
0.00202666588897
0.00494870133065
0.00692348899405
0.00814138982305
0.00888095838999
0.00927070680465
0.00940426056633
0.0093868643713
0.00933950687654
0.00942087316233
0.00952665568247
0.00963700835406
0.0097470511287
0.00980141376671
0.00968005949911
0.00925221424321
0.00842579505495
0.00709390279113
0.00503203753794
0.00205649035604
0.00193322030292
0.00438110424484
0.00599340606869
0.00695802974127
0.00749341652262
0.00776291637532
0.00787829007371
0.00792411613607
0.00795844416795
0.00799217217407
0.00802302738883
0.00805589821182
0.00808548621649
0.00807866139821
0.00796930827778
0.00767432842349
0.00710129445518
0.00610064132653
0.00444219617838
0.00195371580341
0.00175788566292
0.00337022072724
0.00438699173374
0.00497371720848
0.00528888818661
0.00544179286366
0.00550799506573
0.00553699976523
0.00555246233691
0.00556267693839
0.00557166498828
0.00558178661559
0.00558992902943
0.00558135824103
0.00552638340736
0.00537316295388
0.00504882662764
0.00444653658036
0.00340334633796
0.00176683782729
0.0014913126266
0.00174923868501
0.001920618761
0.00201459164824
0.00206167719274
0.00208325382452
0.00209422263409
0.00210396359499
0.00211325752198
0.00212198256025
0.0021297808827
0.00213565092278
0.00213999539115
0.00213982446457
0.00213325607377
0.00211024768085
0.00205780733768
0.0019538025738
0.00176712092702
0.00148805857337
0.00201305698839
0.00281568503072
0.00335491571897
0.00364432280556
0.00376979168757
0.00380351969098
0.00380484473422
0.00380565046771
0.00381442995537
0.0038266641322
0.00383755704782
0.00383979062099
0.00383863070995
0.00384157214349
0.00384550278801
0.00381864612922
0.00369315064221
0.00339131939331
0.00283594591495
0.00202244621948
0.00281607275803
0.00353147670912
0.0041876811531
0.00456937711175
0.00475495476963
0.00482493402072
0.00483292773611
0.00481457148674
0.00479496661202
0.00478283525362
0.00477837857485
0.0047842146798
0.00480801543349
0.00483460463525
0.00483421174917
0.00476755235804
0.00458460861539
0.0042001320687
0.003526367847
0.00281175904449
0.00335917131929
0.00419239426141
0.005004743874
0.00550073041142
0.00574806528566
0.0058265697468
0.00580617916133
0.00574966263752
0.00569877525222
0.00566634506269
0.00565578932321
0.00570454593746
0.00579752311198
0.00589852737765
0.00594789029377
0.00585901454116
0.00556791303874
0.00503042309459
0.00418661932332
0.003360105368
0.0036455348107
0.00458121774511
0.0055118310227
0.0060814397632
0.00633991219818
0.00637255574388
0.00627641858699
0.00614606225828
0.00604026245143
0.00597760476557
0.00597070885018
0.00609437285071
0.00629030196151
0.00651751555725
0.00668423232876
0.00664609271468
0.00629836100405
0.00560745159837
0.00459215011671
0.00366589842146
0.00375760729799
0.00477196054914
0.00576882021868
0.00635556879018
0.00656882887829
0.00650073469294
0.00627476166135
0.0060285214564
0.00583875275839
0.00573731884836
0.00574768816258
0.00593161101434
0.00624298804007
0.00664275195868
0.00700165675948
0.00709351589435
0.00676614999119
0.00598293240351
0.00482147752883
0.00380026386042
0.00377684785431
0.00483797692471
0.00585346061996
0.00640957262759
0.00652970433601
0.00630249067016
0.00587401443027
0.00545037438148
0.00513314487368
0.00498686287862
0.00499476478664
0.00519351362857
0.00561922409103
0.00625268821569
0.00690021324615
0.00721253012917
0.00698635122795
0.00618681072396
0.00493703938009
0.00383596560909
0.00376010363717
0.00483493254043
0.00583693156342
0.00633583881647
0.00633477455977
0.00590233668088
0.00518184862836
0.00443354912256
0.00393318819634
0.00377495328899
0.00379104550966
0.00394568137656
0.00447166496073
0.00542972820425
0.00646997954739
0.00707127128454
0.00700405244933
0.00625074552252
0.00497564143482
0.00382888771929
0.00373749090387
0.00480592597231
0.00578393445923
0.00622650167008
0.00611868453967
0.00551138901622
0.00454386198416
0.0034642792293
0.00286378535018
0.00274567998561
0.00273154439886
0.0028219082953
0.00334718998009
0.00449708920193
0.00593475699127
0.00681271106827
0.00690623161159
0.00622655940766
0.00496938945936
0.00381072535376
0.00372392583208
0.00478341461849
0.00574603838866
0.00615545866968
0.00598248481476
0.00525083705211
0.00406111063713
0.00286731833265
0.00226412934265
0.00215330095606
0.00214073101854
0.00219621666028
0.00267332659037
0.0039030542729
0.00557019934782
0.00662396114644
0.00682265619325
0.00619604186167
0.00495810066615
0.00379789734652
0.00372497555475
0.00478298917437
0.00574881210453
0.00616189510267
0.005991759707
0.00525853584203
0.00407321411059
0.00287883525781
0.00226156885125
0.00213235969668
0.00210788323558
0.00214630660748
0.00261065993624
0.00384581556576
0.00554186904001
0.00662187384234
0.00683307339685
0.00620775679192
0.00496350727743
0.00379178066408
0.00374335521077
0.00480804667886
0.00579741108292
0.00625186729778
0.00615068901572
0.00553209558943
0.00456774702197
0.00351604114581
0.0028498496771
0.00267155120373
0.00262195357962
0.00265461683361
0.00312470706801
0.00431830148836
0.00586681173474
0.00682951454674
0.00695707715901
0.00627440844842
0.00499277961067
0.00379819194061
0.00378019895409
0.00485110491614
0.00587759989741
0.0064015462834
0.00641962190941
0.00598174036872
0.00521299839561
0.00456258408379
0.00401008297207
0.00380097045063
0.00373819071431
0.00383710753853
0.00435114446778
0.0053742687716
0.00653025690722
0.00721380717514
0.00716368253129
0.00637569896892
0.00503787901669
0.00381914803707
0.00383296538167
0.00489836874932
0.00596327411334
0.00656589602495
0.00672057110042
0.00650107191662
0.00603633873401
0.00555385168088
0.00521886728088
0.00508097601969
0.00513835589564
0.00539041171905
0.00586605847557
0.00657145199052
0.00728503587514
0.00762140661766
0.00735191673715
0.00645261920741
0.00507521977411
0.00385258774569
0.00388539016509
0.00493031045914
0.00602043739341
0.00669275527064
0.00697274665703
0.00694598184447
0.00673109235064
0.00647407675847
0.00628835174839
0.00621150252231
0.00631449103266
0.00657793385822
0.00696107224425
0.00742463428484
0.00780630356422
0.00785688755065
0.00741123843214
0.00644947267241
0.00508231227875
0.00388117244258
0.00390681227156
0.00492333356917
0.00601122460121
0.00672364032631
0.00709306412925
0.00720353482125
0.0071547869567
0.00704726361967
0.00696106591195
0.00693596616828
0.00706623652411
0.00728157712028
0.00754898246524
0.00782034092791
0.00796867922256
0.00782812312776
0.00729161949215
0.00634558369778
0.00504381309382
0.00387915494591
0.00386400975926
0.00484322630231
0.00589073512462
0.00659550709276
0.00700194949034
0.00718920857349
0.00723802534263
0.00722149127225
0.00719826425025
0.00721597606145
0.00732070295382
0.00745989479667
0.00761348810875
0.00773889551744
0.00774175168857
0.00751445732476
0.00698803183129
0.00613302627917
0.00493369155678
0.00381650533303
0.00371037320654
0.00463219505495
0.00560554650523
0.00625032072345
0.0066311051778
0.00682996121432
0.00691281401336
0.00693510946496
0.00694597692229
0.00698712157969
0.00704778871789
0.00711767992773
0.00718669479054
0.00722361839407
0.00716701202838
0.00694706116093
0.00650500647409
0.00577777514412
0.00470024745115
0.00365196993521
0.0033913952773
0.00421694405123
0.00506672661536
0.00562074832897
0.00594077513089
0.00610661420763
0.00618354618603
0.00621901485651
0.0062430541044
0.00626777028959
0.00629517789946
0.0063247149529
0.00635030177172
0.00635256113068
0.00629432033384
0.00612496996194
0.00578339757077
0.00518892873184
0.00426344138534
0.00332929135837
0.00282995623388
0.00352679612457
0.0042035604764
0.0046288667988
0.00486751631747
0.00498905824233
0.005045561374
0.00507122361714
0.00508498590165
0.00509521460655
0.00510551821466
0.00511652047976
0.00512481928736
0.00511885684003
0.00507612231603
0.00495901073755
0.00471398527223
0.00426821592999
0.00354447172881
0.00277552395383
0.00202055462037
0.00281444567836
0.00337537863528
0.00370927057838
0.00389134657747
0.00398409185553
0.00402748231259
0.00404380285089
0.00404547109399
0.00403932431678
0.00403132023262
0.00401989637366
0.00400708353431
0.00398412754176
0.0039391949006
0.00384467627895
0.00366271475608
0.0033333814783
0.002777959073
0.00198310681473
0.00238471304464
0.00369308039378
0.00459807497669
0.00510511177063
0.00534132578168
0.00541725691336
0.00542210631846
0.0054096090507
0.00540287400807
0.00540533131664
0.00541352861483
0.00542228844388
0.00543442179868
0.00544893195476
0.00544883658816
0.00538016134052
0.00514475014925
0.0046253489452
0.00370117433242
0.00238436581981
0.00369178508028
0.00415765693916
0.00481878186474
0.00523359988375
0.00544397713744
0.0055230546152
0.00553081860845
0.00550970810587
0.00548674312261
0.00547351161858
0.00547195560492
0.00548156390476
0.00550049487314
0.00551973796725
0.00551374602118
0.0054392178037
0.00523477397035
0.00481919804951
0.00413693517457
0.0036628973577
0.00460229614946
0.00482196024497
0.00548421709567
0.00592938331506
0.00616004415186
0.00623493351886
0.00621679292316
0.00616347089765
0.00611236338698
0.0060811113951
0.00607419040335
0.00609662140649
0.00614784617664
0.00620575349728
0.00623057206168
0.00615723231809
0.00592164711544
0.00547053315212
0.0047876845406
0.0045800653368
0.00510414613684
0.00524011195269
0.00593720698637
0.00641176500354
0.00663862762629
0.00667247686778
0.00659385811059
0.00648350777021
0.00638176641442
0.00632254611306
0.00631347938276
0.00636714304138
0.00647776106955
0.00660613268023
0.0067022727064
0.00667141740551
0.00642903822856
0.00593135211278
0.00520779449813
0.00511181026158
0.00531951866504
0.00545029531309
0.0061761302953
0.00665444158586
0.0068432229982
0.00680182913781
0.0066364247499
0.00645868776746
0.00627119828342
0.00616854058538
0.00615599336326
0.00624985640368
0.00645068047153
0.00666934173074
0.00687600184537
0.00693132441614
0.00672058012201
0.00619992207686
0.00543266682377
0.00536737514116
0.00537225805015
0.0055230443066
0.00625838890288
0.00671310750225
0.006834534149
0.00668946333309
0.00642555001254
0.00620638214471
0.00583871325208
0.0056593011982
0.00562980626336
0.00576015051867
0.00612636387807
0.00643259854105
0.00678153381857
0.00696712973223
0.00682885828882
0.00631906394295
0.00552591320114
0.00545441892996
0.00535341488454
0.00552020763548
0.00624718428868
0.00666092718248
0.0066999332183
0.00644127538914
0.0061008253161
0.00589567955169
0.00499128380365
0.00466899858942
0.00462001671184
0.00476657111815
0.00553952359155
0.00599251923283
0.00650428836556
0.00684556705165
0.00680787522569
0.00633814837234
0.0055432838078
0.00546016867347
0.00531693272882
0.00548985720667
0.00620081888834
0.00657245224199
0.0065368756782
0.00619500812386
0.00609170729319
0.00587615947084
0.00400605823678
0.00379922279962
0.00381809612219
0.00401529590094
0.00550770639826
0.00548827621623
0.00617501386892
0.00666466221279
0.00672837250314
0.00630922246549
0.00552791651429
0.00543493854118
0.00529452526912
0.00546694374038
0.00616656895917
0.00651030688557
0.00641223810958
0.00591735050413
0.00529934017474
0.00443938991679
0.002650420003
0.00242237280847
0.00244169192204
0.00260792102662
0.00387850997424
0.00460221502919
0.00581795468135
0.00651388872841
0.00666587566009
0.0062847176587
0.00551362775241
0.00541371711332
0.00529847146356
0.00546821060672
0.00617042689044
0.0065180135028
0.0064232259621
0.00593042911202
0.00535386266033
0.0045761247745
0.00275642905905
0.00248040110927
0.0024478059555
0.00256920956623
0.00379876093067
0.0045362009946
0.00579889606265
0.00652143060526
0.00668216837533
0.00629875810125
0.0055183411318
0.00540893648402
0.00533393143133
0.00549754791128
0.00621704366125
0.00660010710499
0.00657132853377
0.00622582840859
0.00627619971342
0.00682256017588
0.00475793535419
0.00441346372057
0.00434956770395
0.00438067040313
0.0056303233968
0.00533463189631
0.00614860115218
0.00671059015664
0.00679395132575
0.00636209653917
0.00554908192554
0.00542853135886
0.0053996400595
0.00554785452166
0.00629200896018
0.00672823168592
0.00678580514051
0.00651109432477
0.00610121565672
0.00631422576985
0.00538524318895
0.00503192176701
0.00486257926905
0.00483857648237
0.00548743690131
0.00599034836441
0.00661577831005
0.00701038313934
0.00697239361238
0.00646178774089
0.00560181395091
0.00547251204302
0.00548632048274
0.0056046398552
0.00637096108394
0.00686488310701
0.00702529037813
0.006899047918
0.00660668411261
0.00634678241298
0.00600582879127
0.00585010360972
0.00584906971581
0.00600113537463
0.00636381262607
0.00675348334036
0.00715030866027
0.00733847955698
0.0071560109523
0.00656100646558
0.00565964240537
0.00553170823834
0.00556046231802
0.00564396042644
0.00642153854293
0.00696266908899
0.00721463423047
0.00722540524213
0.00708800300133
0.0069137352558
0.00675026469922
0.00667599755892
0.00671368605535
0.00685712209529
0.00709280916951
0.00735212183883
0.00756209890117
0.00757504542896
0.00727222609728
0.00661672893179
0.00569674735957
0.00557388533027
0.0055730280228
0.00563511903325
0.00640752959493
0.00697360501368
0.0072889371701
0.0073991834677
0.0073780126384
0.00730409741085
0.00723254005445
0.00720882154076
0.00725991917175
0.0073726805619
0.00752627023272
0.00767596067116
0.00774899921389
0.00763967884871
0.00726334876947
0.0065902847337
0.00568011546974
0.00555318693024
0.00547343828975
0.00553631109038
0.00628801180959
0.0068494482438
0.00719088982118
0.00735698973567
0.00740753555048
0.00740151157657
0.00738486346357
0.00739356734448
0.00744132925303
0.00751786995914
0.00760665678609
0.00767322207303
0.00765761124374
0.00748507915773
0.00709383821159
0.00644601769897
0.00556914883384
0.00542470107591
0.00519080312939
0.00529420389728
0.00601298244147
0.00654525769322
0.00687479081166
0.0070521212555
0.00713060964034
0.00715732173045
0.00716885705436
0.00718878646442
0.0072230355759
0.00726775166526
0.00731181737217
0.0073293879735
0.0072762736596
0.00709701377269
0.00673544230033
0.00613921391167
0.00531158166258
0.0051230153093
0.00463730310359
0.00484442329853
0.00552590416086
0.00601564855258
0.00631440051604
0.00647650248326
0.00655428624953
0.00658849387103
0.00660663850476
0.0066231013635
0.00664341495596
0.00666688357163
0.00668610249002
0.00668264178316
0.00662413792717
0.00646471585071
0.00614781293455
0.00561235361142
0.00484244623596
0.00456190059132
0.00369624278536
0.00414335503907
0.00481485497999
0.00526692857671
0.00553233038356
0.00567284510877
0.00573965179874
0.0057683801928
0.00578075237979
0.00578818237655
0.00579581574225
0.00580416901192
0.00580843256614
0.00579506715872
0.0057390560587
0.00560064754737
0.00532555571701
0.00484703147794
0.00412073055407
0.00363770051821
0.00237930107743
0.00366838038556
0.00460900006573
0.00518578716847
0.00551713943507
0.00569255852295
0.00577754938645
0.00581317363082
0.0058230591136
0.00582083531614
0.00581176943003
0.00579724355634
0.00577585619487
0.00573397441957
0.00564678362599
0.005469371285
0.00513966309242
0.00456982208869
0.00364258790247
0.00236795330939
0.00257488597353
0.00427163718546
0.00547402275557
0.00616886260059
0.00650681894639
0.00662184865323
0.00662552520134
0.00659302940107
0.00656491027667
0.00655233237934
0.00655556084808
0.00657162714853
0.00659937579224
0.00662812342844
0.00662603181708
0.00651904253147
0.00618526091066
0.00548216030182
0.00426305961055
0.00256444933716
0.00426829080398
0.0046548051181
0.00536147508393
0.00582349467782
0.00606509353377
0.00615721706947
0.00616634308659
0.00614210156789
0.00611531280054
0.0061005699124
0.00610156764347
0.00611715019532
0.00614237723127
0.00616466844237
0.0061565479281
0.00606889574487
0.00583197069833
0.00536561966973
0.00462870057692
0.00421198623071
0.00547698868633
0.0053630978409
0.00596337495541
0.0063952520678
0.00662630315296
0.00670522811487
0.00669270031339
0.00664427807885
0.00659478692568
0.00656641223102
0.00656452340535
0.00658791666627
0.00663227350982
0.00667776622128
0.00669183766836
0.00661654708245
0.00638761839868
0.00595199073557
0.00532083939358
0.00542406566519
0.00616562042873
0.005825609696
0.00640013915926
0.00682771561592
0.00704225584522
0.0070841207094
0.00702537986316
0.00693558740701
0.00683823993645
0.00678336811226
0.00677898741166
0.00682283224541
0.00691339762684
0.00700050469666
0.00706233577609
0.00702544132598
0.00681411869169
0.00638426427483
0.0057840427536
0.00614995095219
0.00648021454134
0.00606409076482
0.00663705978712
0.00705488855814
0.00723441157723
0.0072216359898
0.00711703275896
0.0070126102275
0.0068224241203
0.00672126331561
0.00671420784076
0.00679771969812
0.00698162930929
0.00708511039817
0.00720099365785
0.00722406447884
0.00704928980081
0.00662967403158
0.00603547577613
0.00651583404992
0.00657139026145
0.00614955229989
0.00672163789903
0.00711656799496
0.00724613711641
0.00717808514587
0.00709635969711
0.00722382555483
0.00676163597875
0.0065690061758
0.0065609268332
0.0067253551246
0.00719534305684
0.0070582650294
0.00715740121417
0.00724675331908
0.00712649777336
0.00673022004043
0.00613872955038
0.00665558679592
0.00655665279364
0.00615015754498
0.00671441372388
0.00707693316126
0.00715357571969
0.00706429166967
0.00733718437976
0.010642085784
0.00833997366526
0.00790654465696
0.00791240199466
0.00828452529088
0.0103528141854
0.0073494796252
0.00704755778406
0.00716117513875
0.00710200213306
0.00674057899764
0.00615725375537
0.006678473374
0.00651024154008
0.00611940388588
0.00667158602601
0.00699990803318
0.00702686369861
0.00698170737962
0.00982793428939
0.0102860222341
0.0070441772704
0.00704622678103
0.00703892611853
0.00671401994005
0.00614153433044
0.00665343810147
0.00648031245986
0.00609649689446
0.00663984760261
0.00694220447972
0.00690395513
0.0066586982972
0.0081384929382
0.00817686142869
0.00663488490844
0.00691143418368
0.00698801988155
0.00669406481571
0.00612761747023
0.00663106334862
0.00648782238347
0.00610078470291
0.00664669834719
0.00695268867371
0.0069175507549
0.00668304439988
0.00835165611465
0.00819312868451
0.00663841741771
0.00693038361693
0.00701159434414
0.0067128192999
0.00613552469274
0.00663412154117
0.00653936109379
0.00613686137204
0.00669690249091
0.0070353211558
0.00706669314832
0.00704919501048
0.0109459207473
0.010828705959
0.0071023454535
0.00712650782315
0.0071257609485
0.00678104441325
0.00617319320435
0.00667065228349
0.00663020087438
0.00619718007452
0.00677594201664
0.00715803630655
0.00724614403432
0.00711681149969
0.00720132709936
0.0109039487128
0.00886811840207
0.00853583192129
0.00860536184112
0.00905622484631
0.0111717464846
0.00746083554255
0.00722857585486
0.0073699910073
0.00729621097166
0.00688660499634
0.00623667149495
0.00674248213275
0.0067431151612
0.00626551835701
0.00686036787583
0.00729029748711
0.00745759365053
0.00740394360411
0.00726952337562
0.00728383925893
0.00690410620111
0.00674534401468
0.00675622984307
0.00692354062565
0.00733015760524
0.00739492465927
0.00756505991469
0.00764712168213
0.00747722496422
0.00699779847522
0.00630765344862
0.00682716482987
0.00682825657635
0.00631234704508
0.00691572615997
0.00738497370441
0.00762513199521
0.00766773061712
0.00759496875934
0.00749507474194
0.00734857634634
0.00727951244452
0.00730729800393
0.00742523626402
0.0076205604461
0.00777776677719
0.00789435272887
0.0078714667523
0.00761183916422
0.00707469547075
0.00635617932815
0.00688041670704
0.00682134257223
0.00630006530107
0.00690290397679
0.00739490597299
0.00768715559218
0.00780587597198
0.00781149086852
0.00776774888687
0.00771152248929
0.0076932372708
0.00772834123195
0.00781473379242
0.00793301677802
0.00803366304631
0.00806871628519
0.00796070795097
0.00763791783988
0.00707018046581
0.00634003568983
0.00683801697311
0.00666049906593
0.00618091304485
0.0067796976601
0.00727445594154
0.00759115619893
0.00775527239278
0.00781567707277
0.00782311962783
0.00781650693564
0.007825828345
0.00786237666927
0.00792378745982
0.00799427951047
0.0080403447937
0.0080144989226
0.00785570614207
0.00750792033009
0.00693832143464
0.00621064970601
0.00664303499244
0.00625863990965
0.00590056627873
0.00649832395909
0.00698444122421
0.00730005447435
0.00747741787894
0.00756184588879
0.00759588127187
0.007611383671
0.0076300833629
0.00766084024816
0.00770195084965
0.00774143751805
0.00775356710685
0.00769877872379
0.00752665982832
0.00718481291966
0.00663195587765
0.0059124467743
0.00621151102905
0.00550479174963
0.00539653930657
0.00601672981917
0.00649531314534
0.00680004148448
0.00697222373265
0.00705883673918
0.0070988625437
0.00711951786552
0.00713703434985
0.0071587387264
0.00718406646304
0.00720408569128
0.00719869866481
0.00713502410643
0.00696749616892
0.00664203925402
0.00610850129767
0.00538529410665
0.00543894276785
0.00425781445604
0.00463793211432
0.00535459266164
0.00585696669596
0.0061623388919
0.00633002155166
0.00641304532103
0.00645017596955
0.00646639289217
0.00647599407639
0.00648581157103
0.00649626366475
0.00650066849277
0.00648240198201
0.00641212584183
0.0062458778469
0.00592649063678
0.00538944131104
0.00460728460524
0.00420476661344
0.00255470824245
0.00421710453718
0.00546277376972
0.0062490037212
0.00671277964803
0.00696769254979
0.00709700913285
0.00715588530378
0.00717719247238
0.00717984352211
0.00717454059631
0.00716189057468
0.007136171445
0.00707794187679
0.00695008829386
0.00669304578461
0.00622799632088
0.00544632767358
0.00421032740701
0.00256527892075
0.00269229308481
0.00467108409368
0.00610227902823
0.00694710802213
0.00736763508698
0.00751278530147
0.00751180559706
0.00745900619747
0.00740976071653
0.00738292987703
0.00738239771086
0.00740660083877
0.00744980801515
0.00749334813537
0.00749216851571
0.00735398613792
0.0069390685126
0.00608966968992
0.00464677756615
0.00267444078159
0.0046657847747
0.00501944101756
0.00577754142429
0.00628566936145
0.00655696128269
0.00666171791192
0.00667181600477
0.00664348231163
0.00661164007329
0.00659433629898
0.00659718093718
0.00661901263055
0.00665265332889
0.006680969088
0.00667272093418
0.00657243294147
0.00630405290596
0.00578712923042
0.0049890464538
0.00458321910322
0.00610196664316
0.00577751604623
0.00635358487796
0.00678748324367
0.00702542168975
0.00711080297971
0.00710346829577
0.00705774656794
0.00700807903602
0.00698104270727
0.00698374797864
0.00701427637046
0.00706294539351
0.00710734997114
0.00711681617713
0.00703515365536
0.00679779358
0.00635373882159
0.00573165550939
0.00602014310883
0.00694005355132
0.00628444233959
0.0067903774007
0.00719436869465
0.00740550930116
0.00745650342531
0.00741296757682
0.00733416302855
0.00723664978716
0.00718323179457
0.00718500206395
0.00723657121316
0.00732930843234
0.00740326649585
0.00744920021567
0.00740421320443
0.00719783007131
0.00678892331743
0.00624256942284
0.00690372654702
0.00733604107215
0.00655136260404
0.00703253141206
0.00741532932074
0.00759274495059
0.00760350686304
0.00753835288317
0.00746122009626
0.00725686137599
0.00715014204129
0.00715149811978
0.00725171759057
0.00745024795897
0.00751550480311
0.00758822601053
0.00758936863928
0.00742196555047
0.00704081619174
0.00652864512296
0.00736604815181
0.00745882698723
0.00665062805079
0.0071224501356
0.00748156427048
0.00762099734109
0.00760806856394
0.00761959145595
0.00781173202735
0.0072519009821
0.00702418296992
0.00703043413195
0.00725284303565
0.00782446659403
0.00759528901053
0.00758813717514
0.00762272057078
0.0074994457301
0.00714735112834
0.00665268937208
0.00755627893531
0.00744701171959
0.00665573641288
0.00711985738267
0.00745219585668
0.00755887901315
0.00757530400255
0.00805002119548
0.0116277712388
0.00872464047745
0.00816264391149
0.00817564119882
0.00869278455146
0.011328137641
0.00809460175128
0.00756570598066
0.00756932654673
0.00748548239516
0.00716408417865
0.00668158406234
0.00759914788263
0.00739250477767
0.0066253114443
0.00708028434371
0.00738398836053
0.00745729045803
0.00756917116789
0.0107796446616
0.0109803837576
0.00764027916219
0.00749232541233
0.0074386305659