/*--------------------------------*- C++ -*----------------------------------*\
| =========                 |                                                 |
| \\      /  F ield         | OpenFOAM: The Open Source CFD Toolbox           |
|  \\    /   O peration     | Version:  v1606+                                |
|   \\  /    A nd           | Web:      www.OpenFOAM.com                      |
|    \\/     M anipulation  |                                                 |
\*---------------------------------------------------------------------------*/
FoamFile
{
    version     2.0;
    format      ascii;
    class       surfaceScalarField;
    location    "2.1";
    object      phi;
}
// * * * * * * * * * * * * * * * * * * * * * * * * * * * * * * * * * * * * * //

dimensions      [0 3 -1 0 0 0 0];

internalField   nonuniform List<scalar> 
33146
(
8.8689940673e-06
9.94789397043e-06
-1.88168785786e-05
1.75043562295e-05
9.72981165322e-06
-1.83651556174e-05
2.57672183965e-05
9.3504109197e-06
-1.76132410708e-05
3.34373181772e-05
8.9771937935e-06
-1.67151100149e-05
4.03484269718e-05
8.34987473893e-06
-1.59933976957e-05
4.6413149719e-05
7.4600654647e-06
-1.54845979585e-05
5.11779619322e-05
6.70009789571e-06
-1.40770545665e-05
5.44394227772e-05
6.12074898861e-06
-1.17900884113e-05
5.63312048156e-05
5.41815790956e-06
-9.18366584783e-06
5.68052823286e-05
4.64991487784e-06
-6.46357008055e-06
5.58830610978e-05
3.86636641326e-06
-3.74957576035e-06
5.35901748582e-05
3.06286250893e-06
-1.04125774596e-06
5.00453915349e-05
2.30086091986e-06
1.50679275638e-06
4.53623285453e-05
1.63656035768e-06
3.70436896708e-06
3.96423197369e-05
1.14993279185e-06
5.22025842698e-06
3.30530599324e-05
8.50321051164e-07
6.00506378364e-06
2.5798769054e-05
4.76243200044e-07
6.80743046876e-06
1.77543570507e-05
8.76044281775e-08
7.95685300878e-06
9.17127160227e-06
-3.96337596267e-08
8.62274252434e-06
1.67351812119e-07
9.00392920838e-06
8.59639471436e-06
1.97798749018e-05
-1.84283609193e-05
1.70744545237e-05
1.94925030475e-05
-1.82407258335e-05
2.52757774957e-05
1.87349331884e-05
-1.82177173153e-05
3.31646065251e-05
1.73847773351e-05
-1.97752730316e-05
4.04413550822e-05
1.53445437624e-05
-2.24636839629e-05
4.65355410613e-05
1.32533882029e-05
-2.37643901444e-05
5.13161223816e-05
1.14983463213e-05
-2.21387844073e-05
5.43540568929e-05
1.04250877438e-05
-1.79625715766e-05
5.60014633662e-05
9.04756152349e-06
-1.30630871151e-05
5.63106811523e-05
7.45347011896e-06
-8.06503058823e-06
5.53106974505e-05
5.79183709937e-06
-3.04372270152e-06
5.29955158906e-05
4.19201641752e-06
1.90181929976e-06
4.94906945921e-05
2.6746949068e-06
6.68081231684e-06
4.48216197574e-05
1.4211464858e-06
1.06186089291e-05
3.90767071573e-05
7.06437662807e-07
1.21963987184e-05
3.24549867566e-05
5.91363210376e-07
1.10157077442e-05
2.51392875461e-05
7.21042945576e-07
8.75613298409e-06
1.73111849881e-05
6.79309451389e-07
7.55380523711e-06
8.91558231606e-06
4.86633132697e-07
7.86935687892e-06
6.36359791824e-07
8.44658399304e-06
8.16517867981e-06
2.91356328773e-05
-1.75209170915e-05
1.64547717454e-05
2.85679002523e-05
-1.80751958611e-05
2.49051878379e-05
2.68562883379e-05
-2.18582884988e-05
3.34674101517e-05
2.39603386111e-05
-2.99587454743e-05
4.12831978396e-05
2.05714367788e-05
-3.75984286316e-05
4.76925139044e-05
1.74489138286e-05
-4.02496680522e-05
5.22096026065e-05
1.51416445063e-05
-3.66675911362e-05
5.48245563223e-05
1.3743068107e-05
-2.87684887724e-05
5.60798079734e-05
1.18235816255e-05
-1.97442669252e-05
5.6183793064e-05
9.30843463843e-06
-1.05493821504e-05
5.50387913268e-05
6.75295474242e-06
-1.28397825346e-06
5.27136120491e-05
4.30243109149e-06
7.86948285872e-06
4.92743715157e-05
2.12183066379e-06
1.67694142797e-05
4.4655827296e-05
5.24592423744e-07
2.41780902832e-05
3.88420703015e-05
-4.50025566462e-07
2.76371317657e-05
3.20497352687e-05
-4.24231886462e-07
2.51043975808e-05
2.45266246717e-05
1.54181967257e-07
1.8082446609e-05
1.6686727423e-05
9.45895604161e-07
1.08142261625e-05
8.56443518506e-06
1.29929848971e-06
7.70532577775e-06
1.35243504187e-06
7.84837009022e-06
7.72417121418e-06
3.76164218727e-05
-1.6301612446e-05
1.60670101682e-05
3.64146437418e-05
-2.01240067229e-05
2.51171375147e-05
3.34794968116e-05
-3.17020144746e-05
3.41675180299e-05
2.92928292709e-05
-4.71439539097e-05
4.21974225641e-05
2.49883368669e-05
-5.83589342568e-05
4.85469257398e-05
2.12930303056e-05
-6.08023697101e-05
5.32123103812e-05
1.851464031e-05
-5.42669230825e-05
5.5134813435e-05
1.75824614889e-05
-4.15805868578e-05
5.58437056525e-05
1.51851812509e-05
-2.76353519103e-05
5.5612327835e-05
1.16365412562e-05
-1.34077506796e-05
5.44193903804e-05
7.92739381184e-06
9.61326450732e-07
5.21683677063e-05
4.58634087822e-06
1.51638049176e-05
4.89305236517e-05
1.85529512134e-06
2.89549496139e-05
4.45326760088e-05
2.86554283014e-08
4.08812233443e-05
3.8799638222e-05
-1.08572547944e-06
4.73145029135e-05
3.19542331977e-05
-1.09356418069e-06
4.50640693826e-05
2.42983843776e-05
-3.82712368269e-07
3.46275225342e-05
1.61985950445e-05
9.49920717455e-07
2.03560128384e-05
8.1463447774e-06
2.14647023122e-06
9.90098024761e-06
2.56681496301e-06
6.99009735054e-06
7.29619281448e-06
4.48250573658e-05
-1.5635373978e-05
1.58154396042e-05
4.29747180502e-05
-2.51283239787e-05
2.50950018412e-05
3.91158409285e-05
-4.48549280888e-05
3.42509896048e-05
3.41020278449e-05
-6.58172276299e-05
4.23432615098e-05
2.93952206249e-05
-7.90207944617e-05
4.88135152386e-05
2.55296354444e-05
-8.01570606473e-05
5.33465305422e-05
2.29522549159e-05
-7.0226603743e-05
5.41939764941e-05
2.32460163233e-05
-5.28076302294e-05
5.40759719964e-05
2.04659171393e-05
-3.45572768119e-05
5.37355960616e-05
1.52252857537e-05
-1.57408198699e-05
5.28401409438e-05
1.00769977706e-05
3.15550666991e-06
5.13422450881e-05
5.45890488739e-06
2.193710865e-05
4.89032011065e-05
2.2161937844e-06
4.02920578385e-05
4.4683076715e-05
8.92215936304e-07
5.65150488767e-05
3.89391725883e-05
-1.8460075806e-07
6.63147919131e-05
3.20258105322e-05
-4.50893249525e-07
6.54480136482e-05
2.43066709314e-05
3.22940543482e-08
5.31694592387e-05
1.60421591495e-05
1.47340404218e-06
3.36330810308e-05
7.80477426807e-06
3.22014114868e-06
1.5340650544e-05
4.12653467477e-06
6.98679967818e-06
6.82275583738e-06
5.07857144492e-05
-1.56365071551e-05
1.53360163019e-05
4.83385234205e-05
-3.05718235896e-05
2.47194522812e-05
4.40214814573e-05
-5.63069957147e-05
3.38376824129e-05
3.87933437797e-05
-8.0724868363e-05
4.16552837595e-05
3.4343544548e-05
-9.44331778256e-05
4.79740766517e-05
3.10254369928e-05
-9.40311653793e-05
5.27126979282e-05
2.95070418056e-05
-8.17983445395e-05
5.21626098163e-05
3.27851706905e-05
-6.11408120638e-05
5.11502078087e-05
2.99331979365e-05
-4.05890386219e-05
5.06307463382e-05
2.25477891553e-05
-1.89196078368e-05
4.99017445911e-05
1.57702131987e-05
2.93682404284e-06
4.93299480439e-05
9.19002471054e-06
2.47593296327e-05
4.78251886085e-05
5.11058080885e-06
4.65466522991e-05
4.36514316979e-05
4.07574840373e-06
6.70976544089e-05
3.82076809587e-05
2.25075652488e-06
8.04583999427e-05
3.16928301007e-05
1.31079771877e-06
8.16194319225e-05
2.41650571178e-05
1.51794861106e-06
6.87893931567e-05
1.59147971397e-05
2.89491153837e-06
4.58428846469e-05
7.67172786243e-06
4.89087111241e-06
2.16573183641e-05
6.28805335681e-06
7.91469781899e-06
6.37689510534e-06
5.53460446419e-05
-1.49505660701e-05
1.44611974432e-05
5.28327430724e-05
-3.32052206387e-05
2.34456493958e-05
4.84038817186e-05
-6.18049492729e-05
3.22405984647e-05
4.33359638456e-05
-8.78044253662e-05
4.00848057485e-05
3.89699572296e-05
-0.000101269883624
4.74395648869e-05
3.52252040061e-05
-9.92137223582e-05
5.38711031767e-05
3.32721411686e-05
-8.40322333889e-05
4.89008848814e-05
3.80202158812e-05
-5.40482893351e-05
4.55826470362e-05
3.36564460813e-05
-3.28498888466e-05
4.47287530953e-05
2.38865772531e-05
-1.15911855681e-05
4.47960091867e-05
1.58459580048e-05
1.00892982514e-05
4.52277663224e-05
8.30133631808e-06
3.20278276012e-05
4.53437836103e-05
4.07407625166e-06
5.38299901666e-05
4.24632292128e-05
5.38971480481e-06
7.4356064781e-05
3.77492794101e-05
4.70631116505e-06
8.84951564157e-05
3.14248862589e-05
3.99223771881e-06
9.08067724331e-05
2.39381305066e-05
4.19103454008e-06
7.77888612559e-05
1.57476400341e-05
5.43281068405e-06
5.2997985851e-05
7.50809076678e-06
7.46971248889e-06
2.56821372911e-05
9.08192769371e-06
8.54741169735e-06
5.77117021872e-06
5.84046794358e-05
-1.31297799591e-05
1.32906238085e-05
5.59588489401e-05
-3.22009866763e-05
2.15959663995e-05
5.18082434822e-05
-6.15757692314e-05
2.98586738114e-05
4.71062960512e-05
-8.80922065967e-05
3.74666481689e-05
4.31411455624e-05
-0.000101978724614
4.60326972389e-05
3.97207754271e-05
-0.000101674235731
5.55616208885e-05
3.61452472904e-05
-8.67083520081e-05
4.59079979263e-05
3.6081766002e-05
-4.23100973358e-05
4.07524050809e-05
3.21986505035e-05
-2.57048914194e-05
3.88663544525e-05
2.62972723808e-05
-1.12590380372e-05
3.89987717507e-05
2.13418197617e-05
5.22121013058e-06
4.02914164882e-05
1.63737452809e-05
2.306832042e-05
4.43572659244e-05
1.28239613365e-05
4.12015305047e-05
3.94702048247e-05
1.0673196253e-05
7.40110374296e-05
3.53961774914e-05
8.16011502864e-06
8.92749743817e-05
2.98287031391e-05
7.03402905253e-06
9.270680195e-05
2.29425321352e-05
7.15112646553e-06
7.99616988472e-05
1.51669006319e-05
8.41125387177e-06
5.467491232e-05
7.2329277469e-06
1.04772468477e-05
2.6510750575e-05
1.22249021683e-05
8.40288176073e-06
5.13565498186e-06
5.98200979238e-05
-1.08510586228e-05
1.19604413828e-05
5.7404452662e-05
-2.98258292071e-05
1.9626467123e-05
5.33765463197e-05
-5.91004036745e-05
2.7242135591e-05
4.88585181094e-05
-8.54270627437e-05
3.4340981866e-05
4.50027354115e-05
-9.91599947484e-05
4.29255126675e-05
4.13875995604e-05
-9.88639540591e-05
5.2374239381e-05
3.64122467874e-05
-8.40220183562e-05
4.06626012198e-05
3.17286921797e-05
-3.78374106296e-05
3.43077257694e-05
2.70126349824e-05
-2.07773299404e-05
3.22587296098e-05
2.39789192839e-05
-6.36697970042e-06
3.36611256543e-05
2.09549080466e-05
9.83407066956e-06
3.61972541603e-05
1.85741287989e-05
2.76969258266e-05
4.20361527734e-05
1.67081071394e-05
4.42942804705e-05
3.80525535113e-05
1.39487821764e-05
7.51155199175e-05
3.4408720272e-05
1.12833024191e-05
8.91754348081e-05
2.89896982541e-05
1.01680565132e-05
9.24661381262e-05
2.22848169582e-05
1.02124561961e-05
7.96791811916e-05
1.4731384131e-05
1.14421598603e-05
5.4400246436e-05
6.98353363882e-06
1.35521838267e-05
2.62572099259e-05
1.54315061052e-05
8.08984236611e-06
4.46315099412e-06
5.97223032316e-05
-8.66535438141e-06
1.05337652867e-05
5.7313414659e-05
-2.75350288124e-05
1.75324411166e-05
5.32455894319e-05
-5.67338035014e-05
2.45558179558e-05
4.8713249873e-05
-8.29372832338e-05
3.12297519826e-05
4.47934673954e-05
-9.66642176842e-05
3.94719757981e-05
4.06873926024e-05
-9.61545988785e-05
4.77748543686e-05
3.52910898389e-05
-8.14879853474e-05
3.68930302906e-05
2.59732831355e-05
-3.72648500225e-05
3.10426408487e-05
2.15189550638e-05
-2.09741045564e-05
2.90076445641e-05
2.2132165305e-05
-6.85252723475e-06
2.97545331541e-05
2.22172352106e-05
8.84039288581e-06
3.19945726113e-05
2.25743369259e-05
2.61932442125e-05
3.84577948865e-05
2.16601433436e-05
4.26021161553e-05
3.54837372532e-05
1.725863552e-05
7.40717514191e-05
3.25291535824e-05
1.408684133e-05
8.88058636136e-05
2.77276506359e-05
1.2807930726e-05
9.2342789317e-05
2.14727557698e-05
1.28478450257e-05
7.96551391819e-05
1.42599873388e-05
1.40938274437e-05
5.44388114835e-05
6.74241167462e-06
1.63411511385e-05
2.63128863712e-05
1.83855052363e-05
8.10130831513e-06
3.76483815206e-06
5.83234482991e-05
-6.66599657017e-06
9.05678845298e-06
5.58756353266e-05
-2.54096384642e-05
1.51754128053e-05
5.17780133955e-05
-5.45171422179e-05
2.12921238018e-05
4.71466653375e-05
-8.06093016838e-05
2.7292030721e-05
4.2805703507e-05
-9.42116853189e-05
3.48737813731e-05
3.7932147632e-05
-9.34390676565e-05
4.23029249014e-05
3.18252209317e-05
-7.82695094621e-05
3.27666482273e-05
1.90789772742e-05
-3.74714616816e-05
2.69516055122e-05
1.58011350264e-05
-2.07852660333e-05
2.56556132829e-05
1.84971885783e-05
-5.80325878322e-06
2.73174567997e-05
2.14780974622e-05
9.92695525669e-06
3.04222956028e-05
2.45914638406e-05
2.73115769904e-05
3.64447009318e-05
2.56349915465e-05
4.40201670491e-05
3.38078702318e-05
1.99474925546e-05
7.43555543673e-05
3.10877728958e-05
1.64040758525e-05
8.90577027211e-05
2.65592725692e-05
1.49846273624e-05
9.25329722788e-05
2.07022414572e-05
1.48311203198e-05
7.99093853484e-05
1.38274740114e-05
1.61379670732e-05
5.4708325472e-05
6.60145605508e-06
1.85390124722e-05
2.66124153703e-05
2.08364129335e-05
8.46342807938e-06
2.97946416348e-06
5.5824457401e-05
-4.30163029111e-06
7.44742661775e-06
5.3488522007e-05
-2.20729115908e-05
1.2707167739e-05
4.96173482343e-05
-5.04275609895e-05
1.80372411694e-05
4.51013663509e-05
-7.62737543147e-05
2.27687000852e-05
4.11396957924e-05
-9.0237547006e-05
2.65817754908e-05
3.80633109312e-05
-9.01320908266e-05
2.77107739716e-05
3.43126564164e-05
-7.62997529599e-05
2.81459163632e-05
2.96262829212e-05
-6.37719083102e-05
2.85383181793e-05
2.75066140584e-05
-4.35487122517e-05
2.91951556381e-05
2.8220932855e-05
-2.04927996296e-05
2.93582596703e-05
2.84946019962e-05
4.04677204832e-06
3.00190033718e-05
2.81578792866e-05
2.83378081122e-05
3.24003039327e-05
2.58065931184e-05
5.13506422602e-05
3.0824314113e-05
2.12560709916e-05
7.42047977205e-05
2.86974067179e-05
1.78626599354e-05
8.8370581019e-05
2.49308814354e-05
1.6352660477e-05
9.11855773457e-05
1.96170929877e-05
1.62872854588e-05
7.83081281447e-05
1.32523424133e-05
1.76451887039e-05
5.33110400645e-05
6.39419844285e-06
2.01799566743e-05
2.58727256288e-05
2.2607483235e-05
8.64849343611e-06
2.21646726443e-06
5.22782636758e-05
-1.06616910275e-06
5.78706015433e-06
5.03906233812e-05
-1.5528926225e-05
1.02920253921e-05
4.70058536219e-05
-4.0876538045e-05
1.50565531804e-05
4.283458122e-05
-6.52289433993e-05
1.97157590695e-05
3.86130842608e-05
-7.89741568786e-05
2.40265919652e-05
3.52172095218e-05
-7.88423937788e-05
2.68623712632e-05
3.1421485611e-05
-6.5926677745e-05
2.67347263653e-05
2.86310164791e-05
-4.66711106737e-05
2.57847248821e-05
2.6563995357e-05
-2.58837524142e-05
2.57667940901e-05
2.53652994063e-05
-4.88517694055e-06
2.638282579e-05
2.42652974657e-05
1.58721438641e-05
2.75267247068e-05
2.32981611103e-05
3.59922864589e-05
2.8691150608e-05
2.15691291872e-05
5.5367088186e-05
2.798857701e-05
1.94463844103e-05
7.31367074998e-05
2.61715206263e-05
1.75587339904e-05
8.43995421126e-05
2.28399395403e-05
1.67961039852e-05
8.45713484819e-05
1.81393919897e-05
1.71857115564e-05
7.07272270925e-05
1.23546155787e-05
1.87772199692e-05
4.6698113565e-05
6.0829941073e-06
2.12087544076e-05
2.19652156537e-05
2.34666758009e-05
8.08547779081e-06
1.60288158956e-06
4.75023669078e-05
2.43454565014e-06
4.25671467488e-06
4.62497204374e-05
-6.66742778761e-06
7.97861008978e-06
4.37486826338e-05
-2.63146808479e-05
1.21998022893e-05
4.03091428892e-05
-4.75095975537e-05
1.63631438238e-05
3.65952937227e-05
-6.12524270139e-05
2.02396646279e-05
3.32546493815e-05
-6.32744771908e-05
2.24732678472e-05
3.04747545068e-05
-5.42861532324e-05
2.36206491593e-05
2.86144225852e-05
-3.91672141706e-05
2.42428148313e-05
2.68212660779e-05
-2.20137062155e-05
2.45169202723e-05
2.5477583236e-05
-4.61852136825e-06
2.48424610773e-05
2.39454224727e-05
1.26643185951e-05
2.53444710453e-05
2.24921130658e-05
2.98761205485e-05
2.58333341742e-05
2.06114588569e-05
4.69429735132e-05
2.52605586313e-05
1.88939438562e-05
6.25365132153e-05
2.34801012948e-05
1.75764728566e-05
7.13157009034e-05
2.04280256291e-05
1.7285164971e-05
6.91459944184e-05
1.62578263781e-05
1.79357837722e-05
5.53166475517e-05
1.11787611859e-05
1.94742286132e-05
3.43594543183e-05
5.64503309907e-06
2.14173799696e-05
1.53958578731e-05
2.31698394967e-05
7.07568605585e-06
1.23680737825e-06
4.15133811069e-05
4.69427034754e-06
3.117803639e-06
4.08479959786e-05
8.35702967612e-07
5.92268907136e-06
3.93888160211e-05
-1.06702995725e-05
9.41340149118e-06
3.69764909399e-05
-2.65296487288e-05
1.30516208822e-05
3.41243729624e-05
-3.86212390147e-05
1.63408293916e-05
3.13125609862e-05
-4.21572534289e-05
1.85901488791e-05
2.89925480152e-05
-3.65792494668e-05
2.01925863418e-05
2.71239752052e-05
-2.53722937592e-05
2.11530799518e-05
2.56474159269e-05
-1.27930480778e-05
2.18163239573e-05
2.43302220325e-05
-2.68406547269e-07
2.22410869924e-05
2.29827051163e-05
1.20392909308e-05
2.25399852056e-05
2.16449594493e-05
2.43034345067e-05
2.25899024363e-05
2.01035374395e-05
3.64670131641e-05
2.1961005942e-05
1.86913408734e-05
4.72328679921e-05
2.0266713174e-05
1.7799586056e-05
5.22094247311e-05
1.75813411801e-05
1.77278196526e-05
4.82433534202e-05
1.40122799667e-05
1.83522460774e-05
3.5971799902e-05
9.78344335544e-06
1.9370816012e-05
2.03938773028e-05
5.28383304682e-06
2.03301494477e-05
9.53211975347e-06
2.16966693146e-05
6.85387950619e-06
1.02430599802e-06
3.45783997803e-05
5.91058557968e-06
2.41189749895e-06
3.4083820965e-05
4.9831101047e-06
4.49463634415e-06
3.34051494156e-05
6.75070419154e-07
7.15928827286e-06
3.21966231258e-05
-7.83596745299e-06
1.01062979482e-05
3.0417548798e-05
-1.64610674042e-05
1.2936510599e-05
2.84334350706e-05
-2.050640903e-05
1.51134969773e-05
2.67817442636e-05
-1.84887399734e-05
1.65909420493e-05
2.54081344417e-05
-1.23886347155e-05
1.76790674883e-05
2.4216364818e-05
-5.16149298668e-06
1.84398317483e-05
2.31254863051e-05
2.0621496386e-06
1.89144059426e-05
2.20025383854e-05
9.24635051957e-06
1.9172460278e-05
2.09001804414e-05
1.63500480059e-05
1.90999153646e-05
1.97391540957e-05
2.34228078444e-05
1.84663407621e-05
1.85707033375e-05
2.94004785136e-05
1.69691965576e-05
1.78773852256e-05
3.11723545475e-05
1.47042667967e-05
1.7694074738e-05
2.69264562076e-05
1.18684326013e-05
1.77926113816e-05
1.82557647105e-05
8.65892046861e-06
1.783605942e-05
1.00457456339e-05
5.01230242774e-06
1.80434874845e-05
6.64570624753e-06
1.92345432117e-05
7.47432848404e-06
8.3546899105e-07
2.68305893035e-05
6.91225191833e-06
2.04185850098e-06
2.64044327302e-05
6.47289671858e-06
3.64382792985e-06
2.59285147018e-05
5.55950830933e-06
5.6071578924e-06
2.54035475215e-05
3.15625659232e-06
7.8597267617e-06
2.4676686076e-05
-6.16586104504e-07
1.01062181014e-05
2.36764720359e-05
-3.44541864407e-06
1.20500746448e-05
2.26593428696e-05
-3.48722465585e-06
1.35778937235e-05
2.17369774981e-05
-1.33304136456e-06
1.47656781241e-05
2.09060735502e-05
1.48017775731e-06
1.56374447742e-05
2.01466257188e-05
4.29880514179e-06
1.61775520194e-05
1.93420693286e-05
7.14610209408e-06
1.63455160699e-05
1.86527103473e-05
9.93926653094e-06
1.62541772483e-05
1.78144705433e-05
1.27097988398e-05
1.56080082999e-05
1.70365684805e-05
1.48081643419e-05
1.43350799956e-05
1.64430177262e-05
1.46352981641e-05
1.25513235186e-05
1.59311856949e-05
1.17684696965e-05
1.04239383018e-05
1.53334206661e-05
8.07719687422e-06
7.92916060331e-06
1.48739586282e-05
6.09101074404e-06
4.74562754227e-06
1.49612011101e-05
6.26569898911e-06
1.59442798995e-05
8.03578906297e-06
7.08195981527e-07
1.83754825178e-05
7.74682342172e-06
1.84750573947e-06
1.80271124545e-05
7.23790911853e-06
3.20661599195e-06
1.76891744643e-05
6.88011933915e-06
4.82201533697e-06
1.72538065165e-05
6.50520900597e-06
6.60740896419e-06
1.68383485193e-05
5.790218553e-06
8.47544451457e-06
1.63423523136e-05
4.82540354215e-06
1.02481995952e-05
1.58204013796e-05
4.42269092556e-06
1.17992090923e-05
1.5262593557e-05
4.6763928964e-06
1.30960783984e-05
1.47249622375e-05
5.17142068603e-06
1.40973823569e-05
1.42405410608e-05
5.72611595269e-06
1.47045367472e-05
1.38050643536e-05
6.28533823604e-06
1.4976778295e-05
1.3436279048e-05
6.8338275209e-06
1.48200793554e-05
1.30704778334e-05
7.32448016819e-06
1.42154900088e-05
1.26851605797e-05
7.58253745626e-06
1.31291180113e-05
1.23140834722e-05
7.18464074138e-06
1.16509624317e-05
1.18667641825e-05
6.27840628343e-06
9.80899118097e-06
1.143594271e-05
5.80751984595e-06
7.49669437194e-06
1.11269128679e-05
6.05923344573e-06
4.48224297128e-06
1.11357380177e-05
6.83978689685e-06
1.17512632459e-05
8.67515272482e-06
7.50019804802e-07
9.40410853292e-06
8.22126557477e-06
1.81700553677e-06
9.18462066022e-06
7.77540262653e-06
3.0903513865e-06
8.98463226189e-06
7.43108041231e-06
4.55841807993e-06
8.7015821269e-06
7.08402781603e-06
6.14269213505e-06
8.45455105596e-06
6.79937942078e-06
7.83368739972e-06
8.1170465218e-06
6.53415482138e-06
9.58449826359e-06
7.75907742281e-06
6.31034963888e-06
1.12310558807e-05
7.46323759344e-06
6.15263111342e-06
1.26806410445e-05
7.16210210507e-06
6.11310685775e-06
1.38491153267e-05
6.91899495189e-06
6.15290480095e-06
1.46466657319e-05
6.76094799791e-06
6.2464020895e-06
1.49979418189e-05
6.70887128228e-06
6.37597414517e-06
1.4900708222e-05
6.69399585107e-06
6.47356852601e-06
1.43469081818e-05
6.69577519272e-06
6.5430520283e-06
1.33290347573e-05
6.74650226639e-06
6.58533488012e-06
1.18332566841e-05
6.72043861789e-06
6.64199292044e-06
9.87316566959e-06
6.61195392678e-06
6.7839691291e-06
7.44220195443e-06
6.41128956409e-06
7.1464658852e-06
4.30667987849e-06
6.26703081231e-06
8.00409049941e-06
6.49754950558e-06
9.56028388318e-06
1.01225400365e-06
8.39178327255e-06
2.09306407716e-06
8.10372822405e-06
3.22829164477e-06
7.84931093887e-06
4.52040153255e-06
7.40936491244e-06
6.03457683083e-06
6.94025380573e-06
7.7116135069e-06
6.43987432653e-06
9.48223676198e-06
5.98830792297e-06
1.13167328517e-05
5.62858827306e-06
1.29897280215e-05
5.48895060446e-06
1.44014541156e-05
5.50711327971e-06
1.54724048901e-05
5.68984644621e-06
1.60701975763e-05
6.11093690034e-06
1.61669308362e-05
6.59713388165e-06
1.56520740391e-05
7.21051823146e-06
1.4600485315e-05
7.79799079893e-06
1.29602826497e-05
8.36054948784e-06
1.07712716984e-05
8.80087358731e-06
7.98968207636e-06
9.19277978806e-06
4.46439942743e-06
9.7922064202e-06
1.09618768627e-05
9.02923659595e-06
1.01421141639e-05
-3.79882172788e-05
1.77386836633e-05
1.00912937073e-05
-3.71658750365e-05
2.61043868441e-05
9.72401221857e-06
-3.57029197118e-05
3.38564666834e-05
9.29952710322e-06
-3.39067333002e-05
4.10190544619e-05
8.38900088749e-06
-3.22984024942e-05
4.71167836309e-05
6.9599951733e-06
-3.03925058159e-05
5.19209818663e-05
5.66808466034e-06
-2.71917330445e-05
5.52562805988e-05
4.88411846758e-06
-2.28136240995e-05
5.71953049273e-05
4.15284557956e-06
-1.79370080631e-05
5.77175705009e-05
3.36261882745e-06
-1.28672843342e-05
5.68016093e-05
2.53497378146e-06
-7.74477599784e-06
5.45126252577e-05
1.69338882209e-06
-2.67920547005e-06
5.09275787358e-05
8.54937169433e-07
2.1460068412e-06
4.61091132683e-05
2.32304058333e-07
6.44976040852e-06
4.02887798343e-05
1.2373653994e-07
9.68904841189e-06
3.35683569846e-05
4.10632379933e-07
1.18868589446e-05
2.60591321231e-05
4.37602022985e-07
1.38800188868e-05
1.79059392717e-05
1.7648155505e-07
1.59336082107e-05
9.119090531e-06
-2.36090657575e-08
1.74332220552e-05
-1.33110248412e-07
1.82561380056e-05
8.72986161201e-06
2.01481930744e-05
-3.71642845315e-05
1.73589865192e-05
1.99931164818e-05
-3.67716460806e-05
2.57435080835e-05
1.90381870039e-05
-3.64500092857e-05
3.37814793261e-05
1.67188512526e-05
-3.76606152436e-05
4.11677475946e-05
1.30051982355e-05
-3.95988372255e-05
4.75225067723e-05
9.15178244183e-06
-3.96476560179e-05
5.23299223073e-05
6.26674609583e-06
-3.60692041165e-05
5.54808497996e-05
4.75981329076e-06
-2.95997415732e-05
5.72471749208e-05
3.3907501793e-06
-2.22247560871e-05
5.76563126271e-05
1.80352717861e-06
-1.4619408122e-05
5.6724270505e-05
1.35420180932e-07
-6.96334727279e-06
5.44894349378e-05
-1.53221893361e-06
5.64159630063e-07
5.10363721862e-05
-3.14094157177e-06
7.78477428854e-06
4.62825307097e-05
-4.25838200121e-06
1.39364577822e-05
4.02333309717e-05
-4.15363601351e-06
1.73763869999e-05
3.32035673204e-05
-2.64706015982e-06
1.74667087677e-05
2.55724139269e-05
-7.47492502346e-07
1.59521860326e-05
1.74548198519e-05
3.58350032865e-07
1.52341647105e-05
8.93807983667e-06
3.67950047251e-07
1.59945567113e-05
1.65729150312e-07
1.70858321274e-05
8.2946056165e-06
2.97063607227e-05
-3.53736678384e-05
1.68227516789e-05
2.89716240875e-05
-3.61541149038e-05
2.56202112848e-05
2.60399514359e-05
-4.04246170402e-05
3.43810690262e-05
2.05069409933e-05
-4.86798898185e-05
4.23783818964e-05
1.38878080326e-05
-5.5697404911e-05
4.89688026861e-05
7.80368086518e-06
-5.68915946328e-05
5.37417943951e-05
3.5207028155e-06
-5.12141718819e-05
5.66491366221e-05
1.52787309286e-06
-4.08638845671e-05
5.81759691739e-05
-3.49498225468e-07
-2.91827622919e-05
5.84338548349e-05
-2.72150650756e-06
-1.71660585501e-05
5.74946948483e-05
-5.24087534795e-06
-5.08425216004e-06
5.53674816758e-05
-7.70891815409e-06
6.82577125835e-06
5.20865918979e-05
-9.98271434089e-06
1.83125685193e-05
4.73844659666e-05
-1.14957303033e-05
2.80849028105e-05
4.11061902149e-05
-1.11092299017e-05
3.35095821396e-05
3.35695472723e-05
-8.43546038051e-06
3.24117004913e-05
2.53416585987e-05
-4.54729311033e-06
2.60199999003e-05
1.69551920189e-05
-9.56062939589e-07
1.87588973345e-05
8.59860922046e-06
7.6236747848e-07
1.54507493883e-05
8.01383863706e-07
1.58113321506e-05
7.95967363307e-06
3.83242733622e-05
-3.30651747147e-05
1.66725950495e-05
3.61499096767e-05
-3.78281310607e-05
2.61561363723e-05
3.03847211753e-05
-5.05534660933e-05
3.55608834267e-05
2.18910047143e-05
-6.63025929785e-05
4.39788990358e-05
1.2837219776e-05
-7.67923311477e-05
5.0873326809e-05
4.98051844369e-06
-7.76657030477e-05
5.57140458849e-05
-2.78894071732e-07
-6.8867997739e-05
5.81223146877e-05
-2.02596808948e-06
-5.36618628221e-05
5.9299410888e-05
-4.34412885548e-06
-3.70445674613e-05
5.93688642839e-05
-7.53809235205e-06
-1.98872611988e-05
5.84222367528e-05
-1.09360942443e-05
-2.62335141914e-06
5.64522214025e-05
-1.42008890891e-05
1.43993986942e-05
5.33866902569e-05
-1.706320296e-05
3.08747216794e-05
4.88634516181e-05
-1.88258674239e-05
4.51115662618e-05
4.24556360606e-05
-1.82427780966e-05
5.36583149275e-05
3.45687572939e-05
-1.47240998288e-05
5.2953115019e-05
2.57606807485e-05
-9.23972954404e-06
4.32763853692e-05
1.67446160933e-05
-3.40244399342e-06
2.88311568562e-05
8.20825613575e-06
6.95581925539e-07
1.75696958637e-05
1.85812876447e-06
1.41884408997e-05
7.69328361376e-06
4.53807213191e-05
-3.11816482949e-05
1.68080280027e-05
4.14936015459e-05
-4.23153613142e-05
2.67905090659e-05
3.33550702354e-05
-6.3587569843e-05
3.65830887442e-05
2.26200113116e-05
-8.48899339564e-05
4.52286728433e-05
1.18278015391e-05
-9.71505392233e-05
5.23145436357e-05
2.98945330459e-06
-9.66022788033e-05
5.72675941668e-05
-2.47936185577e-06
-8.44189773143e-05
5.89384915572e-05
-2.85759095405e-06
-6.44913768011e-05
5.94530068246e-05
-5.61395173459e-06
-4.35902337378e-05
5.93047654998e-05
-1.00850168462e-05
-2.17777007738e-05
5.84635635771e-05
-1.467281892e-05
5.76164058791e-08
5.69159769154e-05
-1.89710991832e-05
2.16353314066e-05
5.4355423016e-05
-2.23714368177e-05
4.2597527588e-05
5.01786465081e-05
-2.38830523236e-05
6.07357491695e-05
4.37117119142e-05
-2.3174730289e-05
7.28008687108e-05
3.5665042551e-05
-1.93773747827e-05
7.35798053334e-05
2.64736193752e-05
-1.29508066717e-05
6.22431672639e-05
1.6947101655e-05
-5.48625437091e-06
4.25388824504e-05
7.98751857097e-06
6.39776278059e-07
2.30299596659e-05
3.18442905506e-06
1.354224967e-05
7.49799402392e-06
5.10619664649e-05
-2.97744854093e-05
1.67563077237e-05
4.58588584896e-05
-4.69160349706e-05
2.69536497119e-05
3.6081077219e-05
-7.42782367334e-05
3.68163912209e-05
2.4051926912e-05
-9.90438085926e-05
4.53966126637e-05
1.25365566743e-05
-0.000111792038188
5.25032554902e-05
3.69103043279e-06
-0.000109669452771
5.7536751538e-05
-8.8977488116e-07
-9.52996006037e-05
5.80690201023e-05
1.8555407937e-06
-7.2340444228e-05
5.79652662356e-05
-1.18199164792e-06
-5.00601746877e-05
5.77198150661e-05
-7.36703788948e-06
-2.57237551407e-05
5.71559176261e-05
-1.3615382601e-05
-1.07701487482e-06
5.65870377316e-05
-1.99685497378e-05
2.36166897843e-05
5.50361840046e-05
-2.44414816824e-05
4.82699213413e-05
5.08169558372e-05
-2.42153032181e-05
7.01535791697e-05
4.41615342064e-05
-2.41390689211e-05
8.64974056001e-05
3.61985156338e-05
-2.09067528397e-05
8.94933323219e-05
2.69237620423e-05
-1.42838607683e-05
7.78982378459e-05
1.71760399049e-05
-5.95417335949e-06
5.48560825283e-05
7.92963047228e-06
1.43014251929e-06
2.93906401154e-05
5.14798951403e-06
1.38485730121e-05
7.19494891068e-06
5.5467338596e-05
-2.72141469097e-05
1.62494178205e-05
4.97187719614e-05
-4.79393091777e-05
2.6290028311e-05
3.93727372308e-05
-7.83971989196e-05
3.6113224536e-05
2.68526780348e-05
-0.00010487565747
4.48833232619e-05
1.5030203489e-05
-0.000117410356496
5.29926087225e-05
5.94009384254e-06
-0.000113631089886
5.92657756111e-05
1.57816928156e-06
-9.53044978294e-05
5.68308399837e-05
7.43420107135e-06
-5.87061036344e-05
5.50616148406e-05
2.59917852967e-06
-3.59957372084e-05
5.38619619275e-05
-6.79168542985e-06
-1.17205995143e-05
5.33018701717e-05
-1.54250154265e-05
1.20855007992e-05
5.29325017948e-05
-2.3573528727e-05
3.60088516337e-05
5.12369967581e-05
-2.84138967981e-05
5.98847941453e-05
4.85390187468e-05
-2.42097575879e-05
7.79397472033e-05
4.31466977697e-05
-2.33305106091e-05
9.44632796712e-05
3.59467513636e-05
-1.98044596698e-05
9.85445280824e-05
2.68996483744e-05
-1.28139799692e-05
8.6814626965e-05
1.71421372667e-05
-4.11443065294e-06
6.19046218226e-05
7.83958810472e-06
3.74369471545e-06
3.31720927406e-05
7.91867003766e-06
1.38711489875e-05
6.63740709773e-06
5.84642574354e-05
-2.32116567023e-05
1.50917995829e-05
5.27682429573e-05
-4.49015540771e-05
2.44802920766e-05
4.25290873193e-05
-7.62906822898e-05
3.364057094e-05
3.01978142165e-05
-0.000103587735413
4.20150851364e-05
1.85735169401e-05
-0.000117146368131
5.08377889992e-05
9.41151247548e-06
-0.000116485897692
6.02136565446e-05
3.92906972849e-06
-9.96611850125e-05
5.09554675706e-05
3.67651752786e-06
-2.97099709688e-05
4.67390160845e-05
-4.27185025733e-07
-1.87125904805e-05
4.50156522494e-05
-6.84982512e-06
-9.56282102536e-06
4.58268093871e-05
-1.22850466694e-05
1.3500221704e-06
4.93881542443e-05
-1.72197485259e-05
1.339836006e-05
5.65739972085e-05
-2.03496357014e-05