/*--------------------------------*- C++ -*----------------------------------*\
| =========                 |                                                 |
| \\      /  F ield         | OpenFOAM: The Open Source CFD Toolbox           |
|  \\    /   O peration     | Version:  v1606+                                |
|   \\  /    A nd           | Web:      www.OpenFOAM.com                      |
|    \\/     M anipulation  |                                                 |
\*---------------------------------------------------------------------------*/
FoamFile
{
    version     2.0;
    format      ascii;
    class       volScalarField;
    location    "2.1";
    object      rAU;
}
// * * * * * * * * * * * * * * * * * * * * * * * * * * * * * * * * * * * * * //

dimensions      [-1 3 1 0 0 0 0];

internalField   nonuniform List<scalar> 
11640
(
1.05045160174e-05
1.04961324382e-05
1.04936786581e-05
1.04924846807e-05
1.0493036078e-05
1.04951928477e-05
1.04977286888e-05
1.05007302966e-05
1.05067947786e-05
1.04906473439e-05
1.04619909649e-05
1.04629144261e-05
1.04772739939e-05
1.0484218472e-05
1.04878103496e-05
1.04900758379e-05
1.04914749933e-05
1.04927771529e-05
1.04952191235e-05
1.0504119131e-05
1.0496074914e-05
1.04579801564e-05
1.04444912283e-05
1.04401022517e-05
1.04411496954e-05
1.04441448135e-05
1.04467002449e-05
1.04473767788e-05
1.04467680535e-05
1.04361327948e-05
1.04196636431e-05
1.04166627836e-05
1.04238335858e-05
1.04290205986e-05
1.04319198069e-05
1.043374422e-05
1.04366701227e-05
1.0443162619e-05
1.04569387799e-05
1.04953710343e-05
1.04939017895e-05
1.04448510799e-05
1.0429947668e-05
1.04284806463e-05
1.04326895156e-05
1.04364932008e-05
1.04389262856e-05
1.04365597538e-05
1.04275148411e-05
1.04170831891e-05
1.04087929284e-05
1.0408316506e-05
1.04104699988e-05
1.04121932892e-05
1.04127312678e-05
1.04124919051e-05
1.04147562621e-05
1.04234066202e-05
1.0442648459e-05
1.0493011182e-05
1.04927981634e-05
1.04406766075e-05
1.04297228324e-05
1.04318733119e-05
1.04379717916e-05
1.04407759136e-05
1.0442320953e-05
1.04319517493e-05
1.04152202182e-05
1.04104563054e-05
1.04082955337e-05
1.04104703405e-05
1.04107461288e-05
1.04078805602e-05
1.04047767004e-05
1.04022484315e-05
1.04021561062e-05
1.04110556364e-05
1.04349120468e-05
1.04915273434e-05
1.04932891543e-05
1.04423537558e-05
1.04370932903e-05
1.04426245574e-05
1.04484406281e-05
1.04457823295e-05
1.04483297826e-05
1.04276473703e-05
1.04058178189e-05
1.04133596641e-05
1.0410893499e-05
1.03980426524e-05
1.03927994702e-05
1.03912425134e-05
1.03962549342e-05
1.03931663792e-05
1.03908697803e-05
1.03987001214e-05
1.04282653777e-05
1.04899904612e-05
1.04956428459e-05
1.04476291042e-05
1.04468986856e-05
1.04530658895e-05
1.04549443015e-05
1.044993494e-05
1.04444242975e-05
1.04067698382e-05
1.0395244736e-05
1.0421046597e-05
1.04226080382e-05
1.03980777165e-05
1.04151534027e-05
1.04111064231e-05
1.04043041636e-05
1.03860756619e-05
1.03706338549e-05
1.03749950401e-05
1.04207306145e-05
1.04872855706e-05
1.0500039881e-05
1.04542080582e-05
1.04542969087e-05
1.04577574225e-05
1.04542948376e-05
1.04507409975e-05
1.04259767279e-05
1.04007129797e-05
1.04229396345e-05
1.04475897749e-05
1.04400332621e-05
1.04158626246e-05
1.03545797499e-05
1.0291827929e-05
1.02853734851e-05
1.02900982003e-05
1.03092412062e-05
1.0349948853e-05
1.04106734604e-05
1.04832855344e-05
1.05056254167e-05
1.04597294614e-05
1.04585041095e-05
1.04572077177e-05
1.04501160765e-05
1.04476674915e-05
1.04252579627e-05
1.04105775446e-05
1.04457079815e-05
1.04702729976e-05
1.04609248623e-05
1.04335670376e-05
1.03962207767e-05
1.0391775287e-05
1.02969881287e-05
1.02946009125e-05
1.03090125302e-05
1.03482626591e-05
1.04105638416e-05
1.04822705462e-05
1.05131817298e-05
1.04624841397e-05
1.04581839122e-05
1.04504486231e-05
1.04426334103e-05
1.04431116586e-05
1.04170303053e-05
1.04206385981e-05
1.04747890927e-05
1.04914892807e-05
1.04678003861e-05
1.04346691197e-05
1.0405545272e-05
1.04104445514e-05
1.03052824079e-05
1.02971572561e-05
1.0310721858e-05
1.03494402675e-05
1.04195438689e-05
1.04830451086e-05
1.04768011782e-05
1.04447058028e-05
1.0445241253e-05
1.04302160814e-05
1.04251117392e-05
1.04310265869e-05
1.04258842967e-05
1.04408536551e-05
1.04829195703e-05
1.04843592694e-05
1.04556953055e-05
1.04414097797e-05
1.04034321828e-05
1.03545765902e-05
1.03133096003e-05
1.02991492471e-05
1.03115984516e-05
1.03500969552e-05
1.04276851425e-05
1.04859031558e-05
1.04504030288e-05
1.04289977476e-05
1.04294377751e-05
1.0403576061e-05
1.04100744592e-05
1.04164873562e-05
1.04297933105e-05
1.04468447547e-05
1.04654509469e-05
1.04459522143e-05
1.04176445117e-05
1.04168111869e-05
1.03860633418e-05
1.03388645154e-05
1.03136910358e-05
1.02981028029e-05
1.03115984145e-05
1.03509311129e-05
1.04314681776e-05
1.04907983447e-05
1.0471167081e-05
1.04340313083e-05
1.04031458879e-05
1.04004505683e-05
1.04028927307e-05
1.04055440127e-05
1.04199198558e-05
1.04421570361e-05
1.04307139041e-05
1.0403247059e-05
1.04087311872e-05
1.0370165203e-05
1.0341188586e-05
1.03224019698e-05
1.03048872088e-05
1.02944752349e-05
1.03107478528e-05
1.03528773043e-05
1.04356436323e-05
1.04947572092e-05
1.04796218495e-05
1.04333091064e-05
1.04241960878e-05
1.03973909756e-05
1.03965094795e-05
1.0398701466e-05
1.04179052528e-05
1.04010597781e-05
1.04033591381e-05
1.039720268e-05
1.03751335246e-05
1.03598241062e-05
1.03341950039e-05
1.03132015156e-05
1.02970300609e-05
1.029268796e-05
1.0310348019e-05
1.03662594938e-05
1.04198807732e-05
1.04969175272e-05
1.04840794889e-05
1.04306824211e-05
1.04214553598e-05
1.0414547918e-05
1.03947013501e-05
1.03943238435e-05
1.03962713276e-05
1.03951994059e-05
1.03997838824e-05
1.03960785759e-05
1.03754121299e-05
1.03624193449e-05
1.03428296043e-05
1.03197325444e-05
1.03047805333e-05
1.03051551808e-05
1.03231659919e-05
1.03839955353e-05
1.04089018383e-05
1.04796678995e-05
1.04872296187e-05
1.04288849303e-05
1.04134854514e-05
1.04118675275e-05
1.04103567108e-05
1.04044712484e-05
1.04007506547e-05
1.04013167806e-05
1.04001225685e-05
1.03963383141e-05
1.03806761317e-05
1.0363322855e-05
1.03466996759e-05
1.03319948809e-05
1.03241064942e-05
1.03644420819e-05
1.03813190394e-05
1.03965517149e-05
1.04213804347e-05
1.04732260303e-05
1.04893404804e-05
1.04310233274e-05
1.04092446539e-05
1.0403104905e-05
1.04025357813e-05
1.04017550681e-05
1.039924319e-05
1.03957012531e-05
1.03918986297e-05
1.03866511303e-05
1.03780786279e-05
1.03815396117e-05
1.03815656745e-05
1.03794758459e-05
1.0379787288e-05
1.03835015724e-05
1.03909870517e-05
1.04049345731e-05
1.04291235074e-05
1.04860622099e-05
1.04907177854e-05
1.04349613426e-05
1.04131818613e-05
1.04031043412e-05
1.0398715268e-05
1.03972021147e-05
1.0395799266e-05
1.03941786024e-05
1.0393261745e-05
1.03932186694e-05
1.03923907313e-05
1.03910950988e-05
1.03896947909e-05
1.0388680633e-05
1.03893601693e-05
1.03928407902e-05
1.03999539969e-05
1.04117752184e-05
1.04332738026e-05
1.0488369868e-05
1.04921085401e-05
1.04421164515e-05
1.04226564601e-05
1.04132378869e-05
1.04085765883e-05
1.04064246411e-05
1.04055996135e-05
1.04057656905e-05
1.04061586487e-05
1.0407153844e-05
1.04081433078e-05
1.04064370904e-05
1.04029482362e-05
1.04018297544e-05
1.04031204389e-05
1.0406235006e-05
1.04113249709e-05
1.04199835421e-05
1.04393303905e-05
1.0490287753e-05
1.04946939926e-05
1.04563954998e-05
1.04424057191e-05
1.04354362364e-05
1.04320089236e-05
1.04304599585e-05
1.04301546105e-05
1.04306285529e-05
1.04316236985e-05
1.04328920156e-05
1.04349118708e-05
1.04376709145e-05
1.04255313575e-05
1.04182637886e-05
1.04260182036e-05
1.04291748457e-05
1.04326503477e-05
1.04392369034e-05
1.0454269522e-05
1.04938746834e-05
1.05035927408e-05
1.04950323944e-05
1.04931866794e-05
1.04916595118e-05
1.04908906572e-05
1.04904201799e-05
1.04904080819e-05
1.04906479546e-05
1.04912755403e-05
1.04921593662e-05
1.04934410515e-05
1.0496622449e-05
1.04887714e-05
1.04810067053e-05
1.04847171769e-05
1.04874821892e-05
1.04891764535e-05
1.04911096704e-05
1.0494381834e-05
1.05044119014e-05
1.04649843938e-05
1.04365229323e-05
1.04274798366e-05
1.0423345749e-05
1.04226679977e-05
1.04241629793e-05
1.04263237802e-05
1.04272437054e-05
1.04269980085e-05
1.04212713342e-05
1.04112960803e-05
1.04073650542e-05
1.04101042214e-05
1.04143179656e-05
1.04171008411e-05
1.04183478186e-05
1.04204671467e-05
1.04254057143e-05
1.04354783948e-05
1.04651048681e-05
1.04365165349e-05
1.02742035488e-05
1.02068038182e-05
1.01794675843e-05
1.01699260212e-05
1.01679177465e-05
1.01688877145e-05
1.01685395853e-05
1.01654376888e-05
1.01585600032e-05
1.01505767644e-05
1.01491433162e-05
1.01540009884e-05
1.01598263905e-05
1.01639644248e-05
1.01670107842e-05
1.01760308113e-05
1.02033629113e-05
1.02711113473e-05
1.04356626269e-05
1.04275528368e-05
1.0207004494e-05
1.01142638798e-05
1.00769099634e-05
1.00640032814e-05
1.00617870842e-05
1.00644678927e-05
1.00653038326e-05
1.00590512692e-05
1.005067904e-05
1.00455534381e-05
1.0052882003e-05
1.00625934861e-05
1.00703134261e-05
1.00738306061e-05
1.00733990231e-05
1.00787787104e-05
1.0109934614e-05
1.02012196795e-05
1.04255314534e-05
1.04235993966e-05
1.01800324178e-05
1.00784142566e-05
1.00387242912e-05
1.00269662169e-05
1.00274550799e-05
1.00351837159e-05
1.00384692406e-05
1.00297627139e-05
1.00238434556e-05
1.00253531197e-05
1.00435237688e-05
1.00586730444e-05
1.00652134917e-05
1.00651862206e-05
1.00592076463e-05
1.00552719507e-05
1.00781698541e-05
1.01731159042e-05
1.04204867893e-05
1.04228848352e-05
1.0171296549e-05
1.00691065827e-05
1.00311270494e-05
1.00220933177e-05
1.00257029863e-05
1.00441533911e-05
1.00547171334e-05
1.00459917205e-05
1.00469073567e-05
1.00498180141e-05
1.00578785213e-05
1.00644072943e-05
1.00781519611e-05
1.00848395132e-05
1.00729829258e-05
1.00609748518e-05
1.00732947982e-05
1.01649273704e-05
1.0418368132e-05
1.04224525875e-05
1.01705344238e-05
1.00726225099e-05
1.00374931166e-05
1.00308995742e-05
1.00431833203e-05
1.00724565072e-05
1.00782591318e-05
1.00881782008e-05
1.01259485317e-05
1.01335191543e-05
1.01132916396e-05
1.01142899215e-05
1.01298570571e-05
1.01262032326e-05
1.00953900643e-05
1.00665174455e-05
1.00676532966e-05
1.01648618133e-05
1.041691006e-05
1.042461987e-05
1.01752552884e-05
1.00799419513e-05
1.00454997721e-05
1.00413511839e-05
1.00725824568e-05
1.0124780394e-05
1.01377581447e-05
1.0198871534e-05
1.02614697586e-05
1.02762031139e-05
1.02511233974e-05
1.01769738072e-05
1.00638720518e-05
1.00464336782e-05
1.00339575444e-05
1.0030014954e-05
1.00586882546e-05
1.01632094617e-05
1.0414510824e-05
1.04272753642e-05
1.01800036492e-05
1.00861039374e-05
1.00501895214e-05
1.00462567374e-05
1.00868904928e-05
1.01898035018e-05
1.02664714931e-05
1.0348273197e-05
1.03800719876e-05
1.0377104554e-05
1.03478290132e-05
1.02829609342e-05
1.02148643837e-05
1.00978603763e-05
1.006291244e-05
1.0041233348e-05
1.00648278111e-05
1.01684206795e-05
1.04142064185e-05
1.04274736034e-05
1.0181715116e-05
1.00883980161e-05
1.00489201505e-05
1.00455427545e-05
1.00913847911e-05
1.02050852813e-05
1.029829596e-05
1.03778524987e-05
1.04074159666e-05
1.03983549235e-05
1.03735225756e-05
1.03178331788e-05
1.02419768558e-05
1.00969951948e-05
1.00707398435e-05
1.00473806112e-05
1.0069034007e-05
1.01799088046e-05
1.04153087553e-05
1.04193438655e-05
1.01761901442e-05
1.00829633467e-05
1.00340575864e-05
1.00312585929e-05
1.00808320733e-05
1.01868088157e-05
1.03031180535e-05
1.03767780307e-05
1.04049275896e-05
1.03949332508e-05
1.0379583618e-05
1.03302740932e-05
1.02033910884e-05
1.01082818871e-05
1.00711429787e-05
1.00464520431e-05
1.00689859968e-05
1.0188750791e-05
1.04183188176e-05
1.04098433768e-05
1.01686561129e-05
1.0070180997e-05
1.00052778094e-05
1.00045580922e-05
1.00483246231e-05
1.01627149798e-05
1.02848226574e-05
1.03360540644e-05
1.03683776719e-05
1.03593555921e-05
1.03495994964e-05
1.0301675336e-05
1.01851286377e-05
1.01076094672e-05
1.00640785896e-05
1.00385039397e-05
1.00651741302e-05
1.01908518915e-05
1.04228107545e-05
1.04073280958e-05
1.01631732977e-05
1.00383274411e-05
9.99767006858e-06
9.98148682122e-06
1.00013016038e-05
1.00759371452e-05
1.02144506094e-05
1.02306446367e-05
1.02210555586e-05
1.02502364146e-05
1.02350797105e-05
1.01779470043e-05
1.01371992553e-05
1.00889445248e-05
1.00392740683e-05
1.00220906983e-05
1.00571896048e-05
1.01884995436e-05
1.04245974237e-05
1.04076538181e-05
1.01523846975e-05
1.00462087637e-05
9.98418600504e-06
9.97449744934e-06
9.93464871439e-06
1.00006536814e-05
1.00667964387e-05
1.00933624168e-05
1.01143458363e-05
1.01138058018e-05
1.0112096025e-05
1.00930531143e-05
1.00648882748e-05
1.00342017694e-05
1.00031761066e-05
1.00035053571e-05
1.00633136284e-05
1.01754787721e-05
1.04230715701e-05
1.04108485683e-05
1.01447036479e-05
1.00330776667e-05
9.98111713674e-06
9.94715073766e-06
9.93535398497e-06
9.93595815933e-06
9.97218269809e-06
9.99680923442e-06
1.00107814637e-05
1.00124160496e-05
1.00110006694e-05
1.00037910346e-05
9.99498092697e-06
9.98191581674e-06
9.97281486352e-06
9.98656337821e-06
1.00606929894e-05
1.01562377183e-05
1.04125920522e-05
1.04135935271e-05
1.01424346575e-05
1.00230610359e-05
9.97121917456e-06
9.94712529266e-06
9.93573524764e-06
9.93554392798e-06
9.93983429734e-06
9.94281470326e-06
9.94630273891e-06
9.94788996938e-06
9.95069804209e-06
9.95069187073e-06
9.95010647531e-06
9.94851656562e-06
9.98575712913e-06
1.00049891789e-05
1.00423696613e-05
1.01466648357e-05
1.04073858196e-05
1.04158613738e-05
1.01491443205e-05
1.00258070117e-05
9.9692848667e-06
9.94276067725e-06
9.93085937885e-06
9.92596517532e-06
9.92346182858e-06
9.92155123266e-06
9.92040702996e-06
9.92296540173e-06
9.93862203112e-06
9.95018682873e-06
9.95827088047e-06
9.96501985972e-06
9.97221698281e-06
9.98944050838e-06
1.00362624576e-05
1.01505674658e-05
1.04132202328e-05
1.0419104387e-05
1.01652274335e-05
1.00482146258e-05
9.99117527023e-06
9.96178949693e-06
9.94781646833e-06
9.9415351023e-06
9.93879928597e-06
9.93791256302e-06
9.94086297622e-06
9.94603585092e-06
9.95107396562e-06
9.95524367764e-06
9.95943656697e-06
9.9650756114e-06
9.97551649728e-06
9.99949572085e-06
1.00522459431e-05
1.01656404321e-05
1.0417479604e-05
1.04244935705e-05
1.01984373046e-05
1.00958011266e-05
1.00461002691e-05
1.00201254113e-05
1.00066456643e-05
1.00005973013e-05
9.99902710623e-06
9.99971785868e-06
1.00021208306e-05
1.00049434396e-05
1.00065331576e-05
1.0006318059e-05
1.00073276155e-05
1.00127278372e-05
1.0024915724e-05
1.00494331977e-05
1.0097559825e-05
1.01983375571e-05
1.04234825283e-05
1.04348546389e-05
1.02692299169e-05
1.01967402646e-05
1.01618615827e-05
1.01438126955e-05
1.01348138033e-05
1.01311894627e-05
1.01305825182e-05
1.01316449167e-05
1.01336136122e-05
1.01359821935e-05
1.01376391215e-05
1.01336275452e-05
1.01307468159e-05
1.01360232009e-05
1.01461078799e-05
1.01639109136e-05
1.01980417469e-05
1.02699742552e-05
1.04349465378e-05
1.04646428773e-05
1.04350421964e-05
1.04249958387e-05
1.04194107959e-05
1.04163171838e-05
1.04146300426e-05
1.04139818385e-05
1.04139207898e-05
1.04144782761e-05
1.04154653205e-05
1.04166107353e-05
1.041826779e-05
1.04150374562e-05
1.04100881443e-05
1.04107086737e-05
1.04140253745e-05
1.04179410278e-05
1.04240038179e-05
1.04352483516e-05
1.04659390077e-05
1.04531072584e-05
1.04145802869e-05
1.0401871331e-05
1.03953529693e-05
1.03933715937e-05
1.03938579476e-05
1.03951626923e-05
1.03950436158e-05
1.03941026571e-05
1.03911654678e-05
1.03872897005e-05
1.03848801273e-05
1.03835210273e-05
1.03834751035e-05
1.0384683105e-05
1.03865735956e-05
1.03903935339e-05
1.03986584952e-05
1.04141259479e-05
1.0453900335e-05
1.04146573857e-05
1.01663908859e-05
1.00588765017e-05
1.00126626407e-05
9.9941990766e-06
9.98818755631e-06
9.98796192332e-06
9.98788506715e-06
9.98626531912e-06
9.98267307853e-06
9.97838079636e-06
9.97507658807e-06
9.97236397838e-06
9.97186382203e-06
9.97489696581e-06
9.983953652e-06
1.00053374934e-05
1.00540271751e-05
1.01633086641e-05
1.04145887281e-05
1.04016682594e-05
1.00585875443e-05
9.90318840373e-06
9.83547550615e-06
9.80882239428e-06
9.80232386702e-06
9.80564616186e-06
9.80900417753e-06
9.80622244947e-06
9.80109771146e-06
9.79634452841e-06
9.7941150011e-06
9.79069586645e-06
9.78731755974e-06
9.7866323128e-06
9.79482925562e-06
9.82304954977e-06
9.8923836449e-06
1.00501914399e-05
1.03993610175e-05
1.03952869896e-05
1.0012295922e-05
9.83685248469e-06
9.76224526013e-06
9.73690591764e-06
9.73703544333e-06
9.75120037658e-06
9.76260326109e-06
9.76087279216e-06
9.75739033375e-06
9.75513183833e-06
9.75599248651e-06
9.75084229145e-06
9.73947084264e-06
9.72633019098e-06
9.72590789839e-06
9.74986976726e-06
9.82278939355e-06
9.99994563392e-06
1.03917643574e-05
1.03925064507e-05
9.99395486048e-06
9.81424977048e-06
9.74159851996e-06
9.72455937415e-06
9.73949426806e-06
9.7766143777e-06
9.80735826212e-06
9.80878812158e-06
9.80864985685e-06
9.8054640295e-06
9.80249971887e-06
9.77263576648e-06
9.77022788753e-06
9.73474657222e-06
9.71835616724e-06
9.7321711752e-06
9.79948610586e-06
9.9801339267e-06
1.0388667418e-05
1.03917543886e-05
9.99058421056e-06
9.81428907086e-06
9.74899657521e-06
9.74704392923e-06
9.7886549298e-06
9.85716005276e-06
9.9139909105e-06
9.93961632695e-06
9.96890508863e-06
9.96385871539e-06
9.93992896042e-06
9.88150765915e-06
9.80243451312e-06
9.78610769095e-06
9.74699362183e-06
9.74372154866e-06
9.8006003539e-06
9.97660592462e-06
1.03875867025e-05
1.0393112479e-05
9.99489648062e-06
9.82301415255e-06
9.76642445562e-06
9.78161786914e-06
9.8571114393e-06
9.97102919142e-06
1.01109194954e-05
1.01879209068e-05
1.0249744427e-05
1.0244386093e-05
1.02121692615e-05
1.01196367019e-05
9.93470497751e-06
9.80255872642e-06
9.79591830809e-06
9.76835840704e-06
9.8118095639e-06
9.98050142445e-06
1.03876314488e-05
1.03944583498e-05
9.99981759066e-06
9.83218299449e-06
9.78268868329e-06
9.80272002026e-06
9.84670058005e-06
1.0114535502e-05
1.0356038514e-05
1.04367276258e-05
1.04585939658e-05
1.04452507577e-05
1.04131216459e-05
1.03459800969e-05
1.00883825149e-05
9.88127563842e-06
9.82671448535e-06
9.79402254952e-06
9.82373105472e-06
9.98649939443e-06
1.03885143538e-05
1.03940415212e-05
1.00019396231e-05
9.83688274512e-06
9.79124434365e-06
9.81214592372e-06
9.86742147269e-06
1.01445621729e-05
1.03876994831e-05
1.04597137421e-05
1.0474870989e-05
1.04695617354e-05
1.04494960507e-05
1.03997911786e-05
1.01396027332e-05
9.89821113597e-06
9.82034427022e-06
9.80644393145e-06
9.83140710552e-06
9.99128269021e-06
1.03893602956e-05
1.03906780415e-05
9.99907486393e-06
9.8341063907e-06
9.7877666257e-06
9.80468960611e-06
9.86534705541e-06
1.0135886626e-05
1.03929919237e-05
1.04573917912e-05
1.04704319627e-05
1.04630183784e-05
1.04549926782e-05
1.04125601494e-05
1.01543098586e-05
9.90525085682e-06
9.81906805032e-06
9.80637478205e-06
9.83147285466e-06
9.99284225269e-06
1.03901325956e-05
1.03862375153e-05
9.99267385948e-06
9.82522676457e-06
9.77335107156e-06
9.77801237034e-06
9.82908247332e-06
1.01025353893e-05
1.03682494581e-05
1.04212087275e-05
1.04433732055e-05
1.04335830947e-05
1.04218703035e-05
1.03787738594e-05
1.01156034929e-05
9.88886761134e-06
9.83097980189e-06
9.78962926693e-06
9.82280299289e-06
9.99024283729e-06
1.03907205014e-05
1.03827056218e-05
9.98352338554e-06
9.81134035998e-06
9.75470552629e-06
9.74747133616e-06
9.79034141721e-06
9.90598124783e-06
1.01394020722e-05
1.01840039334e-05
1.01942287996e-05
1.02165500625e-05
1.01954207064e-05
1.0125994356e-05
1.00002011509e-05
9.87581950803e-06
9.79352078763e-06
9.75295416084e-06
9.80570878872e-06
9.98293673891e-06
1.03903657963e-05
1.03800308322e-05
9.97037091216e-06
9.78710756246e-06
9.72232291716e-06
9.71440444778e-06
9.69018695754e-06
9.76837485524e-06
9.85483993226e-06
9.88810464777e-06
9.90952551285e-06
9.90270867795e-06
9.89226391975e-06
9.90052659682e-06
9.84644316341e-06
9.77443479294e-06
9.71553818056e-06
9.71462516247e-06
9.78548826317e-06
9.97082900042e-06
1.03884834073e-05
1.03795904435e-05
9.9592982687e-06
9.76222580179e-06
9.67986686988e-06
9.65551756474e-06
9.64822399135e-06
9.65229137543e-06
9.69079685244e-06
9.70993474123e-06
9.71512807363e-06
9.71321660927e-06
9.72388311609e-06
9.71741820285e-06
9.69762430572e-06
9.66989433242e-06
9.65569694329e-06
9.68001104001e-06
9.76275457978e-06
9.95585101797e-06
1.03822864046e-05
1.03810439743e-05
9.95596338602e-06
9.74940177453e-06
9.65441898796e-06
9.61395488248e-06
9.6026647312e-06
9.60410391681e-06
9.60774368729e-06
9.60753225518e-06
9.60577694723e-06
9.60903502387e-06
9.61413018682e-06
9.61450658769e-06
9.61149699488e-06
9.60842362077e-06
9.6184236957e-06
9.65683257591e-06
9.74789949884e-06
9.94894876219e-06
1.03783076363e-05
1.03838214002e-05
9.96514831152e-06
9.75670631776e-06
9.65559307501e-06
9.60612144246e-06
9.58405151457e-06
9.57556734504e-06
9.57181695785e-06
9.5690826593e-06
9.56787124633e-06
9.57127089646e-06
9.57589134399e-06
9.57900844015e-06
9.58191514507e-06
9.58936975288e-06
9.60932792304e-06
9.65611599084e-06
9.75437170716e-06
9.95877136294e-06
1.03816687101e-05
1.03890433608e-05
9.99190237601e-06
9.79393618128e-06
9.69472795121e-06
9.64318494549e-06
9.6174313671e-06
9.60545940306e-06
9.60016999713e-06
9.59803700823e-06
9.59872888365e-06
9.60101794276e-06
9.60341295784e-06
9.6051768486e-06
9.60873696782e-06
9.61936349497e-06
9.64384899148e-06
9.69404827837e-06
9.79196026765e-06
9.98708556197e-06
1.03879340149e-05
1.03980084779e-05
1.00468456063e-05
9.87555298881e-06
9.78952868314e-06
9.7437375538e-06
9.71968955569e-06
9.70812048306e-06
9.70353189484e-06
9.70256075915e-06
9.70355799382e-06
9.70523281643e-06
9.70653659765e-06
9.70671021124e-06
9.70902485667e-06
9.71955144759e-06
9.74348182233e-06
9.78943684347e-06
9.87527863651e-06
1.00441508597e-05
1.03975745712e-05
1.04139804655e-05
1.01604772071e-05
1.00431890558e-05
9.98529583899e-06
9.95448845991e-06
9.93835506486e-06
9.93070378107e-06
9.92789786003e-06
9.92763220182e-06
9.92865855196e-06
9.93015907876e-06
9.93141223607e-06
9.92965313772e-06
9.92884499468e-06
9.93645094927e-06
9.95403610847e-06
9.98592181839e-06
1.00441947124e-05
1.01599446076e-05
1.04143179039e-05
1.04540805399e-05
1.04141867704e-05
1.03985623733e-05
1.03902558517e-05
1.03856307992e-05
1.03831883027e-05
1.03820977158e-05
1.03820313513e-05
1.038224385e-05
1.03827484025e-05
1.03835829523e-05
1.0384530359e-05
1.03822835318e-05
1.0378285252e-05
1.03785777537e-05
1.03825926056e-05
1.03886453193e-05
1.03979953892e-05
1.04144339817e-05
1.04548011757e-05
1.04480408561e-05
1.04037527182e-05
1.0389555449e-05
1.03813389879e-05
1.03783805482e-05
1.03780868943e-05
1.03789332907e-05
1.03784328355e-05
1.0378142245e-05
1.03766481697e-05
1.03750698909e-05
1.0373476003e-05
1.03717085939e-05
1.03700211151e-05
1.03698667713e-05
1.03714276474e-05
1.03758656848e-05
1.0385468626e-05
1.04040350101e-05
1.04497435715e-05
1.04039588484e-05
1.01076021201e-05
9.97525481198e-06
9.91606047272e-06
9.89096441297e-06
9.88216323377e-06
9.88179745884e-06
9.88326721377e-06
9.88476716231e-06
9.88415954956e-06
9.88198868507e-06
9.87848604591e-06
9.87366463201e-06
9.86983354243e-06
9.87116731799e-06
9.88231337891e-06
9.91024924269e-06
9.97170558706e-06
1.01058984999e-05
1.04046818691e-05
1.03893581725e-05
9.9746042565e-06
9.77705688121e-06
9.68655658497e-06
9.64867299783e-06
9.63875151148e-06
9.64370075055e-06
9.65133273363e-06
9.65375068464e-06
9.65278161747e-06
9.6495517205e-06
9.64401384446e-06
9.63532975754e-06
9.62545477437e-06
9.62068369098e-06
9.63167875778e-06
9.67228723858e-06
9.76575059401e-06
9.96618335562e-06
1.03864076909e-05
1.03810529873e-05
9.9146017791e-06
9.68714275089e-06
9.58452927096e-06
9.54686958581e-06
9.54630028795e-06
9.5671250834e-06
9.58796611652e-06
9.59490593594e-06
9.59619616466e-06
9.59403872367e-06
9.58735143851e-06
9.5722168719e-06
9.54819214441e-06
9.52562138637e-06
9.52513827428e-06
9.56397322316e-06
9.66876540471e-06
9.90077492776e-06
1.03771037307e-05
1.03762209375e-05
9.88800637739e-06
9.6518535866e-06
9.54983493553e-06
9.52322577856e-06
9.54552606584e-06
9.60055377456e-06
9.65129402028e-06
9.66343002211e-06
9.66680332984e-06
9.66475684425e-06
9.64913351824e-06
9.60726647139e-06
9.58732370582e-06
9.5245887294e-06
9.49954317925e-06
9.52600102604e-06
9.62844107531e-06
9.87132591688e-06
1.0373007981e-05
1.03763372903e-05
9.88236172296e-06
9.6464739349e-06
9.5536664437e-06
9.54901875349e-06
9.61506298109e-06
9.74474775686e-06
9.86508254216e-06
9.88994961374e-06
9.90238328952e-06
9.89723704378e-06
9.87319047534e-06
9.81039090831e-06
9.64371788385e-06
9.59111886603e-06
9.52663514094e-06
9.53014454551e-06
9.62069809753e-06
9.86208405253e-06
1.03715476539e-05
1.03772876379e-05
9.88537277589e-06
9.65461893795e-06
9.57455564372e-06
9.59700475158e-06
9.72887936788e-06
9.97336097803e-06
1.02342126941e-05
1.02828766605e-05
1.03320968139e-05
1.0331687018e-05
1.02902282396e-05
1.02171278077e-05
9.87089938501e-06
9.58633298162e-06
9.57179836498e-06
9.55505333093e-06
9.62906308227e-06
9.86335802415e-06
1.03711632495e-05
1.03782743772e-05
9.89042899416e-06
9.66554015081e-06
9.59777536272e-06
9.64118577725e-06
9.78169856288e-06
1.01973667913e-05
1.02260661708e-05
9.74578920956e-06
9.56089317393e-06
9.57954786987e-06
9.64202873047e-06
9.86860407984e-06
1.03721371503e-05
1.03780642849e-05
9.89303613343e-06
9.67132976003e-06
9.60956910385e-06
9.6579820145e-06
9.80038094998e-06
1.02389104372e-05
1.02629571151e-05
9.7790691499e-06
9.56260803745e-06
9.58766934696e-06
9.65130134932e-06
9.87300058152e-06
1.03734364511e-05
1.03763578752e-05
9.89086374988e-06
9.66818754524e-06
9.6053865081e-06
9.65036828899e-06
9.79357451583e-06
1.02455464152e-05
1.02667552408e-05
9.77399494718e-06
9.56294509546e-06
9.58304407535e-06
9.65129458537e-06
9.87306106222e-06
1.03737239826e-05
1.03736009128e-05
9.88412516618e-06
9.65630563553e-06
9.58558872398e-06
9.61823339014e-06
9.75189211776e-06
1.02022122147e-05
1.01945319196e-05
9.72098731635e-06
9.57041091424e-06
9.56820047785e-06
9.63882058623e-06
9.86750191135e-06
1.03735760671e-05
1.03699589587e-05
9.8731733576e-06
9.63617240689e-06
9.55115310945e-06
9.56143455893e-06
9.66080312647e-06
9.85968220779e-06
1.02282795284e-05
1.02774360787e-05
1.02981711024e-05
1.03184875102e-05
1.02886602122e-05
1.02244773025e-05
9.88282561742e-06
9.6317229577e-06
9.56021171409e-06
9.53412526974e-06
9.61684612921e-06
9.85752603611e-06
1.03725647983e-05
1.03664443643e-05
9.85949168439e-06
9.60991388167e-06
9.50793724157e-06
9.49143933575e-06
9.53818312707e-06
9.64346702972e-06
9.76658473535e-06
9.7884384083e-06
9.81027858367e-06
9.79334730742e-06
9.76299442885e-06
9.74461987888e-06
9.61365069708e-06
9.5267027365e-06
9.47317386782e-06
9.48797931906e-06
9.59116436071e-06
9.84527813917e-06
1.03705954756e-05
1.0364691735e-05
9.84890192292e-06
9.586785295e-06
9.46823928105e-06
9.42786250053e-06
9.43674481101e-06
9.4748839021e-06
9.51732101459e-06
9.53209711744e-06
9.52912791786e-06
9.51625490871e-06
9.51303938015e-06
9.49557158576e-06
9.45290631678e-06
9.41586996594e-06
9.40784114488e-06
9.44934271906e-06
9.56889783123e-06
9.83337025401e-06
1.03660357003e-05
1.03653472627e-05
9.84691490665e-06
9.57712330459e-06
9.44632639074e-06
9.38748937042e-06
9.37036379472e-06
9.37463391352e-06
9.38389210274e-06
9.38633287159e-06
9.38359552046e-06
9.38020894133e-06
9.37767260198e-06
9.37057123754e-06
9.35837889142e-06
9.35319578109e-06
9.3697638043e-06
9.42870697389e-06
9.55988509693e-06
9.83011292443e-06
1.03631112741e-05
1.03682941871e-05
9.85977249498e-06
9.59107706779e-06
9.4554228328e-06
9.38667289455e-06
9.35525743573e-06
9.34366417826e-06
9.34029293786e-06
9.33848870984e-06
9.33709718686e-06
9.33664968064e-06
9.33610169288e-06
9.33405775498e-06
9.3329668364e-06
9.34195248242e-06
9.37235516893e-06
9.44090357096e-06
9.57667469897e-06
9.84464060511e-06
1.03659081516e-05
1.03742963689e-05
9.894088634e-06
9.64115885997e-06
9.51061784595e-06
9.44112353916e-06
9.40552026539e-06
9.38874805982e-06
9.38175637055e-06
9.3791553311e-06
9.37864264067e-06
9.37873214435e-06
9.37878466117e-06
9.37849913248e-06
9.38127508785e-06
9.3953911661e-06
9.43027579731e-06
9.4998257871e-06
9.63034949235e-06
9.88188331115e-06
1.03728702264e-05
1.03850254901e-05
9.96285705286e-06
9.74647545289e-06
9.63486792878e-06
9.57426181236e-06
9.54184533633e-06
9.52574213369e-06
9.51875379229e-06
9.51638130237e-06
9.51614001257e-06
9.51658140597e-06
9.51706761832e-06
9.51712068112e-06
9.52013834099e-06
9.53417216858e-06
9.56666157676e-06
9.6279874454e-06
9.73980928091e-06
9.95450146528e-06
1.03845626761e-05
1.04043768212e-05
1.01025933854e-05
9.95753971704e-06
9.88444161347e-06
9.84473754461e-06
9.823382917e-06
9.81272506956e-06
9.80813219956e-06
9.80672030918e-06
9.80682077153e-06
9.80750699728e-06
9.80824540665e-06
9.80739250359e-06
9.80776278802e-06
9.81710793824e-06
9.83968975411e-06
9.88075439326e-06
9.95463095907e-06
1.00986071138e-05
1.04047936244e-05
1.04506600546e-05
1.04049246207e-05
1.03857303586e-05
1.03754855218e-05
1.03698465069e-05
1.03668811112e-05
1.03655174626e-05
1.03651625716e-05
1.03654289599e-05
1.03659341778e-05
1.03666776505e-05
1.03674455805e-05
1.03656890758e-05
1.03620111783e-05
1.03618384746e-05
1.03662395938e-05
1.03734068199e-05
1.0385012268e-05
1.04049781492e-05
1.04515182522e-05
1.04419718258e-05
1.03946332554e-05
1.03809853937e-05
1.03718707315e-05
1.03682415856e-05
1.03675187231e-05
1.03680421494e-05
1.03687216549e-05
1.03686173745e-05
1.03679666549e-05
1.03671682959e-05
1.03657868572e-05
1.03636669262e-05
1.03613866738e-05
1.03604887546e-05
1.03615922064e-05
1.03663728218e-05
1.03768810124e-05
1.03975259449e-05
1.04467828809e-05
1.03949126613e-05
1.007021674e-05
9.92256937377e-06
9.85485322734e-06
9.82539969191e-06
9.8149101198e-06
9.81472939985e-06
9.8189982806e-06
9.82263800468e-06
9.82401065742e-06
9.82272073545e-06
9.81868086185e-06
9.81257816893e-06
9.80677093911e-06
9.8065973837e-06
9.8185611263e-06
9.85074156007e-06
9.92074687603e-06
1.00708903744e-05
1.03980753442e-05
1.03814076244e-05
9.92211355598e-06
9.69712883309e-06
9.59077521005e-06
9.54498201508e-06
9.53283975793e-06
9.53935223104e-06
9.55053216015e-06
9.55703237649e-06
9.55888945624e-06
9.55634973948e-06
9.54923641836e-06
9.5376960729e-06