/*--------------------------------*- C++ -*----------------------------------*\
| =========                 |                                                 |
| \\      /  F ield         | OpenFOAM: The Open Source CFD Toolbox           |
|  \\    /   O peration     | Version:  v1606+                                |
|   \\  /    A nd           | Web:      www.OpenFOAM.com                      |
|    \\/     M anipulation  |                                                 |
\*---------------------------------------------------------------------------*/
FoamFile
{
    version     2.0;
    format      ascii;
    class       volVectorField;
    location    "3.4";
    object      ddt0(rho,U);
}
// * * * * * * * * * * * * * * * * * * * * * * * * * * * * * * * * * * * * * //

dimensions      [1 -2 -2 0 0 0 0];

internalField   nonuniform List<vector> 
11640
(
(-15.873056948 -13.2799596918 19.5416463105)
(-46.7881957947 -13.8955286074 19.2928841592)
(-76.112822404 -14.0819076889 18.7922764113)
(-103.242779471 -14.1554703103 17.9386324652)
(-127.195318253 -14.1616283989 16.732928251)
(-147.058380614 -14.0983420911 15.1900642912)
(-162.290995633 -13.8896887875 13.3882872312)
(-172.664569693 -13.457101266 11.420659654)
(-178.14185708 -12.7511278128 9.33885212714)
(-178.872880295 -11.7755968877 7.1961393568)
(-175.424026158 -10.5939717292 5.11274825502)
(-168.249848674 -9.22591747509 3.09552222184)
(-157.824394424 -7.83618072908 1.18057571558)
(-144.495413431 -6.54620761116 -0.583082361403)
(-128.451124768 -5.42541336526 -2.19492761879)
(-109.833000114 -4.53582174276 -3.66902020666)
(-88.7405794926 -3.85493961098 -4.93972778745)
(-65.387159165 -3.36146289944 -5.94726972372)
(-40.3249633559 -3.02366651845 -6.67548747513)
(-13.6778572305 -2.97743382992 -7.14462684489)
(-16.5051381572 -39.2813348783 19.3597188505)
(-47.5361254148 -40.1302583717 18.8803195012)
(-76.3075988162 -40.2584055701 18.2166877184)
(-103.269184371 -40.3813813407 17.3537240058)
(-126.903849709 -40.3698775976 16.181843599)
(-146.403471864 -40.0754718734 14.6218451596)
(-161.26540485 -39.4288393985 12.7293899796)
(-171.217965976 -38.2468015187 10.6048940865)
(-176.218007273 -36.2984183606 8.35649954298)
(-176.52596463 -33.5319293055 6.15863708503)
(-172.732866309 -30.0736858624 4.04230543169)
(-165.412958464 -26.1487350447 2.03823461819)
(-155.111385588 -22.1420293124 0.249192630067)
(-142.049405969 -18.4387570019 -1.35451848774)
(-126.351778188 -15.194146173 -2.79655693244)
(-108.109014083 -12.6396356401 -4.17407120763)
(-87.3797971846 -10.7420084549 -5.44518842128)
(-64.4387736437 -9.40114146036 -6.43170160134)
(-39.8260725341 -8.54389265533 -7.09055870707)
(-13.5530954213 -8.43472272055 -7.276474506)
(-16.8262923233 -64.1806449531 18.9463674095)
(-47.8193915153 -64.4438345749 18.4356645568)
(-76.3861833878 -64.3497986885 17.7248242293)
(-103.195017387 -64.1393623641 17.0879460011)
(-126.480515538 -63.7301529817 16.1579046765)
(-145.641298362 -63.1777948697 14.6137268197)
(-160.049502152 -62.3271214905 12.4817679959)
(-169.312505388 -60.6946850352 10.0235469005)
(-173.31728546 -57.6942121044 7.51261788589)
(-172.66896962 -53.0973181918 5.15210612401)
(-168.187093572 -47.2531476746 2.98676855113)
(-160.59551132 -40.7463869675 1.08517347913)
(-150.505841733 -34.2090632245 -0.440029480607)
(-137.956937016 -28.3971651556 -1.71069504397)
(-122.87362451 -23.2610468331 -2.86627291699)
(-105.277500531 -19.1743878881 -4.11304195075)
(-85.1245920434 -16.1168916182 -5.43200059457)
(-62.7902525355 -14.102393829 -6.56223304736)
(-39.0486742202 -12.9178529991 -7.32849565523)
(-13.4063541976 -12.7617578352 -7.44909430569)
(-16.8776478295 -87.5725521565 18.3145233233)
(-47.927122249 -87.3241844846 17.9280701507)
(-76.2244683852 -86.8380753752 17.5222574969)
(-102.635601061 -86.0439964323 17.3155400891)
(-125.719820657 -85.2300423698 16.6086369321)
(-144.776082889 -84.5807937557 14.9846200002)
(-158.779539705 -83.8261851395 12.4723069957)
(-166.959601777 -81.9335254032 9.51199818517)
(-169.266903407 -77.7236552305 6.61766648979)
(-166.970875225 -70.6143104142 4.01459167911)
(-161.461692052 -61.5577354671 1.83597428875)
(-153.59699911 -51.858242275 0.109243202044)
(-144.19000913 -43.0787563875 -1.01245968477)
(-132.728943978 -36.2123619489 -1.90822007578)
(-118.636524631 -29.7338725947 -2.6975285461)
(-101.866289168 -24.376402121 -3.79765935743)
(-82.4180702807 -20.1359460818 -5.16594112319)
(-60.821408478 -17.3609981154 -6.47070074627)
(-38.0536875587 -15.9109034821 -7.48846601595)
(-13.2595910978 -15.775130483 -7.62080716487)
(-16.7136583928 -108.770789279 17.4832856901)
(-47.6386336939 -107.889367412 17.2637078831)
(-75.4672656586 -106.698927739 17.3668617003)
(-101.421095528 -105.334518232 17.5519487178)
(-124.440594876 -104.218585447 16.94323247)
(-143.768742183 -103.435704188 15.1437659077)
(-157.518820339 -103.231178176 11.9918720103)
(-163.927484808 -101.824157937 8.24381056761)
(-163.292975011 -96.4793016747 4.81738883391)
(-158.136596319 -86.4257258421 2.1283111883)
(-151.236292091 -74.4099583383 -0.159664187966)
(-144.077597951 -61.5695425082 -1.85419512799)
(-137.190242612 -50.4708223754 -0.964428254558)
(-127.620694767 -42.0089752642 -1.72090471412)
(-114.509129877 -34.1597805132 -2.46221929309)
(-98.4936695067 -28.1042560173 -3.66064846154)
(-79.4946665846 -23.2143358084 -5.35453885238)
(-58.6769268032 -19.9997520141 -6.85416520499)
(-36.9758340173 -18.3184438 -8.11165576836)
(-13.0915924973 -17.8636191678 -8.15084998586)
(-16.4041816897 -127.136049886 16.435777942)
(-46.6723424091 -125.628218446 16.4106585136)
(-73.7706978204 -123.64774158 16.8759537244)
(-99.2427816311 -121.526323381 17.227155946)
(-122.372080029 -119.540822609 16.6178782036)
(-142.747426049 -117.559367526 14.278490168)
(-157.059475619 -117.482965349 9.84770874339)
(-160.958411034 -116.513407635 4.07372083809)
(-155.459585468 -107.489196333 -0.330094445219)
(-146.733900433 -89.5775362824 -3.13564087135)
(-138.47682608 -71.2732356966 -5.11383444816)
(-131.216412321 -53.7172348431 -5.76687116677)
(-126.256209273 -41.8132609347 -1.73663047165)
(-119.242096717 -37.2613344132 -1.55965604234)
(-109.38944908 -33.4806832921 -2.61986018445)
(-95.9134099113 -29.0262921756 -3.95909188182)
(-77.5311406863 -24.6965835087 -5.25180990449)
(-57.1733787889 -21.591550116 -6.44373368025)
(-35.8720360666 -19.8353411708 -7.47618966438)
(-12.6035496725 -19.1853103589 -8.1408692223)
(-15.8319224279 -142.3886815 15.0664317803)
(-44.8906177189 -140.294429635 15.1910374918)
(-70.8860170672 -137.550338629 15.7739541462)
(-95.5164069509 -134.52602034 16.1659175205)
(-118.365841724 -131.059867372 15.5001095707)
(-140.366863922 -127.055308598 12.7467390728)
(-156.41340245 -126.116544364 7.29622721601)
(-154.894963365 -127.501371794 -2.39441967141)
(-138.098622909 -112.008041684 -5.98859986263)
(-122.819769989 -79.87735692 -8.79663683063)
(-115.271892238 -49.5114512496 -10.3275823839)
(-113.217425524 -19.2969611451 -10.7448466641)
(-119.414694938 -9.58475807803 -7.65976434307)
(-120.780367946 -21.6743855969 -5.34942370671)
(-111.161965526 -29.8397772072 -3.85660243897)
(-95.9366055702 -28.5970285582 -4.38051482071)
(-76.8238300279 -25.0424902941 -5.34972414943)
(-56.353844627 -22.1263053616 -6.32169921533)
(-35.3011068827 -20.2098358791 -7.1815701399)
(-12.388640314 -19.5614639406 -7.83672078564)
(-14.9042561891 -154.384664759 13.4273162627)
(-42.317779143 -151.798267062 13.5196806535)
(-66.9514819779 -148.321118354 14.0537581556)
(-90.3834319127 -144.18681184 14.3613368113)
(-112.429889787 -139.032836933 13.6563757291)
(-136.546856533 -132.465073124 10.9947038743)
(-159.070022474 -126.589884694 4.96352844782)
(-149.172450648 -123.454522987 -20.9650101228)
(-111.213547131 -104.555707327 -14.4636027693)
(-86.0777016086 -71.4738905859 -5.74319465856)
(-78.4243331946 -40.889811975 1.70102029073)
(-88.5783131729 -9.14529134897 7.77930985954)
(-122.717328841 -7.1733693607 14.1266987574)
(-134.270299295 -19.8107056483 -2.63937339786)
(-118.618978501 -29.5322257603 -2.80442108646)
(-96.5438728426 -28.9852262945 -3.96358974352)
(-76.2759517837 -25.8031832824 -5.50577118246)
(-55.6403311219 -22.632362515 -6.15778168148)
(-34.6344998205 -20.3897306123 -6.95739434262)
(-12.1481995554 -19.4879096954 -7.62980065315)
(-13.6817112468 -163.002879983 11.6134358074)
(-39.0394474493 -160.051072714 11.5861639722)
(-61.8856628092 -155.857570598 12.0222737894)
(-83.5328930242 -150.532180457 12.2683686462)
(-103.752768125 -143.572032687 11.656651206)
(-126.872728109 -134.086446109 9.37914472564)
(-150.588289343 -121.76912009 5.46766611342)
(-135.677227111 -108.219068947 -25.4457793695)
(-86.9618470857 -89.6517688115 -14.762516969)
(-57.4750182895 -68.1334520826 -6.48401060298)
(-51.0726063441 -49.2242390173 -3.91816771101)
(-75.1898595187 -30.1271399292 -5.28730060012)
(-126.399610633 -31.0059901457 10.4484174381)
(-140.723998914 -31.8045542503 -2.61978145989)
(-123.472379341 -34.6427569628 -2.04297414828)
(-97.3075441017 -31.7926641626 -3.72662890062)
(-75.808001456 -27.5441964079 -4.87158757052)
(-54.4920639857 -23.386076258 -5.84297747329)
(-33.7786192687 -20.5967279897 -6.71500505731)
(-11.8590824479 -19.38177215 -7.43904117976)
(-12.2980945322 -168.10214885 9.6231093526)
(-35.2095500116 -164.940714538 9.48822986748)
(-55.8977570615 -160.190117385 9.79582464925)
(-75.2592232207 -153.927845774 9.94549078216)
(-92.9808529713 -145.407199073 9.35490202199)
(-113.334796174 -133.43512021 7.28172151136)
(-134.655872854 -114.98883626 4.23049405892)
(-118.805163213 -91.7668377375 -25.7967364607)
(-70.8306083778 -75.6946530312 -14.2304652935)
(-44.448290985 -67.1591457752 -6.36972354721)
(-39.7439018457 -62.0669064226 -3.15135782977)
(-66.801578283 -62.0424270588 -7.42376620312)
(-120.833470502 -58.141846395 13.3290080777)
(-136.308218058 -49.4482948026 -0.21103931198)
(-121.458232319 -43.4743956689 -1.20635246723)
(-94.7091775746 -36.9618360582 -3.36396224848)
(-73.3349709309 -30.0908359492 -4.57751826784)
(-52.3858993874 -24.5731981392 -5.5798374737)
(-32.3410465323 -20.9367845266 -6.40983985769)
(-11.3481921039 -19.2861027297 -7.13043287134)
(-10.8258879655 -169.586547816 7.64538646498)
(-31.0555234899 -166.427312528 7.33817806569)
(-49.2877835382 -161.34379212 7.45137174511)
(-65.8608036927 -154.635357387 7.52947762507)
(-80.3369138723 -145.51810304 6.9960640368)
(-95.3933349865 -132.443464771 5.27902692265)
(-109.951165287 -109.872757925 3.70514032055)
(-96.9921243688 -76.8720106561 -19.9974778202)
(-60.5343508423 -62.9312149803 -11.3587515497)
(-41.8025910309 -68.67899211 -3.35928710855)
(-43.9988918857 -74.5778120361 0.337364865764)
(-68.1778488734 -90.0055919075 3.08548164194)
(-109.549557518 -83.4386205627 14.118768531)
(-125.402568144 -67.1687706943 1.88797285711)
(-113.761071597 -52.4699925272 -1.20410947829)
(-89.4112476332 -42.3037607899 -3.15936894706)
(-68.9102600634 -32.8676963056 -4.38350470241)
(-49.027364765 -25.750747821 -5.29805518119)
(-30.2181042363 -21.1639905924 -6.05392620857)
(-10.6394943534 -19.0545019076 -6.73448415215)
(-9.42225190336 -166.943566773 5.69923848671)
(-26.8387138764 -164.032312726 5.37662844696)
(-42.4704451749 -159.352236026 4.84535433707)
(-56.4691470202 -152.834760184 4.5608244545)
(-67.9136648658 -144.251252297 4.09481126896)
(-76.4499403528 -132.367367543 3.50362005639)
(-80.1618965068 -113.333810592 3.82538080651)
(-72.9097956971 -89.3664275375 3.8493410353)
(-58.483372248 -79.3142839264 6.72759343006)
(-52.5967089401 -87.4405330983 8.10502775785)
(-56.2959917599 -94.759353688 8.65039041685)
(-72.2175951991 -104.978179226 7.55785906032)
(-94.2695095415 -97.0519011967 6.55258898201)
(-105.034630698 -79.1420764055 1.13039322628)
(-98.3839350758 -59.4713257571 -1.74557798732)
(-80.1229144288 -46.0412208655 -3.493525599)
(-62.1146623534 -34.6617147343 -4.46171942195)
(-44.3295870376 -26.2743012972 -5.12462445067)
(-27.399510318 -20.9421979503 -5.70292595216)
(-9.70624933949 -18.4517494099 -6.2831197336)
(-8.08366875748 -160.645217299 2.71266674295)
(-23.2352679462 -158.059188885 2.42302868278)
(-36.5148329607 -154.035308898 2.14656196069)
(-47.855718446 -148.246095876 1.7189354648)
(-56.6785768295 -140.861277523 1.16472102601)
(-62.1861301694 -131.337239143 0.6009280848)
(-63.3262512532 -119.466380892 0.884239389834)
(-60.1834797721 -107.470204307 1.15784323457)
(-55.637828731 -102.374743887 2.48362399085)
(-54.5330893125 -103.047665515 3.25547596227)
(-59.0077652271 -103.787286058 3.5924501279)
(-69.6242232524 -103.851082496 3.18247468944)
(-81.2257595564 -94.8259085571 1.90522000775)
(-86.3187688554 -79.5678800952 -0.599647303612)
(-81.5191866775 -61.1587452759 -2.73675185208)
(-68.5608531333 -46.5280333255 -3.93165669002)
(-53.753442635 -34.4992562928 -4.5182668374)
(-38.6562339772 -25.6634327006 -4.91320094888)
(-24.0672688744 -20.0271403523 -5.34270319934)
(-8.63366351898 -17.3918048311 -5.77743776564)
(-6.85759066339 -150.728293664 0.478563176938)
(-19.8766692219 -148.531506795 0.126911840298)
(-31.2509613594 -144.915147684 -0.31629093271)
(-40.8023759521 -139.968420649 -0.944721922937)
(-48.1723302938 -133.905399779 -1.63529090227)
(-52.9030895725 -126.749667082 -2.21198203994)
(-54.8601211965 -119.066772322 -2.26756555956)
(-54.2391044412 -112.32080516 -2.02658083083)
(-52.5041533612 -107.933061992 -1.50055196741)
(-52.361583436 -105.742006306 -1.24202300102)
(-55.2940652354 -102.808027946 -1.31877507929)
(-61.0836113598 -97.8050453587 -1.60086585129)
(-66.6720218142 -87.4470657657 -2.25660700821)
(-68.6182518362 -73.5574143059 -3.0781803432)
(-64.8718882383 -57.6650793222 -3.92946938042)
(-55.8454386346 -43.7003636511 -4.32263427397)
(-44.5022923155 -32.3195645056 -4.5234339618)
(-32.3964831472 -23.8829179959 -4.65957683257)
(-20.445567304 -18.4031182125 -4.90929661597)
(-7.44013416319 -15.8053400647 -5.21752418986)
(-5.83217223944 -136.398554979 -1.53677929719)
(-17.0085471415 -134.617128732 -1.87610259399)
(-26.8468896447 -131.615677226 -2.35528910878)
(-34.9578161229 -127.459074293 -2.9936797396)
(-41.1933536745 -122.388777434 -3.68790754263)
(-45.2966184352 -116.520311467 -4.23989602012)
(-47.3260322644 -110.256062869 -4.3566389062)
(-47.6978539518 -104.196009864 -4.19919841017)
(-47.451849061 -99.2629458191 -3.82380291603)
(-47.9290618093 -95.169653909 -3.6045305075)
(-49.6784272699 -90.5395386967 -3.55600302263)
(-52.35600183 -84.098598869 -3.65987082)
(-54.422429836 -74.654159968 -3.89843948522)
(-54.2810689742 -63.0053640181 -4.08362227815)
(-50.9224572473 -50.2291850874 -4.30670062178)
(-44.3253332489 -38.4171229306 -4.32851220279)
(-35.7738809887 -28.5775812645 -4.32774932174)
(-26.2661274411 -21.1536039516 -4.32118190239)
(-16.7924944051 -16.1669282023 -4.39032440897)
(-6.21149742834 -13.7182298612 -4.61310747512)
(-5.00479429448 -118.090699832 -3.355832064)
(-14.6444554781 -116.603551504 -3.63104454607)
(-23.2600699591 -114.135176738 -4.03798920839)
(-30.3496380983 -110.771910687 -4.52066302085)
(-35.7601418466 -106.616294361 -5.06811376154)
(-39.4120434735 -101.866573335 -5.51858878057)
(-41.4395751776 -96.8014148519 -5.67600972953)
(-42.1692140796 -91.7221316 -5.60268191659)
(-42.2571410236 -86.9479038873 -5.365443698)
(-42.45461915 -82.1894714835 -5.14027918673)
(-43.0025282082 -76.7435941858 -4.99694841223)
(-43.7053372371 -69.9815668339 -4.83757295275)
(-43.8063926593 -61.48243073 -4.72983794766)
(-42.6582871473 -51.669644071 -4.58285630652)
(-39.7075882838 -41.7557282876 -4.37370953484)
(-34.6442908246 -32.2920706866 -4.21192281581)
(-28.1128589753 -24.0429016537 -4.00819386142)
(-20.7137168729 -17.7703715816 -3.92081300743)
(-13.3348632484 -13.5265310247 -3.88138875933)
(-5.01997079753 -11.2540388219 -4.03145101591)
(-4.35106996019 -96.1889474011 -4.92192550216)
(-12.8036906848 -94.9951537952 -5.17916535671)
(-20.3886846193 -92.9556383828 -5.42176146128)
(-26.7062938463 -90.2499479239 -5.68431776743)
(-31.537399154 -86.9879667232 -6.02722552033)
(-34.7949796359 -83.2185181934 -6.30913397274)
(-36.6287482325 -79.1339443785 -6.41503304105)
(-37.3365568857 -74.8912602302 -6.36309059236)
(-37.336325665 -70.6108616725 -6.16683011656)
(-37.0780999821 -66.1065683959 -5.93547446891)
(-36.739066148 -61.0309236919 -5.64104244375)
(-36.2358335587 -55.0647591556 -5.31642509508)
(-35.168191317 -48.1180457037 -4.9746228522)
(-33.7702456852 -40.6358255318 -4.72422567866)
(-31.2504839776 -32.9369186279 -3.85916277059)
(-26.7909057276 -25.4538082454 -4.25333885507)
(-21.6056077511 -19.0125178735 -3.79472467247)
(-16.0163964664 -14.0655856708 -3.62592136583)
(-10.3379815449 -10.6873870404 -3.58758854185)
(-3.91244715969 -8.7405526512 -3.31096476206)
(-3.87383409681 -71.2751301309 -6.16007772009)
(-11.4653872106 -70.4185791922 -6.3755601767)
(-18.2701345427 -68.9250623669 -6.55154860116)
(-23.9271566447 -66.8763496608 -6.66024264236)
(-28.2800188412 -64.4117144527 -6.7842162564)
(-31.2425401665 -61.6452051467 -6.9065808975)
(-32.8910069586 -58.6484339921 -6.92188764383)
(-33.4144471367 -55.4678171647 -6.81824661304)
(-33.2050002136 -52.1488466741 -6.61254153097)
(-32.5633055623 -48.559348209 -6.32158856615)
(-31.6200043829 -44.5540995796 -5.96153772648)
(-30.433268712 -39.9973662497 -5.55420105165)
(-29.0292056336 -34.892667247 -5.11199178143)
(-27.2319004848 -29.6477204671 -4.49433325868)
(-24.5127425367 -23.867940721 -4.26067124602)
(-20.8599159847 -18.4187892261 -3.86767409643)
(-16.8499597387 -13.8354108583 -3.54731911471)
(-12.4580564994 -10.1054759709 -3.201036335)
(-8.0010428873 -7.66681232241 -3.06658732572)
(-3.02742516617 -6.30511503713 -2.78530791527)
(-3.59050517921 -44.0587725654 -7.01382892244)
(-10.6289954807 -43.670234695 -7.2463458436)
(-16.9290189064 -42.9132669043 -7.44287900537)
(-22.1655297873 -41.8198289901 -7.56618311732)
(-26.177336523 -40.4409627823 -7.64740498087)
(-28.8812313192 -38.806081919 -7.64619402538)
(-30.3391506712 -36.9712839165 -7.57831247846)
(-30.7245311308 -35.0165939461 -7.42902472366)
(-30.3125725561 -32.9186810713 -7.16853234436)
(-29.3603088976 -30.6053909175 -6.82130470231)
(-28.0646184509 -28.0192980815 -6.37972368007)
(-26.4933440532 -25.1331932829 -5.86568758501)
(-24.7820183231 -21.9500476864 -5.35097372585)
(-22.7719849847 -18.491835487 -4.75648997391)
(-20.1019755806 -15.0873253107 -4.30244968988)
(-16.8739089934 -11.9013596362 -3.79291132854)
(-13.3696771679 -8.98260264044 -3.47108631329)
(-9.87185815032 -6.62769454507 -3.35808655856)
(-6.51849795246 -5.03715566977 -3.00422168518)
(-2.48285509265 -3.9639737616 -2.39337574043)
(-3.62863937135 -14.9577453294 -7.54152634521)
(-10.5705140398 -14.9131148414 -7.81131304484)
(-16.6060036022 -14.7630348514 -8.00724622057)
(-21.6219237554 -14.5014138496 -8.137929592)
(-25.4102834799 -14.1321414796 -8.21609142811)
(-27.9000620577 -13.6403439145 -8.26154663918)
(-29.2111451617 -13.0500532685 -8.20308226631)
(-29.4553381365 -12.4201428827 -8.04951552366)
(-28.8768619637 -11.7000361694 -7.79612902496)
(-27.7350190515 -10.9036290542 -7.41217633235)
(-26.2127895096 -10.000305472 -6.9434214439)
(-24.4365462244 -8.98872641169 -6.39299481256)
(-22.4592158721 -7.88110261622 -5.75151992632)
(-20.4486686819 -6.60807638096 -5.03860668633)
(-18.0027097375 -5.51618737911 -4.67314802027)
(-14.8220684348 -4.48259026973 -3.81265363395)
(-11.6266423047 -3.43330701146 -3.35212170854)
(-8.54598586772 -2.6827268744 -2.92548441411)
(-5.32164624302 -2.0325466764 -2.4885256475)
(-1.85227696845 -1.41509988779 -2.13991782976)
(-15.9329407201 -13.2625591273 58.5388263362)
(-47.2074480758 -13.4379649437 57.5889333104)
(-76.962339926 -13.4834997642 55.7872673895)
(-104.526351258 -13.4550801564 53.0475128107)
(-128.866262452 -13.3597072341 49.4051087408)
(-149.090919338 -13.2222203646 44.9061719037)
(-164.607593845 -13.0176437396 39.6417458325)
(-175.164648129 -12.6729126823 33.8368069652)
(-180.748519858 -12.0891540679 27.6874840621)
(-181.537544823 -11.2158353402 21.4182636063)
(-178.034857331 -10.0946213766 15.1900161979)
(-170.755607772 -8.80778784836 9.16488783053)
(-160.193429767 -7.42748962218 3.47798232159)
(-146.681574654 -6.12562218681 -1.82318322258)
(-130.47044057 -4.98576428013 -6.66564644407)
(-111.642308653 -4.09252380344 -11.060469846)
(-90.2396056236 -3.44490664508 -14.8636200829)
(-66.52879059 -2.98881835585 -17.8850010944)
(-41.0976891077 -2.76012619086 -20.0412068259)
(-13.9970812393 -2.95419401983 -21.3548778442)
(-16.2015478109 -39.5706691975 57.7792943274)
(-47.5333319624 -39.8075660514 56.7123982678)
(-76.9003192309 -39.6628049579 54.7443827651)
(-104.245113969 -39.377608029 52.1948579122)
(-128.36184576 -38.97426882 48.8079503311)
(-148.394498802 -38.5323977065 44.3237350003)
(-163.65268196 -38.021833491 38.7770064769)
(-173.826771029 -37.1024878566 32.567447762)
(-178.892030328 -35.4703445771 26.0259720895)
(-179.179028635 -32.9195715264 19.497079718)
(-175.302351608 -29.5906001455 13.1468479888)
(-167.816394252 -25.7411753705 7.13081675173)
(-157.29986249 -21.6517239147 1.64262535867)
(-144.07614672 -17.8278451649 -3.35144064265)
(-128.291698708 -14.5355519195 -7.87641595211)
(-109.961145226 -12.0461740506 -12.1034986719)
(-88.9580303883 -10.2727803231 -15.8651484109)
(-65.5935315883 -9.03160652945 -18.8621363204)
(-40.6093123394 -8.33011447382 -20.8839343825)
(-13.8304229523 -8.5196594177 -21.7363966606)
(-16.343616235 -64.8200034909 56.3621308775)
(-47.5179902583 -64.6655219359 55.3038113583)
(-76.4946105926 -64.0343850347 53.6352638471)
(-103.733121909 -63.1679297557 51.7530069227)
(-127.810949736 -62.2908562767 48.7728034878)
(-147.778075217 -61.5318390158 44.1411777542)
(-162.684052575 -60.8635422886 37.9943891365)
(-172.095786503 -59.5520554423 31.0162082089)
(-176.048846704 -56.9334579504 23.809821524)
(-175.196935664 -52.5728697059 16.8620084925)
(-170.450466909 -46.8342116377 10.3312993823)
(-162.495460311 -40.2354721733 4.47858257002)
(-152.052809278 -33.3705457781 -0.460029876337)
(-139.381596229 -27.2033833726 -4.67078683758)
(-124.451610281 -22.020467324 -8.526496177)
(-107.029729065 -18.2568005736 -12.3939761248)
(-86.7877329243 -15.600032833 -16.0706430154)
(-64.0471778694 -13.8914589857 -19.2389492677)
(-39.8240765931 -12.9224776229 -21.4665628577)
(-13.6442111592 -12.8916089222 -22.211178206)
(-16.2981532412 -88.5005088491 54.2866798838)
(-47.1966381934 -87.8826393504 53.67590169)
(-75.7988645527 -86.7540747432 52.8987060979)
(-102.977849915 -85.2880004419 51.7463059526)
(-127.224522009 -83.7808066479 48.9221725468)
(-147.39348309 -82.6117804445 43.8427070265)
(-161.965629604 -82.0365857947 36.7317622781)
(-170.169312851 -80.689921398 28.5532331689)
(-172.135688685 -76.8941595579 20.3671339884)
(-169.349714468 -69.9574186642 12.8058262998)
(-163.266144186 -61.0228411098 6.06852741386)
(-154.688458368 -51.1392871641 0.475142315565)
(-144.587251192 -40.6476377878 -3.61471943831)
(-132.914043915 -33.1058068451 -6.4030723807)
(-119.315401531 -26.7026332718 -9.16884788155)
(-103.251000621 -22.2148387711 -12.4505506124)
(-84.0967289306 -19.1551930809 -15.9022094837)
(-62.2853327575 -17.2483156496 -19.2109147148)
(-38.8727697266 -16.29816897 -21.8345684991)
(-13.4166207447 -16.1631263999 -22.7268260269)
(-16.0810344487 -109.936374925 51.6233256468)
(-46.4749663058 -108.864937256 51.6500436169)
(-74.7300426107 -107.163986717 51.8078508723)
(-101.902354669 -104.90458397 51.11220448)
(-126.503794949 -102.53585336 48.0663464714)
(-147.326467774 -100.99652555 42.2804574857)
(-161.87069573 -101.234757228 33.8341696723)
(-168.105832149 -101.101447492 23.6856210861)
(-166.468009786 -96.2687642275 14.1078289799)
(-160.459752592 -86.3294313924 5.81881651522)
(-152.626316496 -74.1619282598 -1.22442338702)
(-142.94970547 -60.4307056366 -6.44543365108)
(-134.758632303 -45.6623451075 -9.21400923063)
(-125.93469871 -36.4266275454 -8.34707419619)
(-113.746191794 -28.9943678937 -9.72777376488)
(-99.2783025401 -24.3460389522 -12.3424433465)
(-81.3851233245 -21.1104296585 -15.7097265977)
(-60.6088281401 -19.0955548063 -19.3940318911)
(-37.9608002422 -18.1027463938 -22.5524799579)
(-13.0857536597 -18.1229805506 -23.4724564689)
(-15.7018918448 -128.683825031 48.3136968334)
(-45.2949251607 -127.196907619 48.8387874586)
(-73.0821191479 -124.800339684 49.5100775247)
(-100.173069805 -121.340574251 48.7858905642)
(-125.265455606 -117.732062917 45.237435413)
(-147.726148778 -115.149095562 38.5534188182)
(-164.031336827 -115.883887813 27.6564902207)
(-167.199954753 -119.513620116 13.1499738953)
(-159.672260196 -110.82823315 1.06995679138)
(-149.29048558 -93.4741537561 -8.03571867062)
(-139.015728851 -74.7840510982 -14.3608388625)
(-127.679183836 -56.1038292601 -17.7518482834)
(-121.679545499 -41.1539531585 -16.9801178462)
(-116.998963994 -32.4506932284 -11.1395416988)
(-107.760614807 -27.224197129 -11.6494917682)
(-95.513855761 -23.9785869131 -13.0636840928)
(-78.7183372079 -21.4359872031 -15.3487073215)
(-58.9133286485 -19.7151348501 -18.5706465769)
(-37.206509645 -18.7565127876 -21.8361098249)
(-12.9677706171 -18.8333374629 -23.5575961857)
(-15.0984181358 -144.393173035 44.1352924802)
(-43.5264771912 -142.593499767 44.8626597509)
(-70.4075916391 -139.465086258 45.6277258669)
(-96.7998242034 -134.809288783 44.6997113857)
(-121.785272703 -129.604830165 41.1762447238)
(-146.612155025 -124.03688381 34.4115714427)
(-169.017679678 -122.98988013 20.2029026145)
(-166.574746288 -141.128610132 -13.7847398831)
(-144.9751948 -118.165649936 -27.0323955761)
(-128.025025561 -78.4268910174 -34.5329651524)
(-117.543999496 -42.8061389205 -38.5210111354)
(-111.444702975 -9.23216685687 -39.581147893)
(-112.454576505 3.52332729542 -28.8185634923)
(-113.323475116 -15.4840975789 -16.217468817)
(-105.941884196 -22.3656194948 -12.657340809)
(-94.1703763675 -22.3427393115 -13.3891382145)
(-77.4638897963 -21.3744374847 -15.215772755)
(-57.8936972637 -20.1226745803 -18.1074461993)
(-36.5596683485 -19.2408850345 -21.3087499068)
(-12.7438671071 -19.0571181348 -23.254445842)
(-14.2854785128 -156.725263915 39.1368046541)
(-41.1709696447 -154.654532452 39.7319338294)
(-66.6714358885 -150.825315053 40.3087121845)
(-91.7534886295 -145.136541814 39.3641371479)
(-115.751039492 -138.104288252 36.8396945324)
(-142.158257113 -128.770445149 34.8814459993)
(-184.810033943 -120.921030587 24.2783597064)
(-168.54872054 -135.51173621 -97.1348215796)
(-104.854907953 -106.486070485 -79.4445119829)
(-75.8949260657 -64.1092986389 -31.4155265575)
(-67.9609653111 -30.4072418916 13.6237552079)
(-76.6235436236 1.16819247203 65.6627693147)
(-120.897637506 12.3358272894 93.1808787806)
(-141.178012754 -8.2420511485 4.32190373061)
(-114.612898887 -20.1386051029 -9.33560761673)
(-95.0217301377 -22.0495502219 -12.3523897662)
(-76.9731068225 -21.6562841024 -15.0178618462)
(-56.9991283042 -20.4983978488 -17.6797531022)
(-35.8383572658 -19.4240135457 -20.8442591069)
(-12.4666108166 -19.0407065608 -22.8743472006)
(-13.2501497302 -165.536973455 33.5475825655)
(-38.1659046414 -163.204974773 33.9081582847)
(-61.7262337454 -158.764478247 34.2286415327)
(-84.7540402409 -152.166449523 33.2472066199)
(-106.682217974 -143.418171386 31.3681131445)
(-130.241359093 -131.758838634 30.2955331484)
(-178.593472192 -116.64090518 26.5191412931)
(-157.101900683 -109.09908636 -118.909081534)
(-77.0510391678 -87.0556711771 -83.09962941)
(-50.6228912641 -64.8998192148 -27.261905978)
(-47.3781259946 -48.4490416149 21.598489764)
(-61.5817562928 -34.9547708268 68.8110054861)
(-114.377617042 -24.7188122136 110.870429171)
(-143.659506404 -20.9790191182 13.9186045051)
(-118.875705874 -25.0957361403 -7.16485448899)
(-95.7398958843 -24.8674769187 -11.4559625801)
(-76.3988711459 -23.173331309 -14.103359443)
(-56.0401239986 -21.2331294861 -17.0313149032)
(-34.966469379 -19.5935126382 -20.1974256814)
(-12.1343169225 -18.8594233664 -22.2881853291)
(-12.0500713929 -170.743686976 27.5300545678)
(-34.6847390049 -168.253707692 27.6116097524)
(-55.9022712046 -163.435177509 27.6112714223)
(-76.4201818701 -156.200183473 26.5182641714)
(-95.7434597177 -145.949312571 24.8043475384)
(-116.047462245 -132.191867166 23.3395751823)
(-161.489050086 -112.678576224 17.9341056989)
(-138.437438745 -86.8051342079 -118.397559239)
(-59.8915261862 -71.8417121438 -78.9490744443)
(-37.3298425495 -61.7831950257 -25.5037837719)
(-36.5267543097 -54.7783557739 26.8851638482)
(-51.5673796959 -50.9000008101 73.1356634742)
(-105.746892044 -47.3483914859 114.366989759)
(-139.891148927 -37.278065254 15.4534714004)
(-117.560628265 -34.275177745 -5.72277370002)
(-93.3068715363 -30.1788862708 -10.5181965607)
(-73.9438725475 -26.1538318055 -13.3793545101)
(-53.9064291014 -22.571474362 -16.2975661284)
(-33.4445668984 -19.9228797292 -19.3245292086)
(-11.5692059593 -18.650720512 -21.3906095111)
(-10.7479600604 -172.225729553 21.2764263893)
(-30.8673794845 -169.65704328 21.0874845662)
(-49.4234195293 -164.930439978 20.7217124112)
(-66.9047627682 -157.567016404 19.5893535723)
(-82.8799208419 -146.398761318 18.0215562654)
(-97.7909297793 -130.857227869 16.1911145551)
(-132.566091941 -105.93163997 9.86850508541)
(-113.461718905 -52.4572866082 -90.5606157797)
(-49.9542309203 -44.9529417243 -60.7444744306)
(-32.3934684661 -52.9965092364 -15.8903344252)
(-35.3172454424 -59.3401468166 29.4839920692)
(-52.819529564 -70.9885826458 76.6581168369)
(-101.667171756 -76.8825750888 100.125711388)
(-129.499275101 -56.7943019997 11.3898158782)
(-110.770253818 -44.0838703606 -5.33718134669)
(-87.9115464901 -36.1550881472 -9.6515065633)
(-69.5215367847 -29.4192202096 -12.6376219421)
(-50.4431593937 -23.9805631881 -15.4128280934)
(-31.1832597232 -20.1814169793 -18.2216887786)
(-10.7845996646 -18.3184701587 -20.1964969641)
(-9.38405988855 -170.201019902 14.876584549)
(-27.1237811638 -167.758179039 14.4374326616)
(-43.1099694999 -163.27342527 13.4151212595)
(-57.3365096583 -156.40201949 12.1886788905)
(-69.2318043357 -145.991311719 10.9597658095)
(-77.032349402 -131.557978819 10.0726143384)
(-79.7921997912 -110.936233455 10.6357402765)
(-69.0411141936 -60.3622413923 22.336030291)
(-53.2591927775 -57.943378788 30.5294359302)
(-48.8013534702 -71.7159745398 32.6361037728)