/*--------------------------------*- C++ -*----------------------------------*\
| =========                 |                                                 |
| \\      /  F ield         | OpenFOAM: The Open Source CFD Toolbox           |
|  \\    /   O peration     | Version:  v1606+                                |
|   \\  /    A nd           | Web:      www.OpenFOAM.com                      |
|    \\/     M anipulation  |                                                 |
\*---------------------------------------------------------------------------*/
FoamFile
{
    version     2.0;
    format      ascii;
    class       volScalarField;
    location    "3.4";
    object      epsilon_0;
}
// * * * * * * * * * * * * * * * * * * * * * * * * * * * * * * * * * * * * * //

dimensions      [0 2 -3 0 0 0 0];

internalField   nonuniform List<scalar> 
11640
(
0.000461290923722
0.000582723194885
0.000666156355015
0.000714112044674
0.000737282041717
0.000743667765025
0.000739495056609
0.000730503011836
0.000719512494773
0.000706752734989
0.000693471384303
0.000680638851143
0.000674061384921
0.000674761097408
0.000674856492476
0.000667976235831
0.000648189951555
0.000607064813068
0.000534407592439
0.000430725864018
0.000585109186916
0.00119609704948
0.00158391931159
0.0018140207533
0.0019381444807
0.00198817517062
0.00198738755122
0.00195885447453
0.00192099400139
0.00188299338325
0.0018457198235
0.00183964825261
0.00187154534635
0.00190202601291
0.00190211240465
0.00184466944575
0.00171662133277
0.00149560219418
0.00112285265516
0.000542062771996
0.000669975352162
0.00158780508655
0.0022000621316
0.002588453218
0.00279790422872
0.00286994125843
0.00284605080629
0.00277382031097
0.00268816231991
0.00260047840089
0.00252074871212
0.00258320005056
0.00268369897009
0.00278493539377
0.0028285862774
0.00274574791687
0.00250412544037
0.00210206648185
0.0015015522377
0.000616878900467
0.000718132962824
0.00182767521353
0.00260659240336
0.00309448124851
0.0033293514464
0.00337013838042
0.00328685743198
0.00315169320277
0.00300924331044
0.00286444702609
0.00277442332695
0.00290844791726
0.00310968462287
0.00333886343179
0.00349187422158
0.0034353064948
0.00311161951412
0.00254032248201
0.00173997064187
0.000658955995931
0.000743490167245
0.001973190283
0.00284709240427
0.00335898207086
0.00355399681631
0.00351673298441
0.00333479389136
0.00311148389799
0.00290851828549
0.00271621382995
0.0026362858762
0.0028270298498
0.00313643810843
0.00354611263281
0.00389316705919
0.00394184620157
0.00358357523362
0.00287600236395
0.00190515966981
0.000684558045754
0.000755974354801
0.00204459046201
0.00294456303649
0.00342165822653
0.00353029675519
0.00335769026448
0.00300269510431
0.00264293239441
0.00238233625397
0.00216817108592
0.00210737737504
0.00231604826461
0.00270378225274
0.0033317314602
0.0039604454792
0.00421348679769
0.00389567830081
0.00310615508121
0.00201636779372
0.00070495893873
0.000757402772867
0.00205636741844
0.00294121172714
0.00335700091467
0.0033503752569
0.00298569872665
0.00235674777875
0.00178664470675
0.00149996321012
0.00133026329483
0.00134709094002
0.00151454355372
0.00189547744009
0.00271304542724
0.00367516744443
0.00420454292175
0.00400425235966
0.00320788563621
0.00206804339811
0.000717065723742
0.00074986873839
0.00203327960825
0.00288893525907
0.00324617440482
0.00313710947108
0.00260429603396
0.00172660190014
0.00109345906379
0.000870810217373
0.000803005892339
0.000822808592966
0.000952863256547
0.00128104717699
0.00207912249664
0.00326572698512
0.00402308276144
0.00395237255753
0.00320105811393
0.00206860256003
0.000719747370663
0.000739274595505
0.00200627695754
0.00284140830071
0.00316502963587
0.00300267801883
0.00239545444851
0.00145667946579
0.000847718494152
0.000645643804832
0.000605332104479
0.000632503089119
0.000741456448337
0.00103673303613
0.00179308732291
0.00303644542662
0.00388962799762
0.00389106948188
0.00317585894826
0.00205876088466
0.000719532969288
0.000729758621745
0.00199348377033
0.0028284667842
0.00315083221782
0.00298301611818
0.00236403568736
0.00141031494254
0.00079550783151
0.000601883635284
0.000570157746681
0.000603532343734
0.000711015534079
0.00100584282579
0.00176851624557
0.00303585238207
0.00390665976872
0.0039107818378
0.00318890405777
0.00206387448418
0.000720870954845
0.000722922198977
0.00200200070461
0.00286010116444
0.00321573670579
0.00309322645182
0.00252881496444
0.00160322587663
0.00094125055567
0.000739872939697
0.000693850107941
0.000724661881248
0.000849081314179
0.001173784324
0.00200347143031
0.00327351217473
0.00408883526033
0.00402590801329
0.00325061969746
0.00208925051157
0.000724569725186
0.000716600456145
0.0020221495719
0.00292720181687
0.00335444955324
0.00334214700947
0.00295309532919
0.00226636381703
0.00165282221398
0.00140175857983
0.00129793968999
0.00122538480033
0.00140573098066
0.00182353322585
0.00272496204414
0.00381271857962
0.0044054381847
0.00418841462528
0.00332820915868
0.0021202330918
0.000727390758736
0.000706800703874
0.00203029715108
0.00299187203477
0.00351451725469
0.00363663826081
0.00344288008813
0.00302870572706
0.00260591048983
0.00234611759134
0.00215636696811
0.00217506851902
0.00244625806595
0.00291086640845
0.00364952665988
0.00438301957385
0.00465687010971
0.00426427217656
0.00334604425614
0.00212582907589
0.000724070414271
0.000694251496116
0.00200521331082
0.00300073975768
0.00361627159771
0.00387673876057
0.00385839927545
0.00366529022116
0.00342572965315
0.00322254648422
0.00303999399736
0.00312285710216
0.00340580244728
0.00380364516286
0.00430004115253
0.00468685728737
0.00468039000041
0.00417241133284
0.00326450726969
0.00209286787796
0.000714801888801
0.000689448239463
0.00194782086641
0.00291580712392
0.0035780629036
0.0039425932643
0.0040609479642
0.00400994167675
0.00388164008423
0.00374095670162
0.00362099472928
0.00374902125966
0.00397264605607
0.00424245113728
0.00451730440718
0.0046489487634
0.00447199413545
0.00393778032413
0.00310579521535
0.00203425278
0.000705566645259
0.000680197812365
0.00189036627404
0.00274103639186
0.00336170063235
0.00375789362711
0.00395170629148
0.00399270614948
0.00394671413776
0.00387731421422
0.0038531633278
0.0039602020123
0.00409392967246
0.00423449998857
0.00434408118597
0.00432449242274
0.0040839978088
0.0036002332452
0.0028955120123
0.00195103399212
0.000693784609984
0.00065702204494
0.00177014995646
0.00253827380327
0.00302357392908
0.00334220372796
0.00353599632118
0.00361749073071
0.0036342465892
0.00364421270955
0.00368071830549
0.00373494513277
0.00379065850516
0.00384024436541
0.00385598029494
0.00377911143008
0.00356036700915
0.00318217774535
0.00262442542435
0.00181132294702
0.000668665104596
0.000612366650041
0.00153498112601
0.00216500298271
0.00256805405306
0.00281367423058
0.00295170269688
0.00302515220861
0.0030631230291
0.00308442347302
0.00310067885798
0.00311569326597
0.00312988086535
0.00313786067095
0.00312255204869
0.00305351683904
0.00290083191108
0.00263784528638
0.00221662337986
0.00156247892482
0.000620876370011
0.00053736066101
0.00114201487787
0.00154454198264
0.00179767810575
0.00195102164207
0.00203798240071
0.00208342776222
0.00210403381132
0.00211208941677
0.00211552645463
0.00211817157183
0.00212099892252
0.00212074178295
0.00210906588472
0.00207105707494
0.00198684294834
0.00183041228312
0.0015686045311
0.00115335969682
0.000541075435736
0.000432131996341
0.00054777537789
0.000628058958364
0.000676343627125
0.000703419052513
0.00071717902202
0.000723567731542
0.000725503639966
0.000725543964386
0.00072501991668
0.000725000908112
0.000725065590309
0.000725132201527
0.000723453649935
0.000717757691758
0.000703627340768
0.000675124967989
0.00062503667608
0.000543367633601
0.000429599466514
0.000621424242074
0.000933575948445
0.00115494914868
0.00128427094514
0.00134734957593
0.00136765739095
0.00136744445972
0.00136187640484
0.0013568760408
0.00135269495087
0.00134810264635
0.00133904174756
0.00132943935866
0.00132206342464
0.00131492880999
0.00129494688278
0.00123665662411
0.00111199558533
0.000897787709212
0.000601434028617
0.000937081803748
0.00121462880631
0.00147323818399
0.0016359102305
0.00172234454277
0.00175648106617
0.001758724965
0.00174540782518
0.00172847569777
0.00171452492451
0.00170512900978
0.0017046590953
0.00171635763774
0.00172934246815
0.00172789054279
0.00169326668996
0.0016085021441
0.00144852838288
0.00118790530374
0.000916853662915
0.00116129402539
0.00147607432568
0.00179390643195
0.00200343374061
0.00211767969543
0.00216221659703
0.00215556148795
0.00212310408323
0.00208670375504
0.00205626112124
0.00203787580803
0.00205846275492
0.00210114340906
0.00214890990549
0.00217285446153
0.00213448544529
0.00200710528594
0.00178369519354
0.00145380166136
0.00113671086371
0.00128986405634
0.00164378215636
0.00201139461797
0.00225325217918
0.00237759662017
0.0024031775104
0.0023636339657
0.00229856383379
0.00223424444973
0.00218315816949
0.00216168807999
0.00220943231391
0.00229760847644
0.00240620397517
0.0024871805568
0.00247134047496
0.00231728677972
0.00202640119709
0.00162440535386
0.00126033082373
0.00135084651954
0.00173795794034
0.00213566100707
0.00238674122749
0.00249263681635
0.0024787960705
0.0023886299694
0.00227839911065
0.00217509857306
0.00209834292836
0.00207338244501
0.00213911032236
0.00227483891933
0.00246607298441
0.00264384424151
0.00269044012635
0.00253576769845
0.00219294661858
0.0017233081501
0.00131129301827
0.00137132281111
0.00177757218389
0.00218450993889
0.00242366084124
0.00249244765587
0.00241880079236
0.00225252585652
0.00208018822656
0.00191646395346
0.00180772867609
0.00177163634726
0.00183377728125
0.00200674765301
0.00229945820549
0.00261674294227
0.00277327903092
0.00265702534862
0.00229048790248
0.00177221230119
0.00131859049313
0.00136811022581
0.00177958129646
0.00218119152699
0.00239622144118
0.00241841357645
0.00226997158243
0.00199858860155
0.00170442236284
0.00144059566344
0.00131969021518
0.0012921806837
0.00133830439415
0.00153704221742
0.00194191810692
0.00242772976122
0.00272424021629
0.00267897662255
0.00232283648439
0.00178613651214
0.00131018746989
0.0013539813062
0.00176300237323
0.00215394990408
0.00234405358387
0.00232317494882
0.00210955206299
0.00175230916227
0.0012501277414
0.000961761356311
0.000886222808994
0.000873038911384
0.000910362973042
0.00111356530274
0.00155495308634
0.00218484762069
0.00260779973032
0.00263663925015
0.00231038115647
0.00177984250258
0.00130085215874
0.00134072791695
0.00174705777817
0.00213115927175
0.00230573618197
0.00225532384859
0.00198540649649
0.00151459623655
0.000982540625343
0.000708399167266
0.00064876320462
0.000643348982406
0.000678203649975
0.000873880521251
0.00134224656209
0.00204331045216
0.00253021021058
0.00260117143621
0.00229578879853
0.00177308494567
0.00129531130877
0.0013351765951
0.00174275000192
0.00212915178358
0.00230469757003
0.00225303156923
0.00197867988703
0.00150194596797
0.000972582590776
0.000697581063274
0.000636936867866
0.000628952611549
0.000658844974853
0.000853126521343
0.00133481714738
0.0020510748675
0.00254554284751
0.00261618296961
0.00230602261968
0.00177779665252
0.00129602968249
0.00133994271669
0.00175363154247
0.00215259363253
0.00234668494371
0.00232316147832
0.00209596470931
0.00171831931019
0.00124366840943
0.000944092380045
0.000858332652866
0.000831905233114
0.000853914595555
0.00105057609098
0.00154110427055
0.00221807430716
0.00266282052801
0.00268993191983
0.00234740691253
0.00179772944166
0.00130441161697
0.00135307158156
0.00177496327082
0.0021947406945
0.00242141704602
0.00244612033932
0.00228779316741
0.00199578390587
0.00174350720555
0.00147425277993
0.00135557979164
0.00129557400921
0.00133159372456
0.00154893538071
0.00200575719421
0.00254457632031
0.0028611716329
0.00279914083518
0.00240458918481
0.00182748250871
0.0013228767124
0.00136848731196
0.00179543663786
0.00223808024981
0.00250388901254
0.00258675864972
0.00251421348388
0.00233428261322
0.0021405337503
0.00198197225518
0.00189460106843
0.00189268407252
0.00199530223546
0.00221162709332
0.00255030488966
0.00289818253227
0.00304672938957
0.00288120234471
0.0024427768938
0.00185419521783
0.00135127152147
0.00137899506957
0.00180324845247
0.0022612960448
0.00256227697233
0.00270311601505
0.00270908186819
0.00262764988565
0.00251880546347
0.00242657546119
0.00237222620945
0.00240635302291
0.00252490338844
0.00270866284311
0.00293731270208
0.00312105360042
0.00312598012238
0.00288565455449
0.00243637676626
0.00186501527849
0.0013769566744
0.00137706910156
0.00179025927232
0.00224626832743
0.00256588440056
0.00274847812753
0.00281686673045
0.0028059278482
0.00276020145691
0.00271455560661
0.0026918205846
0.00274289443829
0.00284247992249
0.00296998829432
0.00309866201643
0.00316045337679
0.00307379854219
0.00280585803848
0.00238202846217
0.00185089004334
0.00138184832173
0.00134678416728
0.00175096442103
0.00218157034634
0.00249348778708
0.00268983903188
0.00279155019625
0.00282594820408
0.00282352056616
0.00281241857137
0.00281674771866
0.00286111443498
0.00292393943432
0.00299224261366
0.00304315496615
0.00302960622227
0.00290442322812
0.00265171279627
0.00228126753843
0.0017988570703
0.00135157088895
0.00126979637082
0.00165747234481
0.00206049990868
0.0023400411578
0.00251852500341
0.00262299571543
0.00267346340108
0.00269325688662
0.00270434391165
0.00272109251198
0.0027465975084
0.00277510633924
0.00279963312214
0.00280447646677
0.00276107064764
0.00264282962183
0.00243456116775
0.0021216466511
0.00168966457235
0.00127272976295
0.00112944774414
0.00148213861628
0.00183742517154
0.00208373888828
0.00223858609882
0.00232782327276
0.00237523817791
0.00239921014167
0.00241222093669
0.00242210893391
0.0024319447026
0.00244106019802
0.00244508276226
0.00243382362214
0.00239060083367
0.00229620981813
0.00213092388435
0.00187124173496
0.00149882686454
0.00112831103751
0.000905046752505
0.00120679542562
0.00149183512692
0.00168481858349
0.00180464962017
0.00187355742442
0.00190994763635
0.00192733408623
0.0019349883305
0.00193891982958
0.0019417362278
0.0019437333259
0.00194205599143
0.00193008774322
0.00189682992363
0.00182748430097
0.00170353325403
0.00150336091247
0.00120817052367
0.000898678901847
0.000603345473534
0.000930235787359
0.00116758994307
0.0013188370766
0.00140970737362
0.00146016051504
0.00148615707862
0.00149676656887
0.00149877239507
0.00149741478264
0.00149457524718
0.00148924191151
0.00148158510885
0.0014664331947
0.00143707565102
0.00138258889121
0.00128924840626
0.0011376655093
0.000903592996543
0.000591105177256
0.000757447033537
0.00125421257838
0.00161351108364
0.00182798569691
0.00193545239188
0.00197225582433
0.00197340982098
0.00196326426102
0.00195277022433
0.00194517173051
0.00194023664502
0.00193536383848
0.00193273987201
0.00193115171359
0.00191976309613
0.00187835287605
0.00177309453135
0.00156321501757
0.00121136643721
0.000731663201607
0.00125866191428
0.00145178248318
0.00171471316355
0.0018903249096
0.00198596464583
0.0020233786199
0.00202536162845
0.00201037931497
0.00199180506443
0.00197725057367
0.00196890042569
0.0019671087902
0.0019717887407
0.00197817845474
0.00197312762564
0.00193705275445
0.00184722990569
0.00167690369325
0.00141316522543
0.00123885495249
0.00162195482748
0.00171732768281
0.0019795989213
0.0021680388876
0.00227391610788
0.00231477792911
0.00230733860513
0.00227622434508
0.00224164014896
0.00221446311933
0.00219920118411
0.00220146568555
0.00222002101472
0.00224432523475
0.00225606385158
0.00222711991286
0.00212925388563
0.00194609453918
0.00167949860013
0.00160079688334
0.00183622271637
0.00189692279968
0.00217484585392
0.00237662692028
0.00248427333548
0.00250665902235
0.00247198740169
0.00241475503355
0.00235589853469
0.00231172478619
0.00228958732329
0.00230185999093
0.00234406518496
0.00240026015435
0.00244614284952
0.00243779485068
0.00233953294033
0.00213839473808
0.00185518918205
0.00181207563118
0.00194125778982
0.00199854674783
0.00229010943311
0.00249440638596
0.00258518424394
0.00257611979585
0.00250469382061
0.00241941769537
0.00232242656644
0.00225325843313
0.00222213360058
0.00224368942433
0.00231929088341
0.00241678723376
0.00251729167046
0.00255107826716
0.0024647043424
0.002251334809
0.00194902448483
0.00191040349348
0.00197739534944
0.00204081007029
0.00233716561625
0.00253163668597
0.00259450204149
0.0025443677185
0.00243435643989
0.00234370924827
0.00216405953284
0.00205023482063
0.00200279857245
0.00202875093444
0.00216250568254
0.00229917406286
0.00247004967668
0.00256997804028
0.00251548245737
0.00230158636902
0.00198546279533
0.00193801609577
0.00197433230527
0.00204278392122
0.00233575291245
0.00251292319556
0.00254425810307
0.00245466376918
0.00233456307485
0.00227582570029
0.00182521695953
0.0016416519176
0.00158892050775
0.0016222671803
0.00189414350389
0.00208625040176
0.00233471358065
0.00251416780168
0.00250758896371
0.00230851460004
0.00198952445923
0.00193338462806
0.00195468911116
0.00202536891224
0.00231133013782
0.00247008715616
0.00247217573233
0.00235592026616
0.00234940431524
0.00216158557436
0.00133899174633
0.00123208812129
0.00122955455442
0.00131869917247
0.00183677961281
0.00184656050501
0.00217610653157
0.00242972885803
0.00247183860494
0.00229483278176
0.00198143964171
0.00192155481935
0.001937402174
0.00200886647302
0.00229044619077
0.00243649092348
0.00241093859343
0.00222728705628
0.00197624007325
0.00153793375302
0.000814716579234
0.000717055919135
0.000732496898336
0.000826243512419
0.00129689233852
0.00154387644343
0.00204250733837
0.00237051465383
0.00244733977732
0.00228528702772
0.00197613705982
0.00191412237003
0.00193351053699
0.00200506772337
0.00228927658488
0.00243711931895
0.00241197939332
0.00222759338729
0.00197846767291
0.00157905262501
0.000855125073072
0.000754381012447
0.000755841617528
0.000830138718949
0.00128897254841
0.00154800295518
0.00205663147602
0.00238870873204
0.00246412291162
0.00229743496297
0.00198297253525
0.00191817402114
0.00194695743901
0.002017554572
0.00231201242915
0.00247679150132
0.00248026594191
0.00235946985641
0.00236011728723
0.0025150146256
0.00165197885877
0.00153433683581
0.00150384168898
0.00152212524641
0.0019686430451
0.00186478748391
0.00222516527485
0.00249192834981
0.00252888006277
0.00233653457629
0.00200564024477
0.00193622995045
0.0019750622603
0.00204164775094
0.00235133037676
0.00254185636473
0.00258078858265
0.00248885837818
0.00234784705939
0.0024587612763
0.0020397548873
0.00187602012444
0.00177319498662
0.00174055568141
0.00197477584221
0.00218391032216
0.00246628544696
0.00265081948766
0.00262549562936
0.00239413920434
0.00204162464365
0.00196939449409
0.00200760081387
0.00206587623612
0.00239078058492
0.00261069890331
0.00269346062426
0.00265685369865
0.00254723498806
0.00245073963105
0.00229920512205
0.00221632115927
0.00219318333112
0.00224194734178
0.00238492082606
0.00255265820902
0.0027338134064
0.00281576026099
0.00271944307877
0.00245111194933
0.00208266574199
0.00201336408155
0.00202921411311
0.00207733355955
0.00241160088108
0.00265670572034
0.00278256339974
0.00280242126912
0.00275289137124
0.00268175316087
0.00260747481841
0.0025654201591
0.00257075256452
0.00262663046581
0.002726377919
0.00284062802616
0.00293207360863
0.00292631776699
0.00277517283816
0.00248587061409
0.002112999865
0.00204701735444
0.00202286018859
0.00206479256885
0.00239799155084
0.00265606814053
0.00281259310659
0.00287820987764
0.00287905833066
0.00285045381773
0.00281836067649
0.0028034622312
0.00282119694062
0.00286819026949
0.00293300282638
0.00299410268802
0.00301621608913
0.00295157858225
0.00277180239154
0.00247996698104
0.00211273317881
0.00204381431452
0.0019669525617
0.00201573553582
0.00233812797999
0.00259270639616
0.00276014418346
0.00285109741483
0.00288635378379
0.0028909441796
0.00288698589788
0.00288992336047
0.00290965420988
0.00294141037318
0.00297568432372
0.00299552831898
0.00297400923285
0.00288052172936
0.00269577099022
0.00241613705067
0.00206125370663
0.00198301576363
0.00183490806125
0.0019072618971
0.00221740419383
0.00245818210981
0.00261869444906
0.00271389850572
0.00276240181525
0.00278348128361
0.0027935579214
0.00280391631943
0.00281895008091
0.00283638396988
0.00284968723272
0.00284627948774
0.0028066347391
0.00270964079145
0.00253777291891
0.00227732116308
0.00194027599892
0.00184297403299
0.0015993991635
0.00171679958349
0.00201218554094
0.00223625796379
0.00238403592398
0.00247251836711
0.00252057993201
0.00254480693486
0.00255753212779
0.0025666245976
0.00257553170308
0.00258359670064
0.00258610244091
0.00257358039321
0.00253173258322
0.00244270810318
0.00228719128471
0.00204869865891
0.00173283356382
0.00159739135685
0.00122828045719
0.00143719783893
0.0017247108179
0.00193158526394
0.0020645300704
0.00214311288699
0.00218572271576
0.00220697640354
0.00221708709811
0.00222264338567
0.00222671175491
0.00222926407077
0.00222683368385
0.00221186630028
0.0021723744717
0.00209255915081
0.00195378491901
0.00173677777311
0.00143526116047
0.00121733983409
0.000736629861283
0.00126485156337
0.00165672730823
0.00191192480803
0.00206976770358
0.0021604475426
0.00220844626104
0.00223092497207
0.00223802862507
0.00223870714112
0.00223519303561
0.00222812342759
0.00221377499917
0.00218562838539
0.00213036485577
0.00203130555425
0.00186736241575
0.00160984579625
0.00122383185355
0.000722564215586
0.000840973530097
0.00148246478615
0.00195407859413
0.00224048941826
0.00238704730819
0.0024386410454
0.00243957495761
0.00242262739365
0.00240422751875
0.00239115464637
0.0023851556518
0.00238476827549
0.00239002174469
0.00239557996684
0.00238342764421
0.00232413874738
0.00217772476488
0.00189583222372
0.00143172726459
0.000807309844147
0.00148769823327
0.00165422713011
0.00193756496198
0.002133149235
0.00224161009107
0.00228397527909
0.00228543760493
0.00226786314161
0.00224650491595
0.00223025858876
0.00222217461949
0.00222182180302
0.00222690388264
0.00223249326971
0.00222508708284
0.00218324827182
0.00208097460084
0.00189133807866
0.00160775135138
0.00146618461573
0.00196423391828
0.00194010824458
0.00218259680859
0.00236824203036
0.00247491310326
0.00251573434908
0.00250815723733
0.0024768064985
0.00244160022034
0.00241486628485
0.00240106471578
0.00240051991378
0.00241316005183
0.0024292970542
0.00243460641259
0.00240467757851
0.00231153647205
0.0021370687195
0.00189245647567
0.00194514523632
0.00225119659084
0.00213908473128
0.00237451071439
0.00256090183235
0.00266346916692
0.00268618795258
0.00265483082987
0.00260183395022
0.00254388713467
0.00250203267549
0.00248225399697
0.00248695410048
0.00251667089241
0.00255006715016
0.00257726171603
0.0025665423513
0.00248540857226
0.00231692189537
0.00208571559323
0.00223250842419
0.00239552061668
0.00225290838789
0.00249109225705
0.0026749283039
0.00276105672629
0.00275728655021
0.00270027228037
0.00263730212802
0.0025400243674
0.00247571780849
0.00244919105754
0.00246605745517
0.00253149706326
0.00257248134008
0.002625086504
0.00264333435514
0.00257902946986
0.00241684933423
0.00218983157016
0.00237483024726
0.00244707056215
0.00230083054128
0.00254061103964
0.00271500750412
0.00277841780189
0.00274739833997
0.0026905326937
0.00273262691694
0.00251326931591
0.0024053448733
0.00237264835112
0.00241379034318
0.00258817076701
0.00254534656376
0.00259419573596
0.00264682523582
0.00260777243813
0.00245512723661
0.0022300190772
0.0024240805381
0.00244582997952
0.0023044020685
0.00254165883344
0.00270222870256
0.00274424304677
0.00270510859087
0.00280633487756
0.00415326562262
0.00308735144468
0.00284430615811
0.00281354944366
0.00290637622291
0.00354845175136
0.00261418083092
0.00252684407879
0.00260255025159
0.00259422987924
0.00245668815552
0.00223516738662
0.00242672567685
0.00242254342041
0.00228672361521
0.00251881490137
0.00266415781349
0.00268616763131
0.00266834101637
0.00382339619262
0.00347132508904
0.00249234504172
0.0025481605671
0.00256710678709
0.002445809466
0.00222888187534
0.00241600363236
0.00240283995752
0.00226994216154
0.00249874138635
0.00263220000025
0.00262533241194
0.00252020986974
0.00304905805857
0.00280582791392
0.00235076635737
0.00250066565828
0.00255079178307
0.00244094912714
0.00222614655969
0.002409702696
0.00240127139947
0.00226709648447
0.00249854791122
0.00263417537334
0.00262879203226
0.00252812807146
0.00310013717162
0.00289000046512
0.00237839340042
0.002524678072
0.00257182844256
0.00245696443
0.00223679767721
0.0024193954682
0.00242297088986
0.00228214454983
0.00252254694441
0.002674673245
0.00270045275041
0.00269569841326
0.00419782894327
0.00394814898793
0.00257918621768
0.00262546411104
0.00263588416802
0.00249867439382
0.00226474392609
0.00244885265109
0.00246434989099
0.00231020732476
0.00256282204203
0.0027371132747
0.00278865672296
0.0027510359695
0.00279636970532
0.00429548012749
0.00345954952406
0.00331901600183
0.00332752922969
0.0035008811604
0.00427687312637
0.00275771161884
0.00268409287331
0.0027572142124
0.00272797093538
0.00255955438927
0.00230762182297
0.0024966198875
0.00251145576681
0.00233893998165
0.00260295706316
0.00280228814668
0.00288911016343
0.0028794095619
0.00282654414757
0.00283362636729
0.00267319188416
0.00260149955869
0.00259143343653
0.00264609516812
0.00279634891025
0.00280550250824
0.00287207980552
0.00290383808835
0.00282544537475
0.00262536003615
0.00235702681987
0.00255376229405
0.00254142653994
0.00235318825397
0.00262369468042
0.00284428984561
0.00296718780825
0.00299962734874
0.00297387710086
0.0029325223678
0.0028685811596
0.00283426280242
0.00283594349085
0.00287576941964
0.00294729494057
0.00300165177041
0.0030410388311
0.00302004345457
0.0028996642804
0.00267547267508
0.00239471575015
0.00259224111767
0.00252847745119
0.00233876500916
0.00260877941018
0.00284061560777
0.0029895411251
0.00305903999427
0.00307060455154
0.00305494908491
0.00303116179426
0.00302041874066
0.00303029329116
0.00306086825866
0.00310241652616
0.00313286245647
0.00313292591142
0.00307137985281
0.00292343851531
0.00268495606576
0.00239586207046
0.00257811867789
0.00244732104807
0.0022791795543
0.00254588884034
0.00277699567257
0.00293636791628
0.0030275642692
0.00306740370614
0.00307839419345
0.00307931878794
0.00308336624817
0.00309709988888
0.00311916269814
0.00314106902151
0.00314757563439
0.00311982051602
0.0030347303344
0.00287331272591
0.00262945616356
0.00233637469852
0.00248692513742
0.00226600216366
0.00215315515332
0.00241938205314
0.00264558316183
0.00280339975864
0.00290039165241
0.00295216877025
0.00297662313294
0.00298894824219
0.00299956027954
0.00301290578357
0.00302770542742
0.00303743765944
0.00303011036619
0.00298929335292
0.0028961945552
0.00273348686246
0.00249099901659
0.00219713373313
0.00229052604097
0.00194967883402
0.00193995133384
0.00221449642055
0.00243701238452
0.00258956834418
0.00268410978624
0.00273732306979
0.00276532406831
0.00278068498101
0.00279167368388
0.00280201784572
0.00281102518467
0.00281343060621
0.00279932149599
0.00275452923238
0.00266143503436
0.00250145099327
0.00226233808957
0.00196353142495
0.0019559282784
0.00145775946727
0.00163861257975
0.0019471694308
0.00217712655222
0.00232898500285
0.00242122662045
0.00247287608224
0.00249988209845
0.00251376188725
0.00252208043429
0.00252836042066
0.00253236703569
0.00252977154461
0.00251161153254
0.00246438263547
0.00237064977868
0.00221085750166
0.00196695891795
0.00163961623358
0.00144683864371
0.000814616238348
0.00150410418982
0.0020241660742
0.00236810731547
0.00258528592119
0.00271333507739
0.0027825226291
0.00281659671242
0.00282979071026
0.00283366267186
0.0028313969602
0.0028235854531
0.00280504082397
0.00276470279387
0.0026863451649
0.00254688031533
0.00231877802706
0.00196847017593
0.00145283495058
0.000798929796221
0.00090154448222
0.00165313643272
0.00221374314413
0.00255875467241
0.00273752901229
0.00280104781219
0.00280051218298
0.00277590697928
0.00274926173988
0.00273067152096
0.0027234922075
0.00272713415623
0.00273971066812
0.00275293303531
0.00274190974039
0.00266908782885
0.00248871531081
0.0021480412016
0.00159509946797
0.00085970372171
0.00165903091177
0.00181507273563
0.00212148079323
0.00233718273251
0.00245821356578
0.00250536088946
0.00250599048165
0.00248528446247
0.00246069436639
0.00244249077259
0.0024346155435
0.00243659666594
0.00244487487079
0.0024522388914
0.00244375236612
0.00239585029977
0.00228042041001
0.00207046816697
0.00176343236723
0.00163595325828
0.00222530230966
0.00212414467536
0.00236120779494
0.00255049660892
0.00266086248508
0.00270273438512
0.00269495700753
0.00266238959552
0.00262554828286
0.00259836267236
0.00258600736239
0.002587754726
0.00260146387706
0.00261622389693
0.00261846455039
0.00258494990873
0.00248825295075
0.0023108215384
0.00207094588637
0.00220921933891
0.00257155943764
0.00234317916169
0.00255675042482
0.00273759687949
0.00283945278082
0.00286347427824
0.00283370339229
0.00278124078805
0.00272173636929
0.00268006446777
0.00266307935632
0.00267032561553
0.00270084033335
0.00272701073851
0.0027449248493
0.00272989692715
0.0026515337075
0.00249291797693
0.00228481041187
0.00256073140198
0.00274813154032
0.00246974346472
0.00267822136416
0.00285274613125
0.00293837932577
0.00293872507927
0.00288900841398
0.00283134427138
0.00272890409711
0.00266384136483
0.0026425382004
0.00266708165747
0.00274138892812
0.00276381450074
0.00279137798022
0.00279772547211
0.00273823327061
0.00259511391858
0.00240369732151
0.00274193896376
0.00281205610678
0.00252397654467
0.00273190269694
0.0028971885271
0.00296341164599
0.00294482432436
0.00290964517825
0.00296708768515
0.00271595350803
0.00259895538925
0.00257399282115
0.00264206093511
0.00287110924158
0.00279197250811
0.00278006772359
0.00280296898
0.00276415213731
0.00263498060506
0.00245295983536
0.00281131049868
0.00281218577717
0.00252984295558
0.00273600493712
0.00288981508598
0.00294155648918
0.00293181362115
0.00308945827991
0.00454215088845
0.00327995216576
0.0029884526407
0.00294931523598
0.00310810231138
0.00408249425722
0.00297417504908
0.00275452436052
0.00277233667026
0.00275416060938
0.00263920548264
0.00246330925265
0.00282255482011