/*--------------------------------*- C++ -*----------------------------------*\
| =========                 |                                                 |
| \\      /  F ield         | OpenFOAM: The Open Source CFD Toolbox           |
|  \\    /   O peration     | Version:  v1606+                                |
|   \\  /    A nd           | Web:      www.OpenFOAM.com                      |
|    \\/     M anipulation  |                                                 |
\*---------------------------------------------------------------------------*/
FoamFile
{
    version     2.0;
    format      ascii;
    class       volScalarField;
    location    "3.4";
    object      nut;
}
// * * * * * * * * * * * * * * * * * * * * * * * * * * * * * * * * * * * * * //

dimensions      [0 2 -1 0 0 0 0];

internalField   nonuniform List<scalar> 
11640
(
9.76280614406e-05
0.000105566510677
0.000110403347008
0.000113047725933
0.000114574030189
0.000115395615831
0.000115347469956
0.000114677642333
0.000113776560677
0.000112784372663
0.00011177088715
0.000110776677186
0.00011009944156
0.000109932721853
0.000110146958438
0.000110315990134
0.000109529743149
0.000107162777879
0.000102648398827
9.54528719652e-05
0.000105710432817
0.000134338904449
0.00014798679052
0.000156622565475
0.000163118540083
0.000166765559229
0.000166725361795
0.000164043529052
0.000160560932886
0.000157130125931
0.000153768636529
0.00015111119761
0.00014933331932
0.000148167666166
0.000148266939977
0.000149314081787
0.000149143977342
0.000144420017328
0.000131650403511
0.000103132712505
0.000110615274473
0.000148185024348
0.000168690009851
0.000185859446983
0.000198980486125
0.000204624184839
0.000202127641197
0.000194506954066
0.000185594233106
0.00017685573225
0.000168437575109
0.000162479163388
0.000157302853059
0.000153307753197
0.000152325612338
0.000155006350395
0.00015882030687
0.000157852577175
0.000144582197138
0.0001077311244
0.000113276145403
0.000157743672899
0.000188189077659
0.000215158506934
0.000233253841199
0.00023821572959
0.000230736234198
0.000216252356627
0.000200461383507
0.000185187760253
0.000171243535052
0.000161076370162
0.000151970801834
0.000144571297114
0.000141546974729
0.000144758059436
0.000152437749419
0.000157838826182
0.000149151491781
0.000110093750505
0.000115168125859
0.000167064617933
0.000207874837438
0.000242289026425
0.000262390997503
0.000264033874161
0.00024975676195
0.000227817410956
0.00020550103989
0.000184457522013
0.000166192505129
0.000152812355306
0.000140924012883
0.000131252092696
0.000126348719387
0.00012915920808
0.00013928674175
0.000150256763891
0.000148172584308
0.000110877942986
0.000116955629696
0.00017526901627
0.000223495371131
0.000261950968337
0.000281027216673
0.000276674450315
0.000253592727546
0.000224137752557
0.00019723487255
0.000172998530334
0.000153184863496
0.000139076025095
0.000127232070191
0.000118228319913
0.000112945413288
0.00011522737736
0.000126554510503
0.000141272803197
0.00014464777449
0.000110754543646
0.000117920648262
0.000179722964121
0.000231348846815
0.000270622722201
0.000286535587526
0.000274361112976
0.000239431598238
0.00020015522335
0.000170943691782
0.000147682310294
0.000131359581903
0.000119222810791
0.00011046081004
0.000106315110924
0.000103742725511
0.000106661407793
0.000118751167352
0.000135423723774
0.000141793305164
0.000110491073944
0.00011780118255
0.000180204402174
0.00023212996839
0.000270384522719
0.000283082063122
0.000264408726628
0.000217454693325
0.00017120836046
0.000143275611285
0.000124977439715
0.000111735660133
0.00010237019185
9.70985306812e-05
9.68282632008e-05
9.84919743293e-05
0.000103151492511
0.00011601552708
0.000133416459516
0.000140682201728
0.000110362860552
0.000117248202716
0.000179372584936
0.000230801862072
0.000268075729339
0.000278981011589
0.000257232029215
0.00020564658369
0.000157272362771
0.000129673379588
0.000113745647914
0.000102312121224
9.4261683381e-05
9.062312205e-05
9.22992949519e-05
9.62253922017e-05
0.00010204167668
0.000115420461652
0.000133053154818
0.000140460624128
0.000110355435701
0.000116748612254
0.000178985304212
0.000230422315887
0.000267642968719
0.000278331499785
0.000256017847903
0.000203370846687
0.000153909288491
0.000126632496742
0.000111495047499
0.000100738311639
9.29775100909e-05
8.97877431197e-05
9.19012584948e-05
9.62452081624e-05
0.000102196590506
0.000115608215726
0.000133223675988
0.000140576111282
0.000110422372786
0.000116397118717
0.000179243925705
0.000231259434216
0.000269427864619
0.000281646907089
0.000261643111466
0.000212035273409
0.000162645394859
0.000135580912583
0.000119113530378
0.000107210899532
9.87252553638e-05
9.46024238111e-05
9.57962929654e-05
9.86776214932e-05
0.000103737243469
0.000116711666371
0.000134073102946
0.000141148207905
0.000110610566938
0.000115831122676
0.000178761557799
0.000231014598221
0.000270643736262
0.000286451251656
0.000273525277438
0.000236560630748
0.000195816769919
0.000168104768626
0.000147364741607
0.000128671520662
0.00011735843366
0.000109991588664
0.000107038676002
0.000105409152843
0.00010859112323
0.000120704833684
0.000137201817101
0.000143038598396
0.000111029000452
0.000114478610696
0.000175039836903
0.000224978413728
0.000264769307262
0.000284439475321
0.00027966507714
0.000255015327239
0.000223887611141
0.000197001930771
0.000173673025563
0.000155836404844
0.000142706845116
0.000131435211498
0.000122730906242
0.000117555670868
0.000119750788771
0.000130914140115
0.000145161238051
0.000147398300212
0.000111778910841
0.000112707785974
0.000168223556777
0.00021201956149
0.000249069253637
0.000271095609989
0.000273480933232
0.000259017520347
0.000236636553801
0.000214107956365
0.000193289272517
0.000177312305176
0.000164094690736
0.000151730636779
0.000141239293884
0.00013552619425
0.000137716491667
0.000147273335628
0.000157234701968
0.000153110348175
0.000112478310925
0.000111836932253
0.00016142899047
0.000195877246174
0.000226675378371
0.0002479242297
0.000254876667202
0.00024808660266
0.000233499742182
0.000217458576692
0.00020234412892
0.000190773787478
0.000180304598103
0.000170129781837
0.000161373608197
0.000157034586904
0.000159164423012
0.000165717195679
0.000169289070728
0.000157266672888
0.000112562437256
0.000111256084216
0.000157197585541
0.000182022266508
0.000203600065117
0.000220650891243
0.000229016218653
0.00022787955267
0.000220583483764
0.000211699261788
0.000203557293253
0.000197064220272
0.0001908367562
0.000184604580932
0.000179209369835
0.000176744081916
0.000177968763789
0.000179975276037
0.000175934109294
0.000157760062244
0.00011195957733
0.000109953819002
0.000153203516197
0.000173402897403
0.000186356790057
0.000196687908554
0.00020340879902
0.000205140284646
0.000203269221498
0.00020043326693
0.000197896555631
0.000195569974401
0.00019323535398
0.000190780395735
0.000188534517399
0.000187277960266
0.000186543286632
0.000183512904247
0.000174282193936
0.000154411049511
0.000110557798111
0.000107370498676
0.000146053199837
0.000163903163403
0.000173643238727
0.000179619307341
0.000183468809868
0.000185364525163
0.00018582383793
0.000185694371057
0.00018544002551
0.000185143575124
0.000184819511195
0.000184365637962
0.000183665296895
0.000182543767858
0.000180228461095
0.000175065924251
0.000165246829781
0.000146983843911
0.000107821718016
0.000102744569153
0.000132296147219
0.00014641582024
0.000154097142949
0.000158431506561
0.000160810204424
0.000162036127918
0.000162591014122
0.000162808533735
0.000162894034959
0.000162949302855
0.00016300099459
0.00016296620674
0.000162631641704
0.00016160621603
0.000159334916352
0.000154986540562
0.000147175471523
0.000132737498652
0.000102950039921
9.5481262189e-05
0.000103419765126
0.000108301076497
0.000111053601863
0.000112555066882
0.000113314975588
0.000113669177168
0.00011378038175
0.000113783908552
0.00011375260647
0.000113745247024
0.00011374023228
0.000113732188955
0.000113633777311
0.000113318852469
0.000112543320213
0.000110968080207
0.000108110590605
0.000103124719465
9.52897233078e-05
0.000185347635335
0.000212426881218
0.00022815891626
0.000236426965415
0.000239999376105
0.000240733548783
0.000240359988274
0.000239878729849
0.000239487526745
0.000239154974043
0.000238813559834
0.000238202980568
0.00023756203895
0.000237238979179
0.000237291337827
0.000236727989733
0.000233466861325
0.000225395170702
0.000209777910908
0.000183324939245
0.000212648857635
0.000580894600037
0.000721560245168
0.000786142002667
0.000816390283608
0.0008289751378
0.000831347905603
0.000829070531622
0.000826597982866
0.000826029498039
0.000825221976013
0.000814770637128
0.000799918851119
0.000788061728019
0.000783405856348
0.000782714746433
0.000770506285486
0.000719243643722
0.000585780482045
0.000211137411642
0.000228522246586
0.000722765265165
0.000921618556326
0.00102237802474
0.00107412893723
0.00109289551755
0.00108735908029
0.00107163994214
0.00105732703022
0.00104599418687
0.00102875331273
0.000982619846277
0.000936143566652
0.000901052013291
0.00088891387904
0.000901296278123
0.000916338532781
0.000882950199304
0.000721588860653
0.000226931085659
0.000236761096121
0.000788423835628
0.00102428643143
0.00115124915006
0.0012129091977
0.00122111715161
0.00119346331166
0.00115528299374
0.00112474718803
0.00110027500628
0.00105923069707
0.000981713596901
0.000907048803291
0.00085294380736
0.000831323065855
0.000848953684325
0.000891325480993
0.000903193811688
0.000769080753932
0.000234869061057
0.000240333236311
0.000819071336745
0.00107962903377
0.00122007022346
0.00127530242028
0.00125786817025
0.00119179306714
0.00111959682844
0.00107220823517
0.00103794949392
0.000980268906893
0.000884212359401
0.00079837881258
0.00074601737993
0.000725665615432
0.000745907675244
0.000802944543132
0.000851922062368
0.000765693568762
0.000237997580558
0.000241252207037
0.000829623555522
0.00110178155432
0.00124188566125
0.00127564562065
0.00121109914681
0.00107460347405
0.000944592370446
0.000886628807894
0.000855072408939
0.000797146461925
0.00070609239131
0.000636163121243
0.000621500851981
0.000623789451184
0.000651932534202
0.00071647373937
0.000786652002813
0.000739991616841
0.000238693988686
0.000240844136293
0.00082784790822
0.00109942104466
0.00122812262484
0.00122937670139
0.00109552659904
0.000832297081687
0.000604533556583
0.000553491382305
0.000550409836144
0.000508506769674
0.000449301230585
0.000422327110968
0.000481846008261
0.000538384045938
0.000587767216322
0.000660932494916
0.000742136897498
0.000717064372358
0.00023847247104
0.000239933435909
0.000821011085017
0.00108564331396
0.00120035605097
0.00117214749204
0.000973939494098
0.000563950954696
0.000345082252268
0.000313386684735
0.000332599148854
0.000331749592936
0.000305040003835
0.000302530430381
0.000374189907914
0.000481143879493
0.000555861446868
0.000638249376227
0.000724772587177
0.000706749721577
0.000237997768736
0.000239117489745
0.00081653671302
0.0010759425197
0.00118307872613
0.00114305084594
0.000929159969661
0.000507194201026
0.00029717627081
0.000259946552545
0.000276214440567
0.000274607590423
0.000251801810847
0.000258055683332
0.000334429301572
0.000459464531356
0.000545392520933
0.000632735847776
0.000721234949948
0.000704034064647
0.00023763847101
0.000238772028953
0.000817834632879
0.00107714214201
0.00118471226452
0.00114568594469
0.000933070522313
0.000511265946509
0.000296144739317
0.000257704709757
0.000274369105958
0.000273864288387
0.000250885054552
0.000257563506151
0.000336458961445
0.000463595732806
0.000549677911752
0.000636611384119
0.00072426951745
0.0007056367825
0.000237663810695
0.000239059818913
0.00082617959879
0.00109115327357
0.00120799238768
0.00118420182678
0.000993953491392
0.000593377082249
0.000357998624525
0.000321723284699
0.000341385394724
0.000342956895428
0.000311745324535
0.000306960844984
0.000386496199358
0.000497054386542
0.000570894845624
0.000651541974633
0.000735149272597
0.000712397295147
0.000238171639565
0.000239986628439
0.000839480551551
0.00111364614382
0.00124793407903
0.00125871583053
0.0011408595236
0.000897229129004
0.000615705050827
0.000564523162467
0.000576366914759
0.000580980399836
0.000528296321951
0.000494824753639
0.000531687883413
0.000576617062004
0.000619076313799
0.000687490556666
0.000763184673702
0.000729624110418
0.000239259036309
0.000241251991456
0.000852870679929
0.00113280702437
0.00128356983251
0.0013308558096
0.00128293482245
0.00116344688938
0.00103658800118
0.000980887437036
0.000954914877132
0.000894780364091
0.000805593214958
0.00073175068182
0.000695289936223
0.000683636653232
0.000703206571034
0.000761685339591
0.000824337638313
0.000764664014854
0.000240783072534
0.000242191457374
0.000861973993457
0.00113981798423
0.00129854177238
0.00137346177572
0.00137534790987
0.00132691462522
0.0012674350886
0.00122702170642
0.00119501210918
0.00111841763643
0.00101750687714
0.000924099053095
0.000854294714321
0.000819747397568
0.000830373021608
0.000879801678077
0.000918381411097
0.000811262331069
0.000242048832096
0.000242109450422
0.000863293063032
0.00113123255555
0.0012862049065
0.00137336874768
0.00140467209031
0.00139477098754
0.00136866327565
0.00134428585167
0.00131849782688
0.00124968476429
0.00116510381701
0.00108261660389
0.00101499849127
0.000980448854812
0.000988459636841
0.00102164593934
0.00101833604078
0.000848415567223
0.000242236948595
0.000240279247022
0.00084881461149
0.00110527064667
0.00124693036558
0.00133212523871
0.00137501591713
0.00138637447419
0.00138171008095
0.00137283892263
0.0013556860934
0.00131073057232
0.00125780000347
0.00120404926814
0.00115771465794
0.00113405081927
0.00113669588794
0.00113936195739
0.00107775522058
0.000855944712612
0.000240534244652
0.000235593315514
0.000811508719584
0.00104874674694
0.00117876255492
0.00125402287066
0.00129583913249
0.0013156437563
0.00132249444874
0.0013212231059
0.00131085417288
0.00129255718295
0.00127162193488
0.00124932931477
0.00122837067182
0.00121456632042
0.00120282644902
0.00116627980624
0.00106163228133
0.000825624015648
0.00023578546665
0.000226520228163
0.000738732037229
0.000945610042791
0.00105344919776
0.00111527223477
0.00115187172506
0.00117086377735
0.00117878390855
0.00118139064952
0.00118073285109
0.00117805987416
0.00117447857246
0.00116948581095
0.00116197327953
0.00115013175182
0.00112599305713
0.00107170036065
0.000963132624621
0.000750541552997
0.000226451755163
0.000210282860503
0.000593744432045
0.000743691085238
0.000821500266077
0.000865393138978
0.000890165550881
0.000903292145148
0.000909680105269
0.000912668110088
0.000913863821494
0.000914333101051
0.000914392914415
0.000913144374135
0.000908945532411
0.000898287935541
0.000875774148605
0.000832453857648
0.000752688525
0.000598794052444
0.000209755270597
0.000183477925218
0.000212224775119
0.00022909288917
0.00023869885979
0.000244144445082
0.000247084508646
0.00024857317405
0.000249174393083
0.000249284169889
0.000249197823454
0.000249025213749
0.00024871647151
0.000248268878344
0.000247398846468
0.000245703734814
0.000242511313273
0.000236859093696
0.000227093067709
0.000210161963454
0.000182174805926
0.00019796728481
0.000234375567176
0.000255045468622
0.000265876694594
0.000270596586472
0.000271635861043
0.000271213708089
0.000270582538076
0.000270044328952
0.000269652470766
0.000269402902741
0.000269162797129
0.000269020728031
0.000269113087926
0.000269165294864
0.000267994209036
0.000263330327251
0.000252566966904
0.000231875617936
0.0001957101065
0.000234583989093
0.000782061202964
0.0010070857828
0.0011109445022
0.00115858896406
0.00117799783202
0.00118230341027
0.00117902862111
0.00117498473563
0.00117422370385
0.00117566532996
0.00117471596019
0.00117186254567
0.00116974481343
0.00116629746765
0.00115370411702
0.00111606937394
0.00102061538981
0.000801234743878
0.000233443225446
0.000255408774274
0.00100969521673
0.00134976374167
0.00151783279071
0.00159868762765
0.00162653696822
0.00161852461192
0.00159657859027
0.00157747567295
0.00156455695183
0.00155229330174
0.00152875415957
0.00150611480064
0.0014924340671
0.00148938036948
0.00148842144138
0.0014574304431
0.00133834112217
0.00102740464425
0.000254401680958
0.000266267335024
0.00111667889395
0.00152144888674
0.00172747077677
0.00181919735538
0.00182797992876
0.001785654069
0.00173003954835
0.00168968623849
0.00166238081473
0.00163310513244
0.00158799995172
0.00154822029285
0.00153043061176
0.0015320216708
0.00154739647329
0.00154600662361
0.00145178620011
0.0011250269394
0.000265174214758
0.000271133552838
0.00116632240231
0.00160576386326
0.00182573473103
0.00190163070262
0.00186590295714
0.00175761504431
0.00164089083302
0.001576721831
0.00153853549419
0.00149594095479
0.00143784827809
0.00139557405945
0.00140950457335
0.00143969269786
0.00147890811628
0.00150945504875
0.00145624458837
0.00115520465125
0.000269924612068
0.000272615315166
0.0011834162898
0.00163447307571
0.0018466592454
0.00188304864498
0.00176476148118
0.00152436660534
0.00128091492163
0.00120388547772
0.0011710516513
0.00112617245265
0.00106859032921
0.00104491264578
0.00117472249161
0.00128726987801
0.00136866005081
0.00143067067313
0.0014150311294
0.00115017617328
0.000271440457534
0.000272375906182
0.00118213633811
0.0016281002569
0.00181766577565
0.00179700521417
0.00155426502835
0.00106284749423
0.000607874847316
0.00055131503346
0.0005470477085
0.000517145917059
0.000484975744641
0.000496767554249
0.000833016051902
0.00110938873049
0.00126425789135
0.00136102129097
0.00137333569953
0.00113571749728
0.000271452209829
0.000271448801319
0.0011741503425
0.00160850614833
0.00177427371101
0.00170245543781
0.00133956217758
0.000547717087376
0.000161261331743
0.000138101568331
0.000134282404586
0.000134024916706
0.000136835417236
0.000152288014499
0.000502447666842
0.000950308775084
0.0011926359933
0.00132214613259
0.00135110280328
0.0011260624579
0.00027098395729
0.000270616777228
0.00116981109563
0.00159682282226
0.00175111923093
0.00166207774926
0.00128194188027
0.000495171404644
0.000144366515962
0.000117605576157
0.000112859921874
0.000113513381526
0.000117885488333
0.000136207291321
0.000449112014659
0.000907852483074
0.00116946170702
0.00131084997235
0.00134545859704
0.00112330518061
0.000270616674909
0.000270426903402
0.00117421710862
0.00160261562362
0.00175838704001
0.001671304046
0.00129343227725
0.000505529453713
0.000146197232254
0.000120098192734
0.000115561497799
0.000115561175599
0.000118952049817
0.000136594953416
0.000456565855027
0.000920827674557
0.00118226957917
0.00132183174372
0.00135369106791
0.00112799016062
0.000270792136637
0.000271067647661
0.00118927562437
0.0016288260036
0.00180057844287
0.00173757078587
0.00138915323108
0.000607111769388
0.000170824478286
0.00014939387835
0.00014661791405
0.000146132979073
0.000147043390546
0.000158916765012
0.00055224638823
0.00100358448325
0.00123689574869
0.00135845699588
0.00137835879678
0.00114168081924
0.000271641389309
0.000272505290348
0.00121219218708
0.00167083225595
0.0018740825131
0.00187105565883
0.00165686315167
0.00121182389473
0.000617052413169
0.000568868020156
0.000593884844168
0.000638073957429
0.000668179257471
0.000696020065712
0.000976030980021
0.00121635255918
0.00134962812741
0.00143051935449
0.00142620661504
0.00116680910142
0.000273198819184
0.000274289918256
0.00123596162938
0.00171269169638
0.00194973707004
0.00201248479034
0.00192528263385
0.00172366988874
0.00149815257621
0.00142736657126
0.00140740107134
0.00138051200064
0.00133828894381
0.00131731550519
0.00138191525791
0.00145020895496
0.00150385352384
0.0015443250335
0.00150441420266
0.00120466681149
0.000275146821387
0.000275541886538
0.00125275578731
0.00173861582679
0.00199948601657
0.00211392973145
0.00211445563909
0.00204023310081
0.00195088175953
0.00190198751469
0.00187396539156
0.00182787837448
0.00176607519721
0.00171098746875
0.00168392701885
0.00167717411416
0.00168699684451
0.00168987660512
0.00160152544347
0.00124523893217
0.000276492786708
0.000275298730755
0.00125539267336
0.0017372039716
0.00200466761773
0.00214783159583
0.00220046401082
0.00219290140562
0.00216273618602
0.00213837400959
0.00211691847839
0.00207330868661
0.00201698152288
0.00195970394267
0.00191174117861
0.0018811149661
0.00186517546423
0.00182812376334
0.00168252468529
0.0012687622123
0.000276235857518
0.000272730256224
0.00123349351311
0.00169917602656
0.00195552240451
0.0021038428881
0.00217950329442
0.00220635994075
0.00220846986648
0.00220379788407
0.00219223928283
0.00216453127752
0.00212877419106
0.00208936584614
0.00205021570237
0.00201671849315
0.00198051014503
0.00190198132534
0.00170336587146
0.00125680055448
0.000273535144882
0.000266476868922
0.00117411283331
0.00160470782991
0.00183985624767
0.00197717396047
0.00205419391363
0.0020926046642
0.00210854571396
0.00211325100914
0.00211044667592
0.00210071898104
0.00208698819426
0.00206917260695
0.00204585698539
0.00201457697902
0.00196167702959
0.00185290983509
0.00163198549478
0.00119703042099
0.000266953190217
0.000254501517367
0.00105533160488
0.00142190900662
0.00161790488699
0.00173093193057
0.00179639325655
0.00183192979053
0.00184962697036
0.00185803671462
0.00186145043057
0.00186167713161
0.00185941737535
0.00185307721303
0.00183878775288
0.00180993231504
0.00175322839949
0.0016447080374
0.00144575358996
0.00107128183517
0.000254452176222
0.000232932915234
0.000818601186556
0.00106521894404
0.00119497333057
0.00126917676769
0.00131172699786
0.00133516660423
0.00134744564396
0.00135370331534
0.00135674886276
0.00135809327599
0.00135782859679
0.00135456892932
0.00134510183384
0.00132399352402
0.00128280008245
0.00120806625049
0.00107532427438
0.000824320340444
0.000232222909283
0.000196138026645
0.000235207088676
0.000257550192225
0.00027028524417
0.000277634417333
0.000281713969668
0.000283837087342
0.000284819133405
0.000285131358317
0.000285152477577
0.00028499228194
0.000284667890594
0.000284027731377
0.000282772438582
0.000280312080372
0.000275826706024
0.000268108966956
0.000255054329786
0.000232601314463
0.000194817393594
0.000204995009381
0.000247796571676
0.000271841890675
0.000284493193225
0.000290118254118
0.000291426950278
0.000290910131615
0.000290055641661
0.000289293944627
0.000288758499947
0.000288529150116
0.00028854059715
0.000288779408264
0.000289200835177
0.00028932311021
0.000287741134864
0.000282067270723
0.000269404109142
0.00024522110474
0.000202260827372
0.000247999299485
0.000895436325228
0.0011732163388
0.00130329257975
0.00136312057537
0.00138707283014
0.00139153273965
0.00138616657351
0.00137945985944
0.00137716440628
0.00137964301268
0.00138432370595
0.00139034156319
0.00139666175773
0.00139597832507
0.00137701140746
0.00132312743183
0.00119843296657
0.00092452687097
0.00024695056372
0.000272208101726
0.00117689309753
0.00161188803239
0.00182829772649
0.0019304797684
0.00196432267486
0.00195317862245
0.00192427233923
0.00189927075643
0.00188365962295
0.00187484402888
0.00186695778204
0.0018652044636
0.00187313520618
0.0018819007774
0.00187156029654
0.0018046158923
0.00162230287611
0.00120872293341
0.000271500316463
0.000284944765446
0.00131209285614
0.00183469821494
0.0020996378278
0.00221427464162
0.0022227587285
0.00216670166989
0.00209349275681
0.00204296075297
0.00201247712029
0.00199147940076
0.00197152384816
0.00196666968809
0.00199122347427
0.00202370534059
0.00203765313892
0.00199141806292
0.00180680042011
0.00134028069046
0.000284317875565
0.000290926975995
0.0013769256677
0.0019438954513
0.00222430832575
0.00231637640356
0.00226497028392
0.00211894890203
0.0019562466947
0.00187788971546
0.00183733356561
0.001806857779
0.00178007813901
0.00178136914692
0.00187199109505
0.0019697239759
0.00202916366123
0.00201949287202
0.00186200734252
0.00139389569073
0.000290181126657
0.000293108319531
0.00140155731581
0.00198180255203
0.002249537757
0.00228794226759
0.0021247300457
0.00178859591323
0.00140236308176
0.00131945542904
0.00128946555053
0.00126225084732
0.00123538914031
0.00124621654398
0.00153589355184
0.00179264622137
0.00193402170083
0.00197272544102
0.00185194509789
0.00140466317359
0.000292169162121
0.000293201833139
0.00140304790201
0.00197607151789
0.00221300888499
0.002174781821
0.00183898968465
0.00111514556069
0.000348157309423
0.000315549366151
0.000306732211686
0.00030501418372
0.000307822869452
0.000328915287064
0.000961988256842
0.00153682200682
0.00181082230757
0.00190820372836
0.00182253461981
0.00139821160616
0.000292329667966
0.000292331813432
0.00139558904341
0.0019545894645
0.00216052949786
0.00205310938124
0.00154028426963
0.000339522725351
0.000326291581241
0.00126647309082
0.00170658823665
0.00186104307728
0.00180094830339
0.00139090090043
0.000291943538178
0.000291523783378
0.0013921434689
0.00194296252535
0.00213488266693
0.00200683612633
0.00148140548268
0.000315468521839
0.000304665075032
0.00122097302876
0.00167595917719
0.00184681748754
0.0017955455382
0.00138946251067
0.000291675416313
0.000291455391497
0.001399339731
0.00195302149546
0.00214703247805
0.0020208771501
0.00149567512951
0.000317944583911
0.000308476253704
0.00124138020027
0.00169759542182
0.00186546968543
0.0018095918168
0.00139742272638
0.000292052979162
0.000292355535352
0.00141949758499
0.00198861996655
0.0022032152317
0.00210551458119
0.00160033285143
0.000352235800815
0.000343025192427
0.00134577794274
0.00178079609036
0.00192213894877
0.00184648303994
0.00141669108793
0.000293238343184
0.000294101013486
0.00144882387486
0.00204458204348
0.00230146411101
0.00228450857826
0.00198036616083
0.00131581663158
0.00035551858533
0.000330897814096
0.000326362366732
0.000326605715753
0.000331520152638
0.000352907151105
0.00113767188054
0.00170102778265
0.00195058461774
0.00202280778114
0.00190841517701
0.00144721243811
0.000295217634167
0.000296055863821
0.00147801146092
0.00210121091838
0.00240598022828
0.00248017299094
0.00235799933987
0.0020800036172
0.00174289019085
0.00166590760436
0.00164489974458
0.00163181201791
0.00162017084497
0.00164596779361
0.00187617176668
0.0020621899933
0.002157236547
0.00215666613175
0.00199171849295
0.00148559357303
0.000297581823
0.000297225249194
0.00149733081189
0.0021376438715
0.0024788803401
0.00262497854919
0.00262350058492
0.00252617203686
0.00240783929926
0.00235203667821
0.00232752480669
0.00230281730826
0.00227726113759
0.002270087036
0.00231121618358
0.00235193856165
0.0023606373529
0.00229915011586
0.00207807983165
0.00152021833935
0.000299155163969
0.000296638577776
0.00149832066521
0.00213755933318
0.00249324299776
0.0026812111241
0.00275097773599
0.00274451482841
0.00271017793466
0.00268527393439
0.00266828489243
0.00264476281461
0.00261761065806
0.0025938664891
0.00257899016386
0.00256154451129
0.00251991714471
0.00240741716801
0.00213345081624
0.00153306959489
0.000298625542245
0.000293426466481
0.00146908944687
0.00208716787387
0.00243298948727
0.00263157706909
0.00273359183575
0.00277247339802
0.00277973852089
0.00277804810778
0.00277197748259
0.00275870247722
0.00274092624187
0.00271947621984
0.00269260796471
0.0026532021755
0.00258074362859
0.00242953842175
0.0021193234959
0.00150638279151
0.000295114197047
0.000285994811528
0.0013937624334
0.0019625974591
0.00227867681199
0.00246401312077
0.00256896463636
0.00262211547387
0.00264559973886
0.00265533699392
0.00265827935746
0.00265615957312
0.00265004472607
0.00263793892154
0.00261426251706
0.00256896741596
0.00248167216348
0.00231437007836
0.00200359405682
0.00142528113312
0.000287135023171
0.00027197096726
0.00124421255474
0.00172130615889
0.00198194979343
0.00213367374657
0.0022217302599
0.00227017236539
0.00229531667332
0.00230825989767
0.00231504419863
0.00231809928304
0.00231760322085
0.00231079008998
0.00229147115098
0.00224929203871
0.0021672099703
0.00201716405058
0.00175161732306
0.00126483520955
0.000272330513607
0.000246713674396
0.000948863581509
0.00125782184441
0.00142251894886
0.00151766575495
0.00157280105261
0.001603690137
0.00162031174901
0.00162910835669
0.00163374408522
0.0016360045721
0.00163579595856
0.0016311728149
0.00161793399305
0.0015892347806
0.00153474498035
0.00143820448774
0.00126977147441
0.000955889077356
0.000246083086984
0.000202868424637
0.000249251445992
0.000275404844607
0.000290346412978
0.000299082959533
0.000304034700034
0.000306662560579
0.000307942817763
0.000308439803484
0.000308575922052
0.000308480968393
0.000308170524911
0.000307454300238
0.00030591536344
0.000302924621042
0.000297499704305
0.000288244043607
0.000272802705345
0.000246334176245
0.000201476563759
0.000209809052242
0.000256942540484
0.000283361060862
0.000297358472742
0.000303712696474
0.000305243220219
0.00030460248118
0.000303494736218
0.000302496481381
0.000301805242825
0.000301557287932
0.000301729793954
0.000302240265682
0.000302921657652
0.000303122714518
0.000301299483915
0.000294937227285
0.000280909144217
0.00025426298167
0.000206568125012
0.000257141985301
0.000967064780097
0.00128062129058
0.00142954144372
0.00149842153292
0.0015254773356
0.00152906644414
0.00152127133124
0.00151195366247
0.0015081621208
0.00151094683004
0.00151911434893
0.00153119534264
0.0015441376083
0.00154617240322
0.00152404605699
0.00145999583132
0.00131531324235
0.00100455784659
0.000256146321575
0.000283727910302
0.00128500768465
0.00178685338676
0.00203919830966
0.00215735504897
0.00219494723572
0.00218076305813
0.00214553962336
0.0021150454211
0.00209667426897
0.00208970118117
0.0020912774934
0.00210349966526
0.00212705761613
0.00214524432134
0.00212962763424
0.00203884364778
0.0018130455782
0.00132867292429
0.000283283761989
0.000297868693209
0.00144071375602
0.00204858970721
0.00235840460443
0.00249056258951
0.00249835839007
0.00243072195429
0.00234288446652
0.00228342386578
0.00224963764127
0.00223303721632
0.00222873223644
0.00224723085869
0.00230175939268
0.00235849860902
0.00237285652661
0.00229497104319
0.00204688188827
0.00148357674769
0.000297603897582
0.000304819083257
0.00151800645783
0.00217892988056
0.00250592749465
0.00261051902539
0.0025465914248
0.00237278927541
0.00217909868191
0.00208952997387
0.0020462596913
0.00202278772291
0.00201437197352
0.00204456738036
0.00218409602873
0.0023349057986