/*--------------------------------*- C++ -*----------------------------------*\
| =========                 |                                                 |
| \\      /  F ield         | OpenFOAM: The Open Source CFD Toolbox           |
|  \\    /   O peration     | Version:  v1606+                                |
|   \\  /    A nd           | Web:      www.OpenFOAM.com                      |
|    \\/     M anipulation  |                                                 |
\*---------------------------------------------------------------------------*/
FoamFile
{
    version     2.0;
    format      ascii;
    class       surfaceScalarField;
    location    "2.75";
    object      alphaPhi;
}
// * * * * * * * * * * * * * * * * * * * * * * * * * * * * * * * * * * * * * //

dimensions      [0 3 -1 0 0 0 0];

internalField   nonuniform List<scalar> 
5952
(
-1.85331e-18
1.75721e-18
-1.72589e-10
9.16794e-12
-6.60417e-11
-3.35544e-10
2.28643e-09
-2.35247e-09
2.89978e-10
1.99645e-09
-4.33191e-14
1.54063e-09
-4.33327e-14
1.35427e-17
-2.44916e-14
2.77956e-14
-9.40654e-14
6.95606e-14
-4.76474e-13
1.99219e-14
-7.68628e-12
2.79052e-12
3.71086e-13
-8.05302e-12
-7.76442e-18
9.49381e-18
-3.32255e-11
5.74481e-13
-1.25275e-09
-8.12907e-10
-2.99347e-09
-6.11753e-10
-1.54063e-09
1.96446e-09
-6.66626e-17
5.07781e-17
-1.44967e-16
4.92107e-17
-2.18498e-11
6.53974e-13
-2.15802e-10
4.16104e-11
-2.08261e-10
4.95844e-11
-3.72703e-13
2.71712e-11
-8.01355e-16
-6.44819e-16
1.6433e-18
7.85006e-18
-1.58241e-10
8.75011e-11
-1.89772e-09
3.20457e-10
-1.96447e-09
1.41967e-09
-6.48819e-15
3.33687e-17
3.19927e-15
3.95198e-15
3.41239e-15
1.64576e-17
-7.76398e-11
8.48923e-12
-2.21859e-10
2.54917e-11
-2.7597e-11
3.73164e-12
-7.03675e-13
4.6431e-15
7.73598e-14
-4.48594e-14
-1.499e-17
2.20436e-17
-1.15295e-09
5.45942e-10
-1.41967e-09
9.97323e-10
-8.08673e-17
5.32931e-17
-1.23976e-16
8.11166e-17
3.7235e-15
1.06946e-16
-5.14577e-12
3.02277e-13
-3.30308e-11
7.32238e-12
-1.03104e-11
7.05203e-13
-3.59838e-13
-1.29332e-13
-7.12602e-13
4.27643e-14
2.92252e-14
-5.70172e-13
7.01108e-14
-7.00927e-14
-1.11746e-09
7.0954e-10
-8.62706e-17
-1.73545e-10
-1.02565e-16
6.97507e-17
-1.52514e-16
1.16142e-16
-5.3914e-16
4.66901e-16
-3.10075e-12
7.63156e-13
-7.05516e-13
2.1943e-12
-6.8327e-16
3.55698e-16
-1.30406e-13
3.21598e-16
-6.83792e-13
8.79592e-14
1.31822e-13
-5.10331e-13
-1.08442e-10
4.73213e-12
-6.83648e-10
2.93365e-10
-7.46963e-17
-2.13779e-10
-9.64341e-17
9.13122e-17
-6.18347e-16
6.3514e-16
-2.06888e-13
4.79897e-14
2.70057e-15
5.12588e-14
-5.2281e-16
2.19751e-12
-5.88326e-16
4.01802e-16
-5.22926e-14
5.20056e-14
-9.08874e-14
2.45813e-14
2.73773e-14
-3.19365e-14
-1.71672e-11
1.59792e-11
-4.59872e-11
3.94244e-10
-7.02762e-15
4.40648e-11
-7.04573e-15
1.08915e-16
-1.22971e-14
9.17531e-15
2.86124e-15
1.32164e-15
-1.7944e-12
3.07792e-16
-6.08664e-11
3.22016e-11
-4.26692e-11
6.35979e-11
-4.59079e-16
3.76487e-11
-5.08799e-16
2.43825e-14
2.76752e-14
-5.58238e-16
-1.34351e-10
2.16597e-10
-1.12026e-10
2.56185e-09
-6.22756e-15
8.93224e-10
-6.23671e-15
1.17924e-16
-1.06885e-14
1.18386e-14
5.87e-15
1.9121e-14
-2.52476e-14
1.44458e-16
-2.50618e-11
5.46809e-12
1.63312e-11
1.66435e-11
5.39795e-11
2.03108e-16
-1.62174e-09
2.79936e-09
6.02215e-09
-7.03397e-09
-6.29311e-10
1.06071e-09
-1.75677e-09
3.94149e-09
-4.92176e-16
2.38873e-09
-4.88267e-16
1.13792e-16
-6.28596e-17
6.2604e-16
-4.91924e-17
1.9043e-14
-3.1448e-13
3.14565e-13
-2.90751e-13
9.42244e-13
1.10055e-13
6.78956e-13
1.1003e-13
2.10562e-16
-1.60433e-09
2.17635e-09
6.72596e-09
-2.30782e-09
-1.19485e-09
1.1623e-09
-1.30089e-09
3.78007e-09
-3.81276e-12
1.40044e-09
-3.81274e-12
9.41532e-17
-5.76944e-13
3.63025e-12
2.32653e-13
1.67084e-11
2.58177e-12
8.75327e-12
8.01931e-17
3.52367e-12
1.00346e-16
6.78889e-13
1.68542e-15
1.87766e-16
8.24833e-10
1.68342e-16
1.68985e-16
2.03263e-09
-8.59815e-10
1.21686e-09
-2.95748e-10
2.33167e-09
-1.17873e-13
2.58881e-10
-1.17836e-13
6.31492e-17
1.10389e-11
1.90763e-13
2.72577e-11
2.70192e-11
3.10848e-11
1.47777e-11
1.39113e-11
1.07028e-11
-2.18308e-16
6.5002e-12
2.1152e-16
1.47316e-16
1.92806e-16
1.4613e-16
1.60887e-16
1.89327e-16
1.41631e-18
1.21686e-09
9.32085e-17
2.33167e-09
1.5006e-16
2.5888e-10
1.79946e-16
3.49332e-17
-9.28507e-14
2.83787e-13
6.02856e-12
6.90814e-11
2.08536e-11
3.70935e-12
1.77455e-11
2.87413e-12
4.94922e-12
2.01918e-12
3.04625e-16
4.94858e-12
2.96843e-16
1.69478e-16
-6.22913e-13
6.23355e-13
-3.67755e-16
-1.07335e-15
-2.00533e-16
-3.45004e-17
-2.96938e-17
-5.53268e-17
-3.20812e-10
-5.6012e-17
1.71087e-10
-3.0864e-10
2.98641e-09
-7.78236e-10
4.16862e-09
-1.18221e-09
1.86106e-08
-2.18942e-10
8.41364e-09
1.0197e-08
-9.90568e-09
1.83193e-08
-8.7132e-09
-2.60997e-09
-1.01047e-08
-6.21639e-16
-9.48371e-16
-5.49258e-16
2.95876e-17
-3.75908e-16
-1.04997e-16
-3.16436e-16
-1.33948e-16
-3.08641e-10
-1.5647e-16
-2.53662e-09
-1.93167e-09
-9.84886e-12
-8.25236e-09
1.12419e-08
-6.11481e-09
2.72846e-08
1.74138e-09
3.54651e-08
1.01388e-08
2.60506e-08
6.8045e-09
1.5946e-08
-4.69538e-14
-6.8444e-15
-2.11732e-15
-9.32049e-15
-6.1158e-16
-1.66593e-15
-5.46304e-16
-2.41106e-16
-4.43209e-16
-3.02082e-16
-2.43461e-09
-2.43313e-10
-2.68209e-09
-6.08409e-09
-9.61411e-10
-1.16448e-08
8.12551e-10
-3.84876e-09
1.36293e-08
-3.70271e-10
-4.76906e-09
2.02812e-08
8.63211e-09
-2.17601e-13
4.90132e-15
-2.00505e-13
-3.77007e-14
-3.78093e-15
-4.03203e-13
-7.71941e-16
-3.2942e-15
-6.52626e-16
-4.64018e-16
-2.43313e-10
-4.91339e-16
-5.48247e-09
-6.39217e-10
-7.46833e-09
-1.34124e-08
-1.84726e-08
-1.2815e-09
-8.29946e-09
-1.88813e-08
-1.92742e-09
3.9435e-09
1.87418e-10
3.94277e-14
9.00268e-15
-2.70611e-13
1.70437e-14
-3.13349e-12
6.09198e-14
-1.76939e-12
-2.57532e-12
-8.17861e-16
-4.30764e-13
-5.90525e-16
-7.63924e-16
-6.39216e-10
-7.56045e-16
-7.85506e-10
-1.34468e-08
2.45987e-08
-1.9727e-08
-8.8107e-10
-3.65906e-08
9.09586e-09
-1.28226e-09
1.43668e-08
-1.34087e-14
1.36908e-15
-2.18612e-13
2.31965e-13
-6.41585e-12
1.77033e-12
-1.34836e-11
4.36921e-14
-2.74092e-12
-1.2338e-11
-8.00896e-16
-2.74089e-12
-1.65275e-16
-1.1295e-15
-2.29544e-09
-3.63783e-08
1.62679e-07
-1.99749e-07
1.71407e-07
-4.97422e-08
5.87484e-08
1.27205e-07
8.34299e-08
-2.39622e-10
2.39623e-10
-1.85527e-11
-2.00762e-11
-1.29695e-11
1.33991e-10
-2.50934e-11
7.59667e-12
-2.79348e-11
-3.2113e-12
1.21082e-11
-3.59443e-11
1.64459e-10
-1.52352e-10
-6.11859e-08
-7.21868e-09
1.92372e-08
-3.71592e-07
1.70471e-07
-2.06213e-07
-3.58087e-08
2.97566e-07
3.02379e-08
-1.05373e-08
3.78892e-09
-3.07394e-09
4.03204e-10
-9.91126e-10
-1.76956e-09
-4.1553e-11
-8.56532e-10
-4.93536e-11
-7.78306e-13
-6.89159e-11
-4.31856e-11
-5.45525e-12
-2.20654e-10
-6.90793e-09
-3.03354e-10
-3.97306e-07
-4.54043e-08
-4.09732e-07
-2.27974e-07
-1.2379e-07
3.0447e-08
-7.42106e-08
-2.73859e-09
4.21937e-09
-3.0844e-09
7.49331e-10
-3.04591e-09
-1.63444e-09
-1.28033e-10
-4.78315e-10
-1.61718e-11
-1.06926e-10
-1.49808e-10
-2.48167e-11
-1.61696e-10
-5.27873e-12
-6.27378e-11
-1.37824e-10
-4.49388e-08
-2.63585e-10
-2.88306e-07
-3.30967e-09
-1.13527e-07
-3.91853e-09
-1.29803e-09
2.39137e-09
9.56431e-12
2.26155e-09
-3.13299e-17
8.90478e-10
-3.95142e-17
-5.25961e-11
-3.96432e-17
-1.07515e-11
-8.74469e-12
-5.07354e-14
1.71644e-12
-5.32978e-12
-1.52679e-16
-5.82003e-11
4.5466e-12
-1.19698e-10
5.52767e-11
-1.09887e-10
-4.74511e-11
-5.26091e-11
-3.66237e-09
-1.00865e-09
1.89339e-16
9.5643e-12
1.87582e-16
-2.95725e-17
2.14013e-16
-6.59453e-17
2.25283e-16
-5.0913e-17
9.43856e-13
-1.34813e-17
2.15504e-16
2.65957e-12
1.34411e-16
-4.64764e-16
3.0693e-17
4.54618e-12
-7.16146e-17
5.52764e-11
-6.95931e-10
6.4848e-10
-1.73336e-10
6.50762e-11
1.04746e-09
6.72113e-11
5.13147e-12
3.6396e-16
6.72109e-11
4.37371e-16
-1.15232e-16
4.09501e-16
-8.88101e-17
4.2428e-16
-2.25872e-17
3.46689e-07
4.75697e-08
5.45811e-07
4.1519e-08
4.00889e-07
-1.0103e-07
1.23504e-07
-3.79963e-07
5.71864e-09
-3.59631e-07
1.36955e-09
-1.27318e-09
3.46173e-09
7.35175e-20
-2.5165e-18
1.78258e-21
2.97037e-23
-6.70491e-21
3.99826e-21
-7.21631e-16
7.22062e-16
-2.15108e-14
8.16626e-16
-4.92645e-17
1.49701e-13
-7.08573e-17
2.15927e-17
-9.47677e-17
2.39104e-17
-1.31534e-16
3.67668e-17
-1.38118e-11
1.38117e-11
-1.22749e-09
8.15292e-11
2.18202e-10
-1.44569e-09
-4.77316e-19
8.77886e-19
-5.03963e-18
9.95296e-19
-7.02141e-14
3.82208e-14
5.07828e-14
3.30497e-13
4.24159e-12
4.33548e-14
-1.76676e-10
6.78499e-12
-2.9204e-09
7.29442e-10
-4.12871e-09
1.20762e-09
-5.58827e-09
1.46844e-09
-2.86972e-10
3.89842e-10
-2.05443e-10
5.92525e-17
-1.73369e-17
-1.54287e-10
-1.37915e-18
3.27585e-18
-1.53371e-17
5.93083e-18
-2.81678e-13
3.39761e-13
3.15617e-13
8.92889e-13
3.34456e-12
1.164e-13
-3.38671e-09
2.32708e-10
-4.61263e-09
1.95555e-09
-5.57694e-09
2.17174e-09
-3.43988e-09
1.53158e-09
-3.79866e-16
4.58301e-11
-4.23399e-16
1.01809e-16
1.03147e-16
-5.05157e-16
5.7907e-16
1.41667e-17
-7.08191e-14
6.28687e-15
-3.8651e-13
6.28901e-13
4.44096e-13
7.75665e-13
2.59406e-13
1.82638e-13
-7.00086e-10
2.23238e-11
-4.2712e-09
6.21371e-10
-4.39853e-09
2.29928e-09
-4.58304e-11
7.87515e-12
-3.63313e-16
1.5262e-16
-4.09576e-16
1.49085e-16
2.11373e-16
-4.87073e-16
8.57052e-16
1.19812e-16
-7.95774e-14
1.09433e-14
-4.71787e-13
4.58983e-13
4.81666e-13
6.01421e-13
4.86423e-13
3.05116e-13
-7.34887e-11
1.03727e-11
-7.59976e-10
3.0791e-12
-3.04121e-10
2.19899e-16
-1.59213e-12
2.1313e-16
-1.59214e-12
1.95409e-16
-5.71816e-12
8.53093e-13
7.21422e-12
-1.70598e-11
1.94394e-15
3.1133e-16
-1.11826e-13
2.87501e-14
-5.10433e-14
4.41609e-14
4.39667e-13
2.51154e-13
-7.95417e-12
3.04656e-12
-3.07909e-12
1.49931e-13
-2.27797e-16
2.54262e-16
-2.45205e-16
2.57282e-16
-2.61297e-16
2.54611e-16
-2.79392e-16
2.43183e-16
-4.51621e-12
2.00061e-13
4.12583e-12
-1.53129e-11
-8.93584e-16
3.19705e-15
1.70256e-16
5.54342e-15
3.4479e-14
1.62575e-15
-7.34182e-13
2.22361e-13
-2.44959e-13
5.048e-13
-1.31086e-16
4.44904e-14
-1.39016e-16
2.80668e-16
-2.63492e-16
4.0401e-16
-3.48414e-16
5.02963e-16
3.87602e-15
6.075e-16
-1.31815e-13
1.42477e-14
2.81445e-16
-2.58346e-12
-2.85419e-17
3.89592e-15
-5.28146e-17
5.56549e-15
-1.75395e-15
3.31481e-15
6.07365e-14
4.84893e-15
-1.4346e-12
9.31203e-13
-2.43043e-13
1.16995e-11
1.67231e-14
2.0889e-11
7.09116e-14
2.1847e-11
2.05871e-18
7.14147e-14
-1.05772e-17
6.20063e-16
-2.50023e-17
1.42528e-14
2.93263e-16
-3.89926e-17
-2.16948e-14
6.59464e-16
-5.20087e-13
2.43953e-12
-5.10796e-17
9.16309e-12
1.78018e-16
6.70422e-16
8.14783e-13
1.30652e-11
1.32296e-11
6.74297e-12
4.09746e-11
3.90059e-11
2.69066e-11
4.57838e-11
1.5738e-11
2.1932e-11
1.2277e-12
3.26536e-11
9.18266e-13
8.42456e-12
9.18376e-13
2.048e-16
-1.79481e-17
2.20903e-16
3.09309e-15
2.43617e-12
6.49924e-12
9.95967e-11
4.21487e-11
5.48254e-11
7.36504e-11
8.10565e-12
7.88526e-11
1.40269e-11
6.35314e-11
4.18402e-11
2.154e-11
9.70362e-12
4.25792e-11
-1.27877e-12
5.97707e-11
2.40632e-11
3.53969e-11
2.41962e-11
1.55112e-11
6.5573e-12
1.25345e-16
9.55576e-17
3.48618e-10
-7.14856e-10
9.87132e-10
-3.05405e-09
4.42844e-10
-5.67881e-09
1.01189e-10
-2.67828e-10
1.10586e-10
-2.17062e-10
9.07679e-11
1.86356e-11
1.11871e-11
1.36593e-11
5.199e-12
7.63633e-13
1.86455e-11
-7.30166e-13
2.99457e-11
7.69765e-12
9.87836e-12
2.0406e-11
6.83166e-09
1.13255e-09
3.91095e-08
-2.83288e-16
5.11714e-08
-1.44792e-16
7.05419e-08
-3.00444e-09
4.66916e-08
-8.54826e-09
5.6345e-09
-1.95981e-08
-7.08877e-11
-1.84241e-09
-1.32745e-11
5.24468e-12
7.63443e-13
3.9949e-12
3.25547e-14
1.59078e-16
2.89181e-12
8.68531e-13
2.16332e-12
7.24724e-12
-1.75155e-16
9.54406e-11
-1.87555e-16
1.24001e-17
-2.05998e-16
7.00528e-18
-1.19472e-10
-3.51817e-13
-1.13276e-10
-4.57391e-11
-3.03363e-11
-1.20348e-10
-7.21891e-13
-1.29013e-10
-7.61817e-14
-6.46173e-13
-4.29657e-14
-3.36828e-14
-2.89013e-14
-1.4534e-14
-2.35254e-16
-4.86368e-14
-1.58772e-15
-3.62163e-16
-7.57065e-14
-3.77488e-16
2.77255e-17
-4.1473e-16
5.09756e-18
-3.52257e-13
-2.11825e-17
-2.51495e-09
-2.37814e-10
-4.96886e-09
-1.48149e-09
-4.02394e-09
-1.77953e-09
-1.02155e-09
-2.39886e-09
-3.98856e-11
-1.33387e-09
-3.00575e-13
-3.96001e-11
-5.84377e-14
-2.86195e-13
-1.63908e-13
-7.6029e-14
8.79564e-17
-4.84296e-16
3.05205e-14
-5.25583e-16
6.90866e-18
-6.29088e-16
-3.92968e-17
-3.75001e-09
-2.6221e-13
-7.07683e-09
-7.94318e-10
-7.2129e-09
-2.24645e-09
-5.84489e-09
-4.36993e-09
-2.78962e-09
-4.99407e-09
-1.07045e-12
-3.17292e-09
-8.42627e-13
-5.14041e-13
-1.29068e-12
-2.98643e-13
2.98821e-13
-1.18879e-13
2.69715e-13
-1.51828e-14
1.13654e-15
-5.02077e-16
-1.50722e-14
-4.89436e-16
-2.62462e-13
-7.93974e-10
-3.45095e-13
-2.38867e-09
-4.52963e-13
-4.68849e-09
-4.66896e-10
-4.67114e-09
-3.27067e-09
-7.70868e-13
-5.95708e-09
-6.08216e-13
-6.76672e-13
7.81546e-13
-1.49414e-11
6.14056e-12
-2.72962e-14
2.17267e-12
-1.43827e-13
1.12557e-15
-5.41638e-13
-1.7181e-14
-9.67233e-13
-2.90932e-13
-6.60536e-16
-9.36018e-13
-6.58541e-17
-4.53544e-13
-4.66896e-10
-7.41011e-17
-1.04963e-09
-1.26683e-16
-5.55812e-11
-5.49682e-17
-4.44151e-14
-5.62135e-11
7.37154e-13
-1.66073e-11
7.43479e-12
-1.5971e-11
3.1278e-12
-1.67783e-12
2.5097e-13
-1.95847e-12
-1.02882e-14
-1.49681e-12
-7.19439e-13
-3.27888e-13
-8.72098e-13
-1.14344e-15
-1.36979e-16
-3.62972e-17
-1.18935e-15
-1.30255e-17
-1.49955e-16
5.87335e-18
-7.3867e-17
1.86658e-10
-2.11282e-09
-1.88188e-10
-3.35374e-12
1.70172e-16
-6.73105e-13
7.8087e-17
-7.09666e-14
-1.81958e-18
-3.35285e-13
-4.39219e-17
-8.26909e-13
-1.01941e-14
-1.71728e-16
-8.3767e-14
-5.80572e-16
-1.47421e-16
-5.01557e-17
-8.93005e-15
-1.03046e-17
-1.57068e-16
1.71627e-17
-1.01334e-16
5.96928e-08
-5.42831e-08
9.71244e-08
-5.18947e-17
2.3105e-16
-6.12013e-17
1.50888e-16
-6.93064e-17
6.3896e-17
-3.00174e-17
-7.5943e-18
-3.57601e-17
-1.03109e-14
-4.08202e-17
-8.38967e-14
-2.1354e-15
1.53941e-15
-3.31981e-17
4.41897e-15
-1.79662e-17
-2.03368e-16
4.6923e-17
-1.66224e-16
1.32454e-07
-1.26004e-07
3.2662e-07
1.92289e-16
2.51956e-16
5.97261e-16
4.2275e-16
6.56132e-16
2.80918e-16
3.3478e-16
-6.8808e-18
2.72105e-14
1.88657e-15
3.41464e-14
2.31389e-14
2.28556e-14
-4.30346e-13
1.01924e-19
2.72343e-14
-1.9707e-17
-2.09642e-16
9.26076e-17
-2.712e-16
7.45882e-08
-1.36647e-16
4.21502e-07
5.28487e-14
1.40005e-12
6.52353e-16
5.24196e-14
6.40848e-16
1.02528e-16
2.45356e-16
-3.18313e-18
5.33337e-15
2.35303e-14
1.71802e-13
-1.09913e-13
1.754e-12
-3.7974e-13
9.63848e-12
-8.59223e-11
3.7276e-17
9.6382e-12
-3.68658e-18
-2.55001e-16
3.54308e-17
-1.77085e-16
5.1467e-07
3.48703e-12
4.23448e-12
4.44042e-16
6.20328e-13
1.01785e-16
4.04818e-16
6.41204e-17
-5.28528e-18
7.71916e-13
2.10788e-13
6.36789e-12
-6.27775e-13
1.25095e-11
-5.0335e-12
3.46858e-10
-2.47935e-13
2.72199e-10
-1.59452e-09
9.39368e-17
2.72198e-10
1.32053e-09
-1.32053e-09
4.17937e-07
2.34824e-12
6.12333e-13
6.91363e-13
2.23902e-13
3.93605e-13
4.05802e-14
3.93537e-13
-7.6231e-18
2.34591e-11
3.30052e-12
4.62102e-11
-2.40085e-11
2.09571e-11
-1.73657e-11
9.97754e-12
-4.74461e-13
3.31512e-08
-8.3743e-15
6.8539e-08
9.31364e-08
4.98972e-08
5.79938e-08
8.65821e-07
2.19477e-22
-8.62766e-21
4.52065e-21
-1.70113e-19
1.47902e-21
4.81095e-23
2.06407e-21
2.97836e-21
-6.25433e-20
4.51336e-20
-5.21754e-19
1.4097e-19
-9.97325e-19
4.75571e-19
-1.58207e-18
5.84749e-19
-2.26194e-18
6.7976e-19
-5.70165e-18
3.43731e-18
-3.24378e-17
1.46966e-18
6.4224e-18
-5.69334e-17
-1.33548e-19
-1.9325e-20
-3.03623e-18
2.3705e-20
-2.86496e-17
5.24934e-18
-7.75049e-17
3.94701e-17
-2.34955e-18
7.8245e-17
-1.31918e-17
1.1284e-18
-3.33559e-15
3.29908e-15
-7.3044e-12
8.13453e-13
-7.30592e-12
2.99165e-12
-9.29049e-17
1.99515e-12
-1.23929e-16
4.09148e-18
2.64957e-17
2.57519e-16
-6.31877e-19
1.3207e-20
-1.45866e-17
2.45332e-18
-6.74443e-17
2.85505e-17
-1.65577e-18
9.28514e-17
-2.62761e-18
7.43445e-17
-2.24122e-14
2.241e-14
-1.28138e-11
1.26922e-11
-1.9397e-12
7.59256e-12
-3.76876e-12
5.00297e-13
-1.13178e-12
-7.66429e-14
-1.23934e-16
1.0596e-13
1.70478e-17
-1.13466e-16
-1.72655e-18
1.65254e-19
-2.37923e-17
8.38329e-18
-5.61153e-17
5.79671e-17
-6.1686e-17
9.3199e-17
-9.74013e-12
7.90298e-13
-5.78564e-11
1.23053e-10
-2.43438e-11
2.14493e-10
-5.00234e-13
1.25226e-12
-1.17057e-16
4.41148e-17
-7.69507e-14
6.26826e-17
-7.05655e-17
9.75093e-15
2.47138e-17
-7.82413e-17
-2.78721e-18
5.26856e-19
-2.82861e-17
1.65603e-17
-6.29206e-17
8.42693e-17
-1.07136e-16
1.27197e-16
-4.39294e-11
6.50223e-12
-2.40289e-10
2.59933e-10
-1.20481e-12
5.3222e-10
-5.91189e-17
4.74508e-14
-1.18449e-16
4.80197e-17
-1.74594e-16
8.21831e-17
9.4161e-15
1.00853e-16
3.61492e-12
-1.00583e-11
-3.95334e-18
1.15792e-18
-3.1699e-17
2.58779e-17
-6.55355e-17
1.10701e-16
-1.10167e-16
1.59217e-16
-2.06955e-10
4.51185e-11
-3.32962e-10
3.8594e-10
-2.65503e-10
4.6476e-10
-9.29613e-17
1.53228e-10
-8.83804e-17
4.42777e-17
-1.32179e-16
8.27036e-17
-2.00758e-16
1.03646e-16
9.15556e-12
-4.29496e-11
-5.62306e-18
2.2188e-18
-3.55104e-17
3.52162e-17
-6.44733e-17
1.35394e-16
-9.66607e-17
1.84032e-16
-8.88331e-11
8.68188e-12
-2.40873e-10
2.14193e-10
-2.35143e-10
4.5903e-10
-6.46168e-17
3.20322e-10
-7.07528e-17
4.95095e-17
-1.02838e-16
9.79409e-17
-1.51258e-16
1.19644e-16
5.57507e-14
-1.19964e-11
-8.00938e-18
4.00411e-18
-3.82633e-17
4.1992e-17
-5.63158e-17
1.47829e-16
-6.83744e-17
1.89272e-16
2.21466e-12
2.47902e-16
-8.77678e-11
2.13655e-13
-1.63155e-10
1.74256e-10
-1.17581e-14
9.25598e-11
-2.59698e-17
-1.16816e-14
-3.40464e-15
3.46199e-15
-3.10102e-14
9.75506e-15
-2.0284e-14
-3.08421e-14
-9.9907e-18
6.55191e-18
-3.22276e-17
4.12008e-17
-4.53017e-17
1.2947e-16
-2.76091e-17
2.24557e-16
-3.85342e-18
2.79995e-16
2.13308e-13
3.08531e-16
2.63166e-12
2.35181e-16
3.86317e-13
1.20318e-13
-1.19138e-14
8.30897e-13
2.18037e-16
1.55302e-13
-4.2405e-16
5.05428e-15
-1.44073e-15
-7.99704e-16
-7.68644e-18
8.15636e-18
-5.71698e-18
2.62993e-17
1.59623e-17
7.92144e-17
7.45926e-17
1.39196e-16
1.46484e-16
2.09428e-16
1.89645e-16
2.38068e-16
1.63042e-16
2.20297e-16
1.20211e-13
2.53096e-16
2.59967e-13
1.0115e-13
-1.22915e-14
1.62e-13
-5.41015e-16
5.33998e-15
4.81408e-16
2.20241e-15
8.52803e-19
5.45649e-18
5.42014e-18
2.31268e-17
8.8667e-18
7.43724e-17
1.23765e-17
1.37081e-16
3.37924e-17
1.13365e-17
3.09544e-16
1.05757e-16
3.55191e-16
1.69994e-16
4.18116e-16
2.16104e-16
2.62428e-14
-6.1096e-16
5.11575e-14
1.09433e-15
-4.33058e-16
9.65545e-15
1.06804e-15
1.74166e-15
2.57499e-11
-2.57499e-11
3.08977e-09
1.10078e-08
1.1841e-08
-2.39794e-10
4.39987e-09
-1.15519e-10
8.06775e-17
4.39987e-09
8.41563e-17
5.66726e-18
3.01982e-16
5.78967e-17
3.59788e-16
1.17833e-16
2.15121e-16
8.70881e-17
1.23598e-15
5.48527e-17
2.50678e-15
8.92046e-16
4.94174e-16
9.43705e-15
-9.64904e-17
8.30057e-18
-1.94441e-12
8.9832e-14
-2.16311e-12
2.18209e-13
-5.32481e-12
3.16073e-12
-6.28993e-11
-1.91872e-10
-1.37428e-12
-5.35547e-10
-1.06369e-15
-1.37409e-12
-2.30748e-12
2.30551e-12
-1.08315e-12
-9.57797e-16
-7.78317e-13
-3.03331e-13
-2.13907e-16
-6.91216e-13
-2.1504e-16
-2.04218e-15
3.21504e-16
-4.90905e-15
3.2572e-13
-1.64255e-10
1.64381e-10
-1.01604e-08
-9.98436e-10
-2.37496e-08
-2.99656e-09
-2.20299e-08
-5.12544e-09
-7.2816e-09
-6.10376e-09
-9.07123e-14
-3.42201e-09
-8.76207e-14
-2.70621e-15
-2.38036e-12
3.02669e-14
-6.16078e-16
1.17659e-12
-3.51769e-15
1.82549e-16
2.24039e-17
-5.68377e-09
1.01953e-11
-4.4305e-08
9.97382e-10
-4.50246e-08
-4.76885e-10
-4.26247e-08
-5.19846e-09
-3.87622e-08
-9.1859e-09
-3.84443e-08
-6.2237e-09
-3.86828e-09
-2.84849e-09
-5.84133e-15
-3.86828e-09
-2.30184e-15
2.82065e-14
-4.41878e-15
1.17647e-12
-7.873e-15
-1.497e-16
9.38377e-17
1.1407e-11
-1.21185e-12
-1.57313e-11
2.19801e-13
-1.89325e-08
-8.07149e-14
-3.37739e-08
-1.96301e-13
-1.52591e-08
-1.54126e-12
-1.4142e-09
-4.40033e-16
-9.14304e-10
-2.12618e-10
-7.46345e-09
-6.06857e-09
-1.07912e-09
-2.47751e-08
-1.0239e-12
-8.39122e-09
-1.03182e-12
-1.829e-11
1.11333e-11
-8.09016e-12
5.08955e-12
-6.48784e-16
-9.12958e-13
-4.98533e-16
-8.1029e-14
-4.63724e-16
-1.96171e-13
-4.26044e-16
-1.54147e-12
-3.66749e-16
-3.34872e-16
-2.12618e-10
-4.45353e-16
-4.01871e-09
-8.77737e-10
-3.75124e-09
-4.6533e-08
-5.23821e-11
-7.8083e-08
-1.13695e-10
-5.63835e-11
2.28132e-11
-6.64084e-11
1.68679e-11
-1.74272e-11
4.95217e-12
-1.37276e-12
-1.32356e-12
-2.94665e-12
-2.2443e-12
-2.31796e-13
-2.66369e-12
-4.418e-16
-2.32073e-13
-3.50265e-16
-3.8391e-16
-8.77737e-10
-6.8607e-16
-4.75289e-09
-2.37955e-08
-4.81618e-10
-7.79602e-08
-5.74532e-10
-2.12896e-11
2.14238e-13
-2.33706e-11
3.55606e-13
-1.79102e-11
2.6111e-15
-2.36739e-11
-5.93472e-16
-1.77008e-11
-5.07605e-17
-6.44884e-12
-1.67759e-12
-1.53115e-11
-1.96639e-11
6.53234e-12
-7.42345e-11
6.53268e-12
-8.36313e-16
-2.34914e-08
-5.61831e-09
2.88271e-08
-1.20828e-07
-3.75709e-09
-3.98472e-15
-4.82185e-15
-3.62297e-15
-1.28162e-15
-6.73567e-18
-9.97353e-16
-7.35636e-18
-6.09507e-16
-2.59288e-17
-1.6786e-17
-1.67763e-12
-4.31528e-17
-4.01095e-11
-8.1953e-12
2.21691e-11
-7.79808e-11
1.02436e-10
-8.02683e-11
4.47244e-09
-1.23773e-10
5.0448e-09
-2.045e-08
-6.32118e-08
-7.83274e-16
1.02613e-14
-8.73853e-16
4.45963e-15
-7.51216e-16
2.07799e-15
-3.16045e-18
2.70025e-17
-5.44287e-18
-4.90505e-17
6.95651e-15
-7.03917e-15
-9.05929e-12
-2.11282e-14
-2.99454e-11
-9.13856e-17
8.64412e-12
-2.78958e-11
-1.15129e-10
-6.60697e-16
-1.83426e-08
-1.0673e-08
-8.15544e-08
5.92461e-15
3.58058e-15
2.95737e-15
9.90105e-16
4.52959e-15
9.80285e-16
1.64908e-14
-8.68594e-15
2.33599e-14
-3.82709e-14
1.36328e-14
-3.54874e-14
3.25549e-17
-7.41665e-15
1.64904e-17
-7.81083e-17
7.81304e-13
-5.85812e-11
5.12956e-13
2.67359e-13
-2.0932e-08
-5.88243e-09
-1.02486e-07
2.13629e-15
1.01784e-15
1.2658e-15
3.61197e-17
6.0683e-14
5.43966e-16
1.31179e-13
1.07632e-14
1.44888e-13
2.39691e-14
5.25129e-14
2.2973e-14
8.10309e-15
-4.04993e-17
8.1078e-15
-6.80963e-17
1.24704e-10
-7.52823e-17
3.36942e-10
-3.55792e-08
-7.73309e-08
-1.00663e-08
-4.82407e-08
6.40235e-17
1.32089e-15
7.09208e-17
1.56328e-16
5.85783e-17
4.29203e-16
1.15706e-16
1.08309e-14
1.20201e-16
2.32995e-14
1.60113e-16
2.28738e-14
1.28653e-16
-5.24652e-17
1.60826e-16
-8.91056e-17
1.70663e-16
-7.87019e-17
3.71092e-07
-3.23479e-08
2.69984e-07
-2.07732e-07
6.96456e-08
7.65688e-08
-9.32825e-08
1.16244e-07
-1.33511e-07
-6.21327e-09
2.52201e-09
-6.44548e-10
5.31429e-09
-1.07239e-09
3.39668e-09
-1.07521e-08
2.15452e-09
-1.19874e-08
2.51348e-09
-6.73305e-10
6.20252e-10
-6.73293e-10
5.59003e-16
-3.52739e-10
3.36518e-11
-6.41881e-12
5.78464e-12
3.40993e-13
-6.75984e-12
9.21861e-08
-1.72544e-07
2.44473e-08
-4.594e-08
5.30294e-11
7.41024e-09
-3.36594e-09
8.11156e-09
-4.01283e-09
9.83404e-10
-4.29799e-09
-7.9759e-11
-1.20403e-09
-5.67491e-10
-8.01875e-11
3.89708e-12
-8.01745e-11
1.33896e-15
-4.81719e-11
3.9074e-13
-1.08779e-10
7.72631e-12
2.26086e-10
-4.63733e-10
-2.90119e-08
-4.86442e-08
-1.48047e-08
-6.68722e-10
-6.26884e-09
1.64895e-11
-9.83404e-10
2.33792e-10
-8.36228e-17
6.70605e-17
-7.97592e-11
7.21235e-17
-3.90503e-12
9.31493e-17
-8.03063e-15
5.93791e-17
3.50137e-15
3.52879e-15
3.94116e-13
5.85175e-17
-3.52937e-09
3.99447e-10
1.02188e-09
-1.91584e-08
-4.88321e-09
-1.76096e-08
-1.0178e-09
2.46648e-10
-2.33792e-10
3.21627e-10
-5.28909e-17
6.85875e-17
-6.82771e-17
6.47689e-17
-8.55841e-17
1.07107e-16
-1.02191e-16
6.83792e-17
-1.19664e-16
6.51382e-17
-1.90562e-16
3.58794e-15
-1.36614e-09
8.0481e-10
-2.00863e-08
3.00533e-09
2.02636e-09
-1.99543e-08
1.36784e-09
-8.68717e-09
-8.49284e-10
2.94243e-09
-1.77151e-12
8.53723e-11
-8.30702e-12
6.53565e-12
-6.32563e-11
5.10799e-10
-6.53482e-17
4.24777e-10
-9.4905e-17
6.01105e-17
2.3113e-13
-2.31201e-13
-3.78153e-09
2.08669e-09
-9.01635e-09
4.21867e-09
-4.14087e-09
1.4158e-09
1.0008e-10
-1.9626e-13
-1.98366e-09
5.3899e-10
-2.40396e-11
7.80328e-11
-7.35334e-11
1.25606e-11
-1.12471e-09
1.7482e-09
-1.5789e-09
3.0953e-09
-6.84358e-11
1.79034e-09
-6.84359e-11
6.67968e-17
-8.37679e-10
1.11255e-10
-5.29907e-09
3.72001e-09
-5.49905e-09
4.47879e-09
-1.07496e-10
1.61919e-09
4.77202e-17
-7.416e-12
-8.35991e-11
3.90086e-09
-5.56634e-12
3.82433e-17
-1.43353e-10
5.66958e-12
-1.42069e-09
1.72732e-09
-1.13883e-09
3.27007e-09
-8.97266e-12
1.78999e-09
-8.97266e-12
6.00031e-17
-2.15743e-10
4.98095e-12
-2.55232e-09
1.4724e-09
-2.69379e-09
4.55565e-09
-3.01683e-10
8.92279e-10
1.77424e-10
-4.79107e-10
-2.97249e-13
1.65977e-09
-2.97243e-13
4.2473e-17
-1.72557e-11
1.05166e-12
-5.77594e-10
3.81116e-10
-7.19835e-10
1.26607e-09
-9.98836e-18
1.1678e-10
-2.09642e-18
5.21112e-17
4.9808e-12
6.87044e-17
1.53764e-10
2.0909e-10
4.03901e-10
1.66718e-16
1.12073e-10
9.15973e-10
5.62176e-09
-4.05125e-11
-7.54861e-14
3.76897e-11
-7.54845e-14
4.11214e-17
-1.45881e-12
1.0908e-12
-4.88229e-13
6.4711e-11
2.57612e-11
1.59745e-10
2.6704e-17
1.42541e-10
3.46566e-17
4.41586e-17
4.91832e-17
5.41779e-17
6.58597e-17
2.0909e-10
1.01502e-16
7.49001e-17
6.69227e-11
8.4905e-10
3.02014e-08
8.34111e-09
1.31302e-18
3.76896e-11
1.8984e-17
2.28064e-17
3.2428e-17
1.09078e-12
3.98248e-17
6.4711e-11
4.91439e-14
1.59696e-10
4.75997e-10
1.74241e-08
2.64565e-09
1.07252e-08
1.10758e-08
1.41956e-08
5.90628e-09
1.65227e-08
1.78449e-09
4.12179e-09
1.15504e-07
6.26719e-08
1.25016e-07
3.01252e-07
7.74782e-11
8.95572e-09
1.13068e-09
-1.23372e-08
2.41307e-09
1.17085e-09
4.06089e-08
7.14467e-08
1.35141e-07
4.19623e-08
1.69179e-07
1.48175e-07
1.69979e-07
2.24235e-08
1.94215e-07
-1.37108e-08
1.89841e-07
4.40133e-08
2.12657e-07
1.66394e-07
4.24169e-07
2.44314e-07
3.05967e-07
1.03489e-06
1.47329e-07
-2.00473e-07
3.39545e-07
-2.89863e-08
8.96732e-07
3.66265e-08
1.84554e-06
-4.86824e-08
2.48096e-06
-1.15565e-07
2.59087e-06
-7.00114e-12
2.21377e-06
2.75682e-07
2.20276e-06
9.14571e-08
2.25342e-06
7.62613e-08
2.15866e-06
2.83816e-07
2.03198e-06
4.34944e-07
2.30955e-06
4.96996e-07
2.40149e-14
9.65096e-13
-1.90111e-15
2.44325e-14
-4.12219e-11
1.21145e-11
-6.67168e-11
-3.49522e-10
-3.05644e-11
-1.30219e-10
-1.72504e-13
-9.17126e-12
2.76125e-17
-1.36155e-17
3.70659e-17
-9.80332e-18
3.85786e-17
-1.51271e-18
1.69643e-07
5.52954e-08
5.96055e-08
1.12513e-07
5.96055e-08
-2.56477e-09
-4.52709e-10
-4.66175e-09
-1.35276e-09
-6.50004e-09
-2.04593e-09
-2.471e-09
-3.7223e-10
-2.03501e-10
-3.82468e-17
-1.45979e-17
-8.47626e-17
8.05053e-18
-3.62644e-17
2.11374e-17
-2.28902e-17
8.79762e-10
-8.79762e-10
1.61632e-07
1.07908e-07
5.78247e-08
2.18994e-07
1.17427e-07
-1.84009e-08
-7.17882e-10
-1.94943e-08
-7.51731e-10
-6.01621e-09
-1.01581e-11
-9.3628e-17
-2.85505e-11
-5.62724e-17
-9.89682e-17
-3.25542e-17
-8.52057e-17
-5.89319e-18
-7.90131e-17
3.02468e-17
-5.90302e-17
4.61052e-08
-3.07695e-09
1.09856e-07
1.89215e-07
3.42486e-08
2.94601e-07
1.51675e-07
-1.2736e-08
-1.84216e-13
-7.15775e-12
-2.4728e-11
-1.73158e-11
-1.04516e-16
1.61958e-13
-1.81675e-10
-1.06135e-16
-2.15369e-11
-7.34019e-17
-1.57918e-16
-3.95545e-17
-1.5479e-16
1.53854e-17
-9.81662e-17
2.80172e-08
-2.48259e-08
5.36316e-08
2.26664e-07
1.33892e-08
3.34844e-07
1.65065e-07
-1.27494e-16
-3.80421e-13
-1.62326e-16
-2.47281e-11
-3.31593e-13
3.31265e-13
-1.93111e-10
-6.91408e-11
-2.17311e-09
-3.05956e-09
-4.65264e-11
-1.71724e-08
-7.32343e-17
-2.67552e-09
5.519e-09
-9.4846e-09
-3.69391e-08
-1.45203e-07
6.28526e-10
1.89326e-07
-2.47941e-09
3.37952e-07
1.62586e-07
-8.37201e-11
1.07164e-12
-4.94423e-11
-3.31539e-10
2.82489e-12
-2.08299e-10
-1.38689e-10
-9.22459e-11
1.30084e-09
-4.7558e-13
-1.35181e-10
-2.1177e-08
-2.67749e-10
-1.34673e-07
-5.19175e-08
-3.64008e-07
-5.71343e-08
-3.70712e-07
2.62786e-08
9.83357e-08
1.6118e-08
3.48112e-07
1.78692e-07
-4.80715e-10
-9.02813e-11
-2.09087e-10
-1.7854e-10
-1.18128e-10
5.52391e-11
2.0791e-12
-3.99302e-11
8.28522e-13
-5.05535e-14
4.10255e-08
-8.37394e-13
2.95426e-07
-2.5874e-16
4.5498e-07
-4.13741e-07
3.63615e-07
-3.69693e-07
2.65227e-07
1.95955e-07
1.13363e-07
4.99977e-07
2.92016e-07
-8.54373e-12
8.20639e-11
5.34596e-11
1.28163e-10
2.56222e-11
2.80592e-09
-7.8345e-13
7.15261e-12
2.67352e-14
2.09612e-14
2.55301e-16
-8.09044e-13
5.61502e-16
-2.33303e-16
1.20134e-06
-2.90993e-07
9.93335e-07
-8.87169e-08
6.51112e-07
5.38178e-07
2.75995e-07
8.75094e-07
5.67997e-07
4.87492e-10
-9.14732e-09
1.09223e-09
-2.2071e-08
1.90533e-09
-1.1558e-07
1.0831e-14
1.91345e-09
-5.96568e-15
-9.01671e-13
6.68264e-13
2.14937e-13
6.68289e-13
-2.57913e-16
7.89436e-07
-3.97918e-08
1.3846e-06
5.85016e-08
1.00721e-06
9.15563e-07
4.597e-07
1.4226e-06
1.02774e-06
5.4327e-07
-7.35985e-08
8.46037e-07
-5.44302e-07
7.72951e-07
-1.01237e-06
2.114e-07
-1.28714e-06
4.63277e-10
-2.68579e-07
3.13651e-16
4.63492e-10
3.85957e-16
-3.30516e-16
2.88724e-07
-1.54006e-16
1.78488e-06
7.25625e-08
1.40029e-06
1.30015e-06
6.95409e-07
2.12745e-06
1.72319e-06
2.04489e-06
-3.59118e-07
2.45415e-06
-9.53731e-07
2.38244e-06
-9.4077e-07
2.27039e-06
-1.17527e-06
3.86328e-07
-1.45931e-06
4.3165e-16
-1.59884e-07
4.04752e-16
-3.54718e-16
3.59434e-16
-1.88835e-16
2.22501e-06
4.68252e-08
1.85808e-06
1.73832e-06
1.01979e-06
2.96573e-06
2.74297e-06
3.07068e-06
-6.77319e-07
3.15343e-06
-8.04266e-07
2.94769e-06
-7.35255e-07
2.76868e-06
-9.96496e-07
2.68515e-06
-1.37569e-06
9.43885e-10
-6.36575e-07
4.90537e-16
-5.44847e-09
7.7627e-16
-2.38035e-16
1.99655e-06
1.46378e-08
2.31374e-06
1.97246e-06
1.5138e-06
3.76566e-06
4.25678e-06
7.16853e-07
1.51162e-06
-2.75514e-06
4.4684e-07
3.13984e-07
5.65807e-07
1.93088e-07
6.46255e-07
7.61172e-08
1.60924e-07
-6.74948e-08
8.12756e-10
1.1561e-07
5.05571e-16
8.16465e-10
5.19406e-16
2.87466e-12
2.01956e-12
6.65603e-17
3.08907e-08
4.64384e-10
1.45755e-07
3.05988e-08
2.28035e-08
1.14217e-07
2.7042e-06
1.77704e-06
-3.02252e-06
2.57441e-06
7.74229e-07
2.76347e-06
4.85307e-07
2.81805e-06
1.29249e-07
2.76937e-06
-1.88189e-08
1.3137e-06
7.67478e-07
3.94902e-08
3.66339e-07
1.92451e-09
4.11778e-09
6.8765e-16
1.92451e-09
1.11652e-11
4.5322e-10
4.6448e-08
1.20081e-07
-7.25446e-08
2.59885e-07
4.03355e-06
1.63648e-06
-3.83001e-06
4.08247e-06
8.04582e-07
3.92645e-06
6.41324e-07
3.60474e-06
4.50967e-07
3.06043e-06
5.25489e-07
2.36979e-06
1.32747e-06
2.10373e-06
5.50888e-07
2.1069e-06
-9.05465e-08
2.04823e-06
-7.32907e-08
2.14915e-06
-4.10231e-08
2.38417e-06
1.18015e-07
-2.90621e-07
2.70633e-06
4.92793e-06
-4.62762e-06
1.33617e-06
4.98144e-06
7.51068e-07
4.80657e-06
8.16199e-07
4.40226e-06
8.55278e-07
3.7113e-06
1.21645e-06
3.25295e-06
1.78582e-06
3.38672e-06
2.35542e-07
3.10115e-06
-9.84898e-12
2.8922e-06
-6.01368e-12
3.12974e-06
-6.62034e-12
3.25088e-06
-1.49785e-12
2.62504e-06