/*--------------------------------*- C++ -*----------------------------------*\
| =========                 |                                                 |
| \\      /  F ield         | OpenFOAM: The Open Source CFD Toolbox           |
|  \\    /   O peration     | Version:  v1606+                                |
|   \\  /    A nd           | Web:      www.OpenFOAM.com                      |
|    \\/     M anipulation  |                                                 |
\*---------------------------------------------------------------------------*/
FoamFile
{
    version     2.0;
    format      ascii;
    class       volScalarField;
    location    "0.35";
    object      k.air;
}
// * * * * * * * * * * * * * * * * * * * * * * * * * * * * * * * * * * * * * //

dimensions      [0 2 -2 0 0 0 0];

internalField   nonuniform List<scalar> 
6000
(
0.886494
0.948064
0.96407
0.975235
0.980497
0.980766
0.979513
0.977863
0.977572
0.978497
0.979754
0.980876
0.981581
0.981942
0.982006
0.982069
0.981929
0.981504
0.980797
0.979665
0.978439
0.977683
0.978025
0.979689
0.981081
0.980953
0.975753
0.964361
0.94815
0.886529
0.618039
0.897402
0.991628
1.03408
1.05135
1.05202
1.0493
1.04557
1.04534
1.04715
1.0489
1.05047
1.05233
1.05375
1.0545
1.05412
1.05318
1.05202
1.0508
1.04964
1.0473
1.04524
1.04564
1.04999
1.05383
1.05363
1.0366
0.99294
0.897455
0.617749
0.426426
0.76333
0.928245
1.00856
1.04772
1.0625
1.06645
1.06387
1.05867
1.05335
1.04924
1.047
1.04618
1.04605
1.04607
1.0459
1.04581
1.04618
1.04745
1.05005
1.0542
1.05967
1.06544
1.06897
1.06598
1.05175
1.01255
0.930743
0.763897
0.426698
0.350378
0.724231
0.933067
1.02854
1.07122
1.08564
1.08437
1.07433
1.06116
1.04921
1.0396
1.0325
1.02783
1.0252
1.02405
1.02406
1.02532
1.02821
1.03328
1.04083
1.05091
1.06366
1.07783
1.08914
1.09167
1.07784
1.03495
0.937855
0.72549
0.35012
0.356366
0.754806
0.941625
1.03442
1.07653
1.08959
1.08796
1.07399
1.05361
1.03332
1.01632
1.00372
0.995437
0.990625
0.988493
0.988608
0.991011
0.996221
1.00504
1.01838
1.03626
1.0577
1.07931
1.09464
1.09806
1.08636
1.0446
0.950429
0.758182
0.354646
0.402871
0.776486
0.928039
1.01171
1.05118
1.0653
1.06526
1.0547
1.03497
1.01025
0.989835
0.974709
0.964287
0.957973
0.955115
0.955345
0.958702
0.965621
0.976821
0.993021
1.0149
1.04117
1.06163
1.07326
1.07546
1.06342
1.02537
0.940426
0.787262
0.402177
0.428439
0.769213
0.89675
0.969441
1.00665
1.01754
1.01783
1.0131
1.00363
0.983595
0.960771
0.945334
0.935067
0.92827
0.924988
0.92535
0.929415
0.937079
0.94839
0.965257
0.989895
1.011
1.02127
1.02741
1.02962
1.02152
0.98633
0.91342
0.782927
0.436561
0.424176
0.746201
0.857081
0.927635
0.960989
0.972313
0.976662
0.975577
0.969401
0.955724
0.932947
0.915617
0.906061
0.899534
0.896067
0.896564
0.90109
0.908704
0.91951
0.938569
0.963003
0.97755
0.984922
0.987662
0.985863
0.978167
0.94725
0.876722
0.763413
0.434141
0.409046
0.702419
0.813007
0.89025
0.93188
0.957879
0.97004
0.971502
0.962049
0.941381
0.914142
0.892029
0.879944
0.872521
0.868498
0.86908
0.874263
0.882893
0.896422
0.920443
0.949417
0.971491
0.982201
0.982164
0.972089
0.94944
0.911675
0.834632
0.723079
0.420388
0.382097
0.645627
0.771858
0.875378
0.948837
0.992099
1.00811
1.00908
0.997826
0.966775
0.921116
0.886087
0.866392
0.855513
0.850148
0.850774
0.857353
0.869554
0.890899
0.928204
0.976213
1.00869
1.02106
1.02115
1.00626
0.964664
0.894445
0.793592
0.667317
0.394259
0.333696
0.574262
0.753548
0.916823
1.04264
1.09541
1.10015
1.09195
1.08143
1.0447
0.970054
0.910724
0.878372
0.861555
0.853946
0.85461
0.863559
0.881889
0.916274
0.978816
1.05648
1.09406
1.10535
1.11449
1.11005
1.05682
0.93154
0.770831
0.595337
0.347483
0.280551
0.541137
0.796655
1.05836
1.25171
1.28774
1.24934
1.21271
1.19824
1.15913
1.06393
0.982222
0.93081
0.902821
0.890681
0.891464
0.905285
0.935248
0.989429
1.0749
1.17356
1.21288
1.22769
1.26592
1.30448
1.26655
1.06824
0.807668
0.553997
0.290749
0.27793
0.610478
0.980964
1.33741
1.57359
1.57792
1.45384
1.36253
1.33498
1.28082
1.17079
1.08476
1.02389
0.985797
0.968161
0.969313
0.989382
1.03024
1.09424
1.18404
1.29774
1.35112
1.37933
1.47448
1.59938
1.58895
1.34455
0.983068
0.614888
0.284083
0.334161
0.882924
1.31927
1.66823
1.8737
1.84477
1.65809
1.50375
1.44187
1.36187
1.25914
1.17569
1.11454
1.07409
1.05475
1.05622
1.07854
1.122
1.18609
1.27256
1.37832
1.45879
1.52209
1.68226
1.86925
1.89116
1.67869
1.32356
0.876459
0.335072
0.524434
1.16491
1.51555
1.7562
1.89932
1.87127
1.68829
1.5365
1.4673
1.38617
1.27808
1.1966
1.13854
1.10207
1.08526
1.08667
1.10633
1.14567
1.20661
1.29128
1.40293
1.4839
1.55371
1.71127
1.89479
1.91668
1.77253
1.5263
1.16565
0.516392
0.631984
1.22832
1.48957
1.67216
1.78064
1.73039
1.57523
1.47284
1.43284
1.35959
1.25635
1.17376
1.11724
1.08255
1.06658
1.06781
1.08627
1.12353
1.18285
1.26852
1.37455
1.44741
1.48711
1.5943
1.75292
1.79969
1.68936
1.50461
1.23867
0.634691
0.631332
1.18145
1.38782
1.52554
1.60304
1.56347
1.44651
1.38267
1.36269
1.29806
1.20782
1.13144
1.07834
1.04527
1.0297
1.03072
1.04835
1.08355
1.13898
1.21784
1.31016
1.37402
1.39313
1.46132
1.58046
1.61839
1.54082
1.40268
1.19298
0.635857
0.612679
1.09087
1.272
1.38919
1.45196
1.42285
1.33189
1.28866
1.2835
1.23447
1.15721
1.08679
1.03649
1.0052
0.990393
0.991201
1.00763
1.04059
1.09264
1.16477
1.24329
1.29085
1.29524
1.34196
1.43355
1.46199
1.40082
1.28421
1.1019
0.618519
0.571102
0.998368
1.16705
1.27176
1.32658
1.30522
1.23207
1.19935
1.2047
1.17147
1.10593
1.04106
0.993298
0.96346
0.949363
0.949979
0.965318
0.996343
1.0452
1.1111
1.1774
1.20881
1.20265
1.23792
1.30995
1.33133
1.27956
1.17668
1.00801
0.577611
0.528044
0.914913
1.07261
1.16804
1.21592
1.20019
1.14223
1.11511
1.12872
1.11028
1.05473
0.995036
0.949688
0.921193
0.907763
0.908204
0.922516
0.951765
0.997634
1.05769
1.11377
1.13059
1.11607
1.14461
1.20047
1.21675
1.17266
1.08022
0.923318
0.53388
0.480198
0.833984
0.983778
1.07204
1.11302
1.10217
1.05838
1.03554
1.05546
1.05001
1.0032
0.948407
0.905639
0.878592
0.865822
0.866116
0.879472
0.90699
0.949983
1.00476
1.05163
1.05541
1.03472
1.05805
1.09943
1.11117
1.07434
0.989873
0.84214
0.485474
0.434142
0.748019
0.89885
0.981825
1.01623
1.00992
0.978428
0.95989
0.985542
0.991108
0.950531
0.900847
0.86092
0.835563
0.823538
0.823705
0.836072
0.861692
0.901598
0.950771
0.992017
0.985238
0.958164
0.975933
1.00521
1.01271
0.982221
0.903816
0.75592
0.439062
0.389268
0.664731
0.817848
0.896258
0.924714
0.922513
0.900819
0.887825
0.917785
0.933351
0.898149
0.852533
0.815674
0.792251
0.781086
0.781144
0.792438
0.815938
0.852781
0.898161
0.933059
0.915346
0.884555
0.896149
0.916038
0.91967
0.894797
0.821716
0.671872
0.393915
0.34752
0.589006
0.741596
0.81373
0.836716
0.838438
0.824182
0.818147
0.851603
0.875532
0.846096
0.803831
0.770256
0.74898
0.73878
0.738745
0.748867
0.769974
0.80332
0.845063
0.873157
0.847577
0.813458
0.817817
0.830799
0.830596
0.810661
0.744082
0.59502
0.351762
0.309298
0.521926
0.667636
0.732291
0.748909
0.753923
0.749453
0.751177
0.787264
0.816534
0.794373
0.755476
0.725191
0.706146
0.696988
0.696879
0.705807
0.724508
0.754586
0.793102
0.813027
0.782284
0.745626
0.742356
0.745779
0.741892
0.728194
0.668987
0.527078
0.313196
0.274805
0.460284
0.595345
0.651993
0.664581
0.671088
0.676333
0.688785
0.727207
0.759672
0.741956
0.706997
0.680801
0.664128
0.656073
0.65592
0.66367
0.679963
0.706185
0.740216
0.755285
0.721896
0.682811
0.668695
0.662553
0.656977
0.647012
0.595429
0.464029
0.278297
0.243282
0.404008
0.525316
0.572408
0.583054
0.593357
0.608469
0.633123
0.672793
0.701017
0.688135
0.659293
0.63734
0.623275
0.616426
0.61624
0.622707
0.636271
0.658179
0.687319
0.69667
0.667651
0.627159
0.600695
0.584625
0.574951
0.566765
0.524196
0.406795
0.246279
0.215306
0.356007
0.458562
0.495812
0.506019
0.52094
0.546982
0.585191
0.625627
0.646931
0.636447
0.613301
0.595274
0.58377
0.578097
0.5779
0.583171
0.594208
0.611937
0.634182
0.643099
0.620933
0.579491
0.539496
0.512371
0.497641
0.489297
0.456049
0.357912
0.217992
0.19167
0.313348
0.394624
0.420154
0.433546
0.455332
0.493363
0.543616
0.584049
0.598868
0.588262
0.569856
0.555447
0.546089
0.541416
0.541207
0.545443
0.554302
0.568237
0.586081
0.595571
0.579727
0.53816
0.486329
0.446971
0.425138
0.413222
0.390784
0.313395
0.193819
0.170757
0.269542
0.327889
0.350315
0.367772
0.395683
0.446709
0.504334
0.543526
0.55459
0.545125
0.53028
0.518443
0.510731
0.506895
0.506698
0.510115
0.517347
0.528683
0.542953
0.551555
0.539448
0.499089
0.440184
0.387786
0.35929
0.342982
0.322924
0.267755
0.172191
0.14955
0.2199
0.267702
0.288876
0.305785
0.344024
0.404453
0.463257
0.500335
0.51116
0.504964
0.493882
0.484411
0.478094
0.474951
0.474782
0.477563
0.483463
0.492455
0.502956
0.508324
0.496443
0.458296
0.398463
0.336724
0.297758
0.281474
0.262459
0.21698
0.150352
0.129186
0.178296
0.216314
0.228085
0.250824
0.300866
0.364597
0.419924
0.454687
0.467891
0.466694
0.459916
0.453084
0.448235
0.445767
0.445636
0.447812
0.452311
0.458699
0.46488
0.465222
0.450991
0.415299
0.359176
0.294368
0.243384
0.220918
0.210716
0.174853
0.129406
0.111586
0.13956
0.160489
0.173068
0.205828
0.265179
0.326989
0.377025
0.409663
0.425735
0.42985
0.427797
0.424027
0.420875
0.41915
0.419048
0.420543
0.423396
0.426762
0.428239
0.423314
0.406308
0.372837
0.322158
0.259644
0.199336
0.166648
0.154731
0.136089
0.111394
0.093962
0.10101
0.110903
0.12848
0.172482
0.235532
0.293319
0.338448
0.369258
0.387314
0.395684
0.398019
0.397411
0.396106
0.3952
0.39512
0.395849
0.396917
0.397229
0.394444
0.385375
0.366477
0.33488
0.289141
0.230867
0.167062
0.12317
0.10665
0.0986452
0.0935855
0.077643
0.0729066
0.0770363
0.0966836
0.149796
0.213121
0.266525
0.307388
0.336095
0.354757
0.365749
0.371426
0.373592
0.374094
0.374035
0.373979
0.373927
0.373322
0.371039
0.365016
0.353415
0.333974
0.304501
0.263023
0.209273
0.145602
0.0929849
0.0745008
0.0713237
0.0772189
0.0639602
0.0545658
0.057084
0.0804745
0.139644
0.199357
0.247783
0.284249
0.310169
0.328134
0.340199
0.347867
0.352148
0.354202
0.354883
0.354865
0.354189
0.352246
0.347996
0.340086
0.327407
0.308631
0.281956
0.244861
0.196245
0.136726
0.0782543
0.0556311
0.053614
0.0636132
0.0544188
0.0429584
0.047637
0.0794995
0.139455
0.193363
0.236442
0.26799
0.290396
0.306531
0.318441
0.327175
0.332953
0.336176
0.337515
0.337582
0.336447
0.333518
0.327922
0.318962
0.306341
0.289456
0.26632
0.234148
0.191009
0.137118
0.0778001
0.0467972
0.0423546
0.0541691
0.0463038
0.0364454
0.0470993
0.0852661
0.143176
0.193518
0.231113
0.256994
0.275374
0.289188
0.300157
0.309081
0.315802
0.319929
0.321822
0.321983
0.320488
0.316809
0.310265
0.300874
0.289197
0.274853
0.255856
0.22948
0.191765
0.14162
0.0840597
0.0465101
0.036124
0.0461107
0.0379427
0.0357536
0.0531286
0.101461
0.153288
0.196975
0.228984
0.249569
0.264149
0.275874
0.28566
0.293887
0.300743
0.305454
0.307783
0.30803
0.306238
0.301989
0.295053
0.28618
0.275938
0.263806
0.24872
0.227977
0.196281
0.152927
0.101183
0.0529529
0.0355911
0.0378041
0.0341675
0.0405895
0.0747059
0.123624
0.166587
0.202253
0.228187
0.24428
0.255729
0.265955
0.274671
0.281782
0.288029
0.29284
0.295401
0.295705
0.293744
0.289291
0.28274
0.275095
0.26617
0.255577
0.243696
0.227634
0.202338
0.16732
0.124516
0.0754151
0.0407165
0.0341374
0.0357118
0.0612613
0.104268
0.14178
0.177245
0.206332
0.227253
0.239249
0.249242
0.258525
0.266144
0.272082
0.277485
0.282029
0.2846
0.284914
0.282927
0.278632
0.272843
0.266555
0.258931
0.249445
0.239121
0.227054
0.206938
0.178576
0.143595
0.105821
0.062067
0.0357979
0.0449508
0.0942366
0.127781
0.157769
0.186893
0.211167
0.224891
0.234607
0.244637
0.253135
0.259255
0.264028
0.268694
0.272814
0.275239
0.275512
0.273573
0.269616
0.264607
0.259632
0.253614
0.245186
0.23517
0.225187
0.211926
0.188476
0.159824
0.130293
0.0959747
0.045403
0.06166
0.116836
0.145959
0.173898
0.196903
0.211619
0.220866
0.231794
0.241718
0.2489
0.2535
0.257335
0.261426
0.265079
0.267244
0.26743
0.265582
0.262007
0.257662
0.253687
0.249307
0.242565
0.232972
0.222069
0.212641
0.198518
0.176062
0.148524
0.119266
0.0627381
0.0747256
0.130134
0.158882
0.183552
0.197702
0.208137
0.21894
0.230462
0.239426
0.245033
0.248552
0.251987
0.255645
0.258782
0.260584
0.26066
0.258976
0.255821
0.251977
0.248495
0.245257
0.240364
0.232172
0.220947
0.20986
0.199432
0.185711
0.161493
0.132975
0.0765136
0.0782112
0.132497
0.161184
0.181119
0.193619
0.205603
0.21827
0.229528
0.237191
0.241665
0.24492
0.248173
0.251334
0.253865
0.255241
0.255209
0.253756
0.251095
0.24775
0.244486
0.241549
0.237903
0.231425
0.220931
0.208193
0.195778
0.183245
0.163868
0.135578
0.0802485
0.0773304
0.129416
0.156893
0.174619
0.189817
0.204408
0.218037
0.228715
0.235617
0.23997
0.243174
0.245984
0.248438
0.250288
0.251221
0.251088
0.249882
0.247747
0.245007
0.242109
0.239248
0.235773
0.230359
0.221009
0.207789
0.192759
0.176959
0.159231
0.132108
0.0792232
0.0742649
0.121029
0.148951
0.16963
0.187651
0.204219
0.218316
0.228958
0.235985
0.240396
0.24328
0.245347
0.246914
0.248024
0.248503
0.248258
0.247284
0.245669
0.24361
0.241352
0.238894
0.235549
0.230168
0.2213
0.208038
0.191353
0.172632
0.151201
0.122783
0.0756474
0.0684784
0.109485
0.14205
0.166234
0.187043
0.205062
0.219859
0.230983
0.238584
0.242786
0.244825
0.24596
0.246654
0.24695
0.246936
0.246545
0.245767
0.244655
0.243324
0.241772
0.239928
0.237031
0.231627
0.222814
0.209337
0.191492
0.169851
0.14471
0.110902
0.0693003
0.0613613
0.0982926
0.136104
0.164623
0.18823
0.208167
0.224095
0.236066
0.244096
0.24732
0.248016
0.247746
0.247229
0.246728
0.246172
0.245579
0.244941
0.244286
0.243649
0.243059
0.242246
0.24039
0.235833
0.227369
0.213343
0.193704
0.169505
0.139591
0.100379
0.0620095
0.0554463
0.0915142
0.133706
0.166005
0.192962
0.215566
0.232122
0.242712
0.249245
0.25139
0.251127
0.249791
0.248219
0.246826
0.245731
0.244894
0.244313
0.243995
0.243959
0.244233
0.244477
0.243453
0.240942
0.235867
0.222619
0.20064
0.172507
0.138855
0.0950958
0.0564003
0.0515766
0.0914071
0.135956
0.172938
0.204423
0.227243
0.240301
0.246458
0.250925
0.2531
0.252634
0.250773
0.248646
0.246723
0.245214
0.244155
0.243556
0.243408
0.243693
0.244423
0.245867
0.246907
0.245275
0.242469
0.235324
0.215205
0.182437
0.142806
0.0958625
0.0531162
0.0509357
0.0953929
0.146178
0.189944
0.222005
0.23813
0.244507
0.248353
0.25197
0.253113
0.252146
0.250327
0.248249
0.246196
0.244465
0.243274
0.242643
0.242552
0.242961
0.243908
0.245842
0.249205
0.250512
0.247201
0.242369
0.230533
0.200983
0.156437
0.102195
0.0531295
0.05271
0.109819
0.169207
0.213537
0.237176
0.243264
0.247531
0.252069
0.25375
0.252252
0.250272
0.248738
0.247048
0.245137
0.243467
0.242288
0.241677
0.241628
0.24208
0.243045
0.245071
0.248919
0.253351
0.254228
0.247075
0.237004
0.219699
0.180961
0.121393
0.0561758
0.0610679
0.141032
0.199306
0.23064
0.241681
0.2478
0.253713
0.254421
0.252879
0.249508
0.247353
0.246402
0.245237
0.243706
0.24226
0.241212
0.240694
0.240733
0.241287
0.242341
0.244248
0.24776
0.251802
0.256492
0.256624
0.244277
0.229076
0.204025
0.151997
0.0667953
0.081481
0.176198
0.218944
0.237702
0.249306
0.255835
0.254536
0.252915
0.249995
0.246218
0.244635
0.244009
0.243183
0.242013
0.240855
0.240012
0.239647
0.239823
0.240548
0.241815
0.24376
0.24671
0.24966
0.252281
0.25543
0.254207
0.241183
0.214471
0.181127
0.0901681
0.105599
0.198939
0.226769
0.247337
0.253165
0.25179
0.250745
0.249146
0.246333
0.24336
0.242128
0.241607
0.240986
0.240121
0.239254
0.238643
0.23846
0.238803
0.239739
0.241296
0.24348
0.246241
0.248472
0.249099
0.24877
0.248331
0.243606
0.223325
0.191798
0.105936
0.115767
0.20073
0.227735
0.241573
0.244198
0.244881
0.245258
0.24418
0.242184
0.240381
0.239528
0.239135
0.238693
0.238093
0.237495
0.237108
0.237106
0.237626
0.238789
0.240681
0.243287
0.246305
0.248372
0.247682
0.244488
0.240948
0.235811
0.21937
0.188492
0.108809
0.112925
0.190463
0.219004
0.231387
0.236603
0.239433
0.24003
0.239345
0.238222
0.237294
0.236823
0.236614
0.236366
0.236009
0.235654
0.235472
0.235643
0.236341
0.237747
0.240027
0.243227
0.246881
0.249517
0.248541
0.242765
0.235303
0.225861
0.207452
0.174265
0.104237
0.101832
0.169465
0.205188
0.223421
0.232015
0.235079
0.235463
0.235128
0.234619
0.234235
0.234111
0.234123
0.234089
0.233966
0.233838
0.233857
0.234208
0.235103
0.236787
0.239518
0.243452
0.24826
0.252554
0.252345
0.244749
0.23234
0.216776
0.193348
0.154431
0.0931468
0.0895997
0.150937
0.194573
0.219871
0.229397
0.231692
0.231795
0.231562
0.231361
0.231347
0.231525
0.231768
0.231954
0.23206
0.23216
0.2324
0.232971
0.234115
0.236136
0.239395
0.244142
0.250303
0.256577
0.259875
0.251757
0.234397
0.211117
0.181259
0.137066
0.0814832
0.0805882
0.138257
0.190408
0.218437
0.227391
0.228837
0.228596
0.228398
0.228445
0.228738
0.229183
0.229643
0.230037
0.230365
0.230703
0.231195
0.232042
0.2335
0.235898
0.239608
0.24504
0.252239
0.26005
0.263857
0.261118
0.243172
0.213346
0.174651
0.124701
0.0728991
0.0731906
0.13871
0.191186
0.214789
0.223577
0.2248
0.225148
0.225421
0.225854
0.226456
0.227134
0.227789
0.228372
0.228905
0.229479
0.230244
0.231402
0.233209
0.235973
0.240011
0.245561
0.25261
0.261729
0.268148
0.2646
0.254731
0.224211
0.178492
0.121371
0.0662148
0.074469
0.143763
0.189366
0.212343
0.216654
0.219526
0.221367
0.222537
0.223514
0.224457
0.225362
0.226193
0.226941
0.22765
0.228429
0.229443
0.230905
0.233056
0.23614
0.240354
0.245724
0.252147
0.260239
0.271487
0.271183
0.258346
0.238702
0.193508
0.127928
0.0634312
0.0797395
0.153893
0.187443
0.204969
0.20907
0.214003
0.217435
0.219659
0.221312
0.222701
0.223889
0.224899
0.225775
0.226603
0.227529
0.228742
0.230457
0.232882
0.23618
0.240425
0.245526
0.251088
0.257333
0.26645
0.275748
0.266938
0.244171
0.213051
0.148827
0.0673238
0.0867046
0.154984
0.181046
0.194287
0.201733
0.208489
0.213418
0.2168
0.219317
0.221289
0.222834
0.224022
0.224963
0.22582
0.226805
0.228142
0.230046
0.232691
0.236155
0.240332
0.244942
0.249556
0.254096
0.259504
0.266569
0.269564
0.255384
0.218609
0.176451
0.0817945
0.0851984
0.146952
0.169392
0.184259
0.194635
0.203188
0.20953
0.214214
0.2178
0.220543
0.222532
0.223859
0.224746
0.225497
0.226422
0.227798
0.229848
0.232703
0.236303
0.240405
0.244429
0.247908
0.250648
0.253058
0.255736
0.257595
0.253357
0.226107
0.188936
0.100795
0.0799945
0.129723
0.156858
0.174776
0.187902
0.198153
0.206115
0.212375
0.21732
0.22087
0.223186
0.224523
0.225252
0.225824
0.226633
0.227989
0.230125
0.233168
0.237019
0.241158
0.244747
0.246904
0.247594
0.247157
0.246091
0.243955
0.238708
0.219668
0.185807
0.104276
0.072086
0.114043
0.145245
0.165975
0.181458
0.193737
0.203771
0.212074
0.218283
0.22266
0.225361
0.226578
0.226947
0.227175
0.227768
0.229079
0.231338
0.234677
0.238938
0.243353
0.246563
0.247485
0.246002
0.242503
0.237718
0.23149
0.221653
0.202234
0.169694
0.099362
0.0642461
0.100803
0.134648
0.157996
0.175923
0.190846
0.203666
0.213767
0.221544
0.226851
0.229788
0.23063
0.230434
0.230152
0.230425
0.231675
0.234133
0.237886
0.242699
0.24767
0.250808
0.250358
0.247005
0.240232
0.23126
0.220519
0.206109
0.183387
0.146587
0.088433
0.0578867
0.0908015
0.125893
0.151609
0.172723
0.191144
0.206523
0.219013
0.228173
0.233177
0.235544
0.2359
0.235158
0.234288
0.234147
0.235314
0.238082
0.242368
0.247689
0.253048
0.256637
0.256178
0.251474
0.241838
0.228463
0.212222
0.192915
0.166656
0.126599
0.0777956
0.052377
0.0830661
0.119477
0.148741
0.173857
0.196097
0.215577
0.229501
0.236022
0.239067
0.240724
0.240836
0.239672
0.238095
0.23742
0.238445
0.241503
0.246432
0.252349
0.257387
0.260722
0.261239
0.258757
0.248835
0.231546
0.209525
0.183447
0.152828
0.110695
0.0679383
0.0478924
0.0783451
0.117954
0.151129
0.181724
0.210539
0.231747
0.240094
0.241721
0.242555
0.243949
0.244247
0.242378
0.240218
0.239124
0.239993
0.243169
0.248411
0.254831
0.260293
0.262185
0.262578
0.262909
0.258942
0.243079
0.214602
0.182112
0.144319
0.0986517
0.059926
0.0443287
0.0787322
0.121996
0.161986
0.201665
0.232227
0.243927
0.24568
0.245625
0.246488
0.247336
0.245933
0.243013
0.240705
0.239579
0.2404
0.243508
0.248587
0.255019
0.262317
0.26533
0.264461
0.264243
0.263603
0.255897
0.229882
0.189235
0.145358
0.0947394
0.0536703
0.0440722
0.0847139
0.136607
0.186194
0.22586
0.245758
0.249154
0.250268
0.252296
0.253786
0.251882
0.246602
0.242734
0.240897
0.240134
0.241063
0.244006
0.248616
0.254423
0.263104
0.271461
0.270657
0.267775
0.264938
0.259866
0.244899
0.208223
0.156076
0.0986546
0.0509928
0.0472095
0.104286
0.16527
0.21624
0.241974
0.250595
0.255189
0.260378
0.26494
0.262639
0.253661
0.24576
0.242763
0.241716
0.24151
0.242615
0.24533
0.249304
0.254091
0.261205
0.272661
0.280642
0.277752
0.270155
0.262283
0.251608
0.230594
0.180457
0.115604
0.0532508
0.0580349
0.137969
0.197505
0.238957
0.251885
0.259199
0.269302
0.278265
0.273726
0.264773
0.253976
0.246251
0.243744
0.243283
0.243512
0.244771
0.247286
0.250742
0.254698
0.26035
0.270168
0.280145
0.288446
0.284668
0.270859
0.257794
0.242893
0.209032
0.149614
0.0633971
0.0801799
0.172418
0.219488
0.249227
0.263316
0.276193
0.288524
0.283811
0.273301
0.264682
0.254714
0.248
0.245601
0.245131
0.245508
0.246833
0.249202
0.252359
0.255956
0.260639
0.267835
0.275974
0.283616
0.291719
0.288881
0.270983
0.251551
0.224984
0.185976
0.0874272
0.103327
0.200155
0.231213
0.260521
0.277942
0.289504
0.287155
0.277992
0.271132
0.263862
0.25576
0.25024
0.247781
0.247018
0.247302
0.248613
0.250925
0.253983
0.257429
0.26135
0.266361
0.271617
0.276204
0.281856
0.286354
0.283092
0.267657
0.235247
0.203715
0.109294
0.115376
0.206322
0.241939
0.272718
0.284146
0.282498
0.276516
0.271919
0.268264
0.263153
0.257195
0.252748
0.250185
0.249024
0.249083
0.250348
0.252728
0.255892
0.259344
0.262722
0.266019
0.268544
0.270413
0.272185
0.27462
0.275381
0.266949
0.239343
0.202188
0.114946
0.115558
0.201237
0.241504
0.269627
0.275212
0.271222
0.268482
0.267231
0.266232
0.263687
0.259747
0.256055
0.253222
0.251554
0.251303
0.252544
0.255155
0.258695
0.262414
0.265471
0.267282
0.267661
0.266439
0.265148
0.26414
0.262006
0.255057
0.231074
0.19191
0.111834
0.110894
0.188134
0.230687
0.255477
0.261915
0.262377
0.262762
0.264764
0.266825
0.266598
0.264504
0.261043
0.257573
0.255225
0.254586
0.255807
0.25877
0.26297
0.26741
0.270654
0.271369
0.269603
0.265702
0.260498
0.255581
0.2492
0.237316
0.213113
0.173444
0.102458
0.100316
0.169741
0.211552
0.23685
0.248867
0.254636
0.259945
0.266106
0.271105
0.273543
0.272223
0.268009
0.263508
0.26041
0.259353
0.260474
0.263658
0.268473
0.273944
0.278321
0.279395
0.275843
0.268741
0.259807
0.249451
0.237859
0.221247
0.194873
0.154246
0.0925548
0.089542
0.148977
0.192344
0.220263
0.237677
0.250138
0.261654
0.272496
0.281012
0.284112
0.28132
0.275645
0.270317
0.266582
0.265066
0.265969
0.269133
0.274048
0.279847
0.28543
0.288611
0.2867
0.277604
0.263681
0.247914
0.229539
0.207509
0.177558
0.13367
0.0817834
0.0776259
0.127672
0.174551
0.206783
0.230935
0.251443
0.269645
0.285953
0.293191
0.292309
0.287765
0.2821
0.276441
0.272083
0.270041
0.270639
0.273687
0.278501
0.283691
0.288288
0.291941
0.294336
0.290406
0.275011
0.252427
0.226935
0.197482
0.162133
0.114679
0.07023
0.0662753
0.109856
0.160503
0.199323
0.231937
0.260597
0.286134
0.298206
0.298224
0.294659
0.291139
0.286458
0.280391
0.275499
0.273056
0.273343
0.27618
0.280946
0.28589
0.288843
0.291178
0.294289
0.296854
0.290547
0.266231
0.231982
0.195095
0.152823
0.101042
0.0606155
0.0579322
0.101699
0.156444
0.201397
0.242092
0.280154
0.300949
0.301449
0.297911
0.295471
0.293629
0.288928
0.282146
0.276886
0.274193
0.274235
0.276891
0.2818
0.287445
0.290082
0.290891
0.292782
0.296228
0.29861
0.282834
0.247347
0.201646
0.153495
0.0982339
0.0539526
0.0537631
0.103095
0.161747
0.214247
0.263857
0.296529
0.304421
0.300723
0.298405
0.297621
0.296133
0.290015
0.282463
0.277062
0.274265
0.274153
0.276642
0.281531
0.288156
0.292107
0.292162
0.292735
0.294543
0.297939
0.293436
0.268518
0.219833
0.163414
0.102289
0.0520344
0.0543922
0.113011
0.180187
0.240296
0.287314
0.303477
0.302862
0.301221
0.300934
0.301226
0.298121
0.289844
0.282214
0.277033
0.274294
0.274052
0.27622
0.28071
0.287582
0.294185
0.295396
0.294678
0.294939
0.295709
0.298006
0.287289
0.247257
0.187036
0.117795
0.054181
0.0599272
0.137902
0.209515
0.271305
0.302507
0.304821
0.303311
0.304461
0.306277
0.305547
0.298318
0.289114
0.282247
0.277559
0.274997
0.27466
0.276481
0.280241
0.286194
0.294317
0.299822
0.299462
0.297727
0.296405
0.297866
0.298719
0.276557
0.217581
0.146323
0.0626141
0.0737569
0.16785
0.239319
0.29543
0.307809
0.305874
0.306959
0.31137
0.313171
0.307371
0.297251
0.288964
0.283207
0.27925
0.276994
0.276555
0.277886
0.280831
0.285444
0.292697
0.301449
0.306019
0.303903
0.299761
0.298706
0.301337
0.292607
0.245672
0.175917
0.0784394
0.0906075
0.195916
0.264602
0.302236
0.308609
0.309142
0.314796
0.320361
0.316006
0.30583
0.296382
0.289869
0.285426
0.282273
0.280399
0.279889
0.280705
0.282695
0.285965
0.291194
0.29931
0.307918
0.311854
0.306782
0.301473
0.301882
0.295278
0.263994
0.200625
0.0947473
0.105333
0.217194
0.276246
0.302641
0.310372
0.315793
0.32432
0.323049
0.313441
0.3037
0.296616
0.291812
0.288471
0.286115
0.284656
0.284088
0.284389
0.285528
0.287573
0.291092
0.296713
0.304683
0.312709
0.314721
0.307354
0.302656
0.294739
0.268456
0.216201
0.106485
0.116611
0.228411
0.277154
0.30379
0.314793
0.32535
0.327345
0.319208
0.309536
0.302403
0.297301
0.293981
0.291762
0.290251
0.289248
0.288637
0.288416
0.288683
0.289597
0.291541
0.295219
0.300659
0.308364
0.316058
0.316951
0.306683
0.295084
0.268671
0.222713
0.114173
0.125168
0.23198
0.278863
0.30757
0.323854
0.330612
0.32368
0.313637
0.306305
0.301182
0.298
0.296063
0.294877
0.294058
0.293395
0.292747
0.29214
0.291745
0.291702
0.292338
0.294086
0.297662
0.303362
0.312191
0.32074
0.315959
0.298326
0.269435
0.224241
0.120802
0.126517
0.230543
0.27997
0.311808
0.327362
0.326542
0.316444
0.308211
0.302948
0.300227
0.298882
0.297931
0.297284
0.29659
0.29584
0.295154
0.294602
0.294136
0.293681
0.293463
0.293539
0.294865
0.298738
0.305838
0.315693
0.317678
0.302015
0.270507
0.222708
0.122025
0.123738
0.224302
0.27592
0.30868
0.3199
0.314933
0.307071
0.301834
0.299786
0.299792
0.300012
0.299029
0.297508
0.295931
0.294699
0.29403
0.293942
0.294296
0.29483
0.294879
0.293588
0.292506
0.293323
0.297365
0.30403
0.308395
0.297914
0.26631
0.215448
0.119459
0.115813
0.211345
0.260816
0.291477
0.299059
0.297649
0.295218
0.294948
0.296717
0.299283
0.299988
0.297813
0.294995
0.29248
0.290849
0.290231
0.290605
0.291855
0.293622
0.294957
0.29354
0.290192
0.287429
0.286627
0.28759
0.287257
0.279293
0.250443
0.201982
0.111613
0.108403
0.189835
0.231865
0.257963
0.271276
0.277685
0.282605
0.287893
0.293199
0.296592
0.296554
0.293646
0.290128
0.287594
0.286041
0.285486
0.28591
0.28728
0.289679
0.291745
0.291193
0.287307
0.281338
0.275263
0.269283
0.261717
0.247907
0.222028
0.181295
0.103737
0.0960145
0.16098
0.196913
0.224958
0.244759
0.259308
0.271307
0.281046
0.287578
0.289823
0.289273
0.287526
0.284685
0.282466
0.28107
0.28059
0.280987
0.282193
0.284041
0.28496
0.284831
0.282178
0.275315
0.265175
0.252659
0.237556
0.217514
0.188972
0.153089
0.0918987
0.0782093
0.124161
0.164979
0.197616
0.223854
0.245647
0.262754
0.274209
0.279844
0.281553
0.281647
0.280837
0.278908
0.277203
0.27612
0.275696
0.275927
0.276784
0.277886
0.277961
0.277238
0.275005
0.269195
0.257638
0.240509
0.218652
0.19234
0.159446
0.118456
0.0750888
0.0619353
0.094118
0.141155
0.178809
0.211243
0.237724
0.256586
0.266589
0.270761
0.273447
0.274406
0.274006
0.272986
0.271901
0.271174
0.2708
0.270808
0.271188
0.271526
0.271324
0.26979
0.266581
0.262171
0.252279
0.233754
0.20762
0.175479
0.137996
0.0913501
0.0599771
0.0513148
0.0821859
0.130038
0.170919
0.206403
0.233287
0.249506
0.257299
0.261427
0.264744
0.266865
0.26728
0.267011
0.266529
0.266092
0.265776
0.265603
0.265495
0.265169
0.26419
0.261584
0.257967
0.2534
0.245603
0.229994
0.203962
0.169183
0.128873
0.0817586
0.0503429
0.0468477
0.0826101
0.129983
0.171195
0.20504
0.227601
0.239597
0.247226
0.252294
0.256009
0.258959
0.260431
0.261119
0.261199
0.261025
0.260772
0.26044
0.259857
0.258603
0.256613
0.253319
0.249368
0.243981
0.236247
0.224583
0.203031
0.170059
0.129472
0.0827197
0.0466471
0.0468278
0.0877847
0.135008
0.173575
0.202499
0.218996
0.229923
0.237945
0.244013
0.24828
0.251477
0.253869
0.255555
0.256149
0.256217
0.256024
0.255559
0.254512
0.252297
0.24951
0.246112
0.241612
0.2354
0.227343
0.216587
0.200705
0.172951
0.135295
0.0885414
0.0468753
0.049269
0.100245
0.144075
0.177285
0.197241
0.211237
0.222392
0.231006
0.237559
0.24211
0.245422
0.248349
0.250653
0.251622
0.251846
0.251712
0.251195
0.249813
0.247063
0.243862
0.240426
0.235738
0.229155
0.220543
0.209486
0.195817
0.176507
0.144356
0.101287
0.0496396
0.055747
0.113149
0.152282
0.177024
0.19291
0.20673
0.217937
0.226591
0.232953
0.237521
0.241091
0.244327
0.246885
0.248007
0.24829
0.248217
0.24775
0.246273
0.243359
0.239948
0.236297
0.231679
0.225325
0.216734
0.205606
0.191984
0.176316
0.152205
0.113741
0.0563017
0.0623751
0.122675
0.155838
0.176037
0.192042
0.205425
0.216064
0.224083
0.230045
0.23458
0.238471
0.242
0.244617
0.245722
0.245998
0.245985
0.245636
0.244265
0.241343
0.237693
0.233789
0.229244
0.223319
0.2154
0.204853
0.191573
0.175632
0.155442
0.122747
0.0626312
0.0679098
0.130243
0.159254
0.178124
0.193521
0.206215
0.216033
0.223315
0.228891
0.23343
0.237558
0.241289
0.243867
0.244927
0.245216
0.245254
0.244996
0.243769
0.240923
0.237089
0.233001
0.228498
0.222957
0.215688
0.205977
0.193411
0.177981
0.159047
0.12993
0.0678785
0.0781515
0.141222
0.167387
0.184607
0.198295
0.208968
0.217388
0.224029
0.229281
0.233768
0.237964
0.241735
0.244267
0.245356
0.245702
0.245765
0.245499
0.244307
0.241538
0.237668
0.233524
0.229113
0.223915
0.217383
0.209129
0.198653
0.184976
0.167701
0.141233
0.0777924
0.0985262
0.159741
0.181383
0.196279
0.207148
0.215085
0.221253
0.226591
0.231194
0.235443
0.239585
0.243294
0.245783
0.246981
0.247449
0.247534
0.247195
0.245975
0.24331
0.239521
0.235432
0.231291
0.226786
0.221592
0.215588
0.207746
0.196983