/*--------------------------------*- C++ -*----------------------------------*\
| =========                 |                                                 |
| \\      /  F ield         | OpenFOAM: The Open Source CFD Toolbox           |
|  \\    /   O peration     | Version:  v1606+                                |
|   \\  /    A nd           | Web:      www.OpenFOAM.com                      |
|    \\/     M anipulation  |                                                 |
\*---------------------------------------------------------------------------*/
FoamFile
{
    version     2.0;
    format      ascii;
    class       volScalarField;
    location    "0.35";
    object      nut.particles;
}
// * * * * * * * * * * * * * * * * * * * * * * * * * * * * * * * * * * * * * //

dimensions      [0 2 -1 0 0 0 0];

internalField   nonuniform List<scalar> 
6000
(
1.20068e-05
1.12273e-05
1.22729e-05
1.27835e-05
1.3282e-05
1.33756e-05
1.35957e-05
1.39154e-05
1.42925e-05
1.45644e-05
1.47007e-05
1.47923e-05
1.49306e-05
1.50468e-05
1.51629e-05
1.50734e-05
1.49803e-05
1.49172e-05
1.48476e-05
1.48115e-05
1.45589e-05
1.41593e-05
1.37886e-05
1.35431e-05
1.34153e-05
1.33201e-05
1.28158e-05
1.22159e-05
1.11802e-05
1.18986e-05
6.47655e-06
6.78812e-06
7.74243e-06
7.97927e-06
8.03626e-06
7.98926e-06
7.97734e-06
7.95905e-06
7.99186e-06
8.05139e-06
8.10394e-06
8.15335e-06
8.18245e-06
8.19962e-06
8.20484e-06
8.20615e-06
8.20014e-06
8.18494e-06
8.15578e-06
8.11586e-06
8.05567e-06
7.99222e-06
7.95738e-06
7.976e-06
7.99312e-06
8.04858e-06
8.00078e-06
7.73334e-06
6.73281e-06
6.42626e-06
8.9144e-06
9.9057e-06
1.08267e-05
1.04634e-05
9.35676e-06
9.31413e-06
8.88103e-06
8.96322e-06
8.78528e-06
8.33306e-06
7.91943e-06
7.48415e-06
7.16271e-06
6.93522e-06
6.82335e-06
6.8298e-06
6.95625e-06
7.17058e-06
7.5019e-06
7.88398e-06
8.34592e-06
8.79744e-06
8.93889e-06
8.87841e-06
9.28204e-06
9.29085e-06
1.0304e-05
1.08255e-05
9.82615e-06
8.84568e-06
8.18771e-06
8.59222e-06
5.43456e-06
3.89994e-06
3.37588e-06
3.20611e-06
3.01504e-06
2.95209e-06
2.84393e-06
2.65304e-06
2.5113e-06
2.35807e-06
2.27085e-06
2.21451e-06
2.18767e-06
2.18932e-06
2.22145e-06
2.27655e-06
2.36371e-06
2.51149e-06
2.66584e-06
2.85621e-06
2.96854e-06
3.04116e-06
3.22853e-06
3.39397e-06
3.89038e-06
5.47281e-06
8.78163e-06
8.138e-06
8.35094e-06
4.09767e-06
2.40272e-06
2.10092e-06
1.9528e-06
1.81267e-06
1.71189e-06
1.63559e-06
1.59179e-06
1.66378e-06
1.71788e-06
1.75317e-06
1.77214e-06
1.77963e-06
1.78208e-06
1.78253e-06
1.78094e-06
1.77358e-06
1.75502e-06
1.71902e-06
1.66452e-06
1.59183e-06
1.65582e-06
1.74594e-06
1.85415e-06
2.00395e-06
2.15636e-06
2.46067e-06
4.36722e-06
8.35314e-06
5.30301e-06
2.44876e-06
2.15056e-06
2.01098e-06
1.87006e-06
1.87074e-06
1.82663e-06
1.71815e-06
1.50234e-06
1.50812e-06
1.58761e-06
1.64033e-06
1.6659e-06
1.67785e-06
1.68193e-06
1.68265e-06
1.67912e-06
1.66794e-06
1.64195e-06
1.58888e-06
1.50766e-06
1.51814e-06
1.75694e-06
1.87346e-06
1.92245e-06
1.91964e-06
2.0709e-06
2.21962e-06
2.59133e-06
6.1791e-06
3.06736e-06
2.16976e-06
2.12301e-06
2.04016e-06
2.30178e-06
2.6454e-06
2.75352e-06
2.62323e-06
2.08828e-06
1.64566e-06
1.54453e-06
1.59402e-06
1.60988e-06
1.61324e-06
1.61414e-06
1.61476e-06
1.61569e-06
1.61271e-06
1.59644e-06
1.54582e-06
1.65031e-06
2.13889e-06
2.69768e-06
2.83324e-06
2.72093e-06
2.3576e-06
2.08808e-06
2.18973e-06
2.24395e-06
3.48261e-06
2.45152e-06
2.18743e-06
2.08115e-06
2.43038e-06
3.41869e-06
4.42717e-06
4.8881e-06
4.87343e-06
4.03117e-06
2.55006e-06
1.8301e-06
1.6667e-06
1.61602e-06
1.58647e-06
1.57204e-06
1.57304e-06
1.5871e-06
1.61597e-06
1.66438e-06
1.82842e-06
2.58912e-06
4.15007e-06
4.98938e-06
5.00173e-06
4.5135e-06
3.4745e-06
2.46857e-06
2.14379e-06
2.25488e-06
2.64565e-06
2.54011e-06
2.28877e-06
2.34865e-06
3.62037e-06
5.68442e-06
7.11096e-06
7.99293e-06
8.31684e-06
8.45836e-06
6.0398e-06
3.26345e-06
2.31574e-06
2.05782e-06
1.96389e-06
1.92541e-06
1.92605e-06
1.95948e-06
2.05071e-06
2.30441e-06
3.29244e-06
6.24082e-06
8.60081e-06
8.38699e-06
8.02315e-06
7.13064e-06
5.65742e-06
3.61343e-06
2.35089e-06
2.32154e-06
2.59521e-06
2.61573e-06
2.71507e-06
3.36084e-06
6.95911e-06
1.00942e-05
1.07219e-05
1.51908e-05
3.38819e-05
9.93981e-05
5.888e-05
8.78541e-06
5.00497e-06
3.91875e-06
3.58222e-06
3.46587e-06
3.45931e-06
3.55966e-06
3.88518e-06
4.98732e-06
8.96225e-06
8.38212e-05
0.000108811
3.35227e-05
1.43373e-05
1.06592e-05
9.96215e-06
6.72398e-06
3.22125e-06
2.63642e-06
2.65142e-06
3.37489e-06
3.88531e-06
6.33937e-06
1.39321e-05
0.000436704
0.00093362
0.00165392
0.00199727
0.00197659
0.00138935
0.000249147
1.30673e-05
9.79386e-06
8.66601e-06
8.33559e-06
8.30081e-06
8.58087e-06
9.68469e-06
1.30745e-05
0.000273392
0.00150251
0.00213139
0.00204082
0.00165359
0.00090626
0.000419286
1.32453e-05
5.84199e-06
3.59948e-06
3.2862e-06
6.81934e-06
7.31751e-06
1.31075e-05
0.00103424
0.00247457
0.00249204
0.00248305
0.00248734
0.0024856
0.00247777
0.00180544
0.000986664
0.000365282
0.000201823
0.000179276
0.000171662
0.000187829
0.000351001
0.00101635
0.00186821
0.00256119
0.00256946
0.00257178
0.00256682
0.00257708
0.00255675
0.00086766
1.19431e-05
6.66247e-06
6.3456e-06
1.78693e-05
2.07905e-05
2.46952e-05
3.427e-05
3.42068e-05
0.00247749
0.00249057
0.00248664
0.002472
2.79471e-05
4.37112e-05
0.0003627
0.000662933
0.000660193
0.000658701
0.000658741
0.000660384
0.000663152
0.000338889
4.32008e-05
2.72502e-05
0.0025537
0.00257016
0.00257443
0.00256006
3.26543e-05
3.39722e-05
2.42685e-05
1.91192e-05
1.64653e-05
1.28993e-05
1.6846e-05
1.59928e-05
5.71487e-06
2.81054e-06
5.22376e-06
2.01158e-05
2.68582e-05
4.75758e-06
2.43504e-06
4.32697e-06
7.49423e-06
1.13057e-05
1.50865e-05
1.72696e-05
1.72764e-05
1.50266e-05
1.118e-05
7.34704e-06
4.19591e-06
2.36209e-06
4.82583e-06
2.79415e-05
1.92621e-05
4.71995e-06
2.73984e-06
6.1436e-06
1.62529e-05
1.69807e-05
1.29149e-05
2.21236e-06
1.95884e-06
1.51952e-06
8.74291e-07
7.291e-07
9.44018e-07
2.00488e-06
2.39298e-06
1.06289e-06
7.79281e-07
7.73812e-07
8.42175e-07
9.51275e-07
1.07656e-06
1.16738e-06
1.16697e-06
1.07368e-06
9.46586e-07
8.36873e-07
7.70774e-07
7.77798e-07
1.06906e-06
2.45158e-06
1.979e-06
9.02205e-07
7.27452e-07
8.95878e-07
1.59273e-06
2.08667e-06
2.35138e-06
1.03375e-06
7.56818e-07
6.88673e-07
6.45542e-07
6.17529e-07
7.61603e-07
1.24168e-06
1.37818e-06
9.0079e-07
6.96349e-07
6.45954e-07
6.47371e-07
6.56232e-07
6.56887e-07
6.56136e-07
6.55973e-07
6.56389e-07
6.55281e-07
6.45655e-07
6.46254e-07
6.96668e-07
9.0442e-07
1.40564e-06
1.22614e-06
7.41747e-07
6.16719e-07
6.47439e-07
6.92933e-07
7.64201e-07
1.04336e-06
9.45644e-07
7.30412e-07
6.58836e-07
6.17619e-07
5.82881e-07
7.25897e-07
1.27396e-06
1.39921e-06
8.75498e-07
6.85196e-07
6.402e-07
6.34492e-07
6.4442e-07
6.46176e-07
6.45153e-07
6.4494e-07
6.45536e-07
6.43153e-07
6.34201e-07
6.40965e-07
6.87169e-07
8.93829e-07
1.44831e-06
1.25812e-06
7.05523e-07
5.80749e-07
6.18983e-07
6.60125e-07
7.32387e-07
9.47733e-07
9.1315e-07
7.37947e-07
6.48804e-07
6.00355e-07
5.66961e-07
6.94653e-07
1.27944e-06
1.43825e-06
8.78377e-07
6.82547e-07
6.40515e-07
6.31303e-07
6.28753e-07
6.3077e-07
6.30969e-07
6.30688e-07
6.29741e-07
6.28893e-07
6.32323e-07
6.41905e-07
6.86907e-07
9.04273e-07
1.48735e-06
1.25631e-06
6.7617e-07
5.65598e-07
6.00649e-07
6.50454e-07
7.40063e-07
9.15154e-07
8.93523e-07
7.38445e-07
6.48338e-07
5.97373e-07
5.6436e-07
6.77592e-07
1.30785e-06
1.51033e-06
9.16089e-07
6.88868e-07
6.43938e-07
6.35709e-07
6.30867e-07
6.29614e-07
6.29993e-07
6.30047e-07
6.29895e-07
6.32234e-07
6.37231e-07
6.46238e-07
6.97535e-07
9.42867e-07
1.55364e-06
1.2745e-06
6.61729e-07
5.64355e-07
5.97161e-07
6.4968e-07
7.40765e-07
8.96214e-07
8.85817e-07
7.35203e-07
6.49226e-07
5.94865e-07
5.69747e-07
6.78294e-07
1.31767e-06
1.63082e-06
9.91827e-07
7.14036e-07
6.54705e-07
6.45071e-07
6.44189e-07
6.44351e-07
6.45295e-07
6.45539e-07
6.45168e-07
6.45381e-07
6.46756e-07
6.58185e-07
7.28102e-07
1.0277e-06
1.67239e-06
1.27181e-06
6.68412e-07
5.69956e-07
5.94304e-07
6.49642e-07
7.37858e-07
8.88871e-07
8.59957e-07
7.28036e-07
6.47107e-07
5.97311e-07
5.9055e-07
6.95172e-07
1.30836e-06
1.81569e-06
1.12931e-06
7.59373e-07
6.73593e-07
6.57823e-07
6.57347e-07
6.60328e-07
6.62945e-07
6.63256e-07
6.6108e-07
6.58399e-07
6.59501e-07
6.77434e-07
7.74459e-07
1.18335e-06
1.84347e-06
1.24689e-06
6.85843e-07
5.90959e-07
5.96469e-07
6.46191e-07
7.31027e-07
8.6393e-07
8.21789e-07
7.21464e-07
6.45943e-07
6.07845e-07
6.15327e-07
7.15078e-07
1.21957e-06
2.05785e-06
1.39975e-06
8.22925e-07
7.03843e-07
6.77941e-07
6.74396e-07
6.77819e-07
6.8127e-07
6.8142e-07
6.78718e-07
6.75828e-07
6.79943e-07
7.08566e-07
8.14116e-07
1.4731e-06
2.06543e-06
1.15911e-06
7.05963e-07
6.13127e-07
6.07191e-07
6.44487e-07
7.23635e-07
8.26438e-07
7.90032e-07
7.13138e-07
6.49981e-07
6.24159e-07
6.35177e-07
7.33899e-07
1.15252e-06
2.2251e-06
1.76932e-06
9.05657e-07
7.46872e-07
7.05246e-07
6.97452e-07
6.99808e-07
7.03566e-07
7.04285e-07
7.01094e-07
6.99385e-07
7.08419e-07
7.53235e-07
9.38055e-07
1.85163e-06
2.1886e-06
1.10694e-06
7.25319e-07
6.30273e-07
6.22613e-07
6.50179e-07
7.13384e-07
7.94712e-07
7.58371e-07
7.04024e-07
6.62849e-07
6.34829e-07
6.44421e-07
7.53064e-07
1.15325e-06
2.33773e-06
2.17376e-06
1.08148e-06
8.01935e-07
7.41972e-07
7.2858e-07
7.29722e-07
7.33663e-07
7.34487e-07
7.31414e-07
7.31194e-07
7.4584e-07
8.10739e-07
1.12828e-06
2.2447e-06
2.29528e-06
1.12348e-06
7.43853e-07
6.37105e-07
6.30183e-07
6.63778e-07
7.03586e-07
7.59625e-07
7.26655e-07
6.9186e-07
6.61777e-07
6.37281e-07
6.57763e-07
7.8055e-07
1.20866e-06
2.4902e-06
2.54604e-06
1.28232e-06
8.56176e-07
7.8528e-07
7.67341e-07
7.67256e-07
7.71377e-07
7.71903e-07
7.69121e-07
7.70039e-07
7.89546e-07
8.58837e-07
1.32873e-06
2.59924e-06
2.44378e-06
1.18072e-06
7.69292e-07
6.51036e-07
6.31254e-07
6.55874e-07
6.92369e-07
7.28774e-07
7.13791e-07
6.93775e-07
6.54176e-07
6.37219e-07
6.79109e-07
8.35255e-07
1.28868e-06
2.64835e-06
2.85085e-06
1.47964e-06
8.96286e-07
8.28859e-07
8.09157e-07
8.09171e-07
8.1345e-07
8.1429e-07
8.11202e-07
8.12289e-07
8.34171e-07
9.12676e-07
1.5252e-06
2.87909e-06
2.59428e-06
1.26297e-06
8.25211e-07
6.73367e-07
6.31466e-07
6.49066e-07
6.91782e-07
7.14289e-07
7.0864e-07
6.83979e-07
6.65495e-07
6.58728e-07
7.18815e-07
9.14743e-07
1.41799e-06
2.80323e-06
3.02482e-06
1.67051e-06
1.01332e-06
8.53257e-07
8.45575e-07
8.44527e-07
8.47825e-07
8.48323e-07
8.4655e-07
8.48467e-07
8.524e-07
1.03369e-06
1.71089e-06
3.01825e-06
2.75893e-06
1.40373e-06
9.10494e-07
7.15742e-07
6.53994e-07
6.60461e-07
6.78528e-07
7.06029e-07
7.04036e-07
6.72737e-07
6.75154e-07
6.9683e-07
7.85905e-07
1.05408e-06
1.64728e-06
2.95429e-06
3.14207e-06
1.8871e-06
1.18456e-06
9.58413e-07
8.9242e-07
8.76734e-07
8.75509e-07
8.76867e-07
8.81068e-07
9.00089e-07
9.72052e-07
1.20603e-06
1.91589e-06
3.13292e-06
2.93038e-06
1.6522e-06
1.05693e-06
7.84861e-07
6.93464e-07
6.69458e-07
6.69104e-07
7.00829e-07
7.15606e-07
6.91189e-07
7.02676e-07
7.60329e-07
9.05544e-07
1.29405e-06
1.99399e-06
3.10144e-06
3.18497e-06
2.17248e-06
1.45952e-06
1.1722e-06
1.0691e-06
1.03534e-06
1.02693e-06
1.02899e-06
1.0413e-06
1.08038e-06
1.19013e-06
1.48299e-06
2.19334e-06
3.17496e-06
3.08824e-06
2.01851e-06
1.30834e-06
9.10599e-07
7.58504e-07
6.97092e-07
6.87417e-07
7.10787e-07
7.39668e-07
7.41033e-07
7.70673e-07
8.65202e-07
1.16273e-06
1.71113e-06
2.48249e-06
3.29892e-06
3.29276e-06
2.59398e-06
1.91894e-06
1.57109e-06
1.42e-06
1.35973e-06
1.33924e-06
1.34272e-06
1.36988e-06
1.43792e-06
1.59717e-06
1.94949e-06
2.61708e-06
3.29648e-06
3.31065e-06
2.52152e-06
1.74151e-06
1.1781e-06
8.69547e-07
7.68796e-07
7.38229e-07
7.33539e-07
7.92061e-07
8.49436e-07
9.07314e-07
1.16132e-06
1.66611e-06
2.41477e-06
3.1982e-06
3.74004e-06
3.72247e-06
3.33624e-06
2.76563e-06
2.35951e-06
2.1433e-06
2.03868e-06
1.99904e-06
2.00622e-06
2.06059e-06
2.17806e-06
2.40545e-06
2.81417e-06
3.37115e-06
3.74577e-06
3.77418e-06
3.25517e-06
2.47088e-06
1.70388e-06
1.17923e-06
9.08488e-07
8.50394e-07
7.88278e-07
9.2013e-07
1.06087e-06
1.28765e-06
1.80534e-06
2.64163e-06
3.59995e-06
4.42009e-06
4.83853e-06
4.9403e-06
4.86204e-06
4.5109e-06
4.08766e-06
3.78706e-06
3.61342e-06
3.54222e-06
3.55931e-06
3.66335e-06
3.86546e-06
4.18377e-06
4.6046e-06
4.93742e-06
5.00606e-06
4.91344e-06
4.51454e-06
3.70199e-06
2.72619e-06
1.85604e-06
1.31384e-06
1.07078e-06
9.21542e-07
1.22088e-06
1.63248e-06
2.17564e-06
3.18377e-06
4.50664e-06
5.81747e-06
6.85702e-06
7.43295e-06
7.8409e-06
8.17707e-06
8.22322e-06
7.98943e-06
7.6573e-06
7.39973e-06
7.27377e-06
7.31455e-06
7.51608e-06
7.82924e-06
8.19491e-06
8.43497e-06
8.37637e-06
8.02652e-06
7.61115e-06
7.03781e-06
6.00663e-06
4.67855e-06
3.30474e-06
2.24175e-06
1.66285e-06
1.23586e-06
2.1096e-06
3.00822e-06
4.17597e-06
6.04537e-06
8.10432e-06
1.01026e-05
1.70427e-05
6.42205e-05
0.000136875
0.000217371
0.000252373
0.000236167
0.000184955
0.000144065
0.000124938
0.000131192
0.000162968
0.000217708
0.000281687
0.000310237
0.000277397
0.000182434
8.99532e-05
2.45178e-05
1.03976e-05
8.38292e-06
6.28049e-06
4.32541e-06
3.08695e-06
2.15471e-06
4.29432e-06
6.17465e-06
8.2819e-06
1.11673e-05
5.57003e-05
0.000340835
0.000735666
0.00109961
0.0013253
0.0014537
0.00152351
0.00136469
0.00135398
0.00135071
0.00134636
0.00136827
0.00140751
0.00151101
0.00152549
0.0015997
0.00156944
0.00146682
0.00123765
0.000839065
0.000401722
7.46897e-05
1.14758e-05
8.53364e-06
6.34667e-06
4.40026e-06
8.71205e-06
1.17889e-05
2.96129e-05
0.000277812
0.000800685
0.00116651
0.00146059
0.00156514
0.00177345
0.00177234
0.00178492
0.00126474
0.00135185
0.00144691
0.00149373
0.00149961
0.00149945
0.00150412
0.00117427
0.00172074
0.00172426
0.00174823
0.00159628
0.00153357
0.00125035
0.000876833
0.000320833
3.75918e-05
1.20259e-05
8.90001e-06
1.39284e-05
0.000142048
0.000785355
0.000939778
0.00103096
0.00114646
0.00140911
0.00149743
0.00191774
0.00192997
0.00183425
0.00126186
0.00125344
0.00125156
0.00145539
0.00146753
0.00136329
0.00110632
0.00104313
0.00149504
0.00157683
0.00178416
0.00138511
0.00142934
0.00118954
0.00109069
0.0010045
0.000848181
0.000160269
1.41037e-05
2.09349e-05
0.00109503
0.00147981
0.0009562
0.000782209
0.00075347
0.00103103
0.0013999
0.00208438
0.00245649
0.00238954
0.00149549
0.00125197
0.00123777
0.00132529
0.0013303
0.00116197
0.00103226
0.00104287
0.00156573
0.00192332
0.00186234
0.00121954
0.001032
0.000747683
0.00082282
0.00101284
0.00157842
0.00114297
2.19301e-05
0.000221564
0.00216803
0.00149249
0.000398178
0.000436553
0.000338422
0.00046179
0.000949236
0.00209903
0.00371691
0.00395589
0.00221061
0.00137765
0.00124154
0.00134618
0.00133262
0.00112083
0.00103917
0.00135222
0.00256449
0.00309261
0.00187625
0.000855501
0.000486204
0.000344952
0.000444939
0.000466879
0.00159363
0.00227435
0.000222984
0.00138304
0.00217825
0.000533707
2.70216e-05
0.000125227
1.81905e-05
5.06823e-05
0.000561891
0.00290302
0.00633377
0.0057741
0.0028263
0.00156552
0.00135669
0.00144127
0.00139263
0.00118257
0.00109151
0.00176436
0.00422506
0.00552877
0.00268116
0.000590824
6.02029e-05
2.11544e-05
0.000144205
3.97666e-05
0.000664439
0.00228587
0.00142691
0.0028602
0.00142662
5.86413e-05
1.19945e-05
1.18315e-05
1.09131e-05
1.68652e-05
0.00110173
0.00658754
0.00799368
0.00521014
0.00269242
0.00173864
0.00157429
0.00162337
0.00153754
0.00131355
0.00119239
0.001872
0.00378876
0.00652389
0.00608395
0.00121889
2.54247e-05
1.1213e-05
1.18921e-05
1.21125e-05
9.72833e-05
0.00161303
0.00306565
0.0017336
2.52319e-05
3.22605e-05
1.13909e-05
1.10549e-05
1.06086e-05
0.000126256
0.00576695
0.0104012
0.00803115
0.0035014
0.00276154
0.00207763
0.00199279
0.00198007
0.00185435
0.00161542
0.00142573
0.00198106
0.00274225
0.00655455
0.00855074
0.00609749
0.00020777
1.04859e-05
1.09527e-05
1.13312e-05
3.31864e-05
3.22394e-05
0.0018956
0.000436359
1.24038e-05
1.64407e-05
1.12396e-05
1.08279e-05
1.31029e-05
0.0037758
0.0135113
0.0104707
0.0053869
0.00335231
0.00330354
0.00292896
0.00280278
0.00267033
0.00250648
0.00229604
0.00210304
0.00236584
0.00260491
0.00410131
0.00859964
0.0114739
0.00468606
1.78157e-05
1.06745e-05
1.11478e-05
1.43118e-05
1.20769e-05
0.000446027
7.73755e-05
1.22779e-05
1.26784e-05
1.10684e-05
1.54037e-05
0.00285671
0.0161131
0.0137707
0.00697604
0.00446457
0.00422208
0.00483922
0.00454201
0.00414992
0.00385541
0.00366
0.00354522
0.0035413
0.00361701
0.00338793
0.00374673
0.00501006
0.0115633
0.0147836
0.00380955
1.84041e-05
1.08727e-05
1.22056e-05
1.18934e-05
7.06736e-05
2.95515e-05
1.28643e-05
1.31265e-05
3.91101e-05
0.00322448
0.0183752
0.0173088
0.0105864
0.00642201
0.00613919
0.00702591
0.00741627
0.0066671
0.00596185
0.00552968
0.00531638
0.00531515
0.00558217
0.00598562
0.00573728
0.0053155
0.00499067
0.00778062
0.015041
0.0180395
0.00408394
4.37482e-05
1.26267e-05
1.23835e-05
2.37107e-05
3.71614e-05
4.16545e-05
0.000192135
0.0042767
0.0199977
0.0201765
0.014935
0.00968066
0.00837133
0.00993469
0.0101473
0.00961705
0.00861066
0.0078599
0.00738117
0.00715922
0.0072141
0.00758089
0.00831168
0.00860808
0.00853129
0.0070298
0.00739026
0.0120493
0.0190198
0.0206769
0.00529009
0.000201589
2.97822e-05
3.016e-05
6.37869e-05
0.000832703
0.00539155
0.0207119
0.024655
0.0203896
0.0139596
0.0111088
0.0110068
0.0106675
0.010167
0.0101616
0.00986514
0.00939947
0.00902966
0.00882876
0.00884749
0.00905831
0.00942478
0.00929245
0.00902794
0.00896747
0.00864204
0.0105
0.0168031
0.0221798
0.0221292
0.00687594
0.000965379
6.86954e-05
0.000162709
0.00633449
0.0214839
0.0277309
0.02475
0.0189577
0.0136471
0.0105536
0.00904943
0.00847478
0.00890547
0.00983472
0.0104447
0.0105191
0.0104019
0.0102814
0.01024
0.010198
0.00991956
0.00888769
0.00759473
0.00667403
0.00748053
0.00939985
0.0145368
0.0218511
0.0237287
0.0230829
0.00808341
0.000242225
0.000914008
0.0186597
0.0278127
0.0278211
0.0239206
0.0154399
0.00874194
0.00493879
0.00317135
0.00413294
0.00613414
0.00880987
0.0105165
0.0113823
0.0116474
0.0116814
0.0116196
0.0113154
0.0102803
0.00790129
0.00465777
0.00227083
0.00278612
0.00467181
0.00980312
0.0188209
0.0237522
0.0237319
0.0202754
0.00151138
0.00510762
0.0277032
0.0278556
0.0278033
0.0170223
0.0049124
0.00127001
0.000376223
0.000199261
0.00102053
0.00324904
0.00741919
0.010616
0.0122862
0.0129603
0.0131871
0.0131901
0.01277
0.0110753
0.0071609
0.00239625
0.000602633
0.000478462
0.000485946
0.00216872
0.00986673
0.0236321
0.0237704
0.0236586
0.00713348
0.0139592
0.0277933
0.027891
0.0212908
0.00332268
0.00010154
1.64129e-05
1.31207e-05
1.3179e-05
0.000172918
0.00164555
0.00661867
0.011152
0.0135397
0.0145056
0.0148921
0.0150433
0.0148071
0.0130396
0.00816621
0.00230032
0.000600582
0.000238163
3.78183e-05
6.11778e-05
0.000722569
0.0114505
0.0236592
0.0237302
0.0163421
0.0243066
0.0278989
0.0276154
0.00255151
2.19693e-05
1.19239e-05
1.19848e-05
1.3856e-05
1.28484e-05
3.44441e-05
0.00147531
0.00717287
0.012654
0.0153713
0.0163834
0.0168261
0.0171136
0.0172616
0.0162307
0.0113947
0.00363616
0.00108033
0.000297891
2.96536e-05
1.33618e-05
1.31252e-05
0.000207846
0.0151982
0.023654
0.023703
0.0278455
0.027573
0.0040542
1.21514e-05
1.08992e-05
1.21944e-05
1.3569e-05
7.18486e-05
3.68222e-05
5.27523e-05
0.00198084
0.00947518
0.0154718
0.0178288
0.0186103
0.0190014
0.0193282
0.0197528
0.0197565
0.0166325
0.00826527
0.00384019
0.000655834
4.71557e-05
1.18628e-05
1.17386e-05
1.14979e-05
0.000254118
0.0174752
0.0236678
0.0276247
0.0054585
1.25019e-05
1.11473e-05
1.08856e-05
1.24376e-05
8.41871e-05
0.00078863
0.000820297
0.000343655
0.0044379
0.0142941
0.0193128
0.0206927
0.0211265
0.0214096
0.0216773
0.0221304
0.0228018
0.0221324
0.0165753
0.0122084
0.00436962
0.000269107
1.26048e-05
1.17275e-05
1.13673e-05
1.22807e-05
0.000486471
0.0181286
0.00754604
1.64791e-05
1.25749e-05
1.05079e-05
1.10172e-05
1.62612e-05
0.00136058
0.00491658
0.00390922
0.00230315
0.0104192
0.0202378
0.0232066
0.0236697
0.0238442
0.0239941
0.0241195
0.0243879
0.0250961
0.0259585
0.0245302
0.0238753
0.0190159
0.00581495
0.000248195
1.28204e-05
1.22746e-05
1.67803e-05
1.60891e-05
0.00286751
0.00102131
1.34147e-05
1.52319e-05
1.15272e-05
1.39835e-05
0.00144606
0.00852392
0.00897843
0.0064125
0.00810432
0.0186996
0.0255384
0.0267051
0.0267013
0.0267104
0.0266717
0.0265521
0.0264571
0.0266552
0.0273481
0.0277629
0.0298906
0.0331031
0.0301604
0.0118495
0.0012211
6.91988e-05
2.78223e-05
1.50783e-05
0.000267365
8.06499e-05
1.25271e-05
5.76996e-05
0.000484936
0.00308575
0.012468
0.0146263
0.0115546
0.0107269
0.0169926
0.0262132
0.0298543
0.0300597
0.0298839
0.0297061
0.0293883
0.0289029
0.0282834
0.0276507
0.0271608
0.0269052
0.0281258
0.0332799
0.0383986
0.0383479
0.0259625
0.00744164
0.00101486
2.16157e-05
2.29672e-05
1.91669e-05
0.000270002
0.00489082
0.0130575
0.0159952
0.0160469
0.0160765
0.0147835
0.0175614
0.0258022
0.0322352
0.0338509
0.0336385
0.0332991
0.0328497
0.0321895
0.0312745
0.0300266
0.0284031
0.0264815
0.0244197
0.0229757
0.0258091
0.0357498
0.0386648
0.0386323
0.0386384
0.0173352
0.00144887
2.9171e-05
0.000437935
0.0106861
0.0132157
0.0132487
0.0132498
0.0159919
0.0172921
0.0196668
0.0259923
0.0338736
0.0378069
0.0381632
0.0376159
0.0369837
0.0362273
0.0352856
0.0340375
0.0322294
0.029558
0.0258067
0.0209052
0.0155754
0.0130155
0.0166209
0.0359376
0.0389529
0.0388261
0.0388119
0.0200185
0.000429425
0.00602906
0.0132093
0.0132015
0.00581536
0.00683865
0.0140248
0.0201855
0.0273141
0.0359454
0.0421081
0.0436995
0.0429718
0.0419079
0.0409074
0.0399544
0.0389918
0.037798
0.035909
0.0326084
0.0271257
0.0188642
0.00963734
0.00388039
0.00150195
0.00736472
0.0336231
0.0389952
0.0388551
0.0388063
0.00596639
0.0132083
0.0131755
0.00558528
0.000311609
0.00354138
0.0153992
0.0285627
0.0399999
0.0479386
0.0506734
0.0497168
0.0477762
0.0460208
0.0447028
0.0438202
0.0433094
0.0428729
0.0419744
0.0396176
0.033808
0.0227973
0.00934078
0.00104975
5.41181e-05
3.36821e-05
0.00332605
0.0351199
0.0391436
0.0387889
0.0230411
0.0131862
0.00526315
1.98353e-05
2.36451e-05
0.00501769
0.026034
0.0472473
0.0572243
0.0597767
0.0577125
0.0541462
0.0509487
0.0485405
0.0470289
0.0464113
0.0466556
0.0475695
0.0489127
0.0500303
0.0484526
0.0385268
0.0172254
0.0015195
3.67537e-05
1.33075e-05
1.37633e-05
0.00155051
0.0383558
0.0391903
0.0387476
0.0118765
2.11286e-05
1.92883e-05
0.000101829
0.0153698
0.0557145
0.0717366
0.0706921
0.0663895
0.0603833
0.054877
0.0507353
0.0479874
0.0463458
0.0458056
0.0463737
0.0483377
0.0519694
0.0571345
0.0629812
0.0643779
0.0461951
0.00873885
0.000139265
1.37387e-05
1.20582e-05
1.21309e-05
0.00169523
0.0385997
0.0392701
0.000947127
1.90047e-05
8.47962e-05
0.00256819
0.0518083
0.0786389
0.0773804
0.0748855
0.0662402
0.0590906
0.0530062
0.0482744
0.0449631
0.0430406
0.0424793
0.0432685
0.0455261
0.0494875
0.0555442
0.0648611
0.0756938
0.077091
0.0493236
0.00449253
3.7358e-05
1.28671e-05
1.20245e-05
1.19957e-05
0.00134897
0.0387187
3.93848e-05
1.88499e-05
0.00192476
0.033792
0.0808361
0.0809291
0.0777265
0.0740866
0.0638741
0.055207
0.0479754
0.0423956
0.0385847
0.0364689
0.0358282
0.0365218
0.0386222
0.0424798
0.0488558
0.0590798
0.074766
0.0790843
0.0807019
0.0517061
0.00464766
3.99959e-05
1.27846e-05
1.43435e-05
1.39743e-05
0.00596726
5.24322e-05
0.000420277
0.0233184
0.0796628
0.0832205
0.0809662
0.0771732
0.0708777
0.0585352
0.0480461
0.0396138
0.033598
0.0299514
0.0281638
0.027653
0.0281019
0.0295393
0.0323862
0.0376272
0.0468961
0.0628569
0.0771884
0.0811689
0.0813788
0.0599068
0.00721109
0.000181332
3.05568e-05
1.30176e-05
0.000269873
0.000281537
0.0124254
0.0768333
0.0841038
0.0832814
0.0797099
0.0761052
0.0647972
0.0497701
0.0376522
0.029001
0.0238712
0.0214957
0.0207171
0.0206588
0.0209453
0.0215018
0.0227203
0.0255173
0.0318228
0.0449384
0.0671013
0.078838
0.0815853
0.0814998
0.068978
0.0133302
0.00145692
1.39347e-05
1.98723e-05
0.00244172
0.0566075
0.0841718
0.0842107
0.0817829
0.0783907
0.0739623
0.0543995
0.0368287
0.0247561
0.0179804
0.0152989
0.0150094
0.0156729
0.0163097
0.0166318
0.0163104
0.0158553
0.0158199
0.0179556
0.0254563
0.042701
0.0713368
0.0804777
0.0816626
0.0815943
0.0753028
0.021372
0.000915763
6.35195e-05
0.0158258
0.0790361
0.0843264
0.0837269
0.0807021
0.0772833
0.0620306
0.0365218
0.0194902
0.0114046
0.00849307
0.00869708
0.0105282
0.0128506
0.014536
0.0151164
0.0139825
0.011797
0.00931041
0.00791844
0.00944519
0.0176818
0.0387928
0.0751621
0.081226
0.0817131
0.0816445
0.0759661
0.0187167
0.000706441
0.0421119
0.0821757
0.0842919
0.0832628
0.0802989
0.0727024
0.0363821
0.0127614
0.00420452
0.00254573
0.00243289
0.00406281
0.00730431
0.0113361
0.01463
0.0156016
0.014033
0.00976687
0.00524715
0.0024458
0.00151602
0.00288508
0.00822619
0.0343698
0.0763901
0.0816698
0.0817228
0.0816362
0.0617558
0.00494559
0.0666116
0.0829317
0.0843745
0.0835625
0.0778951
0.0380164
0.00717256
0.00089092
0.000134522
0.000172723
0.000296495
0.00151511
0.00509993
0.010676
0.0153266
0.0170736
0.0150689
0.00963839
0.00319747
0.000568531
6.79576e-05
0.000111111
0.000195148
0.00364359
0.0320133
0.0788775
0.0817097
0.081713
0.0796337
0.0252278
0.0776418
0.0833981
0.0842893
0.0816487
0.0434079
0.00432268
9.85208e-05
1.42841e-05
1.37229e-05
1.36052e-05
2.1329e-05
0.000503688
0.00403398
0.011026
0.0169308
0.0195397
0.0176318
0.0107493
0.00289422
0.000122821
1.32944e-05
1.32334e-05
1.2693e-05
1.74999e-05
0.00143743
0.0334809
0.0815877
0.0817237
0.0816544
0.0600183
0.0813055
0.0842277
0.084214
0.0533782
0.00279556
1.44398e-05
1.12425e-05
1.23346e-05
1.41411e-05
1.62833e-05
1.6053e-05
0.000304556
0.00440282
0.0129036
0.0197963
0.0228796
0.0218341
0.0144039
0.00366527
0.0001063
1.32511e-05
1.33786e-05
1.26328e-05
1.11428e-05
1.18967e-05
0.00063994
0.041754
0.0816032
0.0816989
0.0782474
0.0840709
0.0840785
0.0649941
0.00398096
1.15266e-05
9.6031e-06
1.12967e-05
1.27515e-05
3.63373e-05
0.000105542
4.1526e-05
0.000510044
0.00757355
0.0186393
0.024951
0.0275287
0.0277448
0.0222489
0.00799288
0.000238816
2.82722e-05
3.11835e-05
1.28251e-05
1.13211e-05
9.92496e-06
9.95584e-06
0.000955192
0.0539681
0.0815404
0.0816666
0.0836465
0.0681998
0.00634356
1.14734e-05
9.34375e-06
9.56663e-06
1.0578e-05
1.23186e-05
8.91905e-05
0.000538098
0.00092141
0.00392398
0.0198287
0.0303776
0.0333153
0.0343755
0.0355574
0.0345838
0.0220384
0.00322275
0.000647076
9.49554e-05
1.34675e-05
1.08185e-05
9.71837e-06
9.9444e-06
1.02149e-05
0.00242458
0.0582312
0.0815582
0.0661203
0.00899886
1.61534e-05
8.98256e-06
8.94891e-06
9.06926e-06
9.6553e-06
1.26222e-05
0.000394603
0.00478881
0.00959878
0.0244825
0.0429146
0.0450464
0.0430745
0.0424032
0.0438096
0.0471146
0.0452849
0.0248152
0.00880356
0.00145454
2.17773e-05
1.15003e-05
9.80681e-06
9.33849e-06
9.716e-06
1.20448e-05
0.00377095
0.0582235
0.0136431
0.000162034
1.3172e-05
8.53706e-06
8.79603e-06
9.24194e-06
1.01635e-05
5.73679e-05
0.00599879
0.0246924
0.0402892
0.0578549
0.0578315
0.052275
0.0476292
0.0462614
0.0473831
0.052153
0.0585801
0.0586063
0.0413596
0.0169647
0.00165457
1.43917e-05
1.1016e-05
1.1262e-05
1.04888e-05
1.40281e-05
1.48245e-05
0.00810394
0.00224795
3.3729e-05
0.000344765
1.27114e-05
1.02303e-05
1.03166e-05
1.60804e-05
0.00529776
0.0376473
0.0595499
0.0650519
0.0647015
0.0564819
0.0476164
0.0434719
0.0423706
0.0435683
0.0479423
0.0568398
0.0659975
0.0697875
0.059165
0.0268692
0.00311298
8.56322e-05
1.39567e-05
1.48008e-05
0.000336922
1.45086e-05
0.00070835
0.00024045
3.34571e-05
0.00162404
2.34139e-05
1.41969e-05
8.78825e-05
0.00698689
0.0495926
0.0753912
0.0747841
0.0652711
0.0541213
0.0428521
0.0353061
0.032296
0.0315894
0.0328244
0.0365568
0.0446394
0.0569446
0.0700165
0.0748938
0.0748516
0.0412659
0.00865772
0.000938985
0.000354948
0.000536851
1.64267e-05
5.18827e-05
5.23784e-05
0.000198182
0.00164299
0.000461763
0.00116111
0.0145846
0.0626698
0.0754922
0.0755287
0.0660319
0.0491734
0.0339898
0.0248544
0.0206489
0.0189592
0.0185185
0.0192493
0.0215665
0.0270083
0.0379431
0.0556433
0.074852
0.075973
0.0759337
0.0530975
0.0171271
0.00415993
0.00207835
0.000339835
4.85395e-05
7.48364e-05
0.00175932
0.00353014
0.00516302
0.026072
0.0717189
0.0755451
0.0755621
0.0705786
0.0429885
0.0251821
0.015536
0.0117657
0.0104664
0.00985448
0.00952237
0.00942424
0.00979009
0.0115823
0.0166941
0.0291347
0.0524347
0.0752877
0.0760713
0.0760304
0.0580238
0.0235713
0.00842486
0.00283329
0.000137831
0.000159286
0.0051806
0.0122853
0.0328039
0.0726444
0.0755659
0.0755774
0.0743086
0.0373175
0.0151384
0.00762603
0.00551683
0.00551158
0.00586152
0.00597224
0.00561597
0.00479248
0.0038498
0.00329903
0.0035891
0.00640128
0.0172672
0.0468562
0.0759379
0.0761315
0.0760993
0.0599348
0.0289599
0.00858884
0.000224269
0.000297829
0.013193
0.040532
0.0718259
0.0755719
0.0755867
0.0732834
0.0292864
0.0060771
0.00153769
0.00115524
0.00174792
0.00305458
0.00445504
0.0053176
0.00477657
0.0032066
0.00166302
0.000692002
0.00029409
0.000260641
0.000926398
0.00827851
0.0432131
0.0760482
0.0761828
0.0761623
0.0640048
0.023986
0.000620206
0.00121858
0.0339688
0.0751935
0.0755768
0.0755953
0.074866
0.0236294
0.00148669
9.29276e-05
3.82394e-05
0.000124101
0.000608337
0.00217993
0.00449174
0.00565705
0.00509115
0.00319562
0.00102454
0.000165431
2.26925e-05
1.34656e-05
1.38139e-05
6.901e-05
0.00476407
0.0442771
0.0761208
0.076196
0.0762041
0.050574
0.00346386
0.00722451
0.0607495
0.0755612
0.0755981
0.0754146
0.0231102
0.00056253
1.26923e-05
1.24534e-05
1.30521e-05
2.39661e-05
0.000329938
0.00217849
0.00481144
0.00635594
0.00583474
0.003551
0.00109584
0.000102631
1.35084e-05
1.29089e-05
1.19057e-05
1.1089e-05
1.45768e-05
0.00313894
0.054307
0.0762216
0.0761968
0.0710936
0.0152489
0.0240158
0.0752978
0.0755939
0.0754738
0.03162
0.000265847
1.11754e-05
1.11268e-05
1.21513e-05
1.30314e-05
1.52237e-05
0.000332844
0.0023853
0.00543356
0.00715918
0.00677762
0.00438672
0.00139728
0.000117704
1.28235e-05
1.29301e-05
1.19177e-05
1.07275e-05
9.65976e-06
1.17436e-05
0.00549087
0.073435
0.076289
0.0761179
0.0336394
0.0436413
0.0755401
0.0755311
0.0521135
0.000790239
9.49397e-06
9.67287e-06
1.0967e-05
1.216e-05
1.2577e-05
1.55953e-05
0.000406498
0.00296961
0.00630345
0.00799034
0.00777455
0.0056035
0.00210118
0.000175963
1.28778e-05
1.25333e-05
1.21878e-05
1.08639e-05
9.52771e-06
9.45458e-06
1.23966e-05
0.0171322
0.0760488