/*--------------------------------*- C++ -*----------------------------------*\
| =========                 |                                                 |
| \\      /  F ield         | OpenFOAM: The Open Source CFD Toolbox           |
|  \\    /   O peration     | Version:  v1606+                                |
|   \\  /    A nd           | Web:      www.OpenFOAM.com                      |
|    \\/     M anipulation  |                                                 |
\*---------------------------------------------------------------------------*/
FoamFile
{
    version     2.0;
    format      ascii;
    class       volScalarField;
    location    "0.35";
    object      p_rgh;
}
// * * * * * * * * * * * * * * * * * * * * * * * * * * * * * * * * * * * * * //

dimensions      [1 -1 -2 0 0 0 0];

internalField   nonuniform List<scalar> 
6000
(
107893
107895
107896
107896
107895
107894
107893
107893
107892
107890
107888
107886
107884
107883
107882
107882
107883
107884
107886
107888
107890
107891
107892
107893
107893
107894
107895
107896
107894
107892
107869
107866
107863
107859
107856
107855
107854
107854
107852
107849
107847
107844
107841
107839
107838
107838
107839
107841
107843
107846
107849
107852
107853
107854
107854
107855
107858
107863
107866
107869
107873
107867
107855
107845
107838
107838
107837
107838
107836
107832
107827
107823
107820
107817
107816
107816
107817
107819
107823
107827
107831
107835
107837
107837
107837
107837
107843
107854
107867
107873
107867
107853
107819
107803
107799
107801
107802
107803
107801
107796
107792
107788
107785
107784
107783
107783
107784
107785
107788
107792
107796
107800
107803
107802
107801
107798
107802
107819
107854
107867
107868
107815
107781
107780
107784
107789
107793
107795
107792
107792
107792
107792
107791
107791
107791
107790
107791
107791
107791
107792
107792
107792
107795
107794
107789
107784
107779
107780
107817
107868
107848
107786
107784
107790
107800
107815
107825
107827
107816
107810
107808
107807
107806
107805
107805
107805
107805
107806
107807
107808
107809
107816
107828
107825
107815
107799
107790
107783
107787
107858
107808
107787
107793
107805
107839
107871
107888
107893
107874
107843
107826
107823
107822
107821
107820
107820
107821
107822
107823
107826
107843
107875
107894
107889
107870
107837
107803
107791
107785
107815
107793
107795
107802
107844
107905
107948
107970
107979
107968
107918
107869
107848
107841
107838
107837
107837
107838
107841
107848
107869
107919
107969
107979
107969
107946
107902
107840
107798
107792
107795
107801
107806
107830
107914
107985
108019
108039
108051
108063
108035
107960
107908
107889
107883
107881
107881
107883
107888
107907
107961
108038
108063
108050
108036
108015
107980
107908
107822
107800
107797
107807
107835
107889
108012
108063
108076
108090
108104
108122
108134
108086
108018
107986
107975
107973
107972
107974
107984
108017
108087
108135
108121
108101
108087
108072
108058
108003
107877
107823
107802
107841
107894
107982
108093
108115
108125
108137
108146
108151
108155
108157
108130
108104
108095
108093
108093
108094
108103
108129
108157
108154
108150
108144
108135
108122
108111
108085
107966
107875
107830
107932
107981
108064
108118
108115
108131
108144
108150
108145
108133
108143
108158
108164
108168
108171
108171
108168
108164
108158
108142
108132
108145
108150
108142
108129
108113
108115
108050
107963
107916
108007
108047
108045
108019
107977
108103
108135
108146
108121
107982
108054
108100
108123
108135
108140
108140
108135
108123
108099
108051
107977
108122
108146
108134
108102
107970
108022
108046
108039
107996
107861
107885
107854
107661
107572
107736
107985
108051
107771
107614
107679
107758
107827
107878
107903
107903
107877
107825
107755
107675
107611
107776
108056
107978
107717
107566
107673
107859
107889
107864
107505
107489
107437
107360
107373
107506
107698
107758
107590
107467
107442
107446
107463
107482
107494
107494
107482
107463
107446
107442
107468
107595
107764
107695
107496
107370
107364
107446
107501
107519
107293
107293
107295
107305
107356
107504
107682
107730
107602
107474
107428
107415
107415
107414
107414
107414
107414
107415
107415
107430
107476
107606
107735
107680
107496
107352
107305
107296
107296
107297
107269
107274
107288
107311
107364
107523
107730
107776
107629
107496
107445
107424
107422
107421
107421
107421
107422
107422
107425
107447
107499
107637
107785
107727
107513
107362
107311
107289
107274
107269
107270
107279
107298
107326
107381
107540
107776
107826
107665
107522
107466
107441
107430
107429
107429
107429
107429
107431
107443
107469
107526
107676
107836
107772
107531
107380
107326
107298
107279
107270
107271
107289
107314
107345
107404
107559
107822
107883
107712
107552
107490
107462
107449
107445
107445
107446
107446
107451
107465
107493
107558
107724
107892
107816
107552
107405
107346
107314
107289
107271
107272
107302
107330
107365
107433
107585
107865
107949
107774
107591
107516
107486
107474
107471
107472
107472
107472
107476
107488
107520
107599
107790
107958
107855
107580
107436
107366
107329
107302
107272
107279
107316
107344
107388
107470
107617
107898
108027
107858
107640
107547
107512
107500
107498
107500
107500
107499
107502
107515
107552
107651
107878
108034
107883
107612
107472
107390
107344
107316
107278
107295
107331
107360
107416
107508
107650
107912
108109
107970
107704
107585
107542
107528
107527
107529
107529
107528
107530
107546
107590
107716
107991
108112
107895
107645
107509
107419
107361
107330
107294
107316
107346
107382
107449
107542
107682
107926
108182
108092
107784
107630
107578
107561
107559
107561
107562
107561
107563
107581
107635
107799
108109
108178
107912
107678
107541
107451
107384
107344
107314
107339
107362
107409
107480
107571
107716
107956
108244
108203
107877
107681
107618
107599
107596
107599
107599
107598
107602
107622
107688
107894
108215
108240
107946
107711
107569
107481
107411
107360
107336
107362
107383
107437
107508
107602
107756
108002
108307
108295
107973
107738
107664
107642
107639
107642
107643
107642
107646
107668
107745
107989
108303
108302
107993
107752
107600
107508
107438
107381
107358
107388
107410
107467
107537
107639
107806
108054
108363
108368
108063
107803
107717
107693
107689
107691
107692
107692
107697
107722
107812
108077
108372
108356
108047
107804
107639
107537
107467
107408
107383
107417
107439
107504
107578
107692
107871
108118
108409
108416
108142
107882
107782
107753
107748
107749
107750
107751
107758
107789
107892
108154
108416
108404
108115
107872
107694
107579
107504
107437
107411
107449
107475
107547
107636
107768
107960
108201
108449
108455
108219
107978
107868
107832
107823
107823
107824
107826
107837
107875
107987
108227
108454
108446
108203
107964
107772
107638
107547
107474
107443
107486
107529
107608
107718
107873
108076
108297
108487
108484
108301
108095
107985
107942
107928
107925
107926
107932
107948
107993
108104
108306
108483
108485
108303
108083
107880
107722
107609
107528
107481
107534
107608
107702
107839
108018
108222
108405
108530
108521
108400
108243
108143
108096
108077
108071
108073
108082
108103
108152
108252
108404
108521
108531
108412
108231
108027
107845
107705
107609
107531
107604
107724
107843
108010
108207
108393
108530
108602
108595
108534
108436
108357
108312
108289
108281
108283
108295
108320
108366
108444
108539
108597
108605
108537
108405
108220
108022
107851
107728
107604
107718
107895
108049
108242
108438
108589
108686
108729
108735
108721
108679
108631
108595
108573
108564
108566
108580
108604
108641
108688
108727
108740
108735
108696
108602
108454
108258
108062
107902
107721
107905
108137
108323
108525
108694
108811
108882
108916
108935
108947
108943
108927
108908
108893
108885
108887
108899
108916
108936
108951
108955
108943
108925
108893
108825
108712
108544
108340
108147
107913
108187
108450
108644
108822
108949
109033
109077
109101
109117
109130
109137
109138
109134
109129
109127
109128
109132
109138
109142
109142
109136
109124
109108
109085
109043
108963
108840
108661
108464
108199
108537
108794
108950
109069
109142
109178
109191
109198
109200
109203
109205
109203
109204
109205
109205
109206
109205
109206
109205
109205
109204
109202
109200
109194
109182
109148
109079
108963
108807
108550
108865
109068
109160
109203
109221
109219
109217
109214
109216
109215
109216
109203
109206
109208
109209
109208
109208
109207
109197
109212
109212
109213
109213
109218
109221
109223
109207
109166
109076
108875
109059
109206
109245
109231
109218
109211
109212
109211
109220
109222
109222
109207
109205
109204
109208
109208
109205
109198
109196
109211
109212
109216
109207
109211
109211
109220
109233
109247
109209
109064
109130
109252
109247
109212
109192
109183
109192
109205
109223
109234
109236
109217
109208
109205
109206
109205
109201
109198
109200
109217
109223
109219
109199
109192
109182
109194
109214
109249
109253
109131
109176
109254
109223
109157
109154
109140
109152
109184
109222
109251
109258
109235
109213
109206
109208
109207
109200
109200
109213
109240
109244
109218
109181
109155
109141
109155
109163
109225
109256
109175
109221
109231
109161
109053
109097
109036
109071
109159
109234
109272
109271
109243
109217
109209
109210
109208
109202
109202
109224
109260
109268
109232
109163
109078
109042
109102
109065
109169
109232
109221
109231
109193
109071
108920
108933
108911
109036
109186
109269
109279
109262
109236
109218
109212
109212
109210
109204
109202
109223
109251
109273
109267
109192
109051
108927
108934
108922
109086
109197
109233
109193
109033
109045
108904
108906
108910
109100
109260
109286
109274
109238
109231
109219
109217
109216
109213
109208
109204
109219
109231
109268
109279
109264
109118
108910
108902
108900
109044
109039
109195
109125
108942
109014
108898
108903
109018
109241
109294
109278
109246
109227
109229
109225
109223
109221
109219
109216
109214
109219
109221
109239
109272
109289
109252
109036
108900
108894
109002
108924
109125
109056
108937
108951
108896
109021
109228
109299
109283
109246
109225
109225
109234
109233
109229
109226
109225
109225
109226
109226
109221
109223
109235
109278
109297
109242
109030
108890
108930
108919
109052
109019
108949
108966
109046
109227
109300
109284
109252
109225
109224
109232
109237
109234
109230
109228
109227
109228
109231
109234
109230
109224
109219
109242
109280
109299
109239
109050
108948
108929
109010
109017
109029
109087
109229
109293
109278
109252
109225
109216
109224
109228
109228
109226
109224
109224
109223
109224
109226
109230
109229
109226
109215
109217
109245
109277
109294
109239
109089
109018
109010
109019
109130
109222
109278
109271
109248
109220
109203
109201
109200
109202
109207
109210
109212
109213
109214
109214
109214
109213
109209
109204
109200
109198
109210
109240
109266
109280
109234
109138
109022
109030
109207
109260
109258
109237
109211
109185
109166
109157
109158
109168
109181
109191
109196
109199
109201
109200
109199
109194
109183
109168
109155
109158
109171
109199
109230
109248
109260
109217
109044
109079
109231
109238
109223
109199
109163
109124
109090
109068
109090
109122
109152
109170
109180
109185
109187
109186
109183
109174
109154
109117
109069
109073
109097
109140
109184
109210
109225
109229
109100
109136
109217
109204
109187
109144
109065
108988
108928
108904
108992
109067
109123
109151
109164
109171
109173
109173
109170
109159
109130
109062
108980
108958
108948
109022
109111
109171
109188
109201
109146
109156
109184
109170
109137
109022
108846
108779
108767
108773
108895
109016
109102
109137
109152
109158
109160
109160
109158
109150
109121
109045
108965
108909
108822
108828
108935
109094
109151
109165
109153
109154
109153
109137
108989
108766
108659
108693
108778
108772
108827
109003
109096
109130
109142
109145
109146
109147
109147
109143
109124
109058
108985
108908
108801
108701
108680
108853
109092
109131
109139
109134
109125
109004
108638
108557
108655
108756
108850
108829
108840
109014
109101
109126
109132
109132
109132
109132
109133
109134
109126
109089
109044
108939
108811
108647
108595
108584
108846
109086
109111
109111
109012
108671
108541
108553
108677
108841
108960
108966
108915
109051
109111
109121
109120
109118
109116
109115
109116
109118
109119
109107
109094
109036
108880
108674
108599
108578
108631
108866
109074
109023
108709
108617
108537
108566
108753
108973
109052
109038
109003
109083
109111
109110
109105
109100
109098
109096
109095
109097
109101
109102
109107
109102
109041
108866
108650
108605
108711
108695
108950
108897
108629
108683
108579
108707
108963
109067
109065
109041
109051
109091
109098
109092
109085
109080
109076
109073
109071
109071
109074
109077
109086
109101
109108
109068
108937
108783
108729
108680
108803
108756
108618
108767
108883
108993
109070
109070
109050
109041
109063
109079
109077
109069
109062
109057
109052
109048
109045
109042
109040
109040
109045
109060
109078
109093
109085
109016
108888
108687
108676
108674
108813
108990
109048
109054
109046
109040
109031
109036
109053
109057
109051
109043
109036
109030
109025
109021
109016
109010
109004
108997
108992
108999
109023
109041
109057
109070
109032
108879
108669
108806
109004
109008
108997
108992
109002
109005
109010
109023
109031
109030
109022
109014
109008
109002
108997
108992
108986
108979
108968
108951
108927
108910
108923
108979
109001
109019
109035
109009
108772
108924
108967
108953
108887
108901
108952
108976
108992
109003
109005
108999
108991
108983
108976
108971
108967
108963
108958
108951
108938
108911
108861
108790
108717
108821
108933
108964
108985
109001
108894
108921
108911
108838
108652
108816
108919
108959
108975
108979
108974
108965
108956
108948
108942
108937
108935
108933
108932
108929
108919
108893
108830
108675
108502
108470
108730
108901
108933
108951
108930
108868
108796
108469
108489
108808
108918
108951
108955
108949
108938
108927
108917
108909
108903
108899
108898
108900
108902
108906
108907
108896
108847
108680
108465
108338
108328
108649
108880
108902
108912
108812
108430
108439
108535
108855
108930
108935
108924
108910
108896
108882
108872
108863
108858
108855
108856
108859
108865
108874
108886
108894
108883
108781
108515
108332
108229
108218
108632
108856
108870
108603
108395
108489
108706
108900
108921
108903
108881
108863
108847
108833
108822
108814
108808
108806
108807
108812
108819
108830
108846
108868
108886
108868
108720
108431
108247
108205
108211
108596
108833
108400
108371
108652
108848
108902
108884
108857
108832
108812
108794
108778
108766
108757
108753
108751
108753
108757
108765
108778
108796
108820
108850
108876
108854
108706
108414
108221
108266
108249
108679
108392
108516
108793
108871
108863
108835
108805
108779
108756
108735
108717
108703
108695
108691
108691
108693
108697
108704
108716
108735
108762
108795
108829
108854
108842
108716
108468
108364
108231
108452
108454
108719
108832
108837
108812
108780
108749
108721
108693
108667
108646
108633
108628
108629
108631
108633
108635
108638
108645
108661
108690
108728
108768
108801
108828
108824
108731
108571
108241
108295
108558
108774
108807
108785
108755
108722
108690
108656
108619
108587
108564
108557
108562
108571
108578
108581
108579
108574
108569
108575
108601
108644
108694
108740
108771
108798
108800
108731
108509
108340
108642
108753
108754
108731
108698
108664
108624
108573
108520
108479
108462
108473
108498
108522
108538
108543
108536
108518
108492
108471
108479
108528
108595
108661
108710
108741
108768
108771
108690
108451
108655
108710
108701
108677
108644
108599
108532
108443
108354
108320
108326
108379
108439
108484
108510
108518
108509
108475
108417
108344
108297
108342
108427
108549
108633
108683
108712
108738
108720
108547
108633
108662
108652
108628
108582
108501
108360
108196
108076
108100
108145
108276
108386
108455
108490
108502
108491
108451
108355
108211
108067
108086
108114
108329
108512
108616
108657
108684
108697
108616
108605
108619
108606
108574
108484
108289
108018
107896
107909
107927
107981
108179
108350
108439
108478
108492
108484
108442
108331
108097
107925
107903
107847
107946
108229
108492
108605
108634
108654
108624
108581
108584
108566
108482
108234
107856
107664
107769
107916
107949
107957
108136
108346
108436
108472
108485
108483
108451
108340
108082
107928
107922
107839
107701
107732
108148
108493
108589
108609
108606
108561
108552
108488
108252
107658
107475
107636
107795
107978
108053
108010
108167
108380
108450
108472
108480
108482
108469
108393
108125
108000
107997
107862
107696
107551
107577
108168
108502
108572
108582
108537
108486
108290
107711
107444
107453
107598
107792
108021
108153
108203
108318
108442
108468
108471
108473
108478
108482
108458
108313
108188
108053
107890
107685
107547
107538
107614
108238
108499
108554
108479
108319
107875
107436
107443
107451
107535
107804
108111
108317
108376
108444
108475
108470
108462
108460
108465
108477
108486
108455
108383
108238
107956
107714
107564
107536
107527
107787
108267
108488
108351
108005
107834
107448
107446
107455
107570
107979
108322
108431
108459
108475
108463
108447
108435
108432
108436
108450
108470
108485
108476
108422
108240
107895
107642
107642
107616
107857
107867
108322
108195
107907
108076
107689
107515
107543
107893
108307
108450
108466
108457
108442
108421
108400
108389
108386
108390
108403
108426
108451
108474
108483
108445
108284
108019
107806
107833
108086
107858
108113
108011
107899
108190
107904
107760
107996
108327
108461
108467
108442
108414
108385
108357
108336
108325
108322
108326
108339
108362
108393
108426
108453
108479
108460
108351
108169
108087
108105
107862
107924
107900
107998
108173
108081
108162
108372
108463
108449
108421
108385
108345
108304
108272
108253
108243
108240
108242
108253
108275
108311
108355
108399
108430
108457
108452
108378
108260
108197
108045
107906
107905
108153
108216
108252
108387
108447
108425
108395
108360
108300
108243
108196
108170
108160
108154
108149
108145
108146
108159
108193
108249
108314
108369
108401
108428
108427
108370
108289
108196
107949
107929
108221
108295
108371
108417
108397
108367
108333
108254
108162
108095
108068
108071
108080
108083
108076
108057
108031
108010
108013
108067
108166
108272
108342
108374
108401
108401
108358
108261
107952
107943
108272
108358
108387
108370
108342
108305
108200
108043
107913
107891
107935
107994
108035
108054
108043
108001
107933
107847
107770
107756
107859
108069
108238
108320
108352
108378
108382
108316
107998
108027
108319
108369
108349
108322
108285
108157
107885
107661
107610
107693
107824
107947
108021
108046
108035
107988
107877
107722
107585
107487
107483
107639
107995
108221
108304
108335
108360
108342
108114
108155
108331
108333
108308
108275
108139
107780
107373
107377
107460
107578
107764
107937
108017
108047
108039
107989
107876
107682
107523
107463
107348
107247
107497
107942
108229
108296
108323
108332
108212
108227
108315
108298
108270
108161
107706
107229
107237
107365
107460
107536
107760
107940
108022
108051
108046
108004
107894
107687
107486
107469
107370
107216
107070
107267
107991
108253
108290
108309
108247
108248
108286
108268
108206
107794
107045
107051
107235
107381
107435
107537
107773
107957
108032
108056
108055
108024
107930
107714
107495
107448
107408
107255
107040
107033
107355
108102
108263
108283
108259
108254
108264
108241
107975
107061
107034
107070
107269
107376
107420
107554
107824
107989
108046
108064
108064
108045
107980
107785
107527
107421
107412
107313
107077
107030
107023
107769
108185
108263
108266
108256
108247
108095
107443
107025
107032
107108
107265
107368
107433
107639
107919
108032
108065
108075
108077
108069
108035
107906
107618
107432
107412
107324
107139
107030
107023
107133
107962
108212
108253
108239
108151
107841
107021
107027
107032
107126
107256
107375
107520
107834
108026
108076
108089
108093
108095
108094
108085
108032
107829
107522
107414
107326
107192
107037
107026
107022
107618
108057
108215
108163
107949
107568
107066
107033
107043
107137
107263
107456
107778
108031
108102
108111
108110
108109
108110
108114
108120
108114
108042
107792
107496
107328
107221
107068
107051
107156
107533
107840
108099
108026
107756
107614
107364
107100
107060
107154
107376
107750
108046
108131
108135
108123
108113
108107
108107
108115
108129
108144
108144
108064
107792
107443
107238
107097
107152
107532
107742
107750
107974
107952
107758
107796
107608
107160
107090
107300
107727
108062
108153
108145
108127
108103
108082
108069
108069
108082
108104
108131
108152
108165
108087
107790
107388
107153
107231
107712
107839
107796
107956
107881
107779
107790
107511
107200
107256
107697
108073
108165
108145
108124
108086
108037
107990
107960
107959
107987
108033
108085
108129
108152
108174
108103
107776
107358
107289
107581
107831
107821
107901
107502
107771
107781
107334
107313
107664
108070
108170
108147
108122
108069
107973
107863
107769
107715
107714
107765
107853
107963
108064
108127
108152
108176
108104
107768
107425
107422
107819
107797
107668
106890
107528
107520
107327
107634
108055
108171
108149
108123
108056
107913
107744
107598
107507
107456
107459
107509
107592
107728
107895
108048
108127
108153
108176
108095
107743
107414
107574
107672
107097
106844
106973
107206
107541
108021
108171
108151
108125
108054
107859
107621
107527
107430
107408
107407
107408
107411
107438
107523
107608
107837
108046
108129
108154
108174
108065
107643
107382
107176
106922
106843
106885
107371
107954
108167
108153
108130
108063
107858
107492
107307
107421
107411
107407
107410
107410
107411
107427
107429
107314
107461
107837
108055
108132
108155
108172
108009
107529
107010
106919
106843
107198
107853
108155
108158
108135
108078
107879
107540
107258
107258
107352
107402
107408
107418
107418
107414
107421
107369
107263
107263
107517
107862
108072
108136
108158
108163
107920
107296
106921
107112
107781
108134
108164
108142
108097
107902
107564
107279
107259
107259
107292
107383
107409
107419
107420
107416
107403
107310
107263
107263
107277
107551
107890
108093
108142
108163
108143
107829
107179
107615
108086
108168
108147
108120
107924
107552
107319
107267
107262
107261
107262
107362
107407
107415
107419
107415
107377
107268
107266
107266
107274
107323
107540
107913
108116
108147
108166
108096
107647
107935
108145
108148
108128
107956
107542
107321
107322
107334
107325
107266
107265
107359
107407
107419
107423
107412
107363
107271
107281
107351
107343
107326
107326
107518
107945
108128
108147
108145
107942
108035
108140
108128
108034
107521
107331
107336
107388
107516
107520
107351
107287
107360
107409
107432
107434
107411
107358
107294
107383
107560
107530
107410
107352
107346
107492
108024
108127
108139
108039
108080
108119
108094
107721
107372
107379
107515
107620
107717
107709
107504
107351
107367
107416
107449
107448
107415
107362
107363
107546
107735
107732
107654
107551
107403
107395
107685
108090
108118
108082
108095
108096
107900
107451
107460
107646
107785
107825
107823
107799
107647
107445
107402
107445
107480
107478
107439
107394
107463
107689
107812
107835
107846
107817
107683
107486
107477
107888
108092
108093
108057
107964
107619
107523
107774
107892
107896
107878
107859
107838
107741
107547
107474
107504
107533
107530
107497
107468
107572
107776
107851
107869
107886
107913
107916
107803
107555
107622
107954
108052
107985
107849
107679
107840
107923
107917
107882
107866
107871
107861
107791
107634
107559
107577
107596
107594
107571
107558
107663
107819
107874
107876
107870
107887
107927
107941
107867
107704
107854
107980
107974
107865
107867
107902
107907
107862
107835
107845
107863
107868
107810
107694
107634
107641
107652
107651
107637
107635
107719
107834
107878
107865
107843
107834
107862
107924
107919
107893
107888
107977
107952
107839
107874
107883
107882
107763
107783
107818
107851
107862
107815
107730
107686
107686
107691
107690
107682
107687
107748
107835
107868
107853
107810
107773
107754
107872
107899
107891
107883
107955
107829
107740
107796
107856
107783
107728
107746
107798
107840
107851
107813
107749
107716
107713
107715
107714
107710
107717
107762
107830
107857
107841
107790
107736
107723
107756
107853
107801
107758
107837
106683
107690
107759
107791
107716
107716
107735
107782
107828
107841
107813
107767
107745
107742
107743
107743
107741
107746
107776
107826
107847
107827
107778
107729
107712
107703
107776
107755
107685
106626
104802
107076
107694
107621
107727
107734
107739
107773
107816
107831
107834
107806
107786
107780
107779
107779
107780
107788
107812
107842
107837
107816
107771
107738
107734
107726
107593
107653
106974
104741
104647
105298
106524
106815
107356
107533
107650
107743
107798
107821
107790
107724
107684
107666
107662
107661
107664
107682
107728
107798
107828
107799
107740
107645
107520
107359
106773
106429
105199
104626
104656
104755
105429
105897
106162
106409
106775
107079
107275
107327
107286
107245
107234
107236
107243
107241
107230
107225
107239
107290
107329
107266
107063
106750
106374
106141
105865
105391
104731
104635
104671
105148
105589
105793
105570
105544
105618
105805
106121
106384
106607
106771
106879
106945
106975
106973
106941
106873
106764
106605
106381
106100
105772
105584
105512
105539
105775
105575
105133
104650
105529
106234
106279
106049
105578
105549
105544
105541
105705
106186
106602
106839
106971
107039
107066
107065
107037
106969
106836
106598
106178
105685
105510
105513
105518
105545
106030
106272
106219
105510
107020
107314
107139
106686
105935
105684
105694
105795
106084
106584
107016
107249
107352
107360
107360
107360
107360
107352
107250
107016
106580
106069
105768
105662
105649
105894
106665
107130
107304
107004
107760
107739
107714
107400
106622
106157
106204
106414
106730
107028
107206
107282
107307
107325
107326
107327
107327
107311
107290
107217
107037
106730
106396
106173
106117
106576
107382
107712
107740
107760
107757
107168
107579
107361
106763
106081
105828
105724
105632
105445
105209
104995
104825
104735
104694
104697
104743
104839
105015
105234
105469
105653
105734
105822
106060
106741
107359
107590
107194
107758
105333
104298
105239
105252
104866
104017
103303
102759
102270
101805
101459
101243
101113
101042
101012
101013
101046
101120
101254
101475
101825
102298
102795
103339
104048
104892
105295
105289
104353
105402
101401
101066
101413
101461
101362
101028
100701
100467
100301
100186
100122
100090
100073
100065
100061
100061
100065
100074
100091
100124
100190
100308
100480
100721
101056
101395
101495
101446
101093
101439
100130
100093
100115
100119
100113
100084
100050
100029
100017
100010
100008
100007
100007
100006
100006
100006
100006
100007
100007
100008
100011
100017
100030
100053
100088
100118
100123
100119
100096
100134
100009
100008
100008
100008
100008
100007
100006
100006
100006
100006
100006
100006
100006
100006
100006
100006
100006
100006
100006
100006
100006
100006
100006
100006
100007
100008
100008
100008
100008
100009
100006
100006
100006
100006
100006
100006
100006
100006
100006
100006
100006
100006
100006
100006
100006
100006
100006
100006
100006
100006
100006
100006
100006
100006
100006
100006
100006
100006
100006
100006
100006
100006
100006
100006
100006
100006
100006
100006
100006
100006
100006
100006
100006
100006
100006
100006
100006
100006
100006
100006
100006
100006
100006
100006
100006
100006
100006
100006
100006
100006
100006
100006
100006
100006
100006
100006
100006
100006
100006
100006
100006
100006
100006
100006
100006
100006
100006
100006
100006
100006
100006
100006
100006
100006
100006
100006
100006
100006
100006
100006
100006
100006
100006
100006
100006
100006
100006
100006
100006
100006
100006
100006
100006
100006
100006
100006
100006
100006
100006
100006
100006
100006
100006
100006
100006
100006
100006
100006
100006
100006
100006
100006
100006
100006
100006
100006
100006
100006
100006
100006
100006
100006
100006
100006
100006
100006
100006
100006
100006
100006
100006
100006
100006
100006
100006
100006
100006
100006
100006
100006
100006
100006
100006
100006
100006
100006
100006
100006
100006
100006
100006
100006
100006
100006
100006
100006
100006
100006
100006
100006
100006
100006
100006
100006
100006
100006
100006
100006
100006
100006
100006
100006
100006
100006
100006
100006
100006
100006
100006
100006
100006
100006
100006
100006
100006
100006
100006
100006
100006
100006
100006
100006
100006
100006
100006
100006
100006
100006
100006
100006
100006
100006
100006
100006
100006
100006
100006
100006
100006
100006
100006
100006
100006
100006
100006
100006
100006
100006
100006
100006
100006
100006
100006
100006
100006
100006
100006
100006
100006
100006
100006
100006
100006
100006
100006
100006
100006
100006
100006
100006
100006
100006
100006
100006
100006
100006
100006
100006
100006
100006
100006
100006
100006
100006
100006
100006
100006
100006
100006
100006
100006
100006
100006
100006
100006
100006
100006
100006
100006
100006
100006
100006
100006
100006
100006
100006
100006
100006
100006
100006
100006
100006
100006
100006
100006
100006
100006
100006
100006
100006
100006
100006
100006
100006
100006
100006
100006
100006
100006
100006
100006
100006
100006
100006
100006
100006
100006
100006
100006
100006
100006
100006
100006
100006
100006
100006
100006
100006
100006
100006
100006
100006
100006
100006
100006
100006
100006
100006
100006
100006
100006
100006
100006
100006
100006
100006
100006
100006
100006
100006
100006
100006
100006
100006
100006
100006
100006
100006
100006
100006
100006
100006
100006
100006
100006
100006
100006
100006
100006
100006
100006
100006
100006
100006
100006
100006
100006
100006
100006
100006
100006
100006
100006
100006
100006
100006
100006
100006
100006
100006
100006
100006
100006
100006
100006
100006
100006
100006
100006
100006
100006
100006
100006
100006
100006
100006
100006
100006
100006
100006
100006
100006
100006
100006
100006
100006
100006
100006
100006
100006
100006
100006
100006
100006
100006
100006
100006
100006
100006
100006
100006
100006
100006
100006
100006
100006
100006
100006
100006
100006
100006
100006
100006
100006
100006
100006
100006
100006
100006
100006
100006
100006
100006
100006
100006
100006
100006
100006
100006
100006
100006
100006
100006
100006
100006
100006
100006
100006
100006
100006
100006
100006