/*--------------------------------*- C++ -*----------------------------------*\
| =========                 |                                                 |
| \\      /  F ield         | OpenFOAM: The Open Source CFD Toolbox           |
|  \\    /   O peration     | Version:  v1606+                                |
|   \\  /    A nd           | Web:      www.OpenFOAM.com                      |
|    \\/     M anipulation  |                                                 |
\*---------------------------------------------------------------------------*/
FoamFile
{
    version     2.0;
    format      ascii;
    class       volScalarField;
    location    "1.43";
    object      epsilon.air;
}
// * * * * * * * * * * * * * * * * * * * * * * * * * * * * * * * * * * * * * //

dimensions      [0 2 -3 0 0 0 0];

internalField   nonuniform List<scalar> 
6000
(
133.258
16.7071
10.9045
10.2874
10.224
10.2484
10.2498
10.1829
10.1267
10.0512
10.0215
10.0365
10.0268
9.9632
9.88857
9.8308
9.80309
9.8095
9.90339
10.0595
10.2519
10.5142
10.6817
10.6532
10.5271
10.3987
10.3724
10.9809
17.1633
133.3
70.4548
24.5195
15.3052
13.2688
13.0969
13.3178
13.2483
12.7795
12.4738
12.3135
12.238
12.1369
11.7942
11.3506
11.0766
11.0529
11.1554
11.3563
11.7028
12.2928
13.2435
14.4729
14.9263
14.2975
13.2536
12.5798
12.6257
14.629
23.5827
67.5086
38.4869
22.3069
16.3814
14.3564
13.8409
13.8113
13.62
13.0889
12.5721
12.19
11.9416
11.6766
11.2876
10.9388
10.7039
10.6068
10.6534
10.8986
11.3939
12.2297
13.5754
15.1453
15.542
14.7497
13.8221
13.4266
13.6722
15.3703
20.8819
36.1257
23.5983
17.0078
15.1444
14.3366
14.3213
14.6375
14.8657
14.6536
13.7992
12.9791
12.4759
12.0007
11.3376
10.7652
10.4652
10.3619
10.5191
10.8878
11.5195
12.6798
14.8211
16.3617
15.9641
14.7964
13.8725
13.4216
13.3185
13.8692
15.6096
23.2022
17.9479
13.1043
13.3112
14.1193
14.9567
15.4106
15.3749
15.5985
15.5063
14.57
13.4422
12.4057
11.5689
10.8757
10.4892
10.4043
10.6307
11.167
12.0855
13.5336
15.1925
15.7165
15.3138
14.6031
13.7995
13.0738
12.3941
11.948
12.3215
18.5375
17.7734
11.3356
11.7036
13.1666
14.8953
16.0131
15.773
15.6007
16.1278
15.5141
13.8635
12.5165
11.6746
11.0086
10.4905
10.4081
10.7114
11.402
12.6773
14.0722
14.6968
14.526
14.4921
14.0798
13.0371
11.9893
11.0781
10.4796
10.7859
17.7941
18.1904
10.5333
10.5726
11.8515
13.7101
15.3846
15.7191
15.3574
15.9659
15.626
14.1243
12.7555
11.8177
11.0281
10.4223
10.3265
10.6853
11.4048
12.6538
13.8123
14.1188
13.7407
13.7859
13.1534
11.8798
10.8516
10.0587
9.61676
10.1053
17.8849
18.7285
10.2247
9.94361
10.9343
12.4623
14.1257
15.3713
15.1467
15.6503
15.7685
14.6725
13.3001
12.146
11.0801
10.3237
10.2222
10.6287
11.3545
12.3691
13.1807
13.3357
13.0422
13.2153
12.3567
11.1613
10.2699
9.60811
9.31129
10.0122
18.529
19.46
10.2824
9.86658
10.7954
12.2167
13.8323
15.4594
15.2247
15.4759
15.9392
15.1365
13.7665
12.4199
11.1133
10.2355
10.078
10.4737
11.1617
11.8965
12.3798
12.4391
12.4211
12.6803
11.828
11.0187
10.3882
9.78325
9.50499
10.4304
20.4452
19.4765
10.5918
10.3989
11.6041
13.2107
14.8464
16.1439
15.4217
15.2849
15.8236
15.2009
13.96
12.4686
11.0332
10.1291
9.90336
10.1923
10.7589
11.2887
11.585
11.6543
11.8726
12.0511
11.543
11.3428
11.197
10.7264
10.0266
10.7043
20.5191
20.5198
11.4682
11.9859
13.9236
15.9176
17.2981
17.386
15.6168
14.9839
15.4547
15.1867
13.9407
12.2788
10.8869
10.0732
9.80687
9.95836
10.3567
10.734
10.9427
11.1168
11.473
11.5366
11.63
12.2325
12.9068
12.8737
11.2668
10.7739
18.1585
22.4122
13.3324
15.3734
18.8225
21.1321
21.1095
18.7818
15.9443
15.0582
15.474
15.2734
13.7886
12.1797
10.9908
10.2869
10.0023
10.0316
10.2602
10.5284
10.7624
11.1408
11.4865
11.5835
12.2018
13.7016
15.6422
16.8461
14.42
11.7874
16.3727
24.0599
17.3322
21.618
28.0974
29.8109
25.277
19.9404
16.9428
15.8601
15.8732
15.3952
13.9601
12.5964
11.6128
11.0318
10.7555
10.6635
10.697
10.846
11.1929
11.7947
12.1706
12.4468
13.4729
15.6609
19.2154
22.9435
21.0673
16.2101
19.2763
30.0616
25.4776
31.2084
42.627
41.6903
29.6989
22.704
19.5418
17.6198
16.72
16.1295
14.9776
13.8008
12.9568
12.518
12.3319
12.2051
12.0809
12.1021
12.6157
13.5158
14.0595
14.5387
15.7412
18.4453
23.6842
29.9636
29.4306
25.6324
32.2373
44.9833
35.2962
40.2596
51.6505
49.3991
35.5198
27.9307
23.6807
20.4484
18.7228
18.1067
16.9627
15.7449
14.9727
14.7298
14.7448
14.7363
14.6874
14.8422
15.5994
16.6954
17.3096
17.7583
19.0332
21.9962
26.8282
30.9451
33.0687
33.0273
49.0835
62.6315
40.7136
43.8642
48.6625
45.6017
36.9397
30.6215
26.4953
23.041
21.2208
20.3861
19.2608
18.1262
17.6066
17.6728
17.9841
18.2309
18.4639
19.1498
20.4272
21.6271
21.8362
21.4899
21.8876
23.8353
26.1436
29.177
33.3236
34.6117
59.0162
75.9586
42.351
43.9537
44.6057
40.2838
34.7928
30.2689
26.5732
23.9089
22.6274
22.1599
21.4418
20.8119
20.8682
21.4688
22.1391
22.6291
23.19
24.3411
25.8813
26.4635
25.1945
23.4237
22.5527
22.9779
24.4347
27.4538
32.6182
34.5347
63.1181
82.4259
42.2908
42.6199
41.8041
36.6617
31.7795
28.423
25.6847
23.5595
22.747
22.6374
22.4692
22.6699
23.5987
24.9969
26.2563
27.0016
27.5689
28.1815
28.7054
28.2461
26.0745
23.6321
22.3399
22.3654
23.4525
26.1428
31.0438
33.7139
64.046
84.1396
41.2804
40.0998
38.9304
33.889
29.3565
26.4162
24.2016
22.6695
22.2451
22.3993
22.6722
23.6035
25.3973
27.7035
29.5674
30.171
30.052
29.5507
29.0784
27.8301
25.5045
23.3472
22.1748
22.018
22.7131
24.713
28.6705
32.3047
62.4721
81.327
39.0559
36.3555
35.6324
31.7074
27.5392
24.8368
22.9982
21.9108
21.6852
21.941
22.6992
24.5315
27.4509
30.8266
32.8596
32.6461
31.6021
30.4552
29.244
27.1331
24.7716
22.9752
21.8189
21.5527
21.9181
23.0951
25.9063
30.3885
60.8275
76.1515
36.2859
32.41
31.8545
29.6119
26.2389
23.74
22.2226
21.5103
21.4333
21.8457
23.1578
25.9574
30.099
34.3771
35.9827
34.7354
33.303
32.3277
30.4606
27.2749
24.4785
22.6505
21.2948
20.7296
20.7689
21.2775
23.1818
28.2109
58.676
69.3627
33.3354
28.9713
28.2619
27.4569
25.3787
23.2387
21.968
21.4241
21.4296
22.0429
23.9243
27.6547
32.8834
37.6787
38.5522
36.6181
35.4791
35.1078
32.5377
28.0935
24.5341
22.2745
20.7275
19.8669
19.6055
19.773
21.1251
26.3479
57.9584
63.197
30.7489
26.3743
25.4248
25.3355
24.6955
23.2566
22.0864
21.5071
21.5493
22.4334
24.851
29.4072
35.5016
40.4183
40.5972
38.5125
38.1461
38.5069
34.8836
29.1648
24.7778
21.8799
19.9638
18.8964
18.4252
18.4136
19.4125
24.1594
54.9685
58.5376
28.5793
24.1963
23.1885
23.3475
23.8235
23.3784
22.3446
21.6431
21.7215
22.8915
25.802
31.024
37.612
42.3203
42.0615
40.3159
41.0644
41.9528
37.0029
30.2168
25.072
21.5432
19.2052
17.7985
17.0546
16.8835
17.6982
21.6512
47.805
54.5464
26.6025
22.373
21.374
21.5996
22.5104
22.9608
22.2726
21.592
21.8346
23.3357
26.7014
32.3329
38.8006
43.1511
42.9019
41.8775
43.7992
44.9659
38.7141
31.0896
25.3396
21.3068
18.5742
16.812
15.772
15.3804
15.9169
19.0118
39.9117
50.3048
24.6025
20.7109
19.7591
20.0297
20.9684
21.8775
21.8073
21.4733
21.9633
23.7432
27.4759
33.2303
39.3024
43.266
43.2213
43.0552
46.0588
46.9957
39.674
31.6694
25.5909
21.2205
18.1677
16.09
14.7512
14.0923
14.2765
16.5175
32.7564
45.7125
22.5006
19.0435
18.271
18.5209
19.2924
20.1428
20.7163
21.1554
22.0353
24.1113
28.0232
33.6259
39.2313
42.9587
43.2231
43.6793
47.2939
47.6737
40.0163
32.0515
25.8995
21.3364
18.0565
15.7308
14.1349
13.2055
13.0478
14.6805
27.3126
41.2616
20.5187
17.5237
16.9592
17.2297
17.8579
18.6012
19.4088
20.4482
22.0041
24.4116
28.2693
33.4433
38.666
42.5479
43.204
43.7951
47.4091
47.2849
39.991
32.4191
26.3588
21.713
18.2764
15.7813
14.0004
12.8521
12.4374
13.6796
24.8811
37.7946
18.9469
16.3837
16.0086
16.3229
16.945
17.7248
18.6923
20.0292
21.9594
24.6185
28.2765
32.9767
38.023
42.4175
43.5117
43.7535
46.8029
46.559
40.0266
32.9271
27.0464
22.4086
18.8799
16.2588
14.3504
13.0676
12.5237
13.667
25.4219
35.4707
17.9733
15.8002
15.5874
15.9819
16.6765
17.5348
18.6199
20.1066
22.1675
24.8338
28.2415
32.5997
37.6861
42.85
44.5609
43.9243
45.9612
46.109
40.4042
33.7099
28.0211
23.4602
19.93
17.2581
15.2611
13.8717
13.2367
14.3894
27.8604
34.2108
17.7826
15.8844
15.8335
16.3626
17.1208
17.9887
19.0803
20.5665
22.5574
25.0863
28.2704
32.4648
37.7244
43.6632
46.4683
44.6276
45.5262
46.1528
41.1957
34.7829
29.3039
24.906
21.4865
18.857
16.8155
15.3393
14.6745
16.0062
31.7079
34.1937
18.337
16.7255
16.9294
17.6329
18.4047
19.1321
20.0432
21.3143
23.0149
25.2302
28.2323
32.2894
37.8415
44.1995
48.0285
45.5978
45.4345
46.3273
42.1481
36.0123
30.8403
26.7553
23.6305
21.198
19.1418
17.5069
16.7272
18.2104
35.7038
35.7356
19.9746
18.581
19.064
19.9846
20.6955
20.9507
21.3454
22.1688
23.4929
25.3621
28.0549
31.9379
37.2476
43.4379
48.1552
46.251
45.346
46.463
42.8879
37.1796
32.4757
28.9541
26.4684
24.5164
22.4351
20.4923
19.4338
20.9788
40.119
38.9717
22.4309
21.2081
22.1378
23.5103
24.227
23.4335
22.8033
22.9753
23.9527
25.6055
27.9925
31.4967
36.0354
40.9828
45.4087
45.7962
45.3398
46.1632
42.9941
37.9195
33.8549
31.2707
30.1271
29.2399
26.9367
24.32
22.7346
24.2357
44.9815
42.1937
25.0051
24.1843
25.8411
28.0841
28.3451
26.0506
24.2685
23.8502
24.4927
25.9795
28.1438
31.2422
35.1542
39.3674
43.0378
44.3215
45.7877
46.3994
43.0413
38.1825
34.6438
33.2507
34.1249
35.2151
32.6417
28.6913
26.3149
27.6203
49.7746
44.5803
27.3076
26.8816
29.2557
31.7902
31.1504
28.1734
25.7376
24.8467
25.0868
26.3284
28.3982
31.349
35.1461
39.6755
43.4176
44.0865
45.9949
46.1609
42.5515
37.933
34.824
34.3551
36.9297
39.4945
37.4394
32.7206
29.4689
30.5374
53.2739
45.787
29.1126
28.5934
30.3498
31.9289
30.2335
27.9166
26.2499
25.4
25.501
26.6474
28.8172
31.794
35.5693
40.6861
44.4203
44.2818
44.4241
43.5015
40.2014
36.6283
34.2845
34.2176
36.1565
38.2912
38.7696
34.8597
31.6004
32.577
55.4971
47.7662
29.9331
28.0471
29.3049
29.7277
27.981
26.2678
25.2397
24.821
25.0496
26.1612
28.3118
31.3033
35.1831
40.2414
43.0677
42.3899
40.8233
38.9655
36.3846
34.0007
32.5635
32.2941
33.0363
34.723
36.7388
35.0366
32.6254
34.1355
58.9307
52.9505
29.9958
26.782
27.921
27.4897
25.8054
24.4571
23.6629
23.3834
23.673
24.7353
26.6603
29.1181
32.484
36.8195
39.144
38.3249
36.5152
34.5824
32.6726
30.9947
29.8051
29.4008
30.036
31.498
33.8866
34.9922
32.6552
35.1848
61.7635
58.1621
29.163
25.7769
26.3602
25.5096
23.9525
22.7652
22.0993
21.898
22.1625
22.9937
24.3497
26.097
28.7015
31.7811
33.3529
33.1113
32.0749
30.6894
29.2434
27.9471
27.027
26.7293
27.2501
28.6415
31.1033
33.6926
32.3125
35.2917
65.3829
60.0883
28.393
25.0506
25.0774
23.9505
22.3821
21.2688
20.682
20.5466
20.8142
21.4485
22.3102
23.4963
25.4354
27.5386
28.5178
28.5073
28.0076
27.1472
26.1315
25.1652
24.4532
24.2369
24.7258
26.0242
28.2969
31.1781
31.7437
34.3271
69.1658
57.1969
27.1292
24.031
23.9172
22.4878
20.9534
19.9223
19.4175
19.3575
19.6297
20.0848
20.5906
21.3893
22.8054
24.2012
24.7511
24.7551
24.475
23.9363
23.2512
22.5767
22.093
22.0111
22.5066
23.7038
25.7933
28.7383
30.6942
33.5604
70.6504
52.6913
25.2034
22.6638
22.431
20.9723
19.5847
18.663
18.2455
18.2533
18.5067
18.796
19.0864
19.6374
20.6596
21.5097
21.758
21.7116
21.5082
21.1512
20.7033
20.2745
20.0036
20.0526
20.5641
21.6746
23.6132
26.5494
29.1756
32.4042
68.8666
48.254
23.1347
21.0828
20.7128
19.3613
18.21
17.4441
17.126
17.1812
17.3889
17.5457
17.7324
18.116
18.81
19.2558
19.3151
19.2232
19.05
18.7995
18.5123
18.2663
18.1617
18.3144
18.8363
19.8616
21.6288
24.3575
27.2982
30.5565
65.4876
43.7409
21.0984
19.2713
18.846
17.774
16.8534
16.2659
16.0628
16.1514
16.2895
16.3334
16.4729
16.734
17.153
17.3308
17.2814
17.1642
17.0098
16.8257
16.6431
16.5205
16.5268
16.7428
17.2513
18.1724
19.7297
22.137
24.8977
28.2537
61.5688
39.9347
19.5341
17.486
17.0757
16.2773
15.5452
15.1513
15.0862
15.1977
15.2394
15.2419
15.2906
15.4323
15.6472
15.6679
15.5678
15.4411
15.3028
15.1621
15.0452
14.9959
15.063
15.2971
15.7551
16.5361
17.8389
19.8754
22.2566
25.5844
56.5278
37.5657
18.281
15.8742
15.4659
14.9603
14.414
14.1694
14.2339
14.3507
14.3384
14.2439
14.1529
14.2033
14.2842
14.2272
14.1109
13.9842
13.8598
13.7476
13.6704
13.6589
13.7469
13.9605
14.3322
14.9425
15.9655
17.6063
19.548
22.654
49.9229
36.5745
17.3157
14.6625
14.2187
13.8746
13.453
13.3654
13.4857
13.561
13.4809
13.2815
13.081
13.0614
13.071
12.9892
12.8686
12.742
12.6265
12.5326
12.4786
12.4841
12.5684
12.7376
13.0037
13.4397
14.1959
15.4238
16.9474
19.852
43.4878
35.219
16.5066
13.8559
13.3248
12.9767
12.6536
12.6273
12.7408
12.7422
12.5747
12.3019
12.0821
12.0433
12.0296
11.9349
11.804
11.6725
11.5596
11.4769
11.437
11.45
11.5202
11.638
11.7975
12.0613
12.5694
13.4658
14.7333
17.5437
38.4814
33.9189
16.0453
13.4606
12.887
12.4099
11.9615
11.8431
11.8551
11.7627
11.5562
11.317
11.1523
11.1319
11.1236
11.0183
10.8769
10.7383
10.6243
10.548
10.517
10.5327
10.5832
10.646
10.6999
10.8588
11.1946
11.8175
12.8987
15.7677
34.865
33.5
15.8754
13.3866
12.6539
11.8998
11.3457
11.1392
11.0146
10.8382
10.641
10.448
10.3324
10.3064
10.2846
10.1861
10.0456
9.90429
9.79199
9.71906
9.69204
9.70446
9.72171
9.7238
9.75405
9.8589
10.0302
10.4424
11.4839
14.4256
32.0463
33.6815
15.78
13.2322
12.2441
11.4134
10.8997
10.623
10.3471
10.1157
9.95174
9.79539
9.63189
9.53754
9.47506
9.38306
9.27651
9.14624
9.03761
8.96321
8.92503
8.92239
8.92773
8.92432
8.92795
8.92507
9.0099
9.35784
10.3592
13.2926
30.0191
33.3063
15.4278
12.7594
11.6853
10.9843
10.5154
10.0748
9.73401
9.55555
9.45627
9.32694
9.10499
8.87159
8.74103
8.64088
8.54124
8.44245
8.34903
8.27702
8.23736
8.22555
8.22319
8.18382
8.11054
8.079
8.16632
8.50561
9.41929
12.1184
27.7674
31.8251
14.5845
11.9795
11.0562
10.4377
9.89348
9.47411
9.22666
9.12178
9.04928
8.91123
8.65142
8.33351
8.08295
7.96217
7.87906
7.79068
7.71442
7.65588
7.62493
7.58586
7.53176
7.45625
7.39063
7.38258
7.48146
7.79303
8.57244
10.863
24.3577
29.0383
13.4537
11.0547
10.2358
9.72648
9.32342
9.04204
8.88453
8.80275
8.70494
8.51307
8.20481
7.84474
7.54108
7.3597
7.28064
7.22519
7.16607
7.10826
7.05568
6.99297
6.92351
6.85592
6.80873
6.80783
6.88923
7.13863
7.75731
9.57514
20.2248
24.8081
12.0081
10.043
9.43915
9.12703
8.90606
8.75856
8.65699
8.55605
8.39241
8.12514
7.77538
7.40538
7.08818
6.88238
6.78588
6.74348
6.70341
6.64866
6.58513
6.51489
6.44528
6.38231
6.33008
6.30511
6.34413
6.52305
7.01518
8.49761
17.321
20.0604
10.5744
9.14549
8.77126
8.6629
8.62814
8.59809
8.51847
8.36032
8.10599
7.7601
7.3763
7.01938
6.73673
6.54404
6.43582
6.38285
6.34332
6.28976
6.22133
6.1451
6.06683
5.98689
5.90666
5.84368
5.83751
5.95578
6.35944
7.65814
15.7097
16.4292
9.45785
8.42731
8.29341
8.37479
8.492
8.51294
8.4045
8.17014
7.82855
7.42732
7.03741
6.70849
6.461
6.29278
6.18733
6.11866
6.05995
5.99233
5.90995
5.81577
5.71392
5.60641
5.49941
5.41007
5.37204
5.447
5.78807
6.98175
14.5086
15.1636
8.81887
8.03517
8.07348
8.27678
8.38169
8.32806
8.1501
7.83152
7.45719
7.08414
6.73285
6.44062
6.21563
6.05288
5.93841
5.85079
5.76926
5.68071
5.57913
5.46565
5.34489
5.2215
5.10224
5.00096
4.94559
4.99293
5.28748
6.39312
13.4044
15.4667
8.76936
8.02543
8.08945
8.22279
8.14859
7.96036
7.72309
7.40018
7.05864
6.72693
6.42209
6.16393
5.95251
5.78477
5.653
5.54378
5.44168
5.336
5.22165
5.09911
4.97181
4.84411
4.72218
4.61778
4.55499
4.58562
4.84409
5.86181
12.3635
17.0808
9.15341
8.25802
8.15612
8.01959
7.80893
7.55642
7.29266
7.00548
6.69245
6.38412
6.10526
5.86789
5.66472
5.49263
5.34752
5.22125
5.10361
4.98657
4.86581
4.74071
4.61315
4.48657
4.36656
4.26365
4.19927
4.22056
4.45226
5.38677
11.4059
20.9548
10.0409
8.65158
8.01945
7.77915
7.5475
7.22779
6.94128
6.6662
6.35402
6.05265
5.79075
5.56637
5.36919
5.19607
5.04391
4.90729
4.77971
4.65557
4.53141
4.40605
4.28031
4.15679
4.04051
3.94111
3.87833
3.89459
4.10572
4.96542
10.5223
26.3279
11.3249
8.81119
7.92005
7.64888
7.3407
6.94924
6.64323
6.34163
6.02482
5.73899
5.49183
5.2761
5.08401
4.91217
4.75734
4.61545
4.48218
4.35381
4.22777
4.10283
3.97927
3.85913
3.74695
3.6516
3.59147
3.60479
3.79775
4.5845
9.63645
27.7741
11.6176
8.81184
7.91724
7.53218
7.06767
6.67117
6.35311
6.02399
5.71966
5.4509
5.21534
5.00675
4.81986
4.65085
4.49619
4.3524
4.21642
4.08581
3.95881
3.83443
3.7128
3.59564
3.48711
3.39547
3.33785
3.34888
3.52597
4.24803
8.76097
25.4988
11.1203
8.65238
7.88466
7.42275
6.79199
6.43631
6.08346
5.74246
5.44726
5.19004
4.96344
4.7621
4.58134
4.41679
4.26454
4.12134
3.98483
3.85344
3.7261
3.60222
3.48198
3.36705
3.26133
3.17255
3.11673
3.12559
3.28939
3.96177
8.01237
20.4007
10.1586
8.29339
7.66897
7.12401
6.52866
6.22236
5.83801
5.49329
5.20419
4.95508
4.73691
4.54389
4.37079
4.21258
4.06488
3.92438
3.78907
3.65797
3.53067
3.40701
3.28748
3.17379
3.06975
2.98265
2.92749
2.93357
3.08452
3.70824
7.41516
18.7278
9.6312
8.00019
7.35643
6.73179
6.31951
5.99004
5.60135
5.26689
4.9861
4.74564
4.53709
4.35411
4.19067
4.04097
3.90002
3.76421
3.63154
3.50147
3.37422
3.25027
3.13051
3.01688
2.91314
2.82627
2.77031
2.7726
2.91084
3.49045
6.97008
18.3414
9.49087
7.92701
7.07526
6.51993
6.1442
5.75316
5.37994
5.06263
4.79334
4.5638
4.36704
4.19639
4.04505
3.90639
3.77461
3.64546
3.51663
3.38782
3.26017
3.13502
3.01386
2.89889
2.79387
2.70549
2.64692
2.64425
2.77038
3.31396
6.65178
19.0977
9.6568
7.80826
6.94102
6.39029
5.92213
5.52704
5.1829
4.8852
4.63029
4.41455
4.23241
4.07695
3.94068
3.81604
3.69621
3.57579
3.45157
3.32364
3.19449
3.06686
2.94296
2.82513
2.71702
2.62506
2.56173
2.55273
2.66826
3.18875
6.46905
23.4115
10.0615
7.76347
6.8399
6.21399
5.70458
5.33481
5.0208
4.74323
4.50507
4.30626
4.14207
4.00519
3.88753
3.78059
3.67611
3.56679
3.44724
3.31891
3.18651
3.05504
2.9272
2.80504
2.69181
2.5937
2.52283
2.50522
2.61096
3.122
6.45144
24.4645
10.2145
7.70276
6.66174
6.03495
5.55785
5.2095
4.91222
4.65046
4.42925
4.25008
4.10788
3.99346
3.89596
3.80649
3.7168
3.61883
3.50259
3.3716
3.23531
3.10035
2.96893
2.84214
2.72282
2.61704
2.53721
2.51032
2.6074
3.11419
6.50553
21.5299
9.71047
7.4332
6.45065
5.90669
5.50995
5.17175
4.87239
4.61871
4.41381
4.25542
4.13497
4.04426
3.97313
3.90987
3.84323
3.75542
3.64333
3.50679
3.36765
3.23082
3.09582
2.96251
2.83329
2.7138
2.61657
2.57047
2.6509
3.15456
6.70447
14.6922
8.52187
6.79839
6.13471
5.80759
5.51064
5.18287
4.88405
4.63836
4.4522
4.32176
4.23678
4.1851
4.15348
4.12868
4.08955
3.99058
3.86761
3.73559
3.6019
3.47107
3.3386
3.2024
3.06353
2.92673
2.80417
2.72778
2.78228
3.29263
7.18311
9.6149
6.46171
5.86687
5.83246
5.6905
5.44104
5.18153
4.91497
4.7001
4.55571
4.47346
4.43932
4.43913
4.46043
4.49025
4.4726
4.33011
4.20625
4.08202
3.95041
3.83186
3.71039
3.57893
3.43808
3.28887
3.13955
3.02658
3.05105
3.58459
7.93452
6.52954
4.85062
5.27404
5.64392
5.49211
5.33159
5.14811
4.95352
4.80503
4.73018
4.71585
4.74902
4.81961
4.91931
5.02234
4.97526
4.81575
4.72276
4.57442
4.44483
4.34032
4.23486
4.11612
3.98119
3.82896
3.65598
3.49764
3.4793
4.04529
8.94688
6.04896
4.71147
5.24987
5.41437
5.46873
5.37128
5.15426
5.0367
4.97449
4.98859
5.06163
5.1834
5.34781
5.5544
5.72279
5.56209
5.49027
5.38914
5.24027
5.12197
5.03043
4.93757
4.82766
4.7008
4.54991
4.36821
4.17411
4.12749
4.76101
10.2272
7.77653
5.22631
5.25438
5.34652
5.57822
5.48945
5.23399
5.21934
5.24981
5.35888
5.53285
5.75957
6.03614
6.36221
6.48756
6.34404
6.33541
6.22653
6.10855
6.01373
5.9323
5.83774
5.71056
5.55641
5.40108
5.22236
5.03979
5.03196
5.89944
12.5008
11.8126
6.0132
5.22204
5.41587
5.66731
5.59698
5.42431
5.52977
5.6606
5.86636
6.14997
6.4951
6.89914
7.32798
7.34606
7.38083
7.35943
7.27923
7.21117
7.15358
7.08111
6.95267
6.74776
6.49433
6.22888
5.97079
5.86793
6.12669
7.43326
16.6421
14.3265
6.53781
5.29992
5.5505
5.70608
5.77408
5.74595
5.96428
6.21463
6.52601
6.93044
7.40942
7.96068
8.456
8.44225
8.63093
8.59877
8.58833
8.60304
8.60886
8.55142
8.34758
7.92841
7.37544
6.90942
6.60132
6.55852
7.10235
9.30835
23.9121
14.9656
6.85172
5.50476
5.74322
5.86051
6.08963
6.2134
6.52794
6.91529
7.35048
7.88791
8.50944
9.21101
9.69351
9.80427
10.0426
10.0944
10.2223
10.3812
10.5066
10.4856
10.1735
9.39172
8.42576
7.77818
7.43341
7.40715
7.95496
10.6249
28.7561
15.1252
7.0541
5.8462
6.077
6.22277
6.58987
6.85324
7.25521
7.78217
8.36261
9.04307
9.8109
10.6491
11.1483
11.465
11.7207
11.9581
12.2899
12.6678
12.9835
13.0272
12.5425
11.2134
9.88604
8.9018
8.36603
8.2971
8.85793
11.6304
30.1593
15.4823
7.29811
6.3279
6.59568
6.81636
7.30885
7.70137
8.19758
8.85982
9.59997
10.431
11.3513
12.319
12.9197
13.4027
13.7885
14.2864
14.8996
15.5818
16.1672
16.2873
15.0776
13.2873
11.7494
10.4577
9.55411
9.21856
9.6745
12.3064
30.4913
16.1863
7.67436
6.9329
7.31552
7.65726
8.27772
8.82251
9.43791
10.217
11.114
12.0982
13.1706
14.2639
15.0542
15.66
16.3364
17.1644
18.139
19.2137
20.159
20.0614
17.8388
15.7259
14.0305
12.534
11.346
10.6928
10.7599
12.8133
28.89
17.212
8.20307
7.61485
8.22413
8.80425
9.57976
10.3465
11.1033
11.9481
12.9753
14.1038
15.313
16.5588
17.6107
18.4662
19.4921
20.6887
22.0755
23.6051
24.9187
24.1387
21.0896
18.6289
16.8238
15.2391
13.8585
12.8916
12.6221
14.2501
27.7535
17.8353
8.83346
8.50182
9.4865
10.4237
11.3817
12.4498
13.382
14.1911
15.2781
16.5223
17.845
19.2769
20.6482
21.8763
23.2928
24.9103
26.7325
28.735
30.3621
28.7634
25.0901
22.1646
20.1934
18.6883
17.3047
16.1673
15.6214
17.1477
31.1626
19.1755
9.98723
9.99424
11.409
12.6982
13.8471
15.2051
16.343
17.0824
18.0904
19.3708
20.7977
22.4408
24.159
25.8488
27.7449
29.8552
32.1279
34.5224
36.3619
34.1301
29.8858
26.4854
24.1107
22.5245
21.4453
20.6491
20.3963
22.5396
43.0098
22.3933
12.2604
12.4763
14.1798
15.6677
16.9216
18.3842
19.6498
20.4996
21.3349
22.5867
24.1043
25.9578
28.0735
30.3288
32.8448
35.5761
38.3639
41.038
42.8874
40.3975
35.5438
31.7732
28.8027
26.9023
26.009
26.0665
27.1568
31.7076
65.4743
28.9603
16.1314
16.5748
18.0028
19.2881
20.3
21.5645
22.76
23.8307
24.795
25.98
27.5169
29.6244
32.2314
35.2016
38.5556
42.1601
45.703
48.7223
50.397
47.658
42.2145
38.1177
34.7556
32.5591
31.7008
32.3057
35.3229
45.6321
110.607
53.1035
25.3178
22.2988
22.2254
22.9341
23.6771
24.2329
25.3136
26.5967
28.0044
29.133
30.716
33.1312
36.3655
40.2462
44.7479
49.6802
54.5467
58.4466
60.0387
56.6369
50.5205
46.0094
42.4462
40.0205
39.2193
40.2788
44.8186
62.3395
174.724
63.8507
31.5692
26.5516
25.4504
25.8863
26.0852
26.2621
27.1551
28.8518
30.505
31.6268
33.3439
36.1118
40.1164
45.1031
51.1069
57.9923
65.1839
71.3012
73.8074
69.4316
61.9089
56.4749
52.5135
49.9578
49.3405
51.2056
58.1083
83.2129
242.527
58.1709
31.2396
26.4493
25.5137
25.8161
26.4575
27.1595
28.3081
30.2458
32.0545
33.2358
35.1092
38.3239
43.149
49.332
57.0678
66.5184
77.3452
88.226
93.8086
88.1486
77.855
70.29
65.3864
62.7394
62.5688
65.417
74.1581
103.593
283.857
52.9766
29.6579
25.8104
24.9851
25.1169
25.642
26.7355
28.2571
30.3642
32.4771
33.8385
35.9099
39.6699
45.2369
52.4733
61.8611
74.0647
89.3074
105.539
117.041
111.6
97.4633
86.3618
79.6448
76.3907
76.1626
79.2722
88.4856
117.083
281.032
49.4403
28.4624
24.8809
23.8666
23.855
24.3991
25.656
27.4042
29.6112
31.9942
33.6061
35.9552
40.2378
46.2908
54.1657
64.6115
78.5836
96.9364
117.733
130.477
126.538
112.443
99.2642
91.1526
87.3741
87.3715
91.44
101.739
127.351
268.873
44.8189
27.9074
23.9251
22.6604
22.5994
23.2805
24.6693
26.5007
28.747
31.3215
33.2395
35.8828
40.4044
46.533
54.4418
64.7717
78.3391
95.7859
115.39
129.551
125.263
112.685
102.018
95.5457
93.4782
95.4534
101.557
112.347
136.114
275.86
38.243
27.0361
22.8264
21.462
21.506
22.3032
23.8407
25.7745
28.0936
30.7578
33.0057
35.9286
40.4341
46.3278
53.7901
63.2419
75.0293
89.0394
103.83
116.818
115.955
107.538
99.5515
94.7386
94.5739
98.6282
106.72
118.143
142.77
301.398
29.4121
24.7876
21.3318
20.3884
20.6763
21.7315
23.5189
25.6003
27.8833
30.5085
33.1108
36.1651
40.5069
46.025
52.8484
61.1259
70.7648
81.089
91.1351
101.182
102.857
98.7871
94.2564
91.4404
92.0932
96.6493
105.141
117.402
146.197
331.159
22.7163
21.9766
20.2785
19.9295
20.3938
21.7466
23.8467
26.0535
28.2721
30.7791
33.56
36.6351
40.736
45.9058
52.119
59.2391
66.9098
74.3737
81.5447
89.3371
91.6423
89.7981
87.5563
86.2547
87.2302
91.6217
100.026
113.447
145.598
344.968
25.3923
21.5253
21.0453
21.1087
21.3199
22.5154
24.7229
27.0543
29.2869
31.6697
34.5154
37.402
41.2211
46.1608
51.8445
57.8426
63.832
69.3747
74.9962
81.073
83.0599
82.3022
81.1973
80.9394
82.2408
86.2304
93.9084
107.611
142.389
341.812
34.4935
21.8245
22.0611
22.923
23.3056
24.1586
26.0976
28.421
30.5745
32.8056
35.5794
38.3679
42.052
46.9484
52.0661
56.9121
61.429
65.8848
70.7959
74.7867
76.7161
76.7977
76.4163
76.7281
78.1898
81.7291
88.5662
101.84
136.503
329.835
40.7459
23.4591
22.8566
24.1133
25.237
26.114
27.7892
30.0225
32.1225
34.2469
36.7215
39.4091
43.5687
48.3229
52.4949
55.9706
59.6952
64.0065
67.792
70.0895
72.2586
73.2757
73.5465
74.1768
75.5339
78.4248
84.3139
96.6538
129.491
305.608
44.6789
25.1525
23.8738
25.1366
26.7927
28.0583
29.5932
31.6828
33.7031
35.7826
38.2606
41.5827
45.7437
49.4304
52.4074
55.4603
59.0127
62.2965
64.5872
66.719
69.508
71.5747
72.5332
73.335
74.3441
76.3498
81.0976
92.2079
122.567
277.381
45.7257
25.9075
24.7646
26.229
28.2804
30.0141
31.6323
33.5892
35.5762
37.8882
40.905
44.785
47.7187
50.4055
52.7695
55.0112
57.2868
59.4956
61.8088
64.5222
67.9995
71.3043
73.0763
73.8825
74.4833
75.4336
78.7936
88.4904
116.817
250.405
43.9598
26.4933
25.9726
27.6671
29.9583
32.0405
33.9348
35.9621
38.1115
40.7032
44.068
47.2299
49.0963
50.5502
51.7617
53.1799
55.0424
57.3251
59.9716
63.1107
67.2074
71.7992
74.798
75.608
75.5933
75.5302
77.2796
85.1562
110.835
224.357
44.172
29.0073
28.5737
29.9882
32.0753
34.1446
36.151
38.2771
40.5727
43.4309
46.233
47.7746
48.7129
49.4244
50.1998
51.3979
53.1897
55.5597
58.4774
62.042
66.7014
72.5289
77.2411
78.4867
77.6719
76.3806
76.5015
82.0506
104.051
201.287
60.4934
36.3747
33.6824
33.6346
34.8773
36.4544
38.1726
40.2687
42.6552
45.0906
46.333
46.7993
47.3368
47.9105
48.602
49.7312
51.49
53.9037
57.0034
60.9429
66.1286
72.9339
79.5764
82.0504
80.5374
78.0723
76.5975
79.4871
97.1529
182.241
100.769
50.2427
40.6525
38.3423
38.4366
39.2097
40.2975
41.8857
43.6175
44.5032
44.785
45.1957
45.7415
46.2969
46.9963
48.1418
49.9028
52.3183
55.484
59.6549
65.2653
72.7693
81.1372
85.6713
84.1284
80.2696
77.2754
78.0148
91.6961
169.464
125.989
60.198
46.5539
43.0736
42.687
42.6183
42.5303
43.0078
43.1422
43.1024
43.21
43.5651
44.053
44.5992
45.3676
46.5887
48.3749
50.7734
53.9473
58.2392
64.1142
72.0554
81.6247
88.6512
88.1274
83.0737
78.5644
77.8715
88.5167
163.22
133.461
61.8964
49.5846
46.747
47.3648
46.3484
44.5698
43.4503
42.6886
42.1261
41.8823
42.0112
42.3672
42.9134
43.7726
45.0715
46.8752
49.2606
52.4455
56.7958
62.7726
70.8902
81.1776
90.5065
92.0867
86.4872
80.1797
78.3542
88.1581
165.138
118.472
60.5788
50.8882
48.5879
50.178
48.8493
46.2547
44.2273
42.6338
41.4799
40.8597
40.7019
40.8844
41.3975
42.2977
43.617
45.4099
47.7964
51.0035
55.3719
61.3451
69.4645
80.0481
91.0983
95.5463
90.3643
82.3525
79.4452
89.5055
174.282
112.545
61.0109
52.5755
49.8046
50.6984
50.3948
47.6348
44.8134
42.6642
41.1538
40.2407
39.7967
39.7685
40.1756
41.0153
42.2675
44.0206
46.4153
49.6423
53.9958
59.9009
67.908
78.4976
90.6742
98.1506
94.4243
85.3297
81.3585
93.2599
194.548
108.816
64.9927
56.2673
52.5549
51.3942
51.1493
48.4254
45.2573
42.8772
41.1978
40.0786
39.3703
39.0811
39.2941
39.9595
41.0719
42.762
45.1612
48.3934
52.6937
58.4754
66.2959
76.7234
89.4604
99.6457
98.4156
89.1839
84.2329
98.6874
218.531
126.715
75.1962
64.0319
58.4096
53.6626
51.8843
49.5931
46.1634
43.5141
41.6728
40.3552
39.3745
38.7889
38.7224
39.1281
40.0617
41.6755
44.0636
47.2794
51.4956
57.1055
64.6789
74.8104
87.6272
99.9308
102.097
93.5589
87.8102
104.105
240.015
161.094
85.6376
71.0888
62.8727
56.4885
54.1535
52.3746
48.246
44.8346
42.6093
41.0183
39.7362
38.8093
38.3953
38.5021
39.2531
40.7787
43.1173
46.2874
50.4136
55.8315
63.105
72.8536
85.464
99.2113
105.134
98.1799
91.8245
109.058
256.975
172.363
91.1149
73.761
64.1186
57.9668
56.4515
56.096
51.4859
46.8807
43.9987
42.0265
40.3979
39.0894
38.2744
38.0853
38.6605
40.066
42.3001
45.3949
49.4462
54.6891
61.6392
70.9464
83.1283
97.5361
107.132
102.823
96.0601
113.358
269.33
165.91
86.8127
74.1063
65.3401
58.9758
57.7867
58.6919
55.0435
49.5039
45.8433
43.4017
41.3653
39.6147
38.3782
37.9128
38.2949
39.5247
41.5998
44.594
48.5884
53.6981
60.332
69.1595
80.7834
95.2183
107.777
107.16
100.487
117.049
277.672
158.204
80.7924
72.4558
66.4667
60.1608
58.8289
60.3089
58.4739
52.6809
48.225
45.2202
42.6902
40.4315
38.7709
38.0231
38.1585
39.1491
41.0207
43.8888
47.831
52.8548
59.206
67.5421
78.5438
92.5754
107.14
111.031
104.918
120.135
282.58
152.815
76.8356
69.8934
66.4773
61.2003
59.986
61.7487
61.9696
56.6295
51.337
47.6251
44.4715
41.6448
39.5392
38.4409
38.2575
38.9475
40.5767
43.286
47.1604
52.1341
58.256
66.1047
76.431
89.752
105.3
113.864
109.284
122.591
283.961
146.444
73.3837
66.7532
65.0311
62.0727
61.5898
63.9243
65.9421
61.7204
55.4729
50.8175
46.8771
43.3982
40.7746
39.205
38.617
38.9408
40.2815
42.7897
46.5627
51.5037
57.4622
64.8414
74.4625
86.9314
102.448
114.871
113.458
124.509
283.002
138.142
69.9328
63.7947
63.4127
63.1059
63.8887
67.2492
70.8667
68.1847
60.9181
55.0165
50.1053
45.8566
42.5726
40.382
39.2726
39.154
40.143
42.3985
46.0293
50.9391
56.8085
63.7589
72.6484
84.1921
98.9954
114.09
117.354
126.067
280.151
128.671
66.5232
61.5472
62.5499
64.7088
66.9373
71.6267
76.7472
76.1728
67.8258
60.3715
54.3429
49.1834
45.0436
42.0623
40.2574
39.6053
40.1583
42.1076
45.5616
50.4337
56.2848
62.867
70.9646
81.5025
95.1126
111.573
120.357
127.349
274.539
122.648
64.0454
60.4187
62.3742
66.7105
70.7599
77.1116
83.7889
85.5011
76.2293
66.9795
59.767
53.5419
48.3129
44.3134
41.6117
40.2908
40.3168
41.9111
45.1663
49.9954
55.8872
62.1946
69.4474
78.8978
91.1568
107.083
120.767
128.126
265.69
121.632
63.322
60.6468
63.3596
69.4384
75.8177
84.1595
92.5825
96.3914
86.3029
74.9756
66.5574
59.0923
52.4891
47.184
43.3645
41.1673
40.6022
41.7965
44.8442
49.6348
55.6202
61.7903
68.203
76.4258
87.3146
101.928
119.177
129.669
255.011
125.482
64.4714
62.2633
66.1107
73.8445
82.8801
93.7113
103.936
109.22
98.0083
84.5372
74.9152
65.9696
57.6273
50.6711
45.4667
42.1964
40.9707
41.7318
44.5761
49.3452
55.4777
61.6703
67.2966
74.0734
83.4934
96.3913
114.805
131.026
241.056
132.513
67.8438
65.4542
70.8678
80.7404