/*--------------------------------*- C++ -*----------------------------------*\
| =========                 |                                                 |
| \\      /  F ield         | OpenFOAM: The Open Source CFD Toolbox           |
|  \\    /   O peration     | Version:  v1606+                                |
|   \\  /    A nd           | Web:      www.OpenFOAM.com                      |
|    \\/     M anipulation  |                                                 |
\*---------------------------------------------------------------------------*/
FoamFile
{
    version     2.0;
    format      ascii;
    class       volScalarField;
    location    "0.55";
    object      nut.particles;
}
// * * * * * * * * * * * * * * * * * * * * * * * * * * * * * * * * * * * * * //

dimensions      [0 2 -1 0 0 0 0];

internalField   nonuniform List<scalar> 
6000
(
1.67605e-05
1.32516e-05
1.30984e-05
1.31551e-05
1.34506e-05
1.40882e-05
1.47701e-05
1.5364e-05
1.57548e-05
1.57238e-05
1.52516e-05
1.49884e-05
1.48438e-05
1.46992e-05
1.45921e-05
1.46596e-05
1.47666e-05
1.48299e-05
1.50047e-05
1.5296e-05
1.57366e-05
1.57415e-05
1.53706e-05
1.479e-05
1.40945e-05
1.34234e-05
1.3132e-05
1.30855e-05
1.32428e-05
1.67259e-05
8.49389e-06
8.34771e-06
8.21352e-06
8.32231e-06
8.54895e-06
8.75234e-06
8.90174e-06
9.02315e-06
9.12591e-06
9.14888e-06
8.74998e-06
7.74782e-06
7.42654e-06
7.35535e-06
7.35855e-06
7.34904e-06
7.36323e-06
7.44673e-06
7.85243e-06
8.8786e-06
9.18032e-06
9.14995e-06
9.04862e-06
8.93061e-06
8.77492e-06
8.56683e-06
8.32774e-06
8.20924e-06
8.34941e-06
8.49492e-06
1.24133e-05
1.13687e-05
1.11081e-05
1.13411e-05
1.1971e-05
1.18122e-05
1.13493e-05
1.11372e-05
1.12821e-05
1.20675e-05
1.30345e-05
1.16534e-05
1.04497e-05
9.89114e-06
9.73222e-06
9.76506e-06
9.98328e-06
1.06351e-05
1.18936e-05
1.3159e-05
1.18136e-05
1.10907e-05
1.10064e-05
1.13056e-05
1.18584e-05
1.20236e-05
1.13863e-05
1.11568e-05
1.13876e-05
1.25022e-05
4.88667e-06
5.97022e-06
6.14157e-06
5.57938e-06
4.60635e-06
3.93483e-06
3.57963e-06
3.45064e-06
3.55553e-06
4.01093e-06
5.79878e-06
9.70347e-06
1.00394e-05
9.30149e-06
9.23046e-06
9.26491e-06
9.42158e-06
1.0216e-05
9.09638e-06
5.35205e-06
3.85926e-06
3.46129e-06
3.38566e-06
3.5419e-06
3.928e-06
4.64141e-06
5.68121e-06
6.33929e-06
6.15849e-06
5.06337e-06
2.36869e-06
2.37241e-06
2.38096e-06
2.1019e-06
1.77617e-06
1.58684e-06
1.53734e-06
1.53629e-06
1.57218e-06
1.65302e-06
2.00485e-06
3.54855e-06
7.40105e-06
9.51152e-06
9.40779e-06
9.42282e-06
9.62223e-06
6.55631e-06
3.20238e-06
1.92665e-06
1.64081e-06
1.56721e-06
1.53665e-06
1.53991e-06
1.59517e-06
1.79208e-06
2.12664e-06
2.42706e-06
2.43455e-06
2.41594e-06
1.95856e-06
1.74454e-06
1.60557e-06
1.46891e-06
1.3168e-06
1.21389e-06
1.253e-06
1.31073e-06
1.35927e-06
1.39595e-06
1.43337e-06
1.59361e-06
2.67587e-06
4.99633e-06
6.02103e-06
5.80889e-06
4.30606e-06
2.40107e-06
1.54198e-06
1.44122e-06
1.40545e-06
1.36954e-06
1.32196e-06
1.26235e-06
1.23014e-06
1.34156e-06
1.48643e-06
1.61607e-06
1.76466e-06
1.98578e-06
1.81077e-06
2.08618e-06
1.95658e-06
1.83267e-06
1.57268e-06
1.35641e-06
1.28021e-06
1.28382e-06
1.33562e-06
1.35973e-06
1.36842e-06
1.36584e-06
1.57903e-06
2.25701e-06
2.70487e-06
2.61701e-06
2.05618e-06
1.52101e-06
1.37803e-06
1.37698e-06
1.37113e-06
1.3444e-06
1.29121e-06
1.29913e-06
1.38585e-06
1.61828e-06
1.86624e-06
1.97026e-06
2.12155e-06
1.82173e-06
2.49171e-06
3.10446e-06
3.29998e-06
3.06559e-06
2.5442e-06
2.01978e-06
1.57976e-06
1.34241e-06
1.30119e-06
1.33385e-06
1.32373e-06
1.31802e-06
1.41153e-06
1.78565e-06
2.11976e-06
2.05918e-06
1.68896e-06
1.3743e-06
1.33023e-06
1.33503e-06
1.34416e-06
1.31648e-06
1.36802e-06
1.6414e-06
2.05248e-06
2.56542e-06
3.07878e-06
3.26977e-06
3.14809e-06
2.52147e-06
4.90033e-06
5.24766e-06
6.05689e-06
5.72705e-06
4.87029e-06
3.68403e-06
2.51089e-06
1.75612e-06
1.37764e-06
1.31214e-06
1.29282e-06
1.27929e-06
1.34431e-06
1.70205e-06
2.08572e-06
2.01853e-06
1.63797e-06
1.33336e-06
1.29457e-06
1.30527e-06
1.34033e-06
1.42544e-06
1.84561e-06
2.63965e-06
3.7304e-06
4.72313e-06
5.58156e-06
5.93784e-06
5.20661e-06
4.90519e-06
9.82171e-06
1.03091e-05
1.14531e-05
1.09839e-05
9.43397e-06
6.96174e-06
4.75446e-06
3.0296e-06
1.83708e-06
1.45652e-06
1.3342e-06
1.3013e-06
1.40886e-06
1.70625e-06
2.04132e-06
2.01255e-06
1.68039e-06
1.42082e-06
1.3147e-06
1.38844e-06
1.52892e-06
1.98006e-06
3.26474e-06
4.77788e-06
6.92307e-06
9.25813e-06
1.0847e-05
1.13955e-05
1.02934e-05
9.72255e-06
0.000217981
0.000537841
0.00111317
0.00102241
0.000478808
4.0939e-05
9.53113e-06
5.83401e-06
3.22346e-06
2.05226e-06
1.70331e-06
1.56639e-06
1.77476e-06
1.96722e-06
2.22842e-06
2.22742e-06
1.97297e-06
1.79579e-06
1.6074e-06
1.83789e-06
2.24201e-06
3.53571e-06
6.02434e-06
9.58239e-06
4.92574e-05
0.000546602
0.00117365
0.00129091
0.000631964
0.000228647
0.00404088
0.00699436
0.00899065
0.00904912
0.00711319
0.00359092
0.000575925
1.17027e-05
6.36819e-06
3.62378e-06
2.68803e-06
2.31859e-06
2.6712e-06
2.73492e-06
2.79955e-06
2.86681e-06
2.85029e-06
2.68774e-06
2.40699e-06
2.9108e-06
3.94618e-06
6.84859e-06
1.20726e-05
0.000746782
0.0043981
0.00820023
0.0101242
0.0101069
0.00786178
0.00444286
0.0167844
0.0214732
0.0218759
0.0207013
0.019276
0.0154069
0.00891385
0.0013977
1.28895e-05
6.84412e-06
4.81507e-06
3.88335e-06
4.50754e-06
4.67083e-06
3.5248e-06
3.64572e-06
4.97948e-06
4.45817e-06
4.00564e-06
5.10619e-06
7.29287e-06
1.35311e-05
0.00192367
0.0104058
0.0169819
0.0198554
0.0205953
0.0219325
0.0217705
0.0173576
0.032809
0.0330233
0.0265775
0.0198012
0.0196867
0.019603
0.019526
0.013089
0.00147842
1.30177e-05
8.52363e-06
6.79447e-06
7.74624e-06
9.26178e-06
3.74886e-06
3.76187e-06
9.53873e-06
7.71422e-06
7.07063e-06
8.81005e-06
1.37324e-05
0.00207445
0.0147549
0.0173729
0.0174232
0.0175229
0.0172943
0.0229844
0.0294953
0.0295189
0.0331463
0.033022
0.0210706
0.00953788
0.00851654
0.01339
0.0186011
0.0185614
0.0140647
0.000793738
1.39088e-05
1.16913e-05
1.25044e-05
1.30823e-05
3.64199e-06
3.61191e-06
1.23878e-05
1.31025e-05
1.22554e-05
1.44546e-05
0.00110822
0.0156271
0.0166228
0.0166485
0.00966159
0.00558661
0.00749652
0.0179992
0.0294801
0.0295679
0.0330466
0.0191753
0.0157437
0.00376509
0.00105226
0.00148853
0.00729672
0.0170748
0.0170884
0.00864167
0.0004326
0.000102915
0.000451258
1.31561e-05
6.34176e-06
7.27888e-06
1.42863e-05
0.000707863
0.000181693
0.000615681
0.00945785
0.015719
0.0151165
0.00359992
0.000801235
0.00100619
0.00430555
0.0166161
0.0214851
0.02954
0.0236019
0.00186468
0.0122415
0.0082681
0.000658576
3.40544e-05
0.000337766
0.00610521
0.0162533
0.0161966
0.00706655
0.00392537
0.00185318
1.7749e-05
2.47211e-05
2.82648e-05
1.98177e-05
0.00232628
0.00472482
0.00778294
0.0157026
0.0152348
0.00381453
0.000143175
0.000160845
0.00189496
0.0112486
0.0154455
0.00252946
0.0292346
0.000235262
1.91618e-05
0.00122439
0.00817259
0.00182806
3.10776e-05
2.6448e-05
0.000550054
0.00709031
0.0159528
0.0182469
0.0139905
0.000771867
0.000371109
0.0208972
0.0193079
0.000917175
0.000944273
0.012118
0.0181395
0.0157226
0.00590081
0.000196231
0.000141807
0.000328778
0.0050991
0.011105
0.0021317
2.10129e-05
0.00126635
9.64832e-06
8.87934e-06
3.37643e-05
0.00819252
0.00161325
8.36376e-05
2.68745e-05
8.49286e-05
0.00203059
0.012172
0.0194123
0.0102188
0.000971823
0.00859144
0.0235621
0.0234834
0.0122745
0.00146762
0.00926027
0.0194706
0.0116693
0.00146893
0.000142142
0.000143021
0.000357706
0.00308753
0.0109945
0.000362812
1.17422e-05
1.19506e-05
4.24911e-06
5.37042e-06
2.23301e-05
0.00786401
0.00158199
0.000171298
6.63428e-05
9.29371e-05
0.000795752
0.00885707
0.0196166
0.00845648
0.00235283
0.0231552
0.0235453
0.0236548
0.0233167
0.00359987
0.0104137
0.0202942
0.00845081
0.000583204
0.000142266
0.000142619
0.00023414
0.00158327
0.00445925
2.48788e-05
6.44788e-06
4.90868e-06
3.81086e-06
4.45935e-06
4.36631e-06
1.81658e-05
3.84406e-05
0.000160229
0.000267551
0.000260656
0.000545388
0.00674517
0.0202588
0.013528
0.00894239
0.0234676
0.0235875
0.0235008
0.0237282
0.0106135
0.0153457
0.021619
0.00643357
0.000424114
0.00031245
0.000322692
3.85557e-05
3.38198e-05
1.29409e-05
3.05919e-06
3.70242e-06
3.30178e-06
2.28899e-06
1.66845e-06
1.10322e-06
1.35532e-06
5.48888e-06
1.80368e-05
3.17472e-05
4.61523e-05
0.000909199
0.00666984
0.0228923
0.0232361
0.0233419
0.0232887
0.00814254
0.00858828
0.0234582
0.0238969
0.0236675
0.0239695
0.00669222
0.000961383
4.49959e-05
2.5542e-05
1.16375e-05
3.4553e-06
1.14998e-06
9.6099e-07
1.31818e-06
1.90937e-06
1.94948e-06
9.55086e-07
8.2826e-07
8.17812e-07
8.95564e-07
1.44664e-06
2.43176e-06
6.24465e-06
3.02904e-05
0.00369696
0.0231781
0.0234428
0.0230753
0.000368562
3.15554e-05
3.47879e-05
0.00166447
0.0235565
0.0240367
0.0236636
0.0037311
2.52597e-05
4.33296e-06
1.69473e-06
1.14242e-06
8.35889e-07
8.15297e-07
8.31293e-07
9.91102e-07
2.12317e-06
2.31795e-06
1.07655e-06
8.43925e-07
8.13728e-07
7.80759e-07
7.57687e-07
7.49678e-07
7.60724e-07
1.6823e-06
1.83692e-05
0.00928454
0.0168676
0.021502
1.19377e-05
3.78994e-06
4.29967e-06
1.59571e-05
0.0222803
0.0182844
0.00868279
1.55825e-05
1.39955e-06
7.14447e-07
7.22901e-07
7.45664e-07
7.77081e-07
8.14608e-07
8.52157e-07
1.10575e-06
2.37947e-06
2.33847e-06
1.09702e-06
8.56807e-07
8.17332e-07
7.81319e-07
7.39458e-07
7.04636e-07
6.58211e-07
6.24353e-07
1.29805e-06
1.3977e-05
5.3468e-05
2.33159e-05
2.18625e-06
1.27999e-06
1.29262e-06
2.89769e-06
3.26786e-05
5.29669e-05
1.37799e-05
1.20393e-06
6.08445e-07
6.48411e-07
6.96259e-07
7.36416e-07
7.76962e-07
8.16001e-07
8.6076e-07
1.11739e-06
2.3659e-06
2.12327e-06
1.06493e-06
8.57828e-07
8.09762e-07
7.68298e-07
7.30837e-07
6.96807e-07
6.48401e-07
5.98864e-07
6.57989e-07
1.97911e-06
9.41034e-06
3.15191e-06
1.42281e-06
1.16355e-06
1.16417e-06
1.49304e-06
4.3751e-06
1.0242e-05
1.89237e-06
6.32689e-07
5.87672e-07
6.38537e-07
6.84882e-07
7.22417e-07
7.64741e-07
8.07794e-07
8.61547e-07
1.07815e-06
2.11748e-06
1.92719e-06
1.05383e-06
8.61999e-07
8.06221e-07
7.59413e-07
7.22518e-07
6.79319e-07
6.36317e-07
5.82647e-07
5.98096e-07
1.13996e-06
2.29946e-06
2.11454e-06
1.35015e-06
1.04137e-06
1.04138e-06
1.41901e-06
2.30207e-06
2.31213e-06
1.05263e-06
5.77968e-07
5.71767e-07
6.25041e-07
6.72315e-07
7.14095e-07
7.52806e-07
8.03743e-07
8.66825e-07
1.06936e-06
1.92687e-06
1.82041e-06
1.04566e-06
8.60041e-07
7.88068e-07
7.41869e-07
7.05573e-07
6.67357e-07
6.26265e-07
5.65159e-07
5.56456e-07
9.96633e-07
2.28927e-06
2.13556e-06
1.23669e-06
9.20634e-07
9.20594e-07
1.30283e-06
2.3684e-06
2.29061e-06
9.42771e-07
5.38334e-07
5.56347e-07
6.16019e-07
6.57511e-07
6.9916e-07
7.37183e-07
7.86294e-07
8.6355e-07
1.05845e-06
1.81539e-06
1.63216e-06
1.03903e-06
8.57388e-07
7.7729e-07
7.31642e-07
6.90537e-07
6.60724e-07
6.14412e-07
5.60843e-07
5.36796e-07
8.88141e-07
2.22109e-06
2.1181e-06
1.1307e-06
8.26741e-07
8.25756e-07
1.17719e-06
2.34493e-06
2.23791e-06
8.37988e-07
5.21149e-07
5.4997e-07
6.05227e-07
6.51118e-07
6.8257e-07
7.25197e-07
7.74235e-07
8.60868e-07
1.05297e-06
1.63832e-06
1.51967e-06
1.034e-06
8.38513e-07
7.5462e-07
7.09386e-07
6.83764e-07
6.51259e-07
6.12933e-07
5.61473e-07
5.19644e-07
8.04592e-07
2.23599e-06
2.13614e-06
1.05554e-06
7.55258e-07
7.55231e-07
1.06553e-06
2.31609e-06
2.29181e-06
7.56575e-07
5.08771e-07
5.50947e-07
6.01927e-07
6.42483e-07
6.76109e-07
7.05215e-07
7.52128e-07
8.40126e-07
1.04498e-06
1.5239e-06
1.39202e-06
1.01643e-06
8.21056e-07
7.38414e-07
6.99649e-07
6.73564e-07
6.50066e-07
6.16155e-07
5.60076e-07
5.151e-07
7.46804e-07
2.37598e-06
2.25822e-06
1.00174e-06
7.04316e-07
7.05867e-07
9.77865e-07
2.40046e-06
2.51642e-06
7.15936e-07
5.05036e-07
5.48035e-07
6.05065e-07
6.40736e-07
6.66557e-07
6.93702e-07
7.36573e-07
8.23836e-07
1.02837e-06
1.39999e-06
1.3092e-06
9.97309e-07
7.99588e-07
7.21365e-07
6.9114e-07
6.72197e-07
6.54301e-07
6.19389e-07
5.67099e-07
5.26722e-07
7.0908e-07
2.38622e-06
2.27504e-06
9.51544e-07
6.6359e-07
6.651e-07
8.95969e-07
2.34481e-06
2.6255e-06
7.12286e-07
5.19699e-07
5.54509e-07
6.07206e-07
6.45249e-07
6.65825e-07
6.863e-07
7.18399e-07
8.0196e-07
1.01043e-06
1.32058e-06
1.26258e-06
9.70897e-07
7.83653e-07
7.16099e-07
6.88714e-07
6.76592e-07
6.60084e-07
6.27113e-07
5.76294e-07
5.34049e-07
7.09057e-07
2.56035e-06
2.39596e-06
9.19045e-07
6.34886e-07
6.32102e-07
8.45304e-07
2.40398e-06
2.86814e-06
7.39562e-07
5.29323e-07
5.64896e-07
6.14987e-07
6.51394e-07
6.7084e-07
6.84025e-07
7.12775e-07
7.83292e-07
9.79944e-07
1.27449e-06
1.24105e-06
9.42397e-07
7.70211e-07
7.128e-07
6.93132e-07
6.83387e-07
6.69932e-07
6.37608e-07
5.84836e-07
5.4919e-07
7.4605e-07
2.73577e-06
2.52105e-06
8.87183e-07
6.13902e-07
6.09083e-07
8.11532e-07
2.48135e-06
3.12603e-06
8.09102e-07
5.4638e-07
5.73068e-07
6.25982e-07
6.62028e-07
6.78155e-07
6.88875e-07
7.09795e-07
7.69137e-07
9.45033e-07
1.24307e-06
1.21908e-06
8.947e-07
7.51153e-07
7.12058e-07
6.995e-07
6.91581e-07
6.78499e-07
6.47223e-07
5.95393e-07
5.65171e-07
7.97786e-07
2.9467e-06
2.6002e-06
8.61397e-07
6.06377e-07
5.9992e-07
7.76535e-07
2.42849e-06
3.44435e-06
8.95974e-07
5.67798e-07
5.84955e-07
6.35124e-07
6.72549e-07
6.88011e-07
6.96108e-07
7.0999e-07
7.509e-07
8.95555e-07
1.21106e-06
1.13825e-06
8.1899e-07
7.29564e-07
7.12424e-07
7.04439e-07
6.97087e-07
6.84866e-07
6.54107e-07
6.0322e-07
5.78824e-07
8.49101e-07
3.13455e-06
2.72682e-06
8.56163e-07
6.13777e-07
6.07104e-07
7.64918e-07
2.47974e-06
3.73942e-06
9.82578e-07
5.84501e-07
5.93774e-07
6.43339e-07
6.79515e-07
6.94567e-07
7.02271e-07
7.11521e-07
7.31766e-07
8.24797e-07
1.1302e-06
1.05034e-06
7.6177e-07
7.14071e-07
7.06513e-07
7.05033e-07
7.00088e-07
6.87703e-07
6.57936e-07
6.08565e-07
5.84499e-07
8.7036e-07
3.1989e-06
2.92522e-06
9.13191e-07
6.37064e-07
6.29407e-07
7.9288e-07
2.5983e-06
3.79526e-06
1.04919e-06
5.92599e-07
5.99826e-07
6.47859e-07
6.83187e-07
6.97789e-07
7.03436e-07
7.08161e-07
7.17797e-07
7.7023e-07
1.05235e-06
9.88302e-07
7.31272e-07
6.9885e-07
6.97034e-07
7.04423e-07
6.99089e-07
6.85405e-07
6.56486e-07
6.06508e-07
5.84473e-07
8.68209e-07
3.25103e-06
3.31265e-06
1.03574e-06
6.70158e-07
6.59692e-07
8.69893e-07
2.86706e-06
3.87369e-06
1.07258e-06
5.93275e-07
5.97511e-07
6.45795e-07
6.8166e-07
6.96948e-07
7.0297e-07
7.00431e-07
7.02835e-07
7.37518e-07
9.90482e-07
9.45691e-07
7.07776e-07
6.84417e-07
6.8959e-07
7.00567e-07
6.95035e-07
6.80278e-07
6.47615e-07
5.98855e-07
5.7794e-07
8.16453e-07
3.23693e-06
3.85088e-06
1.20767e-06
6.99112e-07
6.92386e-07
9.92964e-07
3.32996e-06
4.02427e-06
1.04914e-06
5.86221e-07
5.8981e-07
6.36239e-07
6.75764e-07
6.92524e-07
6.9981e-07
6.92891e-07
6.89536e-07
7.14467e-07
9.45647e-07
9.07849e-07
6.82784e-07
6.67396e-07
6.82506e-07
6.9029e-07
6.83236e-07
6.66857e-07
6.28971e-07
5.82444e-07
5.62542e-07
7.23101e-07
3.09911e-06
4.18546e-06
1.44279e-06
7.38046e-07
7.26564e-07
1.17185e-06
3.99944e-06
4.17281e-06
9.03042e-07
5.69895e-07
5.74593e-07
6.17343e-07
6.61999e-07
6.82084e-07
6.90806e-07
6.84518e-07
6.73336e-07
6.89186e-07
9.07145e-07
8.61184e-07
6.56861e-07
6.52043e-07
6.73245e-07
6.72489e-07
6.63507e-07
6.43883e-07
6.02472e-07
5.6178e-07
5.47051e-07
6.4218e-07
2.62931e-06
4.5515e-06
1.82302e-06
8.50636e-07
8.18358e-07
1.47167e-06
4.43516e-06
3.74791e-06
7.51161e-07
5.53734e-07
5.56104e-07
5.93291e-07
6.37475e-07
6.64267e-07
6.74486e-07
6.75548e-07
6.573e-07
6.65423e-07
8.58865e-07
8.16101e-07
6.31813e-07
6.42376e-07
6.58448e-07
6.5479e-07
6.42677e-07
6.19173e-07
5.81481e-07
5.46261e-07
5.3363e-07
5.8658e-07
1.90423e-06
5.01932e-06
2.42722e-06
1.01659e-06
9.5992e-07
1.95474e-06
4.98751e-06
2.8881e-06
6.57221e-07
5.40701e-07
5.4234e-07
5.73297e-07
6.13586e-07
6.43396e-07
6.56897e-07
6.6151e-07
6.459e-07
6.40968e-07
8.11624e-07
7.82874e-07
6.19559e-07
6.38741e-07
6.47375e-07
6.43514e-07
6.27308e-07
6.00467e-07
5.67424e-07
5.38474e-07
5.27227e-07
5.6744e-07
1.36258e-06
5.14923e-06
3.10252e-06
1.22736e-06
1.16205e-06
2.56988e-06
5.20669e-06
2.05749e-06
6.21787e-07
5.34148e-07
5.35256e-07
5.60812e-07
5.9536e-07
6.25615e-07
6.446e-07
6.48569e-07
6.3974e-07
6.25425e-07
7.77345e-07
7.65043e-07
6.17119e-07
6.39648e-07
6.42362e-07
6.32238e-07
6.07539e-07
5.79174e-07
5.54546e-07
5.3187e-07
5.27469e-07
5.74211e-07
1.14468e-06
4.92361e-06
3.43352e-06
1.42579e-06
1.36075e-06
2.9447e-06
5.03275e-06
1.60039e-06
6.25819e-07
5.38462e-07
5.31027e-07
5.50116e-07
5.7465e-07
6.04064e-07
6.32932e-07
6.4373e-07
6.39748e-07
6.18594e-07
7.55549e-07
7.44583e-07
6.22142e-07
6.40175e-07
6.32727e-07
6.11966e-07
5.84562e-07
5.62258e-07
5.4891e-07
5.34483e-07
5.42958e-07
6.28516e-07
1.2063e-06
4.28886e-06
3.16142e-06
1.54285e-06
1.49803e-06
2.85169e-06
4.68494e-06
1.55575e-06
6.97479e-07
5.65898e-07
5.40778e-07
5.48173e-07
5.58381e-07
5.80165e-07
6.10247e-07
6.33393e-07
6.40966e-07
6.18491e-07
7.3341e-07
7.24462e-07
6.23079e-07
6.36981e-07
6.21427e-07
5.92885e-07
5.71992e-07
5.61831e-07
5.60482e-07
5.63152e-07
5.96333e-07
7.41487e-07
1.55202e-06
3.48672e-06
2.64446e-06
1.58054e-06
1.57274e-06
2.60148e-06
3.73307e-06
1.82571e-06
8.51266e-07
6.32136e-07
5.77991e-07
5.63339e-07
5.59571e-07
5.68635e-07
5.88514e-07
6.18539e-07
6.35415e-07
6.21289e-07
7.09527e-07
7.03735e-07
6.26122e-07
6.24774e-07
6.07679e-07
5.8513e-07
5.73263e-07
5.76043e-07
5.91423e-07
6.20896e-07
6.88523e-07
9.50999e-07
1.90906e-06
3.14038e-06
2.47923e-06
1.69132e-06
1.7031e-06
2.51998e-06
3.30401e-06
2.20255e-06
1.09397e-06
7.33431e-07
6.43e-07
5.99168e-07
5.75972e-07
5.68727e-07
5.79165e-07
6.01433e-07
6.19029e-07
6.2267e-07
6.89866e-07
6.88728e-07
6.25177e-07
6.07948e-07
5.97288e-07
5.84701e-07
5.92061e-07
6.12882e-07
6.4683e-07
7.0114e-07
8.03414e-07
1.24583e-06
2.28632e-06
3.0786e-06
2.50741e-06
1.90301e-06
1.92773e-06
2.60634e-06
3.28803e-06
2.59491e-06
1.4317e-06
8.90642e-07
7.31915e-07
6.61752e-07
6.14922e-07
5.86303e-07
5.76435e-07
5.87642e-07
6.00962e-07
6.19748e-07
6.73482e-07
6.79105e-07
6.20252e-07
6.00078e-07
5.93892e-07
5.98733e-07
6.32096e-07
6.74782e-07
7.30813e-07
8.00967e-07
1.05697e-06
1.68492e-06
2.74464e-06
3.18706e-06
2.69756e-06
2.25925e-06
2.29489e-06
2.84104e-06
3.42229e-06
3.07763e-06
1.93221e-06
1.19257e-06
8.65489e-07
7.51756e-07
6.81398e-07
6.27775e-07
5.90786e-07
5.80675e-07
5.91048e-07
6.15045e-07
6.65893e-07
6.71244e-07
6.32683e-07
6.0648e-07
6.0319e-07
6.41141e-07
7.05987e-07
7.66522e-07
8.5398e-07
1.07023e-06
1.51682e-06
2.36573e-06
3.34646e-06
3.48338e-06
3.12364e-06
2.82471e-06
2.86434e-06
3.27259e-06
3.71385e-06
3.65431e-06
2.65738e-06
1.71082e-06
1.17965e-06
9.07387e-07
7.811e-07
7.0894e-07
6.40707e-07
5.89934e-07
5.90654e-07
6.22159e-07
6.64418e-07
6.76184e-07
6.65597e-07
6.37491e-07
6.51798e-07
7.33427e-07
8.11349e-07
9.55721e-07
1.19681e-06
1.62398e-06
2.35869e-06
3.41249e-06
4.18922e-06
4.1445e-06
3.88328e-06
3.70508e-06
3.73656e-06
3.9871e-06
4.30064e-06
4.38789e-06
3.67385e-06
2.59807e-06
1.79833e-06
1.30884e-06
1.02165e-06
8.54154e-07
7.59066e-07
6.58435e-07
6.13613e-07
6.48555e-07
6.70027e-07
6.95753e-07
7.32737e-07
7.16472e-07
7.74896e-07
9.2258e-07
1.14283e-06
1.4599e-06
1.96899e-06
2.77454e-06
3.90574e-06
5.05513e-06
5.52959e-06
5.41669e-06
5.25918e-06
5.20149e-06
5.22743e-06
5.32657e-06
5.49725e-06
5.63745e-06
5.29007e-06
4.23849e-06
3.09665e-06
2.22959e-06
1.65746e-06
1.30435e-06
1.07535e-06
8.65521e-07
7.05402e-07
6.94618e-07
6.88744e-07
7.4217e-07
8.34789e-07
8.63761e-07
1.09583e-06
1.50091e-06
1.97923e-06
2.68025e-06
3.74951e-06
5.21294e-06
6.79129e-06
7.84934e-06
8.0841e-06
8.05115e-06
8.09706e-06
8.22591e-06
8.31047e-06
8.3185e-06
8.35638e-06
8.48283e-06
8.47172e-06
7.6787e-06
6.17912e-06
4.58329e-06
3.31459e-06
2.46229e-06
1.92616e-06
1.48708e-06
1.01605e-06
7.94995e-07
7.17334e-07
8.42997e-07
9.44348e-07
1.24035e-06
2.16728e-06
3.0614e-06
4.15955e-06
5.72383e-06
7.83059e-06
1.00844e-05
1.34809e-05
4.32383e-05
7.39397e-05
0.000109066
0.000161641
0.000227691
0.000281166
0.000301465
0.00029691
0.000283708
0.000243433
0.00012233
1.99376e-05
1.04882e-05
7.93014e-06
5.7134e-06
4.06702e-06
2.94686e-06
1.91994e-06
1.0362e-06
8.08528e-07
1.05353e-06
1.2123e-06
2.4823e-06
5.10283e-06
7.05683e-06
9.36143e-06
1.2192e-05
0.000110499
0.000472099
0.00101566
0.00164019
0.0023458
0.0031707
0.00408473
0.0049997
0.00579894
0.0063887
0.00667559
0.00657845
0.00597239
0.00477931
0.00311551
0.00142498
0.000341762
2.20506e-05
1.01217e-05
6.79212e-06
4.23756e-06
1.91224e-06
1.06615e-06
1.53789e-06
2.19086e-06
6.18633e-06
1.1202e-05
5.23124e-05
0.000322304
0.000992374
0.00204431
0.0033663
0.00488531
0.00660961
0.00850383
0.0104252
0.0122496
0.0139143
0.0153945
0.0166392
0.0174883
0.0177618
0.0172997
0.0160501
0.0139755
0.0109691
0.00713215
0.00337607
0.000909746
6.10514e-05
1.01155e-05
4.75225e-06
2.0386e-06
2.83704e-06
5.32316e-06
1.36077e-05
0.000448507
0.00126033
0.0023842
0.00392079
0.00578674
0.0078761
0.010146
0.0125221
0.0148544
0.0169956
0.0188816
0.0205214
0.0219238
0.0230744
0.0238204
0.0242699
0.0244152
0.0242112
0.0235343
0.0220052
0.0189547
0.0139413
0.00775161
0.00274549
0.000335683
1.29446e-05
5.98742e-06
6.54198e-06
1.36218e-05
0.000650878
0.00194554
0.00351207
0.0054066
0.00769487
0.0102754
0.0129743
0.0156507
0.0181568
0.0203584
0.0221926
0.0236604
0.0248164
0.0255813
0.026018
0.0261614
0.0262564
0.0264376
0.0268406
0.0275168
0.0275615
0.0275984
0.0251094
0.0191415
0.0109408
0.00425684
0.000607387
1.7237e-05
1.73334e-05
0.000774375
0.00296715
0.00441464
0.00656902
0.00928301
0.0123219
0.015469
0.0184673
0.021124
0.0233163
0.024987
0.0261377
0.0268183
0.0270689
0.0267709
0.0261082
0.0257114
0.025329
0.0251121
0.025279
0.02612
0.0275002
0.029651
0.0306335
0.0306579
0.0243572
0.014936
0.00472697
0.000188964
0.000288881
0.00420614
0.00737609
0.00856178
0.0109632
0.0143007
0.0178593
0.0211842
0.0239977
0.0261631
0.0276449
0.0284628
0.0286641
0.028345
0.02748
0.0262813
0.0250042
0.0235508
0.0219481
0.0205303
0.0195191
0.0195108
0.0204109
0.0237168
0.0294755
0.0357115
0.0376152
0.0325299
0.013247
0.000366936
0.000230991
0.00508382
0.0132962
0.0149101
0.017061
0.0204294
0.023963
0.0269131
0.0290605
0.0303948
0.0309757
0.0308881
0.0302262
0.0290252
0.0273323
0.0251864
0.0226834
0.0196033
0.0161101
0.0129725
0.00994008
0.00792174
0.00675595
0.00893606
0.0154282
0.0293447
0.0401488
0.0400745
0.0284289
0.00110563
0.000230668
0.00645253
0.020051
0.0232294
0.0245904
0.0272028
0.0300159
0.0321066
0.0333401
0.0338147
0.0336595
0.0329676
0.0317712
0.0300656
0.0278236
0.0250652
0.0211371
0.0162948
0.0110106
0.00634185
0.00259482
0.000874969
0.000382629
0.000635437
0.00150505
0.0106423
0.0355478
0.0402637
0.039848
0.00514804
0.000230084
0.00874717
0.0279287
0.0328409
0.0327438
0.0338321
0.0353792
0.0364399
0.03687
0.0367885
0.0363041
0.0354519
0.0342411
0.0325908
0.0303351
0.027296
0.0231094
0.0175014
0.0107032
0.00368248
0.000523643
3.85131e-05
1.43889e-05
1.44448e-05
1.48713e-05
0.000348566
0.0120042
0.0399005
0.0401271
0.0167294
0.000229891
0.0128821
0.0382025
0.042909
0.0405054
0.0394814
0.0396795
0.0399212
0.0399291
0.0397243
0.0393514
0.0388491
0.0382224
0.0373974
0.0361405
0.0340548
0.0306417
0.0249424
0.0161371
0.00580236
0.000641977
1.83852e-05
1.21487e-05
1.25145e-05
1.13707e-05
1.19721e-05
9.67185e-05
0.0228115
0.0398427
0.0320318
0.000368335
0.0216604
0.0521169
0.0522408
0.0466901
0.0436254
0.0428664
0.0427806
0.0427864
0.0428009
0.0428227
0.0429295
0.0431058
0.0434888
0.0440082
0.0443519
0.0439828
0.0415754
0.0341558
0.018896
0.00282055
4.31412e-05
1.31642e-05
1.1941e-05
1.12964e-05
9.59215e-06
9.40287e-06
0.000946649
0.0338988
0.0369638
0.00126062
0.0366872
0.063204
0.0588709
0.0505055
0.0462541
0.0452187
0.0452846
0.0455579
0.045832
0.0459251
0.0460733
0.0464174
0.04729
0.0489585
0.0515151
0.0548238
0.0583035
0.0596616
0.0520478
0.022482
0.00153969
3.11738e-05
1.29955e-05
1.0888e-05
9.41383e-06
9.43757e-06
1.06756e-05
0.00240516
0.036027
0.00497039
0.0476796
0.0633873
0.0611611
0.0523326
0.0478061
0.0471513
0.0476758
0.0481869
0.0480914
0.0472609
0.0461121
0.0455912
0.0457011
0.0469624
0.0497041
0.0538986
0.0600353
0.0698007
0.0754746
0.0703035
0.0283685
0.00289027
3.55757e-05
1.21738e-05
9.72139e-06
8.93936e-06
9.43671e-06
1.2331e-05
0.00563246
0.0112113
0.0483941
0.0634188
0.0612077
0.0526644
0.0488868
0.0491699
0.0502245
0.0503372
0.0487069
0.0459927
0.042853
0.0398333
0.0378593
0.0379011
0.0404348
0.0453526
0.0526995
0.0636921
0.0755161
0.077381
0.0773456
0.0417176
0.00487222
6.33438e-05
1.16001e-05
1.01742e-05
1.08905e-05
1.04353e-05
0.000606188
0.0163483
0.0477627
0.063429
0.0604565
0.0525441
0.0502829
0.0518195
0.0530285
0.051299
0.0466667
0.0397305
0.0322747
0.0256933
0.0219352
0.0208981
0.0228314
0.027381
0.0348941
0.0464071
0.0650476
0.0772326
0.077619
0.077464
0.0537621
0.00871019
0.000188378
1.30325e-05
1.43949e-05
1.18766e-05
0.000203388
0.0210024
0.0481686
0.0634605
0.0590228
0.0527666
0.0529367
0.0556607
0.0552346
0.0492281
0.0382611
0.025295
0.0149415
0.00816973
0.00611733
0.00543187
0.00636128
0.0086691
0.0135594
0.0219402
0.0379915
0.0642729
0.0775198
0.0776516
0.0775498
0.0622588
0.012974
0.000704626
0.000180187
1.53075e-05
0.000122442
0.0254372
0.0492348
0.0633521
0.0578256
0.0545391
0.0577231
0.0599789
0.0541724
0.039912
0.0216114
0.00823567
0.00250692
0.000697937
0.000562105
0.000482021
0.000616742
0.000925686
0.00207948
0.0046998
0.0116205
0.0298038
0.0627394
0.0775618
0.0776869
0.0776154
0.0630585
0.017871
0.00296075
0.000503391
0.000122489
0.0291922
0.0501824
0.0625488
0.0587714
0.0598042
0.0643399
0.0612505
0.0452176
0.0213321
0.00530928
0.000737601
9.58264e-05
4.1329e-05
4.55708e-05
4.88211e-05
5.88352e-05
6.72491e-05
0.000122684
0.000341718
0.00114835
0.00569072
0.0247209
0.0619345
0.0776122
0.0777059
0.077654
0.0595105
0.0190968
0.00356841
0.000136524
0.032121
0.0518138
0.062827
0.0638126
0.0676255
0.0675748
0.0537714
0.0241431
0.00398792
0.000246373
1.71141e-05
1.53939e-05
3.95354e-05
5.97937e-05
6.4902e-05
6.42581e-05
6.28906e-05
2.17649e-05
1.91111e-05
3.1088e-05
0.000221816
0.00324249
0.0233398
0.0630636
0.0776726
0.0777509
0.077309
0.0560197
0.0147205
0.000246396
0.0358659
0.0564901
0.0677843
0.0708906
0.0713517
0.0649048
0.0301003
0.00409201
7.29395e-05
1.34726e-05
1.29599e-05
1.50476e-05
7.01565e-05
0.000151319
0.000166497
0.000132422
9.28943e-05
3.13461e-05
1.34685e-05
1.33048e-05
1.34682e-05
4.84787e-05
0.00268431
0.0260887
0.0685711
0.0777269
0.0777568
0.0776521
0.0401019
0.00129972
0.0425084
0.0641138
0.0715103
0.0716018
0.0712178
0.0400656
0.00453541
4.73708e-05
1.21182e-05
1.19722e-05
1.34476e-05
2.67621e-05
0.000144055
0.00042537
0.000538001
0.000408947
0.000198699
4.81115e-05
1.37256e-05
1.35481e-05
1.30499e-05
1.2239e-05
3.14514e-05
0.00353068
0.0337951
0.076098
0.0777576
0.0777571
0.0671016
0.00883142
0.0520082
0.0703584
0.0716052
0.0714173
0.0530769
0.0069094
1.47126e-05
1.15413e-05
1.24532e-05
1.35677e-05
6.45948e-05
0.000130951
0.000307961
0.000909003
0.0012139
0.000999931
0.000452375
6.76427e-05
1.70262e-05
1.36237e-05
1.25615e-05
1.20541e-05
1.22204e-05
5.30238e-05
0.00544634
0.0481013
0.0777094
0.0777667
0.076846
0.0285002
0.0613617
0.071555
0.071538
0.0647587
0.014659
2.14282e-05
1.10407e-05
1.1983e-05
1.32885e-05
5.90571e-05
0.000456351
0.000730096
0.000669547
0.00146963
0.00210019
0.00186615
0.000888963
0.000112951
1.60566e-05
1.33919e-05
1.21483e-05
1.11816e-05
1.09647e-05
1.14e-05
2.30297e-05
0.00945449
0.0704593
0.0777883
0.0777234
0.0517832
0.0684228
0.0715543
0.0710855
0.0258788
0.00123336
1.06414e-05
1.16279e-05
1.1906e-05
1.34848e-05
0.00013329
0.000895323
0.0017657
0.00133262
0.00211069
0.00309619
0.00293582
0.00156688
0.000174373
2.01926e-05
1.31141e-05
1.19937e-05
1.04745e-05
9.42543e-06
9.32381e-06
8.64505e-06
6.24841e-05
0.0177937
0.0776007
0.0777866
0.0748681
0.0714273
0.0710889
0.0349009
0.00405974
1.66495e-05
1.12447e-05
1.12358e-05
1.13793e-05
1.2668e-05
0.000123303
0.00152502
0.00300573
0.00213356
0.00303566
0.00426219
0.0041038
0.00248411
0.000353098
3.64418e-05
1.38309e-05
1.22059e-05
1.0688e-05
9.18706e-06
8.21802e-06
8.2944e-06
8.76626e-06
0.00028837
0.0304793
0.0775891
0.07775
0.0675035
0.038925
0.00871894
0.00121334
1.20788e-05
1.31968e-05
1.08757e-05
1.0082e-05
1.18839e-05
0.000169986
0.00297572
0.00464509
0.00313005
0.00457999
0.0058198
0.00546837
0.0037776
0.000900954
7.6845e-05
4.49456e-05
1.30918e-05
1.10545e-05
9.2725e-06
8.03323e-06
7.97443e-06
7.82653e-06
9.82306e-06
0.00144946
0.0372935
0.0776187
0.0399396
0.0124131
0.00231822
0.000472331
1.3626e-05
1.2445e-05
9.64134e-06
8.92911e-06
1.12191e-05
0.000633337
0.00603577
0.00632256
0.00483747
0.00731089
0.00822142
0.00762042
0.00604193
0.00261376
0.00045127
0.000214701
1.71308e-05
1.11693e-05
9.54295e-06
8.08844e-06
7.59888e-06
7.41567e-06
9.95542e-06
1.29817e-05
0.00248955
0.0383865
0.0190527
0.00529937
0.00210845
3.81954e-05
1.66742e-05
9.7205e-06
7.96244e-06
8.41945e-06
1.19962e-05
0.00301833
0.0104771
0.00844638
0.00877979
0.0121993
0.0125427
0.0118615
0.0106307
0.00744466
0.00299661
0.00136112
7.94573e-05
1.19202e-05
9.87275e-06
8.50829e-06
8.88464e-06
1.14691e-05
1.09418e-05
1.19292e-05
1.24994e-05
0.00463481
0.0116895
0.00429687
0.00113137
1.53951e-05
1.22111e-05
8.02367e-06
7.89602e-06
8.6971e-06
0.000292316
0.0104837
0.016001
0.0133972
0.0172589
0.0204132
0.0202456
0.0198
0.0192506
0.0175848
0.0126004
0.00734711
0.00134075
2.21771e-05
1.09685e-05
9.98506e-06
1.25008e-05
0.00121303
6.73162e-05
1.24943e-05
1.20317e-05
0.000548726
0.00676232
0.00131243
0.000191825
1.205e-05
8.71287e-06
8.00802e-06
7.60803e-06
1.20998e-05
0.00562379
0.0227582
0.0240727
0.023856
0.0289775
0.029794
0.0290021
0.0287642
0.0289594
0.0293293
0.027976
0.0230786
0.0118944
0.00159399
1.8598e-05
1.31538e-05
1.48466e-05
0.00166462
0.00356434
0.000246686
1.21557e-05
3.87185e-05
0.00145564
1.39192e-05
1.37921e-05
9.05978e-06
8.20642e-06
7.82867e-06
1.00216e-05
0.00195884
0.0265369
0.0362491
0.0340197
0.0344912
0.0344656
0.0318505
0.0295435
0.0288258
0.0292671
0.0313438
0.0349422
0.0360425
0.0344255
0.0183446
0.00276779
0.000192859
3.27046e-05
6.80688e-05
0.00419699
0.00417169
0.000332598
6.71868e-05
1.88411e-05
9.0823e-06
9.52212e-06
8.25312e-06
7.90871e-06
1.01e-05
0.000852493
0.0273227
0.0462091
0.0440146
0.0388587
0.0347604
0.0310762
0.0257496
0.0226177
0.0213251
0.0219434
0.0244955
0.0294762
0.0360628
0.0416674