/*--------------------------------*- C++ -*----------------------------------*\
| =========                 |                                                 |
| \\      /  F ield         | OpenFOAM: The Open Source CFD Toolbox           |
|  \\    /   O peration     | Version:  v1606+                                |
|   \\  /    A nd           | Web:      www.OpenFOAM.com                      |
|    \\/     M anipulation  |                                                 |
\*---------------------------------------------------------------------------*/
FoamFile
{
    version     2.0;
    format      ascii;
    class       volScalarField;
    location    "0.72";
    object      alpha.air;
}
// * * * * * * * * * * * * * * * * * * * * * * * * * * * * * * * * * * * * * //

dimensions      [0 0 0 0 0 0 0];

internalField   nonuniform List<scalar> 
6000
(
0.580323
0.58032
0.580318
0.580316
0.580277
0.580191
0.580165
0.580163
0.580163
0.580163
0.58029
0.581141
0.580504
0.580458
0.580385
0.580364
0.580353
0.580352
0.58035
0.579083
0.578729
0.578702
0.578682
0.578703
0.578745
0.57882
0.578886
0.578891
0.578906
0.578942
0.595277
0.586574
0.591899
0.590523
0.588645
0.586054
0.581079
0.580164
0.580295
0.590323
0.593073
0.593096
0.586225
0.583746
0.58154
0.58116
0.582884
0.587021
0.59392
0.59392
0.589575
0.578878
0.578705
0.580237
0.585475
0.588638
0.590611
0.592637
0.587119
0.595193
0.665821
0.656891
0.666013
0.668349
0.666562
0.664048
0.652799
0.619647
0.5759
0.574772
0.57468
0.574617
0.574456
0.57443
0.574359
0.57439
0.57422
0.574205
0.573945
0.574086
0.574043
0.576443
0.623492
0.653968
0.664474
0.667628
0.669757
0.668905
0.660571
0.668208
0.715755
0.712576
0.72134
0.728493
0.73375
0.736776
0.736047
0.712364
0.645045
0.575037
0.574771
0.57468
0.574617
0.575683
0.589848
0.588736
0.574384
0.573946
0.574073
0.573934
0.574901
0.650723
0.717292
0.738065
0.738437
0.73407
0.730455
0.725381
0.718241
0.720469
0.695873
0.677502
0.699771
0.722592
0.736788
0.737077
0.736809
0.737043
0.716783
0.628421
0.574766
0.574738
0.610456
0.663574
0.68307
0.682547
0.66118
0.59896
0.573908
0.574072
0.633054
0.723703
0.738998
0.738719
0.739027
0.737904
0.723405
0.704565
0.685101
0.70223
0.623013
0.590798
0.63121
0.676327
0.710136
0.731859
0.737034
0.736795
0.736885
0.685134
0.579963
0.611419
0.714104
0.736442
0.738588
0.739251
0.738935
0.703412
0.589757
0.573727
0.689826
0.738895
0.738708
0.738985
0.731182
0.708329
0.67703
0.637086
0.59802
0.630961
0.520981
0.501831
0.536033
0.589531
0.64052
0.68761
0.724342
0.736956
0.736746
0.711993
0.660994
0.710652
0.739034
0.738966
0.728352
0.73984
0.743091
0.74336
0.686965
0.641332
0.711866
0.738663
0.738895
0.723837
0.684203
0.637485
0.590418
0.54064
0.503326
0.527794
0.463531
0.461867
0.473471
0.503921
0.554437
0.609374
0.676764
0.720588
0.732299
0.724945
0.723789
0.73928
0.739035
0.717003
0.677712
0.704802
0.739359
0.743119
0.743234
0.708189
0.724547
0.73525
0.721613
0.673114
0.605814
0.552007
0.503967
0.474246
0.46179
0.465682
0.456183
0.456185
0.45704
0.465396
0.492907
0.534605
0.608453
0.67349
0.712753
0.726631
0.739328
0.739104
0.72827
0.658593
0.603578
0.635417
0.701426
0.743344
0.74311
0.738961
0.728508
0.717121
0.674468
0.602532
0.532094
0.491322
0.465223
0.457339
0.456906
0.456904
0.456176
0.456176
0.456179
0.456696
0.468472
0.49879
0.556495
0.601737
0.666647
0.723742
0.73907
0.739285
0.684189
0.588713
0.544191
0.565035
0.62624
0.724364
0.743332
0.743081
0.728001
0.675946
0.606673
0.550176
0.496339
0.468046
0.457282
0.4569
0.456895
0.456898
0.456208
0.456189
0.456179
0.456187
0.462862
0.491023
0.529407
0.527261
0.588308
0.71573
0.739005
0.72763
0.612785
0.530242
0.506442
0.513517
0.543152
0.665882
0.743072
0.743154
0.726362
0.614225
0.537621
0.522594
0.48709
0.462464
0.456907
0.456898
0.456916
0.456931
0.529296
0.476704
0.456241
0.456185
0.459355
0.479631
0.49747
0.477722
0.512451
0.700307
0.739036
0.693944
0.537737
0.484216
0.472683
0.475164
0.488816
0.579211
0.724166
0.743009
0.716676
0.561366
0.487226
0.493657
0.477218
0.458778
0.456908
0.45698
0.489112
0.537682
0.724618
0.663979
0.538371
0.456288
0.456714
0.460313
0.464551
0.460205
0.507809
0.659633
0.715417
0.634624
0.485638
0.467942
0.467959
0.467951
0.467973
0.499033
0.667913
0.724866
0.678034
0.549814
0.464899
0.463897
0.460376
0.458728
0.460397
0.570762
0.681541
0.728261
0.776086
0.77561
0.706148
0.550124
0.456821
0.456773
0.456815
0.457741
0.509613
0.595031
0.645254
0.580473
0.524017
0.467994
0.467942
0.467959
0.467968
0.480998
0.595655
0.662297
0.613222
0.533594
0.469781
0.45885
0.458743
0.458849
0.578244
0.723811
0.776939
0.777327
0.776086
0.772345
0.745889
0.664425
0.505866
0.456893
0.456924
0.537082
0.544799
0.548902
0.582097
0.614577
0.70624
0.671752
0.520943
0.473347
0.530294
0.590426
0.591677
0.593443
0.559414
0.545701
0.590388
0.545678
0.485276
0.524211
0.658076
0.722767
0.753664
0.761659
0.755777
0.739894
0.70941
0.668979
0.607407
0.567042
0.647729
0.758153
0.710812
0.620979
0.664349
0.778396
0.866597
0.822411
0.731544
0.676947
0.718422
0.783215
0.682705
0.640809
0.617128
0.685256
0.798606
0.739877
0.641577
0.614905
0.631183
0.668196
0.700296
0.713358
0.70461
0.688748
0.655343
0.629473
0.634864
0.697551
0.823129
0.89615
0.887436
0.835462
0.857855
0.912915
0.904098
0.842266
0.757594
0.705708
0.760618
0.861193
0.863418
0.814813
0.80827
0.865553
0.887079
0.823706
0.691534
0.592403
0.573897
0.606956
0.639906
0.651313
0.641819
0.637245
0.610981
0.596939
0.629624
0.741893
0.865678
0.926806
0.941654
0.938328
0.940855
0.939724
0.907778
0.841856
0.757275
0.705952
0.754106
0.87889
0.938072
0.928742
0.9262
0.926499
0.900016
0.814058
0.660915
0.548067
0.527788
0.556635
0.583515
0.590098
0.57683
0.588092
0.567328
0.565772
0.612981
0.745187
0.870551
0.929762
0.945444
0.94544
0.945438
0.939844
0.905742
0.839357
0.757253
0.705759
0.750134
0.884765
0.948992
0.948905
0.947339
0.931014
0.887343
0.790009
0.635364
0.525276
0.512977
0.521598
0.537345
0.540815
0.514675
0.541856
0.527134
0.524978
0.552577
0.669861
0.829547
0.915226
0.943221
0.945438
0.945434
0.936939
0.900433
0.833446
0.753381
0.705624
0.749803
0.892239
0.948909
0.948922
0.945828
0.920435
0.858389
0.759069
0.634012
0.518331
0.506232
0.50629
0.512814
0.511778
0.465032
0.485904
0.483061
0.491467
0.510557
0.581154
0.728172
0.85712
0.922728
0.940218
0.941768
0.929931
0.891111
0.823593
0.746484
0.705561
0.756878
0.905398
0.948921
0.948909
0.937752
0.89618
0.817936
0.711806
0.588679
0.519276
0.506293
0.506153
0.506707
0.500706
0.441762
0.448559
0.450594
0.455551
0.466987
0.509671
0.607728
0.740736
0.854872
0.909483
0.922529
0.911032
0.873539
0.808339
0.736956
0.70554
0.773758
0.919165
0.948909
0.945229
0.921367
0.864566
0.769696
0.651939
0.54991
0.51318
0.507519
0.506046
0.505405
0.49502
0.435715
0.436892
0.437915
0.43912
0.44185
0.451733
0.492316
0.593018
0.717102
0.82333
0.868257
0.866414
0.837966
0.780573
0.721603
0.705688
0.802617
0.925885
0.9456
0.934258
0.899773
0.830793
0.724698
0.604566
0.528096
0.504168
0.499533
0.496256
0.493371
0.481128
0.435689
0.435684
0.435687
0.43565
0.435673
0.435665
0.440518
0.46694
0.554005
0.668839
0.756991
0.784522
0.768441
0.731573
0.702234
0.717839
0.838193
0.92408
0.934649
0.917244
0.876178
0.799838
0.688415
0.574487
0.512023
0.49114
0.481616
0.473819
0.467328
0.459477
0.435703
0.436177
0.435968
0.435698
0.435584
0.435632
0.435501
0.435633
0.452648
0.512689
0.604317
0.664606
0.67267
0.664826
0.684698
0.747729
0.86024
0.914495
0.916304
0.897229
0.853518
0.772431
0.654859
0.550029
0.494995
0.473459
0.460921
0.45303
0.44816
0.445628
0.438797
0.444758
0.447546
0.450345
0.448591
0.443032
0.435621
0.435437
0.435495
0.445253
0.48672
0.549314
0.583058
0.59099
0.661445
0.770679
0.864408
0.897527
0.894484
0.87525
0.833132
0.750847
0.623504
0.519879
0.47423
0.456113
0.447032
0.445346
0.445333
0.445327
0.450674
0.461773
0.474333
0.495775
0.503125
0.501441
0.476156
0.439294
0.43538
0.435376
0.443405
0.476565
0.513637
0.523654
0.635719
0.77139
0.858471
0.875209
0.869428
0.850507
0.812978
0.737106
0.609076
0.493274
0.459094
0.449377
0.446602
0.445354
0.445368
0.445345
0.461486
0.476572
0.494672
0.519302
0.530057
0.553004
0.560257
0.489201
0.44077
0.435323
0.435308
0.446039
0.469187
0.490185
0.618303
0.754135
0.834124
0.845123
0.83791
0.820247
0.787238
0.722695
0.614488
0.500685
0.461766
0.45987
0.463054
0.454369
0.475693
0.457594
0.472111
0.497788
0.520833
0.527553
0.536592
0.574938
0.591056
0.552171
0.475528
0.438513
0.435264
0.437072
0.449816
0.485793
0.579765
0.703301
0.780797
0.800438
0.795491
0.780856
0.750745
0.695688
0.609333
0.51754
0.478545
0.481961
0.482281
0.483181
0.502878
0.516438
0.49094
0.524646
0.55798
0.555613
0.559371
0.59105
0.590981
0.568458
0.503221
0.453731
0.435231
0.434533
0.443643
0.478861
0.526544
0.629151
0.698186
0.732224
0.737373
0.728351
0.700626
0.650854
0.583817
0.517219
0.494368
0.509668
0.513291
0.481479
0.482678
0.516462
0.493826
0.518933
0.569299
0.577072
0.578913
0.590974
0.59105
0.547366
0.507914
0.466928
0.439564
0.434497
0.439679
0.476849
0.526076
0.575925
0.601546
0.634377
0.65908
0.658713
0.636765
0.591836
0.542983
0.509474
0.510952
0.529164
0.52454
0.479683
0.463141
0.501111
0.471166
0.490906
0.548632
0.572055
0.576939
0.580898
0.543945
0.493625
0.489365
0.465988
0.442327
0.434492
0.436874
0.474376
0.531545
0.554374
0.521898
0.529661
0.567507
0.579459
0.56238
0.526752
0.498534
0.492168
0.50466
0.529281
0.522363
0.478403
0.463002
0.464631
0.469717
0.469731
0.504774
0.552846
0.557413
0.535296
0.482063
0.460853
0.45263
0.45029
0.439945
0.434457
0.43457
0.465268
0.530894
0.541558
0.471583
0.471896
0.501672
0.512664
0.500475
0.48166
0.471953
0.471219
0.480125
0.506926
0.502237
0.469027
0.46298
0.462867
0.483164
0.506299
0.522463
0.534635
0.532104
0.517559
0.496715
0.479688
0.449386
0.445801
0.438234
0.434465
0.434458
0.45327
0.527972
0.54254
0.471644
0.471596
0.471643
0.473226
0.47069
0.470683
0.470677
0.470681
0.470686
0.470705
0.477632
0.467919
0.462769
0.462884
0.781882
0.792505
0.744763
0.684012
0.669195
0.682684
0.721318
0.761672
0.62637
0.470476
0.444283
0.43444
0.43448
0.44351
0.520546
0.58111
0.546918
0.576779
0.58885
0.537967
0.498512
0.482466
0.479473
0.486068
0.505651
0.545353
0.571285
0.577058
0.564175
0.542465
0.947919
0.95641
0.945974
0.923279
0.915176
0.922309
0.931849
0.935666
0.842816
0.580321
0.463608
0.435102
0.434396
0.436167
0.493086
0.6523
0.78412
0.833787
0.844185
0.803433
0.754802
0.732875
0.73029
0.740832
0.77744
0.822139
0.843197
0.852481
0.849513
0.840318
0.964822
0.972875
0.975746
0.974548
0.972025
0.968246
0.962928
0.95434
0.915146
0.696229
0.475192
0.444828
0.434485
0.434469
0.462676
0.664613
0.824288
0.89331
0.923147
0.928325
0.924797
0.923734
0.926693
0.933908
0.946513
0.958345
0.96431
0.966228
0.963786
0.957373
0.966543
0.973302
0.976373
0.976333
0.973712
0.966841
0.957733
0.949023
0.934916
0.819308
0.522348
0.46026
0.434539
0.434506
0.444167
0.558593
0.740647
0.862262
0.921185
0.937436
0.940928
0.943625
0.947773
0.954201
0.962615
0.970537
0.97522
0.976412
0.973408
0.967031
0.967816
0.973738
0.9764
0.975947
0.971514
0.961782
0.950585
0.942732
0.938376
0.911069
0.710277
0.473305
0.446153
0.434521
0.435256
0.469709
0.628253
0.815113
0.906582
0.932632
0.937227
0.940424
0.944983
0.951767
0.960621
0.969396
0.97504
0.976708
0.973923
0.968002
0.969259
0.974268
0.976413
0.975052
0.968323
0.956637
0.945184
0.938014
0.934377
0.930207
0.886427
0.660554
0.474795
0.436701
0.435257
0.446788
0.529949
0.755139
0.887528
0.926445
0.932352
0.936634
0.942301
0.949831
0.958796
0.967952
0.974622
0.976921
0.974452
0.968954
0.970845
0.974813
0.97644
0.974021
0.965487
0.952598
0.941032
0.934285
0.930979
0.930155
0.925154
0.873575
0.635506
0.464696
0.43538
0.440259
0.491988
0.692862
0.875388
0.920825
0.927611
0.933575
0.941061
0.94944
0.958294
0.967203
0.974384
0.977271
0.975238
0.970267
0.972515
0.975427
0.976481
0.973171
0.963495
0.950065
0.938249
0.93121
0.927488
0.924975
0.925006
0.918487
0.838347
0.552663
0.440569
0.440299
0.477547
0.66944
0.873981
0.914888
0.922074
0.930709
0.940705
0.949826
0.958409
0.967002
0.974338
0.977761
0.976276
0.971915
0.974271
0.976125
0.976548
0.972581
0.962453
0.949054
0.937
0.928755
0.923937
0.920425
0.918415
0.918393
0.890126
0.680838
0.453947
0.440357
0.467401
0.689299
0.883397
0.908036
0.915592
0.927797
0.940874
0.951175
0.959277
0.967075
0.974336
0.978283
0.977509
0.973765
0.976007
0.976812
0.976612
0.972206
0.962118
0.94891
0.936772
0.927268
0.920217
0.915296
0.912475
0.910454
0.897623
0.759405
0.477873
0.440458
0.461664
0.77822
0.891035
0.899903
0.908342
0.924826
0.941546
0.953467
0.961131
0.967568
0.974334
0.978722
0.97882
0.975663
0.977487
0.977282
0.976631
0.971955
0.962104
0.949496
0.93752
0.926869
0.916884
0.909432
0.905774
0.903475
0.8941
0.787581
0.519899
0.447767
0.52794
0.841111
0.891698
0.891726
0.90043
0.921689
0.942262
0.956008
0.963661
0.968722
0.974328
0.97898
0.980017
0.977511
0.978332
0.977446
0.9766
0.971785
0.962388
0.951314
0.939979
0.927508
0.914578
0.903683
0.897898
0.895432
0.888326
0.800499
0.559617
0.457709
0.636333
0.853345
0.88516
0.884431
0.892578
0.918229
0.942539
0.957956
0.966214
0.970436
0.974483
0.979054
0.980868
0.979251
0.97838
0.977451
0.976494
0.971613
0.963115
0.954335
0.944126
0.930248
0.913836
0.898236
0.889592
0.8868
0.881863
0.815322
0.600448
0.484485
0.681848
0.842223
0.876516
0.877593
0.88506
0.914458
0.941777
0.958901
0.968127
0.972281
0.974951
0.978983
0.981286
0.980806
0.978366
0.977346
0.976245
0.971389
0.96436
0.957908
0.948907
0.934314
0.914264
0.89364
0.880928
0.877762
0.874402
0.82185
0.626029
0.51403
0.683875
0.831028
0.868318
0.871049
0.878519
0.910076
0.939786
0.959071
0.969089
0.973744
0.975739
0.978778
0.981384
0.982076
0.978358
0.977127
0.975768
0.971169
0.966004
0.961248
0.953045
0.938348
0.915865
0.890163
0.872772
0.868715
0.865769
0.823125
0.642172
0.526519
0.666656
0.815484
0.859301
0.864053
0.872188
0.905374
0.936505
0.958149
0.969316
0.974541
0.976619
0.978568
0.981201
0.982964
0.978352
0.976899
0.975068
0.971064
0.967721
0.963725
0.95578
0.941263
0.917645
0.887871
0.865517
0.859682
0.856532
0.816886
0.655687
0.541228
0.658939
0.799705
0.849526
0.856493
0.865669
0.899483
0.931996
0.955652
0.968917
0.974775
0.977292
0.978476
0.980652
0.98345
0.978328
0.97672
0.974352
0.971232
0.969138
0.965079
0.957066
0.942781
0.918793
0.88651
0.859411
0.85064
0.846717
0.806886
0.664009
0.564094
0.656005
0.786571
0.839244
0.848559
0.858896
0.891895
0.926224
0.951726
0.967506
0.974731
0.977664
0.978556
0.979966
0.983641
0.977956
0.976554
0.973913
0.971833
0.97002
0.965524
0.957408
0.94323
0.919232
0.885742
0.8541
0.841568
0.836422
0.797145
0.667599
0.582216
0.659601
0.776787
0.82887
0.840291
0.851878
0.883464
0.919101
0.946673
0.964879
0.97424
0.977824
0.978908
0.979562
0.983707
0.977158
0.976374
0.973809
0.972639
0.970394
0.965552
0.957369
0.943185
0.91927
0.884943
0.849284
0.832258
0.825291
0.786868
0.673446
0.600146
0.662783
0.76688
0.818596
0.832141
0.844727
0.874652
0.910815
0.940518
0.961116
0.972937
0.977865
0.979449
0.97949
0.983769
0.976435
0.976187
0.974043
0.973259
0.970474
0.965231
0.956598
0.941721
0.917465
0.883026
0.844687
0.822911
0.812561
0.772297
0.675552
0.618917
0.666648
0.758231
0.809517
0.824499
0.837018
0.865184
0.901589
0.933138
0.956235
0.970668
0.977628
0.97987
0.979773
0.983923
0.976174
0.976029
0.974619
0.973583
0.970334
0.964345
0.954693
0.938754
0.914131
0.879584
0.839605
0.813208
0.798779
0.75793
0.674409
0.629823
0.674331
0.755437
0.802136
0.816859
0.828278
0.854764
0.891256
0.924635
0.950234
0.967373
0.976705
0.980024
0.980541
0.984222
0.976176
0.975912
0.975195
0.973671
0.969718
0.962565
0.951507
0.934535
0.909529
0.874787
0.833432
0.802686
0.783523
0.741034
0.672951
0.644745
0.680166
0.749121
0.79422
0.808584
0.818397
0.843292
0.879803
0.91521
0.943331
0.963148
0.974847
0.979881
0.981363
0.984559
0.976332
0.975756
0.975419
0.973323
0.96817
0.959551
0.94703
0.929142
0.903894
0.86912
0.825772
0.790364
0.766329
0.726093
0.672548
0.652999
0.683874
0.7419
0.782973
0.799013
0.808213
0.831281
0.867402
0.904905
0.935768
0.958196
0.972163
0.979175
0.98169
0.984642
0.976557
0.975413
0.975081
0.972022
0.965366
0.955275
0.941389
0.922652
0.897137
0.862394
0.816827
0.77594
0.747559
0.708453
0.667855
0.661689
0.687419
0.733202
0.768813
0.786799
0.798402
0.819242
0.854457
0.893842
0.92761
0.952682
0.968897
0.977795
0.981636
0.984631
0.976615
0.974762
0.973807
0.969418
0.961342
0.949933
0.934671
0.914943
0.888994
0.853865
0.806754
0.760737
0.7282
0.693007
0.664207
0.66565
0.688432
0.724272
0.753972
0.771845
0.785833
0.807067
0.841913
0.882738
0.919135
0.946775
0.965147
0.975832
0.981298
0.984625
0.976599
0.973706
0.971322
0.965558
0.956227
0.94341
0.926569
0.905569
0.879014
0.843249
0.794487
0.744808
0.709197
0.678248
0.659681
0.66727
0.688443
0.713518
0.736695
0.753548
0.768848
0.793186
0.829722
0.871851
0.910552
0.940581
0.960926
0.973357
0.980485
0.984608
0.976616
0.972187
0.967923
0.960793
0.950056
0.935434
0.916729
0.894236
0.866782
0.830171
0.780229
0.727778
0.690887
0.664955
0.655308
0.665689
0.682919
0.700233
0.717506
0.732524
0.749571
0.777081
0.816315
0.860111
0.901223
0.933721
0.95602
0.970181
0.979028
0.984606
0.976585
0.970291
0.964096
0.955353
0.94266
0.925758
0.904914
0.880657
0.851919
0.81442
0.763972
0.710557
0.674287
0.654051
0.651011
0.66208
0.674897
0.6856
0.697355
0.710197
0.728375
0.759225
0.801139
0.846557
0.890137
0.925574
0.950127
0.965951
0.976631
0.984275
0.976582
0.968042
0.959895
0.949025
0.933688
0.913958
0.890477
0.864059
0.833755
0.795324
0.745039
0.693303
0.660313
0.646287
0.647124
0.657465
0.665561
0.670566
0.676896
0.686383
0.704392
0.737767
0.782621
0.829458
0.875194
0.914601
0.942634
0.960351
0.972776
0.982524
0.976559
0.965307
0.954989
0.941368
0.922655
0.899443
0.872679
0.843722
0.811668
0.771808
0.72243
0.675551
0.648568
0.640639
0.64335
0.651626
0.655219
0.65568
0.657324
0.662796
0.678951
0.712609
0.75845
0.806172
0.853194
0.897998
0.932227
0.952945
0.966624
0.977801
0.976154
0.961773
0.948756
0.931723
0.908905
0.881335
0.850495
0.81845
0.783806
0.742288
0.695347
0.656111
0.637693
0.635368
0.639
0.643974
0.643924
0.640778
0.639046
0.640346
0.65238
0.683507
0.728906
0.777297
0.824878
0.874822
0.917567
0.94335
0.957626
0.969004
0.974023
0.956965
0.940449
0.919297
0.89138
0.85815
0.822078
0.785756
0.747352
0.705176
0.664229
0.636284
0.626867
0.627638
0.630915
0.632742
0.63027
0.624883
0.620572
0.61931
0.625995
0.650827
0.692807
0.74265
0.79368
0.848132
0.899204
0.931394
0.946292
0.956158
0.969139
0.950002
0.929266
0.902751
0.868007
0.827173
0.784334
0.742468
0.701141
0.662028
0.630992
0.614543
0.61107
0.612412
0.614136
0.613601
0.61036
0.605172
0.600476
0.598348
0.601197
0.618703
0.654313
0.703494
0.758202
0.8177
0.877676
0.917964
0.933977
0.940101
0.961341
0.939681
0.91376
0.879629
0.835276
0.784481
0.734392
0.687438
0.646007
0.61331
0.592594
0.583841
0.582076
0.581983
0.581579
0.579925
0.577604
0.574901
0.572683
0.57177
0.574208
0.586428
0.614559
0.659641
0.716957
0.782194
0.851631
0.902878
0.921429
0.922519
0.950366
0.924436
0.891292
0.84604
0.788616
0.727057
0.66998
0.62012
0.58169
0.556508
0.543042
0.536955
0.533794
0.53144
0.529503
0.528045
0.527641
0.528284
0.529863
0.532365
0.536826
0.546569
0.568405
0.607928
0.665762
0.73822
0.817856
0.88388
0.908217
0.904865
0.934653
0.901411
0.857395
0.796365
0.723278
0.652896
0.59113
0.544765
0.515598
0.498836
0.489202
0.483222
0.479045
0.47616
0.474485
0.474039
0.474985
0.477338
0.481042
0.486064
0.492547
0.501405
0.516926
0.54849
0.601558
0.678916
0.770254
0.856973
0.89311
0.887985
0.910621
0.865045
0.804998
0.723944
0.638592
0.566346
0.514339
0.484717
0.46878
0.459752
0.454242
0.450701
0.448421
0.447093
0.446528
0.446633
0.447414
0.448953
0.45139
0.454963
0.460027
0.467108
0.477573
0.496618
0.535805
0.604932
0.704834
0.814672
0.873244
0.87282
0.871673
0.807049
0.726733
0.629584
0.548539
0.494886
0.46732
0.454555
0.448004
0.444202
0.441896
0.440493
0.439666
0.43924
0.439107
0.43922
0.439588
0.440274
0.441419
0.443244
0.446033
0.450252
0.456677
0.467047
0.488143
0.535353
0.628965
0.751227
0.842526
0.857123
0.807612
0.720651
0.625913
0.537632
0.484164
0.458792
0.448263
0.443328
0.44072
0.439189
0.438312
0.437887
0.4378
0.437795
0.437793
0.437794
0.437799
0.437878
0.438285
0.439128
0.440555
0.44286
0.446621
0.452616
0.463274
0.488957
0.555509
0.672136
0.791062
0.836196
0.710481
0.612999
0.532726
0.47991
0.4553
0.445524
0.441551
0.439656
0.438771
0.438394
0.43826
0.438191
0.438179
0.438153
0.438097
0.43802
0.437954
0.437933
0.437951
0.438044
0.438506
0.439584
0.441575
0.44501
0.451125
0.463708
0.499618
0.590394
0.714464
0.798646
0.594919
0.518996
0.478369
0.455685
0.444965
0.44106
0.439911
0.439669
0.439655
0.440136
0.44089
0.441616
0.442064
0.442266
0.442161
0.441905
0.441402
0.440787
0.440023
0.439323
0.438968
0.439148
0.439669
0.441187
0.444514
0.451566
0.468853
0.520962
0.623011
0.729487
0.514013
0.472726
0.456449
0.446067
0.441238
0.440833
0.44083
0.442193
0.444935
0.448302
0.451546
0.453672
0.454745
0.455191
0.45495
0.454723
0.453701
0.452135
0.44953
0.446467
0.443339
0.441154
0.440349
0.440437
0.441341
0.445218
0.454782
0.478172
0.538139
0.632069
0.501085
0.461612
0.446875
0.441454
0.440905
0.441546
0.444889
0.451361
0.462048
0.469736
0.474407
0.475796
0.47561
0.475204
0.474963
0.475339
0.475514
0.475099
0.472111
0.467031
0.458931
0.449537
0.44406
0.441496
0.441349
0.441903
0.44718
0.458399
0.486081
0.544735
0.501043
0.456094
0.441577
0.43937
0.440908
0.445392
0.454998
0.472016
0.492061
0.496419
0.4953
0.492266
0.488116
0.486155
0.486351
0.486824
0.489344
0.490983
0.491993
0.491878
0.487019
0.470364
0.454273
0.445523
0.441562
0.440538
0.442405
0.449077
0.471107
0.513493
0.499666
0.450042
0.438562
0.438909
0.443021
0.453215
0.471515
0.494535
0.49792
0.497921
0.497808
0.497093
0.491668
0.488522
0.488707
0.488941
0.489329
0.491245
0.494749
0.496692
0.496701
0.495118
0.473318
0.454096
0.444329
0.440496
0.439589
0.4437
0.467111
0.513632
0.487306
0.443594
0.438313
0.43925
0.447338
0.464639
0.487051
0.500419
0.497842
0.497838
0.498112
0.499105
0.495104
0.489952
0.489002
0.48966
0.489358
0.491701
0.494254
0.495819
0.496538
0.502745
0.493264
0.467244
0.44954
0.441214
0.438231
0.440167
0.462671
0.513647
0.468104
0.439592
0.438316
0.440674
0.454784
0.479799
0.500122
0.500411
0.497835
0.498559
0.500115
0.501104
0.497869
0.491006
0.489065
0.489772
0.490387
0.492484
0.49308
0.494308
0.496027
0.503623
0.50663
0.482578
0.457393
0.443268
0.437878
0.437802
0.456323
0.513635
0.454574
0.438425
0.438287
0.444619
0.468389
0.498578
0.513469
0.506859
0.500636
0.5031
0.502189
0.501714
0.497698
0.49243
0.490285
0.490347
0.491825
0.493619
0.494994
0.495455
0.498012
0.506175
0.514332
0.497495
0.467759
0.446953
0.438082
0.437321
0.448558
0.504239
0.446386
0.438332
0.438348
0.454502
0.487706
0.506196
0.516928
0.516859
0.504532
0.504563
0.500744
0.500938
0.496384
0.492225
0.492168
0.491573
0.492154
0.494785
0.499253
0.500752
0.50528
0.513073
0.523037
0.514954
0.480632
0.453396
0.43921
0.437329
0.441978
0.482182
0.440906
0.43837
0.444568
0.47054
0.490533
0.492782
0.510105
0.523271
0.50972
0.502495
0.494604
0.494239
0.491587
0.489678
0.491621
0.490541
0.491132
0.493889
0.499032
0.506592
0.514982
0.52371
0.53628
0.540852
0.501071
0.462389
0.442063
0.437277
0.439017
0.462758
0.439128
0.440264
0.456306
0.472916
0.478384
0.471868
0.495208
0.52596
0.520872
0.499133
0.488356
0.485082
0.485039
0.485525
0.487181
0.486285
0.487318
0.490484
0.496842
0.506371
0.519922
0.53165
0.54927
0.561742
0.528334
0.46787
0.447385
0.437343
0.437663
0.451135
0.439155
0.448361
0.460222
0.465249
0.464597
0.46546
0.494707
0.534391
0.53599
0.501831
0.487749
0.483929
0.483153
0.483298
0.48316
0.483164
0.483497
0.486293
0.493193
0.504194
0.51955
0.532261
0.550657
0.563537
0.536766
0.474007
0.457286
0.439459
0.437675
0.443342
0.444084
0.456883
0.457888
0.458774
0.46426
0.476601
0.509198
0.536101
0.536101
0.512564
0.493511
0.489693
0.483171
0.483124
0.483161
0.483119
0.483162
0.48364
0.48902
0.499954
0.51679
0.530611
0.548688
0.563536
0.527478
0.500594
0.465674
0.447506
0.438023
0.439376
0.469866
0.465835
0.460466
0.467961
0.483183
0.506249
0.530203
0.536101
0.536101
0.522426
0.506823
0.502405
0.485239
0.483157
0.483119
0.483157
0.483119
0.483159
0.485525
0.493491
0.51133
0.525142
0.543308
0.562506
0.532252
0.517474
0.46458
0.453822
0.442215
0.439133
0.56721
0.497343
0.4772
0.501406
0.5081
0.519217
0.529983
0.535085
0.533099
0.521234
0.512557
0.510003
0.501096
0.487957
0.483152
0.483108
0.483157
0.483118
0.483158
0.490542
0.505588
0.517236
0.53622
0.558346
0.547549
0.51567
0.476045
0.456351
0.446469
0.439771
0.577902
0.568711
0.528706
0.527272
0.512836
0.511497
0.514729
0.518741
0.51535
0.511045
0.510143
0.511518
0.516041
0.508267
0.491873
0.485497
0.483262
0.484567
0.488011
0.494039
0.511739
0.518262
0.531765
0.546991
0.547016
0.524585
0.492079
0.46281
0.449213
0.441499
0.577902
0.577902
0.559774
0.52629
0.500436
0.489206
0.488902
0.491839
0.491563
0.494466
0.501349
0.509118
0.520532
0.525853
0.519517
0.512946
0.511643
0.514099
0.512849
0.516937
0.539825
0.532832
0.531262
0.524028
0.533109
0.530189
0.509825
0.477704
0.460415
0.445944
0.577902
0.571519
0.54098
0.501058
0.476674
0.474456
0.475678
0.476744
0.47878
0.48272
0.49003
0.501324
0.518401
0.530144
0.536598
0.539839
0.543668
0.54604
0.548476
0.552308
0.553877
0.553705
0.531661
0.503535
0.512153
0.528457
0.528142
0.494107
0.496991
0.459323
0.573567
0.52988
0.495187
0.472038
0.469587
0.474275
0.474562
0.47578
0.475389
0.477705
0.483052
0.491909
0.507747
0.522582
0.532476
0.539775
0.547194
0.553342
0.553849
0.55386
0.553863
0.553858
0.539231
0.503532
0.50353
0.524192
0.547771
0.529368
0.538352
0.483986
0.527994
0.479422
0.466625
0.465881
0.469593
0.480234
0.477607
0.476198
0.473599
0.473969
0.476833
0.480947
0.488235
0.499014
0.509497
0.520139
0.531008
0.5415
0.550534
0.553848
0.553859
0.553847
0.549722
0.506691
0.503526
0.531469
0.57179
0.577553
0.566544
0.521395
0.475161
0.461917
0.461938
0.465886
0.479156
0.488734
0.482804
0.474749
0.468498
0.467107
0.467365
0.467451
0.468144
0.471397
0.476438
0.483611
0.493061
0.505493
0.522155
0.538187
0.54753
0.552732
0.550649
0.525975
0.518691
0.554861
0.587612
0.587464
0.584106
0.553528
0.461188
0.461184
0.462766
0.479598
0.496744
0.49428
0.480805
0.466392
0.459722
0.458331
0.457568
0.456818
0.456422
0.456699
0.457576
0.4594
0.462674
0.468528
0.478942
0.495166
0.513004
0.528538
0.535404
0.530283
0.538952
0.574276
0.587466
0.587549
0.587433
0.571843
0.463353
0.463173
0.470758
0.510555
0.508209
0.491165
0.468426
0.455131
0.452495
0.452516
0.452828
0.453426
0.454233
0.454996
0.455547
0.455956
0.456211
0.456574
0.457777
0.461865
0.470933
0.483975
0.496894
0.512978
0.533992
0.571015
0.587543
0.587451
0.587246
0.574554
0.513243
0.488338
0.491269
0.512899
0.504362
0.473793
0.453229
0.449019
0.449924
0.451707
0.453043
0.454298
0.455562
0.456634
0.457395
0.45788
0.458037
0.458032
0.457961
0.457967
0.458075
0.459812
0.465264
0.478595
0.503448
0.542138
0.57341
0.584853
0.578044
0.5723
0.553091
0.541938
0.528218
0.512962
0.480455
0.452939
0.447226
0.448287
0.450801
0.453533
0.455947
0.45823
0.460228
0.461749
0.462827
0.463485
0.463737
0.463654
0.462828
0.461468
0.460121
0.459657
0.459643
0.460742
0.469515
0.493237
0.529641
0.557233
0.554892
0.566936
0.553092
0.553091
0.531735
0.487287
0.453241
0.4466
0.447161
0.450469
0.455316
0.459491
0.462668
0.465468
0.467237
0.468519
0.469435
0.469976
0.470662
0.470646
0.470567
0.469329
0.466926
0.463791
0.461817
0.460795
0.461021
0.464764
0.48162
0.508965
0.525433
0.557763
0.553091
0.542932
0.495772
0.454176
0.446584
0.446596
0.450698
0.458406
0.464776
0.468742
0.470667
0.473067
0.472524
0.472905
0.473077
0.473199
0.474112
0.473537
0.475317
0.474906
0.474553
0.471257
0.468814
0.465313
0.462738
0.462761
0.462777
0.472057
0.495482
0.539684
0.543326
0.494444
0.454228
0.446576
0.446557
0.450899
0.460971
0.470028
0.473595
0.475203
0.475205
0.476397
0.475499
0.474637
0.474223
0.474096
0.474709
0.4744
0.477925
0.475401
0.478607
0.478498
0.479699
0.475601
0.469382
0.464042
0.461923
0.459934
0.470687
0.511042
0.497017
0.453351
0.446565
0.446549
0.450484
0.461135
0.470923
0.472637
0.47429
0.475291
0.476291
0.476427
0.476427
0.475589
0.475
0.474346
0.474793
0.475504
0.478561
0.476313
0.481349
0.484112
0.484116
0.482583
0.475553
0.469032
0.46385
0.459131
0.458164
0.48123
0.455318
0.446555
0.446543
0.449667
0.459729
0.468694
0.470825
0.471629
0.473551
0.474962
0.476354
0.476441
0.476433
0.475657
0.474895
0.474205
0.474572
0.476025
0.478555
0.47782
0.488129
0.491573
0.481146
0.478787
0.473772
0.468866
0.466234
0.46068
0.456934
0.461511
0.44654
0.446546
0.448682
0.46
0.466478
0.470655
0.470717
0.472363
0.475739
0.477012
0.477043
0.476454
0.476437
0.475165
0.474111
0.473653
0.47392
0.475674
0.478023
0.479847
0.500551
0.504698
0.479213
0.470609
0.468133
0.46597
0.465392
0.463621
0.456944
0.454301
0.446557
0.454832
0.461262
0.476598
0.474819
0.476169
0.474772
0.478835
0.481426
0.480478
0.477949
0.47628
0.475632
0.473993
0.473102
0.47298
0.473151
0.475906
0.479989
0.48773
0.516182
0.518007
0.488836
0.472916
0.466394
0.4634
0.46341
0.463889
0.465322
0.454301
0.457332
0.494479
0.482127
0.498744
0.49048
0.491818
0.48892
0.488949
0.48403
0.480004
0.476854
0.474851
0.47354
0.472619
0.472439
0.472457
0.474129
0.481864
0.489104
0.501407
0.518528
0.518528
0.508449
0.489022
0.47647
0.464902
0.463501
0.46364
0.484275
0.476391
0.511221
0.513992
0.498532
0.503657
0.503584
0.503592
0.500343
0.489074
0.48073
0.476229
0.473777
0.472334
0.471631
0.471723
0.4721
0.473842
0.482231
0.49612
0.498921
0.507646
0.518528
0.518528
0.5183
0.508594
0.499555
0.483929
0.483559
0.474948
0.518248
0.553153
0.513969
0.513977
0.503049
0.501162
0.500059
0.499539
0.493769
0.481032
0.473168
0.471328
0.470913
0.47061
0.471219
0.472137
0.474459
0.482243
0.496165
0.499239
0.499039
0.503981
0.511046
0.513351
0.513614
0.509216
0.508531
0.508834
0.520386
0.526469
0.556236
0.556219
0.513956
0.506274
0.487322
0.482073
0.480965
0.480254