/*--------------------------------*- C++ -*----------------------------------*\
| =========                 |                                                 |
| \\      /  F ield         | OpenFOAM: The Open Source CFD Toolbox           |
|  \\    /   O peration     | Version:  v1606+                                |
|   \\  /    A nd           | Web:      www.OpenFOAM.com                      |
|    \\/     M anipulation  |                                                 |
\*---------------------------------------------------------------------------*/
FoamFile
{
    version     2.0;
    format      ascii;
    class       volScalarField;
    location    "0.72";
    object      alphat.air;
}
// * * * * * * * * * * * * * * * * * * * * * * * * * * * * * * * * * * * * * //

dimensions      [1 -1 -1 0 0 0 0];

internalField   nonuniform List<scalar> 
6000
(
0.000365406
0.00333233
0.00530013
0.00577949
0.00595199
0.00604814
0.00610254
0.00614061
0.00616316
0.00618804
0.00621067
0.00622833
0.00623631
0.00624221
0.00624721
0.00624783
0.00624494
0.00624258
0.00623605
0.00621949
0.00619612
0.00617304
0.00614732
0.00610733
0.00605107
0.00595392
0.00578038
0.00530234
0.0033332
0.00036521
0.000273764
0.00184875
0.00365606
0.00476356
0.00535204
0.00570003
0.00593451
0.00607828
0.00616517
0.00624372
0.00633197
0.00640518
0.00646152
0.00650058
0.00652219
0.00653033
0.00652276
0.00649427
0.00644634
0.00637267
0.00629395
0.00621616
0.00613053
0.00597724
0.00573373
0.00537716
0.00478359
0.00367355
0.00185994
0.000274085
0.000233209
0.00149317
0.00305052
0.00425108
0.00512174
0.00571889
0.00612891
0.00639878
0.00658762
0.00674902
0.00691417
0.0070475
0.00714439
0.00721092
0.00725606
0.00726534
0.00724021
0.00719396
0.00711233
0.00699014
0.00683742
0.00669041
0.00650415
0.00621894
0.00579187
0.0051784
0.00429408
0.00307967
0.00151176
0.000233972
0.00020273
0.00121881
0.00267835
0.0039564
0.00495839
0.00574212
0.00633645
0.00681694
0.00720579
0.0074663
0.00770656
0.00793919
0.00816034
0.00834935
0.00845284
0.0084663
0.00838855
0.0082177
0.00802446
0.00781479
0.00760035
0.00735608
0.00695876
0.00646711
0.00585123
0.00503927
0.0040148
0.00271821
0.00124228
0.000204013
0.000176884
0.00118652
0.00257532
0.00383952
0.00491951
0.00581429
0.00653522
0.0071621
0.0077297
0.00818807
0.0085337
0.00888342
0.00920631
0.00940789
0.00950254
0.00952446
0.0094676
0.00928576
0.00898356
0.00867125
0.00836368
0.00792025
0.00735166
0.00671078
0.00596355
0.0050406
0.00392226
0.0026211
0.00120618
0.000178459
0.000167739
0.00139593
0.00285091
0.00410899
0.00516126
0.00608093
0.00688119
0.00760464
0.0082745
0.00889413
0.0094018
0.00984356
0.0101252
0.0102724
0.0103522
0.0103867
0.0103601
0.0102557
0.00998094
0.00956944
0.0091052
0.0085067
0.00784563
0.00710968
0.00628743
0.00532617
0.00422476
0.00291659
0.0014153
0.000168825
0.000171622
0.00167393
0.0032673
0.00457776
0.00568987
0.00663308
0.00746368
0.00821625
0.00892223
0.00962976
0.0102817
0.0107127
0.0109106
0.0110421
0.0111215
0.0111651
0.0111563
0.0110876
0.0109298
0.010509
0.00988472
0.00920194
0.00850686
0.00775467
0.00690471
0.00591984
0.00474976
0.00337063
0.00171069
0.000172659
0.000184762
0.00196371
0.00375054
0.0051672
0.00632326
0.00730519
0.0081582
0.00892071
0.00964226
0.0103888
0.0110727
0.0114818
0.011676
0.0117997
0.0118788
0.0119319
0.0119407
0.0118936
0.0117621
0.0113808
0.0107078
0.00997966
0.00927388
0.00851304
0.00764331
0.00662605
0.00541732
0.00392555
0.00204087
0.000186527
0.000201922
0.00215355
0.00415574
0.00571431
0.00695549
0.00799787
0.00889053
0.00968031
0.0104143
0.0111531
0.0118138
0.012234
0.0124385
0.0125642
0.0126468
0.0127043
0.012724
0.0126918
0.012549
0.0121827
0.0115415
0.0108234
0.010111
0.00932493
0.00841549
0.00733947
0.0060421
0.00439848
0.00226672
0.000205846
0.000218202
0.00231442
0.00448031
0.00618139
0.00753861
0.00866353
0.00960774
0.0104386
0.0112117
0.0119423
0.0125563
0.012979
0.0132024
0.0133513
0.0134517
0.0135028
0.0135176
0.013483
0.013344
0.0129772
0.0124001
0.0117093
0.0109705
0.0101456
0.00918255
0.00802143
0.00660111
0.00479659
0.00246409
0.000224504
0.000237616
0.00246131
0.0047544
0.00658289
0.00805842
0.00927806
0.0102941
0.0111829
0.0120166
0.0127403
0.0132877
0.0136985
0.013981
0.0141738
0.0143004
0.0143468
0.0143403
0.0142826
0.0141249
0.0137794
0.0132781
0.0126248
0.0118434
0.0109626
0.00992828
0.00866487
0.00711146
0.00515331
0.00265186
0.000246052
0.00024999
0.00253576
0.00495158
0.00690554
0.00851156
0.00984553
0.010959
0.0119397
0.0128306
0.0135073
0.0139898
0.0144135
0.0147919
0.015049
0.0151898
0.0152371
0.0152175
0.0151153
0.0149029
0.0145723
0.0141403
0.0135671
0.012757
0.0117995
0.0106665
0.00927283
0.00756291
0.00544023
0.00275935
0.000261735
0.000263575
0.00254216
0.00498332
0.00711335
0.00889777
0.0103903
0.0116451
0.0127414
0.0136459
0.0142563
0.014717
0.0151951
0.0157084
0.0160089
0.0161257
0.0161661
0.0161714
0.0160533
0.0157538
0.0154037
0.0150196
0.0145494
0.0137688
0.0127246
0.0114355
0.00984748
0.00791848
0.00559958
0.00282876
0.000278642
0.000264227
0.00254293
0.00505677
0.00723014
0.00921753
0.0109395
0.0123692
0.0135859
0.0144693
0.0150598
0.015571
0.0161464
0.0168205
0.0171249
0.0171303
0.0171536
0.0172538
0.0172029
0.016807
0.0163943
0.0160207
0.0155955
0.014909
0.0137978
0.0122875
0.0104083
0.00824562
0.00579011
0.00287057
0.000281556
0.000260981
0.00247705
0.00509982
0.00741002
0.00952378
0.0115074
0.013171
0.0144344
0.015267
0.0158833
0.0165068
0.0171824
0.0178205
0.0180819
0.0181353
0.0182408
0.01847
0.0185364
0.0180847
0.017598
0.0171695
0.0167131
0.0160932
0.0149179
0.0131968
0.0110454
0.0086537
0.00594563
0.0028482
0.000281174
0.000257694
0.00243837
0.00519115
0.00770921
0.00998952
0.0120789
0.0138176
0.01503
0.01585
0.0165373
0.017221
0.0178256
0.0182617
0.0185224
0.0187267
0.018992
0.0193373
0.0194871
0.019203
0.0187472
0.0182486
0.0176659
0.0169119
0.0157371
0.0139999
0.0117642
0.0091697
0.00619806
0.00291218
0.000284662
0.000260353
0.00251881
0.00544453
0.00812406
0.0104983
0.0125281
0.0140817
0.0151929
0.016044
0.0167938
0.0174458
0.0179505
0.018345
0.0186658
0.0189503
0.0193102
0.0197291
0.0199309
0.01981
0.0194544
0.0189208
0.0181913
0.0172586
0.0161199
0.0145276
0.0123567
0.0096743
0.00652701
0.00304594
0.000294799
0.00027137
0.00271061
0.00579028
0.0085561
0.0109192
0.012807
0.0142023
0.0152378
0.0160878
0.0168256
0.0174348
0.0179175
0.0183229
0.0186803
0.0190297
0.0194448
0.0198946
0.0201121
0.0200197
0.0197172
0.0191741
0.0183939
0.0174965
0.0163898
0.0148796
0.0127834
0.0100817
0.00684769
0.00321309
0.000308178
0.000286604
0.00290746
0.00610515
0.00890303
0.0112154
0.0129813
0.0142802
0.0152729
0.0160802
0.0167751
0.0173625
0.0178433
0.0182616
0.0186447
0.0190338
0.0194892
0.0199751
0.020213
0.0200796
0.0197527
0.0192152
0.0184959
0.0176393
0.016558
0.0150977
0.0130551
0.0103778
0.00712696
0.00337941
0.000320544
0.000298741
0.00306054
0.00631081
0.00909614
0.0113607
0.0130704
0.0143281
0.0153024
0.0160861
0.0167433
0.0173042
0.0177768
0.0181952
0.0185868
0.0189993
0.019486
0.020005
0.020244
0.0200705
0.0197202
0.0192103
0.0185501
0.01771
0.0166286
0.0151928
0.013201
0.0105604
0.00731987
0.00350734
0.000330171
0.000304836
0.00316381
0.00642844
0.00917327
0.0113789
0.0130653
0.0143099
0.0152863
0.0160788
0.0167238
0.0172615
0.0177207
0.0181319
0.0185256
0.0189522
0.0194633
0.0199994
0.0202078
0.0199915
0.0196423
0.0191751
0.0185459
0.0177094
0.0166222
0.0151789
0.0132116
0.0106357
0.00742424
0.00359402
0.00033676
0.000307264
0.00319677
0.00644644
0.00914528
0.0113006
0.0129716
0.0142234
0.0152004
0.0160104
0.0166707
0.0172034
0.0176564
0.0180658
0.0184642
0.0189055
0.0194306
0.0199445
0.0200814
0.0198507
0.0195111
0.0190744
0.0184696
0.0176418
0.0165523
0.0150984
0.0131498
0.0106332
0.00746687
0.00364792
0.000340701
0.00030819
0.00319707
0.00641839
0.00907342
0.0111786
0.0128225
0.0140866
0.0150717
0.0158827
0.0165719
0.0171313
0.0175935
0.0180072
0.0184125
0.0188616
0.0193803
0.0198219
0.0198612
0.0196174
0.0193197
0.0189203
0.0183272
0.0175143
0.0164307
0.0149804
0.0130618
0.0105958
0.00747196
0.0036765
0.000342177
0.000308084
0.00318354
0.00637996
0.00900466
0.0110794
0.0127006
0.0139567
0.0149355
0.0157391
0.016432
0.0170347
0.0175335
0.0179611
0.0183726
0.0188118
0.0192884
0.0196142
0.0195634
0.0193468
0.0190721
0.0186774
0.0181192
0.0173399
0.0162726
0.0148418
0.0129601
0.0105383
0.00745179
0.00368017
0.000341462
0.000307991
0.00317004
0.00635438
0.0089713
0.0110334
0.0126399
0.0138842
0.014856
0.0156344
0.0163022
0.0169107
0.0174515
0.0179125
0.0183251
0.0187366
0.0191229
0.0193133
0.0192422
0.0190549
0.0187884
0.0184053
0.0178755
0.0171267
0.016087
0.0146852
0.0128402
0.0104558
0.00740426
0.00366865
0.000340054
0.000309063
0.00316055
0.00635211
0.00897676
0.0110458
0.0126573
0.0138944
0.0148357
0.0155937
0.0162354
0.0168092
0.0173478
0.0178305
0.0182343
0.0185957
0.0188893
0.0189976
0.0189276
0.0187558
0.0184828
0.0181078
0.0176061
0.01689
0.0158814
0.0145108
0.0127022
0.0103546
0.00734051
0.00364804
0.000339435
0.000311227
0.00316978
0.0063918
0.00902812
0.0111006
0.0127153
0.0139486
0.0148738
0.0155974
0.0162075
0.0167469
0.0172426
0.0176983
0.0180787
0.0183986
0.0186204
0.0186899
0.0186278
0.0184534
0.018173
0.0178051
0.017328
0.0166473
0.0156699
0.0143368
0.0125715
0.0102733
0.00730266
0.00363792
0.000341577
0.000313541
0.00319466
0.00642185
0.00904964
0.0111267
0.0127497
0.0139895
0.0149148
0.0156211
0.0161961
0.0166982
0.0171452
0.0175468
0.0178829
0.0181734
0.0183457
0.0183975
0.0183393
0.0181515
0.017871
0.0175149
0.0170585
0.0164171
0.0154851
0.0142011
0.0124898
0.0102476
0.00730351
0.00363182
0.000348152
0.000317125
0.00322499
0.00644295
0.00905796
0.0111372
0.0127435
0.013969
0.0149174
0.0156275
0.0161858
0.0166523
0.0170604
0.0174102
0.0177049
0.0179505
0.0180881
0.0181267
0.0180648
0.0178707
0.0175953
0.0172531
0.0168103
0.0162007
0.0153247
0.0140938
0.0124313
0.0102303
0.00731928
0.00366982
0.000350499
0.000322198
0.0032625
0.00648191
0.00908457
0.0111466
0.0127292
0.0139359
0.0148673
0.0155983
0.0161629
0.0166129
0.0169912
0.0173117
0.0175888
0.0177891
0.0178851
0.0178976
0.0178228
0.0176264
0.0173586
0.0170292
0.0165985
0.0160048
0.0151585
0.0139549
0.0123339
0.0101955
0.00733614
0.00367672
0.000349993
0.000325587
0.00330437
0.00652099
0.00909237
0.0111167
0.012678
0.0138621
0.0147933
0.0155504
0.0161281
0.0165733
0.0169411
0.0172585
0.0175441
0.0177569
0.0178081
0.0177635
0.0176551
0.0174463
0.0171854
0.0168674
0.0164413
0.0158459
0.0149985
0.0138026
0.012207
0.0101036
0.00729854
0.00367391
0.000345571
0.000327093
0.00334846
0.00654437
0.00907463
0.0110508
0.0125714
0.0137431
0.0147068
0.0154932
0.0160793
0.0165275
0.0169004
0.0172358
0.017555
0.0178145
0.0178692
0.0177888
0.0176337
0.0174037
0.0171331
0.0168022
0.016358
0.0157355
0.0148557
0.0136429
0.012051
0.00996749
0.00722031
0.0036423
0.000342923
0.000326812
0.00337475
0.00657947
0.00907578
0.0110009
0.0124944
0.0136973
0.0146785
0.015433
0.0160035
0.0164565
0.0168431
0.0172117
0.0175858
0.0179148
0.0180107
0.0179403
0.017822
0.0175907
0.017278
0.0168941
0.0163962
0.0157159
0.0147859
0.0135383
0.0119225
0.00985611
0.00715065
0.00361735
0.000341913
0.000336768
0.00340587
0.00661382
0.00910595
0.0110412
0.0125536
0.0137615
0.014689
0.0153859
0.0158888
0.0163377
0.0167396
0.0171469
0.017596
0.0180307
0.0182028
0.0181704
0.0181365
0.0179411
0.0175988
0.0171421
0.0165572
0.0158134
0.0148518
0.0135937
0.0119618
0.00986786
0.00715317
0.003628
0.000344059
0.0003553
0.00337519
0.00661969
0.00919348
0.0112019
0.0127491
0.0139341
0.014819
0.01532
0.0156924
0.0161427
0.0165605
0.0170003
0.0175241
0.0180865
0.0184322
0.0185855
0.0186367
0.0184507
0.0180152
0.0174559
0.0168192
0.0160424
0.0150656
0.0138118
0.0121913
0.0100702
0.00727545
0.00367977
0.000360573
0.000350182
0.00336369
0.00665593
0.00927248
0.0112592
0.0127516
0.0138468
0.0146509
0.0151526
0.0154481
0.0158546
0.0162754
0.0167262
0.0172845
0.0179502
0.0185013
0.0187609
0.018811
0.0186314
0.0182439
0.0177428
0.0171172
0.0163567
0.0153988
0.0141588
0.0125246
0.0103513
0.0074418
0.00371825
0.0003776
0.000344157
0.00338292
0.00663089
0.00917916
0.0110638
0.0124699
0.0134958
0.014228
0.0147303
0.0150507
0.0154091
0.0158521
0.0163085
0.0168441
0.0175039
0.0181237
0.0184384
0.0184801
0.0183115
0.0179695
0.0175305
0.0169731
0.0162647
0.0153501
0.0141465
0.0125434
0.0104099
0.00752703
0.00378882
0.000377296
0.000346388
0.00338239
0.00654726
0.00898313
0.010764
0.0120794
0.0130554
0.0137332
0.0142315
0.014584
0.0148693
0.0153221
0.015778
0.0162696
0.0168499
0.0174367
0.0178
0.0178791
0.0177283
0.0174201
0.0170193
0.0165065
0.0158473
0.0149892
0.0138497
0.0123392
0.0102966
0.007496
0.00382474
0.000378722
0.000346459
0.00332079
0.00637737
0.00871133
0.0104134
0.0116618
0.0125789
0.0132329
0.0137318
0.0141172
0.0143804
0.0147174
0.0151679
0.0156263
0.0161216
0.0166356
0.0170235
0.0171421
0.0170552
0.0168022
0.0164427
0.0159671
0.0153467
0.0145319
0.013441
0.0120111
0.0100428
0.00734477
0.00377548
0.000381444
0.000344542
0.00320709
0.00615638
0.00839998
0.0100348
0.0112225
0.0120914
0.0127383
0.0132432
0.0136478
0.0139541
0.0141958
0.0145354
0.0149628
0.0153893
0.01582
0.0161836
0.0163303
0.0163078
0.0161265
0.0158207
0.0153879
0.0148047
0.0140244
0.0129757
0.0115925
0.00967501
0.00705439
0.00363223
0.000379658
0.000340074
0.00308575
0.0059218
0.00808072
0.0096437
0.0107703
0.0116051
0.0122497
0.0127611
0.0131786
0.0135114
0.0137799
0.0139939
0.0143147
0.0146846
0.015034
0.0153369
0.0154885
0.0155201
0.0154083
0.0151606
0.0147735
0.0142273
0.013478
0.012474
0.0111202
0.00925342
0.00672031
0.00344472
0.000373927
0.000334577
0.00296809
0.00569104
0.0077626
0.00924624
0.0103158
0.0111292
0.0117676
0.0122824
0.0127061
0.0130495
0.0133315
0.0135522
0.0137305
0.0140273
0.0142893
0.014529
0.0146606
0.0147295
0.0146724
0.0144789
0.0141371
0.0136277
0.0129104
0.0119468
0.0106218
0.00882109
0.00638854
0.00326947
0.000365333
0.000328903
0.00285516
0.0054654
0.00744325
0.00884713
0.00987194
0.0106623
0.0112921
0.0118053
0.0122287
0.0125748
0.0128529
0.0130762
0.0132093
0.0133947
0.0135841
0.0137606
0.0138703
0.0139604
0.0139365
0.013787
0.0134876
0.0130149
0.0123409
0.011403
0.0101222
0.00839772
0.00607646
0.00310853
0.000356542
0.000323212
0.00274431
0.00524012
0.00712102
0.00845254
0.00943871
0.0102063
0.0108243
0.0113304
0.0117469
0.0120895
0.012358
0.012575
0.0127075
0.0127752
0.0128995
0.0130019
0.0131304
0.013221
0.0132105
0.0130893
0.012829
0.0124006
0.0117623
0.0108629
0.00963615
0.00799217
0.00578781
0.00296436
0.000348109
0.000317388
0.00263157
0.00501106
0.0067955
0.00806533
0.00901746
0.00976319
0.0103656
0.0108587
0.0112629
0.0115965
0.0118535
0.0120591
0.0121846
0.0121831
0.0122319
0.0122605
0.0124398
0.0125146
0.0124995
0.0123916
0.0121641
0.0117784
0.0111862
0.0103385
0.00917079
0.00760672
0.00551931
0.00283459
0.00034034
0.000311181
0.00251413
0.00477629
0.00647039
0.0076884
0.00861034
0.00933428
0.00991667
0.0103913
0.0107791
0.0110975
0.0113441
0.0115335
0.0116421
0.0116165
0.0115888
0.0116223
0.011776
0.0118295
0.0118029
0.0116965
0.0114954
0.011157
0.0106215
0.00983147
0.00872799
0.00724108
0.00526579
0.00271575
0.000333265
0.000304449
0.00239586
0.00454073
0.00615092
0.00732435
0.00821827
0.00891896
0.00947739
0.00992865
0.0102966
0.0105973
0.010834
0.0110086
0.0111106
0.011081
0.0109927
0.0110427
0.011139
0.0111653
0.0111193
0.011007
0.0108285
0.0105407
0.0100705
0.00934574
0.00830902
0.0068952
0.0050233
0.00260447
0.000326847
0.000297614
0.00228311
0.0043115
0.00584244
0.00697508
0.00784102
0.00851568
0.0090464
0.00947059
0.00981638
0.0100997
0.0103262
0.0104906
0.0105867
0.0105585
0.0104524
0.01047
0.0105215
0.0105171
0.010448
0.0103269
0.0101685
0.0099329
0.00953375
0.00888154
0.00791412
0.00657011
0.00479042
0.0024977
0.000320916
0.000290809
0.00217801
0.00409304
0.00554878
0.00664156
0.00747786
0.00812312
0.00862292
0.0090175
0.00933983
0.00960773
0.00982496
0.00998244
0.010072
0.0100406
0.0099256
0.00990023
0.00991527
0.0098825
0.00979075
0.00966033
0.00952025
0.00933608
0.00900947
0.00843586
0.00754217
0.00626704
0.00456873
0.00239415
0.000315283
0.000284132
0.00207681
0.00388601
0.00527199
0.00632434
0.0071283
0.00774077
0.0082069
0.00857033
0.0088691
0.00912332
0.00933395
0.00948692
0.00956985
0.00953552
0.00940387
0.00934594
0.00932624
0.00926564
0.0091519
0.00901226
0.00888779
0.00875189
0.0084962
0.00800903
0.0071912
0.00598723
0.00436191
0.00229449
0.000309796
0.000277564
0.00197149
0.00368803
0.00501202
0.0060236
0.00679186
0.00736813
0.00779834
0.00813008
0.00840626
0.0086489
0.00885559
0.00900633
0.00908443
0.00904518
0.0089038
0.00881341
0.00876219
0.00867329
0.00853721
0.00838733
0.00827387
0.00817933
0.0079926
0.00759179
0.00685923
0.00573165
0.00417546
0.00220216
0.000304426
0.000270806
0.00185915
0.00349763
0.00476822
0.00573837
0.00646721
0.00700372
0.00739625
0.00769691
0.00795266
0.00818615
0.00839152
0.00854295
0.0086172
0.00857152
0.00842703
0.00831304
0.00822977
0.00811122
0.0079517
0.0077894
0.00768059
0.00761717
0.00749424
0.00717794
0.00654495
0.00549898
0.00401309
0.00212069
0.00029917
0.000263693
0.00175015
0.00331958
0.00454077
0.00546684
0.00615163
0.0066446
0.00699839
0.00726992
0.00750864
0.00773615
0.00794256
0.00809724
0.00816896
0.00812286
0.00797845
0.00784557
0.00773141
0.00758269
0.00739868
0.00722116
0.00711
0.0070666
0.0070012
0.00676157
0.00622832
0.00527773
0.00387378
0.00205355
0.00029412
0.000256462
0.00166101
0.00316094
0.00432967
0.00520653
0.00584155
0.00628754
0.00660258
0.00684822
0.00707449
0.00730015
0.00751074
0.00767119
0.0077429
0.00770047
0.0075626
0.0074126
0.007268
0.00709008
0.00688052
0.00668421
0.00656417
0.00653215
0.0065115
0.00634003
0.00591219
0.00507248
0.00375377
0.00200063
0.000289476
0.000249437
0.00159445
0.00302387
0.00413418
0.00495429
0.00553322
0.00592995
0.00620747
0.00643148
0.00665053
0.00687886
0.00709773
0.00726555
0.00734104
0.0073044
0.00717338
0.00701436
0.00684401
0.0066361
0.0063984
0.0061791
0.00604338
0.00601185
0.0060197
0.00590557
0.00558468
0.00486035
0.00364356
0.00196018
0.000285297
0.000242808
0.00154953
0.0029067
0.00395106
0.00470591
0.00522301
0.00557019
0.00581235
0.00601963
0.00623667
0.00647192
0.00670224
0.00687968
0.00696391
0.00693855
0.00682057
0.00665371
0.00645767
0.00622011
0.00595299
0.00570656
0.00554877
0.00550792
0.00553012
0.00547553
0.00524409
0.00463274
0.00352868
0.00192387
0.000281619
0.000236907
0.00152441
0.00280586
0.00377526
0.0044571
0.00490813
0.00520734
0.00541759
0.00561299
0.00583315
0.00608011
0.0063246
0.00651553
0.00661481
0.00660503
0.00649961
0.00632896
0.00610957
0.00584117
0.00554347
0.00526721
0.005082
0.00502387
0.00504962
0.00504741
0.00487066
0.00438384
0.00340564
0.00188644
0.00027814
0.000231977
0.00150005
0.00271176
0.00360029
0.00420365
0.00458812
0.00484152
0.00502379
0.00521129
0.00543837
0.00570093
0.00596264
0.00617257
0.00629156
0.00630197
0.00621223
0.00603955
0.00579925
0.00549926
0.00516851
0.0048606
0.00464381
0.00456296
0.00458691
0.00461786
0.004483
0.0041165
0.00326701
0.00184537
0.000275041
0.000227971
0.00147629
0.00261861
0.0034211
0.0039432
0.00426533
0.00447355
0.00463255
0.00481603
0.00505379
0.0053367
0.0056189
0.00585195
0.00599533
0.0060289
0.00595514
0.00578175
0.00552284
0.00519471
0.00482869
0.00448581
0.00423514
0.00412508
0.00413788
0.00418609
0.00409827
0.00381836
0.00309873
0.00179421
0.000272042
0.00022476
0.00145047
0.00251958
0.00323316
0.00367436
0.00394071
0.0041051
0.00424521
0.00442832
0.00468015
0.00498564
0.00529263
0.00555324
0.00572454
0.00578307
0.00572583
0.00555306
0.00527481
0.00492339
0.00452153
0.00413954
0.00385211
0.00370906
0.00370341
0.00375569
0.00372102
0.00349197
0.00290139
0.00172916
0.000269008
0.000222117
0.00141745
0.00240846
0.00303274
0.00339627
0.00361412
0.00373831
0.00386321
0.00404913
0.00431781
0.00464699
0.00498424
0.00527619
0.00547797
0.00556136
0.00551912
0.00534891
0.00505657
0.00467711
0.00424677
0.00382345
0.00349556
0.00331786
0.00328831
0.00333776
0.00335008
0.00315646
0.00268443
0.00165445
0.000265972
0.000219759
0.00137509
0.00227995
0.00281697
0.00310937
0.00328442
0.0033761
0.00348913
0.00368145
0.00397174
0.00432755
0.00469446
0.00502273
0.00525374
0.00535963
0.00533037
0.00516439
0.00486175
0.00445687
0.00400005
0.00353563
0.00316432
0.00295105
0.00289465
0.00293827
0.00297363
0.00280466
0.00242061
0.00153475
0.000262557
0.000217342
0.00131854
0.00213014
0.00258419
0.00281899
0.0029493
0.00301771
0.00312496
0.0033284
0.0036441
0.00402553
0.00442953
0.00479174
0.00504898
0.00517302
0.00515467
0.00499366
0.00468646
0.00426734
0.00377281
0.00327974
0.00286169
0.00260919
0.00252351
0.00255423
0.00259679
0.00245137
0.00211999
0.00135387
0.000257891
0.000215
0.0012475
0.00195822
0.00233363
0.00252487
0.00261159
0.00266539
0.00277488
0.00299674
0.00333914
0.00374502
0.00419179
0.00458255
0.0048593
0.00499618
0.00498666
0.00483156
0.00452866
0.00409942
0.00357758
0.00305339
0.00259167
0.00229509
0.00217966
0.00219079
0.0022316
0.00210444
0.0018073
0.00111521
0.000250643
0.000211344
0.00115945
0.00176203
0.00206457
0.00222379
0.00227611
0.00232355
0.00244427
0.00269312
0.00305463
0.00350243
0.00398115
0.00439212
0.00467909
0.004824
0.00482242
0.00467586
0.00438381
0.00395389
0.00342294
0.00285383
0.00236571
0.00201859
0.00186892
0.00185632
0.0018923
0.00177304
0.00150381
0.000878378
0.000240141
0.000206874
0.00101527
0.00153375
0.00178303
0.00191135
0.00194672
0.00199763
0.00214031
0.00242232
0.00280412
0.00329975
0.00379936
0.00421498
0.0045033
0.00465249
0.004659
0.00452409
0.00424779
0.00382835
0.00329951
0.00270214
0.0021809
0.00178432
0.00159387
0.00156056
0.00158829
0.00147697
0.00124838
0.000697549
0.000226852
0.000200441
0.00083809
0.00128422
0.00150001
0.00159602
0.00162768
0.00169647
0.00187574
0.00218114
0.00261254
0.00313567
0.00363817
0.00404682
0.0043294
0.0044798
0.00449429
0.0043731
0.00411515
0.00371851
0.00320267
0.00260431
0.00202704
0.00160303
0.00135749
0.00130317
0.00132547
0.00123077
0.0010442
0.000568273
0.000211679
0.000192171
0.00067901
0.00104414
0.00122786
0.00129532
0.00133314
0.00143115
0.00165527
0.00198777
0.00247352
0.00300478
0.00349149
0.00388346
0.00415598
0.00430483
0.00432618
0.00421885
0.00398112
0.00361292
0.00312133
0.00253823
0.00192431
0.00146657
0.00116354
0.00107702
0.00109572
0.00102572
0.000892309
0.000481138
0.000195961
0.000182448
0.000554574
0.000827757
0.000979127
0.00102416
0.00107527
0.00121691
0.00146557
0.00186126
0.00236883
0.00288995
0.00335211
0.00372199
0.00398191
0.00412701
0.00415319
0.00405837
0.00384092
0.00350123
0.00304393
0.00248824
0.00187945
0.00135411
0.00102184
0.000880811
0.000893233
0.000855983
0.000780867
0.000424545
0.000180707
0.000171924
0.000450295
0.000634592
0.000756944
0.000790853
0.000864772
0.00103798
0.00132412
0.00177003
0.00228158
0.00277948
0.00321558
0.00356412
0.00381135
0.00395157
0.00398064
0.00389608
0.00369665
0.00338313
0.00296043
0.0024392
0.00185375
0.00128315
0.000919918
0.000719607
0.00071425
0.00071801
0.000685262
0.000392266
0.000167015
0.000160807
0.000351012
0.000480511
0.000560404
0.000594219
0.000699062
0.000884997
0.00122225
0.00169565
0.00220332
0.00268162
0.00309672
0.00342793
0.00366395
0.00379874
0.00382879
0.00375167
0.00356639
0.00327378
0.00287797
0.00238914
0.0018239
0.00124727
0.00082947
0.000601536
0.000556673
0.000600835
0.000602069
0.000370897
0.000155876
0.000148363
0.000266468
0.000358036
0.000398305
0.000444112
0.000557778
0.000760696
0.00114408
0.00163628
0.00213637
0.00260008
0.00299806
0.00331412
0.00353919
0.00366809
0.00369776
0.00362614
0.00345227
0.00317663
0.0028021
0.002336
0.00179393
0.00121132
0.000752269
0.000516431
0.000434521
0.000481312
0.000511973
0.000339313
0.000146225
0.000136264
0.000200519
0.000250891
0.000275037
0.000335679
0.000442016
0.000656418
0.00108071
0.00157851
0.00207536
0.00252749
0.00291121
0.00321389
0.00342875
0.00355184
0.00358058
0.00351325
0.00334864
0.00308643
0.00272832
0.0022797
0.00175383
0.00117062
0.000674649
0.000444979
0.000346516
0.000384751
0.0003906
0.000323723
0.000138552
0.00012381
0.000147595
0.000173572
0.000198965
0.000256498
0.000352028
0.000569328
0.00102015
0.00152564
0.00202052
0.00246391
0.00283608
0.00312742
0.0033333
0.00345106
0.00347865
0.00341455
0.00325708
0.00300515
0.00265918
0.00222235
0.00170461
0.00113079
0.000595035
0.000368305
0.000271691
0.000280166
0.000303435
0.000271903
0.000132245
0.000111538
0.000116508
0.000133163
0.000155447
0.000202785
0.000284205
0.000495643
0.000964273
0.00148134
0.00197754
0.00241428
0.00277577
0.0030561
0.00325323
0.00336602
0.00339288
0.00333237
0.00318195
0.00293907
0.00260206
0.00217185
0.0016569
0.00108488
0.000522395
0.000300139
0.000214121
0.000203129
0.00021611
0.000188241
0.000124449
0.00010223
0.000104245
0.000114222
0.000130112
0.00016866
0.00023532
0.000434467
0.000920446
0.00145435
0.00195185
0.00237954
0.00272827
0.00299628
0.00318425
0.00329242
0.00331945
0.00326383
0.00312233
0.00289071
0.00256452
0.00214034
0.00162227
0.0010377
0.000463087
0.000248193
0.000174266
0.000155272
0.000157
0.000139347
0.000114895
9.58815e-05
9.80089e-05
0.000103335
0.000114066
0.000146007
0.000200396
0.000392135
0.000898731
0.00144835
0.00193617
0.00234622
0.00267811
0.00293239
0.00311124
0.00321586
0.00324435
0.00319539
0.00306598
0.00285061
0.00254262
0.00213386
0.00161755
0.00101011
0.0004153
0.000208803
0.000147241
0.000127508
0.000131245
0.000118291
0.000106419
8.99641e-05
9.08504e-05
9.3506e-05
0.00010126
0.000128982
0.000175634
0.000373725
0.000908695
0.0014435
0.001903
0.00229044
0.00260628
0.00284985
0.00302249
0.00312483
0.00315471
0.00311131
0.00299222
0.00279381
0.00251002
0.00213396
0.00165096
0.00105246
0.00040757
0.000179834
0.000127636
0.000106747
0.000114704
0.000109998
0.000100584
8.35179e-05
8.1195e-05
8.21779e-05
9.18411e-05
0.000118225
0.000165327
0.000394205
0.000935447
0.0014283
0.00185948
0.00222743
0.00253
0.00276473
0.00293191
0.00303156
0.00306215
0.00302273
0.0029121
0.00272745
0.00246421
0.00211809
0.00168219
0.00113004
0.000470683
0.000170144
0.000115219
9.05513e-05
9.68055e-05
0.000101163
9.49492e-05
7.61296e-05
7.26316e-05
7.37745e-05
8.44027e-05
0.000108099
0.00016508
0.000452512
0.000959808
0.00142286
0.00183118
0.00217985
0.002467
0.00269023
0.00284878
0.0029437
0.00297522
0.00294108
0.00284022
0.00266954
0.00242665
0.00210633
0.00170501
0.00119951
0.000566629
0.000199004
0.000112173
8.41796e-05
8.17239e-05
8.87535e-05
8.89915e-05
6.87653e-05
6.82685e-05
6.32358e-05
7.08702e-05
9.28511e-05
0.000194117
0.000533936
0.00101445
0.00144799
0.00183085
0.00215558
0.00242131
0.00262728
0.00277368
0.00286287
0.00289553
0.0028689
0.00277939
0.00262513
0.0024055
0.00211651
0.00175625
0.00129771
0.000741657
0.000258348
0.000125901
8.73642e-05
7.13955e-05
7.69523e-05
8.24694e-05
6.20894e-05
5.90617e-05
4.99917e-05
6.56432e-05
0.000106003
0.000255927
0.000643636
0.0011068
0.00151553
0.00186068
0.00215273
0.00239092
0.00257567
0.00270982
0.00279319
0.00282637
0.00280725
0.00273252
0.00260038
0.00240713
0.00215198
0.00181637
0.00142444
0.00097021
0.0004073
0.000157064
0.000101084
6.64735e-05
6.53345e-05
7.47616e-05
5.57841e-05
4.78069e-05
5.63256e-05
8.52619e-05
0.000145749
0.00035937
0.00078075
0.00120092
0.00158229
0.00190081
0.0021603
0.00237217
0.00253649
0.00265753
0.00273602
0.0027688
0.00275618
0.00269679
0.0025886
0.00242422
0.00219964
0.00191836
0.00159209
0.0012142
0.000759821
0.000281724
0.000124769
7.96539e-05
5.46521e-05
6.70451e-05
5.07668e-05
5.5554e-05
8.07985e-05
0.00013052
0.000270139
0.00059962
0.000968566
0.00132712
0.00166268
0.00193945
0.00216759
0.00235507
0.00250336
0.0026132
0.00268626
0.00271868
0.00271264
0.00266593
0.00257712
0.00244319
0.00225385
0.00202712
0.00175238
0.00145599
0.00111624
0.00066873
0.000245721
0.000107575
6.14724e-05
5.95116e-05
4.90998e-05
7.97566e-05
0.000170292
0.000341336
0.000587292
0.000864441
0.00115075
0.00144735
0.00174519
0.00198134
0.00218012
0.00234388
0.00247619
0.00257592
0.00264184
0.00267419
0.00267353
0.00263798
0.00256519
0.00245631
0.00230495
0.00211224
0.00188553
0.00164428
0.00139352
0.00106706
0.000653408
0.000238746
8.73924e-05
5.46441e-05
5.02014e-05
0.000185956
0.000465295
0.000691672
0.00090184
0.00112996
0.00135013
0.00157415
0.00183704
0.00203445
0.00220302
0.00234493
0.00245954
0.00254801
0.00260694
0.00263809
0.00264053
0.00261393
0.00255529
0.00246455
0.00233833
0.00216496
0.00198459
0.00177384
0.00158345
0.0013315
0.0010188
0.00062625
0.000195146
5.47496e-05
5.6022e-05
0.000396402
0.000724913
0.000976203
0.00119069
0.00139461
0.00158253
0.00176909
0.00192609
0.00210028
0.00223836
0.00235852
0.00245521
0.00253148
0.00258388
0.0026123
0.00261578
0.00259509
0.00254863
0.0024726
0.002367
0.00222491
0.00205331
0.0018747
0.00170828
0.00153343
0.00126635
0.000915793
0.000450135
6.01586e-05
6.61476e-05
0.000509336
0.000905257
0.00119699
0.00141861
0.00160596
0.00176951
0.00191921
0.00204645
0.00216402
0.00228185
0.00238329
0.00246681
0.00253057
0.00257514
0.00259946
0.0026024
0.00258488
0.00254748
0.00248589
0.00239784
0.00227624
0.00213056
0.00196042
0.00181098
0.00166428
0.0014402
0.00109912
0.000594665
7.24766e-05
7.32711e-05
0.000535483
0.000998039
0.00132988
0.00155659
0.00173382
0.0018814
0.00201055
0.00211657
0.00221588
0.00232178
0.0024132
0.00249261
0.00254993
0.00258726
0.00260675
0.00260773
0.00259143
0.00255892
0.00250988
0.00243748
0.00233877
0.0022013
0.00205828
0.0019045
0.0017539
0.00156891
0.00124058
0.000698988
8.38054e-05
7.5838e-05
0.000529657
0.00102503
0.0013712
0.00161175
0.00179038
0.00193087
0.00204112
0.00215065
0.00226149
0.00235933
0.0024459
0.00252222
0.00258231
0.00262149
0.00264154
0.00264353
0.00262821
0.00259646
0.00255189
0.00249175
0.00239241
0.00229325
0.00219554
0.00203846
0.00186237
0.0016843
0.00135831
0.000785719
9.44461e-05
7.76905e-05
0.000507194
0.000987325
0.00134598
0.00160746
0.00179932
0.00194722
0.002076
0.0021921
0.00230034
0.00239679
0.00248051
0.00255325
0.00261422
0.00266056
0.00268777
0.0026954
0.00268254
0.00265122