/*--------------------------------*- C++ -*----------------------------------*\
| =========                 |                                                 |
| \\      /  F ield         | OpenFOAM: The Open Source CFD Toolbox           |
|  \\    /   O peration     | Version:  v1606+                                |
|   \\  /    A nd           | Web:      www.OpenFOAM.com                      |
|    \\/     M anipulation  |                                                 |
\*---------------------------------------------------------------------------*/
FoamFile
{
    version     2.0;
    format      ascii;
    class       volVectorField;
    location    "0.6";
    object      U;
}
// * * * * * * * * * * * * * * * * * * * * * * * * * * * * * * * * * * * * * //

dimensions      [0 1 -1 0 0 0 0];

internalField   nonuniform List<vector> 
3072
(
(0.0641184 -0.117924 1.78344e-19)
(0.0576682 -0.116574 5.39127e-19)
(0.0501394 -0.112765 -1.74659e-19)
(0.0392191 -0.108395 -1.54935e-18)
(0.02698 -0.108313 5.15954e-19)
(0.0153963 -0.112665 1.71677e-19)
(0.00554376 -0.120641 -3.44366e-19)
(-0.00263188 -0.130955 0)
(-0.0102366 -0.141566 0)
(-0.0176201 -0.149297 4.39304e-20)
(-0.0238913 -0.152781 1.21878e-19)
(-0.0303131 -0.152953 -4.06845e-19)
(0.0900597 -0.117298 9.10382e-19)
(0.0926486 -0.106023 1.53174e-19)
(0.0837069 -0.10203 -5.93055e-19)
(0.0672103 -0.104618 -2.68998e-21)
(0.0479638 -0.111602 4.51779e-19)
(0.0278428 -0.122041 4.44946e-19)
(0.00939748 -0.135787 -2.9721e-19)
(-0.00439091 -0.151183 0)
(-0.0111043 -0.166019 0)
(-0.0113462 -0.177859 0)
(-0.0125876 -0.186492 0)
(-0.0208708 -0.192686 -2.63589e-19)
(0.104971 -0.126199 -2.69174e-19)
(0.10666 -0.114563 7.8577e-19)
(0.0923414 -0.118112 -7.88371e-19)
(0.069389 -0.130263 -5.52318e-19)
(0.0423937 -0.146717 7.02807e-19)
(0.017325 -0.162983 1.35739e-19)
(-0.00415766 -0.177825 -2.63358e-19)
(-0.0194504 -0.190936 0)
(-0.0261314 -0.202512 0)
(-0.0291699 -0.214156 0)
(-0.037029 -0.22666 0)
(-0.0522741 -0.239749 -2.58262e-19)
(0.125649 -0.1362 1.14664e-18)
(0.122427 -0.135099 -9.27481e-19)
(0.103456 -0.152201 2.49431e-19)
(0.0774056 -0.173171 0)
(0.0460084 -0.193732 2.37587e-19)
(0.0145686 -0.212135 1.16752e-19)
(-0.0110947 -0.227586 -1.03096e-19)
(-0.0287253 -0.23968 0)
(-0.039201 -0.251048 -4.44973e-20)
(-0.0490612 -0.264454 -2.15955e-20)
(-0.0647896 -0.279757 4.05448e-20)
(-0.0881934 -0.295503 -1.53866e-19)
(0.13336 -0.153126 -1.82603e-19)
(0.126932 -0.168627 2.20908e-19)
(0.107769 -0.194735 -4.09969e-19)
(0.0802116 -0.221197 -4.15347e-19)
(0.0480292 -0.244623 1.90255e-19)
(0.0156038 -0.263426 -1.82481e-19)
(-0.0123735 -0.277285 1.79767e-19)
(-0.0338112 -0.287276 8.898e-20)
(-0.0504259 -0.296171 2.83177e-21)
(-0.0669185 -0.305536 3.58486e-20)
(-0.0872756 -0.314581 -1.7342e-20)
(-0.112244 -0.32179 0)
(0.1308 -0.175537 1.0142e-18)
(0.12452 -0.20549 2.48515e-20)
(0.106742 -0.237055 -3.31379e-19)
(0.0808525 -0.266508 0)
(0.0500318 -0.291004 0)
(0.0183713 -0.308494 0)
(-0.0103021 -0.318791 6.17223e-20)
(-0.0340983 -0.323455 -6.49528e-20)
(-0.0539252 -0.324615 0)
(-0.072473 -0.323283 0)
(-0.0920855 -0.319098 0)
(-0.112778 -0.311438 0)
(0.120792 -0.198868 -1.64167e-20)
(0.115397 -0.238672 1.96087e-20)
(0.100157 -0.272435 -2.64222e-19)
(0.0777557 -0.302403 4.88246e-19)
(0.0504934 -0.325622 -8.22454e-21)
(0.0220576 -0.340019 9.4928e-21)
(-0.00424061 -0.345266 0)
(-0.0266189 -0.3427 0)
(-0.0452884 -0.334284 0)
(-0.0617893 -0.32146 1.1019e-20)
(-0.0775702 -0.304755 -1.1252e-20)
(-0.0924513 -0.284385 3.69367e-20)
(0.10941 -0.219058 2.24524e-19)
(0.103113 -0.262605 -2.12413e-19)
(0.0889312 -0.29386 3.91438e-19)
(0.0702301 -0.3216 -2.18182e-19)
(0.0480885 -0.342056 -1.90896e-19)
(0.0254622 -0.35298 7.77938e-21)
(0.00478785 -0.353765 0)
(-0.0127526 -0.345577 0)
(-0.027398 -0.330595 0)
(-0.0402052 -0.310967 2.25272e-21)
(-0.0520157 -0.288095 1.67265e-20)
(-0.0625761 -0.262827 6.03004e-20)
(0.100708 -0.233602 3.58669e-19)
(0.0903421 -0.276481 -4.90346e-19)
(0.0747758 -0.30135 -1.77318e-19)
(0.0584302 -0.324378 3.03221e-19)
(0.0412975 -0.340937 4.0282e-19)
(0.025515 -0.348648 -7.99761e-20)
(0.0122409 -0.346532 0)
(0.00140878 -0.335527 0)
(-0.00808905 -0.31785 -1.74086e-20)
(-0.0175328 -0.295995 -2.01405e-20)
(-0.0272995 -0.271925 -2.36453e-21)
(-0.0367271 -0.247 -3.11951e-20)
(0.0995468 -0.2418 -4.82184e-21)
(0.0822622 -0.282335 9.6437e-21)
(0.0615575 -0.298685 0)
(0.0447676 -0.316149 -1.25686e-19)
(0.0309255 -0.328979 -2.17823e-19)
(0.0213425 -0.334344 6.83236e-20)
(0.0158592 -0.330486 1.03767e-23)
(0.0127042 -0.318012 7.21842e-20)
(0.00914233 -0.299082 1.94062e-20)
(0.00335907 -0.276415 1.76581e-20)
(-0.0051909 -0.252444 -1.37353e-20)
(-0.0148868 -0.229009 0)
(0.105048 -0.244034 1.09475e-19)
(0.0756377 -0.276905 1.62765e-19)
(0.05162 -0.284955 0)
(0.0311532 -0.295221 2.19229e-19)
(0.0185554 -0.303113 -1.23426e-19)
(0.0147306 -0.303808 0)
(0.0177629 -0.295869 -1.38346e-19)
(0.0235186 -0.280591 0)
(0.0270049 -0.26088 2.97995e-20)
(0.0247007 -0.239486 -1.5931e-21)
(0.0168537 -0.218392 0)
(0.00628616 -0.1992 -3.34317e-20)
(0.153858 -0.245936 2.67622e-19)
(0.0920081 -0.274246 -2.25893e-19)
(0.048751 -0.268684 -6.94448e-20)
(0.0178037 -0.262949 1.49562e-19)
(0.00235459 -0.259284 -9.18715e-20)
(0.0021026 -0.250506 1.06064e-19)
(0.0131028 -0.234701 -5.91208e-20)
(0.0282635 -0.21558 2.81767e-20)
(0.0391573 -0.197365 -5.26539e-20)
(0.040577 -0.181531 -2.51642e-21)
(0.0337371 -0.168018 0)
(0.0227019 -0.156556 0)
(-0.0388372 -0.15115 3.22447e-19)
(-0.0494376 -0.148394 0)
(-0.060294 -0.145436 -1.55423e-19)
(-0.0699608 -0.143022 -7.48828e-19)
(-0.0781667 -0.140672 5.90401e-19)
(-0.0850472 -0.136957 0)
(-0.0908076 -0.130793 0)
(-0.0952268 -0.121365 0)
(-0.0983416 -0.109194 9.15467e-19)
(-0.101938 -0.0958486 -5.38763e-19)
(-0.107241 -0.0830041 1.34499e-19)
(-0.109262 -0.0744117 2.53907e-19)
(-0.0336622 -0.198443 3.78829e-19)
(-0.049311 -0.204258 1.19474e-19)
(-0.0677238 -0.209327 5.83292e-19)
(-0.0867202 -0.213119 9.49523e-20)
(-0.103439 -0.214368 -5.54637e-19)
(-0.11534 -0.211609 0)
(-0.120863 -0.203746 -2.01694e-19)
(-0.120054 -0.189672 3.94296e-19)
(-0.115658 -0.168889 1.81135e-19)
(-0.111281 -0.142486 -4.05608e-19)
(-0.109499 -0.116463 2.04477e-19)
(-0.111408 -0.0997256 -2.28224e-19)
(-0.0745234 -0.2535 9.62907e-20)
(-0.101808 -0.266816 8.76106e-20)
(-0.129249 -0.278059 -2.69492e-19)
(-0.151527 -0.286019 -8.68095e-20)
(-0.164667 -0.290039 0)
(-0.167075 -0.289864 0)
(-0.159919 -0.284764 -1.5089e-19)
(-0.146581 -0.27263 0)
(-0.131153 -0.250192 0)
(-0.118522 -0.213069 0)
(-0.114056 -0.16102 -1.52389e-20)
(-0.120393 -0.111027 0)
(-0.117226 -0.310073 1.48242e-19)
(-0.146592 -0.321962 1.35426e-19)
(-0.170174 -0.330426 -1.32468e-19)
(-0.183522 -0.335508 0)
(-0.185134 -0.337681 0)
(-0.176648 -0.337452 0)
(-0.161789 -0.335822 -1.10596e-19)
(-0.14393 -0.332941 2.13481e-19)
(-0.125699 -0.324615 -2.14467e-19)
(-0.111564 -0.301302 0)
(-0.110308 -0.24586 -1.28091e-19)
(-0.129116 -0.144773 -1.38753e-19)
(-0.138735 -0.325789 0)
(-0.161116 -0.325978 9.90873e-20)
(-0.174215 -0.32285 2.14358e-19)
(-0.175592 -0.317674 -4.37929e-19)
(-0.166356 -0.312053 3.34445e-19)
(-0.150325 -0.307806 2.21217e-19)
(-0.13321 -0.307399 -3.04041e-19)
(-0.117774 -0.311509 -1.84422e-19)
(-0.104407 -0.320215 0)
(-0.09349 -0.327327 1.6043e-19)
(-0.0948203 -0.310595 1.63422e-19)
(-0.132642 -0.217413 -1.04289e-19)
(-0.13147 -0.300286 0)
(-0.143393 -0.286615 -9.40379e-21)
(-0.144849 -0.272186 -9.46005e-20)
(-0.135326 -0.259062 0)
(-0.118461 -0.249305 -1.15338e-19)
(-0.100934 -0.24424 -2.03804e-19)
(-0.08716 -0.244902 4.09023e-19)
(-0.0786799 -0.251179 1.9455e-19)
(-0.0752292 -0.263808 -1.44801e-19)
(-0.0729998 -0.285189 -1.58859e-20)
(-0.0722737 -0.311304 -2.97222e-19)
(-0.119151 -0.281314 0)
(-0.104014 -0.261334 7.16733e-20)
(-0.1088 -0.237775 8.04159e-20)
(-0.10476 -0.216564 -2.56106e-19)
(-0.0928367 -0.200322 1.77292e-19)
(-0.0774594 -0.191037 1.72892e-19)
(-0.0643454 -0.189715 -5.61037e-21)
(-0.0556999 -0.19488 -4.3269e-19)
(-0.0531128 -0.205223 1.41293e-19)
(-0.0562212 -0.219131 1.4102e-19)
(-0.0641104 -0.236783 0)
(-0.0651641 -0.265819 0)
(-0.107271 -0.296951 -1.18188e-19)
(-0.0703113 -0.236293 -1.41433e-19)
(-0.0728571 -0.210604 -6.49911e-20)
(-0.0694495 -0.188595 6.39648e-20)
(-0.0618831 -0.172969 1.27489e-19)
(-0.0535179 -0.164603 -1.1773e-20)
(-0.0470276 -0.163323 7.85955e-21)
(-0.0447053 -0.168144 1.08926e-20)
(-0.0474485 -0.177803 0)
(-0.0547586 -0.191448 0)
(-0.0661867 -0.209893 0)
(-0.0756862 -0.231999 6.75999e-20)
(-0.110781 -0.276888 -6.69099e-20)
(-0.0441394 -0.222583 -4.86877e-20)
(-0.0482344 -0.200203 0)
(-0.048772 -0.181584 0)
(-0.0467741 -0.167937 0)
(-0.0441696 -0.159833 -1.01248e-19)
(-0.0429222 -0.157109 1.55753e-20)
(-0.0448125 -0.158963 1.4653e-19)
(-0.0509145 -0.164479 -1.25316e-20)
(-0.0614528 -0.173232 -1.30213e-19)
(-0.0766807 -0.186682 0)
(-0.0928787 -0.208099 -2.37385e-20)
(-0.126269 -0.246507 2.37675e-20)
(-0.0236711 -0.207424 4.38796e-20)
(-0.0301647 -0.188475 0)
(-0.0340419 -0.172939 0)
(-0.0360137 -0.161428 -7.00003e-20)
(-0.0375159 -0.154133 1.29834e-19)
(-0.0401701 -0.150834 0)
(-0.0454753 -0.15092 -4.52331e-20)
(-0.0546333 -0.153686 -1.83645e-20)
(-0.0682389 -0.158684 7.06371e-20)
(-0.0873712 -0.166498 0)
(-0.110335 -0.180446 0)
(-0.145989 -0.208897 0)
(-0.00421271 -0.182496 3.28555e-20)
(-0.0129169 -0.168361 2.94565e-20)
(-0.019393 -0.156853 -8.27936e-20)
(-0.0242486 -0.148075 -5.054e-20)
(-0.0287097 -0.142072 -1.03323e-19)
(-0.0342316 -0.138741 1.64399e-19)
(-0.042208 -0.137767 -3.91678e-20)
(-0.0539988 -0.138704 5.95211e-20)
(-0.0705737 -0.140928 0)
(-0.0942567 -0.14424 0)
(-0.123298 -0.149614 0)
(-0.168854 -0.161979 -1.28289e-19)
(0.0111882 -0.146887 4.95078e-20)
(0.00129569 -0.138803 -2.34868e-20)
(-0.00649099 -0.132189 2.89875e-20)
(-0.0127909 -0.127002 4.63851e-20)
(-0.0187999 -0.123203 7.09515e-20)
(-0.0259092 -0.120726 -4.49117e-20)
(-0.0354307 -0.119404 -2.77682e-20)
(-0.0487078 -0.118976 0)
(-0.0668625 -0.11858 -6.87562e-21)
(-0.0941386 -0.117381 -3.18666e-20)
(-0.130761 -0.110365 3.2916e-20)
(-0.211581 -0.093171 1.17031e-19)
(-0.117006 -0.0632631 -5.34887e-19)
(-0.117007 -0.057833 -1.77121e-19)
(-0.112018 -0.0505456 1.2223e-18)
(-0.108245 -0.0395842 -8.58121e-19)
(-0.108241 -0.0270431 -3.40839e-19)
(-0.112604 -0.0154095 4.24868e-19)
(-0.120657 -0.00562569 -5.13222e-19)
(-0.131052 0.00249726 0)
(-0.141635 0.0101204 8.4556e-20)
(-0.149259 0.0175125 -8.07097e-20)
(-0.152675 0.0237778 0)
(-0.152845 0.0302512 -7.82592e-20)
(-0.116931 -0.0901113 6.10652e-19)
(-0.105982 -0.0925807 -8.91387e-19)
(-0.101839 -0.0837748 -4.41709e-19)
(-0.104807 -0.0671335 5.91268e-19)
(-0.112056 -0.0477403 1.52224e-19)
(-0.122623 -0.0275422 4.41861e-19)
(-0.136381 -0.00920655 -2.21984e-19)
(-0.151777 0.00435514 0)
(-0.166528 0.0108257 0)
(-0.178261 0.0110382 -3.5614e-20)
(-0.186842 0.0125747 1.6472e-19)
(-0.193065 0.0210683 -6.2934e-20)
(-0.126188 -0.105075 -8.04327e-19)
(-0.114793 -0.106668 7.83887e-19)
(-0.118566 -0.0923344 -2.61302e-19)
(-0.131009 -0.069261 -2.80677e-19)
(-0.147568 -0.0421868 2.84365e-19)
(-0.163776 -0.0171805 -1.37117e-19)
(-0.178575 0.00418367 0)
(-0.191645 0.0192228 0)
(-0.20326 0.025761 -2.87108e-20)
(-0.214995 0.0290103 5.58335e-20)
(-0.227553 0.0371667 0)
(-0.24067 0.0525793 0)
(-0.136335 -0.125553 -2.35723e-19)
(-0.135537 -0.122209 0)
(-0.152848 -0.103239 2.49084e-19)
(-0.173933 -0.0770846 2.49671e-19)
(-0.19452 -0.0456123 2.97407e-21)
(-0.212908 -0.0143728 -8.99499e-21)
(-0.228312 0.0110578 0)
(-0.240435 0.0285142 0)
(-0.251961 0.0390248 -1.13442e-19)
(-0.265491 0.0491177 2.04693e-20)
(-0.280804 0.065035 2.09486e-20)
(-0.296479 0.088509 1.53043e-19)
(-0.153332 -0.133045 -1.17538e-18)
(-0.16909 -0.126608 8.07901e-19)
(-0.195304 -0.107404 1.06913e-20)
(-0.221788 -0.079831 -6.0382e-19)
(-0.245185 -0.0476739 0)
(-0.263971 -0.0153749 -3.67215e-19)
(-0.27784 0.0124445 1.67754e-19)
(-0.287905 0.0337961 -1.64113e-19)
(-0.296889 0.0504303 3.89865e-20)
(-0.306239 0.0669815 2.29106e-21)
(-0.315165 0.0873403 0)
(-0.322192 0.112213 -1.17385e-19)
(-0.175718 -0.130389 3.54009e-20)
(-0.205792 -0.124057 0)
(-0.2374 -0.10626 0)
(-0.266825 -0.0803831 3.4603e-19)
(-0.291267 -0.049605 -1.56954e-19)
(-0.308714 -0.0180422 6.9809e-21)
(-0.318994 0.0105033 -1.29826e-19)
(-0.323655 0.0341836 0)
(-0.324767 0.0539126 0)
(-0.323312 0.0723604 0)
(-0.318956 0.0918412 0)
(-0.31111 0.112341 0)
(-0.198976 -0.12039 -2.45243e-19)
(-0.238772 -0.114897 -2.71398e-19)
(-0.272472 -0.0996159 5.21818e-19)
(-0.302365 -0.0772133 -1.14962e-19)
(-0.325502 -0.0499942 1.22089e-19)
(-0.33982 -0.02166 -9.45332e-21)
(-0.345001 0.00448576 1.20715e-19)
(-0.342365 0.0266852 0)
(-0.33387 0.0451709 0)
(-0.320956 0.0614927 0)
(-0.304166 0.0770922 0)
(-0.283741 0.0917778 7.83786e-20)
(-0.219057 -0.109111 2.39436e-19)
(-0.262514 -0.102649 1.64868e-20)
(-0.293634 -0.0883864 -2.03304e-19)
(-0.321241 -0.0696634 1.83118e-19)
(-0.341578 -0.0475587 0)
(-0.352404 -0.0250355 -1.03852e-19)
(-0.35311 -0.00452364 0)
(-0.344877 0.0128207 0)
(-0.329878 0.0272673 0)
(-0.310266 0.0398923 0)
(-0.287442 0.0515432 1.67069e-20)
(-0.262263 0.0619636 9.80553e-20)
(-0.233489 -0.100604 1.02063e-20)
(-0.276259 -0.0900082 1.14915e-20)
(-0.300997 -0.0743194 -1.61638e-19)
(-0.323894 -0.0579159 -1.66934e-20)
(-0.340348 -0.0407863 0)
(-0.34798 -0.0250753 -7.18911e-20)
(-0.34582 -0.0119364 -8.02056e-20)
(-0.334802 -0.00127863 0)
(-0.317156 0.00803962 -3.45018e-20)
(-0.295359 0.0173275 0)
(-0.271369 0.0269722 -1.70013e-20)
(-0.24655 0.036308 -3.11228e-20)
(-0.241622 -0.0996614 2.97285e-19)
(-0.282084 -0.0821144 -2.64752e-19)
(-0.298359 -0.0612677 2.54515e-19)
(-0.315729 -0.0443815 -2.56096e-19)
(-0.32849 -0.0305038 -6.24801e-20)
(-0.333814 -0.0209538 8.32009e-20)
(-0.329938 -0.0155697 0)
(-0.317473 -0.0125611 -6.87533e-20)
(-0.298568 -0.00915766 3.49475e-20)
(-0.275936 -0.00351346 -1.78336e-21)
(-0.252027 0.00493179 -2.43198e-20)
(-0.228694 0.0145582 -4.29997e-20)
(-0.243906 -0.105329 1.04177e-19)
(-0.276729 -0.0756694 -9.97989e-20)
(-0.284769 -0.0515116 0)
(-0.294949 -0.030922 0)
(-0.30278 -0.0182438 1.22342e-19)
(-0.303427 -0.0144082 3.21776e-19)
(-0.295426 -0.0175025 -6.70802e-20)
(-0.280108 -0.023377 6.92056e-20)
(-0.260379 -0.0269962 0)
(-0.239009 -0.0248099 4.59079e-21)
(-0.217979 -0.0170491 2.12282e-20)
(-0.198882 -0.00653154 0)
(-0.245967 -0.154155 -4.12277e-20)
(-0.274261 -0.0922198 -6.95658e-20)
(-0.268688 -0.0488659 -6.91396e-20)
(-0.262864 -0.0177488 1.17855e-19)
(-0.259106 -0.00216619 8.12815e-20)
(-0.250245 -0.00185871 -5.11229e-21)
(-0.234355 -0.0128834 5.90945e-20)
(-0.215165 -0.0281295 -8.77189e-22)
(-0.196927 -0.0391281 1.1625e-20)
(-0.18113 -0.0406383 -1.63137e-20)
(-0.167691 -0.0338618 0)
(-0.156318 -0.0228629 -2.69818e-20)
(-0.15108 0.0388633 8.01047e-20)
(-0.148354 0.0495325 -1.53404e-19)
(-0.145452 0.0604096 0)
(-0.143117 0.0700586 -5.95738e-19)
(-0.140831 0.0782511 1.02435e-18)
(-0.137138 0.085129 -1.27727e-18)
(-0.130964 0.0908916 4.21827e-19)
(-0.121507 0.0953019 0)
(-0.109296 0.0983929 -5.26922e-19)
(-0.0959079 0.101958 8.13673e-19)
(-0.0830306 0.107234 -9.39805e-19)
(-0.0744195 0.109255 2.75598e-19)
(-0.198903 0.0338886 0)
(-0.204731 0.0495935 1.27137e-19)
(-0.209796 0.0680621 4.66997e-19)
(-0.213566 0.0870753 -3.49765e-19)
(-0.214776 0.103776 0)
(-0.211974 0.115621 0)
(-0.204072 0.121056 -1.87404e-19)
(-0.189958 0.120168 0)
(-0.169126 0.115707 -3.84947e-19)
(-0.14265 0.11128 6.15727e-19)
(-0.116527 0.109473 0)
(-0.0997172 0.111399 6.62973e-19)
(-0.254424 0.0749421 0)
(-0.267687 0.102252 0)
(-0.278835 0.129626 1.63693e-19)
(-0.28668 0.151782 -8.64642e-20)
(-0.290601 0.164789 1.4873e-19)
(-0.290352 0.167086 0)
(-0.285201 0.159866 1.46025e-20)
(-0.273052 0.146499 0)
(-0.250621 0.131063 0)
(-0.213485 0.118437 1.38217e-19)
(-0.161313 0.114002 1.56317e-19)
(-0.111031 0.120387 0)
(-0.31091 0.117486 -1.47504e-19)
(-0.322612 0.146687 6.30279e-20)
(-0.330871 0.17007 -2.60698e-19)
(-0.335759 0.183251 0)
(-0.33777 0.18477 -3.75478e-19)
(-0.337429 0.176269 2.46402e-19)
(-0.335764 0.16145 1.19779e-19)
(-0.332906 0.143654 1.04478e-19)
(-0.324681 0.125488 0)
(-0.301523 0.111401 -1.1363e-19)
(-0.246203 0.1102 -1.27603e-19)
(-0.144975 0.129125 2.92768e-19)
(-0.325974 0.138501 1.15135e-19)
(-0.325945 0.160633 -1.5794e-19)
(-0.322615 0.173523 3.30028e-19)
(-0.317277 0.174793 -1.16872e-19)
(-0.311538 0.165567 -1.19054e-19)
(-0.307225 0.149632 2.36747e-19)
(-0.306803 0.132658 -1.77898e-20)
(-0.310943 0.117364 -1.0303e-19)
(-0.319731 0.104121 0)
(-0.327026 0.0932773 0)
(-0.310628 0.0946232 0)
(-0.217749 0.132553 0)
(-0.299793 0.13079 0)
(-0.28599 0.142489 1.01064e-19)
(-0.271475 0.143821 0)
(-0.258302 0.134314 -3.13088e-19)
(-0.248549 0.117607 -9.72554e-20)
(-0.243538 0.100307 6.14483e-19)
(-0.244242 0.0867026 -4.07682e-19)
(-0.250561 0.07836 -3.33566e-19)
(-0.263215 0.0750256 1.67437e-19)
(-0.284623 0.0728908 0)
(-0.310899 0.0721448 1.47066e-19)
(-0.281408 0.119039 -1.56808e-19)
(-0.260674 0.103149 -8.05816e-20)
(-0.237143 0.10781 0)
(-0.215972 0.103768 -1.71194e-19)
(-0.199778 0.0919953 3.38353e-19)
(-0.190544 0.0768707 1.92564e-19)
(-0.189235 0.0639935 -2.22288e-20)
(-0.194426 0.0555324 -1.53175e-19)
(-0.204781 0.0530446 1.52973e-19)
(-0.218709 0.0562038 0)
(-0.236381 0.0641385 0)
(-0.265342 0.0652022 0)
(-0.296773 0.107257 0)
(-0.235862 0.0695949 -6.8075e-20)
(-0.210344 0.0721031 0)
(-0.188495 0.0687798 0)
(-0.172974 0.0614001 -1.41714e-19)
(-0.164625 0.0532544 1.10461e-19)
(-0.163304 0.0469472 2.12763e-19)
(-0.16804 0.0447497 -1.08111e-19)
(-0.177606 0.0475596 -7.91385e-20)
(-0.19118 0.0548976 -7.44007e-20)
(-0.209596 0.066327 7.42819e-20)
(-0.231709 0.075812 4.40787e-20)
(-0.276612 0.110878 -7.03358e-20)
(-0.22228 0.0436633 0)
(-0.200075 0.0477811 4.97226e-20)
(-0.1816 0.0484088 -4.85807e-20)
(-0.168043 0.0465457 0)
(-0.159969 0.0440844 -1.00676e-19)
(-0.157212 0.0429591 -8.96624e-20)
(-0.158989 0.0449343 -1.36956e-20)
(-0.164414 0.0510833 2.22596e-20)
(-0.173084 0.0616383 0)
(-0.186462 0.0768629 0)
(-0.207833 0.0930499 -4.2182e-20)
(-0.246265 0.126404 -2.26922e-20)
(-0.207225 0.0232968 4.18217e-20)
(-0.188384 0.0298013 -3.80368e-20)
(-0.172951 0.0337395 3.71993e-20)
(-0.161511 0.0358096 6.52898e-20)
(-0.154238 0.0374243 -6.05842e-20)
(-0.150913 0.0401816 6.87281e-20)
(-0.150945 0.0455647 2.7982e-20)
(-0.153644 0.0547736 1.11097e-19)
(-0.158573 0.0684077 -1.60953e-20)
(-0.166321 0.0875498 -1.26212e-20)
(-0.180219 0.110522 -1.44365e-20)
(-0.208647 0.146148 -8.00102e-20)
(-0.182283 0.00395738 0)
(-0.168256 0.0126725 2.93405e-20)
(-0.156845 0.0191891 -2.89595e-20)
(-0.148136 0.0241118 -5.97374e-20)
(-0.142161 0.0286534 9.03917e-21)
(-0.13882 0.0342532 4.64864e-20)
(-0.137807 0.042293 5.76984e-21)
(-0.138689 0.0541287 -1.22558e-19)
(-0.140849 0.0707292 3.0209e-20)
(-0.144095 0.0944234 -3.4211e-21)
(-0.149419 0.123476 -4.19802e-20)
(-0.161723 0.169032 -1.03024e-20)
(-0.146741 -0.0113606 2.68067e-20)
(-0.13874 -0.00146017 0)
(-0.132195 0.00635602 0)
(-0.127057 0.0127049 3.98172e-20)
(-0.123281 0.0187745 0)
(-0.120801 0.025946 8.51076e-20)
(-0.119458 0.0355228 -8.26097e-20)
(-0.118993 0.0488423 1.3414e-20)
(-0.118549 0.0670231 -7.3822e-21)
(-0.117293 0.0943067 -4.07741e-20)
(-0.110206 0.130907 7.99152e-20)
(-0.0929692 0.211759 1.85845e-19)
(-0.0640734 0.117884 1.78285e-19)
(-0.0576693 0.116599 0)
(-0.0501631 0.112739 0)
(-0.0392438 0.10839 -3.42143e-19)
(-0.0269868 0.108322 0)
(-0.0153972 0.112683 -3.40399e-19)
(-0.00554753 0.120672 4.29914e-19)
(0.00262441 0.130999 1.285e-19)
(0.0102312 0.141615 -2.55847e-19)
(0.0176159 0.149339 8.3434e-20)
(0.0238858 0.152815 -2.04298e-20)
(0.03031 0.152982 0)
(-0.0900598 0.117278 3.09349e-19)
(-0.0926407 0.106022 0)
(-0.0837046 0.102027 0)
(-0.0671998 0.104639 1.04154e-18)
(-0.0479413 0.11165 -7.52799e-19)
(-0.0278058 0.122112 -2.94352e-19)
(-0.00936241 0.13587 4.43329e-19)
(0.00440596 0.151278 0)
(0.0110906 0.166117 6.89498e-20)
(0.0113201 0.177952 -6.57649e-20)
(0.0125775 0.18658 1.64111e-19)
(0.0208666 0.19277 -6.71998e-20)
(-0.104975 0.126202 2.73031e-19)
(-0.106656 0.114584 -7.76275e-19)
(-0.0923327 0.118152 7.97396e-19)
(-0.0693687 0.130328 -1.37545e-18)
(-0.0423624 0.146796 4.22892e-19)
(-0.0172906 0.163065 2.75865e-19)
(0.00418983 0.177909 -1.30786e-19)
(0.0194622 0.191025 1.19095e-19)
(0.0261226 0.202612 -1.16823e-19)
(0.0291662 0.214269 0)
(0.0370349 0.226778 -1.33991e-19)
(0.0522667 0.239862 5.05437e-20)
(-0.125638 0.136213 9.24304e-19)
(-0.122405 0.135137 -2.2307e-19)
(-0.103431 0.152256 -2.49332e-19)
(-0.0773677 0.173238 -7.54235e-19)
(-0.0459552 0.193803 8.03418e-21)
(-0.014521 0.212208 2.31241e-19)
(0.0111321 0.227658 -1.03008e-19)
(0.0287495 0.239757 9.53719e-20)
(0.0392187 0.251141 1.08059e-21)
(0.0490795 0.264562 -4.7343e-20)
(0.0647914 0.279867 0)
(0.0881556 0.295606 1.17493e-19)
(-0.133333 0.153144 -4.01685e-19)
(-0.126904 0.168669 3.98851e-19)
(-0.107734 0.194786 0)
(-0.08017 0.22125 4.10779e-19)
(-0.0479803 0.244674 8.25441e-21)
(-0.0155536 0.263476 1.08005e-20)
(0.0124203 0.277334 7.69325e-21)
(0.0338535 0.287328 -8.36737e-20)
(0.0504617 0.296228 2.83155e-21)
(0.0669368 0.305589 3.81145e-20)
(0.087255 0.314622 2.99296e-20)
(0.112167 0.321817 -8.5185e-20)
(-0.130763 0.175556 3.20016e-19)
(-0.124481 0.205523 -3.16354e-19)
(-0.1067 0.237093 0)
(-0.0808071 0.266544 -3.25196e-19)
(-0.0499822 0.291037 0)
(-0.0183195 0.308522 1.57098e-19)
(0.0103525 0.318813 7.3765e-20)
(0.0341428 0.32347 6.06487e-20)
(0.0539541 0.324617 2.80774e-20)
(0.0724705 0.323264 3.23719e-21)
(0.0920335 0.319058 -2.8429e-20)
(0.112666 0.311382 0)
(-0.120751 0.198885 -5.76428e-19)
(-0.115355 0.238696 8.29103e-19)
(-0.100113 0.272455 4.87728e-21)
(-0.0777082 0.30242 1.40335e-19)
(-0.0504433 0.325634 -1.23884e-19)
(-0.0220079 0.340025 -1.19613e-19)
(0.00428481 0.345261 1.09118e-19)
(0.0266504 0.342679 -1.1729e-19)
(0.0452966 0.334244 -3.93355e-21)
(0.0617604 0.321401 -3.15336e-21)
(0.0774918 0.304683 0)
(0.092319 0.284309 -7.84662e-20)
(-0.109371 0.219069 -1.44476e-20)
(-0.103071 0.262618 2.12281e-19)
(-0.0888853 0.293863 1.94168e-21)
(-0.0701814 0.321597 -3.98829e-19)
(-0.0480394 0.342048 3.76804e-19)
(-0.0254172 0.352965 0)
(-0.00475287 0.353738 8.69399e-20)
(0.0127708 0.345536 -4.77996e-20)
(0.0273912 0.33054 -2.25679e-20)
(0.040165 0.310903 0)
(0.0519367 0.288032 0)
(0.0624583 0.26278 -3.15869e-20)
(-0.100677 0.233606 -3.76036e-19)
(-0.0903047 0.276482 0)
(-0.0747315 0.30134 1.61891e-19)
(-0.0583816 0.324364 -1.57606e-19)
(-0.0412481 0.34092 -1.74112e-19)
(-0.025471 0.348626 0)
(-0.0122095 0.346504 -8.51698e-20)
(-0.00139692 0.33549 0)
(0.00807713 0.317807 0)
(0.0174947 0.295948 0)
(0.0272371 0.271883 0)
(0.0366464 0.246969 5.77668e-20)
(-0.0995262 0.241795 1.4433e-19)
(-0.0822312 0.282326 -1.29754e-19)
(-0.0615168 0.298666 1.26854e-19)
(-0.0447201 0.316129 0)
(-0.0308761 0.328961 1.24288e-19)
(-0.0212989 0.334327 0)
(-0.0158302 0.330468 -6.94485e-20)
(-0.0126976 0.31799 0)
(-0.00916028 0.299053 0)
(-0.00340026 0.27638 6.9421e-21)
(0.00513232 0.252409 -3.11928e-20)
(0.0148187 0.228988 -2.40027e-20)
(-0.105049 0.244029 1.04307e-19)
(-0.0756174 0.276887 -2.62545e-19)
(-0.0515864 0.284935 0)
(-0.0311084 0.295202 0)
(-0.0185045 0.303097 -1.82376e-19)
(-0.0146844 0.303793 6.08476e-20)
(-0.0177344 0.295848 7.03563e-20)
(-0.0235147 0.280557 0)
(-0.0270264 0.260835 0)
(-0.0247428 0.239438 3.00457e-21)
(-0.0169089 0.218348 1.72221e-21)
(-0.00634884 0.19917 0)
(-0.153864 0.245923 -1.9389e-19)
(-0.0919984 0.274223 9.07343e-20)
(-0.0487218 0.268666 6.26693e-20)
(-0.017762 0.262933 8.18564e-20)
(-0.00230604 0.259271 -8.1558e-20)
(-0.00205825 0.250486 0)
(-0.0130766 0.234667 0)
(-0.0282627 0.215531 0)
(-0.0391805 0.197309 0)
(-0.0406158 0.181477 -2.59866e-21)
(-0.0337836 0.167974 1.71133e-20)
(-0.0227503 0.156527 -2.75265e-20)
(0.0388351 0.151172 -7.77642e-20)
(0.0494294 0.148406 0)
(0.0602744 0.145435 -3.05972e-19)
(0.0699297 0.143006 -7.43585e-19)
(0.0781292 0.140641 7.42355e-19)
(0.0850094 0.136911 2.81288e-19)
(0.0907741 0.13074 -2.97841e-19)
(0.0951999 0.121316 -2.56128e-19)
(0.0983247 0.109158 -7.81902e-19)
(0.101932 0.0958289 1.07031e-18)
(0.107243 0.0829967 -6.74432e-19)
(0.109264 0.0744096 -1.21577e-19)
(0.0336435 0.198517 6.57669e-20)
(0.0492747 0.20431 0)
(0.0676691 0.209353 8.29772e-21)
(0.0866511 0.213116 2.26395e-19)
(0.103367 0.214336 0)
(0.115278 0.211555 3.18163e-19)
(0.120817 0.203677 -6.14732e-19)
(0.12003 0.189598 2.13853e-20)
(0.115655 0.168822 -1.81061e-19)
(0.11129 0.14244 1.94566e-19)
(0.109511 0.116449 4.25402e-19)
(0.111411 0.0997284 2.28092e-19)
(0.0744872 0.2536 -9.27665e-20)
(0.101738 0.266892 0)
(0.129151 0.278105 9.14365e-20)
(0.151415 0.28603 -2.4243e-19)
(0.164564 0.290017 -1.49247e-19)
(0.166999 0.289809 1.59984e-19)
(0.15988 0.284679 1.3615e-19)
(0.146574 0.272519 1.45869e-19)
(0.131168 0.250067 0)
(0.118545 0.212955 -2.93582e-19)
(0.114072 0.160952 -1.56822e-19)
(0.120394 0.111035 -1.90568e-19)
(0.117138 0.310162 -7.02115e-20)
(0.146458 0.32203 0)
(0.170015 0.33047 0)
(0.183369 0.335526 1.35324e-19)
(0.185015 0.337672 -1.11749e-19)
(0.176576 0.337418 2.46978e-19)
(0.161761 0.335768 -1.20064e-19)
(0.143935 0.332863 0)
(0.125724 0.324513 0)
(0.111596 0.301181 1.13973e-19)
(0.110331 0.24575 1.28016e-19)
(0.129111 0.144735 -1.53198e-19)
(0.138599 0.325804 1.15517e-19)
(0.160936 0.325985 0)
(0.174025 0.32285 -2.14178e-19)
(0.175428 0.31767 2.189e-19)
(0.166245 0.312044 1.06562e-19)
(0.150275 0.307792 0)
(0.133208 0.307377 0)
(0.117804 0.311481 -1.8421e-19)
(0.104453 0.320175 -1.70555e-19)
(0.0935422 0.327263 1.3491e-20)
(0.094872 0.310501 -3.42303e-19)
(0.132663 0.217323 2.22765e-19)
(0.1313 0.300222 -8.3979e-20)
(0.14319 0.286551 -9.17747e-20)
(0.14465 0.272128 9.45221e-20)
(0.135169 0.25901 2.03772e-19)
(0.118371 0.249257 -5.41116e-19)
(0.10091 0.244195 5.91249e-21)
(0.0871775 0.244854 3.87851e-19)
(0.0787235 0.251132 -1.50335e-19)
(0.075283 0.263769 1.77814e-19)
(0.073054 0.285157 1.62311e-19)
(0.0723336 0.31126 1.55239e-19)
(0.119195 0.281239 -1.46217e-19)
(0.103839 0.261267 1.67891e-19)
(0.108608 0.237723 0)
(0.104586 0.216527 0)
(0.092715 0.200293 1.62475e-19)
(0.0774044 0.19101 0)
(0.064345 0.189678 1.59165e-19)
(0.0557353 0.194832 -1.53888e-19)
(0.0531652 0.205165 1.53627e-19)
(0.0562784 0.219069 0)
(0.0641635 0.236728 0)
(0.0652139 0.265783 0)
(0.107316 0.296902 2.54258e-19)
(0.0701721 0.236273 0)
(0.0727169 0.210621 -5.95185e-20)
(0.0693378 0.188642 1.17751e-19)
(0.0618208 0.173032 -2.69443e-19)
(0.0535087 0.16466 1.22678e-19)
(0.04706 0.163358 1.10782e-19)
(0.0447622 0.16815 -9.53973e-21)
(0.0475139 0.177782 -1.83632e-20)
(0.0548213 0.191409 -7.48324e-20)
(0.0662412 0.209844 7.47079e-20)
(0.0757311 0.231951 6.7447e-20)
(0.110819 0.276849 -6.67579e-20)
(0.0440459 0.222578 0)
(0.0481491 0.200233 5.45701e-20)
(0.0487123 0.181641 -9.76853e-21)
(0.0467491 0.168006 -8.04084e-21)
(0.0441797 0.159898 0)
(0.0429608 0.157157 0)
(0.0448685 0.158987 -6.44155e-20)
(0.0509771 0.164478 -7.41484e-20)
(0.061514 0.173212 0)
(0.0767339 0.18665 2.95326e-20)
(0.092921 0.208063 -1.41512e-20)
(0.126303 0.246472 0)
(0.0235954 0.207425 0)
(0.0300936 0.188495 -7.1518e-20)
(0.0339888 0.172977 1.421e-19)
(0.0359867 0.161475 -1.50915e-19)
(0.0375161 0.15418 0)
(0.0401939 0.150869 5.59785e-20)
(0.0455157 0.150939 4.48642e-21)
(0.0546828 0.153688 -9.49291e-20)
(0.0682906 0.15867 4.81209e-20)
(0.0874189 0.166473 -1.64934e-20)
(0.110376 0.180415 -1.50126e-20)
(0.14602 0.208869 0)
(0.00415369 0.182484 0)
(0.0128653 0.168369 6.43073e-20)
(0.0193549 0.156878 -6.22823e-20)
(0.0242294 0.14811 0)
(0.0287112 0.142108 4.57399e-20)
(0.034252 0.138771 0)
(0.0422428 0.137786 3.11655e-20)
(0.0540427 0.13871 8.78479e-20)
(0.0706212 0.140921 -5.38421e-21)
(0.0943015 0.144224 2.13584e-20)
(0.123336 0.149593 -1.44593e-19)
(0.168881 0.161956 4.42708e-20)
(-0.0112332 0.146876 0)
(-0.00133376 0.138808 2.3429e-20)
(0.00646412 0.132208 1.99434e-20)
(0.0127791 0.12703 -4.0387e-20)
(0.0188048 0.123234 3.30068e-20)
(0.0259301 0.120754 -3.49437e-20)
(0.0354651 0.119425 -5.55173e-20)
(0.0487523 0.118988 0)
(0.0669121 0.118584 1.21848e-20)
(0.0941869 0.11738 3.1971e-20)
(0.130799 0.11036 4.28427e-20)
(0.211603 0.0931616 -1.69495e-19)
(0.117004 0.0632653 1.70213e-19)
(0.116999 0.0578359 7.13063e-19)
(0.112009 0.0505452 -6.96997e-19)
(0.108236 0.0395825 1.6958e-19)
(0.108233 0.027042 1.71318e-19)
(0.112597 0.0154089 -3.3958e-19)
(0.12065 0.00562486 3.43538e-19)
(0.131047 -0.00249904 -8.71553e-20)
(0.141632 -0.0101229 2.55337e-19)
(0.149259 -0.0175164 -8.32095e-20)
(0.152678 -0.0237826 2.02063e-19)
(0.152849 -0.0302525 -1.62264e-19)
(0.116926 0.0901197 -1.643e-21)
(0.105976 0.092587 4.15113e-21)
(0.101838 0.0837767 -5.86736e-19)
(0.104808 0.0671333 -1.50211e-19)
(0.112058 0.0477395 -1.50401e-19)
(0.122625 0.0275416 0)
(0.136381 0.00920522 0)
(0.151777 -0.00435934 -2.72152e-21)
(0.166529 -0.0108354 0)
(0.178264 -0.0110502 0)
(0.186847 -0.0125779 -1.65732e-19)
(0.193066 -0.0210582 3.88656e-19)
(0.126186 0.105083 5.3065e-19)
(0.114797 0.106671 -5.19369e-19)
(0.118577 0.0923352 5.35766e-19)
(0.131024 0.0692628 4.66166e-21)
(0.147582 0.0421916 -4.20672e-19)
(0.163787 0.0171863 0)
(0.178584 -0.00418012 0)
(0.191652 -0.0192255 -6.11685e-20)
(0.203265 -0.0257707 2.77868e-20)
(0.214997 -0.029018 0)
(0.227548 -0.0371604 0)
(0.240654 -0.0525501 2.04137e-19)
(0.136339 0.125554 -1.40781e-20)
(0.135553 0.122204 0)
(0.15287 0.103236 2.36676e-19)
(0.173956 0.0770887 0)
(0.194541 0.0456226 2.36197e-19)
(0.212928 0.0143853 2.24814e-19)
(0.228328 -0.0110493 -2.15875e-19)
(0.240449 -0.0285141 0)
(0.251969 -0.0390295 -2.38416e-20)
(0.26549 -0.0491134 0)
(0.280794 -0.0650078 0)
(0.29646 -0.0884537 1.53043e-19)
(0.153341 0.133037 -1.8753e-19)
(0.169112 0.126596 0)
(0.195332 0.107397 -2.14773e-19)
(0.221814 0.0798349 -4.13131e-19)
(0.245211 0.0476869 1.81281e-19)
(0.263994 0.0153914 5.12969e-21)
(0.27786 -0.0124312 7.7619e-21)
(0.287919 -0.0337891 1.64093e-19)
(0.296893 -0.0504239 0)
(0.306232 -0.0669634 0)
(0.315149 -0.0873011 2.97993e-20)
(0.322174 -0.112153 0)
(0.175731 0.130372 3.73078e-19)
(0.205814 0.124037 0)
(0.237424 0.106247 0)
(0.266848 0.0803833 1.52052e-19)
(0.291287 0.0496169 -3.11036e-19)