/*--------------------------------*- C++ -*----------------------------------*\
| =========                 |                                                 |
| \\      /  F ield         | OpenFOAM: The Open Source CFD Toolbox           |
|  \\    /   O peration     | Version:  2.4.0                                 |
|   \\  /    A nd           | Web:      www.OpenFOAM.org                      |
|    \\/     M anipulation  |                                                 |
\*---------------------------------------------------------------------------*/
FoamFile
{
    version     2.0;
    format      ascii;
    class       volScalarField;
    location    "3.875";
    object      alpha.water;
}
// * * * * * * * * * * * * * * * * * * * * * * * * * * * * * * * * * * * * * //

dimensions      [0 0 0 0 0 0 0];

internalField   nonuniform List<scalar> 
4608
(
2.53928e-06
3.12951e-05
1.60647e-05
2.89518e-05
0.00179802
0.00262675
0.00261975
0.00051794
5.71734e-05
5.90241e-05
0.00671881
0.0125436
3.24253e-06
7.65514e-05
0.000134744
0.000201569
0.000404251
0.000349461
0.0020283
0.00471116
0.00100542
0.00156838
0.00562765
0.00260064
1.36546e-05
1.50648e-05
9.7402e-05
0.00269326
0.00246767
1.01241e-05
0.00356428
0.00471116
0.00163661
0.000140901
0.00299443
0.00321507
5.06078e-09
6.10489e-05
0.0027255
0.00467465
0.00394333
4.34626e-06
0.003843
0.00471116
0.00152719
1.42144e-05
0.000562012
0.0014368
5.0553e-09
0.000771777
0.00467555
0.00467779
0.00248352
4.25564e-06
0.00257801
0.00471116
0.00134889
1.42446e-05
1.42144e-05
6.27405e-05
5.05588e-09
0.00154466
0.00467871
0.00114345
8.38547e-05
4.19276e-06
0.000183701
0.000703198
0.00269074
0.0139265
0.0104281
1.28398e-06
7.8465e-05
0.0015038
0.00175753
2.01557e-10
1.96073e-10
1.98286e-10
2.09208e-10
2.0712e-10
0.0012897
0.0169037
0.0173246
4.18421e-06
0.000275153
0.000419323
0.000553033
0.00373346
0.00239607
1.96236e-10
1.87872e-10
1.8794e-10
2.04888e-10
0.00169369
0.012978
0.0335715
0.000188925
1.81593e-06
4.07595e-06
0.010765
0.0225228
0.0224404
0.0152604
0.00581749
0.00339785
0.00218613
0.00548157
0.0380108
0.000574801
1.38788e-10
1.22411e-05
0.00407215
0.00930967
0.00922903
0.02109
0.0249134
0.0249096
0.0119073
0.00453503
0.0159507
0.000296254
1.3714e-10
1.37739e-10
1.5214e-10
1.68668e-10
1.8464e-10
0.00114864
0.00211227
0.000394252
1.97798e-10
0.00312497
2.16532e-10
1.37167e-10
1.3714e-10
0.00111624
0.00806242
0.00167704
0.00198231
2.00727e-10
1.69152e-10
1.83378e-10
1.79903e-10
1.93787e-10
1.95111e-10
0.00563266
5.95232e-07
6.0993e-05
0.000702851
0.00102285
0.000680521
2.98081e-10
2.89307e-10
2.53672e-10
2.9057e-10
0.00826107
0.0407686
0.00155471
0.00121606
0.000272979
6.82422e-10
6.53831e-10
7.17268e-10
0.000169925
0.000368143
2.91145e-10
3.24552e-10
8.68109e-05
1.41472e-07
0.00261539
1.77268e-10
1.92312e-10
1.13627e-06
8.45574e-06
7.17012e-10
0.00012376
0.00250121
0.00429444
0.00199088
2.65311e-06
2.70668e-06
0.000206738
1.77398e-10
2.46684e-10
1.59063e-10
7.98755e-05
0.000477725
0.000713872
0.0025665
0.0101909
0.0101907
0.000525815
5.92513e-05
1.96121e-10
1.77428e-10
1.54791e-10
1.3431e-10
1.11551e-10
0.00172845
0.00439772
0.00013131
0.00251911
0.00698634
0.00162612
1.04764e-09
1.29373e-06
4.24655e-06
8.57288e-06
1.52432e-05
8.53232e-11
0.000478485
0.00363149
0.000873145
1.10206e-09
1.07809e-09
1.07225e-09
1.072e-09
0.000470842
4.57225e-05
0.000149169
0.000210424
6.38555e-11
6.25209e-11
6.25209e-11
0.0298741
0.0747081
0.130949
0.274622
0.302784
4.17509e-10
4.18454e-10
0.000257482
0.000287951
1.69513e-06
6.25252e-11
6.25209e-11
0.0484869
0.281609
0.633287
0.881238
0.93595
0.0362816
0.00493193
0.000257696
0.000302034
1.66013e-05
7.86469e-11
6.25209e-11
0.0484743
0.735354
1
1
1
0.0546615
0.0613108
0.0328614
0.00101494
1.18628e-10
3.49368e-08
1.58442e-09
6.25224e-11
0.620424
1
0.999172
0.999509
0.0240435
0.0721183
0.0730508
0.0143272
1.03343e-10
9.00178e-11
7.53151e-11
6.34441e-11
0.25211
0.979585
0.999305
0.999434
2.1254e-10
0.0379823
0.0721183
0.04078
0.0159903
0.0142167
0.00371323
7.94367e-11
8.05216e-11
0.669635
0.999139
0.997395
6.99668e-08
4.41416e-08
3.85742e-05
0.000221906
4.69074e-05
2.41303e-09
2.4591e-09
0.00684897
0.0147241
0.0125097
0.000772088
0.00084656
2.63497e-07
2.13292e-05
0.00156923
0.00199472
0.000226226
2.44225e-09
0.000599614
0.00254015
0.00198042
0.00020204
0.00236513
0.0270877
9.80032e-09
0.000253449
0.00219036
0.00175511
1.52024e-11
2.97594e-05
4.41671e-05
7.63611e-10
7.58311e-10
7.77426e-05
0.0264191
0.112334
9.80653e-09
0.000973399
0.00219233
0.000199571
9.81106e-12
3.57979e-11
6.41952e-11
0.00450173
0.0474967
0.112317
0.112334
0.112317
9.8075e-09
0.000995435
0.00210826
1.11326e-11
1.02037e-11
2.70141e-11
0.00363141
0.0208703
0.0269464
0.00964224
5.52808e-06
9.34002e-05
0.000229046
0.0015222
0.000897363
4.42365e-12
4.43959e-12
4.69611e-12
0.000738261
0.00436769
0.00205377
1.26978e-10
1.09655e-10
1.19115e-10
0.000320046
0.00152199
0.000264181
0.0171145
0.105434
0.120073
1.2506e-10
1.25245e-10
1.0551e-10
3.10592e-05
1.09758e-05
1.0399e-10
0.000318541
0.000632614
0.00031264
0.134745
0.269638
0.269636
0.192858
0.00579303
8.67367e-11
7.45558e-05
7.50659e-05
1.39393e-05
5.89356e-05
9.03441e-10
9.05851e-10
0.116405
0.269637
0.269638
0.240959
0.0128847
8.64944e-11
3.14309e-05
4.73463e-05
2.39924e-05
9.08407e-10
9.05762e-10
9.03482e-10
0.0130095
0.109361
0.174967
0.0560695
0.00315101
9.53519e-11
1.01664e-10
1.0112e-10
7.34063e-06
1.06872e-05
3.08111e-05
0.000118747
3.82229e-07
8.26699e-11
0.00261219
8.10466e-11
1.33729e-06
8.13451e-11
8.12528e-11
8.11991e-11
9.18384e-11
6.42676e-11
6.4275e-11
6.42803e-11
6.41934e-11
6.42089e-11
6.4629e-11
6.42089e-11
6.4194e-11
0.000346409
0.00217318
0.00183172
0.000158803
0.000881073
0.00272543
0.0115361
0.010569
8.14475e-09
8.17365e-09
8.15266e-05
0.0001431
7.2584e-05
7.6578e-09
7.27127e-07
6.44033e-06
0.0361816
0.0093287
0.00249317
0.000975247
0.00463253
0.0049717
0.000726968
7.75973e-09
7.72239e-09
7.69192e-09
1.79196e-06
2.15197e-05
0.111793
0.0878689
8.79013e-11
0.00021799
0.0167235
0.0218691
0.0206774
0.0170246
0.00463984
7.68614e-09
7.65569e-09
7.65572e-09
0.0468107
8.78001e-11
9.07747e-11
1.13196e-10
0.00215433
0.0148224
0.0192448
0.0442574
0.0444176
0.0180143
0.00793137
0.00141412
9.99097e-11
6.78302e-07
3.57369e-06
2.9398e-06
5.03577e-11
5.03504e-11
5.03504e-11
6.79498e-11
0.0296829
0.0435018
0.0153011
0.00142735
1.66974e-09
4.48649e-06
8.06148e-06
7.68053e-06
6.42982e-11
5.03775e-11
7.00481e-11
0.00662388
0.130569
0.097723
0.203142
0.457841
1.25085e-06
1.4243e-06
4.3762e-06
2.9941e-06
8.80518e-11
7.13479e-11
8.71181e-11
0.0116427
0.3144
0.496905
0.789874
0.867155
5.51819e-06
2.92694e-10
2.89308e-10
3.64667e-06
9.62028e-06
1.27794e-05
1.0304e-10
0.00563354
0.394724
0.839611
0.867155
0.867155
2.88659e-05
9.95096e-06
1.34722e-07
2.47497e-05
4.04866e-05
7.29982e-05
8.73098e-05
1.63988e-10
0.0751765
0.630552
0.861568
0.867155
2.89472e-05
1.75274e-05
1.24312e-07
2.91354e-05
3.94926e-05
2.64658e-05
0.000107934
1.49615e-10
0.0154868
0.228612
0.438912
0.505374
9.86168e-06
1.30293e-05
3.07528e-06
8.17005e-09
2.1331e-06
8.15865e-09
1.83925e-08
1.47931e-10
0.00450936
0.0600392
0.338556
0.69608
2.30541e-07
2.28825e-07
2.3131e-07
7.80966e-09
8.16636e-09
7.80307e-09
2.40602e-08
8.98331e-10
1.04672e-10
1.04672e-10
0.197182
0.749491
2.29003e-11
6.76178e-13
9.1057e-14
9.04384e-14
9.04384e-14
9.04384e-14
9.04394e-14
3.37736e-11
0.00111815
0.0137085
0.022237
0.0054716
5.08394e-11
1.03192e-06
4.71995e-05
3.14038e-11
0.00484798
0.0336638
0.0167417
3.26552e-11
6.26349e-11
0.0033887
0.0421811
0.0492591
8.69789e-11
2.40251e-06
2.34704e-05
3.41585e-05
0.0366632
0.0741776
0.0249049
3.2784e-11
0.000118645
0.000723365
0.000739249
1.75171e-10
2.72375e-07
2.01952e-06
2.025e-06
0.00346072
0.0628472
0.0741778
0.0373382
3.24192e-11
8.84893e-05
0.000179898
2.62439e-10
2.20044e-05
4.47343e-07
1.00742e-09
4.98307e-05
0.00301143
0.0575398
0.0741776
0.0303474
3.23023e-11
1.00486e-05
2.75463e-10
2.98818e-09
4.03767e-05
3.97314e-07
9.86493e-10
0.000443817
0.00283889
0.0246589
0.0485088
0.00843888
3.22419e-11
5.25103e-11
1.121e-08
5.54778e-08
2.35371e-08
2.1345e-06
1.33053e-05
0.000669732
0.00159844
4.18111e-05
0.000931294
5.45078e-09
1.20299e-07
5.26603e-11
5.28223e-11
5.34332e-11
6.14684e-08
3.2017e-06
1.7099e-05
0.000102612
1.0798e-05
5.15787e-10
5.25838e-10
4.13673e-09
1.9628e-07
9.64966e-06
1.52673e-05
8.93235e-06
9.65094e-11
8.49527e-07
4.94383e-10
4.94315e-10
4.93309e-10
4.93908e-10
3.79014e-09
8.35752e-09
4.17389e-10
9.00602e-06
2.89327e-05
2.88437e-05
2.77123e-05
1.20796e-10
0.00235951
0.00948922
0.0113379
0.00556505
3.98116e-10
3.98544e-10
3.98116e-10
8.23712e-07
5.83157e-06
1.25674e-05
1.39775e-05
1.04721e-10
0.00345325
0.0180512
0.0190495
0.0190786
0.0179148
0.0107439
0.00419543
1.50471e-10
1.3371e-10
1.24442e-10
1.25107e-10
8.84116e-11
8.93175e-11
0.00458412
0.00479241
0.00402331
0.00288368
0.00187874
0.000853767
6.01279e-05
1.18919e-10
1.05881e-10
1.05815e-10
0.00298094
0.00862206
0.0504746
0.0525156
0.0517375
0.00967049
0.000461947
0.000450874
1.75143e-05
7.54833e-09
7.57585e-09
7.58385e-09
0.0492303
0.0406563
2.00606e-10
2.32888e-10
0.000335319
0.00398503
0.00590422
0.00406638
0.00331995
7.58268e-09
0.00210122
1.03221e-05
1.57807e-10
1.76658e-10
1.81646e-10
2.29204e-10
2.53226e-10
0.00651286
0.108092
0.169745
0.109058
0.0623113
0.0351359
0.0187054
0.000297049
0.000357359
6.64502e-05
2.28019e-10
2.51415e-10
0.0223853
0.131205
0.175836
0.177166
0.177428
0.164446
0.135564
0.00111729
0.00142499
0.000918403
2.30366e-10
2.2707e-10
2.2716e-10
2.27106e-10
2.3111e-10
0.00362622
0.0527538
0.131383
0.22286
0.000686284
0.00142791
0.00142499
0.000498108
2.30734e-10
3.36057e-06
1.10694e-07
2.51219e-07
8.10738e-10
2.43883e-10
2.44913e-10
0.00728871
2.68241e-05
0.000140839
0.000180796
0.000221794
0.000167489
2.01366e-08
7.47365e-09
6.55196e-09
5.47793e-05
0.000316829
0.00090694
3.13641e-05
1.09549e-10
1.13388e-10
1.28977e-10
1.25421e-10
1.28131e-10
2.26755e-06
1.01916e-05
3.15277e-10
3.0962e-10
3.14869e-10
0.00107495
0.00492921
1.92342e-05
5.89773e-06
1.4555e-10
2.27909e-08
5.94341e-07
1.13509e-05
0.000111902
0.000509924
5.30631e-05
0.000384434
0.000240545
0.00521029
1.37287e-05
7.86524e-06
1.62023e-06
5.10105e-08
5.25604e-10
5.17481e-10
2.11932e-10
0.00251001
0.0114257
0.015161
0.00407852
9.351e-05
8.42015e-08
5.20913e-07
3.33679e-08
3.31291e-08
2.51047e-07
6.74389e-09
1.99118e-10
0.000112299
0.019433
0.0202229
0.0189337
0.000777822
1.05901e-10
1.08308e-05
4.78096e-05
4.79329e-05
2.56772e-05
2.05646e-10
1.99637e-10
2.09394e-10
2.13988e-10
0.0125712
0.0151533
0.00454762
0.281278
0.248161
0.0750467
0.00314991
8.98084e-06
8.98085e-06
0.00873417
0.0313068
0.0313068
0.0313068
0.0313068
0.0313063
0.00433675
0.00433185
0.00432734
0.00333477
0.0208259
0.0157524
5.49852e-06
0.00514695
0.00369046
0.00102284
0.000203087
1.32661e-10
0.0239136
0.0147631
0.151056
0.200782
0.106234
2.08038e-10
2.24519e-10
2.5187e-10
2.38647e-10
2.14665e-10
1.92083e-10
1.67875e-10
0.0582534
0.0251902
0.198063
0.201102
0.104688
2.02344e-10
2.21729e-10
2.46482e-10
7.65705e-07
6.29181e-06
7.89903e-06
1.94558e-10
0.0672225
0.00812628
0.0961553
0.113922
0.0127772
2.02358e-10
2.02344e-10
2.25494e-10
3.78764e-06
6.63721e-05
8.13848e-05
4.07382e-05
0.0300086
0.000279828
0.000505312
0.00155961
3.59205e-07
2.86308e-05
7.04968e-05
2.2542e-10
2.89737e-07
4.44098e-05
8.17007e-05
4.76197e-06
1.28364e-06
0.000267288
1.18286e-10
1.18736e-10
4.83404e-07
0.000100939
0.000158392
0.000128339
1.77423e-07
7.14457e-06
9.71086e-06
4.78348e-07
2.29918e-05
0.0014151
1.00699e-10
1.00901e-10
1.02529e-10
3.37154e-05
0.00013333
0.000186905
0.000185544
7.97514e-05
1.16007e-10
1.09546e-10
1.65116e-10
0.00232792
0.00912118
0.00365765
8.21385e-11
8.19072e-11
8.5288e-11
8.00377e-05
0.000127632
0.000126883
4.57029e-05
1.39675e-05
0.0118214
0.00098018
0.0180246
0.0213384
0.021252
0.011658
0.0030605
2.60912e-06
3.95049e-06
1.04272e-05
1.25177e-05
7.5964e-06
0.135496
0.000402195
0.00379798
0.013006
0.0114845
0.0176117
0.0175484
0.0126066
0.000392159
1.18294e-10
1.125e-10
1.12386e-10
0.126109
0.0922377
0.017048
0.000126452
0.000128234
0.00130017
0.00322873
0.00207433
0.00153045
0.00481051
0.00484212
0.00436055
0.00790201
0.00028737
0.000887052
0.00143606
0.00409021
0.0117377
0.0456514
0.0554128
0.055428
0.0230844
0.000533018
0.392051
1.64796e-10
0.000400972
0.00262353
0.00267895
0.00240703
0.000199311
9.72658e-11
1.02493e-10
0.0544023
0.0277005
0.000533018
0.295008
1.92682e-10
6.58153e-05
0.00162577
0.00242238
0.000118831
9.63544e-11
9.64589e-11
0.00633809
0.00637937
0.00712782
0.000533018
0.161542
9.15445e-05
0.000263547
0.000153677
9.65147e-11
9.63482e-11
1.06519e-10
1.23339e-10
0.00635769
0.0229631
0.00808502
0.000533018
0.309863
1.2547e-10
6.61325e-07
1.26744e-10
1.17509e-10
1.16724e-10
1.39018e-10
1.43655e-10
0.00204763
0.0825884
0.0651898
0.254619
0.811986
1.25411e-10
1.39123e-05
4.70038e-05
8.66511e-05
0.000201073
1.65655e-10
1.61949e-10
0.00249682
0.139508
0.212049
0.670475
0.837004
1.06082e-10
1.24118e-10
0.000500877
0.00341194
0.00401405
0.00113862
0.000105415
7.29404e-05
0.0890799
0.457245
0.748553
0.850499
1.06304e-10
1.22981e-10
0.000766519
0.00489378
0.00487853
0.00489378
0.00353093
0.00710158
0.0320379
0.592154
0.77394
0.961184
1.11462e-10
0.00013791
0.000495865
0.00179347
0.00359677
0.00178451
0.00461335
0.00894758
0.0140534
0.52305
0.907644
0.999989
1.13506e-10
0.000153272
0.00061694
0.000612696
0.00051536
0.000515676
0.00051536
0.000515676
0.00420506
0.133654
0.949835
0.999989
1.12282e-10
1.1865e-10
0.000155899
0.000524653
0.000515676
0.00554124
0.00725495
0.00823916
0.00721255
0.00489565
0.821402
0.999989
0.000364159
1.31264e-10
1.29912e-10
1.30147e-10
0.0175328
0.0622482
0.0267739
0.0181845
0.0272126
0.00493431
0.338316
0.989376
0.430985
0.00864197
0.0517828
0.227428
0.391367
0.442796
0.295262
0.0666818
0.0644467
0.10904
0.128264
0.140848
0.555109
0.239549
0.439024
0.600124
0.7587
0.776081
0.775738
0.726943
0.715687
0.742689
0.764918
0.732519
0.347848
0.757665
0.76026
0.750928
0.776081
0.775561
0.742018
0.687367
0.677948
0.734727
0.770843
0.770928
0.0263479
0.301182
0.147831
0.0917137
0.280233
0.346946
0.321643
0.164725
0.0571215
0.074096
0.122104
0.280427
1.20157e-10
8.4482e-11
3.66518e-11
3.86369e-11
6.61533e-11
6.69419e-11
8.41697e-06
3.41912e-11
3.44035e-11
3.41912e-11
4.6283e-11
0.001004
0.00147117
1.10184e-10
1.07951e-10
1.18718e-10
4.69273e-11
0.00726179
0.00348245
3.57806e-06
5.70259e-11
6.17627e-11
3.62636e-11
0.0150511
0.330058
0.0570451
2.46524e-11
3.32447e-12
1.86768e-11
0.233912
0.446262
0.351914
0.0594753
6.33768e-11
5.7148e-06
0.0245561
0.67412
0.211691
3.0802e-11
2.34622e-18
7.09394e-12
0.440899
0.808074
0.804672
0.427315
0.0195222
0.000181337
3.94824e-05
0.689898
0.505909
0.0298008
1.5818e-11
-4.00642e-12
0.559353
0.808023
0.808165
0.800492
0.336874
0.00300282
2.60106e-11
0.689665
0.554689
0.0571528
1.60693e-11
-3.31357e-10
0.588191
0.808891
0.808164
0.808714
0.701644
0.141942
5.21447e-11
0.690299
0.689544
0.276681
2.84358e-11
0.06106
0.695541
0.808169
0.80815
0.808164
0.808761
0.60729
0.105758
0.691596
0.690299
0.425174
0.0293438
0.0182334
0.281049
0.803515
0.808164
0.808761
0.808167
0.775775
0.49839
0.00647785
0.000243682
0.0130398
0.223533
0.584016
0.670791
0.552452
0.303347
0.0095603
0.190144
0.952544
0.997281
0.387202
0.00988351
0.0322384
0.578616
0.99249
1
1
1
0.533144
0.171976
0.40318
0.993938
0.747497
0.379345
0.153843
0.515821
0.995111
1
1
1
1
0.90307
0.676351
0.677266
0.652182
0.662309
0.555865
0.685161
0.952873
1
0.999999
0.999999
0.999999
1
1
0.900816
0.415567
0.564501
0.28207
0.184703
0.433566
0.920032
0.999999
0.999969
0.999924
0.999926
0.999986
0.999989
0.165465
0.135955
0.0520067
0.000135967
0.00016589
0.222365
0.873513
0.999997
0.999996
1
0.999916
0.999931
0.0157169
1.77758e-11
2.65203e-12
0.000862397
0.000327252
2.59465e-12
0.158416
0.817225
1
1
0.999904
0.999793
3.02772e-12
5.96474e-06
2.22103e-07
-1.15877e-11
-2.20775e-11
-8.54811e-12
6.39173e-12
0.204183
0.86473
1
0.999993
0.99995
9.90756e-12
5.96512e-05
2.85543e-11
2.24705e-11
2.32219e-11
1.98972e-11
3.38033e-12
7.3913e-12
0.36183
0.955431
1
1
3.31766e-11
2.71396e-11
0.0297976
0.113085
0.160036
0.048681
0.000124265
2.58781e-11
0.037331
0.64843
0.998615
1
5.91041e-11
2.59738e-11
0.0666965
0.488332
0.561149
0.458905
0.0675763
5.95848e-11
4.74314e-11
0.23082
0.849794
0.985677
0.0119672
4.32273e-11
0.0739453
0.502557
0.561652
0.561149
0.426824
0.010282
0.0124169
0.342452
0.545648
0.583889
0.523207
0.40754
0.398211
0.390436
0.329435
0.293482
0.325519
0.433538
0.48987
0.246703
0.0117516
0.000114468
0.978099
0.973668
0.98071
0.981951
0.959669
0.948558
0.955283
0.976195
0.994002
0.998118
0.937725
0.368282
0.838297
0.997086
1
1
1
1
1
0.999079
0.986451
0.9859
0.987749
0.987144
0.885757
0.889448
0.927031
0.986498
0.999893
1
1
1
0.990883
0.963615
0.96373
0.983584
0.994727
0.989958
0.974607
0.963907
0.963955
0.963885
0.98108
0.999759
1
0.990921
0.963917
0.974673
1
1
1
1
0.991929
0.96777
0.969475
0.996005
1
1
0.994115
0.982632
0.9998
0.999926
1
1
1
0.998504
0.997925
0.997918
0.99911
1
1
0.997132
0.999996
1
1
1
1
1
1
0.999998
0.999999
1
1
1
0.998774
0.996573
0.996648
0.999399
1
1
0.999686
0.999821
1
1
1
1
1
1
1
0.969791
0.781372
0.459009
0.40779
0.630166
0.772099
0.751766
0.686786
0.656739
0.975917
0.961708
0.928029
0.773025
0.277041
0.0294214
0.114215
0.445009
0.442057
0.256583
0.0523872
0.0205294
0.550025
0.493713
0.418622
0.328602
0.124867
0.0274788
0.0283215
0.256806
0.396696
0.307268
0.040314
0.0177922
0.000527047
0.000407113
3.33325e-05
8.53598e-05
0.000207826
8.69401e-05
1.53748e-06
4.72865e-10
6.15358e-10
2.20936e-10
1.04672e-10
0.494672
0.00659013
0.000387096
0.0010609
0.0022046
0.00219462
0.000677019
2.49521e-10
4.24798e-10
6.32796e-10
3.91498e-10
1.05349e-10
0.148151
0.742086
0.119482
0.00120977
0.00211499
2.67393e-10
2.4267e-10
2.17418e-10
1.93508e-10
1.63847e-10
1.34818e-10
1.15618e-10
1.30127e-10
0.999423
0.945106
0.64852
0.193296
0.11122
0.155601
0.216381
0.303608
0.377277
0.240767
0.0121534
0.00123633
0.999
0.999688
0.978167
0.943759
0.979584
0.964502
0.946943
0.968618
1
0.996732
0.550914
0.0236068
0.988583
0.999484
1
1
1
1
1
1
1
1
1
0.497413
0.99344
0.996364
1
1
1
1
0.999999
0.999999
0.999999
1
1
0.954113
0.999666
0.999656
0.999943
1
1
1
1
1
0.999999
0.999999
1
1
1
1
1
0.957104
0.774163
0.688071
0.861676
0.997116
1
1
1
1
0.846342
0.998196
0.985835
0.645665
0.103217
3.17413e-10
0.0836071
0.53501
0.877924
0.926468
0.908789
0.872695
0.411103
0.867744
0.783246
0.259358
0.0003005
3.0951e-10
2.79371e-10
2.90503e-10
0.0469956
0.241381
0.24901
0.176365
0.159805
0.445759
0.404043
0.196203
0.00191551
0.00349805
0.00746214
0.00577385
0.0057712
0.0155778
0.0710859
0.0744757
0.661276
0.692212
0.468135
0.118237
1.41463e-10
1.10261e-10
1.07816e-10
1.07472e-10
1.07051e-10
1.0723e-10
0.00179499
0.00774193
0.837241
0.997174
0.973369
0.74557
0.272127
0.123841
0.206976
0.314822
0.397058
0.455776
0.537826
0.614296
0.537405
0.993282
0.997931
0.882201
0.576225
0.625366
0.850942
0.967691
0.985544
0.99274
0.998176
0.999974
0.205111
0.888829
0.997931
0.997931
0.835312
0.739404
0.897873
1
1
1
1
1
0.0316387
0.525408
0.981695
0.997931
0.973612
0.703429
0.65693
0.902246
1
1
1
1
0.0764687
0.125504
0.656598
0.99338
0.99744
0.796645
0.549441
0.596143
0.922678
1
1
1
0.294555
0.0211354
0.0589272
0.675482
0.991395
0.976428
0.691887
0.306735
0.404804
0.821885
0.999991
1
0.717474
0.0492749
1.73966e-10
0.202318
0.411745
0.292758
0.214527
0.108585
0.0145618
0.0930023
0.616325
0.980656
0.937798
0.206656
1.69565e-10
1.56068e-10
6.06361e-05
1.32956e-10
1.56903e-10
1.41339e-10
1.26446e-10
1.1882e-10
0.00722945
0.265501
0.863432
0.386552
1.50614e-10
1.2921e-10
1.17347e-10
1.34456e-10
1.16827e-10
1.33034e-10
1.0896e-10
1.04389e-10
1.16535e-10
1.33514e-10
0.185216
0.217039
0.0759178
0.000579052
1.15633e-10
0.00202973
2.74817e-06
1.12609e-10
8.65053e-11
8.6505e-11
0.00258919
0.015121
0.0762376
0.257554
0.404187
0.404445
0.403737
0.272646
0.00869387
1.18195e-10
6.12988e-07
0.231291
0.356929
0.353156
1.19614e-10
1.21653e-10
1.23758e-10
1.25113e-10
1.56784e-10
1.87409e-10
2.20005e-10
0.00135387
0.00122782
0.000481117
0.00019736
0.00260838
0.671916
0.627734
0.507719
0.442088
0.306665
0.296716
0.379973
0.470437
0.48481
0.451951
0.437803
0.168748
1
1
0.992952
0.981097
0.992801
1
1
1
1
1
1
0.96641
0.999997
0.999997
1
1
1
0.999915
0.999645
0.999582
0.999909
1
1
1
1
0.999998
0.999998
1
1
1
0.997153
0.996879
0.997152
0.999074
0.999978
1
1
1
1
1
1
1
0.9998
0.997623
0.997031
0.997055
0.999215
1
1
1
1
1
1
1
1
1
1
0.999898
0.999731
0.999891
1
1
1
1
0.997664
0.986881
0.955615
0.938114
0.968672
0.999214
0.996964
1
0.788071
0.926571
0.910158
0.851002
0.741076
0.49081
0.240262
0.173393
0.243557
0.54071
0.487331
0.649499
0.0908773
0.216816
0.208908
0.156312
0.111257
0.0640652
0.0145835
1.36263e-10
1.20848e-10
1.21657e-10
1.20845e-10
0.00457781
0.000458623
1.21512e-10
1.042e-10
1.03062e-10
1.13767e-10
1.25804e-10
1.41417e-10
0.00182118
2.36098e-05
1.42415e-10
1.49493e-10
2.28644e-10
0.141485
1.04243e-10
8.50041e-11
0.00332525
0.00889097
0.0143284
0.0239037
0.0221281
0.0328623
0.0628161
0.142323
0.0913185
0.00401252
0.00353833
0.010516
0.0127663
0.0127428
0.00715595
0.000125574
0.000106698
0.000232038
0.00113983
0.00148669
0.000987708
0.0126088
0.00200863
0.0020075
0.00298977
0.00458872
0.000936708
0.000106698
0.000106697
0.00055302
0.00151625
0.00131657
0.000238854
0.594366
0.123018
0.00200863
0.0020075
0.0454408
0.0834306
0.05338
0.00431281
0.000643392
0.00144788
0.00207434
0.00158397
1
0.959134
0.432141
0.0228756
0.0138396
0.073933
0.103834
0.104149
0.0830132
0.00638839
7.04741e-05
6.4761e-05
1
1
1
0.562964
0.0445956
0.00510487
0.0544686
0.103834
0.0728794
0.00622918
7.36374e-05
0.0206692
1
1
1
0.963237
0.308323
0.00221357
0.00160943
0.00640099
0.00338254
0.00232704
0.000362368
3.33994e-06
1
1
1
1
0.600222
0.0150591
1.14135e-10
9.98777e-11
0.000233448
0.000441318
0.000277511
1.02997e-05
1
1
1
1
0.763846
0.0566619
1.00441e-10
7.89514e-11
1.03957e-08
0.00027014
0.00035327
0.000324452
0.943989
0.986939
0.912544
0.689996
0.337966
0.0362906
9.86491e-11
7.97623e-11
9.89732e-11
1.1993e-10
6.99974e-06
7.61873e-06
0.418884
0.579151
0.418957
0.146499
0.010492
0.00876883
0.0108999
0.00922745
0.0109169
0.00309354
4.98227e-11
5.4897e-11
0.0209606
0.0288662
0.0289266
0.0289947
0.0769305
0.194432
0.238826
0.1082
0.105996
0.0960188
0.0370035
0.0013486
0.0612516
0.0400251
0.0344859
0.0900606
0.35849
0.410203
0.40908
0.410672
0.433033
0.401759
0.187878
0.00183927
0.000130057
1.30063e-10
0.018855
0.0734527
0.0766595
0.0728716
0.0128533
8.98375e-05
0.0246311
0.0324347
0.000607687
0.838398
1.65118e-10
1.27273e-10
0.0565042
0.0753971
0.0767891
0.0306607
0.000627436
6.88296e-05
0.000814735
0.0165513
0.000566214
0.551024
1.8338e-10
0.00251132
0.0308362
0.0346574
0.0147038
0.000205368
5.63166e-05
0.000171583
0.000467521
0.000513539
0.00055622
0.0652841
6.42879e-05
0.000892605
0.00175261
0.00141
0.000393267
0.000335063
0.000379524
0.000214076
0.00244875
0.0130335
0.0116258
1.96028e-10
0.036833
0.0294772
0.000356225
9.52477e-05
9.48666e-05
0.00263273
0.00737458
0.00219312
0.00287909
0.0383539
0.0384596
3.46065e-05
0.00951226
0.0946026
0.0906513
0.0290295
9.52477e-05
0.00366004
0.00747981
0.00752944
0.000816307
3.0799e-10
0.12329
0.09488
3.33993e-06
0.0144684
0.259718
0.258296
0.119438
0.0031747
0.00132365
0.000786153
0.000209753
2.97228e-10
0.0904812
0.41581
1.49973e-05
6.87862e-13
0.212618
0.636894
0.641611
0.22243
0.0435412
0.0183463
3.29257e-10
3.02803e-10
0.105286
0.655171
2.48643e-06
8.19396e-16
0.0779855
0.796178
0.889181
0.758055
0.611126
0.587692
0.192841
3.17886e-10
0.180128
0.684121
6.07748e-10
1.08274e-18
0.0353096
0.767636
0.889107
0.889185
0.889107
0.88918
0.546117
0.0993063
0.33526
0.687484
2.1851e-11
2.02295e-19
0.0734178
0.785146
0.889186
0.889109
0.842707
0.559797
0.1069
0.079592
0.62239
0.691596
2.62341e-19
2.43788e-19
0.199234
0.774772
0.752719
0.653999
0.390693
0.102776
0.0361381
0.036792
0.202368
0.690299
0.676831
0.637284
0.586005
0.177919
0.0571398
0.434926
0.76302
0.80815
0.684261
0.135995
3.78373e-10
0.015183
0.635391
0.633204
0.577452
0.126322
0.0248636
0.148988
0.600883
0.808164
0.578335
0.0332109
3.76279e-10
3.87289e-10
0.318388
0.307871
0.148577
0.107381
0.0229499
0.0332693
0.308641
0.670299
0.62002
0.0411804
3.77225e-10
0.00145094
0.00318967
0.0139367
0.0171488
0.033653
0.0154436
0.00361321
0.193635
0.616503
0.606038
0.0246712
3.87293e-10
0.00949439
7.83374e-05
0.00218384
0.00572673
0.00854885
0.00413996
6.23254e-05
0.0958474
0.410416
0.508263
0.0846077
3.73499e-10
0.00437953
3.75304e-07
1.11077e-07
1.11044e-07
1.11075e-07
9.09247e-05
5.70383e-05
0.0338973
0.189011
0.277988
0.0915989
3.73639e-10
3.71263e-10
2.81313e-11
0.000235872
0.00236148
0.00337066
0.00141923
8.81379e-05
0.000532618
0.00268899
0.00891865
0.00237191
1.40187e-05
6.2715e-06
2.9604e-11
0.00146541
0.0122082
0.0121825
0.00886061
2.39702e-10
2.46096e-10
2.54608e-10
2.61254e-10
1.44795e-05
7.37985e-05
0.000111453
0.0280263
0.00117376
0.0048705
0.0122082
0.0113682
0.00119646
2.40126e-10
1.47386e-05
2.8507e-05
6.07058e-05
0.000129138
0.000129021
0.0386493
0.00817307
1.31947e-10
0.00187376
0.00331033
0.00337037
9.53925e-05
5.03836e-06
1.41446e-05
1.94686e-05
2.0465e-06
2.69337e-05
0.010158
0.00475347
1.21867e-10
1.22623e-10
0.000189403
0.00138584
0.00148869
4.02899e-06
3.92754e-06
3.82774e-06
4.21888e-10
4.21937e-10
8.57671e-11
1.96189e-05
3.93526e-06
1.11533e-10
9.7462e-05
0.00200718
0.00268358
0.00206746
0.000245423
2.36167e-05
4.22066e-10
4.01869e-08
0.0320873
0.000762116
0.00713345
0.0924134
0.137157
0.154305
0.0329954
0.00601851
0.0445157
0.0726561
0.0773196
0.0785821
0.0015874
0.00075151
0.00747994
0.0884882
0.123139
0.0587087
3.73452e-10
1.76592e-05
6.74165e-05
3.0169e-10
2.89865e-10
2.70203e-10
0.00689761
0.00784225
0.00963012
0.0123947
0.00786603
0.00775611
0.00876401
0.00805278
3.05845e-10
2.80941e-10
2.7952e-10
2.51017e-10
0.0205982
0.0207843
0.004327
2.7485e-05
2.74904e-05
6.84983e-05
0.000592041
0.00122722
0.000975937
2.82434e-10
2.99726e-10
1.60488e-06
0.0128663
0.0132851
0.00456218
2.74925e-05
0.000188855
0.000575395
0.000573286
0.000343277
0.000124768
0.000117549
1.15235e-05
1.38263e-06
3.73537e-10
3.71158e-10
4.28371e-08
0.000204589
3.64574e-05
5.70293e-05
8.48572e-05
9.97069e-05
0.000112962
0.000131113
0.000128608
3.14239e-05
2.28218e-06
3.97259e-10
3.8415e-07
1.74418e-06
2.56137e-05
7.79402e-05
8.38888e-05
6.40344e-05
2.00105e-05
2.97576e-05
4.14486e-05
1.92464e-05
8.20546e-05
1.85921e-05
2.0482e-07
1.95292e-07
2.06815e-09
5.62862e-07
2.61253e-06
6.95702e-06
8.33782e-06
3.29294e-06
6.88949e-09
2.55002e-08
0.000129138
0.000127604
1.96594e-05
2.05756e-09
2.10579e-09
5.84646e-09
5.97252e-09
6.04998e-09
6.69914e-08
2.58711e-07
2.68197e-07
3.16068e-10
7.57487e-05
0.00012023
0.000104224
8.60069e-09
4.23237e-07
1.14518e-07
2.0924e-08
1.48658e-08
8.85424e-09
8.8745e-09
3.40289e-08
9.99215e-09
4.23723e-10
4.36812e-06
2.13626e-05
4.76256e-05
2.92328e-05
4.71636e-08
4.63028e-08
1.25852e-07
1.44019e-07
6.98896e-08
1.28418e-07
7.28836e-08
7.64034e-10
7.6542e-10
6.72171e-07
1.14203e-05
1.7743e-05
1.43392e-05
1.57828e-06
1.58633e-06
1.32564e-06
1.08802e-06
9.69341e-08
1.90487e-08
0.0504232
0.0538768
0.0554346
0.0551741
0.0593409
0.0645019
0.064514
0.0497331
0.0371958
0.0233393
0.0170478
0.0173349
2.69054e-10
2.71146e-10
0.00102879
0.00192916
0.000607994
0.00147657
0.000295716
2.07779e-10
2.23349e-10
4.35905e-06
0.0014127
0.000474673
2.50777e-10
2.51018e-10
2.51381e-10
2.34745e-10
2.18217e-10
2.02169e-10
1.85821e-10
1.90196e-10
2.06212e-10
2.21864e-10
2.38314e-10
2.30186e-06
4.73765e-06
4.67161e-06
2.34851e-06
1.80563e-06
2.85656e-06
2.06703e-06
1.69362e-10
1.74095e-10
1.91237e-10
2.4016e-07
1.52742e-06
1.91042e-06
2.7614e-06
3.73879e-06
4.12859e-06
3.10032e-06
7.58568e-07
9.537e-07
7.49011e-08
1.7583e-10
6.25658e-09
6.02116e-08
1.27616e-07
1.6017e-10
5.46358e-07
5.75202e-07
1.72299e-06
8.72364e-07
4.2267e-10
6.32662e-10
6.25347e-09
2.25187e-10
4.29958e-10
9.39065e-11
7.97178e-11
1.2294e-10
4.19445e-07
3.71534e-10
3.66325e-10
3.85159e-10
4.24273e-10
7.65908e-10
1.92127e-10
9.44396e-11
9.85849e-11
6.78988e-11
6.23516e-11
7.49785e-11
2.85177e-07
4.0416e-08
3.46338e-10
3.84346e-10
5.66788e-10
8.10979e-10
2.53487e-10
3.54036e-11
3.05448e-11
2.63477e-11
3.35633e-11
5.86141e-11
5.49055e-10
1.07905e-08
1.60516e-09
3.32674e-10
3.29316e-10
3.33351e-10
1.41185e-10
2.32929e-11
1.52155e-11
1.15575e-11
1.62706e-11
3.62344e-11
2.91604e-10
3.13102e-10
5.37692e-10
2.61543e-10
1.76569e-10
1.23765e-10
6.55051e-11
2.65227e-11
1.50488e-11
8.34583e-12
7.97076e-12
2.13313e-11
2.90697e-10
3.77466e-10
3.50755e-10
2.52029e-10
1.57458e-10
9.47134e-11
5.67474e-11
3.24162e-11
1.73161e-11
8.05489e-12
3.81988e-12
5.74909e-12
2.90785e-10
3.59758e-10
4.00734e-10
3.21619e-10
1.96381e-10
1.12255e-10
6.60982e-11
3.75281e-11
1.88403e-11
7.96204e-12
2.73061e-12
1.68563e-12
0.0147516
0.014726
0.0064446
0.00377191
0.0235712
0.051324
0.0482663
0.00764191
0.064811
0.3632
0.426444
0.394846
5.38462e-10
5.5351e-10
5.38521e-10
2.95905e-05
1.83721e-05
4.6117e-07
2.71269e-10
2.80914e-10
2.92202e-10
0.0389481
0.32143
0.396555
9.29613e-06
2.81927e-05
0.000103008
0.000116314
0.000102397
4.21487e-06
2.27469e-06
2.84742e-06
3.34046e-10
3.42296e-10
0.0542208
0.258154
2.07535e-06
3.31799e-06
3.0713e-06
1.6989e-06
1.30665e-06
8.77065e-06
1.74747e-05
1.35107e-05
4.81486e-10
3.8368e-10
3.85392e-10
0.158484
1.20668e-07
1.22462e-06
1.92953e-06
1.84906e-06
3.35198e-06
6.4249e-06
5.39309e-06
3.16441e-09
7.599e-07
2.90981e-08
3.64275e-10
3.76656e-10
2.4995e-09
4.05965e-07
1.54374e-06
1.86861e-06
6.16418e-07
4.73226e-10
8.60591e-10
3.54843e-09
2.54968e-08
6.40296e-08
1.47679e-09
3.85466e-10
8.34359e-11
2.40724e-10
4.39255e-09
2.15046e-08
7.07237e-08
5.0985e-08
4.36056e-08
8.90416e-09
4.34918e-10
4.42905e-10
4.44911e-10
4.22766e-10
1.03041e-10
1.79856e-10
2.59721e-10
3.1266e-10
3.45359e-08
1.23846e-07
1.24137e-07
6.45438e-08
4.34954e-10
5.01421e-10
4.74813e-10
3.57241e-10
7.73387e-11
1.7195e-10
2.99286e-10
8.38745e-10
4.29822e-08
9.14357e-08
9.73915e-08
5.87537e-08
4.39013e-10