/*--------------------------------*- C++ -*----------------------------------*\
| =========                 |                                                 |
| \\      /  F ield         | OpenFOAM: The Open Source CFD Toolbox           |
|  \\    /   O peration     | Version:  v1606+                                |
|   \\  /    A nd           | Web:      www.OpenFOAM.com                      |
|    \\/     M anipulation  |                                                 |
\*---------------------------------------------------------------------------*/
FoamFile
{
    version     2.0;
    format      ascii;
    class       surfaceScalarField;
    location    "0.0004";
    object      phi;
}
// * * * * * * * * * * * * * * * * * * * * * * * * * * * * * * * * * * * * * //

dimensions      [1 0 -1 0 0 0 0];

internalField   nonuniform List<scalar> 
4795
(
1.8272e-07
1.82589e-07
1.97026e-07
1.13406e-07
1.37287e-07
7.58499e-08
1.51506e-07
6.86649e-08
1.09223e-07
3.34797e-08
8.53076e-08
1.93517e-08
7.007e-08
1.25988e-08
5.94855e-08
8.87178e-09
5.16451e-08
6.58925e-09
4.55491e-08
5.0802e-09
4.06332e-08
4.0236e-09
3.65579e-08
3.25083e-09
3.31087e-08
2.6664e-09
3.01434e-08
2.21279e-09
2.75646e-08
1.85348e-09
2.53034e-08
1.56429e-09
2.33099e-08
1.32858e-09
2.15463e-08
1.13459e-09
1.99832e-08
9.73723e-10
1.8596e-08
8.39551e-10
1.73636e-08
7.27126e-10
1.62662e-08
6.32539e-10
1.52854e-08
5.52628e-10
1.44035e-08
4.84801e-10
1.36035e-08
4.27057e-10
1.28699e-08
3.7778e-10
1.21897e-08
3.34464e-10
1.1551e-08
2.97061e-10
1.09446e-08
2.6449e-10
1.03643e-08
2.35141e-10
9.80525e-09
2.09432e-10
9.26522e-09
1.86425e-10
8.74329e-09
1.65977e-10
8.23994e-09
1.47638e-10
7.75593e-09
1.31635e-10
7.29303e-09
1.171e-10
6.85236e-09
1.04529e-10
6.43532e-09
9.32533e-11
6.042e-09
8.40417e-11
5.67293e-09
7.58288e-11
5.32882e-09
6.7798e-11
5.00697e-09
6.27638e-11
4.70733e-09
5.75552e-11
4.42932e-09
5.22908e-11
4.16958e-09
4.93713e-11
3.92727e-09
4.60809e-11
3.70129e-09
4.2489e-11
3.48843e-09
4.0631e-11
3.28785e-09
3.81186e-11
3.09791e-09
3.57559e-11
2.91669e-09
3.38782e-11
2.74332e-09
3.15111e-11
2.57602e-09
2.96435e-11
2.41376e-09
2.7652e-11
2.25585e-09
2.52709e-11
2.10107e-09
2.31617e-11
1.94832e-09
2.13343e-11
1.79725e-09
1.91605e-11
1.64764e-09
1.66193e-11
1.49815e-09
1.49703e-11
1.34912e-09
1.26538e-11
1.19982e-09
1.08837e-11
1.05021e-09
9.05688e-12
9.00205e-10
7.36425e-12
7.49994e-10
5.64277e-12
5.99459e-10
4.34514e-12
4.48866e-10
3.23931e-12
2.98582e-10
2.38477e-12
1.49154e-10
1.65505e-12
1.83902e-12
1.1354e-07
1.96752e-07
1.35099e-07
1.34824e-07
1.18282e-07
9.428e-08
1.10276e-07
6.81809e-08
9.25557e-08
4.54447e-08
7.74457e-08
3.08775e-08
6.58612e-08
2.1891e-08
5.69876e-08
1.61637e-08
5.00347e-08
1.23413e-08
4.44417e-08
9.67543e-09
3.98332e-08
7.74429e-09
3.59582e-08
6.30044e-09
3.2646e-08
5.19245e-09
2.97785e-08
4.3239e-09
2.72719e-08
3.6311e-09
2.50656e-08
3.07068e-09
2.31146e-08
2.61222e-09
2.13846e-08
2.23385e-09
1.98485e-08
1.91942e-09
1.84833e-08
1.65671e-09
1.72688e-08
1.43625e-09
1.61862e-08
1.25052e-09
1.52175e-08
1.0934e-09
1.43453e-08
9.59899e-10
1.35535e-08
8.45875e-10
1.28271e-08
7.47842e-10
1.21523e-08
6.62822e-10
1.15182e-08
5.88662e-10
1.09158e-08
5.23683e-10
1.03385e-08
4.65789e-10
9.78231e-09
4.14551e-10
9.24473e-09
3.68855e-10
8.72508e-09
3.28156e-10
8.22369e-09
2.91879e-10
7.74182e-09
2.59787e-10
7.28064e-09
2.31276e-10
6.84165e-09
2.06303e-10
6.42572e-09
1.8446e-10
6.03405e-09
1.65613e-10
5.6666e-09
1.49321e-10
5.32227e-09
1.35192e-10
5.00191e-09
1.2349e-10
4.70352e-09
1.13378e-10
4.42503e-09
1.04604e-10
4.16629e-09
9.73431e-11
3.92479e-09
9.09567e-11
3.69821e-09
8.52149e-11
3.486e-09
8.02668e-11
3.28559e-09
7.57255e-11
3.09558e-09
7.12425e-11
2.91458e-09
6.72062e-11
2.741e-09
6.29107e-11
2.57371e-09
5.89682e-11
2.41169e-09
5.47457e-11
2.25352e-09
5.04925e-11
2.09852e-09
4.62315e-11
1.94588e-09
4.22575e-11
1.79514e-09
3.76827e-11
1.6451e-09
3.33742e-11
1.496e-09
2.92453e-11
1.34685e-09
2.51459e-11
1.19778e-09
2.12455e-11
1.04843e-09
1.75708e-11
8.98645e-10
1.42244e-11
7.4833e-10
1.11221e-11
5.97796e-10
8.4477e-12
4.4727e-10
6.23861e-12
2.9732e-10
4.41795e-12
1.48391e-10
3.06298e-12
2.62481e-12
7.59703e-08
1.3692e-07
9.45686e-08
1.17843e-07
9.18754e-08
9.14281e-08
8.62078e-08
6.88352e-08
7.7163e-08
5.07047e-08
6.79374e-08
3.74468e-08
5.9812e-08
2.81413e-08
5.29701e-08
2.161e-08
4.72509e-08
1.69424e-08
4.24385e-08
1.35265e-08
3.83444e-08
1.09662e-08
3.48213e-08
9.0043e-09
3.17584e-08
7.47154e-09
2.90728e-08
6.25392e-09
2.67025e-08
5.27295e-09
2.46007e-08
4.47335e-09
2.27315e-08
3.81537e-09
2.10667e-08
3.26983e-09
1.95832e-08
2.81481e-09
1.82608e-08
2.43347e-09
1.70815e-08
2.11261e-09
1.60279e-08
1.84163e-09
1.5083e-08
1.61187e-09
1.42305e-08
1.41617e-09
1.34548e-08
1.24861e-09
1.27416e-08
1.10401e-09
1.20777e-08
9.78698e-10
1.14527e-08
8.69011e-10
1.08578e-08
7.72727e-10
1.0287e-08
6.86908e-10
9.73642e-09
6.10841e-10
9.20383e-09
5.43011e-10
8.68866e-09
4.82602e-10
8.19139e-09
4.28831e-10
7.71322e-09
3.8122e-10
7.25551e-09
3.39107e-10
6.81969e-09
3.02185e-10
6.40681e-09
2.70006e-10
6.01765e-09
2.42167e-10
5.65235e-09
2.18224e-10
5.31055e-09
1.97651e-10
4.99171e-09
1.80315e-10
4.69463e-09
1.65514e-10
4.41778e-09
1.52887e-10
4.15982e-09
1.42131e-10
3.91897e-09
1.32759e-10
3.69329e-09
1.24611e-10
3.48126e-09
1.17287e-10
3.28121e-09
1.10548e-10
3.09135e-09
1.04195e-10
2.91044e-09
9.80848e-11
2.73686e-09
9.20053e-11
2.56962e-09
8.60039e-11
2.4074e-09
7.98749e-11
2.24921e-09
7.36669e-11
2.09415e-09
6.7394e-11
1.94175e-09
6.10877e-11
1.79081e-09
5.46536e-11
1.64098e-09
4.8275e-11
1.49187e-09
4.20273e-11
1.343e-09
3.59556e-11
1.19409e-09
3.01541e-11
1.04492e-09
2.47134e-11
8.95567e-10
1.95719e-11
7.45675e-10
1.51802e-11
5.95532e-10
1.12462e-11
4.45441e-10
7.99503e-12
2.9588e-10
5.42956e-12
1.47477e-10
3.61798e-12
2.52501e-12
6.87294e-08
1.50818e-07
6.84549e-08
1.09646e-07
6.92829e-08
8.55926e-08
6.75521e-08
6.69418e-08
6.34443e-08
5.21094e-08
5.82876e-08
4.05898e-08
5.30388e-08
3.18575e-08
4.81387e-08
2.5288e-08
4.3726e-08
2.03231e-08
3.98055e-08
1.65283e-08
3.63337e-08
1.35873e-08
3.32554e-08
1.12751e-08
3.05178e-08
9.43265e-09
2.80756e-08
7.94633e-09
2.58912e-08
6.73441e-09
2.39341e-08
5.73718e-09
2.21796e-08
4.9104e-09
2.06068e-08
4.22075e-09
1.91981e-08
3.64268e-09
1.79371e-08
3.15621e-09
1.68083e-08
2.74541e-09
1.57963e-08
2.39731e-09
1.48858e-08
2.10123e-09
1.40617e-08
1.84826e-09
1.33095e-08
1.63096e-09
1.26152e-08
1.44311e-09
1.19674e-08
1.27951e-09
1.13556e-08
1.13612e-09
1.07717e-08
1.01034e-09
1.02106e-08
8.97456e-10
9.66828e-09
7.97654e-10
9.14314e-09
7.08475e-10
8.63464e-09
6.29156e-10
8.14355e-09
5.5847e-10
7.67094e-09
4.96056e-10
7.21842e-09
4.40793e-10
6.78737e-09
3.92422e-10
6.37887e-09
3.50327e-10
5.99361e-09
3.13946e-10
5.63178e-09
2.82722e-10
5.29307e-09
2.56e-10
4.97684e-09
2.33372e-10
4.68194e-09
2.14173e-10
4.407e-09
1.97832e-10
4.1505e-09
1.83884e-10
3.9107e-09
1.71816e-10
3.68595e-09
1.61269e-10
3.47454e-09
1.51807e-10
3.27482e-09
1.43096e-10
3.08524e-09
1.34895e-10
2.90438e-09
1.26962e-10
2.73085e-09
1.19112e-10
2.5635e-09
1.11271e-10
2.4012e-09
1.03297e-10
2.24295e-09
9.52144e-11
2.08789e-09
8.69985e-11
1.93531e-09
7.86697e-11
1.78444e-09
7.02791e-11
1.63476e-09
6.19189e-11
1.48581e-09
5.36863e-11
1.33721e-09
4.56974e-11
1.18866e-09
3.80584e-11
1.03999e-09
3.08747e-11
8.90978e-10
2.42159e-11
7.41732e-10
1.83606e-11
5.92273e-10
1.32407e-11
4.42911e-10
9.00631e-12
2.94179e-10
5.70935e-12
1.46772e-10
3.40795e-12
2.06846e-12
3.36093e-08
1.08429e-07
4.57364e-08
9.17778e-08
5.11579e-08
7.6393e-08
5.27205e-08
6.26786e-08
5.17795e-08
5.10143e-08
4.93917e-08
4.139e-08
4.63287e-08
3.36368e-08
4.30628e-08
2.74695e-08
3.98476e-08
2.25804e-08
3.68033e-08
1.8694e-08
3.39772e-08
1.5585e-08
3.13808e-08
1.3078e-08
2.90082e-08
1.1039e-08
2.68466e-08
9.3671e-09
2.48813e-08
7.98574e-09
2.30979e-08
6.83693e-09
2.14827e-08
5.87621e-09
2.00233e-08
5.06915e-09
1.87074e-08
4.38865e-09
1.75229e-08
3.8131e-09
1.64575e-08
3.32489e-09
1.54981e-08
2.90951e-09
1.46311e-08
2.55483e-09
1.3843e-08
2.25064e-09
1.31204e-08
1.98841e-09
1.24508e-08
1.76093e-09
1.18232e-08
1.5621e-09
1.12284e-08
1.38739e-09
1.06591e-08
1.23365e-09
1.01103e-08
1.09557e-09
9.57876e-09
9.7334e-10
9.0635e-09
8.63608e-10
8.56362e-09
7.66676e-10
8.0808e-09
6.79513e-10
7.61548e-09
6.03376e-10
7.16984e-09
5.35458e-10
6.74509e-09
4.76237e-10
6.34233e-09
4.24762e-10
5.96224e-09
3.80322e-10
5.60499e-09
3.42255e-10
5.27031e-09
3.09741e-10
4.95753e-09
2.82187e-10
4.66553e-09
2.58903e-10
4.39298e-09
2.39115e-10
4.13837e-09
2.22245e-10
3.90009e-09
2.07667e-10
3.67644e-09
1.94959e-10
3.46579e-09
1.83549e-10
3.26657e-09
1.73054e-10
3.07727e-09
1.63158e-10
2.8965e-09
1.53577e-10
2.72297e-09
1.44091e-10
2.55551e-09
1.34575e-10
2.39308e-09
1.24882e-10
2.2347e-09
1.15056e-10
2.07955e-09
1.05028e-10
1.92689e-09
9.484e-11
1.77606e-09
8.45806e-11
1.62651e-09
7.43424e-11
1.47779e-09
6.42485e-11
1.32954e-09
5.44345e-11
1.18146e-09
4.50535e-11
1.03336e-09
3.62244e-11
8.85052e-10
2.80994e-11
7.36592e-10
2.08633e-11
5.88028e-10
1.45943e-11
4.39641e-10
9.41815e-12
2.91964e-10
5.41156e-12
1.45658e-10
2.65843e-12
1.11169e-12
1.94982e-08
8.43798e-08
3.11788e-08
7.65231e-08
3.79041e-08
6.70176e-08
4.12024e-08
5.73703e-08
4.21556e-08
4.84749e-08
4.15806e-08
4.06636e-08
4.00897e-08
3.4018e-08
3.81068e-08
2.84698e-08
3.59045e-08
2.38834e-08
3.36485e-08
2.01055e-08
3.14342e-08
1.69923e-08
2.93141e-08
1.44194e-08
2.7315e-08
1.22841e-08
2.5449e-08
1.05038e-08
2.372e-08
9.01264e-09
2.21276e-08
7.7584e-09
2.06682e-08
6.69968e-09
1.93369e-08
5.8033e-09
1.81272e-08
5.04249e-09
1.7031e-08
4.39529e-09
1.60392e-08
3.84347e-09
1.5141e-08
3.37172e-09
1.4325e-08
2.96707e-09
1.35791e-08
2.6185e-09
1.28915e-08
2.31674e-09
1.22509e-08
2.05387e-09
1.16475e-08
1.8233e-09
1.10729e-08
1.62002e-09
1.05214e-08
1.44e-09
9.98755e-09
1.27899e-09
9.46944e-09
1.13563e-09
8.96552e-09
1.00736e-09
8.47673e-09
8.93126e-10
8.00336e-09
7.91234e-10
7.54737e-09
7.01619e-10
7.11035e-09
6.21827e-10
6.69339e-09
5.52596e-10
6.2977e-09
4.92385e-10
5.92397e-09
4.40456e-10
5.57238e-09
3.96035e-10
5.24263e-09
3.58179e-10
4.9341e-09
3.26092e-10
4.64565e-09
2.99092e-10
4.37602e-09
2.76172e-10
4.12374e-09
2.56682e-10
3.88729e-09
2.3981e-10
3.66496e-09
2.25221e-10
3.45525e-09
2.12076e-10
3.25662e-09
2.00002e-10
3.06764e-09
1.88608e-10
2.88698e-09
1.77567e-10
2.7134e-09
1.66623e-10
2.5458e-09
1.55621e-10
2.38321e-09
1.44333e-10
2.22464e-09
1.32966e-10
2.06934e-09
1.21277e-10
1.9166e-09
1.09382e-10
1.76579e-09
9.73972e-11
1.61639e-09
8.54165e-11
1.46796e-09
7.35905e-11
1.32012e-09
6.20869e-11
1.17261e-09
5.10704e-11
1.02521e-09
4.07055e-11
8.77784e-10
3.11784e-11
7.30302e-10
2.26673e-11
5.82836e-10
1.53084e-11
4.35645e-10
9.24106e-12
2.89247e-10
4.55563e-12
1.44275e-10
1.37141e-12
-3.84898e-13
1.27504e-08
6.89997e-08
2.21965e-08
6.47927e-08
2.86009e-08
5.87442e-08
3.24709e-08
5.19719e-08
3.44028e-08
4.5262e-08
3.49352e-08
3.90227e-08
3.45153e-08
3.34479e-08
3.34853e-08
2.85904e-08
3.20917e-08
2.44224e-08
3.05039e-08
2.0877e-08
2.88347e-08
1.78741e-08
2.71568e-08
1.53338e-08
2.55168e-08
1.3184e-08
2.39435e-08
1.13618e-08
2.24544e-08
9.81434e-09
2.10597e-08
8.49768e-09
1.97645e-08
7.37541e-09
1.85703e-08
6.41736e-09
1.74753e-08
5.59838e-09
1.64754e-08
4.89729e-09
1.55643e-08
4.29608e-09
1.47338e-08
3.77933e-09
1.39743e-08
3.33379e-09
1.32755e-08
2.94808e-09
1.26271e-08
2.61259e-09
1.20192e-08
2.3189e-09
1.14432e-08
2.06025e-09
1.08918e-08
1.83134e-09
1.036e-08
1.6277e-09
9.84352e-09
1.4456e-09
9.3406e-09
1.28306e-09
8.85076e-09
1.13734e-09
8.37449e-09
1.00746e-09
7.9129e-09
8.91733e-10
7.46776e-09
7.89694e-10
7.04082e-09
6.98882e-10
6.63293e-09
6.20629e-10
6.24556e-09
5.52325e-10
5.87933e-09
4.93535e-10
5.53439e-09
4.43319e-10
5.21045e-09
4.00633e-10
4.90689e-09
3.64454e-10
4.62262e-09
3.34147e-10
4.35643e-09
3.08446e-10
4.1069e-09
2.86635e-10
3.87248e-09
2.67871e-10
3.65174e-09
2.51558e-10
3.44311e-09
2.36951e-10
3.24516e-09
2.23536e-10
3.05654e-09
2.10865e-10
2.87599e-09
1.98576e-10
2.70235e-09
1.86371e-10
2.53459e-09
1.74059e-10
2.37169e-09
1.61478e-10
2.21291e-09
1.48645e-10
2.05742e-09
1.355e-10
1.90457e-09
1.22081e-10
1.75378e-09
1.08532e-10
1.60453e-09
9.49787e-11
1.45642e-09
8.15628e-11
1.30907e-09
6.85199e-11
1.16222e-09
5.59995e-11
1.01566e-09
4.42176e-11
8.69245e-10
3.33874e-11
7.22922e-10
2.37006e-11
5.76752e-10
1.53282e-11
4.30975e-10
8.42761e-12
2.86069e-10
3.11654e-12
1.42668e-10
-4.91643e-13
-2.44449e-12
9.02489e-09
5.82698e-08
1.64707e-08
5.57725e-08
2.20705e-08
5.17548e-08
2.59017e-08
4.69235e-08
2.82355e-08
4.18474e-08
2.93871e-08
3.68908e-08
2.9658e-08
3.22688e-08
2.9304e-08
2.80871e-08
2.85277e-08
2.43783e-08
2.74814e-08
2.11309e-08
2.6276e-08
1.83102e-08
2.49906e-08
1.58719e-08
2.36806e-08
1.37695e-08
2.23842e-08
1.19591e-08
2.11279e-08
1.04007e-08
1.99293e-08
9.05942e-09
1.87998e-08
7.90485e-09
1.77458e-08
6.91082e-09
1.67697e-08
6.05469e-09
1.58705e-08
5.31685e-09
1.50445e-08
4.68016e-09
1.42857e-08
4.12967e-09
1.35865e-08
3.65231e-09
1.29382e-08
3.23676e-09
1.23318e-08
2.87352e-09
1.17593e-08
2.55364e-09
1.12132e-08
2.27075e-09
1.06872e-08
2.0194e-09
1.01773e-08
1.79478e-09
9.6801e-09
1.59377e-09
9.1944e-09
1.41393e-09
8.72031e-09
1.25227e-09
8.25839e-09
1.1083e-09
7.81021e-09
9.79847e-10
7.37762e-09
8.66408e-10
6.96151e-09
7.66366e-10
6.56433e-09
6.79175e-10
6.18653e-09
6.03784e-10
5.82887e-09
5.38854e-10
5.49154e-09
4.83474e-10
5.17425e-09
4.36493e-10
4.87627e-09
3.96838e-10
4.59679e-09
3.6354e-10
4.3345e-09
3.35475e-10
4.08806e-09
3.11708e-10
3.85604e-09
2.91345e-10
3.63704e-09
2.73625e-10
3.42962e-09
2.57816e-10
3.23242e-09
2.43311e-10
3.04418e-09
2.29604e-10
2.86373e-09
2.16296e-10
2.68998e-09
2.03054e-10
2.52198e-09
1.89659e-10
2.3588e-09
1.75958e-10
2.19972e-09
1.61897e-10
2.04398e-09
1.47488e-10
1.89098e-09
1.32752e-10
1.74019e-09
1.17798e-10
1.59109e-09
1.02875e-10
1.44333e-09
8.80215e-11
1.29652e-09
7.36087e-11
1.15042e-09
5.97311e-11
1.00481e-09
4.66646e-11
8.59533e-10
3.46494e-11
7.14529e-10
2.38929e-11
5.69836e-10
1.45947e-11
4.25666e-10
6.93146e-12
2.82475e-10
1.04007e-12
1.40852e-10
-2.96015e-12
-5.09244e-12
6.74267e-09
5.02832e-08
1.26486e-08
4.86729e-08
1.7403e-08
4.58887e-08
2.09365e-08
4.23633e-08
2.3346e-08
3.84843e-08
2.48003e-08
3.45404e-08
2.54897e-08
3.07268e-08
2.55953e-08
2.71621e-08
2.5273e-08
2.3907e-08
2.46501e-08
2.09821e-08
2.38261e-08
1.83831e-08
2.28769e-08
1.6091e-08
2.18597e-08
1.40801e-08
2.08166e-08
1.23221e-08
1.97785e-08
1.07891e-08
1.87678e-08
9.45473e-09
1.77999e-08
8.29484e-09
1.68847e-08
7.2876e-09
1.60276e-08
6.41339e-09
1.52303e-08
5.6546e-09
1.44911e-08
4.99546e-09
1.38059e-08
4.42189e-09
1.31688e-08
3.92139e-09
1.2573e-08
3.48296e-09
1.20103e-08
3.09824e-09
1.14752e-08
2.75636e-09
1.09606e-08
2.4532e-09
1.04618e-08
2.18268e-09
9.97537e-09
1.9399e-09
9.49923e-09
1.72206e-09
9.03243e-09
1.52695e-09
8.57568e-09
1.35103e-09
8.12958e-09
1.19472e-09
7.69628e-09
1.05471e-09
7.27729e-09
9.31307e-10
6.87417e-09
8.22722e-10
6.48846e-09
7.28046e-10
6.12133e-09
6.46173e-10
5.77324e-09
5.75907e-10
5.44437e-09
5.16047e-10
5.13443e-09
4.6538e-10
4.84279e-09
4.22733e-10
4.56858e-09
3.86939e-10
4.3106e-09
3.56931e-10
4.06759e-09
3.31578e-10
3.83821e-09
3.09929e-10
3.62113e-09
2.91124e-10
3.41503e-09
2.74396e-10
3.21864e-09
2.59064e-10
3.0308e-09
2.44571e-10
2.85043e-09
2.30489e-10
2.67653e-09
2.16444e-10
2.50823e-09
2.02197e-10
2.3447e-09
1.8759e-10
2.18525e-09
1.72527e-10
2.02921e-09
1.57074e-10
1.876e-09
1.41236e-10
1.72522e-09
1.2503e-10
1.57626e-09
1.08973e-10
1.42884e-09
9.28826e-11
1.28262e-09
7.7241e-11
1.13733e-09
6.21722e-11
9.92766e-10
4.79678e-11
8.48752e-10
3.4899e-11
7.05211e-10
2.31881e-11
5.62158e-10
1.30607e-11
4.19777e-10
4.71224e-12
2.78488e-10
-1.70432e-12
1.38838e-10
-6.05924e-12
-8.35014e-12
5.23352e-09
4.4041e-08
9.98247e-09
4.29335e-08
1.39867e-08
4.09296e-08
1.71411e-08
3.82958e-08
1.94588e-08
3.52926e-08
2.10217e-08
3.21368e-08
2.19438e-08
2.8991e-08
2.23475e-08
2.59674e-08
2.23483e-08
2.31353e-08
2.20468e-08
2.05316e-08
2.15276e-08
1.81699e-08
2.08588e-08
1.60489e-08
2.00944e-08
1.41581e-08
1.92767e-08
1.24816e-08
1.84379e-08
1.10015e-08
1.76023e-08
9.69912e-09
1.67877e-08
8.55616e-09
1.60062e-08
7.55503e-09
1.52651e-08
6.67927e-09
1.4568e-08
5.91351e-09
1.39147e-08
5.24362e-09
1.3303e-08
4.6567e-09
1.27283e-08
4.14112e-09
1.21852e-08
3.68657e-09
1.1668e-08
3.28506e-09
1.11708e-08
2.92649e-09
1.0689e-08
2.6066e-09
1.02182e-08
2.32039e-09
9.75672e-09
2.06183e-09
9.30275e-09
1.82973e-09
8.85652e-09
1.62097e-09
8.41815e-09
1.43319e-09
7.98972e-09
1.26552e-09
7.5724e-09
1.11592e-09
7.16836e-09
9.83781e-10
6.77918e-09
8.67704e-10
6.40628e-09
7.66596e-10
6.05077e-09
6.79192e-10
5.71312e-09
6.0438e-10
5.39349e-09
5.40749e-10
5.0916e-09
4.87025e-10
4.80681e-09
4.41944e-10
4.53842e-09
4.04063e-10
4.2851e-09
3.7263e-10
4.04582e-09
3.46043e-10
3.8193e-09
3.23444e-10
3.6043e-09
3.03869e-10
3.39961e-09
2.86511e-10
3.20407e-09
2.70625e-10
3.01664e-09
2.55601e-10
2.83632e-09
2.40994e-10
2.66222e-09
2.26387e-10
2.49356e-09
2.11523e-10
2.32961e-09
1.96231e-10
2.16972e-09
1.80419e-10
2.01333e-09
1.64116e-10
1.85992e-09
1.47364e-10
1.70896e-09
1.30269e-10
1.56018e-09
1.1313e-10
1.41312e-09
9.60441e-11
1.26752e-09
7.93469e-11
1.12311e-09
6.32618e-11
9.79667e-10
4.80752e-11
8.37019e-10
3.40951e-11
6.95064e-10
2.15529e-11
5.53796e-10
1.07002e-11
4.13363e-10
1.75e-12
2.74146e-10
-5.12953e-12
1.36644e-10
-9.79751e-12
-1.22244e-11
4.17663e-09
3.89788e-08
8.05074e-09
3.81786e-08
1.14255e-08
3.6689e-08
1.41991e-08
3.46772e-08
1.63487e-08
3.23195e-08
1.79073e-08
2.97751e-08
1.89398e-08
2.71739e-08
1.95261e-08
2.46138e-08
1.97488e-08
2.21626e-08
1.96852e-08
1.98631e-08
1.94041e-08
1.7739e-08
1.89639e-08
1.57999e-08
1.84133e-08
1.40455e-08
1.77917e-08
1.24696e-08
1.71308e-08
1.10621e-08
1.6455e-08
9.81064e-09
1.57826e-08
8.70207e-09
1.51268e-08
7.72273e-09
1.44962e-08
6.85915e-09
1.38953e-08
6.09829e-09
1.33254e-08
5.42775e-09
1.27852e-08
4.83601e-09
1.22719e-08
4.31253e-09
1.1781e-08
3.84793e-09
1.13088e-08
3.43421e-09
1.08497e-08
3.0637e-09
1.04008e-08
2.73079e-09
9.95962e-09
2.43113e-09
9.5238e-09
2.16028e-09
9.09317e-09
1.91608e-09
8.66819e-09
1.69592e-09
8.24976e-09
1.4979e-09
7.83976e-09
1.32075e-09
7.4398e-09
1.16294e-09
7.0519e-09
1.02348e-09
6.67772e-09
9.01099e-10
6.31864e-09
7.94606e-10
5.97559e-09
7.02729e-10
5.64922e-09
6.24117e-10
5.33954e-09
5.5747e-10
5.04631e-09
5.01316e-10
4.76899e-09
4.54303e-10
4.50658e-09
4.15084e-10
4.25837e-09
3.82403e-10
4.02308e-09
3.55019e-10
3.79961e-09
3.31821e-10
3.58683e-09
3.11786e-10
3.38362e-09
2.94092e-10
3.18898e-09
2.77916e-10
3.00194e-09
2.62628e-10
2.82164e-09
2.47735e-10
2.6473e-09
2.32808e-10
2.47821e-09
2.17563e-10
2.31375e-09
2.01823e-10
2.15336e-09
1.85482e-10
1.99653e-09
1.68569e-10
1.84281e-09
1.51136e-10
1.69176e-09
1.33321e-10
1.54307e-09
1.1536e-10
1.39638e-09
9.74549e-11
1.25141e-09
7.99038e-11
1.10791e-09
6.2978e-11
9.65655e-10
4.69659e-11
8.24455e-10
3.22271e-11
6.84194e-10
1.8982e-11
5.44833e-10
7.513e-12
4.06487e-10
-1.95019e-12
2.6949e-10
-9.22568e-12
1.34291e-10
-1.41619e-11
-1.6701e-11
3.40346e-09
3.4757e-08
6.60612e-09
3.41569e-08
9.46254e-09
3.30192e-08
1.18856e-08
3.14519e-08
1.38402e-08
2.95757e-08
1.53328e-08
2.75073e-08
1.63981e-08
2.5348e-08
1.70865e-08
2.31799e-08
1.74557e-08
2.10644e-08
1.75637e-08
1.90447e-08
1.74649e-08
1.71487e-08
1.72078e-08
1.53921e-08
1.68347e-08
1.37816e-08
1.63811e-08
1.23174e-08
1.58761e-08
1.09954e-08
1.53431e-08
9.80828e-09
1.48001e-08
8.7471e-09
1.42603e-08
7.80163e-09
1.37326e-08
6.96113e-09
1.32223e-08
6.21477e-09
1.27314e-08
5.55195e-09
1.22598e-08
4.96259e-09
1.18055e-08
4.43736e-09
1.13656e-08
3.96786e-09
1.09368e-08
3.54692e-09
1.05157e-08
3.16796e-09
1.00999e-08
2.82544e-09
9.6881e-09
2.51542e-09
9.27877e-09
2.23479e-09
8.87228e-09
1.9809e-09
8.46956e-09
1.75154e-09
8.072e-09
1.54511e-09
7.68147e-09
1.36028e-09
7.29987e-09
1.19574e-09
6.92912e-09
1.05036e-09
6.57086e-09
9.22927e-10
6.22643e-09
8.12159e-10
5.89673e-09
7.16748e-10
5.58227e-09
6.35252e-10
5.28315e-09
5.66291e-10
4.99909e-09
5.08359e-10
4.72956e-09
4.59999e-10
4.47375e-09
4.19836e-10
4.23083e-09
3.86424e-10
3.99975e-09
3.58591e-10
3.77948e-09
3.35118e-10
3.56899e-09
3.14948e-10
3.36734e-09
2.97173e-10
3.17361e-09
2.80972e-10
2.98695e-09
2.65671e-10
2.80664e-09
2.5073e-10
2.63199e-09
2.35718e-10
2.46241e-09
2.20324e-10
2.29737e-09
2.04365e-10
2.13639e-09
1.87719e-10
1.97905e-09
1.70429e-10
1.82496e-09
1.52538e-10
1.67376e-09
1.34205e-10
1.52514e-09
1.15653e-10
1.37879e-09
9.7124e-11
1.23446e-09
7.89176e-11
1.09189e-09
6.13372e-11
9.50879e-10
4.46495e-11
8.1119e-10
2.93205e-11
6.72708e-10
1.55007e-11
5.35359e-10
3.52845e-12
3.99216e-10
-6.3552e-12
2.64566e-10
-1.39563e-11
1.31802e-10
-1.91133e-11
-2.17406e-11
2.81854e-09
3.11605e-08
5.49722e-09
3.06973e-08
7.92845e-09
2.98087e-08
1.00414e-08
2.85666e-08
1.17993e-08
2.70551e-08
1.31956e-08
2.53597e-08
1.42462e-08
2.35592e-08
1.49823e-08
2.17205e-08
1.54433e-08
1.98973e-08
1.56718e-08
1.813e-08
1.57099e-08
1.64471e-08
1.55973e-08
1.48674e-08
1.53694e-08
1.34015e-08
1.50572e-08
1.2054e-08
1.46868e-08
1.08249e-08
1.42795e-08
9.71078e-09
1.38522e-08
8.70595e-09
1.34175e-08
7.80307e-09
1.29841e-08
6.99383e-09
1.25575e-08
6.26942e-09
1.21402e-08
5.62095e-09
1.17329e-08
5.03984e-09
1.13345e-08
4.518e-09
1.0943e-08
4.04817e-09
1.05564e-08
3.62387e-09
1.01722e-08
3.24009e-09
9.78934e-09
2.8908e-09
9.40667e-09
2.57365e-09
9.02408e-09
2.28561e-09
8.64225e-09
2.02439e-09
8.26252e-09
1.78795e-09
7.88659e-09
1.57502e-09
7.51644e-09
1.38428e-09
7.15404e-09
1.21456e-09
6.80127e-09
1.06469e-09
6.45974e-09
9.33449e-10
6.13069e-09
8.1952e-10
5.81497e-09
7.21546e-10
5.51303e-09
6.38028e-10
5.22497e-09
5.6749e-10
4.95052e-09
5.08419e-10
4.68916e-09
4.59262e-10
4.44021e-09
4.18586e-10
4.20284e-09
3.84894e-10
3.97613e-09
3.56967e-10
3.75919e-09
3.33533e-10
3.5511e-09
3.13504e-10
3.35104e-09
2.95917e-10
3.15821e-09
2.79933e-10
2.97192e-09
2.64846e-10
2.79155e-09
2.50087e-10
2.61653e-09
2.35211e-10
2.44638e-09
2.19893e-10
2.28068e-09
2.03931e-10
2.11904e-09
1.87205e-10
1.96111e-09
1.69754e-10
1.80659e-09
1.51624e-10
1.65517e-09
1.32983e-10
1.50658e-09
1.14054e-10
1.36056e-09
9.51028e-11
1.21686e-09
7.64348e-11
1.07525e-09
5.83715e-11
9.3546e-10
4.12327e-11
7.97352e-10
2.54129e-11
6.6072e-10
1.11641e-11
5.25465e-10
-1.19279e-12
3.91621e-10
-1.14012e-11
2.59421e-10
-1.92551e-11
1.29202e-10
-2.45844e-11
-2.7275e-11
2.36437e-09
2.80463e-08
4.6276e-09
2.7681e-08
6.70929e-09
2.69741e-08
8.55313e-09
2.59752e-08
1.01251e-08
2.4744e-08
1.14128e-08
2.33439e-08
1.24216e-08
2.18357e-08
1.31695e-08
2.02735e-08
1.36832e-08
1.87031e-08
1.39936e-08
1.71606e-08
1.41328e-08
1.56734e-08
1.41325e-08
1.42609e-08
1.40219e-08
1.29359e-08
1.38273e-08
1.17054e-08
1.35714e-08
1.05722e-08
1.32732e-08
9.53568e-09
1.29477e-08
8.59268e-09
1.26065e-08
7.73816e-09
1.2258e-08
6.96585e-09
1.19073e-08
6.26878e-09
1.15576e-08
5.63968e-09
1.12096e-08
5.07139e-09
1.08632e-08
4.55713e-09
1.05173e-08
4.0908e-09
1.01706e-08
3.66678e-09
9.82255e-09
3.28055e-09
9.47159e-09
2.92799e-09
9.11788e-09
2.6064e-09
8.76204e-09
2.31336e-09
8.40519e-09
2.04705e-09
8.049e-09
1.80562e-09
7.69533e-09
1.58811e-09
7.34623e-09
1.39323e-09
7.00371e-09
1.21991e-09
6.66963e-09
1.06691e-09
6.34545e-09
9.33162e-10
6.03237e-09
8.17175e-10
5.73117e-09
7.17607e-10
5.44224e-09
6.32891e-10
5.16564e-09
5.61523e-10
4.90114e-09
5.01913e-10
4.64826e-09
4.52487e-10
4.40639e-09
4.11733e-10
4.17474e-09
3.78169e-10
3.95255e-09
3.50469e-10
3.73903e-09
3.27369e-10
3.5334e-09
3.07737e-10
3.33495e-09
2.90581e-10
3.14303e-09
2.75035e-10
2.95708e-09
2.60374e-10
2.77659e-09
2.46005e-10
2.60114e-09
2.31468e-10
2.43035e-09
2.16428e-10
2.26391e-09
2.00668e-10
2.10152e-09
1.84079e-10
1.94294e-09
1.66667e-10
1.78791e-09
1.48508e-10
1.6362e-09
1.29766e-10
1.4876e-09
1.10667e-10
1.34186e-09
9.14923e-11
1.19877e-09
7.25559e-11
1.0581e-09
5.41953e-11
9.19605e-10
3.67585e-11
7.83087e-10
2.06205e-11
6.48349e-10
6.06975e-12
5.15248e-10
-6.55393e-12
3.83773e-10
-1.6991e-11
2.54104e-10
-2.50245e-11
1.26513e-10
-3.04766e-11
-3.32056e-11
2.00444e-09
2.53165e-08
3.93362e-09
2.50233e-08
5.72657e-09
2.44526e-08
7.33898e-09
2.36394e-08
8.74115e-09
2.26272e-08
9.9188e-09
2.14631e-08
1.08712e-08
2.01943e-08
1.16083e-08
1.88646e-08
1.21476e-08
1.7512e-08
1.25112e-08
1.61682e-08
1.27234e-08
1.48584e-08
1.28092e-08
1.36013e-08
1.27921e-08
1.24103e-08
1.26941e-08
1.12938e-08
1.25344e-08
1.02562e-08
1.23292e-08
9.29871e-09
1.2092e-08
8.42012e-09
1.1833e-08
7.61716e-09
1.15596e-08
6.88531e-09
1.12769e-08
6.21917e-09
1.0988e-08
5.61298e-09
1.06941e-08
5.06093e-09
1.03957e-08
4.5575e-09
1.00921e-08
4.09798e-09
9.78343e-09
3.67689e-09
9.46919e-09
3.29137e-09
9.14922e-09
2.93802e-09
8.8241e-09
2.61449e-09
8.49492e-09
2.31886e-09
8.16326e-09
2.04963e-09
7.83091e-09
1.80534e-09
7.49994e-09
1.58514e-09
7.17244e-09
1.38785e-09
6.85036e-09
1.21248e-09
6.53542e-09
1.05784e-09
6.22912e-09
9.22733e-10
5.93247e-09
8.05799e-10
5.64618e-09
7.05586e-10
5.37061e-09
6.20478e-10
5.1058e-09
5.48969e-10
4.8515e-09
4.89415e-10
4.60731e-09
4.40212e-10
4.37266e-09
3.99806e-10
4.14688e-09
3.66711e-10
3.92931e-09
3.39549e-10
3.71927e-09
3.17042e-10
3.51613e-09
2.98039e-10
3.3193e-09
2.81522e-10
3.12828e-09
2.6661e-10
2.94262e-09
2.52559e-10
2.76198e-09
2.38763e-10
2.58603e-09
2.24748e-10
2.41453e-09
2.10168e-10
2.24727e-09
1.948e-10
2.08406e-09
1.78532e-10
1.92473e-09
1.61358e-10
1.76912e-09
1.43366e-10
1.61707e-09
1.24719e-10
1.46839e-09
1.05646e-10
1.3229e-09
8.64399e-11
1.18039e-09
6.74224e-11
1.04065e-09
4.89436e-11
9.03434e-10
3.13677e-11
7.68534e-10
1.50613e-11
6.35713e-10
3.5321e-13
5.04803e-10
-1.24238e-11
3.75746e-10
-2.29944e-11
2.48664e-10
-3.11339e-11
1.23761e-10
-3.66589e-11
-3.94042e-11
1.71458e-09
2.29012e-08
3.37191e-09
2.26627e-08
4.92506e-09
2.21965e-08
6.3393e-09
2.1528e-08
7.58946e-09
2.06892e-08
8.66138e-09
1.97158e-08
9.55121e-09
1.86446e-08
1.02637e-08
1.75107e-08
1.08101e-08
1.63456e-08
1.1206e-08
1.51767e-08
1.14696e-08
1.40261e-08
1.16203e-08
1.29115e-08
1.16768e-08
1.18458e-08
1.1657e-08
1.08377e-08
1.15769e-08
9.89281e-09
1.14502e-08
9.01336e-09
1.12884e-08
8.19941e-09
1.11002e-08
7.44916e-09
1.08925e-08
6.75947e-09
1.06697e-08
6.12636e-09
1.04349e-08
5.54539e-09
1.01897e-08
5.01203e-09
9.93491e-09
4.52187e-09
9.67022e-09
4.07203e-09
9.39708e-09
3.6561e-09
9.1151e-09
3.27398e-09
8.82498e-09
2.92225e-09
8.52779e-09
2.59916e-09
8.225e-09
2.30324e-09
7.91848e-09
2.03324e-09
7.61016e-09
1.78814e-09
7.30219e-09
1.56711e-09
6.99661e-09
1.36912e-09
6.69532e-09
1.19325e-09
6.39996e-09
1.0383e-09
6.11182e-09
9.03096e-10
5.83191e-09
7.86236e-10
5.56083e-09
6.86268e-10
5.29885e-09
6.01566e-10
5.04601e-09
5.30565e-10
4.80209e-09
4.71616e-10
4.56671e-09
4.23094e-10
4.33939e-09
3.83419e-10
4.11956e-09
3.51103e-10
3.90666e-09
3.24748e-10
3.70014e-09
3.03061e-10
3.49949e-09
2.84882e-10
3.30428e-09
2.69186e-10
3.11413e-09
2.55067e-10
2.92874e-09
2.41783e-10
2.74788e-09
2.28715e-10
2.57138e-09
2.15375e-10
2.3991e-09
2.01417e-10
2.23094e-09
1.86606e-10
2.06683e-09
1.70826e-10
1.90669e-09
1.54069e-10
1.75044e-09
1.36424e-10
1.59797e-09
1.18055e-10
1.44916e-09
9.91926e-11
1.30386e-09
8.01362e-11
1.16189e-09
6.1216e-11
1.02305e-09
4.27899e-11
8.87109e-10
2.52315e-11
7.53816e-10
8.91077e-12
6.22925e-10
-5.82529e-12
4.94226e-10
-1.86403e-11
3.67614e-10
-2.925e-11
2.4315e-10
-3.74229e-11
1.20973e-10
-4.29718e-11
-4.5711e-11
1.47818e-09
2.07493e-08
2.91209e-09
2.05533e-08
4.26507e-09
2.01689e-08
5.5099e-09
1.9615e-08
6.62565e-09
1.89155e-08
7.59922e-09
1.80978e-08
8.42532e-09
1.71907e-08
9.10547e-09
1.62223e-08
9.64665e-09
1.52186e-08
1.00598e-08
1.42028e-08
1.03583e-08
1.31943e-08
1.05568e-08
1.22088e-08
1.06703e-08
1.12585e-08
1.07129e-08
1.0352e-08
1.06978e-08
9.49504e-09
1.06362e-08
8.69068e-09
1.05378e-08
7.93985e-09
1.041e-08
7.24181e-09
1.02587e-08
6.5946e-09
1.0088e-08
5.99542e-09
9.90076e-09
5.44104e-09
9.69868e-09
4.9281e-09
9.48283e-09
4.45342e-09
9.25483e-09
4.01416e-09
9.0143e-09
3.60676e-09
8.76274e-09
3.23017e-09
8.50126e-09
2.88226e-09
8.23126e-09
2.56185e-09
7.95443e-09
2.26787e-09
7.67285e-09
1.99924e-09
7.38862e-09
1.7552e-09
7.10378e-09
1.53518e-09
6.82031e-09
1.33818e-09
6.54e-09
1.16331e-09
6.26439e-09
1.00937e-09
5.99465e-09
8.75227e-10
5.73163e-09
7.59458e-10
5.47587e-09
6.60595e-10
5.2276e-09
5.77023e-10
4.98683e-09
5.07138e-10
4.75337e-09
4.49297e-10
4.52685e-09
4.01888e-10
4.3069e-09
3.63266e-10
4.09305e-09
3.32003e-10
3.88483e-09
3.06687e-10
3.68183e-09
2.86006e-10
3.48368e-09
2.68814e-10
3.29006e-09
2.54075e-10
3.10075e-09
2.40884e-10
2.91559e-09
2.28489e-10
2.73447e-09
2.16273e-10
2.55735e-09
2.03734e-10
2.38423e-09
1.90529e-10
2.21511e-09
1.76417e-10
2.05003e-09
1.6127e-10
1.88901e-09
1.45085e-10
1.73203e-09
1.27949e-10
1.57907e-09
1.10031e-10
1.43007e-09
9.1545e-11
1.28491e-09
7.28091e-11
1.14345e-09
5.41543e-11
1.00548e-09
3.59438e-11
8.70773e-10
1.85555e-11
7.39072e-10
2.36537e-12
6.101e-10
-1.2271e-11
4.83612e-10
-2.50126e-11
3.59449e-10
-3.55688e-11
2.37613e-10
-4.37038e-11
1.18171e-10
-4.92282e-11
-5.19418e-11
1.28349e-09
1.88219e-08
2.53235e-09
1.86597e-08
3.71746e-09
1.83405e-08
4.81757e-09
1.78786e-08
5.81539e-09
1.72925e-08
6.69929e-09
1.6603e-08
7.4635e-09
1.5833e-08
8.10762e-09
1.50049e-08
8.6357e-09
1.41401e-08
9.0552e-09
1.3258e-08
9.37586e-09
1.23753e-08
9.60877e-09
1.15058e-08
9.76541e-09
1.06605e-08
9.85703e-09
9.84762e-09
9.89403e-09
9.07274e-09
9.88565e-09
8.33928e-09
9.8397e-09
7.64878e-09
9.76255e-09
7.00131e-09
9.65912e-09
6.39584e-09
9.53313e-09
5.83062e-09
9.38721e-09
5.30347e-09
9.22329e-09
4.81206e-09
9.04263e-09
4.35435e-09
8.84701e-09
3.9277e-09
8.6372e-09
3.53037e-09
8.41422e-09
3.16184e-09
8.18022e-09
2.81969e-09
7.93659e-09
2.50418e-09
7.68533e-09
2.21418e-09
7.4285e-09
1.94897e-09
7.16815e-09
1.70802e-09
6.9064e-09
1.49072e-09
6.64505e-09
1.29633e-09
6.38571e-09
1.12396e-09
6.1299e-09
9.72211e-10
5.87858e-09
8.40236e-10
5.63249e-09
7.26502e-10
5.39204e-09
6.29586e-10
5.15748e-09
5.47792e-10
4.92877e-09
4.7958e-10
4.70576e-09
4.23281e-10
4.48804e-09
3.77433e-10
4.27547e-09