/*--------------------------------*- C++ -*----------------------------------*\
| =========                 |                                                 |
| \\      /  F ield         | OpenFOAM: The Open Source CFD Toolbox           |
|  \\    /   O peration     | Version:  2.4.0                                 |
|   \\  /    A nd           | Web:      www.OpenFOAM.org                      |
|    \\/     M anipulation  |                                                 |
\*---------------------------------------------------------------------------*/
FoamFile
{
    version     2.0;
    format      ascii;
    class       surfaceScalarField;
    location    "0.85";
    object      phiAlpha;
}
// * * * * * * * * * * * * * * * * * * * * * * * * * * * * * * * * * * * * * //

dimensions      [0 3 -1 0 0 0 0];

internalField   nonuniform List<scalar> 
5952
(
9.00777e-24
-6.72498e-23
1.80358e-22
3.52367e-23
-1.2007e-21
1.4265e-21
-3.58842e-21
3.99545e-21
-4.87867e-20
4.83636e-21
-9.1742e-19
4.0997e-20
-6.65001e-18
5.28647e-19
-4.24443e-16
2.73502e-18
-1.52455e-09
1.39607e-09
-8.56849e-09
-1.37277e-08
-1.19115e-08
8.64013e-09
-3.21765e-09
-1.05787e-08
-9.51851e-22
-4.19766e-23
-2.78558e-21
3.10957e-22
-6.84435e-20
1.86905e-20
-6.53387e-21
2.58636e-19
-1.9195e-20
1.3128e-20
-3.50018e-18
3.49116e-18
-1.25532e-17
3.19578e-18
1.09113e-11
-1.09113e-11
-1.99031e-07
4.11151e-08
-2.45547e-07
3.00439e-08
-2.94157e-07
5.99945e-08
1.77513e-08
-3.1787e-07
1.42314e-22
-4.87632e-22
-7.60787e-21
4.44196e-21
-5.9114e-18
1.47328e-19
-3.91288e-16
3.32445e-17
-1.01752e-15
5.22625e-14
9.03945e-16
1.85787e-14
8.73789e-16
2.42677e-17
-2.48007e-08
9.34886e-10
-1.56311e-07
5.62166e-08
-1.98152e-07
7.49182e-08
-1.21804e-07
7.68754e-08
5.11119e-09
-2.47578e-08
-3.62091e-21
-6.2329e-22
-4.5373e-20
1.85703e-20
-8.21069e-19
5.28806e-19
-1.75361e-17
5.10988e-17
-1.21867e-11
1.57313e-12
6.68415e-13
4.19995e-11
-1.67971e-10
1.6864e-10
-1.51042e-08
5.0852e-09
-1.68842e-07
4.31789e-08
-1.94622e-07
9.73756e-08
-5.56801e-09
1.07612e-08
1.50129e-10
-6.75007e-10
-1.1227e-19
7.24718e-21
-1.4013e-18
2.5814e-19
-1.37885e-17
1.12928e-17
1.68502e-14
2.80991e-14
1.91842e-12
8.49739e-14
-1.80665e-10
5.67185e-11
-4.93172e-09
5.52585e-08
6.91992e-10
9.57215e-08
-1.03942e-07
-4.7965e-10
-1.35817e-07
1.48758e-08
-2.83368e-09
7.45278e-09
1.05097e-09
-3.66055e-09
-1.44062e-18
3.10129e-19
-8.14468e-18
3.00207e-18
-1.47775e-14
1.87112e-15
1.12599e-14
3.52689e-15
9.6212e-14
9.61901e-18
-3.01377e-09
1.62606e-09
-1.98983e-08
1.20396e-07
-3.40797e-08
1.3573e-07
-3.33371e-09
1.43967e-08
-2.50737e-09
6.52998e-10
-1.67394e-08
-7.56916e-10
1.97289e-08
-2.93781e-08
-2.12228e-19
4.93409e-19
-6.73778e-16
6.73713e-16
-2.69178e-15
6.53411e-16
1.51811e-15
1.68054e-15
1.06208e-15
6.0897e-18
-1.91595e-08
1.9611e-09
-5.07877e-08
6.62325e-08
-3.4705e-08
1.43068e-07
-6.55343e-10
5.303e-08
-2.34456e-12
5.58445e-17
-1.73218e-09
1.18636e-12
5.60429e-10
-8.26477e-09
-5.05938e-14
5.92645e-14
1.04984e-15
1.14843e-12
-2.12603e-18
1.69322e-15
-1.17602e-17
1.70088e-15
-2.28908e-12
2.28895e-12
1.74736e-10
1.11458e-11
-3.99377e-08
4.09022e-09
-4.10169e-08
6.57658e-08
-5.49243e-13
3.15299e-08
-5.50529e-13
1.31802e-15
2.68831e-12
1.62536e-11
2.84651e-12
7.80035e-11
5.91909e-14
5.73331e-17
-2.52539e-11
9.56736e-12
-1.00365e-11
5.95738e-11
-1.55703e-11
1.30955e-10
1.43795e-12
9.75683e-12
-6.07369e-10
1.98336e-11
-5.81382e-09
7.50943e-11
1.3139e-09
3.71777e-10
1.47733e-09
-1.29478e-09
2.04047e-10
3.87881e-10
6.90541e-17
2.20301e-10
2.8463e-12
8.27395e-17
-1.48427e-17
6.38049e-17
9.5673e-12
3.96939e-17
-1.62462e-10
1.18882e-10
-3.27328e-10
3.1907e-10
-2.37593e-10
6.5988e-11
-8.8363e-11
1.10819e-11
2.37692e-11
-3.0316e-11
4.04508e-10
-1.56845e-11
2.6933e-09
-4.61571e-11
4.13033e-09
6.30021e-10
3.21248e-09
3.154e-10
4.38977e-11
1.64616e-10
-3.22155e-18
6.70264e-17
3.15296e-18
3.33194e-17
1.0048e-15
1.18881e-10
3.74272e-11
4.18174e-10
4.94014e-11
1.62337e-10
4.65131e-10
4.7602e-12
7.8555e-10
1.71597e-10
3.63804e-10
3.28113e-11
4.19851e-10
3.51233e-11
1.29008e-09
-4.21707e-10
1.11078e-09
-5.50732e-10
-1.0617e-16
1.15468e-09
1.26749e-08
-2.99413e-08
5.65899e-08
-1.12754e-07
1.07608e-07
-1.56323e-07
1.00287e-07
-1.38213e-07
2.06986e-08
-1.11953e-07
7.74277e-17
1.53124e-08
1.6629e-17
1.71597e-10
1.07096e-17
3.28112e-11
-3.44999e-11
6.96232e-11
2.98382e-09
5.64674e-11
2.36273e-09
1.60732e-10
2.36273e-09
-1.95224e-16
-2.72905e-08
1.29705e-09
-2.71958e-08
-2.30247e-12
-3.31487e-09
1.77921e-10
-3.19358e-09
-1.21297e-10
-1.12603e-08
-1.19781e-08
-1.24094e-08
-1.46761e-08
-9.51447e-09
-6.4041e-09
-4.12097e-09
-5.34949e-09
-2.50335e-10
-2.12539e-09
-7.00949e-14
-1.98597e-10
2.34072e-18
-7.0097e-14
2.34072e-18
-4.45826e-10
8.26292e-09
-3.77728e-10
-1.55632e-10
-1.08758e-10
-5.81812e-12
-1.38787e-08
-3.44623e-10
-4.80626e-08
-6.62855e-09
-4.76602e-08
-8.04334e-11
-3.55139e-08
-1.51614e-08
-1.24637e-08
-2.66224e-08
-1.83644e-08
-4.02767e-10
-1.37249e-08
-1.19502e-08
-3.86908e-09
-6.93871e-09
-7.43124e-09
-1.5847e-08
-6.91987e-10
-8.84034e-09
1.30156e-09
-4.73253e-09
2.39499e-11
-2.09812e-09
-3.45283e-18
-1.83993e-12
-6.0686e-11
-1.69215e-16
-8.22738e-11
-1.4986e-08
-1.7544e-10
-7.01222e-08
-1.66456e-09
-1.53337e-07
-2.18019e-09
-1.43319e-07
-2.19684e-08
-7.52462e-08
-7.50111e-08
-5.38836e-08
-1.87237e-09
5.73431e-10
-3.21694e-10
3.3118e-10
-2.69025e-17
4.38208e-17
-4.97294e-17
-9.04056e-18
-6.06862e-11
-2.76255e-17
-5.35301e-10
-2.45808e-11
5.8773e-12
-1.45726e-09
-7.54865e-16
-1.65869e-09
1.03503e-11
-2.19054e-09
-1.44487e-08
-7.60983e-09
-2.01624e-08
2.08523e-08
-4.20063e-09
-2.97618e-11
7.94701e-09
-7.54176e-17
3.01419e-10
-4.89945e-17
-2.73217e-19
-7.16174e-17
-1.79483e-17
-8.62268e-17
-5.59549e-17
-2.45808e-11
-1.1797e-16
-1.53768e-09
-1.89994e-09
-2.85332e-08
-7.12486e-08
-1.66558e-07
-8.28214e-08
-2.86351e-07
-2.20994e-07
-5.96667e-08
-6.52506e-07
-4.02962e-07
-3.77525e-08
1.47893e-08
-5.41533e-17
4.44089e-09
-5.10954e-17
-6.11224e-19
-7.8764e-17
6.30409e-20
-1.07874e-16
-7.10687e-17
-7.98755e-17
-2.37318e-16
-1.89994e-09
-2.35925e-16
2.01669e-07
-2.04768e-07
2.14273e-07
-1.17534e-07
2.17657e-07
-2.96467e-07
2.97189e-07
-9.46168e-07
-1.0894e-06
-1.25577e-08
4.48136e-09
-4.48077e-14
7.72771e-10
-4.42585e-14
-5.52765e-16
-1.23308e-16
-1.85442e-13
-1.3553e-16
-7.27205e-17
-1.06969e-16
-1.41747e-16
-1.03942e-16
-3.27883e-16
1.36215e-07
-2.2143e-07
3.29155e-07
-2.71781e-07
3.97868e-07
-3.6518e-07
3.37943e-07
-8.86244e-07
-7.51453e-07
1.38057e-10
7.51804e-17
4.80137e-13
3.44539e-11
-1.89648e-13
3.98933e-13
-1.07462e-15
-1.19249e-17
-9.203e-16
-2.12205e-16
-1.20727e-16
-8.78259e-15
-2.10667e-16
-3.80559e-16
-6.78381e-08
-4.5431e-08
1.91461e-07
-5.44775e-07
2.46252e-07
-4.19971e-07
1.62517e-07
-8.02509e-07
-5.88936e-07
7.78424e-17
6.3479e-17
4.47208e-17
3.44539e-11
3.19616e-17
3.98945e-13
1.36136e-17
6.42267e-18
-1.07844e-15
-2.63134e-17
1.82813e-15
-1.0821e-14
3.16313e-15
-1.87536e-15
-5.85115e-08
-1.94234e-09
1.41245e-07
-3.74723e-07
1.98866e-07
-4.77592e-07
1.07583e-07
-7.11226e-07
-4.78049e-07
1.29286e-10
3.53302e-11
3.09119e-09
4.6204e-08
5.71791e-08
2.12642e-07
6.86588e-17
5.71791e-08
3.28168e-17
2.62487e-16
5.49593e-16
2.75787e-15
-4.2846e-18
-5.85809e-17
-1.94234e-09
-3.48974e-17
1.04397e-07
-1.62343e-17
3.44985e-07
-4.82076e-07
1.9592e-07
-5.6216e-07
-2.82736e-07
1.26327e-07
1.00906e-09
1.8265e-06
5.89135e-07
1.37043e-06
7.57023e-07
4.85031e-07
7.11088e-07
-7.82329e-10
2.88276e-07
2.0592e-17
-7.82326e-10
2.14184e-17
-7.65861e-17
7.07386e-18
-6.21771e-17
6.44637e-18
-3.36565e-17
5.42087e-07
-1.45519e-07
4.34964e-07
-3.62156e-07
1.46052e-07
5.52662e-07
1.76575e-10
1.93515e-06
3.48382e-07
1.73581e-06
9.50552e-07
1.3786e-06
1.04582e-06
5.47911e-07
7.02562e-07
-2.36129e-09
-2.26093e-08
9.67498e-17
-2.36129e-09
4.626e-17
-5.59905e-17
5.41354e-09
-5.41354e-09
2.4672e-07
-1.39389e-08
8.73371e-07
-5.20664e-08
1.01942e-06
9.6393e-30
-1.4533e-28
8.22865e-27
-5.45602e-26
1.80669e-25
-8.09661e-25
7.08912e-25
-2.3617e-24
5.25323e-25
-1.20641e-24
1.0489e-25
1.02313e-26
2.12301e-26
9.76854e-27
1.08665e-24
6.31643e-24
-7.92364e-21
1.45162e-21
-5.53964e-20
1.22026e-20
-2.27498e-19
4.20329e-20
1.12667e-19
-8.18401e-19
1.06642e-28
-2.05096e-27
8.31141e-26
-5.82501e-25
1.94896e-24
-8.70625e-24
8.74776e-24
-2.84695e-23
1.05857e-23
-1.69918e-23
2.71915e-23
4.52725e-23
-1.8969e-20
4.70449e-21
-2.38976e-19
6.05888e-20
-1.566e-18
3.18793e-19
-7.49994e-18
1.36197e-18
-2.78875e-17
4.76163e-18
1.33033e-17
-8.27013e-17
8.74175e-28
-2.24315e-26
2.95805e-25
-3.40483e-24
5.89364e-24
-4.59109e-23
2.32112e-23
-1.56984e-22
-7.60926e-22
1.37628e-22
-3.8033e-20
9.48281e-21
-3.99804e-19
1.03267e-19
-2.81122e-18
6.6951e-19
-1.46498e-17
3.42305e-18
-5.73618e-17
1.37496e-17
-1.69183e-16
4.22216e-17
9.67652e-17
-3.70728e-16
-3.32309e-25
-2.14435e-25
-1.07431e-23
-1.77916e-23
-1.54973e-22
-1.82027e-22
-2.96841e-21
-2.61761e-23
-2.78373e-20
4.65749e-21
-2.04608e-19
5.5393e-20
-1.36695e-18
3.87291e-19
-7.82031e-18
2.24227e-18
-3.53791e-17
1.07532e-17
-1.21232e-16
4.01128e-17
-3.09062e-16
1.11428e-16
2.24328e-16
-5.81025e-16
-9.97612e-24
6.69087e-26
-2.81698e-22
-1.19033e-23
-2.99382e-21
-1.59371e-23
-1.79853e-20
1.11274e-21
-8.19393e-20
1.58757e-20
-3.73759e-19
1.1442e-19
-1.84877e-18
6.49617e-19
-8.79063e-18
3.36175e-18
-3.51699e-17
1.49358e-17
-1.09198e-16
5.21062e-17
-2.52365e-16
1.34666e-16
2.48602e-16
-4.24288e-16
-9.07426e-23
5.31487e-24
-1.54854e-21
1.13382e-22
-1.01287e-20
7.70777e-22
-4.02104e-20
4.1969e-21
-1.26342e-19
2.48522e-20
-3.93773e-19
1.33636e-19
-1.42254e-18
6.47178e-19
-5.5982e-18
3.03602e-18
-2.05101e-17
1.29457e-17
-6.15052e-17
4.46801e-17
-1.39583e-16
1.15039e-16
2.10142e-16
-2.30559e-16
-3.70432e-22
5.32089e-23
-3.86518e-21
7.10322e-22
-1.76334e-20
2.78529e-21
-5.55689e-20
7.15106e-21
-1.35451e-19
2.28758e-20
-2.9701e-19
9.89881e-20
-7.12764e-19
4.38128e-19
-2.04325e-18
1.89198e-18
-6.47278e-18
7.87462e-18
-1.93775e-17
2.79247e-17
-4.71615e-17
7.56966e-17
1.46624e-16
-8.57352e-17
-6.23488e-21
2.06221e-21
-2.50246e-20
1.41728e-20
-2.81887e-20
2.1326e-20
-4.78913e-20
1.1195e-20
-1.01056e-19
1.13194e-20
-1.66764e-19
3.98565e-20
-2.19607e-19
2.0213e-19
-1.75157e-19
8.78203e-19
1.03605e-19
3.6594e-18
5.47664e-19
1.33865e-17
7.98205e-19
3.85556e-17
8.20591e-17
-2.02913e-18
-1.28856e-18
4.30194e-19
-9.73859e-18
3.19088e-18
-2.30129e-17
9.43489e-18
-2.7785e-17
5.35638e-16
-5.44695e-20
2.14464e-18
-5.28633e-20
-1.32778e-18
1.05307e-20
5.38455e-20
1.80941e-19
3.56312e-19
7.60164e-19
1.55685e-18
2.53542e-18
5.74516e-18
6.89773e-18
1.71083e-17
3.83519e-17
1.4638e-17
-9.70149e-19
1.55874e-17
-9.44467e-19
2.54691e-18
-1.48538e-15
1.49334e-15
-4.30831e-16
3.068e-15
2.3291e-17
-7.27582e-18
9.04905e-17
-2.26393e-17
3.04208e-17
-2.20869e-18
7.88299e-18
5.11603e-18
2.54734e-18
1.92913e-18
2.5891e-18
2.60904e-18
5.86767e-18
6.8757e-18
1.56486e-17
1.26152e-17
1.17149e-23
1.55874e-17
2.31591e-22
2.5467e-18
1.1452e-09
-1.04247e-08
1.0827e-16
1.1452e-09
1.12934e-16
-9.43882e-17
1.10376e-16
-1.11515e-16
1.00589e-16
-6.18568e-17
4.46333e-16
4.82906e-17
2.38793e-16
8.25771e-17
8.378e-17
4.65167e-17
2.6677e-17
1.88467e-17
1.02467e-17
1.31217e-17
3.83654e-07
-1.18883e-07
1.04112e-06
-4.68847e-07
1.25303e-06
-5.4623e-07
7.78847e-07
-4.18428e-08
4.68121e-07
5.00084e-09
1.38272e-07
-5.12493e-07
5.99122e-10
-3.14612e-08
6.8366e-17
5.99122e-10
2.25872e-17
5.0381e-18
1.96485e-17
7.15408e-18
5.22324e-18
3.85206e-17
5.19696e-18
5.01871e-18
-2.7536e-18
2.82081e-19
-8.41137e-18
6.48164e-19
-2.27469e-17
1.22087e-18
-5.56913e-17
1.49496e-18
-1.33187e-16
-5.89557e-18
-1.03792e-16
-3.16045e-16
-1.3357e-16
-2.60825e-17
-9.89521e-17
-1.23801e-16
-4.19171e-17
-1.32313e-16
-4.10274e-18
-9.73284e-17
-4.62503e-22
-2.57969e-17
-3.0745e-20
-2.02069e-16
2.91615e-17
-4.35897e-16
4.9485e-17
-8.31643e-16
6.36093e-17
-9.0763e-16
4.22551e-17
-6.66199e-15
-1.97159e-16
-2.84905e-16
-1.89734e-14
-8.86182e-16
4.96799e-16
-6.83524e-16
-2.94435e-16
-3.96796e-16
-2.73428e-16
-8.48286e-17
-2.10643e-16
-1.55683e-19
-1.17524e-16
-2.37072e-18
-5.80071e-16
1.59076e-16
-6.53568e-16
2.06344e-16
-5.24474e-16
1.14777e-16
-4.15115e-16
2.88967e-17
-1.77296e-14
-2.84587e-17
-2.90706e-13
-1.09707e-14
-9.64814e-15
-5.74345e-13
-6.93758e-16
-6.16135e-14
-4.14053e-16
-3.57867e-16
-1.85722e-16
-2.45857e-16
-3.82275e-18
-1.0524e-16
-2.35632e-17
-8.07167e-16
3.18872e-16
-7.91323e-16
3.0959e-16
-4.63545e-16
1.50852e-16
-3.79315e-16
3.49532e-17
-4.10543e-16
-2.31709e-17
-1.13026e-14
-7.47263e-17
1.27026e-13
-1.89749e-13
-1.01091e-11
-9.79199e-12
-8.97999e-12
-5.4271e-11
-3.53446e-13
-5.01833e-11
-2.36777e-17
-6.24633e-13
-4.72409e-17
-5.10249e-16
3.1766e-16
-4.36774e-16
2.68793e-16
-3.16594e-16
1.38824e-16
-2.78383e-16
3.72818e-17
-2.98546e-16
-1.76891e-17
-3.57834e-16
-6.71223e-17
-1.90017e-13
-1.48159e-16
-3.3279e-11
-1.14806e-11
-7.79302e-11
-1.3228e-10
-7.40288e-11
-1.2985e-10
-3.50237e-17
-1.0438e-10
-8.22646e-17
-2.742e-16
2.63475e-16
-2.44704e-16
2.20324e-16
-1.95096e-16
1.20119e-16
-1.76918e-16
3.90473e-17
-1.9317e-16
-1.12355e-17
-2.47822e-16
-5.35363e-17
-3.14548e-16
-1.29689e-16
-2.91e-11
-6.28086e-16
-9.95904e-11
-2.78943e-11
-9.91306e-11
-1.3061e-10
-8.42961e-17
-1.92231e-10
-1.66561e-16
-1.14548e-16
1.95993e-16
-1.18162e-16
1.78684e-16
-1.04784e-16
1.11079e-16
-9.10606e-17
4.23723e-17
-9.78727e-17
-4.23925e-18
-1.36064e-16
-3.47775e-17
-1.57219e-16
-1.15527e-16
-1.83909e-16
-2.29394e-16
-2.78941e-11
-2.73662e-16
-4.26614e-11
-3.64172e-16
-1.05108e-11
-3.94872e-11
-1.72549e-11
-9.78578e-18
1.21347e-16
-1.6722e-17
1.2236e-16
-1.84157e-17
8.30836e-17
-1.75268e-17
3.31605e-17
-2.30138e-17
-2.75973e-19
-4.69971e-17
-1.66403e-17
-7.34165e-17
-8.99944e-17
-7.68319e-17
-2.1947e-16
-8.20981e-17
-3.39989e-16
-8.92546e-17
-4.16779e-16
-2.56446e-11
-1.38427e-11
-2.64774e-10
2.3103e-17
6.04258e-17
2.71647e-17
6.51558e-17
2.3983e-17
4.59407e-17
1.45702e-17
1.67315e-17
5.35497e-18
4.91257e-19
1.04938e-17
-1.08225e-17
2.04537e-17
-6.07035e-17
1.40037e-17
-1.52897e-16
-1.01818e-17
-2.44753e-16
-4.74469e-17
-3.1816e-16
-3.13328e-11
-2.54678e-16
-2.96107e-10
2.12261e-17
2.54823e-17
2.69748e-17
2.82689e-17
2.51627e-17
1.99428e-17
1.55998e-17
7.14099e-18
9.64273e-18
6.95265e-19
2.65768e-17
-7.30426e-18
6.59763e-17
-3.58077e-17
9.44353e-17
-8.33998e-17
8.33779e-17
-1.29361e-16
4.71974e-17
-2.18234e-16
8.69499e-18
-2.86045e-16
-1.15059e-12
1.37269e-17
1.05477e-17
1.61517e-17
1.08589e-17
1.48334e-17
7.5239e-18
9.74386e-18
2.87175e-18
1.12558e-17
6.63567e-19
3.53098e-17
-1.5823e-17
7.69304e-17
-2.57684e-17
1.12132e-16
-4.95658e-17
1.13311e-16
-6.57474e-17
1.16715e-16
-3.74392e-14
6.81491e-17
-3.33612e-16
-2.21251e-14
6.96551e-18
3.87679e-18
7.97282e-18
3.91554e-18
7.30808e-18
2.70797e-18
5.93694e-18
1.26685e-18
6.13033e-18
1.0469e-18
1.18919e-16
-4.75539e-16
8.60614e-17
-4.27575e-17
1.10535e-16
-7.78977e-17
1.41911e-16
-9.92293e-17
4.88115e-13
1.57214e-14
2.68316e-12
-1.22206e-11
2.4799e-14
1.56965e-31
-3.35083e-30
2.5547e-28
-2.15317e-27
7.48537e-27
-3.83618e-26
2.83441e-26
-1.10078e-25
1.1368e-26
-2.57127e-26
2.28608e-27
1.92354e-28
5.72162e-28
2.10944e-28
5.02543e-25
1.07919e-24
-5.60799e-22
1.6855e-22
-3.94334e-21
1.09465e-21
-1.25613e-20
3.22766e-21
6.41539e-21
-2.8191e-20
3.02171e-30
-8.19047e-29
3.61015e-27
-3.23697e-26
1.00934e-25
-5.14612e-25
4.45784e-25
-1.92147e-24
2.56423e-25
-2.10759e-24
4.77354e-24
5.61486e-24
-1.17765e-21
6.45743e-22
-1.06476e-20
4.79918e-21
-3.66173e-20
1.49798e-20
-8.73109e-20
3.2327e-20
-1.6819e-19
5.52866e-20
7.9078e-20
-2.79532e-19
4.45777e-29
-1.34871e-27
2.19877e-26
-2.59421e-25
4.84507e-25
-3.49391e-24
2.53322e-24
-1.76059e-23
5.50439e-24
1.88896e-23
-2.12839e-21
1.04736e-21
-1.41173e-20
7.29277e-21
-4.77995e-20
2.52164e-20
-1.15987e-19
5.91217e-20
-2.2848e-19
1.08186e-19
-3.88276e-19
1.64987e-19
2.15745e-19
-5.88699e-19
1.71826e-28
-1.9077e-26
3.71506e-26
-1.68654e-24
3.44752e-25
-1.90971e-23
-8.12521e-23
-1.99711e-23
-1.43732e-21
4.48398e-22
-8.80653e-21
4.51573e-21
-3.2157e-20
2.01151e-20
-8.46933e-20
5.67024e-20
-1.78608e-19
1.18555e-19
-3.20424e-19
2.00481e-19
-5.073e-19
2.86882e-19
3.54661e-19
-7.2615e-19
-1.97797e-25
-1.23805e-25
-7.86984e-24
-5.11553e-24
-1.11354e-22
-2.81927e-23
-8.13488e-22
5.38711e-23
-4.01993e-21
1.32644e-21
-1.46382e-20
8.67462e-21
-4.1345e-20
3.25171e-20
-9.47458e-20
8.40584e-20
-1.83189e-19
1.66357e-19
-3.07974e-19
2.68732e-19
-4.60637e-19
3.67402e-19
4.32837e-19
-6.24948e-19
-2.71251e-24
-2.67677e-26
-5.59269e-23
-2.20304e-24
-4.23847e-22
3.64554e-24
-1.86161e-21
2.04788e-22
-6.04253e-21
2.00567e-21
-1.60383e-20
1.06873e-20
-3.69026e-20
3.74907e-20
-7.51274e-20
9.46588e-20
-1.3545e-19
1.84409e-19
-2.1617e-19
2.91438e-19
-3.0669e-19
3.85176e-19
4.32246e-19
-3.90594e-19
-1.16773e-23
8.18851e-25
-1.51928e-22
1.28625e-23
-7.98945e-22
7.00295e-23
-2.64575e-21
3.29351e-22
-6.55206e-21
1.90986e-21
-1.31554e-20
9.1866e-21
-2.3351e-20
3.2585e-20
-3.97085e-20
8.5191e-20
-6.55848e-20
1.70496e-19
-1.01045e-19
2.71798e-19
-1.39444e-19
3.5449e-19
3.82475e-19
-1.68623e-19
-2.41782e-23
4.09071e-24
-2.2158e-22
4.21671e-23
-9.17859e-22
1.38764e-22
-2.51472e-21
2.99912e-22
-5.15753e-21
1.087e-21
-7.81982e-21
5.23227e-21
-8.01995e-21
2.07886e-20
-4.61423e-21
6.09047e-20
-5.41371e-22
1.32852e-19
-7.5231e-22
2.23514e-19
-7.38762e-21
2.98499e-19
3.19857e-19
-1.71361e-20
-2.33619e-23
7.24316e-24
-1.53865e-22
4.88141e-23
-5.12181e-22
1.10845e-22
-1.22729e-21
1.22937e-22
-2.19864e-21
2.20608e-22
-2.15928e-21
1.52946e-21
1.83994e-21
9.314e-21
1.19669e-20
3.52223e-20
3.11197e-20
8.74995e-20
5.52659e-20
1.60121e-19
7.56144e-20
2.25797e-19
2.49641e-19
8.37053e-20
-6.48532e-24
4.75455e-24
-7.37298e-24
1.54625e-23
-3.61516e-22
4.23921e-22
-1.14854e-18
1.06961e-18
9.33361e-19
-9.51711e-17
4.28452e-21
4.97506e-22
4.50864e-21
2.5912e-21
1.66157e-20
1.48887e-20
4.11484e-20
4.63448e-20
7.61442e-20
9.7382e-20
1.11554e-19
1.50665e-19
1.77949e-19
1.33625e-19
6.35333e-27
4.7301e-24
1.55711e-23
2.3718e-26
2.58295e-13
-1.08936e-12
9.74215e-13
-4.60053e-12
2.50157e-14
-2.32271e-12
1.80388e-17
2.49621e-14
8.10329e-20
1.95976e-17
8.11482e-19
2.94304e-19
2.18605e-19
1.2468e-19
1.00729e-19
7.3043e-20
1.12176e-19
9.10253e-20
1.13178e-19
1.37499e-19
2.11316e-12
-1.5972e-13
2.11405e-12
-1.50236e-17
6.29875e-11
-1.23585e-17
7.45236e-11
-7.84474e-18
5.87019e-11
-2.31899e-12
6.24479e-12
8.13459e-12
6.43987e-13
8.49239e-14
2.92955e-18
6.43979e-13
1.05107e-18
3.74904e-19
6.71686e-19
3.1504e-19
3.79042e-19
2.07184e-19
2.27873e-19
1.30364e-19
-5.13621e-20
9.79475e-21
-8.10863e-20
1.19949e-20
-1.14882e-19
1.14901e-20
-1.49278e-19
7.13526e-21
-1.7817e-19
-3.97388e-21
-1.7693e-19
-4.09899e-20
-1.46622e-19
-7.43637e-20
-9.56711e-20
-9.64553e-20
-4.22107e-20
-9.64595e-20
-7.89008e-21
-6.88629e-20
-1.71224e-23
-2.57144e-20
-3.84356e-22
-4.14581e-19
9.61464e-20
-5.59113e-19
9.78725e-20
-6.93032e-19
7.70495e-20
-7.93842e-19
3.03413e-20
-8.30287e-19
-5.37463e-20
-7.9501e-19
-1.69737e-19
-6.79703e-19
-2.88824e-19
-4.93112e-19
-3.85849e-19
-2.71226e-19
-4.20998e-19
-8.36353e-20
-3.50779e-19
-1.92353e-21
-1.7575e-19
-1.17745e-20
-8.12775e-19
2.43089e-19
-1.03555e-18
2.30817e-19
-1.22852e-18
1.68519e-19
-1.36431e-18
5.43502e-20
-1.43017e-18
-1.0831e-19
-1.41832e-18
-3.09494e-19
-1.30181e-18
-5.41459e-19
-1.05455e-18
-7.78238e-19
-6.82469e-19
-9.4637e-19
-2.75739e-19
-9.12607e-19
-1.89892e-20
-5.67821e-19
-7.87989e-20
-9.56715e-19
3.79974e-19
-1.17736e-18
3.45723e-19
-1.37011e-18
2.45362e-19
-1.52152e-18
8.14379e-20
-1.64418e-18
-1.17063e-19
-1.73481e-18
-3.57279e-19
-1.74586e-18
-6.79744e-19
-1.59616e-18
-1.093e-18
-1.20455e-18
-1.52282e-18
-6.03108e-19
-1.71746e-18
-7.92668e-20
-1.29476e-18
-2.79127e-19
-7.83971e-19
4.4146e-19
-9.28662e-19
3.84506e-19
-1.06217e-18
2.67292e-19
-1.19562e-18
9.91558e-20
-1.35497e-18
-7.76957e-20
-1.55793e-18
-2.79745e-19
-1.76427e-18
-6.11729e-19
-1.86112e-18
-1.15684e-18
-1.65558e-18
-1.92203e-18
-1.01405e-18
-2.59224e-18
-2.06692e-19
-2.36307e-18
-6.96319e-19
-4.54496e-19
4.13585e-19
-4.98549e-19
3.34491e-19
-5.41972e-19
2.18403e-19
-6.18089e-19
8.61122e-20
-7.54906e-19
-2.92609e-20
-9.86752e-19
-1.39481e-19
-1.31884e-18
-3.84539e-19
-1.67505e-18
-9.32514e-19
-1.80596e-18
-1.96901e-18
-1.36051e-18
-3.27925e-18
-3.85684e-19
-3.64134e-18
-1.37705e-18
-1.77608e-19
3.40196e-19
-1.65852e-19
2.44507e-19
-1.50264e-19
1.35341e-19
-1.65735e-19
4.77017e-20
-2.35064e-19
-4.20098e-21
-3.85538e-19
-3.51119e-20
-6.72165e-19
-1.54576e-19
-1.11522e-18
-5.717e-19
-1.53507e-18
-1.68659e-18
-1.45776e-18
-3.58307e-18
-5.48023e-19
-4.87963e-18
-2.28877e-18
-2.32692e-20
2.71914e-19
-2.09982e-20
1.75409e-19
-1.23331e-20
7.64676e-20
-9.34518e-21
1.62174e-20
-2.09081e-20
-1.13871e-21
-5.89228e-20
-7.06559e-21
-1.74364e-19
-5.10606e-20
-4.57108e-19
-3.12645e-19
-9.04877e-19
-1.31583e-18
-1.16954e-18
-3.50632e-18
-5.89889e-19
-5.79549e-18
-3.29303e-18
7.6179e-20
2.14392e-19
5.62714e-20
1.36545e-19
3.18922e-20
5.72736e-20
1.25435e-20
1.17122e-20
4.33143e-21
-1.28154e-21
4.02914e-21
-9.56628e-21
1.15495e-20
-5.11992e-20
2.1601e-20
-3.01134e-19
-7.49683e-20
-1.23014e-18
-4.32641e-19
-3.27847e-18
-3.94207e-19
-6.16087e-18
-4.13446e-18
1.32646e-19
1.61214e-19
1.08902e-19
1.09287e-19
7.34821e-20
5.22995e-20
4.29432e-20
1.55847e-20
2.53421e-20
-5.60325e-22
2.01793e-20
-1.27928e-20
5.29203e-20
-7.60326e-20
1.82507e-19
-3.97231e-19
4.16603e-19
-1.43113e-18
4.82913e-19
-3.41351e-18
1.82917e-19
-6.16241e-18
-4.41193e-18
1.45719e-19
1.10715e-19
1.30837e-19
8.22296e-20
1.01559e-19
4.5226e-20
7.23558e-20
1.65352e-20
5.07078e-20
-7.44429e-23
5.09225e-20
-2.4406e-20
1.53131e-19
-1.67862e-19
5.19252e-19
-7.18688e-19
1.24005e-18
-2.10277e-18
1.80082e-18
-4.02543e-18
1.40909e-18
-6.05275e-18
-3.45497e-18
1.66215e-19
8.94169e-20
1.34695e-19
6.03982e-20
1.07943e-19
3.42325e-20
8.30027e-20
1.32009e-20
6.9393e-20
-3.81585e-21
1.45194e-19
-1.2075e-19
5.19735e-19
-5.48239e-19
1.55282e-18
-1.72711e-18
3.40021e-18
-3.93918e-18
4.97437e-18
-5.71046e-18
4.55233e-18
-5.97047e-18
6.56791e-19
-8.51114e-09
8.51114e-09
-4.18876e-08
3.33765e-08
-9.01811e-08
4.82934e-08
-1.41081e-07
5.09001e-08
-1.83922e-07
4.28412e-08
-2.13421e-07
2.94986e-08
-2.2948e-07
1.60587e-08
-2.3258e-07
3.10035e-09
-2.3244e-07
-1.39485e-10
-2.38338e-07
5.89722e-09
-2.53181e-07
1.48432e-08
2.32136e-08
-2.76395e-07
-5.31044e-08
6.16156e-08
-1.67065e-07
1.47338e-07
-3.08688e-07
1.89916e-07
-4.47748e-07
1.8996e-07
-5.59426e-07
1.54519e-07
-6.32928e-07
1.03e-07
-6.67372e-07
5.05029e-08
-6.65383e-07
1.11107e-09
-6.57434e-07
-8.08803e-09
-6.63496e-07
1.19587e-08
-6.88862e-07
4.02096e-08
6.8163e-08
-7.33811e-07
-9.39002e-08
1.55516e-07
-2.93699e-07
3.47136e-07
-5.32125e-07
4.28342e-07
-7.56067e-07
4.13903e-07
-9.2013e-07
3.18581e-07
-1.01499e-06
1.97859e-07
-1.04991e-06
8.54263e-08
-1.02622e-06
-2.25852e-08
-9.90283e-07
-4.40201e-08
-9.80175e-07
1.85056e-09
-9.86222e-07
5.15234e-08
1.12819e-07
-1.02206e-06
-1.36602e-07
2.92118e-07
-4.13785e-07
6.24319e-07
-7.40717e-07
7.55273e-07
-1.04206e-06
7.15248e-07
-1.22818e-06
5.04699e-07
-1.31198e-06
2.81661e-07
-1.33643e-06
1.09875e-07
-1.255e-06
-1.04945e-07
-1.17282e-06
-1.26197e-07
-1.1371e-06
-3.38769e-08
-1.09991e-06
1.85788e-08
1.19194e-07
-1.10177e-06
-1.52221e-07
4.44339e-07
-4.6146e-07
9.33559e-07
-8.26314e-07
1.12013e-06
-1.13901e-06
1.02794e-06
-1.02554e-06
4.361e-07
-7.92337e-07
6.58294e-08
-7.27352e-07
1.10719e-08
-1.02291e-06
-6.0262e-17
-1.16428e-06
-4.95009e-08
-1.14384e-06
-6.11455e-08
-1.04692e-06
-7.8338e-08
6.64854e-08
-9.94198e-07
-1.17823e-07
5.62161e-07
-3.71743e-07
1.18748e-06
-6.75755e-07
1.42414e-06
-5.63526e-07
9.80786e-07
-7.99329e-08
5.76219e-08
-1.55474e-08
1.4965e-16
-1.34791e-16
3.67684e-17
-1.72963e-16
-1.40447e-17
-5.01673e-08
-1.84591e-17
-6.51766e-07
-4.01108e-17
-9.14011e-07
-3.10312e-08
6.63613e-09
-8.78625e-07
-4.91704e-08
6.11332e-07
-1.77889e-07
1.3162e-06
-3.43022e-07
1.59453e-06
-5.84477e-08
8.08718e-07
-1.53679e-16
-8.25793e-10
-8.90214e-17
8.0778e-17
-8.93826e-17
3.27263e-17
-9.83833e-17
3.44481e-18
-1.07375e-16
-5.29632e-18
-1.23276e-16
-1.44808e-17
-3.10312e-08
-1.64053e-17
-5.40267e-18
-2.63922e-07
2.88459e-08
5.82486e-07
7.50557e-08
1.26999e-06
1.23916e-07
1.54567e-06
2.91141e-08
9.96817e-07
6.62e-19
3.36426e-08
-1.9545e-17
9.58104e-17
-3.57334e-17
4.40173e-17
-5.02884e-17
1.80261e-17
-6.54028e-17
1.16282e-17
-6.83889e-17
-5.62125e-19
-4.91277e-17
-5.39427e-18
-3.6983e-18
-5.08037e-17
6.09411e-08
5.21545e-07
2.42499e-07
1.08843e-06
4.52073e-07
1.3361e-06
2.68989e-07
1.17799e-06
6.97346e-17
2.86315e-07
3.6559e-17
1.17035e-16
1.47047e-17
5.47742e-17
7.62982e-18
2.14367e-17
-6.39691e-18
2.40944e-17
-1.47574e-17
8.4137e-18
-2.10318e-17
3.5062e-18
3.30649e-18
-2.02211e-17
6.10946e-08
4.6045e-07
3.52934e-07
7.96591e-07
7.41052e-07
9.47982e-07
9.31767e-07
9.87277e-07
1.61212e-07
9.2265e-07
8.09455e-17
1.61212e-07
5.13421e-17
8.79591e-17
5.74057e-17
1.2008e-17
4.68218e-17
3.22761e-17
4.35463e-17
9.0701e-18
3.89594e-17
5.71921e-18
7.55292e-18
3.18262e-17
1.3383e-07
3.26621e-07
5.31151e-07
3.9927e-07
9.31981e-07
5.47152e-07
1.09263e-06
8.26629e-07
1.22073e-06
7.94552e-07
2.26443e-07
1.04714e-06
2.33749e-08
3.53031e-07
1.44368e-08
-7.84172e-08
4.56482e-17
1.44368e-08
4.41855e-17
8.45341e-18
4.63573e-17
5.62679e-18
4.55262e-18
4.72782e-17
4.95844e-07
-4.64134e-18
1.05947e-06
-1.5341e-19
1.52068e-06
1.67408e-07
1.54037e-06
8.06932e-07
1.67484e-06
6.60091e-07
1.74441e-06
9.34895e-07
2.05069e-06
3.04755e-07
2.29828e-06
-2.60331e-07
6.19106e-07
8.34039e-07
3.00428e-07
-1.35931e-08
1.6188e-07
-1.17846e-07
3.50021e-08
-6.62377e-08
-3.05388e-07
2.89932e-08
-3.26079e-07
2.06917e-08
-3.29482e-07
3.4083e-09
-3.03096e-07
-2.63599e-08
-2.69352e-07
-3.39322e-08
-2.54089e-07
-1.54908e-08
-2.30553e-07
-2.35365e-08
-1.81388e-07
-4.86757e-08
-1.12529e-07
-6.88052e-08
-4.74318e-08
-6.51039e-08
-7.3793e-09
-4.00525e-08
-7.3793e-09
-7.97977e-07
9.55481e-08
-8.45239e-07
7.01579e-08
-8.62306e-07
2.04368e-08
-8.25268e-07
-6.47742e-08
-7.40598e-07
-9.29391e-08
-7.21994e-07
-2.01331e-08
-6.56459e-07
-7.68444e-08
-5.17762e-07
-1.98489e-07
-3.41839e-07
-2.49044e-07
-1.70982e-07
-2.3596e-07
-4.77784e-08
-1.63256e-07
-5.51445e-08
-1.09921e-06
1.69503e-07
-1.21576e-06
1.79889e-07
-1.31241e-06
1.17128e-07
-1.16358e-06
-2.21846e-08
-9.03907e-07
-7.41078e-08
-8.14578e-07
-1.09462e-07
-1.01209e-06
-2.20023e-07
-7.97335e-07
-4.13244e-07
-5.41608e-07
-5.03628e-07
-2.95357e-07
-4.82211e-07
-9.63918e-08
-3.62221e-07
-1.51587e-07
-1.16852e-06
2.28014e-07
-1.23085e-06
2.4356e-07
-8.3026e-07
1.67753e-07
-8.52486e-07
4.17015e-11
-7.96289e-07
-1.30305e-07
-7.34349e-07
-1.71401e-07
-1.12615e-06
-3.6644e-07
-9.59642e-07
-5.79753e-07
-6.96405e-07
-7.4192e-07
-4.29578e-07
-7.03442e-07
-1.67043e-07
-6.14102e-07
-3.18687e-07
-9.70679e-07
2.04369e-07
-9.15524e-07
1.88404e-07
-7.37423e-07
1.48508e-07
-7.12937e-07
1.66626e-07
-8.7442e-07
-1.38608e-07
-1.15492e-06
-1.53897e-07
-1.18495e-06
-3.36407e-07
-1.08757e-06
-6.77132e-07
-7.96805e-07
-1.00704e-06
-4.09188e-07
-1.01367e-06
-1.49101e-07
-7.8566e-07
-3.69775e-07
-8.70839e-07
1.96583e-07
-8.01664e-07
1.19229e-07
-8.17011e-07
1.90368e-07
-8.27955e-07
1.89177e-07
-9.91078e-07
-2.52323e-08
-1.10682e-06
-3.8156e-08
-1.18068e-06
-2.62549e-07
-1.15627e-06
-7.01537e-07
-9.85511e-07
-1.17781e-06
-5.4354e-07
-1.46643e-06
-1.77877e-07
-1.15132e-06
-5.47651e-07
-6.08448e-07
-3.10555e-17
-6.48253e-07
-1.4348e-08
-5.97649e-07
9.63425e-08
-5.63826e-07
1.55353e-07
-5.4001e-07
-4.90478e-08
-6.82511e-07
1.04345e-07
-8.68792e-07
-7.62686e-08
-9.7704e-07
-5.93277e-07
-9.37609e-07
-1.21722e-06
-7.07806e-07
-1.69621e-06
-2.22288e-07
-1.72663e-06
-7.69939e-07
-7.77449e-17
-4.08791e-18
-1.4348e-08
-7.57943e-18
-1.46683e-07
-1.48076e-17
-2.42494e-07
-9.37889e-09
-2.5784e-07
-4.86542e-08
-2.42583e-07
8.90875e-08
-4.12252e-07
9.34e-08
-5.84646e-07
-4.2087e-07
-6.46347e-07
-1.15554e-06
-5.83723e-07
-1.75886e-06
-2.6296e-07
-2.03832e-06
-1.15117e-06
-2.69479e-17
2.66597e-18
-3.10395e-17
-3.52067e-18
-3.54926e-17
-1.03848e-17
-9.37889e-09
-1.76103e-17
-4.32157e-08
-1.53827e-17
1.51543e-07
-5.31934e-08
9.20594e-08
1.27368e-07
-4.6067e-08
-2.82731e-07
-1.27464e-07
-1.07417e-06
-1.95565e-07
-1.6859e-06
-1.19481e-07
-2.10145e-06
-1.42503e-06
1.76064e-17
1.30638e-17
6.50509e-18
6.337e-18
2.84738e-18
-3.78319e-18
1.72115e-18
-1.36135e-17
6.25753e-18
-2.9942e-17
1.2851e-07
-1.41353e-10
5.87002e-07
-5.77143e-09
6.21346e-07
-2.82885e-07
5.99926e-07
-1.05275e-06
4.22184e-07
-1.51185e-06
1.68549e-07
-1.74981e-06
-1.25648e-06
4.39423e-17
1.22181e-17
3.48814e-17
1.18028e-17
3.62318e-17
9.26654e-19
3.9756e-17
-1.05855e-18
2.88294e-17
-3.69848e-17
3.73247e-10
-5.146e-10
5.89123e-07
-3.96504e-08
1.48764e-06
-4.66149e-07
1.58619e-06
-1.1513e-06
1.32209e-06
-1.26825e-06
7.15495e-07
-1.24851e-06
-4.67798e-07
1.07605e-16
3.50021e-08
7.34512e-17
6.60117e-17
8.72525e-17
2.25369e-16
7.92221e-17
4.11476e-17
2.51681e-09
-7.35377e-10
2.70567e-08
-6.35172e-08
7.12643e-07
-2.16504e-07
2.7517e-06
-8.32082e-07
2.86049e-06
-1.26009e-06
2.54731e-06
-9.55077e-07
1.65332e-06
-5.10641e-07
1.18552e-06
4.18677e-06
9.52751e-08
-4.43041e-06
4.16372e-06
-9.23634e-08
4.19024e-06
-1.61096e-07
4.20321e-06
-1.07434e-07
4.13867e-06
-2.18937e-08
3.75838e-06
2.36934e-07
2.90428e-06
5.05893e-07
1.44803e-06
3.46204e-07
1.02323e-07
-6.33955e-08
2.58828e-09
3.32466e-08
5.22271e-16
2.74901e-09
1.01986e-16
5.4915e-16
6.09588e-06
4.07782e-09
-6.17189e-06
5.60471e-06
-8.13474e-08
5.60752e-06
-1.06646e-07
5.43269e-06
1.01433e-08
5.79996e-06
1.81546e-07
5.60218e-06
4.34716e-07
5.41294e-06
6.95131e-07
5.15432e-06
5.92251e-07
4.82416e-06
2.66757e-07
3.94896e-06
4.46738e-07
1.09787e-06
9.46737e-07
2.62191e-07
2.28306e-07
7.16841e-06
-8.96167e-08
-7.07471e-06
7.15446e-06
-8.80588e-08
7.08405e-06
-4.06793e-08
6.96288e-06
1.33234e-07
6.79708e-06
3.52444e-07
6.61565e-06
6.29858e-07
6.40877e-06
9.02015e-07
6.06756e-06
9.33464e-07
5.49155e-06
8.42762e-07
4.81598e-06
1.12231e-06
4.14407e-06
1.42651e-06
7.8278e-07
3.53297e-06
7.53168e-06
-7.51774e-06
-1.03555e-07
7.53255e-06
-8.89313e-08
7.48431e-06
7.56106e-09
7.39586e-06
2.21685e-07
7.25236e-06
4.95942e-07
7.06959e-06
8.12804e-07
6.87419e-06
1.09742e-06