/*--------------------------------*- C++ -*----------------------------------*\
| =========                 |                                                 |
| \\      /  F ield         | OpenFOAM: The Open Source CFD Toolbox           |
|  \\    /   O peration     | Version:  v1606+                                |
|   \\  /    A nd           | Web:      www.OpenFOAM.com                      |
|    \\/     M anipulation  |                                                 |
\*---------------------------------------------------------------------------*/
FoamFile
{
    version     2.0;
    format      ascii;
    class       volScalarField;
    location    "0.28";
    object      alpha.air;
}
// * * * * * * * * * * * * * * * * * * * * * * * * * * * * * * * * * * * * * //

dimensions      [0 0 0 0 0 0 0];

internalField   nonuniform List<scalar> 
6000
(
0.581282
0.585569
0.605114
0.613335
0.623391
0.623894
0.625875
0.631459
0.638596
0.642279
0.644209
0.644134
0.644325
0.644336
0.645981
0.644715
0.644706
0.644507
0.644585
0.643997
0.641479
0.635856
0.629584
0.625875
0.624747
0.624056
0.613406
0.603556
0.58346
0.579411
0.641855
0.656747
0.656798
0.656835
0.656884
0.656916
0.656946
0.656975
0.65698
0.656976
0.656974
0.656921
0.655437
0.655478
0.656924
0.655019
0.654921
0.655911
0.657163
0.657183
0.657176
0.657191
0.657174
0.657144
0.657118
0.657088
0.657037
0.657002
0.656944
0.641397
0.651225
0.652142
0.656397
0.65415
0.655756
0.656136
0.65691
0.656922
0.656936
0.656937
0.656929
0.656904
0.656888
0.656924
0.65697
0.657012
0.657055
0.657093
0.657129
0.657133
0.657147
0.657127
0.657131
0.657111
0.656201
0.655782
0.654124
0.656164
0.652129
0.650377
0.651289
0.647145
0.648577
0.641212
0.643294
0.647417
0.654226
0.656876
0.656916
0.656913
0.656903
0.656861
0.656851
0.656888
0.656924
0.65697
0.657012
0.657057
0.657093
0.657115
0.657116
0.657097
0.657079
0.653656
0.646427
0.641956
0.640088
0.647434
0.647058
0.650435
0.63705
0.608082
0.595766
0.578441
0.576653
0.584178
0.600196
0.615993
0.625327
0.630265
0.632523
0.633655
0.633994
0.633684
0.633151
0.633349
0.633684
0.634093
0.633575
0.632511
0.630261
0.62513
0.615201
0.598039
0.581742
0.573865
0.575658
0.593433
0.608607
0.63718
0.579523
0.53568
0.515972
0.496502
0.492587
0.495998
0.510748
0.531765
0.546684
0.555041
0.559058
0.56107
0.56171
0.561184
0.560251
0.56054
0.561118
0.561735
0.560803
0.558841
0.554808
0.546094
0.530431
0.508056
0.493774
0.491152
0.494241
0.513737
0.536547
0.58094
0.503462
0.490378
0.490366
0.490351
0.490341
0.490329
0.490317
0.490305
0.490291
0.490278
0.490265
0.490251
0.490237
0.490224
0.49021
0.490197
0.490183
0.49017
0.490155
0.490143
0.490128
0.490116
0.4901
0.49009
0.490072
0.490067
0.490064
0.490083
0.490092
0.504696
0.490387
0.490372
0.490357
0.490344
0.49034
0.49034
0.490333
0.490319
0.490305
0.49029
0.490275
0.490259
0.490244
0.490229
0.490214
0.490198
0.490184
0.490168
0.490154
0.490137
0.490123
0.490106
0.490093
0.490076
0.490065
0.490053
0.49006
0.490071
0.490089
0.490102
0.525161
0.54708
0.571156
0.573371
0.558122
0.541379
0.528907
0.52837
0.536198
0.54144
0.544331
0.542853
0.540171
0.537546
0.535573
0.535896
0.537478
0.540411
0.542716
0.544232
0.541345
0.535931
0.527477
0.529083
0.543062
0.560348
0.576938
0.574831
0.548217
0.525024
0.763024
0.800217
0.820379
0.805648
0.770644
0.745607
0.737367
0.746161
0.764576
0.775397
0.780978
0.78103
0.779804
0.778342
0.777245
0.777449
0.77845
0.780151
0.781271
0.781261
0.775609
0.764489
0.745154
0.736452
0.74574
0.772486
0.809504
0.824341
0.8021
0.763409
0.913898
0.916704
0.909531
0.874696
0.818837
0.783459
0.778803
0.801144
0.835683
0.854995
0.865719
0.871747
0.873385
0.873798
0.873989
0.87402
0.873891
0.873523
0.872043
0.865964
0.854953
0.834994
0.799055
0.775602
0.781246
0.82029
0.877902
0.911836
0.918126
0.914966
0.934173
0.929197
0.919525
0.885955
0.822272
0.770483
0.757031
0.787175
0.829512
0.853186
0.86695
0.875966
0.877028
0.877051
0.877075
0.877061
0.877036
0.877006
0.876296
0.867201
0.853055
0.828464
0.784551
0.753581
0.769756
0.825398
0.889163
0.921311
0.930479
0.935251
0.934144
0.929035
0.921284
0.893481
0.832015
0.76411
0.737776
0.771314
0.819633
0.846126
0.86154
0.872772
0.877012
0.877033
0.877049
0.877032
0.877013
0.87702
0.873127
0.861816
0.846033
0.818399
0.768224
0.735217
0.765256
0.835977
0.89619
0.922756
0.930248
0.93522
0.934195
0.928355
0.921726
0.897225
0.842439
0.76385
0.723645
0.757358
0.81198
0.839864
0.855359
0.867532
0.875723
0.877013
0.877031
0.877015
0.877026
0.875838
0.86786
0.855651
0.839892
0.810983
0.754439
0.721228
0.7654
0.845983
0.899237
0.923051
0.929418
0.935268
0.934124
0.926827
0.920598
0.897521
0.847268
0.764164
0.709771
0.745395
0.805834
0.834925
0.850749
0.862645
0.872083
0.876519
0.87701
0.877025
0.876574
0.872238
0.862877
0.851018
0.835049
0.805232
0.742924
0.707664
0.766344
0.850068
0.899118
0.921654
0.927672
0.935186
0.934097
0.923733
0.916443
0.893605
0.847575
0.76432
0.698544
0.736739
0.79949
0.829673
0.846043
0.857706
0.866544
0.872373
0.874343
0.874384
0.872415
0.866623
0.857818
0.846213
0.829777
0.798976
0.73433
0.696517
0.766653
0.849824
0.894782
0.917056
0.92433
0.935169
0.934023
0.918181
0.908356
0.884505
0.841475
0.76042
0.6896
0.728222
0.790773
0.822419
0.83958
0.851385
0.859418
0.864656
0.866892
0.866896
0.864607
0.859341
0.851328
0.839567
0.822338
0.790061
0.725912
0.687659
0.76207
0.84311
0.885235
0.908654
0.918566
0.935098
0.932725
0.909508
0.896783
0.872142
0.830054
0.75218
0.680513
0.717117
0.778467
0.812135
0.830386
0.842699
0.850385
0.854747
0.856502
0.856467
0.854589
0.850148
0.842465
0.83018
0.811803
0.777511
0.714795
0.678572
0.752984
0.831083
0.872693
0.897009
0.909752
0.933521
0.926765
0.897659
0.882454
0.857352
0.814007
0.736168
0.668605
0.704637
0.762422
0.79797
0.817903
0.831089
0.838841
0.842714
0.844043
0.843975
0.842454
0.838458
0.830687
0.817502
0.797375
0.7612
0.702494
0.666642
0.736256
0.814631
0.857904
0.882779
0.897877
0.927112
0.914417
0.882686
0.865435
0.839243
0.791803
0.712716
0.654504
0.687892
0.741009
0.778299
0.801259
0.815837
0.82394
0.827705
0.828834
0.828726
0.827348
0.823409
0.815264
0.800642
0.777417
0.739413
0.685351
0.652667
0.712275
0.7918
0.839698
0.8659
0.882966
0.914544
0.896001
0.864792
0.845843
0.815637
0.759514
0.681045
0.635848
0.66464
0.712935
0.751951
0.778799
0.7956
0.8046
0.808601
0.80973
0.809581
0.808152
0.803905
0.794799
0.777906
0.750698
0.710857
0.661869
0.634721
0.67961
0.7578
0.815334
0.846359
0.865222
0.89624
0.871964
0.844889
0.823225
0.77988
0.709521
0.637711
0.60973
0.632416
0.677098
0.718591
0.748821
0.768024
0.778426
0.783055
0.784406
0.784209
0.782473
0.777501
0.76689
0.747543
0.716911
0.674714
0.630033
0.609244
0.636353
0.7062
0.777727
0.823421
0.845593
0.872538
0.843623
0.822131
0.79195
0.72177
0.644425
0.591462
0.574254
0.591466
0.633979
0.677615
0.709794
0.730312
0.741869
0.747334
0.749098
0.748839
0.746572
0.740654
0.728793
0.708085
0.675703
0.632098
0.590305
0.574242
0.590381
0.641949
0.718165
0.790745
0.82313
0.844747
0.812296
0.792873
0.740367
0.648365
0.582683
0.549455
0.540589
0.552664
0.588219
0.628423
0.659082
0.678993
0.690735
0.696736
0.698893
0.698566
0.695784
0.68923
0.677121
0.657062
0.626607
0.587289
0.552857
0.541075
0.549145
0.581919
0.646095
0.736982
0.793585
0.814214
0.775411
0.751738
0.66885
0.579719
0.535844
0.517837
0.515943
0.523439
0.54487
0.57216
0.594981
0.610634
0.620442
0.625889
0.628031
0.627653
0.624795
0.618737
0.60855
0.592859
0.570568
0.54442
0.52389
0.516446
0.51801
0.53576
0.578634
0.665417
0.751738
0.777867
0.728338
0.6903
0.595539
0.527372
0.503538
0.495643
0.495091
0.497265
0.503601
0.513337
0.522911
0.530197
0.535197
0.538239
0.539484
0.539118
0.53719
0.533595
0.528284
0.521032
0.511953
0.502969
0.497123
0.495051
0.495683
0.503291
0.526859
0.593006
0.688656
0.730948
0.671555
0.610274
0.530165
0.493485
0.481839
0.477388
0.474184
0.471153
0.468489
0.467222
0.466971
0.4671
0.467382
0.46765
0.467726
0.467543
0.467127
0.466592
0.466142
0.465982
0.466359
0.467799
0.470571
0.473708
0.47707
0.481403
0.492903
0.528117
0.606956
0.67221
0.602569
0.531997
0.488393
0.473474
0.466914
0.462258
0.457427
0.453018
0.449586
0.447411
0.446112
0.445369
0.44498
0.444806
0.444721
0.444688
0.444712
0.444839
0.445157
0.445837
0.447083
0.449212
0.452589
0.456976
0.46185
0.466572
0.473089
0.487338
0.528411
0.599773
0.528288
0.481519
0.468641
0.46171
0.456417
0.451695
0.447575
0.444784
0.443435
0.443196
0.443337
0.443732
0.444033
0.444197
0.444265
0.444255
0.444164
0.443961
0.443638
0.443206
0.443021
0.443223
0.44454
0.447306
0.451417
0.456206
0.461539
0.468086
0.479476
0.524486
0.487762
0.462926
0.457567
0.453103
0.44874
0.445091
0.44279
0.442047
0.442413
0.44317
0.444058
0.444894
0.445503
0.445897
0.446074
0.446065
0.445868
0.445443
0.444808
0.443937
0.442998
0.442209
0.44182
0.442581
0.444907
0.44863
0.453024
0.457216
0.462135
0.48748
0.487649
0.457449
0.449897
0.44632
0.443376
0.441475
0.441306
0.441927
0.443117
0.444629
0.446448
0.447889
0.448674
0.44918
0.449364
0.449353
0.449143
0.448617
0.447805
0.446342
0.44449
0.442907
0.441661
0.440997
0.44129
0.443297
0.446322
0.449798
0.457272
0.487348
0.487524
0.45262
0.443818
0.441388
0.440185
0.440211
0.44131
0.443486
0.446133
0.449268
0.451069
0.452489
0.452301
0.452255
0.4521
0.452087
0.452199
0.452228
0.452385
0.451007
0.449212
0.445997
0.443221
0.441002
0.440085
0.440063
0.441422
0.44389
0.452648
0.487249
0.483022
0.446465
0.439037
0.438441
0.439067
0.440907
0.444328
0.450034
0.454547
0.461345
0.458645
0.458514
0.45563
0.454121
0.453296
0.453281
0.45406
0.455554
0.458397
0.458741
0.46149
0.454812
0.450063
0.444011
0.440479
0.438849
0.438432
0.439183
0.446581
0.482673
0.469919
0.440697
0.436676
0.437385
0.440079
0.445481
0.455288
0.467434
0.471753
0.484081
0.470519
0.465492
0.458639
0.454863
0.453186
0.45318
0.454831
0.458562
0.46539
0.470513
0.484266
0.473007
0.46873
0.455533
0.445058
0.43978
0.437328
0.436861
0.440907
0.469601
0.454909
0.437571
0.43666
0.438102
0.44492
0.459436
0.480115
0.4925
0.491769
0.497951
0.485275
0.471471
0.460405
0.454682
0.452663
0.45268
0.454676
0.460314
0.471175
0.483243
0.498191
0.493098
0.494492
0.482069
0.459465
0.44452
0.438001
0.436841
0.437814
0.455007
0.445158
0.436671
0.436648
0.442127
0.460097
0.488117
0.509768
0.505117
0.498285
0.49795
0.49807
0.474713
0.460161
0.453955
0.451837
0.451882
0.454008
0.460082
0.473912
0.497078
0.498192
0.498442
0.505087
0.511912
0.490162
0.459686
0.441885
0.436836
0.43686
0.445512
0.439254
0.436598
0.43831
0.457398
0.495186
0.521949
0.520132
0.503167
0.497073
0.497524
0.498071
0.474633
0.458823
0.452694
0.450909
0.450979
0.452828
0.458831
0.473922
0.498447
0.498023
0.497519
0.502936
0.519082
0.525121
0.496464
0.456422
0.438412
0.436757
0.439517
0.436574
0.436659
0.453352
0.490433
0.532948
0.535371
0.518304
0.502402
0.497072
0.497336
0.498069
0.471839
0.455819
0.451017
0.449861
0.449943
0.451222
0.455995
0.471374
0.498446
0.49845
0.497519
0.502107
0.517105
0.534869
0.534788
0.489664
0.453858
0.436855
0.436659
0.436637
0.452489
0.486768
0.513375
0.535371
0.535371
0.51758
0.503451
0.497531
0.497547
0.492057
0.462835
0.451434
0.448979
0.448502
0.44858
0.449213
0.451772
0.462831
0.49224
0.498449
0.498166
0.503508
0.51659
0.53487
0.534869
0.520954
0.487548
0.457822
0.436728
0.447933
0.493172
0.493379
0.499639
0.510507
0.52969
0.51468
0.50513
0.499618
0.489119
0.46961
0.451412
0.447187
0.446794
0.446814
0.446879
0.447004
0.447575
0.451793
0.47012
0.490969
0.501403
0.506594
0.514766
0.53388
0.524287
0.506814
0.486034
0.485899
0.447449
0.465009
0.493111
0.48406
0.466223
0.459525
0.509339
0.51072
0.498978
0.481821
0.463445
0.449051
0.444373
0.444423
0.444988
0.445233
0.445282
0.445147
0.444745
0.444828
0.449674
0.465299
0.485054
0.502597
0.513781
0.520234
0.479544
0.468079
0.482144
0.486001
0.463301
0.484577
0.493168
0.470086
0.450424
0.459219
0.491438
0.48891
0.469995
0.453924
0.4444
0.441556
0.442304
0.443533
0.444164
0.444432
0.444465
0.444269
0.443732
0.442627
0.441988
0.44526
0.456121
0.474238
0.496111
0.502019
0.456912
0.450847
0.473395
0.485937
0.482225
0.486479
0.486178
0.454495
0.450375
0.468901
0.471421
0.458103
0.445639
0.440178
0.440181
0.44129
0.442718
0.443779
0.444298
0.444537
0.444566
0.444387
0.44394
0.442968
0.441563
0.440717
0.440898
0.447357
0.462314
0.479384
0.471829
0.450332
0.456475
0.484772
0.487075
0.486473
0.46448
0.446518
0.450224
0.464401
0.449942
0.440667
0.438312
0.438911
0.440459
0.44262
0.443977
0.444642
0.444955
0.445109
0.445128
0.445015
0.444745
0.444136
0.442841
0.440718
0.439193
0.43873
0.441679
0.452911
0.469014
0.450155
0.446845
0.466132
0.487071
0.484055
0.450841
0.44365
0.447947
0.448343
0.438418
0.437828
0.438298
0.441116
0.443841
0.44552
0.446052
0.446124
0.446094
0.446073
0.446075
0.446103
0.446156
0.446127
0.445717
0.444002
0.441483
0.43871
0.438484
0.439208
0.451509
0.448913
0.443906
0.451008
0.483831
0.47763
0.444401
0.439759
0.44094
0.437693
0.437592
0.437864
0.442753
0.448481
0.449965
0.449906
0.448759
0.447869
0.447279
0.446975
0.446941
0.447185
0.447777
0.448686
0.450074
0.450375
0.449325
0.443456
0.438514
0.4384
0.43862
0.442191
0.440221
0.444184
0.476935
0.466124
0.439361
0.43626
0.43639
0.436387
0.437646
0.448117
0.458749
0.465996
0.460105
0.455984
0.451933
0.449464
0.448082
0.447399
0.447275
0.447771
0.449057
0.451503
0.456008
0.460795
0.467974
0.46043
0.449557
0.438488
0.437073
0.43708
0.436792
0.439322
0.465575
0.453102
0.436521
0.436223
0.43623
0.437877
0.451568
0.481884
0.485802
0.486844
0.473026
0.462263
0.454665
0.45041
0.448228
0.447301
0.447114
0.447645
0.449328
0.453532
0.461731
0.473691
0.487966
0.487428
0.484827
0.453826
0.438932
0.436772
0.436754
0.436815
0.45283
0.44464
0.43625
0.436222
0.436405
0.451875
0.492804
0.502342
0.497237
0.493496
0.483531
0.465591
0.455124
0.450258
0.447998
0.446974
0.446697
0.447162
0.448845
0.45326
0.463676
0.484635
0.49311
0.495707
0.501462
0.496281
0.45441
0.437468
0.436762
0.436779
0.444545
0.439935
0.43624
0.436269
0.446219
0.496324
0.516639
0.502353
0.49512
0.492622
0.485332
0.464734
0.454198
0.449513
0.447416
0.446432
0.446099
0.446373
0.447671
0.451617
0.462252
0.48559
0.492212
0.494051
0.501458
0.51497
0.500016
0.449077
0.436809
0.436774
0.43981
0.437201
0.43627
0.439917
0.478949
0.516848
0.516645
0.502132
0.493935
0.489632
0.482517
0.461336
0.451956
0.448242
0.446587
0.445753
0.44541
0.445488
0.446198
0.448754
0.457409
0.481211
0.488316
0.492613
0.501978
0.514972
0.517287
0.487205
0.442626
0.436801
0.436892
0.437104
0.437363
0.460777
0.516815
0.516833
0.516682
0.502991
0.491223
0.484166
0.47293
0.45561
0.449265
0.446837
0.445643
0.444968
0.444643
0.444594
0.44484
0.445923
0.450495
0.467021
0.480661
0.489244
0.501231
0.515884
0.517291
0.517281
0.469222
0.439845
0.436903
0.437758
0.453291
0.498528
0.51683
0.516832
0.516743
0.500626
0.485933
0.472732
0.460173
0.450333
0.446956
0.44549
0.444624
0.444083
0.443787
0.443672
0.443669
0.44384
0.445172
0.451726
0.463219
0.479222
0.497124
0.51247
0.515719
0.514718
0.499769
0.465193
0.439963
0.449838
0.483285
0.503778
0.514254
0.51436
0.513923
0.491785
0.471668
0.458749
0.451046
0.446796
0.445139
0.444194
0.443539
0.44311
0.442859
0.442723
0.442621
0.442443
0.442266
0.443345
0.447275
0.456963
0.474808
0.502389
0.506619
0.498144
0.489625
0.502191
0.45558
0.464957
0.50527
0.485037
0.506929
0.510873
0.49542
0.468956
0.45535
0.44934
0.446301
0.444551
0.443605
0.44291
0.442406
0.442083
0.441897
0.44179
0.441695
0.441501
0.441045
0.440451
0.440172
0.441857
0.448666
0.463997
0.475914
0.488116
0.481036
0.502224
0.4758
0.479718
0.505294
0.484977
0.495818
0.481584
0.462176
0.450168
0.446383
0.444967
0.443854
0.442895
0.442179
0.441622
0.441248
0.441037
0.440943
0.440922
0.440934
0.440914
0.440789
0.440484
0.439597
0.4379
0.437537
0.441004
0.447556
0.459047
0.470944
0.502215
0.494533
0.496685
0.503723
0.473315
0.462199
0.451274
0.445078
0.443933
0.443704
0.443127
0.442243
0.441405
0.440762
0.440323
0.440083
0.439998
0.440022
0.440134
0.440329
0.440597
0.440934
0.441186
0.44102
0.439489
0.437504
0.437386
0.437412
0.440424
0.448883
0.475005
0.492667
0.494558
0.472127
0.449477
0.444639
0.444616
0.444596
0.444254
0.443291
0.441913
0.440731
0.439851
0.439292
0.439006
0.438921
0.43897
0.439116
0.439368
0.439772
0.440403
0.441388
0.442963
0.444738
0.445076
0.442467
0.437418
0.437362
0.437371
0.437423
0.447343
0.477485
0.474343
0.446122
0.444655
0.444637
0.446178
0.447969
0.445447
0.442767
0.440437
0.438928
0.438102
0.437749
0.437683
0.437771
0.437937
0.438161
0.438484
0.439014
0.439956
0.441727
0.445312
0.451183
0.457211
0.462029
0.447443
0.437517
0.437358
0.437359
0.437448
0.459594
0.454443
0.444687
0.444666
0.450897
0.458221
0.453731
0.446178
0.441292
0.438152
0.436674
0.43621
0.43623
0.436431
0.436676
0.436904
0.437114
0.437356
0.437763
0.438642
0.440628
0.445123
0.456767
0.470992
0.483077
0.481782
0.45349
0.437431
0.437357
0.437384
0.445432
0.444774
0.444693
0.447952
0.486856
0.471217
0.454997
0.443915
0.437862
0.435062
0.434323
0.434527
0.435005
0.435458
0.435798
0.436008
0.436098
0.4361
0.436099
0.436366
0.437492
0.441321
0.45309
0.472739
0.483055
0.499343
0.499214
0.454208
0.43739
0.437364
0.438838
0.444782
0.44927
0.485507
0.491552
0.470248
0.450051
0.438116
0.433513
0.432315
0.432727
0.433611
0.434455
0.435058
0.435426
0.435577
0.435523
0.43527
0.434836
0.434332
0.434025
0.435277
0.442224
0.46222
0.477838
0.495724
0.502839
0.502698
0.446063
0.437426
0.437376
0.44548
0.491457
0.491571
0.491542
0.461345
0.43981
0.432259
0.430578
0.431088
0.432427
0.433717
0.434664
0.435306
0.435684
0.43582
0.435723
0.435393
0.434805
0.433775
0.43242
0.431464
0.433208
0.442693
0.458938
0.484666
0.50168
0.502824
0.486547
0.448567
0.437429
0.463856
0.49155
0.487627
0.47828
0.444211
0.431658
0.429162
0.429798
0.431282
0.432909
0.434378
0.435456
0.43616
0.436553
0.436675
0.436544
0.436155
0.435476
0.434422
0.432881
0.431002
0.429996
0.431696
0.439048
0.457587
0.488333
0.502773
0.502806
0.501725
0.44509
0.485286
0.491531
0.471376
0.450229
0.432223
0.428066
0.428646
0.430179
0.432082
0.434097
0.435826
0.437027
0.437752
0.438117
0.43821
0.438083
0.437732
0.437103
0.4361
0.434469
0.432113
0.429955
0.429316
0.430186
0.436437
0.456184
0.490145
0.500355
0.501776
0.471477
0.487969
0.476922
0.448893
0.433186
0.427709
0.427774
0.429092
0.431061
0.43359
0.436195
0.438224
0.439391
0.439943
0.440122
0.440117
0.44002
0.439832
0.439472
0.438767
0.437344
0.434733
0.431496
0.429283
0.428778
0.42882
0.434733
0.45485
0.480463
0.501753
0.495029
0.480427
0.451824
0.433851
0.427944
0.427621
0.428171
0.429955
0.432796
0.436503
0.439885
0.441927
0.442492
0.442411
0.442105
0.441854
0.441779
0.441865
0.442059
0.442133
0.441617
0.439298
0.435178
0.431107
0.428775
0.428582
0.428634
0.433719
0.450295
0.479011
0.492501
0.46654
0.436424
0.42806
0.427599
0.427619
0.428808
0.431998
0.437317
0.443662
0.446965
0.447825
0.446448
0.444915
0.4437
0.442986
0.442841
0.443263
0.444337
0.445896
0.447689
0.447195
0.443692
0.436364
0.43091
0.428598
0.428571
0.428613
0.433092
0.449572
0.478819
0.449268
0.430546
0.42759
0.427605
0.427737
0.431049
0.439
0.451303
0.462472
0.460345
0.457377
0.451528
0.44736
0.444756
0.443387
0.442952
0.443638
0.445772
0.449652
0.456182
0.460588
0.464609
0.451135
0.438775
0.430448
0.428578
0.428568
0.428607
0.43468
0.462239
0.437554
0.428201
0.427602
0.427584
0.429779
0.439678
0.463093
0.484194
0.490826
0.477673
0.469193
0.456735
0.449133
0.445072
0.443244
0.442664
0.443251
0.445636
0.451976
0.464934
0.477451
0.493316
0.48215
0.464567
0.440486
0.42963
0.428559
0.428572
0.429665
0.44465
0.432262
0.427628
0.427572
0.427877
0.43809
0.470344
0.506741
0.508681
0.505172
0.492625
0.478763
0.459109
0.44902
0.44468
0.442747
0.442006
0.442257
0.444388
0.45092
0.466822
0.493623
0.508419
0.503882
0.505583
0.474522
0.440495
0.428628
0.428547
0.428601
0.434252
0.429282
0.427581
0.427656
0.435076
0.467433
0.520401
0.520446
0.508673
0.507799
0.504444
0.479229
0.457745
0.447467
0.443453
0.441821
0.441085
0.440895
0.441987
0.447192
0.464116
0.497085
0.508415
0.508399
0.514675
0.519562
0.479823
0.438622
0.428632
0.428556
0.429772
0.42759
0.42765
0.4328
0.45925
0.521323
0.531487
0.518103
0.509687
0.509612
0.507037
0.475738
0.452182
0.443933
0.441425
0.440517
0.439992
0.439528
0.439408
0.441708
0.454062
0.491174
0.504689
0.508265
0.515348
0.526539
0.526521
0.479027
0.437001
0.428655
0.428573
0.427645
0.433031
0.455698
0.506655
0.531487
0.531488
0.517887
0.510393
0.508143
0.499949
0.460717
0.443592
0.439864
0.439245
0.439109
0.438883
0.438412
0.437603
0.437309
0.441682
0.464305
0.491088
0.505339
0.511196
0.5262
0.526558
0.525005
0.476105
0.437297
0.428644
0.432492
0.461557
0.493976
0.527543
0.530692
0.528513
0.513609
0.509852
0.496111
0.467581
0.442852
0.437278
0.437206
0.437834
0.438176
0.438189
0.437864
0.437007
0.435524
0.435066
0.440756
0.458098
0.481698
0.504364
0.516948
0.517098
0.521498
0.493555
0.477122
0.436176
0.449676
0.492015
0.487599
0.507581
0.509516
0.5176
0.505679
0.484657
0.459202
0.440373
0.434596
0.43512
0.436772
0.437791
0.438229
0.438314
0.438058
0.437337
0.435875
0.433973
0.433207
0.437137
0.44904
0.467823
0.487777
0.504115
0.500929
0.480857
0.49383
0.457297
0.469573
0.492043
0.479179
0.483802
0.484901
0.480167
0.466593
0.448339
0.436152
0.432854
0.433697
0.435776
0.437475
0.43841
0.438901
0.439076
0.438935
0.438418
0.437217
0.4351
0.433111
0.432446
0.434044
0.44099
0.453273
0.46936
0.479844
0.480777
0.493872
0.483168
0.49072
0.49205
0.476824
0.464214
0.457468
0.449074
0.43923
0.432814
0.432328
0.432789
0.435281
0.437753
0.439176
0.439924
0.440376
0.440615
0.440646
0.440424
0.439679
0.437809
0.434847
0.432405
0.43222
0.432415
0.436463
0.445182
0.456477
0.469175
0.489507
0.489947
0.492361
0.480264
0.460782
0.447886
0.440846
0.43487
0.431955
0.431925
0.432295
0.435482
0.439
0.440901
0.441629
0.441966
0.442225
0.44251
0.442847
0.443205
0.443311
0.442509
0.439461
0.435118
0.432251
0.432188
0.432217
0.434709
0.441061
0.452321
0.468911
0.489333
0.486178
0.459942
0.445195
0.437151
0.433212
0.431911
0.431906
0.432557
0.43706
0.442296
0.444943
0.44488
0.444303
0.443867
0.443741
0.444071
0.444938
0.446387
0.448245
0.450152
0.449156
0.444404
0.43628
0.432229
0.432172
0.432189
0.433889
0.439638
0.452182
0.482533
0.476795
0.445861
0.43568
0.432244
0.431889
0.431894
0.43292
0.440772
0.452231
0.455112
0.453565
0.449628
0.446699
0.445061
0.444397
0.44475
0.446271
0.449271
0.454348
0.462049
0.466826
0.469163
0.453138
0.438036
0.432221
0.432158
0.432159
0.433402
0.441295
0.471611
0.464157
0.437405
0.431918
0.431881
0.431883
0.432984
0.444755
0.468139
0.482001
0.473215
0.463858
0.454083
0.448092
0.445158
0.444245
0.444563
0.446232
0.450465
0.459596
0.474878
0.485831
0.496245
0.489885
0.464522
0.437954
0.432188
0.43215
0.432131
0.43537
0.456672
0.449867
0.433297
0.431886
0.431876
0.432188
0.446424
0.483675
0.502404
0.503035
0.490758
0.470506
0.454662
0.447634
0.444655
0.443659
0.443881
0.445428
0.449505
0.458985
0.477371
0.498454
0.506842
0.511748
0.51248
0.464232
0.435783
0.432131
0.432146
0.432912
0.444882
0.4405
0.431928
0.431873
0.431938
0.442533
0.490372
0.519665
0.513208
0.507314
0.492901
0.46875
0.452495
0.445739
0.443325
0.442574
0.442679
0.443699
0.446749
0.455271
0.474911
0.499421
0.510413
0.515287
0.518092
0.516153
0.453632
0.433088
0.432111
0.432177
0.438498
0.435383
0.431891
0.431898
0.43679
0.473669
0.519663
0.519679
0.5183
0.505516
0.489628
0.461302
0.447062
0.44264
0.441388
0.441056
0.441083
0.441492
0.442993
0.44826
0.465672
0.496023
0.509287
0.518013
0.518097
0.518092
0.49666
0.444139
0.43221
0.43212
0.434686
0.432572
0.431905
0.43291
0.455859
0.517757
0.518609
0.520742
0.518556
0.49928
0.475162
0.448993
0.441219
0.439548
0.439387
0.439427
0.439419
0.439369
0.43958
0.441531
0.450832
0.480029
0.503482
0.518407
0.518488
0.517739
0.517706
0.469655
0.437883
0.432213
0.432263
0.43214
0.432152
0.447101
0.494532
0.518489
0.520336
0.520742
0.512798
0.482253
0.451993
0.439571
0.437378
0.437571
0.438133
0.43847
0.438446
0.438073
0.437498
0.437351
0.439913
0.453792
0.485342
0.513757
0.518488
0.517687
0.510962
0.504602
0.455962
0.435919
0.432292
0.432526
0.444001
0.475035
0.512282
0.512312
0.520358
0.517593
0.49066
0.453391
0.43823
0.435672
0.43611
0.437445
0.43847
0.439061
0.439029
0.438396
0.437347
0.436013
0.435709
0.438439
0.454379
0.491625
0.515879
0.517699
0.508195
0.50493
0.479037
0.45038
0.43579
0.441661
0.465417
0.48981
0.507741
0.51483
0.51888
0.495087
0.45457
0.437192
0.43565
0.435629
0.436749
0.439182
0.4414
0.442711
0.442662
0.441284
0.439063
0.436634
0.435665
0.435685
0.437239
0.454616
0.493227
0.515997
0.511899
0.500631
0.486243
0.469833
0.446471
0.464344
0.502042
0.495434
0.511127
0.514779
0.496848
0.455591
0.436571
0.435641
0.435621
0.436071
0.440771
0.446347
0.450985
0.453693
0.45363
0.45077
0.446172
0.440653
0.435993
0.435657
0.435674
0.436455
0.454402
0.493581
0.51195
0.507029
0.490859
0.502736
0.468164
0.516946
0.53723
0.519232
0.51507
0.498004
0.456804
0.436549
0.435639
0.435619
0.435684
0.442492
0.453505
0.463549
0.46943
0.47271
0.472669
0.469061
0.46319
0.453415
0.442494
0.435718
0.435655
0.435669
0.436273
0.454814
0.493998
0.511091
0.515574
0.533909
0.519276
0.542618
0.542637
0.537755
0.502442
0.459514
0.437129
0.435641
0.435619
0.435688
0.443578
0.46123
0.47564
0.483488
0.486357
0.488104
0.488103
0.485948
0.482891
0.475457
0.461492
0.44389
0.435723
0.435655
0.43567
0.43667
0.456635
0.497493
0.532382
0.538796
0.538789
0.542617
0.542618
0.519194
0.464944
0.438414
0.43565
0.435619
0.435685
0.443719
0.466635
0.485675
0.489995
0.491298
0.491103
0.490952
0.490982
0.49137
0.491482
0.490058
0.485482
0.467619
0.444413
0.435723
0.435655
0.435677
0.437726
0.461183
0.512405
0.537768
0.538788
0.542602
0.519275
0.471612
0.440619
0.435662
0.435616
0.435678
0.442738
0.468876
0.491766
0.491798
0.491771
0.491396
0.491087
0.49076
0.49079
0.491455
0.491873
0.492246
0.492655
0.492636
0.470791
0.443667
0.435715
0.435657
0.435694
0.439624
0.466735
0.512276
0.538781
0.523436
0.473553
0.442817
0.435676
0.435609
0.435662
0.440638
0.468938
0.49746
0.495181
0.491471
0.491664
0.491269
0.490943
0.490579
0.490602
0.491344
0.491803
0.49223
0.492137
0.495757
0.498979
0.471503
0.441543
0.435706
0.435658
0.435717
0.441573
0.46876
0.517545
0.483638
0.446732
0.436184
0.435615
0.435639
0.438342
0.461302
0.504016
0.502119
0.494945
0.490343
0.491125
0.490541
0.490179
0.490219
0.490232
0.490498
0.491073
0.491811
0.490951
0.495436
0.501854
0.506364
0.46337
0.439011
0.435694
0.435663
0.436013
0.445402
0.479247
0.456409
0.439318
0.435633
0.435628
0.436559
0.452708
0.489181
0.510056
0.50719
0.496641
0.489797
0.489544
0.488174
0.487328
0.487724
0.487709
0.487427
0.488461
0.490037
0.490104
0.496462
0.506131
0.509413
0.490902
0.454033
0.43689
0.435681
0.435679
0.439019
0.454909
0.446114
0.436839
0.435632
0.435652
0.444661
0.466749
0.497561
0.510062
0.517555
0.502544
0.490598
0.487037
0.484493
0.483261
0.483118
0.483088
0.483199
0.484436
0.486849
0.490096
0.501088
0.516254
0.509431
0.497046
0.467319
0.445434
0.435694
0.435683
0.436748
0.445503
0.440473
0.43566
0.435647
0.439176
0.456414
0.469389
0.48993
0.513736
0.524204
0.50972
0.49277
0.484759
0.482359
0.482138
0.482141
0.482142
0.482141
0.482318
0.483866
0.49095
0.507603
0.522879
0.512998
0.48898
0.468981
0.457346
0.439611
0.435695
0.435704
0.440156
0.437027
0.435654
0.435971
0.445919
0.466221
0.46657
0.48058
0.515068
0.524241
0.511453
0.494697
0.484043
0.482125
0.482112
0.482118
0.482118
0.482115
0.482127
0.482986
0.492845
0.51005
0.52292
0.514476
0.480073
0.466042
0.465897
0.446389
0.436181
0.435701
0.436926
0.435661
0.435684
0.440449
0.453958
0.466243
0.464967
0.481374
0.514774
0.523006
0.509587
0.495767
0.485768
0.482112
0.482115
0.482111
0.482113
0.482115
0.482114
0.485222
0.495287
0.509044
0.522372
0.514519
0.481384
0.464727
0.465891
0.45407
0.440733
0.43573
0.435707
0.435668
0.437679
0.448062
0.463256
0.464957
0.464984
0.484556
0.508814
0.51433
0.504394
0.497139
0.49296
0.485931
0.482691
0.482102
0.482099
0.482739
0.485828
0.493994
0.498456
0.505597
0.515168
0.509772
0.485517
0.464743
0.464716
0.462795
0.448113
0.437888
0.435715
0.435941
0.447325
0.458159
0.470748
0.466878
0.471814
0.486946
0.497846
0.501716
0.50116
0.500885
0.504528
0.502924
0.497662
0.494076
0.494391
0.498166
0.503722
0.50689
0.503689
0.503739
0.503811
0.49996
0.488536
0.472984
0.467226
0.470531
0.457976
0.447381
0.436092
0.450152
0.462765
0.47546
0.488299
0.48897
0.502461
0.496914
0.497371
0.497608
0.501619
0.509237
0.514934
0.514809
0.511751
0.509074
0.509313
0.512352
0.515977
0.517054
0.512209
0.503922
0.499831
0.499102
0.498366
0.503647
0.490243
0.489101
0.475331
0.462294
0.450121
0.514307
0.501768
0.501764
0.522944
0.539601
0.552515
0.533305
0.510467
0.507005
0.512842
0.520062
0.52025
0.516441
0.513085
0.510748
0.510879
0.513515
0.517301
0.521451
0.521927
0.514804
0.508608
0.511594
0.533895
0.553374
0.54104
0.524187
0.502097
0.500984
0.513316
0.619809
0.555394
0.539781
0.558461
0.576818
0.579379
0.574679
0.549239
0.53496
0.531708
0.527619
0.520642
0.514584
0.509934
0.507478
0.507538
0.510144
0.51508
0.521404
0.5283
0.532376
0.53537
0.549149
0.575436
0.580683
0.578133
0.559549
0.540102
0.554691
0.619623
0.619863
0.599718
0.571854
0.574588
0.579201
0.579182
0.579247
0.57734
0.561553
0.544792
0.529025
0.51811
0.50882
0.502949
0.500565
0.50056
0.502935
0.508818
0.518281
0.529189
0.544716
0.561474
0.578166
0.580553
0.580484
0.580506
0.575572
0.572035
0.599439
0.619731
0.619863
0.615199
0.584326
0.578377
0.579168
0.579223
0.579184
0.579224
0.567772
0.545364
0.525847
0.510903
0.500965
0.495909
0.494125
0.494107
0.495846
0.500786
0.510624
0.525748
0.545229
0.567853
0.58053
0.580486
0.580529
0.580474
0.579395
0.584579
0.615266
0.619731
0.619863
0.60154
0.572483
0.569323
0.577833
0.579168
0.579224
0.576904
0.561589
0.537734
0.515888
0.501372
0.494075
0.490798
0.489661
0.489652
0.490762
0.493955
0.501094
0.515618
0.537669
0.561876
0.57814
0.580529
0.580474
0.579328
0.570523
0.572933
0.60193
0.619731
0.610752
0.547208
0.52669
0.532113
0.558645
0.570962
0.570892
0.559952
0.541301