/*--------------------------------*- C++ -*----------------------------------*\
| =========                 |                                                 |
| \\      /  F ield         | OpenFOAM: The Open Source CFD Toolbox           |
|  \\    /   O peration     | Version:  v1606+                                |
|   \\  /    A nd           | Web:      www.OpenFOAM.com                      |
|    \\/     M anipulation  |                                                 |
\*---------------------------------------------------------------------------*/
FoamFile
{
    version     2.0;
    format      ascii;
    class       surfaceVectorField;
    location    "1.7";
    object      ddt0(Uf);
}
// * * * * * * * * * * * * * * * * * * * * * * * * * * * * * * * * * * * * * //

dimensions      [0 1 -2 0 0 0 0];

internalField   nonuniform List<vector> 
33146
(
(0.0225058492079 0.0119900638736 -0.0148059547469)
(0.0120711110872 0.0225627384379 -0.0147096103744)
(0.0112464936671 0.0112031509524 -0.0300559424366)
(0.0432462318352 0.0130826108686 -0.0147511419927)
(0.0339669582145 0.0238889280389 -0.014060520367)
(0.0328869659221 0.011917631539 -0.0297652428065)
(0.0620888095661 0.0140214319469 -0.0145010262878)
(0.0534636142124 0.0250271304554 -0.0137093576509)
(0.052826118727 0.0127503082721 -0.0292594820908)
(0.0784395441265 0.0149650978728 -0.0140609952602)
(0.0709966218665 0.0263589851552 -0.0133257760166)
(0.0705090675922 0.0136438070395 -0.0284847665327)
(0.0913242151035 0.0159911442073 -0.0134205105327)
(0.0856623488262 0.0279329303134 -0.0127830356982)
(0.085202416288 0.0146573125541 -0.0272209554256)
(0.100060991882 0.0171490473983 -0.012631590105)
(0.096555244487 0.0298082743376 -0.0121020171111)
(0.0961051276543 0.0158353873691 -0.0257326499766)
(0.104151929267 0.0183238877949 -0.011817307259)
(0.102938818838 0.031862985467 -0.0114075327845)
(0.102600823328 0.0171803068898 -0.0240656988818)
(0.103976692501 0.0194066912628 -0.0110503299519)
(0.104715012434 0.0333967805181 -0.0107978990642)
(0.104543929976 0.0184225798323 -0.0222984574944)
(0.100276076245 0.0205450196819 -0.010315203668)
(0.102736775309 0.0339683291734 -0.0104137714264)
(0.1025339716 0.0195461074049 -0.0203604573317)
(0.0971452126699 0.0204560323178 -0.0100608161948)
(0.0980565114847 0.0284644808803 -0.0104615346926)
(0.0988219337024 0.0207317168632 -0.0170377780142)
(0.091104182656 0.0187338360213 -0.00982906076702)
(0.0918059074821 0.0369021219257 -0.00975519768084)
(0.0942441345924 0.0200677243592 -0.0208570162637)
(0.0839750635956 0.0170254713706 -0.00886260987186)
(0.0852800592612 0.0352207682616 -0.00881404887214)
(0.0881556301512 0.0184823655074 -0.0190326147628)
(0.0752089525059 0.0159715592926 -0.00797785479576)
(0.0780850228721 0.0325647239271 -0.00824791027454)
(0.0801887158748 0.0169240943236 -0.0161662035317)
(0.0661768217067 0.0153615371684 -0.00756186069032)
(0.0697117176981 0.0310547877973 -0.00807551152348)
(0.0709681740748 0.0162429788324 -0.0149638439922)
(0.0568612765752 0.0149761086243 -0.00729351452918)
(0.0608032726003 0.0300494277344 -0.00798193845855)
(0.0616374457537 0.0158733626423 -0.0140187199902)
(0.0469138444339 0.0147927747005 -0.00707105885926)
(0.0514060791786 0.0296622450403 -0.00788856288561)
(0.051974864001 0.0157520422638 -0.0132224936377)
(0.0362698518295 0.0148252059684 -0.00690716677111)
(0.0413773532957 0.0296639051989 -0.00777882383001)
(0.0416541497552 0.0157685035126 -0.0126958350401)
(0.0248893357897 0.0151386657305 -0.00688079468994)
(0.0307535267985 0.0300140079524 -0.0076572441617)
(0.0305467218929 0.0159197430553 -0.0124334695213)
(0.0128477049216 0.0156742007033 -0.00696298900826)
(0.0194394549397 0.0308887003671 -0.0074593245973)
(0.0188356259957 0.0162683833574 -0.0125775734547)
(0.00692727916437 0.0319619337036 -0.00663382338891)
(0.00644547656599 0.0164367988783 -0.0127536105059)
(0.0237920101116 0.0337411587152 -0.0139641759945)
(0.0131458509119 0.042815495967 -0.0144645759196)
(0.0120665180749 0.032802478683 -0.0293753313684)
(0.0448485978547 0.0356528952528 -0.013019679156)
(0.0358734585103 0.044390777154 -0.0129355619679)
(0.0343373653249 0.0341080579424 -0.0277195668979)
(0.0636273256368 0.0376210689684 -0.0125411618996)
(0.0552782667008 0.0462147458431 -0.0122008523942)
(0.0539535458003 0.0357625319247 -0.0266388690472)
(0.0800160209449 0.0399635412049 -0.012065382836)
(0.0731482404288 0.0486666355981 -0.011682738874)
(0.0716613190505 0.0377781537998 -0.0257385251608)
(0.0930341268229 0.0429056186106 -0.0114800105513)
(0.0882742360993 0.0520410976233 -0.0110968065959)
(0.0864891427659 0.0403350641859 -0.0246438725878)
(0.101778137019 0.0463537700339 -0.0108690333852)
(0.0994664588026 0.0563939385555 -0.0104925211335)
(0.0974775434708 0.0435477541434 -0.0234906881475)
(0.105598230751 0.0496976841728 -0.0103341185915)
(0.105648127662 0.0613078680759 -0.00986971622187)
(0.103817534608 0.0471809571463 -0.022301710119)
(0.105119085054 0.0522258424387 -0.0100430305723)
(0.106577953188 0.064793816934 -0.00943198046814)
(0.105411786451 0.0504259936434 -0.0209769914251)
(0.101853611003 0.0536182492015 -0.0102108982292)
(0.103463285083 0.0664502700444 -0.00927357593664)
(0.103295666796 0.052602410051 -0.0200460878143)
(0.0934924376752 0.0532436575277 -0.00989504475842)
(0.0970336621574 0.0652680447534 -0.00961887645873)
(0.0978228107454 0.0535855405623 -0.0197693302283)
(0.0862339240979 0.0513126384511 -0.00879843126533)
(0.08932789328 0.064052846252 -0.00921241333029)
(0.0906002326384 0.0524275379355 -0.0137879481046)
(0.080562324187 0.0490035807134 -0.00825577793867)
(0.0824411367959 0.0649407208678 -0.00899795996356)
(0.0838122708702 0.0498734386705 -0.01692979044)
(0.0731907833577 0.0472160067797 -0.00834872332882)
(0.0757895431639 0.062769128578 -0.00793768100523)
(0.0768729784864 0.0483017433191 -0.0163507781008)
(0.0648704025629 0.0462125382512 -0.00847040010232)
(0.0682223271847 0.0616040861227 -0.008062174638)
(0.0690169673599 0.0471925628789 -0.0160488647145)
(0.0559452593514 0.0456932384294 -0.00855610970886)
(0.0598376514763 0.0607327430097 -0.00824565046662)
(0.0603791253666 0.0466399461984 -0.0156187742507)
(0.0463732072583 0.0455871383872 -0.0085868402199)
(0.0509295073849 0.0607181381986 -0.0082755017471)
(0.0511181188738 0.0466398814038 -0.0150775230592)
(0.0362958303116 0.0458292597115 -0.00852580380315)
(0.0413240354206 0.0611729549227 -0.00821392745197)
(0.0411844930852 0.0469891442223 -0.0146105999928)
(0.0256086968732 0.0464512622755 -0.00823533460748)
(0.0311609723173 0.0618281115196 -0.00805392251605)
(0.0306493643155 0.0475538853301 -0.0141515503389)
(0.0140947616693 0.0473086983724 -0.00713015897795)
(0.0202859885813 0.0625803589586 -0.0075149902496)
(0.0193402420549 0.0482592403702 -0.0134651414032)
(0.0073695562055 0.0632477406226 -0.00558174595946)
(0.00663464843625 0.0484640571038 -0.0114716423741)
(0.0247475348129 0.0524419723866 -0.0134357915828)
(0.0139778503358 0.0607819348279 -0.013975284076)
(0.0129164862414 0.0520783153275 -0.0284882699067)
(0.0467452120908 0.0539903590679 -0.0121209208957)
(0.0376270799446 0.0618354019119 -0.0122855223837)
(0.0360449639244 0.0529688194619 -0.0262812025824)
(0.0663263447419 0.0563604933707 -0.0113671282579)
(0.0576453186083 0.0639881112688 -0.0112501153975)
(0.0560415662159 0.0546474111517 -0.0246950532624)
(0.0834066421103 0.060088354777 -0.010764988051)
(0.0765321620463 0.0677237326752 -0.0105536989514)
(0.0744138629359 0.0573016623572 -0.0234960400939)
(0.0969430458156 0.065326433918 -0.0101548156738)
(0.0926104142956 0.0735746434962 -0.00991475945425)
(0.0898610815926 0.061296515361 -0.0224288917527)
(0.105582498486 0.0714642160399 -0.00951240119835)
(0.104404671195 0.0813347131447 -0.00923716782123)
(0.101226093122 0.0666227449309 -0.0214243850286)
(0.108875477422 0.0771786654951 -0.00888398198688)
(0.110369894804 0.089231167026 -0.00852845686123)
(0.107370712891 0.0726663458233 -0.0202658479334)
(0.106435976272 0.0808641369289 -0.00841818988566)
(0.109650690999 0.0952121109835 -0.00788552437722)
(0.107732834875 0.0779849134798 -0.0187700100218)
(0.100590645162 0.0815748661905 -0.00823494822859)
(0.103868050081 0.0976111465121 -0.0073770317012)
(0.103505512683 0.0806422111296 -0.0175763998549)
(0.092861920596 0.0809435621947 -0.00828924195768)
(0.0961961874086 0.0961603095087 -0.00713304027854)
(0.0966234121202 0.0803610026646 -0.0166109694278)
(0.0855495328236 0.0811180146422 -0.0089526501698)
(0.0891068504328 0.0920885393269 -0.00765682533199)
(0.088754490333 0.0797499327974 -0.0150562735004)
(0.0783081536789 0.0794452838821 -0.00858057707173)
(0.0804731440645 0.093051336643 -0.00787570889772)
(0.0823543056482 0.0801885306341 -0.0154672201465)
(0.0717674212053 0.0765794130434 -0.00772969197203)
(0.072928848875 0.0894461736747 -0.00648057688317)
(0.075925441127 0.0771382000496 -0.0154936136688)
(0.063844267071 0.0754152635809 -0.00792474453411)
(0.0668281924407 0.0886567669861 -0.00686631111887)
(0.0678110831179 0.0755637695656 -0.0151011556224)
(0.0555162463481 0.0751293889536 -0.00802490973337)
(0.0592589571483 0.088120895762 -0.00723788663956)
(0.0596589390092 0.0750771424921 -0.0149987552131)
(0.0464613778855 0.0755052992423 -0.00793973366091)
(0.0510347875088 0.0885168180729 -0.00722763974332)
(0.0509700729448 0.0756412941468 -0.0143846567321)
(0.036660291464 0.0761198772859 -0.00775696374268)
(0.0417531198803 0.0894580363447 -0.00703861709533)
(0.0414377420468 0.0766303421186 -0.0134312156347)
(0.0262494169064 0.0767769660725 -0.0073366134041)
(0.0316958855997 0.0904409426606 -0.00672323203202)
(0.0310900295843 0.0776954050961 -0.0125360593178)
(0.0146766436724 0.0773010623758 -0.00596673074325)
(0.0209046266712 0.0911330804193 -0.00606736039702)
(0.0200049228218 0.0785145844395 -0.0113822060569)
(0.00764363967028 0.0911834069038 -0.00401929167209)
(0.0069247070018 0.0785160484809 -0.0088490108015)
(0.0258051938306 0.0685183095611 -0.0128261052772)
(0.0145828915494 0.075665249971 -0.0132024796593)
(0.0136609476002 0.0686227070755 -0.0271326426578)
(0.0488677476382 0.0699119952665 -0.0114521546772)
(0.0391940380253 0.0763446719234 -0.0116034042056)
(0.0378118969826 0.069091042432 -0.0248598962506)
(0.0696906163343 0.0731265810289 -0.0106014780305)
(0.0602417262862 0.0788322182586 -0.0103663911454)
(0.058719333941 0.0708430204574 -0.0229196360443)
(0.0880033532976 0.079077002737 -0.0100340726319)
(0.0803955861244 0.0842697808403 -0.00946929892566)
(0.07826068259 0.074369381058 -0.0214864114686)
(0.102249685517 0.0876993524726 -0.00944784442157)
(0.0976579587012 0.0937585387254 -0.00866278645755)
(0.0947904886818 0.0804048772441 -0.0205463171291)
(0.111576472483 0.0974879405587 -0.00875924830754)
(0.110501067364 0.105574924694 -0.0079232517914)
(0.106965097549 0.0886118314994 -0.0199152723978)
(0.113970533707 0.10615216922 -0.00793430806616)
(0.116632156688 0.117472798825 -0.00706626816603)
(0.113159720279 0.0978306026514 -0.0187653348127)
(0.108605067614 0.111062717314 -0.00711478227407)
(0.113590782546 0.125876259946 -0.00605457165774)
(0.111774684984 0.10591168576 -0.0164999848974)
(0.0997889113734 0.110446793908 -0.00672562205809)
(0.103171521 0.127863440861 -0.00557978135458)
(0.104566971604 0.108980556883 -0.014848944493)
(0.0922570706713 0.104302339453 -0.00727684248127)
(0.0904820883346 0.122723289799 -0.00556652962992)
(0.0960909356245 0.106581356709 -0.0138053091781)
(0.0867934519021 0.098693061705 -0.00807753496516)
(0.0844224120037 0.115000088904 -0.00371690492022)
(0.0894641220098 0.100070930489 -0.0138665695502)
(0.0726616992813 0.0984684877673 -0.00685818419575)
(0.0803006747008 0.11678986361 -0.00255898390374)
(0.0802378214966 0.0973001581626 -0.00901904688476)
(0.0694809977662 0.0992756406143 -0.00623557478989)
(0.0732935229269 0.105742122173 -0.00580712453926)
(0.0716830831563 0.0987554358222 -0.010504048794)
(0.0630170492743 0.0992466417757 -0.00669929754519)
(0.0664614598693 0.10926331447 -0.00492464662093)
(0.0660746388923 0.0983942689609 -0.0123873303035)
(0.0556269531276 0.099899424278 -0.00678267500906)
(0.0597157152199 0.109573328855 -0.00549496678135)
(0.0592444963851 0.0990086892951 -0.0124279921596)
(0.0469902128648 0.100997957353 -0.00652651707989)
(0.0520154521972 0.110986661231 -0.00550284071204)
(0.0513220796917 0.100383619416 -0.0118381299445)
(0.0372446874296 0.102037763487 -0.00610244682374)
(0.0427490835677 0.112435440261 -0.00511514854934)
(0.0420749519824 0.102095038845 -0.0106529487314)
(0.0267785126453 0.102846683399 -0.00548493782314)
(0.0325024479845 0.113640802113 -0.00462680695426)
(0.0317486023814 0.103631325334 -0.00936296926839)
(0.0149620565056 0.103131019894 -0.00412381217833)
(0.0213704250832 0.114594841473 -0.00390412839154)
(0.0205022290219 0.104602235472 -0.00796862650676)
(0.00776860045601 0.114427342698 -0.00209574380501)
(0.00714580814365 0.104347188959 -0.00553368782231)
(0.026500112222 0.0813884059298 -0.0119970856923)
(0.0149640935052 0.0869666861009 -0.0121859745593)
(0.0142761675798 0.0817998345157 -0.0251524413161)
(0.0507869326709 0.0828978616602 -0.0106531269698)
(0.0404679906767 0.0874454677474 -0.0107197126536)
(0.0395350180458 0.0819146969373 -0.0230036647837)
(0.0730455446445 0.0874779735741 -0.00966402497717)
(0.0624856123447 0.0904311718944 -0.00925621375064)
(0.0615762051527 0.0837442693947 -0.0207874090999)
(0.0925387289325 0.0966399722028 -0.00885875021524)
(0.0837826509159 0.0982586265472 -0.00785406314964)
(0.0823757779333 0.0884283593895 -0.0192963049613)
(0.10789998722 0.109663797943 -0.00802324281748)
(0.102455538758 0.112175023989 -0.00645004387273)
(0.100250033993 0.0971390501119 -0.0187166250949)
(0.118324029768 0.124069434387 -0.0070900268264)
(0.117699980626 0.127423873008 -0.00529680018843)
(0.114024202202 0.108687675688 -0.0179588122209)
(0.120515614846 0.137160838232 -0.00549503072996)
(0.125943603403 0.141938315766 -0.00452049415106)
(0.121103613671 0.121881519134 -0.0156060805662)
(0.11013103971 0.145379286039 -0.00343944956174)
(0.121129475593 0.152767770028 -0.00329913346628)
(0.117115696404 0.134365233379 -0.0107662073127)
(0.0941181062168 0.146375557467 -0.00173291576914)
(0.105347988976 0.155099081199 -0.00418724290891)
(0.103689227805 0.139232974426 -0.00776195542153)
(0.0769632114642 0.139838444099 0.00106590816201)
(0.086611192325 0.147702112947 -0.0072748382576)
(0.0878701151348 0.136645762195 -0.00465667145324)
(0.0824805802867 0.126289455037 -0.00104643639434)
(0.0741956328799 0.116401569527 -0.0200613278663)
(0.079989288042 0.126238593463 0.00141030903053)
(0.0817501580576 0.117061378804 -0.00441721537103)
(0.0725558341326 0.133644363973 -0.00761390480961)
(0.0807850185974 0.110224965905 -0.0111270998204)
(0.0702302913016 0.116407742093 -0.00430221492934)
(0.0725425867318 0.126413635003 -0.00258597316601)
(0.0758509247674 0.112094799968 -0.00895230665446)
(0.0639735712486 0.117485454557 -0.00452954380078)
(0.0676282556348 0.123966272547 -0.00203194251884)
(0.0668535408198 0.11397849551 -0.00866341742125)
(0.0572109112886 0.119399231073 -0.00464940668264)
(0.0618410165925 0.124065169281 -0.00349865962666)
(0.0603071399688 0.116901014234 -0.00776527190781)
(0.0484912487799 0.121089349817 -0.00438084308421)
(0.0540217454085 0.127474310782 -0.00304827365651)
(0.0525488092788 0.119825638412 -0.00779368681223)
(0.0383798614484 0.122378539756 -0.00383865296183)
(0.0444608099691 0.129726368041 -0.00247601701896)
(0.0433317845536 0.122126679729 -0.00666913772911)
(0.0273440511592 0.123327272193 -0.00313459316439)
(0.033781478648 0.131072619852 -0.00200158530246)
(0.0327475011814 0.124015144692 -0.00525306382987)
(0.0152685039125 0.123545088144 -0.0018960366886)
(0.021981011767 0.131906604592 -0.00131812371684)
(0.0211418355302 0.12514302209 -0.00378241629333)
(0.00788745628841 0.132077121046 6.87860062161e-05)
(0.00731959949383 0.124781255373 -0.00161957503038)
(0.0269322635859 0.0908378474242 -0.0109588812117)
(0.0151771546354 0.0947092786245 -0.0110600349926)
(0.0147699097 0.0913371042915 -0.0229428965062)
(0.0521966067313 0.0925893674996 -0.00958147543367)
(0.0412697872286 0.0950205325596 -0.00973568667093)
(0.0409549899031 0.091191075553 -0.0208813130813)
(0.0755131527206 0.0987383490494 -0.00818697461883)
(0.0638820873789 0.0984229726986 -0.00794765598501)
(0.0638333402408 0.0930604503013 -0.0183615995022)
(0.0961578157424 0.110982850425 -0.00695100382317)
(0.0859365081973 0.10852958779 -0.00584305104944)
(0.0857761860048 0.0990104074285 -0.0167890640626)
(0.113232116625 0.126742922304 -0.00586585578818)
(0.105871965227 0.124380929554 -0.00390166411473)
(0.105418366701 0.110050388044 -0.0153343756345)
(0.127808204017 0.143055019537 -0.00475025983027)
(0.125210838272 0.138051226153 -0.00187842150402)
(0.122722249595 0.123224813822 -0.0136951550697)
(0.133625022439 0.15900042968 -0.00247317427823)
(0.137807373507 0.151403460314 0.00202565873681)
(0.133764558783 0.139582011999 -0.0107395884927)
(0.118239134809 0.170110849934 6.38321608566e-05)
(0.131869917262 0.161111481812 0.0140792189312)
(0.1280739199 0.160134106568 -0.0031796995179)
(0.0983555185688 0.173436119929 -0.000372356910782)
(0.109455156625 0.162914283101 0.0192258300975)
(0.10848775956 0.170027606457 -0.00254618510042)
(0.0785175116841 0.170008844152 -0.0043642090457)
(0.0850293099625 0.153325639093 0.026651625278)
(0.0867814517718 0.174621256713 -0.00486059102078)
(0.058496262732 0.15878494136 -0.0083543497305)
(0.0659876919451 0.137871849164 0.01644768659)
(0.0672456945584 0.166270992593 -0.0157299436373)
(0.0692576310175 0.141274720374 -0.00709868375978)
(0.0606064361052 0.133886695556 0.0214408635267)
(0.0679075042854 0.155972005224 -0.0198321425143)
(0.0699895615625 0.129455157429 -0.00244100039034)
(0.0649790741809 0.120546318834 0.0146336613156)
(0.0742409868818 0.136457008636 -0.00260194803701)
(0.0675072009074 0.128851194423 -0.00185495809234)
(0.0679264904485 0.125094329098 0.00472087425475)
(0.0695544097634 0.127820208932 -0.00166253353309)
(0.0595945799298 0.131928945844 -0.00193441684945)
(0.0654211874506 0.132387285859 0.00133880686037)
(0.0639318036375 0.130264510526 -0.00267590622039)
(0.05061393693 0.134514308267 -0.00155154500906)
(0.0576063469937 0.137653149509 0.000630872302852)
(0.0553720235796 0.133283242346 -0.00262645971618)
(0.0402341413012 0.136432700955 -0.00097804234852)
(0.0475237037988 0.140578181234 0.000736925980117)
(0.0453789968454 0.136152723931 -0.00146794619261)
(0.0283493064941 0.137678909266 -0.000328347830937)
(0.0359190178702 0.142450462606 0.00107393236132)
(0.034229574027 0.138432868682 -0.000173386351774)
(0.0151248177322 0.138018198657 0.00060527123998)
(0.0230184790814 0.143370120441 0.00152829407336)
(0.0219346161174 0.139690803547 0.00105731080121)
(0.00815956331273 0.143433506661 0.00239595524034)
(0.00759728533101 0.139375845408 0.00250650589533)
(0.0270154067483 0.0968359048978 -0.00990605299235)
(0.015293895631 0.0989799119978 -0.00997658897976)
(0.0151143378662 0.0972904968775 -0.0206047211895)
(0.0527056104683 0.0987129399587 -0.00841728644479)
(0.0415650670763 0.0992600220858 -0.00884208308245)
(0.0417865208396 0.0969562200508 -0.0187370077242)
(0.0763589108491 0.105629612507 -0.0066560117112)
(0.0642026497676 0.102644918395 -0.00685916063935)
(0.0651269357447 0.0986520531567 -0.0158959966841)
(0.0975481853908 0.118443064558 -0.00499204815521)
(0.0862080044728 0.112751773937 -0.0047448439333)
(0.0878463613755 0.104860039534 -0.0132480090945)
(0.116470353387 0.131247058986 -0.00316302399772)
(0.106269286163 0.127014858232 -0.00316872356368)
(0.109096375244 0.115046757556 -0.010594833701)
(0.135409845287 0.139925974019 -0.00035819360629)
(0.129138399835 0.133820545028 -0.00248493396528)
(0.13217179294 0.122766228833 -0.00677400554304)
(0.148574887039 0.142981648665 0.00905548057008)
(0.144905466328 0.13472811866 0.000670612464265)
(0.152036605703 0.130935106801 0.00288550689873)
(0.123306058057 0.138035482697 0.0221929890865)
(0.136005659577 0.128323147967 0.0135409299131)
(0.145645121573 0.138350980035 0.0328664533717)
(0.0987264503088 0.118572712375 0.0312671026706)
(0.100561646138 0.116717459068 0.010039716608)
(0.117955651563 0.12995559528 0.0464746849704)
(0.070517628061 0.0955330115686 0.033014787135)
(0.0714050821585 0.0758049452828 0.00927954801604)
(0.0844919825554 0.106190798325 0.0753185976612)
(0.0612502897553 0.0811215670924 0.0299976213033)
(0.056976336293 0.0628517445962 0.00143811136544)
(0.0634414387517 0.0903954379395 0.0640650770182)
(0.0576138534092 0.0782681782077 0.0257335452686)
(0.0597790040469 0.0540435524287 -0.00144207646873)
(0.0544767525919 0.0767605714506 0.0707791165115)
(0.0661670137963 0.0978307711808 0.0129579477914)
(0.0788716135245 0.0634101070747 -0.0105913286394)
(0.0501602663053 0.0755201453192 0.0469072032178)
(0.0702715340277 0.122035889885 0.00477758353107)
(0.087684938442 0.106388505549 0.000500422659845)
(0.060060385821 0.111870530347 0.0130049606841)
(0.0641119266313 0.134548040142 0.00253949058201)
(0.0775225250219 0.130369178634 0.00261652107369)
(0.0652172267026 0.128884994832 0.00639139358212)
(0.0551616848077 0.141071137971 0.0021077605109)
(0.0652695156328 0.140867347556 0.00349490002645)
(0.0585402986905 0.137933659083 0.00405261071937)
(0.0436118868237 0.144593397006 0.00238409659791)
(0.0527118385752 0.145416645281 0.00378490875999)
(0.0489298401003 0.143751208106 0.00488637394536)
(0.0302062324036 0.146234834463 0.00274257303427)
(0.039016323759 0.148073001854 0.00416302651454)
(0.036787659763 0.14694622983 0.00562249306445)
(0.0155944977382 0.146590771409 0.00325789851802)
(0.024430713034 0.149137382477 0.00443798456859)
(0.0233404977856 0.148411677079 0.00616826556839)
(0.00849298867994 0.148900532156 0.00504002600577)
(0.00808956281528 0.148186832545 0.00682768926577)
(0.0266411192598 0.099681490277 -0.00897216874972)
(0.0154443519808 0.100250978497 -0.00903781627378)
(0.0153470283577 0.0999584840222 -0.0183576287135)
(0.0520212232639 0.101513434887 -0.0075326538106)
(0.0414976495443 0.100867889999 -0.00816407207782)
(0.0420391325727 0.0997138582707 -0.0168299260073)
(0.0757232811386 0.108131185294 -0.00567965491092)
(0.0634564616829 0.103810157905 -0.00613090542695)
(0.0649689274946 0.100989500436 -0.013999768529)
(0.0965171329402 0.119876506701 -0.00396934138633)
(0.084817740849 0.11343538797 -0.00406076545538)
(0.087263572672 0.106490106766 -0.0110501568307)
(0.114943291343 0.12896534822 -0.00252623625319)
(0.103934523762 0.12630414538 -0.00255817728094)
(0.107672149458 0.11458595624 -0.00868359947616)
(0.133455009634 0.129002812355 -0.00120634631864)
(0.127541068008 0.129654979146 -0.00226646504899)
(0.132939189467 0.116678148272 -0.00692489506053)
(0.148975746154 0.122403856241 0.0044296371708)
(0.144550754139 0.120680262541 -0.00100675315282)
(0.154193138479 0.112946916119 -0.000112101048185)
(0.112398373764 0.113705704069 0.0064760211301)
(0.133445575498 0.110647723311 0.0128479119023)
(0.13783600322 0.108476031374 0.0304840674296)
(0.0715378426362 0.0930496506083 0.000850489077024)
(0.0847940188069 0.106196245114 6.95262635069e-05)
(0.0889342081172 0.0932334489675 0.0337525403794)
(0.0566442293873 0.0715950917414 -0.00457025008734)
(0.0549530955556 0.0868405289166 0.00317883948752)
(0.0597050011793 0.0607719457581 0.00409725610588)
(0.0520298537664 0.0656130497111 -0.0129385764339)
(0.051337852722 0.0922023071162 0.000606202846143)
(0.0460392120439 0.0515097383848 -0.017591020623)
(0.0762566679201 0.0714403459217 -0.0209239867574)
(0.0656572503635 0.0865566152971 -0.0132803594841)
(0.0580078209199 0.0422334337324 -0.037276570447)
(0.112335957644 0.0961693440462 -0.0120036279637)
(0.103807287872 0.099805021189 -0.0236010299047)
(0.102678212456 0.0544368941735 -0.0495592345002)
(0.0956719311368 0.123401033714 0.00237264164368)
(0.115773233912 0.124152410534 0.00303184244585)
(0.117042798008 0.106981942624 -0.000361460311125)
(0.0778338197476 0.137289653232 0.00406040343119)
(0.0922774103277 0.136732253735 0.00451857436985)
(0.0882503178826 0.129270816108 0.00935708461146)
(0.0631639408433 0.144367271519 0.00493542883823)
(0.0740564278797 0.144144972569 0.00626584497661)
(0.0707300820184 0.14042551533 0.00918479419251)
(0.0482401916148 0.14813031918 0.00544839320171)
(0.0585801389985 0.14759212519 0.00691142756003)
(0.0558739902526 0.147203348042 0.0101579250982)
(0.0324534283472 0.149726152333 0.0057467058382)
(0.0424655744281 0.149738478849 0.00713980116689)
(0.0404938906181 0.15059195939 0.0107809788123)
(0.0158648074516 0.150369735507 0.00617872618433)
(0.0263394567006 0.150344508306 0.00724160720973)
(0.0251895301317 0.151916645159 0.0109378787662)
(0.00921524978813 0.151723526739 0.00687678201328)
(0.00862435946604 0.151814111569 0.00882090206586)
(0.0256536004638 0.10005587095 -0.00826918408658)
(0.0157133398508 0.0993829214405 -0.00845887867683)
(0.0156531495591 0.0999106953053 -0.0163107889072)
(0.0506436641399 0.10183315523 -0.00691473468192)
(0.0412547254811 0.100461978177 -0.00768343559403)
(0.04194541611 0.100161284089 -0.0153428842132)
(0.0738339201422 0.107930733813 -0.00503288346393)
(0.0619823812687 0.102923536194 -0.00559992373465)
(0.0638883052807 0.101039531209 -0.0124566676787)
(0.0938255195183 0.118740644808 -0.00342921877855)
(0.0825482601184 0.112045472916 -0.00348633504426)
(0.0854075905816 0.106055924315 -0.00946048650983)
(0.111016127707 0.125792872731 -0.00232552378657)
(0.100364228029 0.123773213672 -0.00206501050623)
(0.104576511878 0.112890483827 -0.00709245817755)
(0.128242717503 0.12006580353 -0.00205501545012)
(0.122355731833 0.124791725279 -0.00239927053461)
(0.128794637877 0.112605953534 -0.00569830488892)
(0.147583139407 0.107086589838 0.00338540573669)
(0.139716255627 0.108448088377 -0.00505245969472)
(0.152498498019 0.100440790289 -0.00153346340117)
(0.107394987118 0.0989398249435 0.004107434143)
(0.130892200667 0.0896905575766 0.0121125511846)
(0.134205449891 0.0925898963599 0.0342218955333)
(0.0615642552201 0.0908862172319 -0.00145771830761)
(0.0799010516807 0.0854681553729 -0.00455905788131)
(0.0769894501707 0.0870486957603 0.0406557991068)
(0.0536313572352 0.0901290449882 -0.0013625180978)
(0.0570676516708 0.0811137860357 -0.00361748991794)
(0.0523954524272 0.0766189692653 0.0113387530375)
(0.0705691052203 0.0989733674633 -0.00842638082174)
(0.0588708656411 0.0906039650592 -0.0099285015184)
(0.0509417897682 0.0867151019991 -0.00703250145614)
(0.0804861183924 0.108092206753 -0.0197203885081)
(0.0728144170477 0.112265521713 -0.00681766432981)
(0.0645091383787 0.0936359817347 -0.0299770602557)
(0.133274771832 0.122412254304 -0.0135622260273)
(0.117407139991 0.121875138314 -0.0240006353659)
(0.119564489495 0.101859081717 -0.0569336289004)
(0.105331345469 0.135144711928 0.00460028584608)
(0.12939495702 0.135046799824 0.00906087044219)
(0.138530732638 0.127815132773 0.0138542495445)
(0.0864469757794 0.141959615675 0.00633237558063)
(0.100924436493 0.140927274453 0.00729070927119)
(0.0984903942512 0.136982713393 0.0119269155083)
(0.0701827966056 0.145896855486 0.00771939278169)
(0.0805748288732 0.144368490732 0.00866837514526)
(0.0785502572102 0.143642819751 0.013573130009)
(0.0527540858111 0.148253494779 0.00838441627331)
(0.0636743741627 0.146699520251 0.00997240664804)
(0.061613801002 0.148186547836 0.0150463101507)
(0.0347707042134 0.14940689353 0.00854172715567)
(0.0458289537291 0.148091644511 0.00964655039253)
(0.0440612597017 0.150418239413 0.0153071429903)
(0.0175692934049 0.14995373148 0.00789466870722)
(0.0282374380019 0.148594859411 0.00932022748676)
(0.027079401599 0.151021472359 0.0136081676256)
(0.0100195922721 0.148236276398 0.00783654742077)
(0.00948252224492 0.150880229307 0.0142819688965)
(0.0194654287052 0.0980407082346 -0.00795016107808)
(0.0148569705791 0.0984555910365 -0.00809569010547)
(0.0162664644945 0.0989055521607 -0.0122824551723)
(0.0478455665759 0.0992484111648 -0.00656216628513)
(0.0401935828309 0.0945250609204 -0.00656465167259)
(0.0418403216263 0.0976678708297 -0.0142424035697)
(0.0712737791573 0.105757228802 -0.00454719305841)
(0.0609584280373 0.099644840024 -0.00514732330974)
(0.0623095307043 0.0990925667109 -0.0112113835534)
(0.0905694091434 0.115942070194 -0.002907064433)
(0.0800126260617 0.108945898881 -0.00288189260617)
(0.0830111763488 0.104137879499 -0.00811836798516)
(0.106426178657 0.121738291862 -0.002121559363)
(0.096207634084 0.120325309756 -0.00142819666662)
(0.100655001929 0.110088367419 -0.00589331229094)
(0.12056493479 0.113368252242 -0.00389753396748)
(0.114689033245 0.121521909129 -0.00159485216319)
(0.121440316446 0.108759946627 -0.00516583385544)
(0.141743320574 0.0915993203386 0.000888229047533)
(0.128074035385 0.100855242271 -0.00437752352013)
(0.145276192955 0.0941426757088 -0.00642666801814)
(0.10265145042 0.0757900811068 0.00355705183002)
(0.122948874824 0.0634272396282 0.0134881572281)
(0.13156275953 0.0745702340901 0.0360612056803)
(0.0832712204923 0.0787188382072 -0.00456085997118)
(0.0836978118325 0.0538642312358 -0.000101364450757)
(0.0773767764308 0.0719856557524 0.0273631436977)
(0.0574828631202 0.0914834785138 -0.00513254671605)
(0.0680777003308 0.080855599714 0.00384670354112)
(0.0628489569377 0.0790210032868 0.0136546416833)
(0.0784035314393 0.0998914663874 -0.0114170694279)
(0.0667717297223 0.0937386748707 -0.00565521024957)
(0.0633367900238 0.0909165540333 -0.0188564892346)
(0.0916004261889 0.112749059326 -0.0167353398171)
(0.087025850336 0.128551429495 0.00201289195496)
(0.0729761341227 0.0966602236987 -0.0258155544172)
(0.147410201325 0.128633317194 -0.00707314454579)
(0.134622706778 0.12941283356 -0.0251419477851)
(0.135046434291 0.117306558798 -0.0472666999791)
(0.114287442455 0.136331074149 0.0102822679774)
(0.139203198419 0.136761700411 0.00991055034119)
(0.149705664082 0.129030769856 0.0279842499354)
(0.0936923249479 0.142004598371 0.00922256655192)
(0.10847180674 0.140008529996 0.0085354292732)
(0.103844351286 0.137762477652 0.0183313495612)
(0.0749021908271 0.144773496508 0.0108113140109)
(0.0861950964137 0.143234884917 0.0107079323862)