/*--------------------------------*- C++ -*----------------------------------*\
| =========                 |                                                 |
| \\      /  F ield         | OpenFOAM: The Open Source CFD Toolbox           |
|  \\    /   O peration     | Version:  v1606+                                |
|   \\  /    A nd           | Web:      www.OpenFOAM.com                      |
|    \\/     M anipulation  |                                                 |
\*---------------------------------------------------------------------------*/
FoamFile
{
    version     2.0;
    format      ascii;
    class       volScalarField;
    location    "1.7";
    object      k_0;
}
// * * * * * * * * * * * * * * * * * * * * * * * * * * * * * * * * * * * * * //

dimensions      [0 2 -2 0 0 0 0];

internalField   nonuniform List<scalar> 
11640
(
0.00217401983853
0.00238900424173
0.00251712700021
0.00258050216785
0.00260702607574
0.00261118352907
0.00260687216527
0.00260105353008
0.00259511197607
0.00258747846853
0.00257942693809
0.00257440741277
0.00257488419435
0.00258111111804
0.00259267877774
0.00260047059857
0.00258515956312
0.00252661672324
0.00239593095326
0.00217466860611
0.00239045001345
0.00360418502457
0.00421891375912
0.00450342390959
0.0046128416567
0.00464155122389
0.00463896959478
0.00462938718436
0.00462080818833
0.00461326366754
0.00460764220054
0.00463489579151
0.00469896567933
0.00475395124447
0.00475904897089
0.00468160891328
0.0045126564765
0.00419814527424
0.00357552438706
0.00237406630909
0.002520327947
0.004228209104
0.00509358846636
0.00548148706771
0.00561315014237
0.00562782391208
0.0056085130731
0.00559382012229
0.00559147757828
0.00559892111227
0.00563014131466
0.00580251917326
0.00598810523911
0.00615909037102
0.00623513295581
0.00611562593527
0.00574962299171
0.00513607826738
0.00418821788904
0.00249450896638
0.00258762781941
0.00452838587584
0.00549761317385
0.00589556096935
0.00599458116889
0.005968878392
0.00591474234889
0.00587889266682
0.00587216556142
0.00589458260218
0.00601794336622
0.00632929386564
0.00666404499406
0.00699417568063
0.00720719171514
0.00713608660593
0.00668320018122
0.00581716069816
0.00453375161208
0.00255164452176
0.00262512569116
0.00465671364453
0.00563795545432
0.00599254702333
0.00602952541751
0.00593485236706
0.00580566148487
0.0056999087207
0.00565166392863
0.00566778961304
0.00589087048707
0.00630492792205
0.00677979802431
0.00730624605767
0.00772485145625
0.00777970870668
0.00733619548268
0.00633905438403
0.00480328286394
0.00258276434061
0.00265016161802
0.00469541034779
0.00564586360506
0.00593763352901
0.00589177537831
0.00568516070473
0.00539328384855
0.00511852821604
0.00496907389563
0.00493708479157
0.00517244008438
0.00562303001338
0.00621882186227
0.00702791096338
0.00777327239503
0.00804787263367
0.00770143530712
0.00667509233182
0.00500471207316
0.00261808633477
0.00266282860352
0.00469289391009
0.00560775653998
0.00583939906184
0.00569549066726
0.00531325742874
0.00473352673711
0.00418648218949
0.0039134752035
0.00385054822976
0.00415276084942
0.00449593715177
0.00508621036325
0.00623129350723
0.00744000560679
0.00800928144169
0.00781248925534
0.00682069113629
0.0051082904782
0.00264843609311
0.00266249325983
0.00467491548469
0.00556456492855
0.00575027778278
0.00551610301543
0.00495284227157
0.00408763224934
0.00335931914525
0.00305510842342
0.00297071272411
0.00304061148559
0.00325970148349
0.00380601819423
0.00526115972473
0.00693400971667
0.00779079375346
0.00774918526017
0.00682409958681
0.00512773594813
0.00266436347691
0.00265797233365
0.00465901377616
0.00553544248097
0.00569692700669
0.00541469473423
0.00476307733014
0.00378825743833
0.00302868403804
0.00272320406503
0.00264156729993
0.00267770606748
0.0028373406526
0.00333761885802
0.00479493234702
0.00664195731214
0.00764010734643
0.00768228529523
0.00679867348064
0.00512149033503
0.00267232960632
0.00265378754894
0.00465385062282
0.00553145531717
0.00569251920062
0.00540678078613
0.00474782307075
0.00376077231872
0.00299237445615
0.00268723002797
0.00260342160462
0.00263050349495
0.00279164583503
0.00330148213467
0.0047637865977
0.00663463646092
0.00764819932508
0.00769346809869
0.00680653428843
0.00512526271449
0.00267944453693
0.00265131466864
0.00466181301598
0.0055561682617
0.00574262021391
0.00549784686011
0.00490154202259
0.00398251485183
0.00321869847114
0.00291529106931
0.00282872039324
0.00288072504402
0.00306852037285
0.00360796229769
0.00512043151714
0.00690997473775
0.00782538810103
0.00779277533038
0.00685506150043
0.00514310785063
0.00268561398247
0.00264745773367
0.00468070473452
0.0056147294222
0.00585903046067
0.00570854299006
0.00528185176051
0.00460024038863
0.00392175213754
0.00366202623117
0.00359946537299
0.00365182223495
0.0040632721695
0.00476803141827
0.00614686185425
0.00749580156347
0.008141927264
0.00794452505994
0.00691113004861
0.00515281477109
0.00268681693287
0.00263878154027
0.00470340860965
0.0057031559269
0.00603525460351
0.00600185825253
0.00576172364087
0.0053868233103
0.00501415905761
0.00487692459666
0.00489218843802
0.00514364030706
0.00569005754094
0.00637642861623
0.00731524735566
0.00813584980174
0.00842777883454
0.00801732723134
0.00688483009246
0.00510792942001
0.0026748383648
0.00262857981521
0.00471567848944
0.00579255876613
0.00622688886954
0.00631252585417
0.00622882598864
0.00607625515243
0.0059413457524
0.00591836249169
0.00599061337469
0.00627437244438
0.00680285585273
0.00738887603363
0.00802009874177
0.00846622455568
0.008468586841
0.00789055340854
0.00671524637835
0.00500282861924
0.00265695667382
0.0026205870663
0.00471078625081
0.00583646608227
0.00636686356684
0.0065590044719
0.00659312549953
0.00657658511472
0.00657156678885
0.00661261916339
0.0067033647872
0.00697263915793
0.00737512986966
0.00779804624661
0.00818988829698
0.00838017042087
0.00819429843166
0.00754283842444
0.00643167676269
0.00488333619795
0.00264616476602
0.0026085590371
0.00466650413157
0.00578088216499
0.00636304271845
0.00663349023876
0.00674255598068
0.00679117633954
0.00683010822381
0.00688091785828
0.00695602415432
0.00715804053019
0.00740422394745
0.0076563509737
0.00786254497503
0.00789457602626
0.00763181179159
0.0070304583761
0.00610683203638
0.00477363108942
0.00263392109961
0.00257932997405
0.00451943779523
0.00557630317867
0.00613019106893
0.00640847785601
0.00654486991403
0.00661128948673
0.00664965440958
0.00668456474714
0.00674914567277
0.00685453360082
0.00696625011931
0.00707981895247
0.00715742615904
0.00711737723025
0.00689030379628
0.00645434859214
0.00576426350824
0.00461401367744
0.00260453987271
0.00251467982903
0.00419574361873
0.00509778964729
0.0055775044429
0.00581628751876
0.00592409627064
0.00597383731895
0.00600537367671
0.00603635558402
0.00606776651564
0.00610073539181
0.0061384304133
0.00617815209132
0.00620040360122
0.00616630030066
0.00603436855251
0.00576194782323
0.00524616651854
0.00428246834386
0.00253758552754
0.00238395467815
0.00356386110768
0.00418100085619
0.00449703168472
0.00465364578816
0.00472751691674
0.00476242341083
0.00478122660844
0.00479331589257
0.00480400787256
0.00481649214942
0.00483178746502
0.00484849260691
0.00485848499588
0.00484743121325
0.00478492312863
0.00462363868648
0.00428554672601
0.00362567641182
0.00240428145767
0.00216794483785
0.00236683036841
0.0024887520455
0.00255049443853
0.00258085450409
0.00259720975257
0.0026088179423
0.00261898444546
0.00262737582107
0.00263466391063
0.00264132582754
0.00264583287473
0.00264998652408
0.00265052981568
0.0026480075491
0.00263563192314
0.00260467752998
0.00253738717502
0.00240472681157
0.00218961538861
0.003434307345
0.00421093869418
0.0046737662201
0.00489858471793
0.00497477737919
0.00497072149216
0.00495768993101
0.00496265332443
0.00497889076764
0.00499343533894
0.00500505634674
0.00500851785159
0.00500898598307
0.00502042837848
0.00504169625665
0.00504696457374
0.00496672388302
0.00472906927453
0.0042491241407
0.00345519326516
0.00421444240191
0.00760199515277
0.00907714866115
0.00973522588184
0.00994694639156
0.00997863933222
0.00999056657115
0.0100376542727
0.0101067664011
0.0101874228155
0.0102651561434
0.0103070319108
0.0103435381656
0.0103835723407
0.0103858004509
0.0102757768391
0.00993824781982
0.00916868537487
0.0076206741527
0.00419934366657
0.00468453753568
0.00909217366908
0.0109453098607
0.0116900047245
0.0118716486826
0.011864145561
0.0118744033571
0.0119722860875
0.0121262056277
0.0123032737827
0.0124606944
0.0125574760075
0.0126935758311
0.01285082219
0.0129447786706
0.0128168542508
0.0122975392138
0.0112036664208
0.0091421991549
0.00466303904216
0.00491380660832
0.00975359557338
0.0116693252237
0.0123304758538
0.0124157241354
0.01234381576
0.0123349432494
0.012460639753
0.012685961115
0.012961262981
0.0131991784746
0.013406421321
0.0136883439753
0.0140297473645
0.0142939863453
0.0142428645181
0.0136601836837
0.0123331341992
0.00992781760147
0.00489849126148
0.00499601865237
0.00992640142097
0.0117363375398
0.0122548267076
0.0122161367088
0.0120371967453
0.0119215388975
0.0119737049895
0.012199213946
0.0125337453158
0.0128324929328
0.0131305513913
0.0135896996567
0.0142126313814
0.0147745646042
0.0149154382707
0.0143791915814
0.0129488165064
0.0103210390688
0.00499909038932
0.00500309099589
0.00985591274653
0.0115192112198
0.0118824439916
0.0116801599292
0.0112735941268
0.0108283073968
0.0105636277015
0.0106461971464
0.0109638869083
0.0112724037712
0.0116125895023
0.0122894525976
0.01340325871
0.0144985311198
0.0149975833092
0.0146316567978
0.0132154440493
0.0104917159066
0.00503672451827
0.00498830058731
0.00973572131306
0.0112778865227
0.0114951069857
0.0110716627384
0.0102591441506
0.00915164192436
0.00828159993479
0.00813046126407
0.00835654755569
0.00840052660642
0.00856654060566
0.00938724128594
0.0115801494423
0.0136181237974
0.0146573651489
0.0145630994197
0.0132480891847
0.0105268355773
0.00504654901309
0.00497423443815
0.00965658664255
0.0111214139495
0.0112159024421
0.0105578972037
0.00926124602269
0.00734185155374
0.00595360749487
0.0056380168831
0.00579621331554
0.00581966273402
0.00583385874004
0.00663259253907
0.00935115771788
0.0125613853239
0.0141624326169
0.0143499198851
0.0131654659682
0.0104957724355
0.00504564155309
0.00496690651254
0.00962497247775
0.0110541770422
0.0110792380213
0.0102843496214
0.00873118288821
0.00647414438246
0.00494165219187
0.00451816491095
0.00462609588433
0.00463225398532
0.00458479483594
0.00535090326699
0.00814160067664
0.0119137277009
0.0138418862298
0.0142032011685
0.0131004465364
0.0104662388384
0.0050426703696
0.00496873468532
0.00963191720664
0.011060185086
0.0110767314822
0.0102588982494
0.00865818442804
0.00632993431468
0.00473681151463
0.00428270128392
0.00437290863017
0.00439129447712
0.00432627643389
0.00509524298547
0.00790004003805
0.0118199157642
0.013827301657
0.0142180145635
0.0131150453507
0.0104696218602
0.0050427839137
0.00498112980085
0.00968316736514
0.0111488590569
0.0112211501765
0.0104931934228
0.0090278689616
0.00684887200814
0.00524419521547
0.00481589124391
0.0049187209084
0.00493848115652
0.00488249746539
0.00566177948191
0.00856287180082
0.0123118693626
0.0141561609456
0.0144203091365
0.013224942928
0.0105151050179
0.00504867831164
0.00500952073553
0.00979735712101
0.0113508059154
0.0115453724593
0.0110306373802
0.00997681904835
0.00838025271518
0.00683613602651
0.0065401006857
0.00680403778768
0.00715311157845
0.00740317535893
0.00838768751167
0.0108809281196
0.0134869425527
0.0148000547947
0.0147700252126
0.0134025963642
0.0105914602337
0.00506263964347
0.00505382187444
0.0100033418895
0.0117247311983
0.0121042740965
0.0118473954158
0.011255228857
0.0104511148319
0.00974673662733
0.00976627688228
0.0101678728556
0.0106249576202
0.0111046895222
0.0119663136208
0.0134334306272
0.014876910581
0.0155281423247
0.015127513065
0.0135659213071
0.0106631090883
0.00507870854133
0.00509978746185
0.0102579175235
0.0122208129351
0.0128401440365
0.0128354502821
0.0126064494056
0.0123530308505
0.0122434567418
0.0124755588669
0.0129072814071
0.0133713092092
0.0138247733164
0.0144439078186
0.0152518214678
0.0159346224442
0.0160492247484
0.0153331479612
0.013628318236
0.0106937269385
0.00509062196079
0.00511719809582
0.0104328844156
0.0126570143054
0.0135502740915
0.013793074277
0.0138155532433
0.0138553370949
0.0140059435585
0.0142991906672
0.0146728154617
0.0150428777017
0.0153755929383
0.0157667492937
0.0161791753046
0.0164075102423
0.0161737626604
0.0152674641429
0.0135224753093
0.0106494977664
0.00508798938602
0.00508589549594
0.0103816673306
0.0127825433378
0.013915671208
0.0143766267903
0.0145655708649
0.0147143508924
0.0149033621668
0.0151379371692
0.0153965190094
0.0156261637719
0.0158261707055
0.0160387104753
0.0162110632923
0.0161889440857
0.0157835498869
0.0148411301738
0.0131980622789
0.0104751405383
0.00504882383898
0.00497185149526
0.0100134963209
0.0123601055876
0.0136022861808
0.014197586085
0.0144689362199
0.0146286247899
0.0147612956384
0.0148919777769
0.0150253291856
0.0151236671316
0.0152186324233
0.0153116308791
0.0153527489176
0.0152328653645
0.0148263775036
0.0140044929133
0.0125619629616
0.0100583088816
0.0049302496837
0.00472072736096
0.00919669570835
0.0112599553866
0.0123772831094
0.0129579512686
0.0132394086992
0.0133780108549
0.0134547482803
0.0135051187533
0.0135459678703
0.0135818524839
0.0136211870815
0.0136564646038
0.013652843626
0.0135418094417
0.0132279846108
0.012581646063
0.0113809520979
0.00921030667785
0.004675330822
0.00423913304568
0.00762498658075
0.00916547768746
0.00997929516449
0.0103985771395
0.0106020985452
0.010696239756
0.0107394254783
0.0107605758013
0.0107742174301
0.0107878558386
0.010804571348
0.0108187131805
0.0108105241743
0.010739906003
0.0105354369782
0.0100872644749
0.00922060041804
0.00760795197353
0.00419936547206
0.00345374738335
0.00420174956884
0.00467064433443
0.00492028945248
0.00504669725149
0.0051083774965
0.00513844653398
0.00515335040264
0.00516059951164
0.00516366326948
0.00516443703081
0.00516406573365
0.00516264600987
0.00515480521297
0.00513204890598
0.00507236905308
0.00494145971484
0.00468169147226
0.0042030853816
0.00345814110193
0.00383243513154
0.00501547602628
0.00573071310946
0.00609197079449
0.00623020030949
0.00624423059212
0.00622800917625
0.00622376926078
0.00622921812515
0.0062355310429
0.00624165606636
0.00624744254058
0.00625609724807
0.00627655365409
0.00630218999631
0.00629264217875
0.00615303558134
0.00577702514962
0.00503997796828
0.0038346146994
0.0050180403213
0.00957158344281
0.011527006436
0.0124568275499
0.0128117751486
0.012895241018
0.0129003105145
0.0129122444618
0.0129410096065
0.0129866643262
0.0130441586837
0.0130955589477
0.0131485031416
0.0132004554633
0.0132080832396
0.0130661643653
0.0126148502453
0.0115942394656
0.00956585388083
0.00497333762798
0.00574381265794
0.0115462991363
0.0139692905661
0.015066017557
0.0154427893322
0.0154953492871
0.0154691723393
0.0154815636505
0.0155412105361
0.015635853067
0.0157413525791
0.0158375631462
0.0159828754785
0.016154548644
0.0162619059
0.016118165274
0.0155018229682
0.0141490027038
0.0115557326785
0.00569048077822
0.00611257938386
0.0124938921299
0.0150735997427
0.0161618400743
0.016467262711
0.0164307727189
0.0163267477293
0.0162940673503
0.0163559834076
0.016492316361
0.0166501668154
0.0168344199882
0.0171271995695
0.0174966570942
0.0177927560503
0.0177476789974
0.017092449019
0.0155353229024
0.0125945364499
0.00606534799373
0.00626002379812
0.0128419540463
0.0153989466085
0.0163852120403
0.016550264169
0.0163439742435
0.0160402928913
0.0158352038755
0.0158229458389
0.0159653818713
0.0161545483161
0.0164330035806
0.0169308495931
0.0176292050755
0.0182695383032
0.0184572165438
0.0178815565206
0.0162507271626
0.0131060296224
0.00623233687309
0.00629223056577
0.0128669319858
0.0153231256603
0.0161516851163
0.0160941454778
0.0155457061787
0.0147419039103
0.0140364140306
0.0138002512345
0.0138862155803
0.0140677084067
0.014410200743
0.0152008596407
0.0165527335436
0.0178499804555
0.0184756133163
0.0181172829395
0.0165323976461
0.0133123451637
0.00629263732088
0.00628066722758
0.0127789088638
0.015122461244
0.0157709817552
0.0153976902973
0.0142382383153
0.0123251912325
0.0103189322738
0.00967328042497
0.00948413638329
0.00937569189878
0.00952062578088
0.0105991604129
0.0140488779447
0.0166970391028
0.018016423973
0.0179949725249
0.0165447465732
0.0133455555108
0.00630365364403
0.00625895457417
0.0126939923671
0.0149513559571
0.0154380426701
0.0147328110425
0.0128331199429
0.00929004014459
0.00535705310255
0.00472369097446
0.00468489231825
0.00473788588717
0.0049127417407
0.00608458313206
0.0107238122224
0.0153905892977
0.0174257246051
0.0177365765384
0.0164392351644
0.013300974069
0.00629617079655
0.00624661051338
0.0126542027998
0.0148684137209
0.0152626379407
0.0143647746166
0.0120821499803
0.00795359737041
0.00407750226867
0.00329852063022
0.00316643202547
0.00315807291147
0.00330144520348
0.00446671839558
0.00906268060025
0.0146003541717
0.0170508893059
0.0175684219064
0.0163647434756
0.0132643823236
0.00628767736985
0.00624901962848
0.0126685408466
0.0148858602241
0.0152727308749
0.0143457728346
0.0119979979763
0.0077809048928
0.00388495929369
0.0030664219781
0.00289554367098
0.00284149604794
0.00296751806583
0.00415389318725
0.00873398414119
0.0144993172403
0.0170516202351
0.0176028536768
0.0163940207725
0.0132745613529
0.00628725143412
0.00627098482238
0.0127442730601
0.0150162422236
0.0154858187602
0.0146926543616
0.0125567325204
0.00859615956338
0.00447615865236
0.00367333279232
0.00353365091843
0.00351869038731
0.00364551479229
0.00481786208901
0.00967044012973
0.0151551793922
0.0174838371112
0.0178739337075
0.0165472883434
0.013342617581
0.00629940862951
0.00631345406739
0.012887545359
0.0152722991797
0.0159161243028
0.0154414115387
0.0139749010738
0.0113701630522
0.00825395529562
0.00749980686672
0.0076306923961
0.00796484396846
0.00842797669266
0.00983279757479
0.0133621291682
0.0167182036607
0.0183193478049
0.0183383017994
0.016794245977
0.0134566209486
0.00632553950897
0.00637214681844
0.0131056051266
0.0156715251089
0.0165573773618
0.0164571250667
0.0156798053485
0.0144001656174
0.0131232713396
0.012828480833
0.0130810628339
0.013491646801
0.0140219611366
0.0150484960314
0.0167959590703
0.018499288481
0.0192700131557
0.0188363610531
0.017043466673
0.0135731240068
0.00635719331468
0.00642336956238
0.0133337968682
0.016123457993
0.0172874550841
0.0175434995885
0.0173025083864
0.0168423634365
0.0164757312906
0.0164853899456
0.0167561654594
0.0171312407246
0.0175769625117
0.018238856611
0.0191176511833
0.0198728757209
0.019996796154
0.0191752874257
0.0171830012688
0.0136342280831
0.00637749091389
0.00643066635509
0.0134430246567
0.0164385781111
0.0178637102106
0.0184244358087
0.0185468431965
0.0185181877576
0.0185274063578
0.0186677621076
0.0189143329091
0.0192027701726
0.0195176762921
0.019911997567
0.020330927116
0.0205522280826
0.0202586217045
0.0191887023545
0.0171055012339
0.0135787491474
0.00636308040533
0.00636371858754
0.0132914173727
0.0163767071252
0.017983554117
0.0187551145939
0.0190946370546
0.0192580226738
0.0193854422824
0.0195377396892
0.0197232527773
0.0199045747504
0.0200948098837
0.0203022910799
0.0204577111128
0.0203910202534
0.0198833590519
0.0187347761167
0.016713547566
0.0133204499224
0.00628457519797
0.00617147917299
0.0127557189483
0.0157203645699
0.017349173466
0.0182054085172
0.0186295859279
0.0188450185676
0.0189744903648
0.0190819238928
0.0191782390097
0.0192680860222
0.0193645794947
0.0194543816042
0.0194726215536
0.0192927030211
0.0187611747509
0.0177085784674
0.0158759235326
0.0127249078143
0.00608195932072
0.00577167366575
0.0116519036026
0.0142780004904
0.0157282379902
0.0165122836778
0.0169117553042
0.0171062151811
0.0172009900845
0.0172556648637
0.0172968920769
0.0173373169203
0.0173809062579
0.0174125566394
0.0173850255039
0.0172108751822
0.0167700974297
0.015900234359
0.0143367273962
0.0115737772967
0.00567400763868
0.00502789875373
0.00958050532593
0.0116086508281
0.0127055989427
0.0132885068173
0.0135801297718
0.0137159838495
0.0137760475815
0.0138034531465
0.0138199257724
0.0138357974971
0.0138523516223
0.0138595945316
0.0138282279671
0.0137028750782
0.0133920768478
0.0127580112943
0.0115854597816
0.00946916219766
0.00494199099507
0.00382995898279
0.00497669376129
0.00570390750348
0.00610018964357
0.00630553827621
0.00640639640039
0.0064533996614
0.00647448224351
0.00648307223203
0.00648609344568
0.00648663707538
0.00648587796752
0.00648215759983
0.00646676035046
0.0064226362441
0.00631643300983
0.00609726512396
0.00568289673211
0.00494694427982
0.00383150670031
0.00401383922291
0.00549246856147
0.006398494129
0.00687097081867
0.00706496146161
0.00709686942066
0.00707729148894
0.00706286544617
0.00705745332616
0.00705632539723
0.00705937972935
0.00706868645153
0.00708657218942
0.00711635515982
0.00714511898042
0.00711892801608
0.00692502814788
0.00643771979229
0.0055072222412
0.00400455060352
0.00549395187528
0.010807666141
0.0131077967
0.0142441617871
0.0147119941181
0.0148347155408
0.0148296269528
0.0148085293838
0.0148014556412
0.0148196215649
0.0148659361129
0.0149292170556
0.0150044434936
0.0150738820033
0.0150871864273
0.0149175470024
0.0143723284684
0.0131580139435
0.0107834464034
0.00542739839785
0.00641290478103
0.013129219563
0.0159488105447
0.0172965421971
0.0178157744979
0.0179117880646
0.0178539735169
0.0177960421116
0.0177827157242
0.017821769292
0.0179021152795
0.0180104302931
0.0181767585977
0.0183688295957
0.0184882883397
0.0183262001303
0.0176271083679
0.0160790995773
0.0131102444792
0.00633542627465
0.00689212183542
0.0142919539237
0.0173235289006
0.0187081988838
0.0191754169604
0.019166325861
0.0189836573794
0.0188198421758
0.018755617142
0.0187999774779
0.0189196240771
0.0191073858083
0.0194282199101
0.0198322823424
0.0201571386847
0.020113639643
0.01939630131
0.0176652901219
0.014346854507
0.00682273510236
0.00709548897255
0.0147773156666
0.0178434046244
0.0191626781209
0.0194892386163
0.019267591393
0.0188078046446
0.0183793807139
0.0181739588005
0.0181850819744
0.0183220032984
0.0186104977287
0.0191636195091
0.0199381494071
0.0206450107704
0.020869367612
0.0202612554685
0.0184803066725
0.014968039914
0.00704956089162
0.00714905868803
0.0148814038623
0.0178885871434
0.0190666708615
0.0191451108453
0.0185019151369
0.0173913426385
0.0162504214413
0.0157254329564
0.0156444263374
0.0157680092866
0.0161493469965
0.0170637820579
0.0186532378717
0.0201259440391
0.0208567783636
0.0205078019401
0.0187993475679
0.0152242310841
0.00713549316123
0.00713952727137
0.0148241811777
0.0177368359507
0.0187295107182
0.0184440234902
0.0170428448463
0.0142828632317
0.00994255517147
0.00882128818603
0.00856489956155
0.00857127206005
0.00886316667638
0.0101458987679
0.015488686181
0.0187530061556
0.0203185707985
0.0203627161114
0.0188158931238
0.0152718721506
0.00715226089301
0.00711119317659
0.0147384432007
0.017566329322
0.0183851588362
0.0177331427883
0.0154657439295
0.00984452351829
0.0104171657052
0.0172593190697
0.0196742010548
0.0200863827061
0.0187062274778
0.0152262592746
0.00714235697686
0.00709406633878
0.0146937796705
0.0174760095359
0.0181930533556
0.0173263247823
0.0146328437733
0.0083002515916
0.00857991066666
0.0163895717974
0.0192779575162
0.0199173416606
0.0186353594644
0.0151907802171
0.00713126898943
0.00709809438788
0.0147146073979
0.017503286537
0.0182148436828
0.0173161381491
0.014543494081
0.00806555379691
0.0082674808197
0.0163104818444
0.0193108924554
0.0199829557232
0.018687925193
0.0152138153649
0.00713334180495
0.00712877026634
0.0148100114992
0.0176632838081
0.0184727607937
0.017732838617
0.0152189409223
0.00898752588911
0.00941575682652
0.0171278938588
0.0198462058886
0.0203241414895
0.0188871490548
0.0153084932392
0.00715401797224
0.00718408784366
0.014975603801
0.0179532595086
0.018961964827
0.0185909148266
0.016903898718
0.0134571768977
0.00902918685147
0.00790608844385
0.00781617634264
0.00792220406014
0.0082897632295
0.00993310196724
0.0150198609354
0.0190395966733
0.0208501590819
0.0208903759328
0.0191963013257
0.01545595879
0.007193046225
0.00725743523759
0.0152014553292
0.0183582131089
0.0196308098982
0.0196934645083
0.0188337844672
0.0172476272035
0.0157158485839
0.0151655955529
0.0152705418705
0.0155952360034
0.01610643645
0.0172509660125
0.0192411678035
0.0211302030132
0.0219742162951
0.0214954092953
0.0195077408371
0.0156023047256
0.00723733329158
0.00731402571093
0.015407875562
0.0187657965058
0.0203194474462
0.0207886552503
0.0205693508713
0.0199881249238
0.0194931645636
0.0193413935924
0.0194966331565
0.0198119960756
0.0202584217779
0.0209698209912
0.0219157343377
0.0227206252155
0.0228372902331
0.0219149593617
0.0196858432816
0.0156738105654
0.00726114901208
0.00731116286091
0.0154660656395
0.0189842355026
0.0207765472687
0.0215691782006
0.0217780469558
0.0217162900585
0.0216461104563
0.0216894960413
0.0218624225613
0.0221138502349
0.0224367598252
0.0228564181163
0.023296258465
0.0235134329901
0.0231630194171
0.0219500275055
0.0195987521363
0.0155922167219
0.00723259846825
0.00721085363228
0.0152306982222
0.0187836150765
0.0207131174079
0.0217067526041
0.022160051624
0.0223439385169
0.0224410814315
0.0225466015868
0.0226937287542
0.0228637138175
0.0230671381333
0.0232899241224
0.0234459338156
0.0233471612031
0.0227525883047
0.0214345547666
0.0191265804675
0.0152531757661
0.00711434123687
0.00695179078552
0.0145597454276
0.0179506651061
0.0198535470093
0.0208989367355
0.0214378691679
0.0217018348635
0.0218376066418
0.0219305610705
0.0220187127149
0.0221166251123
0.0222282536336
0.0223283352978
0.022337114656
0.0221109894708
0.0214765432038
0.020241521517
0.0181189539396
0.0145074158565
0.0068366275037
0.00643320916826
0.013236976018
0.0162578898541
0.0179526259503
0.018894662605
0.0193903449309
0.0196342460814
0.0197494039723
0.0198120841135
0.0198612064734
0.0199134995511
0.0199692502202
0.0200053660486
0.0199623614295
0.0197370901884
0.0191911174496
0.018143482592
0.016305585725
0.0131163610232
0.00630339942882
0.00549194689959
0.0108059034888
0.0131848405903
0.0144984485192
0.0152146435684
0.0155828485559
0.015758437486
0.0158368944473
0.0158739362257
0.0158975730876
0.0159206744108
0.0159430144661
0.0159489180225
0.0159002791632
0.015728318951
0.0153263512248
0.014538286473
0.013126119104
0.0106393421996
0.00537714977657
0.00399571139429
0.00542977103739
0.00635175493507
0.00686524192407
0.00713777151057
0.00727420723136
0.00733800757549
0.00736600241168
0.00737758094103
0.0073823171063
0.00738479020799
0.00738591706177
0.00738145722506
0.00735964421908
0.00729534144636
0.00714675954963
0.00685126709564
0.00631128432179
0.00538087237145
0.0040031110339
0.00411614540493
0.00579947950039
0.00684590681443
0.00740348570661
0.0076423058574
0.00768856134931
0.00766572279218
0.00764208531989
0.007627197625
0.00761917165583
0.00762026439561
0.00763371622823
0.00765971467826
0.00769754436394
0.00772990226763
0.0076902298462
0.00745182127191
0.00687862986735
0.00580776484284
0.0041004142528
0.00580041445151
0.0116246529726
0.0141812160225
0.0154768093172
0.0160325211558
0.0161848962756
0.0161699478814
0.0161208097254
0.016084032884
0.0160807449176
0.0161205625731
0.0161949766572
0.0162904603012
0.0163772788845
0.0163976861851
0.0162064281551
0.0155853505959
0.0142173953348
0.0115829147407
0.00571603187935
0.0068595224941
0.0142033793177
0.0173176247691
0.0188537551494
0.0194798531401
0.0196086213029
0.0195264105382
0.019414090015
0.0193457367406
0.0193460780466
0.0194127227058
0.0195366350391
0.0197254511736
0.0199379740797
0.0200685889591
0.0198902830067
0.0191219318072
0.0174173931464
0.0141620443869
0.00676187833559
0.00742252860246
0.015529451738
0.0188923927811
0.020493395423
0.0210799973739
0.0210927120753
0.020851403348
0.0205863841935
0.0204271467565
0.0204066658641
0.0205034990206
0.0207072701689
0.0210594580797
0.0214971536599
0.0218486565309
0.0218079682054
0.0210396834573
0.0191681079478
0.0155572482379
0.0073354155013
0.00766820178148
0.0161182078673
0.0195543203236
0.0211149526548
0.0215627461479
0.0213341498572
0.0207571940461
0.0201515627417
0.0197946227231
0.0197106384612
0.0198220680503
0.0201299204785
0.0207366754604
0.0215784659125
0.0223443163953
0.0226046674635
0.0219749184868
0.0200754304331
0.0162761701372
0.00761144183987
0.00773568537527
0.0162805317357
0.0196885857477
0.0211231265568
0.0213108253818
0.0206091860138
0.0192695910183
0.0177834017804
0.0170207662071
0.0168144556485
0.0169145866902
0.0173389863531
0.0183591041094
0.0201177981903
0.021736867721
0.0225661006174
0.0222372938927
0.0204372359777
0.0165849032035
0.00772093295507
0.00772486813579
0.0162457072125
0.0195753230283
0.0208269449898
0.0206285124033
0.019086221161
0.0157818093496
0.0103047911303
0.0089187325444
0.00863499104495
0.00867488091387
0.00904978705685
0.0104951188051
0.0164422522257
0.0201730104686
0.0219611702946
0.0220791776216
0.0204673156751
0.0166546630416
0.00774475218145
0.00769024771743
0.0161599706186
0.0194087782808
0.0204838335198
0.0199073777838
0.0174429834202
0.0104672099414
0.0108918741838
0.0185787131793
0.021288239598
0.0217989693614
0.0203635979774
0.0166144580518
0.00773398345097
0.00766860506022
0.01611236297
0.0193152782196
0.0202839984308
0.0194825244973
0.0165743841298
0.00867582620435
0.00884868500348
0.0176655191247
0.0208910454098
0.0216430229977
0.0203069166497
0.0165871172557
0.00772292447412
0.00767457165828
0.0161395606905
0.0193513544402
0.020314754566
0.0194794085874
0.0164878841334
0.00840835268277
0.00851219245557
0.0176236513263
0.0209703484316
0.0217513370632
0.0203922007319
0.0166296445157
0.00772968634522
0.00771333403408
0.0162515886198
0.0195345003762
0.0206037091009
0.0199399249546
0.0172382430136
0.00950751892037
0.00990409046553
0.0185997881917
0.0216139171659
0.0221700598858
0.0206451755916
0.016755802258
0.00776079206002
0.00778097684282
0.0164371898192
0.0198510292789
0.0211316537943
0.0208551780048
0.0190300092784
0.014972063207
0.00993426920655
0.00840756341614
0.00816077169629