/*--------------------------------*- C++ -*----------------------------------*\
| =========                 |                                                 |
| \\      /  F ield         | OpenFOAM: The Open Source CFD Toolbox           |
|  \\    /   O peration     | Version:  v1606+                                |
|   \\  /    A nd           | Web:      www.OpenFOAM.com                      |
|    \\/     M anipulation  |                                                 |
\*---------------------------------------------------------------------------*/
FoamFile
{
    version     2.0;
    format      ascii;
    class       volScalarField;
    location    "1.7";
    object      p;
}
// * * * * * * * * * * * * * * * * * * * * * * * * * * * * * * * * * * * * * //

dimensions      [1 -1 -2 0 0 0 0];

internalField   nonuniform List<scalar> 
11640
(
5216.73039875
5215.53374373
5213.24356982
5209.98764784
5206.21185301
5202.00452919
5196.93676964
5191.13030157
5185.10206669
5179.00495847
5173.27168055
5167.86205406
5162.87932943
5158.41679886
5154.66459354
5151.67192084
5149.16875456
5147.10970104
5145.67806302
5144.92828461
5215.47514918
5214.15904829
5212.17454865
5210.47291269
5208.90713182
5205.98078951
5200.78119313
5193.84051071
5186.38218375
5179.20705299
5172.27195208
5165.70050241
5159.50547162
5154.03952948
5150.08142864
5147.92180784
5146.74536532
5145.5584436
5144.3062934
5143.49726361
5213.08570104
5212.11764546
5212.40172333
5214.45785516
5215.64004822
5213.36510813
5206.96388982
5197.78741048
5187.90049548
5178.28305834
5168.89337538
5160.00103511
5151.48636086
5143.94685775
5138.94610094
5137.52215198
5138.99911473
5140.92884169
5141.24970129
5140.66017602
5209.73982172
5210.60564438
5215.18233057
5221.23718136
5224.20765831
5221.49422233
5212.99663123
5200.93053026
5188.05509408
5175.24429184
5163.13695986
5151.58196863
5140.33567387
5130.24196781
5123.53096392
5121.99603318
5125.46423337
5131.46416291
5135.69207514
5136.51151802
5206.10571407
5209.97170514
5218.94964841
5227.86616141
5231.52885695
5227.54944885
5216.5693609
5201.68402094
5186.37460114
5171.76773418
5156.74450959
5142.29615566
5128.4659013
5115.87682497
5107.16677944
5104.83968361
5109.34897918
5118.43706518
5127.196286
5130.89903023
5202.25303659
5208.97429745
5221.04528135
5231.61669738
5235.15401293
5229.48198243
5215.93448196
5198.39639376
5180.82736757
5164.37151407
5148.74935947
5132.99866926
5117.79274217
5103.36101822
5092.76306338
5089.26219532
5094.01341578
5105.01267442
5117.14341774
5123.87605039
5197.60266765
5205.93131552
5219.47429871
5230.70021843
5233.9173116
5227.06744481
5211.7047572
5192.30624577
5173.72645957
5156.81155974
5140.04586172
5124.88163673
5109.68395987
5094.23105828
5082.1389178
5077.48257368
5082.00580783
5093.84476981
5107.7365066
5116.41980685
5192.13495861
5200.81935838
5214.72147887
5226.11512064
5229.29455717
5222.24136421
5206.31335548
5186.62239797
5168.43613753
5152.84863115
5137.33955691
5122.5595622
5105.93919902
5088.3295019
5074.90427255
5069.50474368
5073.69612681
5085.62009798
5099.93718189
5109.15513846
5186.3498287
5195.02497993
5208.99584593
5220.47699418
5223.79766775
5216.89871414
5201.06200397
5181.31285078
5163.32180064
5148.52787308
5133.14753439
5118.03695132
5101.0594613
5082.50108088
5068.67884403
5062.96458288
5066.8924234
5078.65225866
5092.88424829
5102.00649069
5180.43839703
5189.39952426
5203.31068661
5214.86431143
5218.36376856
5211.66600491
5196.05032133
5176.50709368
5158.34463464
5143.6255159
5127.11331296
5112.79016067
5095.15774684
5076.21140603
5062.16332041
5056.2384905
5059.94741256
5071.52947439
5085.80968903
5094.94736172
5174.67216293
5183.74870261
5197.89239079
5209.42559732
5213.11540844
5206.71646897
5191.75877019
5173.09855015
5155.57649994
5139.84754689
5124.36670687
5107.7418303
5088.83969955
5070.02339948
5055.56501508
5049.45349034
5053.06794323
5064.6697072
5078.7790875
5087.97954461
5168.8888217
5177.42074599
5191.05520122
5202.51422493
5206.34108274
5200.45908225
5186.85515942
5170.52247814
5153.46945615
5136.50869038
5119.50875663
5101.32047617
5081.91905822
5063.53067932
5049.39358165
5043.47454495
5047.35073319
5058.77756541
5072.61454394
5081.4778681
5162.88845717
5169.45535192
5181.19274402
5191.61369159
5195.4186041
5190.49112688
5178.16269363
5162.15111483
5145.06885999
5128.18027407
5110.80062551
5093.28782119
5075.27129176
5058.39565491
5045.64984895
5040.97572685
5045.14882663
5056.09568685
5068.61241718
5075.92143684
5157.1738118
5160.6886126
5168.86445818
5177.09300084
5180.39665035
5176.41104602
5165.54544207
5150.65544659
5134.64973708
5118.55893162
5102.65528318
5086.85493255
5071.19162421
5056.80210619
5046.55993785
5043.36312103
5047.71538195
5057.17143918
5066.71617604
5071.22171325
5152.58305641
5153.16943904
5156.63553192
5161.47270027
5163.44084875
5160.02676629
5151.0879429
5138.67203099
5125.18478074
5111.61190733
5098.10364255
5084.74128779
5071.64398896
5059.92992318
5051.94210841
5049.87713
5053.43712139
5060.1318669
5065.39084645
5066.7654622
5149.003744
5148.11810675
5147.54872196
5148.04825368
5147.72463902
5144.19183863
5136.84689993
5126.91526877
5116.1168072
5105.27534104
5094.5289689
5084.00785148
5073.83425796
5064.87362883
5058.98403664
5057.42317811
5059.30878665
5062.07653648
5062.91404041
5062.44203695
5146.11640382
5144.93797721
5142.68344635
5139.89887927
5136.68531574
5132.19923968
5125.75234629
5117.79630098
5109.30071325
5100.74372122
5092.32929589
5084.20473405
5076.48672378
5069.77202113
5065.16646375
5062.90568457
5062.09705179
5061.13789524
5059.77863508
5058.86853702
5143.91613513
5142.70678221
5140.17844003
5136.42798939
5131.77394552
5126.323216
5119.97284422
5112.957446
5105.66750153
5098.37552397
5091.16850058
5084.31415876
5077.9256678
5072.30576059
5067.81020721
5064.28088056
5061.27107611
5058.74650927
5057.03991993
5056.15971956
5142.42245304
5141.16519312
5138.58620727
5134.77003041
5129.88627939
5124.13232985
5117.72969423
5110.90185894
5103.86984233
5096.81312096
5089.93181178
5083.33341213
5077.24293433
5071.72848235
5066.88599592
5062.81296244
5059.43840014
5056.89084111
5055.20384407
5054.30241438
5141.64649932
5140.3274463
5137.6982486
5133.85152746
5128.94838469
5123.17942207
5116.76027934
5109.9108175
5102.86945664
5095.74461623
5088.8151794
5082.32260172
5076.25304191
5070.74887344
5065.90404179
5061.78834936
5058.44009251
5055.9055169
5054.20566881
5053.33963644
4891.43525869
4890.24386947
4887.93694168
4884.73509662
4881.29564018
4877.4299876
4872.28761217
4866.08421992
4859.59237046
4853.2144023
4846.89274911
4840.98978568
4835.55876029
4830.81428761
4827.27811101
4824.96230851
4822.93109182
4820.93315453
4819.50120074
4818.76204957
4890.17171455
4888.89405726
4887.34521541
4887.03415999
4887.38571394
4885.63850039
4879.97795629
4871.39624168
4862.01660702
4852.79506647
4843.97205509
4835.41139817
4827.29949323
4820.34079497
4816.40473503
4816.28675746
4818.0376948
4818.8156635
4818.08372842
4817.29229511
4887.74937818
4887.33952943
4890.23492811
4897.23805901
4903.07130204
4902.55655047
4894.3700949
4881.17446065
4866.72482767
4852.52066347
4838.7337923
4825.12777828
4812.09301634
4800.70212808
4794.37348177
4795.52186995
4802.72335033
4810.77712343
4814.38457873
4814.39137911
4884.4792488
4887.88435886
4899.58691976
4914.83455313
4924.38636296
4923.11496243
4910.84684655
4891.91137403
4871.4201412
4851.15400182
4831.19273207
4812.07737477
4793.30515719
4776.49925757
4766.35550036
4766.90386571
4777.82895073
4793.99931315
4806.28599677
4810.03845997
4881.48894321
4891.39076047
4912.34686715
4933.58370261
4944.70911812
4941.14384284
4924.23928387
4899.877949
4874.16981952
4849.01034446
4824.19100455
4799.29486311
4775.28271414
4753.33834976
4738.83476054
4737.31114581
4749.90049603
4771.96625184
4793.33337101
4803.47842752
4878.88943351
4895.13670051
4922.70350206
4947.46321675
4958.49433964
4951.79103683
4930.36242385
4901.67432712
4872.56383249
4844.53359
4817.21247871
4788.95433951
4761.560367
4735.71424133
4717.08527326
4712.67551255
4725.28605012
4750.82087315
4778.61972924
4794.98429538
4875.1951277
4895.26024424
4926.16614681
4952.4609391
4962.89756039
4953.68280559
4928.76483649
4896.27829768
4865.00725655
4834.95860226
4804.84110487
4778.31065153
4752.0332279
4724.91223699
4703.43296393
4696.57281409
4708.51553664
4735.4390115
4766.4094798
4786.50381365
4869.9648996
4891.04997698
4922.84506908
4949.55561289
4959.85106045
4950.04187843
4924.06521276
4891.20630042
4861.09744152
4833.25633004
4805.7827474
4779.51767667
4751.02820362
4719.50127455
4695.89448562
4687.72603222
4699.09384205
4726.14603581
4757.82988097
4778.90676064
4864.10840033
4885.15262965
4917.041104
4943.85300688
4954.29059947
4944.65565926
4918.81080841
4885.69155864
4856.08651397
4829.09346028
4801.59848243
4774.69053143
4746.35716546
4713.4317322
4689.72501018
4681.15644561
4692.1839594
4719.03375219
4750.67988022
4771.70243822
4858.16668799
4879.36038787
4911.28184729
4938.16730147
4948.76856968
4939.35810283
4913.97182931
4880.64178647
4851.18929867
4824.37716161
4796.07192216
4769.17879327
4740.36817946
4706.53861865
4683.23380466
4674.3879573
4685.19522743
4711.93370787
4743.52412129
4764.52788061
4852.27213223
4873.6806567
4905.75923366
4932.6280364
4943.46604018
4934.33165171
4909.36285236
4876.78060447
4847.53682566
4819.92417473
4792.17942085
4764.12236251
4734.45800545
4700.87655666
4676.60932946
4667.58212479
4678.23469898
4704.9298737
4736.48347726
4757.49816011
4846.16839117
4866.59310022
4897.85891648
4924.59452175
4935.77705301
4927.77538681
4904.74188662
4877.16280412
4848.11357038
4819.08624591
4790.38502394
4758.84077106
4727.81245707
4695.37111105
4671.65207983
4663.23126806
4674.07607094
4700.44538994
4731.20130508
4751.27694812
4839.16290389
4855.7587406
4883.68608605
4908.86319156
4920.52890646
4914.71850821
4894.41777624
4867.13605736
4838.10720517
4809.38856944
4780.25477834
4750.6305332
4721.01524579
4692.56256705
4672.04263656
4666.17808008
4677.7239148
4702.66493343
4730.27164474
4746.70991014
4831.98790304
4842.16741274
4863.39334529
4884.8609802
4896.28758685
4893.05581401
4876.48778508
4852.32743606
4826.21379975
4800.09039261
4773.95110772
4747.84105025
4721.7821863
4697.6749686
4681.34955043
4678.52947558
4690.24202624
4711.79503806
4733.02484845
4743.3079693
4826.48470054
4830.04104989
4841.83528783
4857.09514301
4866.61973552
4865.29517788
4852.9299947
4833.77629351
4812.72222052
4791.59014519
4770.49858455
4749.54574626
4728.8161331
4710.13424395
4698.35872422
4697.67161331
4707.72611609
4723.42856231
4735.66863367
4739.51690629
4822.76135572
4822.40594193
4825.17628263
4831.9471109
4837.45722431
4836.53395548
4827.86087413
4814.03412708
4798.7035362
4783.32441622
4768.03679625
4752.97382002
4738.25114673
4725.2615836
4717.52821848
4717.51057822
4723.91205692
4731.54713192
4735.2319234
4735.301812
4819.86424087
4818.62676775
4816.83300511
4816.00740337
4815.7595676
4813.33822256
4806.90805918
4797.42513378
4786.96709995
4776.48840863
4766.17390935
4756.12548089
4746.48289364
4738.08362933
4732.84809143
4731.79222042
4732.92038103
4733.3712852
4732.48251114
4731.69638658
4817.66651663
4816.40387032
4813.81504777
4810.07100542
4805.85032189
4801.05416153
4794.89739339
4787.56815411
4779.79337314
4771.98431709
4764.43017981
4757.15393729
4750.31608464
4744.23502107
4739.52694911
4736.46402644
4733.86381038
4731.44112089
4729.76513835
4728.95586247
4816.18705734
4814.88527249
4812.24738829
4808.35700201
4803.39050088
4797.5501668
4791.05521808
4784.12964569
4776.98934943
4769.8599145
4762.93791861
4756.32833391
4750.19253193
4744.62357266
4739.69994653
4735.44816517
4732.13875898
4729.60578559
4727.91506255
4727.09813212
4815.42794398
4814.07377923
4811.38956551
4807.47050904
4802.48278114
4796.6214959
4790.10139575
4783.15028524
4775.97233171
4768.83839926
4761.87738971
4755.28836585
4749.16606851
4743.62993227
4738.74950079
4734.59339188
4731.23659567
4728.69377903
4726.9891055
4726.12565824
4567.15461471
4565.94741439
4563.59448491
4560.38831845
4556.99782978
4553.1034684
4547.79668432
4541.34702805
4534.59052292
4527.97408722
4521.54869523
4515.34773169
4509.71069271
4504.79557498
4501.18090696
4498.94666875
4497.06129076
4495.10984992
4493.6624754
4492.92234795
4565.85764087
4564.56600313
4563.16468599
4563.20715841
4563.87075583
4562.1819085
4556.26191065
4547.22932455
4537.35582831
4527.62559405
4518.23281765
4509.32091887
4500.79740441
4493.46290665
4489.31703599
4489.2953763
4491.43583621
4492.68754619
4492.17976
4491.38612966
4563.36173037
4563.16065474
4566.72398538
4574.50456566
4580.71973412
4580.12857692
4571.47885395
4557.57744339
4542.36244363
4527.38447954
4512.868535
4498.61691281
4484.96201341
4472.98529746
4466.22285209
4467.27581304
4474.85227949
4483.72120594
4488.08836183
4488.35594765
4560.08760265
4564.22992531
4577.12092065
4593.22656319
4603.06393776
4601.54937878
4588.62494439
4568.75361545
4547.28254155
4526.07579264
4505.16502746
4485.1730906
4465.6868919
4448.15709643
4437.35731883
4437.55476607
4448.67438025
4465.66434878
4479.17103165
4483.7064681
4557.26433915
4568.42773054
4590.79187928
4612.83647686
4624.07657813
4620.03138034
4602.28292083
4576.80743416
4549.99579936
4523.66399775
4497.73016357
4472.01408484
4447.4577343
4424.79604064
4409.40673718
4407.18676772
4419.7015509
4442.46603259
4465.20380132
4476.61537812
4554.85167727
4572.74505282
4601.74074273
4627.19909747
4638.07253916
4630.47443127
4607.95164137
4578.13687701
4548.68648817
4520.2947024
4492.56974589
4463.75966248
4434.96775498
4407.7932721
4387.75363972
4382.13589352
4394.35062901
4420.43050533
4449.59358865
4467.57434654
4551.17916009
4573.09797861
4605.42555859
4632.30578024
4642.2970754
4631.58203607
4604.93113298
4568.48350781
4536.71065779
4506.95617815
4478.99303425
4451.66069669
4424.8957231
4397.50984266
4374.28257281
4365.78519539
4377.12569841
4404.49172379
4436.8139015
4458.70333173
4545.82857169
4568.82908901
4602.04676848
4629.3191267
4639.12208786
4627.76598944
4599.52337662
4560.32190019
4530.71270678
4505.98511485
4480.84661577
4456.34888559
4429.30139028
4392.68860249
4366.92614916
4356.80316046
4367.46214709
4394.91591159
4427.94613674
4450.86984255
4539.80481774
4562.76875845
4596.08693109
4623.46773395
4633.42716965
4622.25138612
4593.6930646
4553.53142107
4525.5412091
4501.28571808
4476.67795413
4451.77458666
4426.0479591
4386.64962128
4360.88234381
4350.0914213
4360.38449586
4387.6377797
4420.60105372
4443.47924665
4533.78690861
4556.74635791
4590.17776685
4617.63764166
4627.74598828
4616.77460322
4589.17644948
4547.690545
4521.6377469
4496.70317459
4471.60260826
4446.62866426
4419.46893286
4379.68890825
4354.74627972
4343.2078266
4353.20715943
4380.35044959
4413.27748338
4436.13342893
4527.72172331
4550.98353401
4584.49938735
4611.97013898
4622.3093468
4611.69819861
4584.65756606
4545.4248955
4518.48899084
4493.09285734
4467.21409864
4441.18855524
4412.66158168
4373.87509134
4347.79354869
4336.28457669
4346.10674469
4373.19305078
4406.12147437
4428.9624327
4521.44932939
4543.70327169
4576.39325986
4603.72901433
4614.55072383
4605.34059871
4580.41100793
4554.15976169
4525.14471079
4495.86355924
4464.9635408
4434.08408424
4402.75981542
4368.48299166
4342.65005058
4331.88159869
4341.90307532
4368.68199773
4400.87511108
4422.65843495
4514.16625494
4532.40652766
4561.74911385
4587.583028
4599.03888497
4592.28296015
4570.57488487
4542.20496531
4512.22114213
4482.48177978
4452.54345619
4422.25253696
4392.23182074
4363.21522048
4341.4101432
4334.44422574
4345.63058249
4371.17849094
4400.23998395
4418.21428626
4506.57558266
4518.02699864
4540.64286774
4562.86281753
4574.32530816
4570.54421833
4553.06825665
4528.05993018
4501.05081232
4474.02713771
4446.97069119
4419.90658214
4392.84109374
4367.68498106
4350.4180064
4346.90905341
4358.6118534
4380.96075234
4403.64350434
4415.10332125
4500.68137241
4504.99185936
4517.98960607
4534.06347773
4543.81698534
4542.18994274
4529.15483027
4509.19007719
4487.22491765
4465.20108906
4443.20107446
4421.33645698
4399.67212163
4380.06948437
4367.60706226
4366.61577307
4376.95493155
4393.55865608
4407.03835692
4411.55495618
4496.79967304
4496.64782073
4500.12081074
4507.65106626
4513.50226894
4512.45719488
4503.29628491
4488.79140934
4472.72369934
4456.5902969
4440.57163638
4424.78887682
4409.34966603
4395.69906056
4387.53216668
4387.51687995
4394.39504717
4402.91519498
4407.22526738
4407.39019498
4493.89084377
4492.58272904
4490.92271565
4490.47535866
4490.53293193
4488.13049811
4481.40432298
4471.44740363
4460.47940632
4449.49886349
4438.68408772
4428.16700859
4418.07300157
4409.296141
4403.9214245
4402.95808607
4404.45595733
4405.3394722
4404.69387782
4403.75983345
4491.6942411
4490.3681825
4487.6728478
4483.8657205
4479.67951094
4474.85536661
4468.51518568
4460.91331212
4452.85395073
4444.7857292
4436.97021921
4429.46728514
4422.43030747
4416.21876329
4411.5383999
4408.43071415
4405.92763261
4403.55694655
4401.90282368
4400.97691734
4490.22762833
4488.86756004
4486.12469512
4482.0860154
4476.94439353
4470.91002011
4464.21410654
4457.09114686
4449.76997318
4442.47086567
4435.39944169
4428.68135346
4422.45945007
4416.83110554
4411.88941477
4407.71222145
4404.27486534
4401.70545263
4400.03146721
4399.07812751
4489.48273462
4488.07339361
4485.28229385
4481.21808168
4476.05365404
4469.99529003
4463.2705322
4456.11476762
4448.7598374
4441.44077028
4434.33831572
4427.62094056
4421.40196087
4415.79309031
4410.86715736
4406.68383975
4403.28953507
4400.72391792
4399.01304662
4398.12956465
4243.93139312
4242.68702698
4240.25957094
4236.95697318
4233.45230144
4229.40245559
4223.89676074
4217.22161629
4210.236651
4203.40894023
4196.84186237
4190.43757005
4184.6433245
4179.58674932
4175.86136414
4173.56819993
4171.66020283
4169.67568384
4168.19246816
4167.43442568
4242.57601192
4241.22392049
4239.77679046
4239.80307434
4240.4220561
4238.61177996
4232.47758009
4223.16365225
4212.99528021
4202.97796045
4193.2999541
4184.21575412
4175.50875351
4167.99863341
4163.7065648
4163.61398285
4165.77943653
4167.11273865
4166.63271811
4165.8037114
4239.96666996
4239.74241476
4243.38075533
4251.25373927
4257.45302451
4256.72713319
4247.82143279
4233.55119729
4217.94246474
4202.57333428
4187.70484162
4173.25428906
4159.41322834
4147.23897935
4140.2751726
4141.18606992
4148.75138348
4157.75447621
4162.27800623
4162.57724059
4236.55643335
4240.80586433
4253.89913388
4270.12633898
4279.95351298
4278.29508234
4265.07548697
4244.70703419
4222.70284807
4200.96194667
4179.63840745
4159.35947054
4139.81239139
4122.14387805
4111.09583083
4111.05568527
4122.07977525
4139.166585
4152.91538032
4157.61498617
4233.60755388
4245.00833477
4267.63195129
4289.80846351
4301.02977204
4296.81757986
4278.75841167
4252.59480442
4224.98311485
4197.62407081
4170.54045725
4144.7801607
4120.93346976
4098.53902864
4082.89884495
4080.32430185
4092.63551402
4115.42936448
4138.41971016
4150.11266416
4231.04719196
4249.27737313
4278.54585656
4304.12272977
4314.9181338
4307.0691991
4284.41610353
4254.35233172
4225.19217647
4196.73395397
4168.58792238
4138.90356918
4108.88114856
4081.51881791
4061.0755949
4054.94146919
4066.84740777
4092.89175435
4122.29328404
4140.64213052
4227.17770042
4249.48865908
4282.09213091
4309.05874794
4318.85862592
4307.62229705
4280.83619848
4235.65912531
4204.14118836
4174.35014353
4146.05603245
4118.22878373
4089.99561808
4069.59338664
4047.14426152
4038.17945672
4049.21021195
4076.5170886
4109.07482831
4131.38092268
4221.59793486
4245.00812334
4278.511639
4305.88990789
4315.61337663
4304.42480429
4275.80693944
4065.52922391
4039.57928039
4028.89640358
4039.2080137
4066.58767405
4099.85041099
4123.18694788
4215.34375474
4238.71383759
4272.32602651
4299.82194622
4309.77034468
4298.99417465
4270.77774936
4059.41518456
4032.66158274
4021.79202933
4031.80268363
4059.00364833
4092.20909741
4115.53445107
4209.12442253
4232.46925901
4266.20548343
4293.77807484
4303.89402591
4293.38273699
4264.93618693
4052.36327018
4025.75906392
4014.56250003
4024.33362487
4051.43526655
4084.62229417
4107.94219146
4202.8581863
4226.53284015
4260.31719278
4287.96833877
4298.21781174
4287.88363762
4259.94417717
4046.11146467
4018.75981789
4007.45427724
4017.01115335
4044.0531604
4077.2551606
4100.57486671
4196.41313996
4219.08671577
4252.05846696
4279.50246899
4290.28588949
4281.21718995
4255.71768449
4236.60366453
4207.55233406
4178.07256449
4148.12968363
4117.50774205
4082.74424516
4042.59882869
4015.50896897
4003.11860709
4012.68644068
4039.39839673
4071.8666914
4094.1340128
4188.95668017
4207.57142668
4237.17752606
4263.08911494
4274.43138844
4267.41566524
4245.11174517
4216.70123394
4186.20828215
4155.58251365
4124.68031362
4093.86572785
4063.40488151
4034.884466
4012.52000884
4005.22539057
4016.22903284
4041.84270712
4071.23003743
4089.59439932
4181.18332595
4192.91703093
4215.7739339
4238.05564485
4249.40895178
4245.37608148
4227.53000194
4202.32468838
4174.98580345
4147.49601445
4120.02125133
4092.57063562
4064.92005615
4039.13954
4021.43075783
4017.61925241
4029.1798155
4051.70166979
4074.73793936
4086.46990589
4175.12916396
4179.59498373
4192.78398833
4208.90549713
4218.55145179
4216.67883163
4203.29291344
4182.97342911
4160.61298626
4138.10496972
4115.66608057
4093.37954709
4071.27989807
4051.25329927
4038.47942557
4037.31173687
4047.66140213
4064.47835953
4078.26014367
4082.96301084
4171.16282447
4171.02817607
4174.57358645
4182.12244058
4187.85718066
4186.5652766
4177.05448144
4162.1507965
4145.65637663
4129.10295098
4112.6940799
4096.55369528
4080.78567007
4066.84297573
4058.48148326
4058.40933316
4065.36382121
4074.08124478
4078.54861731
4078.76480744
4168.23465697
4166.8647226
4165.12960803
4164.61013542
4164.52673274
4161.88391557
4154.82665909
4144.49250615
4133.14542662
4121.80370006
4110.66095344
4099.86219722
4089.52943116
4080.56480423
4075.08972994
4074.1259092
4075.6973169
4076.67815706
4076.04683871
4075.07083867
4166.0351784
4164.65095566
4161.80989583
4157.80875818
4153.4115853
4148.32811004
4141.67366478
4133.73443182
4125.35187501
4117.00727261
4108.90272506
4101.18591338
4093.98405207
4087.65491679
4082.88459864
4079.77203812
4077.26833443
4074.8925156
4073.194636
4072.23543415
4164.57677382
4163.15507525
4160.26544402
4156.00403301
4150.58549938
4144.23919851
4137.21529995
4129.76793664
4122.14542858
4114.57639547
4107.26374356
4100.3635795
4094.00435248
4088.28268421
4083.27542154
4079.03615688
4075.58329419
4072.98569832
4071.2722643
4070.30777252
4163.83867675
4162.35526062
4159.40839465
4155.12296286
4149.68378311
4143.3148652
4136.26296392
4128.78366217
4121.12530116
4113.52858759
4106.19341372
4099.28495744
4092.92498282
4087.21340174
4082.21641016
4077.98254431
4074.5494332
4071.95329818
4070.231524
4069.31883257
3921.81378006
3920.51338725
3917.97903675
3914.52307575
3910.82618158
3906.55807361
3900.81728358
3893.89630019
3886.66953018
3879.61648854
3872.83361166
3866.24311718
3860.28205
3855.06886174
3851.18934809
3848.75416748
3846.72542292
3844.65157603
3843.11211845
3842.32378433
3920.37542472
3918.93661117
3917.36228353
3917.22190404
3917.645097
3915.6244276
3909.26356397
3899.69983524
3889.2783798
3879.0185703
3869.1459389
3859.91386602
3851.07178995
3843.4205817
3838.97409023
3838.72601389
3840.75963789
3841.99454669
3841.44380709
3840.56077955
3917.6112425
3917.27857946
3920.76654543
3928.46331938
3934.48060558
3933.56974322
3924.45234429
3909.90935189
3894.01302097
3878.36592804
3863.26547809
3848.7387934
3834.81793438
3822.53076616
3815.40832514
3816.1317855
3823.52793279
3832.40237161
3836.83535569
3837.06511767
3913.98041385
3918.10546129
3931.03398593
3947.09715356
3956.77766925
3954.97234563
3941.55597523
3920.83790846
3898.43876625
3876.30729151
3854.87870013
3834.48399002
3814.97251831
3797.23639064
3786.0239537
3785.75241728
3796.55570747
3813.46817259
3827.09982478
3831.72611308
3910.75488733
3922.01892637
3944.47975593
3966.51971944
3977.63565731
3973.31514246
3955.0948645
3928.4097572
3900.06168204
3871.75868155
3844.6263628
3819.11685177
3795.70380987
3773.33890279
3757.54920819
3754.70104531
3766.73935618
3789.31172313
3812.15886961
3823.77332938
3907.88035671
3925.96781546
3955.08290194
3980.54203309
3991.24398582
3983.28616979
3960.70114167
3930.77670068
3901.76854239
3873.13582475
3844.06284734
3813.70952703
3783.36872719
3756.04698937
3735.36014294
3728.91240956
3740.51232827
3766.3024662
3795.54631618
3813.81776604
3903.68394878
3925.84767897
3958.30293951
3985.14687724
3994.79633302
3983.13077328
3956.15349774
3908.06634812
3876.85111174
3847.40641476
3819.01223011
3790.90677528
3763.10365521
3743.56103151
3720.84244696
3711.63410779
3722.38651606
3749.4333224
3781.83353602
3804.0724347
3897.78601027
3921.04237636
3954.40787235
3981.68117221
3991.35610781
3980.14822321
3950.60342685
3740.2631376
3713.11506031
3701.94859712
3711.92851643
3739.03515614
3772.14818489
3795.44184889
3891.23354551
3914.43607071
3947.91942295
3975.30175106
3985.23556582
3974.42317053
3944.39453465
3734.10700797
3705.6166403
3694.37293168
3704.07991171
3731.02366034
3764.09307
3787.37902377
3884.69985538
3907.95802302
3941.53708581
3968.95873159
3979.06951391
3968.52181263
3938.26449627
3726.82043637
3698.07998364
3686.69153875
3696.20921106
3723.07999074
3756.15591948
3779.45333699
3878.17849316
3901.77141078
3935.39641431
3962.94334784
3973.18100385
3962.93004449
3933.27043325
3719.62763307
3690.54218714
3679.23944028
3688.56466173
3715.39476169
3748.50368514
3771.82089181
3871.54449141
3894.12328473
3926.95584073
3954.28414999
3965.03823445
3956.16134666
3930.21771429
3914.3493817
3884.26976006
3854.73137877
3823.54627445
3792.30372158
3757.64221248
3715.89733352
3688.14637273
3674.8237991
3684.01081682
3710.50644815
3742.89220781
3765.1779417
3863.92565874
3882.44525759
3911.89299494
3937.63956205
3948.84281826
3941.70101371
3919.09432014
3890.60132075
3859.36651855
3828.12404901
3796.44705479
3765.25175772
3734.68470341
3706.59285641
3683.91817667
3676.41111494
3687.26473015
3712.74522943
3742.0915366
3760.47968238
3856.03119135
3867.66892402
3890.34539504
3912.40998232
3923.54897236
3919.29580416
3901.18613577
3875.87652329
3848.31608446
3820.49286833
3792.71224456
3764.9637243
3736.86072638
3710.60559455
3692.61169885
3688.59487167
3700.03145521
3722.47087874
3745.49867352
3757.25383424
3849.89200758
3854.26785388
3867.26075874
3883.11904975
3892.48125791
3890.30534015
3876.58866222
3855.95840846
3833.24436356
3810.36635996
3787.59510399
3765.01119493
3742.63028635
3722.3465774
3709.38887763
3708.08660082
3718.367984
3735.162429
3748.93501643
3753.63633561
3845.87306036
3845.65633992
3848.99987432
3856.25432935
3861.64935325
3859.98866377
3850.08595348
3834.78477878
3817.88873216
3800.95922735
3784.22070982
3767.80871612
3751.82224246
3737.70773827
3729.22696912
3729.08195562
3736.00430371
3744.70846378
3749.15243412
3749.36280706
3842.91804174
3841.47213448
3839.54020455
3838.71420099
3838.2583478
3835.20478761
3827.71589711
3816.94779604
3805.18436217
3793.46598155
3781.99938085
3770.94659931
3760.42520784
3751.32785745
3745.7681299
3744.75254221
3746.30299749
3747.26663121
3746.57854392
3745.58862102
3840.71096414
3839.25305356
3836.21913716
3831.91486682
3827.13507239
3821.62064304
3814.5131584
3806.12409278
3797.31986496
3788.6104351
3780.17336086
3772.20785112
3764.82800417
3758.37910111
3753.52740235
3750.37065192
3747.83417551
3745.42668039
3743.67491185
3742.68883348
3839.25857098
3837.75480588
3834.6694451
3830.10729564
3824.3082117
3817.52825167
3810.04518205
3802.14199892
3794.09098943
3786.14440986
3778.50963133
3771.36080807
3764.82131129
3758.97691604
3753.88581317
3749.58298354
3746.08729991
3743.4686049
3741.69399488
3740.70934839
3838.52496823
3836.94211861
3833.78904844
3829.20359607
3823.38766325
3816.58916338
3809.0807856
3801.14646069
3793.06343304
3785.08010868
3777.42711155
3770.26617664
3763.72176719
3757.87965482
3752.79250101
3748.49398836
3745.01250935
3742.37284778
3740.61759436
3739.69660697
3600.85660996
3599.48167388
3596.80700204
3593.15460097
3589.21717973
3584.68042897
3578.65715413
3571.44744354
3563.94071752
3556.62606914
3549.52464334
3542.73607663
3536.56428134
3531.14869402
3527.07351038
3524.45333459
3522.26786966
3520.07686098
3518.4584351
3517.62902029
3599.311073
3597.76637608
3596.02932871
3595.67553024
3595.85202412
3593.56992103
3586.93554883
3577.07966534
3566.36321874
3555.81719768
3545.76185168
3536.30184424
3527.26538717
3519.42026642
3514.77019802
3514.32163071
3516.18371955
3517.2876731
3516.64051042
3515.69063121
3596.34865018
3595.88564811
3599.1825005
3606.65094109
3612.43182729
3611.28439816
3601.91310001
3587.06977333
3570.86035603
3554.91570475
3539.58956989
3524.91100551
3510.82772117
3498.35417297
3491.01151491
3491.49382241
3498.67481298
3507.38063025
3511.69486699
3511.84054314
3592.43798994
3596.41298057
3609.12953402
3624.97033797
3634.44545786
3632.43859071
3618.78884255
3597.73127224
3574.94636988
3552.44034968
3530.86858
3510.36722764
3490.72377825
3472.80347863
3461.3399026
3460.76829687
3471.29270845
3487.98537966
3501.46873198
3506.00666098
3588.86483842
3599.96228327
3622.20790454
3644.04739642
3654.99323905
3650.4991884
3632.07282913
3604.98687764
3576.04541332
3547.05260559
3519.84492762
3494.50231868
3471.06783804
3448.57243654
3432.49575048
3429.27941138
3440.97285319
3463.27207333
3485.94294801
3497.46257563
3585.5988148
3603.50837241
3632.41383704
3657.68645374
3668.22422643
3660.06785634
3637.36393505
3607.58893434
3578.4776311
3549.68643235
3519.82186057
3488.9302657
3458.4256761
3430.96809057
3409.8554088
3402.96426656
3414.16540309
3439.64275559
3468.69424756
3486.87222231
3580.99495124
3602.96921769
3635.2153791
3661.85851376
3671.28087915
3659.14229607
3631.62351843
3582.37773185
3551.4012955
3521.83344913
3493.11017897
3464.58948177
3437.38430743
3417.92287648
3394.76956745
3385.08594091
3395.41724387
3422.13199803
3454.33819963
3476.49325839
3574.70056974
3597.74804778
3630.90834967
3657.96975692
3667.42242256
3655.87509254
3624.44939082