/*--------------------------------*- C++ -*----------------------------------*\
| =========                 |                                                 |
| \\      /  F ield         | OpenFOAM: The Open Source CFD Toolbox           |
|  \\    /   O peration     | Version:  2.4.0                                 |
|   \\  /    A nd           | Web:      www.OpenFOAM.org                      |
|    \\/     M anipulation  |                                                 |
\*---------------------------------------------------------------------------*/
FoamFile
{
    version     2.0;
    format      ascii;
    class       volVectorField;
    location    "3.125";
    object      U;
}
// * * * * * * * * * * * * * * * * * * * * * * * * * * * * * * * * * * * * * //

dimensions      [0 1 -1 0 0 0 0];

internalField   nonuniform List<vector> 
4608
(
(0.00634476 0.136067 0)
(0.0165553 0.134796 0)
(0.0257354 0.132867 -2.17018e-26)
(0.0344003 0.130238 -2.14348e-26)
(0.0427082 0.127124 0)
(0.0506773 0.12354 0)
(0.0583821 0.119443 -8.49975e-26)
(0.0658659 0.114912 -4.16698e-26)
(0.0730017 0.110022 9.19302e-27)
(0.0798219 0.104686 -4.94285e-26)
(0.0866494 0.0988358 -9.37196e-26)
(0.0930077 0.0929505 -2.33779e-26)
(0.00366908 0.157298 0)
(0.0120499 0.156394 -8.238e-27)
(0.0210939 0.154426 9.52158e-28)
(0.0305501 0.151535 0)
(0.0401924 0.148015 7.32241e-26)
(0.0494295 0.144132 2.77602e-26)
(0.0584703 0.139719 -8.75095e-26)
(0.0673037 0.1347 0)
(0.0757073 0.129181 1.43964e-25)
(0.0837391 0.123258 -2.47445e-26)
(0.0918234 0.116473 -1.29004e-25)
(0.0994152 0.109346 0)
(0.00512886 0.177857 0)
(0.0147377 0.176423 4.11157e-26)
(0.0246291 0.173696 0)
(0.0352862 0.169978 3.06551e-26)
(0.046471 0.165534 5.52079e-26)
(0.0572265 0.160903 1.44177e-25)
(0.0676829 0.156059 1.52053e-25)
(0.0776852 0.15066 1.08311e-25)
(0.0872115 0.14444 1.40737e-25)
(0.0965178 0.137577 0)
(0.105716 0.130009 -1.50757e-25)
(0.114822 0.121751 0)
(0.00452559 0.198982 2.35961e-26)
(0.0141606 0.197678 4.96992e-26)
(0.0247115 0.195094 0)
(0.0367812 0.191211 2.33383e-25)
(0.0500741 0.186425 1.42e-26)
(0.0635315 0.18164 3.66992e-25)
(0.0762591 0.177164 1.88261e-25)
(0.0877216 0.172158 1.93213e-25)
(0.0987344 0.165849 0)
(0.109601 0.158477 3.80586e-25)
(0.119997 0.150042 -1.6287e-25)
(0.130289 0.140424 -1.53141e-26)
(0.00471935 0.219908 2.10643e-26)
(0.0149333 0.218926 1.09494e-25)
(0.0265698 0.216843 -1.12354e-25)
(0.0402812 0.213294 2.18917e-25)
(0.0560662 0.208102 0)
(0.072877 0.202423 1.62819e-25)
(0.0883535 0.198013 5.19863e-26)
(0.100847 0.193546 2.21173e-26)
(0.112863 0.186706 -3.77996e-27)
(0.124943 0.17911 8.39104e-25)
(0.136438 0.170281 5.03008e-25)
(0.148419 0.158886 -4.89871e-25)
(0.00576452 0.241153 0)
(0.0173967 0.241774 1.29004e-25)
(0.0302617 0.241215 -1.28439e-25)
(0.0448097 0.238169 -2.53651e-25)
(0.0625871 0.231679 5.7606e-26)
(0.0834062 0.223222 -4.78318e-26)
(0.100558 0.218065 1.02036e-25)
(0.11139 0.21596 1.66788e-26)
(0.124548 0.209813 1.76086e-26)
(0.139129 0.202047 1.05659e-24)
(0.151217 0.193894 5.65266e-25)
(0.164189 0.182957 -5.99842e-25)
(0.00861108 0.262548 -5.61455e-27)
(0.0225293 0.265948 -6.18468e-28)
(0.0358597 0.267983 0)
(0.0491946 0.266919 -3.05471e-25)
(0.0654504 0.260027 7.23056e-25)
(0.0877212 0.246398 -4.42751e-25)
(0.111681 0.234195 -4.9465e-25)
(0.128875 0.233176 -6.02753e-25)
(0.147311 0.230161 -5.79692e-25)
(0.161921 0.224206 6.13581e-25)
(0.176937 0.216334 -1.27256e-24)
(0.196219 0.204667 1.52301e-24)
(0.0147195 0.28443 0)
(0.0325857 0.292237 0)
(0.047292 0.298304 3.39549e-25)
(0.0604171 0.302171 0)
(0.0762272 0.300709 8.25907e-25)
(0.0984743 0.28968 -1.41115e-26)
(0.125353 0.26377 -5.59658e-25)
(0.143842 0.245783 -5.47665e-25)
(0.159036 0.237237 -5.84882e-25)
(0.175302 0.233709 -1.35328e-24)
(0.198079 0.230328 -1.43164e-24)
(0.222445 0.220116 1.42796e-24)
(0.0246106 0.306297 7.94048e-26)
(0.0463963 0.31781 3.69149e-25)
(0.0622565 0.3249 5.18828e-35)
(0.0743309 0.33153 6.39858e-27)
(0.0883665 0.333172 4.42626e-26)
(0.10503 0.330684 -7.60791e-27)
(0.128215 0.315955 -1.92549e-24)
(0.156398 0.291918 -7.16801e-27)
(0.181415 0.273043 1.33358e-25)
(0.204131 0.256123 -1.33215e-24)
(0.221119 0.244373 -3.36126e-26)
(0.236091 0.233852 -1.4991e-24)
(0.0362019 0.32784 1.16338e-35)
(0.058995 0.340257 3.63088e-25)
(0.0743926 0.341521 -3.74271e-25)
(0.0847665 0.345246 0)
(0.0988568 0.345467 -1.4788e-26)
(0.116953 0.346208 8.45443e-25)
(0.141064 0.340042 -1.92078e-24)
(0.16738 0.32388 0)
(0.191135 0.303457 1.81195e-24)
(0.212118 0.281927 0)
(0.229357 0.261805 3.54343e-26)
(0.245762 0.241877 -3.02739e-24)
(0.0539336 0.347594 -3.99431e-26)
(0.0669855 0.351537 3.53412e-25)
(0.0775946 0.338915 6.95373e-25)
(0.0855834 0.335098 6.42159e-25)
(0.0986883 0.330267 -1.02833e-25)
(0.115467 0.329688 3.1975e-24)
(0.136462 0.326324 0)
(0.160413 0.31536 -1.3219e-25)
(0.184035 0.2981 1.41714e-24)
(0.204997 0.278234 0)
(0.221772 0.257374 -1.45923e-24)
(0.236715 0.236934 -1.42177e-24)
(0.0240937 0.334853 1.54828e-25)
(0.037159 0.326275 -2.29307e-34)
(0.0525687 0.299866 2.00645e-34)
(0.0646025 0.291836 6.48791e-25)
(0.0808583 0.28525 1.39089e-24)
(0.0992381 0.283608 2.60987e-24)
(0.118426 0.282852 1.23115e-24)
(0.13945 0.278215 0)
(0.161886 0.26763 0)
(0.180935 0.254451 0)
(0.195469 0.237081 -1.26978e-24)
(0.209477 0.218256 -2.27706e-24)
(0.0989879 0.0867837 -4.27536e-26)
(0.104867 0.0801617 -4.11818e-26)
(0.110411 0.0733791 -1.50041e-25)
(0.115527 0.0664288 1.63195e-25)
(0.120867 0.0585841 0)
(0.12584 0.0508402 1.90156e-27)
(0.130053 0.0431075 7.88116e-26)
(0.133235 0.0351886 0)
(0.135385 0.026742 0)
(0.136496 0.0181439 0)
(0.136719 0.00978295 1.07291e-26)
(0.136294 0.00243356 4.79399e-27)
(0.106698 0.102116 3.98873e-26)
(0.114212 0.0944629 -1.67497e-27)
(0.121665 0.0868236 -1.13346e-25)
(0.129659 0.0788661 -7.02899e-28)
(0.138209 0.0705 -5.34532e-26)
(0.146036 0.0627212 2.34469e-26)
(0.152257 0.055435 1.5568e-25)
(0.155986 0.0482498 3.4872e-27)
(0.157636 0.0400995 -7.88828e-26)
(0.157957 0.0308429 0)
(0.157527 0.0201463 2.06403e-26)
(0.157034 0.00766361 9.37561e-27)
(0.123732 0.11304 -3.04348e-25)
(0.132729 0.103453 0)
(0.142006 0.0936005 0)
(0.151738 0.0827171 -1.63356e-25)
(0.162659 0.0711386 0)
(0.173134 0.0626283 -3.02883e-25)
(0.178924 0.0577792 -2.36935e-25)
(0.180908 0.0525143 -2.31354e-25)
(0.181666 0.0454098 -9.55126e-26)
(0.181333 0.0362487 0)
(0.180132 0.0243779 4.63347e-26)
(0.178643 0.00926265 -2.10418e-26)
(0.140659 0.129884 -4.35292e-25)
(0.152195 0.117869 -8.03422e-26)
(0.164271 0.10545 -3.2067e-25)
(0.176812 0.0916915 4.68987e-25)
(0.190303 0.0759268 -2.48434e-25)
(0.197548 0.0669463 -1.77464e-25)
(0.198408 0.064322 -2.75656e-25)
(0.199029 0.060414 -2.65544e-25)
(0.200414 0.0532631 2.27552e-25)
(0.201536 0.0441912 0)
(0.201614 0.0317761 4.3083e-26)
(0.1999 0.0138556 -8.04444e-26)
(0.160103 0.145906 4.37305e-25)
(0.172929 0.130857 -4.58839e-25)
(0.185902 0.115935 -6.0718e-25)
(0.198122 0.100291 4.47848e-25)
(0.207504 0.083188 2.37043e-25)
(0.208862 0.0737372 1.78145e-25)
(0.20769 0.0692344 -2.50571e-25)
(0.208915 0.0635101 -3.33697e-26)
(0.212934 0.0553879 2.74134e-25)
(0.217898 0.0477104 1.1515e-25)
(0.221639 0.0379143 -1.33989e-25)
(0.221554 0.0213843 -3.19053e-26)
(0.177802 0.171236 6.376e-25)
(0.19372 0.154375 -5.67711e-25)
(0.206858 0.13721 -2.87315e-25)
(0.215958 0.117657 1.59368e-25)
(0.223462 0.0971171 0)
(0.221974 0.0878082 -7.26215e-25)
(0.214897 0.0798258 -1.26271e-25)
(0.213272 0.0623647 -2.26738e-25)
(0.21774 0.0487872 0)
(0.22641 0.0430096 1.22884e-25)
(0.234223 0.034749 -1.36628e-25)
(0.240699 0.0204491 4.09754e-26)
(0.215475 0.192976 0)
(0.233378 0.176245 0)
(0.242609 0.159442 -1.27872e-24)
(0.246128 0.141709 0)
(0.240202 0.120925 2.96913e-25)
(0.221941 0.10633 -4.37252e-25)
(0.212623 0.0910419 8.22288e-25)
(0.2026 0.0728465 2.19775e-25)
(0.194711 0.039277 2.82269e-25)
(0.209836 0.0221504 -1.0892e-25)
(0.234956 0.0158981 3.53633e-26)
(0.256838 0.00804554 9.24331e-27)
(0.241419 0.207672 2.69985e-25)
(0.251506 0.193308 1.92058e-24)
(0.254224 0.179786 9.03731e-25)
(0.254429 0.16585 -1.39753e-24)
(0.250921 0.153083 -1.36527e-24)
(0.244638 0.142951 -7.66505e-25)
(0.24267 0.120259 7.58626e-25)
(0.238444 0.110142 1.48625e-24)
(0.229337 0.0582369 0)
(0.233576 0.00846634 -6.49745e-26)
(0.255938 -0.00880818 2.07855e-26)
(0.276963 -0.0101403 2.78802e-26)
(0.24809 0.225176 1.77846e-24)
(0.259177 0.213852 1.68187e-24)
(0.269108 0.201127 1.64548e-24)
(0.276856 0.187568 -1.42048e-24)
(0.279984 0.175699 -1.6167e-24)
(0.285314 0.167424 -8.27724e-25)
(0.287579 0.147385 6.28671e-25)
(0.283292 0.138438 1.3458e-24)
(0.2755 0.0882967 5.17133e-26)
(0.270035 0.0091114 0)
(0.284565 -0.0240933 1.59021e-25)
(0.298406 -0.024904 8.58722e-26)
(0.257862 0.225885 1.58018e-24)
(0.268436 0.21245 -3.21982e-26)
(0.276881 0.200269 0)
(0.282923 0.187354 -1.43111e-24)
(0.287378 0.175229 0)
(0.293802 0.165912 0)
(0.305659 0.154511 8.84594e-25)
(0.315978 0.1565 8.26515e-28)
(0.310764 0.126682 -3.8322e-26)
(0.298862 0.0211511 7.09125e-25)
(0.307097 -0.0308504 7.64347e-26)
(0.317113 -0.0363302 4.01364e-26)
(0.245707 0.219721 9.7944e-26)
(0.25263 0.204442 -1.28292e-24)
(0.257333 0.191648 0)
(0.259404 0.177972 -1.20905e-24)
(0.260984 0.162504 1.6813e-25)
(0.265149 0.144251 0)
(0.287262 0.129724 -1.26989e-24)
(0.316074 0.143375 -6.53206e-25)
(0.337576 0.150244 -8.65131e-26)
(0.332733 0.0446891 1.93771e-24)
(0.321722 -0.0305911 0)
(0.331044 -0.0515679 4.30655e-26)
(0.216414 0.202537 -2.06373e-24)
(0.222112 0.186863 -9.36342e-25)
(0.224735 0.176926 0)
(0.223137 0.167161 0)
(0.219206 0.154789 8.90577e-25)
(0.212205 0.127318 -8.06813e-25)
(0.217483 0.0835731 -1.40554e-24)
(0.254829 0.0744806 1.80784e-25)
(0.297027 0.121677 -1.86704e-24)
(0.345568 0.0702803 3.98408e-25)
(0.317476 -0.0206182 1.15896e-25)
(0.330516 -0.0735488 -1.46848e-26)
(0.136078 -0.00638515 4.88206e-27)
(0.135249 -0.0169148 -1.17035e-26)
(0.134213 -0.0264916 4.58468e-26)
(0.132707 -0.0355775 0)
(0.130629 -0.04441 -2.25156e-27)
(0.127908 -0.0529359 -6.79595e-27)
(0.124429 -0.0610895 3.84829e-26)
(0.120134 -0.0688109 0)
(0.114961 -0.0759517 -4.47574e-26)
(0.10899 -0.0821643 -4.6661e-26)
(0.10207 -0.088236 -1.36085e-27)
(0.095075 -0.0935338 6.68185e-26)
(0.157463 -0.00471615 9.02949e-27)
(0.157816 -0.0152722 -5.52578e-26)
(0.157936 -0.0261012 -5.35171e-26)
(0.157545 -0.0367696 1.07113e-25)
(0.15645 -0.0470812 -4.36626e-27)
(0.154443 -0.0567765 -2.54802e-26)
(0.151315 -0.0658001 0)
(0.147183 -0.0740174 0)
(0.142165 -0.0816464 2.36346e-25)
(0.136426 -0.0887702 2.04861e-25)
(0.129177 -0.0960554 -8.41582e-26)
(0.121187 -0.102541 2.30892e-25)
(0.178035 -0.00818295 -7.89389e-27)
(0.178433 -0.0227255 -8.93795e-26)
(0.178755 -0.0361254 -8.59919e-26)
(0.178664 -0.0487138 8.84218e-26)
(0.177936 -0.0602976 0)
(0.176339 -0.0709537 0)
(0.173866 -0.080923 0)
(0.170414 -0.0901135 0)
(0.165686 -0.0987234 -2.25932e-36)
(0.159695 -0.106973 2.03235e-25)
(0.152274 -0.115202 -2.01974e-25)
(0.143622 -0.123479 2.9791e-25)
(0.199256 -0.0102342 2.17089e-26)
(0.200335 -0.0280744 -3.79708e-26)
(0.201527 -0.0439195 3.53287e-26)
(0.20214 -0.0583761 -1.04591e-25)
(0.202065 -0.0713843 6.68429e-26)
(0.201172 -0.0833336 0)
(0.199327 -0.0944168 0)
(0.196293 -0.10483 0)
(0.191925 -0.114814 -7.59104e-25)
(0.186083 -0.124582 0)
(0.178364 -0.134522 1.50337e-25)
(0.168883 -0.145038 -4.78818e-26)
(0.220178 -0.0133828 7.43171e-26)
(0.221629 -0.0351014 -1.09191e-25)
(0.223267 -0.0535243 0)
(0.22451 -0.0697682 -4.20966e-25)
(0.22499 -0.0843367 3.33763e-26)
(0.224586 -0.0976541 -8.8131e-26)
(0.223251 -0.110009 0)
(0.220938 -0.121637 0)
(0.217718 -0.132799 -6.13212e-25)
(0.213268 -0.143924 0)
(0.206795 -0.155462 6.88288e-25)
(0.197396 -0.16953 0)
(0.241147 -0.0167824 1.92262e-36)
(0.24296 -0.0425512 -1.20933e-25)
(0.244913 -0.0636352 0)
(0.246435 -0.081609 1.6551e-34)
(0.246986 -0.0976028 -9.17553e-26)
(0.24659 -0.112401 -1.2335e-25)
(0.24528 -0.126615 0)
(0.243181 -0.14085 -1.30206e-25)
(0.240249 -0.155726 -8.99065e-26)
(0.236297 -0.17233 -6.29764e-25)
(0.231018 -0.191863 -1.07184e-24)
(0.221643 -0.213527 0)
(0.262091 -0.0203784 3.01158e-26)
(0.264094 -0.0501237 4.36174e-26)
(0.265944 -0.0736311 -2.04239e-25)
(0.267311 -0.0928985 4.68516e-25)
(0.267293 -0.10975 3.42261e-25)
(0.26588 -0.125341 -7.93414e-25)
(0.263112 -0.140405 -4.67849e-25)
(0.259051 -0.155504 9.05102e-26)
(0.253562 -0.170992 -9.67674e-25)
(0.246366 -0.186787 -7.32153e-25)
(0.237125 -0.2019 -8.32476e-25)
(0.228172 -0.213255 -1.56429e-25)
(0.283026 -0.0239741 6.56995e-26)
(0.284912 -0.0573015 -1.44609e-25)
(0.286248 -0.0829368 -3.02051e-25)
(0.287274 -0.102956 1.09697e-24)
(0.286219 -0.119854 9.73093e-25)
(0.283167 -0.135319 -9.33952e-25)
(0.278314 -0.150168 -3.74804e-25)
(0.271864 -0.164863 -2.09664e-25)
(0.26393 -0.179489 -1.20118e-24)
(0.254362 -0.193616 -2.50577e-25)
(0.243039 -0.206746 -1.0346e-25)
(0.23097 -0.217847 -1.72451e-25)
(0.304074 -0.0273207 -1.43301e-25)
(0.305305 -0.0630933 -1.5823e-25)
(0.304923 -0.0908918 -1.74554e-25)
(0.305839 -0.111246 8.84909e-25)
(0.303555 -0.127352 0)
(0.298468 -0.141859 2.71909e-25)
(0.291145 -0.155782 3.4535e-25)
(0.282088 -0.169611 1.23642e-24)
(0.271857 -0.183301 1.17833e-24)
(0.26058 -0.196143 0)
(0.248249 -0.208162 1.46658e-25)
(0.235315 -0.218513 1.01872e-25)
(0.326294 -0.0314377 -9.80553e-26)
(0.327746 -0.0677096 -5.00386e-26)
(0.322295 -0.0979027 2.17646e-25)
(0.321121 -0.118567 -3.34212e-25)
(0.317584 -0.131848 -3.28564e-25)
(0.310409 -0.144268 5.31114e-25)
(0.30043 -0.156654 2.50653e-25)
(0.288664 -0.169382 1.75041e-24)
(0.276191 -0.182209 2.85558e-24)
(0.263283 -0.193675 1.44e-24)
(0.249388 -0.20452 -1.52442e-25)
(0.234906 -0.213574 -1.67803e-24)
(0.349619 -0.0388419 1.85207e-25)
(0.35126 -0.0700735 -2.26002e-25)
(0.338045 -0.100574 8.42052e-25)
(0.332017 -0.121983 0)
(0.324507 -0.131994 1.35622e-24)
(0.31411 -0.14122 2.10409e-25)
(0.302389 -0.151388 3.12059e-25)
(0.288791 -0.162971 1.16219e-24)
(0.274991 -0.175223 1.06157e-24)
(0.26092 -0.18545 1.3263e-24)
(0.246011 -0.194969 -1.15207e-24)
(0.230967 -0.201866 -1.0328e-24)
(0.374179 -0.0349286 -1.51753e-25)
(0.370949 -0.0619948 -9.65544e-25)
(0.345793 -0.0918047 0)
(0.331034 -0.114902 0)
(0.31905 -0.121121 1.2587e-24)
(0.304514 -0.129316 -1.17487e-24)
(0.2909 -0.138878 -1.11558e-24)
(0.27682 -0.149373 2.15477e-24)
(0.262943 -0.161245 -1.34571e-24)
(0.249156 -0.169754 0)
(0.235224 -0.178351 -1.17079e-24)
(0.222818 -0.183048 -2.29685e-25)
(0.0878177 -0.0981295 1.15189e-25)
(0.0800513 -0.102615 -1.22904e-27)
(0.0720439 -0.10734 -1.18891e-25)
(0.0635357 -0.112905 -4.30665e-26)
(0.0566125 -0.117626 6.69198e-26)
(0.0491046 -0.122245 -1.18737e-35)
(0.041384 -0.126544 -8.3151e-26)
(0.0335137 -0.130193 3.16909e-27)
(0.0254453 -0.133029 6.0292e-26)
(0.0172904 -0.134992 -1.88214e-26)
(0.00929098 -0.136071 7.96289e-27)
(0.00221125 -0.136182 -3.05497e-27)
(0.112618 -0.108899 2.83405e-25)
(0.103108 -0.115483 1.11811e-26)
(0.09252 -0.121816 -1.13601e-26)
(0.0802228 -0.127763 3.27048e-25)
(0.0696071 -0.133157 1.34128e-25)
(0.0601219 -0.139503 -8.37465e-26)
(0.0517213 -0.145521 -1.10476e-26)
(0.0437202 -0.150502 1.43355e-26)
(0.0354506 -0.154176 1.83827e-25)
(0.0267895 -0.156409 1.83931e-26)
(0.0173685 -0.157287 -4.36784e-26)
(0.00659271 -0.157151 1.13672e-26)
(0.133924 -0.131795 4.31988e-26)
(0.123321 -0.139338 1.93486e-25)
(0.111539 -0.144626 -1.85307e-25)
(0.0964599 -0.148633 1.65782e-25)
(0.078798 -0.154926 0)
(0.0643323 -0.162264 -1.32446e-25)
(0.0528224 -0.169371 1.46525e-25)
(0.0444541 -0.174681 4.35217e-26)
(0.0359949 -0.177773 4.76186e-26)
(0.0277365 -0.179523 8.8942e-26)
(0.0190233 -0.179994 -9.12944e-26)
(0.00807941 -0.178769 1.10026e-26)
(0.159084 -0.155075 5.22234e-25)
(0.149871 -0.163384 3.86519e-25)
(0.141787 -0.164497 -7.94868e-26)
(0.123312 -0.166566 -3.71396e-25)
(0.0946325 -0.176397 2.67306e-25)
(0.0722308 -0.186808 -2.31238e-25)
(0.0571653 -0.194455 3.57374e-26)
(0.0513291 -0.196279 -2.05905e-25)
(0.0424781 -0.196482 -2.04939e-25)
(0.0340814 -0.197937 -6.0211e-26)
(0.0263109 -0.199719 -6.45052e-27)
(0.0156936 -0.200343 -9.61242e-27)
(0.1872 -0.184045 1.34353e-24)
(0.175355 -0.199605 -4.4324e-25)
(0.175845 -0.196097 0)
(0.155447 -0.199453 0)
(0.122262 -0.207627 8.31265e-25)
(0.0929548 -0.208826 2.47968e-26)
(0.0702221 -0.203944 1.54658e-25)
(0.0570322 -0.198994 2.13009e-26)
(0.0439923 -0.198463 1.96158e-25)
(0.0302114 -0.200091 -6.35044e-26)
(0.0180936 -0.205594 -5.18552e-27)
(0.00708218 -0.215875 -6.09998e-27)
(0.210393 -0.231229 6.26837e-25)
(0.201025 -0.22033 -8.22796e-25)
(0.188415 -0.208639 -8.15805e-25)
(0.174122 -0.218214 9.62549e-26)
(0.148392 -0.235192 7.80047e-25)
(0.126965 -0.243801 -6.40637e-25)
(0.103676 -0.243327 6.09369e-25)
(0.0810846 -0.2396 2.0523e-25)
(0.059232 -0.235379 4.95933e-25)
(0.0351351 -0.231605 0)
(0.0111726 -0.235323 0)
(-0.00177969 -0.240773 0)
(0.220015 -0.217356 0)
(0.231 -0.213907 2.62915e-24)
(0.221168 -0.237575 0)
(0.200099 -0.261616 0)
(0.170782 -0.279442 -1.83264e-26)
(0.15156 -0.28573 4.08603e-27)
(0.132806 -0.290611 8.47905e-25)
(0.111712 -0.291375 2.72969e-26)
(0.0884417 -0.288683 4.09886e-25)
(0.053464 -0.281866 -3.35057e-25)
(0.0161406 -0.273585 1.12941e-25)
(0.00231232 -0.265336 -5.78479e-26)
(0.219265 -0.227156 -1.59477e-24)
(0.215025 -0.236539 1.91794e-24)
(0.208288 -0.255892 1.79802e-24)
(0.195305 -0.275764 1.84134e-24)
(0.175346 -0.291715 1.79425e-24)
(0.157196 -0.302566 1.80115e-24)
(0.140527 -0.311285 -5.84912e-26)
(0.12372 -0.316853 -4.98558e-26)
(0.10555 -0.31793 -3.04614e-28)
(0.0806671 -0.31515 -8.9098e-25)
(0.04155 -0.302339 1.56681e-25)
(0.0197441 -0.287533 -8.94288e-26)
(0.222171 -0.228206 -1.69634e-24)
(0.211077 -0.238799 1.43524e-25)
(0.199549 -0.254655 3.36676e-24)
(0.185893 -0.271692 1.72564e-24)
(0.16933 -0.285893 1.67364e-24)
(0.15236 -0.297908 8.38243e-25)
(0.136884 -0.308799 -6.42097e-26)
(0.123052 -0.318388 5.3933e-26)
(0.109159 -0.325058 8.78375e-25)
(0.0912871 -0.329981 -5.0404e-25)
(0.06237 -0.319757 -1.2291e-26)
(0.02975 -0.30887 -9.17377e-27)
(0.219277 -0.222328 0)
(0.203667 -0.232055 -1.57235e-24)
(0.188154 -0.24632 -4.75318e-36)
(0.173985 -0.261797 0)
(0.159366 -0.273234 4.94077e-26)
(0.142172 -0.2839 2.03506e-26)
(0.126395 -0.295059 0)
(0.113995 -0.306016 0)
(0.103686 -0.314935 1.44469e-24)
(0.0935018 -0.321873 -7.62335e-25)
(0.0757836 -0.320357 0)
(0.0418014 -0.325553 -1.1094e-25)
(0.212962 -0.208298 -1.73391e-25)
(0.193075 -0.216032 -1.81409e-25)
(0.174066 -0.23045 -2.82903e-24)
(0.1607 -0.24802 0)
(0.150118 -0.257598 0)
(0.131747 -0.266775 0)
(0.114323 -0.27861 1.1855e-24)
(0.10184 -0.290228 0)
(0.0920266 -0.30064 1.2675e-24)
(0.083347 -0.311547 -4.52885e-35)
(0.0667842 -0.324437 -4.00073e-25)
(0.036697 -0.343342 -2.35071e-25)
(0.204789 -0.186209 0)
(0.17885 -0.19083 2.30734e-24)
(0.15372 -0.206307 -1.23127e-24)
(0.142112 -0.231011 8.40749e-25)
(0.142421 -0.239478 0)
(0.122801 -0.246947 1.14127e-24)
(0.101754 -0.261647 8.50515e-25)
(0.0900134 -0.273184 4.42071e-26)
(0.0799892 -0.281184 5.02251e-25)
(0.0678988 -0.291331 1.08191e-24)
(0.0444375 -0.311952 -3.28577e-26)
(0.00591818 -0.342078 -8.47227e-26)
(-0.00616785 -0.136012 7.72453e-27)
(-0.016607 -0.134992 7.74138e-27)
(-0.0263441 -0.133835 -8.06373e-28)
(-0.0358451 -0.132438 -8.61867e-27)
(-0.0452387 -0.130796 5.44763e-26)
(-0.0545462 -0.128837 -3.95756e-26)
(-0.0638607 -0.126426 -7.03357e-26)
(-0.0731602 -0.123521 0)
(-0.0821188 -0.120101 -4.97086e-26)
(-0.0910435 -0.11593 -1.88151e-26)
(-0.0996731 -0.111193 1.27309e-26)
(-0.108152 -0.105691 5.41123e-26)
(-0.00423284 -0.157392 9.33209e-27)
(-0.0147615 -0.157475 4.16409e-26)
(-0.0264325 -0.157461 -8.46066e-26)
(-0.0387511 -0.157308 0)
(-0.0513481 -0.157174 8.14093e-26)
(-0.0638086 -0.156983 -1.05714e-25)
(-0.0763488 -0.156109 -1.40776e-26)
(-0.0886622 -0.154318 2.76674e-26)
(-0.100511 -0.151671 2.91769e-25)
(-0.112653 -0.147906 0)
(-0.124536 -0.143581 2.27062e-25)
(-0.135915 -0.138274 0)
(-0.00728258 -0.177976 4.72284e-26)
(-0.0218004 -0.177819 9.1948e-26)
(-0.0367051 -0.177464 -1.77957e-25)
(-0.0521271 -0.176818 1.75144e-26)
(-0.0681116 -0.175917 2.47715e-26)
(-0.0841337 -0.175791 1.82449e-26)
(-0.0978787 -0.175803 -3.01545e-25)
(-0.111517 -0.173782 -1.56518e-25)
(-0.125333 -0.171114 4.8007e-25)
(-0.139449 -0.166917 1.05148e-25)
(-0.152998 -0.161592 4.1555e-25)
(-0.165378 -0.155798 -4.28189e-25)
(-0.00827938 -0.199099 2.19153e-26)
(-0.0254989 -0.199065 1.12173e-25)
(-0.043209 -0.198742 -2.36273e-26)
(-0.0615974 -0.197813 -2.92803e-25)
(-0.0810507 -0.196191 0)
(-0.099876 -0.194148 3.87283e-25)
(-0.113571 -0.193318 4.93723e-25)
(-0.128525 -0.190359 1.50461e-25)
(-0.143682 -0.18671 -6.15062e-26)
(-0.159011 -0.182048 5.66127e-25)
(-0.173817 -0.176374 4.52616e-25)
(-0.187244 -0.170198 -1.38412e-24)
(-0.0101766 -0.220048 1.64194e-36)
(-0.0303676 -0.220192 1.83873e-25)
(-0.0505602 -0.219827 3.58227e-26)
(-0.071168 -0.218337 -2.49288e-25)
(-0.0928178 -0.215611 -9.23896e-26)
(-0.112369 -0.211776 -1.40088e-25)
(-0.126617 -0.208746 2.76474e-25)
(-0.142822 -0.204177 0)
(-0.159206 -0.198924 -1.17279e-24)
(-0.175203 -0.192863 6.05409e-25)
(-0.190338 -0.186081 6.21468e-25)
(-0.203983 -0.179003 -1.26989e-24)
(-0.0122489 -0.241052 9.05819e-26)
(-0.035338 -0.24137 1.46077e-25)
(-0.0575954 -0.24093 -1.33635e-25)
(-0.0795661 -0.239162 -3.65537e-25)
(-0.101844 -0.234916 -6.8688e-27)
(-0.121177 -0.229049 9.31904e-26)
(-0.136587 -0.223657 3.13498e-25)
(-0.153892 -0.216935 -2.2404e-25)
(-0.170874 -0.209535 -2.98068e-25)
(-0.186947 -0.201555 6.32837e-25)
(-0.201792 -0.193086 1.82647e-25)
(-0.215025 -0.184553 -4.15156e-25)
(-0.0144791 -0.262034 1.33163e-25)
(-0.0401911 -0.262408 -2.06567e-26)
(-0.0640349 -0.261535 -5.40814e-26)
(-0.0862778 -0.258991 -2.0057e-25)
(-0.107872 -0.253275 3.35603e-25)
(-0.127103 -0.245248 2.59542e-25)
(-0.144244 -0.237567 -4.69721e-25)
(-0.162243 -0.229163 -5.29694e-25)
(-0.179121 -0.219565 3.36753e-25)
(-0.19474 -0.209405 1.37518e-34)
(-0.208901 -0.198914 -1.12307e-24)
(-0.22134 -0.188545 2.43005e-25)
(-0.0168087 -0.283048 7.28174e-26)
(-0.0445281 -0.283534 2.50837e-26)
(-0.0693061 -0.281763 4.462e-25)
(-0.0910741 -0.277924 8.57769e-25)
(-0.112004 -0.27114 4.22867e-26)
(-0.132295 -0.262753 4.93272e-25)
(-0.150484 -0.253633 0)
(-0.1679 -0.242313 0)
(-0.184028 -0.229804 0)
(-0.199082 -0.217179 -1.97929e-24)
(-0.212527 -0.204551 -2.62126e-24)
(-0.224057 -0.192253 1.30764e-24)
(-0.0195817 -0.304151 -1.57741e-25)
(-0.0484204 -0.304999 -3.44399e-25)
(-0.0733916 -0.301735 3.42201e-25)
(-0.0947457 -0.296733 7.62525e-26)
(-0.115354 -0.288683 1.33524e-25)
(-0.134947 -0.278243 -1.95335e-25)
(-0.152334 -0.266384 8.46621e-25)
(-0.169226 -0.253109 -2.97812e-25)
(-0.185307 -0.238691 -1.90467e-25)
(-0.200134 -0.224004 -1.56835e-24)
(-0.213128 -0.209628 -2.42532e-24)
(-0.223713 -0.19571 3.50519e-25)
(-0.0230028 -0.325143 -8.32752e-26)
(-0.0515397 -0.325708 -7.14397e-25)
(-0.07591 -0.319876 5.02914e-26)
(-0.0965669 -0.313395 -1.34295e-24)
(-0.116 -0.303187 4.50203e-26)
(-0.134642 -0.290583 -1.26577e-25)
(-0.151335 -0.276335 1.30496e-24)
(-0.16724 -0.260869 0)
(-0.183081 -0.244411 1.29966e-24)
(-0.197687 -0.22816 1.27506e-24)
(-0.21034 -0.212657 -1.11421e-24)
(-0.219725 -0.197822 -9.99516e-25)
(-0.0270328 -0.344585 7.9406e-26)
(-0.0520689 -0.340504 -4.30588e-25)
(-0.0749012 -0.328869 -3.72335e-26)
(-0.0937972 -0.320117 -7.14364e-25)
(-0.111244 -0.307775 -8.45706e-26)
(-0.12887 -0.294196 0)
(-0.145053 -0.279026 -1.81034e-25)
(-0.15976 -0.26215 -4.35643e-25)
(-0.175734 -0.24387 1.00115e-24)
(-0.190337 -0.226886 1.18024e-24)
(-0.202928 -0.211373 1.10994e-24)
(-0.21079 -0.197034 0)
(-0.0120053 -0.34875 4.20344e-25)
(-0.0381569 -0.337569 3.83428e-25)
(-0.0636749 -0.317638 -6.09834e-25)
(-0.083334 -0.30807 -3.44886e-26)
(-0.0996306 -0.296516 -6.08534e-26)
(-0.116343 -0.283516 -1.17931e-25)
(-0.132104 -0.268939 -2.54074e-25)
(-0.144467 -0.252377 -1.88717e-25)
(-0.161513 -0.232728 -1.47568e-25)
(-0.17665 -0.216474 0)
(-0.189915 -0.202941 9.43492e-25)
(-0.19643 -0.191787 1.92302e-24)
(-0.11592 -0.0997598 -1.90817e-26)
(-0.123008 -0.09302 1.36574e-25)
(-0.129432 -0.085426 6.01872e-26)
(-0.135145 -0.0769237 6.23875e-26)
(-0.14059 -0.0668982 0)
(-0.142489 -0.0598717 -1.71302e-25)
(-0.142225 -0.0511942 -7.8112e-26)
(-0.140566 -0.0414506 -1.85931e-26)
(-0.139123 -0.0301455 0)
(-0.138226 -0.0194629 -4.15996e-26)
(-0.137351 -0.00997395 5.99383e-27)
(-0.136335 -0.00225976 -3.89647e-27)
(-0.14596 -0.132285 -1.78228e-25)
(-0.154724 -0.125352 3.57805e-25)
(-0.161943 -0.117034 5.45605e-26)
(-0.167044 -0.10819 -6.54334e-26)
(-0.168089 -0.0981106 0)
(-0.167115 -0.0884555 0)
(-0.166599 -0.0795346 -7.45179e-26)
(-0.165226 -0.0680302 -5.46369e-26)
(-0.16448 -0.0519274 -2.71072e-26)
(-0.16282 -0.037511 3.18163e-26)
(-0.160258 -0.0242766 -2.1414e-26)
(-0.157761 -0.00987155 -1.0435e-26)
(-0.17628 -0.149596 -1.17351e-25)
(-0.185483 -0.142958 2.6786e-25)
(-0.192721 -0.135945 0)
(-0.19713 -0.128598 3.09917e-36)
(-0.1997 -0.121838 0)
(-0.201289 -0.110424 0)
(-0.19878 -0.0998743 0)
(-0.19538 -0.0867047 0)
(-0.189617 -0.0696572 -1.04403e-25)
(-0.183325 -0.0504862 8.50449e-26)
(-0.178811 -0.0332521 -3.60604e-26)
(-0.177386 -0.0127521 9.34108e-27)
(-0.19898 -0.16384 -9.0006e-26)
(-0.208786 -0.157433 -4.4522e-25)
(-0.216426 -0.151083 0)
(-0.221721 -0.144827 9.10015e-25)
(-0.224781 -0.1392 0)
(-0.225929 -0.131861 3.02201e-25)
(-0.224807 -0.123574 -3.05384e-25)
(-0.222114 -0.111511 1.37089e-25)
(-0.217774 -0.0950621 5.00576e-25)
(-0.211844 -0.070998 8.19157e-26)
(-0.205267 -0.0460565 1.29731e-25)
(-0.200603 -0.0170104 2.85307e-26)
(-0.215861 -0.172019 0)
(-0.225809 -0.16542 -6.52067e-25)
(-0.233725 -0.159402 0)
(-0.239636 -0.154082 6.54837e-25)
(-0.243606 -0.149405 0)
(-0.245612 -0.144439 3.24883e-25)
(-0.245501 -0.138575 -4.58054e-25)
(-0.243125 -0.129847 4.09318e-26)
(-0.238535 -0.116213 7.69222e-25)
(-0.231322 -0.0937806 0)
(-0.222823 -0.0635668 1.94141e-25)
(-0.219477 -0.0243591 -6.35056e-26)
(-0.226497 -0.176372 0)
(-0.236186 -0.168961 7.35172e-25)
(-0.244147 -0.162619 7.59107e-25)
(-0.25054 -0.157587 -8.83422e-26)
(-0.255522 -0.153748 -2.58748e-26)
(-0.259038 -0.150684 0)
(-0.260979 -0.147552 -8.23709e-25)
(-0.260956 -0.14256 -1.4702e-25)
(-0.25852 -0.132639 -3.21085e-34)
(-0.253261 -0.11276 0)
(-0.24627 -0.0782975 1.44304e-25)
(-0.241618 -0.0291634 -6.85133e-26)
(-0.232059 -0.178678 1.16917e-25)
(-0.241202 -0.169807 8.22872e-25)
(-0.248974 -0.162346 6.6808e-25)
(-0.255556 -0.156596 -3.65689e-26)
(-0.261253 -0.152643 8.88234e-26)
(-0.266198 -0.150422 7.66531e-25)
(-0.270318 -0.149389 -1.26706e-25)
(-0.27316 -0.148248 -1.04647e-24)
(-0.274002 -0.143672 -9.36102e-25)
(-0.271414 -0.129556 5.1701e-25)
(-0.264451 -0.0949476 1.48163e-25)
(-0.260276 -0.0354387 1.25934e-33)
(-0.233839 -0.180462 1.10855e-25)
(-0.242246 -0.169709 1.50775e-25)
(-0.249542 -0.160526 1.95617e-26)
(-0.256021 -0.15327 3.94734e-26)
(-0.261968 -0.148226 2.26064e-26)
(-0.267772 -0.145385 7.96326e-25)
(-0.273849 -0.144712 1.59757e-24)
(-0.280013 -0.145781 -5.08452e-25)
(-0.286162 -0.145827 -1.01042e-24)
(-0.289904 -0.13927 4.10864e-25)
(-0.287277 -0.107797 2.06009e-25)
(-0.283076 -0.0373438 0)
(-0.232332 -0.182042 8.33548e-26)
(-0.239804 -0.169202 -1.35367e-25)
(-0.246337 -0.158016 0)
(-0.252226 -0.148863 -1.25086e-24)
(-0.257665 -0.142027 5.42743e-26)
(-0.263293 -0.13723 5.04559e-26)
(-0.270366 -0.134777 -1.30689e-26)
(-0.279158 -0.135235 0)
(-0.29162 -0.137055 -6.52404e-25)
(-0.303871 -0.138058 5.91328e-25)
(-0.308945 -0.115868 2.43818e-25)
(-0.307111 -0.0440638 9.5042e-26)
(-0.226604 -0.182585 1.29813e-24)
(-0.232794 -0.167578 1.09214e-25)
(-0.238234 -0.154399 0)
(-0.243019 -0.143418 -2.25698e-24)
(-0.24691 -0.134806 -3.1567e-27)
(-0.250654 -0.127358 -8.98454e-26)
(-0.256673 -0.121248 -5.9627e-25)
(-0.265524 -0.117724 2.99323e-26)
(-0.28363 -0.117253 -9.33529e-26)
(-0.305792 -0.124076 -4.29914e-25)
(-0.32321 -0.115386 -2.6053e-26)
(-0.330794 -0.0504215 1.09252e-25)
(-0.214983 -0.181023 1.03748e-24)
(-0.219572 -0.163882 1.01749e-24)
(-0.223856 -0.149078 0)
(-0.227416 -0.136926 -1.01135e-24)
(-0.229077 -0.127805 -9.01393e-25)
(-0.229272 -0.118599 -5.58063e-26)
(-0.231325 -0.108297 -2.02748e-25)
(-0.234996 -0.0963547 -1.09402e-24)
(-0.254488 -0.0870381 0)
(-0.285893 -0.0942379 -6.95004e-25)
(-0.318109 -0.0988233 3.8836e-25)
(-0.346123 -0.0530675 -3.18412e-25)
(-0.196982 -0.176775 9.76137e-26)
(-0.200362 -0.157588 9.81842e-25)
(-0.204648 -0.14167 0)
(-0.207865 -0.129596 7.5853e-25)
(-0.208122 -0.122239 -1.56408e-24)
(-0.205276 -0.114459 8.0013e-25)
(-0.202612 -0.105221 8.44277e-25)
(-0.195369 -0.0856624 -8.06693e-25)
(-0.199939 -0.0548859 0)
(-0.230861 -0.0411327 0)
(-0.28275 -0.0536186 7.9321e-25)
(-0.338694 -0.0128515 6.34494e-26)
(-0.135024 0.0041881 -8.20376e-27)
(-0.132789 0.0184094 -7.26577e-27)
(-0.133176 0.0295588 0)
(-0.133356 0.0380255 0)
(-0.132196 0.0453219 0)
(-0.129444 0.0550583 -6.62131e-26)
(-0.127091 0.0628701 -6.35299e-26)
(-0.123574 0.0707844 0)
(-0.119365 0.0779319 -1.74301e-25)
(-0.113842 0.0843032 1.33596e-25)
(-0.107198 0.0892684 -2.52462e-26)
(-0.100047 0.094184 5.6381e-26)
(-0.158683 0.00133161 -1.33899e-26)
(-0.159308 0.0172205 1.83467e-26)
(-0.15828 0.0305592 0)
(-0.158171 0.0403319 1.33246e-26)
(-0.158976 0.0489447 -2.01434e-26)
(-0.157868 0.0614565 -7.90838e-26)
(-0.157069 0.0721492 -3.02964e-26)
(-0.155886 0.082843 -2.95532e-26)
(-0.15398 0.0926113 -5.07751e-26)
(-0.15141 0.100594 -1.74401e-26)
(-0.145222 0.107829 -1.82396e-25)
(-0.132817 0.119634 -7.86126e-26)
(-0.178024 0.00792294 9.99264e-27)
(-0.179048 0.0247455 -2.11458e-36)
(-0.180154 0.0406599 0)
(-0.180741 0.0542341 0)
(-0.181335 0.0680968 1.46878e-26)
(-0.18169 0.0833166 8.86854e-26)
(-0.181216 0.0991005 9.51437e-26)
(-0.181383 0.1139 2.2195e-25)
(-0.181779 0.126629 2.13163e-25)
(-0.182423 0.133524 -2.48379e-25)
(-0.180945 0.137482 0)
(-0.167943 0.137144 5.22064e-25)
(-0.200002 0.0105858 -2.87228e-26)
(-0.200875 0.0307269 -6.89468e-26)
(-0.200319 0.0492487 0)
(-0.200866 0.0652316 -2.33613e-25)
(-0.200897 0.0826847 3.00564e-26)
(-0.200887 0.100181 3.21212e-25)
(-0.199967 0.117132 0)
(-0.198032 0.131493 2.90308e-25)
(-0.196322 0.141213 -4.49761e-25)
(-0.197565 0.14485 8.16286e-25)