/*--------------------------------*- C++ -*----------------------------------*\
| =========                 |                                                 |
| \\      /  F ield         | OpenFOAM: The Open Source CFD Toolbox           |
|  \\    /   O peration     | Version:  2.4.0                                 |
|   \\  /    A nd           | Web:      www.OpenFOAM.org                      |
|    \\/     M anipulation  |                                                 |
\*---------------------------------------------------------------------------*/
FoamFile
{
    version     2.0;
    format      ascii;
    class       volScalarField;
    location    "0.5";
    object      p_rgh;
}
// * * * * * * * * * * * * * * * * * * * * * * * * * * * * * * * * * * * * * //

dimensions      [1 -1 -2 0 0 0 0];

internalField   nonuniform List<scalar> 
4608
(
0
0.0654208
0.0197244
-0.12265
-0.33002
-0.563102
-0.775334
-0.992129
-1.21132
-1.45733
-1.72533
-1.8017
1.9763
1.90085
1.72267
1.49086
1.28379
1.12243
1.0324
1.01895
0.977002
1.07518
0.339002
2.21159
3.94485
3.74317
3.41597
3.09673
2.89999
2.92904
3.20192
3.71578
4.05851
4.87621
7.52028
13.7758
6.35093
6.0116
5.57871
5.21544
5.07375
5.22897
5.69546
6.25159
6.59401
15.8038
9.27457
9.34648
9.06632
8.63365
8.16231
7.82688
7.78369
8.09777
8.82885
9.64633
12.1955
23.7459
11.7362
13.4022
12.0297
11.5821
11.1511
10.9464
11.0316
11.4866
12.2944
13.4062
19.6769
22.9087
15.4078
16.6083
15.1503
14.7893
14.4815
14.5104
14.8037
15.4833
16.4636
18.1099
23.5445
26.2278
17.5626
19.8866
18.3304
18.1808
18.0548
18.4114
18.9372
19.8131
20.7893
22.2853
26.5424
28.9865
24.0264
21.3959
21.5151
21.6787
21.8507
22.5801
23.3287
24.3938
25.4431
26.8359
29.4644
33.0162
32.6595
30.9255
24.4154
25.1129
25.6887
26.9159
27.8345
29.0077
30.0375
31.4175
33.3196
35.5448
35.882
36.8092
26.9788
28.1681
29.5343
31.5482
32.319
33.4214
34.1984
35.3628
37.2532
38.5501
38.6296
38.3515
28.1348
30.0233
32.5869
35.4467
36.5054
37.244
37.664
38.3258
40.5441
40.8757
41.2774
40.8408
-1.7723
-1.78801
-3.58289
-4.62125
-4.49389
-3.92483
-2.51289
-0.646518
0.00763503
-0.109429
-0.0533291
0.00650213
4.8153
4.21668
4.11012
6.11429
6.86242
7.07729
5.85436
1.01319
-0.121957
-1.23556
0.123254
2.32237
12.7936
7.66562
7.44038
7.4995
7.34605
6.71422
5.81561
7.45461
6.21639
7.35041
2.14611
2.87635
10.197
10.6448
11.4556
11.3672
10.9708
10.6625
10.3865
8.23761
5.15799
3.4244
3.50118
1.99468
14.0918
14.2577
14.4982
14.2948
13.9214
13.5013
13.0632
12.5884
11.5853
7.25872
4.55691
5.41344
17.2623
17.574
17.7257
17.2832
16.4912
15.0099
13.0717
11.0988
10.1371
13.3705
8.11388
11.3411
20.8253
21.1467
21.2447
20.7406
19.8143
19.4387
20.563
20.0921
16.2961
19.5461
16.4258
20.2913
24.1146
24.9092
23.7586
23.4846
24.0413
25.0722
26.1839
26.1005
25.4785
23.4792
24.461
20.2429
27.0862
26.2186
28.2658
29.7706
30.2775
30.6388
31.7072
31.9356
32.952
29.7484
31.6414
28.6136
37.5662
35.8035
35.7462
35.6302
34.7316
35.2796
36.73
37.722
38.1275
36.1504
38.2272
36.5101
35.5383
35.4705
35.9095
36.1646
37.1346
37.7837
38.6171
39.0513
39.7404
40.9864
44.8777
45.3623
38.8369
37.6759
37.3456
37.746
38.4961
39.1108
39.7236
40.4486
41.9196
44.4003
49.5709
54.2947
11.672
11.7073
11.6488
11.5133
11.3211
11.1193
10.9137
10.6991
10.4888
10.2949
10.1324
10.0186
13.7651
13.6707
13.5259
13.3598
13.2154
13.0946
13.0263
13.015
13.0453
13.1012
13.1697
13.2455
15.778
15.611
15.4082
15.2417
15.1793
15.239
15.4095
15.6685
15.9751
16.2846
16.5563
16.7633
18.1741
17.9733
17.8081
17.7673
17.882
18.1741
18.6094
19.1315
19.6653
20.1361
20.4818
20.6641
20.7542
20.5837
20.5345
20.6668
21.0198
21.5816
22.2813
23.0277
23.711
24.2321
24.5142
24.5156
23.4576
23.3758
23.4637
23.8207
24.4215
25.2461
26.1686
27.0699
27.8109
28.2814
28.404
28.1446
26.2512
26.3077
26.5476
27.1419
27.9634
29.0157
30.0942
31.0661
31.7751
32.1192
32.0419
31.5288
29.0978
29.3825
29.7784
30.6032
31.5777
32.7963
33.9431
34.8891
35.479
35.6374
35.3546
34.64
31.9403
32.6127
33.1655
34.1816
35.1973
36.499
37.6225
38.4379
38.8263
38.7485
38.2697
37.4094
34.5899
35.9379
36.5993
37.6983
38.6154
39.9386
41.0086
41.625
41.7512
41.3951
40.7384
39.7658
36.8835
39.1555
39.9288
40.8302
41.3703
42.8595
43.8844
44.3332
44.2009
43.5554
42.7584
41.6713
37.0202
41.7965
42.1809
42.8536
45.8058
45.0494
45.4557
46.2426
46.1241
45.2788
44.4158
43.1425
9.97134
10.0044
10.1189
10.2915
10.5767
10.8358
10.9963
11.0023
10.8483
10.5904
10.3404
10.1947
13.3322
13.4371
13.5666
13.7308
13.8166
13.7991
13.6364
13.2933
12.7963
12.2345
11.7638
11.4482
16.8966
16.9631
16.9746
16.9266
16.8706
16.6778
16.3114
15.7126
14.8864
13.8976
13.0057
12.2659
20.6752
20.5347
20.2892
20.0357
19.6851
19.3089
18.8452
18.1808
17.245
15.9487
14.5817
13.256
24.2396
23.7339
23.0915
22.4301
21.8315
21.3128
20.8791
20.3512
19.6246
18.3598
16.686
14.7914
27.5284
26.6329
25.6057
24.5912
23.7696
23.1795
22.8817
22.6104
22.3146
21.3794
19.7704
17.5183
30.6363
29.4601
28.1939
26.9916
26.0885
25.5314
25.4712
25.5245
25.7915
25.3441
24.2547
21.803
33.5881
32.2894
30.9666
29.7415
28.9341
28.4912
28.7625
29.2032
30.1595
30.3441
30.1846
27.743
36.3115
35.0349
33.8049
32.6884
32.0632
31.793
32.4206
33.2844
35.0383
36.0493
37.2009
35.2947
38.7096
37.5602
36.5171
35.6028
35.1831
35.1005
36.0004
37.2157
39.7249
41.7019
44.5937
43.9937
40.7252
39.7619
38.9439
38.2827
38.0443
38.1236
39.1264
40.5059
43.4605
46.2504
51.251
52.5954
42.3751
41.6061
41.0126
40.6125
40.5064
40.7041
41.6333
42.9333
45.7592
48.6487
55.2481
59.2754
7.67839
7.71178
7.6446
7.49603
7.2851
7.07899
6.85998
6.63727
6.42588
6.24134
6.10254
6.03033
9.79494
9.69389
9.54038
9.36727
9.21917
9.0963
9.04136
9.05109
9.11129
9.20643
9.32613
9.47223
11.8472
11.6709
11.4609
11.2916
11.2394
11.3146
11.5139
11.8097
12.1579
12.5109
12.8304
13.1036
14.2933
14.0841
13.9203
13.8811
14.0152
14.3358
14.8078
15.3658
15.924
16.3951
16.7016
16.7775
16.9297
16.7539
16.7084
16.8595
17.2417
17.8389
18.5754
19.3484
20.0337
20.5165
20.7092
20.5631
19.6948
19.6116
19.7115
20.097
20.735
21.5937
22.5449
23.4595
24.1836
24.5911
24.5941
24.1632
22.5505
22.6061
22.8628
23.4989
24.3665
25.4416
26.5319
27.5046
28.1905
28.4744
28.2799
27.6002
25.4595
25.7371
26.1495
27.0417
28.0805
29.2948
30.4228
31.3588
31.9358
32.0719
31.7121
30.8724
28.3618
29.0211
29.589
30.7338
31.8558
33.0955
34.1346
34.9267
35.3255
35.2989
34.8139
33.9069
31.0284
32.4132
33.1235
34.5134
35.6263
36.7635
37.5876
38.126
38.2836
38.0853
37.5106
36.6114
33.3844
35.7824
36.5751
38.1914
39.1942
40.1076
40.6619
40.8848
40.7685
40.4009
39.7666
38.9297
32.9607
38.2892
39.1167
40.9207
41.9454
42.7942
43.0875
43.0664
42.7467
42.2598
41.6027
40.8655
6.04409
6.15372
6.35819
6.64291
7.08518
7.4871
7.77582
7.87269
7.76067
7.50439
7.23709
7.0656
9.66311
9.88178
10.0705
10.2788
10.4065
10.5069
10.486
10.2364
9.76048
9.16778
8.64483
8.28584
13.4031
13.7739
13.7555
13.2036
12.8393
13.1628
13.2219
12.7907
11.9627
10.8947
9.90022
9.07141
16.6035
16.0581
14.7539
15.2454
16.6505
17.7542
16.6444
15.6242
14.4529
12.9922
11.4663
10.0034
20.1222
19.4724
18.6625
18.2102
18.1248
18.1873
17.9296
17.4434
16.684
15.3425
13.5355
11.5024
23.3668
22.3486
21.2902
20.4128
19.8797
19.627
19.5902
19.4936
19.2759
18.3331
16.6363
14.2592
26.5254
25.2208
23.9272
22.8389
22.1791
21.9094
22.1268
22.4019
22.7872
22.3558
21.203
18.6169
29.6583
28.2303
26.8588
25.7193
25.1001
24.95
25.499
26.195
27.2826
27.4907
27.253
24.6465
32.6834
31.283
29.9755
28.9019
28.4043
28.4131
29.3058
30.453
32.3477
33.404
34.4391
32.3149
35.472
34.2104
33.0605
32.1364
31.7888
31.9272
33.0731
34.5927
37.2619
39.3492
42.1202
41.2777
37.9268
36.8702
35.9142
35.1831
34.9589
35.1736
36.3911
38.0821
41.242
44.274
49.2575
50.6787
40.0192
39.1915
38.4224
37.8833
37.7104
37.9626
39.0604
40.6688
43.7819
47.0936
53.836
58.9923
-14.946
-15.0251
-15.1529
-15.2904
-15.4672
-15.6436
-15.7874
-15.8659
-15.8447
-15.6944
-15.3993
-14.9621
-10.3597
-10.5187
-10.5998
-10.6282
-10.5348
-10.3248
-10.0078
-9.60153
-9.11851
-8.56112
-7.91964
-7.17292
-6.80619
-6.83314
-6.68525
-6.33999
-5.78959
-5.06832
-4.22683
-3.31765
-2.35882
-1.29171
0.00835003
1.54295
-2.56816
-2.44586
-1.99238
-1.22719
-0.19546
1.01601
2.29122
3.50701
4.60153
5.88625
7.41845
9.96436
1.86448
2.20665
2.97147
4.13014
5.55328
7.09163
8.55446
9.76821
10.7431
12.8017
14.5009
14.6541
6.64117
7.18308
8.19372
9.6766
11.3717
13.0798
14.5099
15.4133
15.7555
18.3713
19.0039
18.9265
11.8366
12.5389
13.6934
15.4252
17.2621
19.0072
20.2621
20.7171
20.2468
22.8015
22.9221
22.7519
17.4532
18.3243
19.5108
21.427
23.2607
24.931
25.9485
26.037
24.9739
25.4976
26.2848
26.0813
23.4133
24.5849
25.6913
27.7263
29.3618
30.8057
31.5143
31.3274
30.0777
28.1747
28.9992
28.9859
29.4099
31.2926
32.181
34.2585
35.4811
36.4804
36.7451
36.2738
34.9085
32.6012
30.8992
31.572
35.4076
38.5721
39.0234
40.8455
41.4251
41.7277
41.4313
40.6325
39.1929
37.1576
34.6945
33.4075
36.7648
43.41
44.3191
46.1267
46.5723
46.2587
45.4489
44.2477
42.8137
41.1093
38.9583
37.2925
-14.4034
-13.7607
-12.99
-12.0742
-11.2743
-10.681
-10.3523
-10.2808
-10.4171
-10.7016
-11.0258
-11.2804
-6.42421
-5.77514
-5.14972
-4.71107
-4.5193
-4.66728
-5.10753
-5.7282
-6.41544
-7.12679
-7.76107
-8.19265
2.09932
2.75125
2.86929
2.55799
2.2579
1.66147
0.629991
-0.752598
-2.13995
-3.42014
-4.60536
-5.44867
10.1684
10.0694
9.98356
9.58477
8.74125
7.5965
5.86479
4.45395
2.81204
1.54392
-0.370176
-1.64632
14.5761
14.2965
14.1926
13.9702
13.807
13.6838
14.0809
13.7496
10.0286
7.02266
4.68786
4.19862
18.6782
18.3085
18.0014
17.6387
17.3248
16.9387
16.4764
16.5372
14.3833
15.267
11.1231
11.8465
22.389
21.9495
21.5538
21.2904
21.287
21.2735
21.3186
22.8806
24.9068
19.2489
18.6563
14.8788
25.6849
25.242
24.9082
24.8615
25.0784
25.4718
26
25.9863
27.571
29.0187
23.6855
27.3174
28.6261
28.2011
27.9203
27.9927
28.5939
29.429
30.7158
31.0301
31.2531
33.8668
34.0133
37.5809
31.3262
30.8997
30.6166
30.7938
31.594
32.7714
34.8843
36.1957
38.3644
38.6
43.1039
41.5736
33.0435
33.3365
32.9836
33.2485
33.9754
35.1677
37.5627
38.9333
41.2438
45.5586
53.1071
53.0927
35.4154
34.4244
34.24
35.1567
35.6144
36.354
37.905
39.3896
44.0496
50.3034
61.2467
67.7234
41.2433
42.164
34.488
37.3547
39.3882
39.4979
39.1988
39.5224
42.6512
41.6781
42.6851
42.2953
48.2405
47.1018
36.0854
37.9676
39.4981
39.9261
41.0659
46.4559
44.5839
41.6675
43.4595
43.1798
34.8101
34.7987
34.6521
38.0268
39.6481
40.2368
40.1941
41.8562
48.1975
48.6435
44.0989
43.956
35.6983
34.8129
34.9296
37.8047
39.4519
40.3182
40.64
42.0544
41.6801
45.5069
46.4019
44.6343
36.105
35.2442
35.5564
37.4463
39.0384
40.22
40.9802
42.4993
42.5991
44.7676
43.8037
45.7263
35.1496
34.5479
35.2396
37.1168
38.6131
40.0122
41.255
42.9191
43.4565
44.5598
44.3486
43.2308
34.2251
33.4919
34.2685
36.2313
38.2232
39.8254
41.5167
43.3709
44.3475
44.3962
44.8998
43.796
31.9438
31.5566
32.7041
34.8945
37.1795
39.4791
41.8055
43.9497
45.3405
44.1937
45.4868
44.1927
29.3522
29.2444
30.6628
33.0614
35.9002
38.8704
41.5442
44.4256
46.614
43.8824
46.1494
44.4355
26.8776
26.8326
28.5554
31.2554
34.6011
38.3087
41.7755
44.9618
47.8032
42.9962
47.0512
44.5184
24.4385
24.4633
26.4734
29.4928
33.6767
37.9354
42.0583
46.4425
50.9345
54.7977
49.364
44.5947
21.9014
22.4492
24.722
28.0977
32.9791
37.6456
42.1413
47.6753
54.1433
53.8385
54.0376
65.003
40.5367
39.0459
38.4823
38.7555
39.4345
40.1987
40.8184
41.6411
43.0227
45.2885
48.9913
49.9972
41.551
39.7802
39.1623
39.371
40.122
40.934
41.5257
42.3685
43.5772
45.582
48.2063
49.3681
42.499
40.358
39.7665
39.8905
40.7706
41.6782
42.2071
43.0293
43.991
45.7298
47.5792
48.7781
43.3154
40.6996
40.2607
40.2767
41.4189
42.4287
42.8528
43.6306
44.2922
45.8396
47.0172
47.8944
44.2795
40.6611
40.617
40.5129
42.086
43.1873
43.4646
44.1876
44.5078
45.8872
46.3584
46.9192
45.6604
46.1194
40.7572
40.6011
42.8338
43.9818
44.0708
44.6832
44.3477
45.5974
45.7257
45.9531
43.1566
45.9814
44.2487
40.1485
43.69
44.7942
44.3466
44.6684
43.9626
45.9058
45.3883
44.2753
43.7025
45.3619
44.7968
54.0697
45.5586
45.5586
44.6511
45.2579
46.5291
46.4695
43.8676
43.1605
44.1497
45.4593
44.463
46.6286
52.7367
48.3858
47.5492
46.4401
46.9827
45.3611
43.6896
42.3029
44.4346
45.6367
45.1602
45.7211
48.1786
49.9711
48.7396
47.6043
47.0754
45.5638
43.6821
41.9429
44.537
45.8335
45.7938
46.8935
47.9932
49.901
49.5837
48.4258
47.262
45.809
43.9527
41.9504
58.8982
46.0845
46.3465
47.4494
48.4523
49.1751
49.3218
48.6117
47.5999
46.3131
44.3044
42.0395
41.0794
43.1443
42.6325
43.3668
46.2825
45.9877
46.7374
46.4354
46.1146
45.9073
45.3676
43.9097
42.054
43.3998
42.11
40.965
43.8942
46.0783
45.6142
45.6248
45.5718
45.8592
45.848
44.2754
41.9135
43.0819
41.5928
43.2433
42.7857
43.7163
43.8187
44.2731
45.2616
45.2217
46.0043
44.4728
41.2923
43.1088
40.9979
41.0809
39.8873
41.1138
41.5645
42.4561
44.3768
45.9625
45.5748
44.2205
42.4286
43.0643
38.5224
38.8064
38.1858
39.1862
39.7683
40.5964
41.5429
45.9927
46.4663
42.7646
41.4967
38.5293
36.9353
37.0433
36.7677
37.7478
38.47
39.4776
40.5643
41.1437
47.3639
47.605
40.501
37.4419
35.8587
35.6275
35.3036
36.1383
37.0416
38.4288
39.8471
41.2181
42.6129
47.3185
39.4701
36.8992
34.9718
34.1592
33.6592
34.379
35.5496
37.347
39.2697
41.2536
42.7048
46.7372
38.9473
36.4009
33.9606
32.587
31.8905
32.5457
34.062
36.2595
38.7586
41.3278
43.1116
46.4828
38.7028
35.7531
32.8288
30.9924
30.1619
30.7601
32.6463
35.355
38.2948
41.3741
43.6156
46.7047
38.5169
35.0567
31.6624
29.3899
28.4793
29.2447
31.4609
34.5725
37.8862
41.4306
44.1422
46.9103
38.4705
34.6227
30.8428
28.1235
26.9759
28.0083
30.4725
33.8923
37.5314
41.4882
44.6828
47.0476
43.3827
42.7503
42.3234
42.1043
42.0705
42.319
43.0833
44.1722
46.3857
48.6568
53.0664
53.0968
43.9801
43.437
43.1285
43.0215
43.0356
43.3016
43.9386
44.8416
46.5503
48.3679
51.0826
50.9116
44.5335
44.0648
43.8802
43.874
43.9382
44.209
44.7127
45.3999
46.5887
47.9684
49.4183
49.6381
45.1026
44.6753
44.6044
44.6751
44.7832
45.0546
45.4318
45.8873
46.5627
47.5463
48.0885
48.3711
44.8647
45.0194
45.2986
45.4758
45.6012
45.8377
46.104
46.3347
46.5007
47.1309
46.9644
47.0192
45.4271
45.3221
45.667
46.2606
46.5349
46.6556
46.7326
46.767
46.4153
46.7237
45.9625
45.6323
46.4736
47.9147
47.1088
47.7904
48.1441
48.3506
47.7175
47.2036
46.3053
46.3163
45.0691
44.212
47.4669
49.193
48.5918
49.3052
49.7475
50.1923
49.4531
47.4886
46.12
45.8931
44.3106
42.7451
47.6569
50.1074
49.9404
50.7152
51.2873
51.7474
53.3184
48.2953
45.7818
45.4413
43.5194
41.5468
48.27
50.6647
50.7981
51.9362
52.713
53.1037
55.4067
56.6639
45.4643
45.0203
42.818
40.5435
48.9383
51.5262
52.0168
53.0756
54.0473
54.0816
51.8966
50.5362
45.7931
44.7703
42.2639
39.714
49.5616
52.3045
53.0226
53.5761
54.2543
53.903
52.0228
49.0941
45.893
44.6798
41.961
39.0852
38.3435
40.334
40.2903
41.695
42.6465
43.553
43.974
44.0372
43.7724
43.3204
42.7101
42.0776
39.677
40.8426
40.4766
41.6438
42.5707
43.5266
44.1343
44.3433
44.2222
43.8757
43.3475
42.8099
40.489
40.9727
40.3544
41.2594
42.1194
43.0982
43.9087
44.3266
44.4536
44.2962
43.9025
43.4845
40.8236
40.7949
40.0147
40.6914
41.4677
42.4038
43.387
44.0414
44.5056
44.6052
44.3924
44.1167
40.7609
40.3022
39.424
39.9549
40.6946
41.5952
42.688
43.542
44.419
44.8264
44.8328
44.7191
40.2629
39.6804
38.6258
38.9301
39.6646
40.6465
41.9645
42.9025
44.2414
44.9915
45.2462
45.3085
39.6235
38.8259
37.5765
37.6763
38.4237
39.5321
41.1469
42.231
44.0248
45.1364
45.6601
45.9053
38.9461
37.7258
36.314
36.2449
37.0326
38.3077
40.1902
41.6354
43.8179
45.2943
46.0998
46.5293
38.1233
36.4693
34.9338
34.7294
35.5735
37.0412
39.1981
41.1331
43.6553
45.4911
46.5845
47.1958
37.1949
35.1433
33.5208
33.2163
34.1368
35.8269
38.2705
40.7455
43.5521
45.7431
47.1288
47.9199
36.2807
33.8196
32.1039
31.7448
32.7746
34.7578
37.5553
40.4203
43.508
46.0517
47.7322
48.7046
35.5901
32.7436
30.8597
30.4444
31.6567
33.9055
36.9553
40.12
43.4826
46.3605
48.3375
49.4981
41.3523
40.6916
40.0445
39.6271
39.4535
39.6911
40.5808
41.9696
44.5757
47.3725
52.2684
53.6503
42.1733
41.6202
41.0496
40.7013
40.5218
40.7301
41.4597
42.6645
44.8441
47.2278
50.6239
51.7799
42.9419
42.488
41.9879
41.6949
41.5054
41.6676
42.2298
43.2333
44.9668
46.9278
49.1493
50.5362
43.6732
43.3103
42.8756
42.6242
42.4204
42.5232
42.9164
43.714
45.0022
46.5611
47.8551
49.1163
44.3796
44.1004
43.7272
43.5044
43.2829
43.3153
43.5416
44.1347
44.9827
46.1564
46.6485
47.5629
45.0751
44.8719
44.5579
44.3506
44.1099
44.0616
44.1265
44.5172
44.9302
45.7173
45.4749
45.8925
45.7754
45.639
45.3828
45.1793
44.9181
44.7792
44.6911
44.8785
44.8629
45.2385
44.3101
44.0422
46.4949
46.414
46.215
46.0068
45.7253
45.4864
45.2555
45.2343
44.803
44.7221
43.0536
42.41
47.2451
47.2084
47.0647
46.8519
46.5538
46.2111
45.8466
45.6108
44.7841
44.1101
42.1016
40.8452
48.04
48.0449
47.9527
47.75
47.4437
47.0004
46.5113
46.0641
44.741
43.8216
41.3294
39.3274
48.8861
48.9521
48.9286
48.7597
48.4581
47.8909
47.3072
46.5402
45.0565
43.7022
40.7024
37.9404
49.7371
49.8942
50.0121
49.8879
49.5663
48.8081
48.0955
47.2444
45.4604
43.6275
40.2973
36.9345
41.6495
45.0753
45.5752
47.2579
48.1497
48.1085
47.5334
46.4507
45.0268
43.5814
41.8002
40.3876
42.8848
45.1924
45.4845
47.0856
48.097
48.4343
47.9023
47.3656
46.3482
45.0586
43.5288
42.3083
43.236
44.8122
44.9282
46.3626
47.4117
48.055
47.9962
47.7468
47.2099
46.4731
45.1431
44.0832
43.1097
44.1336
44.117
45.3721
46.3693
47.2976
47.6803
47.8782
47.5584
47.3274
46.723
45.8119
42.593
43.1599
43.0689
44.2273
45.1557
46.3155
47.1197
47.8109
47.9019
47.7787
47.5058
47.388
41.5998
41.9585
41.7365
42.832
43.8999
45.2584
46.4145
47.6468
48.1686
48.3778
48.1039
47.81
40.5091
40.4371
40.0919
41.1715
42.4296
44.2001
45.6597
47.4571
48.4321
48.9701
48.9052
48.7092
39.2036
38.6209
38.1723
39.3039
40.8325
43.0503
44.9621
47.294
48.7398
49.6148
49.7341
49.6064
37.7027
36.6493
36.1562
37.3385
39.1972
41.8603
44.3923
47.1939
49.1162
50.3348
50.6411
50.5783
36.0986
34.6337
34.1287
35.3935
37.6313
40.7753
43.9459
47.1699
49.5733
51.1394
51.6392
51.6628
34.4928
32.6226
32.1313
33.5438
36.2717
39.9187
43.5846
47.2199
50.1049
52.019
52.7179
52.8628
33.2206
30.8816
30.3001
32.0052
35.1705
39.192
43.2665
47.2899
50.6405
52.8941
53.8473
54.0467
38.6109
37.444
36.077
35.4817
35.9782
37.1444
38.5718
40.5671
45.6398
50.2888
58.2778
59.9028
40.665
39.5402
38.1139
37.375
37.5206
38.429
39.5407
41.5332
45.7036
49.403
54.25
54.6163
42.568
41.5317
40.1019
39.2699
39.0256
39.6487
40.2991
42.227
45.2927
48.1738
51.0473
50.5196
44.3896
43.4358
41.9862
41.0439
40.4529
40.7933
40.8792
42.5831
44.3573
46.8099
48.5427
48.0514
46.2057
45.3233
43.8293
42.733
41.8667
41.7742
40.9308
42.216
43.3116
45.7665
46.1297
46.0612
47.299
47.0968
45.6148
44.1671
42.8061
41.9757
40.6904
42.0823
42.4288
44.7211
43.7549
43.4549
47.9414
47.0357
45.6889
44.3637
43.0472
42.1543
42.0567
41.9601
41.2868
41.4083
41.1755
40.8314
48.8993
47.9229
46.5184
45.0114
43.8716
42.4547
41.9139
40.5458
40.0461
39.5411
38.2269
37.2914
49.8868
48.904
47.4402
45.6771
44.5881
42.6872
41.7394
40.0327
38.5805
37.2129
34.7713
33.3149
50.979
50.0101
48.419
46.3241
44.2883
42.9012
41.4999
39.4489
37.016
34.6996
31.5187
29.7433
52.2276
51.2557
49.5667
46.9653
44.9888
43.4379
41.6974
38.9977
35.5042
32.3848
28.6408
26.5209
53.5164
52.3579
50.409
48.1099
46.2801
44.4989
42.111
38.6729
34.3127
30.526
26.3147
23.7706
21.7471
22.3694
24.475
27.7717
32.9227
37.8901
42.2511
47.6361
49.2041
51.5038
43.6886
45.118
23.8272
24.2476
25.8442
28.5469
33.6499
38.7933
42.4203
46.4434
48.1832
49.4665
44.7591
45.2158
25.7306
26.2698
27.4251
29.317
34.436
39.8479
41.923
44.8188
46.9716
48.0201
45.284
45.5793
27.5873
33.638
40.6013
41.6398
43.3596
45.3977
42.292
44.0203
46.3343
47.1732
45.502
45.7486
29.84
32.3882
36.9964
39.6251
39.5872
39.1524
42.5009
44.7034
45.932
46.6007
45.6007
45.8052
30.9533
32.4905
36.0609
39.4726
40.5697
44.4828
41.4245
44.6471
45.5772
46.1833
45.6299
45.8002
32.4859
34.0426
37.1441
40.1982
41.8903
41.6587
41.7764
44.2996
45.3086
45.8752
45.6261
45.7613
33.8107
35.3878
38.1479
40.8102
41.4106
41.3493
42.2292
44.1158
45.1053
45.6452
45.6093
45.7032
34.9205
36.5099
38.9763
41.1537
41.2114
42.0114
42.3937
44.0269
44.9553
45.4761
45.589
45.6351
35.8392
37.4362
39.6215
41.34
41.5806
42.2013
42.5855
43.9483
44.8438
45.3526
45.5689
45.5638
36.5947
38.1985
40.1486
41.061
42.0622
42.348
42.7594
43.9094
44.7616
45.2628
45.5519
45.5103
37.2248
38.7699
40.4225
41.8178
42.1577
42.4868
42.9098
43.8969
44.7009
45.1966
45.5408
45.5481
46.2093
46.6437
46.7473
47.5356
48.0358
48.9312
49.2683
48.8349
47.8505
46.5127
44.5146
42.1382
45.7184
46.0023
46.3607
47.1507
47.8098
48.5943
48.8979
48.5531
47.6689
46.4118
44.5495
42.2651
45.6972
45.9104
46.3051
47.0193
47.6549
48.3162
48.5704
48.2738
47.4721
46.2927
44.5666
42.4208
45.7195
45.9195
46.3144
46.9721
47.5664
48.1176
48.3092
48.0265
47.2808
46.1705
44.5708
42.5761
45.7266
45.9393
46.3461
46.958
47.502
47.9555
48.0836
47.7999
47.0949
46.0452
44.5595
42.7132
45.7018
45.9494
46.3754
46.9506
47.4374
47.8053
47.8764
47.5863
46.9126
45.9162
44.532
42.8247
45.6441
45.9408
46.3912
46.9371
47.3664
47.6615
47.684
47.3858
46.7365
45.7868
44.4911
42.9091
45.5626
45.9134
46.3904
46.9129
47.2894
47.5241
47.5061
47.1997
46.5693
45.6602
44.441
42.9689
45.4717
45.8732
46.3748
46.8785
47.2089
47.3942
47.3427
47.0288
46.413
45.5395
44.3858
43.0087
45.3888
45.8299
46.3499
46.8369
47.1274
47.2725
47.1933
46.8712
46.2705
45.4264
44.329
43.0334
45.3207
45.7933
46.3222
46.7918
47.0476
47.1597
47.0576
46.7287
46.1403
45.3221
44.2731
43.0475
45.2314
45.7714
46.2979
46.7467
46.9719
47.0565
46.9352
46.6004
46.0224
45.227
44.2198
43.0544
38.7051
34.8744
31.1221
28.3239
27.0771
28.1281
30.5492
33.9525
37.5848
41.5565
45.107
46.9692
39.1362
35.6583
32.287
29.8272
29.0777
29.6716
31.7949
34.8887
38.1116
41.6319
45.4414
49.1568
39.5941
36.4775
33.4905
31.3411
30.6439
31.2749
33.1872
36.1079
41.5753
44.9362
46.5088
47.4971
40.0338
37.2584
34.6314
32.7618
32.1296
32.752
34.5204
38.266
41.0516
43.5654
44.8568
47.2043
40.4297
37.9658
35.6685
34.0542
33.5098
34.0964
35.7162
38.0221
40.9799
43.5547
44.9963
47.0611
40.7709
38.5845
36.58
35.1923
34.7338
35.2653
36.6623
38.8013
41.4075
43.6454
45.1074
46.931
41.0538
39.107
37.3535
36.1584
35.7717
36.2628
37.523
39.4281
41.7251
43.6984
45.1426
46.7917
41.2816
39.5367
37.9921
36.9548
36.6276
37.0803
38.2146
39.9145
41.9485
43.7174
45.1264
46.6369
41.4617
39.8842
38.5099
37.5992
37.3181
37.735
38.7602
40.2861
42.1009
43.7096
45.0727
46.4628
41.603
40.1637
38.927
38.1167
37.8713
38.2559
39.1891
40.5697
42.204
43.6828
44.9905
46.266
41.7141
40.3888
39.2633
38.5333
38.3157
38.6725
39.529
40.7889
42.2746
43.6437
44.8848
46.0452
41.8021
40.5714
39.5365
38.8712
38.6763
39.0096
39.8024
40.962
42.3242
43.5977
44.7585
45.8075
49.7084
52.0992
52.7529
53.1386
53.6458
53.6091
52.2747
49.545
46.4727
44.741
42.0254
39.0594
51.6914
50.3933
51.6517
52.4275
52.98
52.975
51.8148
49.4847
46.8445
44.9547
42.3646
39.56
48.5404
49.8319
51.1449
51.9432
52.4451
52.4187
51.3899
49.3977
47.0884
45.1735
42.7365
40.126
48.4052
49.5887
50.8198
51.5967
52.0375
51.9678
51.0253
49.2873
47.2373
45.3663
43.0939
40.6824
48.3339
49.4534
50.5847
51.3164
51.6936
51.5794
50.7027
49.1606
47.3162
45.5221
43.4136
41.1975
48.2815
49.3612
50.3938
51.0698
51.3831
51.2305
50.4087
49.0214
47.3437
45.6398
43.687
41.6558
48.2408
49.2898
50.2312
50.8477
51.0999
50.9156
50.1405
48.8762
47.3347
45.7223
43.9113
42.048
48.213
49.2322
50.0904
50.6467
50.8428
50.6327
49.8967
48.7307
47.301
45.7752
44.0894
42.3737
48.2048
49.1869
49.9675
50.4652
50.6109
50.3795
49.6763
48.5894
47.252
45.8051
44.2277
42.6387
48.2251
49.1558
49.8608
50.3022
50.4028
50.1536
49.4779
48.4553
47.1946
45.8183
44.3339
42.8524
48.2821
49.1426
49.7693
50.1567
50.217
49.9529
49.3001
48.3302
47.134
45.82
44.4152
43.0246
48.3759
49.1485
49.6923
50.028
50.0522
49.7754
49.1416
48.2153
47.0735
45.8143
44.4777
43.164
35.7015
32.8033
30.9191
30.4866
31.6617
33.9291
36.9641
40.19
43.5583
46.4674
48.4883
49.6805
36.4814
33.8579
32.1959
31.8505
32.8439
34.9176
37.7075
40.7199
43.7861
46.3911
48.1737
49.2576
37.3306
34.977
33.5006
33.2367
34.1681
36.0714
38.6034
41.34
44.0462
46.3119
47.8608
48.8652
38.1625
36.061
34.7509
34.55
35.4182
37.1591
39.4457
41.9094
44.2922
46.2753
47.6545
48.6007
38.939
37.0739
35.9259
35.7699
36.5643
38.1411
40.1912
42.3944
44.4988
46.2532
47.5121
48.4057
39.6368
37.987
36.9882
36.8679
37.5863
39.0013
40.8268
42.787
44.6527
46.22
47.3914
48.2304
40.24
38.7787
37.9089
37.8168
38.4621
39.725
41.3459
43.0892
44.7553
46.1717
47.2789
48.058
40.7456
39.4434
38.6816
38.608
39.1856
40.3119
41.7548
43.3137
44.8178
46.1138
47.1719
47.8842
41.1603
39.989
39.3145
39.2511
39.7683
40.7768
42.0708
43.4779
44.8526
46.0516
47.0683
47.7063
41.4967
40.4313
39.8159
39.7669
40.2323
41.1423
42.3147
43.5987
44.8695
45.9883
46.9657
47.5224
41.7687
40.7889
40.2152
40.1802
40.6022
41.4313
42.5052
43.6891
44.8755
45.9258
46.8631
47.3444
41.9896
41.0797
40.5482
40.5138
40.8997
41.663
42.6569
43.7582
44.8751
45.8653
46.7624
47.2342
49.94
50.1297
50.3174
50.2825
50.0205
49.3749
48.5493
47.551
45.7384
43.6892
40.4056
36.8725
49.4968
49.6923
49.8205
49.9771
49.8232
49.3157
48.5415
47.5497
45.8876
43.8919
40.8982
37.6029
49.1209
49.3812
49.5867
49.7679
49.6537
49.2139
48.4879
47.5277
46.007
44.1275
41.4391
38.4286
48.8876
49.2128
49.4624
49.6374
49.522
49.1092
48.4177
47.4939
46.0958
44.3521
41.9613
39.239
48.7207
49.1052
49.3734
49.5328
49.4023
49.0009
48.3348
47.4449
46.1509
44.5411
42.4239
39.9703
48.5699
49.0151
49.2905
49.4296
49.2812
48.8851
48.2395
47.3802
46.1735
44.6855
42.8056
40.5792
48.4208
48.9286
49.2057
49.3239
49.1584
48.7652
48.1368
47.3046
46.1698
44.7856
43.0974
41.0378
48.2734
48.842
49.1175
49.2169
49.0364
48.6455
48.0319
47.2238
46.1482
44.8499
43.307
41.3471
48.1338
48.7557
49.027
49.1102
48.9176
48.5292
47.9288
47.1426
46.1172
44.8917
43.4623
41.5797
48.0118
48.6726
48.936
49.0058
48.8038
48.4183
47.8303
47.0647
46.0836
44.9244
43.606
42.3185
47.9106
48.5968
48.8473
48.9056
48.6965
48.3145
47.7381
46.9922
46.0519
44.9564
43.753
42.9494
47.7997
48.5313
48.7638
48.8115
48.597
48.2186
47.6533
46.9262
46.0238
44.9898
43.8963
43.369
33.2096
30.7659
30.1862
31.8656
35.0914
39.1438
43.3198
47.403
50.846
53.1022
54.1632
54.6424
34.289
32.1638
31.7452
33.2093
36.1798
39.9388
43.8511
47.6103
50.742
52.6236
53.4409
53.7151
35.4719
33.6387
33.3523
34.772
37.5145
40.9406
44.4905
47.8296
50.5644
52.061
52.6723
53.0028
36.6308
35.0784
34.9067
36.267
38.7873
41.8819
45.0567
48.0016
50.0306
51.612
52.2624
52.6092
37.6926
36.4197
36.3459
37.617
39.9044
42.6698
45.4775
47.8366
49.6854
51.3425
52.0132
52.3077
38.5938
37.5796
37.5804
38.7473
40.7985
43.2618
45.5163
47.5406
49.6193
51.145
51.8179
52.0438
39.2934
38.4992
38.5511
39.6186
41.3155
43.2217
45.3978
47.6504
49.5681
50.9712
51.6497
51.7985
39.8285
39.227
39.1923
39.9148
41.4458
43.471
45.6895
47.7637
49.507
50.8152
51.5051
51.5627
40.4935
40.0532
39.8953
40.571
42.0558
43.935
45.9486
47.8348
49.4409
50.6778
51.3819
51.3266
41.9829
41.3356
40.7769
41.3029
42.6268
44.3176
46.1402
47.8748
49.3767
50.5574
51.2787
51.0836
43.1126
42.0425
41.4411
41.8911
43.0759
44.6089
46.2824
47.8978
49.3168
50.4522
51.1979
50.8732
43.6763
42.4408
41.9511
42.3514
43.4261
44.8356
46.3938
47.9124
49.2615
50.3594
51.1419
50.8861
53.8607
52.5455
51.0764
49.2287
47.2169
45.0404
42.3223
38.7453
34.2936
30.2348
26.0091
23.2953
52.8736
52.1336
51.0132
49.3948
47.4554
45.2918
42.6247
39.2488
35.1485
31.2851
27.419
24.9637
52.347
51.8671
50.9005
49.4319
47.5893
45.495
42.9388
39.7868
36.045
32.451
28.9489
26.7125
51.9992
51.6804
50.7854
49.4193
47.6626
45.6489
43.2164
40.2845
36.8796
33.574
30.4242
28.397
51.6835
51.5059
50.6549
49.3666
47.6837
45.7506
43.4421
40.7197
37.6249
34.6107
31.8024
29.9916
51.3552
51.3134
50.4948
49.2722
47.6573
45.8043
43.6167
41.089
38.2747
35.5412
33.0548
31.488
51.0067
51.1003
50.3078
49.1449
47.5939
45.819
43.7448
41.3926
38.8256
36.3502
34.1536
32.7645
50.6354
50.8684
50.0998
48.9941
47.5037
45.8035
43.8332
41.6358
39.2819
37.0353
35.0924
33.8972
50.2426
50.6196
49.8761
48.8281
47.3952
45.766
43.8897
41.8266
39.6542
37.6053
35.8786
34.85
49.8356
50.3557
49.6418
48.6539
47.2752
45.7134
43.9215
41.9746
39.9551
38.0744
36.5287
35.6397
49.4087
50.0784
49.4024
48.4781
47.1494
45.6515
43.9352
42.0885
40.1977
38.4585
37.0621
36.2877
48.8774
49.7898
49.1649
48.3064
47.0223
45.5849
43.936
42.1758
40.3932
38.7725
37.4974
36.8144
37.7568
39.1128
40.2172
41.9719
42.2558
42.6046
43.0367
43.8996
44.6553
45.1456
45.5347
45.7633
38.1817
39.367
41.1333
41.9936
42.3495
42.7036
43.1423
43.91
44.6199
45.103
45.514
45.7921
38.2681
39.3357
41.2902
42.0341
42.4209
42.7863
43.2289
43.9232
44.5912
45.0647
45.4784
45.7382
38.4311
39.9824
41.3333
42.0774
42.4769
42.8543
43.2986
43.9361
44.5668
45.0292
45.4365
45.6776
38.7248
40.5317
41.4147
42.1065
42.522
42.9092
43.3534
43.9471
44.5454
44.9963
45.3939
45.6219
39.1828
40.838
41.4934
42.1305
42.5581
42.9524
43.3957
43.9554
44.5261
44.9661
45.3532
45.5701
39.7389
40.9503
41.5513
42.1501
42.5879
42.9859
43.4275
43.961
44.5088
44.9391
45.3162
45.5224
40.2106
41.0166
41.5928
42.1674
42.6116
43.0115
43.4508
43.9642
44.4935
44.9156
45.2842
45.4805
40.4615
41.0628
41.6234
42.1831
42.6314
43.0313
43.4676
43.9657
44.4804
44.8963
45.2583
45.4462
40.5873
41.0865
41.6461
42.199
42.6496
43.0471
43.4796
43.9662
44.4698
44.8813
45.2393
45.4209
40.5548
41.0869
41.6636
42.2165
42.6674
43.0613
43.4883
43.9663
44.4621
44.8707
45.2274
45.4056
40.4554
41.0664
41.6765
42.2341
42.6844
43.0729
43.4943
43.9659
44.4575
44.8646
45.2218
45.3997
45.062
45.775
46.2812
46.7046
46.902
46.9633
46.8258
46.4859
45.9165
45.1412
44.1701
43.0565
45.2119
45.8147
46.2738
46.6675
46.8393
46.8803
46.7287
46.3842
45.822
45.0642
44.1242
43.0555
45.3869
45.8684
46.2743
46.6361
46.7845
46.8076
46.6436
46.2948
45.7383
44.9956
44.0822
43.0521
45.5247
45.9197
46.2799
46.6107
46.7379
46.745
46.5699
46.217
45.6649
44.9348
44.044
43.0469
45.6265
45.9669
46.2882
46.591
46.6997
46.6926
46.5073
46.1501
45.6011
44.8814
44.0092
43.04
45.7029
46.0082
46.2975
46.5766
46.6694
46.6497
46.4553
46.0937
45.5463
44.8349
43.9775
43.0314
45.7598
46.0424