/*--------------------------------*- C++ -*----------------------------------*\
| =========                 |                                                 |
| \\      /  F ield         | OpenFOAM: The Open Source CFD Toolbox           |
|  \\    /   O peration     | Version:  2.4.0                                 |
|   \\  /    A nd           | Web:      www.OpenFOAM.org                      |
|    \\/     M anipulation  |                                                 |
\*---------------------------------------------------------------------------*/
FoamFile
{
    version     2.0;
    format      ascii;
    class       volVectorField;
    location    "0.5";
    object      U;
}
// * * * * * * * * * * * * * * * * * * * * * * * * * * * * * * * * * * * * * //

dimensions      [0 1 -1 0 0 0 0];

internalField   nonuniform List<vector> 
4608
(
(0.00529458 0.135637 0)
(0.0136364 0.132066 0)
(0.0213173 0.126598 -1.51406e-26)
(0.0290255 0.120798 -1.43061e-26)
(0.037064 0.115731 0)
(0.0457471 0.112049 0)
(0.0553052 0.109772 -6.37028e-26)
(0.0659335 0.10866 -3.5425e-26)
(0.0780604 0.108374 1.53022e-25)
(0.0916308 0.10861 1.01548e-25)
(0.107661 0.109353 -2.14418e-25)
(0.125733 0.111717 -6.43915e-26)
(-0.00169859 0.156955 0)
(0.000311645 0.153301 -2.23489e-26)
(0.00748549 0.147722 -2.53724e-26)
(0.0190703 0.141824 0)
(0.034026 0.136798 5.65328e-26)
(0.0515456 0.13356 8.78068e-26)
(0.0714682 0.132944 -5.87309e-26)
(0.0935073 0.135115 0)
(0.118104 0.140232 1.86221e-25)
(0.143581 0.14701 -3.28682e-26)
(0.174464 0.146019 -4.14794e-25)
(0.208283 0.141165 0)
(-0.00427239 0.177587 0)
(-0.00367323 0.174253 3.77604e-26)
(0.0066283 0.169763 0)
(0.0251601 0.165037 7.64193e-26)
(0.0500955 0.160914 5.10326e-26)
(0.0800729 0.158074 1.98802e-25)
(0.114819 0.15745 1.69384e-25)
(0.155049 0.159481 3.89418e-25)
(0.20218 0.166551 2.92634e-25)
(0.245642 0.178839 0)
(0.278912 0.188753 -1.32607e-25)
(0.275728 0.187011 0)
(-0.00678309 0.198805 2.28927e-26)
(-0.00567843 0.196717 4.59714e-26)
(0.00919973 0.194153 0)
(0.0346805 0.190635 2.49461e-25)
(0.0680787 0.185931 -1.35808e-26)
(0.108327 0.179912 3.86578e-25)
(0.155127 0.173042 2.11171e-25)
(0.208141 0.167352 2.21693e-25)
(0.256974 0.166349 0)
(0.284607 0.172688 4.16327e-25)
(0.293579 0.189972 7.28382e-25)
(0.278855 0.219255 9.22551e-25)
(-0.00727225 0.220064 1.1185e-26)
(-0.00343797 0.219622 8.50086e-26)
(0.0161377 0.218955 -1.06492e-25)
(0.0462404 0.216194 2.1877e-25)
(0.0839331 0.209925 0)
(0.128063 0.198963 4.3919e-25)
(0.178784 0.182576 3.72999e-25)
(0.236088 0.16527 -3.67044e-25)
(0.283898 0.153551 -3.59152e-25)
(0.317436 0.157576 9.07459e-25)
(0.315479 0.186899 3.25661e-25)
(0.298486 0.209286 -7.82511e-25)
(-0.00565747 0.241593 0)
(0.00196126 0.243184 1.1945e-25)
(0.0253424 0.244255 -1.22444e-25)
(0.0573868 0.242073 -2.58989e-25)
(0.0952617 0.234664 -3.78165e-26)
(0.138169 0.220051 7.37802e-26)
(0.188873 0.195049 4.02526e-25)
(0.248193 0.160296 -1.09607e-25)
(0.300194 0.135709 -1.13148e-25)
(0.329675 0.131719 6.16688e-26)
(0.309804 0.157943 5.0754e-25)
(0.289649 0.183695 -4.97123e-25)
(-0.00158597 0.263452 -1.22998e-26)
(0.00986715 0.267558 -1.17982e-26)
(0.0357995 0.269624 0)
(0.0678326 0.267814 -2.92663e-25)
(0.103256 0.259999 5.46374e-25)
(0.140775 0.244415 -8.32886e-25)
(0.184047 0.216668 -6.62578e-25)
(0.236488 0.169814 -6.2399e-25)
(0.286362 0.118596 -2.69093e-25)
(0.310148 0.0958614 1.6237e-25)
(0.28843 0.111621 -1.40462e-24)
(0.267456 0.144639 1.3141e-24)
(0.00517138 0.285886 0)
(0.0195948 0.293621 0)
(0.0462722 0.295518 2.91206e-25)
(0.0768231 0.293119 0)
(0.109359 0.284272 5.70737e-25)
(0.141283 0.269483 -1.89029e-25)
(0.174862 0.245052 -7.09442e-25)
(0.214729 0.198109 -6.76895e-25)
(0.261876 0.126946 -3.8793e-25)
(0.281083 0.0784075 -6.08142e-25)
(0.262692 0.0747586 -1.21096e-24)
(0.248201 0.0888875 8.44577e-25)
(0.0168315 0.308906 5.85255e-26)
(0.0312026 0.322194 2.87977e-25)
(0.0553923 0.322215 8.22191e-35)
(0.0828706 0.317445 -1.02078e-25)
(0.112975 0.305479 -3.05019e-25)
(0.141592 0.290706 -2.01776e-25)
(0.16882 0.270773 -1.47263e-24)
(0.197681 0.238721 4.91412e-25)
(0.235138 0.173675 4.26616e-25)
(0.258469 0.100835 -7.92086e-25)
(0.24614 0.0747252 -2.72954e-25)
(0.230276 0.0702031 -1.1756e-24)
(0.0333586 0.333178 5.1258e-36)
(0.0433345 0.353627 2.60129e-25)
(0.0597202 0.347599 -3.07589e-25)
(0.0830459 0.338519 0)
(0.111929 0.321648 -1.42008e-25)
(0.139385 0.304704 5.26341e-25)
(0.164796 0.285699 -1.4013e-24)
(0.186713 0.263725 0)
(0.21032 0.222001 1.36841e-24)
(0.231906 0.150164 0)
(0.228344 0.0988077 -1.35644e-25)
(0.218869 0.0791689 -1.55169e-24)
(0.0613385 0.355367 -3.60335e-26)
(0.0542491 0.373209 1.96139e-25)
(0.0557276 0.356315 5.51956e-25)
(0.0752645 0.342509 5.02858e-25)
(0.103996 0.32371 -1.62896e-25)
(0.132256 0.307013 2.6555e-24)
(0.158018 0.289131 0)
(0.175816 0.270694 -4.2051e-25)
(0.191407 0.24129 6.5065e-25)
(0.205444 0.193532 0)
(0.206165 0.13673 -9.49664e-25)
(0.196239 0.0969878 -5.01629e-25)
(0.0412405 0.337325 2.11679e-25)
(0.0368135 0.336185 -1.58391e-34)
(0.0320465 0.315152 5.76832e-34)
(0.0544823 0.302743 5.11468e-25)
(0.0870854 0.289076 1.17788e-24)
(0.117365 0.278754 2.01689e-24)
(0.143415 0.268283 8.82218e-25)
(0.157478 0.257376 0)
(0.164791 0.237111 0)
(0.176994 0.200915 0)
(0.180612 0.158228 -7.72761e-25)
(0.174892 0.118048 -1.81321e-24)
(0.140646 0.114902 -8.04979e-26)
(0.153459 0.112288 -5.14378e-26)
(0.166816 0.104746 -3.34321e-25)
(0.178539 0.0940126 2.30086e-25)
(0.184249 0.0861453 0)
(0.184649 0.0783906 3.34404e-25)
(0.179251 0.0731867 5.70522e-25)
(0.16506 0.070274 0)
(0.152874 0.0501486 0)
(0.14843 0.0283423 0)
(0.145301 0.0150397 7.92033e-27)
(0.138363 0.00636565 5.16502e-27)
(0.224523 0.149933 4.58743e-26)
(0.233519 0.15102 -2.38352e-28)
(0.240812 0.148761 -3.9908e-25)
(0.239483 0.144556 -6.1632e-25)
(0.229905 0.138018 -1.7439e-25)
(0.216609 0.128144 -1.77414e-25)
(0.202502 0.11788 -4.94116e-25)
(0.189661 0.110316 -3.20386e-25)
(0.183784 0.0813984 -3.30536e-25)
(0.183128 0.040829 0)
(0.177066 0.0444145 1.60462e-26)
(0.163317 0.0386214 2.7579e-26)
(0.27007 0.178898 -4.57353e-25)
(0.271349 0.178822 0)
(0.275331 0.176412 0)
(0.269693 0.183765 -2.61481e-25)
(0.261013 0.183036 0)
(0.252794 0.174712 2.99141e-26)
(0.242754 0.165001 2.2514e-25)
(0.223209 0.156204 1.90113e-26)
(0.207267 0.123288 -5.43577e-26)
(0.182206 0.0820209 0)
(0.160292 0.0598518 1.51813e-26)
(0.167925 0.0330486 -2.51468e-26)
(0.295063 0.214894 -1.09554e-24)
(0.303042 0.210578 -3.37808e-25)
(0.302727 0.20274 -1.7522e-25)
(0.291795 0.20977 5.46457e-25)
(0.28772 0.217217 1.34988e-25)
(0.285973 0.216191 -2.37894e-25)
(0.276648 0.214464 8.29331e-26)
(0.26727 0.215653 -6.53321e-27)
(0.25833 0.182248 9.51513e-26)
(0.230792 0.144848 0)
(0.20806 0.0829153 -5.00455e-26)
(0.199415 0.0245679 -3.94154e-26)
(0.302169 0.212421 4.87471e-25)
(0.302335 0.209457 -5.87336e-25)
(0.300327 0.205945 -5.2107e-25)
(0.299854 0.206527 4.52545e-25)
(0.303018 0.211613 -2.03817e-25)
(0.30752 0.218409 -1.62703e-25)
(0.310803 0.230282 -1.42094e-25)
(0.307894 0.242052 -4.34343e-26)
(0.294971 0.236755 1.46039e-25)
(0.267592 0.2113 3.13858e-25)
(0.243375 0.12541 -2.84091e-25)
(0.223389 0.0437261 -4.45572e-26)
(0.285823 0.196933 5.24211e-25)
(0.279024 0.197798 -4.74757e-25)
(0.272424 0.192779 -6.46222e-25)
(0.271678 0.188886 -2.1983e-25)
(0.272813 0.190721 0)
(0.275409 0.193038 2.9354e-25)
(0.285683 0.201078 3.9953e-25)
(0.30337 0.226295 -3.40908e-25)
(0.311367 0.260958 0)
(0.2995 0.2708 1.93632e-25)
(0.271821 0.187998 -1.54599e-25)
(0.245451 0.0707966 3.57835e-26)
(0.257787 0.17299 0)
(0.246048 0.186372 0)
(0.240438 0.183032 -1.17685e-24)
(0.248362 0.174767 0)
(0.258403 0.173896 -9.12156e-26)
(0.268114 0.173638 -4.05798e-25)
(0.276025 0.174568 3.94619e-25)
(0.2794 0.192369 1.715e-25)
(0.278257 0.234416 3.85009e-25)
(0.288166 0.267169 -1.49534e-25)
(0.29442 0.2238 -2.96477e-25)
(0.27738 0.0982724 -3.62761e-26)
(0.233147 0.125392 3.87436e-26)
(0.220418 0.159805 1.85938e-24)
(0.221643 0.167203 7.94785e-25)
(0.240054 0.15417 -9.20862e-25)
(0.249654 0.153597 -8.23616e-25)
(0.255738 0.157108 -4.42845e-25)
(0.261503 0.159801 3.99532e-25)
(0.268409 0.172398 9.37932e-25)
(0.279521 0.207349 0)
(0.30446 0.242485 -3.83969e-25)
(0.314636 0.231061 3.47678e-25)
(0.314897 0.133387 1.85873e-25)
(0.209444 0.0819219 1.73599e-24)
(0.199771 0.108452 1.08146e-24)
(0.203424 0.133715 1.36034e-24)
(0.213496 0.130494 -6.17964e-25)
(0.216371 0.130749 -6.83091e-25)
(0.224502 0.135945 -2.5825e-25)
(0.232829 0.138664 4.63203e-25)
(0.246539 0.146584 1.04119e-24)
(0.257922 0.175341 1.16249e-25)
(0.276358 0.21834 0)
(0.28538 0.231225 1.9822e-25)
(0.319879 0.169097 1.10599e-25)
(0.20172 0.0791139 1.48211e-24)
(0.18785 0.0883703 1.07468e-25)
(0.178453 0.105452 0)
(0.181929 0.10545 -8.08374e-25)
(0.188603 0.105459 0)
(0.198752 0.111453 0)
(0.205779 0.114859 2.66017e-25)
(0.21786 0.118603 -1.44608e-25)
(0.223448 0.142429 1.68658e-25)
(0.245688 0.183853 1.20209e-24)
(0.275454 0.196336 4.5711e-27)
(0.324779 0.149653 -2.25319e-26)
(0.180358 0.0837435 4.11588e-25)
(0.170128 0.0818402 -1.0051e-24)
(0.164093 0.0941275 0)
(0.172706 0.0955531 -5.69245e-25)
(0.177367 0.0926895 1.74225e-25)
(0.180831 0.0953091 0)
(0.18212 0.0986831 -5.4054e-25)
(0.188019 0.101323 -3.55404e-25)
(0.190264 0.119146 -3.42086e-26)
(0.21924 0.143981 1.91188e-24)
(0.261698 0.146475 0)
(0.327483 0.111146 1.76237e-25)
(0.164527 0.0929118 -1.45671e-24)
(0.155639 0.0823234 -6.45746e-25)
(0.153674 0.086023 0)
(0.161488 0.0861509 0)
(0.161521 0.0846197 4.50365e-25)
(0.16097 0.0882824 -5.38488e-25)
(0.160317 0.0927754 -1.08294e-24)
(0.163598 0.0937957 1.63368e-25)
(0.166552 0.10028 -5.9816e-25)
(0.189076 0.105451 7.26765e-26)
(0.233055 0.090877 5.20314e-25)
(0.305704 0.0194837 1.68828e-25)
(0.135611 -0.00512339 1.94607e-27)
(0.132455 -0.013728 -8.9634e-27)
(0.128017 -0.0218065 3.32908e-26)
(0.123468 -0.029821 0)
(0.119552 -0.0380424 6.4905e-26)
(0.116538 -0.046757 -7.62567e-26)
(0.114338 -0.0561064 -1.19353e-25)
(0.112899 -0.0663242 0)
(0.112056 -0.077728 -4.49748e-26)
(0.111439 -0.0904929 -4.93285e-26)
(0.110583 -0.10449 4.5491e-26)
(0.109027 -0.119162 9.12805e-26)
(0.157094 0.000764537 8.32924e-27)
(0.154896 -0.00395117 -2.98524e-26)
(0.151891 -0.0133132 -6.81472e-26)
(0.14891 -0.026006 2.95779e-26)
(0.146598 -0.0410558 4.67318e-26)
(0.145387 -0.0581472 1.75408e-26)
(0.145456 -0.0772657 0)
(0.146495 -0.0982993 0)
(0.148044 -0.120907 1.93711e-25)
(0.149664 -0.144291 1.47679e-25)
(0.151012 -0.167208 -2.37556e-25)
(0.151866 -0.188223 1.5962e-25)
(0.177822 0.000838107 -1.88497e-27)
(0.176648 -0.00602302 -6.93116e-26)
(0.17549 -0.0202026 -7.84147e-26)
(0.174518 -0.0398047 8.06914e-26)
(0.173869 -0.0631909 0)
(0.173541 -0.0891061 0)
(0.173531 -0.116833 0)
(0.173702 -0.145614 0)
(0.173896 -0.174446 2.1784e-35)
(0.17409 -0.202139 2.5739e-25)
(0.174419 -0.227513 -2.67289e-25)
(0.175119 -0.249566 2.17372e-25)
(0.199164 0.000322646 1.35414e-26)
(0.199497 -0.0102113 -5.45372e-26)
(0.200219 -0.0297382 -3.73399e-26)
(0.20039 -0.0554429 -1.85276e-25)
(0.199736 -0.0851134 6.32146e-26)
(0.198203 -0.117044 0)
(0.195819 -0.149954 0)
(0.19279 -0.182681 0)
(0.189458 -0.214108 -8.69493e-25)
(0.186349 -0.24322 0)
(0.18412 -0.269195 3.85783e-25)
(0.183468 -0.291391 8.44201e-26)
(0.220375 -0.00206526 7.25121e-26)
(0.221823 -0.0173361 -1.03051e-25)
(0.223291 -0.0415939 0)
(0.223224 -0.0713166 -4.22707e-25)
(0.221006 -0.104213 3.26252e-26)
(0.216486 -0.138454 -1.57634e-25)
(0.209892 -0.172742 0)
(0.201869 -0.205861 0)
(0.193227 -0.236798 -6.21797e-25)
(0.184969 -0.264724 0)
(0.178175 -0.288999 6.0461e-25)
(0.17396 -0.309103 0)
(0.241657 -0.00549522 -5.30581e-37)
(0.243912 -0.0251692 -1.10788e-25)
(0.245214 -0.0526621 0)
(0.243867 -0.0838632 1.4552e-34)
(0.238754 -0.117084 -1.29124e-25)
(0.230058 -0.150571 -1.98604e-25)
(0.218139 -0.183357 0)
(0.204142 -0.214302 -2.97115e-25)
(0.189236 -0.242477 -8.1773e-26)
(0.1748 -0.267107 -5.3116e-25)
(0.162228 -0.287553 -5.93346e-25)
(0.152958 -0.303336 0)
(0.263117 -0.00998953 2.67472e-26)
(0.266669 -0.0330766 6.50879e-27)
(0.267361 -0.0619488 -1.98997e-25)
(0.264104 -0.0921822 4.12885e-25)
(0.255201 -0.123265 2.01037e-25)
(0.241689 -0.15368 -8.15127e-25)
(0.223975 -0.183085 -2.56283e-25)
(0.203846 -0.210444 8.02292e-26)
(0.182718 -0.234806 -8.42288e-25)
(0.162257 -0.255329 -5.7674e-25)
(0.144031 -0.271274 -3.96243e-25)
(0.129654 -0.282216 2.35884e-25)
(0.284999 -0.0163413 5.46e-26)
(0.291359 -0.0413994 -1.24783e-25)
(0.291256 -0.0694598 -2.61406e-25)
(0.285909 -0.096269 9.78468e-25)
(0.272579 -0.123199 9.64653e-25)
(0.253918 -0.149003 -5.67837e-25)
(0.230185 -0.174169 -1.81823e-25)
(0.204161 -0.19772 -2.36942e-25)
(0.177451 -0.218432 -8.26148e-25)
(0.151878 -0.235319 -1.20551e-26)
(0.12901 -0.2474 2.10859e-25)
(0.110375 -0.254325 2.85922e-25)
(0.307403 -0.0264645 -1.06227e-25)
(0.31809 -0.0512523 -1.30867e-25)
(0.316055 -0.0755011 -1.57239e-25)
(0.308625 -0.0963635 7.55074e-25)
(0.291037 -0.117477 0)
(0.267772 -0.137751 3.70534e-25)
(0.238245 -0.158595 3.62871e-25)
(0.206714 -0.179099 9.07389e-25)
(0.17517 -0.197289 9.15486e-25)
(0.145587 -0.211926 0)
(0.119446 -0.22155 -2.53122e-25)
(0.0978428 -0.225918 5.3411e-26)
(0.32943 -0.0395296 -7.09449e-26)
(0.341357 -0.060538 -4.40567e-26)
(0.330744 -0.0761149 1.3929e-25)
(0.319948 -0.089092 -3.19064e-25)
(0.300798 -0.103501 -3.54584e-25)
(0.27712 -0.11889 3.03899e-25)
(0.245168 -0.137158 2.34112e-25)
(0.210416 -0.156638 1.09476e-24)
(0.175605 -0.174196 1.72505e-24)
(0.143289 -0.188501 7.70352e-25)
(0.115316 -0.197352 2.8137e-25)
(0.092142 -0.2008 -3.8317e-25)
(0.344703 -0.0578588 8.43869e-26)
(0.337761 -0.0569637 -7.69453e-26)
(0.305925 -0.0590626 4.75442e-25)
(0.284372 -0.0667691 0)
(0.264407 -0.0776187 5.48586e-25)
(0.249404 -0.0898039 3.51522e-25)
(0.229417 -0.107234 2.4424e-25)
(0.203533 -0.128965 7.20888e-25)
(0.173352 -0.149148 7.98501e-25)
(0.142606 -0.166206 6.25113e-25)
(0.115269 -0.176536 -8.93779e-25)
(0.0919993 -0.180948 -8.28097e-25)
(0.306198 -0.0104315 -1.30046e-25)
(0.280752 -0.0142601 -4.51919e-25)
(0.237843 -0.0136839 0)
(0.207184 -0.0231326 0)
(0.173184 -0.0339768 1.47399e-25)
(0.156282 -0.048509 7.08241e-26)
(0.151008 -0.0666933 -9.79472e-26)
(0.147022 -0.0958562 4.34386e-25)
(0.141343 -0.122903 -2.02305e-25)
(0.128105 -0.144159 0)
(0.111048 -0.157519 -1.56908e-25)
(0.0926474 -0.165078 2.75556e-25)
(0.106416 -0.133532 7.87426e-26)
(0.102536 -0.146396 -1.81528e-25)
(0.0972854 -0.156609 7.2355e-26)
(0.0906766 -0.163516 4.62007e-25)
(0.0823413 -0.166492 2.96486e-25)
(0.0722507 -0.165015 1.3044e-34)
(0.0607695 -0.160023 -9.39297e-26)
(0.048123 -0.152867 -2.80807e-26)
(0.034731 -0.145308 -2.41216e-26)
(0.021381 -0.13922 -5.5376e-26)
(0.00947331 -0.135929 -1.2768e-26)
(0.000906915 -0.135571 4.43431e-27)
(0.152077 -0.20601 2.20256e-25)
(0.151489 -0.219544 -3.77875e-25)
(0.149845 -0.228136 -4.07812e-25)
(0.146611 -0.23125 3.63136e-25)
(0.141386 -0.229283 2.20826e-25)
(0.133443 -0.222605 -1.81095e-25)
(0.121698 -0.21185 -2.13724e-25)
(0.105081 -0.198205 -1.30924e-25)
(0.0830422 -0.183397 1.60966e-25)
(0.0563789 -0.169852 1.68854e-25)
(0.0288581 -0.160099 -5.26689e-26)
(0.00601831 -0.156567 -5.29864e-27)
(0.176409 -0.267524 -8.72967e-26)
(0.17837 -0.280798 2.58481e-25)
(0.180839 -0.288945 -2.44627e-25)
(0.183335 -0.291755 2.29314e-25)
(0.184737 -0.289094 0)
(0.183418 -0.281001 -2.00799e-25)
(0.177253 -0.267989 1.90344e-25)
(0.163354 -0.250548 -1.98339e-25)
(0.138859 -0.229606 -2.27012e-25)
(0.101786 -0.207489 6.78806e-26)
(0.055784 -0.187553 -5.13723e-26)
(0.0120433 -0.177673 3.71068e-27)
(0.185014 -0.309282 5.48669e-25)
(0.189161 -0.32247 3.78371e-25)
(0.195936 -0.330715 -5.95788e-26)
(0.204633 -0.333718 -1.18525e-25)
(0.214171 -0.331917 3.68617e-25)
(0.22271 -0.325561 -3.44944e-25)
(0.22716 -0.314274 3.17624e-25)
(0.223243 -0.298011 3.85491e-25)
(0.205557 -0.276081 4.48493e-25)
(0.166736 -0.249442 3.09795e-25)
(0.103995 -0.219692 8.33109e-26)
(0.0273983 -0.199381 3.63792e-26)
(0.173353 -0.324628 8.37374e-25)
(0.177128 -0.33542 -6.88826e-25)
(0.185604 -0.341649 0)
(0.198401 -0.343839 0)
(0.214763 -0.342509 6.21053e-25)
(0.232674 -0.338607 8.36537e-26)
(0.249421 -0.331924 7.66074e-26)
(0.260278 -0.322299 4.15373e-26)
(0.258804 -0.307196 1.9576e-25)
(0.23227 -0.285773 -1.70347e-25)
(0.16743 -0.254838 -2.44214e-25)
(0.0541101 -0.223702 -4.78157e-26)
(0.14836 -0.314175 4.9566e-25)
(0.149516 -0.32028 -4.43563e-25)
(0.156995 -0.32228 -4.4604e-25)
(0.170638 -0.321543 4.6231e-26)
(0.189784 -0.319197 5.99253e-25)
(0.212894 -0.316847 -1.2298e-25)
(0.238075 -0.314464 3.81555e-25)
(0.261454 -0.313254 1.566e-25)
(0.278325 -0.309421 4.84263e-25)
(0.273898 -0.302452 0)
(0.227553 -0.282959 0)
(0.0921771 -0.251747 0)
(0.120711 -0.287997 0)
(0.118493 -0.289242 8.86936e-25)
(0.123745 -0.286865 0)
(0.136301 -0.282902 0)
(0.155582 -0.278703 -3.06555e-25)
(0.179728 -0.276861 -9.11486e-26)
(0.207676 -0.27662 4.47483e-25)
(0.236161 -0.28158 4.77386e-26)
(0.264051 -0.28681 3.109e-25)
(0.278963 -0.295989 -3.55081e-25)
(0.261784 -0.294061 2.07036e-25)
(0.13346 -0.28078 -9.65935e-26)
(0.0975527 -0.255977 -1.3483e-24)
(0.091892 -0.253404 4.40852e-25)
(0.0942554 -0.247561 8.87525e-25)
(0.104576 -0.241265 8.99984e-25)
(0.122478 -0.235297 9.45146e-25)
(0.145751 -0.233859 9.88952e-25)
(0.173765 -0.23475 4.58313e-26)
(0.202618 -0.24419 2.50733e-25)
(0.233355 -0.254706 1.26544e-25)
(0.256787 -0.276392 -8.52263e-25)
(0.26346 -0.2897 3.26342e-25)
(0.162465 -0.303966 -8.47524e-26)
(0.0821065 -0.224807 -8.69081e-25)
(0.0734036 -0.219664 -3.93861e-25)
(0.0724946 -0.211196 1.34406e-24)
(0.0795115 -0.203085 6.69427e-25)
(0.0941492 -0.195157 9.94821e-25)
(0.114548 -0.193558 5.24769e-25)
(0.140109 -0.194253 1.0662e-25)
(0.166693 -0.207102 4.16683e-26)
(0.19609 -0.220783 2.99994e-25)
(0.219766 -0.252281 -7.41522e-25)
(0.239465 -0.27702 -1.26066e-26)
(0.16778 -0.317592 -2.88085e-26)
(0.074806 -0.198353 0)
(0.0640302 -0.191863 -7.56279e-25)
(0.0601412 -0.181645 -3.17623e-34)
(0.0636788 -0.172197 0)
(0.0739973 -0.162209 1.10855e-25)
(0.0900833 -0.159773 -1.62491e-25)
(0.110941 -0.158725 0)
(0.132658 -0.17309 0)
(0.157234 -0.187347 1.68473e-24)
(0.174773 -0.226194 -4.0209e-25)
(0.196765 -0.258694 0)
(0.146355 -0.322243 -1.69815e-25)
(0.0744553 -0.178518 3.04671e-25)
(0.0627682 -0.171697 2.4497e-25)
(0.0566575 -0.160618 -1.44569e-24)
(0.0572196 -0.15024 0)
(0.0630599 -0.138529 0)
(0.0742416 -0.134622 0)
(0.0892248 -0.130889 9.04684e-25)
(0.104532 -0.14432 0)
(0.121888 -0.156075 9.683e-25)
(0.128872 -0.198613 -5.01889e-34)
(0.141048 -0.233234 -5.42876e-25)
(0.0975173 -0.317379 -3.36711e-25)
(0.0781698 -0.164263 0)
(0.0673687 -0.15804 1.08764e-24)
(0.0603771 -0.147211 -6.1522e-25)
(0.058817 -0.136099 6.94779e-25)
(0.0607783 -0.123587 0)
(0.0671792 -0.117478 7.56657e-25)
(0.0761374 -0.111553 8.53081e-25)
(0.0846655 -0.120984 2.98843e-25)
(0.0935719 -0.128448 2.47148e-25)
(0.0898801 -0.1662 3.59412e-25)
(0.0797332 -0.196848 -1.84947e-25)
(-0.00276049 -0.295969 -4.95941e-26)
(-0.00502356 -0.13558 4.15623e-27)
(-0.013551 -0.132339 5.04544e-27)
(-0.0216165 -0.127836 1.43718e-26)
(-0.029666 -0.123296 -5.95663e-26)
(-0.0380047 -0.119548 -2.55609e-26)
(-0.0469479 -0.1168 1.04358e-25)
(-0.0566143 -0.114952 8.72199e-26)
(-0.0673575 -0.114033 0)
(-0.0795709 -0.11382 -1.81205e-25)
(-0.093482 -0.113884 -1.37777e-25)
(-0.108934 -0.113681 -7.96279e-26)
(-0.125223 -0.11269 -2.1571e-27)
(0.000979963 -0.157084 8.46051e-27)
(-0.00371862 -0.154865 3.47743e-26)
(-0.0133409 -0.151925 -6.7e-26)
(-0.0265259 -0.149132 0)
(-0.0422898 -0.147155 1.17145e-25)
(-0.0604697 -0.146514 -1.28902e-25)
(-0.0810487 -0.147361 -7.32739e-26)
(-0.10395 -0.14929 -3.84221e-27)
(-0.128767 -0.151806 2.72318e-25)
(-0.154489 -0.154418 0)
(-0.179573 -0.156754 2.36325e-25)
(-0.202306 -0.158577 0)
(0.00107122 -0.177812 4.04736e-26)
(-0.00599314 -0.176659 7.04305e-26)
(-0.0208386 -0.175635 -1.60413e-25)
(-0.04155 -0.174935 -3.97859e-26)
(-0.0664239 -0.174697 2.29875e-26)
(-0.0942503 -0.174962 9.67315e-26)
(-0.124309 -0.175711 -2.58887e-25)
(-0.155693 -0.176731 -1.986e-25)
(-0.187166 -0.177829 4.98502e-25)
(-0.217247 -0.178972 1.4139e-25)
(-0.244511 -0.180322 4.59248e-25)
(-0.267846 -0.182168 -4.16298e-25)
(0.000525881 -0.199159 1.37156e-26)
(-0.0104724 -0.199511 8.71082e-26)
(-0.0310528 -0.200308 3.7274e-26)
(-0.0583709 -0.200643 -2.33409e-25)
(-0.0901997 -0.200295 0)
(-0.124729 -0.199195 4.02814e-25)
(-0.160539 -0.197377 5.46606e-25)
(-0.19621 -0.195013 2.31268e-25)
(-0.230318 -0.192447 -9.15707e-27)
(-0.261544 -0.190239 5.99842e-25)
(-0.288821 -0.189098 5.37134e-25)
(-0.31138 -0.18978 -1.13129e-24)
(-0.0018531 -0.22036 -3.4098e-36)
(-0.0177565 -0.221699 1.38961e-25)
(-0.043374 -0.22309 1.30858e-26)
(-0.0751261 -0.222976 -2.36909e-25)
(-0.1107 -0.220802 -9.19342e-26)
(-0.148071 -0.216452 -1.66098e-25)
(-0.185645 -0.210168 2.95135e-25)
(-0.221847 -0.202588 0)
(-0.255318 -0.194565 -1.26108e-24)
(-0.284922 -0.187188 6.25791e-25)
(-0.309783 -0.181653 6.02635e-25)
(-0.329297 -0.179214 -1.12718e-24)
(-0.00514255 -0.241628 7.32279e-26)
(-0.0254493 -0.243512 1.17389e-25)
(-0.0544695 -0.244393 -1.18988e-25)
(-0.0880718 -0.242638 -3.45353e-25)
(-0.124432 -0.237257 -3.24823e-26)
(-0.161489 -0.228448 1.28462e-25)
(-0.197796 -0.216602 4.24173e-25)
(-0.231762 -0.202827 -2.95724e-25)
(-0.26211 -0.188344 -2.74092e-25)
(-0.287794 -0.174658 6.16827e-25)
(-0.308032 -0.163328 -1.26421e-25)
(-0.322363 -0.155987 -7.62239e-25)
(-0.00924887 -0.263061 1.09353e-25)
(-0.0327505 -0.26583 -7.12277e-27)
(-0.0632569 -0.265628 -5.10318e-26)
(-0.0962412 -0.261459 -1.45622e-25)
(-0.13096 -0.25193 3.25194e-25)
(-0.165413 -0.238087 6.76481e-28)
(-0.198512 -0.220367 -7.905e-25)
(-0.228683 -0.200389 -6.35424e-25)
(-0.25471 -0.179576 3.82316e-25)
(-0.275564 -0.159743 9.37171e-36)
(-0.290549 -0.142668 -1.32083e-24)
(-0.299378 -0.130277 -3.01567e-25)
(-0.014875 -0.284933 5.57782e-26)
(-0.0398383 -0.290071 2.26137e-26)
(-0.0696173 -0.288615 4.32274e-25)
(-0.0995606 -0.281676 9.18552e-25)
(-0.130799 -0.267166 3.87518e-26)
(-0.16134 -0.247971 3.76018e-25)
(-0.190438 -0.224461 0)
(-0.216479 -0.198852 0)
(-0.23823 -0.172563 0)
(-0.254627 -0.14756 -1.62057e-24)
(-0.265029 -0.125613 -2.06906e-24)
(-0.269314 -0.108756 9.98451e-25)
(-0.0242273 -0.307523 -1.07703e-25)
(-0.048121 -0.317227 -2.66531e-25)
(-0.0741171 -0.314123 2.7741e-25)
(-0.0983495 -0.304463 1.71089e-25)
(-0.124624 -0.284411 2.18234e-25)
(-0.150839 -0.259764 -3.44153e-25)
(-0.176126 -0.230649 5.26803e-25)
(-0.198699 -0.200075 -2.35478e-25)
(-0.217125 -0.169362 -2.94485e-26)
(-0.23022 -0.140476 -9.0417e-25)
(-0.237372 -0.114908 -2.11307e-24)
(-0.238561 -0.094583 -7.16032e-25)
(-0.0367299 -0.330532 -4.8768e-26)
(-0.0568003 -0.34519 -4.70332e-25)
(-0.0747412 -0.336988 9.22708e-26)
(-0.0911938 -0.324978 -1.01958e-24)
(-0.112181 -0.300688 3.85064e-26)
(-0.134933 -0.272332 -1.73665e-25)
(-0.157486 -0.239076 1.04711e-24)
(-0.177964 -0.204608 0)
(-0.194576 -0.170495 8.72741e-25)
(-0.205903 -0.138882 8.18061e-25)
(-0.211358 -0.110913 -1.05314e-24)
(-0.210968 -0.0883089 -1.10128e-24)
(-0.0623242 -0.349191 1.76135e-26)
(-0.062353 -0.353365 -3.4931e-25)
(-0.0669743 -0.332814 -9.78993e-26)
(-0.0756524 -0.319432 -6.95082e-25)
(-0.0917393 -0.297518 -1.59898e-25)
(-0.11291 -0.273265 0)
(-0.13526 -0.242831 -8.72072e-26)
(-0.155779 -0.209276 -3.1889e-26)
(-0.172514 -0.174639 7.67493e-25)
(-0.183781 -0.141954 6.72383e-25)
(-0.189097 -0.112682 6.58946e-25)
(-0.188484 -0.0888413 0)
(-0.0193528 -0.319752 2.71303e-25)
(-0.0269125 -0.301225 2.15268e-25)
(-0.032984 -0.263017 -4.99598e-25)
(-0.0456575 -0.250612 -3.96684e-25)
(-0.0624069 -0.240142 -2.62931e-25)
(-0.0839315 -0.231684 -2.31018e-25)
(-0.107949 -0.218386 -5.71887e-26)
(-0.130903 -0.199011 6.62745e-26)
(-0.150221 -0.17346 9.6149e-26)
(-0.163608 -0.145517 0)
(-0.170676 -0.118008 3.21277e-25)
(-0.171266 -0.094622 9.45394e-25)
(-0.141135 -0.110529 -4.2152e-26)
(-0.155264 -0.106969 1.78978e-25)
(-0.166308 -0.101936 6.51431e-26)
(-0.173376 -0.0954971 6.35735e-26)
(-0.175682 -0.0870279 0)
(-0.172793 -0.0764956 -1.9822e-25)
(-0.166112 -0.0644163 -7.82161e-26)
(-0.157149 -0.0510339 -1.79255e-26)
(-0.147876 -0.036807 0)
(-0.140397 -0.0226186 -2.93338e-26)
(-0.136189 -0.00999529 -1.15267e-26)
(-0.135541 -0.000966254 -7.73134e-27)
(-0.221104 -0.159691 -1.74963e-25)
(-0.235001 -0.15989 4.18981e-25)
(-0.243629 -0.159083 7.94302e-26)
(-0.245694 -0.15711 -1.02887e-25)
(-0.241784 -0.152669 0)
(-0.23286 -0.144728 0)
(-0.219947 -0.132241 -5.12342e-26)
(-0.204119 -0.114371 -9.22861e-26)
(-0.187171 -0.0905003 8.81689e-26)
(-0.171752 -0.0615043 9.77301e-26)
(-0.160615 -0.0314331 -7.14996e-26)
(-0.156535 -0.00650024 -3.90448e-27)
(-0.286264 -0.184587 -4.29027e-26)
(-0.299282 -0.187502 2.22712e-25)
(-0.30774 -0.191604 0)
(-0.309198 -0.197145 -3.2421e-35)
(-0.303045 -0.200735 0)
(-0.291746 -0.200421 0)
(-0.276807 -0.193103 0)
(-0.257466 -0.178085 0)
(-0.234513 -0.151673 -8.62702e-26)
(-0.210439 -0.111607 6.99236e-26)
(-0.188586 -0.0613917 -6.13475e-26)
(-0.177642 -0.0132896 -1.75087e-26)
(-0.328414 -0.192697 2.05961e-25)
(-0.339725 -0.19829 1.9858e-25)
(-0.348283 -0.208644 0)
(-0.352047 -0.221056 5.58326e-25)
(-0.347241 -0.231832 0)
(-0.335061 -0.240251 1.86853e-25)
(-0.320607 -0.244663 -1.71764e-25)
(-0.304024 -0.241067 2.75317e-25)
(-0.280937 -0.222491 8.11518e-25)
(-0.253073 -0.181281 3.48856e-25)
(-0.221522 -0.113758 1.60636e-25)
(-0.199493 -0.0301182 5.07113e-26)
(-0.342962 -0.180808 0)
(-0.350856 -0.187292 -4.78379e-25)
(-0.354427 -0.19933 0)
(-0.355057 -0.213938 3.89492e-25)
(-0.351958 -0.230766 0)
(-0.345568 -0.248886 7.41756e-26)
(-0.33641 -0.267051 -2.03979e-25)
(-0.325826 -0.278369 1.95036e-26)
(-0.310248 -0.27687 5.9474e-25)
(-0.288648 -0.249249 0)
(-0.257055 -0.180881 1.50022e-25)
(-0.22424 -0.0589558 -3.80924e-26)
(-0.330663 -0.153954 0)
(-0.333474 -0.158247 -1.12602e-26)
(-0.332217 -0.169138 4.60095e-25)
(-0.328821 -0.185371 -4.6821e-26)
(-0.324123 -0.206187 -1.41273e-25)
(-0.31971 -0.229888 0)
(-0.315681 -0.255389 -3.53323e-25)
(-0.313624 -0.278628 -1.97157e-26)
(-0.309601 -0.29512 -1.76766e-34)
(-0.30322 -0.290235 0)
(-0.284278 -0.242151 1.50829e-25)
(-0.252853 -0.0992608 -6.57559e-26)
(-0.302256 -0.12419 -4.88043e-25)
(-0.300208 -0.125586 -6.45013e-27)
(-0.294779 -0.134726 4.36495e-25)
(-0.288323 -0.150757 -3.62327e-25)
(-0.282138 -0.172537 5.36401e-26)
(-0.278639 -0.198171 4.00827e-25)
(-0.277181 -0.226377 3.20195e-26)
(-0.281302 -0.25412 -4.01793e-25)
(-0.286056 -0.280511 -6.1894e-25)
(-0.295515 -0.29413 4.50989e-25)
(-0.294147 -0.275516 1.65846e-25)
(-0.282085 -0.141988 1.98149e-33)
(-0.26788 -0.0987078 -5.05044e-25)
(-0.26217 -0.0968017 -4.70052e-25)
(-0.253718 -0.103425 -4.81176e-25)
(-0.245369 -0.117914 -6.30392e-25)
(-0.238214 -0.139177 -1.057e-25)
(-0.235829 -0.164978 4.76092e-25)
(-0.236065 -0.193874 7.85482e-25)
(-0.245018 -0.222293 -9.58394e-25)
(-0.255181 -0.251138 -1.28537e-24)
(-0.276651 -0.272452 4.40074e-25)
(-0.289809 -0.276818 2.65334e-25)
(-0.305028 -0.171619 0)
(-0.234227 -0.0810437 6.06261e-26)
(-0.226097 -0.0757127 4.23984e-25)
(-0.215453 -0.0790349 0)
(-0.205686 -0.0905627 -1.31811e-24)
(-0.19724 -0.109525 -4.73984e-26)
(-0.195463 -0.133134 -1.1541e-25)
(-0.196285 -0.1604 -3.82879e-25)
(-0.209096 -0.187208 0)
(-0.223075 -0.214959 -1.02159e-24)
(-0.254195 -0.236583 2.66673e-25)
(-0.278459 -0.253594 2.99712e-25)
(-0.318734 -0.178182 1.61684e-25)
(-0.20516 -0.072111 4.32742e-25)
(-0.19585 -0.0638256 -3.52357e-25)
(-0.183859 -0.0636482 0)
(-0.173363 -0.071657 -2.00866e-24)
(-0.163449 -0.0868623 6.74446e-26)
(-0.161312 -0.106798 -2.38737e-25)
(-0.161524 -0.1304 -3.74387e-25)
(-0.176322 -0.153248 6.63825e-25)
(-0.191919 -0.176771 7.54012e-25)
(-0.230226 -0.192747 -2.10804e-26)
(-0.262561 -0.212113 2.84219e-26)
(-0.324191 -0.159399 1.75844e-25)
(-0.182466 -0.0708435 1.06373e-24)
(-0.173029 -0.0604198 1.07603e-24)
(-0.16068 -0.0570835 0)
(-0.149852 -0.0616703 -1.0964e-24)
(-0.138977 -0.0724356 -9.21978e-25)
(-0.135923 -0.0880876 -1.82553e-25)
(-0.134654 -0.106885 -4.66561e-25)
(-0.148807 -0.124284 -9.70205e-25)
(-0.163163 -0.141509 0)
(-0.204558 -0.147658 -9.05828e-25)
(-0.240689 -0.157521 1.06854e-25)
(-0.320441 -0.11309 -3.88473e-25)
(-0.166279 -0.0758084 -2.57201e-25)
(-0.157507 -0.0640265 4.95947e-25)
(-0.14579 -0.0581785 0)
(-0.134856 -0.0596828 6.81745e-25)
(-0.123946 -0.0663545 -1.59051e-24)
(-0.119198 -0.0775257 8.13095e-25)
(-0.116624 -0.0912977 7.47885e-25)
(-0.126922 -0.102708 -6.8144e-25)
(-0.137729 -0.112925 0)
(-0.172687 -0.108639 0)
(-0.207087 -0.0984479 3.91475e-25)
(-0.296772 -0.0136666 8.98672e-26)
(-0.13578 0.0053442 -4.59305e-27)
(-0.134167 0.0150484 -9.93953e-27)
(-0.132641 0.0246205 0)
(-0.131425 0.0345208 0)
(-0.130709 0.0449125 0)
(-0.130688 0.0560912 1.46413e-26)
(-0.131247 0.0683306 2.08492e-26)
(-0.132057 0.081766 0)
(-0.132613 0.0962395 -1.87994e-25)
(-0.132341 0.111207 1.55019e-25)
(-0.130749 0.125815 1.95314e-25)
(-0.127548 0.139126 6.84088e-26)
(-0.157403 0.00285208 -8.19312e-27)
(-0.157938 0.0133131 1.78121e-26)
(-0.159208 0.027158 0)
(-0.161319 0.0437643 5.58155e-27)
(-0.164464 0.0627155 -3.27263e-26)
(-0.168395 0.0836678 -1.43527e-25)
(-0.172749 0.106042 -1.29729e-25)
(-0.177025 0.128803 9.81659e-26)
(-0.180715 0.150526 2.96986e-25)
(-0.183369 0.169794 2.04143e-25)
(-0.184556 0.185696 1.62768e-25)
(-0.183749 0.198011 2.5148e-25)
(-0.178213 0.0073357 8.35338e-27)
(-0.179755 0.0249064 -1.84968e-36)
(-0.182454 0.0458497 0)
(-0.185929 0.0698014 0)
(-0.189972 0.0961395 7.07903e-26)
(-0.194353 0.123804 2.9291e-25)
(-0.198912 0.151394 2.58193e-25)
(-0.203488 0.177385 2.38829e-25)
(-0.207756 0.20043 2.49472e-25)
(-0.21093 0.219342 -2.62168e-25)
(-0.21128 0.233434 0)
(-0.207804 0.242809 5.67234e-25)
(-0.199302 0.0105939 -1.84354e-26)
(-0.2009 0.0345413 -5.35873e-26)
(-0.203408 0.0618344 0)
(-0.206108 0.0919377 -1.95442e-25)
(-0.208731 0.123971 1.20938e-25)
(-0.211268 0.156615 3.9126e-25)
(-0.214023 0.188298 0)
(-0.217564 0.217145 4.89615e-25)
(-0.222517 0.240569 -4.23519e-25)
(-0.227829 0.254485 1.45717e-25)
(-0.229597 0.256016 7.03037e-25)
(-0.229435 0.252851 5.7681e-25)
(-0.220085 0.0139781 -4.37474e-26)