/*--------------------------------*- C++ -*----------------------------------*\
| =========                 |                                                 |
| \\      /  F ield         | OpenFOAM: The Open Source CFD Toolbox           |
|  \\    /   O peration     | Version:  2.4.0                                 |
|   \\  /    A nd           | Web:      www.OpenFOAM.org                      |
|    \\/     M anipulation  |                                                 |
\*---------------------------------------------------------------------------*/
FoamFile
{
    version     2.0;
    format      ascii;
    class       volVectorField;
    location    "6";
    object      U;
}
// * * * * * * * * * * * * * * * * * * * * * * * * * * * * * * * * * * * * * //

dimensions      [0 1 -1 0 0 0 0];

internalField   nonuniform List<vector> 
4608
(
(0.00613909 0.136018 0)
(0.01655 0.135021 0)
(0.0262162 0.133867 -2.24059e-26)
(0.0355796 0.132393 -2.26986e-26)
(0.0448055 0.130553 0)
(0.0540356 0.12832 0)
(0.0631803 0.125715 -9.67738e-26)
(0.0723985 0.122611 -4.80842e-26)
(0.0813482 0.119067 -3.99673e-27)
(0.0899694 0.11493 -9.11443e-26)
(0.0981391 0.110136 -8.0557e-26)
(0.10573 0.104614 2.879e-28)
(0.00425423 0.157425 0)
(0.0147713 0.1577 -8.2422e-27)
(0.0261987 0.157902 5.78305e-27)
(0.0380085 0.157811 0)
(0.0500153 0.157346 8.58046e-26)
(0.0623089 0.156293 -5.8669e-27)
(0.0746555 0.154699 -1.55075e-25)
(0.0868765 0.152454 0)
(0.0985275 0.149544 1.90815e-25)
(0.109661 0.145855 3.3399e-26)
(0.120042 0.141405 -1.15403e-25)
(0.129472 0.136116 0)
(0.00775492 0.178026 0)
(0.0226362 0.178288 4.07089e-26)
(0.0372862 0.178573 0)
(0.0517758 0.178623 -2.03571e-26)
(0.0660502 0.178202 6.73445e-26)
(0.0803237 0.176962 2.48608e-25)
(0.0945164 0.174858 1.9534e-25)
(0.108177 0.172014 2.80492e-25)
(0.121257 0.16846 3.38162e-25)
(0.133725 0.164216 0)
(0.145201 0.15935 -2.24036e-25)
(0.155383 0.153853 0)
(0.00927825 0.199115 2.21944e-26)
(0.0273302 0.199361 4.82073e-26)
(0.0447788 0.199598 0)
(0.0615486 0.199379 1.66612e-25)
(0.07769 0.198472 -7.39799e-26)
(0.0934979 0.196664 4.45589e-25)
(0.109072 0.19373 2.29647e-25)
(0.12406 0.18998 2.39152e-25)
(0.138633 0.18562 0)
(0.152436 0.180862 5.04695e-25)
(0.164981 0.175779 -3.45629e-25)
(0.175906 0.170369 -1.98781e-25)
(0.0113037 0.22001 2.48255e-26)
(0.0325702 0.220128 1.21064e-25)
(0.0525815 0.220073 -1.11351e-25)
(0.0710454 0.219419 2.32167e-25)
(0.0884785 0.217681 0)
(0.10524 0.214847 3.69858e-25)
(0.121685 0.21076 1.89488e-25)
(0.13766 0.205566 -1.23095e-25)
(0.153407 0.19939 -1.89069e-25)
(0.168599 0.193222 1.2002e-24)
(0.181687 0.187674 6.34386e-25)
(0.192995 0.181777 -7.33772e-25)
(0.0132214 0.240968 0)
(0.0374429 0.241029 1.20912e-25)
(0.0597933 0.240521 -1.23887e-25)
(0.0797963 0.23949 -2.58227e-25)
(0.0981564 0.237195 -8.01523e-26)
(0.115606 0.233343 4.32411e-26)
(0.132552 0.228096 2.29457e-25)
(0.148955 0.221316 -1.50476e-25)
(0.165255 0.212792 -2.16454e-25)
(0.180739 0.203729 1.12988e-24)
(0.193779 0.195942 5.82689e-25)
(0.205454 0.188976 -5.88864e-25)
(0.015357 0.262054 2.05843e-27)
(0.0422485 0.262415 2.09447e-26)
(0.0665902 0.261456 0)
(0.0876495 0.259459 -2.82078e-25)
(0.106247 0.25598 4.95152e-25)
(0.12411 0.250766 -7.2219e-25)
(0.141374 0.244356 -6.06259e-25)
(0.157667 0.236487 -6.17346e-25)
(0.17395 0.22632 -6.09556e-25)
(0.189598 0.214683 5.93647e-25)
(0.202648 0.204102 -1.08899e-24)
(0.214245 0.19454 1.3328e-24)
(0.0179823 0.283289 0)
(0.046794 0.284097 0)
(0.0722972 0.282231 2.98211e-25)
(0.0937341 0.279046 0)
(0.112298 0.273852 5.38578e-25)
(0.13034 0.266726 -1.28632e-25)
(0.147874 0.2586 -6.36577e-25)
(0.163812 0.24964 -6.42022e-25)
(0.179115 0.238531 -6.35403e-25)
(0.193744 0.224968 -1.22922e-24)
(0.206891 0.211567 -1.20805e-24)
(0.218772 0.200197 1.15507e-24)
(0.0215877 0.304711 8.06383e-26)
(0.0510578 0.306445 3.54138e-25)
(0.076694 0.302909 1.1898e-34)
(0.0975893 0.297745 -9.18878e-26)
(0.115685 0.29043 -2.15362e-25)
(0.133097 0.280628 -1.2032e-25)
(0.150007 0.268753 -1.28135e-24)
(0.1639 0.257746 1.0937e-25)
(0.178335 0.244897 1.5681e-25)
(0.193063 0.230874 -1.22822e-24)
(0.207249 0.216099 2.86026e-26)
(0.220124 0.203888 -1.03255e-24)
(0.0264007 0.326132 7.21265e-36)
(0.0547081 0.32859 3.49913e-25)
(0.0790249 0.321734 -3.43947e-25)
(0.0986512 0.314097 0)
(0.115634 0.303387 -7.49684e-26)
(0.131894 0.292018 5.49256e-25)
(0.148194 0.277158 -1.27754e-24)
(0.163212 0.262278 0)
(0.177005 0.247724 1.20102e-24)
(0.190532 0.231827 0)
(0.203728 0.214146 -5.67318e-26)
(0.217262 0.199086 -2.0795e-24)
(0.0345663 0.346406 -6.44271e-26)
(0.0560108 0.344996 3.5167e-25)
(0.0766452 0.330098 6.69214e-25)
(0.0940607 0.318461 5.81076e-25)
(0.109633 0.304333 -9.39852e-26)
(0.124724 0.291293 2.46177e-24)
(0.139378 0.276156 0)
(0.153279 0.259687 -5.65357e-26)
(0.166292 0.243288 1.00357e-24)
(0.179202 0.22618 0)
(0.192933 0.208512 -9.14577e-25)
(0.207177 0.19157 -7.64956e-25)
(0.0155919 0.34884 1.92245e-25)
(0.0371665 0.341045 -1.19324e-34)
(0.0589672 0.316967 9.62816e-35)
(0.0781397 0.302353 5.49545e-25)
(0.093462 0.286383 1.08168e-24)
(0.108161 0.272429 2.05546e-24)
(0.120816 0.257903 9.44199e-25)
(0.133146 0.241336 0)
(0.14358 0.223748 0)
(0.153818 0.203619 0)
(0.164303 0.182077 -8.69112e-25)
(0.174963 0.161869 -1.68094e-24)
(0.112792 0.0982492 -5.30722e-26)
(0.119036 0.0912301 -9.24549e-26)
(0.124281 0.0834267 -1.83565e-25)
(0.128318 0.0748656 2.10108e-25)
(0.131169 0.0657173 0)
(0.133115 0.0561588 -1.2486e-26)
(0.13455 0.0464075 4.10217e-26)
(0.13583 0.0368391 0)
(0.136763 0.0276314 0)
(0.137155 0.0182894 0)
(0.137263 0.00933595 8.81624e-27)
(0.136568 0.00277948 5.09742e-27)
(0.137797 0.129683 -3.05357e-26)
(0.144493 0.122287 -6.18862e-26)
(0.149617 0.114074 -1.84347e-25)
(0.153432 0.104936 2.52822e-26)
(0.15595 0.0946698 5.29318e-27)
(0.157383 0.0830088 -6.80368e-26)
(0.158088 0.0697638 4.83882e-26)
(0.158645 0.0558687 -3.75922e-26)
(0.158806 0.0440842 -7.67907e-26)
(0.158517 0.0330449 0)
(0.15785 0.0210681 1.88323e-26)
(0.15712 0.00909612 9.9904e-27)
(0.164096 0.147612 -4.63476e-25)
(0.171279 0.140827 0)
(0.176682 0.133271 0)
(0.180195 0.124646 -2.30591e-25)
(0.182119 0.114652 0)
(0.182532 0.10266 -7.55007e-26)
(0.181764 0.0878789 1.86153e-25)
(0.179906 0.0702179 -1.07211e-25)
(0.176733 0.0537102 -8.04305e-26)
(0.176397 0.0371303 0)
(0.178792 0.0236137 4.13639e-26)
(0.178898 0.0108111 -2.31504e-26)
(0.185247 0.164507 -6.87025e-25)
(0.192918 0.158264 -7.11723e-26)
(0.199117 0.151491 -5.96958e-25)
(0.203688 0.14423 6.22667e-25)
(0.206522 0.135878 7.78468e-26)
(0.207561 0.125724 -2.67659e-25)
(0.206681 0.112566 -1.35203e-25)
(0.203445 0.0949213 -1.19994e-25)
(0.198783 0.0725502 2.24711e-25)
(0.198025 0.0420885 0)
(0.200996 0.0240578 4.27546e-26)
(0.201268 0.0159075 -8.80884e-26)
(0.202981 0.175641 5.8128e-25)
(0.211594 0.16943 -6.06078e-25)
(0.219051 0.163215 -6.45227e-25)
(0.225277 0.157105 6.09464e-25)
(0.230124 0.150564 -1.53478e-25)
(0.233463 0.142985 -1.42808e-25)
(0.234906 0.133077 -1.62724e-25)
(0.234009 0.118696 -4.00048e-26)
(0.231154 0.0968011 3.4296e-25)
(0.224184 0.060272 1.50459e-25)
(0.216114 0.0294194 -2.09062e-25)
(0.217766 0.0148699 -4.74479e-26)
(0.215862 0.182379 5.99616e-25)
(0.224937 0.175552 -5.7445e-25)
(0.233555 0.168771 -5.4952e-25)
(0.241618 0.16269 3.38414e-26)
(0.248928 0.156832 0)
(0.25563 0.150884 -4.9316e-25)
(0.261288 0.143755 3.63662e-26)
(0.265397 0.133228 -4.64646e-25)
(0.266931 0.115522 0)
(0.263897 0.0828026 1.55419e-25)
(0.252656 0.0429912 -1.11148e-25)
(0.243406 0.0172769 3.07865e-26)
(0.22383 0.186131 0)
(0.232197 0.177881 0)
(0.241218 0.169208 -1.2377e-24)
(0.249951 0.162045 0)
(0.258362 0.155438 -5.66281e-26)
(0.266938 0.149545 -5.94986e-25)
(0.275296 0.144057 7.96169e-25)
(0.282947 0.137452 3.68138e-25)
(0.288087 0.126846 1.27433e-25)
(0.289061 0.106328 -3.85103e-25)
(0.277355 0.0706355 -6.9854e-26)
(0.265177 0.0295313 -1.33857e-26)
(0.227311 0.190188 6.84994e-26)
(0.234432 0.179566 1.37846e-24)
(0.2433 0.167753 7.27906e-25)
(0.251159 0.158635 -1.23646e-24)
(0.25877 0.149951 -1.28257e-24)
(0.267433 0.142274 -6.5923e-25)
(0.276707 0.136339 7.37548e-25)
(0.286335 0.131444 1.45765e-24)
(0.29453 0.125963 0)
(0.299467 0.115378 -3.84355e-25)
(0.293979 0.0917557 2.41854e-25)
(0.286388 0.0451021 1.20553e-25)
(0.228665 0.194172 1.02373e-24)
(0.235874 0.182575 8.8117e-25)
(0.241461 0.168303 1.25423e-24)
(0.245618 0.154648 -9.23181e-25)
(0.25148 0.143128 -1.05561e-24)
(0.259157 0.132535 -5.46713e-25)
(0.268348 0.124488 6.04637e-25)
(0.279047 0.118986 1.29216e-24)
(0.290351 0.115741 -8.48034e-27)
(0.301843 0.111843 0)
(0.308142 0.0982608 1.68358e-25)
(0.309159 0.0533223 8.52254e-26)
(0.226279 0.192059 8.32824e-25)
(0.229371 0.18351 -2.45042e-25)
(0.230371 0.168985 0)
(0.232644 0.15188 -1.05812e-24)
(0.236862 0.136238 0)
(0.243412 0.122235 0)
(0.251451 0.111153 5.38773e-25)
(0.261596 0.103071 -4.91085e-26)
(0.27357 0.0979599 2.20149e-26)
(0.289362 0.0954036 7.92085e-25)
(0.307029 0.0899326 -2.21568e-26)
(0.326931 0.0549632 -1.26053e-26)
(0.213178 0.182877 7.47793e-26)
(0.210906 0.177321 -8.97472e-25)
(0.209694 0.164241 0)
(0.210961 0.146634 -8.23407e-25)
(0.214236 0.128271 7.72443e-26)
(0.22035 0.111863 0)
(0.227593 0.0984818 -8.43932e-25)
(0.235949 0.0883649 -4.17505e-25)
(0.24569 0.0795485 -3.13691e-26)
(0.259609 0.0702443 1.29894e-24)
(0.283904 0.0635714 0)
(0.33292 0.0420288 1.19399e-25)
(0.181689 0.155524 -2.28757e-25)
(0.178022 0.162771 -9.90452e-25)
(0.17872 0.154918 0)
(0.182509 0.138941 0)
(0.187493 0.11946 7.17802e-25)
(0.194057 0.101525 -6.87011e-25)
(0.201606 0.0871579 -1.20835e-24)
(0.208049 0.0770312 8.29821e-26)
(0.215445 0.0686385 -4.44054e-25)
(0.22247 0.0525617 1.53883e-25)
(0.24101 0.0140257 1.9197e-25)
(0.314039 -0.02504 8.35436e-27)
(0.135983 -0.00592562 4.20026e-27)
(0.134759 -0.0159636 -1.18446e-26)
(0.133205 -0.0253458 4.44053e-26)
(0.131408 -0.0345897 0)
(0.129351 -0.0440323 1.25832e-27)
(0.127005 -0.0534239 -1.02726e-26)
(0.124389 -0.0628094 3.86962e-26)
(0.121527 -0.0717872 0)
(0.118003 -0.0804734 -4.90291e-26)
(0.113711 -0.0890819 -4.73878e-26)
(0.10906 -0.0970092 -1.02678e-25)
(0.10377 -0.104399 -1.95826e-26)
(0.157389 -0.00383875 8.65286e-27)
(0.157234 -0.0135796 -4.98976e-26)
(0.156808 -0.0246858 -5.25924e-26)
(0.156248 -0.036726 1.01652e-25)
(0.155713 -0.0492521 -1.88298e-26)
(0.154969 -0.0615944 -4.87163e-26)
(0.153419 -0.0744906 0)
(0.151562 -0.0861296 0)
(0.148638 -0.0971431 1.2426e-25)
(0.144505 -0.10795 9.29155e-26)
(0.139392 -0.118428 -2.30351e-25)
(0.133596 -0.128804 9.2074e-26)
(0.178008 -0.00671781 -6.83484e-27)
(0.177872 -0.0201454 -8.27742e-26)
(0.177388 -0.0344528 -7.96284e-26)
(0.17631 -0.0497266 8.13447e-26)
(0.174944 -0.0657531 0)
(0.174754 -0.0816399 0)
(0.174488 -0.0961586 0)
(0.172527 -0.107994 0)
(0.168835 -0.119923 1.86008e-35)
(0.164226 -0.131813 2.23047e-25)
(0.158197 -0.143545 -2.20128e-25)
(0.151125 -0.153833 1.36902e-25)
(0.199159 -0.00765154 1.94408e-26)
(0.199375 -0.0234966 -3.97111e-26)
(0.199189 -0.0402859 2.27835e-26)
(0.197926 -0.0582191 -8.71843e-26)
(0.195305 -0.0777198 8.94626e-26)
(0.192318 -0.0966914 0)
(0.190565 -0.109759 0)
(0.188103 -0.121229 0)
(0.184071 -0.13411 -7.33052e-25)
(0.17898 -0.146942 0)
(0.173009 -0.159568 3.42352e-25)
(0.16661 -0.171417 1.56708e-25)
(0.220146 -0.010005 7.14528e-26)
(0.220812 -0.0289212 -1.03194e-25)
(0.220874 -0.0475584 0)
(0.219488 -0.0668818 -3.94437e-25)
(0.215841 -0.0872677 2.9727e-26)
(0.209983 -0.106683 -1.04999e-25)
(0.205172 -0.120155 0)
(0.200957 -0.133469 0)
(0.196474 -0.147528 -5.21366e-25)
(0.190572 -0.16132 0)
(0.183812 -0.174722 5.49473e-25)
(0.176459 -0.187003 0)
(0.241248 -0.0125934 1.20254e-36)
(0.242109 -0.0345145 -1.12941e-25)
(0.242419 -0.0550282 0)
(0.241196 -0.0753992 1.49022e-34)
(0.237904 -0.0960834 -1.05731e-25)
(0.231538 -0.115461 -1.44783e-25)
(0.224918 -0.129984 0)
(0.217186 -0.144753 -1.8942e-25)
(0.209388 -0.158927 -7.22331e-26)
(0.201466 -0.173003 -4.91297e-25)
(0.192975 -0.186385 -7.90839e-25)
(0.184166 -0.198778 0)
(0.262426 -0.0155236 2.78628e-26)
(0.263647 -0.0398751 3.01964e-26)
(0.263298 -0.061984 -1.99026e-25)
(0.261356 -0.0825749 4.39991e-25)
(0.256767 -0.102183 2.90116e-25)
(0.249201 -0.12062 -7.31016e-25)
(0.24143 -0.136588 -3.55551e-25)
(0.232778 -0.151915 7.69468e-26)
(0.222281 -0.166992 -8.36662e-25)
(0.211868 -0.181262 -5.88892e-25)
(0.201262 -0.194448 -7.35611e-25)
(0.19058 -0.206631 -2.02902e-25)
(0.284115 -0.0196452 5.78214e-26)
(0.286845 -0.0455291 -1.32796e-25)
(0.285673 -0.0681578 -2.81473e-25)
(0.282017 -0.0879635 1.03672e-24)
(0.275072 -0.106615 9.06239e-25)
(0.266166 -0.12422 -8.8096e-25)
(0.256152 -0.140325 -3.60765e-25)
(0.245718 -0.156054 -1.68998e-25)
(0.233805 -0.171642 -1.00546e-24)
(0.221274 -0.185939 -2.22565e-25)
(0.208662 -0.198966 -1.29765e-25)
(0.196031 -0.21091 -1.94721e-25)
(0.305941 -0.0257332 -1.13791e-25)
(0.310629 -0.050982 -1.42016e-25)
(0.307342 -0.0723561 -1.52182e-25)
(0.301549 -0.0904086 8.4526e-25)
(0.29189 -0.108262 0)
(0.280866 -0.125841 1.97137e-25)
(0.268725 -0.142351 2.3503e-25)
(0.256258 -0.158131 1.12648e-24)
(0.242916 -0.173308 1.02264e-24)
(0.228751 -0.187432 0)
(0.214551 -0.200243 1.05061e-25)
(0.200251 -0.211869 7.50413e-26)
(0.328473 -0.0341685 -8.32877e-26)
(0.335513 -0.0557853 -6.37824e-26)
(0.327102 -0.0733402 1.32802e-25)
(0.317594 -0.0888702 -3.80758e-25)
(0.304028 -0.105741 -2.67163e-25)
(0.290445 -0.123382 5.57054e-25)
(0.276487 -0.140178 9.37719e-26)
(0.262405 -0.156224 1.38072e-24)
(0.247898 -0.171052 2.352e-24)
(0.232577 -0.185009 1.13646e-24)
(0.217367 -0.197544 -7.03486e-26)
(0.202052 -0.208846 -1.22477e-24)
(0.349791 -0.0504304 1.01106e-25)
(0.353667 -0.0573239 -2.97794e-26)
(0.335343 -0.0676719 7.50052e-25)
(0.321564 -0.080451 0)
(0.304361 -0.0966022 1.37136e-24)
(0.288931 -0.115207 7.82145e-26)
(0.274318 -0.132519 9.40889e-26)
(0.259934 -0.148954 1.09892e-24)
(0.245363 -0.163424 9.57128e-25)
(0.2298 -0.177291 1.0168e-24)
(0.214631 -0.189665 -9.4123e-25)
(0.199461 -0.200703 -7.98927e-25)
(0.340813 -0.0251943 -1.63142e-25)
(0.338669 -0.0326378 -8.05276e-25)
(0.313629 -0.044625 0)
(0.300133 -0.0605488 0)
(0.283143 -0.0783789 1.20594e-24)
(0.268807 -0.0995526 -1.09878e-24)
(0.256313 -0.118028 -9.87062e-25)
(0.243962 -0.13499 1.80896e-24)
(0.231252 -0.148932 -8.68218e-25)
(0.216896 -0.162679 0)
(0.203028 -0.175094 -7.7341e-25)
(0.189927 -0.186097 -1.27471e-25)
(0.0974052 -0.111843 2.59558e-27)
(0.090614 -0.118586 -1.99833e-25)
(0.0829822 -0.124646 7.2193e-26)
(0.0748524 -0.129462 3.35962e-25)
(0.0660592 -0.132955 1.90112e-25)
(0.0567693 -0.1352 5.60988e-35)
(0.0471903 -0.136473 -9.11482e-26)
(0.0375593 -0.13707 1.52793e-27)
(0.0279278 -0.137377 5.35826e-26)
(0.0186266 -0.137249 -2.19939e-26)
(0.0097449 -0.136733 3.478e-27)
(0.00220144 -0.136195 -8.85668e-28)
(0.126946 -0.138369 1.22557e-25)
(0.119744 -0.146216 -4.07488e-25)
(0.112271 -0.152018 -3.77031e-25)
(0.10384 -0.156115 3.42462e-25)
(0.0944865 -0.159036 2.0087e-25)
(0.0841765 -0.160694 -1.39301e-25)
(0.0726395 -0.161257 -1.196e-25)
(0.0598691 -0.161312 -4.63262e-26)
(0.046639 -0.161337 1.71803e-25)
(0.0352336 -0.160164 4.25819e-26)
(0.0221623 -0.158389 -4.81436e-26)
(0.00803573 -0.157213 8.77659e-27)
(0.143374 -0.162848 -1.01264e-25)
(0.135293 -0.170881 2.23399e-25)
(0.1279 -0.17717 -2.322e-25)
(0.120065 -0.182187 2.32966e-25)
(0.111223 -0.185738 0)
(0.10113 -0.187928 -2.26898e-25)
(0.0891332 -0.188876 2.1852e-25)
(0.0746342 -0.188509 -3.35568e-26)
(0.0589298 -0.186165 -2.94787e-26)
(0.0453138 -0.18263 9.39089e-26)
(0.0287712 -0.179842 -8.97661e-26)
(0.010411 -0.178376 1.05133e-26)
(0.159213 -0.182404 5.3316e-25)
(0.151157 -0.191663 2.16728e-25)
(0.14341 -0.199007 -7.07531e-26)
(0.135469 -0.204936 4.52498e-26)
(0.127159 -0.209288 5.36611e-25)
(0.117882 -0.212047 -5.30152e-25)
(0.106892 -0.213044 3.288e-25)
(0.0932483 -0.212168 1.37729e-25)
(0.0772457 -0.209295 3.89546e-26)
(0.0610049 -0.204495 7.39158e-26)
(0.0390512 -0.199822 2.98348e-26)
(0.0133563 -0.198436 9.49313e-27)
(0.168987 -0.198086 1.23185e-24)
(0.161016 -0.208094 -4.46727e-25)
(0.153174 -0.216433 0)
(0.145622 -0.223357 0)
(0.138128 -0.228785 1.17167e-24)
(0.130231 -0.232551 -1.6775e-25)
(0.121243 -0.234452 1.18021e-26)
(0.109999 -0.23417 2.09198e-25)
(0.0952575 -0.230974 2.65859e-25)
(0.0769428 -0.226709 -8.34257e-26)
(0.0499344 -0.22307 -1.62144e-26)
(0.0164392 -0.220253 -7.06191e-27)
(0.175435 -0.210013 5.92034e-25)
(0.166791 -0.220188 -5.97845e-25)
(0.158565 -0.229042 2.47262e-26)
(0.150908 -0.236759 7.97636e-26)
(0.143864 -0.243267 6.0197e-25)
(0.137127 -0.248402 -4.94234e-25)
(0.130137 -0.251944 6.31464e-25)
(0.121621 -0.253521 2.2517e-25)
(0.109623 -0.25265 6.09015e-25)
(0.0913359 -0.249786 0)
(0.0622952 -0.245297 0)
(0.0217389 -0.241246 0)
(0.18016 -0.217671 0)
(0.170096 -0.227713 1.20641e-24)
(0.160763 -0.23672 0)
(0.152311 -0.244921 0)
(0.144962 -0.252224 -5.1223e-26)
(0.138633 -0.258591 -1.92995e-26)
(0.133068 -0.263888 5.61026e-25)
(0.127133 -0.267834 -7.28348e-26)
(0.118731 -0.269858 3.34669e-25)
(0.10348 -0.269542 -3.36597e-25)
(0.0746925 -0.265858 1.64228e-25)
(0.0271233 -0.261873 -7.12092e-26)
(0.18382 -0.221559 -1.08899e-24)
(0.172004 -0.231276 1.33987e-24)
(0.161094 -0.240074 1.19688e-24)
(0.151208 -0.2482 1.20365e-24)
(0.14281 -0.255718 1.21453e-24)
(0.135912 -0.262781 1.23693e-24)
(0.130562 -0.269352 -5.47061e-26)
(0.125966 -0.275513 -1.22088e-25)
(0.120542 -0.281061 -8.14893e-26)
(0.109664 -0.285734 -7.37891e-25)
(0.0840808 -0.286648 2.32863e-25)
(0.0312976 -0.283928 -6.59146e-26)
(0.186395 -0.22183 -1.22623e-24)
(0.172778 -0.231031 1.42453e-25)
(0.160272 -0.239341 2.34584e-24)
(0.148751 -0.247128 1.2378e-24)
(0.138942 -0.254469 1.15561e-24)
(0.130786 -0.261563 5.86622e-25)
(0.124494 -0.268514 -2.11564e-26)
(0.119328 -0.275753 4.23951e-26)
(0.114493 -0.283994 8.04063e-25)
(0.107185 -0.294406 -2.53209e-25)
(0.0885465 -0.301929 1.96527e-26)
(0.035462 -0.304541 -1.64734e-26)
(0.187115 -0.217882 0)
(0.171791 -0.226483 -1.0716e-24)
(0.157918 -0.234141 7.95571e-35)
(0.144897 -0.241414 0)
(0.133823 -0.248409 5.81476e-27)
(0.124456 -0.255186 -6.96238e-26)
(0.117033 -0.261802 0)
(0.110022 -0.26864 0)
(0.102231 -0.277601 1.33679e-24)
(0.0941868 -0.293363 -7.39246e-25)
(0.0820608 -0.311711 0)
(0.0349109 -0.325049 -9.26994e-26)
(0.18442 -0.208225 -8.35525e-26)
(0.167567 -0.216029 -1.21061e-25)
(0.152772 -0.222972 -1.94473e-24)
(0.138549 -0.229722 0)
(0.126723 -0.236489 0)
(0.116753 -0.243024 0)
(0.109421 -0.249099 9.33983e-25)
(0.101771 -0.254429 0)
(0.0886844 -0.261242 1.12762e-24)
(0.0729269 -0.278538 -7.55688e-35)
(0.0622426 -0.306197 -3.87796e-25)
(0.0312326 -0.339178 -2.26094e-25)
(0.17671 -0.191441 0)
(0.158941 -0.198338 1.6065e-24)
(0.143913 -0.204637 -8.25894e-25)
(0.128663 -0.210954 8.10732e-25)
(0.116291 -0.2179 0)
(0.10629 -0.224302 7.35493e-25)
(0.100301 -0.230104 7.75183e-25)
(0.0958002 -0.233909 1.38842e-25)
(0.0814501 -0.238045 4.60364e-25)
(0.0533184 -0.250254 8.74485e-25)
(0.0236537 -0.278766 -4.81385e-26)
(-0.0158916 -0.330649 -6.6742e-26)
(-0.00588546 -0.135972 7.06403e-27)
(-0.0158807 -0.134733 5.90053e-27)
(-0.0251023 -0.133097 2.71405e-28)
(-0.0339008 -0.131019 -1.69363e-26)
(-0.0427965 -0.128466 3.63308e-26)
(-0.0523584 -0.125405 1.20712e-26)
(-0.0623416 -0.122145 -7.84753e-27)
(-0.0731864 -0.118948 0)
(-0.0813712 -0.116947 1.53503e-26)
(-0.0872132 -0.114216 -4.79549e-27)
(-0.0942431 -0.108676 -3.41073e-26)
(-0.101779 -0.102048 -1.72712e-26)
(-0.0038025 -0.157381 8.85133e-27)
(-0.013406 -0.157263 3.90238e-26)
(-0.0238942 -0.156943 -7.9426e-26)
(-0.0347999 -0.156349 0)
(-0.0463362 -0.155188 8.86017e-26)
(-0.0585453 -0.152961 -1.16663e-25)
(-0.0722974 -0.149774 -1.76258e-26)
(-0.0856643 -0.145781 5.22823e-26)
(-0.0945853 -0.142902 2.12464e-25)
(-0.102103 -0.14132 0)
(-0.111894 -0.137692 2.05766e-25)
(-0.122321 -0.131586 0)
(-0.00663168 -0.17794 4.4028e-26)
(-0.0200521 -0.177543 8.3719e-26)
(-0.0339261 -0.177292 -1.63665e-25)
(-0.0474418 -0.177197 1.13991e-26)
(-0.0608535 -0.176167 2.34361e-26)
(-0.0748581 -0.174364 9.49432e-26)
(-0.0899481 -0.171004 -2.21486e-25)
(-0.103101 -0.166386 -1.20792e-25)
(-0.114869 -0.161774 4.02104e-25)
(-0.126034 -0.157676 3.71275e-26)
(-0.137429 -0.152946 2.81994e-25)
(-0.148341 -0.147269 -4.4358e-25)
(-0.00690124 -0.19899 1.99412e-26)
(-0.0229152 -0.198439 1.01987e-25)
(-0.0408062 -0.198282 -1.24684e-26)
(-0.056631 -0.198678 -2.6773e-25)
(-0.071179 -0.19759 0)
(-0.0865127 -0.19449 2.90651e-25)
(-0.101888 -0.190063 3.44479e-25)
(-0.116489 -0.185075 5.7068e-26)
(-0.130581 -0.179696 -1.30622e-25)
(-0.1442 -0.174428 4.98734e-25)
(-0.157509 -0.169211 4.75937e-25)
(-0.169786 -0.163603 -1.13996e-24)
(-0.00845246 -0.220023 1.82674e-37)
(-0.0277867 -0.220024 1.67991e-25)
(-0.0491911 -0.21927 3.07437e-26)
(-0.0661008 -0.2185 -2.2333e-25)
(-0.0804514 -0.216747 -4.73981e-26)
(-0.096454 -0.212668 -7.511e-26)
(-0.112917 -0.207413 2.55074e-25)
(-0.129221 -0.201189 0)
(-0.14498 -0.194543 -1.064e-24)
(-0.160472 -0.187483 5.34886e-25)
(-0.174959 -0.180617 5.50374e-25)
(-0.188323 -0.173971 -1.12937e-24)
(-0.0104896 -0.241265 8.64819e-26)
(-0.0320793 -0.241609 1.36865e-25)
(-0.0545532 -0.239385 -1.16767e-25)
(-0.0722917 -0.236237 -2.81119e-25)
(-0.0873025 -0.2335 1.51338e-25)
(-0.104157 -0.228894 1.00079e-26)
(-0.121499 -0.222486 1.75199e-25)
(-0.138872 -0.214791 -1.15994e-25)
(-0.155897 -0.206406 -1.98635e-25)
(-0.172289 -0.197567 5.63828e-25)
(-0.18751 -0.18867 1.02087e-25)
(-0.20159 -0.180317 -4.27995e-25)
(-0.013148 -0.262432 1.25377e-25)
(-0.0359341 -0.26341 -1.65452e-26)
(-0.0583819 -0.260882 -3.96743e-26)
(-0.0773228 -0.256447 -2.28045e-25)
(-0.0937448 -0.251967 3.17814e-25)
(-0.11089 -0.245851 3.79495e-25)
(-0.128442 -0.237572 -2.97347e-25)
(-0.145977 -0.227767 -3.09889e-25)
(-0.163235 -0.216868 3.85975e-25)
(-0.179968 -0.205661 8.8128e-35)
(-0.195516 -0.194582 -1.05784e-24)
(-0.209765 -0.183967 1.7297e-25)
(-0.0162848 -0.283506 6.71162e-26)
(-0.0397942 -0.285109 1.71345e-26)
(-0.0620902 -0.283334 3.92545e-25)
(-0.081525 -0.279349 7.76767e-25)
(-0.0987363 -0.272639 3.97006e-26)
(-0.115607 -0.26393 5.18321e-25)
(-0.132936 -0.253211 0)
(-0.150307 -0.240875 0)
(-0.167593 -0.227173 0)
(-0.184337 -0.213236 -1.75738e-24)
(-0.199857 -0.199757 -2.33e-24)
(-0.214025 -0.186792 1.16287e-24)
(-0.0207085 -0.304984 -1.42211e-25)
(-0.0447437 -0.308408 -3.24269e-25)
(-0.0660802 -0.305643 3.18558e-25)
(-0.0841827 -0.299934 6.09352e-26)
(-0.100917 -0.291432 9.51417e-26)
(-0.117493 -0.281091 -9.14757e-26)
(-0.134554 -0.268126 1.04207e-24)
(-0.151802 -0.253538 -1.44531e-25)
(-0.16918 -0.237601 -6.20086e-26)
(-0.186355 -0.221202 -1.31188e-24)
(-0.202 -0.205545 -2.20447e-24)
(-0.215989 -0.190311 2.4065e-25)
(-0.0268322 -0.326634 -7.26869e-26)
(-0.0490346 -0.330924 -6.67156e-25)
(-0.0680031 -0.324501 4.49423e-26)
(-0.0843923 -0.316556 -1.26458e-24)
(-0.100228 -0.30587 4.36087e-26)
(-0.116287 -0.2942 -8.01691e-26)
(-0.132883 -0.279936 1.2956e-24)
(-0.150456 -0.263731 0)
(-0.168769 -0.246557 1.18417e-24)
(-0.186643 -0.228693 1.13912e-24)
(-0.202664 -0.211497 -1.061e-24)
(-0.216704 -0.194848 -9.58048e-25)
(-0.0360055 -0.34677 6.02287e-26)
(-0.0498646 -0.347499 -4.26626e-25)
(-0.0647801 -0.333421 -2.64792e-26)
(-0.079153 -0.322325 -6.95652e-25)
(-0.0944574 -0.309316 -8.88253e-26)
(-0.110205 -0.296653 0)
(-0.126441 -0.282252 1.51558e-26)
(-0.144917 -0.266254 1.36798e-26)
(-0.165238 -0.249662 1.07238e-24)
(-0.184924 -0.232663 1.07162e-24)
(-0.202481 -0.216134 1.0399e-24)
(-0.216785 -0.19944 0)
(-0.0178483 -0.346838 3.85652e-25)
(-0.033029 -0.340282 4.16381e-25)
(-0.0501227 -0.318019 -3.76365e-25)
(-0.065171 -0.307564 -2.04859e-25)
(-0.081493 -0.29499 -1.41389e-25)
(-0.0977166 -0.282747 -7.31259e-26)
(-0.114436 -0.269456 -3.1847e-27)
(-0.134876 -0.255478 1.08319e-25)
(-0.157848 -0.241899 2.31087e-26)
(-0.180155 -0.228182 0)
(-0.199522 -0.21466 9.3554e-25)
(-0.214539 -0.200457 2.01471e-24)
(-0.108654 -0.0953932 -8.53417e-26)
(-0.114849 -0.0883583 4.61908e-26)
(-0.120392 -0.0808542 5.04019e-26)
(-0.125235 -0.072857 4.99642e-26)
(-0.129396 -0.0644462 0)
(-0.132913 -0.0558307 -4.68847e-27)
(-0.135634 -0.0469196 -3.26985e-26)
(-0.137216 -0.0373531 -2.03058e-26)
(-0.138365 -0.0269325 0)
(-0.138892 -0.0179709 -3.62814e-26)
(-0.137932 -0.0105965 1.15438e-26)
(-0.136479 -0.00288226 -4.82218e-27)
(-0.13145 -0.124712 -2.10331e-25)
(-0.139463 -0.11667 2.18637e-25)
(-0.145969 -0.107832 -4.17524e-26)
(-0.151303 -0.0982331 -1.8558e-25)
(-0.155652 -0.0876546 0)
(-0.159365 -0.0764775 0)
(-0.162316 -0.0668528 -1.59482e-27)
(-0.163571 -0.0582434 2.5892e-26)
(-0.163379 -0.0459329 -6.3262e-26)
(-0.161387 -0.0349791 3.70531e-26)
(-0.158892 -0.0245078 -3.73301e-26)
(-0.157249 -0.00952007 -9.06082e-27)
(-0.157856 -0.140823 -1.96205e-25)
(-0.165977 -0.133653 2.23883e-25)
(-0.172451 -0.125582 0)
(-0.177163 -0.116124 -1.03538e-35)
(-0.180351 -0.104753 0)
(-0.182381 -0.0905287 0)
(-0.184164 -0.07569 0)
(-0.185712 -0.0657655 0)
(-0.185716 -0.0557596 -9.02907e-26)
(-0.18301 -0.0451225 8.94337e-26)
(-0.181344 -0.0313957 -1.07558e-26)
(-0.17969 -0.014306 3.02733e-26)
(-0.180717 -0.157729 2.72534e-27)
(-0.190258 -0.151478 -3.11342e-25)
(-0.19853 -0.14451 0)
(-0.205667 -0.136452 8.35597e-25)
(-0.211665 -0.126634 0)
(-0.216307 -0.113409 2.67495e-25)
(-0.217608 -0.0965781 -2.23134e-25)
(-0.213166 -0.08374 8.87907e-26)
(-0.207098 -0.0710429 4.62041e-25)
(-0.201972 -0.0575279 1.22615e-25)
(-0.197981 -0.0385172 1.29883e-25)
(-0.198148 -0.017453 4.0865e-26)
(-0.200467 -0.167536 0)
(-0.21147 -0.16119 -5.88864e-25)
(-0.221357 -0.154701 0)
(-0.230117 -0.147805 6.07442e-25)
(-0.23729 -0.140035 0)
(-0.242229 -0.13099 3.10694e-25)
(-0.243654 -0.118837 -3.7783e-25)
(-0.241588 -0.107001 3.65733e-26)
(-0.236627 -0.0926383 6.16935e-25)
(-0.229796 -0.0747161 0)
(-0.223274 -0.0484276 1.63069e-25)
(-0.220362 -0.018706 -5.35192e-26)
(-0.214483 -0.172584 0)
(-0.226394 -0.165392 6.28858e-25)
(-0.237414 -0.158582 7.0223e-25)
(-0.24747 -0.152016 -8.26296e-26)
(-0.256351 -0.145595 -2.4095e-26)
(-0.263341 -0.139154 0)
(-0.267254 -0.131675 -7.21368e-25)
(-0.2673 -0.123842 -7.7303e-26)
(-0.263765 -0.113092 -1.8548e-34)
(-0.258182 -0.0960563 0)
(-0.249246 -0.0661536 1.38001e-25)
(-0.242142 -0.025669 -6.39734e-26)
(-0.222858 -0.17427 7.26183e-26)
(-0.234981 -0.165453 7.28121e-25)
(-0.246321 -0.157459 6.16547e-25)
(-0.256808 -0.150216 -3.77337e-26)
(-0.266221 -0.144016 8.3132e-26)
(-0.27414 -0.139108 6.97195e-25)
(-0.279637 -0.135046 -9.78417e-26)
(-0.281828 -0.131304 -8.67417e-25)
(-0.280088 -0.125296 -7.63914e-25)
(-0.274683 -0.111834 4.26385e-25)
(-0.267953 -0.0814909 1.00036e-25)
(-0.263041 -0.0336908 9.94908e-34)
(-0.226942 -0.174829 8.01545e-26)
(-0.238769 -0.163978 1.33794e-25)
(-0.249768 -0.154279 2.60495e-26)
(-0.259959 -0.14581 5.61998e-26)
(-0.269175 -0.138881 2.26737e-26)
(-0.277138 -0.134254 7.41224e-25)
(-0.283446 -0.132285 1.47106e-24)
(-0.287675 -0.132671 -4.47763e-25)
(-0.288717 -0.132584 -8.66241e-25)
(-0.286962 -0.123659 3.47949e-25)
(-0.284567 -0.092648 1.62155e-25)
(-0.283413 -0.0394471 0)
(-0.228605 -0.176061 7.36754e-26)
(-0.239918 -0.163036 -1.37879e-25)
(-0.250343 -0.151341 0)
(-0.259876 -0.141272 -1.15157e-24)
(-0.268553 -0.132987 5.01825e-26)
(-0.276315 -0.127476 6.73182e-26)
(-0.283434 -0.125324 3.37839e-26)
(-0.290349 -0.127205 0)
(-0.296516 -0.130961 -5.64733e-25)
(-0.303802 -0.12903 5.30655e-25)
(-0.303231 -0.102385 1.89876e-25)
(-0.301878 -0.04297 8.49014e-26)
(-0.229221 -0.178749 1.1522e-24)
(-0.24008 -0.163752 1.36047e-25)
(-0.250001 -0.149974 0)
(-0.258806 -0.138176 -2.22112e-24)
(-0.266825 -0.128224 -2.13841e-27)
(-0.273828 -0.121025 -5.14527e-26)
(-0.280799 -0.116763 -6.22184e-25)
(-0.288973 -0.117052 -2.73548e-26)
(-0.298385 -0.120413 -8.63578e-26)
(-0.311846 -0.122487 -4.54661e-25)
(-0.32149 -0.105458 -4.06468e-26)
(-0.325639 -0.0415439 8.30179e-26)
(-0.229372 -0.182272 9.70443e-25)
(-0.239951 -0.166024 9.15279e-25)
(-0.249658 -0.150364 0)
(-0.25783 -0.137021 -1.02103e-24)
(-0.265074 -0.125359 -9.78598e-25)
(-0.270934 -0.11644 -7.09446e-27)
(-0.276699 -0.10947 -8.07949e-26)
(-0.283649 -0.106628 -1.17359e-24)
(-0.29293 -0.106219 0)
(-0.308795 -0.107117 -7.61521e-25)
(-0.327763 -0.0958789 4.57e-25)
(-0.344079 -0.0403364 -2.31102e-25)
(-0.228187 -0.184481 6.77277e-26)
(-0.238907 -0.168382 1.11724e-24)
(-0.248889 -0.151436 0)
(-0.256542 -0.137196 1.06945e-24)
(-0.262826 -0.124102 -1.92614e-24)
(-0.266942 -0.113959 1.00556e-24)
(-0.270774 -0.104703 9.93408e-25)
(-0.274932 -0.0989573 -1.02792e-24)
(-0.281802 -0.0933182 0)
(-0.296085 -0.0874603 0)
(-0.32192 -0.0721386 7.48682e-25)
(-0.348553 -0.0156655 3.64473e-26)
(-0.136113 0.00663353 -4.15635e-27)
(-0.13496 0.0159797 -1.18233e-26)
(-0.133114 0.0252787 0)
(-0.131117 0.0345792 0)
(-0.128972 0.0447789 0)
(-0.12706 0.0545077 -7.52045e-27)
(-0.124953 0.063802 -7.0325e-27)
(-0.12234 0.072851 0)
(-0.119099 0.081659 -1.54645e-25)
(-0.115159 0.0901774 1.25719e-25)
(-0.110553 0.0981967 1.02347e-25)
(-0.105212 0.105642 5.37805e-26)
(-0.157377 0.00416055 -8.54578e-27)
(-0.158067 0.0130336 2.17111e-26)
(-0.159115 0.0247025 0)
(-0.159608 0.0373012 -7.31114e-27)
(-0.158751 0.0513557 -3.62849e-26)
(-0.157376 0.064401 -1.19261e-25)
(-0.155698 0.0766312 -8.53191e-26)
(-0.153534 0.0884348 4.39157e-26)
(-0.150704 0.0999025 1.47539e-25)
(-0.147054 0.110998 1.0149e-25)
(-0.142629 0.121555 5.00853e-26)
(-0.137449 0.13139 1.07535e-25)
(-0.177905 0.00811973 9.06461e-27)
(-0.178261 0.0231612 -1.92022e-36)
(-0.178841 0.038333 0)
(-0.179546 0.0526478 0)
(-0.179503 0.0674097 2.83152e-26)
(-0.178465 0.0819435 1.30945e-25)
(-0.176537 0.0960657 1.30281e-25)
(-0.173775 0.109674 2.06392e-25)
(-0.170179 0.12276 2.14024e-25)
(-0.165757 0.135271 -2.215e-25)
(-0.160456 0.147088 0)
(-0.154437 0.157932 4.65374e-25)
(-0.199129 0.009545 -2.06876e-26)
(-0.199843 0.028018 -5.93578e-26)
(-0.200466 0.0462346 0)
(-0.200588 0.063304 -2.09457e-25)
(-0.200061 0.0800119 4.71182e-26)
(-0.198714 0.0962029 3.07874e-25)
(-0.196435 0.111604 0)
(-0.19297 0.126305 3.64007e-25)
(-0.188468 0.140374 -4.31452e-25)
(-0.183088 0.153717 3.26149e-25)
(-0.176925 0.166264 6.36459e-25)
(-0.170201 0.177816 7.98232e-25)
(-0.220046 0.0120726 -5.04088e-26)