/*--------------------------------*- C++ -*----------------------------------*\
| =========                 |                                                 |
| \\      /  F ield         | OpenFOAM: The Open Source CFD Toolbox           |
|  \\    /   O peration     | Version:  v1606+                                |
|   \\  /    A nd           | Web:      www.OpenFOAM.com                      |
|    \\/     M anipulation  |                                                 |
\*---------------------------------------------------------------------------*/
FoamFile
{
    version     2.0;
    format      ascii;
    class       volVectorField;
    location    "1.25";
    object      U.air;
}
// * * * * * * * * * * * * * * * * * * * * * * * * * * * * * * * * * * * * * //

dimensions      [0 1 -1 0 0 0 0];

internalField   nonuniform List<vector> 
6000
(
(-0.0382252 0.268366 0)
(-0.0417181 0.207773 0)
(-0.0364964 0.211648 0)
(-0.0517328 0.206812 0)
(-0.055401 0.192978 0)
(-0.0418677 0.172081 0)
(-0.0166775 0.171538 0)
(0.0100624 0.170113 0)
(0.0256981 0.178833 0)
(0.0299639 0.202712 0)
(0.0341841 0.229667 0)
(0.0415611 0.241712 0)
(0.0402636 0.2458 0)
(0.0247352 0.247584 0)
(-0.0016898 0.254377 0)
(-0.02883 0.25778 0)
(-0.0496151 0.252909 0)
(-0.0575341 0.234416 0)
(-0.0505788 0.204686 0)
(-0.030188 0.187586 0)
(0.000426624 0.181731 0)
(0.0347885 0.184213 0)
(0.0464419 0.21408 0)
(0.0246531 0.238641 0)
(-0.0209064 0.254575 0)
(-0.0753257 0.256056 0)
(-0.117019 0.246479 0)
(-0.117422 0.215171 0)
(-0.0567442 0.179148 0)
(-0.000123558 0.212397 0)
(0.0600933 0.975477 0)
(0.108129 0.966336 0)
(0.143477 1.03031 0)
(0.123965 1.08157 0)
(0.053089 1.08267 0)
(0.0154739 1.05371 0)
(0.00753607 1.03764 0)
(0.00822943 1.05195 0)
(0.0125507 1.07645 0)
(0.0189064 1.07289 0)
(0.0363966 1.05355 0)
(0.0539558 1.06453 0)
(0.0551396 1.10426 0)
(0.0280247 1.14632 0)
(-0.0188138 1.15854 0)
(-0.0606724 1.15205 0)
(-0.0805695 1.13157 0)
(-0.0782925 1.11579 0)
(-0.0660784 1.10819 0)
(-0.0471222 1.09268 0)
(-0.0225811 1.0714 0)
(-0.00401703 1.07572 0)
(-0.0353959 1.1252 0)
(-0.125722 1.13772 0)
(-0.247763 1.12651 0)
(-0.343931 1.08193 0)
(-0.37859 1.01034 0)
(-0.317342 0.907199 0)
(-0.192568 0.831401 0)
(-0.0806531 0.875106 0)
(0.0590967 0.684898 0)
(0.158034 0.655673 0)
(0.253282 0.734418 0)
(0.276984 0.862296 0)
(0.186162 0.91588 0)
(0.08217 0.837356 0)
(0.0553417 0.835784 0)
(0.0507152 0.83608 0)
(0.0450798 0.838286 0)
(0.0503186 0.82697 0)
(0.0712339 0.815194 0)
(0.0877898 0.823772 0)
(0.0743469 0.853363 0)
(0.0297628 0.887685 0)
(-0.0236606 0.895002 0)
(-0.0712388 0.87397 0)
(-0.102741 0.838497 0)
(-0.117558 0.808904 0)
(-0.123402 0.788075 0)
(-0.113541 0.778425 0)
(-0.0718111 0.773348 0)
(-0.0537503 0.798274 0)
(-0.133968 0.91641 0)
(-0.300757 0.982655 0)
(-0.467441 0.980112 0)
(-0.547429 0.888211 0)
(-0.514409 0.723086 0)
(-0.384712 0.558556 0)
(-0.219051 0.46554 0)
(-0.0884146 0.525944 0)
(0.076344 0.596837 0)
(0.179688 0.57841 0)
(0.317452 0.687632 0)
(0.425436 0.875954 0)
(0.462558 1.0604 0)
(0.311099 0.994329 0)
(0.177077 0.914461 0)
(0.109497 0.910475 0)
(0.0482619 0.901494 0)
(0.00582343 0.851521 0)
(0.0039377 0.805478 0)
(0.0168768 0.818343 0)
(0.0136301 0.892851 0)
(-0.0151388 0.947794 0)
(-0.0401991 0.957677 0)
(-0.0591502 0.933979 0)
(-0.0846149 0.889936 0)
(-0.113949 0.854613 0)
(-0.137104 0.83372 0)
(-0.150222 0.793064 0)
(-0.162355 0.764116 0)
(-0.229157 0.871041 0)
(-0.374591 1.07444 0)
(-0.544427 1.1533 0)
(-0.645814 1.07058 0)
(-0.598305 0.875279 0)
(-0.45546 0.635449 0)
(-0.300622 0.458335 0)
(-0.171976 0.393485 0)
(-0.0733063 0.445042 0)
(0.0527434 0.480571 0)
(0.153451 0.452894 0)
(0.284206 0.523817 0)
(0.452346 0.704417 0)
(0.632426 1.00686 0)
(0.590315 1.1217 0)
(0.355122 0.973784 0)
(0.167334 0.933093 0)
(0.0336716 0.910886 0)
(-0.0578964 0.835466 0)
(-0.0970526 0.766909 0)
(-0.10049 0.771037 0)
(-0.0880265 0.838903 0)
(-0.0754081 0.890407 0)
(-0.0584147 0.878543 0)
(-0.0524195 0.864261 0)
(-0.0656415 0.850104 0)
(-0.0961754 0.822334 0)
(-0.135458 0.805398 0)
(-0.180974 0.79111 0)
(-0.26794 0.820376 0)
(-0.392721 0.972302 0)
(-0.50957 1.1561 0)
(-0.605298 1.19262 0)
(-0.616592 0.964819 0)
(-0.451782 0.666337 0)
(-0.256575 0.429703 0)
(-0.146498 0.326398 0)
(-0.0840605 0.323876 0)
(-0.0277865 0.361039 0)
(0.0360383 0.404087 0)
(0.100496 0.380783 0)
(0.18309 0.410254 0)
(0.334784 0.501574 0)
(0.522501 0.82435 0)
(0.623364 1.19809 0)
(0.429662 1.20407 0)
(0.189639 1.10861 0)
(0.00662308 1.01195 0)
(-0.118578 0.863856 0)
(-0.167529 0.728174 0)
(-0.165426 0.687965 0)
(-0.126658 0.739229 0)
(-0.0748659 0.780282 0)
(-0.0460239 0.793637 0)
(-0.0412052 0.797194 0)
(-0.0503848 0.793767 0)
(-0.0744845 0.785381 0)
(-0.112389 0.77874 0)
(-0.159837 0.785131 0)
(-0.242209 0.864561 0)
(-0.33588 1.01023 0)
(-0.402124 1.16024 0)
(-0.488502 1.21462 0)
(-0.418509 0.831622 0)
(-0.213704 0.456048 0)
(-0.0965082 0.323805 0)
(-0.0432085 0.294341 0)
(-0.0336449 0.305435 0)
(-0.0108207 0.337431 0)
(0.0164598 0.359268 0)
(0.0504744 0.337836 0)
(0.0856273 0.334748 0)
(0.167088 0.359675 0)
(0.286847 0.607267 0)
(0.408273 1.17894 0)
(0.273292 1.2743 0)
(0.0969258 1.16604 0)
(-0.0482361 1.06393 0)
(-0.139838 0.871707 0)
(-0.162137 0.700465 0)
(-0.150361 0.644703 0)
(-0.109784 0.680503 0)
(-0.0619388 0.744294 0)
(-0.0381664 0.783164 0)
(-0.0385367 0.804366 0)
(-0.0496161 0.809858 0)
(-0.0726666 0.812996 0)
(-0.108197 0.812042 0)
(-0.13115 0.810769 0)
(-0.141946 0.901981 0)
(-0.166625 1.04629 0)
(-0.222435 1.19895 0)
(-0.29097 1.21293 0)
(-0.16844 0.646728 0)
(-0.0545667 0.331799 0)
(0.00308706 0.287447 0)
(0.00396676 0.286373 0)
(-0.00388794 0.299935 0)
(-0.00247289 0.320472 0)
(0.00479951 0.336014 0)
(0.0121925 0.319571 0)
(0.01535 0.306016 0)
(0.0274776 0.290048 0)
(0.108773 0.452918 0)
(0.199971 1.1562 0)
(0.137386 1.39171 0)
(-0.026414 1.3027 0)
(-0.135453 1.16391 0)
(-0.143284 0.895722 0)
(-0.127108 0.696177 0)
(-0.113573 0.615698 0)
(-0.0874181 0.636189 0)
(-0.056377 0.712091 0)
(-0.0359841 0.77096 0)
(-0.029191 0.80524 0)
(-0.0303554 0.821 0)
(-0.0453015 0.8379 0)
(-0.0665529 0.841398 0)
(-0.0709951 0.816693 0)
(-0.0413889 0.88001 0)
(0.0152543 1.06378 0)
(-0.0232802 1.23999 0)
(-0.0384128 1.19762 0)
(0.0067793 0.547665 0)
(0.0443142 0.289447 0)
(0.0515823 0.286873 0)
(0.0329889 0.294311 0)
(0.0160109 0.304737 0)
(0.00397903 0.317891 0)
(-0.00524703 0.331875 0)
(-0.0204705 0.322008 0)
(-0.0416 0.31043 0)
(-0.063936 0.285595 0)
(-0.0285773 0.361935 0)
(0.018758 1.13502 0)
(-0.00279202 1.49131 0)
(-0.134656 1.41558 0)
(-0.166402 1.17568 0)
(-0.12167 0.855951 0)
(-0.0868185 0.679626 0)
(-0.0848508 0.606405 0)
(-0.0798266 0.627729 0)
(-0.0627375 0.704086 0)
(-0.0417008 0.767631 0)
(-0.0244731 0.806709 0)
(-0.0159516 0.828922 0)
(-0.02272 0.855923 0)
(-0.0380103 0.851716 0)
(-0.0283289 0.8114 0)
(0.0398284 0.797915 0)
(0.132135 1.02415 0)
(0.191427 1.26895 0)
(0.238871 1.18306 0)
(0.181031 0.593655 0)
(0.121264 0.309369 0)
(0.0945476 0.306388 0)
(0.0611441 0.313561 0)
(0.0331536 0.322439 0)
(0.00966048 0.331494 0)
(-0.0157924 0.35235 0)
(-0.0521714 0.346971 0)
(-0.0930984 0.338434 0)
(-0.135378 0.317468 0)
(-0.143744 0.380652 0)
(-0.193787 1.13253 0)
(-0.16374 1.57342 0)
(-0.175892 1.46937 0)
(-0.118961 1.12193 0)
(-0.0405921 0.824168 0)
(-0.0247856 0.67813 0)
(-0.0379853 0.61976 0)
(-0.0556819 0.636325 0)
(-0.0542337 0.701184 0)
(-0.0382898 0.768067 0)
(-0.0271178 0.81345 0)
(-0.0261986 0.849395 0)
(-0.0316153 0.883324 0)
(-0.0316659 0.879315 0)
(-0.0120929 0.809755 0)
(0.0590959 0.74649 0)
(0.148385 0.921559 0)
(0.333214 1.22055 0)
(0.464997 1.18731 0)
(0.383098 0.763417 0)
(0.214147 0.410657 0)
(0.140031 0.351522 0)
(0.0895665 0.346963 0)
(0.0491981 0.356497 0)
(0.0148468 0.362424 0)
(-0.027478 0.404133 0)
(-0.0857943 0.399083 0)
(-0.146432 0.386884 0)
(-0.208942 0.381435 0)
(-0.279817 0.520283 0)
(-0.42068 1.17933 0)
(-0.313424 1.55354 0)
(-0.148343 1.40533 0)
(-0.00860683 1.035 0)
(0.0556914 0.798485 0)
(0.0523912 0.685878 0)
(0.0262212 0.644533 0)
(-0.0025542 0.655966 0)
(-0.014005 0.706556 0)
(-0.0217965 0.780004 0)
(-0.0310231 0.833351 0)
(-0.0388695 0.874197 0)
(-0.0240653 0.891618 0)
(0.0171148 0.869989 0)
(0.0626518 0.805332 0)
(0.0764273 0.760029 0)
(0.129442 0.863133 0)
(0.267398 1.09955 0)
(0.504604 1.14941 0)
(0.524305 0.968874 0)
(0.317952 0.602369 0)
(0.18174 0.428366 0)
(0.118362 0.394881 0)
(0.0665637 0.411352 0)
(0.0195953 0.412352 0)
(-0.0431432 0.494333 0)
(-0.126509 0.483754 0)
(-0.203632 0.457135 0)
(-0.280831 0.487609 0)
(-0.427195 0.755933 0)
(-0.56997 1.24416 0)
(-0.364702 1.41306 0)
(-0.0881966 1.24226 0)
(0.0802854 0.962859 0)
(0.123517 0.802424 0)
(0.100075 0.724769 0)
(0.0606674 0.689104 0)
(0.033639 0.687943 0)
(0.0293401 0.727609 0)
(0.00954596 0.81142 0)
(-0.0112047 0.858641 0)
(-0.00629504 0.877418 0)
(0.0445647 0.863296 0)
(0.105479 0.852944 0)
(0.125882 0.848548 0)
(0.0840243 0.865329 0)
(0.0391709 0.949197 0)
(0.109793 1.04683 0)
(0.273242 1.04728 0)
(0.445744 1.02369 0)
(0.387886 0.804262 0)
(0.228778 0.541512 0)
(0.158032 0.453842 0)
(0.0934247 0.492105 0)
(0.0229756 0.513719 0)
(-0.0596344 0.662127 0)
(-0.174894 0.608 0)
(-0.275098 0.538678 0)
(-0.352261 0.625194 0)
(-0.517257 0.989646 0)
(-0.539478 1.21294 0)
(-0.255721 1.2225 0)
(0.0142648 1.09594 0)
(0.13741 0.956557 0)
(0.134809 0.880714 0)
(0.0852573 0.817314 0)
(0.0386323 0.75372 0)
(0.0129906 0.711269 0)
(0.0211848 0.727906 0)
(0.0347089 0.835872 0)
(0.042509 0.864416 0)
(0.0765466 0.850463 0)
(0.134489 0.838615 0)
(0.177273 0.871824 0)
(0.180471 0.920163 0)
(0.105379 1.00919 0)
(0.00611724 1.08463 0)
(-0.00874453 1.1045 0)
(0.0727326 1.01541 0)
(0.20296 0.942422 0)
(0.296376 0.855811 0)
(0.29175 0.628073 0)
(0.200092 0.524825 0)
(0.132996 0.667524 0)
(0.0248442 0.606465 0)
(-0.0160735 0.70738 0)
(-0.165511 0.772644 0)
(-0.32398 0.671648 0)
(-0.421948 0.77035 0)
(-0.443627 1.07417 0)
(-0.30392 1.04743 0)
(-0.0589941 1.06113 0)
(0.105598 1.06085 0)
(0.159819 1.02108 0)
(0.136377 0.9781 0)
(0.0842252 0.911962 0)
(0.0341273 0.827536 0)
(0.00390874 0.748834 0)
(0.00693444 0.723415 0)
(0.0434405 0.810258 0)
(0.10344 0.840743 0)
(0.154082 0.8214 0)
(0.202877 0.824339 0)
(0.230966 0.885196 0)
(0.225826 0.981207 0)
(0.138044 1.13915 0)
(0.00746917 1.1837 0)
(-0.0561553 1.15259 0)
(-0.0511426 1.02214 0)
(0.0261818 0.864678 0)
(0.14865 0.766702 0)
(0.260886 0.626625 0)
(0.21864 0.620326 0)
(0.0939006 0.703684 0)
(0.036407 0.645452 0)
(-0.00223098 0.744682 0)
(-0.0403053 0.902684 0)
(-0.226517 0.73589 0)
(-0.371778 0.781971 0)
(-0.279481 0.927099 0)
(-0.0717568 0.897366 0)
(0.0658818 0.983522 0)
(0.156842 1.06319 0)
(0.17879 1.08931 0)
(0.14379 1.06785 0)
(0.0861787 0.99719 0)
(0.0273147 0.901933 0)
(-0.00692751 0.784936 0)
(0.00125155 0.726596 0)
(0.0503923 0.767135 0)
(0.132606 0.799847 0)
(0.192462 0.78804 0)
(0.231643 0.805956 0)
(0.264885 0.881594 0)
(0.263506 1.01618 0)
(0.16847 1.2503 0)
(0.0100116 1.25535 0)
(-0.0700615 1.19237 0)
(-0.122921 1.02802 0)
(-0.0871144 0.823833 0)
(0.0146594 0.616846 0)
(0.166631 0.595978 0)
(0.0876739 0.649543 0)
(0.0138814 0.816031 0)
(0.0117875 0.649789 0)
(-0.00549807 0.679576 0)
(0.0323369 0.921906 0)
(-0.063519 0.901517 0)
(-0.210713 0.815644 0)
(-0.116185 0.704593 0)
(0.0639188 0.780419 0)
(0.152379 0.926221 0)
(0.197 1.05565 0)
(0.188073 1.12169 0)
(0.153614 1.11355 0)
(0.111627 1.05116 0)
(0.0266027 0.991278 0)
(-0.0298395 0.810018 0)
(0.00297516 0.712045 0)
(0.0613614 0.714343 0)
(0.136854 0.744812 0)
(0.19325 0.753378 0)
(0.236154 0.781933 0)
(0.292157 0.857449 0)
(0.265209 1.08393 0)
(0.133982 1.39907 0)
(0.0314932 1.31308 0)
(-0.0308988 1.28032 0)
(-0.170112 1.06283 0)
(-0.211431 0.794452 0)
(-0.142756 0.542534 0)
(-0.0393348 0.618352 0)
(-0.0657904 0.79391 0)
(-0.0434382 0.788758 0)
(0.0109318 0.618033 0)
(-0.0140231 0.653995 0)
(0.0286062 0.895622 0)
(0.0480672 0.917046 0)
(0.0479392 0.824334 0)
(0.104377 0.559799 0)
(0.2046 0.716297 0)
(0.253189 0.896588 0)
(0.239062 1.06921 0)
(0.187358 1.14542 0)
(0.170804 1.11381 0)
(0.176572 1.08084 0)
(0.0439849 1.14646 0)
(-0.07965 0.846937 0)
(-0.0272072 0.680131 0)
(0.0685987 0.658045 0)
(0.138337 0.684316 0)
(0.187392 0.714882 0)
(0.240891 0.736855 0)
(0.330214 0.791434 0)
(0.311698 1.1581 0)
(0.133267 1.44075 0)
(0.0178087 1.28123 0)
(-0.140394 1.30926 0)
(-0.353632 1.12158 0)
(-0.384912 0.832223 0)
(-0.329101 0.616839 0)
(-0.367877 0.654242 0)
(-0.244362 0.769336 0)
(-0.0940715 0.706421 0)
(0.00689533 0.610463 0)
(-0.0110581 0.644179 0)
(0.067005 0.856681 0)
(0.167351 0.863307 0)
(0.281407 0.813831 0)
(0.334242 0.552795 0)
(0.335673 0.733916 0)
(0.327873 0.890474 0)
(0.244031 1.14407 0)
(0.182567 1.17245 0)
(0.176604 1.09875 0)
(0.194576 1.1341 0)
(-0.0350033 1.31513 0)
(-0.17556 0.88839 0)
(-0.0943347 0.596873 0)
(0.0438777 0.583488 0)
(0.133827 0.61396 0)
(0.187219 0.667289 0)
(0.232323 0.673546 0)
(0.299774 0.740926 0)
(0.191537 1.28231 0)
(0.0460761 1.54082 0)
(-0.0828315 1.39283 0)
(-0.250039 1.45906 0)
(-0.461105 1.21923 0)
(-0.563315 0.76301 0)
(-0.557518 0.678507 0)
(-0.494933 0.741789 0)
(-0.34416 0.660479 0)
(-0.147145 0.580407 0)
(-0.00666679 0.605991 0)
(-0.00403848 0.629615 0)
(0.128024 0.774756 0)
(0.276907 0.781654 0)
(0.414355 0.808054 0)
(0.420948 0.69141 0)
(0.326178 0.789198 0)
(0.244809 0.923058 0)
(0.211564 1.10283 0)
(0.119018 1.0753 0)
(0.0800886 1.01756 0)
(-0.0202801 1.17107 0)
(-0.207072 1.48662 0)
(-0.274477 0.873858 0)
(-0.143346 0.453021 0)
(-0.0106381 0.460299 0)
(0.114043 0.506989 0)
(0.200211 0.593317 0)
(0.231725 0.62471 0)
(0.117309 0.73295 0)
(-0.0630364 1.2827 0)
(-0.108863 1.50322 0)
(-0.152125 1.41034 0)
(-0.16459 1.45508 0)
(-0.145874 1.26793 0)
(-0.237626 0.8249 0)
(-0.371814 0.734253 0)
(-0.408837 0.726506 0)
(-0.357011 0.600211 0)
(-0.216096 0.469333 0)
(-0.0614921 0.554086 0)
(0.0217241 0.572799 0)
(0.228096 0.654236 0)
(0.388286 0.75233 0)
(0.488037 0.85341 0)
(0.382253 0.773024 0)
(0.206195 0.852511 0)
(0.062836 0.807966 0)
(0.0158944 1.11533 0)
(-0.00791402 1.12 0)
(-0.0886276 1.09178 0)
(-0.185293 1.31981 0)
(-0.173148 1.45925 0)
(-0.168962 0.81432 0)
(-0.152177 0.334968 0)
(-0.0545164 0.300519 0)
(0.0833353 0.383595 0)
(0.187006 0.527476 0)
(0.215422 0.618135 0)
(-0.0274457 0.936727 0)
(-0.176778 1.24849 0)
(-0.139491 1.35639 0)
(-0.0902726 1.25876 0)
(-0.0236706 1.20658 0)
(0.0759874 1.12289 0)
(-0.00386959 0.839843 0)
(-0.166961 0.650476 0)
(-0.331214 0.634499 0)
(-0.38781 0.509057 0)
(-0.325523 0.325065 0)
(-0.111398 0.368654 0)
(0.129661 0.481407 0)
(0.319781 0.524896 0)
(0.387769 0.609572 0)
(0.356644 0.632993 0)
(0.35731 0.844165 0)
(0.239268 0.859334 0)
(0.090114 0.934646 0)
(-0.0123239 0.916704 0)
(-0.00659119 1.0465 0)
(-0.0788033 1.02406 0)
(-0.124897 1.1693 0)
(-0.053715 1.25886 0)
(-0.0756067 0.821018 0)
(-0.219014 0.345113 0)
(-0.0993821 0.217993 0)
(0.124306 0.261035 0)
(0.207369 0.431251 0)
(0.0481502 0.72689 0)
(-0.122932 0.981014 0)
(-0.151526 1.15172 0)
(-0.0769732 1.21254 0)
(-0.0112873 1.16229 0)
(0.0327885 1.10637 0)
(0.0762031 1.01059 0)
(0.02401 0.908855 0)
(-0.157455 0.813666 0)
(-0.349477 0.683591 0)
(-0.437193 0.423556 0)
(-0.373673 0.0959883 0)
(-0.139656 0.11802 0)
(0.187764 0.166023 0)
(0.292342 0.290617 0)
(0.316965 0.559893 0)
(0.274883 0.642207 0)
(0.269231 0.732346 0)
(0.297173 0.830007 0)
(0.27619 0.922867 0)
(0.188574 0.931309 0)
(0.109264 0.983174 0)
(0.0162058 1.03061 0)
(-0.0539463 1.1076 0)
(-0.0425586 1.10789 0)
(-0.0886925 0.867612 0)
(-0.151391 0.380998 0)
(-0.0427713 -0.0128863 0)
(0.0766906 0.0803333 0)
(0.0672229 0.469494 0)
(-0.0531352 0.743392 0)
(-0.109095 0.92215 0)
(-0.0916891 1.03372 0)
(-0.0380313 1.07635 0)
(0.00387272 1.05044 0)
(0.0188981 1.00562 0)
(0.00937166 0.943815 0)
(-0.0393681 0.875204 0)
(-0.130524 0.797923 0)
(-0.230034 0.654186 0)
(-0.30228 0.354649 0)
(-0.236008 -0.090045 0)
(-0.145988 -0.135062 0)
(0.0754481 -0.0617468 0)
(0.192618 0.303583 0)
(0.160334 0.448681 0)
(0.178529 0.484142 0)
(0.233708 0.544384 0)
(0.323933 0.693013 0)
(0.388224 0.867805 0)
(0.348551 0.968151 0)
(0.236457 1.04256 0)
(0.116247 1.07938 0)
(0.0174468 1.10898 0)
(-0.0419198 1.07059 0)
(-0.0870359 0.806592 0)
(-0.058031 0.276682 0)
(0.00534071 -0.0357884 0)
(0.0102814 0.118868 0)
(-0.0285863 0.456432 0)
(-0.0598562 0.75156 0)
(-0.0701834 0.915809 0)
(-0.060625 0.995553 0)
(-0.0360901 1.02081 0)
(-0.018798 1.00539 0)
(-0.0200511 0.974837 0)
(-0.0382486 0.935642 0)
(-0.0708006 0.886296 0)
(-0.110851 0.803807 0)
(-0.126818 0.602518 0)
(-0.116459 0.259551 0)
(-0.0894567 -0.174179 0)
(-0.101563 -0.311375 0)
(-0.0136373 -0.179618 0)
(0.0457499 0.151101 0)
(0.0916846 0.33905 0)
(0.133944 0.398133 0)
(0.186495 0.462307 0)
(0.263904 0.606538 0)
(0.345411 0.821962 0)
(0.356907 0.999797 0)
(0.2814 1.1067 0)
(0.174919 1.14128 0)
(0.0745704 1.14381 0)
(-0.00101345 1.07348 0)
(-0.032627 0.775434 0)
(-0.0073853 0.206375 0)
(-0.00391048 -0.0951755 0)
(-0.0138943 0.114382 0)
(-0.0422356 0.471616 0)
(-0.045978 0.757183 0)
(-0.0417998 0.91505 0)
(-0.0395765 0.982213 0)
(-0.0343919 1.00621 0)
(-0.0341676 1.0029 0)
(-0.0441123 0.983986 0)
(-0.063299 0.954557 0)
(-0.0871298 0.913533 0)
(-0.0949223 0.821204 0)
(-0.0547548 0.577564 0)
(-0.0167967 0.211173 0)
(0.00194145 -0.174533 0)
(-0.0302177 -0.366972 0)
(-0.0149241 -0.176501 0)
(-0.00336595 0.110256 0)
(0.0425863 0.3025 0)
(0.0754779 0.374159 0)
(0.106983 0.421475 0)
(0.162775 0.536452 0)
(0.247703 0.755073 0)
(0.302514 0.999246 0)
(0.277983 1.16747 0)
(0.198417 1.22448 0)
(0.105939 1.21613 0)
(0.0379475 1.11247 0)
(0.0277191 0.777066 0)
(0.0389163 0.219713 0)
(0.0138444 -0.071373 0)
(-0.0186291 0.145635 0)
(-0.048189 0.476788 0)
(-0.047732 0.74854 0)
(-0.0344182 0.910077 0)
(-0.0299389 0.97922 0)
(-0.0339587 1.00616 0)
(-0.0436072 1.00796 0)
(-0.058858 0.99605 0)
(-0.0769191 0.969679 0)
(-0.0867852 0.918812 0)
(-0.0606196 0.78263 0)
(0.00938802 0.512663 0)
(0.0389814 0.185057 0)
(0.0330488 -0.182918 0)
(0.0162453 -0.337424 0)
(-0.0311504 -0.164918 0)
(-0.0293577 0.0871501 0)
(0.00392004 0.267649 0)
(0.0245068 0.348999 0)
(0.0419029 0.389386 0)
(0.0692809 0.474889 0)
(0.135524 0.682281 0)
(0.216988 0.967021 0)
(0.245495 1.20399 0)
(0.196364 1.30381 0)
(0.114218 1.29298 0)
(0.0591507 1.15294 0)
(0.0754612 0.773697 0)
(0.088805 0.235079 0)
(0.0426374 -0.0310746 0)
(-0.0150282 0.184166 0)
(-0.0624885 0.495605 0)
(-0.0684555 0.740285 0)
(-0.0511102 0.899884 0)
(-0.0391318 0.978915 0)
(-0.0411709 1.01308 0)
(-0.0536814 1.01877 0)
(-0.0705052 1.00713 0)
(-0.0821611 0.976601 0)
(-0.0701886 0.899755 0)
(-0.0181068 0.727175 0)
(0.0468263 0.468206 0)
(0.0629025 0.210751 0)
(0.0576375 -0.163536 0)
(0.011093 -0.308342 0)
(-0.0346751 -0.107935 0)
(-0.051987 0.0572138 0)
(-0.0128069 0.277635 0)
(0.00741157 0.330178 0)
(-0.000758021 0.382572 0)
(-0.00603608 0.451909 0)
(0.0324705 0.623779 0)
(0.117505 0.904156 0)
(0.188356 1.19742 0)
(0.172794 1.35979 0)
(0.104489 1.35713 0)
(0.0639047 1.17457 0)
(0.0947032 0.755826 0)
(0.114344 0.294854 0)
(0.0457032 0.0331073 0)
(-0.0181752 0.253105 0)
(-0.0795533 0.520051 0)
(-0.0927255 0.736633 0)
(-0.0798968 0.883913 0)
(-0.0625609 0.971018 0)
(-0.0554854 1.01796 0)
(-0.0605626 1.03289 0)
(-0.0693711 1.0216 0)
(-0.0647653 0.973141 0)
(-0.0282808 0.861959 0)
(0.0270108 0.677874 0)
(0.0674761 0.431812 0)
(0.0837379 0.191517 0)
(0.078149 -0.141794 0)
(0.0226699 -0.253882 0)
(-0.034241 -0.0587055 0)
(-0.0709125 0.0491563 0)
(-0.0490193 0.232182 0)
(-0.0174157 0.355601 0)
(-0.0166527 0.429854 0)
(-0.0321348 0.450232 0)
(-0.0303156 0.584055 0)
(0.034385 0.833054 0)
(0.117014 1.16884 0)
(0.131205 1.3993 0)
(0.0865154 1.41286 0)
(0.0684395 1.18918 0)
(0.103968 0.744187 0)
(0.120185 0.323181 0)
(0.0564924 0.103677 0)
(-0.0177152 0.322033 0)
(-0.0879475 0.55478 0)
(-0.111125 0.74705 0)
(-0.108328 0.879328 0)
(-0.093183 0.963652 0)
(-0.0772594 1.01754 0)
(-0.0679505 1.03869 0)
(-0.0578829 1.02016 0)
(-0.0293839 0.947505 0)
(0.0214764 0.819896 0)
(0.0725368 0.642856 0)
(0.091776 0.416034 0)
(0.102771 0.180243 0)
(0.0935953 -0.0988318 0)
(0.0276168 -0.191945 0)
(-0.0338644 0.00357103 0)
(-0.0835605 0.0683682 0)
(-0.087439 0.208871 0)
(-0.0606386 0.323946 0)
(-0.0313859 0.412416 0)
(-0.0273664 0.500302 0)
(-0.0455321 0.574801 0)
(-0.0258103 0.778822 0)
(0.0418596 1.12784 0)
(0.0770301 1.41384 0)
(0.0630194 1.44527 0)
(0.0687238 1.19085 0)
(0.104125 0.73994 0)
(0.114674 0.363042 0)
(0.0487687 0.179281 0)
(-0.023948 0.396675 0)
(-0.0935749 0.595651 0)
(-0.120599 0.764576 0)
(-0.123557 0.880167 0)
(-0.111991 0.956 0)
(-0.0912345 1.00994 0)
(-0.0679696 1.03219 0)
(-0.0379503 1.00169 0)
(0.00820792 0.914404 0)
(0.0628067 0.782452 0)
(0.0946909 0.615206 0)
(0.110334 0.443792 0)
(0.128482 0.167772 0)
(0.110685 -0.0498671 0)
(0.0359224 -0.11414 0)
(-0.0327193 0.0641823 0)
(-0.0915267 0.10335 0)
(-0.115849 0.209762 0)
(-0.106013 0.306629 0)
(-0.0746255 0.38948 0)
(-0.0431526 0.49472 0)
(-0.0493533 0.637201 0)
(-0.0608305 0.768439 0)
(-0.033462 1.10166 0)
(0.0118393 1.41286 0)
(0.0321879 1.4569 0)
(0.0616113 1.18516 0)
(0.0913786 0.74236 0)
(0.0938972 0.394924 0)
(0.0337703 0.251183 0)
(-0.0315945 0.46576 0)
(-0.0955513 0.638963 0)
(-0.123073 0.78515 0)
(-0.125436 0.886234 0)
(-0.114785 0.951858 0)
(-0.091902 0.998057 0)
(-0.0590618 1.01303 0)
(-0.0161783 0.974548 0)
(0.0375355 0.877502 0)
(0.0779576 0.749704 0)
(0.103145 0.642404 0)
(0.142558 0.411924 0)
(0.160161 0.169678 0)
(0.124594 0.0111954 0)
(0.0423835 -0.0266154 0)
(-0.0330635 0.126552 0)
(-0.100187 0.150749 0)
(-0.138427 0.225729 0)
(-0.138172 0.293254 0)
(-0.107745 0.358803 0)
(-0.0665611 0.473842 0)
(-0.050786 0.648526 0)
(-0.0822264 0.787063 0)
(-0.105479 1.08474 0)
(-0.0545095 1.38675 0)
(0.000434611 1.43814 0)
(0.0554063 1.16166 0)
(0.0759772 0.744252 0)
(0.0659343 0.423022 0)
(0.0133224 0.313823 0)
(-0.0370154 0.518933 0)
(-0.0929669 0.674038 0)
(-0.121709 0.801745 0)
(-0.117454 0.891653 0)
(-0.10471 0.947213 0)
(-0.0802224 0.983962 0)
(-0.0411501 0.987433 0)
(0.00577668 0.937909 0)
(0.0468319 0.838798 0)
(0.0856232 0.771246 0)
(0.138665 0.599104 0)
(0.186795 0.390123 0)
(0.182793 0.198278 0)
(0.127628 0.0837607 0)
(0.0448829 0.0648735 0)
(-0.0352919 0.189925 0)
(-0.10843 0.203503 0)
(-0.150743 0.245625 0)
(-0.155488 0.282085 0)
(-0.126115 0.326854 0)
(-0.0936513 0.451916 0)
(-0.07924 0.666288 0)
(-0.121867 0.889043 0)
(-0.164382 1.08676 0)
(-0.119397 1.34677 0)
(-0.0384834 1.39447 0)
(0.0349236 1.12988 0)
(0.0677534 0.798696 0)
(0.0481256 0.452969 0)
(-0.00477809 0.370229 0)
(-0.04772 0.556151 0)
(-0.0772756 0.742562 0)
(-0.0991919 0.803992 0)
(-0.0979805 0.877435 0)
(-0.0861706 0.92272 0)
(-0.06412 0.95244 0)
(-0.0304895 0.948328 0)
(0.0151676 0.914752 0)
(0.065741 0.853288 0)
(0.129364 0.71817 0)
(0.196157 0.560633 0)
(0.222743 0.395628 0)
(0.195746 0.253391 0)
(0.123717 0.166676 0)
(0.0404949 0.151653 0)
(-0.0393399 0.256089 0)
(-0.111983 0.253805 0)
(-0.151939 0.263843 0)
(-0.158531 0.271924 0)
(-0.139978 0.300862 0)
(-0.124436 0.440316 0)
(-0.139999 0.686486 0)
(-0.19462 0.945695 0)
(-0.231914 1.1043 0)
(-0.188471 1.29723 0)
(-0.0841744 1.32946 0)
(0.00383824 1.08637 0)
(0.0522984 0.789988 0)
(0.0405073 0.486445 0)
(-0.0201829 0.428275 0)
(-0.0679979 0.582805 0)
(-0.0811065 0.747845 0)
(-0.0813079 0.851698 0)
(-0.078218 0.920025 0)
(-0.0625365 0.961196 0)
(-0.0366327 0.984752 0)
(-0.000646203 0.968079 0)
(0.0526312 0.900779 0)
(0.12314 0.795209 0)
(0.193653 0.671984 0)
(0.240219 0.547429 0)
(0.244811 0.427944 0)
(0.201519 0.326815 0)
(0.120239 0.257287 0)
(0.0348731 0.230384 0)
(-0.0380979 0.324637 0)
(-0.101785 0.297333 0)
(-0.144478 0.28354 0)
(-0.162748 0.269224 0)
(-0.165652 0.287635 0)
(-0.188197 0.461138 0)
(-0.264203 0.744767 0)
(-0.319272 0.994822 0)
(-0.328942 1.09582 0)
(-0.264845 1.2221 0)
(-0.118374 1.23975 0)
(-0.00797184 1.02809 0)
(0.0471296 0.772111 0)
(0.0393628 0.528195 0)
(-0.0261288 0.492251 0)
(-0.0790404 0.615752 0)
(-0.0959311 0.753392 0)
(-0.0866396 0.845182 0)
(-0.0678573 0.900477 0)
(-0.0396963 0.934765 0)
(-0.000743108 0.948554 0)
(0.0517015 0.922752 0)
(0.116625 0.85306 0)
(0.182359 0.754364 0)
(0.233783 0.65288 0)
(0.257996 0.560222 0)
(0.244964 0.475828 0)
(0.193212 0.403735 0)
(0.11524 0.347712 0)
(0.0324672 0.305446 0)
(-0.0295742 0.383833 0)
(-0.0880118 0.344503 0)
(-0.153633 0.321295 0)
(-0.198114 0.281701 0)
(-0.233407 0.306201 0)
(-0.328716 0.541406 0)
(-0.443716 0.832608 0)
(-0.497173 1.03292 0)
(-0.459737 1.12767 0)
(-0.320021 1.10498 0)
(-0.137085 1.10236 0)
(0.00673463 0.99797 0)
(0.0705711 0.751582 0)
(0.055354 0.576867 0)
(-0.0168064 0.561607 0)
(-0.0726204 0.654734 0)
(-0.0911173 0.763544 0)
(-0.0777598 0.843175 0)
(-0.0508322 0.891645 0)
(-0.0143134 0.920599 0)
(0.0333324 0.925412 0)
(0.0928966 0.892689 0)
(0.156702 0.824202 0)
(0.210747 0.739758 0)
(0.243076 0.659179 0)
(0.24764 0.588717 0)
(0.222067 0.526411 0)
(0.171188 0.472877 0)
(0.104284 0.426542 0)
(0.0314801 0.376881 0)
(-0.0261212 0.444135 0)
(-0.102466 0.409295 0)
(-0.211303 0.388349 0)
(-0.293992 0.342931 0)
(-0.367463 0.395752 0)
(-0.501883 0.69156 0)
(-0.591126 0.953575 0)
(-0.600951 1.05269 0)
(-0.481886 1.03091 0)
(-0.313022 1.00871 0)
(-0.130603 1.02461 0)
(0.0229046 0.926052 0)
(0.084193 0.763206 0)
(0.057368 0.649535 0)
(-0.00788773 0.639537 0)
(-0.0593289 0.698755 0)
(-0.0736653 0.776379 0)
(-0.0576784 0.840184 0)
(-0.0273467 0.883449 0)
(0.0121243 0.907736 0)
(0.061123 0.906959 0)
(0.118228 0.872281 0)
(0.172624 0.812374 0)
(0.210928 0.743351 0)
(0.224847 0.677709 0)
(0.214847 0.620503 0)
(0.185478 0.571071 0)
(0.142103 0.528726 0)
(0.089592 0.489732 0)
(0.0294103 0.441454 0)
(-0.0293314 0.507014 0)
(-0.136837 0.503581 0)
(-0.28811 0.510062 0)
(-0.377225 0.498269 0)
(-0.44968 0.599964 0)
(-0.501853 0.863095 0)
(-0.512049 1.03862 0)
(-0.467146 1.01913 0)
(-0.33948 0.934806 0)
(-0.210269 0.888355 0)
(-0.0752771 0.905444 0)
(0.0382348 0.877362 0)
(0.0784536 0.791421 0)
(0.0504165 0.73015 0)
(-0.0102749 0.726159 0)
(-0.0526367 0.757261 0)
(-0.0605946 0.804433 0)
(-0.0386768 0.849288 0)
(-0.00436738 0.88316 0)
(0.0355205 0.902472 0)
(0.0803736 0.897519 0)
(0.127955 0.863898 0)
(0.166418 0.811349 0)
(0.186783 0.752487 0)
(0.186997 0.69686 0)
(0.171987 0.647902 0)
(0.146546 0.60583 0)
(0.113337 0.571106 0)
(0.0740314 0.538581 0)
(0.0258363 0.497379 0)
(-0.0336583 0.587764 0)
(-0.151742 0.629101 0)
(-0.253424 0.634183 0)
(-0.330209 0.635373 0)
(-0.34226 0.717116 0)
(-0.359441 0.991555 0)
(-0.253378 1.0698 0)
(-0.146466 0.980893 0)
(-0.0777063 0.92733 0)
(-0.032023 0.920119 0)
(0.0149357 0.938681 0)
(0.061522 0.926588 0)
(0.0710585 0.873696 0)
(0.0387959 0.82949 0)
(-0.00720953 0.814714 0)
(-0.0400287 0.81851 0)
(-0.0484556 0.836918 0)
(-0.0323009 0.863297 0)
(0.00206754 0.888113 0)
(0.0427151 0.901866 0)
(0.0838352 0.892835 0)
(0.117998 0.859043 0)
(0.139755 0.811763 0)
(0.147385 0.760562 0)
(0.143193 0.711374 0)
(0.13058 0.667707 0)
(0.111946 0.631258 0)
(0.0880343 0.60219 0)
(0.0593179 0.575644 0)
(0.0216638 0.543873 0)
(-0.0397087 0.672535 0)
(-0.117206 0.714516 0)
(-0.151698 0.706662 0)
(-0.199369 0.740544 0)
(-0.255496 0.861779 0)
(-0.219578 1.01545 0)
(-0.0786674 1.07159 0)
(-0.0109578 1.03009 0)
(0.00435763 1.01235 0)
(0.00152221 1.01219 0)
(0.00797918 1.01752 0)
(0.0239572 1.00004 0)
(0.0252514 0.955848 0)
(0.00374783 0.915983 0)
(-0.0250734 0.893739 0)
(-0.0465776 0.884354 0)
(-0.0533743 0.883736 0)
(-0.0415146 0.887139 0)
(-0.0131537 0.892962 0)
(0.0249033 0.895694 0)
(0.0623562 0.883549 0)
(0.0885139 0.852323 0)
(0.102251 0.810042 0)
(0.106448 0.764127 0)
(0.103639 0.720154 0)
(0.0953954 0.681351 0)
(0.082828 0.649142 0)
(0.066397 0.624162 0)
(0.0461487 0.603025 0)
(0.0176249 0.581365 0)
(-0.0326653 0.749452 0)
(-0.0672077 0.758172 0)
(-0.075771 0.758041 0)
(-0.107451 0.806915 0)
(-0.142018 0.91917 0)
(-0.125533 1.04627 0)
(-0.0601441 1.09032 0)
(-0.0106666 1.07562 0)
(-0.00379405 1.06578 0)
(-0.0120886 1.06002 0)
(-0.0177824 1.05258 0)
(-0.0185752 1.03201 0)
(-0.0237376 0.996983 0)
(-0.0372368 0.962303 0)
(-0.0529694 0.936044 0)
(-0.0641169 0.918251 0)
(-0.0663693 0.907239 0)
(-0.0572435 0.899965 0)
(-0.0361326 0.893379 0)
(-0.00567483 0.884735 0)
(0.0262467 0.86904 0)
(0.0509032 0.841937 0)
(0.0650395 0.804988 0)
(0.0707067 0.764407 0)
(0.0705731 0.725159 0)
(0.0661829 0.69013 0)
(0.05847 0.661014 0)
(0.0478925 0.638938 0)
(0.0343892 0.622324 0)
(0.0136846 0.610462 0)
(-0.0155582 0.800366 0)
(-0.0236268 0.778218 0)
(-0.0234329 0.788291 0)
(-0.0443749 0.847239 0)
(-0.0602562 0.940697 0)
(-0.0518852 1.01992 0)
(-0.0311146 1.06636 0)
(-0.0223687 1.08331 0)
(-0.0291641 1.08646 0)
(-0.0416656 1.08057 0)
(-0.0529713 1.06717 0)
(-0.0613733 1.0447 0)
(-0.0692697 1.01462 0)
(-0.0779969 0.983233 0)
(-0.085721 0.955171 0)
(-0.0896705 0.931958 0)
(-0.087572 0.913332 0)
(-0.0780202 0.898052 0)
(-0.0605063 0.88465 0)
(-0.0360937 0.871087 0)
(-0.0087936 0.854104 0)
(0.0152745 0.830017 0)
(0.0316933 0.79821 0)
(0.0401866 0.762421 0)
(0.0429657 0.726994 0)
(0.0419019 0.694915 0)
(0.0381017 0.668127 0)
(0.0321021 0.648144 0)
(0.0238872 0.635064 0)
(0.00981277 0.631818 0)
(0.00790944 0.825019 0)
(0.0180469 0.786121 0)
(0.0209759 0.810728 0)
(0.00792529 0.876616 0)
(-0.003577 0.955103 0)
(-0.0104676 1.0195 0)
(-0.020656 1.06804 0)
(-0.0368056 1.09649 0)
(-0.0569055 1.1045 0)
(-0.0766542 1.09751 0)
(-0.092821 1.08016 0)
(-0.104501 1.05498 0)
(-0.112448 1.0248 0)
(-0.117601 0.993314 0)
(-0.119931 0.963445 0)
(-0.118608 0.936583 0)
(-0.112741 0.913111 0)
(-0.101699 0.892601 0)
(-0.0852136 0.874323 0)
(-0.0636958 0.857269 0)
(-0.0391457 0.839439 0)
(-0.0156576 0.817631 0)
(0.00256358 0.789924 0)
(0.0139511 0.758158 0)
(0.0197093 0.725978 0)
(0.0216767 0.696367 0)
(0.0211367 0.671439 0)
(0.0187612 0.653045 0)
(0.0146626 0.642639 0)
(0.00610423 0.646123 0)
(0.0299587 0.823418 0)
(0.0541944 0.79238 0)
(0.0578739 0.828338 0)
(0.0489878 0.89714 0)
(0.0344001 0.970728 0)
(0.0115476 1.03839 0)
(-0.0202283 1.09319 0)
(-0.0560851 1.1239 0)
(-0.0902043 1.12929 0)
(-0.11816 1.1167 0)
(-0.137831 1.09306 0)
(-0.149606 1.06283 0)
(-0.155141 1.0295 0)
(-0.156269 0.996039 0)
(-0.153908 0.964241 0)
(-0.148125 0.934926 0)
(-0.138749 0.908436 0)
(-0.125652 0.884753 0)
(-0.108784 0.863517 0)