/*--------------------------------*- C++ -*----------------------------------*\
| =========                 |                                                 |
| \\      /  F ield         | OpenFOAM: The Open Source CFD Toolbox           |
|  \\    /   O peration     | Version:  v1606+                                |
|   \\  /    A nd           | Web:      www.OpenFOAM.com                      |
|    \\/     M anipulation  |                                                 |
\*---------------------------------------------------------------------------*/
FoamFile
{
    version     2.0;
    format      ascii;
    class       volVectorField;
    location    "1.18";
    object      U.air;
}
// * * * * * * * * * * * * * * * * * * * * * * * * * * * * * * * * * * * * * //

dimensions      [0 1 -1 0 0 0 0];

internalField   nonuniform List<vector> 
6000
(
(0.0186126 0.215462 0)
(0.0666908 0.166769 0)
(0.0970666 0.156928 0)
(0.102391 0.152448 0)
(0.0803951 0.165629 0)
(0.042648 0.167731 0)
(0.0183882 0.157244 0)
(-0.0133275 0.152287 0)
(-0.0559818 0.15145 0)
(-0.074951 0.151133 0)
(-0.0739743 0.150632 0)
(-0.0589742 0.149141 0)
(-0.0334331 0.154038 0)
(-0.00676295 0.169513 0)
(0.00913571 0.186556 0)
(0.0185426 0.1882 0)
(0.0219925 0.191096 0)
(0.0199484 0.175598 0)
(0.0162343 0.148969 0)
(0.00102303 0.145067 0)
(-0.0250511 0.140601 0)
(-0.0467488 0.139824 0)
(-0.0678606 0.152367 0)
(-0.100842 0.159651 0)
(-0.127247 0.153284 0)
(-0.129598 0.171478 0)
(-0.0956365 0.208052 0)
(-0.0490275 0.229148 0)
(-0.0167101 0.229298 0)
(0.00046626 0.245742 0)
(0.0321215 0.890188 0)
(0.066018 0.930458 0)
(0.125358 0.944139 0)
(0.176905 0.986794 0)
(0.179158 1.02808 0)
(0.123716 1.05601 0)
(0.0231811 1.05089 0)
(-0.0616751 1.0816 0)
(-0.114557 1.05315 0)
(-0.145151 1.00899 0)
(-0.153207 0.977554 0)
(-0.144094 0.955807 0)
(-0.125122 0.937522 0)
(-0.0958223 0.924145 0)
(-0.0539319 0.918466 0)
(-0.00320045 0.920446 0)
(0.0484358 0.936931 0)
(0.0875322 0.960904 0)
(0.090149 1.00037 0)
(0.0664067 1.03637 0)
(0.0235757 1.05301 0)
(-0.0505762 1.04621 0)
(-0.132983 1.04007 0)
(-0.183431 1.01733 0)
(-0.185102 0.985545 0)
(-0.134095 0.927694 0)
(-0.0520839 0.876205 0)
(0.0176515 0.891672 0)
(0.0415276 0.96554 0)
(0.00382232 0.988362 0)
(-0.0232706 0.735557 0)
(-0.0475954 0.681522 0)
(-0.0109457 0.629871 0)
(0.0630733 0.665144 0)
(0.124174 0.775936 0)
(0.111639 0.881166 0)
(0.0114786 0.918127 0)
(-0.0867996 0.870715 0)
(-0.13978 0.815477 0)
(-0.173153 0.764382 0)
(-0.184354 0.718261 0)
(-0.173348 0.689446 0)
(-0.15036 0.672645 0)
(-0.114373 0.661438 0)
(-0.0638257 0.653015 0)
(-0.00423897 0.647228 0)
(0.0522678 0.65388 0)
(0.0897868 0.690608 0)
(0.0925417 0.7426 0)
(0.0698816 0.792034 0)
(0.0240765 0.838708 0)
(-0.0543668 0.868549 0)
(-0.126512 0.840559 0)
(-0.135024 0.771756 0)
(-0.0722995 0.665267 0)
(0.0266419 0.606164 0)
(0.0931137 0.627528 0)
(0.120551 0.715968 0)
(0.0958754 0.868352 0)
(0.033666 0.913969 0)
(-0.0537571 0.977633 0)
(-0.141528 0.882793 0)
(-0.167949 0.760666 0)
(-0.149462 0.718258 0)
(-0.0716185 0.782128 0)
(-0.0105352 0.941932 0)
(-0.0405353 1.02371 0)
(-0.119991 0.968758 0)
(-0.185605 0.90193 0)
(-0.228007 0.827193 0)
(-0.23793 0.756151 0)
(-0.218993 0.700683 0)
(-0.176808 0.673148 0)
(-0.11548 0.652888 0)
(-0.0523588 0.643028 0)
(0.00567706 0.649071 0)
(0.054628 0.672366 0)
(0.0966586 0.73052 0)
(0.116783 0.806173 0)
(0.0990501 0.867543 0)
(0.04878 0.932165 0)
(-0.00923667 0.972581 0)
(-0.0283753 0.907351 0)
(0.0295753 0.78688 0)
(0.118683 0.67849 0)
(0.190889 0.67996 0)
(0.222127 0.744341 0)
(0.218903 0.896198 0)
(0.133854 1.07754 0)
(0.0405443 1.09635 0)
(-0.0950225 1.11217 0)
(-0.26291 1.0149 0)
(-0.333008 0.855267 0)
(-0.328463 0.751584 0)
(-0.281193 0.746424 0)
(-0.192745 0.891554 0)
(-0.132381 1.06998 0)
(-0.16433 1.01941 0)
(-0.220796 0.94288 0)
(-0.239192 0.835834 0)
(-0.215732 0.741863 0)
(-0.16504 0.682515 0)
(-0.0998879 0.646594 0)
(-0.0427476 0.615319 0)
(0.00136274 0.607647 0)
(0.0264693 0.61848 0)
(0.0429277 0.6425 0)
(0.0627357 0.700741 0)
(0.0914722 0.800316 0)
(0.107688 0.899382 0)
(0.0865984 0.986109 0)
(0.0824997 1.00167 0)
(0.116475 0.889641 0)
(0.187197 0.740378 0)
(0.249092 0.651224 0)
(0.314764 0.695683 0)
(0.319452 0.801024 0)
(0.216934 0.928565 0)
(0.0892703 1.0898 0)
(0.0283986 1.07314 0)
(-0.0508614 1.19415 0)
(-0.195478 1.07357 0)
(-0.354587 0.899688 0)
(-0.437858 0.833796 0)
(-0.428164 0.80906 0)
(-0.349287 0.845639 0)
(-0.247552 1.04243 0)
(-0.191227 1.06243 0)
(-0.195374 0.958814 0)
(-0.153433 0.820227 0)
(-0.095739 0.721272 0)
(-0.0452232 0.651258 0)
(0.00755823 0.61925 0)
(0.045875 0.618314 0)
(0.0623327 0.630159 0)
(0.0665873 0.653489 0)
(0.0580984 0.693152 0)
(0.0469642 0.744962 0)
(0.0560051 0.818201 0)
(0.0714726 0.924876 0)
(0.0880756 1.02008 0)
(0.138064 0.99439 0)
(0.207576 0.88495 0)
(0.263547 0.737641 0)
(0.327163 0.670271 0)
(0.333802 0.712207 0)
(0.214645 0.827222 0)
(0.066591 1.02075 0)
(-0.0011962 1.12811 0)
(0.0100598 1.08029 0)
(0.00932745 1.16711 0)
(-0.0068332 1.16915 0)
(-0.166566 1.0029 0)
(-0.321116 0.846435 0)
(-0.448954 0.874827 0)
(-0.433379 0.869295 0)
(-0.320222 0.978131 0)
(-0.167157 1.04844 0)
(-0.0897662 0.941488 0)
(-0.034223 0.803696 0)
(0.0135878 0.725743 0)
(0.0471582 0.686749 0)
(0.0610991 0.655503 0)
(0.071065 0.64518 0)
(0.0817689 0.652466 0)
(0.0877551 0.683492 0)
(0.0781599 0.743371 0)
(0.0490831 0.818142 0)
(0.0204119 0.901593 0)
(0.0147584 1.0051 0)
(0.0458091 1.06952 0)
(0.117869 1.00943 0)
(0.184186 0.888917 0)
(0.232912 0.726823 0)
(0.270824 0.651347 0)
(0.144789 0.760111 0)
(-0.0281594 0.970526 0)
(-0.122346 0.988302 0)
(-0.087114 0.983149 0)
(-0.0185802 0.954887 0)
(0.029037 1.02909 0)
(0.109414 1.0516 0)
(0.0893069 1.05562 0)
(-0.0569652 0.976102 0)
(-0.296536 0.936439 0)
(-0.376902 0.870564 0)
(-0.340433 0.906768 0)
(-0.142299 0.98851 0)
(-0.0228701 0.924811 0)
(0.0404043 0.820876 0)
(0.0619683 0.755375 0)
(0.0655934 0.707598 0)
(0.0706869 0.663664 0)
(0.0841738 0.64197 0)
(0.104799 0.646604 0)
(0.127149 0.685964 0)
(0.132325 0.771747 0)
(0.0979268 0.883804 0)
(0.0397186 0.983611 0)
(-0.00677869 1.07873 0)
(-0.006404 1.09868 0)
(0.0417145 1.00454 0)
(0.0857179 0.874602 0)
(0.133562 0.727367 0)
(0.0189797 0.756176 0)
(-0.189793 0.955886 0)
(-0.258222 0.974841 0)
(-0.198789 0.932926 0)
(-0.130466 0.913112 0)
(-0.0384013 0.888428 0)
(0.0467597 0.954331 0)
(0.137312 0.991548 0)
(0.197775 1.00993 0)
(0.204012 1.04688 0)
(0.02006 1.1251 0)
(-0.157159 0.93278 0)
(-0.278122 0.846297 0)
(-0.11254 0.892415 0)
(0.00980224 0.884955 0)
(0.054844 0.831055 0)
(0.0482275 0.77591 0)
(0.0419559 0.711961 0)
(0.0583036 0.652097 0)
(0.0930399 0.620093 0)
(0.135303 0.621937 0)
(0.183754 0.665739 0)
(0.218795 0.779749 0)
(0.188196 0.942167 0)
(0.0931233 1.06705 0)
(-0.0181556 1.15748 0)
(-0.0870573 1.11468 0)
(-0.0758826 0.978351 0)
(-0.0499622 0.877296 0)
(-0.115271 0.862315 0)
(-0.386901 0.995361 0)
(-0.482246 1.01326 0)
(-0.39934 0.902083 0)
(-0.277776 0.84782 0)
(-0.172867 0.832472 0)
(-0.0538308 0.789968 0)
(0.056586 0.84664 0)
(0.174584 0.921627 0)
(0.2639 0.950442 0)
(0.337777 1.03533 0)
(0.31782 1.20507 0)
(0.175983 1.13956 0)
(-0.0787699 0.866122 0)
(-0.0186399 0.779916 0)
(0.0599866 0.838472 0)
(0.0619127 0.855033 0)
(0.0158057 0.814273 0)
(-0.00518729 0.717408 0)
(0.0249268 0.6262 0)
(0.0888489 0.581495 0)
(0.168256 0.603139 0)
(0.229004 0.683566 0)
(0.295784 0.829532 0)
(0.335735 1.00114 0)
(0.244697 1.10395 0)
(0.0587765 1.17633 0)
(-0.125774 1.11736 0)
(-0.173189 0.957362 0)
(-0.221327 0.947007 0)
(-0.497474 1.07014 0)
(-0.657867 1.15156 0)
(-0.600136 0.955443 0)
(-0.458039 0.809391 0)
(-0.322262 0.755904 0)
(-0.197223 0.740049 0)
(-0.0587417 0.689741 0)
(0.0553266 0.74819 0)
(0.192651 0.832892 0)
(0.305179 0.881615 0)
(0.39178 1.00184 0)
(0.440662 1.23825 0)
(0.400403 1.33255 0)
(0.200389 1.03285 0)
(0.129513 0.730095 0)
(0.176029 0.807281 0)
(0.11931 0.915684 0)
(-0.023806 0.893375 0)
(-0.0935938 0.7445 0)
(-0.0423999 0.629127 0)
(0.050686 0.598867 0)
(0.178752 0.589859 0)
(0.327078 0.565598 0)
(0.504447 0.587985 0)
(0.640244 0.831401 0)
(0.604747 1.11784 0)
(0.323345 1.2793 0)
(-0.0253526 1.11698 0)
(-0.227036 0.90035 0)
(-0.474525 1.04915 0)
(-0.719831 1.25005 0)
(-0.724494 1.07127 0)
(-0.590033 0.817079 0)
(-0.461372 0.706718 0)
(-0.345079 0.665476 0)
(-0.217845 0.641297 0)
(-0.0665533 0.58837 0)
(0.0614561 0.653689 0)
(0.211189 0.732365 0)
(0.327754 0.815824 0)
(0.406428 0.950141 0)
(0.480107 1.19053 0)
(0.536135 1.40261 0)
(0.515332 1.18868 0)
(0.350826 0.810744 0)
(0.309378 0.82629 0)
(0.171822 1.0391 0)
(-0.125403 1.04348 0)
(-0.278111 0.801864 0)
(-0.242232 0.616126 0)
(-0.127229 0.498573 0)
(0.0366842 0.410029 0)
(0.251617 0.38378 0)
(0.459189 0.423067 0)
(0.648468 0.705182 0)
(0.683211 1.13275 0)
(0.492543 1.47572 0)
(0.144683 1.38907 0)
(-0.231899 1.1401 0)
(-0.614611 1.27056 0)
(-0.76309 1.22384 0)
(-0.687772 0.892547 0)
(-0.576776 0.652676 0)
(-0.455152 0.582695 0)
(-0.339577 0.549515 0)
(-0.221137 0.514397 0)
(-0.0712055 0.451187 0)
(0.0666816 0.526155 0)
(0.213556 0.609607 0)
(0.330074 0.72159 0)
(0.423274 0.866059 0)
(0.533714 1.08129 0)
(0.677833 1.30433 0)
(0.760963 1.26789 0)
(0.625275 0.969219 0)
(0.388288 0.884311 0)
(0.100163 1.15015 0)
(-0.349862 1.19017 0)
(-0.634466 0.782406 0)
(-0.627941 0.527876 0)
(-0.434414 0.395828 0)
(-0.234044 0.267879 0)
(-0.045374 0.148175 0)
(0.130838 0.109357 0)
(0.34426 0.403563 0)
(0.491555 1.02771 0)
(0.408951 1.50781 0)
(0.196897 1.53419 0)
(-0.137049 1.43762 0)
(-0.482072 1.35058 0)
(-0.652718 1.1704 0)
(-0.611622 0.730085 0)
(-0.534742 0.483865 0)
(-0.410558 0.426176 0)
(-0.285437 0.409833 0)
(-0.184612 0.388456 0)
(-0.0632405 0.306189 0)
(0.0608257 0.389322 0)
(0.182994 0.482092 0)
(0.29497 0.583227 0)
(0.434676 0.716989 0)
(0.621428 0.893372 0)
(0.821371 1.11343 0)
(0.951304 1.23085 0)
(0.823786 1.12994 0)
(0.485547 1.11731 0)
(0.139029 1.43524 0)
(-0.230151 1.4645 0)
(-0.518244 0.883549 0)
(-0.569002 0.381768 0)
(-0.446334 0.18273 0)
(-0.290681 0.0857695 0)
(-0.169713 0.00813567 0)
(-0.0800961 -0.0359951 0)
(0.041291 0.166311 0)
(0.238143 0.924348 0)
(0.268986 1.56704 0)
(0.148169 1.68155 0)
(-0.0458532 1.65268 0)
(-0.281479 1.5005 0)
(-0.44782 1.11753 0)
(-0.475406 0.618716 0)
(-0.405431 0.325055 0)
(-0.302068 0.27392 0)
(-0.188259 0.273772 0)
(-0.111942 0.290932 0)
(-0.0289342 0.185408 0)
(0.0353283 0.27006 0)
(0.12676 0.374865 0)
(0.225771 0.425181 0)
(0.398105 0.508868 0)
(0.62233 0.644503 0)
(0.848424 0.872211 0)
(0.980559 1.14796 0)
(0.865783 1.30301 0)
(0.524154 1.35882 0)
(0.249404 1.56291 0)
(0.109533 1.52561 0)
(-0.125671 0.987436 0)
(-0.342256 0.297341 0)
(-0.370809 0.0454954 0)
(-0.284068 -0.0326016 0)
(-0.207323 -0.0739915 0)
(-0.167436 -0.0811927 0)
(-0.133237 0.0376963 0)
(0.0113032 0.826592 0)
(0.153369 1.60492 0)
(0.10845 1.79916 0)
(0.0171893 1.79831 0)
(-0.109872 1.64265 0)
(-0.264585 1.19293 0)
(-0.285065 0.550721 0)
(-0.221583 0.198392 0)
(-0.15598 0.161944 0)
(-0.0872582 0.167312 0)
(-0.0384729 0.228307 0)
(0.0113363 0.127774 0)
(-0.0016458 0.196742 0)
(0.064218 0.295382 0)
(0.139324 0.280589 0)
(0.275134 0.311063 0)
(0.452444 0.391839 0)
(0.642253 0.609402 0)
(0.792642 1.05476 0)
(0.689597 1.34182 0)
(0.497305 1.50936 0)
(0.376167 1.60184 0)
(0.376063 1.54265 0)
(0.250603 1.13736 0)
(-0.113735 0.458683 0)
(-0.272127 -0.0309858 0)
(-0.247632 -0.119338 0)
(-0.201198 -0.125832 0)
(-0.201866 -0.0664294 0)
(-0.240254 0.0527217 0)
(-0.212273 0.672364 0)
(-0.0566792 1.58847 0)
(0.00894662 1.89251 0)
(0.0277517 1.89996 0)
(-7.73876e-05 1.77969 0)
(-0.0889649 1.27325 0)
(-0.0747223 0.492491 0)
(-0.0481252 0.14747 0)
(-0.0426254 0.121452 0)
(-0.0283326 0.115208 0)
(-0.0029602 0.176856 0)
(0.0435889 0.122697 0)
(-0.034644 0.174523 0)
(0.0260788 0.226891 0)
(0.0713513 0.191624 0)
(0.133569 0.202969 0)
(0.206846 0.235318 0)
(0.312661 0.379539 0)
(0.46992 0.941598 0)
(0.479008 1.37938 0)
(0.422553 1.5565 0)
(0.445107 1.61097 0)
(0.501888 1.55222 0)
(0.481433 1.29766 0)
(0.236937 0.730462 0)
(-0.094597 0.0190449 0)
(-0.166431 -0.157945 0)
(-0.129699 -0.144831 0)
(-0.163926 0.0231826 0)
(-0.307379 0.229155 0)
(-0.453007 0.741725 0)
(-0.35649 1.59984 0)
(-0.147593 1.86858 0)
(-0.0483932 1.88575 0)
(-0.00471895 1.84694 0)
(0.0350435 1.38 0)
(0.0743164 0.452407 0)
(0.0527556 0.192003 0)
(0.0151898 0.133351 0)
(-0.00388168 0.102831 0)
(0.00522378 0.131032 0)
(0.0351732 0.144545 0)
(-0.0219808 0.178347 0)
(0.0146845 0.175334 0)
(0.0334724 0.15755 0)
(0.0367801 0.175807 0)
(0.0262072 0.191974 0)
(0.0343023 0.256091 0)
(0.131899 0.801555 0)
(0.246684 1.36516 0)
(0.275333 1.53923 0)
(0.374194 1.5633 0)
(0.476968 1.52585 0)
(0.537082 1.34814 0)
(0.478846 0.939186 0)
(0.227977 0.316141 0)
(-0.018711 -0.0956068 0)
(-0.0210959 -0.142562 0)
(-0.0674161 0.140294 0)
(-0.363539 0.434039 0)
(-0.623667 0.817993 0)
(-0.593131 1.42221 0)
(-0.326345 1.82447 0)
(-0.174146 1.91942 0)
(-0.0474243 1.88998 0)
(0.137835 1.36707 0)
(0.172858 0.549614 0)
(0.113048 0.288803 0)
(0.0356806 0.179608 0)
(-0.00363564 0.113571 0)
(-0.00674828 0.106433 0)
(0.00745634 0.15385 0)
(0.00290459 0.168002 0)
(0.0323827 0.147772 0)
(0.0290039 0.174774 0)
(-0.0282512 0.220983 0)
(-0.0900836 0.238163 0)
(-0.129872 0.309565 0)
(-0.094664 0.713359 0)
(0.0258452 1.38928 0)
(0.108957 1.47606 0)
(0.202347 1.46526 0)
(0.314705 1.45161 0)
(0.419566 1.29974 0)
(0.510989 1.04357 0)
(0.421096 0.546532 0)
(0.152929 0.1626 0)
(-0.00985805 -0.110765 0)
(-0.0699965 0.331035 0)
(-0.285864 0.725075 0)
(-0.534691 1.00384 0)
(-0.574705 1.30353 0)
(-0.388014 1.62202 0)
(-0.178311 1.7715 0)
(0.0466943 1.66652 0)
(0.326596 1.2338 0)
(0.306818 0.586765 0)
(0.15754 0.402387 0)
(0.0122014 0.269533 0)
(-0.0599592 0.14727 0)
(-0.0513271 0.0851337 0)
(-0.0152899 0.136144 0)
(0.0313499 0.115419 0)
(0.087786 0.125235 0)
(0.0593938 0.249025 0)
(-0.0940817 0.308348 0)
(-0.170392 0.291038 0)
(-0.26644 0.336902 0)
(-0.332647 0.657539 0)
(-0.231572 1.28819 0)
(-0.0464745 1.4765 0)
(0.0443983 1.45676 0)
(0.140031 1.44808 0)
(0.249818 1.26979 0)
(0.395661 1.02794 0)
(0.35683 0.691451 0)
(0.140187 0.441264 0)
(-0.0370825 0.0184114 0)
(-0.118191 0.393338 0)
(-0.168579 0.797913 0)
(-0.268594 1.04263 0)
(-0.318517 1.2232 0)
(-0.227 1.40372 0)
(-0.0342988 1.61188 0)
(0.213847 1.4381 0)
(0.400755 1.08918 0)
(0.363399 0.761654 0)
(0.15331 0.498436 0)
(-0.009514 0.352512 0)
(-0.120342 0.170371 0)
(-0.104252 0.0475156 0)
(-0.0368729 0.0753559 0)
(0.0683955 0.0557575 0)
(0.135797 0.106933 0)
(0.0511728 0.339587 0)
(-0.0748263 0.383526 0)
(-0.166449 0.376921 0)
(-0.292945 0.463218 0)
(-0.419895 0.708534 0)
(-0.374845 1.08895 0)
(-0.186689 1.32588 0)
(-0.0770043 1.36003 0)
(-0.00250414 1.3449 0)
(0.0697879 1.16605 0)
(0.1303 0.943328 0)
(0.0659678 0.825781 0)
(-0.0506421 0.572971 0)
(-0.089748 0.125865 0)
(-0.142733 0.396727 0)
(-0.130999 0.780739 0)
(-0.124229 0.998786 0)
(-0.120833 1.13094 0)
(-0.0703051 1.25591 0)
(0.0766258 1.3289 0)
(0.249597 1.21292 0)
(0.316033 1.00406 0)
(0.26983 0.805794 0)
(0.147956 0.629845 0)
(0.0353678 0.462958 0)
(-0.0611897 0.224221 0)
(-0.115669 0.0110584 0)
(-0.0634883 0.0148787 0)
(0.084691 -0.0564798 0)
(0.0259309 0.133487 0)
(-0.0442078 0.415689 0)
(-0.101885 0.425412 0)
(-0.137441 0.403082 0)
(-0.179735 0.492121 0)
(-0.244806 0.724145 0)
(-0.258524 0.962689 0)
(-0.193641 1.13744 0)
(-0.147352 1.23753 0)
(-0.132356 1.23078 0)
(-0.14146 1.11429 0)
(-0.199062 0.954992 0)
(-0.2561 0.886237 0)
(-0.186219 0.535549 0)
(-0.137147 0.12691 0)
(-0.169311 0.41808 0)
(-0.147495 0.753031 0)
(-0.0935283 0.960983 0)
(-0.054121 1.038 0)
(-0.00193851 1.09053 0)
(0.0903634 1.11401 0)
(0.175817 1.03755 0)
(0.189354 0.903229 0)
(0.149261 0.767123 0)
(0.104372 0.619726 0)
(0.0739193 0.444849 0)
(0.029034 0.30057 0)
(0.00793992 0.0303691 0)
(-0.0582914 -0.0637215 0)
(-0.0368023 -0.026614 0)
(-0.0833855 0.239447 0)
(-0.12227 0.371854 0)
(-0.128899 0.392434 0)
(-0.149661 0.367521 0)
(-0.150275 0.452126 0)
(-0.14018 0.663805 0)
(-0.130531 0.90577 0)
(-0.151097 1.10782 0)
(-0.188107 1.22756 0)
(-0.234044 1.25032 0)
(-0.29853 1.16044 0)
(-0.36766 0.993962 0)
(-0.333341 0.782555 0)
(-0.197494 0.416666 0)
(-0.173538 0.137276 0)
(-0.200207 0.430992 0)
(-0.169039 0.704054 0)
(-0.0977213 0.904399 0)
(-0.032109 0.991945 0)
(0.0139629 1.02683 0)
(0.0644702 1.03159 0)
(0.101266 0.986322 0)
(0.0961434 0.909156 0)
(0.0720612 0.810699 0)
(0.0676436 0.64179 0)
(0.0784528 0.490082 0)
(0.0980703 0.270009 0)
(0.0901521 0.0854876 0)
(0.0321082 -0.00611647 0)
(-0.0591569 0.0768171 0)
(-0.140813 0.252419 0)
(-0.149896 0.430708 0)
(-0.166348 0.470287 0)
(-0.192068 0.394056 0)
(-0.209706 0.451189 0)
(-0.177368 0.618669 0)
(-0.129873 0.846983 0)
(-0.134487 1.06161 0)
(-0.173401 1.18086 0)
(-0.221222 1.21239 0)
(-0.263288 1.12384 0)
(-0.275507 0.923489 0)
(-0.21499 0.656774 0)
(-0.135227 0.34204 0)
(-0.138483 0.166602 0)
(-0.188322 0.435 0)
(-0.175985 0.668584 0)
(-0.130995 0.839695 0)
(-0.060529 0.945746 0)
(-0.0119334 0.992006 0)
(0.0254706 1.00264 0)
(0.0473188 0.979558 0)
(0.0457437 0.92882 0)
(0.0567227 0.812661 0)
(0.0836899 0.624341 0)
(0.117855 0.465908 0)
(0.1426 0.264844 0)
(0.120609 0.125643 0)
(0.0415927 0.0798755 0)
(-0.0688506 0.20819 0)
(-0.166993 0.31408 0)
(-0.187093 0.450864 0)
(-0.189971 0.49379 0)
(-0.216948 0.470116 0)
(-0.252442 0.494241 0)
(-0.234468 0.583795 0)
(-0.182468 0.832237 0)
(-0.134303 1.07063 0)
(-0.127675 1.20162 0)
(-0.141138 1.2247 0)
(-0.136122 1.11245 0)
(-0.101067 0.880682 0)
(-0.0581222 0.590623 0)
(-0.0515971 0.321241 0)
(-0.112351 0.218784 0)
(-0.171055 0.456749 0)
(-0.175223 0.697584 0)
(-0.148236 0.785503 0)
(-0.103112 0.886595 0)
(-0.0566279 0.946176 0)
(-0.00912153 0.973721 0)
(0.0337141 0.967413 0)
(0.0590067 0.916596 0)
(0.0912349 0.776257 0)
(0.139706 0.637929 0)
(0.175045 0.444353 0)
(0.176892 0.286652 0)
(0.129267 0.190873 0)
(0.041762 0.16776 0)
(-0.0624985 0.342089 0)
(-0.163206 0.387841 0)
(-0.195207 0.489598 0)
(-0.209498 0.534656 0)
(-0.236128 0.521645 0)
(-0.265131 0.528802 0)
(-0.271266 0.623817 0)
(-0.226152 0.791611 0)
(-0.149368 1.04796 0)
(-0.0795805 1.20888 0)
(-0.0329583 1.23248 0)
(0.0173803 1.10253 0)
(0.0525426 0.853762 0)
(0.0590428 0.623853 0)
(0.0188733 0.374539 0)
(-0.0783082 0.310736 0)
(-0.162598 0.502911 0)
(-0.178542 0.696516 0)
(-0.161915 0.812152 0)
(-0.128415 0.906094 0)
(-0.0780338 0.919418 0)
(-0.0277777 0.929399 0)
(0.0206358 0.926394 0)
(0.0832966 0.933676 0)
(0.147555 0.781127 0)
(0.203584 0.605204 0)
(0.226459 0.451861 0)
(0.199428 0.339828 0)
(0.13091 0.272256 0)
(0.0393856 0.257065 0)
(-0.0519045 0.463299 0)
(-0.141866 0.469091 0)
(-0.17906 0.543818 0)
(-0.196366 0.588385 0)
(-0.220168 0.587591 0)
(-0.254029 0.585444 0)
(-0.269511 0.642528 0)
(-0.247547 0.818422 0)
(-0.163618 0.994143 0)
(-0.0588066 1.16219 0)
(0.046269 1.19734 0)
(0.116433 1.08129 0)
(0.143728 0.913889 0)
(0.134094 0.662376 0)
(0.0677464 0.469718 0)
(-0.0540272 0.429762 0)
(-0.155194 0.572373 0)
(-0.188705 0.712636 0)
(-0.178031 0.798708 0)
(-0.138398 0.867428 0)
(-0.0829535 0.914795 0)
(-0.0298095 0.947744 0)
(0.0238887 0.937191 0)
(0.106906 0.869552 0)
(0.194633 0.734453 0)
(0.243021 0.599962 0)
(0.244758 0.490494 0)
(0.199964 0.413263 0)
(0.123628 0.361623 0)
(0.0349563 0.340912 0)
(-0.0375701 0.557516 0)
(-0.106787 0.537916 0)
(-0.140519 0.593499 0)
(-0.154002 0.640534 0)
(-0.169058 0.658602 0)
(-0.200489 0.669044 0)
(-0.233626 0.707525 0)
(-0.232834 0.82086 0)
(-0.167081 1.00919 0)
(-0.0526276 1.11036 0)
(0.0538771 1.15841 0)
(0.132164 1.13517 0)
(0.16706 0.938778 0)
(0.152241 0.730328 0)
(0.07297 0.587886 0)
(-0.0511204 0.5605 0)
(-0.150851 0.651802 0)
(-0.187374 0.743066 0)
(-0.180493 0.803717 0)
(-0.146606 0.850452 0)
(-0.0948844 0.883443 0)
(-0.0320658 0.906593 0)
(0.0434199 0.888561 0)
(0.130384 0.821429 0)
(0.203526 0.719619 0)
(0.237285 0.621802 0)
(0.227866 0.545007 0)
(0.179815 0.489442 0)
(0.109698 0.445813 0)
(0.0309686 0.415299 0)
(-0.0204832 0.616986 0)
(-0.0621036 0.58077 0)
(-0.0846909 0.623492 0)
(-0.0949668 0.67457 0)
(-0.107235 0.718784 0)
(-0.134892 0.761089 0)
(-0.170105 0.812375 0)
(-0.194449 0.886814 0)
(-0.170947 0.99585 0)
(-0.0894791 1.11661 0)
(0.00480495 1.1826 0)
(0.0891425 1.12606 0)
(0.135229 0.978188 0)
(0.115894 0.817504 0)
(0.0400798 0.70947 0)
(-0.0675444 0.684317 0)
(-0.149981 0.728386 0)
(-0.179944 0.779439 0)
(-0.172946 0.816948 0)
(-0.142376 0.848448 0)
(-0.0941596 0.870548 0)
(-0.030167 0.885153 0)
(0.0473469 0.86225 0)
(0.124461 0.803323 0)
(0.180227 0.724924 0)
(0.199962 0.651282 0)
(0.18596 0.593158 0)
(0.146855 0.55125 0)
(0.0932104 0.515325 0)
(0.0287574 0.480786 0)
(-0.00154622 0.639879 0)
(-0.0202693 0.600974 0)
(-0.0342451 0.643271 0)
(-0.048041 0.703319 0)
(-0.0714644 0.770909 0)
(-0.111892 0.845145 0)
(-0.165726 0.929808 0)
(-0.20725 1.02136 0)
(-0.21211 1.09911 0)
(-0.177045 1.15716 0)
(-0.0955885 1.18069 0)
(-0.00161537 1.13616 0)
(0.0505036 1.0263 0)
(0.0414833 0.900527 0)
(-0.0163734 0.813947 0)
(-0.092797 0.783594 0)
(-0.148689 0.791897 0)
(-0.168764 0.814073 0)
(-0.161272 0.835004 0)
(-0.133792 0.853254 0)
(-0.0901939 0.867305 0)
(-0.0299061 0.871842 0)
(0.0399071 0.84685 0)
(0.101167 0.795696 0)
(0.137964 0.732847 0)
(0.146668 0.674235 0)
(0.134409 0.625906 0)
(0.109371 0.591993 0)
(0.0749001 0.566 0)
(0.0263595 0.537971 0)
(0.0149084 0.636212 0)
(0.0135021 0.611703 0)
(0.00616929 0.659598 0)
(-0.00889226 0.730137 0)
(-0.038255 0.818303 0)
(-0.0911988 0.921408 0)
(-0.169622 1.03201 0)
(-0.243476 1.1257 0)
(-0.273552 1.19538 0)
(-0.246697 1.2377 0)
(-0.18021 1.2269 0)
(-0.10047 1.16116 0)
(-0.0462136 1.0624 0)
(-0.0428671 0.957993 0)
(-0.0751209 0.883972 0)
(-0.116157 0.84651 0)
(-0.145381 0.833949 0)
(-0.155334 0.836662 0)
(-0.146589 0.84469 0)
(-0.12219 0.852537 0)
(-0.0839431 0.857056 0)
(-0.033481 0.851805 0)
(0.0203455 0.826581 0)
(0.0628466 0.783783 0)
(0.086649 0.732535 0)
(0.0934129 0.683205 0)
(0.088396 0.643057 0)
(0.0755401 0.615933 0)
(0.055733 0.599205 0)
(0.0218887 0.584441 0)
(0.0255143 0.614787 0)
(0.0392638 0.614466 0)
(0.0384061 0.670022 0)
(0.0248107 0.752308 0)
(-0.00761006 0.855607 0)
(-0.0741895 0.984386 0)
(-0.178619 1.10482 0)
(-0.28061 1.18988 0)
(-0.340548 1.25058 0)
(-0.33659 1.26587 0)
(-0.271921 1.2325 0)
(-0.192512 1.16088 0)
(-0.138202 1.07123 0)
(-0.119179 0.983829 0)
(-0.124261 0.918302 0)
(-0.136787 0.876802 0)
(-0.145885 0.853535 0)
(-0.146105 0.844019 0)
(-0.135095 0.840707 0)
(-0.113308 0.839165 0)
(-0.0821054 0.834817 0)
(-0.0443085 0.823041 0)
(-0.00642708 0.798485 0)
(0.0240556 0.76264 0)
(0.0435644 0.721666 0)
(0.0525162 0.682576 0)
(0.0532346 0.650425 0)
(0.0480768 0.628888 0)
(0.0379211 0.61932 0)
(0.0160155 0.619152 0)
(0.0273276 0.579007 0)
(0.0544913 0.60554 0)
(0.0621526 0.671824 0)
(0.0349399 0.774852 0)
(-0.0242927 0.870567 0)
(-0.116518 1.02582 0)
(-0.219359 1.1549 0)
(-0.314105 1.21954 0)
(-0.373443 1.24204 0)
(-0.377838 1.22002 0)
(-0.330402 1.1736 0)
(-0.263742 1.11316 0)
(-0.20956 1.04391 0)
(-0.177569 0.976943 0)
(-0.163133 0.922274 0)
(-0.156899 0.882217 0)
(-0.152 0.855165 0)
(-0.14401 0.838018 0)
(-0.130323 0.826602 0)
(-0.110324 0.817461 0)
(-0.0848662 0.807011 0)
(-0.0561542 0.791756 0)
(-0.0278581 0.769432 0)
(-0.00394924 0.740749 0)
(0.0131586 0.708843 0)
(0.0231614 0.677907 0)
(0.0272109 0.651896 0)
(0.0268418 0.634738 0)
(0.0228916 0.630365 0)
(0.0101203 0.642617 0)
(0.0262384 0.5338 0)
(0.0644025 0.581632 0)
(0.0672827 0.670428 0)
(-0.0198696 0.825775 0)
(-0.151906 0.919847 0)
(-0.231403 1.08314 0)
(-0.283507 1.18595 0)
(-0.317148 1.23205 0)
(-0.351807 1.23237 0)
(-0.369866 1.16639 0)
(-0.343798 1.09642 0)
(-0.293828 1.04555 0)
(-0.24419 0.997448 0)
(-0.208546 0.950194 0)
(-0.186056 0.907437 0)
(-0.170729 0.872288 0)
(-0.157961 0.845427 0)
(-0.144671 0.82489 0)
(-0.128984 0.809343 0)
(-0.110139 0.795801 0)
(-0.0884707 0.781979 0)
(-0.0653078 0.765706 0)
(-0.0427624 0.745668 0)
(-0.0230997 0.721995 0)
(-0.00793818 0.696243 0)
(0.00229873 0.671116 0)
(0.00823543 0.649703 0)
(0.0108979 0.635904 0)
(0.0110041 0.635161 0)
(0.00494439 0.656239 0)
(0.0275801 0.48095 0)
(0.0651016 0.543529 0)
(0.0312332 0.687139 0)
(-0.119125 0.967374 0)
(-0.29091 0.981348 0)
(-0.331821 1.08829 0)
(-0.331822 1.16649 0)
(-0.316409 1.19944 0)
(-0.315658 1.20801 0)
(-0.323834 1.12786 0)
(-0.313521 1.03388 0)
(-0.285209 0.985219 0)
(-0.249411 0.950185 0)
(-0.217573 0.917786 0)
(-0.193557 0.88518 0)
(-0.175156 0.855396 0)
(-0.159253 0.830087 0)
(-0.143736 0.8094 0)
(-0.127441 0.79188 0)
(-0.109799 0.776184 0)
(-0.0908889 0.760799 0)
(-0.0714473 0.744358 0)
(-0.0527075 0.725977 0)
(-0.0360177 0.705615 0)
(-0.0224227 0.684089 0)
(-0.0123028 0.663171 0)
(-0.00531508 0.645239 0)
(-0.000768877 0.633999 0)
(0.00199108 0.635716 0)
(0.00084684 0.661819 0)
(0.0178223 0.423859 0)
(0.0321793 0.515467 0)
(-0.046951 0.766901 0)
(-0.203346 1.09517 0)
(-0.317055 1.05653 0)
(-0.379193 1.10203 0)
(-0.349095 1.15266 0)
(-0.317124 1.17458 0)
(-0.284337 1.17808 0)
(-0.268612 1.10574 0)
(-0.27019 0.991177 0)
(-0.253426 0.939502 0)
(-0.23233 0.91074 0)
(-0.209583 0.886664 0)
(-0.188462 0.861437 0)
(-0.170363 0.836413 0)
(-0.154429 0.813434 0)
(-0.139162 0.793153 0)
(-0.123739 0.775097 0)
(-0.107775 0.7585 0)
(-0.0912886 0.74247 0)
(-0.0747061 0.72618 0)
(-0.0587657 0.709051 0)
(-0.044304 0.690988 0)
(-0.0320059 0.672467 0)
(-0.0221833 0.65466 0)
(-0.014677 0.639414 0)
(-0.00903855 0.630143 0)
(-0.0046023 0.633387 0)
(-0.0021785 0.661519 0)
(-0.0171459 0.389676 0)
(-0.0179907 0.52306 0)
(-0.143961 0.870183 0)
(-0.189254 1.11878 0)
(-0.262281 1.16513 0)
(-0.348313 1.10771 0)
(-0.337571 1.13044 0)
(-0.295142 1.14096 0)
(-0.251225 1.14057 0)
(-0.219713 1.09241 0)
(-0.220353 0.971759 0)
(-0.213717 0.905282 0)
(-0.200538 0.881229 0)
(-0.187815 0.861036 0)
(-0.172798 0.839784 0)
(-0.157652 0.818514 0)
(-0.143743 0.797603 0)
(-0.130492 0.778045 0)
(-0.117151 0.759919 0)
(-0.103456 0.742917 0)
(-0.0894093 0.726599 0)
(-0.0753087 0.710501 0)
(-0.0616486 0.694276 0)
(-0.048998 0.677826 0)
(-0.0378458 0.661457 0)
(-0.0284488 0.645968 0)
(-0.0207824 0.632829 0)
(-0.0145803 0.625117 0)
(-0.00916137 0.629179 0)
(-0.00422107 0.656649 0)
(-0.0644989 0.428519 0)
(-0.136298 0.567959 0)
(-0.205349 0.878491 0)
(-0.146503 1.08503 0)
(-0.194573 1.23531 0)
(-0.263898 1.16048 0)
(-0.291049 1.11107 0)
(-0.252419 1.1005 0)
(-0.207647 1.08307 0)
(-0.167275 1.06414 0)
(-0.163144 0.969635 0)
(-0.166476 0.883483 0)
(-0.15953 0.861181 0)
(-0.155109 0.843645 0)
(-0.147742 0.823474 0)
(-0.137974 0.804291 0)
(-0.128051 0.784842 0)
(-0.118158 0.76563 0)
(-0.107828 0.747265 0)
(-0.0968686 0.729808 0)
(-0.0853724 0.713142 0)
(-0.0735914 0.697059 0)
(-0.0619394 0.681366 0)
(-0.0508706 0.665991 0)
(-0.0407825 0.651131 0)
(-0.031918 0.637364 0)
(-0.0243445 0.625894 0)
(-0.0179268 0.61944 0)
(-0.0119961 0.623812 0)
(-0.00538452 0.648689 0)
(-0.0810685 0.554168 0)
(-0.211 0.680755 0)
(-0.25208 0.853101 0)
(-0.159425 1.06912 0)
(-0.151859 1.23386 0)
(-0.190695 1.2236 0)
(-0.22925 1.09355 0)
(-0.199895 1.06945 0)
(-0.134876 1.04639 0)
(-0.090693 1.02586 0)
(-0.0862489 0.958688 0)
(-0.101164 0.872102 0)
(-0.108869 0.855197 0)
(-0.113281 0.838045 0)
(-0.114817 0.816213 0)
(-0.112633 0.796729 0)
(-0.108639 0.777021 0)
(-0.103217 0.757145 0)
(-0.0965093 0.73782 0)
(-0.0885367 0.719464 0)
(-0.0795834 0.70211 0)
(-0.0699936 0.685711 0)
(-0.0601639 0.670161 0)
(-0.0505265 0.655401 0)
(-0.0414541 0.641552 0)
(-0.0332051 0.629047 0)
(-0.0259096 0.618896 0)
(-0.0195184 0.613457 0)
(-0.0133995 0.617797 0)
(-0.00580717 0.639291 0)
(-0.104594 0.728281 0)
(-0.232071 0.78566 0)
(-0.242406 0.823376 0)
(-0.174704 1.04013 0)
(-0.112915 1.24194 0)
(-0.112681 1.26576 0)
(-0.139367 1.10305 0)
(-0.0763831 1.03089 0)
(-0.0144719 0.997877 0)
(0.0200324 1.0445 0)
(0.00753579 1.00409 0)
(-0.026893 0.915496 0)
(-0.0519445 0.88011 0)
(-0.0684827 0.850543 0)
(-0.0790092 0.822056 0)
(-0.0853193 0.79843 0)
(-0.0879889 0.775573 0)
(-0.0874383 0.753278 0)
(-0.0843556 0.731893 0)
(-0.0792629 0.711919 0)
(-0.0726442 0.693405 0)
(-0.0650037 0.676297 0)
(-0.056792 0.660515 0)
(-0.0484443 0.645988 0)
(-0.0403423 0.632765 0)
(-0.0327673 0.621169 0)
(-0.0258925 0.612051 0)
(-0.0197178 0.607425 0)
(-0.0136557 0.611508 0)
(-0.00566895 0.629177 0)
(-0.09028 0.893582 0)
(-0.175827 0.882733 0)
(-0.210619 0.891676 0)
(-0.204288 1.03695 0)
(-0.124678 1.25237 0)
(-0.0236354 1.29758 0)
(0.0201764 1.13213 0)
(0.00745721 1.03104 0)
(0.00351552 1.03629 0)
(-0.00537943 1.07334 0)
(0.0027602 1.03986 0)
(-0.00207801 0.972851 0)
(-0.0232133 0.92158 0)
(-0.0396792 0.878074 0)
(-0.053328 0.839981 0)
(-0.0639203 0.808891 0)
(-0.0705097 0.780253 0)
(-0.07323 0.753694 0)
(-0.0727997 0.729176 0)
(-0.0699305 0.706875 0)
(-0.0651756 0.686723 0)
(-0.0590927 0.668562 0)
(-0.0522136 0.652248 0)
(-0.0449825 0.637665 0)
(-0.037788 0.624789 0)
(-0.0309276 0.613845 0)
(-0.0245952 0.60554 0)
(-0.0188077 0.601558 0)
(-0.0130215 0.605257 0)
(-0.00514448 0.619239 0)
(-0.0565792 1.00718 0)
(-0.070915 0.912579 0)
(-0.089438 0.961984 0)
(-0.102917 1.11043 0)
(-0.036702 1.24508 0)
(0.0775101 1.32128 0)
(0.114613 1.24817 0)
(0.0771593 1.17237 0)
(-0.000627127 1.14721 0)
(-0.0410448 1.13801 0)
(-0.0402604 1.08539 0)
(-0.0354253 1.01768 0)
(-0.0373012 0.957877 0)
(-0.041469 0.906277 0)
(-0.0482178 0.860733 0)
(-0.0549264 0.822664 0)
(-0.0599983 0.788058 0)
(-0.0627842 0.756724 0)
(-0.0631297 0.728609 0)
(-0.0613064 0.703636 0)
(-0.0576634 0.681543 0)
(-0.0526168 0.662119 0)
(-0.0466958 0.645104 0)
(-0.0403651 0.630304 0)
(-0.0339961 0.617618 0)
(-0.0278818 0.60717 0)
(-0.0222104 0.599532 0)
(-0.0169872 0.596072 0)
(-0.0117041 0.599335 0)
(-0.00437538 0.610085 0)
(0.0323124 1.04308 0)
(0.0345541 0.921261 0)
(0.0212535 1.02099 0)
(0.000105924 1.17158 0)
(0.0145662 1.3152 0)
(0.0741726 1.40707 0)
(0.109224 1.36387 0)
(0.066396 1.29298 0)
(-0.0113182 1.24646 0)
(-0.0658417 1.1983 0)
(-0.0864349 1.12367 0)
(-0.0861161 1.04751 0)
(-0.0762244 0.979352 0)
(-0.0660882 0.922545 0)
(-0.059991 0.874034 0)
(-0.0575282 0.832907 0)
(-0.0570361 0.794853 0)
(-0.0569708 0.759876 0)
(-0.0560114 0.728702 0)
(-0.0538257 0.701237 0)
(-0.0503603 0.677217 0)
(-0.04573 0.65651 0)
(-0.0403467 0.638796 0)