/*--------------------------------*- C++ -*----------------------------------*\
| =========                 |                                                 |
| \\      /  F ield         | OpenFOAM: The Open Source CFD Toolbox           |
|  \\    /   O peration     | Version:  v1606+                                |
|   \\  /    A nd           | Web:      www.OpenFOAM.com                      |
|    \\/     M anipulation  |                                                 |
\*---------------------------------------------------------------------------*/
FoamFile
{
    version     2.0;
    format      ascii;
    class       volScalarField;
    location    "0.2";
    object      alphat.air;
}
// * * * * * * * * * * * * * * * * * * * * * * * * * * * * * * * * * * * * * //

dimensions      [1 -1 -1 0 0 0 0];

internalField   nonuniform List<scalar> 
6000
(
0.00036605
0.00337957
0.00537923
0.00583261
0.00597247
0.00603324
0.0060646
0.00608394
0.00609589
0.00610192
0.00610394
0.00610569
0.00610788
0.00610929
0.00611115
0.00611066
0.00610875
0.00610694
0.00610573
0.00610451
0.00610091
0.00609431
0.00608241
0.00606361
0.00603261
0.00597188
0.00583273
0.00537942
0.00338016
0.00036585
0.00028307
0.00201049
0.00381735
0.00485109
0.00533199
0.00555204
0.00565707
0.00570637
0.00572722
0.00573445
0.00573529
0.00573401
0.00573236
0.00573075
0.00572934
0.00572961
0.00573089
0.00573283
0.00573483
0.00573634
0.00573642
0.00572982
0.00570862
0.00565889
0.00555364
0.00533328
0.0048523
0.00381841
0.00201183
0.000283355
0.000238016
0.00166923
0.00328148
0.00435799
0.00496961
0.00529784
0.00547416
0.00556855
0.00561708
0.00564027
0.00565004
0.00565348
0.00565402
0.00565369
0.00565321
0.00565358
0.00565428
0.0056551
0.00565471
0.00565158
0.00564269
0.00562
0.00557157
0.00547729
0.00530103
0.00497287
0.00436066
0.00328393
0.00167142
0.000238291
0.00021786
0.00160132
0.00309591
0.0041813
0.00487333
0.00528884
0.00553067
0.00566448
0.00573346
0.0057648
0.0057737
0.00577569
0.00577483
0.00577306
0.00577189
0.00577234
0.00577425
0.00577676
0.00577824
0.0057771
0.00576908
0.00573842
0.00567017
0.00553751
0.00529657
0.00488282
0.0041928
0.00310484
0.00160763
0.0002184
0.000221361
0.0016734
0.00312957
0.00419459
0.00492548
0.00540194
0.00570506
0.00588604
0.00598734
0.00603817
0.00605793
0.00606145
0.00605814
0.00605352
0.0060506
0.00605139
0.00605527
0.00606099
0.00606513
0.00606238
0.00604367
0.00599351
0.00589302
0.0057132
0.00541069
0.00493584
0.00420593
0.00314119
0.00168145
0.000222169
0.000221435
0.00167733
0.00307862
0.00410485
0.00483986
0.00536062
0.00571893
0.00596764
0.00613826
0.00625302
0.00632783
0.00636984
0.00639005
0.00639822
0.00640077
0.0064015
0.00639987
0.00639259
0.00637293
0.00633127
0.00625708
0.00614301
0.00597333
0.00572571
0.00536755
0.00484793
0.00411533
0.00309038
0.00168578
0.000222346
0.000213433
0.0016136
0.00292143
0.00388361
0.00460414
0.00515163
0.00554535
0.00582891
0.00603516
0.0061851
0.00629294
0.00636839
0.00641843
0.00644849
0.00646272
0.00646291
0.00644921
0.00641959
0.00637002
0.00629515
0.00618811
0.00603909
0.00583407
0.00555146
0.00515692
0.00460938
0.00389176
0.00293095
0.00162023
0.000214569
0.000201262
0.00152368
0.00274615
0.00365297
0.00434649
0.00488186
0.00528585
0.00559304
0.00582595
0.00600179
0.00613406
0.00623133
0.00629981
0.00634338
0.00636459
0.00636468
0.00634373
0.00630043
0.00623233
0.00613561
0.00600409
0.00582913
0.00559737
0.0052916
0.00488701
0.00434878
0.00365721
0.0027519
0.00152725
0.00020239
0.000192841
0.00144194
0.00258793
0.00344596
0.0041137
0.00463956
0.00505047
0.00536862
0.00561755
0.00581123
0.00595989
0.00607074
0.00614926
0.00619943
0.00622389
0.00622395
0.00619966
0.00614968
0.00607144
0.00596099
0.00581284
0.0056198
0.0053719
0.00505488
0.00464383
0.00411902
0.00344895
0.00259202
0.00144417
0.000193934
0.000186276
0.00136524
0.0024489
0.00326956
0.00391214
0.00442521
0.00483327
0.00515777
0.00541665
0.00562235
0.00578352
0.00590588
0.00599328
0.00604946
0.00607692
0.00607695
0.00604959
0.00599352
0.0059063
0.00578417
0.00562332
0.00541808
0.00515989
0.00483542
0.00442793
0.00391954
0.00327245
0.00245086
0.00136626
0.00018731
0.000180879
0.00129609
0.00232215
0.00310592
0.00372645
0.00423149
0.00463682
0.00496269
0.00522524
0.00543748
0.00560579
0.00573578
0.00583021
0.00589146
0.00592143
0.00592144
0.00589149
0.00583028
0.00573593
0.00560607
0.00543798
0.005226
0.0049637
0.00463737
0.00423218
0.00372761
0.00310292
0.00231889
0.00129473
0.00018172
0.000176681
0.001216
0.00217118
0.00292079
0.00353629
0.00404606
0.00445676
0.0047848
0.00504633
0.00525901
0.00542896
0.00556116
0.00565871
0.0057229
0.00575468
0.00575466
0.00572285
0.00565867
0.00556117
0.00542903
0.00525917
0.00504659
0.00478508
0.00445639
0.00404454
0.00353236
0.00291322
0.00216338
0.00121209
0.000177316
0.000171341
0.00111589
0.0019907
0.0027142
0.00334067
0.00386638
0.0042861
0.00461636
0.00487774
0.00508684
0.00525423
0.00538401
0.00548016
0.0055439
0.00557586
0.00557583
0.00554384
0.00548011
0.00538399
0.00525421
0.00508676
0.00487749
0.00461572
0.00428437
0.00386229
0.00333267
0.00270249
0.00197919
0.00111042
0.000171771
0.000163359
0.000957672
0.0017694
0.0024844
0.00313816
0.00368951
0.00412266
0.00445574
0.00471482
0.0049191
0.00508016
0.00520465
0.00529661
0.00535746
0.0053879
0.00538788
0.0053574
0.00529655
0.00520457
0.00507996
0.00491866
0.00471395
0.0044541
0.0041194
0.00368313
0.00312713
0.00246952
0.00175445
0.000946072
0.000163618
0.000153623
0.000784193
0.00152593
0.00224423
0.00293502
0.0035152
0.00396259
0.00429893
0.00455435
0.0047523
0.00490604
0.00502319
0.00510904
0.00516532
0.00519324
0.00519319
0.00516517
0.00510879
0.00502281
0.00490543
0.00475132
0.00455276
0.0042963
0.00395793
0.00350712
0.00292233
0.00222801
0.0015102
0.000771441
0.000153644
0.000143209
0.00062366
0.00127827
0.00201659
0.00274244
0.00334374
0.0038014
0.00414162
0.00439491
0.00458666
0.0047326
0.00484214
0.00492126
0.00497277
0.00499816
0.00499806
0.00497247
0.00492075
0.00484137
0.0047315
0.00458511
0.00439267
0.00413807
0.00379562
0.00333463
0.00272944
0.00200108
0.00126494
0.00061575
0.000143114
0.000131312
0.000458398
0.00106841
0.00182876
0.00257042
0.00317636
0.00363858
0.00398258
0.00423664
0.00442429
0.00456335
0.0046654
0.00473781
0.00478456
0.00480748
0.00480734
0.00478412
0.00473705
0.00466428
0.00456182
0.00442224
0.00423381
0.00397831
0.00363204
0.00316684
0.00255801
0.00181493
0.00105766
0.000454538
0.000131249
0.000118279
0.000337763
0.000932934
0.00169461
0.00242457
0.00302054
0.00348169
0.00382872
0.00408479
0.00427081
0.00440444
0.00449957
0.00456509
0.00460657
0.00462668
0.0046265
0.004606
0.00456411
0.00449816
0.00440257
0.00426832
0.00408143
0.00382399
0.00347491
0.00301133
0.00241324
0.00168251
0.000923277
0.000334798
0.000118259
0.000105954
0.000283132
0.000863352
0.00161983
0.00232388
0.00290844
0.003361
0.00370359
0.00395746
0.00414144
0.00427128
0.00436036
0.0044191
0.00445497
0.00447197
0.00447174
0.00445428
0.00441792
0.00435866
0.00426902
0.00413842
0.00395344
0.00369828
0.00335424
0.00290073
0.00231481
0.00160976
0.000853363
0.00027985
0.000105927
9.60282e-05
0.0002709
0.000863425
0.00161892
0.00229685
0.00285751
0.0032872
0.0036153
0.00386238
0.00404432
0.00417326
0.00426041
0.00431618
0.00434895
0.00436399
0.00436371
0.00434808
0.00431465
0.00425816
0.00417026
0.00404045
0.00385739
0.00360899
0.00327945
0.00284971
0.00229001
0.00161195
0.000854382
0.000267049
9.59313e-05
9.0281e-05
0.000305476
0.000951639
0.00169683
0.00233654
0.00285444
0.00324501
0.00354956
0.00378557
0.00396451
0.00409454
0.00418442
0.004243
0.0042777
0.0042936
0.00429324
0.00427656
0.00424101
0.00418152
0.00409069
0.00395962
0.00377934
0.00354152
0.00323479
0.00284349
0.0023308
0.00169297
0.000946821
0.000302064
9.00638e-05
8.62665e-05
0.000365789
0.00107733
0.00181195
0.00240883
0.00286592
0.00321562
0.00349371
0.00371681
0.00389171
0.00402268
0.0041161
0.00417898
0.00421729
0.00423516
0.00423472
0.00421594
0.00417666
0.00411272
0.00401818
0.00388595
0.00370938
0.00348387
0.00320344
0.00285176
0.00240116
0.00180829
0.00107478
0.000362895
8.60491e-05
8.55203e-05
0.000456729
0.00123071
0.0019355
0.00246971
0.00287042
0.00318287
0.00343529
0.0036498
0.00382354
0.00395672
0.004054
0.00412107
0.00416279
0.00418253
0.00418206
0.00416134
0.0041186
0.00405042
0.00395197
0.00381745
0.00364189
0.00342449
0.00316854
0.00285632
0.00246235
0.00193379
0.00123162
0.000455634
8.54011e-05
8.76203e-05
0.000637826
0.00144842
0.00204734
0.002511
0.00285613
0.00312954
0.00337112
0.00358648
0.00376267
0.00389915
0.00400026
0.00407098
0.0041155
0.00413676
0.00413628
0.00411404
0.0040685
0.00399671
0.00389447
0.00375677
0.00357908
0.00336122
0.00311504
0.00284075
0.00249768
0.00204154
0.00144861
0.000642303
8.7616e-05
9.47421e-05
0.00084319
0.00158767
0.00210389
0.0025076
0.00280524
0.00306056
0.0033113
0.00353167
0.00371142
0.0038514
0.00395591
0.0040295
0.00407608
0.00409842
0.00409796
0.0040747
0.00402717
0.0039526
0.00384707
0.00370606
0.0035252
0.00330327
0.00304937
0.00278787
0.00249064
0.00209474
0.00158279
0.000844401
9.49808e-05
0.000106345
0.000929344
0.0016346
0.00213419
0.00246051
0.00272572
0.0030014
0.00326194
0.0034874
0.00367105
0.00381431
0.00392148
0.00399709
0.00404496
0.00406794
0.00406754
0.00404375
0.00399507
0.00391862
0.00381059
0.00366645
0.00348191
0.00325516
0.00299189
0.0027099
0.00243942
0.00211565
0.0016235
0.000926086
0.00010649
0.000113239
0.000926515
0.00158972
0.00205145
0.00235046
0.00265408
0.00295229
0.00322362
0.0034559
0.00364461
0.00379115
0.00389989
0.00397586
0.00402363
0.00404651
0.00404619
0.00402268
0.00397428
0.00389769
0.0037883
0.00364107
0.00345159
0.00321812
0.00294452
0.00264212
0.00233264
0.00203525
0.00157158
0.000916981
0.000113124
0.000114541
0.000865258
0.00148951
0.00190578
0.00225486
0.00259547
0.0029151
0.00320099
0.00344336
0.0036384
0.00378689
0.00389444
0.00396799
0.00401357
0.00403525
0.00403503
0.00401294
0.00396698
0.0038931
0.00378522
0.00363631
0.00344067
0.00319719
0.00290924
0.00258613
0.00224046
0.00188415
0.00147222
0.00085482
0.000113993
0.000112453
0.000759754
0.00131699
0.00177226
0.00217512
0.00255104
0.00289742
0.00320324
0.00345956
0.00366158
0.00380731
0.00390814
0.00397509
0.00401579
0.00403492
0.0040348
0.00401548
0.00397467
0.00390774
0.00380712
0.00366141
0.00345931
0.00320191
0.00289412
0.00254485
0.00216425
0.00175597
0.00129711
0.000746206
0.00011178
0.000106815
0.000600383
0.00116535
0.00166436
0.00211508
0.00253261
0.00291385
0.0032428
0.00350362
0.00370334
0.00384589
0.00394002
0.00399608
0.00402942
0.00404485
0.0040448
0.00402934
0.00399611
0.0039403
0.00384594
0.00370336
0.00350388
0.00324409
0.00291464
0.00253012
0.00210869
0.0016535
0.00115177
0.000589561
0.000106062
0.00010023
0.000483025
0.0010504
0.00159035
0.00209291
0.00256074
0.0029697
0.00330722
0.0035799
0.00378237
0.0039031
0.00397644
0.00402498
0.00405011
0.00406149
0.00406145
0.00405009
0.00402518
0.00397697
0.00390484
0.0037852
0.0035846
0.00331138
0.00297166
0.00256376
0.00209208
0.00158559
0.00104278
0.000476438
9.95363e-05
9.28355e-05
0.000412175
0.000987894
0.00157477
0.00213628
0.00263491
0.0030719
0.00343702
0.00369891
0.00386901
0.00396753
0.00402274
0.00405209
0.00407063
0.0040785
0.00407843
0.00407051
0.00405215
0.00402343
0.00396925
0.00387243
0.00370469
0.00344482
0.00308011
0.00264021
0.00214287
0.00157836
0.000987315
0.00041044
9.22612e-05
8.64528e-05
0.000401275
0.00101134
0.00164641
0.00223635
0.0027843
0.00324371
0.00356444
0.00377972
0.00391973
0.00400949
0.00405064
0.00407083
0.00408513
0.00409133
0.00409121
0.00408487
0.00407069
0.00405094
0.00401111
0.00392349
0.00378489
0.00357303
0.00325635
0.00279911
0.00224746
0.00165384
0.00101917
0.000405764
8.61021e-05
8.26055e-05
0.000453612
0.00110345
0.00177993
0.00243971
0.00299402
0.00337865
0.00363753
0.00382259
0.00394337
0.00401851
0.0040532
0.00407914
0.00409266
0.00409936
0.00409924
0.00409235
0.00407873
0.00405297
0.00401896
0.0039461
0.00382736
0.00364538
0.00339094
0.00301094
0.00246084
0.00179807
0.00111408
0.000459478
8.25397e-05
8.23605e-05
0.000523427
0.00127089
0.00204165
0.00268449
0.00313777
0.00345152
0.00367678
0.00384566
0.00394487
0.00400565
0.00404368
0.00407453
0.00409446
0.00410405
0.00410401
0.00409435
0.00407432
0.00404322
0.00400493
0.00394609
0.00384949
0.00368547
0.00346371
0.00315466
0.00270593
0.00206891
0.00129285
0.000532597
8.24669e-05
8.46684e-05
0.000680897
0.0015649
0.00231391
0.00285172
0.00321859
0.00349393
0.00371117
0.00384286
0.0039229
0.00397347
0.00402538
0.00406709
0.00409408
0.00410714
0.00410725
0.00409443
0.0040676
0.00402593
0.00397364
0.00392405
0.00384543
0.00372038
0.00350571
0.00323382
0.00287077
0.00233755
0.00159156
0.000698233
8.50759e-05
9.21376e-05
0.000886045
0.00180692
0.00249006
0.00294241
0.00327191
0.00353444
0.00370754
0.00380403
0.00387388
0.0039433
0.00400923
0.00406007
0.00409319
0.00410947
0.0041098
0.00409417
0.00406161
0.00401113
0.00394503
0.00387384
0.00380516
0.00370897
0.00354336
0.00328373
0.00295741
0.00250775
0.0018262
0.000901012
9.30241e-05
0.000103615
0.00103133
0.00195704
0.00257618
0.00298708
0.00330899
0.00352254
0.00364486
0.00373549
0.00382823
0.00391898
0.00399614
0.0040542
0.00409225
0.00411124
0.00411185
0.00409404
0.00405703
0.00399973
0.00392276
0.00383113
0.00373627
0.00364328
0.00351906
0.00331607
0.00299813
0.00258787
0.00196963
0.0010428
0.000104615
0.000114857
0.00109186
0.00200602
0.00259166
0.00299275
0.00326297
0.00343443
0.00355158
0.00367303
0.0037943
0.00390058
0.00398635
0.00404995
0.00409173
0.0041128
0.00411377
0.00409459
0.00405449
0.0039922
0.00390703
0.00380031
0.00367733
0.00355244
0.00343468
0.00326303
0.00300068
0.00260033
0.00201213
0.0010973
0.000115888
0.000122284
0.00109273
0.00196135
0.0025478
0.00290666
0.00315539
0.00331377
0.0034735
0.00363122
0.00377256
0.00389034
0.00398216
0.00404898
0.00409276
0.00411498
0.00411637
0.00409689
0.00405567
0.00399099
0.00390046
0.00378255
0.00363929
0.00347745
0.00331025
0.00315011
0.00290421
0.0025501
0.00196362
0.00109473
0.00012308
0.000124824
0.00106366
0.00187543
0.00241463
0.00276147
0.00299089
0.00321565
0.00342267
0.003609
0.00376715
0.00389179
0.00398548
0.00405238
0.00409589
0.00411807
0.00411991
0.00410141
0.00406155
0.00399804
0.00390691
0.00378284
0.00362263
0.00343181
0.00321944
0.0029891
0.00275513
0.00241468
0.00187639
0.00106434
0.000125356
0.000124059
0.000987466
0.00174318
0.00222877
0.00256966
0.00287797
0.00315344
0.00340178
0.00361436
0.00378234
0.00390738
0.00399698
0.00406006
0.00410088
0.0041218
0.004124
0.00410761
0.00407157
0.00401343
0.0039287
0.0038056
0.00363659
0.00341841
0.00316395
0.00288262
0.00256973
0.00222145
0.00173824
0.000984382
0.000124429
0.000120211
0.000834667
0.00149911
0.00201539
0.00243449
0.00280224
0.00313241
0.00342115
0.0036465
0.00381192
0.00393211
0.00401385
0.00407019
0.00410658
0.00412537
0.00412774
0.00411393
0.00408292
0.00403243
0.00395328
0.00383768
0.00367111
0.00344652
0.00315165
0.00281243
0.00243607
0.00200923
0.00148973
0.000828952
0.000120342
0.000111161
0.000654484
0.00129254
0.00185533
0.00234379
0.00278164
0.00316717
0.00347094
0.00370357
0.00385883
0.00396029
0.00403075
0.00407928
0.0041108
0.0041273
0.0041296
0.00411789
0.00409164
0.00404946
0.00398786
0.00389279
0.00374201
0.00350575
0.0031947
0.00280199
0.00235128
0.00185193
0.0012836
0.000646827
0.000110937
0.000101006
0.000503227
0.00114812
0.00176596
0.00233184
0.00283415
0.00324199
0.00356626
0.00377595
0.00390132
0.00398475
0.0040406
0.00408275
0.00411057
0.0041252
0.00412707
0.00411624
0.0040927
0.00405665
0.00400667
0.0039261
0.00380772
0.0036066
0.0032798
0.00286179
0.00235201
0.00177198
0.00114355
0.000495534
0.000100547
9.16332e-05
0.000433374
0.00110475
0.00179068
0.00241221
0.00294164
0.00336729
0.00363515
0.00380496
0.00391777
0.00398826
0.0040395
0.00407738
0.00410397
0.00411804
0.00411934
0.00410778
0.00408406
0.00404901
0.0040024
0.00393479
0.0038289
0.00366672
0.00340601
0.00298604
0.00244238
0.00181368
0.00111593
0.000433098
9.10974e-05
8.54889e-05
0.000473699
0.00119641
0.0019126
0.00257165
0.0031013
0.00344148
0.00365352
0.00380374
0.00390503
0.00397047
0.00402238
0.00406307
0.00409175
0.00410664
0.00410742
0.0040939
0.00406644
0.00402672
0.00397765
0.0039171
0.00382541
0.00367873
0.00346867
0.00313486
0.00261621
0.00194468
0.00121555
0.000484338
8.53148e-05
8.4314e-05
0.00055126
0.00134378
0.00213853
0.00276657
0.00318584
0.00346036
0.00365371
0.00378307
0.00387081
0.00393576
0.0039962
0.00404386
0.00407619
0.00409251
0.00409287
0.00407715
0.00404536
0.00399833
0.00393954
0.00387879
0.00379727
0.00367354
0.00348299
0.00320839
0.00279754
0.00218356
0.0013812
0.00056639
8.46423e-05
8.63389e-05
0.0007065
0.00162763
0.00236954
0.0028727
0.0032095
0.00346055
0.00362816
0.00374014
0.00381881
0.00389953
0.00396981
0.00402349
0.00405917
0.00407688
0.0040769
0.00405922
0.00402364
0.00397029
0.0039012
0.00382274
0.00374777
0.00364148
0.00348039
0.00322869
0.00289459
0.00239876
0.00166987
0.00073861
8.71893e-05
9.41359e-05
0.000923837
0.00184416
0.0024857
0.00290234
0.00321541
0.00342923
0.0035719
0.00367047
0.00377333
0.00386761
0.00394537
0.00400353
0.00404183
0.00406071
0.00406051
0.00404128
0.00400273
0.00394457
0.00386739
0.00377425
0.00367242
0.00357766
0.00344183
0.00323297
0.0029191
0.00250236
0.0018656
0.000944538
9.59108e-05
0.000107127
0.00103715
0.00193032
0.00250517
0.00290813
0.00317756
0.00335602
0.00347946
0.00361358
0.00373672
0.00384098
0.00392382
0.003985
0.00402512
0.00404485
0.0040446
0.00402439
0.00398386
0.00392244
0.00383962
0.00373563
0.00361293
0.00347995
0.00335826
0.00318118
0.002918
0.00251387
0.00193853
0.00104487
0.000108623
0.000117477
0.00106055
0.00191362
0.00248592
0.00283381
0.00307608
0.00323944
0.00341381
0.00357473
0.00371099
0.00382113
0.00390655
0.00396905
0.00400998
0.00403015
0.00403001
0.00400955
0.00396834
0.00390552
0.00381967
0.00370896
0.00357222
0.00341153
0.00323689
0.0030703
0.00282915
0.00248486
0.00190972
0.00106119
0.000118011
0.000121254
0.00103251
0.00183807
0.00236655
0.00270112
0.00293442
0.00316642
0.00337646
0.00355579
0.00369901
0.00381019
0.00389499
0.00395676
0.00399723
0.00401731
0.00401745
0.00399762
0.00395733
0.00389548
0.00381
0.00369723
0.00355175
0.00337128
0.00316123
0.00292885
0.00269058
0.00236166
0.00183306
0.00103335
0.000121419
0.000120764
0.000970608
0.00171346
0.00218806
0.00253458
0.00284887
0.00312852
0.00337159
0.0035601
0.0037016
0.00380802
0.00388886
0.00394798
0.00398694
0.00400652
0.00400708
0.00398867
0.00395078
0.00389242
0.00381129
0.00370276
0.00355595
0.00336208
0.00311872
0.00283933
0.00252494
0.00217454
0.00170399
0.000965525
0.000120936
0.00011744
0.00083194
0.00147835
0.00199002
0.00242301
0.0028034
0.00313542
0.00339311
0.00357791
0.00371182
0.0038104
0.00388557
0.00394114
0.00397821
0.00399719
0.0039983
0.00398171
0.00394706
0.00389383
0.00382003
0.00371807
0.0035771
0.00338276
0.00311894
0.00278645
0.00240602
0.00197344
0.00146135
0.000819934
0.000117432
0.000108842
0.000632433
0.00127402
0.00185658
0.00237188
0.00282354
0.00317989
0.00344318
0.00360839
0.00372309
0.00381105
0.00388107
0.00393382
0.00396968
0.00398845
0.00399014
0.00397512
0.00394338
0.00389502
0.00382882
0.00374284
0.00362207
0.00344006
0.00316212
0.00279826
0.00234534
0.00183334
0.00125628
0.000620388
0.000108532
9.70759e-05
0.000474577
0.00115647
0.00182286
0.00241442
0.00289087
0.00325749
0.00347848
0.00361929
0.0037216
0.00380352
0.00387129
0.00392418
0.00396055
0.00397978
0.00398192
0.00396751
0.00393697
0.00389152
0.00383216
0.00375704
0.00365485
0.00350656
0.00325612
0.00286942
0.00238128
0.00178833
0.00113229
0.000465841
9.72929e-05
8.84243e-05
0.00045838
0.00119208
0.00190272
0.00251867
0.00299798
0.00329326
0.00347419
0.00360204
0.00369833
0.00378481
0.00385721
0.00391291
0.00395106
0.00397127
0.0039736
0.00395858
0.00392667
0.00387912
0.00381751
0.00374426
0.00365785
0.00352591
0.0033255
0.00299884
0.00248856
0.00186315
0.00115568
0.000439765
8.85221e-05
8.58603e-05
0.000525059
0.00130656
0.00207385
0.0026641
0.00304407
0.00328607
0.00344809
0.00356283
0.00366403
0.00376063
0.00384132
0.00390262
0.00394351
0.00396461
0.00396685
0.00395072
0.00391614
0.00386341
0.00379421
0.00371296
0.00362334
0.00351328
0.00333768
0.00307562
0.00266512
0.00203376
0.00126515
0.000503725
8.51459e-05
8.71151e-05
0.000651815
0.00154777
0.00225749
0.00273075
0.00304391
0.00325309
0.0033962
0.0035072
0.003629
0.00373809
0.00382599
0.0038913
0.0039348
0.00395745
0.00395989
0.00394244
0.00390503
0.00384715
0.00376896
0.00367204
0.00356979
0.00346423
0.00332668
0.00309689
0.00276686
0.00226387
0.00150711
0.000615419
8.58644e-05
9.37699e-05
0.0008728
0.00174616
0.00234537
0.002738
0.00300744
0.00318404
0.00331729
0.00346309
0.00360168
0.00372012
0.00381339
0.00388222
0.00392779
0.00395135
0.00395367
0.00393503
0.00389517
0.00383329
0.00374834
0.0036411
0.0035177
0.00339357
0.00326531
0.00309628
0.00279346
0.00238268
0.00174816
0.000841268
9.1482e-05
0.000107123
0.000981861
0.00180675
0.00234915
0.00269109
0.00292027
0.00308364
0.00326144
0.00343226
0.00358343
0.00370836
0.00380609
0.00387694
0.00392347
0.0039473
0.00394933
0.00392987
0.00388856
0.00382383
0.00373415
0.00361932
0.00348105
0.00332642
0.00317123
0.00301008
0.00279034
0.00240172
0.00184819
0.000993976
0.000104254
0.000116428
0.000992673
0.00174433
0.00224102
0.00256929
0.00278906
0.00301439
0.00322648
0.00341741
0.00357955
0.00370862
0.00380626
0.00387716
0.00392325
0.00394645
0.00394801
0.00392824
0.00388647
0.00382138
0.00373047
0.00361043
0.00346007
0.00328338
0.00308887
0.00288822
0.00266899
0.00235864
0.00182262
0.00102754
0.000116427
0.000117993
0.000936521
0.00162771
0.00208933
0.00240469
0.00270099
0.00297127
0.00321492
0.00342447
0.00359052
0.00371954
0.00381611
0.00388442
0.00392818
0.00394973
0.00395046
0.00393072
0.00388984
0.00382611
0.00373667
0.00361704
0.00346041
0.00326308
0.00303513
0.00278472
0.00252234
0.00222006
0.00172189
0.000983117
0.000120358
0.000115603
0.000823763
0.00143764
0.00190617
0.00229634
0.00264528
0.00296036
0.00323566
0.0034538
0.00362493
0.00375036
0.00384025
0.00390186
0.00394036
0.0039586
0.00395818
0.00393937
0.00390153
0.00384277
0.0037592
0.00364303
0.00348264
0.00327521
0.00301233
0.00271213
0.00238284
0.00201157
0.00157374
0.000903105
0.000119322
0.000108502
0.000642886
0.00124624
0.00176982
0.00222441
0.00263281
0.00299441
0.00328775
0.00352509
0.00369207
0.00380322
0.00387742
0.00392684
0.00395725
0.00397105
0.00396973
0.00395336
0.0039214
0.00387199
0.00380072
0.00369756
0.00354286
0.00331966
0.00303658
0.00268293
0.00228583
0.00184253
0.00132944
0.000731746
0.000113984
9.91011e-05
0.000502219
0.00111536
0.001693
0.00221647
0.00268071
0.00307073
0.00340005
0.00363358
0.00377269
0.00385961
0.00391546
0.00395205
0.00397445
0.00398393
0.00398137
0.00396663
0.00393958
0.00389948
0.00384336
0.00376134
0.00363323
0.00341816
0.00310478
0.00272331
0.00225661
0.0017361
0.00116079
0.000539782
0.000103379
9.02059e-05
0.000437067
0.0010771
0.00171519
0.00228799
0.00278948
0.00322258
0.00353487
0.00373009
0.00383952
0.00390355
0.00394365
0.00397072
0.00398751
0.0039939
0.0039901
0.00397572
0.00395104
0.00391664
0.00387144
0.00380778
0.00370365
0.00352779
0.00323941
0.00281994
0.00232113
0.00173345
0.00108588
0.000437936
9.32986e-05
8.44615e-05
0.00047274
0.00115663
0.00182126
0.00244314
0.00298719
0.0033749
0.00361988
0.00377764
0.00387154
0.0039192
0.00395271
0.00397772
0.00399367
0.00399934
0.00399465
0.00397906
0.00395269
0.0039163
0.00387132
0.0038174
0.00373097
0.00358519
0.00335732
0.00299412
0.00246116
0.00183637
0.0011526
0.000455189
8.6161e-05
8.3367e-05
0.000537205
0.00128635
0.00204103
0.00268964
0.00315628
0.00345309
0.00365304
0.0037849
0.0038593
0.00390427
0.00394396
0.0039745
0.00399376
0.0040008
0.00399568
0.00397794
0.00394728
0.00390371
0.00384846
0.00378868
0.00371991
0.00359817
0.00340552
0.00311868
0.00268294
0.00204417
0.00127896
0.000523478
8.41143e-05
8.54147e-05
0.000674089
0.00155157
0.00231604
0.00286893
0.0032305
0.00348058
0.00365718
0.00375654
0.00381703
0.00387411
0.00392646
0.00396558
0.00398987
0.00399929
0.00399409
0.00397401
0.00393852
0.00388717
0.00382135
0.0037456
0.00367098
0.00357803
0.00341237
0.00316252
0.00281882
0.00230408
0.00154557
0.000655584
8.5703e-05
9.29503e-05
0.000870974
0.00179816
0.00249385
0.00294502
0.00325448
0.00348765
0.00361648
0.003703
0.00377
0.00384382
0.00390686
0.00395404
0.00398343
0.00399547
0.00399044
0.0039682
0.00392822
0.00386965
0.00379247
0.00369738
0.00360126
0.00350856
0.00338733
0.00317442
0.00286638
0.0024443
0.00178721
0.000875044
9.28962e-05
0.000105062
0.00100685
0.00194236
0.00256647
0.00295999
0.00325704
0.00342493
0.00354012
0.00362388
0.00372334
0.00381512
0.00388858
0.00394142
0.00397536
0.00399001
0.00398547
0.00396167
0.00391817
0.00385463
0.00376758
0.00366007
0.00353812
0.00341588
0.00329271
0.00313468
0.00287488
0.00248797
0.00190693
0.00101543
0.000105318
0.000116811
0.00107734
0.00198214
0.00255992
0.00293972
0.00316243
0.00331905
0.00343212
0.00356409
0.00368557
0.00378887
0.00387161
0.00393111
0.00396799
0.00398425
0.00398041
0.00395617
0.00391068
0.0038417
0.00374925
0.00363245
0.00349302
0.00333715
0.00317841
0.00301937
0.00279184
0.0024597
0.00190968
0.00106076
0.00011695
0.000125186
0.00107479
0.00191654
0.00247897
0.00279623
0.00301693
0.00318563
0.00336216
0.00352256
0.00366106
0.00377272
0.00385846
0.00392054
0.00396057
0.00397885
0.00397582
0.00395153
0.00390555
0.003837
0.00374321
0.00362037
0.00346637
0.00328466
0.00308358
0.00286894
0.00265272
0.00232318
0.00181666
0.0010357
0.000123002
0.000127561
0.0010403
0.00181541
0.00232246
0.00262913
0.00287439
0.00310665
0.00331894
0.00350441
0.00365489
0.00376985
0.00385564
0.00391701
0.00395627
0.0039747
0.00397287
0.00395084
0.00390798
0.00384308
0.00375277
0.00363012
0.0034669
0.00326137
0.00302266
0.00275942
0.00246611
0.00215337
0.00168966
0.000979735
0.000123177
0.000126248
0.000952386
0.00165367
0.00210353
0.00246094
0.00277401
0.00305761
0.00331076
0.00351541
0.00366925
0.00378159
0.00386209
0.0039194
0.00395643
0.00397425
0.0039734
0.00395409
0.00391582
0.00385594
0.00377033
0.00365364
0.00349109
0.00327811
0.00300289
0.002689
0.00234264
0.00195247
0.00146949
0.000841158
0.000120067
0.000120464
0.000782594
0.0013949
0.00190814
0.00233603
0.0027164
0.00305883
0.00333602
0.00354769
0.00369752
0.00379899
0.00387387
0.00392587
0.00395957
0.00397629
0.00397625
0.00395974
0.00392575
0.00387442
0.00380452
0.00370445
0.00355429
0.00332934
0.00303748
0.00267152
0.00225946
0.00180146
0.00126889
0.000656005
0.000111231
0.00010893
0.000593853
0.0012115
0.00177372
0.00227563
0.00273154
0.00310785
0.00340904
0.0036126
0.00374027
0.00382524
0.00388593
0.00393256
0.00396395
0.00397982
0.00398039
0.00396554
0.00393673
0.00389566
0.00383826
0.00375744
0.00363376
0.00343102
0.00311614
0.00272428
0.00225068
0.00171819
0.00113211
0.000510388
0.000100279
9.73794e-05
0.000467879
0.0011082
0.00173428
0.00231616
0.00280782
0.0032163
0.00349113
0.00365917
0.00376782
0.00383998
0.00389458
0.00393633
0.0039669
0.0039832
0.00398393
0.0039701
0.00394341
0.00390412
0.00385384
0.00378755
0.00368078
0.00351174
0.0032478
0.00283575
0.00233233
0.00174463
0.00109702
0.000447633
9.05334e-05
8.86172e-05
0.000459645
0.00114352
0.00182851
0.00242788
0.00294938
0.00330135
0.00351989
0.00366864
0.00376109
0.00383099
0.00389061
0.00393847
0.00397165
0.00398926
0.00399074
0.00397616
0.00394568
0.00390011
0.00384329
0.00377755
0.00368682
0.00353626
0.00332383
0.00299152
0.00248477
0.00186472
0.00118683
0.000492216
8.46915e-05
8.53276e-05
0.000530993
0.00126305
0.00198183
0.00261092
0.00304293
0.00332082
0.00351801
0.00364154
0.00372931
0.00380957
0.00388209
0.00394023
0.00398006
0.00400088
0.00400241
0.00398435
0.00394649
0.00389082
0.00381975
0.00374131
0.00365763
0.00354017
0.00334071
0.00306564
0.00266389
0.00206954
0.00132655
0.000564311
8.40462e-05
8.62779e-05
0.000637474
0.00147743
0.00221246
0.00272021
0.00306309
0.00331242
0.00347871
0.00358962
0.00368496
0.00378545
0.00387335
0.00394229
0.00398955
0.00401411
0.00401542
0.00399331
0.00394813
0.00388116
0.00379471
0.00369474
0.00359957
0.0034899
0.00333319
0.00308362
0.00275285
0.00227623
0.00157835
0.000718229
8.68347e-05
9.23668e-05
0.000832536
0.00169602
0.00233142
0.00274607
0.00306001
0.00326216
0.00340176
0.00351013
0.00364161
0.00376314
0.00386622
0.00394662
0.0040021
0.00403089
0.00403198
0.00400527
0.00395162
0.00387275
0.00377073
0.00364968
0.00351769
0.00340869
0.00327474
0.00308501
0.00277289
0.00236802
0.00174967
0.000886721
9.5895e-05
0.000103772
0.000953932
0.00178979
0.00234771
0.00274404
0.0029877
0.00315958
0.00328901
0.00344692
0.00360306
0.00374477
0.00386363
0.00395634
0.0040204
0.00405357
0.00405446
0.004023
0.00396046
0.00386904
0.00375123
0.00361046
0.0034537
0.00329425
0.00316437
0.00299309
0.00275897
0.00237228
0.00181467
0.000976321
0.000106892
0.000113737
0.000984576
0.00177643
0.00231328
0.00262999
0.00285969
0.00301879
0.00320667
0.00339558
0.00357648
0.00373783
0.00387114
0.00397562
0.00404774
0.00408492
0.00408564
0.00404985
0.00397898
0.00387547
0.00374247
0.00358185
0.00340125
0.00321126
0.00302045
0.00285649
0.0026289
0.00231521
0.00178129
0.000991188
0.00011543
0.000117459
0.000959149
0.0016861
0.00217008
0.00248083
0.0026947
0.00292135
0.00314404
0.00336406
0.00356828
0.00374659
0.00389377
0.00400768
0.00408542
0.00412512
0.00412573
0.00408722
0.0040106
0.00389768
0.00375125
0.00357338
0.00336922
0.00314842
0.00292374
0.00269512
0.00247534
0.00216927
0.0016877
0.000959761
0.000118057
0.000116987
0.00090149
0.00156181
0.0019856
0.00229202
0.00257775
0.00284669
0.00310971
0.00336146
0.00358818
0.00377623
0.00393168
0.00404829
0.00412615
0.00416536
0.00416591
0.00412775
0.004051
0.00393554
0.00378152
0.00359341
0.0033666
0.00311421
0.00284927
0.0025774
0.00228822
0.00197477
0.00155563
0.000897674
0.000117311
0.000113418
0.000772016
0.00133395
0.00177223
0.00215004
0.00248892
0.00280894