/*--------------------------------*- C++ -*----------------------------------*\
| =========                 |                                                 |
| \\      /  F ield         | OpenFOAM: The Open Source CFD Toolbox           |
|  \\    /   O peration     | Version:  v1606+                                |
|   \\  /    A nd           | Web:      www.OpenFOAM.com                      |
|    \\/     M anipulation  |                                                 |
\*---------------------------------------------------------------------------*/
FoamFile
{
    version     2.0;
    format      ascii;
    class       volVectorField;
    location    "0.2";
    object      U.air;
}
// * * * * * * * * * * * * * * * * * * * * * * * * * * * * * * * * * * * * * //

dimensions      [0 1 -1 0 0 0 0];

internalField   nonuniform List<vector> 
6000
(
(-0.0230319 0.273881 0)
(-0.0225624 0.243836 0)
(-0.0338124 0.249916 0)
(-0.0500401 0.244586 0)
(-0.0584793 0.245864 0)
(-0.0659818 0.246712 0)
(-0.070074 0.247032 0)
(-0.0725856 0.247452 0)
(-0.0731427 0.248223 0)
(-0.071134 0.246365 0)
(-0.0639067 0.243866 0)
(-0.0516497 0.24239 0)
(-0.0374535 0.241093 0)
(-0.0219295 0.24034 0)
(-0.00699083 0.242585 0)
(0.00749842 0.241624 0)
(0.0231021 0.240614 0)
(0.0387796 0.241023 0)
(0.0534176 0.242469 0)
(0.064097 0.244523 0)
(0.0704222 0.245698 0)
(0.0732589 0.246732 0)
(0.0733482 0.246619 0)
(0.0714416 0.246898 0)
(0.0672355 0.24671 0)
(0.0596706 0.246614 0)
(0.0513895 0.24551 0)
(0.0358044 0.25126 0)
(0.0230086 0.245684 0)
(0.0223972 0.273126 0)
(-0.0148676 1.05859 0)
(-0.0424576 1.05409 0)
(-0.0484135 1.06454 0)
(-0.0695079 1.05444 0)
(-0.079122 1.04494 0)
(-0.0873996 1.03541 0)
(-0.0939566 1.02792 0)
(-0.0976965 1.02018 0)
(-0.0954334 1.01226 0)
(-0.0878644 1.00507 0)
(-0.0761488 0.99682 0)
(-0.0613607 0.991898 0)
(-0.0449476 0.990302 0)
(-0.0277729 0.988588 0)
(-0.00907558 0.988225 0)
(0.0105639 0.987689 0)
(0.0290683 0.988732 0)
(0.0463328 0.989276 0)
(0.0627253 0.992323 0)
(0.0780267 0.998526 0)
(0.0899764 1.00529 0)
(0.0968029 1.01286 0)
(0.0981627 1.02078 0)
(0.0946469 1.02804 0)
(0.0884503 1.03618 0)
(0.0805049 1.04479 0)
(0.0718772 1.05352 0)
(0.0520855 1.06365 0)
(0.0463972 1.05702 0)
(0.0170026 1.06062 0)
(-0.0268248 0.983864 0)
(-0.0455792 0.921398 0)
(-0.0524624 0.940923 0)
(-0.0683399 0.924832 0)
(-0.0712074 0.907948 0)
(-0.0775575 0.894785 0)
(-0.0825726 0.880229 0)
(-0.0853408 0.861786 0)
(-0.0839306 0.842447 0)
(-0.078348 0.823802 0)
(-0.0674275 0.806324 0)
(-0.053909 0.796803 0)
(-0.0396742 0.791516 0)
(-0.0243325 0.788079 0)
(-0.00781559 0.78667 0)
(0.00908632 0.786521 0)
(0.02541 0.787909 0)
(0.0406068 0.791178 0)
(0.0546206 0.796902 0)
(0.0688434 0.806914 0)
(0.0799112 0.824319 0)
(0.0851401 0.843204 0)
(0.0863002 0.862339 0)
(0.0836547 0.880282 0)
(0.079231 0.895399 0)
(0.0735413 0.908171 0)
(0.0711683 0.924779 0)
(0.0552449 0.94172 0)
(0.0477129 0.926396 0)
(0.027847 0.988887 0)
(0.00980946 1.04067 0)
(-0.00397945 0.984989 0)
(-0.0446668 1.00608 0)
(-0.0768784 0.986067 0)
(-0.0820179 0.98189 0)
(-0.0944723 0.987032 0)
(-0.103467 0.988862 0)
(-0.106973 0.98359 0)
(-0.104159 0.974278 0)
(-0.0973069 0.961715 0)
(-0.0818397 0.940982 0)
(-0.0621445 0.928053 0)
(-0.0452134 0.916985 0)
(-0.0279532 0.908467 0)
(-0.00904695 0.903699 0)
(0.0105129 0.903849 0)
(0.0291382 0.908599 0)
(0.0462287 0.917199 0)
(0.0630637 0.928404 0)
(0.0831558 0.941522 0)
(0.0983577 0.962208 0)
(0.105057 0.974387 0)
(0.10843 0.983105 0)
(0.104755 0.987892 0)
(0.0963719 0.98532 0)
(0.0850793 0.979459 0)
(0.0794033 0.982967 0)
(0.0470009 1.00322 0)
(0.00589338 0.986647 0)
(-0.00936737 1.04349 0)
(-0.00195378 0.888609 0)
(-0.0495252 0.878292 0)
(-0.0776237 0.932205 0)
(-0.0763422 0.867245 0)
(-0.0477229 0.854808 0)
(-0.0399368 0.846011 0)
(-0.052705 0.837176 0)
(-0.0557496 0.831593 0)
(-0.0565841 0.83134 0)
(-0.057811 0.834173 0)
(-0.062641 0.831064 0)
(-0.0622912 0.845365 0)
(-0.0493278 0.854777 0)
(-0.0314699 0.857849 0)
(-0.0101785 0.857791 0)
(0.0121669 0.858052 0)
(0.0325836 0.857299 0)
(0.0500516 0.854268 0)
(0.0621951 0.844461 0)
(0.0627308 0.83039 0)
(0.0580314 0.834048 0)
(0.0568442 0.830397 0)
(0.0566553 0.830306 0)
(0.0537232 0.83666 0)
(0.0415702 0.843842 0)
(0.0507837 0.853853 0)
(0.0805626 0.867361 0)
(0.0830444 0.931942 0)
(0.054437 0.88259 0)
(0.00360969 0.892623 0)
(-0.0523349 0.930394 0)
(-0.150102 0.89581 0)
(-0.148758 0.874115 0)
(-0.103941 0.801508 0)
(-0.051826 0.788264 0)
(-0.0147234 0.893845 0)
(0.00303395 0.885671 0)
(0.00710452 0.871833 0)
(0.00259287 0.85589 0)
(-0.00372986 0.838016 0)
(-0.0148446 0.81745 0)
(-0.0223511 0.782493 0)
(-0.0201777 0.764009 0)
(-0.0131716 0.754157 0)
(-0.00414439 0.747397 0)
(0.00508196 0.749285 0)
(0.0137153 0.754103 0)
(0.0203625 0.765374 0)
(0.0220738 0.783377 0)
(0.0144407 0.817558 0)
(0.0037187 0.839168 0)
(-0.00214506 0.85581 0)
(-0.00614285 0.870983 0)
(-0.00136242 0.885102 0)
(0.0179089 0.890079 0)
(0.0548766 0.784709 0)
(0.108558 0.796422 0)
(0.156528 0.870021 0)
(0.158775 0.900889 0)
(0.0565073 0.939165 0)
(-0.0621568 0.910391 0)
(-0.166845 0.798391 0)
(-0.167599 0.695741 0)
(-0.123065 0.611234 0)
(-0.071164 0.595029 0)
(-0.00420128 0.632953 0)
(0.0577077 0.657276 0)
(0.0832427 0.683686 0)
(0.0886601 0.702272 0)
(0.086234 0.717791 0)
(0.0788385 0.728551 0)
(0.0644589 0.73333 0)
(0.044853 0.735197 0)
(0.0262129 0.733497 0)
(0.00818824 0.73142 0)
(-0.00960999 0.732316 0)
(-0.0272625 0.733394 0)
(-0.0459256 0.7354 0)
(-0.0651219 0.732742 0)
(-0.079424 0.727336 0)
(-0.0862777 0.716566 0)
(-0.0876768 0.700135 0)
(-0.081443 0.680779 0)
(-0.0540088 0.654317 0)
(0.0111112 0.628524 0)
(0.0740006 0.596155 0)
(0.123612 0.604179 0)
(0.171811 0.690381 0)
(0.172101 0.803237 0)
(0.0649586 0.924101 0)
(-0.0507647 0.973986 0)
(-0.148071 0.830632 0)
(-0.153407 0.663872 0)
(-0.116942 0.553283 0)
(-0.0630981 0.52579 0)
(0.00149994 0.558179 0)
(0.0608124 0.592015 0)
(0.0926982 0.622444 0)
(0.100385 0.631162 0)
(0.0987894 0.633264 0)
(0.0928729 0.633235 0)
(0.0802365 0.628445 0)
(0.0612928 0.625444 0)
(0.0382922 0.623776 0)
(0.0122873 0.622774 0)
(-0.0144143 0.623057 0)
(-0.0399993 0.623696 0)
(-0.0627359 0.625441 0)
(-0.0812325 0.628265 0)
(-0.0936659 0.632615 0)
(-0.0991399 0.632226 0)
(-0.0997318 0.629015 0)
(-0.0904088 0.619224 0)
(-0.0549507 0.586154 0)
(0.0138011 0.549673 0)
(0.0656081 0.526123 0)
(0.106926 0.540185 0)
(0.153004 0.656521 0)
(0.149362 0.836546 0)
(0.0515116 0.990303 0)
(-0.0472649 1.07055 0)
(-0.130974 0.873409 0)
(-0.122718 0.640469 0)
(-0.0973458 0.499982 0)
(-0.0588612 0.460075 0)
(-0.0124236 0.492595 0)
(0.0405147 0.54695 0)
(0.0835233 0.607959 0)
(0.0987229 0.636166 0)
(0.0996454 0.641725 0)
(0.0910784 0.643358 0)
(0.0759079 0.642481 0)
(0.0566627 0.638354 0)
(0.034838 0.634521 0)
(0.0111189 0.632148 0)
(-0.0130676 0.632349 0)
(-0.0366161 0.634575 0)
(-0.0583239 0.638454 0)
(-0.0773661 0.642231 0)
(-0.0924786 0.642543 0)
(-0.100939 0.640205 0)
(-0.0995059 0.632891 0)
(-0.0833169 0.602332 0)
(-0.038659 0.537028 0)
(0.014205 0.480573 0)
(0.0707898 0.532725 0)
(0.102133 0.486357 0)
(0.126446 0.631514 0)
(0.132299 0.878943 0)
(0.0475797 1.08745 0)
(-0.0416841 1.14734 0)
(-0.101924 0.896378 0)
(-0.109464 0.619013 0)
(-0.119371 0.517079 0)
(-0.0728459 0.456541 0)
(-0.0187748 0.486764 0)
(0.0319883 0.488168 0)
(0.0568862 0.568567 0)
(0.075932 0.615751 0)
(0.0926723 0.63837 0)
(0.0907509 0.649518 0)
(0.0758405 0.652935 0)
(0.0554247 0.652806 0)
(0.0336672 0.652314 0)
(0.0106515 0.651636 0)
(-0.0125385 0.651654 0)
(-0.0355163 0.652278 0)
(-0.057262 0.652707 0)
(-0.0776703 0.652629 0)
(-0.0926711 0.648955 0)
(-0.0946081 0.636896 0)
(-0.0779871 0.612378 0)
(-0.0595507 0.563298 0)
(-0.0362868 0.480162 0)
(0.00494881 0.474286 0)
(0.0732754 0.455396 0)
(0.134195 0.506094 0)
(0.113792 0.614809 0)
(0.102585 0.903867 0)
(0.0414738 1.16459 0)
(-0.0395645 1.21219 0)
(-0.090372 0.910106 0)
(-0.120998 0.694765 0)
(-0.121699 0.465278 0)
(-0.072476 0.389704 0)
(-0.0169051 0.417055 0)
(0.0281432 0.495619 0)
(0.0522032 0.594744 0)
(0.0605268 0.58725 0)
(0.0682418 0.624008 0)
(0.0796338 0.652081 0)
(0.0736647 0.667525 0)
(0.0557394 0.668542 0)
(0.0339583 0.669148 0)
(0.0105961 0.668803 0)
(-0.0125053 0.668831 0)
(-0.0358904 0.669145 0)
(-0.0577013 0.668522 0)
(-0.0756329 0.667407 0)
(-0.0816066 0.651543 0)
(-0.0702341 0.6226 0)
(-0.0627313 0.58449 0)
(-0.0551148 0.590423 0)
(-0.031578 0.49003 0)
(0.0115894 0.410175 0)
(0.0713131 0.387925 0)
(0.124938 0.459448 0)
(0.120521 0.694848 0)
(0.08808 0.918548 0)
(0.0385013 1.22883 0)
(-0.0344938 1.27128 0)
(-0.0813719 0.923993 0)
(-0.0886643 0.692629 0)
(-0.0835238 0.434944 0)
(-0.0601362 0.354886 0)
(-0.0309693 0.376216 0)
(0.00166006 0.451716 0)
(0.0402798 0.553238 0)
(0.0618645 0.628442 0)
(0.0504547 0.609076 0)
(0.0514149 0.642438 0)
(0.0575658 0.673487 0)
(0.0490824 0.683374 0)
(0.032388 0.687199 0)
(0.0103278 0.686497 0)
(-0.0123211 0.686549 0)
(-0.0343402 0.687225 0)
(-0.0509958 0.683346 0)
(-0.0594591 0.673277 0)
(-0.0533536 0.641825 0)
(-0.0525216 0.60781 0)
(-0.0642212 0.625807 0)
(-0.0429266 0.549215 0)
(-0.00447329 0.446256 0)
(0.0278903 0.369118 0)
(0.0579341 0.348839 0)
(0.0816664 0.429554 0)
(0.0847637 0.694276 0)
(0.077365 0.931125 0)
(0.0329891 1.2848 0)
(-0.0171717 1.31789 0)
(-0.0421055 0.927804 0)
(-0.0298604 0.69223 0)
(-0.0321098 0.422556 0)
(-0.0307013 0.341037 0)
(-0.0274536 0.362619 0)
(-0.0179596 0.433628 0)
(0.00222427 0.525849 0)
(0.0329746 0.602942 0)
(0.0448548 0.657565 0)
(0.0354642 0.630863 0)
(0.0287903 0.666918 0)
(0.0274925 0.689537 0)
(0.0228232 0.703762 0)
(0.00767122 0.707715 0)
(-0.00962455 0.707681 0)
(-0.0246601 0.703658 0)
(-0.0292076 0.689425 0)
(-0.0304953 0.666619 0)
(-0.0372451 0.630372 0)
(-0.0468098 0.656271 0)
(-0.0349078 0.600338 0)
(-0.00419356 0.521854 0)
(0.0159273 0.428135 0)
(0.0250451 0.355671 0)
(0.0275701 0.334048 0)
(0.0277953 0.418454 0)
(0.0238778 0.694704 0)
(0.036734 0.93335 0)
(0.0143942 1.33016 0)
(0.0330616 1.32717 0)
(0.02381 0.902688 0)
(0.0373719 0.679341 0)
(0.0351476 0.425033 0)
(0.0139133 0.348482 0)
(-0.00976909 0.372833 0)
(-0.0266049 0.437619 0)
(-0.0284999 0.515891 0)
(-0.0130973 0.582406 0)
(0.0139721 0.635495 0)
(0.0252923 0.678775 0)
(0.0226826 0.680155 0)
(0.0209927 0.680317 0)
(0.0147411 0.69794 0)
(0.00481695 0.70518 0)
(-0.00641015 0.705069 0)
(-0.0161837 0.697657 0)
(-0.0222351 0.680012 0)
(-0.0238728 0.679811 0)
(-0.0265637 0.678224 0)
(-0.0152182 0.634121 0)
(0.011857 0.579644 0)
(0.027174 0.511805 0)
(0.0250186 0.432264 0)
(0.00743419 0.366594 0)
(-0.0176999 0.342463 0)
(-0.0406154 0.422568 0)
(-0.0437637 0.682025 0)
(-0.0296648 0.907403 0)
(-0.0366698 1.33468 0)
(0.0643813 1.27632 0)
(0.0956142 0.967259 0)
(0.124023 0.66151 0)
(0.11024 0.445652 0)
(0.0646604 0.380393 0)
(0.0137901 0.406378 0)
(-0.0278524 0.462152 0)
(-0.0498119 0.525035 0)
(-0.0509091 0.578132 0)
(-0.0366169 0.622819 0)
(-0.0171795 0.662602 0)
(-0.00106806 0.699995 0)
(0.00301303 0.730497 0)
(-0.000396015 0.752081 0)
(-0.000396894 0.760021 0)
(-0.000724206 0.759768 0)
(-0.000625866 0.751638 0)
(-0.00388322 0.730092 0)
(0.000289911 0.699724 0)
(0.0164545 0.66205 0)
(0.0358955 0.621478 0)
(0.0499828 0.575547 0)
(0.0485469 0.521223 0)
(0.0260692 0.457283 0)
(-0.016468 0.401059 0)
(-0.0688328 0.375775 0)
(-0.115783 0.444469 0)
(-0.129658 0.663907 0)
(-0.100141 0.972647 0)
(-0.0669085 1.27874 0)
(0.056301 1.18606 0)
(0.135723 0.902758 0)
(0.204375 0.649041 0)
(0.174746 0.48616 0)
(0.110445 0.436942 0)
(0.0359888 0.462402 0)
(-0.0255141 0.507291 0)
(-0.0627165 0.552587 0)
(-0.0772167 0.5905 0)
(-0.0760462 0.625909 0)
(-0.0663433 0.66048 0)
(-0.0520867 0.69463 0)
(-0.0377482 0.72206 0)
(-0.0240678 0.741834 0)
(-0.00856154 0.74989 0)
(0.00732056 0.749705 0)
(0.0229302 0.741185 0)
(0.0368001 0.721406 0)
(0.0513419 0.694093 0)
(0.0657941 0.659805 0)
(0.0755691 0.624727 0)
(0.0764767 0.588404 0)
(0.0614944 0.549405 0)
(0.0236481 0.503239 0)
(-0.038736 0.457947 0)
(-0.114462 0.433672 0)
(-0.179416 0.485516 0)
(-0.208482 0.65061 0)
(-0.137584 0.906451 0)
(-0.0566089 1.18759 0)
(0.0762719 1.17993 0)
(0.168588 0.82388 0)
(0.244801 0.652323 0)
(0.208617 0.541681 0)
(0.136324 0.513474 0)
(0.0511871 0.536027 0)
(-0.0124165 0.567048 0)
(-0.0545923 0.595485 0)
(-0.0773885 0.620946 0)
(-0.086377 0.647806 0)
(-0.085168 0.675978 0)
(-0.0752596 0.705232 0)
(-0.0588205 0.7302 0)
(-0.0377122 0.746908 0)
(-0.013408 0.753642 0)
(0.0118386 0.75342 0)
(0.0362287 0.746144 0)
(0.0575059 0.729392 0)
(0.0741912 0.704624 0)
(0.0843454 0.675272 0)
(0.0856943 0.64675 0)
(0.0766422 0.619338 0)
(0.0535135 0.592977 0)
(0.0108274 0.563909 0)
(-0.0533324 0.532632 0)
(-0.139276 0.511403 0)
(-0.211744 0.541124 0)
(-0.247328 0.653081 0)
(-0.168814 0.825728 0)
(-0.0758522 1.18226 0)
(0.09693 1.07602 0)
(0.186254 0.770277 0)
(0.244369 0.668666 0)
(0.208278 0.60817 0)
(0.137481 0.605448 0)
(0.0645547 0.61962 0)
(0.00787615 0.636951 0)
(-0.0344019 0.651644 0)
(-0.0619834 0.666475 0)
(-0.0769344 0.685908 0)
(-0.0814404 0.706863 0)
(-0.0756888 0.729018 0)
(-0.0609434 0.747498 0)
(-0.039279 0.759049 0)
(-0.013938 0.762574 0)
(0.0122346 0.762221 0)
(0.0375453 0.758261 0)
(0.0592453 0.746594 0)
(0.0741441 0.728247 0)
(0.0800877 0.706041 0)
(0.0758073 0.68469 0)
(0.0609427 0.664846 0)
(0.0333554 0.649158 0)
(-0.00899512 0.634144 0)
(-0.0658353 0.617154 0)
(-0.138977 0.60465 0)
(-0.210119 0.608315 0)
(-0.245548 0.668701 0)
(-0.186507 0.771355 0)
(-0.0967995 1.07886 0)
(0.0986178 1.00087 0)
(0.181952 0.749646 0)
(0.2171 0.700116 0)
(0.183569 0.689086 0)
(0.125938 0.691174 0)
(0.0673608 0.695453 0)
(0.0154169 0.69848 0)
(-0.0231075 0.703366 0)
(-0.0496196 0.710595 0)
(-0.0640612 0.724926 0)
(-0.0690016 0.741857 0)
(-0.0644143 0.75973 0)
(-0.0514741 0.773977 0)
(-0.0327358 0.782512 0)
(-0.0115726 0.785525 0)
(0.00993831 0.785282 0)
(0.0309738 0.781834 0)
(0.0495725 0.773097 0)
(0.0624958 0.758808 0)
(0.067152 0.740796 0)
(0.0623638 0.723381 0)
(0.048129 0.708571 0)
(0.0221352 0.700421 0)
(-0.0154897 0.695038 0)
(-0.0675995 0.692817 0)
(-0.126844 0.690292 0)
(-0.184472 0.690079 0)
(-0.218392 0.700426 0)
(-0.183175 0.750815 0)
(-0.0992028 1.00377 0)
(0.0990256 0.920093 0)
(0.171578 0.747789 0)
(0.187847 0.738789 0)
(0.163656 0.754145 0)
(0.120699 0.761188 0)
(0.0582056 0.770535 0)
(0.00185944 0.750726 0)
(-0.0293638 0.743351 0)
(-0.047819 0.740525 0)
(-0.0550429 0.750093 0)
(-0.0557701 0.765082 0)
(-0.0504804 0.781949 0)
(-0.0396341 0.796493 0)
(-0.0249748 0.806438 0)
(-0.00880633 0.810967 0)
(0.00751507 0.810799 0)
(0.0234903 0.80594 0)
(0.0378503 0.795764 0)
(0.0484242 0.781054 0)
(0.0534993 0.76392 0)
(0.0526455 0.748304 0)
(0.0455905 0.737875 0)
(0.0279356 0.739068 0)
(-0.00130348 0.745719 0)
(-0.0574161 0.768427 0)
(-0.121245 0.760536 0)
(-0.164288 0.755485 0)
(-0.189576 0.740342 0)
(-0.173786 0.749482 0)
(-0.100179 0.922402 0)
(0.0851582 0.818224 0)
(0.148446 0.740268 0)
(0.164008 0.759805 0)
(0.140388 0.80082 0)
(0.0951983 0.813427 0)
(0.0276331 0.832353 0)
(-0.0280923 0.783645 0)
(-0.0403078 0.760884 0)
(-0.0416706 0.748681 0)
(-0.0386846 0.755385 0)
(-0.0350077 0.771195 0)
(-0.0302139 0.789434 0)
(-0.0234509 0.805578 0)
(-0.0148639 0.817227 0)
(-0.00530928 0.823129 0)
(0.00442155 0.823032 0)
(0.0137698 0.816943 0)
(0.0219987 0.805146 0)
(0.0283304 0.788877 0)
(0.0326236 0.770389 0)
(0.0357114 0.753848 0)
(0.0381457 0.745633 0)
(0.0368445 0.755305 0)
(0.0251684 0.778004 0)
(-0.0262564 0.828477 0)
(-0.0911962 0.813556 0)
(-0.138875 0.803276 0)
(-0.16489 0.762268 0)
(-0.150204 0.742197 0)
(-0.0862731 0.819677 0)
(0.0675428 0.723191 0)
(0.120492 0.713307 0)
(0.132712 0.764443 0)
(0.0993315 0.835705 0)
(0.0372007 0.851097 0)
(-0.0257904 0.881748 0)
(-0.048062 0.800013 0)
(-0.0368398 0.755041 0)
(-0.0214295 0.741705 0)
(-0.0123851 0.752031 0)
(-0.00854642 0.770902 0)
(-0.00688839 0.790382 0)
(-0.00542837 0.806897 0)
(-0.00354993 0.818751 0)
(-0.00132489 0.824899 0)
(0.000966493 0.824884 0)
(0.00302408 0.818714 0)
(0.00458626 0.806861 0)
(0.00560026 0.790359 0)
(0.00662887 0.770813 0)
(0.00949202 0.751438 0)
(0.0171077 0.739527 0)
(0.0310173 0.749544 0)
(0.0412455 0.79419 0)
(0.0305393 0.872529 0)
(-0.0294918 0.855049 0)
(-0.0961703 0.84009 0)
(-0.131772 0.768235 0)
(-0.120914 0.715571 0)
(-0.0679259 0.723435 0)
(0.0460049 0.639264 0)
(0.0878365 0.686259 0)
(0.082794 0.769073 0)
(0.0338293 0.868383 0)
(-0.0597433 0.902037 0)
(-0.0800685 0.884276 0)
(-0.0309694 0.785271 0)
(-0.00294425 0.732564 0)
(0.0154186 0.732661 0)
(0.0203777 0.752023 0)
(0.0185414 0.774744 0)
(0.0144082 0.795174 0)
(0.00999064 0.81146 0)
(0.00584822 0.8228 0)
(0.00200326 0.828639 0)
(-0.00175505 0.828689 0)
(-0.00571435 0.822955 0)
(-0.0100792 0.811738 0)
(-0.0148222 0.7956 0)
(-0.019442 0.77533 0)
(-0.0221349 0.752567 0)
(-0.0187337 0.732403 0)
(-0.00300796 0.729554 0)
(0.0248993 0.776973 0)
(0.0756247 0.865507 0)
(0.0661726 0.907514 0)
(-0.0295854 0.875231 0)
(-0.0802347 0.773279 0)
(-0.0866923 0.688925 0)
(-0.0456043 0.639541 0)
(0.0271859 0.581651 0)
(0.0392526 0.670964 0)
(-0.00264243 0.777572 0)
(-0.0735907 0.928769 0)
(-0.121771 0.925536 0)
(-0.0559391 0.823734 0)
(0.0228696 0.739911 0)
(0.0496887 0.718396 0)
(0.055975 0.735189 0)
(0.0500775 0.76055 0)
(0.0404226 0.784752 0)
(0.0303582 0.80484 0)
(0.0209551 0.820259 0)
(0.0123413 0.830738 0)
(0.00432588 0.836073 0)
(-0.00348363 0.836162 0)
(-0.0115659 0.831008 0)
(-0.0203073 0.820722 0)
(-0.0298825 0.80552 0)
(-0.0401693 0.785696 0)
(-0.050203 0.761724 0)
(-0.0569206 0.736202 0)
(-0.0524124 0.718136 0)
(-0.0259519 0.73434 0)
(0.0437478 0.804771 0)
(0.115919 0.920699 0)
(0.0793687 0.936897 0)
(0.0065851 0.781166 0)
(-0.0363625 0.67537 0)
(-0.0265842 0.58223 0)
(0.000458451 0.547126 0)
(-0.0241768 0.702523 0)
(-0.114994 0.837429 0)
(-0.140772 0.934267 0)
(-0.0801946 0.884648 0)
(0.0389303 0.737617 0)
(0.0822878 0.71863 0)
(0.0954193 0.725055 0)
(0.0855489 0.749187 0)
(0.070107 0.775618 0)
(0.0542964 0.798816 0)
(0.039774 0.81734 0)
(0.026955 0.831206 0)
(0.0157102 0.840425 0)
(0.00556716 0.845051 0)
(-0.00418359 0.84516 0)
(-0.0143596 0.840754 0)
(-0.0256644 0.831759 0)
(-0.0385495 0.818122 0)
(-0.0531096 0.799849 0)
(-0.0689568 0.776886 0)
(-0.0845471 0.750416 0)
(-0.0951089 0.725483 0)
(-0.0842517 0.715685 0)
(-0.0468714 0.729522 0)
(0.0650676 0.865225 0)
(0.138288 0.936354 0)
(0.118138 0.841459 0)
(0.025741 0.708903 0)
(0.00144662 0.548304 0)
(-0.0410506 0.551816 0)
(-0.0766251 0.777563 0)
(-0.165158 0.854572 0)
(-0.100233 0.90593 0)
(0.0488385 0.758403 0)
(0.112052 0.714603 0)
(0.129704 0.724022 0)
(0.120953 0.743078 0)
(0.101162 0.768874 0)
(0.0799392 0.794121 0)
(0.0601523 0.815209 0)
(0.0428383 0.831369 0)
(0.0282111 0.842775 0)
(0.0160838 0.850014 0)
(0.00576591 0.853544 0)
(-0.00389436 0.853658 0)
(-0.014221 0.850361 0)
(-0.0263668 0.843353 0)
(-0.0410112 0.832169 0)
(-0.0583018 0.816214 0)
(-0.0780093 0.795289 0)
(-0.0991964 0.769984 0)
(-0.119279 0.743523 0)
(-0.130206 0.722526 0)
(-0.116336 0.711292 0)
(-0.0600934 0.746224 0)
(0.0855398 0.898761 0)
(0.164274 0.853893 0)
(0.0795513 0.784409 0)
(0.0438707 0.555108 0)
(-0.0761654 0.613546 0)
(-0.109329 0.851998 0)
(-0.120165 0.833663 0)
(0.0523296 0.770738 0)
(0.130562 0.726568 0)
(0.159298 0.72304 0)
(0.151649 0.741091 0)
(0.130846 0.765299 0)
(0.106173 0.791372 0)
(0.0812849 0.814759 0)
(0.0585203 0.832947 0)
(0.0392615 0.845566 0)
(0.0241749 0.853308 0)
(0.0130804 0.857605 0)
(0.00479121 0.859366 0)
(-0.00249342 0.85949 0)
(-0.0107692 0.857933 0)
(-0.021848 0.853865 0)
(-0.0369281 0.846345 0)
(-0.0561709 0.833905 0)
(-0.0788655 0.81582 0)
(-0.103683 0.792357 0)
(-0.128475 0.765877 0)
(-0.150069 0.740797 0)
(-0.159949 0.722069 0)
(-0.136748 0.722293 0)
(-0.0629165 0.762645 0)
(0.108205 0.825769 0)
(0.108396 0.854088 0)
(0.0781586 0.621247 0)
(-0.0826481 0.72515 0)
(-0.0645787 0.841103 0)
(0.0510605 0.729815 0)
(0.129692 0.734843 0)
(0.173044 0.727924 0)
(0.173514 0.739247 0)
(0.155727 0.762276 0)
(0.13124 0.789224 0)
(0.103335 0.81556 0)
(0.074703 0.837404 0)
(0.0484217 0.851545 0)
(0.0275238 0.858824 0)
(0.0135537 0.861117 0)
(0.00594814 0.861299 0)
(0.00239494 0.861156 0)
(0.000245881 0.861227 0)
(-0.00326207 0.861565 0)
(-0.010798 0.861599 0)
(-0.0247167 0.859544 0)
(-0.0456184 0.852474 0)
(-0.0719123 0.838404 0)
(-0.100533 0.816501 0)
(-0.12851 0.789841 0)
(-0.153283 0.762446 0)
(-0.171687 0.738755 0)
(-0.173662 0.726476 0)
(-0.13519 0.732679 0)
(-0.059728 0.725553 0)
(0.053488 0.835383 0)
(0.0803076 0.732824 0)
(-0.013308 0.801589 0)
(0.047608 0.753485 0)
(0.127655 0.717594 0)
(0.165799 0.724776 0)
(0.179131 0.734052 0)
(0.17123 0.755132 0)
(0.152784 0.783177 0)
(0.126146 0.813913 0)
(0.0940396 0.842084 0)
(0.0586648 0.863552 0)
(0.026848 0.870808 0)
(0.00543538 0.869834 0)
(-0.00456609 0.864204 0)
(-0.00546531 0.859123 0)
(-0.0014054 0.856476 0)
(0.00425528 0.856498 0)
(0.00840902 0.859263 0)
(0.00767252 0.864518 0)
(-0.00216394 0.870399 0)
(-0.023562 0.871688 0)
(-0.0554481 0.864467 0)
(-0.0909368 0.843104 0)
(-0.123224 0.814636 0)
(-0.149861 0.783425 0)
(-0.168673 0.754639 0)
(-0.177364 0.733217 0)
(-0.166339 0.723272 0)
(-0.131391 0.716459 0)
(-0.0522695 0.751346 0)
(0.00684381 0.799515 0)
(0.0365307 0.774753 0)
(0.0900271 0.727988 0)
(0.145534 0.707185 0)
(0.168142 0.716748 0)
(0.173285 0.738057 0)
(0.16639 0.767302 0)
(0.147701 0.802559 0)
(0.117428 0.840221 0)
(0.0776679 0.871366 0)
(0.0298407 0.89489 0)
(-0.0100967 0.888367 0)
(-0.0277552 0.875169 0)
(-0.0288871 0.859446 0)
(-0.0195872 0.848917 0)
(-0.00598419 0.843696 0)
(0.00882143 0.843681 0)
(0.0225691 0.848851 0)
(0.0321544 0.859447 0)
(0.0313917 0.875392 0)
(0.0138174 0.889124 0)
(-0.0259613 0.895422 0)
(-0.0739473 0.872629 0)
(-0.114343 0.841129 0)
(-0.144928 0.802871 0)
(-0.163804 0.766931 0)
(-0.170927 0.737382 0)
(-0.166255 0.715624 0)
(-0.14511 0.705627 0)
(-0.0915668 0.725881 0)
(-0.0377004 0.772397 0)
(0.0479582 0.747483 0)
(0.101804 0.689683 0)
(0.141212 0.687151 0)
(0.16007 0.707126 0)
(0.167775 0.736989 0)
(0.162413 0.775443 0)
(0.141207 0.820746 0)
(0.101321 0.867317 0)
(0.0489775 0.899675 0)
(-0.0154948 0.929089 0)
(-0.0624813 0.897538 0)
(-0.0673644 0.868197 0)
(-0.0534239 0.842944 0)
(-0.0320423 0.829236 0)
(-0.00972857 0.823562 0)
(0.0122958 0.823459 0)
(0.0347434 0.828922 0)
(0.0564496 0.842503 0)
(0.0709807 0.867883 0)
(0.066392 0.898057 0)
(0.0204955 0.928454 0)
(-0.0439362 0.901505 0)
(-0.0977546 0.868586 0)
(-0.138453 0.821226 0)
(-0.159895 0.775251 0)
(-0.165319 0.736241 0)
(-0.157751 0.706122 0)
(-0.139395 0.685643 0)
(-0.101617 0.687095 0)
(-0.0481632 0.742669 0)
(0.0490796 0.683743 0)
(0.101208 0.652499 0)
(0.132194 0.66486 0)
(0.153952 0.693028 0)
(0.16433 0.730859 0)
(0.155829 0.781292 0)
(0.121359 0.838591 0)
(0.0607032 0.891614 0)
(-0.00916741 0.919437 0)
(-0.0777014 0.951126 0)
(-0.111277 0.893134 0)
(-0.0973408 0.842658 0)
(-0.0669505 0.813385 0)
(-0.0371651 0.801979 0)
(-0.0111556 0.798754 0)
(0.0133082 0.798618 0)
(0.0393466 0.801528 0)
(0.0692614 0.812572 0)
(0.100298 0.841662 0)
(0.115484 0.893164 0)
(0.0835275 0.949734 0)
(0.0152612 0.921292 0)
(-0.0559188 0.893075 0)
(-0.11785 0.839373 0)
(-0.153111 0.781024 0)
(-0.161878 0.730145 0)
(-0.151697 0.69204 0)
(-0.130021 0.663576 0)
(-0.0995071 0.650354 0)
(-0.0479654 0.678412 0)
(0.0398377 0.620676 0)
(0.0888359 0.617134 0)
(0.122713 0.639512 0)
(0.148869 0.673245 0)
(0.156619 0.721607 0)
(0.129149 0.790765 0)
(0.0605731 0.856897 0)
(-0.0212659 0.915788 0)
(-0.0962326 0.953588 0)
(-0.146643 0.967765 0)
(-0.125218 0.870419 0)
(-0.0965365 0.80011 0)
(-0.0605382 0.777256 0)
(-0.0319146 0.773976 0)
(-0.0092943 0.774982 0)
(0.0111786 0.774902 0)
(0.0336511 0.773644 0)
(0.0621272 0.776445 0)
(0.0984015 0.798328 0)
(0.128511 0.86774 0)
(0.152512 0.965078 0)
(0.103925 0.956458 0)
(0.0271762 0.918917 0)
(-0.0551959 0.857927 0)
(-0.124913 0.790734 0)
(-0.153574 0.721226 0)
(-0.146626 0.672324 0)
(-0.120663 0.638235 0)
(-0.0867834 0.615027 0)
(-0.0385732 0.616286 0)
(0.0307266 0.56365 0)
(0.0758217 0.579346 0)
(0.114632 0.609367 0)
(0.138372 0.649451 0)
(0.125543 0.716831 0)
(0.0566082 0.811928 0)
(-0.0437566 0.896676 0)
(-0.134762 0.959705 0)
(-0.184801 0.980703 0)
(-0.162077 0.92082 0)
(-0.100179 0.823876 0)
(-0.0641339 0.757097 0)
(-0.0366301 0.747987 0)
(-0.0181595 0.753319 0)
(-0.00481488 0.758002 0)
(0.00682156 0.757997 0)
(0.0198829 0.753355 0)
(0.0378542 0.74769 0)
(0.0647077 0.755475 0)
(0.101134 0.819154 0)
(0.164209 0.917204 0)
(0.190981 0.981255 0)
(0.143097 0.964599 0)
(0.0517085 0.898494 0)
(-0.0496444 0.812697 0)
(-0.120782 0.717771 0)
(-0.135926 0.649105 0)
(-0.113156 0.608109 0)
(-0.074381 0.577366 0)
(-0.0298373 0.560268 0)
(0.0240097 0.51384 0)
(0.0673813 0.541489 0)
(0.101125 0.574909 0)
(0.10317 0.632123 0)
(0.0430204 0.735176 0)
(-0.058806 0.869756 0)
(-0.165615 0.958156 0)
(-0.211868 0.988037 0)
(-0.202215 0.954935 0)
(-0.12849 0.853509 0)
(-0.0514062 0.77002 0)
(-0.0211321 0.730531 0)
(-0.00735771 0.734288 0)
(-0.00205097 0.74442 0)
(0.000415053 0.750776 0)
(0.00211065 0.750987 0)
(0.00428396 0.744877 0)
(0.00891116 0.734807 0)
(0.0215291 0.730284 0)
(0.0508193 0.76604 0)
(0.125536 0.846847 0)
(0.203208 0.952865 0)
(0.219451 0.990029 0)
(0.17706 0.961641 0)
(0.0687792 0.872805 0)
(-0.0367186 0.737575 0)
(-0.0995132 0.633514 0)
(-0.099983 0.573626 0)
(-0.0667535 0.53972 0)
(-0.0235137 0.511267 0)
(0.0207144 0.471923 0)
(0.0558328 0.505132 0)
(0.0688137 0.54734 0)
(0.0267168 0.646366 0)
(-0.0773916 0.807897 0)
(-0.191966 0.935163 0)
(-0.224486 0.990233 0)
(-0.221862 0.976015 0)
(-0.155545 0.893943 0)
(-0.0444231 0.767963 0)
(0.00162882 0.736644 0)
(0.0196382 0.725499 0)
(0.0175369 0.735584 0)
(0.0114278 0.746483 0)
(0.00489552 0.752743 0)
(-0.00161339 0.753047 0)
(-0.00834189 0.747213 0)
(-0.0149086 0.736701 0)
(-0.0179336 0.726571 0)
(-0.00172837 0.735521 0)
(0.0412196 0.764798 0)
(0.150176 0.884618 0)
(0.225088 0.97231 0)
(0.232145 0.99148 0)
(0.201591 0.940908 0)
(0.0882357 0.813833 0)
(-0.0219923 0.649986 0)
(-0.0667759 0.54656 0)
(-0.0552027 0.503249 0)
(-0.0206093 0.47 0)
(0.0143057 0.435657 0)
(0.028816 0.478197 0)
(0.00614309 0.552825 0)
(-0.0757806 0.72233 0)
(-0.218253 0.897372 0)
(-0.243081 0.961773 0)
(-0.233084 0.977184 0)
(-0.170478 0.927732 0)
(-0.0328708 0.774823 0)
(0.0252953 0.732861 0)
(0.0468115 0.730882 0)
(0.0454166 0.73505 0)
(0.033247 0.746253 0)
(0.0201947 0.755882 0)
(0.00794214 0.761124 0)
(-0.00388042 0.761364 0)
(-0.0162536 0.756726 0)
(-0.0295974 0.747604 0)
(-0.0423834 0.736649 0)
(-0.0456828 0.731683 0)
(-0.0263843 0.732841 0)
(0.0271059 0.768861 0)
(0.163326 0.914893 0)
(0.234188 0.976766 0)
(0.246815 0.963258 0)
(0.224701 0.903026 0)
(0.0855541 0.732901 0)
(-0.00215338 0.554606 0)
(-0.0266433 0.477021 0)
(-0.0137342 0.434018 0)
(-0.000703721 0.411958 0)
(-0.0178401 0.482231 0)
(-0.0719974 0.599839 0)
(-0.219743 0.845411 0)
(-0.254739 0.92669 0)
(-0.241865 0.948983 0)
(-0.176296 0.923407 0)
(-0.017525 0.792209 0)
(0.0542455 0.736627 0)
(0.0774019 0.732044 0)
(0.0733461 0.7407 0)
(0.0583146 0.750603 0)
(0.0408327 0.761017 0)
(0.0244365 0.768818 0)
(0.00954533 0.772894 0)
(-0.00476242 0.773181 0)
(-0.0197387 0.769707 0)
(-0.0363363 0.762476 0)
(-0.0542328 0.752479 0)
(-0.0702153 0.742572 0)
(-0.0762277 0.734007 0)
(-0.0561494 0.736281 0)
(0.00906752 0.782426 0)
(0.16499 0.913482 0)
(0.241439 0.950265 0)
(0.254545 0.930078 0)
(0.223971 0.852218 0)
(0.0794433 0.607577 0)
(0.0213551 0.484584 0)
(0.00189487 0.411494 0)
(-0.0261814 0.415243 0)
(-0.0634627 0.543187 0)
(-0.211784 0.722579 0)
(-0.239408 0.890809 0)
(-0.236705 0.917877 0)
(-0.155754 0.887689 0)
(0.000412782 0.784057 0)
(0.0781961 0.750843 0)
(0.109325 0.740902 0)
(0.101642 0.747767 0)
(0.0823991 0.758529 0)
(0.0614625 0.768809 0)
(0.0418668 0.776963 0)
(0.0248158 0.782454 0)
(0.00984292 0.785263 0)
(-0.00440652 0.785557 0)
(-0.0194378 0.783347 0)
(-0.0366432 0.77846 0)
(-0.0565707 0.770834 0)
(-0.078074 0.760823 0)
(-0.098174 0.75012 0)
(-0.107972 0.742552 0)
(-0.0819964 0.749533 0)
(-0.00900835 0.778613 0)
(0.141232 0.877897 0)
(0.23492 0.920719 0)
(0.238546 0.894544 0)
(0.216637 0.728789 0)
(0.0662881 0.548918 0)
(0.0271803 0.416351 0)
(-0.0499101 0.45892 0)
(-0.118509 0.674363 0)
(-0.231343 0.767071 0)
(-0.202986 0.892466 0)
(-0.112659 0.841193 0)
(0.0252905 0.765011 0)
(0.0976826 0.75488 0)
(0.130852 0.755809 0)
(0.125147 0.760119 0)
(0.103551 0.769717 0)
(0.0790265 0.779567 0)
(0.0559879 0.786992 0)
(0.0367577 0.791686 0)
(0.021454 0.794325 0)
(0.00882964 0.795588 0)
(-0.00285723 0.795846 0)
(-0.0154655 0.795146 0)
(-0.0308428 0.793164 0)
(-0.0504087 0.789146 0)
(-0.0740853 0.782124 0)
(-0.0994295 0.772335 0)
(-0.122062 0.762063 0)
(-0.130538 0.756568 0)
(-0.102266 0.754949 0)
(-0.0311533 0.763446 0)
(0.0996467 0.833094 0)
(0.200923 0.893212 0)
(0.230926 0.769328 0)
(0.122585 0.684001 0)
(0.0518341 0.462198 0)
(-0.0936781 0.558207 0)
(-0.141566 0.763259 0)
(-0.186461 0.781108 0)
(-0.067558 0.803492 0)
(0.0462047 0.747947 0)
(0.11636 0.750551 0)
(0.145576 0.76137 0)
(0.141036 0.771986 0)
(0.120122 0.783388 0)
(0.0926592 0.793736 0)
(0.0650495 0.800483 0)
(0.0420391 0.803093 0)
(0.0254272 0.80318 0)
(0.0142457 0.802363 0)
(0.00641308 0.801718 0)
(-0.000217251 0.801819 0)
(-0.00781222 0.802904 0)
(-0.0187516 0.804434 0)
(-0.03559 0.805381 0)
(-0.0594501 0.803464 0)
(-0.0884481 0.797122 0)
(-0.117441 0.786021 0)
(-0.139568 0.773909 0)
(-0.146451 0.761527 0)
(-0.120365 0.750218 0)
(-0.0504862 0.747187 0)
(0.0585901 0.797363 0)
(0.180488 0.779388 0)
(0.140273 0.764736 0)
(0.0971939 0.566566 0)
(-0.0816504 0.690945 0)
(-0.107714 0.765798 0)
(-0.026843 0.71445 0)
(0.0561176 0.730173 0)
(0.129307 0.737207 0)
(0.156336 0.754752 0)
(0.153365 0.775455 0)
(0.134715 0.794079 0)
(0.1045 0.809978 0)
(0.0700901 0.818525 0)
(0.0398765 0.819839 0)
(0.0191026 0.815452 0)
(0.0080467 0.80962 0)
(0.00355914 0.804953 0)
(0.00260768 0.802472 0)
(0.00300694 0.802372 0)
(0.00275838 0.804777 0)
(-0.000701215 0.810088 0)
(-0.0113084 0.817501 0)
(-0.0326779 0.823168 0)
(-0.0654368 0.823528 0)
(-0.102718 0.813463 0)
(-0.134287 0.797081 0)
(-0.153631 0.776326 0)
(-0.157976 0.753783 0)
(-0.132745 0.735498 0)
(-0.0595627 0.72924 0)