/*--------------------------------*- C++ -*----------------------------------*\
| =========                 |                                                 |
| \\      /  F ield         | OpenFOAM: The Open Source CFD Toolbox           |
|  \\    /   O peration     | Version:  v1606+                                |
|   \\  /    A nd           | Web:      www.OpenFOAM.com                      |
|    \\/     M anipulation  |                                                 |
\*---------------------------------------------------------------------------*/
FoamFile
{
    version     2.0;
    format      ascii;
    class       volVectorField;
    location    "0.2";
    object      U.airMean;
}
// * * * * * * * * * * * * * * * * * * * * * * * * * * * * * * * * * * * * * //

dimensions      [0 1 -1 0 0 0 0];

internalField   nonuniform List<vector> 
6000
(
(-0.0306156 0.356258 0)
(-0.0219601 0.330345 0)
(-0.00978709 0.336819 0)
(-0.00273834 0.335792 0)
(0.00381601 0.336721 0)
(0.00805864 0.337684 0)
(0.0107415 0.338519 0)
(0.0115539 0.338915 0)
(0.0115476 0.339791 0)
(0.0107085 0.340012 0)
(0.00933627 0.340294 0)
(0.00779976 0.340154 0)
(0.00601206 0.339917 0)
(0.00396604 0.339805 0)
(0.00154236 0.340152 0)
(-0.00112932 0.34012 0)
(-0.00354346 0.339743 0)
(-0.00545575 0.339792 0)
(-0.00697854 0.340041 0)
(-0.00851838 0.340117 0)
(-0.00998286 0.339962 0)
(-0.011252 0.33966 0)
(-0.0118791 0.338879 0)
(-0.0110605 0.338332 0)
(-0.00818792 0.33752 0)
(-0.00323641 0.33671 0)
(0.00396283 0.335774 0)
(0.0118422 0.336546 0)
(0.0248287 0.330037 0)
(0.0325389 0.357292 0)
(-0.0125115 0.969331 0)
(-0.0246331 0.914211 0)
(-0.00957711 0.924987 0)
(-0.00624387 0.924059 0)
(0.00148666 0.925013 0)
(0.00716513 0.924728 0)
(0.0104748 0.926597 0)
(0.0121605 0.927304 0)
(0.0129852 0.927944 0)
(0.0126944 0.929123 0)
(0.0115534 0.929392 0)
(0.00980755 0.929651 0)
(0.00745777 0.930355 0)
(0.0046079 0.930709 0)
(0.00159528 0.930991 0)
(-0.00134347 0.930912 0)
(-0.00429693 0.930665 0)
(-0.00703903 0.929984 0)
(-0.0092739 0.929589 0)
(-0.0109764 0.929677 0)
(-0.0121307 0.929468 0)
(-0.01255 0.929092 0)
(-0.0120046 0.92819 0)
(-0.0101916 0.926289 0)
(-0.00681329 0.924743 0)
(-0.00115526 0.92377 0)
(0.00722456 0.923206 0)
(0.0115843 0.923454 0)
(0.0262723 0.914715 0)
(0.0130778 0.973319 0)
(-0.0125573 0.887146 0)
(-0.023689 0.77984 0)
(-0.0122686 0.800759 0)
(-0.0102349 0.79609 0)
(-0.0017101 0.801807 0)
(0.00417457 0.808679 0)
(0.00781401 0.815811 0)
(0.0100737 0.819145 0)
(0.0110589 0.822793 0)
(0.0106728 0.825556 0)
(0.00972275 0.827458 0)
(0.00806898 0.828928 0)
(0.00599611 0.830276 0)
(0.00372163 0.831231 0)
(0.00132163 0.831766 0)
(-0.00111461 0.831648 0)
(-0.00343552 0.830902 0)
(-0.00568067 0.829854 0)
(-0.00787693 0.828684 0)
(-0.00950692 0.827321 0)
(-0.0104599 0.825643 0)
(-0.0107045 0.823183 0)
(-0.00967308 0.81959 0)
(-0.00732621 0.814816 0)
(-0.0034585 0.808399 0)
(0.00229113 0.800577 0)
(0.0112285 0.794294 0)
(0.0137319 0.798664 0)
(0.024404 0.780923 0)
(0.0126152 0.891382 0)
(0.0043071 0.884015 0)
(-0.0133485 0.771924 0)
(-0.0154953 0.795877 0)
(-0.0112518 0.78614 0)
(-0.00375295 0.790578 0)
(0.00380289 0.797216 0)
(0.00939429 0.806371 0)
(0.0124313 0.81269 0)
(0.0127913 0.820016 0)
(0.0115415 0.825836 0)
(0.00974202 0.830133 0)
(0.00756479 0.833682 0)
(0.00520471 0.836207 0)
(0.00300885 0.837793 0)
(0.00107292 0.838636 0)
(-0.000769252 0.838624 0)
(-0.00272553 0.837536 0)
(-0.0049654 0.835942 0)
(-0.00750759 0.833586 0)
(-0.00978594 0.830085 0)
(-0.0116383 0.825876 0)
(-0.0127207 0.820345 0)
(-0.0120152 0.81322 0)
(-0.00897044 0.805355 0)
(-0.00315449 0.796926 0)
(0.00481504 0.789062 0)
(0.0126579 0.783912 0)
(0.0168261 0.794053 0)
(0.0136985 0.773424 0)
(-0.00448995 0.8879 0)
(0.00242742 0.864862 0)
(-0.0230734 0.772982 0)
(-0.0252025 0.779185 0)
(-0.0138222 0.766895 0)
(-0.00180346 0.771142 0)
(0.00994133 0.779313 0)
(0.0185722 0.789034 0)
(0.0236217 0.795573 0)
(0.0254203 0.801657 0)
(0.0251455 0.805884 0)
(0.0228146 0.808671 0)
(0.0177283 0.811474 0)
(0.0116659 0.813602 0)
(0.00655972 0.814939 0)
(0.00211016 0.815494 0)
(-0.00204309 0.815506 0)
(-0.00656057 0.814641 0)
(-0.0117939 0.81343 0)
(-0.0180305 0.811503 0)
(-0.0231321 0.808728 0)
(-0.0254307 0.806044 0)
(-0.0255596 0.801826 0)
(-0.0232665 0.795807 0)
(-0.0181069 0.788285 0)
(-0.00924672 0.778493 0)
(0.00306685 0.769437 0)
(0.0153534 0.764657 0)
(0.0268695 0.778025 0)
(0.0244372 0.775612 0)
(-0.00209309 0.868218 0)
(-0.00735976 0.859033 0)
(-0.0359986 0.753842 0)
(-0.0306614 0.733607 0)
(-0.0144019 0.720494 0)
(0.00302382 0.726195 0)
(0.0185857 0.740516 0)
(0.0297801 0.757749 0)
(0.0362861 0.772691 0)
(0.0386026 0.785505 0)
(0.0381222 0.795312 0)
(0.0345434 0.804133 0)
(0.0282451 0.812911 0)
(0.0204369 0.813822 0)
(0.0122297 0.81377 0)
(0.00396851 0.813388 0)
(-0.0042656 0.813457 0)
(-0.0125883 0.81363 0)
(-0.0209275 0.813836 0)
(-0.0287779 0.812993 0)
(-0.0350208 0.803837 0)
(-0.038498 0.795197 0)
(-0.0388345 0.785117 0)
(-0.0361825 0.772264 0)
(-0.0295213 0.756813 0)
(-0.0182151 0.739049 0)
(-0.00239828 0.724119 0)
(0.0151765 0.717801 0)
(0.0316825 0.7317 0)
(0.0375508 0.755963 0)
(0.00813722 0.864191 0)
(-0.0084948 0.87733 0)
(-0.0364071 0.757524 0)
(-0.0301448 0.718735 0)
(-0.0156753 0.700618 0)
(0.0014076 0.705491 0)
(0.0169907 0.721329 0)
(0.0288335 0.739162 0)
(0.0355954 0.755608 0)
(0.038245 0.768676 0)
(0.0380228 0.779203 0)
(0.0348355 0.787947 0)
(0.0300903 0.795032 0)
(0.023561 0.798762 0)
(0.0147686 0.800552 0)
(0.00486794 0.801181 0)
(-0.00540023 0.801198 0)
(-0.0152835 0.80047 0)
(-0.0240898 0.79874 0)
(-0.0305287 0.795 0)
(-0.0352316 0.787856 0)
(-0.0383673 0.779149 0)
(-0.0384843 0.768514 0)
(-0.0356792 0.7552 0)
(-0.0287745 0.73852 0)
(-0.0168674 0.720064 0)
(-0.00121992 0.703619 0)
(0.0159105 0.698059 0)
(0.0303729 0.716828 0)
(0.0369451 0.759754 0)
(0.00877069 0.883245 0)
(-0.00685923 0.903698 0)
(-0.0318462 0.769242 0)
(-0.0251654 0.714478 0)
(-0.0142616 0.692129 0)
(-0.000587537 0.697188 0)
(0.0128817 0.714783 0)
(0.0242118 0.737295 0)
(0.0310027 0.757986 0)
(0.0336621 0.773206 0)
(0.0332939 0.785489 0)
(0.0305527 0.795788 0)
(0.0262056 0.803369 0)
(0.0203041 0.807926 0)
(0.0127453 0.810133 0)
(0.00419747 0.811002 0)
(-0.00468665 0.81098 0)
(-0.0132052 0.810083 0)
(-0.0207443 0.807934 0)
(-0.0266146 0.80337 0)
(-0.0309594 0.795759 0)
(-0.0336701 0.785421 0)
(-0.0339545 0.77296 0)
(-0.031189 0.757489 0)
(-0.0242755 0.736548 0)
(-0.0129058 0.713456 0)
(0.000551527 0.695333 0)
(0.014137 0.689647 0)
(0.0247256 0.712665 0)
(0.0315521 0.771585 0)
(0.00666703 0.909857 0)
(-0.00296517 0.92734 0)
(-0.0226985 0.779069 0)
(-0.0173431 0.712909 0)
(-0.0116403 0.688846 0)
(-0.00178281 0.694925 0)
(0.00884799 0.712101 0)
(0.0176152 0.736635 0)
(0.0237953 0.760936 0)
(0.0273236 0.780247 0)
(0.0276781 0.795188 0)
(0.0256057 0.807185 0)
(0.0218136 0.816442 0)
(0.0166782 0.822682 0)
(0.010384 0.826062 0)
(0.00339835 0.827507 0)
(-0.00379096 0.827476 0)
(-0.0107709 0.826006 0)
(-0.0170678 0.822667 0)
(-0.022217 0.816477 0)
(-0.0260122 0.807132 0)
(-0.0280602 0.795074 0)
(-0.0276275 0.779946 0)
(-0.0240059 0.760352 0)
(-0.017856 0.735842 0)
(-0.00910547 0.710988 0)
(0.00163077 0.693323 0)
(0.011375 0.686761 0)
(0.016546 0.711332 0)
(0.0217308 0.781271 0)
(0.00245038 0.93307 0)
(0.00278198 0.94266 0)
(-0.0099176 0.787272 0)
(-0.0065234 0.715311 0)
(-0.00551316 0.686859 0)
(-0.000296747 0.691271 0)
(0.00558138 0.711508 0)
(0.0114348 0.740259 0)
(0.0158193 0.764512 0)
(0.0187075 0.786073 0)
(0.0201352 0.803663 0)
(0.0195193 0.818001 0)
(0.016989 0.828591 0)
(0.012997 0.835875 0)
(0.00807178 0.840115 0)
(0.002629 0.841912 0)
(-0.00296509 0.841881 0)
(-0.0084206 0.840061 0)
(-0.013362 0.835918 0)
(-0.0173497 0.828634 0)
(-0.0198677 0.817954 0)
(-0.0204688 0.803517 0)
(-0.0190238 0.785661 0)
(-0.0161536 0.763986 0)
(-0.011799 0.73976 0)
(-0.0059768 0.710072 0)
(-0.000140601 0.689276 0)
(0.00487727 0.684615 0)
(0.00532209 0.714172 0)
(0.00846587 0.7893 0)
(-0.00350384 0.94763 0)
(0.00884943 0.94898 0)
(0.00431473 0.792431 0)
(0.00764138 0.719842 0)
(0.00523182 0.688551 0)
(0.00401458 0.693783 0)
(0.00370183 0.713345 0)
(0.00560727 0.741921 0)
(0.00851619 0.771292 0)
(0.0102652 0.792583 0)
(0.0112795 0.811131 0)
(0.0117426 0.827212 0)
(0.0110119 0.83971 0)
(0.00883973 0.848169 0)
(0.00561899 0.852992 0)
(0.00183289 0.855094 0)
(-0.00213211 0.855068 0)
(-0.00593071 0.852944 0)
(-0.00914107 0.848157 0)
(-0.0112963 0.839689 0)
(-0.0120317 0.827155 0)
(-0.0115773 0.810981 0)
(-0.0106165 0.79228 0)
(-0.00896066 0.770685 0)
(-0.00602862 0.741107 0)
(-0.00414609 0.712059 0)
(-0.0046664 0.692035 0)
(-0.00626024 0.686714 0)
(-0.00924301 0.719207 0)
(-0.00604284 0.794156 0)
(-0.00966767 0.952859 0)
(0.0147587 0.945468 0)
(0.0191297 0.793585 0)
(0.0239998 0.723374 0)
(0.0183573 0.694582 0)
(0.0119283 0.700952 0)
(0.00613212 0.720453 0)
(0.00249607 0.747237 0)
(0.00202573 0.775191 0)
(0.00294493 0.800257 0)
(0.00346368 0.81913 0)
(0.00390195 0.835167 0)
(0.0042471 0.848675 0)
(0.00394486 0.858438 0)
(0.0027404 0.864172 0)
(0.000889018 0.866666 0)
(-0.00115878 0.866643 0)
(-0.00301159 0.864125 0)
(-0.00420613 0.858422 0)
(-0.00450714 0.848713 0)
(-0.00418901 0.835121 0)
(-0.00380146 0.818995 0)
(-0.00333596 0.799912 0)
(-0.00248331 0.774622 0)
(-0.00300483 0.746426 0)
(-0.00673095 0.719224 0)
(-0.0127759 0.699351 0)
(-0.0196365 0.693071 0)
(-0.0257809 0.723093 0)
(-0.020833 0.794931 0)
(-0.0155388 0.948301 0)
(0.0203998 0.933 0)
(0.0334996 0.790103 0)
(0.0407751 0.728194 0)
(0.0328605 0.703551 0)
(0.0231266 0.711276 0)
(0.0131563 0.731332 0)
(0.00486676 0.756777 0)
(-0.000307761 0.782805 0)
(-0.00222601 0.806299 0)
(-0.00229611 0.826976 0)
(-0.00178527 0.843717 0)
(-0.00119815 0.856914 0)
(-0.000600541 0.867054 0)
(-0.000135498 0.873428 0)
(-7.90713e-05 0.876286 0)
(-0.000161846 0.876256 0)
(-9.56758e-05 0.873359 0)
(0.000386201 0.866991 0)
(0.00101175 0.856861 0)
(0.00160892 0.843637 0)
(0.00211408 0.826795 0)
(0.00203828 0.805916 0)
(7.79794e-05 0.78221 0)
(-0.00518566 0.75596 0)
(-0.0136547 0.730222 0)
(-0.0239759 0.70993 0)
(-0.0341809 0.702438 0)
(-0.042484 0.72814 0)
(-0.0350222 0.791003 0)
(-0.0211066 0.934929 0)
(0.0248448 0.912397 0)
(0.0454573 0.782474 0)
(0.0560349 0.732805 0)
(0.0475766 0.71428 0)
(0.0353792 0.723868 0)
(0.0222696 0.744819 0)
(0.0105398 0.769295 0)
(0.00191043 0.793495 0)
(-0.0032076 0.815185 0)
(-0.00526827 0.834421 0)
(-0.00531831 0.851667 0)
(-0.00442964 0.86666 0)
(-0.003145 0.87651 0)
(-0.00182122 0.882943 0)
(-0.000638528 0.885917 0)
(0.000509069 0.885867 0)
(0.0017197 0.882812 0)
(0.00309091 0.876354 0)
(0.00442409 0.866506 0)
(0.00535736 0.851479 0)
(0.00533628 0.834135 0)
(0.0032651 0.814731 0)
(-0.00191861 0.792898 0)
(-0.0106811 0.768562 0)
(-0.0226473 0.743936 0)
(-0.0361516 0.722875 0)
(-0.0487862 0.713561 0)
(-0.0574448 0.732821 0)
(-0.0466289 0.783031 0)
(-0.0254296 0.913372 0)
(0.0274863 0.885651 0)
(0.0531019 0.770664 0)
(0.0669852 0.736215 0)
(0.0587307 0.726335 0)
(0.0448892 0.738455 0)
(0.0296735 0.760342 0)
(0.0156555 0.784243 0)
(0.00449163 0.806998 0)
(-0.00326991 0.827036 0)
(-0.00776123 0.844686 0)
(-0.00941972 0.860471 0)
(-0.00868744 0.87428 0)
(-0.00659496 0.885111 0)
(-0.0041058 0.892365 0)
(-0.0014018 0.895683 0)
(0.00136314 0.895607 0)
(0.00407445 0.892177 0)
(0.00657887 0.884878 0)
(0.00869448 0.874025 0)
(0.00946682 0.860172 0)
(0.00785224 0.844326 0)
(0.00337603 0.82657 0)
(-0.00442748 0.80648 0)
(-0.0157167 0.783671 0)
(-0.0299665 0.759737 0)
(-0.0455566 0.737838 0)
(-0.0597326 0.725933 0)
(-0.0680789 0.736184 0)
(-0.0539328 0.771162 0)
(-0.0278851 0.886096 0)
(0.0298379 0.857071 0)
(0.0563855 0.75603 0)
(0.0711044 0.738921 0)
(0.0638874 0.739332 0)
(0.0499268 0.754937 0)
(0.0336119 0.778024 0)
(0.0182931 0.801414 0)
(0.00542276 0.822454 0)
(-0.00418593 0.840471 0)
(-0.0103065 0.856194 0)
(-0.0131093 0.870219 0)
(-0.0129768 0.882473 0)
(-0.010605 0.892251 0)
(-0.00686973 0.898886 0)
(-0.00244137 0.901958 0)
(0.00218608 0.901873 0)
(0.00661331 0.898657 0)
(0.0103593 0.891947 0)
(0.0127755 0.882132 0)
(0.0129995 0.869819 0)
(0.0103104 0.855768 0)
(0.00430212 0.83997 0)
(-0.0052533 0.821989 0)
(-0.0181898 0.800992 0)
(-0.0337073 0.777692 0)
(-0.0503446 0.754679 0)
(-0.0645828 0.739183 0)
(-0.0718933 0.738909 0)
(-0.0569904 0.756251 0)
(-0.0301513 0.857143 0)
(0.0311664 0.82434 0)
(0.0554698 0.743582 0)
(0.0685855 0.7423 0)
(0.0627583 0.752626 0)
(0.0499241 0.772801 0)
(0.0342117 0.796766 0)
(0.0188009 0.819347 0)
(0.00513805 0.838383 0)
(-0.00517882 0.85396 0)
(-0.0115787 0.867433 0)
(-0.0143568 0.879503 0)
(-0.0141217 0.890252 0)
(-0.0115903 0.899048 0)
(-0.0075467 0.90508 0)
(-0.00274025 0.907956 0)
(0.00226817 0.907874 0)
(0.00706279 0.904867 0)
(0.0111019 0.898739 0)
(0.0136729 0.889878 0)
(0.0140074 0.879026 0)
(0.0113873 0.866896 0)
(0.0052064 0.853321 0)
(-0.00490404 0.837834 0)
(-0.0185054 0.818971 0)
(-0.034039 0.796643 0)
(-0.0499898 0.772843 0)
(-0.0630528 0.752726 0)
(-0.0690451 0.742391 0)
(-0.0559143 0.743718 0)
(-0.0314426 0.82414 0)
(0.0303291 0.791966 0)
(0.0518308 0.734762 0)
(0.0619251 0.745648 0)
(0.0579128 0.765633 0)
(0.0467255 0.790063 0)
(0.0316865 0.81513 0)
(0.0152858 0.836627 0)
(0.00100329 0.852562 0)
(-0.00852336 0.864691 0)
(-0.0132852 0.875379 0)
(-0.014561 0.885648 0)
(-0.0133928 0.895267 0)
(-0.0105791 0.903347 0)
(-0.00674854 0.909029 0)
(-0.00247215 0.911823 0)
(0.00188873 0.911732 0)
(0.00613076 0.908859 0)
(0.00991545 0.903053 0)
(0.0127162 0.894894 0)
(0.0139252 0.885116 0)
(0.0127806 0.8747 0)
(0.00828893 0.863803 0)
(-0.000837857 0.851754 0)
(-0.0148286 0.836139 0)
(-0.0312361 0.815127 0)
(-0.0464603 0.790309 0)
(-0.057862 0.765974 0)
(-0.0620522 0.745933 0)
(-0.052161 0.734983 0)
(-0.0305389 0.791552 0)
(0.028178 0.760459 0)
(0.0478714 0.72832 0)
(0.0549158 0.748864 0)
(0.0518866 0.776572 0)
(0.0412697 0.805409 0)
(0.0241392 0.832723 0)
(0.00522184 0.851746 0)
(-0.00825907 0.86265 0)
(-0.0140353 0.870254 0)
(-0.014864 0.878416 0)
(-0.0134044 0.887575 0)
(-0.0109308 0.896876 0)
(-0.00801028 0.905035 0)
(-0.00490564 0.910988 0)
(-0.0018096 0.91405 0)
(0.00122983 0.91398 0)
(0.00426807 0.910905 0)
(0.00727492 0.904824 0)
(0.0100912 0.896588 0)
(0.0124733 0.887074 0)
(0.0139311 0.877682 0)
(0.0133063 0.869114 0)
(0.00807286 0.861429 0)
(-0.00468394 0.850919 0)
(-0.0233432 0.83276 0)
(-0.0406919 0.805817 0)
(-0.0515637 0.777097 0)
(-0.0547995 0.749399 0)
(-0.0479634 0.728721 0)
(-0.0282601 0.759938 0)
(0.0251311 0.729393 0)
(0.0431867 0.722698 0)
(0.0489243 0.750969 0)
(0.045395 0.785172 0)
(0.0320014 0.819381 0)
(0.00924444 0.849647 0)
(-0.012061 0.862378 0)
(-0.0193857 0.866058 0)
(-0.0175873 0.86923 0)
(-0.0132845 0.87641 0)
(-0.00922688 0.886032 0)
(-0.00612193 0.896251 0)
(-0.00385548 0.905276 0)
(-0.00215731 0.911863 0)
(-0.000819256 0.915343 0)
(0.000361714 0.915303 0)
(0.00162795 0.91189 0)
(0.00319373 0.905221 0)
(0.00527557 0.896151 0)
(0.00815324 0.885739 0)
(0.0120047 0.875802 0)
(0.0162356 0.868007 0)
(0.0183903 0.864352 0)
(0.012257 0.860992 0)
(-0.00813569 0.849564 0)
(-0.0310445 0.820064 0)
(-0.0448189 0.785893 0)
(-0.0485953 0.751708 0)
(-0.0429774 0.723288 0)
(-0.0250062 0.728942 0)
(0.0205504 0.7009 0)
(0.0371159 0.716354 0)
(0.0423108 0.751559 0)
(0.0336687 0.793863 0)
(0.0126059 0.831981 0)
(-0.014847 0.863845 0)
(-0.0291561 0.865399 0)
(-0.0228751 0.859864 0)
(-0.0135385 0.862276 0)
(-0.00604339 0.871663 0)
(-0.00147832 0.883708 0)
(0.000714356 0.895693 0)
(0.00137416 0.905832 0)
(0.00111441 0.913085 0)
(0.000351522 0.916926 0)
(-0.000598173 0.916919 0)
(-0.00142598 0.913208 0)
(-0.00181181 0.905931 0)
(-0.00134886 0.895833 0)
(0.000571276 0.88375 0)
(0.00477392 0.871434 0)
(0.0118753 0.861365 0)
(0.0210662 0.857929 0)
(0.0279927 0.862906 0)
(0.0158229 0.863181 0)
(-0.011376 0.83297 0)
(-0.0328342 0.794786 0)
(-0.0417416 0.752433 0)
(-0.0366975 0.71707 0)
(-0.0202786 0.700697 0)
(0.0151161 0.67639 0)
(0.0302888 0.709702 0)
(0.0288818 0.753431 0)
(0.00988043 0.804942 0)
(-0.0196372 0.846671 0)
(-0.0378258 0.871075 0)
(-0.0281945 0.85423 0)
(-0.012444 0.846657 0)
(-0.000937841 0.854398 0)
(0.00542303 0.868383 0)
(0.00785779 0.883287 0)
(0.00785435 0.896864 0)
(0.00641976 0.907907 0)
(0.00414723 0.915679 0)
(0.00143474 0.919745 0)
(-0.00143017 0.919779 0)
(-0.00418935 0.915866 0)
(-0.00655308 0.908137 0)
(-0.0081376 0.897188 0)
(-0.00836102 0.883597 0)
(-0.00626426 0.868576 0)
(-0.000418587 0.854094 0)
(0.0105003 0.84524 0)
(0.0258227 0.851074 0)
(0.037219 0.86887 0)
(0.0207545 0.847934 0)
(-0.00879869 0.805975 0)
(-0.0279875 0.754595 0)
(-0.0297435 0.710523 0)
(-0.0148374 0.676487 0)
(0.0111243 0.657238 0)
(0.01746 0.70423 0)
(0.00271272 0.760176 0)
(-0.0222748 0.820645 0)
(-0.0476562 0.856038 0)
(-0.0363427 0.854168 0)
(-0.00967854 0.834224 0)
(0.00630281 0.835909 0)
(0.0142829 0.850809 0)
(0.0167262 0.868509 0)
(0.0160314 0.885291 0)
(0.013629 0.899876 0)
(0.0102882 0.911489 0)
(0.00640811 0.919572 0)
(0.00224953 0.923767 0)
(-0.00200431 0.92382 0)
(-0.00619302 0.919796 0)
(-0.010128 0.911803 0)
(-0.0135563 0.900284 0)
(-0.0160892 0.885742 0)
(-0.0170106 0.868924 0)
(-0.0150118 0.851014 0)
(-0.00778737 0.835403 0)
(0.00719265 0.83177 0)
(0.0335179 0.850439 0)
(0.0475543 0.855907 0)
(0.0237093 0.821653 0)
(-0.00158385 0.761356 0)
(-0.0168726 0.705293 0)
(-0.0109846 0.657618 0)
(0.00356712 0.642723 0)
(-0.00389641 0.7098 0)
(-0.0277638 0.773034 0)
(-0.0505118 0.830038 0)
(-0.0466346 0.844304 0)
(-0.0129049 0.823959 0)
(0.0130752 0.819349 0)
(0.0238621 0.832229 0)
(0.0263817 0.851688 0)
(0.0249337 0.871314 0)
(0.0216041 0.889031 0)
(0.0173285 0.904056 0)
(0.0126 0.915864 0)
(0.0076778 0.923986 0)
(0.00271147 0.928167 0)
(-0.00226193 0.928222 0)
(-0.00724552 0.924229 0)
(-0.0121942 0.916201 0)
(-0.0169662 0.904508 0)
(-0.0213055 0.889536 0)
(-0.0247637 0.871831 0)
(-0.0264884 0.852156 0)
(-0.024544 0.832376 0)
(-0.0146812 0.818331 0)
(0.00952998 0.820586 0)
(0.0443133 0.841873 0)
(0.0511191 0.8303 0)
(0.0286848 0.774518 0)
(0.00456687 0.711252 0)
(-0.00326865 0.64327 0)
(-0.0103485 0.638239 0)
(-0.0194834 0.724907 0)
(-0.0512818 0.784707 0)
(-0.050359 0.820607 0)
(-0.0182687 0.813017 0)
(0.0165538 0.801294 0)
(0.0320483 0.813663 0)
(0.0359037 0.833496 0)
(0.0338613 0.855217 0)
(0.0296582 0.875726 0)
(0.0244355 0.893736 0)
(0.0187694 0.908694 0)
(0.0131082 0.920209 0)
(0.00773874 0.927981 0)
(0.00272768 0.931875 0)
(-0.00211967 0.931945 0)
(-0.00713384 0.928221 0)
(-0.0125032 0.920553 0)
(-0.0181757 0.909157 0)
(-0.0238807 0.89425 0)
(-0.0291747 0.876278 0)
(-0.0335216 0.855806 0)
(-0.0358358 0.833909 0)
(-0.0327224 0.813545 0)
(-0.0184949 0.800105 0)
(0.0145367 0.808798 0)
(0.0486199 0.819686 0)
(0.0513913 0.785458 0)
(0.0198116 0.726399 0)
(0.0108341 0.639325 0)
(-0.0226739 0.649821 0)
(-0.0341191 0.738484 0)
(-0.0523545 0.782222 0)
(-0.0222046 0.79345 0)
(0.0175647 0.782739 0)
(0.0386309 0.793078 0)
(0.0442863 0.814112 0)
(0.0423731 0.837476 0)
(0.0374656 0.860289 0)
(0.031226 0.881082 0)
(0.0243537 0.898943 0)
(0.0174491 0.913285 0)
(0.011206 0.923814 0)
(0.00610531 0.930588 0)
(0.0021118 0.933842 0)
(-0.00141051 0.933924 0)
(-0.00538563 0.930794 0)
(-0.0104384 0.92413 0)
(-0.0166563 0.913708 0)
(-0.0235946 0.899465 0)
(-0.0305186 0.881621 0)
(-0.0368507 0.860942 0)
(-0.041896 0.837962 0)
(-0.0441256 0.814356 0)
(-0.0393448 0.792799 0)
(-0.0198582 0.78094 0)
(0.018409 0.790415 0)
(0.051223 0.782128 0)
(0.0344164 0.739562 0)
(0.0230042 0.651371 0)
(-0.0237084 0.675106 0)
(-0.0362254 0.743642 0)
(-0.0254544 0.7621 0)
(0.0168885 0.760579 0)
(0.0423757 0.771631 0)
(0.0510712 0.792773 0)
(0.0499564 0.817883 0)
(0.0449355 0.843013 0)
(0.0377983 0.866425 0)
(0.0294078 0.887286 0)
(0.0205015 0.904536 0)
(0.0122466 0.917453 0)
(0.00589018 0.926082 0)
(0.00217215 0.931112 0)
(0.000677873 0.933364 0)
(1.6368e-05 0.933442 0)
(-0.00140892 0.931234 0)
(-0.00499489 0.926308 0)
(-0.0112779 0.917807 0)
(-0.0195522 0.905076 0)
(-0.0285293 0.887814 0)
(-0.0369938 0.867147 0)
(-0.04421 0.843488 0)
(-0.0493485 0.818274 0)
(-0.0508643 0.792868 0)
(-0.0433954 0.771071 0)
(-0.0192671 0.759187 0)
(0.022137 0.760011 0)
(0.0356203 0.743913 0)
(0.0236352 0.676774 0)
(-0.0201323 0.696373 0)
(-0.0175797 0.73233 0)
(0.0155362 0.732435 0)
(0.0426773 0.7478 0)
(0.0547645 0.7693 0)
(0.0556826 0.795702 0)
(0.0516828 0.823218 0)
(0.0444129 0.849682 0)
(0.0346826 0.87384 0)
(0.0231709 0.894742 0)
(0.0114534 0.910617 0)
(0.00199141 0.920961 0)
(-0.00322069 0.926656 0)
(-0.00386088 0.929118 0)
(-0.00143176 0.929935 0)
(0.00198937 0.930036 0)
(0.00455935 0.929059 0)
(0.00415615 0.926756 0)
(-0.000889207 0.921174 0)
(-0.0103049 0.911158 0)
(-0.0221253 0.895267 0)
(-0.0337037 0.874621 0)
(-0.043489 0.850156 0)
(-0.0508598 0.823641 0)
(-0.0550679 0.795973 0)
(-0.0546763 0.769318 0)
(-0.0437905 0.747368 0)
(-0.0175918 0.73154 0)
(0.0152642 0.730881 0)
(0.0197724 0.697716 0)
(-0.00385396 0.711566 0)
(0.012722 0.70878 0)
(0.040809 0.720633 0)
(0.054717 0.743127 0)
(0.0582968 0.770087 0)
(0.0565833 0.799674 0)
(0.0506854 0.829374 0)
(0.0406811 0.857764 0)
(0.0270431 0.882975 0)
(0.0108335 0.903852 0)
(-0.00411937 0.916882 0)
(-0.0130547 0.923095 0)
(-0.0143119 0.924465 0)
(-0.010078 0.92391 0)
(-0.00347223 0.923368 0)
(0.00382307 0.92347 0)
(0.0105694 0.923595 0)
(0.0150655 0.924329 0)
(0.0141391 0.923033 0)
(0.00541104 0.917336 0)
(-0.00953126 0.904344 0)
(-0.0258016 0.883766 0)
(-0.0395678 0.858306 0)
(-0.0497496 0.829854 0)
(-0.0558431 0.800038 0)
(-0.057782 0.770352 0)
(-0.0547116 0.743131 0)
(-0.0417845 0.720326 0)
(-0.0142541 0.708096 0)
(0.00229242 0.711389 0)
(0.0149741 0.700791 0)
(0.0336093 0.696739 0)
(0.0506468 0.714383 0)
(0.057011 0.741455 0)
(0.0585736 0.771526 0)
(0.0555106 0.803858 0)
(0.0468325 0.836554 0)
(0.0321203 0.867404 0)
(0.0126215 0.893439 0)
(-0.00924354 0.914186 0)
(-0.0257368 0.921397 0)
(-0.0291862 0.921141 0)
(-0.0233303 0.91769 0)
(-0.0142383 0.915636 0)
(-0.00470534 0.914796 0)
(0.0048372 0.914846 0)
(0.0144344 0.915141 0)
(0.0236337 0.917234 0)
(0.0298574 0.920667 0)
(0.0269976 0.921615 0)
(0.0109403 0.914502 0)
(-0.0109288 0.894247 0)
(-0.0307295 0.868038 0)
(-0.0457468 0.837151 0)
(-0.0546925 0.804354 0)
(-0.0579518 0.771913 0)
(-0.0565587 0.741698 0)
(-0.0505991 0.714363 0)
(-0.0344296 0.696357 0)
(-0.0157101 0.699972 0)
(0.0215714 0.685755 0)
(0.0404788 0.687244 0)
(0.0503698 0.71035 0)
(0.0559586 0.74011 0)
(0.0571847 0.772598 0)
(0.0514064 0.808493 0)
(0.0371202 0.844803 0)
(0.0145475 0.877873 0)
(-0.0120204 0.903725 0)
(-0.0366399 0.922834 0)
(-0.0468235 0.919908 0)
(-0.0388304 0.911645 0)
(-0.0267158 0.906606 0)
(-0.01494 0.905691 0)
(-0.00476116 0.905833 0)
(0.00473731 0.905823 0)
(0.0148524 0.905219 0)
(0.0265031 0.906041 0)
(0.0387873 0.910794 0)
(0.0474441 0.919414 0)
(0.0386183 0.922703 0)
(0.014208 0.904578 0)
(-0.0126463 0.878583 0)
(-0.0356743 0.845533 0)
(-0.0503861 0.809144 0)
(-0.056491 0.773097 0)
(-0.0554417 0.740428 0)
(-0.0498933 0.710509 0)
(-0.0402992 0.687028 0)
(-0.0215185 0.684575 0)
(0.0181067 0.664044 0)
(0.0363724 0.678421 0)
(0.0463646 0.705898 0)
(0.0532727 0.73756 0)
(0.0518738 0.773859 0)
(0.0389039 0.814942 0)
(0.0147881 0.854834 0)
(-0.0165394 0.889374 0)
(-0.0458566 0.914563 0)
(-0.0609101 0.924799 0)
(-0.0528899 0.907234 0)
(-0.0369372 0.896229 0)
(-0.0227633 0.894359 0)
(-0.0119171 0.896601 0)
(-0.00366415 0.898487 0)
(0.0036538 0.898464 0)
(0.011732 0.89635 0)
(0.0222739 0.894015 0)
(0.0362701 0.895366 0)
(0.0524383 0.905908 0)
(0.0618826 0.923807 0)
(0.048094 0.91531 0)
(0.0191222 0.890225 0)
(-0.0127635 0.855765 0)
(-0.0374154 0.815746 0)
(-0.0508772 0.774548 0)
(-0.0527013 0.737904 0)
(-0.0458624 0.706033 0)
(-0.0357119 0.678204 0)
(-0.0176283 0.662823 0)
(0.0128163 0.643304 0)
(0.0296919 0.668046 0)
(0.042396 0.699569 0)
(0.0462691 0.734442 0)
(0.0361843 0.778352 0)
(0.0122592 0.825667 0)
(-0.0218274 0.869057 0)
(-0.0535727 0.902951 0)
(-0.0711044 0.919008 0)
(-0.0628815 0.908679 0)
(-0.0406384 0.88767 0)
(-0.0247604 0.881574 0)
(-0.0135663 0.885257 0)
(-0.0065549 0.890759 0)
(-0.00185956 0.89414 0)
(0.00204093 0.894152 0)
(0.00653282 0.890779 0)
(0.0131859 0.88528 0)
(0.0239346 0.881192 0)
(0.03952 0.886342 0)
(0.0619651 0.906554 0)
(0.0722349 0.918475 0)
(0.0560185 0.903974 0)
(0.0245503 0.870182 0)
(-0.0100692 0.826763 0)
(-0.0348032 0.779335 0)
(-0.0454786 0.734938 0)
(-0.041959 0.699577 0)
(-0.0292031 0.667751 0)
(-0.0124615 0.642323 0)
(0.00955021 0.625055 0)
(0.026138 0.657063 0)
(0.035863 0.691953 0)
(0.0297471 0.735974 0)
(0.00749084 0.788175 0)
(-0.0264868 0.841992 0)
(-0.0612912 0.884661 0)
(-0.0777037 0.907398 0)
(-0.0696656 0.905671 0)
(-0.043672 0.882564 0)
(-0.0203311 0.871354 0)
(-0.00895274 0.873047 0)
(-0.0032615 0.881337 0)
(-0.000839979 0.889014 0)
(5.27782e-05 0.893244 0)
(0.000433325 0.893327 0)
(0.00114864 0.889271 0)
(0.00324859 0.881731 0)
(0.00846941 0.873241 0)
(0.0192386 0.870659 0)
(0.0418619 0.880703 0)
(0.0684098 0.903504 0)
(0.0787855 0.907326 0)
(0.0637845 0.885745 0)
(0.029301 0.843535 0)
(-0.00559953 0.789684 0)
(-0.0284389 0.736773 0)
(-0.0351413 0.691977 0)
(-0.0259054 0.656785 0)
(-0.00936197 0.624359 0)
(0.00888391 0.609471 0)
(0.0223541 0.646247 0)
(0.0208378 0.688707 0)
(0.00145693 0.744731 0)
(-0.0315162 0.805289 0)
(-0.0675689 0.859976 0)
(-0.0832743 0.890171 0)
(-0.0737003 0.894476 0)
(-0.0464574 0.879943 0)
(-0.0159602 0.860891 0)
(-0.000344279 0.862348 0)
(0.00499407 0.871038 0)
(0.0054396 0.882022 0)
(0.0039148 0.890689 0)
(0.00166284 0.895362 0)
(-0.000827215 0.895511 0)
(-0.00321198 0.89114 0)
(-0.00498633 0.882714 0)
(-0.00494758 0.871711 0)
(-0.000231084 0.862468 0)
(0.0141869 0.860004 0)
(0.0440759 0.877453 0)
(0.0725111 0.892762 0)
(0.0841476 0.890191 0)
(0.0699057 0.861526 0)
(0.0339642 0.807192 0)
(0.000190989 0.745901 0)
(-0.0196404 0.689165 0)
(-0.0218267 0.64605 0)
(-0.00886153 0.609024 0)
(0.00780119 0.594474 0)
(0.0110815 0.639827 0)
(-0.0055503 0.693445 0)
(-0.0340956 0.762705 0)
(-0.0720322 0.824941 0)
(-0.0874665 0.865334 0)
(-0.0762521 0.875661 0)
(-0.0479396 0.869311 0)
(-0.0122373 0.853064 0)
(0.00905045 0.849681 0)
(0.0150935 0.860885 0)
(0.0148037 0.87372 0)
(0.0114157 0.885774 0)
(0.00722584 0.894653 0)
(0.00283077 0.8994 0)
(-0.0016346 0.899583 0)
(-0.00612854 0.895258 0)
(-0.0105098 0.886682 0)
(-0.0142014 0.874751 0)
(-0.0150744 0.86168 0)
(-0.0099037 0.850019 0)
(0.00972942 0.851254 0)
(0.04524 0.866874 0)
(0.0747119 0.874387 0)
(0.087995 0.86576 0)
(0.0741666 0.827 0)
(0.0361422 0.764319 0)
(0.00698594 0.694193 0)
(-0.0100778 0.640232 0)
(-0.00751256 0.594149 0)
(0.000194999 0.582029 0)
(-0.00796999 0.646847 0)
(-0.0354774 0.7103 0)
(-0.0696269 0.783377 0)
(-0.0884271 0.831627 0)
(-0.0771969 0.849782 0)
(-0.0476609 0.849407 0)
(-0.00902108 0.840501 0)
(0.0175972 0.837505 0)
(0.0255542 0.84881 0)
(0.0247249 0.864358 0)
(0.0202707 0.878787 0)
(0.0146959 0.890905 0)
(0.00905383 0.899566 0)
(0.00352414 0.904182 0)
(-0.00196667 0.904401 0)
(-0.00757231 0.90031 0)
(-0.0133793 0.891993 0)
(-0.0191964 0.880084 0)
(-0.0240845 0.865612 0)
(-0.025624 0.84992 0)
(-0.0188661 0.837575 0)
(0.00565405 0.83847 0)
(0.0442623 0.847533 0)
(0.0751915 0.848593 0)
(0.0887753 0.832325 0)
(0.0718512 0.785332 0)
(0.0372766 0.711378 0)
(0.00901692 0.647945 0)
(0.000363943 0.582087 0)
(-0.0131273 0.580635 0)
(-0.0241686 0.66488 0)
(-0.0633395 0.731238 0)
(-0.0811311 0.792308 0)
(-0.0737483 0.817269 0)
(-0.0441615 0.823069 0)
(-0.00422673 0.819323 0)
(0.0246826 0.822786 0)
(0.0348695 0.836274 0)
(0.0341058 0.853292 0)
(0.0287123 0.870025 0)
(0.0220685 0.884549 0)
(0.0154378 0.896092 0)
(0.00932499 0.904129 0)
(0.00368231 0.908419 0)
(-0.00177358 0.908629 0)
(-0.00746328 0.905001 0)
(-0.0137139 0.897324 0)
(-0.0205567 0.886083 0)
(-0.027557 0.871601 0)
(-0.0335041 0.85486 0)
(-0.0351816 0.837341 0)
(-0.0265016 0.822946 0)
(0.000165652 0.817861 0)
(0.0402153 0.821231 0)
(0.0713375 0.815905 0)
(0.0814811 0.793046 0)
(0.0655343 0.732742 0)
(0.0252069 0.666515 0)
(0.013782 0.581383 0)
(-0.0238722 0.596181 0)
(-0.0388278 0.686995 0)
(-0.0734109 0.743973 0)
(-0.0633184 0.78177 0)
(-0.0369581 0.791892 0)
(0.00346034 0.793143 0)
(0.0312783 0.802931 0)
(0.0421968 0.821485 0)
(0.0419571 0.841041 0)
(0.035904 0.859662 0)
(0.0280681 0.876285 0)
(0.0202269 0.889968 0)
(0.0132963 0.90021 0)
(0.00767146 0.907052 0)
(0.00312773 0.910725 0)
(-0.000924722 0.910856 0)
(-0.00545316 0.907994 0)
(-0.011127 0.901477 0)
(-0.0182438 0.891713 0)
(-0.0264827 0.878138 0)
(-0.0348178 0.861603 0)
(-0.0415712 0.842617 0)
(-0.0428954 0.822816 0)
(-0.0333975 0.803544 0)
(-0.00754751 0.791956 0)
(0.0326995 0.789854 0)
(0.0606363 0.780027 0)
(0.0735507 0.744532 0)
(0.0398526 0.689201 0)
(0.0242978 0.597867 0)
(-0.0256243 0.625026 0)
(-0.0465243 0.705128 0)
(-0.0553223 0.737148 0)
(-0.0260081 0.758881 0)
(0.0117074 0.763899 0)
(0.0375951 0.779736 0)
(0.0481932 0.802751 0)
(0.0478869 0.82615 0)
(0.0415262 0.847765 0)
(0.0324401 0.866684 0)
(0.0227102 0.882324 0)
(0.0139469 0.894183 0)
(0.00735428 0.902327 0)
(0.00342866 0.907462 0)
(0.00160049 0.910231 0)
(0.000675263 0.91028 0)
(-0.000958371 0.90838 0)
(-0.00466887 0.90348 0)
(-0.0113685 0.89608 0)
(-0.0205954 0.88443 0)
(-0.0309426 0.869012 0)
(-0.0407738 0.849734 0)
(-0.0478848 0.827994 0)
(-0.0490552 0.804117 0)
(-0.0396323 0.78038 0)
(-0.0154135 0.76283 0)
(0.0217469 0.756668 0)
(0.0520609 0.735426 0)
(0.0465299 0.706583 0)
(0.0260704 0.627041 0)
(-0.0269055 0.654685 0)
(-0.0364859 0.704778 0)
(-0.016884 0.717457 0)
(0.018476 0.733715 0)
(0.042517 0.753611 0)
(0.0529295 0.780129 0)
(0.0526992 0.807369 0)
(0.0460835 0.832923 0)
(0.035681 0.855441 0)
(0.0233929 0.873978 0)
(0.0114872 0.887784 0)
(0.00238881 0.896924 0)
(-0.00245811 0.902552 0)
(-0.00307752 0.905546 0)
(-0.000808045 0.907077 0)
(0.00250026 0.906984 0)
(0.00530509 0.906049 0)
(0.0054438 0.90337 0)
(0.000904351 0.898762 0)
(-0.00857184 0.890101 0)
(-0.0213952 0.876718 0)
(-0.0346189 0.857835 0)
(-0.0457443 0.835043 0)
(-0.0529032 0.809029 0)
(-0.0537732 0.781166 0)
(-0.0443653 0.753868 0)
(-0.0215185 0.732647 0)
(0.0126359 0.71563 0)
(0.0341583 0.703007 0)
(0.026791 0.6569 0)
(-0.0128627 0.681057 0)