/*--------------------------------*- C++ -*----------------------------------*\
| =========                 |                                                 |
| \\      /  F ield         | OpenFOAM: The Open Source CFD Toolbox           |
|  \\    /   O peration     | Version:  v1606+                                |
|   \\  /    A nd           | Web:      www.OpenFOAM.com                      |
|    \\/     M anipulation  |                                                 |
\*---------------------------------------------------------------------------*/
FoamFile
{
    version     2.0;
    format      ascii;
    class       surfaceScalarField;
    location    "0.4";
    object      phi;
}
// * * * * * * * * * * * * * * * * * * * * * * * * * * * * * * * * * * * * * //

dimensions      [0 3 -1 0 0 0 0];

internalField   nonuniform List<scalar> 
1460
(
-3.49286e-07
1.74071e-06
4.77678e-07
-1.53958e-07
1.7279e-06
9.58493e-08
1.60784e-06
3.51567e-07
1.32911e-06
5.31899e-07
8.73144e-07
5.75733e-07
2.58613e-07
4.59284e-07
-4.24822e-07
2.29964e-07
-1.07627e-06
-4.1927e-08
-1.5906e-06
-3.42699e-07
-1.89499e-06
-6.01678e-07
-2.10597e-06
-2.41643e-06
5.25725e-09
1.57708e-06
1.5837e-07
1.73934e-07
1.55922e-06
3.57842e-07
1.42394e-06
5.33555e-07
1.15339e-06
6.63299e-07
7.434e-07
7.04966e-07
2.16946e-07
6.43146e-07
-3.63002e-07
4.79682e-07
-9.12808e-07
2.34409e-07
-1.34533e-06
-7.20589e-08
-1.58852e-06
-5.12335e-07
-1.6657e-06
-2.14254e-06
1.52519e-07
1.36404e-06
6.05188e-08
3.60074e-07
1.35166e-06
5.50718e-07
1.23329e-06
7.10581e-07
9.9353e-07
8.20128e-07
6.33853e-07
8.55769e-07
1.81306e-07
7.99965e-07
-3.07198e-07
6.44954e-07
-7.57796e-07
3.91716e-07
-1.09209e-06
3.92189e-08
-1.23603e-06
-4.82003e-07
-1.14447e-06
-1.64078e-06
1.4115e-07
6.32291e-08
1.15966e-06
3.51853e-07
1.14096e-06
5.49754e-07
1.03539e-06
7.12224e-07
8.3106e-07
8.17755e-07
5.28322e-07
8.46639e-07
1.52422e-07
7.88541e-07
-2.491e-07
6.37897e-07
-6.07152e-07
4.01266e-07
-8.55459e-07
9.68001e-08
-9.31561e-07
-2.838e-07
-7.63874e-07
-1.02948e-06
-2.79136e-07
-2.45125e-06
-5.44132e-07
-1.10523e-06
-9.04603e-07
-6.88535e-07
-1.06653e-06
-5.50388e-07
-1.13331e-06
-2.37338e-07
-1.12413e-06
1.23021e-07
-1.04422e-06
4.72366e-07
-9.17056e-07
7.94629e-07
-7.78096e-07
1.08659e-06
-6.57874e-07
1.33821e-06
-5.64148e-07
1.53712e-06
1.67362e-06
-4.73991e-07
-3.97848e-07
-2.83945e-06
-3.93554e-07
-1.10952e-06
-7.01012e-07
-3.81078e-07
-8.97755e-07
-3.53645e-07
-9.75214e-07
-1.5988e-07
-9.82201e-07
1.30008e-07
-9.28303e-07
4.18468e-07
-8.24359e-07
6.90685e-07
-6.78299e-07
9.40525e-07
-5.06098e-07
1.16601e-06
-3.27334e-07
1.35836e-06
1.50244e-06
-1.5616e-07
-6.32708e-07
-3.19042e-06
-4.93204e-07
-1.24903e-06
-6.5839e-07
-2.15892e-07
-7.98616e-07
-2.13419e-07
-8.52496e-07
-1.06e-07
-8.52154e-07
1.29665e-07
-8.06608e-07
3.72922e-07
-7.23643e-07
6.0772e-07
-6.04942e-07
8.21824e-07
-4.51064e-07
1.01213e-06
-2.65507e-07
1.1728e-06
1.29552e-06
-5.85831e-08
-7.35366e-07
-3.35017e-06
-6.9902e-07
-1.28537e-06
-7.04241e-07
-2.1067e-07
-7.41808e-07
-1.75851e-07
-7.61415e-07
-8.63932e-08
-7.49662e-07
1.17912e-07
-7.0529e-07
3.28551e-07
-6.31102e-07
5.33532e-07
-5.29816e-07
7.20538e-07
-4.01394e-07
8.83708e-07
-2.45004e-07
1.01641e-06
-6.11987e-08
1.11171e-06
-3.45877e-07
1.74103e-06
-1.5054e-07
1.72749e-06
9.87921e-08
1.60611e-06
3.53435e-07
1.32552e-06
5.32806e-07
8.67265e-07
5.75243e-07
2.52385e-07
4.58826e-07
-4.31612e-07
2.28696e-07
-1.08055e-06
-4.34224e-08
-1.59333e-06
-3.44555e-07
-1.89584e-06
-6.042e-07
-2.10584e-06
-2.4166e-06
-5.95889e-07
8.17317e-09
1.5767e-06
1.77526e-07
1.55813e-06
3.60855e-07
1.42278e-06
5.36105e-07
1.15027e-06
6.64986e-07
7.38384e-07
7.05979e-07
2.11392e-07
6.42998e-07
-3.68631e-07
4.78768e-07
-9.16317e-07
2.33098e-07
-1.34766e-06
-7.41797e-08
-1.58856e-06
-5.15651e-07
-1.66437e-06
-2.14189e-06
-7.90362e-07
1.55427e-07
1.36269e-06
3.62925e-07
1.35064e-06
5.53434e-07
1.23227e-06
7.1299e-07
9.90718e-07
8.21839e-07
6.29535e-07
8.5663e-07
1.76601e-07
7.99642e-07
-3.11642e-07
6.44102e-07
-7.60778e-07
3.90117e-07
-1.09367e-06
3.72099e-08
-1.23565e-06
-4.85077e-07
-1.14208e-06
-1.63914e-06
-9.87826e-07
1.43374e-07
1.15811e-06
3.53916e-07
1.14009e-06
5.51701e-07
1.03449e-06
7.13962e-07
8.28458e-07
8.18796e-07
5.247e-07
8.46815e-07
1.48582e-07
7.87802e-07
-2.52629e-07
6.36512e-07
-6.09488e-07
3.99543e-07
-8.56705e-07
9.49663e-08
-9.31077e-07
-2.85817e-07
-7.61302e-07
-8.97815e-07
-1.02714e-06
-2.82017e-07
-2.45356e-06
-5.4629e-07
-1.10749e-06
-9.06518e-07
-6.90087e-07
-1.06836e-06
-5.52112e-07
-1.13528e-06
-2.39108e-07
-1.12627e-06
1.21284e-07
-1.04666e-06
4.71021e-07
-9.19647e-07
7.93753e-07
-7.80974e-07
1.08662e-06
-6.61263e-07
1.33931e-06
-5.67974e-07
1.53882e-06
1.67423e-06
-4.01011e-07
-2.84291e-06
-3.96447e-07
-1.11205e-06
-7.0324e-07
-3.83293e-07
-8.99741e-07
-3.55612e-07
-9.77154e-07
-1.61694e-07
-9.84441e-07
1.28571e-07
-9.30584e-07
4.17164e-07
-8.26837e-07
6.90006e-07
-6.80868e-07
9.40654e-07
-5.08628e-07
1.16707e-06
-3.29639e-07
1.35983e-06
1.50296e-06
-6.36241e-07
-3.19449e-06
-4.96529e-07
-1.25177e-06
-6.60828e-07
-2.18994e-07
-8.00682e-07
-2.15758e-07
-8.5455e-07
-1.07827e-07
-8.5421e-07
1.28231e-07
-8.08731e-07
3.71685e-07
-7.25891e-07
6.07167e-07
-6.07145e-07
8.21908e-07
-4.52955e-07
1.01288e-06
-2.6705e-07
1.17393e-06
1.29643e-06
-7.37919e-07
-3.35439e-06
-7.01517e-07
-1.28817e-06
-7.06383e-07
-2.14127e-07
-7.43711e-07
-1.7843e-07
-7.63296e-07
-8.82412e-08
-7.51606e-07
1.16541e-07
-7.07378e-07
3.27457e-07
-6.33214e-07
5.33003e-07
-5.31888e-07
7.20581e-07
-4.03287e-07
8.84279e-07
-2.46759e-07
1.0174e-06
1.1129e-06
1.03796e-07
9.89985e-07
6.58836e-08
2.81892e-07
9.62865e-07
4.52109e-07
8.65175e-07
5.94349e-07
6.8882e-07
6.86597e-07
4.36073e-07
7.10883e-07
1.28137e-07
6.61197e-07
-1.99414e-07
5.37047e-07
-4.83002e-07
3.52295e-07
-6.70707e-07
1.50241e-07
-7.29507e-07
8.19393e-08
-6.95572e-07
-9.47545e-07
8.47945e-08
8.46873e-07
5.83167e-08
2.3091e-07
8.1675e-07
3.68424e-07
7.27661e-07
4.82714e-07
5.7453e-07
5.57176e-07
3.61611e-07
5.78321e-07
1.06993e-07
5.39473e-07
-1.60567e-07
4.46378e-07
-3.89906e-07
3.1458e-07
-5.3891e-07
1.76434e-07
-5.91361e-07
9.73825e-08
-6.1652e-07
-8.50163e-07
7.37925e-08
7.21632e-07
5.14493e-08
1.98489e-07
6.92053e-07
3.13834e-07
6.12316e-07
4.08397e-07
4.79967e-07
4.68883e-07
3.01125e-07
4.85696e-07
9.01804e-08
4.55277e-07
-1.30148e-07
3.84092e-07
-3.18721e-07
2.89592e-07
-4.44411e-07
1.96801e-07
-4.98569e-07
1.21199e-07
-5.40918e-07
-7.28964e-07
6.38832e-08
6.10528e-07
4.72209e-08
1.72976e-07
5.82961e-07
2.73252e-07
5.1204e-07
3.53544e-07
3.99675e-07
4.045e-07
2.50168e-07
4.19161e-07
7.552e-08
3.94445e-07
-1.05432e-07
3.37319e-07
-2.61595e-07
2.6391e-07
-3.71001e-07
1.93762e-07
-4.28421e-07
1.19813e-07
-4.66969e-07
-6.0915e-07
5.47291e-08
5.11355e-07
4.44435e-08
1.51842e-07
4.85848e-07
2.39572e-07
4.24309e-07
3.09155e-07
3.30093e-07
3.54178e-07
2.05145e-07
3.675e-07
6.21973e-08
3.47533e-07
-8.54648e-08
3.00336e-07
-2.14398e-07
2.38334e-07
-3.09e-07
1.75351e-07
-3.65438e-07
1.04804e-07
-3.96422e-07
-5.04347e-07
4.64289e-08
4.22346e-07
4.258e-08
1.3418e-07
3.98097e-07
2.11582e-07
3.46908e-07
2.74115e-07
2.6756e-07
3.13365e-07
1.65895e-07
3.26493e-07
4.90695e-08
3.10821e-07
-6.97925e-08
2.7138e-07
-1.74957e-07
2.16509e-07
-2.54129e-07
1.56794e-07
-3.05723e-07
9.07431e-08
-3.30371e-07
-4.13604e-07
4.01062e-08
3.41042e-07
4.11979e-08
1.19607e-07
3.18597e-07
1.89495e-07
2.77019e-07
2.45301e-07
2.11754e-07
2.81704e-07
1.29492e-07
2.93775e-07
3.69979e-08
2.81609e-07
-5.76263e-08
2.47826e-07
-1.41175e-07
1.99173e-07
-2.05475e-07
1.42821e-07
-2.49372e-07
8.11715e-08
-2.68721e-07
-3.32432e-07
3.52853e-08
2.65557e-07
4.02e-08
1.07554e-07
2.46328e-07
1.72455e-07
2.12118e-07
2.23323e-07
1.60886e-07
2.56153e-07
9.66619e-08
2.68508e-07
2.46431e-08
2.58326e-07
-4.74445e-08
2.29148e-07
-1.11997e-07
1.85219e-07
-1.61545e-07
1.32522e-07
-1.96675e-07
7.47273e-08
-2.10926e-07
-2.57705e-07
3.11208e-08
1.94752e-07
3.96844e-08
9.84922e-08
1.78957e-07
1.58791e-07
1.51819e-07
2.06407e-07
1.13271e-07
2.37339e-07
6.57293e-08
2.48692e-07
1.32903e-08
2.40733e-07
-3.94855e-08
2.14662e-07
-8.59253e-08
1.74556e-07
-1.21439e-07
1.25082e-07
-1.47201e-07
7.02827e-08
-1.56127e-07
-1.87422e-07
2.86547e-08
1.26674e-07
3.94232e-08
9.32986e-08
1.14313e-07
1.50872e-07
9.42458e-08
1.96348e-07
6.7795e-08
2.26e-07
3.60771e-08
2.37537e-07
1.75367e-09
2.30309e-07
-3.22573e-08
2.06472e-07
-6.20882e-08
1.69079e-07
-8.40466e-08
1.21533e-07
-9.96551e-08
6.82137e-08
-1.02808e-07
-1.19208e-07
4.50128e-08
5.80442e-08
2.36167e-08
1.09824e-07
4.95014e-08
1.661e-07
3.79704e-08
2.09521e-07
2.43735e-08
2.36983e-07
8.61514e-09
2.46486e-07
-7.74952e-09
2.37733e-07
-2.3504e-08
2.1251e-07
-3.6865e-08
1.73401e-07
-4.49375e-08
1.23742e-07
-4.99959e-08
6.84543e-08
-4.75204e-08
-5.0754e-08
1.40866e-07
-8.28218e-08
1.90367e-07
2.28338e-07
2.52711e-07
2.61326e-07
2.53577e-07
2.30073e-07
1.93208e-07
1.4827e-07
9.82744e-08
5.0754e-08
-6.84545e-07
-2.66563e-06
-8.22218e-07
-1.1477e-06
-7.34006e-07
-2.98882e-07
-6.88316e-07
-2.21541e-07
-6.837e-07
-9.10095e-08
-6.65047e-07
9.92591e-08
-6.22605e-07
2.86108e-07
-5.55042e-07
4.6597e-07
-4.63959e-07
6.29455e-07
-3.50912e-07
7.70661e-07
-2.17275e-07
8.82774e-07
9.58513e-07
-6.40749e-08
-6.02975e-07
-2.06265e-06
-7.41721e-07
-1.00896e-06
-6.5847e-07
-3.82134e-07
-6.21802e-07
-2.58208e-07
-6.14117e-07
-9.86944e-08
-5.93745e-07
7.88874e-08
-5.54069e-07
2.46432e-07
-4.92698e-07
4.04598e-07
-4.103e-07
5.47057e-07
-3.08644e-07
6.69005e-07
-1.89785e-07
7.63915e-07
8.2549e-07
-5.67628e-08
-4.67131e-07
-1.59552e-06
-6.07212e-07
-8.68875e-07
-5.66196e-07
-4.2315e-07
-5.55609e-07
-2.68795e-07
-5.51731e-07
-1.02573e-07
-5.33001e-07
6.01578e-08
-4.96713e-07
2.10145e-07
-4.41018e-07
3.48902e-07
-3.66569e-07
4.72608e-07
-2.74952e-07
5.77388e-07
-1.68274e-07
6.57237e-07
7.07226e-07
-5.00097e-08
-3.4751e-07
-1.24801e-06
-4.80476e-07
-7.35909e-07
-4.85151e-07
-4.18476e-07
-4.95287e-07
-2.58659e-07
-4.96525e-07
-1.01335e-07
-4.81178e-07
4.48115e-08
-4.4857e-07
1.77536e-07
-3.98173e-07
2.98505e-07
-3.30721e-07
4.05157e-07
-2.47685e-07
4.94352e-07
-1.51607e-07
5.61159e-07
6.01448e-07
-4.58298e-08
-2.65371e-07
-9.82639e-07
-3.87012e-07
-6.14268e-07
-4.20043e-07
-3.85444e-07
-4.42755e-07
-2.35947e-07
-4.48898e-07
-9.5191e-08
-4.37173e-07
3.30857e-08
-4.08307e-07
1.48671e-07
-3.62661e-07
2.52859e-07
-3.01175e-07
3.43671e-07
-2.25549e-07
4.18726e-07
-1.3842e-07
4.7403e-07
5.06127e-07
-4.30989e-08
-2.1074e-07
-7.719e-07
-3.20909e-07
-5.04099e-07
-3.68741e-07
-3.37612e-07
-3.98391e-07
-2.06297e-07
-4.08428e-07
-8.51537e-08
-4.00022e-07
2.46797e-08
-3.74531e-07
1.23179e-07
-3.3307e-07
2.11398e-07
-2.76841e-07
2.87443e-07
-2.07584e-07
3.49469e-07
-1.27941e-07
3.94387e-07
4.1948e-07
-4.12939e-08
-1.73719e-07
-5.98181e-07
-2.73815e-07
-4.04003e-07
-3.28357e-07
-2.83069e-07
-3.61716e-07
-1.72938e-07
-3.74543e-07
-7.23271e-08
-3.6881e-07
1.89465e-08
-3.4653e-07
1.00899e-07
-3.08613e-07
1.73481e-07
-2.56819e-07
2.35649e-07
-1.92909e-07
2.8556e-07
-1.19441e-07
3.20919e-07
3.40023e-07
-3.99847e-08
-1.47867e-07
-4.50314e-07
-2.39584e-07
-3.12285e-07
-2.96806e-07
-2.25847e-07
-3.31933e-07
-1.37811e-07
-3.46649e-07
-5.76112e-08
-3.43172e-07
1.54698e-08
-3.23348e-07
8.10742e-08
-2.88464e-07
1.38598e-07
-2.40441e-07
1.87626e-07
-1.81015e-07
2.26134e-07
-1.12735e-07
2.5264e-07
2.66351e-07
-3.90629e-08
-1.30094e-07
-3.2022e-07
-2.15335e-07
-2.27045e-07
-2.73219e-07
-1.67962e-07
-3.09137e-07
-1.01894e-07
-3.25162e-07
-4.15868e-08
-3.23291e-07
1.35995e-08
-3.05491e-07
6.32735e-08
-2.73274e-07
1.06381e-07
-2.28123e-07
1.42474e-07
-1.72125e-07
1.70136e-07
-1.07838e-07
1.88352e-07
1.9709e-07
-3.85769e-08
-1.19728e-07
-2.00493e-07
-2.01455e-07
-1.45317e-07
-2.60217e-07
-1.092e-07
-2.97181e-07
-6.49303e-08
-3.14547e-07
-2.42203e-08
-3.14092e-07
1.31449e-08
-2.97569e-07
4.67499e-08
-2.66565e-07
7.53778e-08
-2.22635e-07
9.85443e-08
-1.68052e-07
1.15553e-07
-1.05485e-07
1.25786e-07
1.2996e-07
-3.8355e-08
-1.15341e-07
-8.51519e-08
-1.97514e-07
-6.31433e-08
-2.58897e-07
-4.78173e-08
-2.9754e-07
-2.6287e-08
-3.15532e-07
-6.22857e-09
-3.14724e-07
1.23365e-08
-2.96354e-07
2.83803e-08
-2.62385e-07
4.14089e-08
-2.15091e-07
5.12499e-08
-1.57172e-07
5.76342e-08
-9.15952e-08
6.02086e-08
6.10101e-08
-2.26452e-08
-8.51519e-08
-1.48295e-07
-1.96113e-07
-2.224e-07
-2.28628e-07
-2.16292e-07
-1.87911e-07
-1.46502e-07
-9.52526e-08
-3.76184e-08
2.25903e-08
8.36003e-08
1.05262e-07
9.88777e-07
2.83413e-07
9.61944e-07
4.53803e-07
8.64097e-07
5.957e-07
6.86561e-07
6.87227e-07
4.33174e-07
7.10785e-07
1.25024e-07
6.60399e-07
-2.02242e-07
5.35836e-07
-4.84926e-07
3.50869e-07
-6.71737e-07
1.49004e-07
-7.29212e-07
8.15513e-08
-6.93849e-07
-9.45592e-07
8.61635e-08
8.45851e-07
2.32301e-07
8.15806e-07
3.69969e-07
7.26429e-07
4.83809e-07
5.72721e-07
5.5776e-07
3.59223e-07
5.78298e-07
1.04486e-07
5.38907e-07
-1.62852e-07
4.45487e-07
-3.91506e-07
3.13564e-07
-5.39815e-07
1.75559e-07
-5.91207e-07
9.70376e-08
-6.15327e-07
-8.48554e-07
7.50893e-08
7.20752e-07
2.00039e-07
6.90857e-07
3.15085e-07
6.11382e-07
4.09377e-07
4.7843e-07
4.69461e-07
2.99138e-07
4.85796e-07
8.81513e-08
4.54947e-07
-1.32003e-07
3.83531e-07
-3.2009e-07
2.88816e-07
-4.45099e-07
1.96145e-07
-4.98536e-07
1.20893e-07
-5.40076e-07
-7.27661e-07
6.51667e-08
6.09755e-07
1.74144e-07
5.8188e-07
2.74287e-07
5.11239e-07
3.54461e-07
3.98256e-07
4.05029e-07
2.4857e-07
4.19351e-07
7.383e-08
3.94248e-07
-1.06899e-07
3.36893e-07
-2.62736e-07
2.63367e-07
-3.71574e-07
1.9326e-07
-4.28429e-07
1.19541e-07
-4.66356e-07
-6.0812e-07
5.6092e-08
5.10564e-07
1.52828e-07
4.85144e-07
2.40554e-07
4.23514e-07
3.0991e-07
3.289e-07
3.54681e-07
2.03798e-07
3.67685e-07
6.08269e-08
3.47454e-07
-8.66684e-08
3.00048e-07
-2.1533e-07
2.37917e-07
-3.09442e-07
1.74953e-07
-3.65466e-07
1.04573e-07
-3.95975e-07
-5.03547e-07
4.77455e-08
4.21525e-07
1.3524e-07
3.97649e-07
2.12691e-07
3.46062e-07
2.74852e-07
2.66739e-07
3.13842e-07
1.64808e-07
3.26677e-07
4.79927e-08
3.10839e-07
-7.0831e-08
2.71133e-07
-1.75624e-07
2.16194e-07
-2.54503e-07
1.56491e-07
-3.05763e-07
9.0559e-08
-3.30043e-07
-4.12988e-07
4.12658e-08
3.40274e-07
1.20683e-07
3.18232e-07
1.90313e-07
2.76433e-07
2.46146e-07
2.10905e-07
2.8218e-07
1.28775e-07
2.93981e-07
3.61922e-08
2.81618e-07
-5.84682e-08
2.47689e-07
-1.41694e-07
1.98944e-07
-2.05759e-07
1.4259e-07
-2.49409e-07
8.10269e-08
-2.68479e-07
-3.31961e-07
3.60134e-08
2.65198e-07
1.0845e-07
2.45796e-07
1.73217e-07
2.11665e-07
2.2378e-07
1.60342e-07
2.56582e-07
9.59726e-08
2.68763e-07
2.40109e-08
2.58347e-07
-4.80524e-08
2.29045e-07
-1.12392e-07
1.85063e-07
-1.61777e-07
1.32342e-07
-1.96688e-07
7.46101e-08
-2.10747e-07
-2.57351e-07
3.21653e-08
1.94456e-07
9.93802e-08
1.78581e-07
1.59566e-07
1.5148e-07
2.07022e-07
1.12886e-07
2.37749e-07
6.52455e-08
2.48918e-07
1.28421e-08
2.40817e-07
-3.99518e-08
2.14596e-07
-8.61707e-08
1.74419e-07
-1.216e-07
1.24938e-07
-1.47208e-07
7.01849e-08
-1.55994e-07
-1.87166e-07
2.97075e-08
1.26393e-07
9.41641e-08
1.14124e-07
1.51641e-07
9.40032e-08
1.96951e-07
6.75762e-08
2.26426e-07
3.577e-08
2.37759e-07
1.50904e-09
2.30374e-07
-3.25663e-08
2.06422e-07
-6.22185e-08
1.68971e-07
-8.41496e-08
1.21412e-07
-9.9649e-08
6.81301e-08
-1.02712e-07
-1.19036e-07
4.58072e-08
5.7941e-08
1.1062e-07
4.93114e-08
1.66781e-07
3.78421e-08
2.10072e-07
2.42848e-08
2.3737e-07
8.47204e-09
2.467e-07
-7.82014e-09
2.37792e-07
-2.3659e-08
2.12462e-07
-3.68881e-08
1.73292e-07
-4.49796e-08
1.23624e-07
-4.99811e-08
6.83727e-08
-4.74603e-08
-5.06635e-08
1.41541e-07
1.90853e-07
2.28695e-07
2.5298e-07
2.61452e-07
2.53632e-07
2.29973e-07
1.93084e-07
1.48105e-07
9.81238e-08
5.06635e-08
-6.85812e-07
-2.66858e-06
-8.23593e-07
-1.15039e-06
-7.35592e-07
-3.02128e-07
-6.89995e-07
-2.24027e-07
-6.8546e-07
-9.27767e-08
-6.66891e-07
9.79732e-08
-6.24567e-07
2.85133e-07
-5.57053e-07
4.65489e-07
-4.65946e-07
6.29475e-07
-3.52821e-07
7.71154e-07
-2.19113e-07
8.8369e-07
9.59669e-07
-6.03629e-07
-2.06495e-06
-7.42546e-07
-1.01147e-06
-6.59703e-07
-3.84971e-07
-6.23287e-07
-2.60443e-07
-6.15738e-07
-1.00326e-07
-5.95475e-07
7.77102e-08
-5.55902e-07
2.4556e-07
-4.94593e-07
4.0418e-07
-4.12181e-07
5.47063e-07
-3.10449e-07
6.69423e-07
-1.91478e-07
7.64718e-07
8.26508e-07
-4.67466e-07
-1.59748e-06
-6.07807e-07
-8.71128e-07
-5.67235e-07
-4.25544e-07
-5.56959e-07
-2.70719e-07
-5.53227e-07
-1.04058e-07
-5.34661e-07
5.91448e-08
-4.98441e-07
2.09339e-07
-4.42814e-07
3.48553e-07
-3.68335e-07
4.72584e-07
-2.76653e-07
5.7774e-07
-1.69854e-07
6.57919e-07
7.08103e-07
-3.47769e-07
-1.24971e-06
-4.81029e-07
-7.37868e-07
-4.86096e-07
-4.20477e-07
-4.9651e-07
-2.60304e-07
-4.97953e-07
-1.02615e-07
-4.82691e-07
4.38827e-08
-4.50219e-07
1.76867e-07
-3.99842e-07
2.98176e-07
-3.32385e-07
4.05128e-07
-2.49295e-07
4.9465e-07
-1.53118e-07
5.61742e-07
6.02207e-07
-2.65613e-07
-9.84099e-07
-3.87544e-07
-6.15937e-07
-4.20922e-07
-3.871e-07
-4.43892e-07
-2.37334e-07
-4.50235e-07
-9.6271e-08
-4.38596e-07
3.22435e-08
-4.09845e-07
1.48116e-07
-3.64235e-07
2.52565e-07
-3.02757e-07
3.4365e-07
-2.2708e-07
4.18972e-07
-1.39862e-07
4.74524e-07
5.06788e-07
-2.10974e-07
-7.73125e-07
-3.21421e-07
-5.0549e-07
-3.6956e-07
-3.38961e-07
-3.99451e-07
-2.07444e-07
-4.09653e-07
-8.60687e-08
-4.01404e-07
2.39944e-08
-3.75988e-07
1.22701e-07
-3.34572e-07
2.11148e-07
-2.78347e-07
2.87426e-07
-2.09043e-07
3.49668e-07
-1.2932e-07
3.94801e-07
4.20048e-07
-1.73947e-07
-5.99178e-07
-2.74313e-07
-4.05124e-07
-3.29135e-07
-2.84139e-07
-3.62714e-07
-1.73865e-07
-3.75711e-07
-7.30718e-08
-3.70114e-07
1.83974e-08
-3.4792e-07
1.00507e-07
-3.10047e-07
1.73276e-07
-2.5826e-07
2.35638e-07
-1.94305e-07
2.85713e-07
-1.20765e-07
3.21262e-07
3.4048e-07
-1.48089e-07
-4.51089e-07
-2.40065e-07
-3.13147e-07
-2.97539e-07
-2.26664e-07
-3.3288e-07
-1.38524e-07
-3.47764e-07
-5.81879e-08
-3.44425e-07
1.50582e-08
-3.24668e-07
8.07508e-08
-2.89839e-07
1.38446e-07
-2.41818e-07
1.87617e-07
-1.82361e-07
2.26257e-07
-1.14001e-07
2.52901e-07
2.66679e-07
-1.30312e-07
-3.20777e-07
-2.15811e-07
-2.27648e-07
-2.73922e-07
-1.68553e-07
-3.10045e-07
-1.02401e-07
-3.26236e-07
-4.19966e-08
-3.24473e-07
1.32947e-08
-3.06773e-07
6.30513e-08
-2.74608e-07
1.06281e-07
-2.29454e-07
1.42463e-07
-1.73428e-07
1.70231e-07
-1.09055e-07
1.88528e-07
1.97309e-07
-1.19946e-07
-2.00832e-07
-2.01908e-07
-1.45686e-07
-2.609e-07
-1.09561e-07
-2.98059e-07
-6.52425e-08
-3.15583e-07
-2.44726e-08
-3.15245e-07
1.29564e-08
-2.98809e-07
4.66152e-08
-2.67845e-07
7.53166e-08
-2.23921e-07
9.85389e-08
-1.69308e-07
1.15618e-07
-1.0667e-07
1.2589e-07
1.30062e-07
-1.15549e-07
-8.52826e-08
-1.97948e-07
-6.3287e-08
-2.59542e-07
-4.79661e-08
-2.98367e-07
-2.64175e-08
-3.16503e-07
-6.33639e-09
-3.15802e-07
1.22552e-08
-2.97512e-07
2.83252e-08
-2.63581e-07
4.13852e-08
-2.1629e-07
5.12485e-08
-1.58338e-07
5.76659e-08
-9.27098e-08
6.0262e-08
6.09692e-08
-8.52826e-08
-1.4857e-07
-1.96536e-07
-2.22953e-07
-2.2929e-07
-2.17034e-07
-1.88709e-07
-1.47324e-07
-9.60754e-08
-3.84094e-08
2.18526e-08
)
;

boundaryField
{
    rotor
    {
        type            calculated;
        value           nonuniform 0();
    }
    stator
    {
        type            calculated;
        value           nonuniform List<scalar> 
96
(
-4.70198e-38
0
-6.16899e-35
6.01853e-36
0
2.40741e-35
-4.17619e-53
-6.01853e-36
6.01853e-35
0
-1.92816e-34
3.15848e-53
2.42972e-35
0
0
1.26612e-34
0
4.81482e-35
-5.79544e-36
-3.00927e-36
6.33827e-35
-2.5523e-35
0
1.36282e-34
1.84541e-58
2.57733e-36
0
0
0
0
6.01853e-35
4.81482e-35
0
3.61112e-35
-1.20371e-35
-9.55702e-36
3.15848e-53
1.32631e-34
0
1.11343e-34
-6.01853e-36
-1.03067e-34
2.71949e-35
7.52316e-36
6.01853e-36
-4.2882e-35
0
-4.70198e-38
-6.01853e-36
9.0278e-36
6.01853e-36
0
-9.0278e-36
0
6.01853e-36
-1.80556e-35
-1.80556e-35
0
0
0
0
-9.0278e-36
0
-9.0278e-36
0
-9.0278e-36
9.0278e-36
0
0
0
0
0
0
9.0278e-36
6.01853e-36
0
-9.0278e-36
6.01853e-36
6.01853e-36
-1.80556e-35
0
0
0
0
6.01853e-36
-9.0278e-36
-6.01853e-36
0
9.0278e-36
0
-6.01853e-36
1.80556e-35
1.80556e-35
0
0
0
)
;
    }
    AMI1
    {
        type            cyclicAMI;
        value           nonuniform 0();
    }
    AMI2
    {
        type            cyclicAMI;
        value           nonuniform List<scalar> 
48
(
-1.8691e-06
-1.92322e-06
-1.85765e-06
-1.58482e-06
-1.05348e-06
-3.02447e-07
5.41271e-07
1.30559e-06
1.86249e-06
2.19576e-06
2.36495e-06
2.40722e-06
2.13811e-06
1.37023e-06
1.04901e-06
7.12313e-07
3.04123e-07
-1.32206e-07
-5.52275e-07
-9.21791e-07
-1.22555e-06
-1.45843e-06
-1.63085e-06
-1.76377e-06
-1.86914e-06
-1.92282e-06
-1.85544e-06
-1.58017e-06
-1.04664e-06
-2.94822e-07
5.48029e-07
1.31068e-06
1.86545e-06
2.19697e-06
2.36549e-06
2.40829e-06
2.13968e-06
1.37176e-06
1.05031e-06
7.13955e-07
3.06022e-07
-1.30286e-07
-5.50632e-07
-9.20767e-07
-1.2253e-06
-1.45902e-06
-1.63211e-06
-1.76453e-06
)
;
    }
    front
    {
        type            empty;
        value           nonuniform 0();
    }
    back
    {
        type            empty;
        value           nonuniform 0();
    }
    procBoundary1to0
    {
        type            processor;
        value           nonuniform List<scalar> 8(-5.92467e-07 -7.86219e-07 -9.83761e-07 -8.951e-07 5.92276e-07 7.86051e-07 9.83677e-07 8.95121e-07);
    }
}


// ************************************************************************* //
