/*--------------------------------*- C++ -*----------------------------------*\
| =========                 |                                                 |
| \\      /  F ield         | OpenFOAM: The Open Source CFD Toolbox           |
|  \\    /   O peration     | Version:  v1606+                                |
|   \\  /    A nd           | Web:      www.OpenFOAM.com                      |
|    \\/     M anipulation  |                                                 |
\*---------------------------------------------------------------------------*/
FoamFile
{
    version     2.0;
    format      ascii;
    class       volScalarField;
    location    "2.5";
    object      epsilon_0;
}
// * * * * * * * * * * * * * * * * * * * * * * * * * * * * * * * * * * * * * //

dimensions      [0 2 -3 0 0 0 0];

internalField   nonuniform List<scalar> 
11640
(
0.00098641189762
0.00119024757107
0.00132646721058
0.00140022204654
0.00143387998039
0.00144380923069
0.0014386864934
0.0014261713921
0.00141235519057
0.00139735338964
0.00138193262643
0.00136834393887
0.00136291320312
0.00136418717899
0.0013683079596
0.0013661929802
0.00134182767788
0.00127621040075
0.00114811454754
0.00095378969054
0.00119174942499
0.00235609000454
0.00307710597037
0.00348351800612
0.00369440855995
0.00378014323204
0.00378412773998
0.00374101450325
0.00368930146839
0.00363950939379
0.00359081004201
0.00357150296716
0.00358884753988
0.00360948991953
0.0036016367983
0.00352784899525
0.00334408088561
0.00296873664
0.00227477888009
0.00114715369277
0.00132949636775
0.00308351704645
0.00422087025913
0.00490600582295
0.00526761278482
0.0053872121268
0.00534768031519
0.00523310014969
0.00511572282804
0.0050090008132
0.00492198444395
0.0049343538233
0.00499834987966
0.00507764556649
0.00511267523244
0.00501494998478
0.00469632745728
0.00406632862783
0.00298066158848
0.00127388703982
0.00140452418039
0.0035001801923
0.00492359024732
0.00579047301521
0.00620595700193
0.00627273201192
0.00611713625076
0.00587337646182
0.0056573778214
0.0054737902419
0.00535340683371
0.00541603860087
0.00555802680034
0.00575077716011
0.00590100451832
0.00586670580419
0.00551608368587
0.00472972473627
0.00337896457771
0.00134060166726
0.00144283662897
0.0037270961813
0.0053138838872
0.00624520196779
0.00661045257979
0.00652245017902
0.00615342535743
0.00571337990906
0.00538171728421
0.00512725945416
0.00501158178257
0.00512237859761
0.00536419954239
0.00574311994135
0.00610242040333
0.00622232218094
0.00593179539272
0.00509675405201
0.00360008304328
0.00137411922601
0.00146261569527
0.00382529022181
0.00546627182504
0.00636426935723
0.00658495321363
0.00623975657883
0.00553378874884
0.00482093230366
0.00438730963627
0.00409764647194
0.00398070350035
0.00410948473132
0.00445465146164
0.00512599661578
0.00582943125109
0.00620782172852
0.00605474595758
0.00525346266462
0.00370909642166
0.00139752647199
0.00146629993409
0.00383233092312
0.00544954588801
0.00625657978548
0.00627762099968
0.00558736926072
0.00439012100614
0.00330922323391
0.00282356760022
0.00258724377073
0.00257212613665
0.00269886180177
0.00308594372099
0.00407124720003
0.00522937293044
0.00594683670578
0.0059861924759
0.00526880976455
0.00374039692176
0.0014131780732
0.00145714646183
0.00378932850577
0.00535958610209
0.00607614808175
0.00593217036648
0.00497341403781
0.00337012661112
0.00220800763147
0.00179806371085
0.00166292504821
0.00164296638942
0.00173359984989
0.00208016624363
0.00310981576096
0.00461809964541
0.00563258978513
0.00584432973927
0.00521479586803
0.00372565069548
0.00142015318837
0.00144378443124
0.00374362759015
0.00527807086491
0.00593794432801
0.00570458176159
0.0046276356093
0.00293061422554
0.00179861931101
0.0014175001265
0.00131859241935
0.00131546266386
0.00139617289949
0.00171999731214
0.00270353965286
0.00430892319931
0.00544595078975
0.00575064571604
0.00517144924051
0.0037091382151
0.00142437082809
0.00143231762758
0.00372001902981
0.00524994478729
0.0059051951475
0.00566494456267
0.00457333253653
0.00286599910135
0.00173375843843
0.00136630565882
0.00127740486881
0.00127762856434
0.00136091186321
0.001691104151
0.00268558906097
0.00431380369715
0.00546360584182
0.0057671046027
0.00518109889656
0.00371290131689
0.00142950497844
0.00142534314418
0.00372652371036
0.00528833923799
0.00599600578872
0.00583257574242
0.00483247327725
0.00318109385985
0.00198286356745
0.00160164038308
0.00149762946127
0.00149974430471
0.0015989220259
0.00196055509931
0.00303499725909
0.00463783234235
0.00569521541539
0.00591157255602
0.00525940921571
0.00374490740288
0.00143728839759
0.00141951140057
0.00375014357044
0.00537050651164
0.0061838131381
0.00619909098144
0.00547882388581
0.00418966048424
0.00307857104003
0.0026401104741
0.00246189650388
0.00237368097296
0.00254792650971
0.00301423961486
0.00411839069411
0.0053992632202
0.00615717664381
0.0061687048243
0.0053887828683
0.00379505810561
0.00144356261437
0.00141241639026
0.00376405828901
0.00544451791116
0.00638141439924
0.00660933966784
0.00622548368504
0.00541618719558
0.00462241842105
0.00418643285814
0.00396091922343
0.00397564459827
0.00423491896678
0.00471058201963
0.00551040978591
0.00630860322744
0.0066809382722
0.00644581242746
0.00551689566981
0.00383734317999
0.00144249852933
0.00140536115446
0.00375381217198
0.00546111603456
0.00650653424056
0.0069451927545
0.00688187917043
0.00649524250254
0.00604832396982
0.00574072843821
0.0055564973984
0.00558913221497
0.00583629167735
0.00619645591243
0.00666279743991
0.00704255058004
0.00709066196483
0.00664022973859
0.00558682586766
0.00385293464804
0.00143474949267
0.00139802836995
0.00372216485919
0.00538336499931
0.00646796650486
0.00704578542847
0.00721037308795
0.00709729378429
0.00687994309781
0.00670051906593
0.00659398429353
0.0066552989141
0.00683749857038
0.00706559489086
0.00730092088622
0.00741724580052
0.00724756863019
0.00666192535915
0.00555428024957
0.00382934716784
0.00142581371208
0.00138322542377
0.00363448145698
0.00520033427529
0.00621509933942
0.00682629798227
0.00711124570361
0.007166174251
0.00710747021509
0.00703718591073
0.00701059420436
0.00706251764371
0.00717102958636
0.00729163798792
0.0073821831377
0.00734610254223
0.00706837697836
0.0064464424299
0.00538213598422
0.00373849139821
0.00140938374863
0.00134770190126
0.00342217010808
0.00483959301237
0.00572756434798
0.0062587070321
0.00654498005518
0.00666191822032
0.00668578177277
0.00668808725673
0.00670269186525
0.00673539338374
0.00678878612262
0.00684119415091
0.00685753222843
0.00676770212809
0.00648852097842
0.0059359466904
0.00499851032126
0.0035168295027
0.00137131553301
0.00127542298395
0.00300652910845
0.00416354276564
0.00487369799392
0.00528676925826
0.00550848573998
0.00561253319888
0.00565387333676
0.00567067927899
0.00568156939055
0.00569652239285
0.00571943335952
0.00574143540605
0.00573651020588
0.00565936577035
0.00544680941845
0.0050232404203
0.00428105100629
0.00307644044995
0.00129370545487
0.0011449469457
0.00228520053493
0.00302085123174
0.00345879297195
0.00370612373845
0.00383404598024
0.00389362774364
0.00391778878123
0.00392608862396
0.0039302574103
0.00393609261538
0.00394640449643
0.00395718924592
0.00395429900162
0.00391261927171
0.00379302974646
0.00354008069888
0.00308325363177
0.00232130425555
0.0011557323116
0.000950705174123
0.00114715255435
0.00127911254197
0.00135354006268
0.00139264105727
0.00141105909193
0.00141952880067
0.00142506706475
0.00142936796695
0.00143362230133
0.00143807054122
0.00144209620618
0.00144557472218
0.00144539814598
0.00143954059493
0.00142075776762
0.00137860263753
0.00129820038549
0.00115838256048
0.000954898114427
0.00132222060289
0.00189690606595
0.00229638634788
0.00252063467444
0.00262635968595
0.00266197879378
0.00266472300337
0.00265738957245
0.00265174721741
0.00264854072578
0.00264438362574
0.00263471968386
0.00262360045721
0.00261725387385
0.00261033130792
0.00258122315786
0.00248645794916
0.00226958293252
0.00187632153539
0.00130528425658
0.00189839595538
0.00242347328913
0.00291052294715
0.00320367501482
0.00335263979536
0.00340897106378
0.00341240654601
0.00339072396845
0.00336597411949
0.00334622233438
0.00333249918453
0.00332967839713
0.00334157518157
0.00335569676259
0.00335347975513
0.0033046964373
0.00316883277564
0.00288637794324
0.00240125516615
0.00188153504211
0.00230237194242
0.00291298728663
0.00351965337491
0.00390507926778
0.00410688312106
0.00417353433545
0.00415252678492
0.00409548808474
0.00403922223655
0.00399551104765
0.00396956322914
0.00398223097576
0.00402326335183
0.00407410951602
0.004101323978
0.00405202027236
0.0038684192593
0.00349611715321
0.00289189171563
0.00228227214162
0.00252584076559
0.00321142124322
0.00391512811127
0.00436811748718
0.00458859251869
0.00462289061266
0.00454291283526
0.00442239684075
0.00431553522758
0.00423744089091
0.00420086780066
0.00423753679393
0.00432493157043
0.00443989154725
0.00453117943428
0.00451877326894
0.00432471079518
0.00388905639317
0.00318977908509
0.00250421596106
0.00262438605196
0.00336654557262
0.00413302930619
0.0046127079993
0.00480601599627
0.00476581506808
0.0045826305838
0.00436732696209
0.00419303625122
0.00407742681501
0.00403621529699
0.00409636010429
0.00424393711054
0.00445825061798
0.00466000236947
0.00472927216517
0.00456624332206
0.00410751910401
0.00334607158809
0.00259829901978
0.00264892542309
0.00342467795039
0.00421599706332
0.00468129307606
0.00480627226352
0.0046412595625
0.00429751185737
0.00394795467465
0.00368790560243
0.00353825419019
0.0034896031599
0.00355860124511
0.00377837667415
0.00414688244987
0.00452700352901
0.00473204126797
0.00464181866689
0.00419793609925
0.00341020956024
0.00261842914058
0.00263648207433
0.00342290213076
0.00420817541036
0.0046317310807
0.00466025420328
0.00432705108675
0.00373972621901
0.00316199143386
0.00278363392086
0.00263161132928
0.00259227959334
0.00265514841044
0.00296385862781
0.0035604534492
0.00420423045561
0.00459335214646
0.00460599540539
0.00420433773241
0.00341986292358
0.00260845202945
0.00261247350579
0.00339480477111
0.00416126311591
0.0045390196117
0.00448049971859
0.00400185164119
0.00316655940416
0.00234986752231
0.00192232159276
0.00182157365979
0.00180381531975
0.00185004194188
0.00219030109783
0.00293719910863
0.00384258890554
0.00441026586542
0.00452325569821
0.00417059648568
0.00340477587466
0.0025928680318
0.00259262945058
0.00336869941296
0.00412051940097
0.0044682856519
0.00435444987193
0.00378127332475
0.0027953588727
0.00189884366725
0.0014782928989
0.00139720539025
0.00138475078341
0.00142090266413
0.00174094647898
0.00254844901547
0.00360985501238
0.00428702617746
0.00446317094698
0.00414260323785
0.00339107858392
0.00258337837152
0.00258419416642
0.00336052458199
0.00411275551125
0.00445882538456
0.00433973297854
0.00375558079073
0.00275576923389
0.0018506185899
0.0014340987619
0.00135411349257
0.00134218743708
0.00137371281742
0.00169480300294
0.00251735652898
0.00360032711227
0.00428988777106
0.00446988740028
0.00414793075238
0.00339282352556
0.00258154641515
0.00259146358749
0.00337477509373
0.0041450400574
0.0045210324942
0.0044496866204
0.0039443473905
0.00307535052716
0.00222294145419
0.00179532765429
0.00170310999169
0.00169038051859
0.00172653209775
0.0020684309875
0.00286594046675
0.00383237039835
0.00443476492182
0.00455632936696
0.00419543745863
0.00341537876247
0.00259138948969
0.00261309546686
0.00340589776454
0.00420650311719
0.00463809844008
0.00465936361594
0.00429746578168
0.00365757988449
0.00303117085823
0.00264723894348
0.00252705207
0.00250317663173
0.00258540485432
0.00293165489775
0.00357959642234
0.00428374564238
0.00470302411799
0.00470805558717
0.00427558260722
0.00345484268172
0.00261479002282
0.00264521413213
0.0034402748583
0.00427025763886
0.0047658607689
0.00490025735344
0.00471408325519
0.00431990800282
0.00392881587093
0.00366283443836
0.00355133230253
0.00356194395865
0.00369552581783
0.00397470623029
0.00439077530867
0.00480580577516
0.00500669239904
0.00487163877308
0.0043574095075
0.0034973981251
0.00264958581438
0.00267442434216
0.00346283131512
0.0043065459717
0.00485515630053
0.00509548716559
0.00507281912402
0.00488352079006
0.00466340133391
0.00449987694841
0.0044208641941
0.00444884013576
0.00457474910944
0.00477250253033
0.00501654694966
0.00521548850843
0.00523651015006
0.00498110081811
0.00440406285626
0.00352421668713
0.00268355307249
0.00268215641673
0.00345670676959
0.004287911674
0.00485690819797
0.00516712131705
0.00526040881117
0.00521002021725
0.0051069215477
0.00501940389963
0.00497951420299
0.00501746626835
0.00511288245457
0.00523688036614
0.00536024309237
0.00541607116172
0.00531476563341
0.00498436327155
0.00438353939097
0.00351301368565
0.00269229077025
0.00264081576241
0.00339337312621
0.00418994938599
0.00473634899633
0.00506527802482
0.00521958083825
0.00525275869343
0.00522714582589
0.00519525725485
0.00518819751416
0.00522113806108
0.00527967192191
0.00534396754685
0.00538703761736
0.00535834605643
0.00519675382181
0.00484760679097
0.00426706658532
0.00343643328231
0.0026473529841
0.0025210320835
0.00323175317299
0.00396996496049
0.00446583008099
0.00476577021176
0.00492520518543
0.00499006388779
0.00500420422522
0.00500536031439
0.00501391724381
0.00503473089374
0.00506312004712
0.00508860104669
0.00508985203648
0.00502973453403
0.00486305383674
0.00454284838795
0.00401868053159
0.00325738824053
0.00251919180915
0.00228327433739
0.00292060433199
0.00356465644247
0.00398834686321
0.00423928726597
0.00437355267476
0.00443557217442
0.0044594345407
0.00446893294531
0.00447643713306
0.00448580287194
0.00449711741024
0.00450428068959
0.00449213347449
0.00443420623571
0.00429482527151
0.00402987462619
0.00358751238338
0.00292872372103
0.00227166620264
0.00187893640365
0.00241511266672
0.00292737840828
0.0032542488951
0.00344303384596
0.00354220110234
0.00358863005408
0.00360747878004
0.00361428087309
0.0036173943994
0.00362040440656
0.00362423314765
0.00362508365399
0.00361291359394
0.00356976582706
0.00346829389033
0.00327116774331
0.00293244767321
0.00241009816162
0.0018601053393
0.00130345165515
0.00188945779427
0.00230674630095
0.00256110423484
0.00270577476012
0.00278288927855
0.00282048789238
0.00283620571669
0.00283996062277
0.00283799957738
0.00283449716374
0.00282852473527
0.00282035313655
0.00280218113346
0.00276359248252
0.00268406945243
0.00253607034727
0.00227986429908
0.00186484206171
0.00129121903312
0.00157570730653
0.00249966771024
0.00315976265736
0.00354255411656
0.00373190794639
0.0038018414432
0.00380998594708
0.00379468648297
0.00377803385971
0.00376770427048
0.00376215052886
0.00375841010926
0.00376031518668
0.00376486799268
0.00375326506446
0.00369164657669
0.00351606581622
0.00314460280439
0.00249273290478
0.00156430990419
0.00249985858909
0.00285222665734
0.00334121489112
0.00365394049791
0.00381757478
0.00388073487917
0.00388622261631
0.00386561150826
0.00384147555734
0.00382419359574
0.00381652259516
0.00381890891769
0.00383176450186
0.00384548952887
0.00383995449196
0.0037821069283
0.00362697211742
0.0033203225417
0.00283173651912
0.00249856774897
0.00316542006955
0.00334163598043
0.00383345661248
0.00416764445605
0.00434555729993
0.00440644199052
0.00439365803802
0.00435097401784
0.00430725086385
0.00427681106653
0.00426454581911
0.00427639419733
0.00431027608109
0.00435093267331
0.00436957887718
0.00432042816322
0.00415152521733
0.00381902746952
0.00332320273054
0.00316669531546
0.00354773199898
0.00365642884495
0.0041725484849
0.00452642813476
0.00470249276756
0.00473593056816
0.00468257999574
0.00459863892576
0.00451873751251
0.00446555308192
0.00444712106247
0.00447583995513
0.00454591465936
0.00463372593953
0.00470076143069
0.00468376204902
0.0045186477749
0.00416348618337
0.00364077148467
0.00355210706731
0.00372716821055
0.00382113055172
0.00435764963315
0.00471442146512
0.00486409616528
0.00484564381938
0.00472704235937
0.0045851963482
0.00444664984494
0.00435978385675
0.00433391400951
0.00438229439953
0.00450658592419
0.00466265370748
0.00480751396736
0.00485226065512
0.00471579679871
0.00435560083854
0.00380972254102
0.00373327369336
0.00378014981132
0.00388125067083
0.00442474563359
0.00476446369914
0.0048655222846
0.00476802502664
0.00455851493433
0.00435503677002
0.00410340283
0.00396435201462
0.00392387575038
0.00399196080556
0.00421202111697
0.00445738304777
0.00471727145088
0.00485734880873
0.00477646002574
0.0044327312655
0.00387715817933
0.00378800376487
0.00376807151459
0.00387943596783
0.00441677728176
0.00472579659695
0.00476382967119
0.00456990986467
0.00425296610028
0.00402482055261
0.00345037481867
0.00325759363503
0.00321495035165
0.00331528307401
0.00381183715616
0.00407443413352
0.00449058360345
0.00475278336015
0.00474664893726
0.00443658096863
0.00388636850262
0.00378242260896
0.00373547511831
0.00385248332617
0.00437776247506
0.00465433573895
0.00463489411841
0.00437052832035
0.00401017648774
0.00415070695728
0.00286456468485
0.00263768089987
0.00256501751391
0.00263115925737
0.00360385453435
0.00376606425168
0.00424228016685
0.0046143990691
0.00468162645419
0.00440932686471
0.00387244315079
0.00375884752021
0.00370731442703
0.00382828606073
0.00434493734738
0.00459877827239
0.00453127048331
0.00415730845808
0.00346164141208
0.00285211540632
0.00170998742848
0.00153067707659
0.00151801024066
0.00161117846451
0.00245546229206
0.00319785899637
0.00400982326399
0.00450954735238
0.00463513475144
0.00438913867087
0.00386143562033
0.00374222283306
0.00370058642229
0.00382288035625
0.00434151639631
0.00459538292147
0.00452482285916
0.004143645258
0.00343206819339
0.00279011271586
0.00167954036176
0.00150489039024
0.00148698105217
0.00156959644139
0.00241519010836
0.00318878076539
0.00401519374926
0.0045233319433
0.00465045572515
0.00440126580441
0.00386809830667
0.00374254477393
0.0037204388494
0.00384124564901
0.00437405430947
0.00465292340352
0.00462803959356
0.00435507521094
0.00397894472223
0.00384670521973
0.00265213989997
0.00249353101991
0.00250061510151
0.00258107204431
0.00353878570704
0.00381903172016
0.0042887036723
0.00467248997839
0.00473919025715
0.00445374339265
0.00389799373186
0.00376493873742
0.00376546512079
0.00387892419817
0.00443392384889
0.00475364974812
0.0047908197455
0.0045879062173
0.00427108547211
0.00398321814351
0.00338708074806
0.00324224618465
0.00323625654762
0.00335487229641
0.00389945758707
0.004207246771
0.00463154452851
0.00490215918079
0.00488047450435
0.00453666758399
0.00394746499478
0.00381023342856
0.00382439185528
0.00392334497005
0.00450111789135
0.00486893372416
0.00498454481842
0.0048861958677
0.00467031006368
0.00446768037236
0.0042113048056
0.00411175830235
0.00412537949855
0.0042520750001
0.00451886513626
0.00476925633627
0.00503606636732
0.0051594023314
0.00503250204386
0.00462361190349
0.00400233718236
0.00386856116588
0.0038736646987
0.00395557495787
0.00454888021159
0.00495919703491
0.00514975840418
0.0051570749385
0.00505418753809
0.00492799747532
0.00480860358234
0.00476000711605
0.00479084084306
0.00489425909768
0.00505818315809
0.00522931335292
0.00536164732548
0.00535780517841
0.00513968739864
0.00468014672573
0.00404024767975
0.00391617891541
0.00387950015472
0.00394997601893
0.00454605971077
0.00498068133553
0.00522476737276
0.00531139114515
0.00529717994138
0.0052443073689
0.00519472756783
0.00518142987383
0.00521882465434
0.00529683915973
0.00539815575796
0.00549029513798
0.00552357598194
0.00542993272269
0.00515355661968
0.00467144967999
0.00403148546564
0.00391327659394
0.00379988103295
0.0038750060326
0.00445995413217
0.00489457068973
0.00516153744814
0.00529353061247
0.00533502629622
0.00533251347572
0.00532269143623
0.00532951118223
0.00536284442478
0.00541443783953
0.00547020799482
0.00550424352784
0.00547571350607
0.00533574593966
0.00504107973906
0.00456567039082
0.00394324615886
0.00381785297143
0.00358780103059
0.0036920006748
0.00425317655755
0.00466727036631
0.00492740413792
0.00507025335679
0.00513486987968
0.00515746096818
0.00516695086458
0.00518098928235
0.00520455687353
0.00523420504764
0.00526001607015
0.00526171235267
0.00520747702729
0.0050588703862
0.00477702176424
0.00433021011276
0.00373880598354
0.00358331254743
0.00318164162018
0.00335662938629
0.0038862029352
0.00426762546117
0.00450486797093
0.00463736026258
0.00470284910722
0.00473199574388
0.00474643526818
0.00475853047502
0.00477277812738
0.00478835908247
0.00479819570735
0.00478686487558
0.00472954226968
0.00459328967854
0.00433988466312
0.00393308022308
0.00337865025674
0.00315449627173
0.00250687671829
0.00284783146581
0.00336149987837
0.00371232499192
0.00392472302026
0.00404196226854
0.00410083895117
0.00412779683098
0.00414016711712
0.00414780371944
0.00415501917122
0.00416187822266
0.00416349412637
0.00414778492909
0.00409464902037
0.0039747403086
0.00375060507665
0.00338086344071
0.00284774556204
0.0024680100396
0.00156583280509
0.00251909285069
0.00321698305405
0.00365271899995
0.00390955813873
0.00405041212507
0.00412058310823
0.00415099154847
0.00416060781403
0.00416071815115
0.0041563502253
0.00414792483072
0.00413222879457
0.0040969983259
0.00402178495316
0.0038732767046
0.00360753295093
0.00316557842572
0.00247421633895
0.00155109660874
0.00171248493924
0.00290457484726
0.00377451768023
0.00429143394102
0.00455607342848
0.00465759938111
0.0046682454104
0.00464087781073
0.00460957099383
0.00458883371121
0.00458143575279
0.00458548480327
0.00460384064281
0.00462308110856
0.00461096836019
0.00452074511322
0.00427342532921
0.00377197114456
0.00291000137825
0.00170378940798
0.00290345147995
0.00321026919153
0.00373571567412
0.0040838260025
0.00427104752638
0.00434485567203
0.00435152181965
0.00432750090705
0.00429870190342
0.00427865199286
0.0042719334621
0.00427833821683
0.00429461355289
0.00431041774928
0.004302259121
0.00423342402508
0.00405485406528
0.00371330368606
0.00319057229016
0.00291580937411
0.00377943566034
0.00373449549773
0.0041880675072
0.00451455537367
0.00469359655642
0.00475795301419
0.00474884247509
0.0047082822198
0.0046642373089
0.0046344518889
0.00462533789374
0.00463748739562
0.00466892546006
0.00470374266852
0.00471541076468
0.00466143048238
0.00449220609703
0.00416879315227
0.00371475781857
0.00380153969814
0.0042961271965
0.00408294138517
0.00451727656058
0.00483780067231
0.0050043532621
0.00504265809908
0.00500141193381
0.00492911950011
0.00485232251857
0.00480211764871
0.00478807253359
0.0048144221972
0.00487683342815
0.00494588889177
0.00499415981489
0.00496964362791
0.00481584638219
0.004498899947
0.00406562516045
0.00432802265674
0.00455057531015
0.00426997619623
0.00470200493042
0.0050137644026
0.00515437938793
0.00515294384511
0.00506873588967
0.00496431427352
0.00482623411402
0.00474112596921
0.00472054778674
0.00477049951957
0.00488950800556
0.00499634309552
0.00509449601833
0.00511655971812
0.00499138092973
0.00468463662939
0.00425685634509
0.00459101669392
0.00463593341359
0.00434143949115
0.00477206917536
0.00506622437978
0.00516917431102
0.00511768968957
0.00500727491772
0.00497536145784
0.00466608851051
0.0045157732359
0.00448644138035
0.00457833421627
0.00484312152008
0.0049074638997
0.00504668351456
0.00512861784008
0.00504661696528
0.00475953146259
0.00433564400068
0.0046840052298
0.00462932175342
0.00434384008789
0.00476872295598
0.00503846379701
0.00509927765735
0.00501942872841
0.00513456587082
0.00746176698251
0.00580244920569
0.00541358846027
0.00532887893836
0.0054836569429
0.00672631396578
0.00488279882942
0.00492229602279
0.00505540869014
0.00502445613848
0.00476563240342
0.00434974215348
0.00468846281526
0.00459095072879
0.00431746954939
0.00473367639159
0.00497802704632
0.0050049981488
0.00500591933567
0.00744949918349
0.00674248835009
0.00485468326036
0.00496004183449
0.00497438192461
0.00474473238616
0.00433901933834
0.00466276774968
0.00455927737525
0.00429331533676
0.00470343521278
0.00492785142383
0.00490725900238
0.00475082407789
0.0058218945843
0.0053136806177
0.00460277527618
0.00486867622452
0.00493905018321
0.00473163431638
0.00433170947836
0.00464450646151
0.00455561442555
0.00428949456392
0.00470197998327
0.00492728589405
0.00490556786305
0.00474519677947
0.00578227081987
0.0053435489627
0.00462754354398
0.00489528132999
0.00496425155449
0.00475170498087
0.00434478092106
0.00465147908603
0.00458809708016
0.00431198890953
0.00473628192663
0.00498503409977
0.00501274307237
0.00501613712619
0.00727604635805
0.00698743330849
0.00496941639534
0.00505616344709
0.0050606422883
0.00481269402274
0.00438435496006
0.00469055629822
0.00465440694404
0.00435600063705
0.0047972637908
0.00507900314598
0.00514545195578
0.00507795849189
0.00525203783642
0.0074968588871
0.00599790520435
0.00578695667032
0.0058416336068
0.00616464961782
0.00776993571826
0.00521899217167
0.00513624330483
0.00525546957249
0.00520076772138
0.00490350516302
0.00444590826091
0.00476034660387
0.00473553261275
0.00440726073225
0.0048658933962
0.00518693141364
0.00531016674004
0.00527749003365
0.00520969677071
0.00527174576817
0.00495177218286
0.00483808180553
0.00485877364403
0.00500569728438
0.00532472700208
0.00530268905191
0.00542553913733
0.00548209885608
0.00535128586458
0.00499919741678
0.00451283711302
0.00484038719427
0.00479813978975
0.00444277663927
0.00491468374616
0.00527167979043
0.00545321582628
0.00548825298914
0.00544191114295
0.00537969038847
0.00527026332099
0.0052256165541
0.00525535497702
0.00535280340201
0.00550292592688
0.00561245951751
0.0056925774258
0.00566522861847
0.00546277332054
0.00506545545972
0.00455861577388
0.00489683084093
0.00479564401344
0.00443209914599
0.00491044846428
0.00529116917573
0.005517203939
0.00561153347978
0.00562127828366
0.00559483011608
0.00555923074054
0.00555269842856
0.00558787011126
0.00565840693363
0.00574786352208
0.00581841246588
0.00583353305527
0.0057384657903
0.00548659797828
0.00506378359618
0.00454758907718
0.00487686586703
0.00467716198926
0.0043409537069
0.00481897077703
0.00520715968455
0.00545626222623
0.00558782560823
0.00563941953482
0.00565013831505
0.00565026577009
0.00566237414671
0.00569578065405
0.00574510296034
0.00579684437915
0.00582467684692
0.00579295131859
0.00565933984137
0.00538651138507
0.00495848847384
0.00444215840677
0.00472877259572
0.00438020572995
0.00412962480351
0.00460620387381
0.00498879936719
0.00524003469131
0.00538442565964
0.00545560819784
0.00548617214993
0.00550211246179
0.00552059607624
0.00554727532172
0.00557972497608
0.00560723290547
0.00560896046048
0.00555480555188
0.00540903933683
0.00513687446484
0.00471735542874
0.00420368527385
0.00439365813289
0.00383052854893
0.00375602002667
0.00424333756999
0.00461876083546
0.00486239618164
0.00500439102711
0.00507898053312
0.00511560720903
0.00513581892557
0.00515289086308
0.00517218418933
0.00519251780106
0.00520550558958
0.00519426575139
0.00513318098677
0.00498937384011
0.00472692122376
0.00431819235854
0.00379564474621
0.00380372602027
0.0029354186045
0.00321115445989
0.00375991777156
0.00414989370296
0.00439419813854
0.00453440021921
0.00460837221452
0.00464499810217
0.00466372798162
0.00467650877499
0.00468845998459
0.00469934391137
0.00470251961628
0.00468333215845
0.00461840110255
0.0044751431493
0.00421428764058
0.00379645744366
0.00321778242557
0.00288506269562
0.00170649146355
0.00294694012213
0.00387495825616
0.00446696900094
0.00482354174509
0.00502418805093
0.00512753515831
0.00517440929994
0.00519194353419
0.00519660212108
0.00519489133815
0.00518764277226
0.00516776143922
0.00511771390981
0.0050078898008
0.0047942757455
0.00442055129981
0.00381469291671
0.00289123002779
0.00169220878685
0.00180167088745
0.00318944425133
0.00422084744453
0.00484512490306
0.00517120495435
0.00529796069377
0.00530946988358
0.00526843786231
0.00522346864954
0.0051922983689
0.00518314152783
0.00519679076269
0.00523052608521
0.00526618794248
0.00525678636402
0.0051447484099
0.00484011918418
0.0042339868923
0.00320934242202
0.00179442840222
0.00318649252126
0.00347947133397
0.00404615124274
0.00442966949334
0.00463986945524
0.00472395003866
0.00473135863536
0.00470318888594
0.00466906198577
0.00464568850635
0.0046395281943
0.00465046030457
0.00467264913364
0.00469300988712
0.00468429497026
0.00460594268821
0.00440533845238
0.00402897858839
0.00346620849792
0.00321392064517
0.00422375367247
0.004043510676
0.00448742802386
0.00481959582908
0.00500613703732
0.00507584964259
0.00506920444054
0.00502795315651
0.00498115022474
0.00494993230385
0.00494249025496
0.00495814360257
0.00499213928948
0.00502638643287
0.00503448228706
0.00497513943851
0.00479959485492
0.00447188583174
0.00403018438241
0.00427042643044
0.00484824892737
0.00442634826999
0.00482110389917
0.00513009216194
0.00529686723317
0.00534100124773
0.00530676748263
0.0052381647925
0.00515880232781
0.00510718326719
0.00509633397809
0.00512615078232
0.00519016473494
0.00525150145228
0.00528884424797
0.00525757707094
0.00510580238967
0.00480457395541
0.00441696994178
0.00491329249452
0.00516438870249
0.00463645713962
0.00501348926476
0.00530605011222
0.00544703496003
0.00545859591163
0.00539392742764
0.00530380764041
0.00515645077934
0.00506612798008
0.00505009183697
0.00511031449744
0.00523825316725
0.0053228203753
0.0053929286339
0.00539847316544
0.00527588982888
0.00499566751516
0.00463347929714
0.00524594620516
0.00527781060649
0.00472043576089
0.00509059150479
0.00536522009137
0.00547533053982
0.00545420899147
0.0053952665779
0.00541185593075
0.00504835577945
0.0048754243762
0.00485362966466
0.00497835124701
0.005298288219
0.00530569159512
0.00537853742069
0.00542197270256
0.00533456674957
0.00507655681604
0.00472763827205
0.00537445466336
0.00527822227564
0.00472800092609
0.00509264208211
0.0053468901008
0.00542755213443
0.00541091230542
0.00565436126977
0.00808438977658
0.00609044114308
0.00564308824228
0.0055834532402
0.00584262334441
0.00742624815001
0.00542125252659
0.00531614072544
0.00537408576773
0.00532294024409
0.00508949896201
0.00475021379312
0.00539072028199
0.00523614434896
0.00470271419436
0.00506077155676
0.0052938669572
0.00535277445214
0.00545406801791
0.00820491606244
0.00751102656541