/*--------------------------------*- C++ -*----------------------------------*\
| =========                 |                                                 |
| \\      /  F ield         | OpenFOAM: The Open Source CFD Toolbox           |
|  \\    /   O peration     | Version:  v1606+                                |
|   \\  /    A nd           | Web:      www.OpenFOAM.com                      |
|    \\/     M anipulation  |                                                 |
\*---------------------------------------------------------------------------*/
FoamFile
{
    version     2.0;
    format      ascii;
    class       surfaceScalarField;
    location    "2.3";
    object      meshPhiCN_0;
}
// * * * * * * * * * * * * * * * * * * * * * * * * * * * * * * * * * * * * * //

dimensions      [0 3 -1 0 0 0 0];

internalField   nonuniform List<scalar> 
33146
(
0
0
0
0
0
0
0
0
0
-1.71014112705e-09
-1.00007521717e-09
9.50615328836e-09
-1.88825228098e-08
-1.20627011508e-08
9.72112236008e-08
-3.87218961672e-08
-3.37467145854e-08
2.31802468575e-07
-4.70318941687e-08
-5.02771323911e-08
2.74925267734e-07
-4.70664485588e-08
-5.52662254832e-08
2.17243660691e-07
-4.71009501437e-08
-5.54222130236e-08
1.28412459102e-07
-4.71353989124e-08
-5.55782005685e-08
3.95812575191e-08
-4.71697948954e-08
-5.57341881089e-08
-4.92499440669e-08
-4.72041380546e-08
-5.58901756508e-08
-1.38081145652e-07
-4.72384284878e-08
-5.60461631935e-08
-2.2691234724e-07
-3.89078139821e-08
-5.11314992094e-08
-2.83765860452e-07
-1.8937105315e-08
-3.42034538741e-08
-2.37785850041e-07
-1.71067218306e-09
-1.21359056213e-08
-9.93787526484e-08
0
-1.00072951442e-09
-9.69110801253e-09
0
0
0
0
0
0
0
0
0
0
0
0
0
0
-1.38944302685e-08
-8.13271155247e-09
9.05655575053e-08
-6.76655463088e-08
-4.68145487293e-08
4.73507357306e-07
-1.47431181014e-07
-1.13919154807e-07
1.08565433447e-06
-2.15302710958e-07
-1.79178013077e-07
1.52832136711e-06
-2.41796975515e-07
-2.19437684635e-07
1.5188498541e-06
-2.42475249162e-07
-2.32518961781e-07
1.15190011631e-06
-2.43148659455e-07
-2.35410764826e-07
6.82500834625e-07
-2.43817206319e-07
-2.38302567879e-07
2.13101552944e-07
-2.4448088984e-07
-2.4119437092e-07
-2.56297728729e-07
-2.45139709978e-07
-2.44086173978e-07
-7.25697010411e-07
-2.45793666713e-07
-2.46977977024e-07
-1.19509629209e-06
-2.19625856803e-07
-2.37260064087e-07
-1.55985687813e-06
-1.50167229837e-07
-1.93853721944e-07
-1.56132209136e-06
-6.84904459064e-08
-1.20842710569e-07
-1.10584934809e-06
-1.39357010645e-08
-4.81813592754e-08
-4.81544841933e-07
0
-8.18519904244e-09
-9.20341913142e-08
0
0
0
0
0
0
0
0
-1.38914723654e-08
-8.12823885414e-09
1.03608826441e-07
-1.02148862584e-07
-5.98597331934e-08
7.82639804509e-07
-2.58912051298e-07
-1.63896841524e-07
2.18751080795e-06
-4.20106134296e-07
-2.82113219594e-07
3.59178064911e-06
-5.36624383384e-07
-3.82548782393e-07
4.23692701852e-06
-5.81061140105e-07
-4.44936726015e-07
3.89789693207e-06
-5.8467509182e-07
-4.7099813904e-07
2.90022536546e-06
-5.88232514562e-07
-4.83713699538e-07
1.72346357918e-06
-5.91733408262e-07
-4.96429260034e-07
5.46701792896e-07
-5.95177772974e-07
-5.0914482053e-07
-6.30059993379e-07
-5.98565608674e-07
-5.21860381025e-07
-1.80682177966e-06
-6.01896915311e-07
-5.34575941506e-07
-2.98358356594e-06
-5.60379009584e-07
-5.26263717043e-07
-3.97885742702e-06
-4.38112768928e-07
-4.58809279111e-07
-4.30862118933e-06
-2.67230566614e-07
-3.30544807397e-07
-3.64611096208e-06
-1.03913601728e-07
-1.81959127326e-07
-2.21878172493e-06
-1.39386389747e-08
-6.26031982483e-08
-7.93650737886e-07
0
-8.18966856443e-09
-1.0507655256e-07
0
0
-1.71000831405e-09
-9.99873536365e-10
1.43054882987e-08
-7.97315430991e-08
-3.95990857444e-08
6.17205080145e-07
-2.80764525407e-07
-1.50171276648e-07
2.51912632131e-06
-5.26143016242e-07
-3.02631044982e-07
5.11492652791e-06
-7.42350912616e-07
-4.52071531593e-07
7.08691708032e-06
-8.88241231645e-07
-5.73997318804e-07
7.67316300574e-06
-9.46251970497e-07
-6.54946539956e-07
6.79757302636e-06
-9.56837920221e-07
-6.98803046077e-07
5.01320003311e-06
-9.67168095051e-07
-7.28992787057e-07
2.98923321108e-06
-9.77242494925e-07
-7.59182528033e-07
9.65266389053e-07
-9.8706111991e-07
-7.89372269031e-07
-1.05870043297e-06
-9.96623969965e-07
-8.19562010006e-07
-3.082667255e-06
-1.00593104517e-06
-8.49751750987e-07
-5.10663407703e-06
-9.58354884312e-07
-8.51917442897e-07
-6.89007707386e-06
-8.00852798966e-07
-7.71368098641e-07
-7.76191809986e-06
-5.58910637667e-07
-5.95926621106e-07
-7.16623696574e-06
-2.91146252216e-07
-3.72268977665e-07
-5.17377508387e-06
-8.08486752523e-08
-1.68189007294e-07
-2.54937171704e-06
-1.71080492466e-09
-4.10756492153e-08
-6.25078070518e-07
-1.00093118789e-09
-1.44904015622e-08
-2.05714465842e-08
-1.10337042396e-08
1.72981742632e-07
-1.93840051527e-07
-8.57297667157e-08
1.66290099507e-06
-4.81527233495e-07
-2.39604248935e-07
4.88666492842e-06
-7.7977354208e-07
-4.17827545134e-07
8.37479422138e-06
-1.01848013933e-06
-5.79343783064e-07
1.06355072034e-05
-1.17236934742e-06
-7.09600327135e-07
1.09689560663e-05
-1.23831809433e-06
-8.02521072406e-07
9.49016460304e-06
-1.25906926995e-06
-8.63300945153e-07
6.95922915315e-06
-1.27918069941e-06
-9.12338117141e-07
4.16222783577e-06
-1.29865238268e-06
-9.61375289163e-07
1.36522651839e-06
-1.31748431979e-06
-1.01041246117e-06
-1.43177479899e-06
-1.33567651076e-06
-1.05944963318e-06
-4.22877611638e-06
-1.35322895554e-06
-1.10848680518e-06
-7.02577743376e-06
-1.31052037905e-06
-1.12738905188e-06
-9.55798104547e-06
-1.14155323704e-06
-1.05050516292e-06
-1.10419362581e-05
-8.56997195014e-07
-8.49397360935e-07
-1.07147751045e-05
-5.11609214935e-07
-5.67659290209e-07
-8.44834320184e-06
-1.99027060414e-07
-2.89297181515e-07
-4.93614179884e-06
-2.06691329319e-08
-9.25212453412e-08
-1.68174833038e-06
-1.11639436991e-08
-1.75137707083e-07
-5.74990960818e-08
-2.25979015179e-08
4.85780835569e-07
-3.03115436301e-07
-1.24095971528e-07
2.85496728318e-06
-6.4251323661e-07
-3.00759293456e-07
7.04265544557e-06
-9.6223495673e-07
-4.88414265848e-07
1.10843944587e-05
-1.20038789258e-06
-6.50958171039e-07
1.34106790918e-05
-1.34695325999e-06
-7.80430714668e-07
1.33957452194e-05
-1.41362250375e-06
-8.75789352814e-07
1.1373245744e-05
-1.44359368122e-06
-9.45131366884e-07
8.29343796957e-06
-1.47252021766e-06
-1.0059394568e-06
4.97029450622e-06
-1.50040211302e-06
-1.0667475467e-06
1.64715104287e-06
-1.52723936728e-06
-1.12755563663e-06
-1.67599242049e-06
-1.55303198049e-06
-1.18836372655e-06
-4.99913588384e-06
-1.57777995271e-06
-1.24917181648e-06
-8.3222793472e-06
-1.54898938985e-06
-1.28502125261e-06
-1.14047045338e-05
-1.39022200916e-06
-1.22691009702e-06
-1.34385742793e-05
-1.09033790848e-06
-1.02491449045e-06
-1.34732312897e-05
-6.98389133773e-07
-7.119433903e-07
-1.1158115607e-05
-3.15270418178e-07
-3.84306880727e-07
-7.10340508146e-06
-5.79853731039e-08
-1.38534763066e-07
-2.88427524364e-06
-2.31514269202e-08
-4.91601981738e-07
-8.55437562654e-08
-2.74159217646e-08
7.25271315496e-07
-3.67610311434e-07
-1.38570994075e-07
3.629442006e-06
-7.29633147107e-07
-3.21997846947e-07
8.3112827572e-06
-1.05438762371e-06
-5.11515314749e-07
1.26102881557e-05
-1.28582055922e-06
-6.7304615104e-07
1.49063497986e-05
-1.42153558763e-06
-8.00217735983e-07
1.46140255509e-05
-1.48348369903e-06
-8.93311197912e-07
1.2236967248e-05
-1.5180807588e-06
-9.63310344194e-07
8.87656647565e-06
-1.55141587119e-06
-1.02697963435e-06
5.32442164784e-06
-1.58348903615e-06
-1.09064892448e-06
1.77227682003e-06
-1.61430025378e-06
-1.15431821462e-06
-1.77986800778e-06
-1.64384952393e-06
-1.21798750478e-06
-5.3320128356e-06
-1.67213684671e-06
-1.28165679494e-06
-8.88415766341e-06
-1.65857583551e-06
-1.32618090037e-06
-1.22472216696e-05
-1.51690023392e-06
-1.28213776289e-06
-1.46368930156e-05
-1.21654599762e-06
-1.08601371086e-06
-1.49546037927e-05
-8.04141404493e-07
-7.64651200422e-07
-1.26797340634e-05
-3.85496360933e-07
-4.20138352839e-07
-8.37610853596e-06
-8.65074632028e-08
-1.56739471845e-07
-3.66464376561e-06
-2.82351769431e-08
-7.33703539491e-07
-9.3807591929e-08
-2.74159217505e-08
7.96299698051e-07
-3.84988678518e-07
-1.38570994057e-07
3.8475856429e-06
-7.52257471678e-07
-3.21997846935e-07
8.65631060407e-06
-1.07754531426e-06
-5.11515314757e-07
1.30184034127e-05
-1.30629648047e-06
-6.73046151026e-07
1.52957393108e-05
-1.43745465529e-06
-8.00217735984e-07
1.49089722069e-05
-1.49625954624e-06
-8.93311197888e-07
1.24193704207e-05
-1.53178489021e-06
-9.63310344231e-07
8.98810150775e-06
-1.56600383456e-06
-1.02697963437e-06
5.39222704348e-06
-1.59891637928e-06
-1.09064892451e-06
1.79635257918e-06
-1.63052252441e-06
-1.15431821466e-06
-1.79952188511e-06
-1.66082226995e-06
-1.21798750479e-06
-5.3953963494e-06
-1.68981561574e-06
-1.28165679496e-06
-8.99127081369e-06
-1.68279355987e-06
-1.32618090038e-06
-1.24249826201e-05
-1.5485781691e-06
-1.28213776288e-06
-1.4926774733e-05
-1.24951033064e-06
-1.08601371086e-06
-1.53397554154e-05
-8.32357054536e-07
-7.64651200421e-07
-1.30861599315e-05
-4.0470501833e-07
-4.20138352818e-07
-8.72187603542e-06
-9.4957376631e-08
-1.56739471845e-07
-3.88429909264e-06
-2.82351769426e-08
-8.05464520908e-07
-9.38075919291e-08
-2.74159217684e-08
7.96299698054e-07
-3.84988678515e-07
-1.38570994065e-07
3.8475856429e-06
-7.52257471693e-07
-3.21997846974e-07
8.65631060406e-06
-1.07754531426e-06
-5.11515314773e-07
1.30184034127e-05
-1.30629648047e-06
-6.73046151032e-07
1.52957393108e-05
-1.43745465528e-06
-8.00217735986e-07
1.49089722069e-05
-1.49625954624e-06
-8.9331119792e-07
1.24193704207e-05
-1.53178489019e-06
-9.63310344189e-07
8.98810150776e-06
-1.56600383458e-06
-1.02697963434e-06
5.39222704347e-06
-1.59891637928e-06
-1.09064892448e-06
1.79635257918e-06
-1.6305225244e-06
-1.15431821462e-06
-1.79952188511e-06
-1.66082226992e-06
-1.21798750479e-06
-5.3953963494e-06
-1.68981561576e-06
-1.28165679492e-06
-8.99127081369e-06
-1.68279355984e-06
-1.32618090037e-06
-1.24249826201e-05
-1.5485781691e-06
-1.28213776288e-06
-1.4926774733e-05
-1.24951033065e-06
-1.08601371086e-06
-1.53397554153e-05
-8.32357054523e-07
-7.64651200428e-07
-1.30861599315e-05
-4.04705018286e-07
-4.20138352857e-07
-8.72187603542e-06
-9.4957376663e-08
-1.56739471859e-07
-3.88429909264e-06
-2.82351769627e-08
-8.05464520913e-07
-9.38075919307e-08
-2.74159217594e-08
7.96299698054e-07
-3.84988678515e-07
-1.38570994037e-07
3.8475856429e-06
-7.52257471693e-07
-3.21997846937e-07
8.65631060407e-06
-1.07754531426e-06
-5.1151531474e-07
1.30184034127e-05
-1.30629648048e-06
-6.7304615103e-07
1.52957393108e-05
-1.43745465528e-06
-8.00217735993e-07
1.49089722069e-05
-1.49625954625e-06
-8.93311197913e-07
1.24193704207e-05
-1.53178489021e-06
-9.63310344179e-07
8.98810150776e-06
-1.56600383456e-06
-1.02697963432e-06
5.39222704347e-06
-1.5989163793e-06
-1.09064892447e-06
1.79635257917e-06
-1.63052252441e-06
-1.15431821461e-06
-1.79952188511e-06
-1.66082226994e-06
-1.21798750476e-06
-5.3953963494e-06
-1.68981561575e-06
-1.28165679492e-06
-8.99127081369e-06
-1.68279355987e-06
-1.32618090038e-06
-1.24249826201e-05
-1.54857816909e-06
-1.28213776292e-06
-1.4926774733e-05
-1.24951033068e-06
-1.08601371086e-06
-1.53397554153e-05
-8.32357054495e-07
-7.64651200412e-07
-1.30861599315e-05
-4.0470501833e-07
-4.20138352849e-07
-8.72187603542e-06
-9.49573766327e-08
-1.56739471835e-07
-3.88429909264e-06
-2.82351769501e-08
-8.05464520912e-07
-9.38075919306e-08
-2.74159217812e-08
7.96299698056e-07
-3.84988678518e-07
-1.3857099408e-07
3.8475856429e-06
-7.52257471676e-07
-3.2199784694e-07
8.65631060407e-06
-1.07754531425e-06
-5.11515314745e-07
1.30184034127e-05
-1.30629648047e-06
-6.73046151079e-07
1.52957393108e-05
-1.4374546553e-06
-8.00217736031e-07
1.49089722069e-05
-1.49625954623e-06
-8.93311197898e-07
1.24193704207e-05
-1.5317848902e-06
-9.63310344151e-07
8.98810150776e-06
-1.56600383458e-06
-1.02697963428e-06
5.39222704348e-06
-1.5989163793e-06
-1.09064892445e-06
1.79635257918e-06
-1.63052252445e-06
-1.15431821459e-06
-1.79952188511e-06
-1.66082226991e-06
-1.21798750475e-06
-5.3953963494e-06
-1.68981561576e-06
-1.2816567949e-06
-8.99127081369e-06
-1.68279355986e-06
-1.32618090038e-06
-1.24249826201e-05
-1.54857816912e-06
-1.2821377629e-06
-1.4926774733e-05
-1.24951033065e-06
-1.08601371086e-06
-1.53397554153e-05
-8.32357054538e-07
-7.646512004e-07
-1.30861599315e-05
-4.04705018322e-07
-4.20138352821e-07
-8.72187603542e-06
-9.49573766708e-08
-1.56739471851e-07
-3.88429909264e-06
-2.82351769586e-08
-8.05464520913e-07
-8.55814449541e-08
-2.25979014936e-08
7.25572205283e-07
-3.67982093025e-07
-1.24095971533e-07
3.63343568512e-06
-7.30743108151e-07
-3.00759293497e-07
8.32641917588e-06
-1.05633307114e-06
-4.88414265809e-07
1.26404018745e-05
-1.28820931808e-06
-6.50958171006e-07
1.49452922647e-05
-1.42365493391e-06
-7.8043071465e-07
1.46484299909e-05
-1.48517146461e-06
-8.75789352854e-07
1.22595566368e-05
-1.51981322524e-06
-9.45131366914e-07
8.89075307268e-06
-1.55319165033e-06
-1.00593945684e-06
5.33288445633e-06
-1.58530673985e-06
-1.06674754675e-06
1.77501583998e-06
-1.61615849387e-06
-1.12755563668e-06
-1.78285277637e-06
-1.64574691235e-06
-1.18836372661e-06
-5.34072139272e-06
-1.67407199517e-06
-1.24917181652e-06
-8.89859000908e-06
-1.66110414513e-06
-1.28502125264e-06
-1.2270101764e-05
-1.51978873434e-06
-1.22691009702e-06
-1.46716974312e-05
-1.21884234815e-06
-1.02491449044e-06
-1.49940210936e-05
-8.0538538664e-07
-7.11943390293e-07
-1.27102572097e-05
-3.85889701408e-07
-3.84306880734e-07
-8.39147146693e-06
-8.65456623444e-08
-1.38534763107e-07
-3.66870084384e-06
-2.31514269578e-08
-7.34009448486e-07
-5.75593488638e-08
-1.10337042399e-08
4.86260383084e-07
-3.03934623634e-07
-8.57297667029e-08
2.86322330901e-06
-6.45232957467e-07
-2.39604248973e-07
7.07792438911e-06
-9.67350468062e-07
-4.17827545136e-07
1.11596319768e-05
-1.20722106482e-06
-5.79343783027e-07
1.35150437296e-05
-1.35416683102e-06
-7.0960032716e-07
1.35000849884e-05
-1.4206869158e-06
-8.02521072408e-07
1.1456169442e-05
-1.45082862369e-06
-8.63300945158e-07
8.35172398109e-06
-1.47992067891e-06
-9.12338117154e-07
5.00503367051e-06
-1.50796308144e-06
-9.61375289137e-07
1.65834335993e-06
-1.53495583123e-06
-1.01041246116e-06
-1.68834695065e-06
-1.56089892835e-06
-1.05944963317e-06
-5.03503726124e-06
-1.58579237278e-06
-1.1084868052e-06
-8.38172757183e-06
-1.557458486e-06
-1.12738905193e-06
-1.14888557276e-05
-1.3983170956e-06
-1.05050516291e-06
-1.35442943065e-05
-1.09625527499e-06
-8.49397360896e-07
-1.35790074874e-05
-7.01390128039e-07
-5.67659290227e-07
-1.12344504939e-05
-3.16129205115e-07
-2.89297181547e-07
-7.13922472945e-06
-5.80462678889e-08
-9.252124533e-08
-2.89266579198e-06
-1.11639437137e-08
-4.92089633035e-07
-2.05899243108e-08
-9.99873537532e-10
1.73128195598e-07
-1.94506480248e-07
-3.95990856987e-08
1.66876159612e-06
-4.84374505859e-07
-1.50171276645e-07
4.91999785118e-06
-7.85924270077e-07
-3.02631044984e-07
8.4572412825e-06
-1.02771000043e-06
-4.52071531538e-07
1.07632438405e-05
-1.1834519941e-06
-5.73997318789e-07
1.11124898005e-05
-1.25006657199e-06
-6.54946539972e-07
9.61704255799e-06
-1.27104339647e-06
-6.98803046087e-07
7.05227994456e-06
-1.29137482109e-06
-7.28992787066e-07
4.21757811156e-06
-1.31106084576e-06
-7.59182528033e-07
1.38287627856e-06
-1.33010147054e-06
-7.89372269012e-07
-1.45182555445e-06
-1.3484966954e-06
-8.19562010038e-07
-4.28652738745e-06
-1.36624652043e-06
-8.49751750962e-07
-7.12122922045e-06
-1.32312951537e-06
-8.51917442941e-07
-9.68727304848e-06
-1.15209619238e-06
-7.71368098602e-07
-1.11878384883e-05
-8.6387260415e-07
-5.95926621087e-07
-1.08445615982e-05
-5.14671446477e-07
-3.72268977669e-07
-8.53214109162e-06
-1.99715746057e-07
-1.68189007281e-07
-4.97003401969e-06
-2.06877363395e-08
-4.10756492003e-08
-1.68770908124e-06
-1.00093122648e-09
-1.75286679313e-07
-1.71016064868e-09
0
1.43066877281e-08
-7.99523093876e-08
-8.12823885193e-09
6.18826211152e-07
-2.82428500054e-07
-5.98597332243e-08
2.53554673689e-06
-5.30710379408e-07
-1.63896841492e-07
5.16858699465e-06
-7.50270052925e-07
-2.82113219601e-07
7.18434304248e-06
-8.98701368573e-07
-3.82548782391e-07
7.79510788439e-06
-9.57726912035e-07
-4.44936726e-07
6.91250486507e-06
-9.68462282485e-07
-4.70998139023e-07
5.09910043793e-06
-9.78939209111e-07
-4.8371369955e-07
3.04018258598e-06
-9.89157691773e-07
-4.96429260038e-07
9.81264734031e-07
-9.99117730599e-07
-5.09144820493e-07
-1.07765311792e-06
-1.00881932549e-06
-5.21860380998e-07
-3.13657096987e-06
-1.01826247652e-06
-5.34575941498e-07
-5.19548882182e-06
-9.69796431138e-07
-5.26263717001e-07
-7.00789463856e-06
-8.09520861277e-07
-4.58809279117e-07
-7.88642735395e-06
-5.63825099542e-07
-3.30544807378e-07
-7.26554832249e-06
-2.92887734393e-07
-1.81959127312e-07
-5.22843633535e-06
-8.10736700886e-08
-6.26031982554e-08
-2.56609201215e-06
-1.71095735612e-09
-8.18966855357e-09
-6.26728549259e-07
0
-1.44916222115e-08
0
0
0
-1.39015549853e-08
0
1.03679674153e-07
-1.0255577497e-07
-8.13271153991e-09
7.85691287826e-07
-2.60760608442e-07
-4.68145487106e-08
2.2053201116e-06
-4.24148764565e-07
-1.13919154796e-07
3.63475259858e-06
-5.42620054331e-07
-1.79178013112e-07
4.29941482367e-06
-5.87861317102e-07
-2.19437684647e-07
3.96106646881e-06
-5.91526345863e-07
-2.32518961726e-07
2.94829080841e-06
-5.95134381288e-07
-2.35410764774e-07
1.75188104288e-06
-5.98685423352e-07
-2.38302567843e-07
5.55471277353e-07
-6.02179472051e-07
-2.41194370902e-07
-6.40938488179e-07
-6.0561652737e-07
-2.44086173897e-07
-1.83734825371e-06
-6.08996589298e-07
-2.46977976976e-07
-3.03375801924e-06
-5.66702590566e-07
-2.3726006412e-07
-4.04403478348e-06
-4.42373030906e-07
-1.93853721932e-07
-4.37272842576e-06
-2.69156259403e-07
-1.20842710551e-07
-3.69006351077e-06
-1.04330293813e-07
-4.81813592858e-08
-2.23696547832e-06
-1.39487722475e-08
-8.18519904848e-09
-7.96763114818e-07
0
0
-1.05148780121e-07
0
0
0
0
0
0
0
0
-1.3904516042e-08
0
9.06274630157e-08
-6.789559784e-08
-1.00007520411e-09
4.75076397741e-07
-1.48305712955e-07
-1.20627011364e-08
1.09300981776e-06
-2.16936517568e-07
-3.37467145975e-08
1.54300250989e-06
-2.43771689042e-07
-5.02771323908e-08
1.53579843697e-06
-2.44457269626e-07
-5.52662254739e-08
1.16523094899e-06
-2.45137972522e-07
-5.5422212994e-08
6.90360021979e-07
-2.45813797716e-07
-5.55782005814e-08
2.15489094969e-07
-2.46484745127e-07
-5.57341881037e-08
-2.59381832041e-07
-2.47150814931e-07
-5.58901756255e-08
-7.34252759055e-07
-2.47812007012e-07
-5.60461631779e-08
-1.20912368607e-06
-2.21303949363e-07
-5.11314992011e-08
-1.57744510842e-06
-1.51064338254e-07
-3.42034538805e-08
-1.57644906336e-06
-6.87245946825e-08
-1.21359055966e-08
-1.1133971461e-06
-1.39458311539e-08
-1.00072946786e-09
-4.83150945383e-07
0
0
-9.20974766674e-08
0
0
0
0
0
0
0
0
0
0
0
0
0
0
-1.710293482e-09
0
9.50694936872e-09
-1.89011661368e-08
0
9.73015759484e-08
-3.88006149718e-08
0
2.32310697343e-07
-4.71481867407e-08
0
2.75798298197e-07
-4.7182866656e-08
0
2.18000555981e-07
-4.72174937581e-08
0
1.28857379307e-07
-4.72520680674e-08
0
3.97142026385e-08
-4.72865895512e-08
0
-4.94289740341e-08
-4.7321058249e-08
0
-1.38572150703e-07
-4.73554741484e-08
0
-2.27715327379e-07
-3.89870906345e-08
0
-2.84677455763e-07
-1.89558283271e-08
0
-2.38312250229e-07
-1.71082460439e-09
0
-9.94718903359e-08
0
0
-9.69192531802e-09
0
0
0
0
0
0
0
0
0
0
0
0
0
0
0
0
0
0
0
0
0
0
0
0
0
0
0
0
0
0
0
0
0
0
0
0
0
0
0
0
0
0
0
0
0
0
0
0
0
0
0
0
0
0
0
0
0
0
0
0
0
0
0
0
0
0
0
0
0
0
0
0
0
0
0
0
0
0
0
0
0
0
0
0
0
0
0
0
0
0
0
0
0
0
0
0
0
0
0
0
0
0
0
0
0
0
0
0
0
0
0
0
0
0
0
-4.2995814111e-09
-3.59396292366e-09
2.46608997972e-08
-3.44962714199e-08
-3.04441086606e-08
1.49287967604e-07
-6.77727696343e-08
-7.9227259467e-08
3.10985315405e-07
-8.15234057116e-08
-1.15313614951e-07
3.52085859506e-07
-8.15562806984e-08
-1.2592058304e-07
2.751955878e-07
-8.1589154558e-08
-1.26015021747e-07
1.62694507389e-07
-8.16220273517e-08
-1.26109460455e-07
5.01934269737e-08
-8.1654899071e-08
-1.26203899161e-07
-6.23076534382e-08
-8.16877697169e-08
-1.26298337864e-07
-1.74808733848e-07
-8.17206393107e-08
-1.26392776575e-07
-2.87309814267e-07
-6.79556336515e-08
-1.15773341557e-07
-3.63271749502e-07
-3.45583197773e-08
-7.94479834041e-08
-3.18909607932e-07
-4.30172808706e-09
-3.04922072887e-08
-1.52563917094e-07
0
-3.59749252355e-09
-2.51386527813e-08
0
0
0
0
0
0
0
0
0
0
0
0
0
0
-2.59807138702e-08
-2.032358535e-08
1.3524829921e-07
-1.17131404761e-07
-1.07763743449e-07
6.17629197508e-07
-2.49469980352e-07
-2.55813037239e-07
1.32271596559e-06
-3.60094135829e-07
-3.99602363502e-07
1.8041787466e-06
-4.02374139657e-07
-4.85759870119e-07
1.76767371682e-06
-4.02661758593e-07
-5.09489508267e-07
1.33572572877e-06
-4.02949150282e-07
-5.10322967327e-07
7.91578616191e-07
-4.03236314733e-07
-5.11156426384e-07
2.47431503605e-07
-4.0352325195e-07
-5.11989885437e-07
-2.9671560898e-07
-4.03809962005e-07
-5.12823344492e-07
-8.4086272157e-07
-4.04096444845e-07
-5.13656803551e-07
-1.38500983416e-06
-3.62103651762e-07
-4.90138585351e-07
-1.81464275718e-06
-2.51067357726e-07
-4.02427081319e-07
-1.84264198658e-06
-1.17821492832e-07
-2.5702453128e-07
-1.34712892669e-06
-2.60317635308e-08
-1.08057603861e-07
-6.28053141359e-07
0
-2.03647457774e-08
-1.3742377993e-07
0
0
0
0
0
0
0
0
-2.59770662574e-08
-2.03180776725e-08
1.54725842757e-07
-1.75665997277e-07
-1.36692461623e-07
9.93767784618e-07
-4.33832951137e-07
-3.71360496874e-07
2.58445072198e-06
-6.95784444201e-07
-6.46307746264e-07
4.09057204517e-06
-8.81321618662e-07
-8.79392633449e-07
4.73958133625e-06
-9.47672507681e-07
-1.01058274915e-06
4.3269434267e-06
-9.48167265251e-07
-1.04629033106e-06
3.21348306363e-06
-9.48661141605e-07
-1.04881806499e-06
1.91045491327e-06
-9.49154136754e-07
-1.05134579892e-06
6.07426762897e-07
-9.49646250631e-07
-1.05387353284e-06
-6.95601387463e-07
-9.50137483313e-07
-1.05640126678e-06
-1.99862953783e-06
-9.5062783474e-07
-1.0589290007e-06
-3.30165768821e-06
-8.8497459466e-07
-1.02434465211e-06
-4.41286949498e-06
-6.99325724472e-07
-8.89386957638e-07
-4.81689520753e-06
-4.36347298539e-07
-6.51713591374e-07
-4.1511040766e-06
-1.76691347164e-07
-3.73306713365e-07
-2.62112532549e-06
-2.60354087012e-08
-1.37103812748e-07
-1.00771579183e-06
0
-2.03702426703e-08
-1.56899313251e-07
0
0
-4.29904452444e-09
-3.59280714764e-09
3.71109230845e-08
-1.38932801331e-07
-9.10248699837e-08
8.0394328462e-07
-4.71641999036e-07
-3.42548279968e-07
2.97708781117e-06
-8.74813220194e-07
-7.1019285166e-07
5.77207088178e-06
-1.22607056624e-06
-1.08965880111e-06
7.81759151188e-06
-1.4535704672e-06
-1.38901174411e-06
8.36266449488e-06
-1.53111941445e-06
-1.55007745554e-06
7.36696773009e-06
-1.53147751971e-06
-1.59354891802e-06
5.42593458964e-06
-1.53183403587e-06
-1.5981178702e-06
3.2373949109e-06
-1.53218896291e-06
-1.60268682238e-06
1.04885523217e-06
-1.53254230083e-06
-1.60725577457e-06
-1.13968444658e-06
-1.53289404965e-06
-1.61182472674e-06
-3.32822412533e-06
-1.53324420939e-06
-1.61639367893e-06
-5.51676380407e-06
-1.45634888324e-06
-1.57570882179e-06
-7.45736820641e-06
-1.22921112825e-06
-1.40934523987e-06
-8.45153769797e-06
-8.77665270638e-07
-1.10235357139e-06
-7.90051187023e-06
-4.73464994848e-07
-7.15815553437e-07
-5.83693319918e-06
-1.39497288231e-07
-3.44114802843e-07
-3.01271675939e-06
-4.30226453949e-09
-9.12942015563e-08
-8.14159980317e-07
-3.59864803109e-09
-3.75883978014e-08
-3.87873948575e-08
-2.68276569676e-08
2.6260683523e-07
-3.29190123711e-07
-1.95361670817e-07
2.02791459882e-06
-8.05755184509e-07
-5.60320233197e-07
5.56795806612e-06
-1.3017107163e-06
-1.02675942078e-06
9.23979198293e-06
-1.69247467565e-06
-1.47366846933e-06
1.15287583039e-05
-1.92541015121e-06
-1.80351039789e-06
1.1759557444e-05
-2.00016397019e-06
-1.97009749875e-06
1.01120024387e-05
-2.00011250359e-06
-2.01329798415e-06
7.40257125187e-06
-2.00005904203e-06
-2.01876256804e-06
4.4305027353e-06
-2.0000035855e-06
-2.02422715194e-06
1.45843421874e-06
-1.99994613397e-06
-2.02969173585e-06
-1.51363429783e-06
-1.99988668749e-06
-2.03515631976e-06
-4.4857028144e-06
-1.99982524607e-06
-2.04062090366e-06
-7.45777133097e-06
-1.92513174135e-06
-2.00207780436e-06
-1.01690652842e-05
-1.69265439142e-06
-1.83178156185e-06
-1.18246933172e-05
-1.30248110861e-06
-1.49391464974e-06
-1.16057735011e-05
-8.06745763153e-07
-1.03714795624e-06
-9.31697781821e-06
-3.29815330876e-07
-5.63750843909e-07
-5.62363528169e-06
-3.88713765222e-08
-1.96056388359e-07
-2.05089577169e-06
-2.69167512949e-08
-2.65856502054e-07
-1.02415976253e-07
-5.23706087248e-08
6.48680577642e-07
-5.11138305417e-07
-2.84018648764e-07
3.37506495815e-06
-1.07848413358e-06
-7.206446915e-07
7.88341540189e-06
-1.61915497512e-06
-1.24439753577e-06
1.20838387868e-05
-2.0118731697e-06
-1.72072252801e-06
1.43783024622e-05
-2.22289338291e-06
-2.04534573872e-06
1.41687458505e-05
-2.28240831336e-06
-2.18894703515e-06
1.19035838674e-05
-2.28209143612e-06
-2.21980443272e-06
8.64280148803e-06
-2.28177275684e-06
-2.22328459611e-06
5.18251098061e-06
-2.28145227556e-06
-2.22676475948e-06
1.7222204732e-06
-2.28112999217e-06
-2.23024492286e-06
-1.73807003422e-06
-2.28080590683e-06
-2.23372508624e-06
-5.19836054164e-06
-2.28048001946e-06
-2.23720524962e-06
-8.65865104906e-06
-2.22012023921e-06
-2.21319704954e-06
-1.19218945859e-05
-2.00878801415e-06
-2.07350315595e-06
-1.41991598117e-05
-1.61686853157e-06
-1.74525279113e-06
-1.44331629414e-05
-1.07751076981e-06
-1.25859296444e-06
-1.21577466476e-05
-5.11070279176e-07
-7.25845519893e-07
-7.94979602345e-06
-1.02491492708e-07
-2.85173931504e-07
-3.40973760218e-06
-5.25562667124e-08
-6.56374271599e-07
-1.49745727867e-07
-6.29661933933e-08
9.27704752973e-07
-6.19254990999e-07
-3.18147583264e-07
4.23244273369e-06
-1.22925828526e-06
-7.79042462677e-07
9.23478496256e-06
-1.78521997088e-06
-1.32092511052e-06
1.36723407112e-05
-2.16755565121e-06
-1.80323011074e-06
1.58852737728e-05
-2.3506547238e-06
-2.11554655894e-06
1.52965332974e-05
-2.39010483066e-06
-2.23624967819e-06
1.25802957744e-05
-2.38989050059e-06
-2.25471983889e-06
9.04467365807e-06
-2.38967594301e-06
-2.25569837395e-06
5.42669018896e-06
-2.3894611579e-06
-2.256676909e-06
1.80870671985e-06
-2.38924614521e-06
-2.25765544405e-06
-1.80927674927e-06
-2.38903090511e-06
-2.2586339791e-06
-5.42726021838e-06
-2.38881543745e-06
-2.25961251413e-06
-9.0452436875e-06
-2.34761577557e-06
-2.24942232853e-06
-1.2582042425e-05
-2.16284847145e-06
-2.13991489976e-06
-1.530746333e-05
-1.7809174037e-06
-1.82864600121e-06
-1.59232073116e-05
-1.22673493151e-06
-1.33650216276e-06
-1.37396818686e-05
-6.18463138434e-07
-7.84966637503e-07
-9.30451514759e-06
-1.49702612868e-07
-3.19505458254e-07
-4.27347810533e-06
-6.31852647537e-08
-9.38368071249e-07
-1.63625157396e-07
-6.29661933807e-08
1.00901230045e-06
-6.4858405099e-07
-3.1814758328e-07
4.47219519333e-06
-1.26908066646e-06
-7.79042462663e-07
9.60124301454e-06
-1.82806796702e-06
-1.32092511049e-06
1.40954453013e-05
-2.20576513645e-06
-1.80323011074e-06
1.62710848684e-05
-2.37668313249e-06
-2.11554655895e-06
1.55403869474e-05
-2.40615101714e-06
-2.2362496782e-06
1.26615188678e-05
-2.40605212377e-06
-2.25471983889e-06
9.05849559283e-06
-2.40595323297e-06
-2.25569837398e-06
5.43509735569e-06
-2.40585434471e-06
-2.25667690902e-06
1.81169911856e-06
-2.40575545899e-06
-2.25765544404e-06
-1.81169911857e-06
-2.40565657583e-06
-2.2586339791e-06
-5.43509735569e-06
-2.40555769515e-06
-2.25961251413e-06
-9.05849559283e-06
-2.37401329242e-06
-2.24942232854e-06
-1.2661843646e-05
-2.20087632639e-06
-2.13991489974e-06
-1.5547426284e-05
-1.82341106802e-06
-1.82864600119e-06
-1.63042913135e-05
-1.26625656973e-06
-1.33650216275e-06
-1.41604980031e-05
-6.47641107117e-07
-7.84966637506e-07
-9.67148976043e-06
-1.63551987864e-07
-3.19505458238e-07
-4.51484180673e-06
-6.31852647427e-08
-1.02049367881e-06
-1.63625157396e-07
-6.2966193405e-08
1.00901230045e-06
-6.48584050982e-07
-3.18147583273e-07
4.47219519333e-06
-1.26908066645e-06
-7.79042462669e-07
9.60124301454e-06
-1.82806796703e-06
-1.32092511051e-06
1.40954453013e-05
-2.20576513644e-06
-1.80323011074e-06
1.62710848684e-05
-2.37668313247e-06
-2.11554655895e-06
1.55403869474e-05
-2.40615101714e-06
-2.23624967824e-06
1.26615188678e-05
-2.40605212377e-06
-2.25471983888e-06
9.05849559283e-06
-2.40595323297e-06
-2.25569837396e-06
5.43509735569e-06
-2.40585434468e-06
-2.25667690898e-06
1.81169911856e-06
-2.40575545896e-06
-2.25765544404e-06
-1.81169911857e-06
-2.40565657584e-06
-2.25863397909e-06
-5.4350973557e-06
-2.40555769518e-06
-2.25961251413e-06
-9.05849559283e-06
-2.37401329242e-06
-2.24942232855e-06
-1.2661843646e-05
-2.20087632641e-06
-2.13991489976e-06
-1.5547426284e-05
-1.82341106799e-06
-1.82864600122e-06
-1.63042913135e-05
-1.26625656975e-06
-1.33650216274e-06
-1.41604980031e-05
-6.4764110712e-07
-7.84966637503e-07
-9.67148976043e-06
-1.63551987842e-07
-3.19505458275e-07
-4.51484180673e-06
-6.31852647716e-08
-1.02049367881e-06
-1.63625157397e-07
-6.2966193406e-08
1.00901230045e-06
-6.48584050988e-07
-3.18147583253e-07
4.47219519334e-06
-1.26908066646e-06
-7.79042462694e-07
9.60124301454e-06
-1.82806796703e-06
-1.32092511052e-06
1.40954453013e-05
-2.20576513642e-06
-1.80323011074e-06
1.62710848684e-05
-2.37668313247e-06
-2.11554655895e-06
1.55403869474e-05
-2.40615101714e-06
-2.23624967821e-06
1.26615188678e-05
-2.40605212376e-06
-2.25471983887e-06
9.05849559283e-06
-2.40595323295e-06
-2.25569837393e-06
5.43509735569e-06
-2.4058543447e-06
-2.25667690896e-06
1.81169911856e-06
-2.405755459e-06
-2.25765544404e-06
-1.81169911857e-06
-2.40565657582e-06
-2.25863397908e-06
-5.4350973557e-06
-2.40555769518e-06
-2.25961251414e-06
-9.05849559284e-06
-2.3740132924e-06
-2.24942232856e-06
-1.2661843646e-05
-2.20087632641e-06
-2.13991489974e-06
-1.5547426284e-05
-1.823411068e-06
-1.82864600122e-06
-1.63042913135e-05
-1.26625656972e-06
-1.33650216277e-06
-1.41604980031e-05
-6.4764110715e-07
-7.84966637507e-07
-9.67148976043e-06
-1.63551987892e-07
-3.1950545826e-07
-4.51484180673e-06
-6.31852647509e-08
-1.02049367881e-06
-1.63625157395e-07
-6.29661933902e-08
1.00901230045e-06
-6.4858405099e-07
-3.18147583266e-07
4.47219519334e-06
-1.26908066646e-06