/*--------------------------------*- C++ -*----------------------------------*\
| =========                 |                                                 |
| \\      /  F ield         | OpenFOAM: The Open Source CFD Toolbox           |
|  \\    /   O peration     | Version:  v1606+                                |
|   \\  /    A nd           | Web:      www.OpenFOAM.com                      |
|    \\/     M anipulation  |                                                 |
\*---------------------------------------------------------------------------*/
FoamFile
{
    version     2.0;
    format      ascii;
    class       volVectorField;
    location    "2.3";
    object      U_0;
}
// * * * * * * * * * * * * * * * * * * * * * * * * * * * * * * * * * * * * * //

dimensions      [0 1 -1 0 0 0 0];

internalField   nonuniform List<vector> 
11640
(
(0.000965558286652 0.00113530086708 -0.00160305297384)
(0.00288710721829 0.00100442847678 -0.00151672701266)
(0.00473666679551 0.000864118187987 -0.00140851212987)
(0.00664121374492 0.000756895928379 -0.00130392216894)
(0.00848391126767 0.000643582696087 -0.00118136985836)
(0.0101931791994 0.0005218853928 -0.00106757028544)
(0.0116453277254 0.000454564038376 -0.000921670907883)
(0.0128149605105 0.000415722748503 -0.000751631834503)
(0.0136651998931 0.000310152444178 -0.000538872366089)
(0.014157895546 0.000199925733483 -0.000303096189048)
(0.0142560943219 0.0001002381655 -7.6874774676e-05)
(0.0139847677445 5.58137029519e-06 0.000144691357627)
(0.013274016701 -8.63453793543e-05 0.000340112337938)
(0.0121907281481 -0.000177248963055 0.000523767726888)
(0.0108250812605 -0.000314445662225 0.000667785807881)
(0.00923911930516 -0.000468986567417 0.000835288435725)
(0.00749342272728 -0.000604538266677 0.0010075317379)
(0.00556540334335 -0.000702225740908 0.00115034318035)
(0.00346801116755 -0.000757335566912 0.00126226800843)
(0.00127302519063 -0.000713818322557 0.00130029563378)
(0.000762345001152 0.00359041085501 -0.00157861160681)
(0.00246394929522 0.00329270818557 -0.00190073773188)
(0.00435080453605 0.00290506638489 -0.00193237280605)
(0.0063172655027 0.00254692007428 -0.00189450720008)
(0.00823001669015 0.00221800048439 -0.00182697897514)
(0.0100116181424 0.00196048181852 -0.00169638488423)
(0.0115121319858 0.00172856344898 -0.00155352332462)
(0.0126401504977 0.00151867873572 -0.00128813277715)
(0.0134183702534 0.00114288736443 -0.000986442207989)
(0.0138683123443 0.000740810953593 -0.000664978520882)
(0.01394007828 0.000356954121512 -0.000342209690565)
(0.0136430587598 -4.77460316687e-06 -3.30477635476e-05)
(0.0129621275248 -0.000343449057656 0.000223767466672)
(0.0119128465929 -0.000661139039267 0.000456774724663)
(0.0105787229348 -0.00103530933227 0.000665962761879)
(0.00901842156663 -0.00143795932714 0.000863253950739)
(0.00725184127089 -0.00183258015821 0.00105077838657)
(0.00528941491632 -0.00211682724394 0.0012162220499)
(0.00322188961286 -0.00224930020491 0.00128581496182)
(0.0011289343921 -0.00218995656159 0.00118223809006)
(0.000602493815704 0.00618201706593 -0.00148262553413)
(0.00201778911282 0.00590085840605 -0.00191457073361)
(0.00386141002939 0.00546546014375 -0.00204846090576)
(0.00587234160503 0.00501939655302 -0.0021679531904)
(0.00782843975389 0.00468302674508 -0.0022058948462)
(0.00959364434112 0.00439854850142 -0.00215699697897)
(0.0111036563649 0.00405513261444 -0.00201443481498)
(0.0121793590095 0.00369738223335 -0.00172121578969)
(0.0128001030183 0.00303634951425 -0.00139749311434)
(0.0131874600687 0.00227660681412 -0.00102088566853)
(0.0132643902814 0.00149845144442 -0.000616943934661)
(0.0129846756022 0.000768320343339 -0.000222306475219)
(0.0123503659726 6.85471426831e-05 8.29555660814e-05)
(0.0113445469357 -0.000578528192714 0.000311135741191)
(0.0100559571738 -0.00127873705294 0.000491633192697)
(0.0085545438155 -0.00199479840952 0.000693494716367)
(0.00684051258453 -0.00267719037876 0.000903818678767)
(0.00490541325371 -0.00320463552213 0.0011158658109)
(0.0029151253591 -0.00349220344651 0.00118446483286)
(0.000987868577173 -0.00348171774472 0.00107827604469)
(0.000486877888207 0.0087810959588 -0.00137811329796)
(0.00162259221167 0.00852924876371 -0.00183850087663)
(0.00334983597185 0.00811418435536 -0.0021252515512)
(0.00532487589343 0.0077721655188 -0.00234974128201)
(0.00724031911105 0.00759162108016 -0.00250002069973)
(0.00892796352792 0.00739209212182 -0.00253581474172)
(0.0104240861298 0.00698196207151 -0.00248654344622)
(0.011380617993 0.00658589136067 -0.00213686887289)
(0.011790887184 0.00553539508153 -0.00181419517043)
(0.0120865840877 0.00414490016028 -0.00139487517341)
(0.0121612358335 0.00276555584632 -0.000898756204325)
(0.0119182479302 0.00150944574716 -0.000447236033827)
(0.0113745302954 0.000392018605178 -0.000129910869126)
(0.0104769216665 -0.000445034697056 0.000110823530121)
(0.00930201154673 -0.00142927939008 0.000272565025402)
(0.00792849858672 -0.00242750685766 0.000465293134314)
(0.00634241230207 -0.00338857569189 0.000683704568106)
(0.00451907823553 -0.00415136403435 0.000924680810547)
(0.00262069910672 -0.00458370875338 0.00106994267382)
(0.00087526558999 -0.00470273562651 0.00095113146504)
(0.000366929228057 0.0112665615862 -0.00120874538509)
(0.00117615047369 0.0110828145925 -0.00174916364417)
(0.00279450962952 0.0107775893864 -0.00210422989898)
(0.00464231322774 0.0106851624069 -0.00240791070756)
(0.00631972289304 0.0108200545592 -0.00269282404393)
(0.00777395681559 0.0108961133852 -0.00279859020131)
(0.00940014124586 0.0104129366028 -0.00279619385806)
(0.010174270627 0.0100284699262 -0.00235606976499)
(0.0101220302934 0.0085848698278 -0.00211261896241)
(0.0102946925109 0.00649884485471 -0.00166802727064)
(0.0105344032064 0.00446419545724 -0.0011783621733)
(0.0105249581386 0.00257415827034 -0.000673639761062)
(0.0103810384202 0.00107128392004 -0.000263506592317)
(0.00971397489562 0.000134970565583 9.33211445421e-06)
(0.00856909331498 -0.0011022002191 0.000117206844245)
(0.00729752889264 -0.00243393279499 0.000298799336144)
(0.0058204021154 -0.00372237581165 0.000510644945127)
(0.00417904916945 -0.00474754453793 0.000787630086358)
(0.00240229349686 -0.00538678396171 0.000883526636926)
(0.000746028768212 -0.00561770829117 0.000786004871271)
(0.000179646491195 0.0135441544633 -0.00101195782273)
(0.00076849903321 0.0134667857302 -0.00155978816367)
(0.0021732929129 0.0133440798095 -0.00198867218698)
(0.00373802501159 0.013551048315 -0.00233711449304)
(0.00515985348042 0.014075520157 -0.00264249421968)
(0.00630215890736 0.0144653053535 -0.00288381932636)
(0.00804796121653 0.0141970815146 -0.00313968990179)
(0.00841420632387 0.015155025281 -0.0028318429511)
(0.00805170908434 0.0137389053151 -0.0028293846076)
(0.0081142548724 0.0109857555029 -0.00246730211899)
(0.00848067178403 0.00821186682386 -0.00190952908422)
(0.00884829851253 0.00547648098423 -0.00129021647278)
(0.00932015974421 0.00307653925423 -0.000708040514915)
(0.00886029029832 0.00131156061054 -0.000167021926374)
(0.00765540893634 -0.000547023050174 -4.53231100929e-05)
(0.00652981874791 -0.00219763645758 0.000148858022435)
(0.00522964013279 -0.00376259335176 0.000342627140128)
(0.00376062501039 -0.00504127461503 0.000613548915497)
(0.00215779731115 -0.00589571459863 0.000743976964951)
(0.00070710822735 -0.00621643882868 0.000638792418185)
(4.30157974092e-05 0.0155242044882 -0.000809046937011)
(0.0003954743823 0.0155223845341 -0.00133105052238)
(0.00148899193477 0.0155604824671 -0.00166791230802)
(0.00279111772681 0.0160382596025 -0.00196635161717)
(0.00400487734182 0.0168069533652 -0.00215840160631)
(0.00497547098083 0.0171362226306 -0.00227253157241)
(0.00781536050131 0.0169195746262 -0.00228781055808)
(0.007429208848 0.0189769951295 -0.000894262998128)
(0.00570231757009 0.0173514162946 -0.00118033407116)
(0.00533425576923 0.0132893811539 -0.00124108605762)
(0.0059934847058 0.00964496354596 -0.000896237703081)
(0.00638560903486 0.00584765880769 -0.000512195992839)
(0.00731828498812 0.00280854105949 -9.32839088348e-05)
(0.00719377693254 0.00233124618204 9.12400518912e-05)
(0.00646789315456 0.0004309257978 -2.58617225893e-05)
(0.00574117653814 -0.00165550549715 0.000142324045288)
(0.00461016861048 -0.00353069754787 0.000270100186525)
(0.00335788365278 -0.00507113781648 0.000474657995163)
(0.00193237661144 -0.00607004202616 0.00056742678291)
(0.000651671753086 -0.00649065277014 0.000490249976835)
(-5.66576173891e-05 0.0171481135919 -0.000578065183265)
(6.16816634771e-05 0.0171563649408 -0.00100141191305)
(0.000867801978574 0.0173628885643 -0.00127291387278)
(0.00183482033186 0.0180471158696 -0.00154040713318)
(0.00270597307086 0.01899186566 -0.00175494707834)
(0.00352491709555 0.0193455963476 -0.00244212050678)
(0.00821568785805 0.0188608086013 -0.00248575632096)
(0.00750492467265 0.0201197387468 0.00060638746013)
(0.00406830422133 0.0186787952195 -0.00057501715619)
(0.0036534404966 0.0155165969815 -0.00170708107526)
(0.0042516308513 0.0127684064395 -0.00165728030961)
(0.00394867916208 0.00951949577777 -0.000841754446539)
(0.00528109790267 0.006018434919 -0.00037002693344)
(0.004841091524 0.00408861794679 0.000556115277394)
(0.00423215018392 0.00123827788493 -0.000191461418954)
(0.00413818513292 -0.00120499631923 -3.93665145283e-05)
(0.00360353938484 -0.00325296422036 0.000133264063349)
(0.00277377614897 -0.0049408287248 0.000324700846105)
(0.00161996425487 -0.00603299453509 0.000399080007886)
(0.000567767636925 -0.00645377707284 0.00033386754731)
(-0.000151227960103 0.0183178096292 -0.000307206317184)
(-0.00024589061332 0.0183384349449 -0.000625145283016)
(0.000259602726426 0.018636376729 -0.000826357717606)
(0.000929408334695 0.019443644694 -0.000988103446774)
(0.00151040526854 0.0205543396847 -0.00108405979274)
(0.0020257615375 0.0210696194125 -0.0017228052144)
(0.00693710636173 0.0201569148537 -0.00179618396054)
(0.00593545188759 0.0190932897656 0.00132282986524)
(0.00162365329165 0.0167798610405 0.000501402530672)
(0.00116434901513 0.0145906292146 -0.000299007155809)
(0.00181254572409 0.0123525647155 -0.000116566555956)
(0.00135417454608 0.0100713154372 0.000670360364778)
(0.0026673856137 0.00733615322422 0.000985388425205)
(0.00265235249835 0.004395458984 0.000889672917618)
(0.00275865380351 0.00138553099872 -0.000232956164497)
(0.00310473761242 -0.000936738773348 -0.000137990365054)
(0.00287920883976 -0.00295379763783 1.80178966293e-05)
(0.00228661982456 -0.00465862334159 0.000203739313521)
(0.00135117211065 -0.00576690909285 0.000252407518905)
(0.000506659505615 -0.00617599861683 0.000183042700129)
(-0.000261827927699 0.0189462277586 -1.52287183599e-05)
(-0.000596147104764 0.0189812819518 -0.000248159309711)
(-0.000401613004048 0.0192884698346 -0.000391330480493)
(-3.54526906632e-05 0.0201199934166 -0.000473044016423)
(0.000323910861768 0.0211463791976 -0.000510858550214)
(0.000774701794562 0.0215770445945 -0.00105409493294)
(0.00506365260378 0.0205651932283 -0.00125549077821)
(0.0037212239675 0.0184131922347 0.0015533424362)
(-9.94086752155e-05 0.0164429584602 0.000570831554206)
(-0.000506892268154 0.0152093725234 -0.0002500499892)
(-0.00029721428966 0.0131118778879 -0.000276196797721)
(-0.00132161205624 0.0110371536642 0.000417680686517)
(-0.000301406352109 0.00880763420986 0.00076997754689)
(0.000591968034885 0.00529368521609 0.000436566301326)
(0.000978450035604 0.00219059144624 -0.000454970371823)
(0.00183250590337 -0.000312785276518 -0.000276165668551)
(0.00200523826206 -0.00243341517917 -7.73611363615e-05)
(0.00173537353929 -0.00419657740947 0.00010482336276)
(0.00104005775465 -0.00529964086555 0.000131004761596)
(0.000413012819647 -0.00565837826139 8.25866039779e-05)
(-0.000373377344243 0.0191428725147 0.000218560752292)
(-0.00100224461582 0.0191545290745 9.92719200817e-05)
(-0.00115581004346 0.0194261290245 2.35082752016e-05)
(-0.0011568479528 0.0201784817401 1.51125892328e-05)
(-0.00104585030866 0.0210500529962 6.37394711812e-05)
(-0.000539962170138 0.0209898178215 -0.000421174356306)
(0.00327704585754 0.0193688902063 -0.000553209827672)
(0.00188502282481 0.0131508444777 0.00166441161067)
(-0.00236049359822 0.0104652223518 0.00051979799834)
(-0.00319464939354 0.0103310007455 -7.76064192517e-05)
(-0.00294076521123 0.0100413892433 -0.000112658421857)
(-0.0034580069618 0.00995724541437 0.000316230336492)
(-0.00195937866212 0.00928043461307 0.000398546189368)
(-0.000935152616447 0.00571637887553 0.000240665433542)
(-0.000364378154282 0.00277155941384 -0.000522801232124)
(0.00066441296126 0.000264893889761 -0.000332598552297)
(0.0011204592058 -0.00192615594407 -0.000151743535742)
(0.00116084373615 -0.00369465610907 4.92423637612e-06)
(0.000770545590604 -0.00473916691151 2.02575306212e-05)
(0.000393289768544 -0.0049958940012 -6.35571001919e-06)
(-0.000494839533094 0.0189288132545 0.000450384919448)
(-0.00146032061199 0.0188985151846 0.000423240004377)
(-0.00200562364333 0.0191036274838 0.000436607258651)
(-0.00240369979399 0.0197636755722 0.000518274074148)
(-0.00274522261351 0.0205647842808 0.00053753201254)
(-0.0026860708726 0.0207489423169 3.63580961136e-06)
(-0.00240267400774 0.0196622807967 -0.000297075805302)
(-0.00296360438733 0.0152576656644 -0.00142581234809)
(-0.00305210648109 0.0137978166267 -0.00191610309245)
(-0.00298963384483 0.0134357840062 -0.00151985552941)
(-0.00307919030623 0.0129540150928 -0.000729105185566)
(-0.00406587250059 0.0117811119946 -4.01629391219e-05)
(-0.00390753055611 0.0101708511195 0.000337608488603)
(-0.00317407961189 0.00640176768955 -1.59292419637e-05)
(-0.00205720624328 0.00337323617433 -0.000428819028377)
(-0.000792719908626 0.000751345604349 -0.000303397302301)
(8.08665931554e-05 -0.00149455865287 -0.000180291188989)
(0.000541763936445 -0.00321542072701 -5.4788175405e-05)
(0.000476209494332 -0.00416530470276 -5.41707928798e-05)
(0.000347368038016 -0.00429214633504 -5.33739658465e-05)
(-0.000591510185819 0.0182713275089 0.000697289567681)
(-0.00187262386137 0.0181622365648 0.000765099836459)
(-0.00277255877881 0.0182140674539 0.000853484235583)
(-0.00349474257428 0.0186459718062 0.00102822252679)
(-0.00390399850877 0.0192100709618 0.00127083512407)
(-0.00378887050465 0.0195072293862 0.00127699801347)
(-0.00323246562944 0.0187788628145 0.00137857281042)
(-0.00357622611651 0.0173778125317 0.00150976512402)
(-0.0047899269674 0.0158235606694 0.00144322090705)
(-0.00559628148061 0.0139448024403 0.00162452010109)
(-0.00595935409353 0.0115979736942 0.00170686829852)
(-0.00614535763334 0.00937748678561 0.00153073222998)
(-0.00564462003186 0.00752691754288 0.00114550063324)
(-0.00477449388165 0.00504798963751 0.000542024135972)
(-0.00348580806191 0.00279025916387 -2.07668857942e-05)
(-0.00209653341441 0.000568121791598 -0.000136744961703)
(-0.000914428867124 -0.00140314662112 -0.000147126798671)
(-0.000112468820748 -0.00291983712131 -0.000121774014169)
(0.000146586431238 -0.00364903203629 -0.000102932983106)
(0.000312124150815 -0.00355260014654 -5.53725069634e-05)
(-0.000651130373708 0.0171532279514 0.000906103087634)
(-0.00217712340135 0.0169699964834 0.001046225262)
(-0.00337949753316 0.0168164569047 0.00114637115453)
(-0.00437664115551 0.0169036494124 0.00129821516363)
(-0.00502160594505 0.0170841945578 0.00149384782097)
(-0.0052125633449 0.0169377828932 0.00155035695536)
(-0.00524523828987 0.0159601428642 0.00145872961646)
(-0.00554859865794 0.0139663548262 0.00134138670134)
(-0.00609996944286 0.0121041812146 0.00119625508)
(-0.00653704398305 0.0104804083277 0.00114720662442)
(-0.00688259377047 0.00873800155385 0.00102087875503)
(-0.00694067988101 0.00706964989771 0.000834556570358)
(-0.00650871431653 0.00552934715231 0.000528294002611)
(-0.00568247042112 0.00376896676001 0.000242875332296)
(-0.00447686114429 0.00195882302868 -2.30344958581e-05)
(-0.00309558553321 0.000134677061862 -0.000165618976147)
(-0.001796080447 -0.00149560018408 -0.000229785006614)
(-0.000756348909934 -0.00271512532121 -0.000259241474161)
(-0.000209398223621 -0.00318727810437 -0.000196021720814)
(0.000210810512874 -0.00285027154333 -7.82540747235e-05)
(-0.000695404297116 0.0155504362183 0.00110809785431)
(-0.00234953485408 0.015341899559 0.00128622221333)
(-0.00377078354726 0.0150274232233 0.00135076378999)
(-0.00501163343967 0.0148055874838 0.00143214058542)
(-0.00589610755426 0.0146302457259 0.00158840165874)
(-0.00637391331836 0.0141931589724 0.00167246768356)
(-0.00666889252551 0.0132003510739 0.00170661045014)
(-0.00700365320796 0.011718451386 0.00173117604509)
(-0.00741196681275 0.0102132746565 0.00162781024649)
(-0.00775914080047 0.00866656339692 0.00148588746955)
(-0.00795575029757 0.00712926043722 0.00124566677749)
(-0.00791593717896 0.00571908179377 0.000946373823569)
(-0.00749557227347 0.00430369670742 0.000597593017793)
(-0.00669096026019 0.0028338396569 0.000249497787676)
(-0.00552080415619 0.00134487600281 -3.38727497003e-05)
(-0.00414216732373 -0.000157608666022 -0.000249804599928)
(-0.00272998635612 -0.00149795395957 -0.000401460856174)
(-0.00150924168117 -0.00242488624372 -0.000416913854082)
(-0.000661469034715 -0.00269272243711 -0.000354479261772)
(0.000185377007617 -0.002188401645 -0.000140631214036)
(-0.000739817424176 0.0134666180706 0.00131455055025)
(-0.00250745934988 0.0132601465816 0.00147104390219)
(-0.00404237187365 0.0128917066516 0.00149965207677)
(-0.00541860159604 0.0124734555522 0.00151458938253)
(-0.00650461920422 0.0120636492997 0.00156260835789)
(-0.00722794225421 0.0114887023783 0.00156560457431)
(-0.00769405732294 0.010602033106 0.00152583609858)
(-0.00812752931848 0.00943937733104 0.0014461911993)
(-0.00858415665575 0.00817481165089 0.00131061303973)
(-0.00891485010163 0.00691270039756 0.00115306568882)
(-0.00904327690131 0.0056579516294 0.00093904764461)
(-0.00891775798825 0.00446376792752 0.000657465621995)
(-0.00847591966641 0.00329495812535 0.000343687129853)
(-0.00768729008003 0.00212745709308 1.78247505867e-05)
(-0.00654210908608 0.000924908924554 -0.000236526920019)
(-0.00516054343351 -0.000260359122434 -0.000435894160913)
(-0.00368869114875 -0.00130753857626 -0.000584668503186)
(-0.00228103445237 -0.00198993360047 -0.000633500197128)
(-0.00108068243896 -0.00209532474195 -0.000596522165659)
(0.000172170261976 -0.00149147087501 -0.000161154608693)
(-0.000800967442372 0.0109610626884 0.00149907338022)
(-0.00267004538006 0.0107235981827 0.00167226030442)
(-0.00431184836294 0.0103712421772 0.00164480024633)
(-0.00578403030889 0.00993528629753 0.0015931085188)
(-0.00698924307463 0.00941952694836 0.00155754177454)
(-0.00791427229 0.00882470130576 0.00149384830658)
(-0.00859232822577 0.00805901461508 0.00140691231925)
(-0.00912246615795 0.00714179714157 0.00129181361763)
(-0.00952441770388 0.00616252341281 0.00115140904879)
(-0.0097957545322 0.00523986886532 0.000973216497099)
(-0.00989433230512 0.00433110835523 0.000768326840617)
(-0.00972025668151 0.00342951972694 0.000517178517249)
(-0.00925128678631 0.00254167388007 0.00024472141647)
(-0.00847516574213 0.00166312972462 -5.84794663126e-05)
(-0.00737312458628 0.000773171449075 -0.000331952545425)
(-0.00600798318055 -0.000106981434385 -0.000568505556132)
(-0.00448242475329 -0.000882048199958 -0.000746652356052)
(-0.00290715352276 -0.00134971735292 -0.000836390152466)
(-0.00142658861072 -0.00136482997281 -0.000787282068821)
(9.30445463238e-05 -0.000745001160794 -0.000210695422225)
(-0.000891636570945 0.00809817355097 0.00164475038913)
(-0.00283835085399 0.00781200215095 0.00183356637102)
(-0.00454967594372 0.00745194956593 0.00178387059821)
(-0.00613444153966 0.00706938645406 0.00169600315747)
(-0.00744968172458 0.0066504787635 0.00160350352005)
(-0.00846133878838 0.00612525510685 0.00148780419692)
(-0.00923033785341 0.00554434968754 0.0013681707111)
(-0.00982946617436 0.00490146903105 0.00122840454955)
(-0.0102295492944 0.00423817763696 0.00108953330707)
(-0.0104036163688 0.00358341718251 0.000923521415662)
(-0.010416874856 0.00297283015293 0.000730020568435)
(-0.0101908510206 0.00240184774259 0.000501236825696)
(-0.0096831382596 0.00183375933981 0.000232605946839)
(-0.0088924930284 0.00126869402954 -6.60513133902e-05)
(-0.00781180421116 0.000715328131117 -0.000355899985268)
(-0.00648104708264 0.00015930898808 -0.000617721268726)
(-0.00493564307636 -0.000312659419236 -0.000802342756294)
(-0.00328099049528 -0.000600566323684 -0.000892407781458)
(-0.00166383330539 -0.00061280940426 -0.000814910916465)
(-3.04081344912e-05 -0.000112327464869 -0.0002265352501)
(-0.000939592769059 0.00495270235693 0.00175475484767)
(-0.0029558144121 0.00468154601488 0.00185489187665)
(-0.00473672082819 0.00437035946403 0.00180078188712)
(-0.00636117116284 0.00405270941858 0.00170346591433)
(-0.0077669931625 0.00375849618231 0.00157571783108)
(-0.00887010694859 0.00339601091688 0.00143125577398)
(-0.00965325501954 0.00299651072481 0.00127209370609)
(-0.0102268906669 0.00259721964592 0.00112086118819)
(-0.0105700832143 0.0022212505162 0.000974036956434)
(-0.0106794625719 0.00185440690694 0.000807882484636)
(-0.0105708778852 0.00152712139077 0.000637576195877)
(-0.0102344377241 0.00128405862545 0.000446812176329)
(-0.00967245264358 0.00105738848101 0.000215652918013)
(-0.00883998528225 0.000844756786993 -3.53436615088e-05)
(-0.00775557482528 0.000645604381299 -0.00028651578498)
(-0.0064437333476 0.000445096906034 -0.000486789797653)
(-0.00492106137781 0.000243834857341 -0.000670256695637)
(-0.00332458097139 7.20529036425e-05 -0.000742741426457)
(-0.00172994305118 2.78917303327e-05 -0.000606175329899)
(-0.000217656425165 0.000364699455208 -0.000136237591632)
(-0.000931097390735 0.00174388352433 0.00178438059781)
(-0.00293279260258 0.00156217117505 0.00168035585989)
(-0.00474352996895 0.00141429719906 0.00156951054361)
(-0.0064351602918 0.00128605449418 0.00140108200749)
(-0.00789186788818 0.00115620661973 0.00122165885405)
(-0.00902901155514 0.00102521685819 0.0010596792716)
(-0.00979841621551 0.000871017057643 0.000840710378843)
(-0.010308283261 0.000750218559291 0.000649822754491)
(-0.0105630917669 0.000638230147107 0.000507958868263)
(-0.0105517502867 0.000537113232849 0.000353404928292)
(-0.0102870064975 0.000503905876195 0.0002298470206)
(-0.0097900997993 0.000510072781434 0.000167950985294)
(-0.0091202215233 0.000547061893328 7.86759094734e-05)
(-0.00820895627196 0.000599379736808 4.0266271495e-05)
(-0.00707139052946 0.000706958809306 1.92481174558e-06)
(-0.00579521240045 0.000774257185421 -3.51433598606e-05)
(-0.00435404721901 0.000750533010867 -0.000102787452537)
(-0.00288380654246 0.000630234005824 -0.000161541440322)
(-0.00139497165798 0.000445990691601 -0.000125488773569)
(-0.000288157211129 0.000380381408086 0.000143961660927)
(0.00106112577383 0.00125653189575 -0.00422004028077)
(0.00297004943332 0.00137128982385 -0.00405243672739)
(0.00487878612427 0.00129324449304 -0.00375773574975)
(0.00681235950736 0.00119245780333 -0.00345930963919)
(0.00867474667173 0.00105962869602 -0.00315272134296)
(0.0103837409926 0.000944169699555 -0.00283680015406)
(0.0118685682428 0.000826349246606 -0.00244095352163)
(0.0130650945179 0.00073107147722 -0.00193519166737)
(0.0139318701944 0.000574140851361 -0.00135857426494)
(0.0144417468975 0.000412534021397 -0.000727379522048)
(0.0145575130544 0.000247772558016 -7.88993092544e-05)
(0.0142455317616 8.73922414288e-05 0.000554028717121)
(0.0135186410721 -6.469743121e-05 0.00113824832451)
(0.0124204614054 -0.000205843002353 0.0016859761086)
(0.0110271500534 -0.000361932823022 0.0021862355499)
(0.00941697804914 -0.000522273325567 0.00266562542034)
(0.00760976197769 -0.000656345355431 0.00311472544449)
(0.00561209086558 -0.000730929935065 0.00348129030383)
(0.00345458083553 -0.000791180317271 0.00372841441807)
(0.00130809778602 -0.000828213821232 0.00380987142835)
(0.00101823711525 0.00372740376267 -0.00414978291096)
(0.00284272179321 0.00379806170785 -0.00463801708603)
(0.00469923410497 0.00354722153955 -0.00461354391348)
(0.00668605939985 0.00325297649248 -0.00444012966255)
(0.00859499950312 0.00292791401127 -0.0041956477846)
(0.0103416073131 0.0025905602733 -0.00386372016948)
(0.011859370319 0.00222535502818 -0.0034189686055)
(0.0130449084805 0.00187198781011 -0.00281459454332)
(0.0138618571828 0.0014067142935 -0.00212969928082)
(0.0143337942128 0.000929707822363 -0.00138167778864)
(0.0144254064473 0.000459584210615 -0.000610092482515)
(0.0141175345869 1.19282434044e-05 0.000143719396316)
(0.0134308414291 -0.000404766123377 0.000823858491409)
(0.0123947982321 -0.000795896079856 0.00143965467001)
(0.011028715168 -0.00119650277758 0.00201496994138)
(0.00938951612013 -0.0015935171949 0.00254546567099)
(0.00753925810217 -0.0019479006431 0.00303067853865)
(0.00550792687807 -0.00218269290971 0.00342279761775)
(0.00346373518102 -0.00235634272729 0.00363180457248)
(0.0013297916355 -0.00245899851292 0.00353952883264)
(0.000886543305105 0.00637905100633 -0.00389147235132)
(0.00252458130584 0.00632581783305 -0.00461425355257)
(0.00433448681419 0.00598844910842 -0.00481625624813)
(0.00631830101593 0.0055549417041 -0.00483851659913)
(0.00820812927531 0.00506069173457 -0.00473025048726)
(0.00991990259045 0.00451159581273 -0.00447095144333)
(0.0114384875573 0.00391464438742 -0.0040405449665)
(0.0125844963787 0.003385872454 -0.00341977826008)
(0.0133045484622 0.00266346782648 -0.00271236012289)
(0.0137344193757 0.00188002439705 -0.0019004067157)
(0.0138339009081 0.00109755810537 -0.00104399194104)
(0.0135776516358 0.000347881665817 -0.000214262232058)
(0.0129544067147 -0.000347018418709 0.000519256798444)
(0.0119717918938 -0.00100708027516 0.00112802674444)
(0.0106492721262 -0.00166417101773 0.00170404526536)
(0.00903285574542 -0.00232218217719 0.00222470435317)
(0.00720724721751 -0.00291565171899 0.00271526692883)
(0.00520546268773 -0.00336367395709 0.00313371534378)
(0.00325002813768 -0.00363703528643 0.00333390920174)
(0.00125180030138 -0.00374645945588 0.00322219661795)
(0.000792356384878 0.00902270250974 -0.00357052925332)
(0.00222832502149 0.0089539314497 -0.00438927977322)
(0.00392570011447 0.00856687809604 -0.00477583532973)
(0.00581592271906 0.00802604635043 -0.00495384738809)
(0.00761313748871 0.00736436772699 -0.00496431107036)
(0.00923797206078 0.00660448990125 -0.00478974590338)
(0.010758639725 0.00578443439946 -0.00443127484224)
(0.0118387766394 0.00519027648916 -0.00381683843814)
(0.0124156230459 0.00421000314517 -0.00316649497832)
(0.0127898123887 0.00306807706968 -0.00234831164804)
(0.0128996433844 0.00191891966958 -0.00146630336727)
(0.0127001361584 0.000835299756397 -0.000618822636683)
(0.0121617188322 -0.000148789052211 0.000109834498485)
(0.0112755871287 -0.00103497630716 0.000714648960958)
(0.0100373070701 -0.00193866696703 0.00129546024783)
(0.00848342931558 -0.00286477218409 0.00181282753115)
(0.00672569105681 -0.00370407678043 0.00228970918972)
(0.00481427443029 -0.00436332012057 0.00271632192508)
(0.00297576458026 -0.00477938548953 0.00293619472999)
(0.00114508828167 -0.00499420799721 0.00277689360808)
(0.000688693075009 0.0115723832105 -0.00315275418303)
(0.0019014943116 0.0114791098741 -0.00405290411757)
(0.00344060013745 0.0110268177975 -0.00455892890838)
(0.00515258212135 0.010368759772 -0.00483139149292)
(0.00676264986714 0.00953903075891 -0.0049124725401)
(0.00823333315944 0.00855602812409 -0.0048181083282)
(0.00984677699212 0.00743528769458 -0.00455834707714)
(0.0108221126088 0.00682172898365 -0.00396016234638)
(0.0111340883032 0.00553226421201 -0.00346475127724)
(0.0114352628118 0.00395541605758 -0.00269369538848)
(0.0115984670211 0.00237792449086 -0.00186266420583)
(0.0114995996764 0.000944138974667 -0.0010349915743)
(0.0111425022452 -0.00021649591781 -0.000275701480794)
(0.0103945941803 -0.00101338330464 0.000349409138052)
(0.00925303425458 -0.00196997517009 0.000934041570692)
(0.00780123565079 -0.00309118630672 0.00138673051702)
(0.00616372216315 -0.00416228309433 0.00183646568439)
(0.00437895307866 -0.00502035660495 0.00226074201518)
(0.00267427826428 -0.00559526455019 0.00246164650154)
(0.00101211125145 -0.00592232419807 0.00232209664304)
(0.000583804797708 0.0138704182736 -0.00266726987808)
(0.00153683603419 0.0137841991962 -0.00357852772939)
(0.00284994825982 0.0132957742633 -0.0041304736235)
(0.00429939197659 0.0125685565347 -0.00443440162281)
(0.00561488498273 0.0116969668729 -0.00455212481988)
(0.00674619496239 0.0106645715972 -0.0046798636219)
(0.0084621254133 0.00952624801151 -0.00475801020149)
(0.009157373778 0.0096663491455 -0.00433886254351)
(0.00925026822573 0.00838799600681 -0.00432013477175)
(0.00961107454838 0.00656346235962 -0.00372384321143)
(0.00996406288768 0.00466882750962 -0.00305284937453)
(0.0101480659796 0.00278558806592 -0.00225310392449)
(0.0103563110752 0.00105055167809 -0.0014153091914)
(0.00979504115331 -0.000107768608369 -0.000477818375287)
(0.00852993964314 -0.00145406509014 0.000351438626659)
(0.00706059358355 -0.00290544867555 0.000836874675894)
(0.00554757006555 -0.00426607070766 0.00132030966121)
(0.00391372563307 -0.00535558156188 0.00175438326659)
(0.00236296552718 -0.00607752885152 0.00198710374563)
(0.000911172640576 -0.006505296727 0.00179926989766)
(0.000473403775055 0.0158285716801 -0.00209313233104)
(0.00117031068818 0.0157597178877 -0.00293683989113)
(0.00223128500284 0.0152574498232 -0.00342284217669)
(0.00343101816638 0.0145034112095 -0.00368156046989)
(0.00449869753656 0.0135949969745 -0.00377695320504)
(0.00529394301999 0.0123601541125 -0.00409050908402)
(0.00755095305361 0.0110748637307 -0.00385782552684)
(0.00797128385556 0.0129157940529 -0.00201263323033)
(0.00757107227389 0.0113488044732 -0.0026205730814)
(0.00793011706832 0.00853378265529 -0.00291877867907)
(0.00822346054997 0.00571767240743 -0.00323011278383)
(0.00814734770659 0.00287417051932 -0.00326732346026)
(0.0083766520615 0.00032321195308 -0.00252987975104)
(0.00781298922629 0.000640910481791 -0.00105080362968)
(0.00686242289681 -0.000798432445984 -5.95836608594e-05)
(0.00589357562504 -0.00252313210416 0.000449799889038)
(0.00473546251393 -0.00414220452049 0.000914127716148)