/*--------------------------------*- C++ -*----------------------------------*\
| =========                 |                                                 |
| \\      /  F ield         | OpenFOAM: The Open Source CFD Toolbox           |
|  \\    /   O peration     | Version:  v1606+                                |
|   \\  /    A nd           | Web:      www.OpenFOAM.com                      |
|    \\/     M anipulation  |                                                 |
\*---------------------------------------------------------------------------*/
FoamFile
{
    version     2.0;
    format      ascii;
    class       volScalarField;
    location    "1.49";
    object      alpha.particles;
}
// * * * * * * * * * * * * * * * * * * * * * * * * * * * * * * * * * * * * * //

dimensions      [0 0 0 0 0 0 0];

internalField   nonuniform List<scalar> 
6000
(
0.433174
0.433169
0.433153
0.433153
0.433152
0.433151
0.433149
0.429925
0.409224
0.396422
0.392185
0.391003
0.383648
0.381854
0.381784
0.379002
0.38789
0.403158
0.41674
0.436431
0.442005
0.442007
0.442008
0.442009
0.44201
0.442011
0.44201
0.44201
0.442009
0.442007
0.433169
0.429743
0.432428
0.431059
0.427723
0.420918
0.402962
0.379331
0.379266
0.379248
0.379218
0.379202
0.379057
0.379131
0.379011
0.379066
0.379004
0.379069
0.379032
0.379124
0.394118
0.417281
0.434215
0.436815
0.439039
0.436948
0.434499
0.429738
0.432887
0.407239
0.409068
0.392164
0.41104
0.432031
0.448277
0.465871
0.4697
0.443838
0.411823
0.405081
0.414065
0.407913
0.392418
0.388656
0.391086
0.395689
0.399954
0.405194
0.406858
0.416877
0.454157
0.477593
0.477662
0.447759
0.420854
0.407
0.397912
0.388864
0.381836
0.351633
0.35977
0.350041
0.35464
0.384593
0.410221
0.442317
0.484034
0.501419
0.463175
0.444204
0.455221
0.446324
0.416367
0.407013
0.412548
0.422082
0.430213
0.437256
0.443239
0.464829
0.498842
0.503304
0.463485
0.404439
0.373982
0.3656
0.360191
0.35483
0.346453
0.346452
0.356098
0.35009
0.350088
0.350136
0.366612
0.392403
0.452471
0.503744
0.503895
0.489366
0.492704
0.485627
0.459427
0.449296
0.456377
0.465893
0.472464
0.475712
0.481063
0.501175
0.503427
0.503405
0.422366
0.374137
0.365766
0.365693
0.371777
0.371104
0.35567
0.360126
0.386737
0.350089
0.350125
0.351596
0.359405
0.366415
0.397287
0.492412
0.504306
0.503984
0.504321
0.503926
0.502744
0.499017
0.500719
0.501682
0.502769
0.5034
0.503673
0.50352
0.503522
0.482813
0.392755
0.387286
0.385582
0.397607
0.413547
0.415163
0.393245
0.409684
0.443373
0.391072
0.373367
0.378011
0.380808
0.378543
0.386535
0.437728
0.503996
0.50444
0.504005
0.504321
0.503957
0.504169
0.503843
0.503957
0.503766
0.503826
0.503668
0.503674
0.50352
0.380716
0.355393
0.41059
0.438602
0.448185
0.454843
0.452715
0.43548
0.468554
0.486537
0.457981
0.431586
0.423656
0.422707
0.41327
0.396241
0.382261
0.460925
0.504023
0.504477
0.504002
0.504333
0.503937
0.492649
0.503761
0.503824
0.503666
0.503674
0.503558
0.410738
0.239871
0.279937
0.412476
0.474372
0.474359
0.466847
0.460763
0.459415
0.502271
0.497835
0.49529
0.482209
0.4638
0.45925
0.446489
0.400994
0.320451
0.322803
0.460533
0.499333
0.46403
0.405631
0.343987
0.326772
0.35637
0.409623
0.436838
0.425794
0.349101
0.23107
0.15863
0.1841
0.348811
0.469783
0.474477
0.458341
0.453989
0.47718
0.515083
0.497948
0.497988
0.498001
0.48922
0.477999
0.452311
0.370164
0.248095
0.213978
0.289906
0.310368
0.267703
0.224784
0.201453
0.197132
0.206257
0.229622
0.247942
0.241569
0.199523
0.154905
0.133602
0.132812
0.229602
0.395721
0.462825
0.436724
0.437612
0.495416
0.52115
0.496468
0.497483
0.49861
0.498608
0.472271
0.397386
0.27619
0.19444
0.179171
0.192247
0.192775
0.185143
0.18202
0.181394
0.181168
0.180785
0.180464
0.180379
0.173443
0.156234
0.139044
0.132513
0.132639
0.161792
0.304689
0.432777
0.433025
0.433192
0.480602
0.530825
0.490729
0.469925
0.495811
0.480697
0.399626
0.262824
0.189659
0.169251
0.171283
0.178722
0.185883
0.194038
0.201893
0.205131
0.204363
0.197664
0.187632
0.177711
0.163271
0.146193
0.13477
0.13264
0.132513
0.149962
0.277119
0.435051
0.433208
0.433242
0.43325
0.516838
0.484794
0.454247
0.46382
0.44065
0.276406
0.174563
0.153893
0.157638
0.168533
0.183089
0.204173
0.233173
0.25416
0.261189
0.255823
0.235025
0.207166
0.182051
0.16086
0.142812
0.133249
0.132532
0.132643
0.163064
0.353338
0.486056
0.441694
0.433208
0.433249
0.477665
0.501202
0.454372
0.454213
0.418481
0.200098
0.152659
0.15265
0.15256
0.167215
0.197096
0.243534
0.292602
0.322302
0.33015
0.318724
0.28319
0.236324
0.192994
0.161084
0.143695
0.137993
0.138256
0.139106
0.206796
0.46422
0.507386
0.486176
0.464253
0.456711
0.501288
0.524795
0.454253
0.489285
0.452798
0.186934
0.152659
0.152638
0.152657
0.168046
0.218599
0.291191
0.350547
0.382713
0.390281
0.37891
0.338106
0.278734
0.219167
0.177165
0.163207
0.164437
0.167657
0.180214
0.292499
0.508678
0.527377
0.526134
0.51813
0.514888
0.53601
0.542846
0.508502
0.506689
0.511795
0.208135
0.152652
0.15266
0.152642
0.174204
0.251343
0.341841
0.396002
0.423803
0.430725
0.426355
0.400811
0.356366
0.300406
0.249115
0.227449
0.230153
0.233996
0.27475
0.407112
0.526203
0.54266
0.548599
0.548688
0.547932
0.55171
0.548401
0.542004
0.531603
0.537388
0.270194
0.167021
0.159001
0.161238
0.197301
0.313213
0.40876
0.443717
0.454692
0.457815
0.464268
0.474567
0.476354
0.442016
0.382662
0.342725
0.331485
0.330982
0.37977
0.503142
0.546138
0.550233
0.555564
0.555578
0.555443
0.553962
0.548692
0.548502
0.548045
0.543556
0.346723
0.216782
0.194791
0.201513
0.250199
0.403152
0.487039
0.499455
0.496189
0.495741
0.513497
0.533231
0.54143
0.535826
0.509894
0.464345
0.433127
0.426219
0.470738
0.541278
0.546123
0.545412
0.551525
0.55424
0.555457
0.549464
0.547746
0.548562
0.548409
0.531946
0.409812
0.295816
0.266308
0.271586
0.311917
0.442411
0.528578
0.528529
0.533639
0.534481
0.544182
0.545091
0.54516
0.545109
0.545187
0.531887
0.505048
0.484605
0.527256
0.544446
0.544657
0.524776
0.460539
0.480367
0.550671
0.53497
0.546544
0.547096
0.433054
0.345792
0.377431
0.34616
0.320744
0.319616
0.325903
0.359649
0.408442
0.467995
0.537536
0.54512
0.5451
0.545177
0.54511
0.545255
0.545127
0.545132
0.533847
0.521408
0.515073
0.474334
0.411572
0.323187
0.254714
0.287678
0.530645
0.526122
0.453809
0.4178
0.24952
0.182703
0.233666
0.270787
0.268679
0.267965
0.25381
0.200772
0.183177
0.238309
0.392841
0.539266
0.544738
0.545004
0.535509
0.545099
0.545266
0.545115
0.538285
0.487018
0.346684
0.270427
0.229177
0.195875
0.185936
0.188867
0.305851
0.46361
0.318222
0.251996
0.193731
0.159203
0.148458
0.15466
0.15596
0.153012
0.137342
0.111384
0.110651
0.134488
0.203722
0.319243
0.405183
0.40149
0.411799
0.510474
0.545026
0.545133
0.46489
0.313244
0.216639
0.201295
0.200049
0.19299
0.185888
0.185803
0.185992
0.243013
0.262106
0.212097
0.198116
0.176279
0.143281
0.11948
0.107551
0.101684
0.0989638
0.098874
0.109223
0.137173
0.168739
0.192148
0.214997
0.209072
0.225177
0.33489
0.413602
0.417873
0.329603
0.242049
0.219275
0.214576
0.21345
0.201929
0.18788
0.185887
0.18584
0.185873
0.262666
0.210502
0.199671
0.198096
0.166657
0.13625
0.117511
0.107829
0.104938
0.108289
0.125134
0.156142
0.17851
0.179074
0.160626
0.134169
0.135156
0.237512
0.331048
0.350782
0.30533
0.26127
0.240879
0.235616
0.228554
0.212644
0.19557
0.18584
0.185907
0.185878
0.275017
0.211274
0.19987
0.205714
0.196977
0.170758
0.150972
0.137168
0.131237
0.135785
0.15388
0.178883
0.191278
0.18119
0.146788
0.109658
0.103173
0.223107
0.345001
0.375715
0.335036
0.287392
0.262267
0.25221
0.240914
0.226066
0.212512
0.200376
0.192427
0.191969
0.291386
0.218627
0.199976
0.205678
0.212854
0.201053
0.189582
0.178127
0.170416
0.173359
0.187054
0.201153
0.20016
0.177493
0.131411
0.0947814
0.086618
0.204134
0.359284
0.407336
0.365565
0.310803
0.280946
0.268467
0.258245
0.248841
0.241999
0.235017
0.226754
0.221729
0.306333
0.233216
0.204217
0.209982
0.223429
0.223794
0.218545
0.212116
0.208493
0.212772
0.222371
0.225945
0.206233
0.160452
0.110215
0.0839569
0.0793039
0.164571
0.359456
0.430869
0.397312
0.336086
0.300617
0.287232
0.280665
0.277884
0.280163
0.283177
0.278115
0.273675
0.327862
0.252331
0.218695
0.222234
0.239032
0.250093
0.243499
0.237861
0.24151
0.255398
0.268137
0.255011
0.201973
0.133487
0.0916315
0.0783545
0.0777676
0.121793
0.337772
0.442759
0.431267
0.364038
0.321988
0.308257
0.305347
0.307593
0.318442
0.333986
0.342208
0.340782
0.3469
0.278457
0.247486
0.247685
0.263024
0.279232
0.277898
0.272664
0.277231
0.301429
0.32007
0.278927
0.183949
0.109103
0.083326
0.0777674
0.0777676
0.0988356
0.256426
0.444881
0.462696
0.392414
0.345156
0.329461
0.327529
0.333018
0.348512
0.375181
0.401627
0.415443
0.372614
0.310172
0.283834
0.282991
0.296101
0.313286
0.317475
0.313837
0.319641
0.350754
0.368605
0.287997
0.156217
0.0970191
0.082425
0.0779579
0.0777675
0.0876596
0.173776
0.429916
0.484713
0.423363
0.371497
0.350369
0.346553
0.352245
0.366496
0.395451
0.436258
0.472714
0.400689
0.344602
0.325243
0.324754
0.335949
0.351235
0.359109
0.357515
0.365609
0.401813
0.403588
0.274616
0.130849
0.0950006
0.085872
0.0807527
0.0782874
0.08484
0.136974
0.345058
0.486572
0.459062
0.404504
0.373502
0.363494
0.366433
0.375881
0.399219
0.44091
0.499201
0.428682
0.379107
0.367768
0.369997
0.382273
0.396134
0.405463
0.407637
0.416166
0.447125
0.419793
0.240212
0.119212
0.098768
0.095825
0.0894733
0.0831693
0.086236
0.119205
0.257524
0.486649
0.486668
0.443846
0.403653
0.382012
0.379395
0.383479
0.399244
0.428419
0.49986
0.454024
0.410695
0.407342
0.415175
0.432194
0.448522
0.461299
0.469543
0.477835
0.498878
0.423646
0.216487
0.12207
0.111706
0.11273
0.105532
0.094388
0.0911835
0.111034
0.207191
0.436852
0.486747
0.474002
0.437851
0.405127
0.394851
0.394818
0.402351
0.420385
0.491279
0.475729
0.438419
0.443048
0.461373
0.48659
0.505578
0.51763
0.524777
0.52561
0.527615
0.468151
0.231517
0.143629
0.1373
0.136013
0.125706
0.108035
0.0976877
0.106443
0.172466
0.352707
0.486698
0.483214
0.462344
0.431278
0.415888
0.411641
0.413105
0.419704
0.481365
0.493153
0.4645
0.48051
0.507942
0.529112
0.539442
0.544554
0.545458
0.543718
0.53835
0.527574
0.300803
0.198467
0.177518
0.167681
0.148168
0.119745
0.100863
0.101954
0.145823
0.278105
0.456197
0.479646
0.469898
0.454697
0.439163
0.430252
0.428572
0.420108
0.473297
0.506463
0.493197
0.516178
0.537776
0.546767
0.550325
0.550169
0.546015
0.54169
0.542348
0.533646
0.42883
0.279435
0.235968
0.212259
0.176255
0.129685
0.100184
0.100428
0.125835
0.215274
0.371787
0.454924
0.463976
0.46796
0.462555
0.452073
0.443771
0.420514
0.4664
0.511686
0.520424
0.539406
0.549861
0.552235
0.552558
0.546843
0.537324
0.527515
0.542412
0.544592
0.518617
0.375824
0.318767
0.279179
0.21643
0.140332
0.100422
0.100334
0.110564
0.161924
0.275924
0.40035
0.460571
0.482685
0.488133
0.483706
0.473218
0.435829
0.497594
0.511808
0.536789
0.55001
0.552581
0.552605
0.552556
0.537804
0.53053
0.527412
0.532581
0.544617
0.542221
0.480943
0.417007
0.382242
0.282859
0.155845
0.100335
0.100418
0.103234
0.134458
0.216824
0.350832
0.46744
0.503207
0.516324
0.52359
0.520495
0.500654
0.536213
0.511919
0.547302
0.552577
0.552604
0.552484
0.543779
0.539562
0.530116
0.527479
0.529991
0.544618
0.544627
0.530144
0.50547
0.499256
0.380761
0.188343
0.110525
0.107388
0.112034
0.141023
0.211892
0.338698
0.479764
0.526694
0.542962
0.547169
0.547115
0.545776
0.547194
0.512236
0.552531
0.552602
0.551535
0.472193
0.32111
0.448095
0.508096
0.541379
0.542763
0.544661
0.544622
0.534735
0.534644
0.534652
0.446096
0.260612
0.169969
0.157707
0.164866
0.192897
0.251763
0.363461
0.493189
0.542331
0.547162
0.547145
0.547212
0.54721
0.547213
0.51408
0.552548
0.552501
0.490987
0.233821
0.117268
0.170668
0.242703
0.363758
0.502994
0.544489
0.542519
0.459373
0.380617
0.410089
0.401061
0.334073
0.271264
0.260506
0.276128
0.305751
0.35543
0.442603
0.524632
0.541571
0.524902
0.474884
0.54705
0.547222
0.547197
0.525666
0.552481
0.542458
0.299634
0.111508
0.0915562
0.0916612
0.112268
0.17981
0.28206
0.360555
0.307906
0.192997
0.137858
0.167386
0.241445
0.305162
0.315751
0.322859
0.352218
0.383832
0.418632
0.451954
0.464201
0.408515
0.260096
0.188868
0.408895
0.54704
0.526589
0.50207
0.547521
0.428803
0.16067
0.0978112
0.0944317
0.0983726
0.125382
0.176088
0.201714
0.186361
0.131593
0.0895776
0.0766958
0.0778911
0.105646
0.178168
0.232312
0.249378
0.274054
0.290723
0.292838
0.268354
0.206257
0.141585
0.0950789
0.0914213
0.217263
0.476896
0.490686
0.4725
0.515233
0.291033
0.126865
0.106208
0.107511
0.120713
0.157711
0.187006
0.191119
0.14471
0.102883
0.0835041
0.0735285
0.0715331
0.0715785
0.0864569
0.111222
0.122781
0.130001
0.128146
0.115716
0.0972633
0.0853389
0.0816309
0.0815594
0.086113
0.17129
0.439575
0.496828
0.465714
0.457976
0.241361
0.134952
0.120349
0.123876
0.148433
0.177823
0.185875
0.163101
0.123173
0.09779
0.0838719
0.0753416
0.0715946
0.0705307
0.0705308
0.0715568
0.0730991
0.0733992
0.0723881
0.0719754
0.0722391
0.0772509
0.0832612
0.0866918
0.0938528
0.173913
0.452577
0.507939
0.47786
0.428886
0.244699
0.145031
0.131073
0.135267
0.165672
0.177866
0.174608
0.136224
0.110805
0.0952177
0.0856707
0.0795246
0.0749693
0.0722228
0.0706746
0.070259
0.070259
0.070259
0.070259
0.071217
0.0749681
0.0815913
0.0900649
0.0957552
0.104185
0.180528
0.464003
0.521899
0.496204
0.45352
0.244994
0.148991
0.133924
0.137857
0.167644
0.177706
0.156719
0.128317
0.107219
0.0946997
0.0882877
0.0843055
0.0801053
0.0763488
0.0736514
0.0718934
0.0711436
0.0709687
0.071728
0.0745738
0.0801822
0.087827
0.0971461
0.10398
0.113103
0.183365
0.455635
0.532085
0.517752
0.469676
0.241042
0.148359
0.134007
0.1341
0.154925
0.159815
0.150677
0.130076
0.108314
0.0951241
0.0906597
0.0887663
0.0851157
0.0805976
0.0780542
0.0759477
0.0746221
0.0743541
0.0757159
0.0794586
0.0852712
0.0933149
0.103297
0.111582
0.121987
0.182864
0.432623
0.533036
0.52434
0.480175
0.236374
0.146064
0.134066
0.134086
0.141375
0.148885
0.152107
0.14396
0.121374
0.0996395
0.0923373
0.0912526
0.0890499
0.0841921
0.081757
0.0800751
0.0788261
0.078659
0.0801568
0.0839192
0.0899227
0.0985929
0.109839
0.11973
0.131974
0.186071
0.398398
0.533021
0.52434
0.469945
0.245289
0.14625
0.134184
0.13422
0.135548
0.14792
0.159202
0.16498
0.146722
0.1122
0.0952771
0.0920255
0.0909191
0.0871431
0.0844884
0.0832427
0.0824564
0.0826374
0.0844673
0.0884949
0.0951585
0.105064
0.11818
0.130046
0.144818
0.202835
0.374216
0.508516
0.524319
0.476325
0.321776
0.161498
0.134273
0.134285
0.13497
0.152835
0.174386
0.185991
0.175068
0.132173
0.102408
0.0925889
0.0909446
0.0892154
0.0868317
0.0859163
0.0858444
0.0868192
0.0895138
0.094364
0.102291
0.114306
0.129822
0.144762
0.163247
0.230294
0.391093
0.482371
0.47992
0.485452
0.429231
0.196889
0.134319
0.134292
0.141444
0.166486
0.193857
0.206645
0.199894
0.15449
0.115346
0.0960526
0.0904938
0.0902351
0.0895061
0.0890071
0.0899409
0.09227
0.0963249
0.102652
0.1126
0.127474
0.146218
0.165505
0.18927
0.26727
0.417199
0.487893
0.495899
0.489641
0.443571
0.229478
0.144648
0.139589
0.158162
0.185911
0.214193
0.228671
0.219762
0.174055
0.131747
0.10538
0.093167
0.0914621
0.0928111
0.0938828
0.095888
0.099766
0.105462
0.113833
0.126471
0.144589
0.167375
0.192829
0.226177
0.313224
0.445044
0.503424
0.508032
0.50419
0.40791
0.244184
0.168858
0.163797
0.183519
0.208044
0.235348
0.250929
0.237963
0.189702
0.147831
0.118729
0.101923
0.0971262
0.0983921
0.101014
0.104353
0.10947
0.116826
0.127741
0.143651
0.165754
0.194197
0.22931
0.276687
0.36246
0.467746
0.522485
0.513593
0.499345
0.390333
0.264911
0.208786
0.205576
0.218772
0.238402
0.261142
0.273153
0.252967
0.203251
0.162297
0.132795
0.114477
0.107698
0.107607
0.110642
0.11564
0.122102
0.131671
0.145966
0.166361
0.194803
0.232536
0.280278
0.338647
0.408483
0.482156
0.520524
0.514523
0.477513
0.396213
0.310406
0.271212
0.26496
0.270881
0.28233
0.294842
0.29757
0.267907
0.217292
0.176205
0.146951
0.12828
0.120565
0.119588
0.123258
0.130535
0.139735
0.153144
0.173046
0.201584
0.240918
0.290983
0.348695
0.409355
0.461984
0.492101
0.497072
0.500702
0.45463
0.41799
0.381431
0.358899
0.349095
0.345698
0.343572
0.340351
0.327213
0.287235
0.234629
0.191643
0.162177
0.143799
0.136143
0.134846
0.13995
0.150901
0.165459
0.186164
0.216293
0.258094
0.311026
0.369301
0.425954
0.47388
0.501596
0.508669
0.502027
0.469421
0.458127
0.461163
0.465387
0.459548
0.450065
0.43793
0.421482
0.400631
0.368793
0.317175
0.259079
0.211707
0.180715
0.163309
0.156736
0.155886
0.163877
0.180704
0.204339
0.236883
0.280678
0.33515
0.393664
0.446067
0.48518
0.509265
0.519083
0.522748
0.518153
0.471655
0.492322
0.517114
0.52698
0.526876
0.522395
0.512991
0.497036
0.470633
0.426414
0.363174
0.295592
0.240835
0.206643
0.190474
0.185732
0.186479
0.199227
0.224923
0.260809
0.306349
0.359933
0.416161
0.464146
0.4954
0.511783
0.520642
0.52542
0.528875
0.529587
0.502605
0.533701
0.541226
0.541226
0.540443
0.537886
0.53607
0.532381
0.520428
0.487356
0.424113
0.346961
0.282925
0.245049
0.229963
0.226854
0.230659
0.250148
0.286381
0.333736
0.386206
0.437475
0.478733
0.503659
0.515356
0.521316
0.525567
0.528478
0.530603
0.531848
0.534764
0.541233
0.541228
0.537072
0.532495
0.529658
0.530441
0.530943
0.530022
0.522164
0.481313
0.406962
0.339234
0.299812
0.285408
0.283396
0.291405
0.318053
0.361642
0.412342
0.458348
0.491629
0.509994
0.518424
0.523004
0.526315
0.529054
0.530969
0.532033
0.531938
0.540881
0.541227
0.5265
0.503358
0.515144
0.516395
0.51767
0.521556
0.525174
0.52203
0.509312
0.462326
0.405571
0.368978
0.355399
0.354264
0.366104
0.395902
0.437125
0.476284
0.502469
0.515533
0.521444
0.5248
0.527447
0.529851
0.531913
0.533247
0.533709
0.53207
0.541174
0.535986
0.488046
0.467152
0.489025
0.506669
0.518603
0.524114
0.521406
0.517709
0.514622
0.499176
0.466776
0.440452
0.429425
0.428886
0.44109
0.465362
0.491905
0.510334
0.519649
0.524329
0.527085
0.529039
0.530855
0.532712
0.534346
0.535299
0.535414
0.532478
0.539251
0.509773
0.477751
0.454321
0.474311
0.507891
0.527588
0.536856
0.527601
0.518088
0.515621
0.514891
0.506808
0.495471
0.489242
0.488717
0.496103
0.508134
0.51784
0.523225
0.526688
0.529263
0.53113
0.53251
0.533816
0.535248
0.536534
0.537191
0.536994
0.533186
0.528115
0.479887
0.476442
0.454346
0.475136
0.520598
0.541551
0.54389
0.530334
0.519509
0.519367
0.524729
0.526146
0.523865
0.521887
0.521571
0.523551
0.526326
0.528308
0.529909
0.531575
0.533224
0.534583
0.535607
0.536558
0.537639
0.538621
0.539026
0.538501
0.534123
0.486885
0.473747
0.473749
0.477928
0.513739
0.545885
0.547699
0.543994
0.532936
0.525104
0.528674
0.534581
0.536554
0.535989
0.534976
0.534429
0.534352
0.53452
0.534768
0.535225
0.535969
0.536906
0.537798
0.538513
0.53918
0.539962
0.540669
0.540856
0.540021
0.535303
0.460481
0.484159
0.513649
0.535304
0.552324
0.553362
0.548948
0.545168
0.541745
0.53805
0.542272
0.544049
0.544064
0.54301
0.541895
0.541048
0.540477
0.540121
0.53993
0.539895
0.540063
0.540436
0.540894
0.541309
0.541718
0.54223
0.542689
0.542682
0.541584
0.536763
0.478156
0.530952
0.553299
0.553393
0.553386
0.553438
0.551487
0.550617
0.552112
0.55028
0.551791
0.550826
0.549563
0.548163
0.546937
0.545944
0.545192
0.544643
0.544239
0.543944
0.54378
0.543766
0.543866
0.544002
0.544172
0.544436
0.544672
0.54449
0.543184
0.538497
0.52843
0.55321
0.553273
0.549299
0.550483
0.553584
0.554492
0.556545
0.558142
0.557291
0.556676
0.555119
0.553599
0.552185
0.550951
0.549911
0.54907
0.548404
0.547869
0.547427
0.547075
0.546824
0.546669
0.546575
0.546533
0.546574
0.546607
0.546268
0.544819
0.540467
0.552442
0.552377
0.541024
0.514836
0.538193
0.550749
0.557258
0.560457
0.561306
0.560709
0.559518
0.558108
0.556706
0.555395
0.55421
0.553175
0.5523
0.551573
0.550963
0.550439
0.549982
0.549594
0.549273
0.549008
0.548795
0.548648
0.548498
0.548021
0.546493
0.542617
0.552344
0.487692
0.498079
0.498
0.538049
0.556388
0.562523
0.564053
0.563713
0.562829
0.56163
0.560417
0.559185
0.557997
0.55689
0.555894
0.555026
0.55428
0.553638
0.55307
0.552558
0.552093
0.551673
0.551294
0.550954
0.55066
0.550359
0.549773
0.548226
0.544894
0.529093
0.479882
0.479868
0.513319
0.556284
0.566436
0.567559
0.566745
0.565464
0.564376
0.563296
0.562232
0.561152
0.560101
0.5591
0.558179
0.557353
0.556623
0.555977
0.555395
0.554858
0.554356
0.553883
0.553436
0.553013
0.552613
0.552203
0.551554
0.550046
0.547261
0.490596
0.479867
0.507622
0.555893
0.569126
0.569211
0.569172
0.567552
0.566123
0.565207
0.564372
0.563543
0.562639
0.561751
0.560897
0.560089
0.559343
0.558662
0.558042
0.55747
0.556932
0.556418
0.555923
0.555445
0.554976
0.554508
0.554026
0.553379
0.551981
0.549706
0.488743
0.507292
0.557806
0.569134
0.569229
0.569233
0.568628
0.566594
0.565641
0.56509
0.564649
0.564206
0.563624
0.562961
0.5623
0.561654
0.561031
0.560435
0.559871
0.559335
0.558816
0.558311
0.557816
0.557331
0.556846
0.55634
0.555814
0.555219
0.554018
0.552214
0.507654
0.557953
0.569141
0.56923
0.569235
0.569176
0.560509
0.56139
0.563048
0.563988
0.564219
0.564125
0.56403
0.563723
0.563318
0.562884
0.562431
0.561963
0.56149
0.561016
0.56054
0.560062
0.559583
0.559109
0.55863
0.558113
0.557555
0.557015
0.556064
0.554701
0.541984
0.569047
0.569221
0.569225
0.569004
0.547651
0.527033
0.543495
0.555364
0.560849
0.562914
0.563641
0.563924
0.564046
0.563974
0.563798
0.563556
0.563256
0.562912
0.562534
0.562127
0.561695
0.561247
0.560795
0.560339
0.559841
0.559267
0.558737
0.558005
0.557026
0.563774
0.569186
0.56917
0.567403
0.530595
0.49072
0.486768
0.508605
0.541266
0.555701
0.56074
0.562691
0.563562
0.564043
0.564323
0.564431
0.564428
0.564328
0.564147
0.563898
0.563591
0.563233
0.562833
0.56241
0.561985
0.561534
0.560981
0.56043
0.559819
0.559113
0.569047
0.569106
0.567396
0.508635
0.453132
0.45589
0.473556
0.479549
0.527569
0.550454
0.558298
0.561468
0.562982
0.563875
0.564455
0.564845
0.565083
0.565198
0.565203
0.565112
0.564935
0.56468
0.564354
0.563972
0.563578
0.563184
0.5627
0.562153
0.561584
0.561024
0.569005
0.564569
0.505218
0.441601
0.441538
0.456938
0.475714
0.476519
0.52132
0.546708
0.556166
0.560264
0.562348
0.563625
0.564487
0.565121
0.56557
0.565888
0.566083
0.566166
0.56614
0.566012
0.565789
0.565476
0.565116
0.564773
0.564388
0.563916
0.563396
0.562906
0.566968
0.48589
0.441561
0.441546
0.441608
0.467837
0.487445
0.480115
0.522523
0.545042
0.554752
0.559366
0.561865
0.563457
0.564323
0.565371
0.565947
0.566419
0.566776
0.567023
0.567157
0.567176
0.567083
0.566873
0.56658
0.566284
0.566
0.565674
0.565301
0.564924
0.531863
0.441623
0.441569
0.441597
0.452737
0.488941
0.51192
0.495994
0.528252
0.545501
0.554451
0.559038
0.561737
0.563383
0.563216
0.565581
0.566247
0.566781
0.567235
0.567605
0.567891
0.568082
0.568165
0.568108
0.56795
0.567735
0.567535
0.567376
0.567272
0.567173
0.485002
0.441636
0.446908
0.442864
0.471351
0.509412
0.532504
0.51518
0.535237
0.54692
0.55481
0.559206
0.561932
0.563366
0.563217
0.565648
0.566416
0.566921
0.567389
0.567817
0.568217
0.568584
0.568892
0.569105
0.569204
0.569135
0.569025
0.569
0.569195
0.569488
0.481191
0.457589
0.456085
0.450435
0.487815
0.524498
0.534614
0.521737
0.535952
0.547573
0.555482
0.559748
0.562448
0.563399
0.56323
0.565262
0.56621
0.566766
0.567201
0.567618
0.568052
0.568522
0.569047
0.569657
0.570136
0.570341
0.570445
0.570508
0.570852
0.571336
0.477641
0.476925
0.461249
0.46124
0.499684
0.533325
0.534734
0.524253
0.534526
0.547344
0.556241
0.560574
0.563091
0.563412
0.563244
0.563628
0.564859
0.565869
0.566388
0.56678
0.567201
0.567738
0.56841
0.569266
0.570155
0.570892
0.571447
0.571709
0.572011
0.572348
0.464552
0.477528
0.469003
0.464391
0.504609
0.537089
0.534802
0.527358
0.534248
0.547319
0.557169
0.561516
0.563414
0.563322
0.563287
0.563393
0.563582
0.564276
0.565064
0.565545
0.565914
0.566304
0.566817
0.567672
0.568915
0.570248
0.571473
0.572297
0.572646
0.572797
0.457128
0.485055
0.494289
0.481977
0.513359
0.539588
0.53172
0.52891
0.534214
0.547384
0.558207
0.562462
0.563827
0.56336
0.56345
0.563617
0.563736
0.563838
0.564271
0.564924
0.565407
0.565668
0.565868
0.566218
0.567008
0.568433
0.570374
0.572075
0.572881
0.573057
0.457129
0.508088
0.532503
0.517451
0.529312
0.540595
0.522705
0.524629
0.53092
0.546384
0.559105
0.563334
0.564313
0.563494
0.56375
0.564013
0.56417
0.564261
0.564772
0.565466
0.566082
0.566503
0.566766
0.566949
0.567198
0.567593
0.568843
0.571083
0.572627
0.573223
0.472353
0.536669
0.550363
0.542931
0.542211
0.540772
0.510801
0.500901
0.517197
0.542927
0.559737
0.564118
0.564825
0.563832
0.56426
0.565064
0.565661
0.566056
0.566539
0.567093
0.567729
0.568347
0.568847
0.56917
0.569212
0.569152
0.56929
0.570474
0.572124
0.57341
0.509291
0.550832
0.550899
0.55089
0.550114
0.545003
0.510668
0.486194
0.498141
0.538006
0.560248
0.564863
0.565396
0.564373
0.565574
0.567613
0.568673
0.569114
0.569283
0.569408
0.56977
0.570402
0.571136
0.571822
0.572244
0.572224
0.571565
0.571638
0.572623
0.573795
0.538943
0.550877
0.550869
0.550906
0.552403
0.552329
0.521913
0.48602
0.489306
0.53697
0.561291
0.565655
0.566116
0.565412
0.568022
0.570475
0.571095
0.571232
0.57123
0.571137
0.571458
0.57216
0.572943
0.573725
0.57451
0.575042
0.574767
0.574303
0.574443
0.57491
0.549863
0.550869
0.546905
0.549315
0.552391
0.552499
0.540696
0.491575
0.491611
0.540573
0.563275
0.566291
0.566819
0.567297
0.570171
0.571142
0.571252
0.571279
0.57131
0.57168
0.572567
0.573546
0.574288
0.574903
0.575628
0.576522
0.577273
0.577492
0.577701
0.577876
0.550189
0.546812
0.546782
0.546813
0.55232
0.552406
0.548563
0.505852
0.506669
0.549659
0.565107
0.566121
0.567102
0.568928
0.570697
0.571124
0.571121
0.570397
0.570119
0.571084
0.572152
0.572949
0.574139
0.575059
0.575697
0.576613
0.578281
0.580111
0.581605
0.582391
0.550077
0.50503
0.54842
0.548896
0.55049
0.552527
0.547951
0.523974
0.532962
0.559464
0.564245
0.564529
0.566542
0.569011
0.570439
0.57035
0.56749
0.564898
0.566449
0.56687
0.564582
0.562152
0.566836
0.570754
0.572749
0.574622
0.577512
0.581378
0.584797
0.587059
0.470483
0.319846
0.426087
0.471683
0.529387
0.552177
0.538683
0.535228
0.557134
0.559306
0.559373
0.561522
0.565657
0.568152
0.568189
0.561876
0.550485
0.55345
0.558622
0.544214
0.527418
0.526731
0.534104
0.551191
0.560006
0.566891
0.574108
0.58079
0.585506
0.589543
0.328637
0.204354
0.260138
0.308423
0.364761
0.398705
0.377629
0.425419
0.548518
0.55022
0.552792
0.560578
0.564098
0.564656
0.559672
0.529785
0.529341
0.545772
0.541108
0.52668
0.526655
0.526678
0.526673
0.52986
0.543108
0.557025
0.568826
0.576315
0.578528
0.58949
0.307271
0.20402
0.251105
0.282588
0.291559
0.292873
0.292531
0.298089
0.418007
0.54863
0.553922
0.559558
0.557155
0.554529
0.538753
0.494345
0.528381
0.544553
0.526687
0.526645
0.526671
0.528335
0.535877
0.541258
0.549599
0.557446
0.561433
0.558394
0.538086
0.578554
0.341671
0.244613
0.321159
0.350596
0.358463
0.346209
0.306864
0.297369
0.302494
0.413528
0.538398
0.558786
0.539251
0.464981
0.436217
0.479313
0.538302
0.539431
0.526666
0.526683
0.53389
0.546589
0.5536
0.553653
0.553103
0.550041
0.538738
0.504372
0.460485
0.545858
0.405255
0.340175
0.420138
0.42926
0.435374
0.43246
0.386811
0.313192
0.302021
0.316215
0.396303
0.439541
0.405196
0.34413
0.348348
0.463519
0.54156
0.537453
0.5267
0.534963
0.551144
0.553539
0.55349
0.543622
0.518682
0.50689
0.486257
0.431575
0.355425
0.458157
0.481763
0.446119
0.497912
0.496376
0.497304
0.498243
0.472721
0.404127
0.355864
0.343208
0.343174
0.336284
0.323627
0.323622
0.343918
0.465106
0.543516
0.541432
0.536818
0.549876
0.551115
0.55023
0.535373
0.479771
0.468813
0.471811
0.462553
0.333119
0.202182
0.262234
0.526209
0.513996
0.529386
0.52954
0.530783
0.530401
0.522684
0.502697
0.475376
0.444127
0.406018
0.363915
0.334322
0.335443
0.369365
0.476522
0.545421
0.545738
0.547983
0.549606
0.546009
0.531747
0.484805
0.46881
0.468811
0.472201
0.379818
0.1569
0.0746582
0.0931738
0.529401
0.520988
0.524788
0.521708
0.535612
0.536794
0.536908
0.536813
0.536889
0.519071
0.482487
0.436563
0.392433
0.395565
0.429256
0.497211
0.543515
0.543645
0.543678
0.539847
0.526424
0.504385
0.478263
0.477401
0.477791
0.390017
0.157386
0.0467351
0.0333027
0.0379806
0.529362
0.430517
0.403567
0.40596
0.474129
0.536588
0.536824
0.536975
0.536771
0.522337
0.515632
0.514867
0.496095
0.504683
0.522655
0.538781
0.542139
0.532205
0.528423
0.529711
0.52933
0.52794
0.511057
0.45371
0.30615
0.118961
0.0360027
0.0275769
0.0282406
0.0313122
0.422603
0.278093
0.26756
0.273203
0.319943
0.429184
0.536902
0.536763
0.4389
0.302402
0.304118
0.322793
0.349168
0.365848
0.369195
0.385521
0.452569
0.498351
0.511378
0.511053
0.490038
0.421071
0.289822
0.144923
0.0531981
0.0212803
0.0186542
0.0245164
0.0278682
0.0311991
0.283516
0.261063
0.261062
0.261063
0.265711
0.317533
0.420282
0.382499
0.205344
0.108371
0.100998
0.10505
0.112264
0.113433
0.10973
0.112549
0.142534
0.199244
0.224927
0.207946
0.156381
0.0906985
0.0472193
0.0259336
0.0164643
0.0135538
0.0155048
0.0215475
0.0269383
0.031128
0.349342
0.262105
0.261784
0.265113
0.274074
0.30331
0.36069
0.320117
0.162551
0.0835466
0.0749783
0.0739792
0.0718974
0.0672187
0.0601855
0.0529117
0.0484507
0.0485498
0.0463864
0.0404795
0.0339083
0.0290381
0.0253951
0.020728
0.0155088
0.0127215
0.0135092
0.0178984
0.0247235
0.0307485
0.558122
0.448496
0.384064
0.357266
0.345526
0.35456
0.402009
0.328394
0.146048
0.0845619
0.0809947
0.0791249
0.0749507
0.0680567
0.05968
0.0515286
0.0439109
0.0371612
0.0319024
0.028613
0.0271365
0.0263671
0.0248127
0.0208835
0.0155466
0.0121668
0.0118241
0.0145988
0.0216066
0.0293496
0.560508
0.560227
0.530047
0.472815
0.432403
0.418526
0.453931
0.325293
0.129599
0.0879188
0.087448
0.0844824
0.0780747
0.0692127
0.0597891
0.0514837
0.0439116
0.0370566
0.0314522
0.0275976
0.025807
0.0250469
0.0239518
0.0208473
0.0157788
0.0117651
0.0105668
0.0123256
0.0185927
0.0268969
0.560493
0.560513
0.560412
0.550891
0.512948
0.471339
0.482042
0.30652
0.12504
0.0922272
0.0920713
0.0880682
0.0800223
0.0697778
0.0597539
0.0515571
0.0442973
0.0374728
0.0313967
0.026851
0.0245311
0.0236711
0.0229683
0.0206585
0.0159996
0.0115297
0.00974396
0.0108594
0.0161395
0.0240085
0.55002
0.560418
0.560499
0.560399
0.5561
0.528106
0.499876
0.305394