/*--------------------------------*- C++ -*----------------------------------*\
| =========                 |                                                 |
| \\      /  F ield         | OpenFOAM: The Open Source CFD Toolbox           |
|  \\    /   O peration     | Version:  v1606+                                |
|   \\  /    A nd           | Web:      www.OpenFOAM.com                      |
|    \\/     M anipulation  |                                                 |
\*---------------------------------------------------------------------------*/
FoamFile
{
    version     2.0;
    format      ascii;
    class       volScalarField;
    location    "1.49";
    object      p;
}
// * * * * * * * * * * * * * * * * * * * * * * * * * * * * * * * * * * * * * //

dimensions      [1 -1 -2 0 0 0 0];

internalField   nonuniform List<scalar> 
6000
(
106587
106588
106593
106602
106611
106621
106628
106633
106637
106640
106641
106643
106643
106644
106644
106644
106646
106648
106650
106652
106653
106652
106645
106635
106625
106616
106609
106602
106598
106592
106494
106495
106502
106513
106526
106541
106554
106563
106568
106573
106577
106579
106579
106579
106579
106580
106581
106581
106580
106580
106578
106573
106562
106546
106532
106521
106513
106507
106503
106498
106428
106428
106433
106443
106459
106481
106507
106525
106532
106537
106542
106543
106541
106540
106541
106542
106543
106544
106543
106542
106538
106524
106500
106475
106460
106452
106449
106446
106444
106445
106374
106374
106374
106375
106382
106395
106422
106457
106476
106485
106492
106495
106495
106495
106495
106495
106495
106493
106490
106484
106469
106443
106410
106396
106394
106395
106398
106401
106402
106404
106335
106331
106328
106325
106323
106324
106335
106367
106398
106415
106425
106433
106438
106439
106438
106437
106434
106429
106421
106406
106383
106350
106327
106330
106339
106349
106357
106363
106366
106369
106298
106293
106287
106281
106274
106266
106260
106270
106302
106327
106341
106351
106359
106361
106359
106355
106351
106345
106334
106314
106286
106242
106242
106264
106284
106300
106312
106320
106325
106331
106258
106254
106247
106238
106225
106209
106191
106176
106195
106228
106246
106255
106258
106258
106253
106252
106251
106247
106237
106215
106173
106140
106154
106188
106221
106242
106256
106266
106275
106282
106205
106206
106199
106186
106169
106145
106116
106087
106081
106117
106141
106143
106133
106118
106113
106120
106133
106138
106131
106106
106082
106080
106087
106110
106149
106176
106192
106204
106216
106223
106141
106142
106137
106123
106101
106071
106038
106014
106003
106012
106026
106028
106026
106026
106030
106033
106039
106045
106047
106045
106045
106050
106052
106058
106084
106115
106133
106146
106158
106164
106075
106073
106067
106052
106027
105997
105974
105968
105967
105968
105974
105983
105991
105998
106004
106008
106011
106015
106020
106024
106029
106034
106035
106034
106044
106068
106085
106097
106105
106111
106013
106008
106002
105985
105959
105938
105935
105941
105946
105950
105957
105967
105977
105986
105993
105999
106002
106006
106010
106014
106019
106022
106024
106023
106027
106037
106048
106055
106060
106064
105959
105953
105946
105930
105911
105907
105912
105919
105927
105934
105943
105955
105966
105976
105984
105990
105995
105999
106003
106006
106010
106012
106014
106015
106017
106019
106019
106018
106019
106020
105916
105911
105905
105897
105888
105890
105895
105901
105909
105918
105928
105941
105954
105966
105976
105983
105988
105992
105996
105999
106002
106004
106006
106008
106010
106004
105994
105988
105984
105984
105882
105877
105879
105878
105875
105877
105880
105884
105890
105898
105910
105924
105938
105953
105965
105975
105981
105986
105989
105992
105995
105997
105999
106001
106000
105983
105969
105960
105954
105951
105851
105850
105856
105866
105863
105863
105864
105866
105871
105878
105889
105902
105917
105933
105949
105963
105974
105979
105983
105986
105988
105989
105991
105993
105985
105955
105935
105923
105916
105911
105821
105823
105830
105852
105852
105847
105846
105847
105850
105857
105865
105875
105888
105904
105924
105945
105962
105972
105977
105979
105979
105980
105981
105978
105952
105914
105888
105873
105864
105859
105787
105791
105800
105828
105837
105831
105828
105826
105827
105833
105837
105842
105852
105867
105888
105914
105940
105957
105965
105966
105964
105961
105958
105944
105897
105854
105826
105811
105805
105800
105750
105755
105765
105792
105810
105808
105804
105802
105799
105798
105796
105796
105804
105818
105839
105862
105886
105911
105928
105932
105926
105918
105906
105869
105818
105777
105748
105741
105744
105741
105709
105712
105715
105736
105762
105771
105769
105764
105753
105737
105724
105721
105737
105755
105772
105790
105808
105830
105850
105860
105855
105839
105815
105766
105723
105698
105682
105681
105688
105689
105667
105664
105666
105668
105687
105707
105709
105702
105683
105655
105640
105640
105654
105679
105694
105708
105722
105745
105764
105770
105761
105740
105702
105671
105653
105645
105641
105641
105646
105648
105640
105638
105636
105635
105637
105642
105643
105636
105624
105609
105602
105600
105603
105610
105612
105617
105630
105659
105684
105689
105675
105654
105634
105626
105623
105621
105621
105619
105617
105617
105619
105617
105618
105618
105616
105613
105609
105604
105598
105593
105589
105585
105579
105573
105565
105557
105560
105582
105610
105624
105622
105612
105608
105608
105608
105607
105607
105605
105602
105600
105604
105604
105605
105606
105604
105601
105597
105593
105589
105585
105580
105574
105565
105552
105541
105534
105533
105541
105563
105584
105591
105592
105595
105596
105596
105595
105594
105593
105591
105590
105593
105592
105593
105593
105593
105591
105589
105585
105581
105576
105571
105563
105551
105538
105527
105520
105519
105523
105539
105559
105571
105577
105581
105582
105583
105583
105582
105582
105581
105581
105582
105581
105581
105581
105581
105580
105579
105576
105572
105567
105559
105548
105535
105522
105512
105507
105505
105508
105520
105540
105554
105562
105566
105568
105570
105571
105572
105572
105572
105572
105571
105571
105569
105569
105569
105569
105568
105565
105560
105554
105545
105532
105518
105504
105496
105493
105492
105492
105501
105521
105537
105545
105550
105553
105556
105559
105561
105562
105563
105563
105560
105560
105559
105559
105559
105558
105556
105552
105548
105541
105531
105516
105499
105486
105480
105479
105478
105475
105482
105500
105518
105528
105533
105537
105540
105544
105547
105550
105552
105553
105549
105549
105549
105549
105548
105547
105544
105541
105536
105528
105516
105498
105481
105470
105467
105466
105464
105460
105462
105478
105498
105509
105515
105518
105522
105525
105529
105533
105537
105539
105537
105538
105538
105537
105536
105535
105532
105528
105523
105514
105499
105478
105462
105456
105455
105453
105451
105447
105445
105456
105476
105489
105495
105498
105501
105504
105506
105510
105515
105518
105523
105524
105524
105524
105523
105521
105518
105514
105508
105498
105480
105458
105447
105444
105443
105441
105439
105435
105431
105436
105454
105467
105473
105476
105477
105479
105480
105482
105485
105489
105506
105507
105508
105508
105507
105505
105502
105498
105491
105480
105460
105440
105434
105434
105433
105430
105427
105423
105419
105417
105430
105444
105450
105452
105453
105452
105452
105452
105453
105456
105485
105486
105488
105488
105488
105487
105484
105480
105473
105460
105441
105427
105425
105424
105423
105419
105415
105410
105406
105402
105408
105419
105426
105428
105427
105426
105424
105422
105421
105422
105459
105461
105463
105464
105464
105463
105461
105458
105451
105440
105425
105417
105416
105414
105412
105407
105402
105396
105391
105387
105386
105393
105398
105401
105400
105398
105396
105393
105391
105391
105429
105430
105432
105433
105434
105433
105431
105428
105423
105417
105413
105409
105407
105404
105400
105394
105387
105380
105375
105370
105365
105368
105371
105373
105373
105371
105368
105365
105363
105362
105394
105395
105396
105396
105395
105392
105390
105388
105387
105389
105397
105399
105396
105391
105385
105378
105369
105362
105357
105352
105346
105344
105345
105346
105346
105344
105341
105338
105335
105335
105355
105356
105355
105353
105349
105345
105343
105343
105347
105356
105370
105384
105382
105376
105369
105360
105351
105344
105340
105334
105329
105323
105322
105322
105321
105318
105314
105311
105309
105310
105314
105314
105311
105306
105300
105295
105294
105297
105304
105316
105335
105357
105362
105358
105352
105341
105332
105326
105323
105318
105313
105308
105305
105304
105299
105293
105288
105286
105286
105289
105274
105273
105268
105259
105249
105241
105243
105250
105259
105271
105289
105311
105329
105332
105329
105321
105312
105309
105307
105304
105301
105297
105294
105291
105281
105270
105265
105264
105266
105268
105236
105234
105226
105212
105191
105177
105187
105198
105212
105225
105239
105255
105272
105286
105295
105296
105293
105293
105293
105293
105290
105287
105283
105277
105260
105246
105241
105242
105244
105247
105204
105201
105188
105164
105145
105139
105143
105151
105163
105180
105191
105196
105199
105209
105230
105256
105269
105276
105279
105280
105278
105274
105266
105254
105228
105211
105208
105215
105219
105220
105177
105173
105155
105132
105123
105123
105122
105125
105132
105144
105146
105138
105139
105138
105150
105182
105222
105243
105252
105257
105255
105249
105233
105208
105176
105160
105157
105170
105187
105189
105156
105149
105128
105118
105116
105117
105116
105117
105118
105119
105119
105114
105112
105112
105115
105126
105154
105180
105194
105201
105199
105188
105166
105142
105130
105124
105124
105133
105152
105156
105137
105128
105117
105111
105111
105112
105112
105112
105111
105109
105106
105104
105104
105105
105106
105107
105113
105122
105128
105130
105128
105122
105115
105110
105109
105111
105113
105116
105125
105132
105120
105117
105107
105105
105106
105106
105106
105106
105104
105101
105099
105099
105099
105100
105101
105101
105100
105101
105102
105102
105101
105101
105101
105102
105103
105105
105107
105108
105111
105113
105106
105105
105100
105099
105099
105100
105100
105098
105096
105094
105093
105094
105094
105095
105095
105095
105095
105095
105095
105095
105095
105096
105097
105098
105099
105100
105101
105101
105102
105102
105095
105094
105093
105093
105093
105092
105092
105091
105089
105088
105088
105088
105089
105089
105090
105090
105090
105090
105090
105091
105091
105091
105092
105093
105094
105095
105095
105096
105096
105094
105087
105087
105086
105086
105085
105085
105084
105084
105083
105083
105083
105083
105084
105084
105084
105085
105085
105085
105085
105085
105086
105086
105087
105088
105089
105089
105090
105090
105092
105092
105083
105082
105080
105079
105079
105078
105077
105077
105077
105078
105078
105078
105078
105078
105079
105079
105079
105079
105080
105080
105081
105081
105082
105082
105083
105084
105084
105085
105088
105091
105083
105078
105075
105073
105072
105071
105071
105071
105072
105073
105073
105073
105073
105073
105073
105073
105073
105074
105074
105074
105075
105076
105076
105077
105078
105078
105079
105079
105083
105090
105081
105073
105070
105067
105066
105065
105065
105065
105066
105067
105068
105068
105067
105067
105067
105067
105067
105068
105068
105069
105069
105070
105070
105071
105072
105073
105073
105074
105076
105082
105070
105066
105064
105061
105059
105059
105059
105059
105060
105061
105062
105062
105061
105061
105060
105061
105061
105061
105062
105063
105063
105064
105065
105065
105066
105067
105067
105068
105069
105070
105055
105055
105056
105054
105052
105052
105052
105053
105054
105054
105055
105055
105055
105054
105054
105054
105055
105055
105056
105056
105057
105058
105059
105059
105060
105061
105061
105062
105061
105060
105042
105043
105045
105045
105045
105045
105046
105046
105047
105048
105048
105048
105048
105048
105048
105048
105048
105049
105049
105050
105051
105051
105052
105053
105053
105053
105054
105054
105052
105049
105028
105031
105034
105036
105037
105038
105039
105039
105040
105040
105040
105040
105041
105041
105041
105041
105041
105042
105042
105043
105044
105045
105045
105046
105046
105046
105046
105044
105040
105037
105013
105017
105022
105027
105029
105031
105031
105032
105032
105032
105032
105031
105032
105033
105033
105033
105034
105034
105035
105036
105036
105037
105037
105037
105037
105037
105035
105030
105024
105019
104992
104997
105007
105015
105020
105022
105023
105023
105023
105022
105022
105022
105023
105023
105024
105025
105025
105026
105027
105028
105028
105029
105029
105029
105028
105025
105019
105010
105000
104993
104965
104972
104985
104997
105005
105009
105011
105011
105011
105011
105011
105012
105012
105013
105014
105015
105016
105017
105018
105018
105019
105019
105019
105017
105013
105005
104994
104981
104969
104962
104934
104942
104956
104970
104981
104988
104991
104994
104996
104997
104999
105000
105000
105001
105003
105004
105005
105006
105007
105007
105008
105007
105005
104998
104988
104973
104956
104940
104929
104924
104899
104907
104917
104928
104938
104948
104957
104965
104972
104979
104983
104986
104988
104988
104990
104991
104992
104993
104994
104994
104993
104989
104980
104966
104946
104925
104906
104891
104880
104876
104858
104860
104864
104869
104878
104889
104903
104918
104934
104950
104962
104968
104971
104974
104975
104976
104977
104978
104977
104975
104969
104957
104939
104916
104891
104868
104849
104834
104825
104820
104802
104801
104800
104801
104810
104824
104841
104861
104883
104906
104927
104941
104949
104953
104956
104957
104957
104956
104952
104944
104929
104907
104880
104852
104827
104804
104786
104772
104763
104758
104738
104735
104732
104735
104746
104763
104782
104804
104827
104850
104876
104899
104914
104922
104926
104928
104926
104921
104911
104893
104868
104838
104809
104781
104757
104735
104718
104705
104696
104692
104674
104672
104674
104679
104689
104706
104728
104752
104773
104792
104814
104840
104862
104875
104881
104881
104877
104865
104846
104819
104789
104759
104731
104705
104682
104662
104645
104633
104625
104621
104612
104613
104622
104628
104637
104652
104672
104696
104716
104731
104747
104768
104789
104804
104811
104810
104801
104784
104760
104731
104702
104674
104648
104624
104602
104584
104569
104557
104550
104546
104551
104556
104569
104579
104587
104598
104613
104631
104650
104663
104675
104689
104704
104715
104719
104716
104704
104686
104662
104637
104611
104585
104561
104539
104519
104502
104488
104477
104470
104467
104488
104499
104513
104527
104536
104538
104544
104557
104575
104588
104597
104604
104610
104615
104615
104609
104597
104581
104560
104538
104515
104492
104470
104450
104432
104416
104403
104393
104387
104383
104426
104439
104453
104461
104460
104457
104462
104473
104489
104502
104508
104510
104511
104510
104507
104500
104489
104474
104456
104436
104416
104395
104376
104357
104341
104326
104315
104305
104300
104297
104361
104367
104365
104360
104356
104359
104367
104377
104390
104400
104404
104404
104403
104401
104396
104389
104378
104365
104349
104332
104314
104295
104278
104261
104246
104233
104223
104214
104209
104206
104272
104262
104245
104234
104241
104251
104261
104271
104279
104286
104290
104291
104290
104288
104283
104276
104266
104254
104240
104225
104209
104193
104177
104162
104149
104137
104127
104120
104115
104113
104150
104126
104114
104115
104129
104142
104151
104158
104163
104168
104171
104173
104173
104172
104168
104161
104153
104142
104130
104116
104102
104088
104074
104060
104048
104038
104029
104022
104018
104016
104018
104008
104007
104019
104031
104038
104039
104040
104042
104046
104050
104052
104054
104053
104050
104045
104038
104029
104018
104006
103994
103981
103968
103956
103945
103936
103928
103922
103918
103916
103905
103911
103924
103936
103936
103926
103918
103915
103916
103920
103925
103929
103932
103933
103932
103928
103922
103914
103905
103895
103884
103872
103861
103850
103840
103832
103825
103819
103815
103814
103815
103825
103844
103842
103819
103799
103785
103781
103784
103791
103798
103805
103809
103812
103812
103810
103806
103799
103792
103782
103773
103762
103752
103743
103734
103726
103719
103714
103710
103709
103733
103743
103742
103715
103682
103655
103638
103638
103647
103658
103670
103679
103687
103691
103693
103692
103689
103684
103677
103670
103661
103652
103642
103634
103625
103618
103612
103607
103604
103602
103636
103635
103607
103567
103526
103492
103479
103489
103507
103526
103542
103556
103565
103571
103575
103575
103573
103569
103563
103556
103548
103540
103532
103523
103516
103509
103503
103498
103495
103493
103510
103491
103453
103405
103355
103328
103328
103345
103373
103399
103420
103435
103446
103454
103458
103459
103458
103454
103449
103443
103436
103428
103420
103412
103405
103398
103392
103388
103384
103383
103360
103336
103293
103236
103204
103203
103216
103230
103256
103283
103305
103321
103332
103340
103344
103345
103343
103340
103336
103330
103323
103315
103308
103300
103293
103286
103281
103276
103273
103271
103211
103186
103138
103108
103107
103121
103137
103147
103164
103183
103201
103214
103223
103229
103232
103233
103231
103227
103223
103217
103210
103203
103195
103188
103180
103174
103168
103163
103160
103158
103080
103048
103025
103027
103041
103057
103071
103079
103087
103096
103106
103114
103119
103123
103124
103123
103120
103116
103110
103104
103097
103089
103082
103074
103067
103060
103055
103050
103046
103044
102968
102955
102954
102966
102981
102997
103010
103015
103015
103015
103017
103019
103020
103020
103019
103016
103011
103006
102999
102992
102984
102976
102968
102960
102953
102946
102940
102935
102931
102929
102891
102890
102900
102909
102923
102937
102948
102950
102944
102936
102931
102927
102924
102920
102916
102911
102904
102897
102889
102880
102872
102863
102854
102846
102838
102830
102824
102819
102815
102813
102836
102839
102847
102853
102862
102870
102876
102877
102867
102855
102845
102836
102829
102822
102816
102807
102799
102789
102780
102770
102759
102749
102740
102730
102722
102714
102707
102701
102697
102695
102785
102790
102792
102794
102797
102798
102797
102795
102785
102771
102758
102746
102735
102725
102716
102705
102694
102683
102671
102659
102648
102636
102625
102614
102605
102596
102588
102582
102578
102576
102726
102732
102732
102731
102728
102723
102717
102711
102700
102684
102669
102654
102641
102629
102617
102605
102591
102577
102564
102550
102536
102523
102510
102498
102487
102477
102469
102463
102458
102456
102661
102669
102671
102666
102658
102646
102633
102623
102611
102595
102578
102561
102545
102531
102518
102504
102488
102473
102457
102441
102425
102410
102396
102382
102370
102359
102350
102342
102338
102335
102594
102604
102609
102600
102586
102565
102544
102531
102518
102503
102485
102466
102448
102433
102417
102401
102384
102367
102349
102331
102313
102297
102281
102266
102252
102240
102229
102221
102216
102213
102521
102530
102530
102521
102501
102475
102450
102434
102422
102408
102389
102369
102349
102332
102314
102296
102277
102258
102238
102218
102199
102180
102163
102147
102133
102120
102109
102099
102093
102090
102439
102437
102425
102415
102398
102376
102353
102336
102324
102312
102292
102269
102248
102227
102207
102187
102166
102144
102122
102100
102079
102059
102041
102024
102009
101996
101985
101976
101969
101966
102335
102321
102304
102294
102285
102273
102259
102243
102230
102217
102194
102168
102143
102120
102097
102073
102048
102024
102000
101976
101953
101932
101912
101894
101879
101866
101856
101848
101841
101838
102198
102184
102173
102168
102167
102165
102162
102150
102138
102124
102096
102064
102035
102008
101980
101952
101924
101897
101871
101845
101821
101798
101777
101759
101743
101731
101721
101714
101709
101706
102046
102036
102035
102038
102045
102052
102058
102054
102045
102028
101994
101957
101923
101892
101859
101827
101796
101766
101737
101710
101683
101659
101637
101619
101603
101590
101580
101574
101570
101567
101897
101881
101895
101907
101920
101934
101943
101949
101947
101927
101887
101847
101809
101772
101735
101699
101665
101633
101602
101571
101541
101515
101493
101475
101459
101445
101435
101428
101424
101422
101757
101740
101756
101777
101800
101818
101825
101833
101839
101816
101775
101734
101693
101651
101610
101570
101533
101501
101468
101432
101399
101372
101349
101330
101314
101300
101287
101278
101272
101270
101665
101653
101664
101682
101704
101709
101712
101713
101721
101700
101664
101623
101578
101532
101487
101444
101411
101381
101345
101310
101279
101250
101224
101200
101179
101159
101141
101126
101115
101115
101618
101614
101618
101622
101624
101620
101615
101611
101604
101594
101561
101519
101467
101416
101372
101334
101310
101279
101241
101207
101177
101149
101121
101091
101061
101031
101001
100974
100954
100958
101590
101590
101591
101588
101581
101571
101557
101545
101531
101510
101472
101422
101363
101305
101276
101251
101231
101194
101155
101120
101091
101065
101034
100996
100954
100912
100870
100831
100803
100813
101563
101565
101564
101557
101548
101534
101515
101492
101467
101441
101405
101329
101266
101214
101196
101189
101164
101119
101078
101045
101017
100982
100939
100891
100842
100797
100756
100720
100697
100704
101522
101526
101520
101507
101496
101483
101465
101438
101407
101367
101317
101245
101184
101154
101141
101135
101100
101049
101007
100974
100935
100887
100834
100781
100741
100706
100677
100651
100638
100640
101447
101449
101433
101417
101409
101403
101396
101380
101348
101299
101236
101176
101129
101106
101094
101082
101037
100979
100935
100895
100846
100793
100741
100704
100676
100656
100635
100616
100611
100610
101315
101310
101285
101273
101276
101284
101292
101293
101269
101218
101160
101110
101074
101054
101040
101017
100962
100900
100853
100808
100762
100717
100682
100658
100640
100626
100608
100600
100600
100599
101152
101128
101102
101093
101112
101141
101159
101158
101128
101081
101045
101020
100999
100982
100963
100926
100866
100809
100767
100731
100698
100668
100645
100628
100615
100603
100596
100595
100596
100596
101011
100987
100973
100966
100970
100996
101028
101012
100946
100878
100866
100872
100874
100862
100835
100792
100751
100718
100692
100671
100653
100635
100619
100606
100597
100592
100592
100593
100594
100594
100933
100927
100920
100911
100902
100896
100897
100851
100775
100738
100725
100719
100715
100705
100690
100678
100673
100660
100645
100634
100624
100611
100599
100591
100589
100589
100590
100591
100591
100592
100906
100900
100892
100881
100865
100845
100815
100756
100711
100693
100683
100672
100662
100652
100642
100635
100628
100621
100613
100606
100598
100592
100589
100588
100588
100589
100589
100589
100589
100590
100894
100884
100874
100859
100839
100812
100774
100723
100690
100679
100671
100662
100652
100642
100633
100624
100616
100609
100603
100598
100594
100591
100590
100588
100588
100587
100587
100587
100587
100588
100879
100871
100855
100834
100810
100781
100742
100698
100673
100666
100660
100652
100643
100634
100626
100619
100612
100605
100600
100596
100593
100590
100588
100587
100586
100586
100585
100585
100586
100586
100830
100835
100826
100800
100771
100743
100707
100674
100659
100654
100648
100641
100633
100625
100618
100612
100606
100601
100597
100593
100591
100588
100587
100585
100584
100584
100584
100584
100584
100584
100756
100774
100778
100758
100729
100701
100673
100657
100648
100643
100638
100631
100624
100617
100611
100606
100601
100597
100593
100590
100588
100586
100585
100583
100583
100582
100582
100582
100582
100582
100672
100700
100719
100716
100695
100669
100649
100645
100638
100633
100628
100622
100616
100610
100605
100601
100596
100593
100590
100587
100585
100584
100582
100581
100581
100580
100580
100580
100580
100580
100626
100625
100648
100673
100669
100650
100635
100636
100629
100624
100620
100614
100608
100604
100599
100595
100592
100589
100586
100584
100582
100581
100580
100579
100579
100578
100578
100578
100578
100579
100606
100603
100611
100626
100644
100636
100626
100628
100621
100616
100612
100606
100602
100598
100594
100591
100588
100585
100583
100581
100580
100579
100578
100577
100577
100577
100577
100577
100577
100577
100598
100596
100598
100604
100619
100625
100619
100622
100613
100608
100604
100600
100595
100592
100589
100586
100583
100581
100579
100578
100577
100576
100576
100575
100575
100575
100575
100575
100575
100575
100593
100592
100592
100595
100603
100615
100614
100616
100606
100601
100597
100593
100589
100586
100584
100581
100579
100577
100576
100575
100574
100574
100574
100573
100573
100573
100573
100573
100574
100574
100588
100588
100588
100589
100594
100601
100609
100609
100599
100594
100591
100587
100584
100581
100579
100576
100575
100573
100572
100572
100572
100572
100571
100571
100571
100571
100572
100572
100572
100572
100584
100584
100584
100584
100587
100592
100602
100603
100593
100588
100584
100581
100578
100575
100573
100572
100571
100570
100569
100569
100569
100569
100569
100570
100570
100570
100570
100570
100570
100571
100580
100580
100580
100580
100583
100587
100597
100595
100586
100581
100577
100574
100572
100570
100568
100567
100566
100566
100566
100566
100566
100567
100567
100568
100568
100569
100569
100569
100569
100569
100576
100576
100576
100576
100579
100582
100587
100586
100579
100575
100571
100568
100566
100564
100563
100563
100562
100562
100563
100563
100564
100565
100565
100566
100567
100567
100568
100568
100568
100568
100571
100572
100572
100572
100574
100574
100576
100578
100574
100569
100565
100562
100560
100559
100558
100558
100558
100559
100559
100560
100561
100562
100563
100564
100565
100566
100567
100567
100567
100567
100566
100566
100567
100567
100568
100566
100565
100570
100567
100563
100558
100555
100553
100553
100552
100553
100554
100555
100556
100557
100558
100560
100561
100563
100564
100565
100566
100566
100566
100566
100559
100558
100560
100562
100563
100558
100554
100558
100560
100557
100552
100549
100547
100546
100547
100548
100549
100551
100552
100554
100555
100557
100559
100560
100562
100564
100565
100565
100565
100565
100549
100549
100550
100555
100556
100547
100541
100543
100550
100550
100546
100541
100540
100539
100540
100542
100544
100546
100548
100550
100552
100554
100556
100558
100560
100562
100564
100564
100564
100564
100539
100539
100539
100544
100546
100532
100526
100526
100533
100542
100539
100534
100532
100532
100533
100536
100538
100541
100544
100546
100548
100550
100552
100554
100557
100559
100562
100563
100563
100562
100530
100529
100529
100531
100531
100516
100510
100510
100516
100530
100531
100525
100523
100523
100525
100528
100532
100535
100539
100541
100544
100546
100548
100550
100552
100555
100558
100561
100561
100561
100521
100520
100519
100518
100515
100499
100494
100493
100499
100513
100519
100513
100512
100513
100516
100520
100524
100529
100532
100536
100539
100541
100543
100545
100547
100549
100552
100556
100559
100559
100514
100513
100509
100504
100497
100481
100474
100475
100480
100495
100500
100498
100499
100501
100505
100510
100515
100520
100525
100529
100533
100535
100538
100540
100541
100543
100545
100548
100552
100554
100506
100504
100498
100488
100476
100459
100447
100450
100457
100471
100474
100479
100483
100487
100492
100497
100503
100509
100515
100520
100525
100528
100531
100534
100535
100536
100537
100539
100542
100545
100492
100492
100481
100464
100445
100424
100405
100408
100420
100432
100444
100456
100465
100471
100477
100483
100489
100496
100503
100509
100514
100519
100522
100525
100527
100529
100529
100530
100531
100533
100469
100465
100452
100432
100406
100379
100362
100367
100380
100393
100412
100430
100444
100453
100460
100467
100474
100481
100488
100495
100501
100507
100511
100514
100517
100519
100520
100520
100520
100521
100436
100433
100414
100393
100367
100346
100338
100341
100349
100364
100383
100403
100420
100432
100442
100450
100457
100465
100472
100479
100486
100493
100498
100501
100505
100507
100508
100509
100508
100508
100404
100403
100380
100356
100338
100326
100324
100326
100330
100340
100356
100375
100394
100410
100422
100432
100441
100449
100456
100464
100471
100478
100483
100488
100491
100493
100495
100496
100496
100496
100379
100379
100356
100332
100318
100314
100316
100317
100318
100323
100332
100348
100367
100385
100400
100413
100424
100433
100441
100449
100457
100464
100470
100474
100478
100480
100482
100483
100483
100483
100365
100360
100338
100319
100309
100308
100310
100311
100311
100311
100315
100324
100340
100358
100376
100392
100405
100416
100426
100435
100444
100451
100457
100462
100466
100468
100469
100470
100471
100472
100354
100345
100327
100311
100304
100305
100307
100306
100306
100304
100304
100307
100316
100331
100348
100367
100383
100397
100410
100421
100430
100439
100446
100451
100455
100457
100458
100459
100460
100460
100337
100332
100314
100305
100303
100304
100304
100303
100302
100301
100299
100299
100301
100309
100322
100339
100358
100375
100391
100405
100417
100427
100434
100440
100445
100447
100448
100449
100450
100450
100320
100316
100306
100302
100302
100301
100301
100300
100299
100298
100296
100295
100294
100296
100302
100313
100330
100349
100369
100387
100402
100415
100424
100430
100435
100438
100439
100440
100440
100441
100309
100306
100302
100300
100299
100299
100299
100298
100297
100296
100294
100293
100292
100291
100291
100295
100305
100320
100340
100363
100383
100400
100413
100421
100425
100429
100431
100431
100432
100432
100302
100300
100298
100297
100297
100297
100296
100296
100295
100294
100293
100292
100290
100289
100288
100288
100290
100296
100309
100333
100359
100382
100400
100411
100417
100420
100422
100423
100424
100424
100298
100297
100296
100295
100295
100294
100294
100294
100293
100292
100291
100290
100289
100288
100287
100286
100285
100285
100289
100302
100329
100358
100383
100399
100407
100411
100414
100416
100416
100417
100294
100294
100293
100292
100292
100292
100292
100292
100291
100291
100290
100289
100288
100287
100286
100285
100284
100283
100283
100286
100301
100332
100362