/*--------------------------------*- C++ -*----------------------------------*\
| =========                 |                                                 |
| \\      /  F ield         | OpenFOAM: The Open Source CFD Toolbox           |
|  \\    /   O peration     | Version:  v1606+                                |
|   \\  /    A nd           | Web:      www.OpenFOAM.com                      |
|    \\/     M anipulation  |                                                 |
\*---------------------------------------------------------------------------*/
FoamFile
{
    version     2.0;
    format      ascii;
    class       volVectorField;
    location    "1.49";
    object      U.particles;
}
// * * * * * * * * * * * * * * * * * * * * * * * * * * * * * * * * * * * * * //

dimensions      [0 1 -1 0 0 0 0];

internalField   nonuniform List<vector> 
6000
(
(-0.00738794 -0.33248 0)
(0.00807018 -0.34399 0)
(0.0239929 -0.336899 0)
(0.0400547 -0.341763 0)
(0.0505548 -0.36463 0)
(0.0600737 -0.410907 0)
(0.0655986 -0.457619 0)
(0.0673233 -0.48817 0)
(0.0558875 -0.506475 0)
(0.0357682 -0.51203 0)
(0.0304169 -0.499514 0)
(0.0277873 -0.486957 0)
(0.0209769 -0.492396 0)
(0.000901662 -0.499767 0)
(-0.0205449 -0.511123 0)
(-0.0318385 -0.507814 0)
(-0.0383493 -0.49955 0)
(-0.0422096 -0.491612 0)
(-0.0482843 -0.484661 0)
(-0.0644191 -0.458302 0)
(-0.0766751 -0.425467 0)
(-0.0821331 -0.384493 0)
(-0.0873169 -0.340864 0)
(-0.0844677 -0.31142 0)
(-0.0841225 -0.299541 0)
(-0.0723204 -0.303043 0)
(-0.0611102 -0.317565 0)
(-0.0410123 -0.327879 0)
(-0.00769724 -0.336199 0)
(0.0119007 -0.334613 0)
(0.0315771 0.0122459 0)
(0.0350792 0.020955 0)
(0.0544319 0.0269685 0)
(0.07764 0.0503034 0)
(0.0913406 0.0786096 0)
(0.109925 0.122916 0)
(0.122252 0.162088 0)
(0.108236 0.160444 0)
(0.0809972 0.106968 0)
(0.0535141 0.0817187 0)
(0.0314671 0.081932 0)
(0.0129832 0.0680739 0)
(-0.0039161 0.0547504 0)
(-0.0156791 0.0546509 0)
(-0.0194498 0.0591635 0)
(-0.0180422 0.0648388 0)
(-0.0186763 0.069472 0)
(-0.0309389 0.0874101 0)
(-0.0679582 0.100654 0)
(-0.122185 0.115433 0)
(-0.157895 0.13722 0)
(-0.168239 0.140895 0)
(-0.16966 0.129231 0)
(-0.159615 0.0887425 0)
(-0.157069 0.0447739 0)
(-0.135505 0.0117649 0)
(-0.112215 -0.0185132 0)
(-0.0767775 -0.0389611 0)
(-0.0444246 -0.0538783 0)
(-0.0338746 -0.0501619 0)
(0.0178378 -0.139022 0)
(0.0447168 -0.13573 0)
(0.0676747 -0.128835 0)
(0.0900126 -0.100422 0)
(0.0992687 -0.0649959 0)
(0.0988075 -0.0356549 0)
(0.103685 0.0130126 0)
(0.111096 0.0698594 0)
(0.101069 0.0865429 0)
(0.0786972 0.0805782 0)
(0.0494932 0.0734803 0)
(0.0116466 0.0718264 0)
(-0.0180296 0.0640525 0)
(-0.0328873 0.0462443 0)
(-0.0352766 0.0314896 0)
(-0.0312674 0.0282579 0)
(-0.0293266 0.041936 0)
(-0.0409293 0.0699251 0)
(-0.0669582 0.108031 0)
(-0.108042 0.121348 0)
(-0.15076 0.0970647 0)
(-0.183656 0.0519792 0)
(-0.199888 -0.00633937 0)
(-0.210555 -0.0644683 0)
(-0.204651 -0.105795 0)
(-0.170366 -0.13701 0)
(-0.135619 -0.155801 0)
(-0.0911861 -0.168387 0)
(-0.0518515 -0.171491 0)
(-0.0270489 -0.160972 0)
(0.000311411 -0.163553 0)
(0.0516083 -0.162065 0)
(0.0814624 -0.165588 0)
(0.115312 -0.14632 0)
(0.149406 -0.104846 0)
(0.158004 -0.0589654 0)
(0.151813 0.00695711 0)
(0.137193 0.0961495 0)
(0.11643 0.143974 0)
(0.0874544 0.136287 0)
(0.0523303 0.128222 0)
(0.00491174 0.128223 0)
(-0.031815 0.119786 0)
(-0.0479998 0.0973529 0)
(-0.0480093 0.0816748 0)
(-0.0454826 0.0786963 0)
(-0.0443471 0.0911721 0)
(-0.0482613 0.115793 0)
(-0.0588104 0.153971 0)
(-0.0839234 0.176766 0)
(-0.137175 0.147167 0)
(-0.211349 0.0833677 0)
(-0.2713 -0.0283391 0)
(-0.274927 -0.107414 0)
(-0.235209 -0.150874 0)
(-0.187761 -0.169177 0)
(-0.140718 -0.179972 0)
(-0.0928883 -0.184668 0)
(-0.052528 -0.172666 0)
(-0.0157397 -0.14919 0)
(-0.0379163 -0.14271 0)
(0.0407145 -0.17023 0)
(0.0767968 -0.181639 0)
(0.121076 -0.17638 0)
(0.163591 -0.155462 0)
(0.204075 -0.128343 0)
(0.216469 -0.0753161 0)
(0.199561 0.0347359 0)
(0.172283 0.156323 0)
(0.123148 0.195633 0)
(0.0730214 0.18954 0)
(0.021586 0.195415 0)
(-0.0216608 0.187284 0)
(-0.042456 0.149821 0)
(-0.0487043 0.116107 0)
(-0.0501143 0.106306 0)
(-0.0520571 0.115973 0)
(-0.0446425 0.139614 0)
(-0.0344826 0.18176 0)
(-0.0413621 0.217404 0)
(-0.116823 0.18957 0)
(-0.246257 0.0879402 0)
(-0.310839 -0.0547685 0)
(-0.304193 -0.132713 0)
(-0.24413 -0.174558 0)
(-0.182808 -0.188906 0)
(-0.134685 -0.190058 0)
(-0.0893451 -0.18766 0)
(-0.0458055 -0.16363 0)
(0.0061177 -0.127571 0)
(-0.032204 -0.0909444 0)
(0.0338728 -0.144108 0)
(0.0726966 -0.16467 0)
(0.122606 -0.176893 0)
(0.165716 -0.166051 0)
(0.223563 -0.149637 0)
(0.266506 -0.116387 0)
(0.270087 -0.0260727 0)
(0.230063 0.144507 0)
(0.168542 0.220899 0)
(0.10728 0.217275 0)
(0.0703938 0.223836 0)
(0.0348352 0.226259 0)
(0.00120306 0.187422 0)
(-0.0272681 0.139125 0)
(-0.0432825 0.115177 0)
(-0.0482241 0.110554 0)
(-0.0397021 0.120918 0)
(-0.0173135 0.162389 0)
(-0.00813155 0.213099 0)
(-0.0788523 0.212832 0)
(-0.242128 0.105729 0)
(-0.304482 -0.0467417 0)
(-0.307742 -0.131524 0)
(-0.244741 -0.178018 0)
(-0.175991 -0.187022 0)
(-0.129899 -0.182547 0)
(-0.0894428 -0.176136 0)
(-0.0491776 -0.141119 0)
(0.0121993 -0.0881484 0)
(0.00397398 -0.0529105 0)
(0.0293623 -0.11134 0)
(0.0746067 -0.139369 0)
(0.123194 -0.16734 0)
(0.163689 -0.169412 0)
(0.223246 -0.165467 0)
(0.287728 -0.131672 0)
(0.291329 -0.0525941 0)
(0.250675 0.126246 0)
(0.179861 0.216091 0)
(0.133635 0.205598 0)
(0.122664 0.195204 0)
(0.104593 0.19716 0)
(0.0577366 0.169596 0)
(-0.000603755 0.121147 0)
(-0.0321917 0.0916017 0)
(-0.0397094 0.0746305 0)
(-0.0394864 0.0619846 0)
(-0.0248123 0.0887843 0)
(-0.00955493 0.17586 0)
(-0.0715404 0.195742 0)
(-0.21406 0.0661284 0)
(-0.237236 -0.0784246 0)
(-0.262624 -0.143185 0)
(-0.234344 -0.186901 0)
(-0.172761 -0.201617 0)
(-0.122257 -0.189596 0)
(-0.0909713 -0.177396 0)
(-0.0499152 -0.132118 0)
(0.0130688 -0.0667691 0)
(0.00745065 -0.0364695 0)
(0.0310599 -0.0961026 0)
(0.0762167 -0.125725 0)
(0.126318 -0.15915 0)
(0.164401 -0.178779 0)
(0.224047 -0.175669 0)
(0.272641 -0.136864 0)
(0.258561 -0.0722391 0)
(0.236097 0.0708975 0)
(0.165508 0.16567 0)
(0.142777 0.137291 0)
(0.122892 0.106921 0)
(0.101802 0.0935368 0)
(0.0635621 0.0377092 0)
(0.0217578 -0.0175851 0)
(-0.00483081 -0.0325306 0)
(-0.0184472 -0.0210619 0)
(-0.0299311 -0.0211927 0)
(-0.0535743 -0.0121749 0)
(-0.0693149 0.0549803 0)
(-0.103749 0.0894406 0)
(-0.142897 0.0367944 0)
(-0.114279 -0.092836 0)
(-0.166454 -0.176625 0)
(-0.187332 -0.202701 0)
(-0.167662 -0.222817 0)
(-0.122371 -0.21255 0)
(-0.0902748 -0.196921 0)
(-0.0438658 -0.143899 0)
(0.0095499 -0.0615013 0)
(0.0170877 -0.0498542 0)
(0.0440295 -0.102856 0)
(0.0807435 -0.135277 0)
(0.127524 -0.167592 0)
(0.171224 -0.196081 0)
(0.207716 -0.186703 0)
(0.213905 -0.153229 0)
(0.173848 -0.0833693 0)
(0.151667 0.0115615 0)
(0.111279 0.0453212 0)
(0.0548769 0.0101358 0)
(0.00276747 -0.0506228 0)
(-0.0108353 -0.0986472 0)
(-0.00798468 -0.153987 0)
(0.0115036 -0.191512 0)
(0.0219594 -0.196955 0)
(0.0188588 -0.17806 0)
(0.000431715 -0.151108 0)
(-0.043482 -0.125702 0)
(-0.0949562 -0.0786772 0)
(-0.104454 -0.0316661 0)
(-0.0801967 -0.00101824 0)
(-0.0027467 -0.0696673 0)
(-0.0167451 -0.174329 0)
(-0.0995273 -0.220407 0)
(-0.127383 -0.243052 0)
(-0.109137 -0.243746 0)
(-0.078523 -0.2206 0)
(-0.0397547 -0.151059 0)
(0.00322683 -0.0639507 0)
(0.0186649 -0.08214 0)
(0.0521515 -0.132133 0)
(0.0834629 -0.163547 0)
(0.126988 -0.193632 0)
(0.165462 -0.21281 0)
(0.160593 -0.201498 0)
(0.119212 -0.150482 0)
(0.0217487 -0.0207024 0)
(0.0132441 0.0384922 0)
(-0.0359464 -0.0242747 0)
(-0.101505 -0.0888899 0)
(-0.122263 -0.15473 0)
(-0.100298 -0.196148 0)
(-0.0605561 -0.221248 0)
(-0.0208055 -0.233693 0)
(0.011743 -0.238281 0)
(0.0280194 -0.234673 0)
(0.0242345 -0.212945 0)
(-0.00109669 -0.177415 0)
(-0.0477843 -0.116378 0)
(-0.0582378 -0.0810818 0)
(-0.0335275 -0.0482157 0)
(0.0473904 -0.0729602 0)
(0.0798017 -0.165653 0)
(0.0312419 -0.193404 0)
(-0.0501089 -0.232157 0)
(-0.0669725 -0.262043 0)
(-0.0543553 -0.241616 0)
(-0.0393545 -0.159022 0)
(0.00517201 -0.0735146 0)
(0.0154364 -0.114191 0)
(0.050116 -0.164286 0)
(0.0771725 -0.197955 0)
(0.119117 -0.230427 0)
(0.127912 -0.234811 0)
(0.0854318 -0.20846 0)
(-0.0300051 -0.0816424 0)
(-0.107151 0.0619175 0)
(-0.112591 0.0690995 0)
(-0.167974 -0.018509 0)
(-0.198353 -0.104779 0)
(-0.161231 -0.160708 0)
(-0.12354 -0.196267 0)
(-0.078209 -0.213502 0)
(-0.0365016 -0.220063 0)
(-0.000400416 -0.215915 0)
(0.0224558 -0.201897 0)
(0.031985 -0.182366 0)
(0.022034 -0.147448 0)
(-0.00264156 -0.103677 0)
(-0.0114298 -0.0737489 0)
(0.00528414 -0.0584426 0)
(0.070279 -0.0661302 0)
(0.121217 -0.135944 0)
(0.11413 -0.170515 0)
(0.0669134 -0.171969 0)
(0.0143606 -0.230642 0)
(-0.00410164 -0.271875 0)
(-0.0235982 -0.199052 0)
(-0.0164527 -0.0754396 0)
(-0.0019913 -0.137748 0)
(0.0398927 -0.197101 0)
(0.0542323 -0.23968 0)
(0.0876421 -0.267548 0)
(0.0588691 -0.249754 0)
(-0.0334071 -0.170575 0)
(-0.151075 0.0290587 0)
(-0.182056 0.118174 0)
(-0.200485 0.100451 0)
(-0.238405 0.00070772 0)
(-0.214447 -0.09357 0)
(-0.167488 -0.144533 0)
(-0.124745 -0.183775 0)
(-0.0800626 -0.196147 0)
(-0.0403277 -0.197683 0)
(-0.00403063 -0.188281 0)
(0.0217276 -0.168708 0)
(0.0344443 -0.145162 0)
(0.0339268 -0.117033 0)
(0.0244987 -0.0797354 0)
(0.0258783 -0.0535796 0)
(0.0454391 -0.0424624 0)
(0.0995313 -0.0514381 0)
(0.152934 -0.093341 0)
(0.152074 -0.141268 0)
(0.106794 -0.14529 0)
(0.0754436 -0.156219 0)
(0.0683956 -0.209959 0)
(0.0368333 -0.257513 0)
(-0.0276365 -0.132255 0)
(-0.0329645 -0.138682 0)
(0.0261834 -0.217817 0)
(0.0360588 -0.257312 0)
(0.0335759 -0.26806 0)
(-0.0429276 -0.186031 0)
(-0.202469 0.023362 0)
(-0.216815 0.122559 0)
(-0.239477 0.151915 0)
(-0.266611 0.121715 0)
(-0.256132 0.00454431 0)
(-0.203946 -0.0806677 0)
(-0.16218 -0.124423 0)
(-0.122568 -0.156756 0)
(-0.0802723 -0.165765 0)
(-0.0437 -0.162032 0)
(-0.0103418 -0.148379 0)
(0.017552 -0.128957 0)
(0.0323153 -0.106773 0)
(0.0368548 -0.0801604 0)
(0.0387322 -0.0499804 0)
(0.0503438 -0.0257409 0)
(0.0731366 -0.0180687 0)
(0.129513 -0.023818 0)
(0.19484 -0.0672074 0)
(0.144463 -0.102758 0)
(0.0597822 -0.0959386 0)
(0.046962 -0.0983805 0)
(0.0383781 -0.121275 0)
(0.0366438 -0.126183 0)
(0.0325612 -0.100128 0)
(-0.047657 -0.100757 0)
(0.00154279 -0.194977 0)
(0.0158701 -0.222796 0)
(-0.02556 -0.219623 0)
(-0.108546 -0.0215982 0)
(-0.261552 0.106822 0)
(-0.264729 0.16933 0)
(-0.280294 0.177768 0)
(-0.275696 0.129765 0)
(-0.238359 0.00462185 0)
(-0.188933 -0.0588676 0)
(-0.143793 -0.103095 0)
(-0.110401 -0.131365 0)
(-0.0761979 -0.134727 0)
(-0.0469519 -0.122846 0)
(-0.0210139 -0.100447 0)
(0.00507968 -0.0793287 0)
(0.0239663 -0.0615748 0)
(0.0327587 -0.0403055 0)
(0.0477074 -0.00899476 0)
(0.0655736 0.0129675 0)
(0.0925822 0.0169661 0)
(0.138574 -0.00452158 0)
(0.235046 -0.0405524 0)
(0.0611693 -0.0747618 0)
(0.0132642 -0.0391315 0)
(-0.00414809 -0.0548396 0)
(-0.00654969 -0.0811918 0)
(-0.00233954 -0.0873018 0)
(0.0237833 -0.0567229 0)
(-0.0244742 -0.0599712 0)
(0.00546631 -0.140336 0)
(0.0335603 -0.164161 0)
(-0.0491484 -0.114779 0)
(-0.261324 0.123074 0)
(-0.293738 0.188552 0)
(-0.299737 0.211431 0)
(-0.293118 0.209087 0)
(-0.258113 0.13629 0)
(-0.208095 0.0126982 0)
(-0.164968 -0.0488414 0)
(-0.118758 -0.0835688 0)
(-0.0953899 -0.109999 0)
(-0.0685447 -0.108542 0)
(-0.0487249 -0.0854969 0)
(-0.033308 -0.0499092 0)
(-0.0118712 -0.0223367 0)
(0.00839089 -0.00373061 0)
(0.0352611 0.0294419 0)
(0.0495129 0.0537762 0)
(0.0633132 0.0556793 0)
(0.10461 0.039844 0)
(0.171341 -0.00275931 0)
(0.226486 0.000419398 0)
(0.0365272 0.0222286 0)
(0.00207244 0.00613608 0)
(-0.00707615 -0.0196185 0)
(-0.00438538 -0.0419157 0)
(-0.000632321 -0.0473816 0)
(0.0066684 -0.0264603 0)
(-0.00652654 -0.0379928 0)
(-0.000649725 -0.0951576 0)
(0.021825 -0.117284 0)
(0.0518868 -0.0351264 0)
(-0.299086 0.236786 0)
(-0.303961 0.283715 0)
(-0.29487 0.290096 0)
(-0.274293 0.259637 0)
(-0.222457 0.173788 0)
(-0.162119 0.0645125 0)
(-0.136934 -0.0259794 0)
(-0.0920672 -0.0656651 0)
(-0.0750764 -0.0906629 0)
(-0.054432 -0.088159 0)
(-0.0409316 -0.0540707 0)
(-0.0325349 -0.00170155 0)
(-0.0190848 0.0467709 0)
(-0.0111816 0.0862102 0)
(-0.00530473 0.114961 0)
(0.0172582 0.103889 0)
(0.0589602 0.0753975 0)
(0.120664 0.0399882 0)
(0.213738 0.0169194 0)
(0.0786726 0.0676191 0)
(0.0220234 0.0639308 0)
(0.00934509 0.0290882 0)
(0.00398168 -0.000336565 0)
(0.00272781 -0.0208058 0)
(0.00172261 -0.0261184 0)
(0.000862923 -0.013385 0)
(-0.00131054 -0.0309613 0)
(0.000332805 -0.074178 0)
(0.0151031 -0.0752699 0)
(0.0622341 -0.00393199 0)
(-0.0503875 0.177434 0)
(-0.280812 0.40614 0)
(-0.243284 0.397435 0)
(-0.219625 0.370431 0)
(-0.167852 0.275267 0)
(-0.0851609 0.161389 0)
(-0.0852037 0.0342962 0)
(-0.0715355 -0.0279393 0)
(-0.056962 -0.0665333 0)
(-0.0360714 -0.067903 0)
(-0.0186729 -0.0244959 0)
(-0.0117628 0.0422717 0)
(-0.0354285 0.0798494 0)
(-0.06363 0.0838171 0)
(-0.0639521 0.0970064 0)
(-0.0127952 0.0930455 0)
(0.0572134 0.0651085 0)
(0.124394 0.038107 0)
(0.20804 0.0466771 0)
(0.0827006 0.102286 0)
(0.0552847 0.0804972 0)
(0.0378578 0.0461215 0)
(0.0228644 0.0144197 0)
(0.0102597 -0.00590181 0)
(0.00265336 -0.0118853 0)
(-0.000360669 -0.00497043 0)
(0.00122377 -0.0297731 0)
(0.00151694 -0.0650748 0)
(0.00104856 -0.0593724 0)
(0.00902584 0.00200029 0)
(-0.0205225 0.171928 0)
(-0.257619 0.466981 0)
(-0.17766 0.471778 0)
(-0.140186 0.464924 0)
(-0.099558 0.3964 0)
(-0.0177621 0.226242 0)
(-0.0276837 0.105332 0)
(-0.0457419 0.0151581 0)
(-0.0441506 -0.0369234 0)
(-0.023306 -0.0362465 0)
(-0.0205054 0.0138002 0)
(-0.0385359 0.0622589 0)
(-0.0516332 0.0850163 0)
(-0.0636382 0.0902725 0)
(-0.078509 0.0787417 0)
(-0.0676273 0.0342581 0)
(0.0236304 0.0378614 0)
(0.0987953 0.0345337 0)
(0.132192 0.0904885 0)
(0.117352 0.0932223 0)
(0.102578 0.0869991 0)
(0.0788069 0.064348 0)
(0.0460312 0.0289386 0)
(0.0096656 0.00628305 0)
(-0.00511838 -0.00268442 0)
(-0.00310355 0.00314605 0)
(0.0081173 -0.0332905 0)
(0.0130939 -0.0642909 0)
(-0.00588195 -0.0524402 0)
(-0.0801823 -0.0172695 0)
(-0.261462 0.298331 0)
(-0.238061 0.4471 0)
(-0.14869 0.468045 0)
(-0.0787147 0.472952 0)
(-0.0141367 0.422572 0)
(0.0415489 0.166164 0)
(0.0140181 0.117698 0)
(-0.017555 0.0425664 0)
(-0.0276459 -0.0124228 0)
(-0.0297161 -0.0103047 0)
(-0.0333692 0.024725 0)
(-0.046251 0.0652605 0)
(-0.0612656 0.0927448 0)
(-0.0717946 0.091722 0)
(-0.0750461 0.0663253 0)
(-0.0662764 0.0285554 0)
(-0.0282687 0.000848814 0)
(0.0547594 0.00845689 0)
(0.143259 0.0505037 0)
(0.130835 0.0831581 0)
(0.120763 0.095625 0)
(0.131713 0.10163 0)
(0.0901012 0.0202284 0)
(-0.0333018 -0.00961105 0)
(-0.0403282 -0.00799553 0)
(-0.018252 0.00787539 0)
(0.0307058 -0.0360492 0)
(0.0615851 -0.0705508 0)
(0.0517382 -0.105598 0)
(-0.068964 -0.327988 0)
(-0.132632 -0.0160534 0)
(-0.124107 0.162437 0)
(-0.0820152 0.267536 0)
(-0.0161568 0.303755 0)
(0.0581711 0.271555 0)
(0.152033 -0.0867057 0)
(0.120382 -0.12798 0)
(0.0134226 0.0152539 0)
(-0.0205476 -2.22743e-05 0)
(-0.0297452 -0.00347927 0)
(-0.0385601 0.0274522 0)
(-0.0566216 0.065026 0)
(-0.0717506 0.0954975 0)
(-0.0770646 0.0858341 0)
(-0.0725847 0.0505471 0)
(-0.0600124 0.0110953 0)
(-0.0358321 -0.0126756 0)
(0.0149845 -0.0118265 0)
(0.0510373 -0.0527237 0)
(0.0618374 -0.00463807 0)
(0.0438825 -0.092705 0)
(-0.0100094 -0.414196 0)
(0.00959798 -0.461271 0)
(-0.00184165 -0.419147 0)
(-0.0875239 -0.0392798 0)
(-0.0339828 -0.0191239 0)
(0.0982868 -0.160184 0)
(0.10216 -0.129976 0)
(-0.0425023 -0.519356 0)
(-0.0432547 -0.469755 0)
(0.00426058 -0.379051 0)
(0.0177046 -0.230837 0)
(0.0567618 -0.138798 0)
(0.103927 -0.106439 0)
(0.15139 -0.134973 0)
(0.203741 -0.307926 0)
(0.22366 -0.376052 0)
(0.214439 -0.385358 0)
(0.0688234 -0.116397 0)
(-0.0143483 -0.00193232 0)
(-0.0318777 0.0366752 0)
(-0.0576062 0.064003 0)
(-0.0875722 0.0973816 0)
(-0.0817821 0.0733497 0)
(-0.0775411 0.0170422 0)
(-0.0642981 -0.0170341 0)
(-0.036276 -0.0243736 0)
(-0.013858 -0.0885799 0)
(-0.109548 -0.393462 0)
(-0.0998957 -0.439868 0)
(-0.0764026 -0.468438 0)
(-0.0486874 -0.488292 0)
(-0.0217266 -0.499159 0)
(0.0157305 -0.503665 0)
(0.00548956 -0.448053 0)
(-0.104391 -0.15169 0)
(-0.00677266 -0.574326 0)
(-0.0408492 -0.55892 0)
(-0.0450616 -0.517246 0)
(-0.0425152 -0.481658 0)
(5.23247e-05 -0.43732 0)
(0.0364165 -0.386543 0)
(0.0922295 -0.341067 0)
(0.142037 -0.325945 0)
(0.18281 -0.339709 0)
(0.213375 -0.358378 0)
(0.248331 -0.374181 0)
(0.273518 -0.396557 0)
(0.26296 -0.410997 0)
(0.187155 -0.317754 0)
(0.0294056 -0.0468404 0)
(-0.010801 -0.0518805 0)
(-0.116904 -0.0559607 0)
(-0.0887866 0.0227853 0)
(-0.0902457 -0.0329848 0)
(-0.086101 -0.0537656 0)
(-0.0732621 -0.0966586 0)
(-0.168291 -0.408241 0)
(-0.153492 -0.43937 0)
(-0.124447 -0.456645 0)
(-0.101475 -0.474911 0)
(-0.0721839 -0.488168 0)
(-0.0479123 -0.499565 0)
(-0.0233267 -0.511661 0)
(0.00969101 -0.515116 0)
(0.0145739 -0.49125 0)
(-0.0185371 -0.544641 0)
(-0.0261235 -0.524424 0)
(-0.0350831 -0.498807 0)
(-0.0396277 -0.461073 0)
(-0.0156944 -0.428102 0)
(0.0275035 -0.399307 0)
(0.0750586 -0.367829 0)
(0.12349 -0.352062 0)
(0.169053 -0.340379 0)
(0.21257 -0.333661 0)
(0.253809 -0.34388 0)
(0.276219 -0.36131 0)
(0.272809 -0.373154 0)
(0.243601 -0.374724 0)
(0.189288 -0.327808 0)
(0.0659932 -0.188619 0)
(-0.112007 -0.183865 0)
(-0.177233 -0.3101 0)
(-0.15237 -0.200525 0)
(-0.161167 -0.215621 0)
(-0.211238 -0.397154 0)
(-0.1966 -0.404492 0)
(-0.168056 -0.418312 0)
(-0.137413 -0.437008 0)
(-0.117943 -0.456834 0)
(-0.0951897 -0.473798 0)
(-0.0699841 -0.481283 0)
(-0.0469189 -0.487532 0)
(-0.0267271 -0.491414 0)
(-0.00531129 -0.463171 0)
(-0.0144145 -0.512439 0)
(-0.00129964 -0.497796 0)
(-0.0153465 -0.47297 0)
(-0.0205018 -0.443085 0)
(-0.0097598 -0.405609 0)
(0.0243986 -0.386074 0)
(0.0664983 -0.356383 0)
(0.108366 -0.334383 0)
(0.154666 -0.319278 0)
(0.204259 -0.310151 0)
(0.250676 -0.317461 0)
(0.269193 -0.329541 0)
(0.260895 -0.336522 0)
(0.228946 -0.32785 0)
(0.176733 -0.265624 0)
(0.0611591 -0.11565 0)
(-0.0888089 -0.121643 0)
(-0.151221 -0.299057 0)
(-0.192201 -0.366261 0)
(-0.219093 -0.375415 0)
(-0.212455 -0.37341 0)
(-0.196526 -0.381007 0)
(-0.170842 -0.398942 0)
(-0.148846 -0.419719 0)
(-0.133394 -0.442532 0)
(-0.112672 -0.457943 0)
(-0.0910399 -0.464735 0)
(-0.0599321 -0.459649 0)
(-0.0304652 -0.458605 0)
(-0.0106108 -0.447246 0)
(-0.00289938 -0.476301 0)
(-0.0126148 -0.463119 0)
(0.00526864 -0.440927 0)
(0.00756347 -0.422722 0)
(0.0105529 -0.393529 0)
(0.0351538 -0.371037 0)
(0.0715703 -0.342234 0)
(0.101221 -0.314484 0)
(0.139061 -0.300275 0)
(0.189911 -0.290372 0)
(0.238057 -0.294168 0)
(0.25269 -0.297723 0)
(0.237124 -0.302494 0)
(0.206018 -0.279822 0)
(0.149376 -0.195777 0)
(0.0493204 -0.0411716 0)
(-0.0689702 -0.0556791 0)
(-0.127037 -0.24445 0)
(-0.171134 -0.328402 0)
(-0.206453 -0.343731 0)
(-0.205457 -0.345775 0)
(-0.194807 -0.351764 0)
(-0.175523 -0.370631 0)
(-0.160466 -0.391163 0)
(-0.146349 -0.409435 0)
(-0.127526 -0.423376 0)
(-0.0998434 -0.433763 0)
(-0.0749461 -0.44238 0)
(-0.0424699 -0.422013 0)
(-0.00483068 -0.410144 0)
(-0.0149818 -0.443241 0)
(-0.0106388 -0.426371 0)
(0.00838093 -0.408998 0)
(0.0263683 -0.399141 0)
(0.040884 -0.383404 0)
(0.0558287 -0.355868 0)
(0.0898674 -0.321172 0)
(0.105552 -0.29019 0)
(0.128248 -0.278119 0)
(0.167683 -0.273706 0)
(0.214181 -0.275821 0)
(0.222363 -0.276123 0)
(0.206111 -0.272708 0)
(0.171098 -0.237024 0)
(0.11616 -0.132868 0)
(0.0369392 0.0253376 0)
(-0.0432448 0.0205598 0)
(-0.0986666 -0.17939 0)
(-0.14462 -0.289682 0)
(-0.19009 -0.31301 0)
(-0.19474 -0.313678 0)
(-0.187579 -0.320111 0)
(-0.173773 -0.338407 0)
(-0.162229 -0.360002 0)
(-0.150181 -0.377932 0)
(-0.132012 -0.390528 0)
(-0.109164 -0.398475 0)
(-0.080224 -0.401169 0)
(-0.0497394 -0.404976 0)
(-0.0192472 -0.374866 0)
(-0.0117532 -0.398243 0)
(0.00626499 -0.400803 0)
(0.0154423 -0.387533 0)
(0.0395639 -0.365611 0)
(0.0506817 -0.346595 0)
(0.0780861 -0.323814 0)
(0.103864 -0.305204 0)
(0.123085 -0.276223 0)
(0.13373 -0.259366 0)
(0.147489 -0.258532 0)
(0.180983 -0.258285 0)
(0.185926 -0.248387 0)
(0.16617 -0.238243 0)
(0.129001 -0.19019 0)
(0.0841373 -0.0714984 0)
(0.0317001 0.0809982 0)
(-0.0153755 0.078863 0)
(-0.0577901 -0.118692 0)
(-0.107171 -0.244865 0)
(-0.168539 -0.279403 0)
(-0.181215 -0.282753 0)
(-0.178266 -0.286478 0)
(-0.169287 -0.305294 0)
(-0.158572 -0.325493 0)
(-0.145881 -0.342235 0)
(-0.127599 -0.353541 0)
(-0.105382 -0.36132 0)
(-0.081708 -0.36561 0)
(-0.0534248 -0.357107 0)
(-0.01131 -0.343575 0)
(-0.0112721 -0.366631 0)
(-0.00611862 -0.359284 0)
(0.0148899 -0.339221 0)
(0.0429467 -0.333784 0)
(0.0661286 -0.318257 0)
(0.0817347 -0.290433 0)
(0.0960638 -0.26317 0)
(0.136344 -0.24067 0)
(0.157855 -0.209861 0)
(0.15812 -0.208166 0)
(0.15357 -0.223669 0)
(0.130297 -0.228548 0)
(0.108581 -0.199397 0)
(0.0755564 -0.133522 0)
(0.058515 -0.00697854 0)
(0.0355829 0.115341 0)
(0.0119788 0.127333 0)
(0.00847501 -0.00322074 0)
(-0.0588467 -0.190771 0)
(-0.136597 -0.243845 0)
(-0.163161 -0.250604 0)
(-0.165375 -0.25259 0)
(-0.160309 -0.271118 0)
(-0.150458 -0.293329 0)
(-0.136395 -0.311388 0)
(-0.118013 -0.32387 0)
(-0.096913 -0.330712 0)
(-0.0751802 -0.332377 0)
(-0.0520561 -0.328661 0)
(-0.0145402 -0.304777 0)
(-0.0117566 -0.324331 0)
(-0.00135041 -0.322026 0)
(0.0196601 -0.307773 0)
(0.0495023 -0.292074 0)
(0.0736283 -0.276587 0)
(0.09248 -0.25361 0)
(0.112661 -0.223816 0)
(0.123945 -0.195352 0)
(0.146087 -0.161778 0)
(0.164261 -0.163067 0)
(0.130903 -0.189637 0)
(0.063439 -0.209578 0)
(0.0405651 -0.169179 0)
(0.0343006 -0.0833653 0)
(0.0441458 0.0387905 0)
(0.043743 0.161199 0)
(0.034656 0.169451 0)
(0.0564129 0.0499407 0)
(-0.0040918 -0.149556 0)
(-0.0933548 -0.200779 0)
(-0.139143 -0.21643 0)
(-0.149136 -0.218489 0)
(-0.147846 -0.237474 0)
(-0.138955 -0.262305 0)
(-0.124044 -0.284114 0)
(-0.10498 -0.300306 0)
(-0.083547 -0.310504 0)
(-0.063582 -0.313494 0)
(-0.046124 -0.309945 0)
(-0.013379 -0.288007 0)
(-0.0107748 -0.287204 0)
(-0.000431827 -0.284636 0)
(0.0227799 -0.273275 0)
(0.0586627 -0.264419 0)
(0.086503 -0.246747 0)
(0.104582 -0.219688 0)
(0.118009 -0.187269 0)
(0.130668 -0.156022 0)
(0.141628 -0.119901 0)
(0.161627 -0.115088 0)
(0.118906 -0.152215 0)
(0.00375448 -0.189562 0)
(-0.0124373 -0.141846 0)
(0.0093954 -0.0436501 0)
(0.0441903 0.063327 0)
(0.0578063 0.170643 0)
(0.0710587 0.200783 0)
(0.0998404 0.12901 0)
(0.0718404 -0.0505346 0)
(-0.0353468 -0.147629 0)
(-0.108391 -0.177746 0)
(-0.130244 -0.181933 0)
(-0.133552 -0.203593 0)
(-0.127572 -0.232979 0)
(-0.112991 -0.261262 0)
(-0.0935748 -0.284201 0)
(-0.0709206 -0.300716 0)
(-0.0496512 -0.307932 0)
(-0.0356048 -0.3049 0)
(-0.0124771 -0.282505 0)
(-0.0110196 -0.251088 0)
(0.00361264 -0.255203 0)
(0.029704 -0.245046 0)
(0.0623437 -0.230383 0)
(0.0892543 -0.209634 0)
(0.108353 -0.181199 0)
(0.120114 -0.146745 0)
(0.12884 -0.112497 0)
(0.1345 -0.0789094 0)
(0.143351 -0.0743679 0)
(0.0884336 -0.122642 0)
(-0.0575998 -0.173869 0)
(-0.0502034 -0.11377 0)
(-0.00171204 -0.0421526 0)
(0.0526395 0.046163 0)
(0.0835572 0.162374 0)
(0.113236 0.220191 0)
(0.136688 0.18369 0)
(0.122361 0.0357683 0)
(0.0147563 -0.0933176 0)
(-0.0732334 -0.13596 0)
(-0.107422 -0.141626 0)
(-0.117098 -0.166055 0)
(-0.116648 -0.201593 0)
(-0.104013 -0.238522 0)
(-0.0850852 -0.270197 0)
(-0.0623958 -0.295315 0)
(-0.0381749 -0.311153 0)
(-0.0234882 -0.316001 0)
(-0.00765904 -0.289952 0)
(-0.0106644 -0.221152 0)
(0.00759728 -0.231489 0)
(0.0325178 -0.220485 0)
(0.0645054 -0.203936 0)
(0.0910245 -0.178987 0)
(0.109011 -0.145845 0)
(0.11862 -0.10748 0)
(0.123739 -0.0691625 0)
(0.124527 -0.0345184 0)
(0.115207 -0.0324356 0)
(0.0395011 -0.090595 0)
(-0.102123 -0.145882 0)
(-0.0856668 -0.106477 0)
(0.00341672 -0.0731137 0)
(0.0651479 -0.00442548 0)
(0.10827 0.118721 0)
(0.164395 0.232299 0)
(0.193092 0.220669 0)
(0.191453 0.13754 0)
(0.0859995 -0.012757 0)
(-0.0288952 -0.082552 0)
(-0.076995 -0.10307 0)
(-0.0959678 -0.126128 0)
(-0.102455 -0.165328 0)
(-0.0947664 -0.211395 0)
(-0.0773445 -0.253255 0)
(-0.0560144 -0.287097 0)
(-0.0311066 -0.311923 0)
(-0.0172526 -0.323063 0)
(-0.00164034 -0.308776 0)
(-0.0103005 -0.196388 0)
(0.0107268 -0.215492 0)
(0.036819 -0.204204 0)
(0.0682678 -0.183167 0)
(0.0931532 -0.151952 0)
(0.108209 -0.112767 0)
(0.114225 -0.0705252 0)
(0.113147 -0.0304602 0)
(0.105299 0.00692548 0)
(0.084267 0.0300141 0)
(-0.00128248 -0.048422 0)
(-0.133325 -0.110306 0)
(-0.0998361 -0.114104 0)
(0.00998547 -0.0963096 0)
(0.071445 -0.0526897 0)
(0.106344 0.0530708 0)
(0.195316 0.197675 0)
(0.244445 0.252994 0)
(0.246396 0.216607 0)
(0.151963 0.0799819 0)
(0.0213132 -0.0202821 0)
(-0.0443872 -0.0645065 0)
(-0.0725556 -0.090822 0)
(-0.0831285 -0.129862 0)
(-0.0817729 -0.180325 0)
(-0.0668114 -0.231025 0)
(-0.0459918 -0.271134 0)
(-0.0229764 -0.304624 0)
(-0.00835529 -0.322362 0)
(0.00521061 -0.315272 0)
(-0.00913964 -0.177889 0)
(0.01496 -0.206224 0)
(0.0423684 -0.19335 0)
(0.0722307 -0.165795 0)
(0.0913939 -0.127568 0)
(0.0966832 -0.0851326 0)
(0.0938816 -0.0445926 0)
(0.0866983 -0.00694326 0)
(0.0760588 0.0261439 0)
(0.0696442 0.0486073 0)
(0.045841 0.0406053 0)
(-0.147653 -0.068444 0)
(-0.10326 -0.116409 0)
(0.0142968 -0.105459 0)
(0.0705741 -0.0699455 0)
(0.135121 -0.0223027 0)
(0.200923 0.113711 0)
(0.287211 0.261676 0)
(0.292097 0.264597 0)
(0.245281 0.194371 0)
(0.0928169 0.0594615 0)
(0.00260212 -0.00968195 0)
(-0.0380786 -0.0565994 0)
(-0.0566588 -0.0988876 0)
(-0.0594763 -0.148419 0)
(-0.0498268 -0.202771 0)
(-0.0305682 -0.249736 0)
(-0.00861978 -0.286795 0)
(0.00392151 -0.312002 0)
(0.0150085 -0.312536 0)
(-0.00886511 -0.166388 0)
(0.0183878 -0.200836 0)
(0.0452082 -0.182438 0)
(0.0669148 -0.148383 0)
(0.0719887 -0.108287 0)
(0.0720576 -0.0697968 0)
(0.068374 -0.0318299 0)
(0.0611154 0.00470179 0)
(0.0515518 0.0373525 0)
(0.0423441 0.0637824 0)
(0.0444964 0.0753508 0)
(-0.0419458 0.0276757 0)
(-0.113401 -0.0735059 0)
(0.0098622 -0.09851 0)
(0.0648202 -0.0678939 0)
(0.150133 -0.0292438 0)
(0.189224 0.0776895 0)
(0.288451 0.254373 0)
(0.322154 0.312263 0)
(0.305439 0.27575 0)
(0.173629 0.151186 0)
(0.0657089 0.0580792 0)
(0.00903497 -0.0111012 0)
(-0.0229995 -0.0674087 0)
(-0.035349 -0.116852 0)
(-0.0359801 -0.175095 0)
(-0.0153578 -0.226392 0)
(0.00786419 -0.264083 0)
(0.0222346 -0.292637 0)
(0.034577 -0.290442 0)
(-0.00619449 -0.158543 0)
(0.0184102 -0.194703 0)
(0.0426162 -0.169481 0)
(0.0532211 -0.13375 0)
(0.0549036 -0.0966869 0)
(0.0536324 -0.0597553 0)
(0.0478706 -0.0216329 0)
(0.0365957 0.0162277 0)
(0.0170386 0.050184 0)
(-0.00139308 0.0756858 0)
(-0.00413204 0.088765 0)
(0.00796094 0.0980874 0)
(-0.110903 -0.0508029 0)
(0.000348327 -0.0858907 0)
(0.0609528 -0.056637 0)
(0.141209 -0.0160619 0)
(0.179261 0.0862894 0)
(0.271903 0.248511 0)
(0.338912 0.330497 0)
(0.33766 0.320091 0)
(0.248884 0.237508 0)
(0.12412 0.119247 0)
(0.0654838 0.0447385 0)
(0.0178369 -0.0266053 0)
(-0.00833206 -0.0816099 0)
(-0.0233103 -0.140261 0)
(-0.00806361 -0.20102 0)
(0.0161272 -0.244093 0)
(0.036397 -0.266893 0)
(0.059407 -0.238533 0)
(0.0011913 -0.160246 0)
(0.0212243 -0.184392 0)
(0.0392596 -0.159959 0)
(0.0436251 -0.126135 0)
(0.0421635 -0.0898671 0)
(0.0383947 -0.0526454 0)
(0.0284772 -0.0115503 0)
(0.00891407 0.0344053 0)
(-0.0352478 0.0695099 0)
(-0.052938 0.0798504 0)
(-0.0539546 0.082497 0)
(-0.0586972 0.0748269 0)
(-0.0493695 0.0418416 0)
(-0.0262748 -0.0489191 0)
(0.038512 -0.0126884 0)
(0.0971278 0.0359374 0)
(0.148783 0.139702 0)
(0.220664 0.261069 0)
(0.329942 0.355952 0)
(0.367371 0.347259 0)
(0.341974 0.297602 0)
(0.218538 0.212571 0)
(0.139648 0.114878 0)
(0.0741921 0.0438504 0)
(0.0157008 -0.0231573 0)
(-0.0113061 -0.0896014 0)
(-0.00260917 -0.160014 0)
(0.0222117 -0.205225 0)
(0.0410448 -0.22955 0)
(0.0905513 -0.134176 0)
(0.00350573 -0.171757 0)
(0.0262521 -0.181129 0)
(0.0387689 -0.157681 0)
(0.0397774 -0.123805 0)
(0.0329317 -0.0849886 0)
(0.0207147 -0.0465336 0)
(0.00261457 0.00548187 0)
(-0.0480037 0.0793963 0)
(-0.0914012 0.112878 0)
(-0.08716 0.087684 0)
(-0.0752204 0.0716102 0)
(-0.0631784 0.0567573 0)
(-0.0517155 0.0378479 0)
(-0.0396972 0.00610969 0)
(-0.0192426 0.0498909 0)
(0.0163265 0.130921 0)
(0.0920701 0.239717 0)
(0.194364 0.326916 0)
(0.324066 0.417285 0)
(0.401702 0.418796 0)
(0.403236 0.391323 0)
(0.347719 0.324985 0)
(0.254144 0.235661 0)
(0.138134 0.139779 0)
(0.043857 0.057497 0)
(0.0178382 -0.0303791 0)
(0.0228667 -0.110257 0)
(0.0332431 -0.157966 0)
(0.0398464 -0.156264 0)
(0.0364259 -0.0699682 0)
(0.0149521 -0.176724 0)
(0.0342973 -0.186817 0)
(0.0439716 -0.16286 0)
(0.0438879 -0.125465 0)
(0.0318992 -0.077368 0)
(-0.00604193 -0.0372272 0)
(-0.0818764 0.0534187 0)
(-0.109529 0.119614 0)
(-0.116199 0.105634 0)
(-0.0978792 0.072247 0)
(-0.0765143 0.0582686 0)
(-0.0617967 0.0482955 0)
(-0.0559456 0.0420956 0)
(-0.0569936 0.0449206 0)
(-0.0816447 0.0997339 0)
(-0.0844663 0.208906 0)
(-0.00787599 0.394808 0)
(0.128734 0.54233 0)
(0.252773 0.599437 0)
(0.352668 0.590669 0)
(0.376228 0.540748 0)
(0.386269 0.44331 0)
(0.359372 0.356223 0)
(0.202195 0.262946 0)
(0.105244 0.135474 0)
(0.0892003 0.00839442 0)
(0.0666805 -0.0847774 0)
(0.0431082 -0.130848 0)
(0.0305725 -0.124413 0)
(0.0165971 -0.0551853 0)
(0.0333318 -0.19513 0)
(0.0450064 -0.20089 0)
(0.0557697 -0.17938 0)
(0.0635797 -0.136117 0)
(0.0605502 -0.0903282 0)
(-0.0385653 -0.219055 0)
(-0.158627 0.0203404 0)
(-0.125354 0.118452 0)
(-0.0998818 0.104463 0)
(-0.0843829 0.0717364 0)
(-0.0628864 0.0379427 0)
(-0.0513664 0.0330776 0)
(-0.0462736 0.0497444 0)
(-0.0746823 0.0664066 0)
(-0.136955 0.106055 0)
(-0.19119 0.186616 0)
(-0.168354 0.478843 0)
(-0.054201 0.662176 0)
(0.0834723 0.688286 0)
(0.200816 0.673041 0)
(0.277556 0.599811 0)
(0.338758 0.504976 0)
(0.391937 0.425919 0)
(0.285218 0.349395 0)
(0.23512 0.181041 0)
(0.201795 0.0296406 0)
(0.118556 -0.0759697 0)
(0.0430695 -0.122429 0)
(0.0122351 -0.119131 0)
(0.00259556 -0.0550993 0)
(0.0452938 -0.235123 0)
(0.0542545 -0.226947 0)
(0.0656096 -0.205707 0)
(0.0743626 -0.163401 0)
(0.036358 -0.429853 0)
(-0.0199323 -0.511086 0)
(-0.0181205 -0.475329 0)
(-0.0290921 -0.413611 0)
(-0.0639498 -0.0875522 0)