/*--------------------------------*- C++ -*----------------------------------*\
| =========                 |                                                 |
| \\      /  F ield         | OpenFOAM: The Open Source CFD Toolbox           |
|  \\    /   O peration     | Version:  v1606+                                |
|   \\  /    A nd           | Web:      www.OpenFOAM.com                      |
|    \\/     M anipulation  |                                                 |
\*---------------------------------------------------------------------------*/
FoamFile
{
    version     2.0;
    format      ascii;
    class       volVectorField;
    location    "1.49";
    object      U.particlesMean;
}
// * * * * * * * * * * * * * * * * * * * * * * * * * * * * * * * * * * * * * //

dimensions      [0 1 -1 0 0 0 0];

internalField   nonuniform List<vector> 
6000
(
(-0.00703325 -0.338027 0)
(0.00121952 -0.369976 0)
(0.012983 -0.374 0)
(0.0191335 -0.384879 0)
(0.0207921 -0.399752 0)
(0.0185817 -0.415515 0)
(0.0156067 -0.428754 0)
(0.0111157 -0.435771 0)
(0.00659222 -0.436113 0)
(0.00283287 -0.441043 0)
(-0.000659113 -0.443305 0)
(-0.00288545 -0.446509 0)
(-0.0046346 -0.449259 0)
(-0.00647239 -0.452621 0)
(-0.00837851 -0.453427 0)
(-0.0100605 -0.453053 0)
(-0.0114306 -0.452239 0)
(-0.0128808 -0.452679 0)
(-0.014838 -0.458634 0)
(-0.0178737 -0.456284 0)
(-0.0222186 -0.447179 0)
(-0.0272422 -0.431676 0)
(-0.0318354 -0.419489 0)
(-0.0351394 -0.407927 0)
(-0.0366435 -0.393304 0)
(-0.0353365 -0.378435 0)
(-0.0291148 -0.363306 0)
(-0.0182834 -0.356073 0)
(-0.00343983 -0.357189 0)
(0.00589629 -0.332846 0)
(0.0185909 0.0274196 0)
(0.0147754 0.0467748 0)
(0.0288185 0.0481893 0)
(0.0407655 0.0552449 0)
(0.0472286 0.0641608 0)
(0.044849 0.0706564 0)
(0.0319164 0.0701725 0)
(0.0166219 0.0691417 0)
(0.00573146 0.0674384 0)
(0.0011589 0.065695 0)
(-0.00311424 0.0659494 0)
(-0.00683583 0.0661173 0)
(-0.00967803 0.0619166 0)
(-0.0122942 0.0581931 0)
(-0.0133307 0.0543763 0)
(-0.0130004 0.0540646 0)
(-0.0130354 0.0555398 0)
(-0.0139178 0.0572756 0)
(-0.0170668 0.0646558 0)
(-0.0239759 0.0697674 0)
(-0.0327015 0.0678826 0)
(-0.0413392 0.0687161 0)
(-0.0544651 0.0706761 0)
(-0.0640156 0.0654222 0)
(-0.0652018 0.0572302 0)
(-0.0580995 0.0512989 0)
(-0.043301 0.0440851 0)
(-0.0275902 0.0423923 0)
(-0.0132744 0.0460858 0)
(-0.0181794 0.0296992 0)
(0.00481793 -0.0499236 0)
(0.00802878 -0.0636399 0)
(0.0225646 -0.0678217 0)
(0.0334247 -0.0612278 0)
(0.0428409 -0.0459715 0)
(0.0459413 -0.0264794 0)
(0.0390424 -0.0150754 0)
(0.0254967 -0.0147623 0)
(0.0153454 -0.0246968 0)
(0.00795033 -0.0311486 0)
(0.00108697 -0.0358651 0)
(-0.00480394 -0.0382917 0)
(-0.00974385 -0.0380091 0)
(-0.0137105 -0.0385699 0)
(-0.0146384 -0.0407902 0)
(-0.0148619 -0.0421745 0)
(-0.0161955 -0.042472 0)
(-0.019811 -0.0410495 0)
(-0.0248665 -0.0356495 0)
(-0.0308354 -0.029824 0)
(-0.0400213 -0.0233436 0)
(-0.0493761 -0.0183797 0)
(-0.057799 -0.0186572 0)
(-0.0636447 -0.0294921 0)
(-0.0620394 -0.0467917 0)
(-0.0499373 -0.0624102 0)
(-0.0350886 -0.0701129 0)
(-0.0230372 -0.0705222 0)
(-0.00874852 -0.0624917 0)
(-0.00714183 -0.0500144 0)
(0.0103043 -0.0567756 0)
(0.00958323 -0.0644003 0)
(0.015032 -0.0630557 0)
(0.0194494 -0.0549281 0)
(0.0323702 -0.0411068 0)
(0.0405091 -0.024107 0)
(0.0442711 -0.0100696 0)
(0.0387761 -0.00562655 0)
(0.0301548 -0.00701981 0)
(0.019399 -0.00845249 0)
(0.00930656 -0.00990981 0)
(-0.00144581 -0.00953675 0)
(-0.0110987 -0.0115363 0)
(-0.014833 -0.0195156 0)
(-0.0134452 -0.0272464 0)
(-0.011525 -0.0276711 0)
(-0.0121178 -0.0221338 0)
(-0.0179482 -0.0149659 0)
(-0.0281803 -0.00928573 0)
(-0.0388829 -0.00630737 0)
(-0.0484081 -0.00508625 0)
(-0.0563608 -0.00518893 0)
(-0.0600998 -0.00900839 0)
(-0.0600957 -0.0235109 0)
(-0.0505263 -0.0453999 0)
(-0.0350115 -0.0606085 0)
(-0.023272 -0.0677252 0)
(-0.0172552 -0.0682884 0)
(-0.0120513 -0.0656235 0)
(-0.00969364 -0.0573616 0)
(0.00423325 -0.0727257 0)
(0.00436233 -0.0806507 0)
(0.00756474 -0.0810653 0)
(0.00946665 -0.077974 0)
(0.0199985 -0.0655745 0)
(0.0322196 -0.0479883 0)
(0.0412477 -0.0284448 0)
(0.044413 -0.0184446 0)
(0.0392522 -0.0157318 0)
(0.0288089 -0.0160748 0)
(0.0178774 -0.0169708 0)
(0.0048937 -0.0164217 0)
(-0.00561027 -0.0227244 0)
(-0.00967559 -0.0384063 0)
(-0.00744722 -0.0494372 0)
(-0.00402112 -0.0489107 0)
(-0.00376279 -0.0386868 0)
(-0.00914269 -0.0250737 0)
(-0.0211966 -0.01517 0)
(-0.034016 -0.0139588 0)
(-0.0439767 -0.0151785 0)
(-0.0509328 -0.0168928 0)
(-0.0541739 -0.0246054 0)
(-0.0514649 -0.044793 0)
(-0.041039 -0.0727939 0)
(-0.0264253 -0.0880843 0)
(-0.0140663 -0.0918657 0)
(-0.0100007 -0.0871292 0)
(-0.0062751 -0.082771 0)
(-0.00465507 -0.0736471 0)
(0.00104201 -0.0737644 0)
(-0.000647695 -0.0794794 0)
(0.000172878 -0.0839018 0)
(0.00576329 -0.0863754 0)
(0.0134875 -0.0767072 0)
(0.0263636 -0.0591758 0)
(0.0356761 -0.0395957 0)
(0.0440794 -0.0252823 0)
(0.0414141 -0.0160849 0)
(0.0319514 -0.0150822 0)
(0.0199553 -0.0186875 0)
(0.00669095 -0.0235472 0)
(-0.00176897 -0.0354958 0)
(-0.00395134 -0.0514759 0)
(-0.00167205 -0.0625791 0)
(0.0033524 -0.0612329 0)
(0.00537496 -0.0489819 0)
(0.00154643 -0.0343023 0)
(-0.00630404 -0.0226923 0)
(-0.0181699 -0.0160865 0)
(-0.0315057 -0.0134069 0)
(-0.043625 -0.0162282 0)
(-0.047932 -0.0282669 0)
(-0.0436912 -0.0532196 0)
(-0.033018 -0.081651 0)
(-0.0191867 -0.0966364 0)
(-0.00936588 -0.0982751 0)
(-0.00288416 -0.090252 0)
(-0.00172564 -0.0817986 0)
(-0.00195808 -0.074827 0)
(-0.00201578 -0.0652442 0)
(-0.00392301 -0.078237 0)
(-0.00258373 -0.0877531 0)
(0.00302725 -0.0926713 0)
(0.013195 -0.0891376 0)
(0.0254021 -0.0679452 0)
(0.0326682 -0.0456214 0)
(0.0421641 -0.0305899 0)
(0.0415018 -0.0156433 0)
(0.0302315 -0.0133369 0)
(0.0187648 -0.018922 0)
(0.00798727 -0.0252705 0)
(0.00277237 -0.0386551 0)
(0.00157438 -0.0578608 0)
(0.00348871 -0.0707353 0)
(0.00815398 -0.0692789 0)
(0.0104394 -0.0553243 0)
(0.00761366 -0.037595 0)
(0.00107145 -0.0240579 0)
(-0.00822957 -0.0169023 0)
(-0.01994 -0.0111031 0)
(-0.0319558 -0.0131201 0)
(-0.0376147 -0.0300475 0)
(-0.033291 -0.0578822 0)
(-0.0265641 -0.0878686 0)
(-0.0164535 -0.102217 0)
(-0.00730197 -0.103816 0)
(-0.00106492 -0.0947775 0)
(0.000953154 -0.0826411 0)
(0.00151021 -0.0683096 0)
(-0.00145863 -0.0567427 0)
(-0.00273731 -0.0712217 0)
(-0.00165153 -0.0829202 0)
(0.00594274 -0.0929098 0)
(0.0149428 -0.0917355 0)
(0.0236581 -0.073516 0)
(0.0273172 -0.0466508 0)
(0.0315249 -0.0309752 0)
(0.0334482 -0.0129708 0)
(0.0253815 -0.00594082 0)
(0.0129001 -0.0122166 0)
(0.00658926 -0.0223409 0)
(0.00651463 -0.0381273 0)
(0.00733753 -0.0598143 0)
(0.00821056 -0.0733004 0)
(0.0101317 -0.0722578 0)
(0.0125495 -0.0593697 0)
(0.012241 -0.0389497 0)
(0.0095673 -0.0244463 0)
(0.00258353 -0.0115165 0)
(-0.00878418 -0.00329571 0)
(-0.0183207 -0.00751862 0)
(-0.0215649 -0.0272559 0)
(-0.0209621 -0.055835 0)
(-0.0195042 -0.0868958 0)
(-0.0162001 -0.102459 0)
(-0.0125289 -0.102782 0)
(-0.00421368 -0.0927706 0)
(-0.00078745 -0.0783082 0)
(0.000794376 -0.0613871 0)
(-0.00125129 -0.0524153 0)
(0.00164912 -0.0635503 0)
(0.00362342 -0.0777848 0)
(0.0100231 -0.0908811 0)
(0.0144121 -0.0906081 0)
(0.0192203 -0.0752648 0)
(0.01754 -0.0440889 0)
(0.0177658 -0.0233812 0)
(0.0227772 -0.00744481 0)
(0.0215038 0.0023597 0)
(0.00737035 0.00274041 0)
(0.00247618 -0.0128358 0)
(0.00804674 -0.035205 0)
(0.0118273 -0.057285 0)
(0.0124879 -0.0703695 0)
(0.0114214 -0.0698381 0)
(0.013241 -0.0574911 0)
(0.0131561 -0.0333269 0)
(0.0137064 -0.0171818 0)
(0.0108391 0.00175402 0)
(0.00146698 0.011439 0)
(-0.00798446 3.03901e-05 0)
(-0.00521809 -0.02352 0)
(-0.00388122 -0.0529328 0)
(-0.00793064 -0.0825405 0)
(-0.0151476 -0.0998329 0)
(-0.0168864 -0.100698 0)
(-0.0107041 -0.0897932 0)
(-0.00492133 -0.0742016 0)
(0.000646471 -0.0607876 0)
(0.00258931 -0.0497356 0)
(0.00918072 -0.057758 0)
(0.013246 -0.0705139 0)
(0.015851 -0.0855742 0)
(0.01456 -0.0864822 0)
(0.0131784 -0.0685091 0)
(0.00813186 -0.0362967 0)
(0.00792919 -0.0161873 0)
(0.0128629 0.00062638 0)
(0.0169876 0.0132689 0)
(0.00954765 0.0110712 0)
(0.00960113 -0.00392388 0)
(0.0131105 -0.0285326 0)
(0.0136985 -0.0522194 0)
(0.014025 -0.0680051 0)
(0.0111458 -0.0674788 0)
(0.0120333 -0.0528421 0)
(0.0111747 -0.0268999 0)
(0.0181851 -0.00589818 0)
(0.015829 0.0148174 0)
(0.00756661 0.0199272 0)
(0.007147 0.00750752 0)
(0.00984342 -0.0205057 0)
(0.0131884 -0.0474885 0)
(0.00730543 -0.0722441 0)
(-0.00869352 -0.0915694 0)
(-0.01858 -0.0952929 0)
(-0.0160261 -0.084202 0)
(-0.0100652 -0.0694406 0)
(-0.00156942 -0.0585626 0)
(0.00386486 -0.0510063 0)
(0.0124753 -0.0584662 0)
(0.0199816 -0.0707217 0)
(0.024005 -0.083678 0)
(0.0129124 -0.083657 0)
(0.00577574 -0.0601099 0)
(0.000602935 -0.0287651 0)
(0.00292179 -0.00970601 0)
(0.00436374 0.00693423 0)
(0.0114021 0.0246246 0)
(0.00891614 0.0221457 0)
(0.00769619 0.00435605 0)
(0.0146666 -0.0267064 0)
(0.0213141 -0.0502808 0)
(0.0177171 -0.062746 0)
(0.0101773 -0.0628064 0)
(0.0103322 -0.047739 0)
(0.011619 -0.022879 0)
(0.0220506 0.00457839 0)
(0.0162219 0.0192563 0)
(0.0159518 0.0240905 0)
(0.0226676 0.00977682 0)
(0.022842 -0.0133944 0)
(0.027062 -0.038154 0)
(0.0211217 -0.0603775 0)
(0.0024916 -0.0821135 0)
(-0.0158096 -0.091627 0)
(-0.0172773 -0.082289 0)
(-0.0123469 -0.0699574 0)
(-0.0031572 -0.0581716 0)
(0.00476567 -0.054091 0)
(0.0125485 -0.0629815 0)
(0.020353 -0.0738282 0)
(0.0252675 -0.0843464 0)
(0.01213 -0.0812002 0)
(-0.003163 -0.0600603 0)
(-0.0060588 -0.0300963 0)
(-0.00474251 -0.00655996 0)
(-0.000305113 0.00996666 0)
(0.00636719 0.0270402 0)
(0.00996307 0.0249356 0)
(0.00650434 0.00583326 0)
(0.0122026 -0.0266237 0)
(0.0197006 -0.0489694 0)
(0.0189112 -0.0585518 0)
(0.0119626 -0.0549446 0)
(0.00959304 -0.0398239 0)
(0.0118979 -0.018616 0)
(0.023356 0.00830569 0)
(0.0186066 0.0242412 0)
(0.0187845 0.0276971 0)
(0.0273957 0.0112909 0)
(0.0301763 -0.0122899 0)
(0.030983 -0.0344574 0)
(0.027975 -0.0538293 0)
(0.0120314 -0.0744151 0)
(-0.00814285 -0.0866675 0)
(-0.0121853 -0.0814735 0)
(-0.00893974 -0.0740613 0)
(-0.0022952 -0.0610575 0)
(0.00356665 -0.0575757 0)
(0.00927669 -0.0687527 0)
(0.0163304 -0.0790533 0)
(0.0188455 -0.0872072 0)
(0.0046403 -0.0754226 0)
(-0.0127702 -0.0527545 0)
(-0.0141862 -0.0233826 0)
(-0.00863393 -0.000519657 0)
(-0.00507778 0.0158308 0)
(0.00191706 0.0336574 0)
(0.0055486 0.0316053 0)
(0.00408093 0.00762023 0)
(0.00873226 -0.023099 0)
(0.0176133 -0.0451953 0)
(0.0166569 -0.0528813 0)
(0.0103165 -0.0499875 0)
(0.00999797 -0.038871 0)
(0.018628 -0.0202768 0)
(0.0257271 0.0129601 0)
(0.0196319 0.0321678 0)
(0.021806 0.0335565 0)
(0.034145 0.0139031 0)
(0.0376702 -0.00967366 0)
(0.0366634 -0.0333232 0)
(0.0349899 -0.0520606 0)
(0.0159698 -0.0680614 0)
(-0.00060059 -0.0809495 0)
(-0.00674935 -0.0813782 0)
(-0.00487149 -0.0753483 0)
(-0.00185208 -0.0613438 0)
(0.00276724 -0.0591577 0)
(0.00589308 -0.0717875 0)
(0.0108296 -0.0803607 0)
(0.00829787 -0.0848983 0)
(-0.00586482 -0.0651152 0)
(-0.0188215 -0.0446263 0)
(-0.0148195 -0.0229725 0)
(-0.0102952 -0.000535572 0)
(-0.00814281 0.0141655 0)
(-0.000488455 0.03197 0)
(0.00909319 0.0308221 0)
(0.0102932 0.00711187 0)
(0.0113889 -0.024637 0)
(0.0209975 -0.0431933 0)
(0.017676 -0.0494457 0)
(0.00787624 -0.0459974 0)
(0.00490778 -0.0378318 0)
(0.0140843 -0.0229717 0)
(0.0185624 0.0147971 0)
(0.0183345 0.0380519 0)
(0.0227999 0.0368363 0)
(0.033945 0.0159102 0)
(0.0404296 -0.00945228 0)
(0.040728 -0.0298627 0)
(0.0366261 -0.0476264 0)
(0.0200567 -0.0638694 0)
(0.00549644 -0.0735467 0)
(-0.00104308 -0.0790434 0)
(-0.0018792 -0.0761573 0)
(-0.000841054 -0.0608691 0)
(0.00254156 -0.0585578 0)
(0.00418997 -0.072496 0)
(0.00691796 -0.0774504 0)
(-0.000124633 -0.0817313 0)
(-0.019179 -0.0554707 0)
(-0.0215866 -0.0398003 0)
(-0.0159302 -0.0209803 0)
(-0.0142277 -0.000715155 0)
(-0.0110704 0.0150586 0)
(-0.00216259 0.031432 0)
(0.0105489 0.0287657 0)
(0.0178291 0.00261324 0)
(0.0200047 -0.0271191 0)
(0.027375 -0.0404133 0)
(0.0232384 -0.0468203 0)
(0.0134855 -0.0440182 0)
(0.00508336 -0.0374305 0)
(0.00812513 -0.0277099 0)
(0.0088297 0.0187403 0)
(0.0141191 0.0444005 0)
(0.0182263 0.0435977 0)
(0.0259943 0.0207637 0)
(0.0338428 -0.00849201 0)
(0.0347007 -0.0272223 0)
(0.0348907 -0.0446538 0)
(0.0225648 -0.0609089 0)
(0.0123889 -0.0702622 0)
(0.00551683 -0.0740574 0)
(0.00203505 -0.0740461 0)
(0.000131743 -0.0583483 0)
(0.00150358 -0.0561018 0)
(0.00205698 -0.0711879 0)
(0.0047986 -0.0762426 0)
(-0.001803 -0.0739448 0)
(-0.0175255 -0.0515951 0)
(-0.0184021 -0.0375385 0)
(-0.0210864 -0.019264 0)
(-0.019155 -0.000674363 0)
(-0.0126586 0.0162251 0)
(-0.00186841 0.0277692 0)
(0.0138189 0.0242149 0)
(0.025816 -0.00299768 0)
(0.0234103 -0.0327166 0)
(0.0285748 -0.0452156 0)
(0.0328296 -0.0473334 0)
(0.0242994 -0.0449222 0)
(0.0172399 -0.0398338 0)
(0.0089822 -0.0312274 0)
(0.00380454 0.0134704 0)
(0.0115358 0.0432475 0)
(0.0129454 0.0458791 0)
(0.0195563 0.0241637 0)
(0.0219304 -0.005483 0)
(0.0210416 -0.0249949 0)
(0.028481 -0.0445739 0)
(0.0228588 -0.0580937 0)
(0.0177401 -0.0612056 0)
(0.00885692 -0.0689883 0)
(0.00497093 -0.0677425 0)
(0.00122065 -0.052502 0)
(0.000497042 -0.0529318 0)
(0.000332275 -0.0682509 0)
(0.000628112 -0.074876 0)
(-0.00386637 -0.0704278 0)
(-0.0165695 -0.0523744 0)
(-0.0134145 -0.0413765 0)
(-0.0171358 -0.0258533 0)
(-0.0237656 -0.00319315 0)
(-0.0145455 0.0178342 0)
(-0.000812294 0.0260425 0)
(0.0158734 0.023291 0)
(0.0308847 0.00204497 0)
(0.0418803 -0.0347534 0)
(0.0310735 -0.0411922 0)
(0.0368197 -0.0420851 0)
(0.0326363 -0.0437929 0)
(0.0314253 -0.0399812 0)
(0.0146033 -0.0355316 0)
(0.00472649 0.00610954 0)
(0.007662 0.0439403 0)
(0.012588 0.0465547 0)
(0.0202418 0.0224731 0)
(0.0180407 -0.00511725 0)
(0.0189735 -0.0262639 0)
(0.0196886 -0.0520775 0)
(0.0145152 -0.0594039 0)
(0.010406 -0.05439 0)
(0.0061227 -0.0582646 0)
(0.0018754 -0.0615059 0)
(-0.000448793 -0.045044 0)
(0.00160011 -0.0543807 0)
(0.00333638 -0.0705804 0)
(0.00424583 -0.071965 0)
(-0.00144048 -0.0643853 0)
(-0.0161842 -0.0551616 0)
(-0.0160886 -0.0518841 0)
(-0.0206204 -0.0345074 0)
(-0.0222789 -0.0118116 0)
(-0.0142129 0.015664 0)
(-0.00114422 0.0210056 0)
(0.017681 0.0165333 0)
(0.0349878 -0.0004019 0)
(0.0498724 -0.0300694 0)
(0.0449868 -0.0441999 0)
(0.044613 -0.0473751 0)
(0.040876 -0.0430807 0)
(0.0423798 -0.040344 0)
(0.0245815 -0.0382991 0)
(0.00465192 0.00531061 0)
(0.00903997 0.0348972 0)
(0.0153497 0.0381692 0)
(0.0230231 0.0174738 0)
(0.0233635 -0.00749161 0)
(0.0212291 -0.0323208 0)
(0.0121868 -0.054588 0)
(0.003959 -0.0540107 0)
(-0.00253244 -0.0460409 0)
(-0.00192134 -0.050549 0)
(-0.00320353 -0.0575557 0)
(-0.00461502 -0.0407705 0)
(0.00321459 -0.0514809 0)
(0.00588764 -0.0819189 0)
(0.00182403 -0.0769749 0)
(0.000684572 -0.0610772 0)
(-0.0127019 -0.0569614 0)
(-0.0141373 -0.0609222 0)
(-0.021787 -0.0528485 0)
(-0.0233073 -0.0267369 0)
(-0.0143512 -0.000524369 0)
(-0.00160193 0.00291546 0)
(0.0185754 -0.00157373 0)
(0.0378068 -0.0166708 0)
(0.0507752 -0.0436935 0)
(0.0564069 -0.0584684 0)
(0.0557639 -0.0621819 0)
(0.0478541 -0.0499401 0)
(0.0450549 -0.0465013 0)
(0.0304559 -0.0334 0)
(0.00696337 0.00043836 0)
(0.0164639 0.0207287 0)
(0.0216096 0.0200251 0)
(0.0312667 0.00627483 0)
(0.0289505 -0.0228289 0)
(0.0175512 -0.0503407 0)
(0.0011587 -0.0586495 0)
(-0.00762874 -0.0500913 0)
(-0.0132052 -0.0476557 0)
(-0.00787888 -0.0561546 0)
(-0.00853766 -0.056983 0)
(-0.0088971 -0.0396012 0)
(0.00434897 -0.0449262 0)
(0.00791491 -0.0781033 0)
(-0.000721217 -0.089098 0)
(-0.00630448 -0.0771754 0)
(-0.0160866 -0.0737369 0)
(-0.0224085 -0.0805037 0)
(-0.0308612 -0.0760594 0)
(-0.0282166 -0.0552899 0)
(-0.0133695 -0.0329987 0)
(0.00213306 -0.0303872 0)
(0.0222651 -0.0378874 0)
(0.0379561 -0.0521756 0)
(0.0528319 -0.0785093 0)
(0.0567596 -0.0866043 0)
(0.0576391 -0.0797941 0)
(0.0513879 -0.0626606 0)
(0.0431447 -0.0480978 0)
(0.03054 -0.0311715 0)
(0.0153226 -0.00484652 0)
(0.0259623 0.0113819 0)
(0.0277953 0.0103926 0)
(0.0353466 -0.0071348 0)
(0.02697 -0.0482657 0)
(0.0133291 -0.0682922 0)
(0.000988865 -0.0702078 0)
(-0.00854309 -0.0629481 0)
(-0.0133045 -0.0633198 0)
(-0.0113066 -0.0726913 0)
(-0.0145062 -0.0669497 0)
(-0.0151014 -0.0484754 0)
(0.00688652 -0.0524352 0)
(0.00588001 -0.0836523 0)
(-0.00739457 -0.10151 0)
(-0.0159029 -0.0964428 0)
(-0.0212916 -0.0932506 0)
(-0.0257125 -0.0880539 0)
(-0.0323342 -0.0881448 0)
(-0.0303972 -0.0896462 0)
(-0.0142065 -0.0730807 0)
(0.00281235 -0.0639123 0)
(0.0209199 -0.066271 0)
(0.0375488 -0.0838901 0)
(0.0462172 -0.107786 0)
(0.0464377 -0.112326 0)
(0.0485643 -0.0961227 0)
(0.0442807 -0.0759869 0)
(0.0350481 -0.0474113 0)
(0.0261722 -0.0293155 0)
(0.0170681 -0.0149308 0)
(0.0237708 0.00152974 0)
(0.0310538 -0.00709283 0)
(0.0242915 -0.0276587 0)
(0.0224733 -0.0470696 0)
(0.0116182 -0.0648055 0)
(0.00174547 -0.0707938 0)
(-0.00475777 -0.0797309 0)
(-0.00582593 -0.0891847 0)
(-0.00802019 -0.0951833 0)
(-0.0147789 -0.0901332 0)
(-0.0155787 -0.0726631 0)
(0.00986478 -0.0940851 0)
(0.0009735 -0.11364 0)
(-0.0176227 -0.105349 0)
(-0.0253108 -0.0850462 0)
(-0.0260173 -0.0780865 0)
(-0.0267116 -0.0711384 0)
(-0.0254473 -0.0821857 0)
(-0.0251821 -0.101127 0)
(-0.0217444 -0.102942 0)
(-0.00565865 -0.085593 0)
(0.0126937 -0.0782907 0)
(0.0279527 -0.0909598 0)
(0.0365354 -0.116092 0)
(0.0406802 -0.12102 0)
(0.0460359 -0.10378 0)
(0.0394231 -0.0819913 0)
(0.0273793 -0.044617 0)
(0.021115 -0.0229603 0)
(0.0177833 -0.0148535 0)
(0.0215115 -0.00790121 0)
(0.0204634 -0.0159285 0)
(0.014586 -0.0277447 0)
(0.0136817 -0.0405726 0)
(0.00551574 -0.0599736 0)
(0.00234553 -0.0710853 0)
(0.00231417 -0.0809203 0)
(0.00296153 -0.0927535 0)
(0.00186785 -0.105735 0)
(-0.00353938 -0.117834 0)
(-0.0101929 -0.109421 0)
(0.00240465 -0.111312 0)
(-0.00689001 -0.114217 0)
(-0.0145116 -0.0961593 0)
(-0.0184099 -0.0775663 0)
(-0.0201482 -0.0684909 0)
(-0.0181822 -0.0646044 0)
(-0.0149268 -0.0756135 0)
(-0.0161221 -0.0923413 0)
(-0.0199803 -0.101143 0)
(-0.0192875 -0.099657 0)
(0.00181843 -0.0898644 0)
(0.0193072 -0.0944119 0)
(0.0302922 -0.113839 0)
(0.0356139 -0.113641 0)
(0.0386168 -0.0975387 0)
(0.0303578 -0.069619 0)
(0.0200357 -0.0410247 0)
(0.0180285 -0.017893 0)
(0.0198862 -0.0146329 0)
(0.0181501 -0.0178672 0)
(0.0139997 -0.0179004 0)
(0.00932877 -0.024711 0)
(0.0075071 -0.0347074 0)
(0.00335671 -0.0549835 0)
(0.00159373 -0.0715642 0)
(0.00438045 -0.0789635 0)
(0.00530743 -0.0897481 0)
(0.00553204 -0.103323 0)
(0.00454428 -0.117827 0)
(-0.00345948 -0.121224 0)
(-0.00203488 -0.105998 0)
(-0.0100406 -0.10352 0)
(-0.0133094 -0.0867819 0)
(-0.016685 -0.0696432 0)
(-0.0136717 -0.0636742 0)
(-0.00919579 -0.0629534 0)
(-0.00506847 -0.0700328 0)
(-0.00498238 -0.0834517 0)
(-0.00958232 -0.0925245 0)
(-0.0144481 -0.0937589 0)
(-0.00715718 -0.0889042 0)
(0.0118584 -0.0916647 0)
(0.0206622 -0.106368 0)
(0.0242652 -0.105087 0)
(0.0272042 -0.0879203 0)
(0.0222266 -0.0543914 0)
(0.0127407 -0.0308942 0)
(0.0172891 -0.0155365 0)
(0.0249254 -0.012362 0)
(0.0183352 -0.0195742 0)
(0.00955747 -0.0174914 0)
(0.00357881 -0.0234715 0)
(0.00131018 -0.0320586 0)
(-0.000968852 -0.0544307 0)
(-0.00487295 -0.0727156 0)
(0.00140457 -0.0749509 0)
(0.00659623 -0.0825533 0)
(0.00657306 -0.09622 0)
(0.00552691 -0.108296 0)
(0.000760737 -0.113355 0)
(-0.000922108 -0.0928141 0)
(-0.00702221 -0.0915653 0)
(-0.0127304 -0.0769525 0)
(-0.0116486 -0.0638069 0)
(-0.00380689 -0.0614159 0)
(0.00245625 -0.0639468 0)
(0.00585268 -0.0670052 0)
(0.00267794 -0.0771158 0)
(-0.00254379 -0.0844563 0)
(-0.00549676 -0.0880077 0)
(-0.0096978 -0.091985 0)
(-0.00486284 -0.0942166 0)
(0.00586646 -0.0992822 0)
(0.0126861 -0.0939296 0)
(0.0156226 -0.0735966 0)
(0.008954 -0.0446855 0)
(0.00499073 -0.021875 0)
(0.0151817 -0.0120028 0)
(0.0261474 -0.0117438 0)
(0.0214312 -0.0163533 0)
(0.0104181 -0.0162821 0)
(0.00195403 -0.0199954 0)
(-0.000577696 -0.0295889 0)
(-0.00233966 -0.0478422 0)
(-0.005265 -0.068205 0)
(-0.00485106 -0.0750867 0)
(0.00360212 -0.0777522 0)
(0.00684608 -0.0876675 0)
(0.00222468 -0.0986582 0)
(0.00218978 -0.101822 0)
(-0.00294968 -0.0847046 0)
(-0.00836508 -0.0767958 0)
(-0.00940475 -0.0667084 0)
(-0.000477741 -0.0630917 0)
(0.00870959 -0.0641741 0)
(0.0116289 -0.0635583 0)
(0.0146025 -0.0654946 0)
(0.0133509 -0.0680505 0)
(0.00467399 -0.0783796 0)
(-0.00127974 -0.0811845 0)
(-0.00629255 -0.0826331 0)
(-0.0103912 -0.0869944 0)
(-0.0065061 -0.0933114 0)
(0.0021241 -0.086117 0)
(0.00251595 -0.0592609 0)
(-0.00211629 -0.0369029 0)
(0.00126871 -0.0157263 0)
(0.0135725 -0.00914558 0)
(0.0252665 -0.0106982 0)
(0.0246024 -0.0142291 0)
(0.016188 -0.0160435 0)
(0.00438412 -0.0193915 0)
(0.00243501 -0.0267524 0)
(-0.00198396 -0.0402795 0)
(-0.00459407 -0.0571457 0)
(-0.0105537 -0.0731966 0)
(-0.00406327 -0.0749738 0)
(0.0053296 -0.0793199 0)
(0.00318217 -0.085157 0)
(0.00237807 -0.0891454 0)
(-0.010203 -0.0733574 0)
(-0.00343725 -0.0661234 0)
(0.000645289 -0.0658629 0)
(0.0148722 -0.0671144 0)
(0.0206911 -0.0648241 0)
(0.0221958 -0.0628986 0)
(0.0214178 -0.0644649 0)
(0.0206854 -0.0572006 0)
(0.00969383 -0.0706017 0)
(0.00259238 -0.0776422 0)
(-0.00573715 -0.0772054 0)
(-0.0116925 -0.0804697 0)
(-0.0136183 -0.0857691 0)
(-0.00950543 -0.0786717 0)
(-0.00666073 -0.0549634 0)
(-0.00664004 -0.0368786 0)
(0.00155112 -0.0121447 0)
(0.0141901 -0.00690078 0)
(0.0252509 -0.0100961 0)
(0.0258706 -0.013044 0)
(0.0227262 -0.0153006 0)
(0.0136892 -0.0151364 0)
(0.00703828 -0.0214546 0)
(-0.00406995 -0.0319933 0)
(-0.0021835 -0.0413758 0)
(-0.00637567 -0.0618985 0)
(-0.0109412 -0.0754015 0)
(-0.00188965 -0.0777221 0)
(0.00047429 -0.0741662 0)
(0.00552084 -0.0759037 0)
(-0.0132415 -0.05631 0)
(-0.00519124 -0.0568093 0)
(0.00534723 -0.0670957 0)
(0.0183684 -0.0659741 0)
(0.0233941 -0.0604009 0)
(0.0237238 -0.0574079 0)
(0.0232074 -0.0597351 0)
(0.0253863 -0.0517719 0)
(0.0162081 -0.0574265 0)
(0.00277889 -0.0703275 0)
(-0.00745714 -0.0720746 0)
(-0.0155258 -0.0748343 0)
(-0.0173742 -0.0768675 0)
(-0.0171567 -0.0752689 0)
(-0.0117029 -0.0537786 0)
(-0.0108725 -0.0392023 0)
(0.00189702 -0.0103392 0)
(0.0155492 -0.00638425 0)
(0.02439 -0.0112499 0)
(0.0265924 -0.0108997 0)
(0.0241106 -0.0115377 0)
(0.022229 -0.0115866 0)
(0.0125378 -0.015859 0)
(-0.00552847 -0.0233363 0)
(-0.00270014 -0.0315483 0)
(-0.00372254 -0.0463518 0)
(-0.00896071 -0.0657179 0)
(-0.00726364 -0.0763868 0)
(-0.00350551 -0.0701828 0)
(0.00539839 -0.0615098 0)
(-0.00491975 -0.0375633 0)
(-0.000148751 -0.0528924 0)
(0.00619464 -0.0616433 0)
(0.0150105 -0.0625607 0)
(0.0184245 -0.0536654 0)
(0.017729 -0.0500158 0)
(0.018028 -0.0539946 0)
(0.0186624 -0.0522829 0)
(0.0161495 -0.0500372 0)
(0.00449783 -0.064268 0)
(-0.0109907 -0.0676085 0)
(-0.0200786 -0.0716024 0)
(-0.022003 -0.0707633 0)
(-0.0215557 -0.0709916 0)
(-0.0173577 -0.0507375 0)
(-0.0100764 -0.0388905 0)
(0.00244692 -0.0103423 0)
(0.0159368 -0.00900957 0)
(0.0228889 -0.0123477 0)
(0.0243561 -0.00931856 0)
(0.0225762 -0.00716522 0)
(0.0217316 -0.00676947 0)
(0.0179436 -0.0112351 0)
(-0.00166201 -0.0170481 0)
(-0.00315208 -0.0261721 0)
(-0.00344647 -0.0382502 0)
(-0.00851089 -0.0590929 0)
(-0.00773328 -0.0739824 0)
(-0.00763061 -0.0737818 0)
(-0.00220467 -0.0542697 0)
(0.00292043 -0.0361799 0)
(0.00378662 -0.0508651 0)
(0.00741732 -0.0558141 0)
(0.0120261 -0.0545376 0)
(0.0140966 -0.0464366 0)
(0.014177 -0.0438655 0)
(0.0133029 -0.0475649 0)
(0.0100822 -0.0491153 0)
(0.00768287 -0.0439151 0)
(0.000421106 -0.0577984 0)
(-0.0139522 -0.0638715 0)
(-0.0251731 -0.0674287 0)
(-0.0269976 -0.067506 0)
(-0.024175 -0.0690616 0)
(-0.0213208 -0.0546593 0)
(-0.00940233 -0.0397161 0)
(0.00219261 -0.0143066 0)
(0.0147726 -0.0125711 0)
(0.0196631 -0.0135435 0)
(0.0198026 -0.00897056 0)
(0.0200255 -0.0038753 0)
(0.0172343 -0.00256461 0)
(0.0185576 -0.0071483 0)
(0.000592523 -0.0154033 0)
(-0.00325537 -0.0233831 0)
(-0.00393791 -0.0345323 0)
(-0.00759463 -0.0532847 0)
(-0.00948209 -0.07361 0)
(-0.00960729 -0.0781624 0)
(-0.0075333 -0.0633512 0)
(0.00758948 -0.0399215 0)
(0.00715656 -0.0540037 0)
(0.00732578 -0.0558243 0)
(0.010023 -0.0507178 0)
(0.0130358 -0.0432431 0)
(0.0134689 -0.0402137 0)
(0.0115264 -0.0399389 0)
(0.00287922 -0.0460439 0)
(-0.00289 -0.0449213 0)
(-0.00733866 -0.0568434 0)
(-0.0161069 -0.0683293 0)
(-0.030804 -0.0667022 0)
(-0.0320579 -0.0665452 0)
(-0.0288434 -0.0708823 0)
(-0.0262062 -0.0634388 0)
(-0.0144745 -0.0401906 0)
(-0.000694085 -0.01785 0)
(0.0111658 -0.0170075 0)
(0.0159015 -0.0149964 0)
(0.0142833 -0.0110417 0)
(0.0133805 -0.0116328 0)
(0.0124563 -0.00158658 0)
(0.0127827 -0.00239178 0)
(0.00275806 -0.0100133 0)
(-0.00345077 -0.0215236 0)
(-0.00563622 -0.033189 0)
(-0.00929911 -0.0532061 0)
(-0.0130596 -0.0751441 0)
(-0.0106876 -0.0842658 0)
(-0.0100317 -0.0707796 0)
(0.00969189 -0.0506113 0)
(0.00926883 -0.0596999 0)
(0.00819169 -0.0562663 0)
(0.0100427 -0.0486624 0)
(0.010726 -0.0414564 0)
(0.0110541 -0.0382872 0)
(0.00665441 -0.0382998 0)
(-0.00193505 -0.0423261 0)
(-0.0107863 -0.0468055 0)
(-0.0157976 -0.0560162 0)
(-0.0189192 -0.0721856 0)
(-0.0328865 -0.0774228 0)
(-0.0376477 -0.0688415 0)
(-0.032599 -0.0737912 0)
(-0.0304552 -0.069827 0)
(-0.0235202 -0.0480714 0)
(-0.0048827 -0.026542 0)
(0.00912989 -0.0240858 0)
(0.01517 -0.0244181 0)
(0.0107244 -0.0292708 0)
(0.00704548 -0.0117565 0)
(0.00933196 0.00496793 0)
(0.00944675 0.00562075 0)
(0.00997558 -0.00262399 0)
(0.000268534 -0.0154201 0)
(-0.0055344 -0.0307402 0)
(-0.0102636 -0.0521444 0)
(-0.0138892 -0.0759999 0)
(-0.0114627 -0.0888472 0)
(-0.0109708 -0.0804949 0)
(0.00975059 -0.059776 0)
(0.00960225 -0.0616236 0)
(0.00816877 -0.0542641 0)
(0.00813419 -0.0462224 0)
(0.00746043 -0.0403952 0)
(0.007789 -0.0353825 0)
(0.00110805 -0.0320898 0)
(-0.00941253 -0.0362737 0)
(-0.0200095 -0.0446099 0)
(-0.0236198 -0.055721 0)
(-0.0234971 -0.0729063 0)
(-0.0331423 -0.0818072 0)
(-0.0413021 -0.0826456 0)
(-0.0374645 -0.0771606 0)
(-0.0340861 -0.0733361 0)
(-0.0263433 -0.0571828 0)
(-0.0111121 -0.039748 0)
(0.00742156 -0.0412005 0)
(0.0104671 -0.0500186 0)
(0.00466221 -0.0349697 0)
(0.00462062 -0.00728192 0)
(0.00756795 0.0148377 0)
(0.00849382 0.0187651 0)
(0.0120039 0.00767356 0)
(0.012278 -0.00611419 0)
(-0.000687786 -0.0236066 0)
(-0.0094565 -0.0500791 0)
(-0.0122573 -0.0762215 0)
(-0.0112267 -0.0928775 0)
(-0.0113432 -0.088494 0)
(0.0102621 -0.0663617 0)
(0.0100663 -0.0629918 0)
(0.00833598 -0.0551674 0)
(0.00589946 -0.0449939 0)
(0.00182482 -0.0393144 0)
(-0.000872656 -0.0297717 0)
(-0.00720187 -0.0224281 0)
(-0.0172161 -0.0273358 0)
(-0.0258258 -0.0411977 0)
(-0.0296174 -0.0530852 0)
(-0.0260331 -0.0726115 0)
(-0.0339913 -0.0806091 0)
(-0.0411132 -0.0853733 0)
(-0.0400616 -0.0832611 0)
(-0.0363825 -0.0771542 0)
(-0.0273723 -0.0640318 0)
(-0.0135404 -0.0540796 0)
(-0.00267586 -0.0865665 0)
(-0.00274533 -0.0695152 0)
(-0.000401048 -0.0362227 0)
(0.000541523 -0.00418693 0)
(0.00623867 0.0229227 0)
(0.00686313 0.0291279 0)
(0.0132496 0.0196316 0)
(0.0184137 0.00226001 0)
(0.0120674 -0.0137793 0)
(-0.00280481 -0.0450542 0)
(-0.0113088 -0.077903 0)
(-0.0108751 -0.095839 0)
(-0.0105003 -0.0956681 0)
(0.012868 -0.0750767 0)
(0.0101111 -0.0679688 0)
(0.00919453 -0.056466 0)
(0.00682142 -0.0429427 0)
(-0.00485874 -0.0363032 0)
(-0.0127675 -0.0272078 0)
(-0.0166053 -0.0207007 0)
(-0.0208463 -0.0280562 0)
(-0.0340136 -0.0467129 0)
(-0.0355609 -0.0547566 0)
(-0.028763 -0.0745739 0)
(-0.0331409 -0.0798847 0)
(-0.0404773 -0.0861271 0)
(-0.0404723 -0.0852092 0)
(-0.0385622 -0.080207 0)
(-0.0296111 -0.0705988 0)
(-0.0190065 -0.0772181 0)
(-0.0132007 -0.103064 0)
(-0.0156407 -0.0797116 0)
(-0.0087885 -0.0421838 0)
(-0.00641166 -0.00307208 0)
(0.00112164 0.0273222 0)
(0.00472588 0.0373377 0)
(0.0149937 0.0289467 0)
(0.0208637 0.0144308 0)
(0.0178392 -0.00842008 0)
(0.0116131 -0.0361945 0)
(-0.00971304 -0.0733816 0)
(-0.0114663 -0.0938137 0)
(-0.00981913 -0.101405 0)
(0.0128067 -0.0862917 0)
(0.00894143 -0.0732678 0)
(0.00880195 -0.0558649 0)
(0.00364337 -0.0356035 0)
(-0.0134665 -0.0282966 0)
(-0.0167584 -0.0234757 0)
(-0.018126 -0.0362288 0)
(-0.021784 -0.0643807 0)
(-0.0367782 -0.086078 0)
(-0.0406636 -0.0814247 0)
(-0.0355693 -0.0834181 0)
(-0.031228 -0.0810884 0)
(-0.0376563 -0.086948 0)
(-0.0393369 -0.0864916 0)
(-0.0391286 -0.0818713 0)
(-0.032707 -0.0750815 0)
(-0.0231566 -0.0937769 0)
(-0.0243263 -0.11949 0)
(-0.0270626 -0.0830205 0)
(-0.0171036 -0.0528761 0)
(-0.0128697 -0.00609221 0)
(-0.00433391 0.0258529 0)
(0.0041934 0.0372203 0)
(0.0183007 0.0377012 0)
(0.0243628 0.0269772 0)
(0.0190419 -0.00135384 0)
(0.00382616 -0.0425466 0)
(-0.011098 -0.0718216 0)
(-0.0108604 -0.092093 0)
(-0.00898277 -0.102999 0)
(0.00730828 -0.1023 0)
(0.00795626 -0.0778489 0)
(0.00399338 -0.0532572 0)
(-0.00272642 -0.0279065 0)
(-0.0127395 -0.0252803 0)
(-0.0120784 -0.0407588 0)
(-0.0245959 -0.0626666 0)
(-0.0202244 -0.100775 0)
(-0.0240722 -0.12357 0)
(-0.0343065 -0.11642 0)
(-0.0339728 -0.0978735 0)
(-0.0271243 -0.0856804 0)
(-0.0318657 -0.087531 0)
(-0.0365543 -0.0863918 0)
(-0.0388607 -0.0821099 0)
(-0.0357281 -0.0786182 0)
(-0.0271215 -0.103072 0)
(-0.0342241 -0.129904 0)
(-0.0351402 -0.08193 0)
(-0.0237153 -0.0541948 0)
(-0.0173943 -0.00752692 0)
(-0.00530974 0.0237154 0)
(0.00301375 0.0364516 0)
(0.0185305 0.0394665 0)
(0.0255112 0.0283442 0)
(0.0148397 -0.00463157 0)
(-0.00596082 -0.0487555 0)
(-0.0106243 -0.0706566 0)
(-0.0108162 -0.0956881 0)
(-0.00920574 -0.108553 0)
(0.00058074 -0.11139 0)
(0.00186683 -0.0817676 0)
(-0.00779763 -0.0467511 0)
(-0.0183357 -0.0346101 0)
(-0.0188429 -0.0515339 0)
(-0.0152325 -0.0816614 0)
(-0.0146723 -0.117539 0)
(-0.00982794 -0.150826 0)
(-0.00612768 -0.167814 0)
(-0.0149784 -0.148461 0)
(-0.023063 -0.10518 0)
(-0.0187674 -0.0872296 0)
(-0.023598 -0.0880208 0)
(-0.0308404 -0.0863358 0)
(-0.0358427 -0.082968 0)
(-0.0363945 -0.0813798 0)
(-0.0270109 -0.114081 0)
(-0.0412875 -0.13935 0)
(-0.046012 -0.0870349 0)
(-0.0358306 -0.058476 0)
(-0.0233231 -0.0160776 0)
(-0.00831493 0.0219423 0)
(0.00191288 0.036082 0)
(0.0183524 0.0379279 0)
(0.0305354 0.0294569 0)
(0.0233812 0.00163866 0)
(0.000390066 -0.042123 0)
(-0.00664655 -0.0697274 0)
(-0.00797835 -0.0985217 0)
(-0.00670867 -0.116789 0)
(-0.00914723 -0.110237 0)