/*--------------------------------*- C++ -*----------------------------------*\
| =========                 |                                                 |
| \\      /  F ield         | OpenFOAM: The Open Source CFD Toolbox           |
|  \\    /   O peration     | Version:  v1606+                                |
|   \\  /    A nd           | Web:      www.OpenFOAM.com                      |
|    \\/     M anipulation  |                                                 |
\*---------------------------------------------------------------------------*/
FoamFile
{
    version     2.0;
    format      ascii;
    class       surfaceScalarField;
    location    "0.0009";
    object      phi;
}
// * * * * * * * * * * * * * * * * * * * * * * * * * * * * * * * * * * * * * //

dimensions      [1 0 -1 0 0 0 0];

internalField   nonuniform List<scalar> 
4795
(
3.06006e-07
3.05371e-07
3.72396e-07
2.04089e-07
3.32496e-07
1.32407e-07
2.71613e-07
8.41775e-08
2.20268e-07
5.47608e-08
1.82668e-07
3.66305e-08
1.55796e-07
2.59759e-08
1.35748e-07
1.91959e-08
1.20259e-07
1.46716e-08
1.07944e-07
1.15298e-08
9.79247e-08
9.26888e-09
8.96177e-08
7.59125e-09
8.26202e-08
6.31363e-09
7.66403e-08
5.31865e-09
7.1459e-08
4.52847e-09
6.69077e-08
3.88992e-09
6.2856e-08
3.36581e-09
5.92033e-08
2.92967e-09
5.58736e-08
2.56235e-09
5.28107e-08
2.24985e-09
4.99739e-08
1.98179e-09
4.73341e-08
1.75036e-09
4.48707e-08
1.54954e-09
4.25681e-08
1.37463e-09
4.04142e-08
1.22189e-09
3.83983e-08
1.08826e-09
3.65111e-08
9.70931e-10
3.47431e-08
8.67971e-10
3.30851e-08
7.77472e-10
3.15282e-08
6.97653e-10
3.00639e-08
6.27325e-10
2.86839e-08
5.65194e-10
2.73808e-08
5.10263e-10
2.61479e-08
4.61613e-10
2.49788e-08
4.1854e-10
2.38684e-08
3.80302e-10
2.28117e-08
3.46415e-10
2.18046e-08
3.16343e-10
2.08429e-08
2.89735e-10
1.99234e-08
2.6615e-10
1.90426e-08
2.45256e-10
1.81972e-08
2.26882e-10
1.73842e-08
2.10649e-10
1.66006e-08
1.96358e-10
1.58433e-08
1.8383e-10
1.51093e-08
1.72831e-10
1.43958e-08
1.63196e-10
1.37001e-08
1.54787e-10
1.30195e-08
1.47479e-10
1.23516e-08
1.41126e-10
1.16942e-08
1.35647e-10
1.10454e-08
1.30996e-10
1.04033e-08
1.27125e-10
9.76714e-09
1.23393e-10
9.13584e-09
1.20078e-10
8.50864e-09
1.1716e-10
7.88475e-09
1.14806e-10
7.26313e-09
1.13452e-10
6.64455e-09
1.11371e-10
6.02802e-09
1.10413e-10
5.41446e-09
1.08712e-10
4.80341e-09
1.07672e-10
4.19447e-09
1.07189e-10
3.58837e-09
1.06127e-10
2.98494e-09
1.05302e-10
2.38406e-09
1.04675e-10
1.7856e-09
1.04232e-10
1.18926e-09
1.04134e-10
5.95231e-10
1.03616e-10
1.05278e-10
2.0474e-07
3.71047e-07
2.7998e-07
2.78625e-07
2.69877e-07
1.93791e-07
2.33722e-07
1.31096e-07
1.97839e-07
8.9595e-08
1.69844e-07
6.36783e-08
1.48014e-07
4.69207e-08
1.30755e-07
3.56126e-08
1.16886e-07
2.77331e-08
1.05563e-07
2.20781e-08
9.61806e-08
1.79094e-08
8.83016e-08
1.47623e-08
8.1602e-08
1.23356e-08
7.58356e-08
1.04284e-08
7.08111e-08
8.90343e-09
6.63775e-08
7.6646e-09
6.24158e-08
6.64361e-09
5.88333e-08
5.79115e-09
5.55593e-08
5.07128e-09
5.25414e-08
4.45749e-09
4.97415e-08
3.93001e-09
4.71327e-08
3.47388e-09
4.46953e-08
3.07759e-09
4.24149e-08
2.73207e-09
4.02801e-08
2.43003e-09
3.82809e-08
2.16546e-09
3.6408e-08
1.93331e-09
3.46524e-08
1.72933e-09
3.30052e-08
1.5499e-09
3.14577e-08
1.3917e-09
3.00016e-08
1.25217e-09
2.86288e-08
1.12888e-09
2.73321e-08
1.01983e-09
2.61046e-08
9.23249e-10
2.49405e-08
8.37657e-10
2.38344e-08
7.61722e-10
2.27816e-08
6.94375e-10
2.17777e-08
6.34642e-10
2.08192e-08
5.81686e-10
1.99024e-08
5.34791e-10
1.90239e-08
4.93322e-10
1.81808e-08
4.56676e-10
1.73698e-08
4.24381e-10
1.6588e-08
3.95964e-10
1.58322e-08
3.71109e-10
1.50996e-08
3.49162e-10
1.43872e-08
3.30239e-10
1.36923e-08
3.13527e-10
1.30125e-08
2.98969e-10
1.23451e-08
2.86524e-10
1.16885e-08
2.75187e-10
1.10404e-08
2.6593e-10
1.03996e-08
2.57573e-10
9.7643e-09
2.50499e-10
9.13364e-09
2.44033e-10
8.50625e-09
2.38962e-10
7.88232e-09
2.34067e-10
7.26142e-09
2.30528e-10
6.64272e-09
2.27153e-10
6.02705e-09
2.24202e-10
5.41348e-09
2.21619e-10
4.80229e-09
2.196e-10
4.19389e-09
2.1792e-10
3.58775e-09
2.16312e-10
2.98375e-09
2.15204e-10
2.38251e-09
2.1381e-10
1.78409e-09
2.12805e-10
1.18891e-09
2.11986e-10
5.95957e-10
2.10958e-10
2.10606e-10
1.3307e-07
3.30397e-07
1.95158e-07
2.67777e-07
2.02449e-07
2.00361e-07
1.89062e-07
1.47002e-07
1.69854e-07
1.07809e-07
1.51768e-07
8.08381e-08
1.3594e-07
6.18748e-08
1.22422e-07
4.82988e-08
1.10956e-07
3.84007e-08
1.01225e-07
3.10445e-08
9.29264e-08
2.54743e-08
8.58055e-08
2.11814e-08
7.96486e-08
1.78177e-08
7.4279e-08
1.51407e-08
6.95502e-08
1.29787e-08
6.53407e-08
1.12083e-08
6.15518e-08
9.7397e-09
5.81048e-08
8.50712e-09
5.49389e-08
7.46181e-09
5.20089e-08
6.56745e-09
4.92815e-08
5.79671e-09
4.67333e-08
5.12871e-09
4.43473e-08
4.54727e-09
4.21109e-08
4.03954e-09
4.00139e-08
3.59514e-09
3.80474e-08
3.2054e-09
3.62029e-08
2.86317e-09
3.4472e-08
2.56218e-09
3.28463e-08
2.29721e-09
3.13175e-08
2.06347e-09
2.98777e-08
1.85715e-09
2.85193e-08
1.67477e-09
2.7235e-08
1.51336e-09
2.60186e-08
1.37036e-09
2.48642e-08
1.24357e-09
2.37667e-08
1.13108e-09
2.27215e-08
1.03127e-09
2.17245e-08
9.42729e-10
2.07721e-08
8.6423e-10
1.98606e-08
7.94707e-10
1.89871e-08
7.33195e-10
1.81482e-08
6.78888e-10
1.73411e-08
6.3101e-10
1.65626e-08
5.88901e-10
1.58099e-08
5.51925e-10
1.50799e-08
5.1948e-10
1.43702e-08
4.91167e-10
1.36776e-08
4.66413e-10
1.29997e-08
4.44867e-10
1.23344e-08
4.26111e-10
1.16791e-08
4.09744e-10
1.10322e-08
3.9575e-10
1.03925e-08
3.83059e-10
9.75791e-09
3.72803e-10
9.128e-09
3.63141e-10
8.50181e-09
3.55412e-10
7.87826e-09
3.48748e-10
7.25809e-09
3.42624e-10
6.6402e-09
3.37826e-10
6.02458e-09
3.33606e-10
5.41131e-09
3.29855e-10
4.80041e-09
3.26839e-10
4.19203e-09
3.24185e-10
3.58643e-09
3.21495e-10
2.98282e-09
3.20222e-10
2.3815e-09
3.18561e-10
1.78295e-09
3.17193e-10
1.18782e-09
3.16061e-10
5.95615e-10
3.1507e-10
3.1378e-10
8.48532e-08
2.68792e-07
1.32475e-07
2.30906e-07
1.49101e-07
1.86248e-07
1.48949e-07
1.46145e-07
1.41676e-07
1.1413e-07
1.31922e-07
8.96915e-08
1.21771e-07
7.11722e-08
1.12128e-07
5.71282e-08
1.03338e-07
4.64115e-08
9.54794e-08
3.8154e-08
8.85156e-08
3.17192e-08
8.23612e-08
2.66448e-08
7.69156e-08
2.25947e-08
7.20774e-08
1.93229e-08
6.77512e-08
1.6648e-08
6.38512e-08
1.44357e-08
6.03036e-08
1.25853e-08
5.70477e-08
1.10217e-08
5.40355e-08
9.68831e-09
5.12311e-08
8.54227e-09
4.8608e-08
7.55097e-09
4.61474e-08
6.68923e-09
4.3836e-08
5.93728e-09
4.16636e-08
5.27932e-09
3.96219e-08
4.70239e-09
3.77032e-08
4.19573e-09
3.59003e-08
3.75016e-09
3.42056e-08
3.35787e-09
3.26114e-08
3.01225e-09
3.11103e-08
2.7069e-09
2.96945e-08
2.43726e-09
2.83572e-08
2.19868e-09
2.70914e-08
1.98743e-09
2.58913e-08
1.80013e-09
2.47513e-08
1.63403e-09
2.36665e-08
1.48656e-09
2.26327e-08
1.35568e-09
2.16458e-08
1.23955e-09
2.07023e-08
1.13657e-09
1.97989e-08
1.04534e-09
1.89326e-08
9.64623e-10
1.81002e-08
8.9334e-10
1.72989e-08
8.30493e-10
1.65256e-08
7.7519e-10
1.57775e-08
7.26691e-10
1.50516e-08
6.84091e-10
1.43454e-08
6.46842e-10
1.3656e-08
6.14296e-10
1.2981e-08
5.85923e-10
1.23181e-08
5.61228e-10
1.1665e-08
5.39741e-10
1.10203e-08
5.21127e-10
1.03818e-08
5.04867e-10
9.74887e-09
4.90886e-10
9.11999e-09
4.78562e-10
8.49469e-09
4.68214e-10
7.87257e-09
4.59133e-10
7.25285e-09
4.51337e-10
6.63564e-09
4.44809e-10
6.0208e-09
4.39145e-10
5.40816e-09
4.34303e-10
4.79806e-09
4.30064e-10
4.19007e-09
4.26793e-10
3.58416e-09
4.23658e-10
2.98092e-09
4.21492e-10
2.37999e-09
4.19503e-10
1.78175e-09
4.17871e-10
1.18696e-09
4.16546e-10
5.95619e-10
4.15456e-10
4.14496e-10
5.54589e-08
2.16741e-07
9.09922e-08
1.94325e-07
1.09908e-07
1.66341e-07
1.16936e-07
1.38167e-07
1.16832e-07
1.13324e-07
1.12984e-07
9.26737e-08
1.07377e-07
7.59534e-08
1.01138e-07
6.25784e-08
9.48757e-08
5.19176e-08
8.88951e-08
4.34067e-08
8.33329e-08
3.65798e-08
7.82325e-08
3.10666e-08
7.35865e-08
2.6579e-08
6.93605e-08
2.2894e-08
6.55076e-08
1.984e-08
6.19773e-08
1.72851e-08
5.87222e-08
1.51277e-08
5.57005e-08
1.32902e-08
5.28788e-08
1.17129e-08
5.02314e-08
1.03498e-08
4.77396e-08
9.16557e-09
4.53902e-08
8.13232e-09
4.31737e-08
7.22798e-09
4.10832e-08
6.43466e-09
3.91123e-08
5.73755e-09
3.72553e-08
5.12419e-09
3.5506e-08
4.58388e-09
3.38581e-08
4.10749e-09
3.23049e-08
3.68722e-09
3.08394e-08
3.31548e-09
2.9455e-08
2.98688e-09
2.81451e-08
2.69572e-09
2.69034e-08
2.43791e-09
2.57246e-08
2.20892e-09
2.46033e-08
2.00597e-09
2.35352e-08
1.82551e-09
2.25161e-08
1.66533e-09
2.15424e-08
1.52316e-09
2.06107e-08
1.39704e-09
1.97179e-08
1.2853e-09
1.8861e-08
1.18641e-09
1.80371e-08
1.09905e-09
1.72434e-08
1.02202e-09
1.64769e-08
9.54218e-10
1.57348e-08
8.94794e-10
1.50142e-08
8.4262e-10
1.43127e-08
7.96815e-10
1.36275e-08
7.56919e-10
1.29562e-08
7.21992e-10
1.22965e-08
6.91654e-10
1.16463e-08
6.65237e-10
1.1004e-08
6.42268e-10
1.03677e-08
6.22546e-10
9.73662e-09
6.05032e-10
9.10945e-09
5.90019e-10
8.48572e-09
5.77077e-10
7.86473e-09
5.65899e-10
7.24616e-09
5.56285e-10
6.62996e-09
5.48066e-10
6.01596e-09
5.41028e-10
5.40415e-09
5.3502e-10
4.79443e-09
5.29915e-10
4.18709e-09
5.25668e-10
3.58179e-09
5.22065e-10
2.97891e-09
5.1918e-10
2.37835e-09
5.16796e-10
1.78047e-09
5.14877e-10
1.18602e-09
5.13372e-10
5.95048e-10
5.12244e-10
5.1151e-10
3.7327e-08
1.7845e-07
6.50795e-08
1.65631e-07
8.29421e-08
1.47556e-07
9.24992e-08
1.27714e-07
9.61827e-08
1.08776e-07
9.61177e-08
9.19102e-08
9.38229e-08
7.7456e-08
9.03109e-08
6.5331e-08
8.62244e-08
5.52733e-08
8.1955e-08
4.69702e-08
7.7731e-08
4.01197e-08
7.36763e-08
3.44548e-08
6.9849e-08
2.97503e-08
6.62663e-08
2.58211e-08
6.29216e-08
2.25174e-08
5.97961e-08
1.97192e-08
5.6866e-08
1.73319e-08
5.41086e-08
1.52806e-08
5.15042e-08
1.35069e-08
4.90379e-08
1.19648e-08
4.66989e-08
1.06183e-08
4.44798e-08
9.43855e-09
4.23755e-08
8.40241e-09
4.0382e-08
7.49079e-09
3.84956e-08
6.68771e-09
3.67122e-08
5.97955e-09
3.50273e-08
5.35453e-09
3.34357e-08
4.80248e-09
3.19318e-08
4.31452e-09
3.05094e-08
3.88257e-09
2.91629e-08
3.5001e-09
2.7886e-08
3.16098e-09
2.66737e-08
2.86013e-09
2.55206e-08
2.59293e-09
2.44222e-08
2.35573e-09
2.33744e-08
2.14473e-09
2.23734e-08
1.95742e-09
2.14158e-08
1.79105e-09
2.04986e-08
1.64342e-09
1.96187e-08
1.51259e-09
1.87734e-08
1.39677e-09
1.79598e-08
1.29442e-09
1.71753e-08
1.20418e-09
1.64171e-08
1.12471e-09
1.56823e-08
1.05509e-09
1.49684e-08
9.93892e-10
1.42726e-08
9.40228e-10
1.35926e-08
8.93254e-10
1.29257e-08
8.52314e-10
1.227e-08
8.16637e-10
1.16233e-08
7.8556e-10
1.09839e-08
7.58518e-10
1.03503e-08
7.35347e-10
9.72153e-09
7.14637e-10
9.09646e-09
6.9691e-10
8.47448e-09
6.8157e-10
7.85506e-09
6.68332e-10
7.2379e-09
6.56919e-10
6.62288e-09
6.47114e-10
6.00991e-09
6.38727e-10
5.39899e-09
6.31577e-10
4.79015e-09
6.25517e-10
4.18346e-09
6.20431e-10
3.57888e-09
6.16189e-10
2.97651e-09
6.12719e-10
2.37642e-09
6.09904e-10
1.77897e-09
6.07674e-10
1.18495e-09
6.05973e-10
5.94422e-10
6.04783e-10
6.04109e-10
2.66764e-08
1.50885e-07
4.83245e-08
1.43106e-07
6.39815e-08
1.31034e-07
7.39814e-08
1.16867e-07
7.94634e-08
1.02474e-07
8.16639e-08
8.89202e-08
8.16322e-08
7.67294e-08
8.01657e-08
6.60675e-08
7.78339e-08
5.68996e-08
7.50263e-08
4.90929e-08
7.19998e-08
4.24779e-08
6.89171e-08
3.68805e-08
6.58753e-08
3.21389e-08
6.29268e-08
2.81103e-08
6.00951e-08
2.46724e-08
5.7386e-08
2.17234e-08
5.47966e-08
1.91798e-08
5.23202e-08
1.6974e-08
4.99504e-08
1.50517e-08
4.76819e-08
1.33696e-08
4.55114e-08
1.18929e-08
4.34373e-08
1.05931e-08
4.14586e-08
9.44726e-09
3.95745e-08
8.4358e-09
3.77837e-08
7.54227e-09
3.60841e-08
6.75236e-09
3.44727e-08
6.05366e-09
3.29455e-08
5.4353e-09
3.1498e-08
4.88767e-09
3.01254e-08
4.40223e-09
2.88223e-08
3.97173e-09
2.7584e-08
3.58949e-09
2.64055e-08
3.24999e-09
2.52823e-08
2.94819e-09
2.42105e-08
2.67997e-09
2.31864e-08
2.44117e-09
2.22064e-08
2.22921e-09
2.12677e-08
2.04076e-09
2.03673e-08
1.87348e-09
1.95025e-08
1.72518e-09
1.86707e-08
1.59388e-09
1.78692e-08
1.4778e-09
1.70955e-08
1.37545e-09
1.63469e-08
1.2853e-09
1.56208e-08
1.20624e-09
1.49146e-08
1.13681e-09
1.42256e-08
1.07577e-09
1.35515e-08
1.02246e-09
1.28899e-08
9.75883e-10
1.22388e-08
9.3526e-10
1.15961e-08
8.99842e-10
1.09603e-08
8.68992e-10
1.03298e-08
8.42573e-10
9.70374e-09
8.1884e-10
9.08107e-09
7.98542e-10
8.46117e-09
7.80933e-10
7.84358e-09
7.65712e-10
7.22805e-09
7.5256e-10
6.61444e-09
7.41233e-10
6.00272e-09
7.31531e-10
5.39289e-09
7.23255e-10
4.78503e-09
7.16233e-10
4.17918e-09
7.10333e-10
3.57538e-09
7.05421e-10
2.97367e-09
7.01389e-10
2.37418e-09
6.98134e-10
1.77727e-09
6.95577e-10
1.18378e-09
6.93658e-10
5.938e-10
6.92363e-10
6.91668e-10
1.98981e-08
1.30148e-07
3.70181e-08
1.25156e-07
5.04072e-08
1.16824e-07
5.99387e-08
1.06532e-07
6.60892e-08
9.55433e-08
6.95395e-08
8.47167e-08
7.09705e-08
7.4572e-08
7.09645e-08
6.5371e-08
6.99805e-08
5.7201e-08
6.8362e-08
5.00446e-08
6.63562e-08
4.38278e-08
6.41346e-08
3.8451e-08
6.18115e-08
3.38079e-08
5.94594e-08
2.97957e-08
5.71214e-08
2.63209e-08
5.4822e-08
2.33017e-08
5.2574e-08
2.06685e-08
5.03842e-08
1.83633e-08
4.82569e-08
1.63383e-08
4.61957e-08
1.45544e-08
4.42039e-08
1.29792e-08
4.22849e-08
1.15863e-08
4.04418e-08
1.03533e-08
3.86764e-08
9.26104e-09
3.699e-08
8.29326e-09
3.53822e-08
7.43533e-09
3.38516e-08
6.67464e-09
3.23955e-08
5.99995e-09
3.10106e-08
5.40117e-09
2.96931e-08
4.86952e-09
2.84386e-08
4.39726e-09
2.72432e-08
3.97725e-09
2.61026e-08
3.6038e-09
2.50131e-08
3.27139e-09
2.39712e-08
2.97561e-09
2.29735e-08
2.71232e-09
2.20173e-08
2.47815e-09
2.10998e-08
2.27002e-09
2.02184e-08
2.08516e-09
1.93707e-08
1.92121e-09
1.85542e-08
1.77601e-09
1.77665e-08
1.64764e-09
1.70051e-08
1.53438e-09
1.62674e-08
1.43462e-09
1.55511e-08
1.34707e-09
1.48535e-08
1.27016e-09
1.41722e-08
1.20253e-09
1.35048e-08
1.14343e-09
1.28492e-08
1.09173e-09
1.22032e-08
1.04662e-09
1.15651e-08
1.00722e-09
1.09333e-08
9.72856e-10
1.03064e-08
9.43408e-10
9.68336e-09
9.16881e-10
9.06339e-09
8.94172e-10
8.44586e-09
8.74423e-10
7.83037e-09
8.57318e-10
7.21668e-09
8.425e-10
6.60469e-09
8.2971e-10
5.99439e-09
8.1874e-10
5.38583e-09
8.09353e-10
4.77909e-09
8.01383e-10
4.17424e-09
7.94677e-10
3.57132e-09
7.8909e-10
2.97039e-09
7.84498e-10
2.3716e-09
7.80797e-10
1.77535e-09
7.779e-10
1.18248e-09
7.75747e-10
5.93144e-10
7.74305e-10
7.73564e-10
1.53748e-08
1.13972e-07
2.914e-08
1.106e-07
4.05106e-08
1.04671e-07
4.92232e-08
9.70536e-08
5.54294e-08
8.85931e-08
5.94827e-08
7.99431e-08
6.18031e-08
7.15536e-08
6.27947e-08
6.37009e-08
6.28058e-08
5.65266e-08
6.21184e-08
5.00793e-08
6.09502e-08
4.43483e-08
5.9463e-08
3.92887e-08
5.77731e-08
3.48384e-08
5.59612e-08
3.09294e-08
5.4082e-08
2.74947e-08
5.21715e-08
2.44723e-08
5.0254e-08
2.18071e-08
4.83467e-08
1.94518e-08
4.64624e-08
1.7366e-08
4.46117e-08
1.55159e-08
4.28035e-08
1.3873e-08
4.10456e-08
1.24129e-08
3.93442e-08
1.1115e-08
3.77041e-08
9.96105e-09
3.61282e-08
8.93549e-09
3.46182e-08
8.02335e-09
3.3174e-08
7.21268e-09
3.17943e-08
6.49194e-09
3.04769e-08
5.85087e-09
2.92189e-08
5.28056e-09
2.80171e-08
4.7731e-09
2.68683e-08
4.32098e-09
2.5769e-08
3.91854e-09
2.47162e-08
3.55974e-09
2.3707e-08
3.24023e-09
2.27385e-08
2.9556e-09
2.18084e-08
2.70223e-09
2.09143e-08
2.47688e-09
2.00539e-08
2.27667e-09
1.9225e-08
2.09903e-09
1.84254e-08
1.94166e-09
1.76528e-08
1.8025e-09
1.69049e-08
1.67966e-09
1.61794e-08
1.57142e-09
1.54737e-08
1.47653e-09
1.47857e-08
1.39292e-09
1.41128e-08
1.31949e-09
1.34529e-08
1.25523e-09
1.28039e-08
1.19899e-09
1.21637e-08
1.14986e-09
1.15306e-08
1.10688e-09
1.09031e-08
1.06937e-09
1.02802e-08
1.03695e-09
9.66057e-09
1.00807e-09
9.04357e-09
9.83087e-10
8.42866e-09
9.61332e-10
7.81548e-09
9.42454e-10
7.20383e-09
9.26054e-10
6.59367e-09
9.11854e-10
5.98493e-09
8.9971e-10
5.37781e-09
8.89197e-10
4.77234e-09
8.80306e-10
4.16861e-09
8.72807e-10
3.56669e-09
8.66547e-10
2.96667e-09
8.61397e-10
2.36869e-09
8.57245e-10
1.77319e-09
8.54e-10
1.18103e-09
8.51593e-10
5.92422e-10
8.49991e-10
8.49185e-10
1.22337e-08
1.00974e-07
2.3486e-08
9.85935e-08
3.31556e-08
9.42562e-08
4.09671e-08
8.85125e-08
4.69198e-08
8.19299e-08
5.11807e-08
7.49915e-08
5.39974e-08
6.80644e-08
5.56389e-08
6.14015e-08
5.63586e-08
5.5159e-08
5.63767e-08
4.94179e-08
5.58744e-08
4.42059e-08
5.49944e-08
3.95155e-08
5.38456e-08
3.53177e-08
5.25091e-08
3.15725e-08
5.10436e-08
2.82356e-08
4.94921e-08
2.5263e-08
4.78862e-08
2.26135e-08
4.62501e-08
2.02503e-08
4.4603e-08
1.8141e-08
4.29607e-08
1.62573e-08
4.13365e-08
1.45748e-08
3.97417e-08
1.30722e-08
3.81851e-08
1.17307e-08
3.66738e-08
1.05336e-08
3.52125e-08
9.46594e-09
3.38043e-08
8.5136e-09
3.24504e-08
7.66478e-09
3.11508e-08
6.90839e-09
2.99044e-08
6.23382e-09
2.87094e-08
5.63261e-09
2.75636e-08
5.09651e-09
2.64643e-08
4.61827e-09
2.54091e-08
4.19173e-09
2.43956e-08
3.81114e-09
2.34214e-08
3.47174e-09
2.24843e-08
3.16916e-09
2.15823e-08
2.89961e-09
2.07134e-08
2.6597e-09
1.98757e-08
2.44648e-09
1.90671e-08
2.25722e-09
1.82858e-08
2.08951e-09
1.75295e-08
1.94116e-09
1.67963e-08
1.81014e-09
1.60838e-08
1.69474e-09
1.53899e-08
1.5933e-09
1.47121e-08
1.50422e-09
1.40484e-08
1.42574e-09
1.33965e-08
1.35699e-09
1.27545e-08
1.2968e-09
1.21205e-08
1.24417e-09
1.14929e-08
1.19803e-09
1.08702e-08
1.15771e-09
1.02515e-08
1.12265e-09
9.63551e-09
1.09163e-09
9.02173e-09
1.06459e-09
8.40967e-09
1.04098e-09
7.79902e-09
1.02043e-09
7.18955e-09
1.00263e-09
6.58135e-09
9.8704e-10
5.97445e-09
9.73703e-10
5.36888e-09
9.62193e-10
4.7648e-09
9.52393e-10
4.16231e-09
9.44115e-10
3.56151e-09
9.37187e-10
2.96249e-09
9.31479e-10
2.36542e-09
9.26874e-10
1.77077e-09
9.23278e-10
1.17943e-09
9.20604e-10
5.91623e-10
9.18837e-10
9.17956e-10
9.97337e-09
9.02765e-08
1.93183e-08
8.85331e-08
2.75868e-08
8.52802e-08
3.45338e-08
8.08711e-08
4.00945e-08
7.56904e-08
4.43317e-08
7.00909e-08
4.73838e-08
6.4362e-08
4.94232e-08
5.87206e-08
5.06283e-08
5.33165e-08
5.11648e-08
4.82423e-08
5.11774e-08
4.35461e-08
5.07863e-08
3.92443e-08
5.00885e-08
3.53314e-08
4.91598e-08
3.17886e-08
4.8059e-08
2.85902e-08
4.68315e-08
2.57075e-08
4.55129e-08
2.31118e-08
4.41316e-08
2.07759e-08
4.27112e-08
1.86748e-08
4.1271e-08
1.67862e-08
3.98277e-08
1.50897e-08
3.83947e-08
1.35671e-08
3.69832e-08
1.22019e-08
3.56017e-08
1.09789e-08
3.42568e-08
9.88429e-09
3.29523e-08
8.90514e-09
3.1691e-08
8.02977e-09
3.04741e-08
7.24752e-09
2.93011e-08
6.54845e-09
2.81714e-08
5.92391e-09
2.70837e-08
5.3659e-09
2.60363e-08
4.86728e-09
2.50273e-08
4.42182e-09
2.40551e-08
4.02389e-09
2.31178e-08
3.66859e-09
2.22139e-08
3.35154e-09
2.13417e-08
3.06889e-09
2.04995e-08
2.81719e-09
1.96858e-08
2.59334e-09
1.88989e-08
2.3946e-09
1.81369e-08
2.21843e-09
1.73981e-08
2.06256e-09
1.66804e-08
1.92488e-09
1.59819e-08
1.8035e-09
1.53004e-08
1.69671e-09
1.46335e-08
1.60314e-09
1.39794e-08
1.52045e-09
1.33362e-08
1.44789e-09
1.27017e-08
1.38439e-09
1.20742e-08
1.32882e-09
1.14524e-08
1.27994e-09
1.08348e-08
1.23718e-09
1.02205e-08
1.19985e-09
9.60838e-09
1.1669e-09
8.99804e-09
1.13802e-09
8.38901e-09
1.11274e-09
7.78101e-09
1.09069e-09
7.17402e-09
1.07147e-09
6.56792e-09
1.05469e-09
5.9629e-09
1.04022e-09
5.35903e-09
1.02773e-09
4.75647e-09
1.01706e-09
4.15534e-09
1.00803e-09
3.55576e-09
1.00045e-09
2.95785e-09
9.94191e-10
2.3618e-09
9.89136e-10
1.76809e-09
9.85184e-10
1.17765e-09
9.82245e-10
5.90741e-10
9.80304e-10
9.79345e-10
8.29638e-09
8.12968e-08
1.61724e-08
7.99816e-08
2.32955e-08
7.74869e-08
2.94614e-08
7.40447e-08
3.45835e-08
6.99186e-08
3.86691e-08
6.53655e-08
4.17886e-08
6.06095e-08
4.40485e-08
5.58303e-08
4.55703e-08
5.11617e-08
4.64753e-08
4.66958e-08
4.68755e-08
4.24899e-08
4.68692e-08
3.85739e-08
4.65391e-08
3.49582e-08
4.59534e-08
3.16396e-08
4.51678e-08
2.86064e-08
4.42274e-08
2.58425e-08
4.31689e-08
2.33296e-08
4.20231e-08
2.10492e-08
4.08157e-08
1.89831e-08
3.95684e-08
1.71141e-08
3.82996e-08
1.54259e-08
3.70245e-08
1.39035e-08
3.57558e-08
1.25326e-08
3.45032e-08
1.12997e-08
3.32742e-08
1.01924e-08
3.20739e-08
9.19879e-09
3.09061e-08
8.3078e-09
2.97727e-08
7.50935e-09
2.86745e-08
6.79417e-09
2.76116e-08
6.15374e-09
2.65835e-08
5.58034e-09
2.55894e-08
5.06708e-09
2.46281e-08
4.60778e-09
2.36986e-08
4.19695e-09
2.27998e-08
3.82971e-09
2.19303e-08
3.50171e-09
2.10891e-08
3.20906e-09
2.02749e-08
2.94831e-09
1.94864e-08
2.71631e-09
1.87221e-08
2.51025e-09
1.79805e-08
2.32755e-09
1.726e-08
2.16584e-09
1.65586e-08
2.02298e-09
1.58746e-08
1.89697e-09
1.5206e-08
1.78602e-09
1.45507e-08
1.68878e-09
1.39068e-08
1.60283e-09
1.32725e-08
1.52726e-09
1.26458e-08
1.46107e-09
1.20252e-08
1.40313e-09
1.14094e-08
1.35195e-09
1.07971e-08
1.30714e-09
1.01874e-08
1.2679e-09
9.57941e-09
1.23327e-09
8.97268e-09
1.20277e-09
8.36683e-09
1.176e-09
7.76169e-09
1.15259e-09
7.1572e-09
1.1321e-09
6.55336e-09
1.11422e-09
5.95036e-09
1.0987e-09
5.34831e-09
1.08528e-09
4.74738e-09
1.07378e-09
4.14771e-09
1.06405e-09
3.54947e-09
1.05581e-09
2.95277e-09
1.04902e-09
2.35782e-09
1.04353e-09
1.76515e-09
1.03922e-09
1.1757e-09
1.03602e-09
5.89773e-10
1.03391e-09
1.03287e-09
7.01949e-09
7.36324e-08
1.37471e-08
7.26152e-08
1.99338e-08
7.06636e-08
2.54138e-08
6.79332e-08
3.00988e-08
6.46075e-08
3.39677e-08
6.08739e-08
3.70502e-08
5.69046e-08
3.94084e-08
5.28454e-08
4.11227e-08
4.88113e-08
4.22796e-08
4.48881e-08
4.29638e-08
4.11346e-08
4.32534e-08
3.75879e-08
4.32175e-08
3.42681e-08
4.29157e-08
3.11825e-08
4.23984e-08
2.83302e-08
4.17085e-08
2.57048e-08
4.08825e-08
2.32964e-08
3.99511e-08
2.10936e-08
3.89411e-08
1.9084e-08
3.78751e-08
1.72551e-08
3.67724e-08
1.55945e-08
3.56493e-08
1.40898e-08
3.4519e-08
1.27291e-08
3.33923e-08
1.15007e-08
3.22774e-08
1.03936e-08
3.11802e-08
9.39697e-09
3.01052e-08
8.50044e-09
2.90553e-08
7.69491e-09
2.80321e-08
6.97155e-09
2.70364e-08
6.3223e-09
2.60687e-08
5.73977e-09
2.51286e-08
5.21739e-09
2.4216e-08
4.74919e-09
2.33303e-08
4.32982e-09
2.24708e-08
3.95453e-09
2.16368e-08
3.61903e-09
2.08276e-08
3.31947e-09
2.00422e-08
3.05241e-09
1.92797e-08
2.8147e-09
1.85388e-08
2.60349e-09
1.78183e-08
2.41617e-09
1.71166e-08
2.25033e-09
1.64322e-08
2.10379e-09
1.57632e-08
1.97447e-09
1.51079e-08
1.86057e-09
1.44646e-08
1.76052e-09
1.38313e-08
1.67218e-09
1.32061e-08
1.59449e-09
1.25875e-08
1.52623e-09
1.1974e-08
1.46651e-09
1.13644e-08
1.41342e-09
1.07576e-08
1.36697e-09
1.01526e-08
1.32627e-09
9.54883e-09
1.29018e-09
8.94583e-09
1.25828e-09
8.3433e-09
1.23023e-09
7.7411e-09
1.20562e-09
7.13926e-09
1.184e-09
6.53775e-09
1.16516e-09
5.93688e-09
1.14862e-09
5.33675e-09
1.13436e-09
4.73755e-09
1.12209e-09
4.13947e-09
1.11166e-09
3.54265e-09
1.10283e-09
2.94724e-09
1.09553e-09
2.35349e-09
1.08962e-09
1.76194e-09
1.08496e-09
1.17358e-09
1.08151e-09
5.88718e-10
1.07922e-09
1.0781e-09
6.02541e-09
6.69916e-08
1.18416e-08
6.61881e-08
1.72594e-08
6.46338e-08
2.21452e-08
6.24355e-08
2.64176e-08
5.97229e-08
3.00427e-08
5.66337e-08
3.30259e-08
5.33e-08
3.54006e-08
4.98385e-08
3.72178e-08
4.63465e-08
3.8538e-08
4.29004e-08
3.94238e-08
3.95567e-08
3.99363e-08
3.63551e-08
4.01319e-08
3.3321e-08
4.00614e-08
3.04688e-08
3.97697e-08
2.78051e-08
3.92962e-08
2.53305e-08
3.86753e-08
2.30417e-08
3.79371e-08
2.09331e-08
3.71078e-08
1.8997e-08
3.62102e-08
1.72251e-08
3.52637e-08
1.5608e-08
3.42849e-08
1.4136e-08
3.32872e-08
1.27994e-08
3.22819e-08
1.15882e-08
3.12777e-08
1.04927e-08
3.02813e-08
9.50318e-09
2.92975e-08
8.61056e-09
2.83299e-08
7.80623e-09
2.73809e-08
7.08207e-09
2.64522e-08
6.43059e-09
2.55448e-08
5.84483e-09
2.46591e-08
5.3186e-09
2.37954e-08
4.8462e-09
2.29539e-08
4.42251e-09
2.21343e-08
4.04291e-09
2.13364e-08
3.70328e-09
2.05597e-08
3.39982e-09
1.98038e-08
3.12914e-09
1.90678e-08
2.8881e-09
1.83509e-08
2.67388e-09
1.76519e-08
2.48383e-09
1.69696e-08
2.31555e-09
1.63024e-08
2.16679e-09
1.56489e-08
2.03548e-09
1.50073e-08
1.91975e-09
1.43761e-08
1.81795e-09
1.37533e-08
1.72809e-09
1.31376e-08
1.64899e-09
1.25272e-08
1.57936e-09
1.19211e-08
1.51819e-09
1.13178e-08
1.46394e-09
1.07164e-08
1.41624e-09
1.01165e-08
1.3742e-09
9.51689e-09
1.33722e-09
8.9177e-09
1.30406e-09
8.31856e-09
1.27493e-09
7.71939e-09
1.2493e-09
7.12022e-09
1.22673e-09
6.52126e-09
1.20691e-09
5.92256e-09
1.1896e-09
5.32442e-09
1.17453e-09
4.72704e-09
1.16156e-09
4.13062e-09
1.15048e-09
3.53531e-09
1.14111e-09
2.94127e-09
1.13333e-09
2.34882e-09
1.127e-09
1.75848e-09
1.12202e-09
1.17128e-09
1.11832e-09
5.87579e-10
1.11587e-09
1.11468e-09
5.23636e-09
6.11552e-08
1.03189e-08
6.05088e-08
1.51006e-08
5.92507e-08
1.94746e-08
5.7456e-08
2.33685e-08
5.52177e-08
2.67444e-08
5.26383e-08
2.95939e-08
4.9819e-08
3.19317e-08
4.68532e-08
3.3789e-08
4.3822e-08
3.52065e-08
4.07918e-08
3.62301e-08
3.78152e-08
3.69067e-08
3.49313e-08
3.72817e-08
3.2168e-08
3.73976e-08
2.9544e-08
3.72936e-08
2.70706e-08
3.70051e-08
2.47536e-08
3.65637e-08
2.25945e-08
3.59978e-08
2.05921e-08
3.53325e-08
1.87426e-08
3.45898e-08
1.70409e-08
3.37885e-08
1.54803e-08
3.29451e-08
1.40535e-08
3.20731e-08
1.27527e-08
3.11836e-08
1.15696e-08
3.02857e-08
1.04955e-08
2.93864e-08
9.52232e-09
2.8491e-08
8.6418e-09
2.76038e-08
7.84614e-09
2.67277e-08
7.12794e-09
2.58649e-08
6.48031e-09
2.50171e-08
5.89682e-09
2.41854e-08
5.37167e-09
2.33706e-08
4.8995e-09
2.25732e-08
4.47548e-09
2.17937e-08
4.09518e-09
2.1032e-08
3.75462e-09
2.02882e-08
3.45015e-09
1.9562e-08
3.17843e-09
1.8853e-08
2.93638e-09
1.81603e-08
2.72121e-09
1.74831e-08
2.53028e-09
1.68203e-08
2.36117e-09
1.61707e-08
2.21164e-09
1.55327e-08
2.07961e-09
1.4905e-08
1.96316e-09
1.4286e-08
1.86063e-09
1.3674e-08
1.7701e-09
1.30677e-08
1.69029e-09
1.24656e-08
1.61993e-09
1.18668e-08
1.55791e-09
1.12698e-08
1.50295e-09
1.06741e-08
1.4544e-09
1.0079e-08
1.41148e-09
9.48391e-09
1.37368e-09
8.88851e-09
1.33973e-09
8.2928e-09
1.30968e-09
7.69671e-09
1.28321e-09
7.10033e-09
1.25983e-09
6.50384e-09
1.23922e-09
5.90745e-09
1.22117e-09
5.31139e-09
1.20543e-09
4.7159e-09
1.19182e-09
4.12121e-09
1.18016e-09
3.52749e-09
1.17027e-09
2.9349e-09
1.1621e-09
2.34382e-09
1.15534e-09
1.75477e-09
1.15007e-09
1.16882e-09
1.14614e-09
5.86357e-10
1.14354e-09
1.14228e-09
4.59923e-09
5.59545e-08
9.08284e-09
5.54261e-08
1.33343e-08
5.43928e-08
1.72675e-08
5.29086e-08
2.08199e-08
5.10415e-08
2.39534e-08
4.88684e-08
2.66526e-08
4.64676e-08
2.89206e-08
4.39137e-08
3.07746e-08
4.12739e-08
3.22417e-08
3.86054e-08
3.33545e-08
3.59556e-08
3.41488e-08
3.33617e-08
3.46607e-08
3.08522e-08
3.49255e-08
2.84477e-08
3.49765e-08
2.61625e-08
3.4845e-08
2.40057e-08
3.45595e-08
2.19824e-08
3.41462e-08
2.00944e-08
3.36283e-08
1.8341e-08
3.30266e-08
1.67195e-08
3.23592e-08
1.52256e-08
3.16417e-08
1.38541e-08
3.08875e-08
1.25987e-08
3.01072e-08
1.14529e-08
2.93103e-08
1.04087e-08
2.85038e-08
9.45977e-09
2.76935e-08
8.59857e-09
2.68838e-08
7.81821e-09
2.60784e-08
7.11204e-09
2.528e-08
6.47377e-09
2.44906e-08
5.89756e-09
2.3712e-08
5.37805e-09
2.29454e-08
4.91024e-09
2.21919e-08
4.48961e-09
2.14522e-08
4.11198e-09
2.07267e-08
3.77355e-09
2.00157e-08
3.4708e-09
1.93193e-08
3.20051e-09
1.86372e-08
2.95967e-09
1.79688e-08
2.74551e-09
1.73135e-08
2.55546e-09
1.66703e-08
2.38709e-09
1.60382e-08
2.23817e-09
1.54159e-08
2.10663e-09
1.4802e-08
1.99055e-09
1.41951e-08
1.88823e-09
1.35939e-08
1.79787e-09
1.29971e-08
1.71805e-09
1.24033e-08
1.64758e-09
1.18117e-08
1.58529e-09
1.12211e-08
1.53007e-09
1.0631e-08
1.48109e-09
1.00407e-08
1.43767e-09
9.45007e-09
1.3992e-09
8.85842e-09
1.36495e-09
8.26621e-09
1.33406e-09
7.67324e-09
1.30698e-09
7.07965e-09
1.28299e-09
6.48571e-09
1.26172e-09
5.89164e-09
1.24306e-09
5.29771e-09
1.22674e-09
4.70418e-09
1.21258e-09
4.11127e-09
1.20042e-09
3.51919e-09
1.19009e-09
2.9282e-09
1.18147e-09
2.33853e-09
1.17442e-09
1.75084e-09
1.16887e-09
1.16621e-09
1.16474e-09
5.85058e-10
1.162e-09
1.16067e-09
4.0769e-09
5.12582e-08
8.06535e-09
5.08202e-08
1.18709e-08
4.99606e-08
1.54238e-08
4.87189e-08
1.86705e-08
4.71459e-08
2.15752e-08
4.53e-08
2.41189e-08
4.32422e-08
2.62979e-08
4.10324e-08
2.81202e-08
3.87261e-08
2.96028e-08
3.63725e-08
3.07689e-08
3.40133e-08
3.16451e-08
3.16833e-08
3.226e-08
2.94099e-08
3.26424e-08
2.72144e-08
3.28206e-08
2.51126e-08
3.28215e-08
2.31157e-08
3.26707e-08
2.1231e-08
3.23914e-08
1.94624e-08
3.20051e-08
1.78115e-08
3.15308e-08
1.62777e-08
3.09857e-08
1.48584e-08
3.03843e-08
1.355e-08
2.97392e-08
1.23478e-08
2.90615e-08
1.12464e-08
2.83595e-08
1.02395e-08
2.76408e-08
9.32144e-09
2.69114e-08
8.48578e-09
2.61761e-08
7.72651e-09
2.54387e-08
7.03773e-09
2.47024e-08
6.41376e-09
2.39698e-08
5.84934e-09
2.3243e-08
5.33961e-09
2.25237e-08
4.87996e-09
2.18133e-08
4.46618e-09
2.11128e-08
4.09435e-09
2.04231e-08
3.76087e-09
1.97447e-08
3.46241e-09
1.90778e-08
3.19586e-09
1.84224e-08
2.9583e-09
1.77782e-08
2.74702e-09
1.71446e-08
2.5595e-09
1.6521e-08
2.39336e-09
1.59063e-08
2.24636e-09
1.52994e-08
2.11646e-09
1.46992e-08
2.00177e-09
1.41044e-08
1.90058e-09
1.35139e-08
1.81113e-09
1.29263e-08
1.73204e-09
1.23408e-08
1.66202e-09
1.17563e-08
1.6e-09
1.11719e-08
1.54505e-09
1.05873e-08
1.49593e-09
1.00019e-08
1.45242e-09
9.41538e-09
1.41378e-09
8.82787e-09
1.379e-09
8.239e-09
1.3479e-09
7.6491e-09
1.32036e-09
7.05835e-09
1.29589e-09
6.46697e-09
1.27415e-09
5.87525e-09
1.25501e-09
5.28349e-09
1.23822e-09
4.69195e-09
1.22361e-09
4.1009e-09
1.21103e-09
3.51053e-09
1.20033e-09
2.92112e-09
1.19135e-09
2.33296e-09
1.18402e-09
1.7467e-09
1.17824e-09
1.16345e-09
1.17392e-09
5.83687e-10
1.17106e-09
1.16967e-09
3.64295e-09
4.69648e-08
7.21725e-09
4.65975e-08
1.06447e-08
4.58745e-08
1.38685e-08
4.48254e-08
1.6843e-08
4.34886e-08
1.95354e-08
4.19093e-08
2.19258e-08
4.01354e-08
2.40062e-08
3.82154e-08
2.57788e-08
3.61952e-08
2.72537e-08
3.41165e-08
2.84467e-08
3.20164e-08
2.93776e-08
2.99261e-08
3.00687e-08
2.78716e-08
3.05433e-08
2.58739e-08
3.08252e-08
2.39492e-08
3.09374e-08
2.21096e-08
3.0902e-08
2.03637e-08
3.07398e-08
1.87171e-08
3.04701e-08
1.71728e-08
3.01102e-08
1.57315e-08
2.96758e-08
1.43923e-08
2.91804e-08
1.3153e-08
2.86361e-08
1.201e-08
2.8053e-08
1.09589e-08
2.74398e-08
9.99507e-09
2.68036e-08
9.11353e-09
2.61507e-08
8.30862e-09
2.54859e-08
7.57544e-09
2.48134e-08
6.90869e-09
2.41368e-08
6.30338e-09
2.3459e-08
5.75483e-09
2.27823e-08
5.25859e-09
2.2109e-08
4.81053e-09
2.14406e-08
4.40676e-09
2.07785e-08
4.04357e-09
2.01239e-08
3.71768e-09
1.94775e-08
3.42588e-09
1.88396e-08
3.16521e-09
1.82105e-08
2.93284e-09
1.75901e-08
2.72618e-09
1.6978e-08
2.54272e-09
1.63735e-08
2.3802e-09
1.57759e-08
2.23632e-09