/*--------------------------------*- C++ -*----------------------------------*\
| =========                 |                                                 |
| \\      /  F ield         | OpenFOAM: The Open Source CFD Toolbox           |
|  \\    /   O peration     | Version:  v1606+                                |
|   \\  /    A nd           | Web:      www.OpenFOAM.com                      |
|    \\/     M anipulation  |                                                 |
\*---------------------------------------------------------------------------*/
FoamFile
{
    version     2.0;
    format      ascii;
    class       volVectorField;
    location    "0.46";
    object      U;
}
// * * * * * * * * * * * * * * * * * * * * * * * * * * * * * * * * * * * * * //

dimensions      [0 1 -1 0 0 0 0];

internalField   nonuniform List<vector> 
6000
(
(-0.0187078 -0.0471568 0)
(-0.0183198 -0.116526 0)
(-0.00918693 -0.103755 0)
(0.00617353 -0.0804656 0)
(0.0206959 -0.0660516 0)
(0.0408949 -0.0536995 0)
(0.0615994 -0.0438116 0)
(0.080163 -0.0415775 0)
(0.0917509 -0.0411898 0)
(0.0943316 -0.0477396 0)
(0.0882406 -0.0551192 0)
(0.0740045 -0.0589231 0)
(0.0533244 -0.0603862 0)
(0.03002 -0.0631441 0)
(0.00807053 -0.0637969 0)
(-0.0128368 -0.0630881 0)
(-0.0351076 -0.0624105 0)
(-0.0572832 -0.0611192 0)
(-0.0763229 -0.0597795 0)
(-0.0900294 -0.0551199 0)
(-0.095578 -0.0469869 0)
(-0.091834 -0.0414463 0)
(-0.0791272 -0.0411157 0)
(-0.0598419 -0.0442943 0)
(-0.0391381 -0.0538493 0)
(-0.0201211 -0.0645259 0)
(-0.00475036 -0.0815422 0)
(0.0118708 -0.100778 0)
(0.0203001 -0.113072 0)
(0.0199574 -0.0484688 0)
(0.0279481 0.658522 0)
(-0.004703 0.668742 0)
(-0.0325438 0.642393 0)
(-0.0359806 0.62708 0)
(-0.0130718 0.603344 0)
(0.0225447 0.590451 0)
(0.0665175 0.585295 0)
(0.108769 0.592448 0)
(0.14229 0.605442 0)
(0.155842 0.623637 0)
(0.149142 0.644609 0)
(0.122897 0.662871 0)
(0.087742 0.67203 0)
(0.0508537 0.67408 0)
(0.0145569 0.667316 0)
(-0.0208191 0.666916 0)
(-0.0566756 0.672481 0)
(-0.0929077 0.670342 0)
(-0.127306 0.661456 0)
(-0.152156 0.643476 0)
(-0.156854 0.621389 0)
(-0.141996 0.602059 0)
(-0.107894 0.590081 0)
(-0.0646255 0.585198 0)
(-0.0206715 0.591132 0)
(0.0150734 0.60364 0)
(0.0373803 0.626044 0)
(0.0332126 0.639557 0)
(0.00570683 0.671524 0)
(-0.0270716 0.657169 0)
(-0.0173725 0.483358 0)
(-0.0338957 0.507278 0)
(-0.0565227 0.470138 0)
(-0.0565307 0.437421 0)
(-0.0232723 0.407254 0)
(0.0203061 0.390206 0)
(0.0697004 0.388249 0)
(0.115146 0.40221 0)
(0.151625 0.43691 0)
(0.169694 0.481012 0)
(0.165485 0.523887 0)
(0.136536 0.556712 0)
(0.0945531 0.568597 0)
(0.0538127 0.567891 0)
(0.0157983 0.564185 0)
(-0.0221537 0.564461 0)
(-0.0598951 0.567262 0)
(-0.100523 0.566004 0)
(-0.141672 0.553232 0)
(-0.167985 0.520065 0)
(-0.170053 0.477769 0)
(-0.150887 0.435227 0)
(-0.113896 0.400632 0)
(-0.0674186 0.386508 0)
(-0.0173186 0.390914 0)
(0.0264554 0.408034 0)
(0.0594904 0.437031 0)
(0.0586487 0.468855 0)
(0.0357722 0.510402 0)
(0.0180362 0.487202 0)
(-0.0254838 0.565917 0)
(-0.0587937 0.56199 0)
(-0.0758197 0.525636 0)
(-0.0495475 0.453802 0)
(-0.0100768 0.412967 0)
(0.0324669 0.38638 0)
(0.0742568 0.379412 0)
(0.110537 0.402131 0)
(0.137439 0.444362 0)
(0.151825 0.503179 0)
(0.148285 0.56961 0)
(0.122125 0.625028 0)
(0.0811709 0.640971 0)
(0.0430602 0.635964 0)
(0.0113391 0.628522 0)
(-0.0180655 0.628583 0)
(-0.0491823 0.634556 0)
(-0.0869579 0.638844 0)
(-0.126849 0.619382 0)
(-0.150372 0.563163 0)
(-0.15178 0.497953 0)
(-0.135793 0.440161 0)
(-0.107669 0.398526 0)
(-0.0710572 0.377155 0)
(-0.0290406 0.385886 0)
(0.0143655 0.41283 0)
(0.0543648 0.453851 0)
(0.079784 0.526536 0)
(0.0609159 0.5657 0)
(0.0258841 0.568779 0)
(-0.0337116 0.610236 0)
(-0.0618075 0.597071 0)
(-0.0386587 0.511142 0)
(-0.0133125 0.399336 0)
(0.0155139 0.35582 0)
(0.0389767 0.330208 0)
(0.0623235 0.326195 0)
(0.0862071 0.353476 0)
(0.106465 0.405028 0)
(0.118078 0.478764 0)
(0.117603 0.56952 0)
(0.0904174 0.657715 0)
(0.0536618 0.676452 0)
(0.0242651 0.661211 0)
(0.00478782 0.643494 0)
(-0.0106943 0.643303 0)
(-0.0298106 0.659 0)
(-0.0586284 0.67371 0)
(-0.094103 0.649943 0)
(-0.119323 0.560699 0)
(-0.117738 0.47191 0)
(-0.104751 0.3998 0)
(-0.0837219 0.350061 0)
(-0.0597668 0.325179 0)
(-0.0363216 0.330397 0)
(-0.0125658 0.355615 0)
(0.0171038 0.397881 0)
(0.0443621 0.511748 0)
(0.0670134 0.603145 0)
(0.0358139 0.614076 0)
(-0.0109963 0.684181 0)
(-0.00765669 0.584419 0)
(0.0164519 0.452162 0)
(0.0264383 0.37906 0)
(0.028322 0.342373 0)
(0.0358281 0.316302 0)
(0.0480802 0.312131 0)
(0.0626079 0.337419 0)
(0.0782673 0.39056 0)
(0.0884251 0.468372 0)
(0.0847388 0.566392 0)
(0.0633421 0.667391 0)
(0.0323604 0.69163 0)
(0.0115239 0.670511 0)
(0.000821438 0.645813 0)
(-0.00582375 0.645592 0)
(-0.0167047 0.668394 0)
(-0.0373979 0.687794 0)
(-0.0672265 0.657796 0)
(-0.0870226 0.556836 0)
(-0.0887469 0.460405 0)
(-0.0768993 0.384275 0)
(-0.0610032 0.333522 0)
(-0.0461786 0.310221 0)
(-0.0334765 0.315812 0)
(-0.0261323 0.342129 0)
(-0.0245002 0.37765 0)
(-0.0143484 0.452594 0)
(0.0137788 0.591091 0)
(0.0153 0.694507 0)
(0.0562427 0.667684 0)
(0.0565535 0.524077 0)
(0.0606273 0.442117 0)
(0.0448443 0.390641 0)
(0.0310844 0.348607 0)
(0.0292749 0.315899 0)
(0.0372173 0.307465 0)
(0.0475677 0.33061 0)
(0.0601082 0.386145 0)
(0.0775017 0.476978 0)
(0.0771265 0.597418 0)
(0.0496481 0.694559 0)
(0.0157988 0.705741 0)
(0.000845093 0.675591 0)
(-0.00243033 0.646493 0)
(-0.00231979 0.646279 0)
(-0.0062439 0.673811 0)
(-0.0217741 0.70122 0)
(-0.0549365 0.684555 0)
(-0.0787083 0.584358 0)
(-0.0767069 0.464569 0)
(-0.0595908 0.378044 0)
(-0.0468854 0.325982 0)
(-0.0353901 0.305084 0)
(-0.0277262 0.314893 0)
(-0.030137 0.348273 0)
(-0.0447036 0.389172 0)
(-0.0609726 0.442025 0)
(-0.0562138 0.527235 0)
(-0.052843 0.687257 0)
(0.0762568 0.579656 0)
(0.0829363 0.503607 0)
(0.0694134 0.475488 0)
(0.039462 0.423735 0)
(0.0211828 0.364154 0)
(0.0158482 0.316575 0)
(0.025279 0.302194 0)
(0.0402273 0.337585 0)
(0.0469983 0.387075 0)
(0.0662078 0.464294 0)
(0.0925148 0.62026 0)
(0.0851899 0.748222 0)
(0.0328251 0.749676 0)
(0.00987492 0.701547 0)
(0.00097375 0.659344 0)
(-0.00574686 0.659875 0)
(-0.0156507 0.701482 0)
(-0.040432 0.747377 0)
(-0.0914443 0.73839 0)
(-0.0891405 0.60552 0)
(-0.0661177 0.457542 0)
(-0.0504316 0.381489 0)
(-0.0392909 0.329611 0)
(-0.0210036 0.29756 0)
(-0.0153864 0.316809 0)
(-0.02079 0.365705 0)
(-0.0411823 0.423028 0)
(-0.0720314 0.474122 0)
(-0.0863313 0.505074 0)
(-0.0799861 0.595892 0)
(0.0438143 0.488192 0)
(0.0606192 0.525876 0)
(0.0379586 0.5077 0)
(0.00968166 0.447679 0)
(-0.00719955 0.371364 0)
(-0.00316883 0.321481 0)
(-0.0169619 0.290821 0)
(-0.0129894 0.28101 0)
(0.0277935 0.2873 0)
(0.11188 0.337949 0)
(0.181635 0.496136 0)
(0.208913 0.739122 0)
(0.140143 0.728068 0)
(0.0615543 0.637627 0)
(0.0127224 0.596312 0)
(-0.0214935 0.597633 0)
(-0.0723363 0.638896 0)
(-0.154749 0.723677 0)
(-0.217123 0.713757 0)
(-0.178188 0.468137 0)
(-0.102269 0.338294 0)
(-0.0255504 0.284432 0)
(0.0133433 0.280998 0)
(0.0131493 0.293983 0)
(0.00250907 0.318441 0)
(0.00845799 0.373971 0)
(-0.0124632 0.448494 0)
(-0.0415328 0.509052 0)
(-0.0660239 0.527906 0)
(-0.047953 0.497165 0)
(0.0225909 0.457736 0)
(0.0345151 0.535125 0)
(0.00933547 0.529926 0)
(-0.0276555 0.483609 0)
(-0.0758672 0.398125 0)
(-0.126533 0.308194 0)
(-0.192701 0.291102 0)
(-0.178354 0.287495 0)
(-0.105535 0.270885 0)
(0.0219302 0.346074 0)
(0.188936 0.591294 0)
(0.324611 0.868059 0)
(0.320788 1.00906 0)
(0.183232 0.916033 0)
(0.0511953 0.824607 0)
(-0.0722587 0.827361 0)
(-0.205819 0.917305 0)
(-0.347134 1.00665 0)
(-0.333878 0.828951 0)
(-0.186984 0.553694 0)
(-0.0171537 0.336048 0)
(0.104245 0.267562 0)
(0.17224 0.278932 0)
(0.171059 0.283813 0)
(0.111924 0.314207 0)
(0.0660429 0.406096 0)
(0.0227428 0.480869 0)
(-0.0114541 0.532418 0)
(-0.0371468 0.539059 0)
(-0.0248996 0.463097 0)
(0.0227156 0.405976 0)
(0.0412042 0.573838 0)
(-0.0711668 0.597259 0)
(-0.205932 0.518821 0)
(-0.369694 0.445194 0)
(-0.470024 0.403673 0)
(-0.476081 0.336582 0)
(-0.399566 0.22942 0)
(-0.303306 0.128207 0)
(-0.197992 0.128103 0)
(-0.0176838 0.287533 0)
(0.206842 0.664049 0)
(0.302599 0.995167 0)
(0.198722 0.983242 0)
(0.0624562 0.943764 0)
(-0.0875622 0.947199 0)
(-0.224374 0.989022 0)
(-0.325869 0.990814 0)
(-0.204498 0.607337 0)
(0.0220512 0.248332 0)
(0.202064 0.125423 0)
(0.309035 0.139305 0)
(0.401309 0.23865 0)
(0.465487 0.342847 0)
(0.442724 0.394418 0)
(0.323939 0.439161 0)
(0.177887 0.517494 0)
(0.0524625 0.601783 0)
(-0.0438466 0.57249 0)
(-0.0252873 0.411288 0)
(-0.0133682 0.365662 0)
(-0.0617391 0.664278 0)
(-0.39865 0.75568 0)
(-0.659796 0.769326 0)
(-0.754247 0.613096 0)
(-0.669962 0.409859 0)
(-0.554411 0.231842 0)
(-0.446792 0.112381 0)
(-0.365045 0.0354536 0)
(-0.303442 0.0174291 0)
(-0.186619 0.0642443 0)
(0.000657434 0.463845 0)
(0.191682 0.966721 0)
(0.144931 1.03521 0)
(0.0417025 1.02261 0)
(-0.0621363 1.0243 0)
(-0.164334 1.03757 0)
(-0.195016 0.945033 0)
(0.010183 0.390357 0)
(0.183771 0.0342986 0)
(0.2987 0.00922011 0)
(0.368232 0.0396154 0)
(0.455827 0.123238 0)
(0.563956 0.253086 0)
(0.678558 0.440782 0)
(0.737304 0.6092 0)
(0.621612 0.738879 0)
(0.361054 0.737299 0)
(0.0244205 0.658763 0)
(-0.001648 0.358795 0)
(-0.136355 0.438029 0)
(-0.362909 1.00729 0)
(-0.728584 1.26105 0)
(-0.859511 0.911963 0)
(-0.763022 0.483849 0)
(-0.615419 0.255801 0)
(-0.507362 0.117121 0)
(-0.429461 0.03261 0)
(-0.372714 -0.0186328 0)
(-0.330235 -0.0375256 0)
(-0.25116 -0.0451472 0)
(-0.15912 0.210019 0)
(0.0588451 0.899144 0)
(0.106446 1.10063 0)
(0.024518 1.11329 0)
(-0.0387118 1.11229 0)
(-0.114519 1.09075 0)
(-0.0401863 0.844262 0)
(0.16448 0.148376 0)
(0.249295 -0.0605093 0)
(0.319829 -0.0489546 0)
(0.367219 -0.0236536 0)
(0.431725 0.0363196 0)
(0.517478 0.132257 0)
(0.638342 0.282488 0)
(0.783993 0.507754 0)
(0.862277 0.936991 0)
(0.709646 1.24029 0)
(0.318409 0.964074 0)
(0.116258 0.402109 0)
(-0.229251 0.780556 0)
(-0.536844 1.28906 0)
(-0.694157 1.39318 0)
(-0.697477 0.854709 0)
(-0.605401 0.328432 0)
(-0.513378 0.145875 0)
(-0.442153 0.0443094 0)
(-0.392342 -0.0174158 0)
(-0.347751 -0.0623029 0)
(-0.313494 -0.0790705 0)
(-0.277694 -0.0795929 0)
(-0.241192 0.0686499 0)
(-0.103194 0.707652 0)
(0.054499 1.13092 0)
(0.0041798 1.16857 0)
(-0.026411 1.16542 0)
(-0.0731178 1.11151 0)
(0.125241 0.669344 0)
(0.248243 0.0316659 0)
(0.280936 -0.0845809 0)
(0.304196 -0.0882236 0)
(0.33861 -0.0709774 0)
(0.387664 -0.0219919 0)
(0.445756 0.0487391 0)
(0.529069 0.160006 0)
(0.624669 0.354691 0)
(0.71047 0.896074 0)
(0.690594 1.39326 0)
(0.533667 1.35229 0)
(0.209046 0.687356 0)
(-0.185034 1.24875 0)
(-0.398188 1.40104 0)
(-0.450736 1.41525 0)
(-0.472746 0.842105 0)
(-0.440788 0.238669 0)
(-0.40802 0.083969 0)
(-0.363447 -0.00510311 0)
(-0.331779 -0.0556655 0)
(-0.304506 -0.0933329 0)
(-0.28226 -0.0995885 0)
(-0.276114 -0.0748716 0)
(-0.244246 0.0156653 0)
(-0.227861 0.524094 0)
(-0.0306862 1.1187 0)
(-0.0161167 1.19634 0)
(-0.0130205 1.19788 0)
(0.0117725 1.0805 0)
(0.222994 0.418861 0)
(0.228563 -0.00995389 0)
(0.271448 -0.0770475 0)
(0.272991 -0.105616 0)
(0.295583 -0.103085 0)
(0.32583 -0.0655012 0)
(0.361975 -0.00919717 0)
(0.414293 0.0881763 0)
(0.444951 0.265135 0)
(0.474991 0.89952 0)
(0.434495 1.40373 0)
(0.405691 1.40207 0)
(0.202054 1.16354 0)
(-0.0429978 1.38802 0)
(-0.142649 1.46221 0)
(-0.162649 1.46069 0)
(-0.261032 0.898687 0)
(-0.276673 0.202679 0)
(-0.296015 0.0561038 0)
(-0.276476 -0.0282437 0)
(-0.267132 -0.0769031 0)
(-0.257649 -0.109682 0)
(-0.240815 -0.113304 0)
(-0.225377 -0.0798683 0)
(-0.20793 0.0196767 0)
(-0.24495 0.385418 0)
(-0.146228 1.07113 0)
(-0.0187934 1.17394 0)
(0.0126172 1.17558 0)
(0.162637 1.00734 0)
(0.219768 0.29587 0)
(0.198066 0.00171868 0)
(0.211533 -0.0901103 0)
(0.231977 -0.12153 0)
(0.249559 -0.121247 0)
(0.259512 -0.0883161 0)
(0.271929 -0.0346887 0)
(0.288522 0.0560823 0)
(0.273773 0.237282 0)
(0.249106 0.964967 0)
(0.151899 1.44711 0)
(0.154089 1.45154 0)
(0.060931 1.33671 0)
(0.00872217 1.41361 0)
(0.00334935 1.48361 0)
(0.0626447 1.4986 0)
(0.0137124 1.07906 0)
(-0.115093 0.263334 0)
(-0.143265 0.0511414 0)
(-0.175693 -0.0164281 0)
(-0.206306 -0.0713246 0)
(-0.209889 -0.116032 0)
(-0.195514 -0.129045 0)
(-0.181261 -0.0818762 0)
(-0.205265 0.0645365 0)
(-0.232686 0.334368 0)
(-0.24595 0.884201 0)
(-0.040014 1.08535 0)
(0.0558452 1.07385 0)
(0.271623 0.826688 0)
(0.234464 0.290404 0)
(0.199567 0.0448296 0)
(0.175301 -0.094435 0)
(0.190226 -0.13897 0)
(0.205488 -0.128148 0)
(0.19862 -0.0812393 0)
(0.164804 -0.0255304 0)
(0.126654 0.0516322 0)
(0.0886674 0.317596 0)
(-0.0424803 1.14058 0)
(-0.0650158 1.48308 0)
(0.0123028 1.45458 0)
(0.00695522 1.37483 0)
(0.0215597 1.4532 0)
(0.0907036 1.45948 0)
(0.229267 1.48551 0)
(0.308707 1.14054 0)
(0.200567 0.432808 0)
(0.0599811 0.130208 0)
(-0.0817852 0.056593 0)
(-0.173094 -0.0517365 0)
(-0.183699 -0.118325 0)
(-0.168794 -0.14552 0)
(-0.140714 -0.0896524 0)
(-0.172916 0.135427 0)
(-0.250779 0.395346 0)
(-0.235979 0.715173 0)
(-0.0542871 0.879948 0)
(0.0772867 0.856788 0)
(0.245409 0.665054 0)
(0.247548 0.366944 0)
(0.167528 0.114735 0)
(0.138666 -0.103653 0)
(0.167936 -0.155617 0)
(0.184869 -0.129844 0)
(0.170703 -0.0543544 0)
(0.0612726 0.057618 0)
(-0.0929691 0.14533 0)
(-0.243124 0.490675 0)
(-0.32682 1.15929 0)
(-0.212485 1.43411 0)
(-0.0709697 1.41007 0)
(-0.011457 1.43612 0)
(0.0341881 1.33788 0)
(0.132094 1.28359 0)
(0.30782 1.29011 0)
(0.492132 1.05277 0)
(0.460066 0.520673 0)
(0.308108 0.239413 0)
(0.00848424 0.22345 0)
(-0.181953 0.00961541 0)
(-0.181593 -0.120224 0)
(-0.135011 -0.1774 0)
(-0.0799393 -0.120925 0)
(-0.105274 0.19048 0)
(-0.167499 0.4048 0)
(-0.112353 0.486421 0)
(-0.0458164 0.607508 0)
(0.0647943 0.593744 0)
(0.122442 0.466427 0)
(0.164421 0.383426 0)
(0.0983252 0.163932 0)
(0.081498 -0.139447 0)
(0.138715 -0.188122 0)
(0.187231 -0.135558 0)
(0.200388 0.0164464 0)
(-0.0127495 0.246359 0)
(-0.337015 0.247283 0)
(-0.479453 0.553725 0)
(-0.485596 1.03501 0)
(-0.286036 1.23013 0)
(-0.125093 1.24584 0)
(-0.0374851 1.32746 0)
(0.0661491 1.21645 0)
(0.19783 1.08784 0)
(0.356158 0.997442 0)
(0.533036 0.825875 0)
(0.512725 0.569601 0)
(0.252816 0.601939 0)
(-0.1585 0.682592 0)
(-0.384196 0.139521 0)
(-0.277508 -0.142924 0)
(-0.156619 -0.259443 0)
(-0.0883049 -0.143933 0)
(-0.0226864 0.26631 0)
(-0.0172876 0.524006 0)
(-0.0523961 0.710924 0)
(-0.0284857 0.757705 0)
(0.0429404 0.754944 0)
(0.0561582 0.692948 0)
(0.0149625 0.518832 0)
(0.0297981 0.225061 0)
(0.102913 -0.159852 0)
(0.176703 -0.266311 0)
(0.294352 -0.170123 0)
(0.37514 0.129851 0)
(0.174928 0.75103 0)
(-0.245932 0.660425 0)
(-0.502251 0.592717 0)
(-0.527503 0.799086 0)
(-0.360756 0.952973 0)
(-0.200562 1.08428 0)
(-0.0710534 1.19901 0)
(0.10936 1.01242 0)
(0.254795 0.889919 0)
(0.330967 0.906388 0)
(0.315632 0.821516 0)
(0.164896 0.993838 0)
(-0.169273 1.04522 0)
(-0.381089 0.854448 0)
(-0.538226 0.258762 0)
(-0.491249 -0.309228 0)
(-0.400018 -0.439145 0)
(-0.330638 -0.275055 0)
(-0.197455 0.179021 0)
(-0.0680921 0.518018 0)
(-0.036436 0.702687 0)
(-0.0146683 0.732526 0)
(0.016941 0.726961 0)
(0.0351745 0.686105 0)
(0.0706496 0.490894 0)
(0.204001 0.12577 0)
(0.333163 -0.314625 0)
(0.406596 -0.449406 0)
(0.502998 -0.291812 0)
(0.520834 0.26903 0)
(0.373352 0.861541 0)
(0.196598 1.05222 0)
(-0.117206 1.02187 0)
(-0.288993 0.86049 0)
(-0.304267 0.816426 0)
(-0.249368 0.878402 0)
(-0.105866 0.992295 0)
(0.0683901 0.855676 0)
(0.119181 0.992079 0)
(0.0500005 1.12732 0)
(-0.115703 1.14844 0)
(-0.297651 1.16206 0)
(-0.39113 1.09184 0)
(-0.404673 0.85854 0)
(-0.466334 0.301031 0)
(-0.462511 -0.275525 0)
(-0.44277 -0.447964 0)
(-0.385948 -0.381615 0)
(-0.277996 -0.0393 0)
(-0.141716 0.362699 0)
(-0.0688873 0.584347 0)
(-0.0223574 0.609852 0)
(0.0220192 0.606929 0)
(0.068789 0.57286 0)
(0.145382 0.336178 0)
(0.279121 -0.0798559 0)
(0.379499 -0.408203 0)
(0.432006 -0.45849 0)
(0.456974 -0.262615 0)
(0.45096 0.309878 0)
(0.396671 0.859121 0)
(0.402921 1.08822 0)
(0.325446 1.16112 0)
(0.169708 1.15385 0)
(-0.0141353 1.12555 0)
(-0.111918 1.0046 0)
(-0.0616446 0.857438 0)
(-0.0544414 0.98308 0)
(-0.172621 1.09188 0)
(-0.27051 1.17184 0)
(-0.350409 1.17986 0)
(-0.403017 1.17993 0)
(-0.395739 1.09045 0)
(-0.34824 0.838177 0)
(-0.356245 0.322818 0)
(-0.373622 -0.258742 0)
(-0.350764 -0.494631 0)
(-0.314142 -0.476403 0)
(-0.263475 -0.150186 0)
(-0.169917 0.278177 0)
(-0.0926091 0.525097 0)
(-0.0299113 0.555784 0)
(0.0284671 0.55172 0)
(0.0923267 0.512635 0)
(0.171048 0.25095 0)
(0.260997 -0.185531 0)
(0.304088 -0.498374 0)
(0.338482 -0.499778 0)
(0.363236 -0.244477 0)
(0.339339 0.329449 0)
(0.34142 0.828833 0)
(0.39989 1.0775 0)
(0.413329 1.17144 0)
(0.37227 1.17491 0)
(0.290779 1.15083 0)
(0.188622 1.08804 0)
(0.0661506 0.983102 0)
(-0.0936491 1.04509 0)
(-0.222944 1.14457 0)
(-0.304131 1.20352 0)
(-0.352908 1.21215 0)
(-0.372618 1.18139 0)
(-0.338397 1.04941 0)
(-0.264832 0.780615 0)
(-0.248547 0.33199 0)
(-0.276729 -0.219444 0)
(-0.251045 -0.506638 0)
(-0.235768 -0.519298 0)
(-0.225547 -0.215808 0)
(-0.167362 0.212269 0)
(-0.0986243 0.459434 0)
(-0.0322954 0.492883 0)
(0.029627 0.488234 0)
(0.0966082 0.446345 0)
(0.165819 0.18605 0)
(0.220434 -0.247999 0)
(0.224888 -0.536743 0)
(0.238786 -0.509168 0)
(0.265455 -0.203107 0)
(0.233713 0.33278 0)
(0.259141 0.76276 0)
(0.338655 1.02601 0)
(0.379049 1.16732 0)
(0.366606 1.20804 0)
(0.315388 1.19816 0)
(0.231528 1.1481 0)
(0.101781 1.06124 0)
(-0.0868199 1.20414 0)
(-0.194958 1.24685 0)
(-0.26542 1.26515 0)
(-0.307129 1.24471 0)
(-0.309433 1.16263 0)
(-0.26237 0.987539 0)
(-0.191076 0.719296 0)
(-0.159623 0.324076 0)
(-0.189371 -0.190247 0)
(-0.169794 -0.511349 0)
(-0.16914 -0.537422 0)
(-0.18482 -0.251995 0)
(-0.151474 0.164995 0)
(-0.0937587 0.398777 0)
(-0.0313328 0.431576 0)
(0.0273508 0.426762 0)
(0.0901028 0.385761 0)
(0.148322 0.139505 0)
(0.178836 -0.281263 0)
(0.158321 -0.55034 0)
(0.15992 -0.510049 0)
(0.177674 -0.175501 0)
(0.14757 0.319406 0)
(0.186467 0.697447 0)
(0.260531 0.961583 0)
(0.311344 1.14284 0)
(0.315055 1.23606 0)
(0.271906 1.26229 0)
(0.200756 1.25248 0)
(0.091163 1.23032 0)
(-0.0716664 1.33016 0)
(-0.156204 1.32961 0)
(-0.213702 1.31688 0)
(-0.249695 1.26457 0)
(-0.238295 1.13575 0)
(-0.190387 0.9313 0)
(-0.12811 0.662577 0)
(-0.0872929 0.303558 0)
(-0.115136 -0.161193 0)
(-0.105828 -0.496431 0)
(-0.115449 -0.533919 0)
(-0.146887 -0.263763 0)
(-0.130317 0.132876 0)
(-0.0834432 0.345027 0)
(-0.0284998 0.374704 0)
(0.0233382 0.369685 0)
(0.0785236 0.331722 0)
(0.126035 0.107793 0)
(0.140502 -0.290782 0)
(0.105131 -0.544134 0)
(0.0972444 -0.492711 0)
(0.103765 -0.148344 0)
(0.0785217 0.293885 0)
(0.12408 0.63802 0)
(0.186986 0.902315 0)
(0.237214 1.11206 0)
(0.253619 1.2528 0)
(0.219383 1.31556 0)
(0.161208 1.33549 0)
(0.0730502 1.35802 0)
(-0.060518 1.43327 0)
(-0.130658 1.39071 0)
(-0.172332 1.36166 0)
(-0.193549 1.27086 0)
(-0.169706 1.10149 0)
(-0.124703 0.880297 0)
(-0.0721036 0.6111 0)
(-0.0314805 0.27924 0)
(-0.0527455 -0.134247 0)
(-0.0486726 -0.477267 0)
(-0.0672759 -0.521184 0)
(-0.108966 -0.261316 0)
(-0.103974 0.113164 0)
(-0.0682763 0.300832 0)
(-0.0238636 0.327015 0)
(0.0177933 0.321959 0)
(0.0622361 0.287331 0)
(0.0986786 0.0879875 0)
(0.102582 -0.28718 0)
(0.0578583 -0.52889 0)
(0.04097 -0.470852 0)
(0.042808 -0.124585 0)
(0.0256812 0.266719 0)
(0.0687462 0.586219 0)
(0.120694 0.850438 0)
(0.166346 1.07479 0)
(0.193765 1.25471 0)
(0.177091 1.35933 0)
(0.135877 1.39897 0)
(0.0613694 1.46483 0)
(-0.0541636 1.52338 0)
(-0.118307 1.43696 0)
(-0.139523 1.3886 0)
(-0.139473 1.26018 0)
(-0.107361 1.06605 0)
(-0.0661679 0.835361 0)
(-0.0227099 0.569242 0)
(0.0131938 0.257205 0)
(-0.000226162 -0.116806 0)
(-0.000937693 -0.44897 0)
(-0.0275842 -0.498447 0)
(-0.074387 -0.248296 0)
(-0.0751953 0.101887 0)
(-0.0498563 0.26644 0)
(-0.0179668 0.289861 0)
(0.0114532 0.284994 0)
(0.0430253 0.252907 0)
(0.0690509 0.0762136 0)
(0.0680371 -0.273396 0)
(0.0195693 -0.503561 0)
(-0.00527627 -0.440568 0)
(-0.00863395 -0.113265 0)
(-0.017571 0.242081 0)
(0.0193659 0.544142 0)
(0.0624131 0.806127 0)
(0.103123 1.03838 0)
(0.136667 1.23985 0)
(0.141692 1.38177 0)
(0.122623 1.44723 0)
(0.0560379 1.55785 0)
(-0.0549734 1.61 0)
(-0.112221 1.46962 0)
(-0.111343 1.38886 0)
(-0.0907846 1.2354 0)
(-0.0534621 1.02837 0)
(-0.0153181 0.795959 0)
(0.0228838 0.532976 0)
(0.0523254 0.236162 0)
(0.0440601 -0.106722 0)
(0.0391499 -0.416282 0)
(0.00504378 -0.467919 0)
(-0.0416711 -0.228833 0)
(-0.0437449 0.0981927 0)
(-0.0289202 0.245213 0)
(-0.0110607 0.266919 0)
(0.00483916 0.262466 0)
(0.0221958 0.231988 0)
(0.0375757 0.0716773 0)
(0.0343894 -0.254993 0)
(-0.0130581 -0.471354 0)
(-0.0459061 -0.40809 0)
(-0.0521199 -0.104551 0)
(-0.0563336 0.220382 0)
(-0.0255125 0.507523 0)
(0.0122496 0.766781 0)
(0.0496862 1.00075 0)
(0.0870172 1.21312 0)
(0.110431 1.37719 0)
(0.115022 1.4788 0)
(0.0570346 1.6476 0)
(-0.0538156 1.69584 0)
(-0.103503 1.48833 0)
(-0.0821259 1.37009 0)
(-0.0478106 1.20016 0)
(-0.00659895 0.990891 0)
(0.0302163 0.759747 0)
(0.0641357 0.502353 0)
(0.0887444 0.222134 0)
(0.0828304 -0.0952153 0)
(0.075226 -0.383941 0)
(0.0336514 -0.432418 0)
(-0.00999857 -0.213428 0)
(-0.0146517 0.0973395 0)
(-0.00955914 0.235473 0)
(-0.00431181 0.256588 0)
(-0.000492069 0.252375 0)
(0.0046412 0.222352 0)
(0.0102644 0.0700499 0)
(0.00271896 -0.238355 0)
(-0.0427677 -0.434975 0)
(-0.0822033 -0.375501 0)
(-0.0899348 -0.0970808 0)
(-0.0918664 0.203292 0)
(-0.0662344 0.476712 0)
(-0.0323232 0.731508 0)
(0.00342846 0.963945 0)
(0.0439211 1.17741 0)
(0.0781765 1.35618 0)
(0.102758 1.49563 0)
(0.0541148 1.73513 0)
(-0.0504678 1.77372 0)
(-0.0898579 1.48994 0)
(-0.0495557 1.33601 0)
(-0.00693387 1.15743 0)
(0.0367274 0.951527 0)
(0.0721278 0.725739 0)
(0.102823 0.475301 0)
(0.122512 0.207777 0)
(0.116253 -0.0848069 0)
(0.10551 -0.350108 0)
(0.0589875 -0.391072 0)
(0.0179703 -0.194169 0)
(0.00694005 0.103243 0)
(0.00342041 0.236255 0)
(0.000826212 0.257495 0)
(-0.00365741 0.253697 0)
(-0.00569041 0.222976 0)
(-0.00966422 0.0766236 0)
(-0.0246514 -0.214374 0)
(-0.0678662 -0.392842 0)
(-0.112471 -0.343002 0)
(-0.122179 -0.089759 0)
(-0.125104 0.188194 0)
(-0.10473 0.448853 0)
(-0.0742972 0.697999 0)
(-0.0398488 0.925934 0)
(0.00259615 1.13607 0)
(0.0441522 1.32222 0)
(0.0863093 1.494 0)
(0.050552 1.81186 0)
(-0.0459031 1.84574 0)
(-0.0695828 1.47753 0)
(-0.0134899 1.29295 0)
(0.0345801 1.11195 0)
(0.0789186 0.913512 0)
(0.112445 0.694503 0)
(0.13923 0.452341 0)
(0.154907 0.200374 0)
(0.145962 -0.0696197 0)
(0.131473 -0.316771 0)
(0.0818996 -0.349861 0)
(0.0441409 -0.172499 0)
(0.022408 0.110942 0)
(0.00740625 0.239495 0)
(0.00369813 0.263309 0)
(-0.00477418 0.259082 0)
(-0.00759256 0.226295 0)
(-0.0247352 0.0867688 0)
(-0.050634 -0.188822 0)
(-0.09022 -0.351326 0)
(-0.137757 -0.312157 0)
(-0.150416 -0.0780539 0)
(-0.15664 0.179096 0)
(-0.141188 0.426007 0)
(-0.115016 0.66732 0)
(-0.0828443 0.88885 0)
(-0.0401009 1.09148 0)
(0.00665738 1.2788 0)
(0.0640155 1.47827 0)
(0.0449158 1.88148 0)
(-0.0391893 1.8992 0)
(-0.0421233 1.44339 0)
(0.0290642 1.23826 0)
(0.080573 1.06292 0)
(0.122649 0.876111 0)
(0.151558 0.666415 0)
(0.173358 0.433331 0)
(0.188017 0.192999 0)
(0.172278 -0.0555249 0)
(0.148827 -0.284039 0)
(0.09744 -0.306129 0)
(0.0608081 -0.143683 0)
(0.0371417 0.16147 0)
(0.0166099 0.247655 0)
(0.00682258 0.27353 0)
(-0.00781282 0.268629 0)
(-0.0176174 0.234934 0)
(-0.0400686 0.139846 0)
(-0.0665142 -0.157732 0)
(-0.104648 -0.307036 0)
(-0.154333 -0.281779 0)
(-0.175882 -0.0661586 0)
(-0.189808 0.172024 0)
(-0.176048 0.407685 0)
(-0.155088 0.640693 0)
(-0.127485 0.853395 0)
(-0.0873506 1.04431 0)
(-0.0375417 1.2248 0)
(0.0333361 1.44158 0)
(0.0363321 1.93114 0)
(-0.0151788 1.94057 0)
(0.00289001 1.39314 0)
(0.0793126 1.17752 0)
(0.130377 1.01667 0)
(0.165391 0.845238 0)
(0.185753 0.645298 0)
(0.199407 0.419262 0)
(0.207218 0.190173 0)
(0.191814 -0.00732576 0)
(0.165597 -0.248787 0)
(0.111012 -0.260868 0)
(0.0700704 -0.118323 0)
(0.0514743 0.173966 0)
(0.0316219 0.264152 0)
(0.00978647 0.292051 0)
(-0.0115024 0.287522 0)
(-0.0350175 0.252131 0)
(-0.0555224 0.157745 0)
(-0.0748496 -0.130304 0)
(-0.117034 -0.261449 0)
(-0.169634 -0.248745 0)
(-0.195112 -0.0207534 0)
(-0.20965 0.169235 0)
(-0.203059 0.394293 0)
(-0.19015 0.620333 0)
(-0.170755 0.824055 0)
(-0.137664 1.00009 0)
(-0.0890251 1.16557 0)
(-0.0154744 1.3891 0)
(0.00598889 1.9648 0)
(0.0337814 1.9297 0)
(0.0729177 1.33703 0)
(0.138857 1.11769 0)
(0.183058 0.976816 0)
(0.205567 0.824068 0)
(0.213718 0.63428 0)
(0.21774 0.414511 0)
(0.214185 0.192665 0)
(0.208188 0.00440443 0)
(0.181098 -0.208317 0)
(0.122557 -0.212273 0)
(0.0778841 -0.083789 0)
(0.0634345 0.189438 0)
(0.0399911 0.283737 0)
(0.00800451 0.313783 0)
(-0.0093689 0.31015 0)
(-0.0428113 0.273234 0)
(-0.066675 0.169244 0)
(-0.0821542 -0.0949264 0)
(-0.127584 -0.213901 0)
(-0.184295 -0.209426 0)
(-0.211789 -0.00876519 0)
(-0.218369 0.172652 0)
(-0.222607 0.390483 0)
(-0.218576 0.609952 0)
(-0.210464 0.804005 0)
(-0.189161 0.962534 0)
(-0.147239 1.10909 0)
(-0.0866872 1.33535 0)
(-0.0437808 1.94006 0)
(0.0926036 1.84115 0)
(0.151218 1.28548 0)
(0.201384 1.06968 0)
(0.232 0.950867 0)
(0.239218 0.817189 0)
(0.235224 0.634609 0)
(0.233277 0.417454 0)
(0.224231 0.202801 0)
(0.21971 0.0178485 0)
(0.187944 -0.162761 0)
(0.128295 -0.160465 0)
(0.0802669 -0.0470808 0)
(0.0636757 0.197107 0)
(0.051231 0.341791 0)
(0.0163246 0.329612 0)
(-0.0150524 0.326592 0)
(-0.0499197 0.332097 0)
(-0.0643422 0.180284 0)
(-0.0843449 -0.056845 0)
(-0.133591 -0.16286 0)
(-0.192297 -0.164692 0)
(-0.224336 0.00604378 0)
(-0.229874 0.183221 0)
(-0.238617 0.392803 0)
(-0.239291 0.609652 0)
(-0.242124 0.79716 0)
(-0.234951 0.938164 0)
(-0.205493 1.06483 0)
(-0.156929 1.28563 0)
(-0.0985578 1.83648 0)
(0.134138 1.68036 0)
(0.209504 1.23116 0)
(0.252176 1.03704 0)
(0.267503 0.940201 0)
(0.261434 0.823301 0)
(0.248668 0.64145 0)
(0.24789 0.419649 0)
(0.233134 0.209389 0)
(0.223068 0.0291366 0)
(0.188654 -0.114273 0)
(0.129124 -0.106153 0)
(0.0769193 -0.00520053 0)
(0.049755 0.206825 0)
(0.0440381 0.348868 0)
(0.0230542 0.388622 0)
(-0.0155497 0.385488 0)
(-0.0375025 0.340266 0)
(-0.0471192 0.194274 0)
(-0.0788651 -0.0119053 0)
(-0.133263 -0.107948 0)
(-0.193286 -0.116301 0)
(-0.228745 0.018609 0)
(-0.239359 0.19 0)
(-0.252525 0.39446 0)
(-0.250217 0.614409 0)
(-0.260339 0.801886 0)
(-0.265259 0.92694 0)
(-0.250228 1.02953 0)
(-0.206032 1.2307 0)
(-0.131419 1.6783 0)
(0.144333 1.4901 0)
(0.235119 1.16496 0)
(0.277708 1.0117 0)
(0.281228 0.942398 0)
(0.267341 0.839975 0)
(0.249361 0.652172 0)
(0.244675 0.422514 0)
(0.240663 0.253243 0)
(0.23046 0.0439029 0)
(0.190485 -0.063138 0)
(0.128801 -0.0486664 0)
(0.0713093 0.0431558 0)
(0.0352085 0.226205 0)
(0.0230531 0.356567 0)
(0.0130391 0.399836 0)
(-0.00231941 0.396714 0)
(-0.0128648 0.349797 0)
(-0.0281837 0.218742 0)
(-0.0686025 0.0403551 0)
(-0.129303 -0.0486068 0)
(-0.19288 -0.0640005 0)
(-0.235265 0.0350742 0)
(-0.247012 0.231656 0)
(-0.248356 0.394296 0)
(-0.247453 0.621467 0)
(-0.261484 0.816292 0)
(-0.274202 0.928691 0)
(-0.272084 1.00782 0)
(-0.227507 1.16352 0)
(-0.139572 1.49412 0)
(0.123817 1.29685 0)
(0.232937 1.08849 0)
(0.279278 0.998578 0)
(0.275222 0.948668 0)
(0.260447 0.85928 0)
(0.246933 0.661559 0)
(0.231321 0.417992 0)
(0.238412 0.238017 0)
(0.238581 0.0637644 0)
(0.190565 -0.00705411 0)
(0.125542 0.0136622 0)
(0.0638193 0.0969888 0)
(0.0240179 0.251041 0)
(0.0110153 0.364238 0)
(0.00782024 0.409002 0)
(0.00439839 0.406146 0)
(0.00059598 0.359232 0)
(-0.0142385 0.246987 0)
(-0.0565458 0.0976285 0)
(-0.120673 0.0164876 0)
(-0.188395 -0.00513092 0)
(-0.24028 0.0581687 0)
(-0.244147 0.216981 0)
(-0.234271 0.384587 0)
(-0.241466 0.624118 0)
(-0.250685 0.833964 0)
(-0.266371 0.936035 0)
(-0.271187 0.995815 0)
(-0.22485 1.08813 0)
(-0.120619 1.30841 0)
(0.099793 1.12162 0)
(0.207473 1.00251 0)
(0.257325 0.98494 0)
(0.254136 0.959543 0)
(0.244051 0.876076 0)
(0.234509 0.669053 0)
(0.234241 0.457471 0)
(0.248203 0.220005 0)
(0.24094 0.0907953 0)
(0.187772 0.0535145 0)
(0.121118 0.0790868 0)
(0.0583275 0.1528 0)
(0.0178021 0.276291 0)
(0.00501357 0.369282 0)
(0.00514135 0.409006 0)
(0.007355 0.406448 0)
(0.00696321 0.365015 0)
(-0.0066177 0.273672 0)
(-0.048209 0.155237 0)
(-0.112202 0.0840457 0)
(-0.181149 0.058685 0)
(-0.237427 0.089908 0)
(-0.250241 0.20154 0)
(-0.235398 0.414145 0)
(-0.227007 0.625856 0)
(-0.231654 0.849538 0)
(-0.244062 0.946314 0)
(-0.249935 0.977501 0)
(-0.202132 1.00579 0)
(-0.0976526 1.13734 0)
(0.0795111 0.980372 0)
(0.17032 0.922189 0)
(0.216091 0.960154 0)
(0.227958 0.959041 0)
(0.240132 0.880699 0)
(0.229504 0.658871 0)
(0.242588 0.4195 0)
(0.264653 0.209159 0)
(0.239516 0.127983 0)
(0.185053 0.11648 0)
(0.118545 0.144712 0)
(0.0572401 0.207689 0)
(0.017385 0.30129 0)
(0.00400108 0.37336 0)
(0.00449719 0.405868 0)
(0.00813194 0.403662 0)
(0.00820346 0.36948 0)
(-0.00548359 0.299034 0)
(-0.0454761 0.21065 0)
(-0.107061 0.15101 0)
(-0.174967 0.123979 0)
(-0.231504 0.130995 0)
(-0.260624 0.195521 0)
(-0.241499 0.373217 0)
(-0.222762 0.609326 0)
(-0.226154 0.854165 0)
(-0.216921 0.952548 0)
(-0.210068 0.961283 0)
(-0.168055 0.92581 0)
(-0.0785171 0.998918 0)
(0.0646743 0.874632 0)
(0.119578 0.862202 0)
(0.176008 0.933906 0)
(0.198932 0.943171 0)
(0.231664 0.864552 0)
(0.255834 0.701297 0)
(0.275721 0.38615 0)
(0.277568 0.22045 0)
(0.240452 0.173058 0)
(0.184405 0.17932 0)
(0.119488 0.208748 0)
(0.0609897 0.260054 0)
(0.0222824 0.326818 0)
(0.00709541 0.378916 0)
(0.00549194 0.403347 0)
(0.00748498 0.40148 0)
(0.00552268 0.375277 0)
(-0.00976368 0.324471 0)
(-0.0480328 0.262572 0)
(-0.105914 0.215288 0)
(-0.171117 0.187868 0)
(-0.228683 0.17813 0)
(-0.268914 0.210763 0)
(-0.271704 0.341405 0)
(-0.252845 0.636383 0)
(-0.221749 0.836278 0)
(-0.189828 0.938419 0)
(-0.171057 0.940468 0)
(-0.120016 0.868946 0)
(-0.066246 0.893138 0)
(0.0385603 0.785552 0)
(0.0699593 0.802297 0)
(0.129661 0.893053 0)
(0.170928 0.906436 0)
(0.212535 0.807153 0)
(0.280491 0.639552 0)
(0.313348 0.373228 0)
(0.293579 0.252101 0)
(0.246495 0.224503 0)
(0.186892 0.240476 0)