/*--------------------------------*- C++ -*----------------------------------*\
| =========                 |                                                 |
| \\      /  F ield         | OpenFOAM: The Open Source CFD Toolbox           |
|  \\    /   O peration     | Version:  v1606+                                |
|   \\  /    A nd           | Web:      www.OpenFOAM.com                      |
|    \\/     M anipulation  |                                                 |
\*---------------------------------------------------------------------------*/
FoamFile
{
    version     2.0;
    format      ascii;
    class       volScalarField;
    location    "0.06";
    object      alpha.particlesMean;
}
// * * * * * * * * * * * * * * * * * * * * * * * * * * * * * * * * * * * * * //

dimensions      [0 0 0 0 0 0 0];

internalField   nonuniform List<scalar> 
6000
(
0.454597
0.455815
0.451943
0.447556
0.443366
0.440369
0.437629
0.436531
0.436225
0.435967
0.435913
0.435834
0.435728
0.435652
0.435633
0.435727
0.435768
0.435818
0.435907
0.43598
0.436058
0.436095
0.436237
0.437965
0.440857
0.443711
0.447286
0.451948
0.45588
0.45269
0.457495
0.460505
0.456993
0.450286
0.444628
0.442308
0.441433
0.441076
0.440859
0.440743
0.44069
0.440606
0.440516
0.440474
0.44047
0.440518
0.440554
0.440601
0.440666
0.440733
0.440805
0.440856
0.441094
0.441433
0.442327
0.444667
0.450089
0.456973
0.460428
0.455924
0.478175
0.494804
0.494221
0.4887
0.481644
0.475877
0.471698
0.468817
0.466888
0.465736
0.465075
0.464695
0.464468
0.464381
0.464347
0.464368
0.464432
0.46454
0.464748
0.46511
0.46576
0.466898
0.468874
0.4717
0.47589
0.481637
0.488607
0.494218
0.494803
0.477382
0.504728
0.52491
0.526492
0.524473
0.520293
0.515278
0.510391
0.506061
0.502482
0.499816
0.497977
0.496783
0.49604
0.495642
0.495472
0.495474
0.49567
0.496079
0.496812
0.497993
0.499825
0.502501
0.506104
0.510422
0.515303
0.520264
0.524427
0.526488
0.524917
0.504585
0.526465
0.541001
0.542891
0.542955
0.541974
0.540037
0.537515
0.534699
0.531846
0.529254
0.527114
0.525482
0.524325
0.523603
0.523265
0.52326
0.52361
0.524333
0.525488
0.527116
0.529257
0.531859
0.534718
0.537536
0.540051
0.541961
0.542937
0.542886
0.540994
0.526554
0.538767
0.547707
0.549397
0.549873
0.550032
0.549816
0.549256
0.548388
0.547284
0.546061
0.544861
0.543793
0.542936
0.542341
0.542041
0.542037
0.54234
0.542935
0.543793
0.54486
0.546062
0.547288
0.548393
0.549262
0.549821
0.550032
0.54987
0.549394
0.547702
0.538818
0.544114
0.550735
0.552257
0.552713
0.553005
0.553127
0.553103
0.55295
0.55269
0.552343
0.55195
0.551554
0.551206
0.550945
0.550805
0.550804
0.550943
0.551205
0.551555
0.55195
0.552343
0.55269
0.55295
0.553103
0.553129
0.553006
0.552714
0.552257
0.55073
0.544113
0.547244
0.552688
0.554011
0.554416
0.554679
0.554825
0.554872
0.554847
0.554763
0.554636
0.554485
0.554328
0.554188
0.55408
0.554023
0.554022
0.554081
0.554189
0.55433
0.554485
0.554637
0.554761
0.554846
0.554872
0.554826
0.554681
0.554418
0.554013
0.552686
0.547235
0.549779
0.554135
0.555236
0.555598
0.55584
0.555982
0.556046
0.556052
0.556016
0.55595
0.55587
0.555782
0.555705
0.555646
0.555613
0.555614
0.555645
0.555706
0.555783
0.555868
0.555952
0.556015
0.556051
0.556046
0.555983
0.555842
0.5556
0.555239
0.554137
0.549774
0.551837
0.555201
0.556106
0.556443
0.556671
0.556816
0.556893
0.556921
0.556913
0.55688
0.556834
0.556781
0.556734
0.556696
0.556677
0.556675
0.556697
0.556734
0.556783
0.556833
0.556882
0.556911
0.55692
0.556892
0.556816
0.556672
0.556444
0.556109
0.555205
0.551835
0.553421
0.555979
0.556739
0.557058
0.557279
0.557423
0.55751
0.557554
0.557569
0.55756
0.557538
0.557509
0.557483
0.55746
0.557447
0.557445
0.557459
0.557481
0.55751
0.557538
0.557561
0.557567
0.557552
0.557509
0.557423
0.557279
0.557059
0.556739
0.555982
0.553421
0.554613
0.556551
0.557208
0.557518
0.557731
0.557873
0.557963
0.558019
0.558049
0.558057
0.558053
0.558043
0.558029
0.558016
0.558011
0.558008
0.558016
0.558026
0.558043
0.558052
0.558058
0.558045
0.558018
0.557965
0.557873
0.557731
0.557519
0.557207
0.556552
0.554614
0.555507
0.556989
0.557555
0.557862
0.558073
0.558211
0.558303
0.558366
0.558404
0.558426
0.558433
0.558436
0.558432
0.558428
0.558426
0.558424
0.558426
0.558431
0.558435
0.558433
0.558424
0.558403
0.558364
0.558305
0.558212
0.558073
0.557863
0.557557
0.556988
0.555507
0.556177
0.557324
0.5578
0.558115
0.558325
0.558461
0.558555
0.558621
0.558667
0.558696
0.558714
0.558724
0.558726
0.558728
0.558731
0.558729
0.558729
0.558727
0.558725
0.558712
0.558695
0.558664
0.558621
0.558558
0.558465
0.558328
0.558118
0.557804
0.557323
0.556176
0.556679
0.557579
0.557993
0.558273
0.558506
0.558638
0.558736
0.558806
0.558856
0.558892
0.558916
0.558932
0.55894
0.558947
0.558952
0.55895
0.558951
0.558943
0.55893
0.558918
0.558889
0.558859
0.558809
0.558743
0.558644
0.55851
0.558278
0.557996
0.557579
0.556678
0.557055
0.557772
0.558142
0.558375
0.558603
0.558747
0.558856
0.558935
0.558985
0.55903
0.559057
0.559072
0.559087
0.559095
0.559106
0.559105
0.559102
0.55909
0.559073
0.559059
0.559022
0.558991
0.558934
0.558872
0.558748
0.558598
0.558374
0.558146
0.557772
0.557054
0.557333
0.557917
0.558252
0.558462
0.558647
0.5588
0.558913
0.559017
0.55907
0.559119
0.559154
0.559166
0.559185
0.559192
0.5592
0.559204
0.559196
0.559188
0.559166
0.559157
0.559106
0.559087
0.559014
0.558939
0.5588
0.558644
0.558462
0.558257
0.557919
0.557333
0.557538
0.558029
0.558327
0.55852
0.558682
0.55881
0.558927
0.55905
0.559121
0.559177
0.559215
0.559228
0.559245
0.559256
0.559252
0.559266
0.559247
0.559251
0.55922
0.559218
0.559163
0.559148
0.559048
0.558944
0.558806
0.558682
0.558521
0.558333
0.558033
0.557539
0.557693
0.55811
0.558369
0.558546
0.558699
0.558819
0.558918
0.559028
0.559131
0.559218
0.559258
0.559258
0.559273
0.559287
0.559279
0.559303
0.559271
0.559289
0.55925
0.559253
0.559184
0.559179
0.559056
0.558934
0.558815
0.5587
0.558548
0.558375
0.558116
0.557695
0.557811
0.558156
0.558377
0.558544
0.558694
0.55882
0.558918
0.559011
0.559106
0.559229
0.559281
0.559286
0.559295
0.559306
0.559289
0.559322
0.559276
0.559312
0.559262
0.55927
0.559206
0.559175
0.559055
0.558927
0.558816
0.558695
0.558546
0.558383
0.558163
0.557815
0.557882
0.558158
0.55835
0.558522
0.55867
0.558804
0.558911
0.559001
0.559085
0.559219
0.559287
0.559298
0.559307
0.559323
0.559302
0.559326
0.559292
0.559316
0.559278
0.559278
0.559218
0.559174
0.559027
0.558914
0.558801
0.558671
0.558524
0.558356
0.558164
0.557887
0.557897
0.558122
0.558303
0.558485
0.558635
0.558775
0.558892
0.558988
0.559066
0.559201
0.559283
0.559304
0.559317
0.559327
0.55931
0.559327
0.559305
0.559318
0.559294
0.559286
0.559217
0.559157
0.558998
0.558892
0.558773
0.558637
0.558491
0.558308
0.558128
0.557902
0.557878
0.558067
0.558246
0.558433
0.558589
0.558738
0.558862
0.558963
0.559044
0.559149
0.559271
0.559307
0.559318
0.559325
0.559309
0.55932
0.559305
0.559318
0.5593
0.559283
0.559198
0.559106
0.558965
0.55886
0.558739
0.558593
0.558444
0.558251
0.558074
0.557884
0.557841
0.558006
0.558183
0.558357
0.558528
0.558691
0.558821
0.558927
0.559012
0.5591
0.559233
0.559297
0.559311
0.559316
0.559304
0.559313
0.5593
0.559311
0.559298
0.559257
0.559137
0.559032
0.558924
0.558814
0.558692
0.558537
0.558378
0.558189
0.558015
0.557849
0.557791
0.557942
0.558119
0.558274
0.558428
0.558622
0.558762
0.558874
0.558967
0.559047
0.559148
0.559265
0.559291
0.559302
0.559291
0.559298
0.559287
0.559297
0.559268
0.559182
0.559067
0.558965
0.55887
0.558753
0.558625
0.558463
0.558288
0.558124
0.557952
0.5578
0.557734
0.557874
0.558052
0.558193
0.558305
0.558485
0.558669
0.558793
0.558904
0.558979
0.559056
0.559175
0.559248
0.559265
0.559256
0.559258
0.55925
0.559253
0.559184
0.559075
0.558999
0.558865
0.558799
0.558661
0.55853
0.558344
0.558204
0.558056
0.557885
0.557745
0.557672
0.557805
0.557982
0.558117
0.558221
0.558309
0.558502
0.558669
0.558819
0.558882
0.558944
0.559038
0.559117
0.559182
0.559192
0.559176
0.559185
0.559155
0.55907
0.558932
0.558905
0.558668
0.558698
0.558518
0.558368
0.558233
0.558124
0.557985
0.557814
0.557683
0.557603
0.557737
0.557907
0.558038
0.55813
0.558212
0.558298
0.558468
0.558697
0.558731
0.558755
0.558855
0.558896
0.559017
0.559102
0.559028
0.559092
0.558972
0.558954
0.558706
0.55875
0.558469
0.558498
0.558322
0.558224
0.558132
0.55804
0.557907
0.557742
0.557615
0.55753
0.557666
0.557825
0.557936
0.558031
0.558124
0.558214
0.55831
0.558531
0.558554
0.558532
0.558554
0.558625
0.55874
0.558983
0.558878
0.558965
0.558755
0.55878
0.558481
0.558498
0.558359
0.55831
0.558222
0.558131
0.558029
0.557932
0.557823
0.557665
0.55754
0.557459
0.557589
0.557735
0.557824
0.55793
0.558035
0.558133
0.558221
0.558346
0.558403
0.558404
0.558402
0.558445
0.558548
0.558828
0.55872
0.558801
0.558556
0.558549
0.558375
0.558347
0.558283
0.558217
0.558133
0.558036
0.557924
0.557816
0.557729
0.557585
0.557462
0.557383
0.557506
0.557627
0.557713
0.557829
0.557944
0.55805
0.558142
0.558245
0.558306
0.558335
0.558354
0.558385
0.558455
0.558635
0.558602
0.558622
0.558421
0.558366
0.558309
0.558269
0.558211
0.558134
0.558043
0.557939
0.557818
0.557699
0.557614
0.557498
0.557381
0.557299
0.557408
0.557493
0.557601
0.557728
0.557853
0.557963
0.558061
0.55816
0.558233
0.55828
0.558314
0.558346
0.558394
0.558486
0.558516
0.558482
0.558343
0.558294
0.558251
0.558202
0.558138
0.55805
0.557951
0.557839
0.557713
0.557587
0.557479
0.557397
0.557293
0.557209
0.55729
0.557354
0.557485
0.557623
0.557755
0.557872
0.557973
0.558076
0.558159
0.55822
0.558269
0.558306
0.558337
0.558413
0.558437
0.558372
0.558285
0.558232
0.55819
0.558134
0.558061
0.557965
0.557858
0.557738
0.557607
0.557472
0.557344
0.557276
0.557201
0.557108
0.55715
0.557218
0.557367
0.557514
0.557656
0.557776
0.557887
0.55799
0.558082
0.558159
0.55823
0.558273
0.558281
0.558316
0.558326
0.55828
0.558223
0.558173
0.558128
0.558063
0.55798
0.557876
0.557762
0.557634
0.557495
0.557349
0.557209
0.557133
0.557097
0.556994
0.556995
0.557091
0.557236
0.557404
0.557544
0.557681
0.557799
0.557905
0.558005
0.558091
0.558177
0.558222
0.558236
0.558233
0.55823
0.558198
0.558159
0.558112
0.558059
0.557988
0.557892
0.557782
0.557664
0.557524
0.55738
0.557214
0.557082
0.556981
0.556981
0.556862
0.556855
0.556968
0.557091
0.557271
0.557432
0.557579
0.557703
0.557812
0.557921
0.558015
0.558104
0.558167
0.558176
0.55816
0.558146
0.558118
0.558084
0.558039
0.557985
0.557902
0.557803
0.557683
0.557558
0.55741
0.557253
0.557077
0.556959
0.556844
0.556848
0.556707
0.556726
0.556845
0.556952
0.557088
0.557297
0.557467
0.557591
0.55769
0.557818
0.557917
0.558017
0.558082
0.558105
0.558068
0.558055
0.558024
0.557998
0.55795
0.557896
0.557807
0.557703
0.557572
0.557439
0.557264
0.557081
0.556947
0.556836
0.556717
0.556691
0.556562
0.556605
0.556722
0.556824
0.556929
0.557088
0.55733
0.557458
0.557529
0.557692
0.557788
0.557897
0.55798
0.557998
0.557927
0.557938
0.557893
0.557895
0.557835
0.557795
0.557677
0.557585
0.557408
0.557263
0.557051
0.556934
0.556824
0.556713
0.556596
0.556547
0.556433
0.556485
0.556599
0.556704
0.55681
0.55693
0.557137
0.557278
0.55728
0.557509
0.557629
0.557731
0.557815
0.557875
0.557723
0.557802
0.557721
0.557777
0.557686
0.557672
0.557509
0.557432
0.557158
0.557032
0.556919
0.556816
0.556703
0.556589
0.556477
0.556422
0.556309
0.556365
0.556475
0.556583
0.556695
0.556812
0.55695
0.557066
0.557112
0.557261
0.557426
0.557564
0.557622
0.557697
0.557493
0.557623
0.55747
0.557653
0.557486
0.557523
0.557279
0.557213
0.556997
0.556908
0.556808
0.556699
0.556581
0.556467
0.556358
0.556301
0.556188
0.556245
0.556351
0.556463
0.556579
0.5567
0.556826
0.556928
0.557004
0.557083
0.557178
0.557318
0.557375
0.557478
0.557277
0.55735
0.55727
0.557462
0.557241
0.55731
0.557059
0.55699
0.556889
0.5568
0.556697
0.556581
0.556459
0.556344
0.556238
0.556179
0.556066
0.556123
0.556229
0.556345
0.556463
0.556586
0.556711
0.556818
0.556901
0.556974
0.557035
0.557093
0.557139
0.557236
0.557087
0.557113
0.557102
0.557215
0.557062
0.557053
0.556952
0.55688
0.556794
0.556697
0.556586
0.556463
0.556339
0.556223
0.556116
0.556059
0.555946
0.555998
0.556102
0.556229
0.556348
0.556471
0.556597
0.556711
0.556804
0.556879
0.556934
0.556983
0.557019
0.557047
0.556996
0.556995
0.556991
0.557028
0.556965
0.556925
0.556857
0.556787
0.556699
0.556593
0.556475
0.556347
0.556219
0.556097
0.55599
0.55594
0.555826
0.555871
0.555972
0.556107
0.556234
0.556358
0.556483
0.556603
0.556703
0.556786
0.556848
0.5569
0.556929
0.556935
0.556931
0.556929
0.556923
0.556922
0.556884
0.556838
0.556772
0.556695
0.556599
0.556488
0.556364
0.556232
0.556098
0.555966
0.555863
0.555819
0.555704
0.555743
0.555841
0.555982
0.556117
0.556245
0.55637
0.556491
0.556598
0.556689
0.556758
0.556813
0.556844
0.556861
0.556866
0.556865
0.556858
0.556841
0.556804
0.556751
0.556684
0.5566
0.556497
0.55638
0.556254
0.556113
0.55597
0.555835
0.555736
0.555697
0.555579
0.555615
0.555711
0.555847
0.555996
0.556131
0.556255
0.556382
0.55649
0.556585
0.556664
0.556724
0.556763
0.556784
0.556796
0.556797
0.556786
0.556759
0.556717
0.556661
0.556588
0.556498
0.556394
0.556272
0.556138
0.555989
0.55583
0.555706
0.555608
0.555572
0.555452
0.555486
0.555582
0.555699
0.555872
0.556013
0.556131
0.556271
0.556384
0.556479
0.556561
0.556626
0.556675
0.556702
0.556728
0.556727
0.55671
0.556672
0.556624
0.556567
0.556487
0.556395
0.55629
0.556157
0.556017
0.555843
0.555689
0.555578
0.555479
0.555445
0.555325
0.555358
0.555454
0.555565
0.555719
0.555881
0.555981
0.556148
0.556273
0.556369
0.556456
0.556521
0.556581
0.556612
0.556638
0.556642
0.556621
0.556576
0.556524
0.556469
0.556375
0.556289
0.556172
0.556035
0.555863
0.555668
0.555555
0.555452
0.555352
0.555319
0.555195
0.555231
0.555327
0.555437
0.55556
0.555719
0.555792
0.555993
0.556144
0.55624
0.556341
0.556408
0.556469
0.556495
0.556543
0.556535
0.556522
0.556463
0.556417
0.556357
0.556256
0.556155
0.556041
0.555868
0.555656
0.555538
0.555431
0.555327
0.555228
0.555192
0.55507
0.555106
0.555201
0.555313
0.555432
0.555556
0.555649
0.555789
0.555984
0.556069
0.556196
0.556263
0.55634
0.556338
0.556428
0.556393
0.556399
0.556303
0.556288
0.556197
0.556105
0.555977
0.555855
0.555644
0.555525
0.55542
0.55531
0.555204
0.555106
0.555066
0.554947
0.554984
0.555077
0.55519
0.555309
0.55543
0.555533
0.555636
0.555754
0.555832
0.556019
0.556083
0.556198
0.556116
0.556293
0.556223
0.556248
0.556109
0.556136
0.556024
0.555913
0.555749
0.555631
0.555517
0.555412
0.555303
0.555189
0.555082
0.554986
0.554945
0.554826
0.554863
0.554955
0.555066
0.555187
0.555309
0.555422
0.555519
0.555612
0.555679
0.555772
0.555862
0.555995
0.555883
0.556108
0.556031
0.556083
0.555905
0.555965
0.55582
0.555692
0.555595
0.555507
0.555408
0.555301
0.555186
0.55507
0.554963
0.554868
0.554826
0.554706
0.55474
0.554834
0.554944
0.555066
0.55519
0.555307
0.555411
0.5555
0.555567
0.555628
0.555687
0.555755
0.555708
0.555861
0.555808
0.555856
0.555743
0.555725
0.555624
0.555544
0.555483
0.555399
0.5553
0.555189
0.555071
0.554954
0.554844
0.554749
0.55471
0.554588
0.554617
0.554709
0.554823
0.554948
0.555072
0.555192
0.555301
0.555394
0.555468
0.555529
0.555571
0.555612
0.55561
0.55566
0.555643
0.555656
0.555595
0.555563
0.555506
0.555445
0.555379
0.555294
0.555192
0.555078
0.554957
0.554841
0.554721
0.554628
0.554595
0.554469
0.554494
0.554583
0.554696
0.554832
0.554956
0.555077
0.55519
0.555287
0.555367
0.555432
0.555478
0.555513
0.555523
0.555535
0.555529
0.555521
0.555493
0.555463
0.555415
0.555353
0.555279
0.55519
0.555085
0.554968
0.554845
0.554722
0.554596
0.554508
0.55448
0.55435
0.554372
0.554459
0.554566
0.554713
0.554841
0.554966
0.555078
0.555178
0.555262
0.555332
0.555383
0.555419
0.555437
0.555445
0.55544
0.555428
0.555406
0.555371
0.555321
0.555255
0.555176
0.555084
0.554975
0.55486
0.554729
0.554601
0.554473
0.554388
0.554363
0.55423
0.55425
0.554337
0.55444
0.554585
0.554724
0.554855
0.554967
0.555068
0.555154
0.555227
0.555284
0.555322
0.555348
0.555355
0.555351
0.555337
0.555315
0.555278
0.555224
0.555156
0.555071
0.554977
0.554867
0.554747
0.554613
0.554463
0.55435
0.554267
0.554245
0.554111
0.55413
0.554216
0.554314
0.554434
0.554587
0.554741
0.554856
0.554959
0.555044
0.555118
0.555179
0.555219
0.555253
0.555261
0.555257
0.555244
0.555219
0.555183
0.555124
0.555056
0.554964
0.554871
0.554756
0.554631
0.554487
0.554329
0.554229
0.554146
0.554127
0.553994
0.554011
0.554096
0.554191
0.554298
0.554412
0.554614
0.55473
0.554846
0.554932
0.555008
0.555068
0.555112
0.55515
0.555158
0.555159
0.555147
0.555121
0.555084
0.555013
0.554953
0.554853
0.554759
0.554636
0.554499
0.554322
0.554198
0.554109
0.554026
0.55401
0.553879
0.553895
0.553979
0.554075
0.554176
0.554278
0.554437
0.554566
0.554714
0.55481
0.554886
0.554948
0.554988
0.555037
0.555034
0.555049
0.555034
0.555008
0.554969
0.554894
0.554838
0.554729
0.554622
0.554485
0.554326
0.554186
0.554081
0.553991
0.553909
0.553894
0.553766
0.553783
0.553863
0.553959
0.554062
0.554162
0.554267
0.554374
0.55454
0.554664
0.554745
0.554806
0.55484
0.554909
0.554897
0.554924
0.554893
0.55488
0.554835
0.554748
0.55471
0.554585
0.554444
0.5543
0.554179
0.554069
0.553965
0.553873
0.553794
0.55378
0.553656
0.553672
0.553749
0.553845
0.553949
0.554052
0.55415
0.554233
0.554343
0.55449
0.554571
0.55464
0.554658
0.554758
0.554727
0.554778
0.554707
0.554696
0.554673
0.554592
0.554571
0.5544
0.554262
0.554165
0.554062
0.553955
0.55385
0.553757
0.55368
0.553667
0.553545
0.553561
0.553637
0.553733
0.553837
0.553943
0.554039
0.554126
0.554199
0.554301
0.55438
0.554438
0.554455
0.554562
0.554515
0.554553
0.554508
0.554493
0.554477
0.554422
0.55441
0.554238
0.554135
0.554049
0.55395
0.553841
0.553736
0.553642
0.553567
0.553554
0.553437
0.55345
0.553523
0.553623
0.553727
0.553833
0.553931
0.554021
0.554093
0.554168
0.554225
0.55427
0.554293
0.554327
0.554349
0.554359
0.55436
0.554346
0.554331
0.554287
0.554237
0.554119
0.554026
0.553939
0.553837
0.553728
0.553623
0.553524
0.553453
0.553444
0.55333
0.553339
0.553407
0.553514
0.553617
0.553724
0.553824
0.553916
0.553993
0.554059
0.554108
0.554144
0.554167
0.554178
0.554205
0.554227
0.554232
0.55423
0.554209
0.554168
0.554103
0.554008
0.553917
0.553828
0.553724
0.553614
0.553512
0.553407
0.553341
0.553335
0.553224
0.553228
0.553292
0.5534
0.553511
0.553615
0.553719
0.553811
0.553892
0.553957
0.554008
0.554047
0.554072
0.554087
0.554105
0.554122
0.554123
0.554117
0.554094
0.55405
0.553981
0.553898
0.553808
0.553717
0.553612
0.553504
0.553399
0.55329
0.553227
0.553226
0.553116
0.553116
0.553175
0.553276
0.553402
0.55351
0.553611
0.553707
0.553788
0.553856
0.553911
0.553953
0.553981
0.553998
0.554014
0.554024
0.554023
0.554009
0.55398
0.553932
0.553865
0.553787
0.553699
0.553605
0.553501
0.553394
0.553281
0.553172
0.553113
0.553116
0.553006
0.553002
0.553059
0.553148
0.553288
0.553402
0.553507
0.553601
0.553686
0.553754
0.553812
0.553856
0.553888
0.553905
0.553921
0.553923
0.553918
0.553898
0.553865
0.553816
0.55375
0.553676
0.553589
0.553497
0.553392
0.553279
0.553149
0.553053
0.552997
0.553004
0.552892
0.552886
0.552941
0.553024
0.553156
0.553292
0.553398
0.553496
0.553578
0.553649
0.553708
0.553755
0.553791
0.553812
0.553823
0.553821
0.553809
0.553786
0.553748
0.553698
0.553633
0.553563
0.553478
0.553386
0.553278
0.553159
0.553022
0.552936
0.552881
0.552888
0.55278
0.552769
0.552822
0.552904
0.553012
0.553171
0.553282
0.553387
0.553471
0.553541
0.553602
0.55365
0.553686
0.553708
0.55372
0.553711
0.553697
0.553671
0.553631
0.553577
0.553513
0.553448
0.553362
0.553274
0.553157
0.553021
0.552898
0.552817
0.552764
0.552775
0.552669
0.552652
0.552703
0.552783
0.552883
0.553028
0.553152
0.55327
0.553357
0.553428
0.553491
0.55354
0.553575
0.553601
0.553606
0.553598
0.553579
0.553555
0.553504
0.553444
0.55338
0.553331
0.553245
0.55315
0.553012
0.552882
0.552778
0.552698
0.552647
0.552664
0.552558
0.552535
0.552583
0.552661
0.552758
0.552872
0.552994
0.553131
0.553225
0.553296
0.553366
0.553415
0.553459
0.553483
0.553487
0.553472
0.553455
0.553424
0.553343
0.553284
0.553222
0.553206
0.553121
0.552995
0.552855
0.552753
0.552658
0.552579
0.552531
0.552553
0.552448
0.552419
0.552463
0.552538
0.552631
0.552735
0.552843
0.552963
0.553063
0.553133
0.553218
0.553272
0.553321
0.553358
0.553345
0.553336
0.553314
0.553267
0.553182
0.553131
0.553077
0.553058
0.55298
0.552833
0.552714
0.552629
0.552536
0.552461
0.552416
0.552444
0.552338
0.552304
0.552343
0.552414
0.552502
0.552601
0.552702
0.552802
0.552892
0.552961
0.553039
0.553094
0.553152
0.553188
0.553167
0.553168
0.553126
0.553085
0.553032
0.552985
0.552931
0.552891
0.55281
0.552691
0.552588
0.552502
0.552413
0.552342
0.552303
0.552336
0.55223
0.552189
0.552223
0.552288
0.552371
0.552468
0.552557
0.552658
0.552747
0.552814
0.552872
0.552913
0.552952
0.552975
0.552972
0.552975
0.552954
0.55293
0.552889
0.552846
0.552785
0.552741
0.552658
0.552561
0.552462
0.552372
0.552289
0.552223
0.55219
0.552229
0.552123
0.552074
0.552101
0.552161
0.552242
0.552335
0.552416
0.552507
0.552608
0.552674
0.552721
0.55276
0.552791
0.552806
0.552812
0.552814
0.552804
0.552786
0.55275
0.552704
0.552648
0.552583
0.552505
0.552428
0.552333
0.552245
0.552164
0.552102
0.552076
0.552123
0.552016
0.551958
0.551978
0.552032
0.552111
0.552196
0.552282
0.552369
0.552467
0.552532
0.552577
0.552613
0.55264
0.552642
0.55266
0.552663
0.552656
0.552641
0.552609
0.552564
0.552506
0.552441
0.552365
0.552285
0.552197
0.552114
0.552034
0.551979
0.55196
0.552018
0.551909
0.551839
0.55185
0.551898
0.551974
0.552059
0.552146
0.552232
0.552316
0.552387
0.55243
0.552462
0.552482
0.552476
0.552507
0.552509
0.552507
0.552492
0.552464
0.552423
0.552366
0.552304
0.55223
0.552151
0.552063
0.551979
0.551901
0.551852
0.551842
0.551911
0.5518
0.551716
0.551716
0.551759
0.551832
0.551919
0.552006
0.552091
0.552167
0.552237
0.552281
0.552308
0.552327
0.552328
0.55235
0.552353
0.552354
0.55234
0.552315
0.552277
0.552226
0.552164
0.552092
0.552013
0.551924
0.551839
0.551762
0.551718
0.551719
0.551802
0.551687
0.551587
0.551573
0.551612
0.551683
0.551771
0.551859
0.551946
0.552019
0.552083
0.552125
0.55215
0.552169
0.552177
0.55219
0.552195
0.552193
0.552183
0.55216
0.552126
0.552079
0.552019
0.551949
0.551868
0.551779
0.551691
0.551616
0.551574
0.551589
0.55169
0.55157
0.55145
0.55142
0.551456
0.551525
0.551615
0.551707
0.551791
0.551864
0.551923
0.551964
0.55199
0.552009
0.552019
0.552028
0.552032
0.552029
0.55202
0.552001
0.55197
0.551927
0.55187
0.551799
0.551717
0.551625
0.551534
0.551458
0.55142
0.551451
0.551571
0.551445
0.551301
0.551253
0.551287
0.551356
0.551451
0.551543
0.551631
0.551701
0.551757
0.551797
0.551825
0.551842
0.551854
0.551861
0.551864
0.55186
0.551851
0.551833
0.551808
0.551767
0.55171
0.551642
0.551558
0.551462
0.551364
0.551284
0.551253
0.551301
0.551445
0.551309
0.551137
0.55107
0.551099
0.551175
0.551273
0.551372
0.551458
0.551529
0.55158
0.551621
0.551647
0.551667
0.551677
0.551683
0.551683
0.55168
0.55167
0.551654
0.551634
0.551598
0.551543
0.551473
0.551389
0.551287
0.551178
0.55109
0.551069
0.551136
0.551309
0.551161
0.550954
0.550866
0.550884
0.550975
0.551081
0.551186
0.551277
0.551344
0.551391
0.551431
0.551459
0.551477
0.551489
0.55149
0.55149
0.551484
0.551475
0.55146
0.551448
0.551417
0.551363
0.551293
0.5512
0.551091
0.55097
0.550878
0.550865
0.550953
0.551159
0.550995
0.550748
0.550636
0.550647
0.550753
0.550869
0.550987
0.55108
0.551146
0.551185
0.551227
0.551254
0.551272
0.551284
0.551282
0.551279
0.551273
0.551263
0.551252
0.551238
0.551214
0.551162
0.551088
0.550983
0.550878
0.55074
0.550645
0.550635
0.550746
0.550992
0.550807
0.550512
0.550374
0.550384
0.550502
0.550639
0.55077
0.550869
0.550923
0.550963
0.551003
0.551031
0.551046
0.551063
0.551052
0.551048
0.55104
0.551027
0.551023
0.551006
0.550981
0.55092
0.550846
0.550745
0.550638
0.550486
0.550383
0.550372
0.550509
0.550804
0.55059
0.550237
0.55007
0.550086
0.550213
0.550379
0.550524
0.550625
0.55067
0.550717
0.550754
0.55078
0.550791
0.550815
0.550792
0.550788
0.550774
0.550767
0.550769
0.550753
0.550724
0.550668
0.550595
0.550489
0.550364
0.550205
0.550086
0.550068
0.550234
0.550588
0.550336
0.549911
0.549713
0.549745
0.549894
0.550078
0.550233
0.550334
0.550397
0.550443
0.550468
0.550483
0.550491
0.550506
0.550487
0.550483
0.550477
0.550476
0.550476
0.550466
0.550442
0.550396
0.550323
0.550213
0.550068
0.549893
0.549745
0.549711
0.549908
0.550333
0.55003
0.549514
0.549287
0.549352
0.549541
0.549744
0.549911
0.550023
0.550094
0.550135
0.550151
0.550153
0.550149
0.550147
0.550142
0.550139
0.550144
0.550147
0.550151
0.550149
0.550132
0.550092
0.550021
0.549905
0.549741
0.549541
0.549351
0.549285
0.549512
0.550028
0.549654
0.549021
0.548772
0.548898
0.549144
0.549378
0.549561
0.549682
0.549749
0.549782
0.549789
0.549785
0.549771
0.549762
0.549753
0.549754
0.54976
0.549772
0.549781
0.549788
0.549778
0.549746
0.549679
0.549557
0.549377
0.549143
0.548896
0.54877
0.549019
0.549653
0.549175
0.548387
0.548146
0.548372
0.548693
0.548967
0.549162
0.549283
0.549344
0.549367
0.549362
0.549346
0.549323
0.549307
0.549296
0.549297
0.549304
0.549324
0.549341
0.54936
0.549362
0.549342
0.54928
0.549159
0.548965
0.548691
0.54837
0.548144
0.548385
0.549173
0.548537
0.547545
0.547385
0.547764
0.548178
0.548498
0.548705
0.548821
0.54887
0.548875
0.548855
0.548823
0.54879
0.548766
0.548751
0.548751
0.548764
0.54879
0.548822
0.548854
0.548873
0.548868
0.548819
0.548703
0.548496
0.548176
0.547762
0.547384
0.547543
0.548536
0.547648
0.546395
0.546482
0.547065
0.547588
0.547951
0.548166
0.548272
0.548303
0.548287
0.548247
0.548198
0.548153
0.548118
0.5481
0.5481
0.548117
0.548152
0.548197
0.548246
0.548286
0.548302
0.548271
0.548165
0.547949
0.547586
0.547063
0.546481
0.546393
0.547646
0.546349
0.544763
0.54545
0.546263
0.546901
0.5473
0.547512
0.547597
0.5476
0.547557
0.547491
0.547423
0.547362
0.547318
0.547295
0.547295
0.547318
0.547361
0.547422
0.54749
0.547555
0.547599
0.547596
0.547511
0.547298
0.5469
0.546262
0.545449
0.544761
0.546347
0.544415
0.542721
0.544302
0.545347
0.546091
0.546505
0.546695
0.546743
0.546707
0.546627
0.546532
0.546441
0.546365
0.546311
0.546284
0.546283
0.546311
0.546364
0.54644
0.546531
0.546626
0.546705
0.546742
0.546694
0.546503
0.54609
0.545346
0.544301
0.54272
0.544413
0.541637
0.540791
0.54303
0.544293
0.545095
0.545484
0.54562
0.545609
0.54552
0.545398
0.545271
0.545158
0.545067
0.545004
0.544972
0.544972
0.545004
0.545066
0.545157
0.54527
0.545397
0.545519
0.545608
0.545619
0.545483
0.545094
0.544292
0.543029
0.54079
0.541635
0.537992
0.538846
0.541559
0.54296
0.543715
0.544003
0.544037
0.543941
0.543788
0.543623
0.543468
0.543337
0.543236
0.543168
0.543134
0.543133
0.543167
0.543235
0.543336
0.543467
0.543622
0.543787
0.543939
0.544036
0.544002
0.543714
0.542959
0.541558
0.538846
0.53799
0.533399
0.536362
0.539289
0.540515
0.541002
0.54106
0.540926
0.540725
0.540518
0.54033
0.540171
0.540045
0.539951
0.539889
0.539858
0.539858
0.539889
0.53995
0.540044
0.54017
0.540329
0.540517
0.540725
0.540925
0.541059
0.541001
0.540514
0.539288
0.536361
0.533398
0.521715
0.526927
0.528104
0.52748
0.526318
0.525117
0.524097
0.523318
0.52275
0.522347
0.522065
0.521872
0.521744
0.521667
0.52163
0.521629
0.521666
0.521744
0.521871
0.522064
0.522346
0.522749
0.523317
0.524097
0.525117
0.526317
0.527479
0.528103
0.526926
0.521715
0.428987
0.439882
0.43572
0.429145
0.423058
0.418302
0.41483
0.412377
0.410659
0.409462
0.408641
0.408082
0.407718
0.407498
0.407395
0.407395
0.407497
0.407717
0.40808
0.408639
0.409461
0.410657
0.412375
0.414828
0.418301
0.423057
0.429145
0.43572
0.439883
0.42899
0.103524
0.109345
0.106945
0.102097
0.097398
0.0936478
0.0908653
0.0888621
0.0874358
0.0864281
0.0857214
0.0852385
0.0849184
0.0847249
0.0846338
0.0846338
0.0847249
0.0849182
0.0852383
0.0857211
0.0864277
0.0874355
0.0888617
0.090865
0.0936476
0.0973982
0.102098
0.106946
0.109346
0.103524
0.00955114
0.00975976
0.00936609
0.00860722
0.00783444
0.00720437
0.00673316
0.00639202
0.00615053
0.00598116
0.00586191
0.00578165
0.00572805
0.00569597
0.00568085
0.00568086
0.005696
0.00572808
0.00578169
0.00586196
0.00598121
0.00615059
0.00639209
0.00673324
0.00720449
0.00783461
0.00860747
0.00936645
0.00976009
0.00955087
0.000414968
0.000364882
0.000328606
0.000287041
0.000249305
0.000219924
0.000198603
0.000183499
0.000172982
0.000165672
0.000160564
0.00015712
0.000154825
0.000153446
0.000152785
0.000152786
0.000153449
0.00015483
0.000157127
0.000160572
0.000165681
0.000172992
0.00018351
0.000198615
0.000219939
0.000249323
0.000287063
0.000328631
0.000364893
0.000414907
7.76877e-06
5.36347e-06
4.26124e-06
3.42272e-06
2.80186e-06
2.36774e-06
2.07212e-06
1.87054e-06
1.73227e-06
1.63611e-06
1.56862e-06
1.52226e-06
1.49097e-06
1.47187e-06
1.46249e-06
1.46252e-06
1.47195e-06
1.4911e-06
1.52244e-06
1.56884e-06
1.63636e-06
1.73255e-06
1.87085e-06
2.07246e-06
2.36812e-06
2.8023e-06
3.42321e-06
4.2617e-06
5.36346e-06
7.76616e-06
5.29459e-08
2.8255e-08
1.91335e-08
1.38773e-08
1.06754e-08
8.68905e-09
7.42115e-09
6.57691e-09
5.9944e-09
5.5798e-09
5.27994e-09
5.06778e-09
4.9206e-09
4.82904e-09
4.78308e-09
4.78325e-09
4.82951e-09
4.92138e-09
5.06885e-09
5.28127e-09
5.58137e-09
5.99619e-09
6.57892e-09
7.42339e-09
8.69155e-09
1.06782e-08
1.38804e-08
1.91362e-08
2.82532e-08
5.29157e-08
1.04346e-10
4.58952e-11
2.68608e-11
1.78743e-11
1.31428e-11
1.04977e-11
8.86604e-12
7.78079e-12
7.00286e-12
6.43593e-12
6.0045e-12
5.69045e-12
5.45667e-12
5.32586e-12
5.25088e-12
5.25114e-12
5.32663e-12
5.45794e-12
5.6922e-12
6.00671e-12
6.43858e-12
7.00594e-12
7.78429e-12
8.86998e-12
1.05022e-11
1.3148e-11
1.78798e-11
2.68655e-11
4.58891e-11
1.04259e-10
6.6995e-13
6.57218e-13
6.33278e-13
6.38064e-13
6.20162e-13
6.25933e-13
6.16716e-13
6.07055e-13
6.12383e-13
6.17754e-13
6.10141e-13
5.95964e-13
6.06978e-13
6.11799e-13
6.15207e-13
6.15233e-13
6.11874e-13
6.07097e-13
5.96116e-13
6.10325e-13
6.17961e-13
6.12599e-13
6.07272e-13
6.16935e-13
6.26147e-13
6.20289e-13
6.38241e-13
6.33397e-13
6.57217e-13
6.69376e-13
3.59895e-13
3.60221e-13