/*--------------------------------*- C++ -*----------------------------------*\
| =========                 |                                                 |
| \\      /  F ield         | OpenFOAM: The Open Source CFD Toolbox           |
|  \\    /   O peration     | Version:  v1606+                                |
|   \\  /    A nd           | Web:      www.OpenFOAM.com                      |
|    \\/     M anipulation  |                                                 |
\*---------------------------------------------------------------------------*/
FoamFile
{
    version     2.0;
    format      ascii;
    class       volScalarField;
    location    "0.06";
    object      alphat.air;
}
// * * * * * * * * * * * * * * * * * * * * * * * * * * * * * * * * * * * * * //

dimensions      [1 -1 -1 0 0 0 0];

internalField   nonuniform List<scalar> 
6000
(
0.000402874
0.00362926
0.00583716
0.00635659
0.00652372
0.00659536
0.00663417
0.00665223
0.00666145
0.00666667
0.00666966
0.0066718
0.00667347
0.00667416
0.0066748
0.0066747
0.00667418
0.00667361
0.00667203
0.00667014
0.00666724
0.00666303
0.00665575
0.00663381
0.0065926
0.00652066
0.00635616
0.00583732
0.00362954
0.000404067
0.000284193
0.0020825
0.00396073
0.00500311
0.00546923
0.00568026
0.00578589
0.00584541
0.00588255
0.00590692
0.00592361
0.00593501
0.0059427
0.00594745
0.00594966
0.0059496
0.00594729
0.00594247
0.00593468
0.00592311
0.00590629
0.00588157
0.00584412
0.00578495
0.00567942
0.00546853
0.00500174
0.00395785
0.00207959
0.000284277
0.000244959
0.00166111
0.00323833
0.0043185
0.00494607
0.0053067
0.00551238
0.00563416
0.00571055
0.00576017
0.0057938
0.00581672
0.00583203
0.00584147
0.00584592
0.00584586
0.00584125
0.00583161
0.00581609
0.00579291
0.00575894
0.00570877
0.00563207
0.00551045
0.00530499
0.00494454
0.00431555
0.00323322
0.00165622
0.000244872
0.000218022
0.00147186
0.00282417
0.00387274
0.00456406
0.0049976
0.00526573
0.00543434
0.00554425
0.00561818
0.0056692
0.00570452
0.00572837
0.0057432
0.00575028
0.00575027
0.00574308
0.00572812
0.00570407
0.0056685
0.00561721
0.00554297
0.00543279
0.00526395
0.00499559
0.00456143
0.00386861
0.00281799
0.00146572
0.000217604
0.000196615
0.00130151
0.00255062
0.00354774
0.00425697
0.00473202
0.00504193
0.00524398
0.00537818
0.00546988
0.00553394
0.00557903
0.00560998
0.00562951
0.00563899
0.00563902
0.00562956
0.00560996
0.00557885
0.00553353
0.00546925
0.00537733
0.00524288
0.00504042
0.00472997
0.00425389
0.003543
0.00254356
0.00129244
0.000196252
0.000181355
0.00117915
0.00236466
0.00332088
0.00403149
0.00453194
0.00487255
0.00510054
0.00525301
0.0053564
0.00542777
0.00547748
0.00551141
0.00553277
0.00554318
0.00554323
0.00553291
0.00551153
0.00547749
0.00542761
0.00535607
0.00525251
0.00509979
0.00487137
0.0045301
0.00402862
0.00331664
0.002359
0.00117334
0.000181148
0.000172084
0.00113255
0.00225227
0.00316784
0.00387153
0.0043891
0.00475688
0.00501185
0.00518595
0.00530413
0.00538431
0.00543846
0.00547418
0.00549601
0.00550642
0.00550647
0.00549614
0.00547433
0.00543857
0.00538431
0.00530402
0.00518569
0.00501135
0.00475598
0.00438761
0.00386925
0.00316468
0.00224855
0.00112973
0.000172004
0.000166035
0.00111923
0.0021832
0.00306104
0.00375277
0.00427964
0.00466901
0.00494968
0.00514807
0.0052862
0.00538111
0.00544519
0.005487
0.00551216
0.00552399
0.00552403
0.00551227
0.00548714
0.00544532
0.0053812
0.00528621
0.00514796
0.00494936
0.00466837
0.00427855
0.00375114
0.0030589
0.00218088
0.00111771
0.000166
0.000161215
0.00110919
0.00213656
0.00298461
0.0036635
0.00419394
0.00459823
0.00489936
0.00511911
0.00527657
0.00538732
0.00546339
0.00551359
0.00554396
0.00555826
0.0055583
0.00554406
0.00551372
0.00546354
0.00538745
0.00527664
0.00511909
0.00489917
0.00459781
0.0041932
0.00366241
0.00298322
0.00213511
0.00110822
0.000161196
0.000157497
0.0011004
0.00210334
0.00292902
0.00359645
0.00412755
0.00454197
0.00485876
0.00509611
0.00527046
0.00539583
0.00548354
0.00554223
0.0055781
0.00559509
0.00559512
0.00557819
0.00554236
0.00548368
0.00539597
0.00527057
0.00509614
0.00485867
0.0045417
0.00412707
0.00359574
0.00292813
0.00210241
0.00109973
0.000157486
0.000154755
0.00109433
0.00207894
0.00288766
0.00354566
0.00407626
0.00449776
0.0048266
0.00507826
0.00526696
0.00540524
0.00550357
0.00557027
0.00561141
0.00563101
0.00563104
0.00561149
0.00557038
0.00550371
0.00540537
0.00526707
0.00507831
0.00482656
0.0044976
0.00407595
0.0035452
0.00288709
0.00207833
0.00109387
0.000154748
0.000152745
0.00109032
0.00206017
0.00285584
0.00350637
0.00403617
0.00446282
0.00480104
0.00506428
0.00526501
0.00541445
0.00552221
0.00559614
0.00564216
0.00566419
0.00566421
0.00564222
0.00559624
0.00552233
0.00541456
0.00526511
0.00506434
0.00480103
0.00446272
0.00403597
0.00350606
0.00285545
0.00205976
0.00109001
0.000152741
0.000151253
0.00108711
0.00204485
0.00283037
0.0034751
0.00400415
0.00443466
0.00478019
0.00505275
0.00526342
0.00542229
0.0055382
0.0056185
0.00566885
0.00569307
0.00569309
0.00566891
0.00561858
0.0055383
0.00542239
0.0052635
0.0050528
0.00478018
0.00443459
0.004004
0.00347487
0.00283009
0.00204457
0.0010869
0.000151251
0.000150129
0.00108399
0.00203173
0.00280923
0.00344945
0.00397785
0.00441127
0.00476248
0.00504245
0.00526118
0.00542785
0.00555062
0.00563636
0.00569046
0.00571658
0.00571659
0.0056905
0.00563643
0.0055507
0.00542793
0.00526125
0.00504249
0.00476248
0.00441121
0.00397773
0.00344927
0.00280902
0.00203152
0.00108385
0.000150127
0.000149266
0.00108077
0.00202017
0.00279125
0.00342786
0.00395565
0.00439123
0.00474677
0.0050325
0.00525763
0.0054306
0.00555898
0.00564924
0.00570647
0.00573419
0.0057342
0.0057065
0.00564929
0.00555904
0.00543066
0.00525768
0.00503253
0.00474676
0.00439117
0.00395555
0.00342771
0.00279106
0.00201999
0.00108065
0.000149265
0.000148592
0.00107748
0.00200991
0.00277573
0.00340936
0.00393649
0.00437353
0.00473226
0.00502236
0.00525242
0.00543034
0.00556319
0.00565708
0.00571685
0.00574588
0.00574589
0.00571688
0.00565712
0.00556324
0.00543039
0.00525246
0.00502238
0.00473225
0.00437348
0.0039364
0.00340923
0.00277557
0.00200975
0.00107737
0.000148591
0.000148049
0.00107422
0.00200085
0.0027623
0.00339334
0.00391966
0.00435753
0.00471847
0.00501173
0.00524548
0.00542714
0.00556344
0.00566016
0.00572193
0.00575199
0.005752
0.00572196
0.0056602
0.00556348
0.00542719
0.00524551
0.00501175
0.00471846
0.00435749
0.00391958
0.00339322
0.00276215
0.00200069
0.00107411
0.000148047
0.000147598
0.00107109
0.00199293
0.00275068
0.00337936
0.00390468
0.00434282
0.00470512
0.00500054
0.0052369
0.00542131
0.00556016
0.00565901
0.00572229
0.00575314
0.00575315
0.00572232
0.00565904
0.0055602
0.00542135
0.00523694
0.00500056
0.00470512
0.0043428
0.00390462
0.00337927
0.00275056
0.00199279
0.00107097
0.000147595
0.000147214
0.00106819
0.00198611
0.00274066
0.00336709
0.00389119
0.00432913
0.00469209
0.00498884
0.00522694
0.00541324
0.0055539
0.00565427
0.00571866
0.00575008
0.00575009
0.00571868
0.00565431
0.00555394
0.00541328
0.00522698
0.00498887
0.00469211
0.00432912
0.00389116
0.00336703
0.00274057
0.001986
0.00106808
0.00014721
0.000146873
0.00106572
0.00198031
0.00273196
0.0033562
0.00387891
0.00431627
0.00467935
0.00497676
0.0052159
0.0054034
0.00554526
0.00564667
0.00571181
0.00574363
0.00574364
0.00571184
0.00564671
0.00554532
0.00540346
0.00521596
0.00497681
0.00467938
0.00431628
0.0038789
0.00335616
0.0027319
0.00198023
0.00106564
0.00014687
0.000146582
0.00106372
0.00197531
0.00272425
0.00334635
0.00386757
0.00430408
0.00466688
0.00496447
0.0052041
0.00539228
0.00553485
0.0056369
0.00570252
0.00573459
0.0057346
0.00570255
0.00563695
0.00553492
0.00539236
0.00520418
0.00496454
0.00466693
0.00430411
0.00386759
0.00334634
0.00272422
0.00197526
0.00106368
0.000146579
0.000146324
0.00106201
0.00197079
0.00271721
0.00333726
0.00385697
0.00429246
0.00465471
0.00495212
0.00519185
0.00538029
0.0055232
0.00562557
0.00569145
0.00572366
0.00572367
0.00569149
0.00562564
0.00552328
0.00538039
0.00519195
0.00495223
0.0046548
0.00429253
0.00385701
0.00333728
0.00271721
0.00197078
0.001062
0.000146322
0.000146074
0.00106032
0.00196648
0.00271058
0.00332873
0.00384695
0.00428136
0.00464289
0.00493987
0.00517939
0.00536779
0.00551075
0.00561322
0.00567918
0.00571145
0.00571147
0.00567924
0.00561331
0.00551086
0.00536792
0.00517953
0.00494
0.00464301
0.00428148
0.00384703
0.00332878
0.00271061
0.00196649
0.00106033
0.000146073
0.000145827
0.00105842
0.00196218
0.0027042
0.0033206
0.00383742
0.00427074
0.00463143
0.00492782
0.00516694
0.00535509
0.00549791
0.00560031
0.00566625
0.00569851
0.00569854
0.00566632
0.00560043
0.00549806
0.00535526
0.00516712
0.004928
0.0046316
0.0042709
0.00383756
0.0033207
0.00270426
0.00196222
0.00105844
0.000145827
0.000145577
0.00105624
0.00195783
0.00269798
0.00331282
0.00382833
0.00426057
0.00462038
0.00491607
0.00515467
0.00534244
0.00548499
0.00558722
0.00565306
0.00568528
0.00568531
0.00565315
0.00558736
0.00548517
0.00534264
0.00515488
0.00491628
0.00462059
0.00426078
0.00382852
0.00331297
0.00269808
0.00195789
0.00105626
0.000145577
0.000145323
0.00105386
0.00195343
0.0026919
0.00330534
0.00381964
0.00425081
0.00460969
0.00490462
0.00514263
0.00532995
0.00547218
0.00557418
0.00563988
0.00567203
0.00567207
0.00563999
0.00557435
0.00547239
0.00533018
0.00514287
0.00490488
0.00460995
0.00425106
0.00381988
0.00330554
0.00269205
0.00195352
0.00105389
0.000145323
0.000145069
0.00105136
0.00194902
0.00268598
0.00329814
0.00381128
0.00424138
0.00459933
0.00489347
0.00513083
0.00531767
0.00545955
0.00556131
0.00562684
0.00565891
0.00565895
0.00562696
0.00556149
0.00545978
0.00531793
0.00513111
0.00489376
0.00459963
0.00424168
0.00381157
0.0032984
0.00268618
0.00194915
0.00105142
0.00014507
0.000144815
0.0010488
0.00194464
0.00268023
0.00329119
0.00380318
0.00423221
0.00458921
0.00488255
0.00511925
0.00530558
0.0054471
0.0055486
0.00561397
0.00564597
0.00564601
0.0056141
0.0055488
0.00544735
0.00530586
0.00511957
0.00488288
0.00458955
0.00423255
0.00380351
0.0032915
0.00268049
0.00194481
0.00104888
0.000144817
0.000144564
0.00104621
0.00194035
0.00267467
0.00328444
0.00379526
0.00422323
0.00457929
0.00487182
0.00510786
0.00529365
0.00543478
0.00553604
0.00560126
0.00563318
0.00563323
0.0056014
0.00553625
0.00543505
0.00529396
0.0051082
0.00487218
0.00457966
0.00422359
0.00379561
0.00328477
0.00267497
0.00194055
0.00104631
0.000144566
0.000144313
0.00104361
0.0019362
0.0026693
0.00327784
0.0037875
0.0042144
0.00456952
0.00486124
0.00509661
0.00528187
0.0054226
0.00552359
0.00558866
0.00562052
0.00562057
0.00558881
0.00552381
0.00542288
0.0052822
0.00509697
0.00486162
0.0045699
0.00421477
0.00378786
0.00327818
0.00266961
0.00193646
0.00104372
0.000144316
0.000144065
0.00104102
0.00193234
0.00266413
0.00327139
0.00377985
0.00420568
0.00455986
0.00485077
0.00508547
0.0052702
0.00541051
0.00551122
0.00557615
0.00560793
0.00560798
0.00557629
0.00551145
0.0054108
0.00527053
0.00508583
0.00485115
0.00456024
0.00420605
0.0037802
0.00327172
0.00266444
0.0019326
0.00104115
0.000144069
0.000143826
0.00103858
0.0019286
0.00265909
0.00326504
0.0037723
0.00419705
0.00455028
0.00484038
0.00507441
0.00525861
0.00539851
0.00549893
0.00556368
0.00559538
0.00559543
0.00556381
0.00549914
0.00539879
0.00525892
0.00507476
0.00484074
0.00455063
0.00419739
0.00377262
0.00326533
0.00265937
0.00192883
0.00103872
0.000143832
0.000143598
0.00103639
0.00192501
0.00265415
0.00325876
0.00376481
0.00418847
0.00454075
0.00483005
0.00506342
0.00524708
0.00538657
0.00548668
0.00555123
0.00558285
0.00558289
0.00555135
0.00548687
0.00538681
0.00524736
0.00506373
0.00483037
0.00454107
0.00418876
0.00376508
0.00325901
0.00265439
0.00192524
0.00103656
0.000143605
0.000143382
0.00103454
0.00192178
0.00264935
0.00325255
0.00375735
0.00417993
0.00453127
0.00481978
0.00505248
0.00523561
0.00537468
0.00547448
0.00553881
0.00557032
0.00557035
0.0055389
0.00547462
0.00537487
0.00523584
0.00505274
0.00482004
0.00453152
0.00418016
0.00375756
0.00325273
0.00264953
0.00192198
0.00103469
0.000143391
0.000143186
0.00103294
0.0019187
0.00264457
0.00324634
0.00374991
0.00417142
0.00452184
0.00480955
0.0050416
0.00522418
0.00536284
0.00546231
0.00552641
0.0055578
0.00555782
0.00552647
0.0054624
0.00536296
0.00522434
0.00504177
0.00480973
0.004522
0.00417156
0.00375004
0.00324645
0.00264468
0.00191885
0.00103314
0.000143197
0.000143028
0.00103222
0.00191557
0.00263969
0.00324009
0.00374247
0.00416293
0.00451245
0.00479938
0.00503077
0.00521282
0.00535104
0.00545019
0.00551405
0.00554531
0.00554532
0.00551407
0.00545022
0.00535109
0.00521289
0.00503085
0.00479946
0.00451251
0.00416298
0.0037425
0.00324012
0.00263973
0.00191565
0.00103242
0.000143037
0.000142834
0.00103132
0.00191219
0.00263469
0.00323378
0.00373502
0.00415448
0.00450311
0.00478927
0.00502001
0.00520151
0.0053393
0.00543812
0.00550175
0.00553288
0.00553287
0.00550173
0.00543808
0.00533927
0.00520149
0.00501998
0.00478924
0.00450306
0.00415443
0.00373496
0.00323373
0.00263466
0.00191218
0.00103139
0.000142836
0.000142587
0.00102934
0.0019084
0.00262954
0.00322742
0.00372757
0.00414606
0.00449381
0.00477922
0.00500931
0.00519027
0.00532762
0.00542611
0.00548951
0.00552051
0.00552048
0.00548944
0.00542601
0.00532751
0.00519015
0.00500917
0.00477908
0.00449366
0.0041459
0.00372743
0.00322729
0.00262944
0.00190831
0.00102925
0.000142583
0.000142334
0.00102658
0.00190438
0.00262431
0.00322105
0.00372015
0.00413767
0.00448457
0.00476923
0.00499866
0.00517908
0.005316
0.00541415
0.00547732
0.00550819
0.00550816
0.00547722
0.00541399
0.00531581
0.00517886
0.00499842
0.00476897
0.00448432
0.00413743
0.00371993
0.00322086
0.00262416
0.00190426
0.00102648
0.000142333
0.000142104
0.00102398
0.0019004
0.00261911
0.0032147
0.00371275
0.00412932
0.00447537
0.00475928
0.00498808
0.00516796
0.00530444
0.00540225
0.0054652
0.00549594
0.0054959
0.00546506
0.00540204
0.00530417
0.00516765
0.00498774
0.00475893
0.00447503
0.004129
0.00371247
0.00321446
0.00261892
0.00190027
0.00102389
0.000142103
0.00014188
0.0010216
0.00189652
0.00261395
0.00320838
0.00370538
0.004121
0.00446621
0.00474938
0.00497754
0.00515688
0.00529292
0.00539041
0.00545313
0.00548376
0.0054837
0.00545296
0.00539014
0.00529259
0.00515649
0.00497711
0.00474894
0.00446579
0.00412061
0.00370505
0.00320811
0.00261373
0.00189637
0.00102152
0.00014188
0.000141658
0.00101935
0.00189271
0.00260883
0.00320209
0.00369803
0.00411271
0.00445707
0.0047395
0.00496703
0.00514584
0.00528146
0.00537862
0.00544112
0.00547163
0.00547157
0.00544093
0.00537832
0.00528107
0.00514539
0.00496654
0.004739
0.00445659
0.00411227
0.00369766
0.00320179
0.0026086
0.00189255
0.00101926
0.000141658
0.000141438
0.00101715
0.00188895
0.00260374
0.00319582
0.0036907
0.00410442
0.00444794
0.00472965
0.00495655
0.00513485
0.00527005
0.00536689
0.00542918
0.00545958
0.00545951
0.00542897
0.00536656
0.00526962
0.00513435
0.00495601
0.0047291
0.00444742
0.00410395
0.0036903
0.00319551
0.0026035
0.00188878
0.00101706
0.000141437
0.000141218
0.00101499
0.00188522
0.00259867
0.00318955
0.00368336
0.00409613
0.00443882
0.0047198
0.00494609
0.00512388
0.00525867
0.00535522
0.0054173
0.0054476
0.00544753
0.00541708
0.00535487
0.00525823
0.00512336
0.00494553
0.00471924
0.00443829
0.00409565
0.00368296
0.00318923
0.00259842
0.00188505
0.0010149
0.000141218
0.000141
0.00101287
0.0018815
0.0025936
0.00318329
0.00367602
0.00408784
0.0044297
0.00470996
0.00493565
0.00511294
0.00524735
0.0053436
0.00540549
0.0054357
0.00543562
0.00540527
0.00534325
0.0052469
0.00511243
0.00493509
0.0047094
0.00442917
0.00408736
0.00367562
0.00318297
0.00259336
0.00188134
0.00101278
0.000141
0.000140784
0.00101077
0.0018778
0.00258853
0.00317701
0.00366867
0.00407954
0.00442057
0.00470013
0.00492523
0.00510203
0.00523606
0.00533202
0.00539373
0.00542386
0.00542379
0.00539353
0.0053317
0.00523563
0.00510154
0.00492469
0.0046996
0.00442006
0.00407908
0.00366828
0.0031767
0.0025883
0.00187764
0.00101069
0.000140784
0.00014057
0.00100868
0.0018741
0.00258346
0.00317073
0.00366132
0.00407124
0.00441145
0.00469031
0.00491482
0.00509115
0.0052248
0.0053205
0.00538203
0.00541207
0.00541201
0.00538184
0.00532019
0.00522441
0.00509069
0.00491432
0.00468981
0.00441098
0.00407081
0.00366095
0.00317043
0.00258323
0.00187394
0.0010086
0.00014057
0.000140357
0.0010066
0.0018704
0.0025784
0.00316446
0.00365397
0.00406295
0.00440234
0.0046805
0.00490443
0.00508029
0.00521358
0.00530901
0.00537037
0.00540033
0.00540028
0.0053702
0.00530874
0.00521323
0.00507989
0.00490399
0.00468006
0.00440191
0.00406255
0.00365362
0.00316417
0.00257817
0.00187024
0.00100652
0.000140357
0.000140144
0.00100452
0.00186671
0.00257334
0.00315819
0.00364663
0.00405467
0.00439325
0.00467072
0.00489407
0.00506946
0.00520238
0.00529755
0.00535875
0.00538863
0.00538858
0.00535861
0.00529732
0.00520209
0.00506912
0.00489369
0.00467033
0.00439287
0.00405431
0.00364631
0.00315792
0.00257312
0.00186655
0.00100444
0.000140144
0.000139931
0.00100245
0.00186303
0.0025683
0.00315194
0.00363931
0.00404641
0.00438417
0.00466095
0.00488373
0.00505866
0.00519122
0.00528612
0.00534715
0.00537696
0.00537692
0.00534704
0.00528594
0.00519098
0.00505838
0.00488342
0.00466063
0.00438385
0.0040461
0.00363902
0.00315168
0.00256808
0.00186287
0.00100236
0.000139931
0.000139718
0.00100037
0.00185936
0.00256327
0.00314571
0.00363201
0.00403817
0.00437513
0.00465122
0.00487342
0.00504789
0.00518009
0.00527473
0.00533559
0.00536532
0.00536529
0.0053355
0.00527459
0.0051799
0.00504767
0.00487317
0.00465096
0.00437486
0.0040379
0.00363175
0.00314547
0.00256305
0.00185919
0.00100028
0.000139717
0.000139504
0.0009983
0.0018557
0.00255826
0.0031395
0.00362473
0.00402995
0.0043661
0.0046415
0.00486313
0.00503714
0.00516898
0.00526336
0.00532405
0.0053537
0.00535368
0.00532399
0.00526326
0.00516885
0.00503698
0.00486296
0.0046413
0.00436589
0.00402973
0.0036245
0.00313927
0.00255804
0.00185552
0.000998189
0.000139501
0.000139289
0.000996239
0.00185206
0.00255325
0.00313329
0.00361746
0.00402175
0.00435709
0.00463181
0.00485287
0.00502642
0.0051579
0.00525201
0.00531253
0.0053421
0.00534209
0.0053125
0.00525195
0.00515782
0.00502632
0.00485275
0.00463167
0.00435693
0.00402157
0.00361726
0.00313308
0.00255304
0.00185186
0.000996108
0.000139285
0.000139074
0.000994187
0.00184842
0.00254825
0.00312708
0.00361018
0.00401354
0.00434808
0.00462212
0.00484262
0.00501571
0.00514684
0.00524069
0.00530104
0.00533053
0.00533052
0.00530103
0.00524067
0.0051468
0.00501567
0.00484256
0.00462205
0.00434798
0.00401341
0.00361002
0.00312689
0.00254804
0.00184821
0.000994036
0.000139068
0.000138858
0.000992144
0.00184478
0.00254324
0.00312086
0.0036029
0.00400533
0.00433907
0.00461244
0.00483238
0.00500502
0.0051358
0.00522939
0.00528956
0.00531898
0.00531898
0.00528957
0.00522939
0.0051358
0.00500502
0.00483238
0.00461242
0.00433903
0.00400525
0.00360277
0.0031207
0.00254304
0.00184457
0.000991976
0.000138851
0.000138643
0.000990106
0.00184113
0.00253821
0.00311463
0.0035956
0.00399711
0.00433006
0.00460276
0.00482214
0.00499433
0.00512476
0.0052181
0.00527811
0.00530744
0.00530744
0.00527813
0.00521813
0.0051248
0.00499438
0.00482219
0.00460279
0.00433006
0.00399707
0.00359552
0.00311449
0.00253803
0.00184092
0.000989929
0.000138635
0.000138427
0.000988068
0.00183746
0.00253317
0.00310837
0.00358828
0.00398887
0.00432103
0.00459306
0.0048119
0.00498364
0.00511372
0.00520681
0.00526666
0.00529591
0.00529592
0.0052667
0.00520687
0.00511381
0.00498374
0.004812
0.00459315
0.00432109
0.00398889
0.00358825
0.00310827
0.00253302
0.00183728
0.000987893
0.000138419
0.000138212
0.000986026
0.00183379
0.00252811
0.0031021
0.00358095
0.00398062
0.00431199
0.00458336
0.00480164
0.00497294
0.00510268
0.00519552
0.0052552
0.00528438
0.0052844
0.00525527
0.00519562
0.00510281
0.00497309
0.0048018
0.0045835
0.00431211
0.00398069
0.00358097
0.00310205
0.002528
0.00183363
0.000985867
0.000138204
0.000137997
0.000983976
0.0018301
0.00252304
0.00309582
0.00357361
0.00397236
0.00430295
0.00457365
0.00479139
0.00496224
0.00509163
0.00518422
0.00524375
0.00527284
0.00527287
0.00524383
0.00518435
0.00509181
0.00496244
0.0047916
0.00457386
0.00430313
0.0039725
0.0035737
0.00309583
0.00252298
0.00182999
0.000983847
0.00013799
0.000137782
0.000981916
0.00182641
0.00251796
0.00308954
0.00356628
0.00396412
0.00429392
0.00456395
0.00478113
0.00495154
0.00508059
0.00517292
0.00523229
0.00526131
0.00526134
0.00523239
0.00517309
0.0050808
0.00495179
0.0047814
0.00456422
0.00429416
0.00396432
0.00356643
0.00308962
0.00251798
0.00182636
0.00098183
0.000137776
0.000137565
0.000979848
0.00182272
0.0025129
0.00308327
0.00355896
0.00395589
0.0042849
0.00455427
0.0047709
0.00494086
0.00506955
0.00516163
0.00522084
0.00524978
0.00524982
0.00522096
0.00516184
0.00506982
0.00494116
0.00477122
0.00455459
0.00428521
0.00395616
0.00355919
0.00308343
0.00251299
0.00182274
0.000979813
0.000137562
0.000137347
0.000977773
0.00181903
0.00250784
0.00307702
0.00355167
0.00394768
0.00427591
0.00454462
0.00476069
0.0049302
0.00505854
0.00515037
0.00520941
0.00523827
0.00523832
0.00520956
0.00515061
0.00505885
0.00493055
0.00476107
0.004545
0.00427628
0.00394802
0.00355196
0.00307726
0.00250801
0.00181913
0.000977797
0.000137346
0.000137129
0.000975697
0.00181535
0.0025028
0.00307079
0.00354439
0.0039395
0.00426695
0.00453499
0.00475052
0.00491958
0.00504757
0.00513914
0.00519801
0.0052268
0.00522685
0.00519818
0.00513941
0.00504792
0.00491998
0.00475095
0.00453544
0.00426739
0.00393991
0.00354477
0.00307111
0.00250305
0.00181552
0.000975779
0.000137129
0.000136909
0.000973625
0.00181168
0.00249778
0.00306458
0.00353715
0.00393135
0.00425803
0.00452541
0.00474039
0.004909
0.00503665
0.00512796
0.00518667
0.00521537
0.00521544
0.00518685
0.00512826
0.00503703
0.00490945
0.00474087
0.00452591
0.00425852
0.00393182
0.00353758
0.00306497
0.0024981
0.00181192
0.000973762
0.000136911
0.000136689
0.000971563
0.00180803
0.00249277
0.0030584
0.00352993
0.00392324
0.00424914
0.00451588
0.00473031
0.00489849
0.00502579
0.00511685
0.00517538
0.00520401
0.00520408
0.00517558
0.00511716
0.00502619
0.00489896
0.00473083
0.00451642
0.00424968
0.00392376
0.00353042
0.00305884
0.00249315
0.00180833
0.000971748
0.000136693
0.000136469
0.000969516
0.00180439
0.00248778
0.00305223
0.00352274
0.00391515
0.0042403
0.00450639
0.00472028
0.00488802
0.00501499
0.0051058
0.00516417
0.00519272
0.00519279
0.00516438
0.00510612
0.00501541
0.00488852
0.00472083
0.00450696
0.00424087
0.00391571
0.00352326
0.0030527
0.0024882
0.00180473
0.000969736
0.000136474
0.00013625
0.000967489
0.00180077
0.00248282
0.00304609
0.00351557
0.00390711
0.00423149
0.00449695
0.00471031
0.00487762
0.00500425
0.00509482
0.00515303
0.0051815
0.00518157
0.00515323
0.00509514
0.00500468
0.00487813
0.00471086
0.00449752
0.00423208
0.00390767
0.0035161
0.00304657
0.00248324
0.00180113
0.000967729
0.000136255
0.000136032
0.000965485
0.00179718
0.00247787
0.00303998
0.00350845
0.0038991
0.00422274
0.00448756
0.0047004
0.00486729
0.00499358
0.00508391
0.00514196
0.00517034
0.00517041
0.00514215
0.00508422
0.00499399
0.00486777
0.00470093
0.00448812
0.00422331
0.00389965
0.00350896
0.00304044
0.00247828
0.00179752
0.000965726
0.000136036
0.000135814
0.000963501
0.00179361
0.00247296
0.00303391
0.00350136
0.00389115
0.00421404
0.00447823
0.00469055
0.00485702
0.00498299
0.00507306
0.00513095
0.00515926
0.00515932
0.00513113
0.00507335
0.00498336
0.00485747
0.00469105
0.00447875
0.00421457
0.00389165
0.00350183
0.00303432
0.00247333
0.00179392
0.000963726
0.000135818
0.000135598
0.000961534
0.00179007
0.00246809
0.00302788
0.00349434
0.00388326
0.00420542
0.00446898
0.00468078
0.00484682
0.00497246
0.00506229
0.00512002
0.00514824
0.00514829
0.00512018
0.00506254
0.00497279
0.00484722
0.00468122
0.00446944
0.00420587
0.0038837
0.00349473
0.00302823
0.00246839
0.00179032
0.000961725
0.0001356
0.00013538
0.000959574
0.00178655
0.00246325
0.00302191
0.00348739
0.00387546
0.00419688
0.00445982
0.0046711
0.00483672
0.00496202
0.00505161
0.00510917
0.00513729
0.00513734
0.00510929
0.00505181
0.00496229
0.00483704
0.00467145
0.00446019
0.00419724
0.0038758
0.00348769
0.00302217
0.00246347
0.00178674
0.000959721
0.000135382
0.000135163
0.000957613
0.00178304
0.00245845
0.003016
0.00348051
0.00386775
0.00418844
0.00445076
0.00466152
0.00482671
0.00495168
0.00504101
0.0050984
0.00512644
0.00512647
0.00509849
0.00504116
0.00495187
0.00482694
0.00466177
0.00445102
0.0041887
0.00386798
0.00348071
0.00301617
0.00245859
0.00178316
0.000957711
0.000135163
0.000134943
0.000955643
0.00177955
0.0024537
0.00301016
0.00347373
0.00386014
0.00418012
0.00444182
0.00465205
0.00481682
0.00494144
0.00503052
0.00508774
0.00511568
0.0051157
0.00508779
0.00503061
0.00494156
0.00481695
0.0046522
0.00444197
0.00418025
0.00386025
0.00347382
0.00301023
0.00245375
0.0017796
0.000955693
0.000134943
0.000134722
0.00095366
0.00177608
0.00244899
0.0030044
0.00346704
0.00385264
0.00417191
0.004433
0.00464271
0.00480704
0.00493132
0.00502015
0.00507719
0.00510504
0.00510504
0.00507721
0.00502018
0.00493136
0.00480708
0.00464275
0.00443303
0.00417192
0.00385264
0.00346703
0.00300438
0.00244897
0.00177607
0.000953667
0.000134722
0.000134499
0.000951662
0.00177262
0.00244434
0.00299872
0.00346046
0.00384526
0.00416383
0.00442431
0.0046335
0.00479739
0.00492133
0.00500989
0.00506676
0.00509451
0.00509451
0.00506674
0.00500987
0.00492129
0.00479734
0.00463343
0.00442423
0.00416374
0.00384516
0.00346036
0.00299862
0.00244426
0.00177256
0.000951637
0.000134498
0.000134274
0.000949656
0.00176919
0.00243975
0.00299313
0.003454
0.00383801
0.00415588
0.00441575
0.00462441
0.00478788
0.00491146
0.00499976
0.00505646
0.00508412
0.0050841
0.00505641
0.00499969
0.00491136
0.00478774
0.00462426
0.00441557
0.0041557
0.00383783
0.00345383
0.00299299
0.00243963
0.00176911
0.000949611
0.000134274
0.000134048
0.000947653
0.0017658
0.00243525
0.00298767
0.00344767
0.00383091
0.00414808
0.00440733
0.00461547
0.00477849
0.00490172
0.00498976
0.00504627
0.00507384
0.00507382
0.0050462
0.00498964
0.00490156
0.00477828
0.00461523
0.00440708
0.00414783
0.00383067
0.00344746
0.00298749
0.00243511
0.00176571
0.000947599
0.000134048
0.000133822
0.00094567
0.00176248
0.00243086
0.00298235
0.0034415
0.00382397
0.00414044
0.00439906
0.00460666
0.00476923
0.00489211
0.00497988
0.00503621
0.00506369
0.00506366
0.00503612
0.00497972
0.0048919
0.00476898
0.00460637
0.00439876
0.00414014
0.0038237
0.00344127
0.00298217
0.00243073
0.0017624
0.000945617
0.000133823
0.000133596
0.00094373
0.00175927
0.00242663
0.00297721
0.00343554
0.00381722
0.00413298
0.00439096
0.004598
0.00476012
0.00488263
0.00497012
0.00502628
0.00505366
0.00505362
0.00502617
0.00496995
0.00488239
0.00475983
0.00459769
0.00439064
0.00413267
0.00381695
0.00343531
0.00297705
0.00242652
0.00175921
0.00094369
0.000133597
0.000133374
0.000941848
0.0017562
0.0024226
0.00297232
0.00342981
0.00381071
0.00412573
0.00438305
0.00458952
0.00475116
0.00487329
0.00496051
0.00501648
0.00504377
0.00504373
0.00501637
0.00496032
0.00487304
0.00475086
0.00458921
0.00438273
0.00412543
0.00381046
0.00342962
0.00297218
0.00242252
0.00175617
0.000941828
0.000133376
0.000133151
0.000940067
0.00175332
0.00241883
0.00296771
0.00342438
0.00380447
0.00411873
0.00437536
0.00458123
0.00474237
0.00486412
0.00495106
0.00500684
0.00503404
0.005034
0.00500672
0.00495087
0.00486388
0.0047421
0.00458094
0.00437508
0.00411847
0.00380427
0.00342423
0.00296763
0.00241879
0.00175332
0.000940065
0.000133156
0.000132935
0.0009384
0.00175069
0.00241539
0.00296347
0.00341932
0.00379857
0.00411203
0.00436793
0.00457318
0.0047338
0.00485514
0.00494178
0.00499737
0.00502448
0.00502444
0.00499726
0.00494161
0.00485492
0.00473355
0.00457292
0.0043677
0.00411183
0.00379842
0.00341922
0.00296344
0.0024154
0.00175072
0.000938428
0.000132937
0.000132725
0.000936895
0.00174841
0.00241241
0.00295971
0.00341469
0.00379307
0.00410568
0.00436081
0.00456539
0.00472546
0.00484638
0.00493272
0.00498812
0.00501513
0.00501509
0.00498802
0.00493257
0.0048462
0.00472526
0.00456518
0.00436063
0.00410554
0.00379298
0.00341466
0.00295973
0.00241246
0.00174848
0.000936936
0.00013273
0.000132517
0.000935574
0.00174639
0.00240981
0.00295645
0.00341063
0.00378806
0.00409974
0.00435404
0.00455791
0.00471741
0.00483789
0.00492392
0.00497912
0.00500603
0.005006
0.00497904
0.0049238
0.00483775
0.00471726
0.00455776
0.00435392
0.00409965
0.00378802
0.00341063
0.00295649
0.00240988
0.00174646
0.00093562
0.000132524
0.00013232
0.000934405
0.00174477
0.00240774
0.00295367
0.00340697
0.00378353
0.00409426
0.00434767
0.00455079
0.00470969
0.00482972
0.00491542
0.00497042
0.00499723
0.00499721
0.00497036
0.00491533
0.00482962
0.00470959
0.00455069
0.0043476
0.00409424
0.00378352
0.00340702
0.00295375
0.00240784
0.00174487
0.000934463
0.000132325
0.000132131
0.000933477
0.00174378
0.0024064
0.00295166
0.00340398
0.00377944
0.00408922
0.00434174
0.00454407
0.00470235
0.00482192
0.0049073
0.0049621
0.00498882
0.00498881
0.00496206
0.00490725
0.00482186
0.00470229
0.00454402
0.00434173
0.00408923
0.00377949
0.00340407
0.00295177
0.00240652
0.00174388
0.000933539
0.000132134
0.000131951
0.000932884
0.00174347
0.00240596
0.00295047
0.00340173
0.003776
0.00408462
0.00433624
0.00453781
0.00469548
0.00481459
0.00489966
0.00495427
0.0049809
0.00498089
0.00495425
0.00489963
0.00481457
0.00469546
0.00453782
0.00433625
0.00408467
0.00377608
0.00340184
0.0029506
0.00240609
0.00174357
0.000932934
0.000131956
0.000131785
0.000932683
0.00174406
0.00240659
0.00295034
0.00340037
0.00377328
0.00408063
0.00433117
0.00453203
0.00468919
0.00480789
0.00489267
0.00494711
0.00497367
0.00497367
0.00494711
0.00489268
0.0048079
0.00468921
0.00453206
0.00433123
0.00408072
0.00377339
0.00340049
0.00295046
0.00240671
0.00174416
0.000932732
0.000131788
0.000131642
0.000933083
0.00174592
0.00240852
0.00295131
0.00339989
0.00377131
0.00407736
0.00432682
0.00452682
0.00468345
0.00480187
0.00488649