/*--------------------------------*- C++ -*----------------------------------*\
| =========                 |                                                 |
| \\      /  F ield         | OpenFOAM: The Open Source CFD Toolbox           |
|  \\    /   O peration     | Version:  v1606+                                |
|   \\  /    A nd           | Web:      www.OpenFOAM.com                      |
|    \\/     M anipulation  |                                                 |
\*---------------------------------------------------------------------------*/
FoamFile
{
    version     2.0;
    format      ascii;
    class       surfaceScalarField;
    location    "0.06";
    object      phi;
}
// * * * * * * * * * * * * * * * * * * * * * * * * * * * * * * * * * * * * * //

dimensions      [0 3 -1 0 0 0 0];

internalField   nonuniform List<scalar> 
11770
(
-1.54245e-06
4.79776e-05
6.15297e-07
4.43841e-05
3.08052e-06
4.41144e-05
4.97419e-06
4.47002e-05
5.9757e-06
4.54457e-05
6.49037e-06
4.58633e-05
6.47814e-06
4.63514e-05
6.18629e-06
4.66476e-05
5.70702e-06
4.68426e-05
5.01964e-06
4.70689e-05
4.20429e-06
4.71973e-05
3.2618e-06
4.73429e-05
2.22191e-06
4.74516e-05
1.14475e-06
4.74902e-05
1.79614e-08
4.75435e-05
-1.08852e-06
4.75217e-05
-2.1496e-06
4.74678e-05
-3.1735e-06
4.74283e-05
-4.15616e-06
4.72934e-05
-4.93525e-06
4.71711e-05
-5.59818e-06
4.6996e-05
-6.14967e-06
4.68623e-05
-6.55239e-06
4.67448e-05
-6.54107e-06
4.63332e-05
-5.95305e-06
4.58028e-05
-4.81071e-06
4.53204e-05
-2.83831e-06
4.46203e-05
-1.262e-07
4.3856e-05
2.36195e-06
4.40568e-05
4.87034e-05
-1.28926e-06
5.27375e-05
2.74991e-07
4.5801e-05
2.65028e-06
4.46163e-05
4.3584e-06
4.58698e-05
5.6131e-06
4.7151e-05
6.50327e-06
4.80466e-05
7.02121e-06
4.90089e-05
7.01643e-06
4.98809e-05
6.56433e-06
5.05488e-05
5.82227e-06
5.10817e-05
4.85795e-06
5.144e-05
3.75292e-06
5.17379e-05
2.55547e-06
5.19488e-05
1.29221e-06
5.20554e-05
1.41587e-08
5.21285e-05
-1.25947e-06
5.21004e-05
-2.51588e-06
5.20243e-05
-3.70853e-06
5.19198e-05
-4.83395e-06
5.17017e-05
-5.80018e-06
5.14194e-05
-6.58007e-06
5.1038e-05
-7.02711e-06
5.05702e-05
-6.91985e-06
4.9885e-05
-6.41911e-06
4.90082e-05
-5.54655e-06
4.79944e-05
-4.31839e-06
4.7038e-05
-2.55374e-06
4.57282e-05
-1.34198e-07
4.42992e-05
1.25937e-06
4.56289e-05
5.35527e-05
-3.08516e-06
5.59564e-05
-2.53829e-07
4.31521e-05
2.12503e-06
4.24622e-05
4.30464e-06
4.39399e-05
5.81022e-06
4.59153e-05
6.56357e-06
4.75784e-05
6.89106e-06
4.89794e-05
6.87009e-06
5.02077e-05
6.45247e-06
5.12771e-05
5.77325e-06
5.20748e-05
4.83821e-06
5.26909e-05
3.75078e-06
5.31433e-05
2.55715e-06
5.34618e-05
1.291e-06
5.36415e-05
1.02511e-08
5.37298e-05
-1.27649e-06
5.37074e-05
-2.5417e-06
5.36092e-05
-3.73051e-06
5.3428e-05
-4.83103e-06
5.31205e-05
-5.77562e-06
5.26806e-05
-6.495e-06
5.20722e-05
-6.87215e-06
5.12595e-05
-6.83603e-06
5.01564e-05
-6.49899e-06
4.89698e-05
-5.7408e-06
4.75213e-05
-4.29317e-06
4.58595e-05
-2.17545e-06
4.386e-05
8.87005e-08
4.22589e-05
2.92465e-06
4.29755e-05
5.66156e-05
-4.74965e-07
5.64943e-05
1.17647e-06
4.15575e-05
2.13137e-06
4.15678e-05
3.08073e-06
4.30549e-05
4.0014e-06
4.50626e-05
4.64011e-06
4.70105e-05
4.99121e-06
4.87012e-05
5.06722e-06
5.02061e-05
4.8734e-06
5.15464e-05
4.4245e-06
5.25998e-05
3.7744e-06
5.34176e-05
2.97173e-06
5.40228e-05
2.0539e-06
5.44566e-05
1.05075e-06
5.47218e-05
1.53102e-08
5.48424e-05
-1.0304e-06
5.48303e-05
-2.03748e-06
5.46934e-05
-2.95973e-06
5.44273e-05
-3.76785e-06
5.40056e-05
-4.42227e-06
5.34118e-05
-4.87352e-06
5.25998e-05
-5.06201e-06
5.15237e-05
-4.99235e-06
5.01614e-05
-4.63146e-06
4.86822e-05
-4.00813e-06
4.6969e-05
-3.11552e-06
4.50351e-05
-2.22289e-06
4.3032e-05
-1.38862e-06
4.14853e-05
1.57437e-07
4.14866e-05
5.68369e-05
3.02325e-06
5.35317e-05
3.17996e-06
4.14515e-05
3.10899e-06
4.16897e-05
3.0975e-06
4.31182e-05
3.25127e-06
4.49619e-05
3.42005e-06
4.68956e-05
3.49874e-06
4.8677e-05
3.46309e-06
5.02966e-05
3.31238e-06
5.17522e-05
3.00718e-06
5.29601e-05
2.57137e-06
5.39085e-05
2.02775e-06
5.46215e-05
1.40647e-06
5.51329e-05
7.26136e-07
5.54571e-05
1.61865e-08
5.56073e-05
-7.01558e-07
5.5603e-05
-1.39211e-06
5.5439e-05
-2.02455e-06
5.51148e-05
-2.5733e-06
5.46095e-05
-3.00921e-06
5.39029e-05
-3.30918e-06
5.29551e-05
-3.46567e-06
5.17355e-05
-3.51864e-06
5.02695e-05
-3.43695e-06
4.86552e-05
-3.28365e-06
4.68699e-05
-3.14485e-06
4.49496e-05
-3.17842e-06
4.31177e-05
-3.32075e-06
4.16789e-05
-3.26689e-06
4.14838e-05
5.36312e-05
4.49906e-06
4.9093e-05
3.99029e-06
4.20116e-05
3.57835e-06
4.21529e-05
3.20508e-06
4.35436e-05
2.97546e-06
4.52446e-05
2.86816e-06
4.70569e-05
2.78199e-06
4.88177e-05
2.67646e-06
5.04569e-05
2.54209e-06
5.19414e-05
2.33715e-06
5.32198e-05
2.0368e-06
5.42634e-05
1.63567e-06
5.5077e-05
1.14873e-06
5.5674e-05
5.97338e-07
5.60624e-05
8.87916e-09
5.62496e-05
-5.82512e-07
5.62483e-05
-1.14291e-06
5.60534e-05
-1.63787e-06
5.56639e-05
-2.04243e-06
5.50685e-05
-2.34164e-06
5.42568e-05
-2.54354e-06
5.3212e-05
-2.68183e-06
5.19288e-05
-2.79789e-06
5.04405e-05
-2.88875e-06
4.88009e-05
-3.00679e-06
4.70422e-05
-3.24284e-06
4.52391e-05
-3.62015e-06
4.35475e-05
-4.05397e-06
4.21643e-05
-4.57512e-06
4.20567e-05
4.91168e-05
3.65383e-06
4.54996e-05
3.69433e-06
4.20247e-05
3.46569e-06
4.24347e-05
3.12261e-06
4.39407e-05
2.78111e-06
4.56412e-05
2.49498e-06
4.73992e-05
2.25352e-06
4.91162e-05
2.04292e-06
5.07252e-05
1.85476e-06
5.21877e-05
1.66161e-06
5.34713e-05
1.43085e-06
5.45524e-05
1.14493e-06
5.5421e-05
8.03602e-07
5.60732e-05
4.17037e-07
5.65067e-05
2.97739e-09
5.67213e-05
-4.11495e-07
5.67204e-05
-8.02479e-07
5.65021e-05
-1.14773e-06
5.60672e-05
-1.43562e-06
5.54146e-05
-1.66629e-06
5.45459e-05
-1.85942e-06
5.34636e-05
-2.05027e-06
5.2178e-05
-2.26608e-06
5.07143e-05
-2.51329e-06
4.91054e-05
-2.80536e-06
4.73907e-05
-3.14887e-06
4.5638e-05
-3.49079e-06
4.39437e-05
-3.71726e-06
4.24442e-05
-3.65455e-06
4.20479e-05
4.5523e-05
2.54739e-06
4.30122e-05
3.11366e-06
4.15132e-05
3.13036e-06
4.24724e-05
2.93063e-06
4.41957e-05
2.64612e-06
4.59821e-05
2.34759e-06
4.77553e-05
2.05849e-06
4.94641e-05
1.78452e-06
5.1059e-05
1.52765e-06
5.25053e-05
1.28299e-06
5.37774e-05
1.0408e-06
5.48566e-05
7.93388e-07
5.57308e-05
5.37342e-07
5.63918e-05
2.72218e-07
5.68345e-05
5.03871e-10
5.70557e-05
-2.7126e-07
5.70549e-05
-5.38084e-07
5.68316e-05
-7.95959e-07
5.63877e-05
-1.04469e-06
5.57258e-05
-1.28765e-06
5.4851e-05
-1.53339e-06
5.3771e-05
-1.79238e-06
5.2498e-05
-2.06933e-06
5.10513e-05
-2.36196e-06
4.9457e-05
-2.66358e-06
4.77501e-05
-2.94916e-06
4.59802e-05
-3.14767e-06
4.41978e-05
-3.12687e-06
4.24781e-05
-2.54832e-06
4.15245e-05
4.30351e-05
2.04985e-06
4.10214e-05
2.66624e-06
4.09521e-05
2.7694e-06
4.24245e-05
2.66469e-06
4.43566e-05
2.4544e-06
4.62497e-05
2.19785e-06
4.80704e-05
1.92593e-06
4.97957e-05
1.65416e-06
5.13917e-05
1.39067e-06
5.28308e-05
1.13862e-06
5.40924e-05
8.97511e-07
5.51615e-05
6.65475e-07
5.60272e-05
4.40194e-07
5.6682e-05
2.19109e-07
5.71208e-05
-2.81905e-10
5.73405e-05
-2.19841e-07
5.73399e-05
-4.41758e-07
5.71188e-05
-6.68112e-07
5.6679e-05
-9.01202e-07
5.60234e-05
-1.1433e-06
5.5157e-05
-1.39652e-06
5.40873e-05
-1.66158e-06
5.28252e-05
-1.93523e-06
5.1386e-05
-2.20906e-06
4.97908e-05
-2.46715e-06
4.8067e-05
-2.67806e-06
4.62487e-05
-2.78219e-06
4.43584e-05
-2.67713e-06
4.24286e-05
-2.05649e-06
4.09594e-05
4.10379e-05
1.71339e-06
3.93662e-05
2.26543e-06
4.04558e-05
2.39916e-06
4.23469e-05
2.35795e-06
4.4455e-05
2.21311e-06
4.64529e-05
2.00911e-06
4.83339e-05
1.77541e-06
5.00901e-05
1.53048e-06
5.16985e-05
1.28568e-06
5.31386e-05
1.0477e-06
5.43944e-05
8.19808e-07
5.54542e-05
6.02827e-07
5.63098e-05
3.95631e-07
5.69553e-05
1.95662e-07
5.73873e-05
-5.87263e-10
5.76035e-05
-1.97023e-07
5.7603e-05
-3.97551e-07
5.73859e-05
-6.05538e-07
5.69532e-05
-8.23409e-07
5.63069e-05
-1.05224e-06
5.54508e-05
-1.29126e-06
5.43905e-05
-1.5372e-06
5.31343e-05
-1.78331e-06
5.16942e-05
-2.018e-06
5.00864e-05
-2.22264e-06
4.83313e-05
-2.36761e-06
4.64522e-05
-2.40838e-06
4.44566e-05
-2.27373e-06
4.23503e-05
-1.71972e-06
4.04614e-05
3.93766e-05
1.37675e-06
3.80471e-05
1.87317e-06
4.00157e-05
2.03368e-06
4.22433e-05
2.04318e-06
4.45037e-05
1.95302e-06
4.66023e-05
1.79787e-06
4.85495e-05
1.60473e-06
5.0345e-05
1.39274e-06
5.19734e-05
1.17484e-06
5.34205e-05
9.59381e-07
5.46749e-05
7.5116e-07
5.57283e-05
5.52156e-07
5.65754e-05
3.62066e-07
5.72126e-05
1.78852e-07
5.76381e-05
-7.00964e-10
5.78508e-05
-1.80413e-07
5.78505e-05
-3.64064e-07
5.76372e-05
-5.54801e-07
5.72111e-05
-7.54578e-07
5.65734e-05
-9.63645e-07
5.57259e-05
-1.17999e-06
5.4672e-05
-1.39876e-06
5.34172e-05
-1.61151e-06
5.197e-05
-1.80513e-06
5.03419e-05
-1.96037e-06
4.85473e-05
-2.0502e-06
4.66015e-05
-2.04007e-06
4.45048e-05
-1.87882e-06
4.22463e-05
-1.38105e-06
4.00202e-05
3.80535e-05
1.06481e-06
3.70396e-05
1.51474e-06
3.96226e-05
1.69725e-06
4.21186e-05
1.74582e-06
4.45141e-05
1.69878e-06
4.67097e-05
1.58467e-06
4.87252e-05
1.42811e-06
5.05643e-05
1.2479e-06
5.22176e-05
1.05759e-06
5.36758e-05
8.6635e-07
5.49322e-05
6.79727e-07
5.59819e-05
5.00308e-07
5.68224e-05
3.2832e-07
5.74528e-05
1.62228e-07
5.78727e-05
-6.83707e-10
5.80825e-05
-1.63726e-07
5.80824e-05
-3.30182e-07
5.78722e-05
-5.02727e-07
5.74519e-05
-6.82836e-07
5.68212e-05
-8.70225e-07
5.59803e-05
-1.06225e-06
5.49301e-05
-1.25328e-06
5.36734e-05
-1.43404e-06
5.22149e-05
-1.59084e-06
5.05616e-05
-1.70475e-06
4.87229e-05
-1.75115e-06
4.67084e-05
-1.70166e-06
4.45145e-05
-1.51827e-06
4.21209e-05
-1.0673e-06
3.96263e-05
3.70437e-05
8.09609e-07
3.62873e-05
1.21106e-06
3.92787e-05
1.40403e-06
4.19842e-05
1.4785e-06
4.44996e-05
1.46278e-06
4.67867e-05
1.38094e-06
4.88696e-05
1.25523e-06
5.07538e-05
1.10351e-06
5.24343e-05
9.39157e-07
5.39063e-05
7.71538e-07
5.51669e-05
6.06501e-07
5.62149e-05
4.46976e-07
5.70506e-05
2.93565e-07
5.76754e-05
1.45143e-07
5.80907e-05
-5.57321e-10
5.8298e-05
-1.4637e-07
5.82979e-05
-2.95112e-07
5.80906e-05
-4.49021e-07
5.76751e-05
-6.09176e-07
5.70501e-05
-7.74922e-07
5.62141e-05
-9.43267e-07
5.51657e-05
-1.10828e-06
5.39047e-05
-1.26049e-06
5.24323e-05
-1.38638e-06
5.07515e-05
-1.46798e-06
4.88673e-05
-1.48295e-06
4.67848e-05
-1.40733e-06
4.44991e-05
-1.21323e-06
4.19856e-05
-8.10861e-07
3.92816e-05
3.62903e-05
6.14004e-07
3.57308e-05
9.65104e-07
3.89857e-05
1.15681e-06
4.1852e-05
1.24484e-06
4.44725e-05
1.24946e-06
4.68444e-05
1.19126e-06
4.89915e-05
1.09032e-06
5.09197e-05
9.63171e-07
5.26276e-05
8.22481e-07
5.41142e-05
6.77233e-07
5.53803e-05
5.33176e-07
5.64279e-05
3.93325e-07
5.72601e-05
2.58508e-07
5.78804e-05
1.27916e-07
5.82919e-05
-3.45058e-10
5.8497e-05
-1.28708e-07
5.8497e-05
-2.59591e-07
5.8292e-05
-3.94865e-07
5.78806e-05
-5.353e-07
5.72603e-05
-6.80025e-07
5.64278e-05
-8.25964e-07
5.53799e-05
-9.67294e-07
5.41133e-05
-1.09494e-06
5.26261e-05
-1.19615e-06
5.09177e-05
-1.25423e-06
4.89891e-05
-1.24897e-06
4.6842e-05
-1.15976e-06
4.44709e-05
-9.66713e-07
4.18522e-05
-6.1461e-07
3.89878e-05
3.57334e-05
4.68179e-07
3.53204e-05
7.70946e-07
3.87419e-05
9.52525e-07
4.17308e-05
1.04373e-06
4.44432e-05
1.05907e-06
4.68924e-05
1.01677e-06
4.90985e-05
9.34936e-07
5.10676e-05
8.28572e-07
5.28011e-05
7.09117e-07
5.43019e-05
5.8475e-07
5.55739e-05
4.60789e-07
5.66219e-05
3.4012e-07
5.74515e-05
2.23649e-07
5.80681e-05
1.10786e-07
5.84763e-05
-7.03798e-11
5.86795e-05
-1.11022e-07
5.86797e-05
-2.24157e-07
5.84767e-05
-3.41052e-07
5.80687e-05
-4.62268e-07
5.74522e-05
-5.86858e-07
5.66225e-05
-7.11887e-07
5.55742e-05
-8.31971e-07
5.43018e-05
-9.38869e-07
5.28003e-05
-1.02107e-06
5.10661e-05
-1.06347e-06
4.90964e-05
-1.04777e-06
4.68898e-05
-9.55613e-07
4.44408e-05
-7.72641e-07
4.17297e-05
-4.6867e-07
3.87429e-05
3.53227e-05
3.61027e-07
3.50178e-05
6.20149e-07
3.85425e-05
7.8534e-07
4.1627e-05
8.71149e-07
4.44203e-05
8.8935e-07
4.69386e-05
8.56759e-07
4.91969e-05
7.89592e-07
5.12019e-05
7.00873e-07
5.29582e-05
6.00435e-07
5.44718e-05
4.95372e-07
5.57492e-05
3.90398e-07
5.6798e-05
2.88142e-07
5.76255e-05
1.89494e-07
5.82389e-05
9.39914e-08
5.86443e-05
2.46941e-10
5.8846e-05
-9.35882e-08
5.88463e-05
-1.89348e-07
5.86451e-05
-2.88397e-07
5.824e-05
-3.91168e-07
5.76268e-05
-4.96736e-07
5.67993e-05
-6.02425e-07
5.57503e-05
-7.03469e-07
5.44723e-05
-7.92726e-07
5.2958e-05
-8.60329e-07
5.12009e-05
-8.9321e-07
4.91952e-05
-8.75011e-07
4.69361e-05
-7.88655e-07
4.44175e-05
-6.22258e-07
4.16247e-05
-3.61756e-07
3.85423e-05
3.50195e-05
2.83291e-07
3.47936e-05
5.03671e-07
3.83828e-05
6.47391e-07
4.15456e-05
7.21078e-07
4.44106e-05
7.3668e-07
4.69885e-05
7.09937e-07
4.92906e-05
6.54615e-07
5.13255e-05
5.81279e-07
5.3101e-05
4.97937e-07
5.46256e-05
4.10547e-07
5.59081e-05
3.23215e-07
5.69575e-05
2.383e-07
5.77832e-05
1.56631e-07
5.83939e-05
7.78137e-08
5.87968e-05
5.909e-10
5.8997e-05
-7.67208e-08
5.89974e-05
-1.55787e-07
5.87978e-05
-2.37837e-07
5.83954e-05
-3.23246e-07
5.77851e-05
-4.11146e-07
5.69594e-05
-4.99129e-07
5.59097e-05
-5.8304e-07
5.46268e-05
-6.56879e-07
5.31014e-05
-7.12623e-07
5.1325e-05
-7.39731e-07
4.92893e-05
-7.24409e-07
4.69864e-05
-6.50663e-07
4.44078e-05
-5.06161e-07
4.15426e-05
-2.84401e-07
3.83812e-05
3.47942e-05
2.27147e-07
3.46263e-05
4.11523e-07
3.82599e-05
5.29317e-07
4.14911e-05
5.86974e-07
4.4418e-05
5.9791e-07
4.70442e-05
5.75739e-07
4.93809e-05
5.30904e-07
5.14397e-05
4.71296e-07
5.32312e-05
4.03221e-07
5.47653e-05
3.31706e-07
5.60521e-05
2.60396e-07
5.71021e-05
1.91443e-07
5.79261e-05
1.2561e-07
5.85341e-05
6.25155e-08
5.89345e-05
9.47576e-10
5.91334e-05
-6.07093e-08
5.91339e-05
-1.24047e-07
5.89358e-05
-1.90247e-07
5.8536e-05
-2.59681e-07
5.79284e-05
-3.31554e-07
5.71046e-05
-4.03652e-07
5.60544e-05
-4.7227e-07
5.47671e-05
-5.32338e-07
5.32321e-05
-5.77517e-07
5.14397e-05
-5.99966e-07
4.938e-05
-5.89359e-07
4.70425e-05
-5.32011e-07
4.44156e-05
-4.13998e-07
4.1488e-05
-2.28545e-07
3.82574e-05
3.46256e-05
1.84614e-07
3.45024e-05
3.32858e-07
3.81742e-05
4.22578e-07
4.14658e-05
4.64733e-07
4.4442e-05
4.72425e-07
4.71043e-05
4.55327e-07
4.94673e-05
4.20193e-07
5.15455e-05
3.72634e-07
5.33505e-05
3.1774e-07
5.4893e-05
2.59991e-07
5.61836e-05
2.02797e-07
5.72338e-05
1.48174e-07
5.80558e-05
9.68105e-08
5.86609e-05
4.82725e-08
5.90588e-05
1.30325e-09
5.92563e-05
-4.57531e-08
5.92569e-05
-9.45265e-08
5.90603e-05
-1.46241e-07
5.86632e-05
-2.01338e-07
5.80586e-05
-2.59108e-07
5.72369e-05
-3.17472e-07
5.61865e-05
-3.72932e-07
5.48954e-05
-4.20954e-07
5.3352e-05
-4.56375e-07
5.15457e-05
-4.736e-07
4.94665e-05
-4.66024e-07
4.71028e-05
-4.24213e-07
4.444e-05
-3.34708e-07
4.1463e-05
-1.85953e-07
3.81713e-05
3.45004e-05
1.47371e-07
3.44166e-05
2.59384e-07
3.81258e-05
3.23935e-07
4.14667e-05
3.55337e-07
4.44779e-05
3.62761e-07
4.71659e-05
3.5118e-07
4.95493e-05
3.24404e-07
5.1644e-05
2.86622e-07
5.34612e-05
2.42355e-07
5.50113e-05
1.95958e-07
5.63048e-05
1.50779e-07
5.73545e-05
1.08713e-07
5.8174e-05
7.03515e-08
5.87759e-05
3.51275e-08
5.91709e-05
1.64456e-09
5.93668e-05
-3.19241e-08
5.93675e-05
-6.73655e-08
5.91727e-05
-1.06054e-07
5.87785e-05
-1.48568e-07
5.81773e-05
-1.94339e-07
5.73582e-05
-2.41415e-07
5.63085e-05
-2.8634e-07
5.50143e-05
-3.2468e-07
5.34633e-05
-3.51786e-07
5.16446e-05
-3.63443e-07
4.95487e-05
-3.5587e-07
4.71643e-05
-3.24524e-07
4.4476e-05
-2.60225e-07
4.14643e-05
-1.48219e-07
3.81229e-05
3.44139e-05
1.11267e-07
3.4368e-05
1.90584e-07
3.81112e-05
2.37415e-07
4.14865e-05
2.63514e-07
4.45203e-05
2.72338e-07
4.72271e-05
2.65256e-07
4.9628e-05
2.44425e-07
5.17377e-05
2.13463e-07
5.35663e-05
1.76906e-07
5.5123e-05
1.39301e-07
5.64184e-05
1.04014e-07
5.74665e-05
7.27878e-08
5.82825e-05
4.60444e-08
5.88804e-05
2.29826e-08
5.9272e-05
1.95426e-09
5.9466e-05
-1.91543e-08
5.94667e-05
-4.23978e-08
5.92739e-05
-6.9424e-08
5.88833e-05
-1.01048e-07
5.82862e-05
-1.36911e-07
5.74708e-05
-1.75231e-07
5.64228e-05
-2.12584e-07
5.51268e-05
-2.443e-07
5.35691e-05
-2.65632e-07
5.17389e-05
-2.72902e-07
4.96275e-05
-2.63858e-07
4.72253e-05
-2.37497e-07
4.45182e-05
-1.90645e-07
4.14841e-05
-1.11475e-07
3.81084e-05
3.43651e-05
7.77767e-08
3.43538e-05
1.32567e-07
3.81221e-05
1.6912e-07
4.15177e-05
1.92611e-07
4.45664e-05
2.0224e-07
4.72888e-05
1.97343e-07
4.97056e-05
1.79271e-07
5.18299e-05
1.51789e-07
5.36691e-05
1.20051e-07
5.5231e-05
8.88582e-08
5.65268e-05
6.15655e-08
5.75717e-05
3.97665e-08
5.83828e-05
2.35326e-08
5.89755e-05
1.1683e-08
5.9363e-05
2.21325e-09
5.95547e-05
-7.30262e-09
5.95555e-05
-1.92733e-08
5.9365e-05
-3.57216e-08
5.89786e-05
-5.78588e-08
5.83868e-05
-8.56661e-08
5.75766e-05
-1.1752e-07
5.65319e-05
-1.50137e-07
5.52358e-05
-1.78594e-07
5.36729e-05
-1.97504e-07
5.1832e-05
-2.02824e-07
4.97057e-05
-1.93131e-07
4.72869e-05
-1.69274e-07
4.45639e-05
-1.32452e-07
4.15151e-05
-7.76271e-08
3.81194e-05
3.43511e-05
5.07126e-08
3.43678e-05
9.03381e-08
3.81494e-05
1.20667e-07
4.15563e-05
1.41609e-07
4.46162e-05
1.50385e-07
4.73524e-05
1.44802e-07
4.97852e-05
1.26035e-07
5.1924e-05
9.8919e-08
5.37727e-05
6.96832e-08
5.53378e-05
4.31973e-08
5.66317e-05
2.25725e-08
5.76714e-05
9.17062e-09
5.84758e-05
2.56642e-09
5.90621e-05
1.10615e-09
5.94447e-05
2.40036e-09
5.96339e-05
3.713e-09
5.96346e-05
2.22446e-09
5.94468e-05
-4.48929e-09
5.90653e-05
-1.81339e-08
5.84801e-05
-3.91649e-08
5.76767e-05
-6.62248e-08
5.66374e-05
-9.62597e-08
5.53434e-05
-1.24457e-07
5.37776e-05
-1.4448e-07
5.19274e-05
-1.50903e-07
4.97861e-05
-1.42353e-07
4.73508e-05
-1.21127e-07
4.46135e-05
-9.04684e-08
4.15533e-05
-5.05982e-08
3.81464e-05
3.43653e-05
3.31549e-08
3.44005e-05
6.34846e-08
3.8187e-05
8.87438e-08
4.16011e-05
1.06664e-07
4.46702e-05
1.12801e-07
4.74199e-05
1.03286e-07
4.98698e-05
8.07712e-08
5.20231e-05
5.18981e-08
5.38793e-05
2.352e-08
5.54449e-05
6.01544e-10
5.67342e-05
-1.40274e-08
5.77663e-05
-1.95978e-08
5.85622e-05
-1.71776e-08
5.91409e-05
-8.89744e-09
5.95179e-05
2.49638e-09
5.9704e-05
1.39783e-08
5.97047e-05
2.23439e-08
5.95199e-05
2.4795e-08
5.91441e-05
1.9136e-08
5.85666e-05
4.2381e-09
5.77719e-05
-1.91277e-08
5.67403e-05
-4.80858e-08
5.54511e-05
-7.79943e-08
5.38853e-05
-1.01955e-07
5.20279e-05
-1.12892e-07
4.98722e-05
-1.07466e-07
4.7419e-05
-8.9437e-08
4.46674e-05
-6.39249e-08
4.15979e-05
-3.32775e-08
3.81838e-05
3.43978e-05
2.36792e-08
3.44437e-05
4.76673e-08
3.82322e-05
6.8513e-08
4.16515e-05
8.34816e-08
4.47283e-05
8.45604e-08
4.74936e-05
6.79307e-08
4.99628e-05
3.92796e-08
5.21295e-05
7.4253e-09
5.39901e-05
-2.0587e-08
5.55529e-05
-4.03041e-08
5.68347e-05
-4.92455e-08
5.78567e-05
-4.72173e-08
5.86421e-05
-3.61132e-08
5.92121e-05
-1.854e-08
5.95829e-05
2.48373e-09
5.97657e-05
2.36406e-08
5.97663e-05
4.14206e-08
5.95847e-05
5.27269e-08
5.92151e-05
5.47962e-08
5.86465e-05
4.56823e-08
5.78625e-05
2.57952e-08
5.6841e-05
-2.51026e-09
5.55594e-05
-3.51153e-08
5.39969e-05
-6.51963e-08
5.21357e-05
-8.3615e-08
4.9967e-05
-8.39528e-08
4.74942e-05
-6.91765e-08
4.47257e-05
-4.82272e-08
4.16481e-05
-2.40105e-08
3.82287e-05
3.44407e-05
1.87224e-08
3.4493e-05
3.82262e-08
3.8283e-05
5.61058e-08
4.17059e-05
6.76699e-08
4.4791e-05
6.02912e-08
4.7577e-05
3.36192e-08
5.00671e-05
-2.33188e-09
5.22444e-05
-3.7005e-08
5.4105e-05
-6.3878e-08
5.56609e-05
-7.97902e-08
5.69326e-05
-8.32131e-08
5.79428e-05
-7.39574e-08
5.8716e-05
-5.45179e-08
5.92761e-05
-2.79686e-08
5.96401e-05
2.38208e-09
5.98192e-05
3.28284e-08
5.98197e-05
5.96556e-08
5.96416e-05
7.94703e-08
5.92788e-05
8.87774e-08
5.87203e-05
8.53408e-08
5.79485e-05
6.96171e-08
5.69387e-05
4.2733e-08
5.56674e-05
7.78649e-09
5.4112e-05
-2.92496e-08
5.22517e-05
-5.78521e-08
5.00732e-05
-6.72425e-08
4.75796e-05
-5.64104e-08
4.47891e-05
-3.85805e-08
4.17027e-05
-1.90577e-08
3.82795e-05
3.44896e-05
1.59046e-08
3.45462e-05
3.22608e-08
3.83381e-05
4.87583e-08
4.1763e-05
5.45403e-08
4.48606e-05
3.48358e-08
4.76739e-05
-3.57281e-09
5.01843e-05
-4.56065e-08
5.23666e-05
-8.15134e-08
5.42223e-05
-1.06302e-07
5.57681e-05
-1.17701e-07
5.70272e-05
-1.15471e-07
5.80243e-05
-9.97734e-08
5.87845e-05
-7.25433e-08
5.93335e-05
-3.72454e-08
5.96896e-05
2.1653e-09
5.98648e-05
4.15727e-08
5.98652e-05
7.7114e-08
5.96909e-05
1.04834e-07
5.93357e-05
1.20651e-07
5.87887e-05
1.23178e-07
5.80298e-05
1.12197e-07
5.70329e-05
8.7618e-08
5.57744e-05
5.18293e-08
5.42292e-05
9.44165e-09
5.23743e-05
-3.05568e-08
5.0192e-05
-5.27494e-08
4.7679e-05
-4.85075e-08
4.48603e-05
-3.21862e-08
4.17599e-05
-1.60167e-08
3.83347e-05
3.45427e-05
1.38995e-08
3.46026e-05
2.84997e-08
3.8396e-05
4.43202e-08
4.18218e-05
4.0152e-08
4.49414e-05
4.44261e-09
4.7788e-05
-4.40196e-08
5.03128e-05
-8.95043e-08
5.24935e-05
-1.25268e-07
5.43406e-05
-1.4746e-07
5.58738e-05
-1.54114e-07
5.71181e-05
-1.45809e-07
5.81009e-05
-1.24131e-07
5.88482e-05
-8.98386e-08
5.9385e-05
-4.6236e-08
5.9732e-05
1.75951e-09
5.99028e-05
4.97056e-08
5.99033e-05
9.34607e-08
5.97331e-05
1.28297e-07
5.93866e-05
1.50434e-07
5.8852e-05
1.59277e-07
5.81059e-05
1.53109e-07
5.71234e-05
1.31301e-07
5.58798e-05
9.58751e-08
5.43472e-05
5.0614e-08
5.2501e-05
1.51213e-09
5.03211e-05
-3.66782e-08
4.77956e-05
-4.34499e-08
4.49437e-05
-2.80698e-08
4.18191e-05
-1.37572e-08
3.8393e-05
3.45993e-05
1.23633e-08
3.46616e-05
2.69771e-08
3.84551e-05
4.1676e-08
4.1883e-05
2.02781e-08
4.50406e-05
-3.12491e-08
4.79192e-05
-8.5745e-08
5.04486e-05
-1.32797e-07
5.26232e-05
-1.67734e-07
5.44594e-05
-1.87061e-07
5.59779e-05
-1.89135e-07
5.72057e-05
-1.74693e-07
5.81726e-05
-1.46546e-07
5.89066e-05
-1.05773e-07
5.9431e-05
-5.4685e-08
5.97679e-05
1.2087e-09
5.99341e-05
5.70669e-08
5.99346e-05
1.08265e-07
5.97689e-05
1.49623e-07
5.94321e-05
1.78556e-07
5.89096e-05
1.93627e-07
5.81769e-05
1.92096e-07
5.72104e-05
1.73287e-07
5.59833e-05
1.38812e-07
5.44655e-05
9.22216e-08
5.26303e-05
3.79457e-08
5.04567e-05
-1.50075e-08
4.79283e-05
-4.00023e-08
4.50465e-05
-2.62452e-08
4.18812e-05
-1.20886e-08
3.84525e-05
3.46585e-05
1.19124e-08
3.47222e-05
2.89449e-08
3.8513e-05
3.75013e-08
4.19514e-05
-7.69573e-09
4.51649e-05
-6.99205e-08
4.80624e-05
-1.27351e-07
5.05885e-05
-1.75082e-07
5.27548e-05
-2.08645e-07
5.45779e-05
-2.24815e-07
5.608e-05
-2.22473e-07
5.729e-05
-2.02315e-07
5.82396e-05
-1.67214e-07
5.89591e-05
-1.20044e-07
5.94718e-05
-6.23957e-08
5.97984e-05
6.21291e-10
5.99593e-05
6.36307e-08
5.99598e-05
1.21482e-07
5.97992e-05
1.69174e-07
5.94723e-05
2.05052e-07
5.89614e-05
2.25943e-07
5.82432e-05
2.28937e-07
5.72941e-05
2.13368e-07
5.60848e-05
1.80349e-07
5.45835e-05
1.33163e-07
5.27614e-05
7.63795e-08
5.0596e-05
1.42671e-08
4.80713e-05
-3.40397e-08
4.51739e-05
-2.84291e-08
4.19526e-05
-1.13168e-08
3.85103e-05
3.47197e-05
1.32155e-08
3.47826e-05
3.56174e-08
3.85665e-05
2.19258e-08
4.20432e-05
-4.30692e-08
4.53101e-05
-1.09463e-07
4.82109e-05
-1.68301e-07
5.07311e-05
-2.15932e-07
5.28875e-05
-2.47501e-07
5.46957e-05
-2.60279e-07
5.61798e-05
-2.5361e-07
5.73711e-05
-2.28231e-07
5.83026e-05
-1.86523e-07
5.90062e-05
-1.32742e-07
5.9507e-05
-6.92969e-08
5.98242e-05
1.30482e-11
5.99792e-05
6.9419e-08
5.99797e-05
1.33304e-07
5.98245e-05
1.87331e-07
5.95073e-05
2.29599e-07
5.90078e-05
2.55849e-07
5.83053e-05
2.63277e-07
5.73745e-05
2.51137e-07
5.6184e-05
2.20144e-07
5.47007e-05
1.73077e-07
5.28935e-05
1.14896e-07
5.07379e-05
4.94485e-08
4.82189e-05
-1.6627e-08
4.53202e-05
-3.56251e-08
4.20497e-05
-1.25131e-08
3.85631e-05
3.47808e-05
1.72199e-08
3.48401e-05
4.34824e-08
3.86172e-05
-5.89475e-09
4.21719e-05
-8.05422e-08
4.54662e-05
-1.47925e-07
4.83616e-05
-2.07569e-07
5.08756e-05
-2.54337e-07
5.30205e-05
-2.83536e-07
5.48122e-05
-2.92929e-07
5.62774e-05
-2.82103e-07
5.74492e-05
-2.51932e-07
5.83619e-05
-2.04451e-07
5.90485e-05
-1.44175e-07
5.95369e-05
-7.5375e-08
5.98456e-05
-5.83146e-10
5.99948e-05
7.44492e-08
5.9995e-05
1.43875e-07
5.98454e-05
2.04094e-07
5.95372e-05
2.5197e-07
5.90498e-05
2.83071e-07
5.83637e-05
2.94702e-07
5.74518e-05
2.85967e-07
5.6281e-05
2.57348e-07
5.48167e-05
2.11138e-07
5.30259e-05
1.52011e-07
5.08819e-05
8.54602e-08
4.83688e-05
1.14842e-08
4.54757e-05
-4.21941e-08
4.21827e-05
-1.70692e-08
3.86149e-05
3.48385e-05
2.42116e-08
3.48915e-05
4.16359e-08
3.86778e-05
-3.89483e-08
4.2333e-05
-1.16067e-07
4.5626e-05
-1.84215e-07
4.85142e-05
-2.43981e-07
5.10214e-05
-2.8933e-07
5.31533e-05
-3.16129e-07
5.49275e-05
-3.22362e-07
5.6373e-05
-3.07691e-07
5.75246e-05
-2.73158e-07
5.84179e-05
-2.20766e-07
5.90871e-05
-1.54685e-07
5.9562e-05
-8.06276e-08
5.98629e-05
-1.06713e-09
6.00067e-05
7.87689e-08
6.00066e-05
1.53339e-07
5.98622e-05
2.19293e-07
5.95625e-05
2.72065e-07
5.9088e-05
3.07467e-07
5.84189e-05
3.22916e-07
5.75263e-05
3.17351e-07
5.63759e-05
2.91145e-07
5.49313e-05
2.46383e-07
5.31581e-05
1.87151e-07
5.10273e-05
1.19697e-07
4.85207e-05
4.43889e-08
4.56337e-05
-3.6251e-08
4.23439e-05
-2.45345e-08
3.86813e-05
3.48899e-05
3.50602e-08
3.49331e-05
3.92169e-09
3.87881e-05
-8.06808e-08
4.24992e-05
-1.51451e-07
4.57806e-05
-2.18278e-07
4.86667e-05
-2.76769e-07
5.11671e-05
-3.20364e-07
5.32854e-05
-3.44958e-07
5.50417e-05
-3.48391e-07
5.64669e-05
-3.30293e-07
5.75976e-05
-2.91874e-07
5.84711e-05
-2.35329e-07
5.91225e-05
-1.64418e-07
5.95833e-05
-8.51908e-08
5.98761e-05
-1.4205e-09
6.00154e-05
8.25371e-08
6.00152e-05
1.61906e-07
5.98753e-05
2.32833e-07
5.95838e-05
2.89841e-07
5.9123e-05
3.29007e-07
5.84713e-05
3.4781e-07
5.75987e-05
3.45032e-07
5.64692e-05
3.21029e-07
5.5045e-05
2.78025e-07
5.32896e-05
2.20097e-07
5.11724e-05
1.53822e-07
4.86726e-05
8.47088e-08
4.57866e-05
2.85449e-09
4.25075e-05
-3.50803e-08
3.87987e-05
3.49317e-05
3.68266e-08
3.49739e-05
-4.63798e-08
3.89517e-05
-1.1747e-07
4.26532e-05
-1.81951e-07
4.593e-05
-2.47291e-07
4.88188e-05
-3.04588e-07
5.13127e-05
-3.46952e-07
5.34174e-05
-3.69883e-07
5.51553e-05
-3.71017e-07
5.65596e-05
-3.49986e-07
5.76688e-05
-3.08183e-07
5.8522e-05
-2.48108e-07
5.91555e-05
-1.73282e-07
5.96018e-05
-8.93764e-08
5.98857e-05
-1.72683e-09
6.00213e-05
8.60044e-08
6.0021e-05
1.69722e-07
5.9885e-05
2.44721e-07
5.96021e-05
3.05338e-07
5.91555e-05
3.47779e-07
5.85216e-05
3.69434e-07
5.76692e-05
3.68928e-07
5.65612e-05
3.46572e-07
5.5158e-05
3.04774e-07
5.34211e-05
2.47999e-07
5.13175e-05
1.82975e-07
4.88244e-05
1.18812e-07
4.59357e-05
4.96184e-08
4.26595e-05
-3.51888e-08
3.89638e-05
3.49741e-05
1.08239e-08
3.50417e-05
-7.50141e-08
3.9119e-05
-1.37142e-07
4.27992e-05
-2.02726e-07
4.60816e-05
-2.69175e-07
4.89731e-05
-3.26908e-07
5.14599e-05
-3.69112e-07
5.35503e-05
-3.91081e-07
5.5269e-05
-3.90457e-07
5.66516e-05
-3.66981e-07
5.77385e-05
-3.22268e-07
5.8571e-05
-2.59143e-07
5.91865e-05
-1.81112e-07
5.96181e-05
-9.33865e-08
5.98925e-05
-2.04774e-09
6.00245e-05
8.93091e-08
6.00242e-05
1.76751e-07
5.98921e-05
2.55022e-07
5.96182e-05
3.18712e-07
5.91859e-05
3.63992e-07
5.85701e-05
3.88029e-07
5.77385e-05
3.89267e-07
5.66526e-05
3.67863e-07
5.52712e-05
3.2622e-07
5.35534e-05
2.69032e-07
5.14641e-05
2.02986e-07
4.89783e-05
1.3748e-07
4.60872e-05
7.64998e-08
4.28044e-05
-5.62138e-09
3.91274e-05
3.5047e-05
-4.04297e-08
3.51621e-05
-9.56714e-08
3.92568e-05
-1.50243e-07
4.29387e-05
-2.17594e-07
4.6236e-05
-2.85785e-07
4.91301e-05
-3.4487e-07
5.16094e-05
-3.87583e-07
5.36848e-05
-4.09079e-07
5.53833e-05
-4.07107e-07
5.67432e-05
-3.81587e-07
5.78073e-05
-3.34364e-07
5.86186e-05
-2.68558e-07
5.92158e-05
-1.87828e-07
5.96327e-05
-9.71134e-08
5.98972e-05
-2.37735e-09
6.00253e-05
9.23537e-08
6.0025e-05
1.82861e-07
5.9897e-05
2.63849e-07
5.96326e-05
3.30199e-07
5.92146e-05
3.77942e-07
5.86171e-05
4.03984e-07
5.78067e-05
4.06574e-07
5.67437e-05
3.85643e-07
5.5385e-05
3.43468e-07
5.36874e-05
2.84906e-07
5.16131e-05
2.17165e-07
4.9135e-05
1.50017e-07
4.62414e-05
9.58671e-08
4.29435e-05
4.41532e-08
3.92617e-05
3.51707e-05
-6.05564e-08
3.53034e-05
-9.8902e-08
3.93787e-05
-1.55999e-07
4.30817e-05
-2.27201e-07
4.63952e-05
-2.9838e-07
4.92912e-05
-3.59554e-07
5.17621e-05
-4.0317e-07
5.38212e-05
-4.24468e-07
5.54985e-05
-4.21404e-07
5.68348e-05
-3.9413e-07
5.78753e-05
-3.44719e-07
5.86649e-05
-2.76542e-07
5.92437e-05
-1.93479e-07
5.9646e-05
-1.00333e-07
5.99005e-05
-2.68853e-09
6.00242e-05
9.49562e-08
6.00238e-05
1.87998e-07
5.99004e-05
2.71364e-07
5.96455e-05
3.40047e-07
5.9242e-05
3.89937e-07
5.8663e-05
4.17719e-07
5.78742e-05
4.21428e-07
5.68347e-05
4.00722e-07
5.54995e-05
3.57626e-07
5.38233e-05
2.96903e-07
5.17654e-05
2.2603e-07
4.92958e-05
1.54793e-07
4.64007e-05
9.6941e-08
4.30873e-05
5.87692e-08
3.93834e-05
3.53102e-05
-4.10288e-08
3.54262e-05
-8.80133e-08
3.95101e-05
-1.55997e-07
4.32366e-05
-2.33339e-07
4.65617e-05
-3.08496e-07
4.94574e-05
-3.72034e-07
5.19182e-05
-4.16621e-07
5.39596e-05
-4.37785e-07
5.56145e-05
-4.33737e-07
5.69265e-05
-4.04902e-07
5.79427e-05
-3.53563e-07
5.87103e-05
-2.833e-07
5.92705e-05
-1.98208e-07
5.96581e-05
-1.02971e-07
5.99027e-05
-2.96694e-09
6.00216e-05
9.70534e-08
6.00213e-05
1.92248e-07
5.99026e-05
2.77739e-07
5.96573e-05
3.48465e-07
5.92684e-05
4.00247e-07
5.87079e-05
4.29599e-07
5.79412e-05
4.34338e-07
5.69256e-05
4.13844e-07
5.56149e-05
3.6983e-07
5.39612e-05
3.06777e-07
5.1921e-05
2.31992e-07
4.94616e-05
1.54864e-07
4.6567e-05
8.66374e-08
4.32425e-05
3.91034e-08
3.95154e-05
3.54311e-05
-2.96819e-08
3.55385e-05
-8.37644e-08
3.96496e-05
-1.57732e-07
4.33985e-05
-2.39328e-07
4.67333e-05
-3.17708e-07
4.96277e-05
-3.8317e-07
5.20772e-05
-4.28491e-07
5.40997e-05
-4.4942e-07
5.57313e-05
-4.44398e-07
5.70181e-05
-4.1413e-07
5.80097e-05
-3.61084e-07
5.87549e-05
-2.88998e-07
5.92963e-05
-2.02159e-07
5.96694e-05
-1.05118e-07
5.99039e-05
-3.21068e-09
6.00181e-05
9.87235e-08
6.00177e-05
1.95764e-07
5.99039e-05
2.83105e-07
5.96681e-05
3.55603e-07
5.92938e-05
4.09067e-07
5.87521e-05
4.39885e-07
5.80076e-05
4.45647e-07
5.70165e-05
4.25495e-07
5.57309e-05
3.80853e-07
5.41007e-05
3.15952e-07
5.20795e-05
2.38019e-07
4.96315e-05
1.56781e-07
4.67383e-05
8.3072e-08
4.34041e-05
2.89694e-08
3.96549e-05
3.55428e-05
-2.68944e-08
3.5649e-05
-8.38944e-08
3.97929e-05
-1.60783e-07
4.35642e-05
-2.45525e-07
4.69091e-05
-3.26412e-07
4.98015e-05
-3.93309e-07
5.22386e-05
-4.39061e-07
5.42413e-05
-4.59597e-07
5.58486e-05
-4.53578e-07
5.71096e-05
-4.21977e-07
5.80762e-05
-3.67424e-07
5.87989e-05
-2.93757e-07
5.93215e-05
-2.05433e-07
5.96802e-05
-1.06905e-07
5.99045e-05
-3.42284e-09
6.00138e-05
1.00086e-07
6.00134e-05
1.98682e-07
5.99044e-05
2.87549e-07
5.96783e-05
3.61569e-07
5.93186e-05
4.16533e-07
5.87957e-05
4.48733e-07