/*--------------------------------*- C++ -*----------------------------------*\
| =========                 |                                                 |
| \\      /  F ield         | OpenFOAM: The Open Source CFD Toolbox           |
|  \\    /   O peration     | Version:  v1606+                                |
|   \\  /    A nd           | Web:      www.OpenFOAM.com                      |
|    \\/     M anipulation  |                                                 |
\*---------------------------------------------------------------------------*/
FoamFile
{
    version     2.0;
    format      ascii;
    class       volVectorField;
    location    "0.06";
    object      U.particles;
}
// * * * * * * * * * * * * * * * * * * * * * * * * * * * * * * * * * * * * * //

dimensions      [0 1 -1 0 0 0 0];

internalField   nonuniform List<vector> 
6000
(
(0.00569369 -0.140499 0)
(0.0180352 -0.146684 0)
(0.032576 -0.148888 0)
(0.0423706 -0.152894 0)
(0.0451669 -0.15679 0)
(0.0439215 -0.159676 0)
(0.0411452 -0.161651 0)
(0.0372545 -0.162215 0)
(0.032944 -0.161998 0)
(0.0284678 -0.162061 0)
(0.0235564 -0.161454 0)
(0.0185365 -0.161514 0)
(0.013373 -0.161897 0)
(0.00801796 -0.162037 0)
(0.00250667 -0.162017 0)
(-0.00289828 -0.161927 0)
(-0.00824026 -0.162013 0)
(-0.01359 -0.162017 0)
(-0.0187974 -0.161871 0)
(-0.0238253 -0.161996 0)
(-0.0285581 -0.162147 0)
(-0.0329651 -0.161954 0)
(-0.0375164 -0.162413 0)
(-0.0414688 -0.161492 0)
(-0.0439763 -0.159414 0)
(-0.0447733 -0.156644 0)
(-0.042042 -0.153089 0)
(-0.0322465 -0.149172 0)
(-0.016819 -0.146975 0)
(-0.00512343 -0.144905 0)
(0.0128353 0.033161 0)
(0.0199387 0.0479663 0)
(0.0332287 0.0505237 0)
(0.0398582 0.0496858 0)
(0.0416475 0.0399947 0)
(0.0420982 0.0268567 0)
(0.0411651 0.0209301 0)
(0.0389421 0.0194213 0)
(0.0352929 0.0184953 0)
(0.0306925 0.0198754 0)
(0.025531 0.0198617 0)
(0.0200439 0.0201079 0)
(0.0143894 0.0202984 0)
(0.00861777 0.0203266 0)
(0.0027715 0.0203617 0)
(-0.00302301 0.0204068 0)
(-0.0088162 0.0204619 0)
(-0.0145949 0.0204898 0)
(-0.0202602 0.0203386 0)
(-0.0257519 0.0201438 0)
(-0.030918 0.0198891 0)
(-0.0354964 0.0202953 0)
(-0.038981 0.0216267 0)
(-0.0411496 0.0225949 0)
(-0.042181 0.028375 0)
(-0.0418034 0.0386866 0)
(-0.0399793 0.0495064 0)
(-0.0333221 0.0500299 0)
(-0.0201926 0.0473314 0)
(-0.0131496 0.0337573 0)
(0.0178129 0.0638874 0)
(0.0224984 0.0526554 0)
(0.0363476 0.0566616 0)
(0.0439286 0.0651552 0)
(0.0465279 0.0723868 0)
(0.0446195 0.0762289 0)
(0.0404907 0.0768323 0)
(0.0363732 0.0754438 0)
(0.0323566 0.0736494 0)
(0.0281278 0.0723516 0)
(0.0235337 0.0716047 0)
(0.018555 0.0712686 0)
(0.0133592 0.071172 0)
(0.0080411 0.0711434 0)
(0.00264753 0.0711555 0)
(-0.00277696 0.0711631 0)
(-0.00819932 0.0711933 0)
(-0.013548 0.0712438 0)
(-0.0187504 0.0713727 0)
(-0.0237247 0.0716969 0)
(-0.0283703 0.0724178 0)
(-0.0325974 0.0737726 0)
(-0.0364802 0.0755738 0)
(-0.0405415 0.0768743 0)
(-0.044704 0.0761988 0)
(-0.0467697 0.0722448 0)
(-0.0442907 0.0649043 0)
(-0.0368134 0.0561946 0)
(-0.0235092 0.0519395 0)
(-0.0185304 0.063635 0)
(0.0250293 0.0997966 0)
(0.0296821 0.0854769 0)
(0.0409011 0.0914585 0)
(0.0470099 0.104133 0)
(0.049376 0.114317 0)
(0.0485704 0.122385 0)
(0.0446115 0.128171 0)
(0.0387379 0.131474 0)
(0.032288 0.132551 0)
(0.0262228 0.132105 0)
(0.0208163 0.130997 0)
(0.0158969 0.12987 0)
(0.0112651 0.129022 0)
(0.00674564 0.128489 0)
(0.00224037 0.128256 0)
(-0.00229393 0.128263 0)
(-0.00685509 0.12852 0)
(-0.0114238 0.129071 0)
(-0.0160819 0.129946 0)
(-0.0209952 0.131088 0)
(-0.0264172 0.132217 0)
(-0.0324647 0.132691 0)
(-0.0388691 0.131608 0)
(-0.0447275 0.128273 0)
(-0.0486783 0.122427 0)
(-0.0495942 0.114306 0)
(-0.0473584 0.104028 0)
(-0.0414319 0.091302 0)
(-0.030674 0.0853579 0)
(-0.0257438 0.100131 0)
(0.0302216 0.121118 0)
(0.0366663 0.10763 0)
(0.0459156 0.11421 0)
(0.0512268 0.127341 0)
(0.0536986 0.140137 0)
(0.0537026 0.151804 0)
(0.0511957 0.162106 0)
(0.0465326 0.170808 0)
(0.0403097 0.177717 0)
(0.0332811 0.182758 0)
(0.0261444 0.186077 0)
(0.0193913 0.188015 0)
(0.0132542 0.188982 0)
(0.00769037 0.189382 0)
(0.00250963 0.189508 0)
(-0.0025548 0.189517 0)
(-0.00777774 0.189403 0)
(-0.0133824 0.189024 0)
(-0.0195479 0.188071 0)
(-0.0263018 0.186141 0)
(-0.0334388 0.182823 0)
(-0.0404496 0.177775 0)
(-0.0466694 0.170864 0)
(-0.0513374 0.162136 0)
(-0.0538292 0.151822 0)
(-0.0538709 0.140155 0)
(-0.0514677 0.127341 0)
(-0.0462463 0.114233 0)
(-0.0372372 0.107782 0)
(-0.0308033 0.121623 0)
(0.0306256 0.115209 0)
(0.0370487 0.112317 0)
(0.0442903 0.12126 0)
(0.0491109 0.134889 0)
(0.0518678 0.148984 0)
(0.0529296 0.162635 0)
(0.0522279 0.175588 0)
(0.0497505 0.187434 0)
(0.0456044 0.197773 0)
(0.0400565 0.206383 0)
(0.033512 0.213276 0)
(0.0263614 0.218583 0)
(0.0189008 0.222406 0)
(0.0113278 0.224879 0)
(0.00374888 0.22609 0)
(-0.00382681 0.226097 0)
(-0.0114249 0.224892 0)
(-0.0190156 0.222425 0)
(-0.0264876 0.218599 0)
(-0.0336385 0.213287 0)
(-0.0401779 0.206388 0)
(-0.0457169 0.197774 0)
(-0.0498655 0.187433 0)
(-0.0523407 0.175584 0)
(-0.053036 0.162641 0)
(-0.051991 0.149002 0)
(-0.0492603 0.134915 0)
(-0.044459 0.12132 0)
(-0.0372755 0.112437 0)
(-0.0308282 0.115372 0)
(0.023846 0.0905171 0)
(0.0334652 0.109802 0)
(0.0396155 0.123297 0)
(0.0437537 0.138656 0)
(0.0458338 0.154161 0)
(0.0464464 0.168853 0)
(0.0457716 0.182429 0)
(0.0439037 0.194676 0)
(0.0409091 0.205464 0)
(0.0368289 0.214769 0)
(0.0317232 0.222616 0)
(0.0256984 0.229 0)
(0.0189089 0.233865 0)
(0.011554 0.237152 0)
(0.00386038 0.23881 0)
(-0.00394894 0.238812 0)
(-0.0116504 0.237158 0)
(-0.0190113 0.23387 0)
(-0.0258048 0.229002 0)
(-0.0318298 0.222615 0)
(-0.0369325 0.214765 0)
(-0.0410083 0.20546 0)
(-0.0440022 0.194673 0)
(-0.045869 0.182428 0)
(-0.0465417 0.168857 0)
(-0.0459314 0.154174 0)
(-0.043853 0.138681 0)
(-0.0397087 0.123348 0)
(-0.0335481 0.109889 0)
(-0.023847 0.0906307 0)
(0.0183622 0.0751344 0)
(0.0287136 0.105088 0)
(0.0345393 0.122766 0)
(0.0382579 0.140148 0)
(0.039887 0.157172 0)
(0.040077 0.173089 0)
(0.0391169 0.187642 0)
(0.0371659 0.200681 0)
(0.0343357 0.21211 0)
(0.0307016 0.221896 0)
(0.0263243 0.230041 0)
(0.0212726 0.236557 0)
(0.0156409 0.241444 0)
(0.00955873 0.244701 0)
(0.00318978 0.24633 0)
(-0.00327863 0.24633 0)
(-0.00964954 0.244701 0)
(-0.0157337 0.241443 0)
(-0.0213666 0.236554 0)
(-0.026418 0.230036 0)
(-0.0307939 0.221889 0)
(-0.034426 0.212103 0)
(-0.0372546 0.200675 0)
(-0.0392038 0.187639 0)
(-0.0401614 0.173092 0)
(-0.039968 0.157183 0)
(-0.0383339 0.140171 0)
(-0.0346068 0.122806 0)
(-0.028769 0.105156 0)
(-0.0183809 0.0752758 0)
(0.0151691 0.0622676 0)
(0.0242706 0.0992698 0)
(0.0296745 0.120684 0)
(0.0331022 0.140114 0)
(0.0345422 0.158555 0)
(0.0346045 0.175565 0)
(0.0335943 0.190994 0)
(0.0316937 0.204757 0)
(0.0290425 0.216793 0)
(0.0257476 0.227076 0)
(0.0218943 0.235608 0)
(0.017561 0.242405 0)
(0.0128327 0.247484 0)
(0.00780702 0.25086 0)
(0.0025955 0.252545 0)
(-0.00267945 0.252545 0)
(-0.00789115 0.250859 0)
(-0.0129172 0.247482 0)
(-0.0176457 0.242402 0)
(-0.0219788 0.235603 0)
(-0.0258313 0.22707 0)
(-0.0291249 0.216787 0)
(-0.0317739 0.204751 0)
(-0.0336715 0.190991 0)
(-0.0346776 0.175568 0)
(-0.0346099 0.158566 0)
(-0.0331636 0.140135 0)
(-0.0297286 0.120716 0)
(-0.0243185 0.0993189 0)
(-0.015207 0.0623502 0)
(0.0122931 0.0516031 0)
(0.0199488 0.0933979 0)
(0.0250107 0.117989 0)
(0.0282318 0.139333 0)
(0.0296183 0.159058 0)
(0.029721 0.177014 0)
(0.0288282 0.193175 0)
(0.027121 0.207524 0)
(0.0247463 0.220039 0)
(0.0218238 0.230712 0)
(0.0184527 0.239552 0)
(0.0147197 0.246581 0)
(0.0107056 0.251824 0)
(0.0064897 0.255304 0)
(0.00215162 0.257039 0)
(-0.00222742 0.257039 0)
(-0.00656555 0.255304 0)
(-0.0107817 0.251823 0)
(-0.0147961 0.246579 0)
(-0.0185292 0.239549 0)
(-0.0218998 0.230707 0)
(-0.0248212 0.220034 0)
(-0.0271936 0.207519 0)
(-0.028897 0.193173 0)
(-0.0297845 0.177017 0)
(-0.0296753 0.159067 0)
(-0.0282815 0.139351 0)
(-0.0250525 0.118017 0)
(-0.0199841 0.0934351 0)
(-0.012321 0.0516471 0)
(0.00949617 0.0435892 0)
(0.0159187 0.0879481 0)
(0.0206827 0.115097 0)
(0.0237232 0.138162 0)
(0.0250957 0.159059 0)
(0.0252879 0.177878 0)
(0.0245646 0.194694 0)
(0.0231007 0.209548 0)
(0.021042 0.222454 0)
(0.018509 0.23343 0)
(0.0156023 0.242501 0)
(0.0124074 0.249699 0)
(0.00899893 0.25506 0)
(0.00544345 0.258614 0)
(0.00180182 0.260385 0)
(-0.00186827 0.260385 0)
(-0.0055102 0.258614 0)
(-0.00906625 0.25506 0)
(-0.0124754 0.249699 0)
(-0.015671 0.242499 0)
(-0.0185779 0.233427 0)
(-0.0211101 0.22245 0)
(-0.0231667 0.209543 0)
(-0.0246266 0.194691 0)
(-0.0253442 0.177879 0)
(-0.0251447 0.159066 0)
(-0.0237638 0.138177 0)
(-0.0207142 0.11512 0)
(-0.015942 0.0879773 0)
(-0.00951182 0.043614 0)
(0.00713794 0.037825 0)
(0.0124813 0.0830532 0)
(0.0168744 0.112182 0)
(0.0197009 0.136747 0)
(0.0210423 0.158711 0)
(0.0213134 0.178332 0)
(0.0207507 0.195762 0)
(0.0195213 0.211085 0)
(0.0177665 0.224346 0)
(0.0156032 0.235585 0)
(0.0131275 0.244846 0)
(0.0104191 0.252178 0)
(0.00754395 0.257628 0)
(0.00455743 0.261236 0)
(0.00150721 0.263033 0)
(-0.00156389 0.263033 0)
(-0.00461466 0.261238 0)
(-0.00760216 0.25763 0)
(-0.0104786 0.25218 0)
(-0.0131883 0.244847 0)
(-0.0156648 0.235584 0)
(-0.0178282 0.224343 0)
(-0.0195816 0.211081 0)
(-0.0208076 0.195758 0)
(-0.0213647 0.17833 0)
(-0.0210861 0.158715 0)
(-0.0197357 0.136758 0)
(-0.0168992 0.112201 0)
(-0.0124966 0.0830768 0)
(-0.00714554 0.0378407 0)
(0.00533047 0.0336669 0)
(0.00972534 0.0787587 0)
(0.0136543 0.109372 0)
(0.0162167 0.135203 0)
(0.0174879 0.158115 0)
(0.0178056 0.178473 0)
(0.0173748 0.196476 0)
(0.0163511 0.212239 0)
(0.0148688 0.22583 0)
(0.0130387 0.23731 0)
(0.0109507 0.246742 0)
(0.0086764 0.25419 0)
(0.00627296 0.259715 0)
(0.0037857 0.263367 0)
(0.00125149 0.265184 0)
(-0.00129805 0.265185 0)
(-0.00383303 0.26337 0)
(-0.00632168 0.259719 0)
(-0.00872698 0.254194 0)
(-0.0110033 0.246745 0)
(-0.0130931 0.237311 0)
(-0.0149241 0.225829 0)
(-0.0164061 0.212236 0)
(-0.0174275 0.196471 0)
(-0.0178537 0.178468 0)
(-0.0175291 0.158115 0)
(-0.016249 0.13521 0)
(-0.0136765 0.109387 0)
(-0.00973723 0.0787781 0)
(-0.00533392 0.0336791 0)
(0.00399642 0.0306219 0)
(0.00757538 0.0750697 0)
(0.0109888 0.106762 0)
(0.0132502 0.133628 0)
(0.0144112 0.157365 0)
(0.014738 0.178386 0)
(0.0144049 0.196915 0)
(0.0135542 0.213082 0)
(0.0123101 0.226974 0)
(0.0107752 0.238672 0)
(0.00903123 0.248256 0)
(0.00714181 0.255805 0)
(0.0051553 0.261394 0)
(0.003108 0.265084 0)
(0.00102758 0.266918 0)
(-0.00106364 0.26692 0)
(-0.00314503 0.265088 0)
(-0.00519409 0.261401 0)
(-0.00718301 0.255812 0)
(-0.00907518 0.248262 0)
(-0.0108218 0.238676 0)
(-0.0123588 0.226975 0)
(-0.0136037 0.21308 0)
(-0.0144536 0.19691 0)
(-0.0147835 0.178379 0)
(-0.0144511 0.15736 0)
(-0.0132821 0.13363 0)
(-0.0110113 0.106772 0)
(-0.00758773 0.0750859 0)
(-0.00399891 0.0306332 0)
(0.00302014 0.0283541 0)
(0.00591135 0.071948 0)
(0.00880277 0.104399 0)
(0.0107448 0.132096 0)
(0.0117628 0.15654 0)
(0.0120636 0.17815 0)
(0.0117953 0.19715 0)
(0.0110859 0.213679 0)
(0.0100475 0.227839 0)
(0.00877241 0.239728 0)
(0.00733325 0.249443 0)
(0.00578505 0.257079 0)
(0.00416786 0.262721 0)
(0.00250982 0.266441 0)
(0.000830518 0.268288 0)
(-0.000855711 0.268291 0)
(-0.00253617 0.266446 0)
(-0.00419633 0.26273 0)
(-0.00581644 0.257089 0)
(-0.00736807 0.249453 0)
(-0.00881077 0.239737 0)
(-0.010089 0.227844 0)
(-0.0111294 0.213679 0)
(-0.0118393 0.197146 0)
(-0.012106 0.178142 0)
(-0.0118013 0.156532 0)
(-0.010777 0.132093 0)
(-0.00882687 0.104405 0)
(-0.00592611 0.0719611 0)
(-0.00302382 0.0283648 0)
(0.00230419 0.026633 0)
(0.00462032 0.0693261 0)
(0.00701134 0.102297 0)
(0.00863001 0.130657 0)
(0.00948179 0.155705 0)
(0.00972919 0.17783 0)
(0.00949877 0.197244 0)
(0.00890342 0.214088 0)
(0.00804195 0.22848 0)
(0.0069951 0.240531 0)
(0.00582582 0.250356 0)
(0.00458058 0.258061 0)
(0.00329151 0.263745 0)
(0.00197927 0.267487 0)
(0.000656248 0.269345 0)
(-0.000670308 0.269348 0)
(-0.00199468 0.267495 0)
(-0.00330937 0.263756 0)
(-0.00460183 0.258075 0)
(-0.00585112 0.25037 0)
(-0.00702471 0.240544 0)
(-0.00807554 0.228489 0)
(-0.00894007 0.214092 0)
(-0.00953706 0.197242 0)
(-0.00976731 0.177823 0)
(-0.00951759 0.155695 0)
(-0.00866126 0.13065 0)
(-0.00703619 0.102297 0)
(-0.00463728 0.0693353 0)
(-0.00230986 0.026642 0)
(0.00177599 0.0252976 0)
(0.00360495 0.0671277 0)
(0.00552884 0.100452 0)
(0.00683076 0.129348 0)
(0.0075057 0.15491 0)
(0.00768402 0.177476 0)
(0.0074736 0.197243 0)
(0.00697163 0.214354 0)
(0.00626275 0.228939 0)
(0.00541615 0.241124 0)
(0.00448542 0.251037 0)
(0.003509 0.258796 0)
(0.00251171 0.26451 0)
(0.00150734 0.268269 0)
(0.000501681 0.270133 0)
(-0.000504448 0.270137 0)
(-0.00151165 0.268278 0)
(-0.00251879 0.264525 0)
(-0.00351992 0.258813 0)
(-0.00450097 0.251055 0)
(-0.00543671 0.241141 0)
(-0.00628808 0.228952 0)
(-0.00700082 0.214361 0)
(-0.00750523 0.197244 0)
(-0.00771637 0.177471 0)
(-0.00753686 0.1549 0)
(-0.0068588 0.129338 0)
(-0.00555209 0.100447 0)
(-0.00362211 0.067132 0)
(-0.0017833 0.0253037 0)
(0.00137911 0.0242372 0)
(0.00277893 0.0652845 0)
(0.00427402 0.0988577 0)
(0.00527787 0.128195 0)
(0.0057804 0.154189 0)
(0.00588712 0.177123 0)
(0.00568813 0.197179 0)
(0.00526455 0.214508 0)
(0.00468741 0.22925 0)
(0.00401561 0.241542 0)
(0.00329464 0.251522 0)
(0.00255591 0.259321 0)
(0.00181762 0.265055 0)
(0.00108727 0.268822 0)
(0.000364487 0.27069 0)
(-0.000355919 0.270694 0)
(-0.00108045 0.268834 0)
(-0.0018139 0.265072 0)
(-0.00255645 0.259342 0)
(-0.0033004 0.251545 0)
(-0.00402709 0.241564 0)
(-0.00470445 0.229267 0)
(-0.00528619 0.21452 0)
(-0.00571282 0.197184 0)
(-0.00591297 0.177121 0)
(-0.00580547 0.154181 0)
(-0.00530043 0.128184 0)
(-0.00429277 0.0988492 0)
(-0.00279324 0.0652834 0)
(-0.00138676 0.0242392 0)
(0.00106269 0.0233816 0)
(0.00207039 0.0637469 0)
(0.00318424 0.0975105 0)
(0.00392292 0.127214 0)
(0.00427114 0.153561 0)
(0.00431351 0.176787 0)
(0.00412262 0.197073 0)
(0.00376467 0.214574 0)
(0.00329947 0.22944 0)
(0.00277801 0.241815 0)
(0.00223955 0.251844 0)
(0.00170958 0.259668 0)
(0.00120037 0.265412 0)
(0.000713507 0.269182 0)
(0.000242742 0.27105 0)
(-0.000222921 0.271054 0)
(-0.00069564 0.269195 0)
(-0.0011859 0.265432 0)
(-0.00169978 0.259693 0)
(-0.00223555 0.251871 0)
(-0.00278053 0.241841 0)
(-0.00330845 0.229462 0)
(-0.00377917 0.21459 0)
(-0.00414097 0.197081 0)
(-0.00433341 0.176788 0)
(-0.00429032 0.153555 0)
(-0.00393944 0.127204 0)
(-0.00319699 0.0975 0)
(-0.00207924 0.0637411 0)
(-0.00106854 0.0233798 0)
(0.00078434 0.022697 0)
(0.0014424 0.0624859 0)
(0.00223492 0.0964052 0)
(0.00274932 0.126404 0)
(0.00296649 0.153022 0)
(0.00295302 0.176472 0)
(0.00276559 0.196934 0)
(0.00245866 0.214571 0)
(0.00208446 0.229534 0)
(0.00168893 0.24197 0)
(0.00130691 0.252032 0)
(0.000958844 0.259868 0)
(0.000651509 0.265612 0)
(0.000380784 0.269378 0)
(0.000134598 0.271242 0)
(-0.00010377 0.271248 0)
(-0.000352097 0.269392 0)
(-0.000626469 0.265635 0)
(-0.000938769 0.259896 0)
(-0.00129316 0.252064 0)
(-0.00168253 0.242002 0)
(-0.00208559 0.229561 0)
(-0.00246656 0.214591 0)
(-0.00277861 0.196946 0)
(-0.00296851 0.176475 0)
(-0.00298167 0.153019 0)
(-0.00276175 0.126396 0)
(-0.00224322 0.0963946 0)
(-0.00144613 0.0624773 0)
(-0.000786788 0.0226929 0)
(0.000528893 0.0221707 0)
(0.000905209 0.0614839 0)
(0.00143725 0.0955263 0)
(0.00176309 0.125746 0)
(0.00186681 0.152559 0)
(0.00179936 0.176174 0)
(0.00160509 0.196774 0)
(0.00133104 0.214519 0)
(0.00102557 0.229557 0)
(0.000732098 0.242037 0)
(0.000482395 0.252115 0)
(0.000292095 0.25995 0)
(0.000162471 0.265684 0)
(8.37949e-05 0.269438 0)
(3.81711e-05 0.271296 0)
(3.18446e-06 0.271302 0)
(-4.4708e-05 0.269455 0)
(-0.00012716 0.26571 0)
(-0.00026185 0.259983 0)
(-0.000458782 0.252152 0)
(-0.0007166 0.242074 0)
(-0.00101866 0.22959 0)
(-0.00133235 0.214544 0)
(-0.00161327 0.196789 0)
(-0.0018117 0.176179 0)
(-0.00188002 0.152557 0)
(-0.00177428 0.125739 0)
(-0.00144455 0.0955168 0)
(-0.000907343 0.0614749 0)
(-0.000528582 0.0221666 0)
(0.000312052 0.0217883 0)
(0.000486242 0.0607189 0)
(0.000803331 0.0948428 0)
(0.000964724 0.125209 0)
(0.000963677 0.152157 0)
(0.000837197 0.175896 0)
(0.000621465 0.196607 0)
(0.000360754 0.21444 0)
(0.000102771 0.229534 0)
(-0.000110182 0.24204 0)
(-0.000248651 0.252118 0)
(-0.000301953 0.259936 0)
(-0.00027471 0.265648 0)
(-0.000182231 0.269382 0)
(-4.80752e-05 0.271229 0)
(9.9322e-05 0.271235 0)
(0.000231082 0.2694 0)
(0.000319854 0.265677 0)
(0.000342229 0.259973 0)
(0.000282309 0.25216 0)
(0.000135351 0.242083 0)
(-8.69199e-05 0.229574 0)
(-0.00035453 0.214471 0)
(-0.000623912 0.196627 0)
(-0.000846174 0.175904 0)
(-0.000975456 0.152156 0)
(-0.000976094 0.125203 0)
(-0.000811993 0.0948346 0)
(-0.000490265 0.060711 0)
(-0.00031141 0.0217853 0)
(0.00015367 0.0215189 0)
(0.000185556 0.0601521 0)
(0.000316766 0.094315 0)
(0.000331134 0.124768 0)
(0.000230107 0.151809 0)
(3.77473e-05 0.175647 0)
(-0.000213714 0.196451 0)
(-0.000478576 0.214355 0)
(-0.000706697 0.229486 0)
(-0.000856359 0.241997 0)
(-0.000901111 0.252055 0)
(-0.000834756 0.259839 0)
(-0.000667851 0.265515 0)
(-0.00042182 0.269219 0)
(-0.000125973 0.27105 0)
(0.000185965 0.271057 0)
(0.000479659 0.269239 0)
(0.000722365 0.265545 0)
(0.000884818 0.259879 0)
(0.00094484 0.252102 0)
(0.000891896 0.242046 0)
(0.000732756 0.229534 0)
(0.00049418 0.214395 0)
(0.000219018 0.196479 0)
(-4.15915e-05 0.17566 0)
(-0.000239322 0.15181 0)
(-0.000342126 0.124764 0)
(-0.000326733 0.0943079 0)
(-0.000192231 0.0601455 0)
(-0.000154623 0.0215166 0)
(5.18245e-05 0.0213268 0)
(-3.02287e-05 0.0597361 0)
(-6.12621e-05 0.0939068 0)
(-0.000175923 0.124409 0)
(-0.000372416 0.151518 0)
(-0.000637398 0.175441 0)
(-0.000937011 0.196327 0)
(-0.00122087 0.214287 0)
(-0.00143327 0.229437 0)
(-0.0015311 0.241929 0)
(-0.0014931 0.251944 0)
(-0.00131916 0.259676 0)
(-0.00102566 0.265302 0)
(-0.000640093 0.268968 0)
(-0.000197203 0.270778 0)
(0.000264515 0.270785 0)
(0.000705786 0.268988 0)
(0.0010887 0.265334 0)
(0.00137847 0.25972 0)
(0.00154673 0.251997 0)
(0.00157699 0.241985 0)
(0.00147005 0.229492 0)
(0.00124758 0.214336 0)
(0.000952203 0.196364 0)
(0.000641295 0.175462 0)
(0.000368066 0.151523 0)
(0.000167155 0.124406 0)
(5.17826e-05 0.0939003 0)
(2.24408e-05 0.0597303 0)
(-5.46572e-05 0.0213245 0)
(-1.43416e-05 0.0211865 0)
(-0.000200816 0.0594288 0)
(-0.000369822 0.0935909 0)
(-0.000595223 0.124121 0)
(-0.000885095 0.151289 0)
(-0.00122974 0.175296 0)
(-0.00158845 0.196259 0)
(-0.00189908 0.214258 0)
(-0.00210275 0.229405 0)
(-0.00215737 0.241858 0)
(-0.00204425 0.251811 0)
(-0.00176963 0.259472 0)
(-0.00135782 0.265034 0)
(-0.000842694 0.268654 0)
(-0.000263809 0.27044 0)
(0.00033643 0.270447 0)
(0.000914535 0.268675 0)
(0.00142798 0.265068 0)
(0.00183707 0.259518 0)
(0.00210669 0.251868 0)
(0.00221215 0.24192 0)
(0.00214932 0.229468 0)
(0.0019367 0.214317 0)
(0.00161502 0.196306 0)
(0.00124366 0.175325 0)
(0.000888184 0.1513 0)
(0.00059106 0.12412 0)
(0.000363482 0.0935852 0)
(0.000194443 0.0594233 0)
(1.06205e-05 0.0211838 0)
(-6.68632e-05 0.0210831 0)
(-0.000354142 0.059201 0)
(-0.000638471 0.0933489 0)
(-0.000961281 0.123899 0)
(-0.00134598 0.151131 0)
(-0.00177678 0.175228 0)
(-0.00219966 0.196262 0)
(-0.00253931 0.214283 0)
(-0.00273415 0.229402 0)
(-0.0027474 0.241794 0)
(-0.00256452 0.251667 0)
(-0.00219451 0.259243 0)
(-0.00167012 0.264731 0)
(-0.00103307 0.268297 0)
(-0.000327022 0.270054 0)
(0.000402625 0.27006 0)
(0.00110885 0.268317 0)
(0.00174552 0.264765 0)
(0.00226822 0.259291 0)
(0.00263282 0.251725 0)
(0.0028079 0.241857 0)
(0.00278812 0.229468 0)
(0.00258644 0.214348 0)
(0.00223725 0.196319 0)
(0.00180191 0.175268 0)
(0.00135827 0.151149 0)
(0.000963991 0.1239 0)
(0.000637606 0.0933441 0)
(0.000351727 0.0591955 0)
(6.40335e-05 0.0210799 0)
(-0.000119881 0.021009 0)
(-0.000505123 0.0590342 0)
(-0.000886072 0.093165 0)
(-0.00130044 0.123738 0)
(-0.00178232 0.15105 0)
(-0.0023041 0.175248 0)
(-0.00278923 0.196341 0)
(-0.00315266 0.214358 0)
(-0.00333318 0.229423 0)
(-0.00330237 0.241732 0)
(-0.00305363 0.251514 0)
(-0.00259603 0.258997 0)
(-0.00196571 0.2644 0)
(-0.00121344 0.267904 0)
(-0.000387459 0.269628 0)
(0.000463851 0.269635 0)
(0.00129042 0.267923 0)
(0.00204356 0.264433 0)
(0.00267244 0.259043 0)
(0.0031236 0.251569 0)
(0.00336541 0.241794 0)
(0.00339154 0.229489 0)
(0.00320639 0.214427 0)
(0.00283593 0.196406 0)
(0.00233979 0.175299 0)
(0.00180449 0.151077 0)
(0.0013115 0.123744 0)
(0.000890984 0.0931613 0)
(0.000507482 0.059029 0)
(0.000119413 0.0210059 0)
(-0.000178549 0.0209585 0)
(-0.000656916 0.0589127 0)
(-0.0011179 0.0930219 0)
(-0.00162437 0.123633 0)
(-0.00220953 0.151055 0)
(-0.0028208 0.175359 0)
(-0.00336171 0.196491 0)
(-0.00373877 0.214475 0)
(-0.00389823 0.229461 0)
(-0.00381976 0.241668 0)
(-0.00350566 0.251342 0)
(-0.00296964 0.258727 0)
(-0.00224454 0.264041 0)
(-0.00138464 0.267475 0)
(-0.000445433 0.269163 0)
(0.000520033 0.26917 0)
(0.00145941 0.267493 0)
(0.00232082 0.264069 0)
(0.00304456 0.258768 0)
(0.00357427 0.251392 0)
(0.00388292 0.241725 0)
(0.00395784 0.229526 0)
(0.00379529 0.214544 0)
(0.0034139 0.19656 0)
(0.0028646 0.17542 0)
(0.00224045 0.151092 0)
(0.00164255 0.123644 0)
(0.00112609 0.093018 0)
(0.000662519 0.0589077 0)
(0.000180607 0.0209561 0)
(-0.000241153 0.0209246 0)
(-0.000801703 0.0588192 0)
(-0.00132812 0.0929042 0)
(-0.00194145 0.123589 0)
(-0.00263081 0.151152 0)
(-0.00332951 0.17556 0)
(-0.0039139 0.196701 0)
(-0.00429405 0.214626 0)
(-0.00442762 0.229511 0)
(-0.00429986 0.241596 0)
(-0.00391956 0.251147 0)
(-0.0033104 0.258422 0)
(-0.00250283 0.263644 0)
(-0.00154542 0.267007 0)
(-0.000500926 0.268657 0)
(0.000570576 0.268662 0)
(0.0016145 0.267021 0)
(0.00257356 0.263667 0)
(0.00338098 0.258455 0)
(0.00398527 0.25119 0)
(0.00436088 0.241648 0)
(0.0044855 0.229571 0)
(0.00434965 0.214692 0)
(0.00396706 0.196772 0)
(0.00337728 0.175627 0)
(0.00266691 0.1512 0)
(0.00196495 0.123607 0)
(0.00133718 0.0928996 0)
(0.000810848 0.0588151 0)
(0.000245848 0.0209233 0)
(-0.000300895 0.0209001 0)
(-0.00092755 0.0587376 0)
(-0.00151726 0.0928025 0)
(-0.00225621 0.123618 0)
(-0.0030526 0.151356 0)
(-0.00382938 0.175847 0)
(-0.00444139 0.196965 0)
(-0.00481637 0.214804 0)
(-0.00492101 0.229569 0)
(-0.00474441 0.241516 0)
(-0.00429953 0.250928 0)
(-0.00361883 0.258079 0)
(-0.00273691 0.263206 0)
(-0.00169368 0.266499 0)
(-0.000553402 0.268109 0)
(0.000615467 0.268113 0)
(0.00175448 0.266509 0)
(0.0027997 0.263224 0)
(0.00368327 0.258106 0)
(0.00436043 0.250963 0)
(0.00480094 0.24156 0)
(0.00497467 0.229622 0)
(0.00486809 0.214866 0)
(0.0044915 0.197032 0)
(0.00387663 0.175916 0)
(0.0030916 0.151415 0)
(0.00228251 0.123645 0)
(0.00153551 0.0928036 0)
(0.000939559 0.0587332 0)
(0.00030613 0.020897 0)
(-0.000350951 0.0208727 0)
(-0.00103014 0.0586454 0)
(-0.00173957 0.0927504 0)
(-0.00256866 0.123741 0)
(-0.0034797 0.151675 0)
(-0.00431434 0.176209 0)
(-0.00493968 0.197272 0)
(-0.00530387 0.215005 0)
(-0.00537778 0.22963 0)
(-0.00515397 0.241425 0)
(-0.00464863 0.250687 0)
(-0.00389867 0.257705 0)
(-0.00294635 0.262729 0)
(-0.00182767 0.265952 0)
(-0.00060228 0.267522 0)
(0.00065483 0.267525 0)
(0.00187891 0.265959 0)
(0.00300022 0.262743 0)
(0.00395494 0.257727 0)
(0.00470221 0.250716 0)
(0.00520406 0.241462 0)
(0.00542546 0.229676 0)
(0.00534968 0.21506 0)
(0.00498392 0.197335 0)
(0.00435687 0.176277 0)
(0.003518 0.151741 0)
(0.00259504 0.123783 0)
(0.00176108 0.0927616 0)
(0.00102909 0.0586297 0)
(0.000351382 0.0208653 0)
(-0.000378585 0.0208256 0)
(-0.00107009 0.0584886 0)
(-0.00197212 0.0927661 0)
(-0.00289025 0.124011 0)
(-0.00390295 0.152101 0)
(-0.00477172 0.176631 0)
(-0.00540251 0.197616 0)
(-0.00575329 0.215222 0)
(-0.00579645 0.229693 0)
(-0.00552822 0.241324 0)
(-0.00496758 0.250427 0)
(-0.00415289 0.257304 0)
(-0.00313272 0.262217 0)
(-0.00194643 0.265369 0)
(-0.000647202 0.266901 0)
(0.000688558 0.266902 0)
(0.00198787 0.265373 0)
(0.00317732 0.262229 0)
(0.00419893 0.25732 0)
(0.00501175 0.250449 0)
(0.00557057 0.241353 0)
(0.00583717 0.229732 0)
(0.00579224 0.21527 0)
(0.00543966 0.197673 0)
(0.00480699 0.176696 0)
(0.00393603 0.15217 0)
(0.00291395 0.124068 0)
(0.00198086 0.092781 0)
(0.00105554 0.058467 0)
(0.000375694 0.0208185 0)
(-0.000394739 0.0207707 0)
(-0.00108882 0.0583229 0)
(-0.00214852 0.0928482 0)
(-0.00321114 0.124425 0)
(-0.00430026 0.152608 0)
(-0.00518989 0.177101 0)
(-0.00582441 0.197987 0)
(-0.00616168 0.215451 0)
(-0.00617599 0.229756 0)
(-0.00586713 0.241213 0)
(-0.00525661 0.25015 0)
(-0.00438306 0.25688 0)
(-0.00329842 0.261678 0)
(-0.0020502 0.264754 0)
(-0.000687478 0.266249 0)
(0.000716764 0.266249 0)
(0.00208174 0.264757 0)
(0.00333319 0.261686 0)
(0.00441759 0.256892 0)
(0.00529038 0.250165 0)
(0.00590115 0.241235 0)
(0.00620946 0.229788 0)
(0.00619374 0.215493 0)
(0.0058547 0.198038 0)
(0.00521805 0.17716 0)
(0.00432674 0.152675 0)
(0.00323253 0.12449 0)
(0.00215003 0.0928704 0)
(0.00109774 0.05832 0)
(0.000397399 0.0207675 0)
(-0.000440904 0.0207211 0)
(-0.00132658 0.0583375 0)
(-0.00231946 0.0930633 0)
(-0.00353975 0.124966 0)
(-0.0046653 0.153178 0)
(-0.00556709 0.177609 0)
(-0.00620395 0.198381 0)
(-0.00652848 0.215691 0)
(-0.00651682 0.229819 0)
(-0.00617156 0.241094 0)
(-0.00551638 0.24986 0)
(-0.00459025 0.256439 0)
(-0.00344623 0.261116 0)
(-0.0021403 0.264112 0)
(-0.000722198 0.265571 0)
(0.000739884 0.265571 0)
(0.0021616 0.264114 0)
(0.0034702 0.261121 0)
(0.004613 0.256445 0)
(0.0055398 0.249869 0)
(0.00619716 0.24111 0)
(0.00654309 0.229844 0)
(0.00655396 0.215727 0)
(0.00622793 0.198427 0)
(0.00558893 0.177664 0)
(0.004685 0.153241 0)
(0.00355829 0.125035 0)
(0.00232731 0.0931172 0)
(0.0013467 0.058356 0)
(0.000435347 0.0207054 0)
(-0.000375397 0.0205436 0)
(-0.00156345 0.0584832 0)
(-0.00256659 0.0936041 0)
(-0.00385148 0.125618 0)
(-0.00498457 0.153795 0)
(-0.00589952 0.178149 0)
(-0.00654017 0.198795 0)
(-0.00685453 0.215941 0)
(-0.00682052 0.229883 0)
(-0.00644309 0.24097 0)
(-0.00574814 0.249559 0)
(-0.00477558 0.255984 0)
(-0.00357856 0.260538 0)
(-0.00221887 0.26345 0)
(-0.000751425 0.26487 0)
(0.000758665 0.26487 0)
(0.00222961 0.263452 0)
(0.00359093 0.26054 0)
(0.00478691 0.255986 0)
(0.00576173 0.249563 0)
(0.00646052 0.240981 0)
(0.00683988 0.229903 0)
(0.00687393 0.215971 0)
(0.00655859 0.198835 0)
(0.00591608 0.178198 0)
(0.00499822 0.153852 0)
(0.00386376 0.125683 0)
(0.00257476 0.0936726 0)
(0.0015547 0.0585064 0)
(0.000357596 0.0205326 0)
(-0.000330411 0.0205079 0)
(-0.00152164 0.0586689 0)
(-0.00274967 0.0942476 0)
(-0.0040867 0.126295 0)
(-0.00524616 0.154438 0)
(-0.00618561 0.178714 0)
(-0.0068347 0.199228 0)
(-0.00714247 0.216201 0)
(-0.00708966 0.229951 0)
(-0.00668384 0.240843 0)
(-0.00595346 0.249251 0)
(-0.00494011 0.25552 0)
(-0.00369684 0.259949 0)
(-0.00228834 0.262774 0)
(-0.000776534 0.264151 0)
(0.000774231 0.264152 0)
(0.00228854 0.262775 0)
(0.00369754 0.259949 0)
(0.00494066 0.255518 0)
(0.00595792 0.249251 0)
(0.00669356 0.24085 0)
(0.00710255 0.229966 0)
(0.00715652 0.216226 0)
(0.00684866 0.199262 0)
(0.00619867 0.178758 0)
(0.00525695 0.154491 0)
(0.0040954 0.126355 0)
(0.00275752 0.0943142 0)
(0.00150591 0.0587036 0)
(0.000338457 0.0205275 0)
(-0.000515306 0.0208117 0)
(-0.00150904 0.0591332 0)
(-0.00291486 0.0949544 0)
(-0.00427697 0.126998 0)
(-0.00546996 0.155112 0)
(-0.00643538 0.179305 0)
(-0.00709402 0.199679 0)
(-0.00739694 0.216473 0)
(-0.00732758 0.230024 0)
(-0.0068963 0.240716 0)
(-0.0061341 0.248939 0)
(-0.00508478 0.255049 0)
(-0.00380156 0.259353 0)
(-0.00235035 0.26209 0)
(-0.000799024 0.263423 0)
(0.00078763 0.263423 0)
(0.00234036 0.26209 0)
(0.00379119 0.25935 0)
(0.00507532 0.255044 0)
(0.00613012 0.248936 0)
(0.00689879 0.24072 0)
(0.00733447 0.230035 0)
(0.00740624 0.216493 0)
(0.00710435 0.199709 0)
(0.006446 0.179345 0)
(0.00547962 0.155161 0)
(0.00428485 0.127053 0)
(0.00292528 0.0950199 0)
(0.00151676 0.0592089 0)
(0.000537805 0.0208622 0)
(-0.000689219 0.0212579 0)
(-0.00164195 0.0598763 0)
(-0.00306409 0.095675 0)
(-0.00444006 0.127718 0)
(-0.00566843 0.155814 0)
(-0.00665738 0.179921 0)
(-0.00732445 0.20015 0)
(-0.00762244 0.216758 0)
(-0.00753754 0.230103 0)
(-0.0070828 0.240591 0)
(-0.00629174 0.248625 0)
(-0.0052105 0.254574 0)
(-0.00389289 0.258752 0)
(-0.00240532 0.261402 0)
(-0.000819484 0.262689 0)
(0.000799267 0.262688 0)
(0.00238566 0.2614 0)
(0.0038723 0.258746 0)
(0.00519188 0.254567 0)
(0.00627996 0.248619 0)
(0.00707848 0.24059 0)
(0.00753879 0.23011 0)
(0.00762747 0.216773 0)
(0.0073317 0.200175 0)
(0.00666608 0.179957 0)
(0.00567714 0.155858 0)
(0.00444655 0.127767 0)
(0.00306903 0.0957258 0)
(0.00164597 0.0599306 0)
(0.000679682 0.0212793 0)
(-0.000616221 0.021461 0)
(-0.00172588 0.0604485 0)
(-0.00317431 0.0963422 0)
(-0.00458667 0.128452 0)
(-0.00585007 0.156543 0)
(-0.00685845 0.180563 0)
(-0.00753102 0.20064 0)
(-0.00782262 0.217054 0)
(-0.00772217 0.230189 0)
(-0.00724533 0.240467 0)
(-0.00642786 0.248309 0)
(-0.00531823 0.254096 0)
(-0.00397107 0.258147 0)
(-0.002453 0.26071 0)
(-0.00083775 0.261952 0)
(0.000808988 0.261951 0)
(0.00242414 0.260707 0)
(0.00394109 0.258139 0)
(0.00529131 0.254086 0)
(0.00640883 0.2483 0)
(0.00723447 0.240463 0)
(0.00771797 0.230191 0)
(0.00782366 0.217065 0)
(0.00753569 0.200659 0)
(0.00686597 0.180593 0)
(0.00585909 0.156582 0)
(0.00459494 0.128496 0)
(0.00318079 0.0963857 0)
(0.00173255 0.0604875 0)
(0.000609464 0.0214738 0)
(-0.000606662 0.0216577 0)
(-0.00182345 0.0609616 0)
(-0.00328837 0.0970136 0)
(-0.00473253 0.129213 0)
(-0.00602107 0.157299 0)
(-0.0070425 0.181227 0)
(-0.00771657 0.201146 0)
(-0.00799967 0.217361 0)
(-0.00788325 0.230279 0)
(-0.00738531 0.240344 0)
(-0.00654367 0.247993 0)
(-0.00540888 0.253616 0)
(-0.00403663 0.25754 0)
(-0.00249326 0.260016 0)
(-0.000853568 0.261213 0)
(0.00081656 0.261211 0)
(0.0024556 0.26001 0)
(0.00399798 0.257529 0)
(0.00537448 0.253603 0)
(0.00651779 0.247981 0)
(0.007368 0.240336 0)
(0.00787355 0.230276 0)
(0.00799669 0.217366 0)
(0.00771876 0.20116 0)
(0.00704905 0.181252 0)
(0.00603057 0.157334 0)