/*--------------------------------*- C++ -*----------------------------------*\
| =========                 |                                                 |
| \\      /  F ield         | OpenFOAM: The Open Source CFD Toolbox           |
|  \\    /   O peration     | Version:  v1606+                                |
|   \\  /    A nd           | Web:      www.OpenFOAM.com                      |
|    \\/     M anipulation  |                                                 |
\*---------------------------------------------------------------------------*/
FoamFile
{
    version     2.0;
    format      ascii;
    class       volVectorField;
    location    "1.83";
    object      U.air;
}
// * * * * * * * * * * * * * * * * * * * * * * * * * * * * * * * * * * * * * //

dimensions      [0 1 -1 0 0 0 0];

internalField   nonuniform List<vector> 
6000
(
(-0.0525433 0.265087 0)
(-0.0871469 0.165098 0)
(-0.0964127 0.156539 0)
(-0.0939374 0.160883 0)
(-0.0980964 0.193439 0)
(-0.109823 0.208462 0)
(-0.116066 0.201063 0)
(-0.095787 0.180426 0)
(-0.0586133 0.146744 0)
(-0.0138473 0.125896 0)
(0.0267031 0.139498 0)
(0.0427199 0.168101 0)
(0.0268374 0.182879 0)
(-0.00431331 0.183568 0)
(-0.0295322 0.165567 0)
(-0.0413622 0.164852 0)
(-0.0457566 0.164536 0)
(-0.0406067 0.169186 0)
(-0.0326907 0.185091 0)
(-0.0170325 0.20838 0)
(0.0122411 0.220719 0)
(0.0526834 0.205767 0)
(0.0967864 0.209777 0)
(0.123411 0.21882 0)
(0.129189 0.233978 0)
(0.123228 0.243697 0)
(0.110042 0.236961 0)
(0.100493 0.218903 0)
(0.0733665 0.195462 0)
(0.0407655 0.252372 0)
(0.0414233 1.02973 0)
(0.00018306 1.05895 0)
(-0.0721442 1.06247 0)
(-0.129547 1.05591 0)
(-0.179811 1.03086 0)
(-0.210281 0.999559 0)
(-0.198935 0.946293 0)
(-0.138215 0.899907 0)
(-0.0536979 0.901448 0)
(0.0198369 0.914819 0)
(0.0546569 0.932624 0)
(0.0476795 0.97429 0)
(0.0340038 1.02093 0)
(0.0123151 1.03021 0)
(-0.0193091 1.02122 0)
(-0.0648557 1.01774 0)
(-0.108702 1.0029 0)
(-0.126699 0.994661 0)
(-0.123912 0.969124 0)
(-0.0945641 0.908684 0)
(-0.0278393 0.860324 0)
(0.0550834 0.844169 0)
(0.131463 0.861494 0)
(0.186539 0.898121 0)
(0.214785 0.938451 0)
(0.213864 0.954024 0)
(0.196038 0.965778 0)
(0.154964 1.0104 0)
(0.0829969 1.05468 0)
(-0.00200313 1.04128 0)
(-0.00766433 0.820031 0)
(-0.0238323 0.867527 0)
(-0.0764754 0.854807 0)
(-0.120392 0.831833 0)
(-0.151243 0.821812 0)
(-0.171731 0.785296 0)
(-0.158827 0.680169 0)
(-0.118938 0.586832 0)
(-0.0605263 0.560105 0)
(0.0263333 0.579902 0)
(0.0923701 0.672854 0)
(0.106798 0.751341 0)
(0.0723801 0.785584 0)
(0.0202741 0.799854 0)
(-0.0319832 0.810251 0)
(-0.091446 0.82527 0)
(-0.142596 0.789587 0)
(-0.159065 0.742555 0)
(-0.146866 0.707224 0)
(-0.115168 0.653617 0)
(-0.0615949 0.606296 0)
(0.00110885 0.591021 0)
(0.0585795 0.627601 0)
(0.101501 0.682465 0)
(0.134246 0.752545 0)
(0.156659 0.829933 0)
(0.154901 0.840358 0)
(0.137025 0.893438 0)
(0.0943994 0.929861 0)
(0.0313119 0.9138 0)
(-0.005751 0.895575 0)
(-0.00595289 0.949475 0)
(-0.0238108 0.964413 0)
(-0.037313 0.939386 0)
(-0.0377239 0.924134 0)
(-0.0239693 0.881548 0)
(-0.00109792 0.779149 0)
(-0.00907025 0.696875 0)
(-0.0309167 0.652314 0)
(-0.0176998 0.626316 0)
(0.0365668 0.683272 0)
(0.0892691 0.804943 0)
(0.0806717 0.914553 0)
(0.0132966 0.919207 0)
(-0.0570642 0.915855 0)
(-0.109156 0.918364 0)
(-0.141779 0.866354 0)
(-0.147741 0.796081 0)
(-0.118953 0.747744 0)
(-0.0679353 0.671206 0)
(-0.0174758 0.633351 0)
(0.00180527 0.658885 0)
(-0.0097935 0.713799 0)
(-0.0324952 0.768187 0)
(-0.0479289 0.815311 0)
(-0.0148404 0.853566 0)
(0.0496627 0.863759 0)
(0.076885 0.974019 0)
(0.0576402 1.04874 0)
(0.00530228 1.03921 0)
(0.000347117 0.920576 0)
(0.0249361 0.975453 0)
(0.061039 0.992474 0)
(0.107661 0.960835 0)
(0.133878 0.958424 0)
(0.15127 0.938197 0)
(0.11098 0.882856 0)
(0.0415637 0.819053 0)
(-0.0358579 0.737044 0)
(-0.0778908 0.664398 0)
(-0.0793296 0.667843 0)
(-0.0260461 0.76555 0)
(0.0272755 0.917105 0)
(0.0239908 0.954073 0)
(-0.0281721 0.945619 0)
(-0.0712987 0.939106 0)
(-0.0823715 0.843825 0)
(-0.0464249 0.750159 0)
(0.0219896 0.681189 0)
(0.0889787 0.635174 0)
(0.113576 0.648685 0)
(0.100275 0.731575 0)
(0.0434171 0.832331 0)
(-0.0376741 0.913434 0)
(-0.0994283 0.929077 0)
(-0.0895021 0.907631 0)
(-0.0343258 0.901762 0)
(0.00709885 1.04263 0)
(0.0166672 1.1608 0)
(0.00557175 1.12972 0)
(0.0100282 0.975357 0)
(0.0551883 1.00576 0)
(0.135322 0.995717 0)
(0.216161 0.973318 0)
(0.273816 0.981764 0)
(0.253511 1.00348 0)
(0.115102 1.00971 0)
(-0.0548515 1.0043 0)
(-0.162919 0.919043 0)
(-0.199873 0.78507 0)
(-0.218443 0.720386 0)
(-0.192148 0.737479 0)
(-0.112586 0.875824 0)
(-0.0317361 0.969958 0)
(-0.00623729 0.977045 0)
(0.0102318 0.950415 0)
(0.041489 0.820168 0)
(0.106165 0.701388 0)
(0.19137 0.635901 0)
(0.248089 0.640271 0)
(0.263649 0.711502 0)
(0.254436 0.838059 0)
(0.154198 1.01801 0)
(-0.0329663 1.06781 0)
(-0.147967 0.990956 0)
(-0.141577 0.913552 0)
(-0.0654668 0.891661 0)
(0.0217191 1.0513 0)
(0.0526979 1.18316 0)
(0.0333927 1.19049 0)
(0.0201324 0.904475 0)
(0.0676005 0.907539 0)
(0.13688 0.874849 0)
(0.208103 0.854961 0)
(0.256921 0.862616 0)
(0.255891 0.960981 0)
(0.159187 1.03623 0)
(0.00169318 1.00146 0)
(-0.164489 0.91897 0)
(-0.308933 0.874918 0)
(-0.336738 0.796691 0)
(-0.306374 0.757242 0)
(-0.25462 0.817154 0)
(-0.125925 0.905189 0)
(0.00173061 0.92539 0)
(0.0993164 0.911475 0)
(0.167679 0.783198 0)
(0.24268 0.644405 0)
(0.314409 0.597286 0)
(0.373289 0.639571 0)
(0.425352 0.743345 0)
(0.352132 0.922149 0)
(0.0492178 1.0621 0)
(-0.190019 1.07461 0)
(-0.267269 0.884953 0)
(-0.212117 0.719859 0)
(-0.102043 0.655176 0)
(0.0170021 0.807132 0)
(0.0631107 1.00865 0)
(0.0197601 1.04688 0)
(0.02589 0.792657 0)
(0.0812777 0.7931 0)
(0.139089 0.753687 0)
(0.210079 0.747192 0)
(0.248785 0.785134 0)
(0.269418 0.927593 0)
(0.271588 1.07856 0)
(0.216015 1.13562 0)
(0.0683091 1.0879 0)
(-0.127568 0.877773 0)
(-0.306345 0.809916 0)
(-0.365771 0.812055 0)
(-0.313813 0.777412 0)
(-0.193097 0.805705 0)
(-0.0167959 0.815682 0)
(0.134954 0.8322 0)
(0.24342 0.732967 0)
(0.318536 0.590068 0)
(0.395433 0.551846 0)
(0.483711 0.600557 0)
(0.465919 0.774748 0)
(0.0885576 1.11219 0)
(-0.344385 1.39717 0)
(-0.545961 1.19364 0)
(-0.514843 0.844553 0)
(-0.38615 0.630123 0)
(-0.230235 0.553389 0)
(-0.045101 0.714846 0)
(0.0491756 1.05765 0)
(0.018977 1.09491 0)
(0.0258072 0.693149 0)
(0.0720738 0.688063 0)
(0.13103 0.639991 0)
(0.189076 0.632554 0)
(0.218558 0.672246 0)
(0.274739 0.791415 0)
(0.346317 0.91081 0)
(0.4053 0.982749 0)
(0.41397 1.06119 0)
(0.280404 1.1073 0)
(-0.00467781 0.926615 0)
(-0.228352 0.797479 0)
(-0.310654 0.762713 0)
(-0.214314 0.694109 0)
(-0.043899 0.669633 0)
(0.124152 0.710265 0)
(0.253443 0.654344 0)
(0.346532 0.519953 0)
(0.448522 0.478709 0)
(0.508226 0.582013 0)
(0.171177 1.02012 0)
(-0.352177 1.49703 0)
(-0.628121 1.40655 0)
(-0.644401 1.0379 0)
(-0.520225 0.592963 0)
(-0.37862 0.368452 0)
(-0.257029 0.295841 0)
(-0.0959781 0.408101 0)
(0.0415736 0.875341 0)
(0.0511188 0.95253 0)
(0.0152478 0.609842 0)
(0.0654239 0.585633 0)
(0.101805 0.542662 0)
(0.130763 0.562193 0)
(0.162317 0.591619 0)
(0.233547 0.685749 0)
(0.337927 0.81123 0)
(0.440302 0.91883 0)
(0.500643 0.991995 0)
(0.528577 1.07635 0)
(0.412841 1.14213 0)
(0.128511 0.987025 0)
(-0.117675 0.736449 0)
(-0.190215 0.596411 0)
(-0.0619758 0.519587 0)
(0.0943518 0.570141 0)
(0.225171 0.544699 0)
(0.345399 0.413446 0)
(0.466792 0.408734 0)
(0.273863 0.740932 0)
(-0.218243 1.44405 0)
(-0.494975 1.63191 0)
(-0.581538 1.41963 0)
(-0.514763 0.92042 0)
(-0.358094 0.446577 0)
(-0.249393 0.27436 0)
(-0.200459 0.236534 0)
(-0.130024 0.284437 0)
(-0.0212099 0.804851 0)
(0.0598726 1.04228 0)
(0.0196487 0.593637 0)
(0.0389501 0.554534 0)
(0.0474113 0.560609 0)
(0.0368872 0.565553 0)
(0.048226 0.565179 0)
(0.0968993 0.614008 0)
(0.194085 0.704746 0)
(0.325487 0.810715 0)
(0.462726 0.915724 0)
(0.554936 1.04989 0)
(0.555784 1.14207 0)
(0.441409 1.15808 0)
(0.170252 0.950919 0)
(-0.0543686 0.567413 0)
(-0.0556519 0.385989 0)
(0.0765029 0.431938 0)
(0.189089 0.425737 0)
(0.321409 0.302074 0)
(0.333659 0.421184 0)
(0.0377383 1.20409 0)
(-0.323635 1.59049 0)
(-0.383784 1.6635 0)
(-0.409446 1.37307 0)
(-0.299993 0.74913 0)
(-0.161411 0.316156 0)
(-0.109207 0.225707 0)
(-0.122136 0.250578 0)
(-0.144418 0.308817 0)
(-0.126848 0.702442 0)
(-0.0189419 1.09421 0)
(0.0270264 0.63905 0)
(-0.00180007 0.624473 0)
(-0.0294961 0.635171 0)
(-0.0567434 0.619775 0)
(-0.0715098 0.591828 0)
(-0.058554 0.592792 0)
(-0.00354386 0.631853 0)
(0.0989749 0.684962 0)
(0.246649 0.769668 0)
(0.427547 0.96637 0)
(0.531952 1.15981 0)
(0.481347 1.20214 0)
(0.3576 1.12236 0)
(0.12558 0.705206 0)
(0.0414355 0.313639 0)
(0.0886442 0.324499 0)
(0.169271 0.327862 0)
(0.261303 0.225649 0)
(0.149436 0.575288 0)
(-0.0935166 1.39718 0)
(-0.225396 1.63584 0)
(-0.21783 1.6588 0)
(-0.212234 1.36728 0)
(-0.0678732 0.580654 0)
(0.00648583 0.234131 0)
(0.0143301 0.238587 0)
(-0.0431526 0.316544 0)
(-0.120464 0.423609 0)
(-0.154968 0.721894 0)
(-0.0806313 1.07193 0)
(0.00232936 0.706496 0)
(-0.0339071 0.729479 0)
(-0.0826537 0.732014 0)
(-0.119351 0.702722 0)
(-0.147899 0.657668 0)
(-0.158564 0.627955 0)
(-0.144141 0.629359 0)
(-0.102339 0.635749 0)
(-0.0173533 0.642856 0)
(0.148192 0.773652 0)
(0.365101 1.08787 0)
(0.397005 1.2553 0)
(0.356124 1.20133 0)
(0.239447 0.834325 0)
(0.152556 0.330973 0)
(0.122148 0.275705 0)
(0.147074 0.275035 0)
(0.180819 0.215239 0)
(0.02969 0.782222 0)
(-0.112495 1.46971 0)
(-0.112052 1.6298 0)
(-0.0650437 1.62602 0)
(0.0301476 1.26675 0)
(0.134042 0.478654 0)
(0.146677 0.223061 0)
(0.115777 0.287802 0)
(0.0419503 0.407409 0)
(-0.0559731 0.563408 0)
(-0.130043 0.838461 0)
(-0.0794115 1.13527 0)
(-0.0127055 0.793591 0)
(-0.0612037 0.853563 0)
(-0.126663 0.830492 0)
(-0.164629 0.776702 0)
(-0.185347 0.721309 0)
(-0.199922 0.68281 0)
(-0.207119 0.675893 0)
(-0.202103 0.669671 0)
(-0.186756 0.628963 0)
(-0.111786 0.637236 0)
(0.0631246 0.951761 0)
(0.20844 1.25234 0)
(0.269209 1.23888 0)
(0.265645 0.909647 0)
(0.214836 0.391158 0)
(0.144605 0.295073 0)
(0.109624 0.277992 0)
(0.0865058 0.264513 0)
(-0.0551298 0.927927 0)
(-0.0707682 1.46717 0)
(0.00835436 1.56974 0)
(0.113967 1.53667 0)
(0.277974 1.16817 0)
(0.327688 0.483283 0)
(0.291732 0.276905 0)
(0.232408 0.380329 0)
(0.155093 0.529635 0)
(0.0827179 0.720984 0)
(-0.0537598 0.988507 0)
(-0.0556794 1.11762 0)
(0.00149711 0.905745 0)
(-0.0596069 1.01788 0)
(-0.16102 0.952997 0)
(-0.189402 0.869645 0)
(-0.190973 0.794109 0)
(-0.196518 0.750599 0)
(-0.207531 0.738459 0)
(-0.223569 0.728513 0)
(-0.257046 0.69424 0)
(-0.269742 0.655475 0)
(-0.200939 0.85269 0)
(-0.0200297 1.17217 0)
(0.128411 1.19654 0)
(0.237014 0.924935 0)
(0.229755 0.46438 0)
(0.131645 0.367575 0)
(0.0514527 0.335045 0)
(-0.0246188 0.367836 0)
(-0.125723 0.986077 0)
(-0.0304109 1.37964 0)
(0.125145 1.5167 0)
(0.342131 1.48103 0)
(0.538014 1.10566 0)
(0.547389 0.595324 0)
(0.449181 0.426878 0)
(0.343106 0.523646 0)
(0.208341 0.626261 0)
(0.0658227 0.739015 0)
(-0.0749866 0.955156 0)
(-0.0443027 0.942218 0)
(0.0069826 0.830819 0)
(-0.0301897 1.01561 0)
(-0.133225 0.935304 0)
(-0.166244 0.861603 0)
(-0.178403 0.811 0)
(-0.175842 0.788512 0)
(-0.171322 0.798782 0)
(-0.203206 0.830535 0)
(-0.280417 0.819865 0)
(-0.348849 0.769147 0)
(-0.368192 0.876924 0)
(-0.227199 1.09548 0)
(-0.0237975 1.10455 0)
(0.165072 0.875304 0)
(0.196444 0.526312 0)
(0.0943765 0.469985 0)
(-0.0137324 0.430763 0)
(-0.113038 0.477865 0)
(-0.185872 0.970517 0)
(-0.000113204 1.30441 0)
(0.224023 1.31673 0)
(0.527771 1.30365 0)
(0.742811 1.08092 0)
(0.737018 0.776312 0)
(0.575428 0.588509 0)
(0.329701 0.567577 0)
(0.134833 0.686992 0)
(-0.033704 0.854332 0)
(-0.13377 1.01629 0)
(-0.0400124 0.799783 0)
(0.00338257 0.756109 0)
(0.0113836 1.04281 0)
(-0.0731875 0.900098 0)
(-0.165574 0.775766 0)
(-0.229531 0.693918 0)
(-0.224828 0.665826 0)
(-0.195319 0.692935 0)
(-0.195612 0.768814 0)
(-0.245802 0.821619 0)
(-0.361054 0.836436 0)
(-0.43866 0.93513 0)
(-0.372155 1.0381 0)
(-0.154388 0.97706 0)
(0.0684405 0.790407 0)
(0.0898181 0.605986 0)
(-0.0141899 0.590119 0)
(-0.0990272 0.572759 0)
(-0.161399 0.62656 0)
(-0.197555 0.916426 0)
(0.0438254 1.12183 0)
(0.293135 1.11369 0)
(0.598478 1.13616 0)
(0.824811 1.07376 0)
(0.777883 0.862308 0)
(0.559148 0.753158 0)
(0.276793 0.814545 0)
(0.0246793 0.842116 0)
(-0.101635 0.855448 0)
(-0.15419 0.857965 0)
(-0.0373549 0.604308 0)
(-0.00349702 0.674659 0)
(0.0291398 0.96844 0)
(-0.0435862 0.940183 0)
(-0.182703 0.892244 0)
(-0.31426 0.745198 0)
(-0.368537 0.654617 0)
(-0.356338 0.661131 0)
(-0.338189 0.752825 0)
(-0.326334 0.824619 0)
(-0.377952 0.84176 0)
(-0.437962 0.891452 0)
(-0.409563 0.938898 0)
(-0.227655 0.811763 0)
(-0.0612791 0.721972 0)
(-0.0582651 0.684708 0)
(-0.105623 0.669156 0)
(-0.163957 0.665762 0)
(-0.189586 0.694881 0)
(-0.140143 0.890992 0)
(0.0439535 0.953053 0)
(0.299491 0.949318 0)
(0.539967 0.997933 0)
(0.635996 0.954792 0)
(0.577727 0.957728 0)
(0.362044 0.958378 0)
(0.136863 0.897054 0)
(-0.00804558 0.881442 0)
(-0.102813 0.885568 0)
(-0.159391 0.830126 0)
(-0.0475109 0.461878 0)
(0.0108197 0.577289 0)
(0.0449163 0.929035 0)
(-0.0375553 0.923822 0)
(-0.133602 0.883593 0)
(-0.226792 0.71049 0)
(-0.288231 0.581288 0)
(-0.298824 0.554871 0)
(-0.276395 0.627313 0)
(-0.246595 0.736226 0)
(-0.286949 0.843399 0)
(-0.336058 0.856802 0)
(-0.307077 0.806672 0)
(-0.192425 0.669779 0)
(-0.146374 0.703417 0)
(-0.112898 0.730493 0)
(-0.142648 0.730658 0)
(-0.180904 0.737188 0)
(-0.203549 0.759327 0)
(-0.13412 0.838566 0)
(0.0311897 0.86124 0)
(0.18524 0.769579 0)
(0.344677 0.81917 0)
(0.350067 0.923273 0)
(0.249178 1.01453 0)
(0.151206 0.995848 0)
(0.0897536 0.986557 0)
(-0.0138932 0.975064 0)
(-0.120279 0.954379 0)
(-0.135575 0.779147 0)
(-0.0220238 0.356653 0)
(0.0146827 0.519569 0)
(0.0727058 0.968677 0)
(-0.00810741 0.985677 0)
(-0.0529009 0.953077 0)
(-0.102383 0.764357 0)
(-0.1515 0.597751 0)
(-0.174714 0.531286 0)
(-0.148806 0.566191 0)
(-0.113737 0.696138 0)
(-0.0979065 0.787704 0)
(-0.126823 0.804335 0)
(-0.0859329 0.695385 0)
(-0.102919 0.638639 0)
(-0.115577 0.669133 0)
(-0.098484 0.756881 0)
(-0.127723 0.76914 0)
(-0.155405 0.777202 0)
(-0.178168 0.793249 0)
(-0.15595 0.821828 0)
(-0.0602261 0.783134 0)
(0.0731637 0.705391 0)
(0.0547535 0.736426 0)
(0.0741803 0.937483 0)
(0.00408785 0.999297 0)
(0.0176407 0.992937 0)
(0.0412785 1.03306 0)
(-0.0190805 1.06974 0)
(-0.09121 1.02184 0)
(-0.0500295 0.708537 0)
(0.00683945 0.316964 0)
(-0.00119721 0.451311 0)
(0.089568 0.993151 0)
(0.0637169 1.01877 0)
(0.0726912 0.965199 0)
(0.053603 0.79868 0)
(0.00898206 0.633338 0)
(-0.0252314 0.539984 0)
(-0.00644433 0.532156 0)
(0.0299841 0.670579 0)
(0.0663753 0.783146 0)
(0.049533 0.816845 0)
(0.119144 0.679391 0)
(-0.0118473 0.693499 0)
(-0.0124225 0.675663 0)
(-0.0429733 0.775015 0)
(-0.0720748 0.80062 0)
(-0.108347 0.816359 0)
(-0.154124 0.828293 0)
(-0.190189 0.824148 0)
(-0.21117 0.77102 0)
(-0.155006 0.702395 0)
(-0.20444 0.724462 0)
(-0.165648 0.906383 0)
(-0.106458 0.989008 0)
(-0.0880904 0.95653 0)
(-0.0449751 1.0293 0)
(-0.0334572 1.12988 0)
(-0.00915329 1.02324 0)
(0.0417667 0.66458 0)
(0.0287599 0.34325 0)
(-0.0312686 0.402285 0)
(0.0829629 0.955817 0)
(0.154987 0.995521 0)
(0.205004 0.960399 0)
(0.201933 0.835805 0)
(0.165136 0.675014 0)
(0.134 0.557889 0)
(0.134584 0.521558 0)
(0.15693 0.648273 0)
(0.185681 0.791772 0)
(0.194014 0.812131 0)
(0.247522 0.752859 0)
(0.101707 0.80004 0)
(0.138012 0.746636 0)
(0.0749253 0.808878 0)
(0.0219672 0.849239 0)
(-0.0454334 0.880087 0)
(-0.130601 0.89966 0)
(-0.220405 0.885845 0)
(-0.306993 0.838828 0)
(-0.362885 0.787349 0)
(-0.309345 0.828475 0)
(-0.325896 0.872103 0)
(-0.176074 0.948146 0)
(-0.137429 0.951798 0)
(-0.119801 1.00942 0)
(-0.0455108 1.10021 0)
(0.0630733 0.980839 0)
(0.0923274 0.690298 0)
(0.0347221 0.409743 0)
(-0.0423987 0.411458 0)
(0.0519512 0.833333 0)
(0.201063 0.928529 0)
(0.282691 0.938986 0)
(0.310369 0.859149 0)
(0.297151 0.710454 0)
(0.281027 0.579509 0)
(0.268321 0.534779 0)
(0.266745 0.640689 0)
(0.257153 0.816583 0)
(0.277574 0.831869 0)
(0.201286 0.879632 0)
(0.212503 0.846865 0)
(0.252894 0.828327 0)
(0.19198 0.874909 0)
(0.119304 0.926779 0)
(0.0266684 0.984029 0)
(-0.105017 1.03081 0)
(-0.246538 1.00502 0)
(-0.361208 0.949529 0)
(-0.450867 0.89808 0)
(-0.445509 0.894739 0)
(-0.333435 0.919526 0)
(-0.25898 0.934894 0)
(-0.16383 0.946469 0)
(-0.122462 0.992311 0)
(-0.0478766 1.0299 0)
(0.084604 0.937438 0)
(0.0976959 0.757469 0)
(0.0291683 0.483315 0)
(-0.0324968 0.452283 0)
(0.00867251 0.714252 0)
(0.171586 0.844454 0)
(0.286991 0.893004 0)
(0.359405 0.863143 0)
(0.384241 0.734523 0)
(0.387659 0.600405 0)
(0.36887 0.561022 0)
(0.335377 0.655962 0)
(0.306539 0.828189 0)
(0.301935 0.885544 0)
(0.213147 0.940821 0)
(0.35367 0.876841 0)
(0.346745 0.898058 0)
(0.297444 0.948922 0)
(0.23454 1.01709 0)
(0.130177 1.11042 0)
(-0.0724558 1.20743 0)
(-0.29168 1.1469 0)
(-0.425481 1.06476 0)
(-0.499255 0.993952 0)
(-0.522049 0.963855 0)
(-0.458337 0.94225 0)
(-0.315526 0.929573 0)
(-0.198714 0.948333 0)
(-0.110991 0.974025 0)
(-0.0238625 0.976039 0)
(0.0593738 0.897721 0)
(0.0710098 0.820089 0)
(0.0194012 0.536486 0)
(-0.0363805 0.529418 0)
(-0.0383255 0.652686 0)
(0.0950592 0.747797 0)
(0.2388 0.819149 0)
(0.357324 0.827914 0)
(0.421092 0.736603 0)
(0.435646 0.622173 0)
(0.405152 0.602165 0)
(0.335857 0.687803 0)
(0.30149 0.830992 0)
(0.24773 1.03037 0)
(0.392591 0.904496 0)
(0.460823 0.909481 0)
(0.441736 0.949459 0)
(0.409572 0.999744 0)
(0.361945 1.06637 0)
(0.223793 1.20691 0)
(-0.0715838 1.3508 0)
(-0.354215 1.24245 0)
(-0.501091 1.1246 0)
(-0.555574 1.03877 0)
(-0.553048 0.991095 0)
(-0.519104 0.956456 0)
(-0.436376 0.918294 0)
(-0.29136 0.903452 0)
(-0.132463 0.928018 0)
(-0.0207277 0.929901 0)
(0.0167281 0.873182 0)
(0.0270953 0.841972 0)
(0.0116321 0.564037 0)
(-0.0404873 0.618142 0)
(-0.0662098 0.640161 0)
(0.0196859 0.659862 0)
(0.172584 0.719752 0)
(0.316169 0.75774 0)
(0.407213 0.715818 0)
(0.417874 0.63751 0)
(0.373728 0.636307 0)
(0.297187 0.717275 0)
(0.251454 0.934403 0)
(0.381515 0.908926 0)
(0.514088 0.910609 0)
(0.522324 0.94643 0)
(0.507927 0.975887 0)
(0.478569 1.00441 0)
(0.393525 1.07457 0)
(0.174536 1.34998 0)
(-0.216382 1.51009 0)
(-0.430987 1.29979 0)
(-0.521287 1.08991 0)
(-0.574883 1.00564 0)
(-0.565945 0.973207 0)
(-0.528179 0.939924 0)
(-0.47719 0.893947 0)
(-0.388961 0.850047 0)
(-0.243022 0.833617 0)
(-0.0835007 0.873926 0)
(-0.0403388 0.876242 0)
(-0.0116619 0.820351 0)
(0.0122848 0.576436 0)
(-0.0275029 0.7012 0)
(-0.0537827 0.654011 0)
(-0.0151386 0.596753 0)
(0.100436 0.607965 0)
(0.240646 0.651681 0)
(0.34051 0.662211 0)
(0.35277 0.63711 0)
(0.302194 0.661837 0)
(0.261872 0.802981 0)
(0.347112 0.854748 0)
(0.486785 0.892567 0)
(0.531463 0.933322 0)
(0.533171 0.959587 0)
(0.51279 0.964417 0)
(0.450834 0.993807 0)
(0.245298 1.19919 0)
(-0.102996 1.60375 0)
(-0.314078 1.62302 0)
(-0.358101 1.28184 0)
(-0.408519 1.05213 0)
(-0.47023 0.94429 0)
(-0.514441 0.930783 0)
(-0.514377 0.912072 0)
(-0.480092 0.858577 0)
(-0.425792 0.798663 0)
(-0.338952 0.754131 0)
(-0.207508 0.773426 0)
(-0.0960943 0.866706 0)
(-0.0151485 0.766078 0)
(0.0140958 0.592949 0)
(0.00807884 0.734922 0)
(-0.00800061 0.689965 0)
(-0.0122988 0.563862 0)
(0.0526909 0.524093 0)
(0.146322 0.535399 0)
(0.235233 0.592137 0)
(0.252211 0.634103 0)
(0.246902 0.705863 0)
(0.316823 0.76021 0)
(0.435413 0.817615 0)
(0.496103 0.881794 0)
(0.506791 0.931872 0)
(0.486351 0.941401 0)
(0.450992 0.930131 0)
(0.341751 1.06566 0)
(-0.0404253 1.5037 0)
(-0.347005 1.71039 0)
(-0.276061 1.56483 0)
(-0.146189 1.21763 0)
(-0.125325 1.02999 0)
(-0.223218 0.949189 0)
(-0.35849 0.948168 0)
(-0.464481 0.911475 0)
(-0.482032 0.831389 0)
(-0.43833 0.751713 0)
(-0.377657 0.694978 0)
(-0.284283 0.693832 0)
(-0.147291 0.771725 0)
(-0.0176673 0.710505 0)
(0.00923806 0.61084 0)
(0.0450807 0.699202 0)
(0.0302884 0.778994 0)
(-0.0295082 0.548681 0)
(0.0130503 0.469336 0)
(0.0708041 0.456549 0)
(0.129171 0.53875 0)
(0.175254 0.613466 0)
(0.25779 0.658656 0)
(0.36523 0.709081 0)
(0.4391 0.78608 0)
(0.464322 0.86723 0)
(0.440658 0.921817 0)
(0.380939 0.926843 0)
(0.335896 0.924687 0)
(0.0994806 1.32108 0)
(-0.346246 1.87144 0)
(-0.424446 1.70652 0)
(-0.152484 1.37274 0)
(0.0663758 1.13249 0)
(0.11338 1.04512 0)
(0.114318 1.04409 0)
(-0.14338 1.15157 0)
(-0.407414 0.976764 0)
(-0.498313 0.812554 0)
(-0.46192 0.706664 0)
(-0.386567 0.636317 0)
(-0.299461 0.61873 0)
(-0.173733 0.661041 0)
(-0.0493765 0.64416 0)
(-0.00345733 0.606882 0)
(0.0860221 0.605 0)
(0.0655739 0.856893 0)
(-0.0599528 0.554857 0)
(-0.0392263 0.435401 0)
(0.0233822 0.406718 0)
(0.0798096 0.481575 0)
(0.158588 0.543746 0)
(0.264446 0.58693 0)
(0.357675 0.651689 0)
(0.415602 0.749649 0)
(0.414062 0.856997 0)
(0.347598 0.92407 0)
(0.260645 0.941171 0)
(0.180855 1.06687 0)
(-0.241067 1.716 0)
(-0.507346 2.04475 0)
(-0.312762 1.55659 0)
(-0.016493 1.17841 0)
(0.146946 1.08586 0)
(0.217296 1.02618 0)
(0.225347 1.09864 0)
(-0.118647 1.35132 0)
(-0.454481 1.10468 0)
(-0.543437 0.763136 0)
(-0.505262 0.639194 0)
(-0.404216 0.561905 0)
(-0.299211 0.531511 0)
(-0.190116 0.550266 0)
(-0.0819804 0.564152 0)
(-0.0172709 0.571636 0)
(0.00737893 0.44458 0)
(0.0971943 0.931307 0)
(-0.00623195 0.582789 0)
(-0.0461063 0.426945 0)
(-0.0109857 0.350574 0)
(0.0659314 0.409906 0)
(0.156847 0.453482 0)
(0.256 0.500574 0)
(0.348986 0.583333 0)
(0.402309 0.712783 0)
(0.350715 0.866916 0)
(0.233445 0.969912 0)
(0.137357 1.00677 0)
(-0.171495 1.27228 0)
(-0.496484 1.9357 0)
(-0.471766 1.88115 0)
(-0.237848 1.27618 0)
(-0.0470041 1.07485 0)
(0.0761939 1.03348 0)
(0.105233 0.992489 0)
(-0.0667665 1.23895 0)
(-0.378557 1.59474 0)
(-0.654273 1.14725 0)
(-0.636644 0.679237 0)
(-0.539587 0.519536 0)
(-0.433496 0.458896 0)
(-0.306612 0.433976 0)
(-0.19896 0.444616 0)
(-0.0996473 0.474869 0)
(-0.0259053 0.514493 0)
(-0.0690656 0.380749 0)
(0.148288 0.777189 0)
(0.130757 0.669822 0)
(0.0841899 0.436377 0)
(-0.0141273 0.314918 0)
(0.0984766 0.317174 0)
(0.178854 0.359201 0)
(0.270571 0.414724 0)
(0.366227 0.506958 0)
(0.417211 0.697804 0)
(0.3433 0.911201 0)
(0.138029 0.96167 0)
(-0.143639 1.17486 0)
(-0.509189 1.56093 0)
(-0.63404 1.84553 0)
(-0.49888 1.64409 0)
(-0.425386 1.13426 0)
(-0.43393 0.92259 0)
(-0.44638 0.974844 0)
(-0.570826 1.14748 0)
(-0.704133 1.40509 0)
(-0.70502 1.53871 0)
(-0.718244 1.09329 0)
(-0.660184 0.410071 0)
(-0.546243 0.336877 0)
(-0.438073 0.324265 0)
(-0.310943 0.329456 0)
(-0.199837 0.345481 0)
(-0.106016 0.383642 0)
(-0.0308709 0.444877 0)
(-0.0619485 0.313702 0)
(0.197194 0.621748 0)
(0.207522 0.641215 0)
(0.208937 0.583731 0)
(0.0646763 0.343496 0)
(0.162212 0.237583 0)
(0.22416 0.286412 0)
(0.308802 0.325547 0)
(0.450561 0.373109 0)
(0.618738 0.59628 0)
(0.48908 1.00763 0)
(0.0521381 1.23723 0)
(-0.398987 1.45824 0)
(-0.705113 1.6533 0)
(-0.777865 1.69335 0)
(-0.753016 1.46261 0)
(-0.846668 1.14437 0)
(-1.0095 0.99475 0)
(-1.11221 1.02537 0)
(-1.14299 1.12667 0)
(-1.05057 1.2341 0)
(-0.815682 1.23545 0)
(-0.645296 0.873073 0)
(-0.557357 0.269582 0)
(-0.48368 0.148305 0)
(-0.39664 0.185579 0)
(-0.29387 0.224477 0)
(-0.192209 0.252882 0)
(-0.105739 0.29558 0)
(-0.0345438 0.368609 0)
(-0.0278726 0.266151 0)
(0.139785 0.459267 0)
(0.245024 0.62269 0)
(0.2921 0.667885 0)
(0.199931 0.473628 0)
(0.213222 0.210433 0)
(0.265927 0.217086 0)
(0.35963 0.211479 0)
(0.584821 0.119512 0)
(0.779867 0.539703 0)
(0.518608 1.21408 0)
(-0.0161859 1.55883 0)
(-0.479568 1.69371 0)
(-0.777087 1.7459 0)
(-0.925175 1.67372 0)
(-1.0118 1.43752 0)
(-1.12941 1.16548 0)
(-1.24949 1.00253 0)
(-1.29298 0.961922 0)
(-1.23149 0.978833 0)
(-1.04984 1.00592 0)
(-0.774114 0.954868 0)
(-0.553376 0.650821 0)
(-0.440739 0.11819 0)
(-0.397595 0.0295791 0)
(-0.333486 0.0807163 0)
(-0.258493 0.132724 0)
(-0.176709 0.170578 0)
(-0.099591 0.213821 0)
(-0.0362064 0.289175 0)
(-0.0297482 0.288703 0)
(0.0176811 0.331245 0)
(0.168701 0.469369 0)
(0.346447 0.675173 0)
(0.412875 0.566624 0)
(0.298422 0.360095 0)
(0.35461 0.242647 0)
(0.55695 0.111482 0)
(0.742273 -0.122019 0)
(0.707708 0.547088 0)
(0.431595 1.50626 0)
(-0.100367 1.95472 0)
(-0.531844 2.04686 0)
(-0.845318 1.98729 0)
(-1.03359 1.80578 0)
(-1.12952 1.52534 0)
(-1.19352 1.24997 0)
(-1.22531 1.04289 0)
(-1.19688 0.928271 0)
(-1.0938 0.86163 0)
(-0.907011 0.804048 0)
(-0.660142 0.702713 0)
(-0.463659 0.457908 0)
(-0.355739 0.0165939 0)
(-0.339898 -0.0408676 0)
(-0.277888 0.00965341 0)
(-0.223931 0.060814 0)
(-0.159465 0.100734 0)
(-0.0909838 0.138741 0)
(-0.0374555 0.208309 0)
(-0.0158726 0.334341 0)
(-0.022141 0.293856 0)
(0.0644822 0.335908 0)
(0.261654 0.486481 0)
(0.460512 0.607302 0)
(0.523801 0.41437 0)
(0.5532 0.122174 0)
(0.629326 -0.0532127 0)
(0.674998 -0.0798519 0)
(0.542875 0.691758 0)
(0.250693 1.87761 0)
(-0.239437 2.37466 0)
(-0.629395 2.40936 0)
(-0.92092 2.24407 0)
(-1.07529 1.94323 0)
(-1.11969 1.59413 0)
(-1.11665 1.28024 0)
(-1.07849 1.02595 0)
(-1.00694 0.856175 0)
(-0.899812 0.734761 0)
(-0.743268 0.630963 0)
(-0.553468 0.508433 0)
(-0.413149 0.331972 0)
(-0.285918 -0.0582197 0)
(-0.289987 -0.0779947 0)
(-0.2326 -0.0360565 0)
(-0.19702 0.00898835 0)
(-0.145463 0.0441678 0)
(-0.0870547 0.0740619 0)
(-0.0445266 0.135893 0)
(-0.00632882 0.356624 0)
(-0.00485235 0.268872 0)
(0.0465283 0.246269 0)
(0.150997 0.309864 0)
(0.325464 0.422742 0)
(0.46441 0.407828 0)
(0.504833 0.213987 0)
(0.496203 0.0483264 0)
(0.511017 -0.020716 0)
(0.340849 0.915105 0)
(0.0056785 2.24174 0)
(-0.404794 2.74537 0)
(-0.728833 2.72878 0)
(-0.955205 2.45049 0)
(-1.03993 2.02576 0)
(-1.03071 1.60306 0)
(-0.995035 1.2544 0)
(-0.945898 0.978292 0)
(-0.896062 0.829879 0)
(-0.784159 0.669785 0)
(-0.640598 0.5298 0)
(-0.47881 0.392215 0)
(-0.338522 0.19322 0)
(-0.245811 -0.0972091 0)
(-0.253594 -0.0955353 0)
(-0.197049 -0.0592372 0)
(-0.177352 -0.0231283 0)
(-0.136395 0.00483641 0)
(-0.0846915 0.0311721 0)
(-0.057792 0.0819878 0)
(0.0153082 0.356531 0)
(0.0182917 0.23298 0)
(0.0700702 0.193344 0)
(0.126443 0.202137 0)
(0.21293 0.272681 0)
(0.313841 0.286449 0)
(0.360852 0.175301 0)
(0.354454 0.0479141 0)
(0.364562 0.0484034 0)
(0.127628 1.2194 0)
(-0.239759 2.57352 0)
(-0.540105 3.0522 0)
(-0.776474 2.97379 0)
(-0.923001 2.5817 0)
(-0.955758 2.05425 0)
(-0.942416 1.59181 0)
(-0.93551 1.27965 0)
(-0.870161 0.970871 0)
(-0.766492 0.739234 0)
(-0.630815 0.547897 0)
(-0.488161 0.387989 0)
(-0.345233 0.253539 0)
(-0.243439 0.10131 0)
(-0.226983 -0.0793627 0)
(-0.237427 -0.0661763 0)
(-0.175049 -0.0660185 0)
(-0.160039 -0.034266 0)
(-0.122829 -0.0067084 0)
(-0.0538218 0.0315929 0)
(0.00454309 0.0284748 0)
(0.0414081 0.320512 0)
(0.0415911 0.188707 0)
(0.0883346 0.151438 0)
(0.131637 0.143868 0)
(0.175266 0.18202 0)
(0.231754 0.210031 0)
(0.266155 0.143009 0)
(0.253423 0.0759406 0)
(0.194573 0.204175 0)
(-0.123021 1.60232 0)
(-0.438648 2.85589 0)
(-0.621684 3.28389 0)
(-0.767754 3.13962 0)
(-0.854981 2.66131 0)
(-0.878469 2.07169 0)
(-0.904694 1.63917 0)
(-0.870617 1.22593 0)
(-0.762432 0.870205 0)
(-0.619054 0.609783 0)
(-0.477208 0.421542 0)
(-0.346724 0.260125 0)
(-0.231397 0.146442 0)
(-0.15701 0.0594087 0)
(-0.178471 -0.0207602 0)
(-0.198519 -0.0612057 0)
(-0.196868 0.00366512 0)
(-0.119072 -0.01227 0)
(-0.0659961 -0.00473568 0)
(0.0268146 -0.0274934 0)
(0.0350071 0.0806934 0)
(0.0556189 0.293691 0)
(0.0750233 0.154526 0)
(0.102673 0.110119 0)
(0.141859 0.106009 0)
(0.165788 0.133637 0)
(0.196268 0.152382 0)
(0.225871 0.114797 0)
(0.191092 0.142341 0)
(-0.0114403 0.488424 0)
(-0.418512 1.9399 0)
(-0.626823 3.06046 0)
(-0.695105 3.43218 0)
(-0.760734 3.23457 0)
(-0.810746 2.71295 0)
(-0.836679 2.09043 0)
(-0.866626 1.62714 0)
(-0.809334 1.14014 0)
(-0.667452 0.731101 0)
(-0.494036 0.460055 0)
(-0.350371 0.302246 0)
(-0.243558 0.157372 0)
(-0.161348 0.0712538 0)
(-0.113855 0.0333584 0)
(-0.115181 0.0223217 0)
(-0.160755 0.0369309 0)
(-0.15174 -0.0222306 0)
(-0.0806172 -0.00911003 0)
(0.00294523 -0.0361532 0)
(0.0361857 -0.000343074 0)
(0.0222139 0.122704 0)
(0.0293272 0.207785 0)
(0.104358 0.136364 0)
(0.127905 0.0673302 0)
(0.158768 0.0785973 0)
(0.172761 0.110175 0)
(0.185121 0.119369 0)
(0.19759 0.103695 0)
(0.0931947 0.286055 0)
(-0.291375 0.946144 0)
(-0.720069 2.25396 0)
(-0.840374 3.18463 0)
(-0.817379 3.50136 0)
(-0.818433 3.2782 0)
(-0.841452 2.7378 0)
(-0.849694 2.09389 0)
(-0.8438 1.5758 0)
(-0.730411 1.00372 0)
(-0.540399 0.544835 0)
(-0.362924 0.29195 0)
(-0.233908 0.194057 0)
(-0.157961 0.0807962 0)
(-0.115834 0.0261545 0)
(-0.0917554 0.0192568 0)
(-0.0844792 0.0330624 0)
(-0.0819745 0.0637408 0)
(-0.0843765 0.0269074 0)
(-0.0666195 -0.0157557 0)
(-0.0220675 -0.0245921 0)
(0.0036464 0.00882932 0)
(0.00644188 0.142551 0)
(0.00631114 0.164496 0)
(0.110834 0.0819648 0)
(0.152263 0.0216025 0)
(0.182846 0.0521409 0)
(0.202402 0.0915932 0)
(0.201548 0.123508 0)
(0.14235 0.153127 0)
(-0.134198 0.559987 0)
(-0.638816 1.41192 0)
(-0.975464 2.49894 0)
(-1.04999 3.24641 0)
(-0.991071 3.50727 0)
(-0.958698 3.28029 0)
(-0.957182 2.71604 0)
(-0.912754 2.03012 0)
(-0.798293 1.44285 0)
(-0.560692 0.800046 0)
(-0.327014 0.344081 0)
(-0.197912 0.164174 0)
(-0.121488 0.130375 0)
(-0.0902361 0.0448111 0)
(-0.0762857 0.014008 0)
(-0.0690465 0.0124623 0)
(-0.0582349 0.0241944 0)
(-0.0311886 0.0509146 0)
(-0.0235065 0.0498064 0)
(-0.0560614 0.0213042 0)
(-0.0555065 -0.0348435 0)
(-0.0219672 -0.0045355 0)
(-0.0120514 0.150297 0)
(0.0176954 0.0932553 0)
(0.114162 0.0113967 0)
(0.171957 -0.0250009 0)
(0.215173 0.0146076 0)
(0.254185 0.0647371 0)
(0.22589 0.151005 0)
(-0.0276698 0.310086 0)
(-0.521465 0.958152 0)
(-0.961746 1.77623 0)
(-1.17957 2.66192 0)
(-1.21781 3.26886 0)
(-1.16781 3.48629 0)
(-1.13805 3.2612 0)
(-1.11689 2.65641 0)
(-0.978202 1.87506 0)
(-0.684442 1.1676 0)
(-0.338439 0.518824 0)
(-0.151049 0.190653 0)
(-0.104113 0.119381 0)
(-0.0746296 0.108291 0)
(-0.0660146 0.0365345 0)
(-0.0545973 0.0107464 0)
(-0.0458257 0.00706001 0)
(-0.0322388 0.0117829 0)
(0.00041846 0.0348848 0)
(0.00244117 0.0849655 0)
(-0.0677713 0.0721562 0)
(-0.0835466 -0.0547005 0)
(-0.0357432 -0.0297731 0)