/*--------------------------------*- C++ -*----------------------------------*\
| =========                 |                                                 |
| \\      /  F ield         | OpenFOAM: The Open Source CFD Toolbox           |
|  \\    /   O peration     | Version:  v1606+                                |
|   \\  /    A nd           | Web:      www.OpenFOAM.com                      |
|    \\/     M anipulation  |                                                 |
\*---------------------------------------------------------------------------*/
FoamFile
{
    version     2.0;
    format      ascii;
    class       volScalarField;
    location    "0.41";
    object      alpha.particles;
}
// * * * * * * * * * * * * * * * * * * * * * * * * * * * * * * * * * * * * * //

dimensions      [0 0 0 0 0 0 0];

internalField   nonuniform List<scalar> 
6000
(
0.386281
0.384949
0.405358
0.422401
0.44001
0.441938
0.441938
0.441938
0.441753
0.440467
0.438021
0.437223
0.437128
0.436955
0.436034
0.435964
0.436523
0.437356
0.437554
0.438763
0.441078
0.441754
0.44194
0.44194
0.44194
0.440539
0.423648
0.40653
0.386772
0.382856
0.385257
0.385061
0.384954
0.385066
0.384996
0.396104
0.40352
0.407546
0.407807
0.407866
0.407822
0.407872
0.407772
0.40748
0.407486
0.407448
0.407394
0.407034
0.406987
0.40693
0.406981
0.406913
0.406639
0.402588
0.394604
0.382892
0.382828
0.382809
0.382807
0.382807
0.405343
0.415073
0.431571
0.445581
0.458812
0.474852
0.482306
0.485405
0.484521
0.483059
0.481857
0.481443
0.481326
0.481684
0.481825
0.481853
0.481812
0.481252
0.481085
0.481496
0.48278
0.484374
0.485385
0.482301
0.474595
0.458231
0.444175
0.429178
0.412313
0.402372
0.438599
0.453933
0.477768
0.495834
0.498478
0.498561
0.498644
0.498736
0.498834
0.498928
0.499012
0.499091
0.499177
0.499273
0.499372
0.49946
0.499534
0.499611
0.499703
0.499802
0.499901
0.499976
0.500043
0.500122
0.500226
0.500323
0.497055
0.477005
0.451717
0.435413
0.483259
0.492717
0.498195
0.498292
0.498384
0.490505
0.458037
0.438898
0.434326
0.44205
0.450261
0.458873
0.46352
0.465242
0.46443
0.464563
0.465778
0.464288
0.460175
0.451204
0.442758
0.43495
0.440113
0.45976
0.493612
0.500418
0.500472
0.50054
0.492978
0.481858
0.497928
0.498021
0.498101
0.474865
0.411308
0.348292
0.31803
0.301855
0.28951
0.282822
0.28258
0.288471
0.293009
0.295034
0.29307
0.293252
0.295646
0.293906
0.289625
0.283173
0.283438
0.289895
0.302707
0.319297
0.351057
0.417509
0.482564
0.500625
0.500746
0.500829
0.497839
0.497923
0.399165
0.314397
0.279524
0.268774
0.266006
0.260663
0.241133
0.215625
0.197646
0.190269
0.190981
0.193331
0.19246
0.192554
0.193585
0.191345
0.190693
0.198461
0.216788
0.241875
0.261586
0.266972
0.270115
0.282429
0.321532
0.415512
0.500824
0.500924
0.497739
0.389672
0.252629
0.235523
0.256956
0.284829
0.296387
0.296482
0.276171
0.240659
0.195828
0.183231
0.183145
0.18319
0.183214
0.183195
0.183197
0.183264
0.183287
0.197849
0.243564
0.277273
0.296877
0.296406
0.284767
0.257426
0.23731
0.261149
0.410063
0.50094
0.494388
0.268189
0.220189
0.231011
0.273813
0.322743
0.345022
0.349304
0.337496
0.309525
0.230112
0.183242
0.183242
0.183296
0.183334
0.183323
0.183332
0.183282
0.183649
0.234817
0.31444
0.33918
0.349287
0.343916
0.320809
0.273196
0.231307
0.21694
0.281387
0.501025
0.366775
0.234034
0.220235
0.241948
0.301239
0.351831
0.374192
0.382575
0.386563
0.38237
0.304517
0.195696
0.183306
0.183363
0.183428
0.183422
0.183394
0.183383
0.197846
0.31233
0.386998
0.388481
0.382739
0.372489
0.348952
0.298794
0.240795
0.216353
0.23967
0.410696
0.25941
0.215331
0.22018
0.266854
0.329836
0.369999
0.392956
0.405614
0.4282
0.443282
0.391134
0.228631
0.183364
0.183434
0.183483
0.183499
0.183475
0.183395
0.234828
0.398436
0.446198
0.430264
0.405844
0.391414
0.36764
0.326333
0.262562
0.216184
0.221997
0.288846
0.216747
0.215005
0.220531
0.298274
0.364575
0.393165
0.419745
0.435815
0.463036
0.488289
0.460432
0.296996
0.194125
0.184539
0.184888
0.184854
0.184336
0.195416
0.308084
0.467522
0.488217
0.463756
0.436011
0.418672
0.392485
0.361226
0.290678
0.215502
0.21556
0.230512
0.21503
0.215023
0.219902
0.334609
0.416532
0.43134
0.456928
0.476881
0.498692
0.516745
0.512997
0.385955
0.237866
0.203302
0.203688
0.203525
0.202742
0.241692
0.398255
0.517398
0.515938
0.498138
0.476273
0.455432
0.432344
0.413833
0.32278
0.215574
0.215567
0.215588
0.215044
0.21503
0.220212
0.367399
0.48148
0.482402
0.499235
0.518829
0.532539
0.538642
0.532822
0.462129
0.324578
0.262321
0.259508
0.259133
0.262003
0.329708
0.469412
0.534825
0.538792
0.532008
0.517753
0.497834
0.483911
0.480751
0.35378
0.215579
0.215576
0.215583
0.221653
0.21871
0.238816
0.37756
0.51444
0.524191
0.537299
0.544343
0.546305
0.546257
0.537988
0.515757
0.435339
0.374843
0.365543
0.36509
0.375522
0.439544
0.518194
0.539215
0.546868
0.546885
0.543889
0.537004
0.52507
0.510742
0.367485
0.233678
0.220096
0.22316
0.259984
0.25738
0.293376
0.398454
0.535472
0.540744
0.546266
0.546337
0.546279
0.546245
0.539511
0.539338
0.524757
0.496867
0.486269
0.486141
0.498259
0.526792
0.539949
0.540033
0.546831
0.54689
0.546907
0.546869
0.538598
0.533343
0.391483
0.289539
0.259176
0.261301
0.309681
0.317
0.361746
0.415044
0.425638
0.422768
0.545414
0.546199
0.546167
0.452545
0.423437
0.470415
0.480483
0.482041
0.485249
0.484539
0.480945
0.478186
0.46771
0.416433
0.463674
0.54675
0.546794
0.542092
0.408222
0.422612
0.412591
0.359061
0.318207
0.309907
0.304119
0.309509
0.333394
0.320944
0.190184
0.175611
0.287244
0.403288
0.390772
0.285845
0.216803
0.222634
0.24471
0.265774
0.280769
0.27973
0.263283
0.241119
0.22012
0.217287
0.296686
0.407444
0.395483
0.26771
0.165707
0.188564
0.31719
0.328119
0.30746
0.303411
0.212529
0.197628
0.178961
0.130927
0.0762077
0.0876358
0.167873
0.285148
0.316534
0.256106
0.165208
0.121763
0.116722
0.120295
0.124072
0.124138
0.12062
0.117157
0.123208
0.171649
0.26339
0.325506
0.282189
0.155182
0.0837239
0.0755774
0.1293
0.173871
0.192612
0.210485
0.0894382
0.0773751
0.0675473
0.0616133
0.0618241
0.0750903
0.133447
0.252849
0.324402
0.28215
0.186556
0.122198
0.108446
0.108446
0.109415
0.109742
0.109465
0.109465
0.125159
0.195755
0.290395
0.323264
0.245756
0.126399
0.0729069
0.0611983
0.061226
0.0662315
0.0751039
0.0878686
0.0444903
0.0441547
0.0484244
0.0555741
0.0610334
0.0713821
0.116121
0.240301
0.330791
0.306773
0.210211
0.132494
0.113709
0.113299
0.115094
0.115468
0.114128
0.114921
0.136276
0.220673
0.315121
0.327119
0.231099
0.11054
0.0700001
0.0603876
0.0552205
0.0480344
0.04342
0.0439048
0.0407041
0.04166
0.0490529
0.0564948
0.0608823
0.0696679
0.103205
0.220053
0.331046
0.328038
0.230132
0.142209
0.120658
0.120115
0.12231
0.122706
0.120883
0.121991
0.145912
0.23955
0.33667
0.327373
0.208354
0.0994472
0.0689018
0.0602803
0.0559265
0.0485818
0.04109
0.0405341
0.040704
0.0430985
0.0517096
0.0575776
0.0607831
0.06931
0.0962419
0.195896
0.331338
0.34911
0.245005
0.149213
0.12645
0.126025
0.128318
0.128701
0.126814
0.12783
0.152753
0.252307
0.356847
0.327052
0.18452
0.0943821
0.0688414
0.0602291
0.0568631
0.051048
0.0424578
0.0405341
0.042353
0.0461473
0.0542901
0.0581419
0.061104
0.0705201
0.094603
0.175846
0.329319
0.365362
0.25434
0.154923
0.131637
0.131268
0.133674
0.134029
0.132065
0.133043
0.158365
0.260758
0.370475
0.32329
0.16833
0.0938525
0.0704919
0.0608139
0.0574843
0.0535073
0.0452735
0.0416822
0.0465352
0.0491398
0.055525
0.0587117
0.0626592
0.0736414
0.0975997
0.165964
0.325111
0.373494
0.261215
0.160464
0.1369
0.136502
0.138998
0.139313
0.137257
0.138259
0.163755
0.267146
0.376368
0.319329
0.16209
0.0976691
0.07401
0.0626686
0.058182
0.0547541
0.0480439
0.0452466
0.051366
0.0511862
0.0560511
0.0597773
0.0656287
0.0785319
0.103487
0.163928
0.320966
0.375565
0.269548
0.167139
0.142676
0.142068
0.144519
0.144779
0.142723
0.143911
0.170092
0.274756
0.377361
0.316139
0.161791
0.104013
0.0789541
0.0656721
0.059336
0.0552791
0.0501092
0.0497801
0.0550246
0.053046
0.0566028
0.0616044
0.069758
0.0847608
0.111246
0.16582
0.315161
0.375564
0.280211
0.175374
0.149141
0.148079
0.150342
0.150568
0.14865
0.150264
0.177887
0.284597
0.377359
0.312858
0.165528
0.111734
0.0851334
0.0698077
0.0611966
0.055747
0.0522046
0.0533399
0.0570173
0.0558001
0.0580621
0.0646978
0.0751552
0.0922191
0.120251
0.172349
0.30896
0.375583
0.289066
0.184547
0.15652
0.154734
0.156691
0.156925
0.155338
0.157663
0.186989
0.293845
0.37738
0.307754
0.172499
0.120763
0.0926494
0.0753434
0.0644305
0.0572756
0.055169
0.0552409
0.0578285
0.0594844
0.0612889
0.0695981
0.0823654
0.101523
0.131333
0.183467
0.305639
0.37557
0.294587
0.193727
0.164777
0.162189
0.163776
0.164048
0.162942
0.166121
0.196627
0.299791
0.377366
0.303731
0.183279
0.132038
0.10221
0.0828543
0.0696608
0.0609094
0.0589792
0.0560269
0.0581867
0.0640636
0.0669334
0.076663
0.0915632
0.112893
0.14462
0.197397
0.305156
0.375596
0.297589
0.202803
0.174045
0.170741
0.171879
0.172207
0.171677
0.175711
0.206285
0.302676
0.377383
0.302698
0.197379
0.145623
0.113937
0.0924734
0.0772128
0.0671012
0.0637068
0.0564297
0.0586752
0.0697646
0.074896
0.0861443
0.102978
0.12639
0.160155
0.214054
0.312323
0.361713
0.298774
0.2141
0.184986
0.180632
0.181187
0.181582
0.18177
0.187006
0.218024
0.303088
0.362412
0.310029
0.214528
0.161569
0.127838
0.104282
0.0870795
0.07541
0.0695442
0.0570845
0.0599244
0.0768146
0.0847232
0.0978228
0.116646
0.142201
0.178258
0.233418
0.32115
0.355005
0.304104
0.229955
0.19862
0.192448
0.19224
0.192693
0.193794
0.201053
0.234013
0.307543
0.354712
0.319204
0.23459
0.180265
0.144172
0.118341
0.0990144
0.0853558
0.0766429
0.058692
0.0630791
0.0855309
0.0963732
0.111639
0.1326
0.160474
0.199058
0.255614
0.33086
0.353385
0.31364
0.249771
0.216731
0.207958
0.206628
0.207166
0.209578
0.219585
0.253722
0.316228
0.352709
0.329393
0.257682
0.201884
0.163073
0.134687
0.113037
0.0970406
0.0853176
0.0624697
0.0698802
0.0962443
0.11019
0.127733
0.150981
0.181552
0.223202
0.280695
0.343569
0.357994
0.327783
0.273917
0.240894
0.229258
0.22649
0.227185
0.231295
0.244168
0.277774
0.329792
0.357365
0.343047
0.283542
0.227054
0.184924
0.15351
0.129369
0.110964
0.0961058
0.0699907
0.0818437
0.110078
0.126938
0.146565
0.17219
0.20613
0.25137
0.308036
0.359544
0.369535
0.347092
0.303412
0.271826
0.25754
0.252931
0.253746
0.259649
0.274921
0.306999
0.349141
0.369762
0.360474
0.311956
0.256342
0.210452
0.175274
0.14849
0.127906
0.110279
0.0825243
0.099802
0.12908
0.147674
0.168716
0.19698
0.235624
0.284681
0.338619
0.379713
0.387106
0.371166
0.338112
0.310309
0.295002
0.288623
0.289095
0.296376
0.312817
0.34137
0.373453
0.388309
0.381668
0.342993
0.290313
0.240869
0.200833
0.171092
0.148946
0.129774
0.100806
0.124678
0.154932
0.173249
0.194825
0.22738
0.273064
0.325872
0.374643
0.404939
0.409957
0.399651
0.37756
0.356737
0.344147
0.338569
0.33915
0.345813
0.359578
0.380671
0.401831
0.411498
0.40696
0.37849
0.331308
0.278835
0.232146
0.197964
0.175062
0.156142
0.125836
0.158037
0.18767
0.204081
0.226818
0.266442
0.321741
0.376596
0.4166
0.435563
0.43829
0.433288
0.422292
0.410966
0.403698
0.400508
0.401331
0.406003
0.414593
0.425975
0.435969
0.440158
0.437262
0.419543
0.381566
0.328058
0.272303
0.231043
0.206783
0.189561
0.159294
0.201759
0.225803
0.241252
0.267185
0.315616
0.382946
0.436206
0.462235
0.470516
0.471409
0.47069
0.468183
0.46522
0.463144
0.46235
0.463167
0.465482
0.468887
0.472166
0.474206
0.474203
0.472769
0.464899
0.441292
0.390606
0.323165
0.272812
0.245185
0.228571
0.203349
0.25491
0.270699
0.285155
0.31466
0.371735
0.44674
0.493418
0.501554
0.503247
0.503316
0.504352
0.505428
0.506396
0.507002
0.507475
0.508036
0.508649
0.509086
0.50877
0.50796
0.506706
0.506282
0.50394
0.497732
0.456389
0.381688
0.321992
0.290234
0.274316
0.257198
0.313085
0.322072
0.333873
0.362203
0.423428
0.488784
0.523263
0.523893
0.524355
0.524645
0.525659
0.526895
0.528085
0.528896
0.529398
0.529648
0.529659
0.529422
0.528808
0.528061
0.527199
0.526743
0.525522
0.525689
0.49784
0.434774
0.370843
0.339844
0.326429
0.315899
0.371442
0.377153
0.382096
0.405733
0.460802
0.505666
0.52672
0.531754
0.532821
0.533942
0.535178
0.536336
0.537283
0.537912
0.538261
0.53835
0.538194
0.537802
0.537144
0.536274
0.535182
0.533891
0.532423
0.528016
0.510843
0.470658
0.414268
0.388799
0.382356
0.374473
0.425902
0.431084
0.429095
0.447269
0.489966
0.516216
0.5263
0.53348
0.536358
0.538365
0.540098
0.541413
0.542319
0.542874
0.543145
0.543167
0.542946
0.542465
0.54167
0.540491
0.538853
0.536738
0.53392
0.527246
0.518408
0.496387
0.454234
0.435369
0.437361
0.429757
0.471928
0.475368
0.47922
0.487256
0.509682
0.523089
0.528459
0.535882
0.540181
0.542618
0.544397
0.54558
0.546312
0.546729
0.546912
0.546897
0.546691
0.546263
0.545547
0.544414
0.542701
0.540271
0.536199
0.529124
0.52433
0.512827
0.491318
0.48308
0.481458
0.477426
0.498936
0.506025
0.521129
0.517585
0.519361
0.528406
0.535039
0.541709
0.545805
0.547677
0.548818
0.549485
0.549854
0.550042
0.550104
0.550065
0.549927
0.549676
0.549267
0.548601
0.547516
0.545774
0.542008
0.535551
0.529496
0.520546
0.51749
0.521423
0.508691
0.50492
0.507529
0.524561
0.539356
0.529876
0.527841
0.538354
0.545583
0.549962
0.551983
0.552527
0.552746
0.552803
0.55279
0.55275
0.552698
0.552638
0.552575
0.55251
0.552442
0.552347
0.552166
0.551818
0.550271
0.546434
0.540079
0.528411
0.527391
0.537023
0.52246
0.509247
0.510832
0.535479
0.540995
0.536271
0.540743
0.550465
0.555013
0.556362
0.556287
0.55587
0.555504
0.555188
0.554947
0.554775
0.554657
0.554586
0.554565
0.554607
0.554734
0.554977
0.555372
0.555935
0.556366
0.555742
0.552362
0.542992
0.536212
0.538535
0.530779
0.510039
0.512788
0.542163
0.544952
0.545409
0.55365
0.55883
0.559534
0.558813
0.557823
0.557268
0.556912
0.556611
0.55636
0.556184
0.556068
0.556001
0.555987
0.556036
0.556172
0.556435
0.556822
0.557322
0.55837
0.559676
0.559925
0.556157
0.548331
0.545015
0.538747
0.511437
0.515111
0.548785
0.553089
0.556423
0.560677
0.560679
0.559563
0.558206
0.55737
0.557198
0.557236
0.55727
0.557214
0.557149
0.557098
0.557057
0.55703
0.55702
0.557031
0.557071
0.557001
0.556987
0.557556
0.558891
0.561096
0.561627
0.559126
0.555142
0.547887
0.51429
0.521939
0.556251
0.560754
0.561038
0.561034
0.560009
0.557154
0.555254
0.555177
0.556175
0.556986
0.557425
0.557723
0.557858
0.557917
0.557924
0.557885
0.55779
0.557611
0.557281
0.556632
0.555431
0.554413
0.553633
0.558294
0.561668
0.562223
0.562254
0.557099
0.522556
0.536113
0.561021
0.561066
0.56108
0.560175
0.554836
0.547763
0.548215
0.549993
0.553405
0.556049
0.557382
0.558093
0.558468
0.55866
0.558729
0.558695
0.558536
0.558178
0.557434
0.555768
0.552036
0.547136
0.537398
0.546401
0.556868
0.562274
0.562252
0.562258
0.538643
0.550363
0.561068
0.561099
0.561016
0.551961
0.537713
0.527247
0.537689
0.543308
0.54966
0.554844
0.557445
0.558559
0.55913
0.559424
0.559552
0.559552
0.559406
0.559015
0.558062
0.555765
0.548751
0.537668
0.521283
0.519572
0.536862
0.557963
0.562339
0.562261
0.552943
0.557821
0.561105
0.561074
0.553219
0.519811
0.511734
0.513404
0.527345
0.539749
0.548524
0.55505
0.558001
0.559326
0.559946
0.560261
0.560418
0.560472
0.560431
0.560243
0.559627
0.557561
0.550877
0.535139
0.524863
0.510206
0.510164
0.534157
0.56174
0.562388
0.560116
0.561106
0.561108
0.557076
0.518388
0.497819
0.498059
0.511634
0.526734
0.54176
0.550452
0.556554
0.559297
0.560418
0.560902
0.561154
0.561302
0.561398
0.561482
0.561587
0.561653
0.561016
0.557265
0.545304
0.534352
0.515871
0.510519
0.499028
0.538385
0.562279
0.562404
0.561076
0.55649
0.52302
0.492992
0.497924
0.498037
0.516276
0.531727
0.548002
0.554713
0.559037
0.560927
0.561613
0.561889
0.562043
0.56215
0.562248
0.562389
0.562653
0.563142
0.563705
0.563113
0.55858
0.551812
0.534909
0.514022
0.498985
0.505252
0.534711
0.562309
0.557465
0.511747
0.500503
0.492985
0.506132
0.510064
0.530523
0.54481
0.555022
0.558839
0.561303
0.562368
0.562694
0.562805
0.562865
0.562905
0.562952
0.563048
0.563255
0.563678
0.564516
0.565363
0.565368
0.563478
0.556864
0.540373
0.508124
0.50495
0.505039
0.547743
0.534371
0.500733
0.501883
0.504017
0.531649
0.538819
0.546449
0.554861
0.559546
0.561563
0.562934
0.563502
0.563617
0.563616
0.563588
0.563539
0.563481
0.563436
0.563417
0.563539
0.56408
0.565094
0.566239
0.56626
0.566209
0.561755
0.544454
0.519636
0.504952
0.516476
0.505803
0.500728
0.521159
0.538235
0.550438
0.551677
0.555252
0.559691
0.562055
0.56332
0.564161
0.564443
0.564422
0.564331
0.564211
0.564057
0.563864
0.563624
0.563321
0.563044
0.562925
0.563497
0.565068
0.566256
0.566278
0.566249
0.564797
0.550965
0.521487
0.515015
0.504901
0.529726
0.550409
0.554402
0.555358
0.556188
0.559247
0.562169
0.563789
0.564725
0.565226
0.565286
0.565148
0.564965
0.56476
0.564514
0.564198
0.563761
0.563119
0.562188
0.560987
0.560094
0.560967
0.56523
0.566264
0.566283
0.566276
0.566183
0.552265
0.52067
0.526946
0.551941
0.551988
0.552
0.554814
0.558247
0.561751
0.564174
0.565425
0.566035
0.566201
0.566051
0.565797
0.565541
0.565286
0.565004
0.564637
0.56408
0.563175
0.561438
0.558591
0.554452
0.55114
0.555081
0.564889
0.566268
0.566286
0.566284
0.565745
0.540868
0.549573
0.551966
0.550111
0.542434
0.554442
0.560641
0.564441
0.566316
0.567043
0.567203
0.567028
0.56669
0.56635
0.566063
0.565819
0.565593
0.565319
0.564855
0.563924
0.56198
0.557594
0.548286
0.535867
0.524696
0.544585
0.564236
0.566275
0.566288
0.566255
0.55887
0.551311
0.548847
0.520362
0.533169
0.556702
0.564591
0.567473
0.568301
0.568333
0.56803
0.567561
0.567089
0.566708
0.566436
0.566269
0.566199
0.566181
0.566095
0.565665
0.564312
0.560233
0.549379
0.523251
0.496056
0.495189
0.534708
0.56364
0.566286
0.566282
0.565206
0.551261
0.509559
0.509487
0.538322
0.563299
0.569055
0.569787
0.569476
0.568973
0.568342
0.567694
0.567138
0.566727
0.566482
0.566414
0.566516
0.566777
0.567143
0.567471
0.567444
0.565643
0.557818
0.529546
0.499702
0.482723
0.482804
0.525882
0.564215
0.566264
0.566275
0.539455
0.509477
0.525167
0.554938
0.569737
0.571769
0.5708
0.569803
0.569012
0.568264
0.567555
0.566948
0.566495
0.566224
0.566159
0.566304
0.566663
0.567255
0.56815
0.569151
0.569615
0.567294
0.552132
0.515803
0.487119
0.480221
0.480237
0.524197
0.563982
0.566257
0.516808
0.509509
0.54763
0.567756
0.573131
0.572435
0.570894
0.569766
0.568875
0.567984
0.56712
0.566361
0.565777
0.565424
0.565331
0.565508
0.565966
0.566709
0.567731
0.569022
0.570656
0.571721
0.568007
0.549962
0.511553
0.486165
0.480221
0.482717
0.525983
0.564669
0.516805
0.531599
0.564576
0.573149
0.573507
0.572247
0.570773
0.569618
0.568527
0.567379
0.566223
0.565182
0.56439
0.563919
0.563774
0.56394
0.564432
0.565279
0.566491
0.568111
0.570049
0.571875
0.572673
0.568845
0.552196
0.518844
0.486473
0.494547
0.49358
0.544227
0.526269
0.559273
0.572546
0.573862
0.573509
0.571888
0.570528
0.5693
0.567877
0.566295
0.564671
0.563258
0.562288
0.561775
0.561612
0.561726
0.562129
0.562919
0.564221
0.566144
0.568577
0.570965
0.572732
0.572998
0.570086
0.556453
0.526435
0.509936
0.493518
0.521639
0.545189
0.569243
0.57385
0.573882
0.573013
0.571493
0.570218
0.568737
0.566742
0.564442
0.562184
0.560505
0.559652
0.559361
0.559307
0.559356
0.559495
0.559901
0.560887
0.562898
0.565921
0.569092
0.571636
0.57306
0.573035
0.570932
0.559667
0.538899
0.506167
0.506319
0.560239
0.572058
0.573892
0.573874
0.572513
0.571234
0.569815
0.567603
0.564455
0.560966
0.558092
0.556832
0.556805
0.557219
0.557489
0.557519
0.557188
0.55675
0.556561
0.55784
0.561173
0.565651
0.569561
0.572185
0.573083
0.57306
0.571095
0.561726
0.538467
0.513507
0.566178
0.572788
0.573881
0.573543
0.57225
0.571008
0.568738
0.564515
0.558685
0.553292
0.550589
0.551759
0.553821
0.555636
0.556577
0.556701
0.55576
0.553892
0.551193
0.549867
0.551364
0.558138
0.565039
0.570084
0.572706
0.573096
0.573075
0.571029
0.560456
0.529091
0.568902
0.572903
0.573907
0.57321
0.572196
0.569954
0.564679
0.554898
0.542841
0.536168
0.536136
0.5442
0.550496
0.554513
0.556572
0.556895
0.555544
0.551721
0.544682
0.537571
0.529927
0.540394
0.552644
0.564505
0.570864
0.573079
0.573101
0.573067
0.568801
0.548278
0.570623
0.572962
0.573773
0.573316
0.571352
0.565357
0.550589
0.528296
0.513088
0.51115
0.515528
0.534536
0.547297
0.553883
0.556822
0.557546
0.556092
0.551149
0.538681
0.523128
0.50122
0.511782
0.522021
0.54729
0.564751
0.57198
0.573096
0.573096
0.572058
0.562295
0.571932
0.573232
0.573771
0.572667
0.56668
0.548946
0.512359
0.490157
0.488159
0.496343
0.502907
0.525267
0.545327
0.553926
0.557367
0.558513
0.557413
0.552186
0.537513
0.510769
0.492176
0.492172
0.486551
0.507406
0.544163
0.565929
0.573059
0.573101
0.573069
0.568403
0.572959
0.57358
0.573575
0.568111
0.549831
0.506049
0.470507
0.473538
0.48783
0.49719
0.501537
0.521433
0.545406
0.554384
0.558061
0.559509
0.55916
0.554782
0.539365
0.50556
0.49309
0.493678
0.483905
0.471388
0.498076
0.542362
0.567789
0.573064
0.57309
0.571362
0.573563
0.573525
0.569166
0.550459
0.506425
0.461674
0.46183
0.476024
0.489125
0.498069
0.504633
0.52286
0.547308
0.555759
0.559024
0.560507
0.56092
0.558496
0.545991
0.509101
0.502364
0.497335
0.485993
0.469038
0.459608
0.483509
0.545379
0.569305
0.573032
0.573031
0.573522
0.569213
0.554135
0.503494
0.466268
0.457268
0.463846
0.479096
0.488443
0.501142
0.511525
0.532703
0.552643
0.558395
0.560548
0.56172
0.56254
0.56215
0.555913
0.530403
0.516345
0.503671
0.485961
0.467737
0.453366
0.453368
0.488001
0.548907
0.569466
0.572998
0.569157
0.551087
0.523981
0.483624
0.457268
0.457268
0.468598
0.4792
0.489461
0.506896
0.527687
0.549162
0.559144
0.561661
0.562576
0.563241
0.56403
0.564768
0.563426
0.554411
0.540062
0.51581
0.489654
0.470707
0.453367
0.453366
0.453382
0.504149
0.549846
0.569296
0.554882
0.505537
0.499676
0.492221
0.483544
0.467271
0.475165
0.480959
0.496626
0.525868
0.550394
0.561081
0.563985
0.564296
0.564337
0.564544
0.565048
0.566017
0.566818
0.565388
0.559547
0.543655
0.512325
0.479368
0.464555
0.45856
0.460807
0.506664
0.508254
0.554203
0.535451
0.505521
0.507633
0.523452
0.533904
0.489243
0.484679
0.493894
0.526016
0.55291
0.56383
0.566323
0.566052
0.565275
0.564802
0.564684
0.565003
0.565864
0.567123
0.56785
0.567702
0.563104
0.548252
0.520615
0.489425
0.476693
0.493631
0.52493
0.507812
0.536064
0.516424
0.505523
0.527087
0.545709
0.53594
0.502382
0.510348
0.533138
0.556735
0.566203
0.567695
0.567052
0.565696
0.56459
0.563904
0.56365
0.563877
0.564686
0.566145
0.567853
0.56912
0.569279
0.565948
0.555022
0.535236
0.517168
0.512919
0.52499
0.507794
0.514362
0.514919
0.520213
0.545778
0.545782
0.522307
0.522231
0.544502
0.561079
0.56775
0.567918
0.567704
0.565741
0.563531
0.561785
0.560606
0.560053
0.560224
0.561209
0.563087
0.565668
0.568014
0.56933
0.569325
0.567607
0.56033
0.546918
0.533806
0.530508
0.517315
0.509615
0.515651
0.540213
0.548086
0.534112
0.522403
0.548679
0.564055
0.567881
0.567953
0.567882
0.565385
0.561447
0.557914
0.555182
0.553274
0.552256
0.552277
0.553527
0.556131
0.559966
0.564364
0.568133
0.569348
0.569344
0.568186
0.56238
0.551441
0.542108
0.534133
0.5118
0.517563
0.546667
0.548183
0.535447
0.545315
0.565079
0.567919
0.567984
0.567897
0.564698
0.558377
0.552089
0.547437
0.544098
0.541806
0.540257
0.539529
0.539996
0.542358
0.547362
0.554958
0.562934
0.56815
0.569358
0.569354
0.568224
0.563008
0.55422
0.544447
0.515521
0.517604
0.549522
0.550418
0.550759
0.564472
0.567938
0.568
0.567908
0.563624
0.553851
0.543509
0.537306
0.534832
0.533562
0.532195
0.53038
0.528103
0.525228
0.522963
0.525293
0.533485
0.548715
0.561691
0.568139
0.569373
0.569363
0.568221
0.563628
0.553187
0.520025
0.519323
0.554066
0.55918
0.564679
0.567957
0.568013
0.567922
0.562874
0.548001
0.530436
0.522588
0.523519
0.526802
0.530349
0.531783
0.529736
0.524459
0.51735
0.509092
0.506109
0.506279
0.518995
0.543661
0.561433
0.568606
0.569385
0.569365
0.568557
0.561469
0.531333
0.528958
0.560645
0.566435
0.567982
0.568024
0.567947
0.562883
0.543123
0.516794
0.507031
0.50763
0.515443
0.52351
0.530878
0.533035
0.530969
0.525124
0.515144
0.506866
0.499022
0.493843
0.492151
0.510095
0.542171
0.562683
0.569322
0.569389
0.569368
0.566575
0.547052
0.544999
0.565673
0.568008
0.568026
0.567976
0.563573
0.540901
0.507062
0.491434
0.49701
0.503028
0.512507
0.523006
0.531872
0.535185
0.533339
0.526686
0.514637
0.506279
0.499448
0.492712
0.48346
0.482466
0.506826
0.544676
0.565152
0.569358
0.569388
0.568807
0.558302
0.557399
0.56794
0.568029
0.568004
0.56478
0.540963
0.499373
0.478673
0.482738
0.495253
0.503211
0.510069
0.523206
0.53291
0.536677
0.53531
0.528642
0.514967
0.505258
0.500207
0.493523
0.481837
0.470735
0.473321
0.506442
0.54847
0.567946
0.569385
0.569365
0.564234
0.563959
0.568013
0.568026
0.566586
0.544009
0.490915
0.466869
0.46856
0.482934
0.495949
0.50358
0.507902
0.523658
0.533683
0.53719
0.536489
0.530407
0.515885
0.503636
0.500176
0.49527
0.483601
0.469772
0.457185
0.461219
0.499149
0.553874
0.569311
0.569382
0.567618
0.567415
0.568029
0.567933
0.547749
0.489979
0.4491
0.458554
0.470362
0.485163
0.497097
0.503486
0.50754
0.524124
0.534034
0.537196
0.536943
0.531656
0.517184
0.500965
0.500287
0.49656
0.486759
0.472106
0.456874
0.436411
0.439413
0.514336
0.559766
0.569293
0.569366
0.568013
0.567906
0.553599
0.497806
0.448642
0.447892
0.459116
0.474751
0.489537
0.498935
0.500138
0.507792
0.524724
0.534087
0.537252
0.536903
0.532511
0.518954
0.49996
0.497001
0.496682
0.490872
0.476118
0.457107
0.436018
0.436019
0.4606
0.534141
0.561379
0.569305
0.567923
0.552555
0.519097
0.474837
0.447893
0.447893
0.46242
0.4801
0.493815
0.498315
0.497256
0.508974
0.526018
0.53424
0.537273
0.536853
0.533377
0.521947
0.501087
0.49232
0.49415
0.49186
0.479714
0.459063
0.436508
0.439704
0.454092
0.491636
0.53451
0.561735
0.55562
0.505617
0.481917
0.480582
0.485311
0.468129
0.466792
0.481693
0.491971
0.49279
0.496601
0.513221
0.528778
0.535083
0.537489
0.537316
0.534834
0.526751
0.507205
0.491231
0.487042
0.487821
0.478013
0.462035
0.461067
0.483046
0.466935
0.469082
0.476947
0.538764
0.532586
0.485265
0.485019
0.510132
0.535711
0.499757
0.473968
0.477676
0.483664
0.489043
0.501402
0.522173
0.533531
0.537607
0.539249
0.539289
0.537756
0.533201
0.519707
0.497554
0.485065
0.478275
0.469529
0.470522
0.496954
0.534112
0.50537
0.479682
0.476833
0.498093
0.501839
0.494958
0.523746
0.542616
0.54214
0.496673
0.474791
0.469179
0.479636
0.494731
0.516854
0.534031
0.540058
0.542342
0.543352
0.543446
0.542641
0.540544
0.534262
0.516299
0.493301
0.477357
0.469529
0.473832
0.492872
0.53903
0.541133
0.523793
0.494071
0.494139
0.510875
0.535478
0.542976
0.542989
0.532959
0.489539
0.468843
0.468704
0.487368
0.514903
0.53638
0.544375
0.546723
0.547807
0.548316
0.548386
0.548033
0.547207
0.545234
0.537754
0.517292
0.489027
0.469845
0.47046
0.48684
0.530975
0.541986
0.541975
0.536962
0.504335
0.538
0.542989
0.543001
0.54296
0.508557
0.488654
0.46869
0.479316
0.513389
0.539372
0.548243
0.550125
0.550729
0.550814
0.550822
0.550824
0.550816
0.550797
0.550522
0.549146
0.541989
0.519265
0.485774
0.470406
0.49073
0.510318
0.541955
0.541998
0.541986
0.535652
0.542996
0.543003
0.542976
0.516815
0.491921
0.485713
0.478394
0.512117
0.541825
0.550416
0.550846
0.550845
0.550843
0.550831
0.550825
0.550821
0.550738
0.550675
0.550779
0.550789
0.550743
0.545428
0.52142
0.486746
0.493737
0.497417
0.519169
0.541975
0.542001
0.541991
0.543001
0.542977
0.528935
0.481992
0.48557
0.490455
0.513415
0.543694
0.550815
0.550829
0.550448
0.54899
0.547372
0.546406
0.54545
0.545228
0.545589
0.546471
0.54796
0.549886
0.550782
0.550788
0.547692
0.525318
0.504615
0.495979
0.48856
0.527737
0.541977
0.541998
0.541775
0.513951
0.484669
0.48177
0.490705
0.517932
0.545304
0.550815
0.550808
0.548897
0.54479
0.540711
0.537339
0.535003
0.532706
0.532755
0.533855
0.535888
0.538716
0.542797
0.547565
0.550607
0.550602
0.549098
0.531372
0.504749
0.488354
0.488567
0.516523
0.541968
0.480311
0.467649
0.468278
0.486978
0.519149
0.54584
0.55051
0.550517
0.547082
0.540639
0.534186
0.529568
0.526205
0.52407
0.520916
0.521358
0.523227
0.525084
0.527775
0.531966
0.538123
0.545188
0.549804
0.549828
0.549287
0.531476
0.498594
0.47718
0.472308
0.501855
0.449955
0.454497
0.479074
0.51847
0.546104
0.549643
0.549629
0.545006
0.53725
0.52993
0.526409
0.523278
0.520164
0.518161
0.515351
0.515476
0.517753
0.519518
0.522249
0.525277
0.527638
0.534735
0.543286
0.549516
0.549533
0.549231
0.529584
0.491491
0.468571
0.457232
0.449955
0.472959
0.517604
0.546315
0.548808
0.548808
0.543239
0.533781
0.525242
0.51718
0.52046
0.520342
0.516202
0.513938
0.512746
0.512303
0.513435
0.515522
0.519463
0.520137
0.51585
0.523517
0.531139
0.5418
0.549071
0.549288
0.549286
0.528034
0.486978
0.45715
0.469794
0.518729
0.546935
0.547971
0.547968
0.54157
0.531642
0.524124
0.513941
0.500275
0.509303
0.515774
0.512975
0.509834
0.50971
0.509449
0.508939
0.51224
0.514989
0.509464
0.500557
0.514185
0.523513
0.529956
0.540378
0.548588
0.549403
0.549372
0.527548
0.479778
0.51615
0.547083
0.547309
0.547261
0.539035
0.529712
0.524487
0.517108
0.49972
0.491808
0.496438
0.508193
0.510794
0.506925
0.506052
0.506628
0.506201
0.51022
0.5076
0.496913
0.493011
0.501447
0.518214
0.52516
0.529553
0.538057
0.547659
0.54944
0.549369
0.523397
0.546873
0.547144
0.546633
0.533689
0.524706
0.517751
0.514811
0.505035
0.491905
0.491807
0.491844
0.499845
0.508129
0.506144
0.504858
0.505018
0.505873
0.507494
0.50026
0.493013
0.493012
0.493861
0.50941
0.517334
0.518603
0.523515
0.53175
0.546917
0.549444
0.549069
0.549309
0.541869
0.526943
0.506204
0.508954
0.509016
0.510428
0.504216
0.493097
0.491808
0.491808
0.495256
0.502706
0.505395
0.504856
0.504837
0.505345
0.502481
0.498161
0.493013
0.493013
0.496769
0.509871
0.513914
0.509687
0.50857
0.504191
0.524097
0.54265
0.550254
0.542619
0.499663
0.501538
0.500979
0.500982
0.510292
0.516473
0.513332
0.503319
0.494627
0.494195
0.495625
0.496912
0.503717
0.504691
0.504543
0.504047
0.500423
0.499771
0.49666
0.498547
0.509506
0.518582
0.520594
0.513279
0.502395
0.500666
0.500654
0.50052
0.543755
0.516991
0.498956
0.498974
0.504058
0.515503
0.527878
0.531893
0.528699
0.520815
0.507669
0.503437
0.499873
0.496897
0.500379
0.503749
0.503711
0.501087
0.500646