/*--------------------------------*- C++ -*----------------------------------*\
| =========                 |                                                 |
| \\      /  F ield         | OpenFOAM: The Open Source CFD Toolbox           |
|  \\    /   O peration     | Version:  v1606+                                |
|   \\  /    A nd           | Web:      www.OpenFOAM.com                      |
|    \\/     M anipulation  |                                                 |
\*---------------------------------------------------------------------------*/
FoamFile
{
    version     2.0;
    format      ascii;
    class       surfaceScalarField;
    location    "0.41";
    object      phi.air;
}
// * * * * * * * * * * * * * * * * * * * * * * * * * * * * * * * * * * * * * //

dimensions      [0 3 -1 0 0 0 0];

internalField   nonuniform List<scalar> 
11770
(
-1.20487e-06
8.94607e-05
-2.95841e-06
8.878e-05
-2.60479e-06
8.69597e-05
-1.45163e-06
8.69457e-05
-5.33161e-07
8.78305e-05
1.46394e-06
8.73357e-05
3.09515e-06
8.78254e-05
4.22983e-06
8.8544e-05
4.16402e-06
8.98584e-05
3.51022e-06
9.07223e-05
2.52066e-06
9.12574e-05
1.61656e-06
9.13675e-05
1.01274e-06
9.12877e-05
4.88161e-07
9.12942e-05
-8.5987e-08
9.13355e-05
-7.42026e-07
9.13305e-05
-1.37115e-06
9.12601e-05
-1.96848e-06
9.12428e-05
-2.83479e-06
9.13282e-05
-3.76459e-06
9.11837e-05
-4.42825e-06
9.06512e-05
-4.5836e-06
8.98236e-05
-3.45975e-06
8.8412e-05
-1.68302e-06
8.75586e-05
4.61711e-07
8.70627e-05
1.28396e-06
8.75391e-05
2.61356e-06
8.65586e-05
3.19322e-06
8.65276e-05
1.63069e-06
8.82396e-05
8.95111e-05
2.64028e-06
7.86903e-05
2.62477e-06
8.03328e-05
2.60311e-06
7.74019e-05
3.14152e-06
7.5641e-05
3.6338e-06
7.59078e-05
5.28726e-06
7.5046e-05
6.47895e-06
7.67884e-05
7.05327e-06
7.86356e-05
6.27534e-06
8.10691e-05
4.68305e-06
8.23076e-05
3.34457e-06
8.24536e-05
2.3074e-06
8.20551e-05
1.41096e-06
8.16036e-05
6.01715e-07
8.1386e-05
-2.83553e-07
8.14049e-05
-1.10546e-06
8.13811e-05
-1.78869e-06
8.12723e-05
-2.60135e-06
8.14872e-05
-3.68142e-06
8.19906e-05
-5.18405e-06
8.24272e-05
-6.84741e-06
8.22658e-05
-7.68219e-06
8.10594e-05
-7.09343e-06
7.84767e-05
-5.76951e-06
7.63683e-05
-3.96158e-06
7.45178e-05
-3.20192e-06
7.5228e-05
-2.48815e-06
7.48663e-05
-2.50163e-06
7.6728e-05
-2.78346e-06
7.98703e-05
7.85984e-05
-3.85661e-07
8.2342e-05
1.09658e-06
8.38015e-05
2.35062e-06
8.34621e-05
4.2579e-06
8.36912e-05
6.59013e-06
8.58911e-05
7.74766e-06
8.72691e-05
7.17385e-06
9.1673e-05
5.90355e-06
9.48674e-05
4.40048e-06
9.761e-05
3.07714e-06
9.8369e-05
2.08763e-06
9.78059e-05
1.49768e-06
9.67483e-05
9.75293e-07
9.60815e-05
5.14489e-07
9.58908e-05
-1.88315e-07
9.62001e-05
-8.54185e-07
9.61658e-05
-1.25113e-06
9.57631e-05
-1.70874e-06
9.59323e-05
-2.26966e-06
9.66686e-05
-3.28334e-06
9.7851e-05
-4.67297e-06
9.84506e-05
-6.28145e-06
9.77745e-05
-7.65843e-06
9.48737e-05
-8.25005e-06
9.13489e-05
-6.92909e-06
8.66602e-05
-4.36091e-06
8.50739e-05
-2.28155e-06
8.27432e-05
-9.43473e-07
8.26253e-05
4.67645e-07
8.33213e-05
8.22117e-05
4.56866e-06
8.04831e-05
8.58019e-06
8.34928e-05
9.32411e-06
8.73978e-05
1.01055e-05
8.99104e-05
1.18671e-05
9.42274e-05
1.35186e-05
9.77184e-05
1.10059e-05
0.000103818
7.41426e-06
0.000105878
4.01415e-06
0.000107655
1.98686e-06
0.00010756
4.32232e-07
0.000106832
1.19007e-07
0.000105559
2.38068e-07
0.000105274
3.42433e-07
0.00010563
-9.3909e-08
0.000106693
-5.43958e-07
0.000106661
-4.27422e-07
0.000105514
-3.16137e-07
0.000105177
-4.45014e-07
0.00010546
-1.97022e-06
0.000107008
-4.04643e-06
0.000107861
-7.59159e-06
0.000108131
-1.12975e-05
0.000106221
-1.40192e-05
0.000103934
-1.21983e-05
9.72432e-05
-1.04476e-05
9.34637e-05
-9.52504e-06
8.88427e-05
-8.44869e-06
8.63373e-05
-4.46557e-06
8.29849e-05
8.0355e-05
9.07025e-06
7.65284e-05
1.45495e-05
8.36253e-05
1.64239e-05
9.57423e-05
1.75256e-05
0.000102199
1.44825e-05
0.000104991
8.29793e-06
0.000102003
6.24291e-06
9.80007e-05
7.04899e-06
9.46518e-05
7.56302e-06
9.57766e-05
6.34417e-06
9.79482e-05
4.15252e-06
9.90542e-05
2.47563e-06
9.86723e-05
1.52866e-06
9.8425e-05
1.01888e-06
9.85728e-05
-2.68912e-08
9.98921e-05
-1.08396e-06
9.98894e-05
-1.58798e-06
9.85191e-05
-2.50893e-06
9.83861e-05
-4.065e-06
9.85757e-05
-6.21259e-06
9.92176e-05
-7.3531e-06
9.81671e-05
-6.93404e-06
9.62609e-05
-6.28395e-06
9.512e-05
-8.82091e-06
9.85651e-05
-1.555e-05
0.000102366
-1.84344e-05
0.000104783
-1.67529e-05
0.000101005
-1.46005e-05
9.42816e-05
-9.12233e-06
8.31258e-05
7.64189e-05
1.26349e-05
6.89824e-05
2.24215e-05
8.30287e-05
1.55765e-05
0.000107974
5.91767e-07
0.000109915
-9.55892e-06
9.91662e-05
-1.374e-05
8.78138e-05
-8.46201e-06
7.66789e-05
1.94412e-06
6.93851e-05
1.08977e-05
7.11165e-05
1.32245e-05
7.79864e-05
1.33993e-05
8.02009e-05
9.41827e-06
8.33069e-05
5.6625e-06
8.28545e-05
2.67059e-06
8.2212e-05
-1.04835e-07
8.30783e-05
-2.87693e-06
8.30774e-05
-5.86889e-06
8.21684e-05
-9.60575e-06
8.28004e-05
-1.36105e-05
8.32073e-05
-1.31117e-05
8.00481e-05
-1.04209e-05
7.78497e-05
-1.46147e-06
7.15463e-05
8.68989e-06
7.00342e-05
1.34333e-05
7.76319e-05
8.38953e-06
8.87827e-05
-2.3458e-06
9.97734e-05
-1.76849e-05
0.000110147
-2.20991e-05
0.000105835
-1.25979e-05
8.24916e-05
6.89014e-05
1.91813e-05
5.89148e-05
1.68794e-05
8.4703e-05
-1.40375e-05
0.000118654
-4.2994e-05
0.000118076
-5.51088e-05
9.82065e-05
-4.82869e-05
7.4598e-05
-3.28495e-05
5.76392e-05
-1.42789e-05
4.82412e-05
3.55585e-06
5.00081e-05
1.6146e-05
6.0358e-05
1.98163e-05
6.94587e-05
1.59342e-05
7.94551e-05
1.0595e-05
8.06716e-05
4.92294e-06
8.03364e-05
-1.54099e-07
8.0588e-05
-5.24259e-06
8.05884e-05
-1.09504e-05
8.03057e-05
-1.63249e-05
8.06148e-05
-2.02373e-05
7.93001e-05
-1.58432e-05
6.86593e-05
-2.56857e-06
5.965e-05
1.53645e-05
5.03803e-05
3.36745e-05
4.91489e-05
4.8579e-05
5.90485e-05
5.44779e-05
7.63092e-05
4.10212e-05
9.96821e-05
1.08946e-05
0.000118859
-1.97759e-05
0.000117411
-1.8597e-05
8.27334e-05
5.89834e-05
1.97304e-05
4.72821e-05
-1.8312e-05
0.000105695
-5.64113e-05
0.000140713
-7.52556e-05
0.000127604
-7.33211e-05
9.22108e-05
-5.87722e-05
6.03021e-05
-4.23422e-05
4.32878e-05
-2.64637e-05
3.48639e-05
-8.41647e-06
3.45805e-05
1.28735e-05
4.11415e-05
1.99531e-05
6.19449e-05
1.70342e-05
8.04896e-05
1.18141e-05
8.46454e-05
5.71491e-06
8.52831e-05
-1.59277e-07
8.53348e-05
-6.04922e-06
8.53453e-05
-1.21809e-05
8.52779e-05
-1.74303e-05
8.46043e-05
-2.0129e-05
8.00749e-05
-1.20806e-05
6.03199e-05
9.72266e-06
4.00835e-05
2.78484e-05
3.49471e-05
4.36181e-05
3.59081e-05
5.97708e-05
4.49129e-05
7.38134e-05
6.24127e-05
7.49346e-05
9.42895e-05
5.45836e-05
0.000129417
1.25197e-05
0.000141357
-2.0639e-05
0.000100425
4.64835e-05
-9.15768e-06
6.04738e-05
-5.35382e-05
0.000138249
-7.23026e-05
0.000155418
-7.44579e-05
0.000126691
-6.46893e-05
8.04941e-05
-5.15755e-05
4.70401e-05
-3.98275e-05
3.29022e-05
-3.00622e-05
2.69848e-05
-1.76745e-05
2.48044e-05
2.27958e-06
2.46459e-05
1.87642e-05
4.81741e-05
1.78772e-05
8.02899e-05
1.19654e-05
8.95748e-05
5.8139e-06
9.07089e-05
-1.95706e-07
9.06474e-05
-6.21483e-06
9.06725e-05
-1.23895e-05
9.07404e-05
-1.82725e-05
8.95098e-05
-1.83682e-05
7.91619e-05
-1.14569e-06
4.59622e-05
1.86387e-05
2.3795e-05
3.11696e-05
2.50517e-05
4.11003e-05
2.78949e-05
5.28733e-05
3.44447e-05
6.58049e-05
4.92483e-05
7.50322e-05
8.30224e-05
7.16072e-05
0.000129397
4.79649e-05
0.000159873
1.06611e-06
0.000134041
5.26929e-05
-4.0301e-05
9.70481e-05
-6.40275e-05
0.000159285
-7.21254e-05
0.000161322
-6.38579e-05
0.000116823
-5.13742e-05
6.60556e-05
-4.31001e-05
3.71911e-05
-3.62952e-05
2.53861e-05
-3.07407e-05
2.11901e-05
-2.30857e-05
1.77004e-05
-1.09985e-05
1.45517e-05
1.17377e-05
2.92084e-05
1.64767e-05
7.57029e-05
1.1693e-05
9.31435e-05
5.71038e-06
9.58415e-05
-1.93913e-07
9.57292e-05
-6.11867e-06
9.57764e-05
-1.21514e-05
9.59268e-05
-1.68116e-05
9.29199e-05
-1.06109e-05
7.33614e-05
1.2033e-05
2.71288e-05
2.35849e-05
1.41328e-05
3.14343e-05
1.77382e-05
3.72622e-05
2.17834e-05
4.43003e-05
2.663e-05
5.28718e-05
3.90525e-05
6.48522e-05
6.89726e-05
7.10976e-05
0.000121221
6.09069e-05
0.000168026
3.34119e-05
0.000158454
8.57295e-05
-4.76343e-05
0.000138806
-5.94685e-05
0.000169792
-6.62143e-05
0.000164778
-5.26309e-05
0.0001024
-4.11565e-05
5.26959e-05
-3.63527e-05
3.01915e-05
-3.1819e-05
1.94492e-05
-2.77899e-05
1.55844e-05
-2.31345e-05
1.21658e-05
-1.77165e-05
9.67337e-06
-1.88014e-06
1.61955e-05
1.28856e-05
6.34036e-05
1.11289e-05
9.37641e-05
5.29009e-06
0.000100617
-1.64395e-07
0.000100141
-5.67088e-06
0.000100239
-1.16303e-05
0.000100809
-1.29273e-05
9.30774e-05
3.28243e-06
5.99302e-05
1.84262e-05
1.48296e-05
2.33878e-05
9.64725e-06
2.81142e-05
1.21323e-05
3.23546e-05
1.59196e-05
3.72145e-05
2.03227e-05
4.2775e-05
3.13001e-05
5.44518e-05
5.53228e-05
6.63805e-05
0.000108167
5.95557e-05
0.00017176
4.69847e-05
0.000169879
0.000127074
-3.35989e-05
0.000170107
-4.40774e-05
0.000179795
-5.45882e-05
0.000170965
-4.24637e-05
8.9075e-05
-3.2351e-05
4.13509e-05
-2.87589e-05
2.46355e-05
-2.54323e-05
1.46904e-05
-2.22659e-05
1.0608e-05
-2.05719e-05
8.33352e-06
-2.00509e-05
8.85754e-06
-1.41597e-05
1.385e-05
5.85194e-06
4.8184e-05
8.83697e-06
9.13434e-05
3.90002e-06
0.000105185
-1.4657e-07
0.000103949
-4.26347e-06
0.000104112
-9.35209e-06
0.000105475
-5.5571e-06
8.99788e-05
1.48784e-05
4.4579e-05
2.03276e-05
1.29439e-05
2.06895e-05
8.7118e-06
2.24021e-05
8.27962e-06
2.56681e-05
1.08379e-05
2.9228e-05
1.53134e-05
3.3707e-05
2.49344e-05
4.47161e-05
4.30183e-05
5.61767e-05
9.51745e-05
4.75435e-05
0.00017615
3.81713e-05
0.000178418
0.000161503
-1.58871e-05
0.000185168
-2.72091e-05
0.000190158
-3.89081e-05
0.000177428
-3.16516e-05
7.9292e-05
-2.31643e-05
3.22898e-05
-2.08857e-05
2.09501e-05
-1.91174e-05
1.13416e-05
-1.7105e-05
6.31543e-06
-1.7068e-05
5.54709e-06
-1.98091e-05
1.02413e-05
-2.07732e-05
1.92109e-05
-8.61123e-06
4.35456e-05
9.04193e-08
8.74958e-05
-3.15591e-08
0.000107766
-1.17369e-07
0.00010658
-2.76944e-07
0.000106812
-3.73775e-07
0.000107991
9.02237e-06
8.57244e-05
2.07688e-05
4.06277e-05
1.97141e-05
1.79601e-05
1.71473e-05
9.5679e-06
1.72199e-05
5.38539e-06
1.92309e-05
6.55957e-06
2.11029e-05
1.18053e-05
2.39054e-05
2.08381e-05
3.34756e-05
3.27563e-05
4.03976e-05
8.53054e-05
3.0094e-05
0.000181335
2.01929e-05
0.000187288
0.00017996
-4.58595e-06
0.000188294
-1.19336e-05
0.000195659
-1.5458e-05
0.000178521
-1.80629e-05
7.87578e-05
-1.46678e-05
2.90588e-05
-1.54201e-05
2.07056e-05
-1.52786e-05
8.89046e-06
-1.48962e-05
3.39531e-06
-1.53961e-05
4.57021e-06
-2.00106e-05
1.41553e-05
-2.73438e-05
2.93899e-05
-2.5278e-05
5.19245e-05
-1.33637e-05
8.69544e-05
-5.88976e-06
0.000108196
-3.64379e-08
0.000108068
5.75153e-06
0.000108366
1.35764e-05
0.000108164
2.58652e-05
8.50624e-05
2.70575e-05
4.97216e-05
1.97283e-05
2.77257e-05
1.54963e-05
1.29493e-05
1.49056e-05
4.24129e-06
1.51743e-05
3.64966e-06
1.55717e-05
9.16023e-06
1.47711e-05
2.07491e-05
1.8593e-05
2.92783e-05
1.64464e-05
8.42311e-05
1.33262e-05
0.000181923
6.13308e-06
0.000192648
0.000184919
2.68213e-06
0.000187743
3.88172e-06
0.000195788
1.33815e-05
0.000174276
6.52892e-07
9.19819e-05
-4.99137e-06
3.5021e-05
-1.11881e-05
2.5815e-05
-1.318e-05
9.70379e-06
-1.43174e-05
3.6691e-06
-1.33419e-05
4.85698e-06
-1.81761e-05
1.99702e-05
-3.02292e-05
4.26947e-05
-3.4715e-05
6.50323e-05
-2.29577e-05
9.01243e-05
-9.74427e-06
0.000107993
-8.78493e-09
0.000109423
9.73792e-06
0.000109726
2.34271e-05
0.000107818
3.49006e-05
8.87164e-05
2.95891e-05
6.31892e-05
1.77258e-05
4.07397e-05
1.36335e-05
1.79712e-05
1.41586e-05
4.43815e-06
1.27445e-05
3.91537e-06
1.1452e-05
9.54011e-06
4.49271e-06
2.66619e-05
-1.55185e-06
3.54277e-05
-1.2989e-05
9.63715e-05
-2.72214e-06
0.000177017
-1.66342e-06
0.00019299
0.0001855
5.7066e-06
0.00018981
1.80263e-05
0.000191665
3.83818e-05
0.000165714
2.71576e-05
0.00010967
9.51118e-06
5.80019e-05
-9.56537e-06
4.33407e-05
-1.32267e-05
1.66705e-05
-1.46197e-05
8.29801e-06
-8.31501e-06
5.79457e-06
-1.21833e-05
2.80609e-05
-2.65491e-05
5.55114e-05
-3.40623e-05
7.26009e-05
-2.72961e-05
9.20584e-05
-1.22012e-05
0.000106512
5.37892e-08
0.000109559
1.24457e-05
0.000109803
2.78115e-05
0.000106354
3.36142e-05
9.13333e-05
2.5799e-05
7.11213e-05
1.09444e-05
5.42579e-05
9.11615e-06
2.44175e-05
1.4401e-05
5.40085e-06
1.21489e-05
8.98402e-06
1.01919e-05
1.56712e-05
-1.16172e-05
4.63902e-05
-2.88723e-05
5.89836e-05
-3.81652e-05
0.000112504
-1.66049e-05
0.000167425
-4.71734e-06
0.000189285
0.000188381
5.66238e-06
0.000192588
2.51444e-05
0.000183529
5.02832e-05
0.000152949
5.35121e-05
0.000113124
2.01143e-05
8.54836e-05
-3.2448e-06
6.38823e-05
-1.62696e-05
2.6267e-05
-1.54973e-05
9.8458e-06
-7.14336e-06
8.5741e-06
-4.56282e-06
3.66452e-05
-1.67248e-05
6.65554e-05
-2.24474e-05
7.61353e-05
-2.02381e-05
8.69515e-05
-1.09558e-05
9.83512e-05
1.61136e-07
0.0001024
1.13459e-05
0.000102439
2.04018e-05
9.79296e-05
2.18268e-05
8.63867e-05
1.53702e-05
7.5216e-05
2.79006e-06
6.54326e-05
7.94493e-06
3.20817e-05
1.62888e-05
6.93439e-06
1.42307e-05
1.17602e-05
3.76992e-06
2.80022e-05
-2.24831e-05
6.72395e-05
-5.48603e-05
8.44967e-05
-4.93564e-05
0.000114469
-2.37848e-05
0.000154382
-5.23927e-06
0.000181908
0.000191325
8.73604e-06
0.000180901
3.04675e-05
0.00015968
4.68153e-05
0.000132237
4.23927e-05
0.000105541
2.5375e-06
0.000101929
-3.0259e-05
7.67289e-05
-4.51495e-05
2.86106e-05
-3.23868e-05
1.44296e-06
-1.24082e-05
-4.65226e-06
5.78996e-06
1.56566e-05
9.99837e-06
5.16852e-05
4.65597e-07
7.01077e-05
-5.88547e-06
7.45348e-05
-5.0471e-06
7.64405e-05
-2.65215e-07
7.65951e-05
4.49172e-06
7.6616e-05
5.01549e-06
7.63471e-05
-1.83114e-06
7.46048e-05
-1.15649e-05
6.94814e-05
-5.49072e-06
4.93173e-05
1.27503e-05
1.1788e-05
3.45267e-05
-6.42261e-06
4.72051e-05
1.85162e-06
2.91331e-05
3.0024e-05
-3.25267e-06
8.00144e-05
-4.29212e-05
0.00010082
-4.60131e-05
0.000105329
-2.94849e-05
0.000132831
-9.142e-06
0.000158647
0.000178999
1.1871e-05
0.000150982
1.89766e-05
0.000133661
1.44516e-05
0.000116994
-6.84003e-06
0.00010898
-2.81033e-05
0.000112855
-4.61494e-05
8.43752e-05
-5.84026e-05
2.91051e-05
-5.34761e-05
-7.42633e-06
-3.40585e-05
-2.12137e-05
-1.15497e-05
-6.06374e-06
8.12854e-06
2.9908e-05
9.43135e-06
6.13892e-05
4.52747e-06
6.96084e-05
1.07927e-06
6.85546e-05
-1.02305e-06
6.6418e-05
-3.00669e-06
6.64078e-05
-6.20977e-06
6.84587e-05
-1.06901e-05
6.95496e-05
-8.41336e-06
6.01377e-05
1.30472e-05
2.63541e-05
3.4517e-05
-8.78641e-06
5.35512e-05
-2.2024e-05
5.80391e-05
-7.10544e-06
4.36325e-05
3.14472e-05
2.76116e-05
8.64769e-05
6.67418e-06
0.000111616
-1.37158e-05
0.000108015
-1.79478e-05
0.000117254
-1.19105e-05
0.000133447
0.000149112
-2.32036e-07
0.000136663
-1.11922e-05
0.00013159
-2.59755e-05
0.000121312
-3.65774e-05
0.000113426
-3.49664e-05
0.000109359
-3.68521e-05
8.29085e-05
-4.74785e-05
3.10128e-05
-5.04782e-05
-1.26969e-05
-4.02406e-05
-3.17367e-05
-2.15463e-05
-2.09762e-05
-5.53963e-06
1.73107e-05
1.40998e-06
5.5021e-05
1.41259e-06
6.90719e-05
2.19331e-07
6.89481e-05
-8.7613e-07
6.65902e-05
-1.83568e-06
6.64641e-05
-2.77756e-06
6.86331e-05
-2.30552e-06
6.85885e-05
5.54101e-06
5.30364e-05
2.25935e-05
1.29655e-05
4.11295e-05
-2.35312e-05
5.00006e-05
-3.19706e-05
4.54905e-05
-1.12935e-05
3.55038e-05
3.33642e-05
3.49616e-05
8.4044e-05
3.64287e-05
0.000108306
2.61472e-05
0.000112251
1.21378e-05
0.000121104
9.25021e-07
0.000131962
0.000135768
-1.26178e-05
0.000145063
-2.34591e-05
0.000139142
-2.93157e-05
0.000125247
-3.02712e-05
0.000113559
-2.62035e-05
0.00010462
-2.55118e-05
8.03142e-05
-3.44879e-05
3.37949e-05
-4.09348e-05
-1.34627e-05
-3.73725e-05
-3.63855e-05
-2.5255e-05
-2.94532e-05
-1.32095e-05
9.22416e-06
-5.29252e-06
4.87403e-05
-2.60118e-06
6.7e-05
-1.47514e-06
6.83465e-05
-5.38205e-07
6.62545e-05
4.96338e-07
6.60349e-05
1.76875e-06
6.78664e-05
4.85387e-06
6.61457e-05
1.32623e-05
4.6369e-05
2.54968e-05
4.74907e-06
3.72932e-05
-3.1861e-05
4.01449e-05
-3.64143e-05
3.26542e-05
-1.12326e-05
2.47177e-05
3.55408e-05
2.65059e-05
8.05599e-05
3.04774e-05
0.000103674
2.935e-05
0.000112549
2.37558e-05
0.000124849
1.29382e-05
0.000139621
0.000144637
-1.05586e-05
0.000155124
-1.78466e-05
0.00014609
-1.96213e-05
0.000126971
-1.91337e-05
0.000112893
-1.66553e-05
0.000101617
-1.63355e-05
7.87693e-05
-2.42811e-05
3.72585e-05
-3.24919e-05
-1.23895e-05
-3.24717e-05
-3.84e-05
-2.44164e-05
-3.43488e-05
-1.40121e-05
2.45457e-06
-7.88522e-06
4.41663e-05
-4.63511e-06
6.43943e-05
-2.34361e-06
6.6601e-05
-2.60805e-07
6.47451e-05
1.8743e-06
6.44739e-05
4.3051e-06
6.59796e-05
7.87545e-06
6.32426e-05
1.42211e-05
4.16367e-05
2.39932e-05
-1.48849e-06
3.15856e-05
-3.64785e-05
3.12319e-05
-3.8614e-05
2.28675e-05
-1.01107e-05
1.61472e-05
3.8235e-05
1.72657e-05
7.83295e-05
1.97914e-05
0.00010063
2.00186e-05
0.000112101
1.813e-05
0.000126669
1.07526e-05
0.000146666
0.000154935
-6.00172e-06
0.000161127
-8.74124e-06
0.000149016
-9.20934e-06
0.000127632
-9.8369e-06
0.00011335
-9.12133e-06
0.000100447
-8.58601e-06
7.74343e-05
-1.33784e-05
3.92192e-05
-2.23977e-05
-9.62172e-06
-2.56103e-05
-3.77568e-05
-2.06697e-05
-3.64076e-05
-1.34338e-05
-1.6204e-06
-8.71587e-06
4.08103e-05
-5.4008e-06
6.15832e-05
-2.6436e-06
6.42476e-05
-9.81618e-08
6.26177e-05
2.46188e-06
6.23294e-05
5.31719e-06
6.35305e-05
8.82507e-06
6.02576e-05
1.36029e-05
3.82724e-05
2.00906e-05
-4.87159e-06
2.43143e-05
-3.80034e-05
2.05973e-05
-3.79257e-05
1.22889e-05
-7.83669e-06
8.60866e-06
3.94482e-05
9.73645e-06
7.64681e-05
1.06269e-05
9.93014e-05
9.90994e-06
0.000112626
9.31229e-06
0.000127428
6.48266e-06
0.000149665
0.000161371
-3.8165e-07
0.000161914
-8.5371e-07
0.000149883
-2.40727e-06
0.000129308
-4.20984e-06
0.000114935
-4.06016e-06
9.99713e-05
-2.97393e-06
7.58863e-05
-5.54193e-06
4.01442e-05
-1.49089e-05
-5.35589e-06
-1.93252e-05
-3.63633e-05
-1.68858e-05
-3.62574e-05
-1.23008e-05
-3.43536e-06
-8.54301e-06
3.82949e-05
-5.39127e-06
5.88648e-05
-2.60673e-06
6.17801e-05
-2.80431e-08
6.03747e-05
2.54248e-06
6.00898e-05
5.3533e-06
6.10353e-05
8.55541e-06
5.75007e-05
1.22257e-05
3.58781e-05
1.63061e-05
-6.17324e-06
1.81051e-05
-3.74453e-05
1.32103e-05
-3.63254e-05
4.79331e-06
-4.11462e-06
2.99819e-06
3.98206e-05
4.53703e-06
7.45266e-05
4.96307e-06
9.85869e-05
3.28828e-06
0.000114092
1.78853e-06
0.000129026
1.31068e-06
0.000150502
0.000162982
4.04582e-06
0.000158586
3.31017e-06
0.000150946
4.14465e-07
0.000132148
-1.43873e-06
0.000116595
-7.44885e-07
9.91471e-05
1.04518e-06
7.3878e-05
1.90938e-08
4.02766e-05
-8.14147e-06
-1.00387e-06
-1.39295e-05
-3.35691e-05
-1.35366e-05
-3.44145e-05
-1.05987e-05
-3.90585e-06
-7.56699e-06
3.64125e-05
-4.80865e-06
5.65053e-05
-2.31839e-06
5.95714e-05
-1.45893e-08
5.83675e-05
2.2663e-06
5.80999e-05
4.73081e-06
5.88448e-05
7.44371e-06
5.51851e-05
1.02787e-05
3.41927e-05
1.28339e-05
-6.25852e-06
1.27855e-05
-3.53267e-05
6.75364e-06
-3.33454e-05
-5.34006e-07
-3.05692e-07
-1.05944e-06
3.95546e-05
9.73147e-07
7.22967e-05
1.9139e-06
9.75386e-05
2.77704e-07
0.00011555
-2.45225e-06
0.000131695
-3.143e-06
0.000151494
0.000160476
4.75255e-06
0.000154462
3.7895e-06
0.000152059
9.91282e-07
0.000134803
7.60463e-08
0.000117397
1.80058e-06
9.74383e-05
4.32728e-06
7.12988e-05
4.38376e-06
3.97057e-05
-2.3266e-06
2.86467e-06
-9.04793e-06
-2.93949e-05
-1.01507e-05
-3.12669e-05
-8.2659e-06
-3.51159e-06
-5.9949e-06
3.52487e-05
-3.83913e-06
5.47461e-05
-1.85521e-06
5.78608e-05
-3.45219e-08
5.68215e-05
1.76268e-06
5.65707e-05
3.70712e-06
5.71612e-05
5.78768e-06
5.3488e-05
7.82293e-06
3.3231e-05
9.37636e-06
-5.55835e-06
7.93897e-06
-3.19869e-05
1.25045e-06
-2.91895e-05
-4.7757e-06
3.11317e-06
-4.48558e-06
3.87921e-05
-1.90581e-06
6.96502e-05
-6.47733e-08
9.56998e-05
-7.52404e-07
0.000116132
-3.48088e-06
0.000134278
-4.14874e-06
0.000152328
0.000156932
1.67102e-06
0.000153141
2.58843e-06
0.000151277
9.70187e-07
0.000136289
1.40746e-06
0.000116943
4.20244e-06
9.47641e-05
7.29443e-06
6.82631e-05
7.9704e-06
3.87579e-05
2.68832e-06
6.09573e-06
-4.43494e-06
-2.44672e-05
-6.52979e-06
-2.74324e-05
-5.7229e-06
-2.24326e-06
-4.37518e-06
3.4957e-05
-2.81281e-06
5.35844e-05
-1.35657e-06
5.66738e-05
-6.24939e-08
5.57867e-05
1.21347e-06
5.55501e-05
2.62755e-06
5.60071e-05
4.08925e-06
5.24131e-05
5.21528e-06
3.31129e-05
5.73137e-06
-4.06143e-06
3.38468e-06
-2.79785e-05
-3.6392e-06
-2.42667e-05
-8.48304e-06
6.06216e-06
-7.74717e-06
3.77865e-05
-4.66655e-06
6.66171e-05
-1.77762e-06
9.29296e-05
-1.11741e-06
0.00011546
-2.61002e-06
0.000135627
-1.3103e-06
0.000151216
0.00015597
-2.09371e-06
0.000155309
4.96573e-07
0.000149004
8.13981e-07
0.000136006
3.03404e-06
0.000114879
6.86614e-06
9.11707e-05
1.03147e-05
6.49636e-05
1.12563e-05
3.76863e-05
7.16448e-06
8.8239e-06
5.32208e-08
-1.91038e-05
-2.78286e-06
-2.31115e-05
-3.49394e-06
7.93094e-08
-3.36729e-06
3.57925e-05
-2.11512e-06
5.27548e-05
-9.76998e-07
5.58152e-05
-8.01395e-08
5.51517e-05
7.97425e-07
5.49349e-05
1.87703e-06
5.52099e-05
2.93844e-06
5.17714e-05
2.88856e-06
3.41025e-05
1.96558e-06
-1.54843e-06
-1.01697e-06
-2.35146e-05
-8.13664e-06
-1.88457e-05
-1.20306e-05
8.67215e-06
-1.10504e-05
3.66944e-05
-7.5928e-06
6.33174e-05
-3.65949e-06
8.92553e-05
-1.25677e-06
0.000113242
-6.66656e-07
0.000135096
2.22854e-06
0.000148673
0.000158263
-4.88709e-06
0.000160075
-1.59765e-06
0.000146149
1.41517e-06
0.000133287
5.37527e-06
0.000111302
9.95252e-06
8.70095e-05
1.35497e-05
6.16656e-05
1.45872e-05
3.67089e-05
1.09945e-05
1.16288e-05
4.23035e-06
-1.35611e-05
6.27937e-07
-1.82421e-05
-1.20526e-06
2.93021e-06
-3.48109e-06
3.89024e-05
-1.91403e-06
5.1621e-05
-7.46641e-07
5.49359e-05
-7.72975e-08
5.47517e-05
5.75053e-07
5.45551e-05
1.67405e-06
5.44129e-05
2.88813e-06
5.10041e-05
5.50957e-07
3.72748e-05
-1.48286e-06
1.51568e-06
-5.20539e-06
-1.85423e-05
-1.2046e-05
-1.32044e-05
-1.55564e-05
1.1461e-05
-1.45307e-05
3.57632e-05
-1.0913e-05
6.00296e-05
-6.22131e-06
8.50163e-05
-2.01484e-06
0.000109467
1.44089e-06
0.000132005
4.92756e-06
0.000145639
0.000163066
-6.48009e-06
0.000166316
-2.69441e-06
0.000142887
2.71219e-06
0.000128471
8.14519e-06
0.000106464
1.32288e-05
8.2491e-05
1.692e-05
5.84144e-05
1.82212e-05
3.56463e-05
1.3731e-05
1.57362e-05
7.90663e-06
-8.44262e-06
2.83525e-06
-1.22688e-05
-2.82503e-07
6.68661e-06
-2.52051e-06
4.17875e-05
-1.02885e-06
5.05472e-05
-2.38967e-07
5.44546e-05
-4.00573e-08
5.4841e-05
1.88368e-07
5.46194e-05
9.81321e-07
5.39448e-05
1.71061e-06
5.07196e-05
-4.53321e-07
4.00886e-05
-3.75712e-06
5.43474e-06
-8.95311e-06
-1.247e-05
-1.47934e-05
-8.05129e-06
-1.91441e-05
1.55083e-05
-1.79574e-05
3.4853e-05
-1.42535e-05
5.68011e-05
-9.08342e-06
8.04553e-05
-3.40447e-06
0.000104439
2.41985e-06
0.000126843
6.31376e-06
0.000142291
0.000169148
-6.40541e-06
0.000172473
-1.91954e-06
0.000139042
4.88559e-06
0.000122466
1.11368e-05
0.000101001
1.61895e-05
7.81369e-05
1.92951e-05
5.58464e-05
1.98944e-05
3.53726e-05
1.59951e-05
1.95493e-05
1.05516e-05
-3.24846e-06
4.20383e-06
-5.34097e-06
2.36508e-07
1.09681e-05
4.79354e-07
4.20805e-05
8.38406e-07
5.05914e-05
5.88503e-07
5.50389e-05
2.54831e-08
5.57137e-05
-3.41515e-07
5.52994e-05
-7.16466e-08
5.40235e-05
-1.93893e-06
5.30345e-05
-1.19696e-06
3.98343e-05
-5.17548e-06
9.66171e-06
-1.16383e-05
-5.48268e-06
-1.70157e-05
-2.89357e-06
-2.0663e-05
1.91428e-05
-2.04426e-05
3.5006e-05
-1.72237e-05
5.41539e-05
-1.20847e-05
7.60439e-05
-5.6939e-06
9.88623e-05
1.27703e-06
0.000120696
5.81876e-06
0.000138406
0.000174764
-4.28562e-06
0.000176685
8.46874e-07
0.000134682
8.07262e-06
0.000116142
1.44607e-05
9.55146e-05
1.92199e-05
7.41771e-05
2.14126e-05
5.42876e-05
2.04678e-05
3.67285e-05
1.85074e-05
2.16784e-05
1.25887e-05
2.66836e-06
5.76472e-06
1.91436e-06
1.62945e-06
1.52262e-05
3.4076e-06
4.08358e-05
2.44932e-06
5.19487e-05
1.16027e-06
5.67056e-05
-2.79975e-07
5.75071e-05
-1.70632e-06
5.70769e-05
-2.96007e-06
5.5651e-05
-3.69289e-06
5.42428e-05
-2.14472e-06
3.87736e-05
-6.5751e-06
1.41689e-05
-1.35384e-05
1.85833e-06
-1.92779e-05
2.84184e-06
-2.05668e-05
2.06209e-05
-2.30636e-05
3.79925e-05
-2.02563e-05
5.20256e-05
-1.53749e-05
7.19851e-05
-8.97029e-06
9.33652e-05
-1.80365e-06
0.000114426
3.267e-06
0.000134112
0.000178062
-6.12645e-08
0.000177153
5.29586e-06
0.000130289
1.21156e-05
0.000110326
1.79719e-05
9.06516e-05
2.21509e-05
7.08789e-05
2.35984e-05
5.35728e-05
2.11942e-05
3.96534e-05
1.99517e-05
2.32065e-05
1.38477e-05
8.83969e-06
6.73215e-06
9.22729e-06
2.05633e-06
1.99381e-05
3.17184e-06
4.02089e-05
2.29284e-06
5.33397e-05
1.02088e-06
5.84608e-05
-5.96683e-07
5.95656e-05
-2.37464e-06
5.92919e-05
-4.05142e-06
5.77934e-05
-2.54343e-06
5.32966e-05
-2.20851e-06
3.89022e-05
-7.39682e-06
1.93578e-05
-1.47178e-05
9.31728e-06
-2.07919e-05
8.98445e-06
-2.19794e-05
2.21256e-05
-2.40518e-05
4.06957e-05
-2.25213e-05
5.1231e-05
-1.87195e-05
6.90732e-05
-1.30502e-05
8.8689e-05
-6.42389e-06
0.000108796
-1.198e-06
0.000129866
0.000177416
5.2963e-06
0.000173015
1.07552e-05
0.00012612
1.66523e-05
0.000105585
2.16216e-05
8.67707e-05
2.50835e-05
6.83801e-05
2.36394e-05
5.5854e-05
2.26588e-05
4.12499e-05
2.10434e-05
2.51811e-05
1.46545e-05
1.53562e-05
7.20873e-06
1.67211e-05
1.60724e-06
2.55503e-05
7.28473e-07
4.15997e-05
8.38405e-07
5.3952e-05
5.035e-07
5.94675e-05
-3.6542e-07
6.10559e-05
-1.26417e-06
6.08115e-05
-1.63715e-06
5.88373e-05
-8.82395e-07
5.32775e-05
-2.07619e-06
4.05624e-05
-7.91056e-06
2.51512e-05
-1.54672e-05
1.68673e-05
-2.18921e-05
1.5537e-05
-2.39032e-05
2.45393e-05
-2.28705e-05
4.03453e-05
-2.46659e-05
5.38232e-05
-2.23219e-05
6.77067e-05
-1.76292e-05
8.50942e-05
-1.18968e-05
0.000104231
-6.39986e-06
0.000125707
0.000172303
1.00507e-05
0.000164945
1.61031e-05
0.000121886
2.07431e-05
0.000102337
2.40446e-05
8.46727e-05
2.57319e-05
6.77201e-05
2.44105e-05
5.81562e-05
2.51349e-05
4.12587e-05
2.23041e-05
2.8448e-05
1.54583e-05
2.23117e-05
7.71694e-06
2.44359e-05
1.47825e-06
3.17838e-05
-6.33671e-07
4.42568e-05
-5.15802e-07
5.47081e-05
-1.85674e-07
5.99979e-05
-1.84426e-07
6.18648e-05
-2.16389e-07
6.16587e-05
4.18826e-08
5.94245e-05
2.86473e-07
5.38599e-05
-1.98749e-06
4.33173e-05
-8.28603e-06
3.14164e-05
-1.5982e-05
2.45199e-05
-2.27159e-05
2.23819e-05
-2.55381e-05
2.78128e-05
-2.4089e-05
3.96279e-05
-2.46176e-05
5.52739e-05
-2.58541e-05
7.00585e-05
-2.20048e-05
8.24801e-05
-1.70693e-05
0.000100711
-1.06829e-05
0.000121205
0.000163663
1.31532e-05
0.000154529
2.04224e-05
0.000117102
2.37381e-05
0.000100731
2.54882e-05
8.4271e-05
2.37551e-05
7.05496e-05
2.65984e-05
5.63965e-05
2.71993e-05
4.15152e-05
2.34118e-05
3.27456e-05
1.61026e-05
2.96978e-05
8.15004e-06
3.23058e-05
1.56491e-06
3.83376e-05
-1.37413e-06
4.77286e-05
-1.59497e-06
5.59239e-05
-8.98731e-07
6.0409e-05
-7.76761e-08
6.21004e-05
7.28446e-07
6.18644e-05
1.37707e-06
5.97894e-05
1.11862e-06
5.50331e-05
-1.98077e-06
4.6895e-05
-8.59462e-06
3.79896e-05
-1.64499e-05
3.22949e-05
-2.36684e-05
2.96677e-05
-2.75674e-05
3.21995e-05
-2.71455e-05
4.00343e-05
-2.45054e-05
5.36913e-05
-2.58507e-05
7.26725e-05
-2.41925e-05
8.21757e-05
-2.07926e-05
9.90274e-05
-1.31586e-05
0.000116102
0.000153245
1.55885e-05
0.000142389
2.4438e-05
0.000111427
2.46412e-05
0.000102604
2.39228e-05
8.64279e-05
2.40923e-05
7.16679e-05
2.80168e-05
5.37632e-05
2.80782e-05
4.25067e-05
2.36065e-05
3.77901e-05
1.61534e-05
3.71941e-05
8.36568e-06
3.99672e-05
1.92822e-06
4.47156e-05
-1.29753e-06
5.14185e-05
-1.75758e-06
5.74113e-05
-9.39072e-07
6.0978e-05
2.45403e-07
6.24855e-05
1.35832e-06
6.23343e-05
2.01552e-06
6.05497e-05
1.35566e-06
5.67333e-05
-2.11044e-06
5.07924e-05
-8.63506e-06
4.44252e-05
-1.63931e-05
3.99074e-05
-2.38745e-05
3.71541e-05
-2.86218e-05
3.74612e-05
-2.91548e-05
4.15741e-05
-2.60793e-05
5.19085e-05
-2.25238e-05
7.05188e-05
-2.38529e-05
8.49201e-05
-2.39004e-05
0.000101149
-1.50985e-05
0.000110484
0.000141567
1.54333e-05
0.000131113
2.25408e-05
0.000107856
2.44362e-05
0.00010299
2.31977e-05
8.93168e-05
2.59497e-05
7.05857e-05
2.87278e-05
5.26364e-05
2.77366e-05
4.47083e-05
2.27443e-05
4.33423e-05
1.56122e-05
4.43621e-05
8.48053e-06
4.7019e-05
2.6419e-06
5.06085e-05
-5.60353e-07
5.51865e-05
-1.29519e-06
5.93144e-05
-6.83243e-07
6.19558e-05
4.49854e-07
6.3168e-05
1.54622e-06
6.30725e-05
2.04041e-06
6.16911e-05
1.09561e-06
5.88906e-05
-2.35368e-06
5.48411e-05
-8.33324e-06
5.04842e-05
-1.55415e-05
4.70251e-05
-2.27938e-05
4.43899e-05
-2.80923e-05
4.32419e-05
-2.94993e-05
4.41227e-05
-2.69274e-05
5.09686e-05
-2.31018e-05
6.8401e-05
-2.37804e-05
8.72625e-05
-2.18563e-05
0.000101526
-1.48629e-05
0.00010705
0.000130837
1.60232e-05
0.000119921
2.11584e-05
0.000106193
2.50076e-05
0.000101584
2.56325e-05
9.08337e-05
2.6892e-05
7.14906e-05
2.79492e-05
5.376e-05
2.58881e-05
4.81313e-05
2.05927e-05
4.9193e-05
1.42953e-05
5.08131e-05
8.35346e-06
5.30909e-05
3.56449e-06
5.57147e-05
7.23608e-07
5.87165e-05
-2.29414e-07
6.13882e-05
-7.7391e-08
6.32202e-05
5.45336e-07
6.4111e-05
1.13612e-06
6.40446e-05
1.19887e-06
6.30386e-05
8.68825e-08
6.11107e-05
-2.88682e-06
5.8515e-05
-7.72476e-06
5.56838e-05
-1.37172e-05
5.31926e-05
-2.00956e-05
5.09494e-05
-2.56811e-05
4.93606e-05
-2.81924e-05
4.79743e-05
-2.72307e-05
5.22028e-05
-2.55409e-05
6.89102e-05
-2.46677e-05
8.85491e-05
-2.07341e-05
0.000100085
-1.56301e-05
0.000105476
0.000120061
1.69252e-05
0.000107894
2.3909e-05
0.000102728
2.66647e-05
0.000101419
2.72261e-05
9.28382e-05
2.75743e-05
7.38234e-05
2.60592e-05
5.80583e-05
2.27713e-05
5.33056e-05
1.76838e-05
5.48086e-05
1.26714e-05
5.61607e-05
8.2461e-06
5.78997e-05
4.69455e-06
5.97559e-05
2.35367e-06
6.16908e-05
1.1636e-06
6.33872e-05
7.04716e-07
6.46201e-05
5.82524e-07
6.52458e-05
4.27689e-07
6.52009e-05
-1.1883e-07
6.44963e-05
-1.44863e-06
6.32045e-05
-3.87192e-06
6.15481e-05
-7.4061e-06
5.97235e-05
-1.17802e-05
5.80012e-05
-1.67343e-05
5.63253e-05
-2.19396e-05
5.5075e-05
-2.55612e-05
5.34046e-05
-2.71872e-05
5.67402e-05
-2.68367e-05
7.13609e-05
-2.63609e-05
9.06965e-05
-2.37274e-05
0.000100083
-1.67293e-05
0.000102063
0.000108326
1.52067e-05
9.6813e-05
2.34592e-05
9.77481e-05
2.79392e-05
9.94611e-05
2.92028e-05
9.37792e-05
2.8896e-05
7.71975e-05
2.45394e-05
6.50613e-05
1.98914e-05
5.94723e-05
1.55511e-05
5.94623e-05
1.17048e-05
6.03715e-05
8.44246e-06
6.15761e-05
5.75544e-06
6.28469e-05
3.73418e-06
6.40888e-05
2.32043e-06
6.51553e-05
1.34436e-06
6.59446e-05
5.88817e-07
6.63486e-05
-1.88959e-07