/*--------------------------------*- C++ -*----------------------------------*\
| =========                 |                                                 |
| \\      /  F ield         | OpenFOAM: The Open Source CFD Toolbox           |
|  \\    /   O peration     | Version:  v1606+                                |
|   \\  /    A nd           | Web:      www.OpenFOAM.com                      |
|    \\/     M anipulation  |                                                 |
\*---------------------------------------------------------------------------*/
FoamFile
{
    version     2.0;
    format      ascii;
    class       volScalarField;
    location    "1.9";
    object      epsilon;
}
// * * * * * * * * * * * * * * * * * * * * * * * * * * * * * * * * * * * * * //

dimensions      [0 2 -3 0 0 0 0];

internalField   nonuniform List<scalar> 
11640
(
0.00184843271254
0.00215292179159
0.00234403798165
0.00244151001901
0.00248539937317
0.00249969045364
0.00249891295929
0.00249321491775
0.00248902303428
0.00248486598835
0.00248162533253
0.00248144748142
0.00248778377096
0.00250069022473
0.00252182525297
0.00253567244518
0.00250822961022
0.00240971579506
0.00220449474189
0.00188044906748
0.0021538433798
0.00406216779402
0.0051859239928
0.00577383098897
0.00605955263057
0.00617458829334
0.00618663786933
0.00615134761119
0.00611589421012
0.00608935267674
0.006070405241
0.006086229445
0.00614204256871
0.00619928744404
0.00621688497346
0.00613814620973
0.00588747311282
0.00529410660683
0.00412310479932
0.00217214089923
0.00234740714624
0.00519778324118
0.00696044520729
0.00795465177404
0.00844761629104
0.00859918743595
0.00854404495284
0.00841785643501
0.00830936800733
0.00822971992865
0.00818257709116
0.0083197138379
0.00852292639545
0.00872511488363
0.00883033849742
0.00868049176251
0.00814278083679
0.00710560286024
0.00527740495637
0.00235809162592
0.00244946611155
0.00581194890667
0.00799935996761
0.00926023437348
0.00982998732888
0.00990144647975
0.00967690798514
0.00936765343048
0.00912704912499
0.00896121072707
0.00891655190387
0.00923739258168
0.00962731530524
0.0100460698894
0.0103551423649
0.0102899382263
0.00963641878512
0.00821980840472
0.00589635526361
0.00244873983252
0.00250860926659
0.00614500781009
0.00857643281023
0.00994353331898
0.0104570094184
0.0103041217352
0.0097552615577
0.0091366730821
0.00870965330364
0.00844190599864
0.00850203385369
0.0089443221843
0.00953356491502
0.0102722951407
0.010927904735
0.011089877496
0.0104965918299
0.00892829205271
0.00625145056903
0.00248694057881
0.00255132213164
0.00631231725974
0.00883600946022
0.0101729385804
0.0104818647056
0.00992331176029
0.00883708354027
0.00777617696064
0.00714979322103
0.00680477510455
0.00688738320636
0.00737323777698
0.00816623120024
0.0094152007756
0.0106548359701
0.0112226930323
0.0108409159227
0.00929322274772
0.006473224643
0.0025152588641
0.00257470128207
0.00636226125006
0.00886833487899
0.010083498032
0.0100843088097
0.00896397498742
0.00714471338324
0.00549715155123
0.00477723471495
0.00448356854716
0.00470888722581
0.00505111292549
0.00586244594272
0.00770536669984
0.00978129913349
0.0109080031462
0.0108347385909
0.00940422031595
0.00657094409678
0.00254455432099
0.0025778742761
0.0063420911056
0.00878929816927
0.00986724486864
0.00959696564289
0.00803795186892
0.00564576209266
0.00392191798041
0.00326782909262
0.00303192407342
0.0029955100987
0.00317595522626
0.0038571108334
0.00595705388222
0.00876758941028
0.0104085943028
0.0106374557081
0.00935565886237
0.00657698948261
0.00256491324435
0.00257575641327
0.00632129492564
0.00873418080619
0.00973632899622
0.00933148061006
0.007576367322
0.00504355162142
0.00335446323161
0.00272771464547
0.00251745816121
0.00246724217933
0.00257652807041
0.00315794046315
0.00513705185725
0.00816593825005
0.0100738121954
0.0104814595099
0.0092950129799
0.00656270359955
0.00257870124248
0.00257676424099
0.00633182794483
0.00875683348704
0.00976396333073
0.00935920089962
0.00759053658165
0.00504400990556
0.00333109120002
0.00270476721784
0.00248590590524
0.00241811390457
0.00252028766992
0.00309455857258
0.0050556903768
0.00811131609189
0.0100590263879
0.0104869656375
0.00930291158472
0.00656770829277
0.00259188850804
0.002582692691
0.00638004440341
0.00886751433546
0.00996662567517
0.00969184563848
0.00807781388006
0.00563011536169
0.00382417482362
0.00315204995547
0.00288840733446
0.00280537663904
0.00292152132026
0.00353609405453
0.00561110702271
0.00859015716411
0.0103936742985
0.0106847556214
0.00940303473918
0.00660519822048
0.00260476142445
0.00258504865416
0.00643919386294
0.00902054537738
0.0102798633264
0.0102884579031
0.00913440347475
0.00714775986212
0.00540882290382
0.00467201371283
0.00433547296121
0.00416385474722
0.00450951752215
0.0053727439161
0.00743673866541
0.00977300142287
0.0110896089027
0.0110594704014
0.00957394495088
0.0066590562343
0.00261253886047
0.00257747297635
0.00646821852335
0.00914359750509
0.0105788532289
0.0109079164945
0.0102781278863
0.00901544952223
0.00773173170246
0.00707876246231
0.00676281669367
0.00689951463365
0.00747272194768
0.00836459690026
0.00981702813683
0.011252934893
0.0119171406912
0.0114618338396
0.00972400460726
0.00668209593093
0.00260653724747
0.00256535446552
0.00645180669081
0.00917681144819
0.0107621156341
0.0113870805987
0.0112470355822
0.0106329231646
0.00992720441049
0.00948841432506
0.0092644594373
0.00946968724707
0.0100376594595
0.0107695815861
0.0116721155536
0.0124038423888
0.0125060291236
0.0116739016234
0.00973262735922
0.0066412744477
0.00259038851423
0.00255786124863
0.00640206527442
0.00908143854135
0.0107436038381
0.0115738373972
0.0117784710289
0.011595097736
0.0112597668519
0.0110232159654
0.0109111685341
0.011198167697
0.0116302544691
0.0121293100369
0.0126321724336
0.0128940170587
0.0126109708179
0.0115408343372
0.00953978602274
0.00653998819062
0.00257525784557
0.00254321892819
0.00627571317916
0.00881101328858
0.010401823022
0.0113072958262
0.0117021830739
0.01176998198
0.0116773637685
0.0115769439713
0.0115714381205
0.0117920308698
0.0120578379845
0.012340999719
0.0125710416255
0.0125591223697
0.0120857012484
0.0109795132575
0.00912710981057
0.00636395086026
0.00255156924115
0.00249598524094
0.00595917261036
0.00825628235971
0.00963825238946
0.0104299756012
0.0108354753662
0.0109843587895
0.0109880627509
0.0109613782347
0.0110459391542
0.0111658710484
0.0112927638632
0.0114209074563
0.0114887298026
0.0113676924833
0.010907415754
0.00998559720107
0.0084511937209
0.00602071238652
0.00249942182815
0.00239048507436
0.00529907434993
0.00717360016106
0.00826905147625
0.00885523967483
0.00913949858586
0.00925068605614
0.00928014492019
0.00932151058855
0.00936757819789
0.00941190645649
0.00946124302198
0.0095095057072
0.00951965101868
0.00941741520725
0.0091035622276
0.00846093349941
0.00730175879246
0.00534255048368
0.00238809032248
0.0021865077216
0.0041038887078
0.00527948632837
0.00593713618157
0.00627412500456
0.0064249278096
0.0064791539773
0.00650342894507
0.00652218545506
0.00653950688719
0.00655738586535
0.00657814292714
0.00659842989742
0.00660152766958
0.00655451444526
0.00639572263598
0.00603694152577
0.00534621432547
0.0041209140478
0.00217950007617
0.00187067123447
0.00216155842467
0.00235057467298
0.00244956351946
0.00249567710395
0.00251439815548
0.00252228872923
0.00253164260938
0.00254258667676
0.00255366281214
0.00256378413438
0.00257124640501
0.00257746577749
0.00257847098368
0.00257329656287
0.0025508182908
0.00249660257611
0.00238477588492
0.00217791355056
0.00186518131399
0.0024746103489
0.00341534827731
0.00402882827553
0.00434653522421
0.00447993735104
0.00451713927497
0.004527228515
0.00454181694679
0.00456687987244
0.00459497806115
0.00462107443556
0.00463541607201
0.00464660701804
0.00466342376268
0.00467276010273
0.00463950221602
0.0044923836242
0.00414212623052
0.00348776912173
0.00251513372254
0.00341641465032
0.00427310434849
0.0050518764302
0.00548588413126
0.00568446245901
0.00575243496617
0.00575471179442
0.00573459237868
0.00571627036713
0.00570664258766
0.00570573171865
0.00571773728881
0.00574483467253
0.00577203388902
0.00577263245681
0.00570291128119
0.00549643232081
0.00505283759905
0.00427025046795
0.00342425077199
0.00403698352324
0.00506091141877
0.00604356165022
0.00662432236397
0.00689768724262
0.00696405526828
0.00691965628288
0.00684412617972
0.00678032829754
0.00674014939157
0.00672992384202
0.00678069754813
0.006867927132
0.00695990830396
0.00700003360704
0.00690266045368
0.00659409198644
0.00599635217693
0.00502816373356
0.0040513377543
0.00435411042731
0.00550746410798
0.00664648255863
0.00733283747402
0.00762696395828
0.00764024411399
0.00750050485005
0.00732975114983
0.00719727964311
0.00712260629789
0.00712303253354
0.0072465563178
0.00742949891812
0.00763495393542
0.00777935748759
0.00772698722852
0.00736460839436
0.00662396662192
0.00548272206069
0.00439459932387
0.00447045101586
0.00571848140461
0.00695540528743
0.00768347027649
0.00793557141581
0.00782592063965
0.00752104557034
0.00720573598756
0.00698254258229
0.00687766739849
0.00691518841712
0.00710755034835
0.00741075111356
0.00777745003322
0.00809351486746
0.00815775290177
0.00782246978558
0.00700926166509
0.00573285256514
0.00454931012529
0.0044804880072
0.00578866908736
0.00706564235953
0.00777433141192
0.00791593743959
0.00759738296552
0.00702664295067
0.00649596015237
0.00615686329073
0.00603904361932
0.00610817960042
0.00635292339827
0.00681187168953
0.00740297365704
0.00798791277595
0.00825003884884
0.0080151090412
0.00720367908856
0.00585803370051
0.00459976750031
0.00445821182919
0.00578468547265
0.00705481037183
0.00770048341821
0.00768383031817
0.00708059869144
0.00612321130112
0.00525795789757
0.00478821846589
0.00471203835919
0.00480211167583
0.00504325564433
0.0056917388002
0.00661000110035
0.00757206685047
0.00809900277299
0.00801523144642
0.00725919490825
0.00590051225324
0.00459888253934
0.00443935698872
0.00575378711857
0.00699429792791
0.00756992372151
0.00740739956503
0.00654428545076
0.00520803251924
0.004101386293
0.00354308125704
0.00347196982543
0.00349756843223
0.00365601615082
0.00436881376581
0.00567915853904
0.00705795995153
0.00784539555775
0.00791725145737
0.00723652345231
0.00589751373456
0.00458216829649
0.00443501193139
0.00573109402679
0.00694880447239
0.00748201950698
0.00723505341055
0.00621123055895
0.00463000765391
0.00336144607968
0.00278473056153
0.00270220154993
0.00270540755897
0.00279794188703
0.00344944042217
0.00495332677766
0.00667011416072
0.00765865597391
0.00784047900335
0.0072122119579
0.00588994532768
0.00456933324546
0.00444620875467
0.00573206123076
0.00694834292543
0.00748402814516
0.00723825149294
0.00620699544479
0.00460959196617
0.00331149784877
0.00271469889989
0.00261022122187
0.00259766104207
0.00266671028448
0.00330321818032
0.00483809472302
0.00662244428495
0.00765524323529
0.00785625017741
0.00722991351988
0.00589915168102
0.00456399743105
0.00447525426884
0.00575923713601
0.00699718841773
0.00758131445113
0.00742047488458
0.00652221004347
0.00511258998598
0.00389790990192
0.00326611461365
0.00313253558105
0.00311372193942
0.00319318252992
0.00384780955214
0.00533324173744
0.00694512197426
0.00786282837962
0.00798424327015
0.00730123588968
0.00593170524235
0.00457205142613
0.00452577290082
0.00580319813379
0.00707395138155
0.00774012554698
0.00773858887681
0.00710682709132
0.00602621492026
0.00505498109494
0.00449674808712
0.00434896335936
0.00436420307854
0.00454894078357
0.00523199800232
0.00640594513696
0.00758505838165
0.00824308665624
0.00819773288861
0.00740954441091
0.00597922909844
0.00459311829217
0.00459927822312
0.0058511326731
0.00714622118096
0.00789846170071
0.00807576544066
0.00774835018194
0.00709778780278
0.00644355365386
0.00606051149169
0.00594201169117
0.0060384233634
0.00634808080161
0.00689728745778
0.00763540465213
0.00834478550437
0.00867209164437
0.00841341749307
0.00750379083525
0.0060179625578
0.00462163017721
0.00467673707622
0.00588500646122
0.00718044381389
0.0079970673477
0.00832978678433
0.00826380999664
0.00795363782283
0.00760570509411
0.00737477439154
0.00729268946086
0.00740200992421
0.00768537869829
0.00808685638442
0.00854952577672
0.0089211854677
0.00896839637773
0.00852498059448
0.00752566872611
0.00602460994197
0.00464424691195
0.00471456568374
0.00587822181986
0.0071447505826
0.00798415840061
0.00841722973884
0.00853159820988
0.0084482510414
0.0083009684558
0.00818896757342
0.00815711673033
0.00827668239753
0.00849279395486
0.00875919042501
0.0090219699256
0.00916023880818
0.00901285051878
0.00845615714123
0.00743871347907
0.00598223601927
0.00464206589033
0.00467138524899
0.00578506738889
0.00699391243468
0.00780261179688
0.00826778591652
0.00847617273883
0.00852097933335
0.00849276537872
0.00846070160222
0.00847315883145
0.00857261117785
0.00871229257934
0.00886581861238
0.0089877527418
0.00898279116633
0.00873687212151
0.00816752999378
0.00722070011154
0.00586116220342
0.00457863265513
0.00449920638576
0.00554212716889
0.00665784689831
0.00738927068398
0.00781398165458
0.00803258827639
0.00812222593811
0.00814519453753
0.00815387183602
0.00819271093501
0.00825581263144
0.00832979137032
0.00840278643469
0.00844065307178
0.00837730472222
0.00813652441705
0.00764731927754
0.006828890623
0.00559979558819
0.00439977330492
0.0041326685565
0.00506446079388
0.00603570750699
0.00665605395935
0.00700546344147
0.00718261716268
0.00726201756594
0.00729683012614
0.00732389622754
0.0073528210971
0.0073853371917
0.00742068667043
0.00745206860713
0.00745825649583
0.00739775469889
0.0072132987889
0.00683328722993
0.00616058678634
0.00510167787218
0.00403598855754
0.00347498718224
0.00426647441925
0.00504129603922
0.00551536948155
0.00577205361611
0.00589737298293
0.00595337853964
0.00597962143048
0.00599590985983
0.00600985002826
0.00602441035586
0.00604021123911
0.00605341301678
0.00605145014478
0.00600948139111
0.00588408203736
0.00561204750056
0.00510618451062
0.00427399977518
0.00339741997519
0.00251136743375
0.00342554130067
0.00406262034756
0.00443002012637
0.00462391597964
0.00471882098693
0.00476184394704
0.00477821595494
0.00478128312815
0.00477730512648
0.00477219839275
0.00476470417923
0.00475696135261
0.00473926250092
0.0046984204975
0.00460215463216
0.00440528188452
0.00403494864705
0.00339587700933
0.00248161488815
0.00293205069638
0.00447760651741
0.00551881661751
0.00608521667168
0.00634593886228
0.00643489827615
0.00645186408368
0.00645204527735
0.0064593300395
0.00647697764244
0.00650062847391
0.00652405410084
0.00655168848931
0.00658219899643
0.00658653594506
0.00650303190907
0.00622531363911
0.00561604956273
0.00452256022426
0.00294732532291
0.00447675261952
0.00498454773877
0.00575680267776
0.00622246678997
0.0064469049838
0.00652638966783
0.0065339653083
0.00651870955957
0.006505435762
0.00650334780458
0.00651351968389
0.00653538091399
0.00656751119269
0.00659702777783
0.00659561165885
0.00651381670871
0.00627765153283
0.00579592382726
0.0050057248621
0.00442790176377
0.00552876065365
0.0057652753425
0.00655491967773
0.00706282520638
0.00730779155772
0.00737103144653
0.00733882485557
0.00728031808398
0.00723138841823
0.00720697956425
0.00721088447532
0.00724803517189
0.00730908658751
0.00737350819437
0.00739962972034
0.0073170895535
0.00705604298443
0.00654196034681
0.00575792103649
0.00548295393719
0.00609266645595
0.00623747976514
0.00707696516556
0.00762963238147
0.0078759053414
0.0078931132723
0.00778743329024
0.00765796563464
0.00755204576835
0.00750059715217
0.00750851068723
0.00758118472514
0.00770506288743
0.00783801078955
0.00793092267046
0.00788819688893
0.00761854968959
0.00706297176497
0.00623834309921
0.00608473225187
0.00632399498951
0.0064624393461
0.00734436744087
0.00791661670808
0.0081284994048
0.00805465770829
0.00783492334573
0.0076161649483
0.00742261273882
0.00734152130532
0.00736552312314
0.00749509388714
0.00772142049056
0.00794086877299
0.00813594965948
0.008171680858
0.00793464787193
0.00736116181629
0.00649449165955
0.00637248471022
0.00637092193769
0.0065333796026
0.00743483328614
0.00799163074478
0.00812392104036
0.0079086409406
0.00754481428072
0.00726248796484
0.00690166513286
0.00678610547368
0.00683784183629
0.00704788897948
0.00748066735617
0.00774070641288
0.00806433089389
0.00821758033109
0.00804997309021
0.00749265187813
0.00660364872367
0.00647364022564
0.00634690588167
0.00652743963207
0.00742179201297
0.00793222096665
0.00795288476822
0.0075669667601
0.00706194360649
0.0067042500418
0.00596490106576
0.00583669301458
0.00590648440457
0.00619755064855
0.00721549295373
0.00740355127525
0.00781897827696
0.00810507467882
0.00803064695593
0.00751561622972
0.00662731797205
0.00648095015392
0.00631293230102
0.00649776902431
0.0073697079834
0.00782622432665
0.00774302830162
0.00721678602606
0.00675021066434
0.00681165458937
0.00527434525646
0.00516105834457
0.0052198378661
0.00549051780074
0.00757833835825
0.00711410158664
0.00754237325485
0.00793363103725
0.00795236647999
0.00748766759887
0.00661280198069
0.00645342291228
0.0063007743212
0.00647959352115
0.00733236401574
0.00775133378258
0.00758555394891
0.00685760435901
0.00581231621547
0.00485986180309
0.00330361372198
0.00310460194538
0.00311101799186
0.00331045662302
0.00507494564562
0.00597158089515
0.00715276751168
0.00777917997168
0.00789099989968
0.00746484973418
0.00659885327288
0.00643041644551
0.0063172922377
0.00648771091309
0.00733779009525
0.00775850170668
0.00759316118847
0.00685312823053
0.00579953023262
0.00483361803101
0.00320545354402
0.00294337729772
0.0028837439738
0.00303705184125
0.00475005036849
0.00578883326063
0.00710370808292
0.00778087607467
0.00790839366373
0.00748130336617
0.00660518402098
0.00642565346416
0.00636787937812
0.00652516463968
0.00738985909924
0.00785168548817
0.00776673824195
0.00718447850775
0.0066434471981
0.00689277767229
0.00504234757137
0.00472690724019
0.00467379988599
0.00478024864114
0.0066015325391
0.00658986476185
0.0074465689805
0.00796857314804
0.0080223014949
0.00754767319344
0.00663836009306
0.00644752591068
0.00645119425469
0.00658482712844
0.00747067169091
0.00799597438601
0.00803195615744
0.00761150800654
0.00694232474647
0.00679828232334
0.00587112977431
0.00561039991808
0.00556482650277
0.00569399607808
0.00664574869642
0.00726977002299
0.0078966258435
0.00826417466615
0.00820299106071
0.00765014529
0.00669231049921
0.00649263961231
0.00656090957716
0.00665486040514
0.00755506132402
0.00814455002196
0.00831590678919
0.00811172480978
0.00769697399108
0.00732092534299
0.00694292006345
0.00682088446779
0.00688760096794
0.00713255566215
0.00761491003068
0.00802723233678
0.00841906637966
0.00859390941975
0.00839318554023
0.00775234478533
0.00674729467091
0.0065505864757
0.00665960585947
0.0067097079756
0.00760911955766
0.00824401688489
0.00852968414432
0.00851186927375
0.00831453635723
0.00808853170537
0.0078988248543
0.00783250011801
0.00789928685934
0.00808446020989
0.00836463317574
0.00863494088652
0.00884297380545
0.00884656089329
0.00852111006058
0.0078084886567
0.00677643404678
0.00658981193346
0.00668584448737
0.0067095604704
0.00759393174189
0.00824506699345
0.00860263579963
0.00871415291876
0.00867059831484
0.00857323619761
0.00848692791164
0.00846352847433
0.00852436871128
0.00865409868461
0.00882444503855
0.00898029068078
0.00905086474207
0.0089290117296
0.00851930377725
0.00777435015626
0.00674813940119
0.00656772928814
0.00657756597373
0.00660223731131
0.00746002849385
0.00809705211391
0.00847898291825
0.00865815913117
0.00870514160846
0.00869118535419
0.00866916264153
0.00867736736248
0.00873005916547
0.00881526273975
0.00891277202753
0.00898371511888
0.00896365753585
0.00877043663108
0.00833434934231
0.00760885699438
0.00661951441819
0.00643104473492
0.0062559530379
0.00632774555361
0.00714662741353
0.00774574798405
0.00810919646962
0.00830077633023
0.00838256924264
0.00840732833684
0.00841786234309
0.00843875274363
0.00847700858882
0.0085273613094
0.0085772864189
0.00859743415133
0.0085375036756
0.00833629272653
0.00793142296849
0.00726239999434
0.00632836186073
0.00609664789654
0.00561475150808
0.00581321496202
0.0065912345025
0.00714006961487
0.0074650965943
0.00763591575782
0.00771485696991
0.00774847285985
0.00776722096721
0.00778575964109
0.0078095517506
0.00783747621923
0.00786144319947
0.00786070536022
0.00779824598777
0.00762253115019
0.0072696386982
0.0066676832563
0.00579375088807
0.00545780680098
0.0045084911936
0.0050069371728
0.00578079019857
0.00628879975611
0.0065764304513
0.00672240591194
0.00678844509721
0.00681590582971
0.00682831934399
0.0068371351795
0.00684731601741
0.00685923749799
0.0068675332297
0.00685721663477
0.00680013077852
0.00665023339518
0.00634345323838
0.00579972341736
0.00496379066878
0.00438857367833
0.00294024767575
0.00443299648121
0.00550802543533
0.00614936606795
0.00650388310853
0.00668410286068
0.00676721401528
0.0068004972588
0.006809384272
0.00680810015248
0.00680126566574
0.00679103095862
0.00677568595124
0.00674003879301
0.00665558873746
0.00646910187528
0.00610599980848
0.00545900002888
0.00438792317745
0.00292435841564
0.00315902838722
0.00516957426577
0.0065599376846
0.00734380331835
0.00772270608059
0.00785831049014
0.00787450234623
0.0078521618329
0.00783638128524
0.00783905544785
0.00785868185271
0.00789202106584
0.00793883709586
0.0079852313826
0.00798634156024
0.007855622517
0.00745918600667
0.00662982641414
0.00518492621855
0.00315575757061
0.00516706030527
0.00555277038183
0.00636849683944
0.00688333065646
0.00714199441112
0.00723791980369
0.00725103454132
0.00723654697932
0.00722357734083
0.0072242956767
0.00724123513463
0.0072727787166
0.00731464013737
0.00735076626477
0.00734840579927
0.00725023535011
0.00697510867745
0.00643421773836
0.00558215761775
0.00506313393825
0.00657018475187
0.00637657896017
0.00708055689539
0.00756223382852
0.00780195091777
0.00787133898973
0.00785219450323
0.00780754571579
0.00776911216099
0.00775584063507
0.00777108681499
0.00781353726393
0.00787590010009
0.00793419111308
0.00795344384598
0.00786811258663
0.00760796673851
0.00710692846213
0.0063846860991
0.00645927941959
0.00734926220801
0.00689380613516
0.00757038162559
0.00804976136433
0.00827188034489
0.0083004084896
0.00822864523523
0.00813633469851
0.00804810768694
0.00801222253763
0.0080315162247
0.00810207546887
0.00821618719529
0.00832144795168
0.00839108456499
0.00834395523644
0.0080988202803
0.00760619954393
0.00691793775748
0.00728260178624
0.00769288685271
0.00714649093183
0.00782136293057
0.00829667344528
0.0084856948001
0.00845145626681
0.00832179191265
0.00821039727345
0.00802166097997
0.00794674627077
0.00797300553668
0.00809947635615
0.00831911667025
0.00844428827367
0.00857366191562
0.00858595540665
0.008376698075
0.00789268498278
0.00720792895942
0.0076931540637
0.00778352531142
0.00722936897004
0.00790374143681
0.00835953113497
0.00849255790465
0.00838894022465
0.00829775085308
0.00849612448482
0.00798995558337
0.00782451473278
0.007855716483
0.0080904836839
0.00863923965146
0.0084335404286
0.00855461619295
0.0086337373563
0.00847845482396
0.00801710392695
0.00733064977106
0.00784877889723
0.00776398888865
0.00722713562889
0.00789097193022
0.00831003512822
0.00837595844445
0.00825352947907
0.00870305757483
0.0124954944318
0.0102425371728
0.00986709758031
0.00990699278245
0.0104416062564
0.0131892512929
0.00888048063066
0.00847261852745
0.00856253592013
0.00846496472808
0.00803811512198
0.00735658762993
0.00786988053221
0.00771799062047
0.00719915026182
0.00784478032293
0.00822198390235
0.00822812222421
0.00817729908161
0.0115704940428
0.013046071387
0.0085339602816
0.00845526771577
0.00840363466192
0.00801347347332
0.00734116746395
0.00783903383215
0.00769808562815
0.00718396478846
0.00781379834013
0.00815672338708
0.00807764066081
0.00775163619949
0.00937270490524
0.010083780545
0.00806348538524
0.00830974537484
0.00835151243955
0.00799451421006
0.0073269890431
0.00781251320021
0.00772028551871
0.00719850840611
0.00782579119471
0.00816973424629
0.00808823032189
0.00774030250194
0.00940599158692
0.00982877029199
0.008024568324
0.00832200611466
0.0083768213565
0.0080163745513
0.00733669236645
0.00781475139666
0.00779089909375
0.00724647416537
0.00788443321884
0.0082639940897
0.0082563894692
0.00810754407648
0.0120130596351
0.0126230902768
0.00848970214048
0.00852434368482
0.00849752015057
0.00809012316086
0.00737816905356
0.00785325191968
0.00790264919447
0.00732043938404
0.00797390210954
0.00840343582973
0.00847409691735
0.00826712114454
0.0082431534443
0.011893462027
0.00979580369462
0.00955444786589
0.00971098457467
0.0102929131902
0.0130655238385
0.00893782675235
0.00865391792796
0.0087801925025
0.00867535970546
0.00820053815306
0.0074444772224
0.00792724367774
0.0080404733588
0.00740709042161
0.00807343756374
0.00855601114478
0.0087252949187
0.00862961173057
0.00845726802808
0.00844268513721
0.00802010877717
0.00788476716969
0.0079582443584
0.00822098356752
0.00877692151806
0.00883185975453
0.00899202662241
0.00906239150714
0.0088602569367
0.00831236498789
0.00751355235953
0.00801331886786
0.00814776980088
0.00747405414852
0.00814651151109
0.00867068670071
0.00892726276124
0.00895305810645
0.00885776462365
0.00874652002689
0.00858852476105
0.00853466822298
0.00860039674991
0.00877260962309
0.00902922584928
0.00920251751121
0.00932278230685
0.00928896362203
0.00899211231441
0.00838104326794
0.00755315659998
0.00806534293619
0.00815008872603
0.00747276570273
0.00814675897769
0.00869432230698
0.00901097328829
0.00912993954236
0.00912751389077
0.00907891349475
0.00902128902104
0.00901384652341
0.00907096025867
0.00918678475982
0.00933612716629
0.00945468196304
0.009494311059
0.00937139554562
0.00900459803108
0.00835731441024
0.00752216707781
0.00801898932446
0.00797145284407
0.00734525548286
0.00801883234391
0.00857127003483
0.00891592047125
0.00908842520309
0.00914902265788
0.00915644037052
0.00915243586711
0.00917015784989
0.00922050281917
0.00929922752498
0.00938765081188
0.00944609365838
0.00941987519964
0.00923871808326
0.0088409800644
0.00819379038571
0.00736931668035
0.0078065497394
0.00751151880193
0.00702925601061
0.0077052937959
0.00824936193624
0.00859340655816
0.00878208463406
0.00886996831389
0.00890470557954
0.00892366098259
0.00894794658852
0.00898708649676
0.00903843528385
0.00908847595614
0.00910704029662
0.00904696282084
0.0088513611806
0.00846407433236
0.0078411412061
0.00702922337205
0.00732342160903
0.00663527361673
0.00645450102568
0.00716146472665
0.00769853872037
0.0080301484966
0.00821143637634
0.00829993343366
0.00834038572678
0.00836268462252
0.00838367934237
0.0084106771469
0.00844255421371
0.00846934624224
0.00846798384036
0.00840009451704
0.00821404706647
0.00784960417474
0.00724860628571
0.00642626617897
0.00644184172111
0.00516836001298
0.00558512302113
0.00641358882886
0.00698100396297
0.00731399438417
0.00748964875355
0.00757281461771
0.00760869429545
0.00762486685453
0.00763612425141
0.0076492278744
0.00766438051135
0.00767392947308
0.00765917803597
0.00758643888713
0.00740456648985
0.00704586704135
0.00643293509029
0.00552898059095
0.00501848072525
0.00314363190214
0.00506981450679
0.00649560911549
0.0073719862246
0.00787093755975
0.00813339793778
0.0082596562956
0.00831354749701
0.00833160639963
0.0083330476927
0.00832933217099
0.00832117369952
0.00830185988469
0.00824992738418
0.00812183533993
0.00784698152014
0.00733065923546
0.00644095230142
0.00501682978418
0.00313992068765
0.00329446974462
0.00564311943507
0.00730282476524
0.00826080682412
0.00873588617413
0.00890668230276
0.00891677641632
0.00887150197658
0.00883400247726
0.00882278958727
0.00883985152416
0.00888382047784
0.00894889596206
0.00901055650942
0.00901151237751
0.00884249481246
0.0083475922706
0.00734258893211
0.00563180433248
0.00328009429194
0.00563941338123
0.00596890305834
0.00683865201358
0.00740335838327
0.00769553027316
0.00780741140145
0.00782397284104
0.00780673840979
0.00778994018924
0.00778940078504
0.00780957609679
0.00784896569858
0.00790023178541
0.00794351583933
0.00794116125403
0.00782796819258
0.00751626740248
0.00691727492248
0.0059959367944
0.00548376150695
0.00731100704447
0.00684642345421
0.00751517958047
0.00799402193446
0.00823990084269
0.00831867187765
0.00830879010653
0.0082702009481
0.00823407453829
0.00822417919206
0.00824538179713
0.00829463649372
0.00836295263353
0.00842189765875
0.00843734586848
0.00834549074857
0.00807423558385
0.00756438090047
0.0068564400517
0.00713597674712
0.00826209906483
0.00741144640622
0.00799889393665
0.0084424240114
0.00865670000211
0.00869783327091
0.00864936985419
0.0085751238554
0.00849064846953
0.0084587665795
0.00848508072441
0.00856428184859
0.00868110936415
0.00877746811253
0.00883552930984
0.00878164933561
0.00854073849581
0.00806940128861
0.00744468596364
0.00813707109766
0.00869827461486
0.00769502250667
0.00824982684009
0.00867146843882
0.00885263910267
0.00885029209312
0.00877696384466
0.00870361350801
0.00850248177678
0.00842184264735
0.008455138035
0.00859348078166
0.00882411716423
0.00892149345191
0.00901974866501
0.00901583194375
0.00881336149761
0.00836681045609
0.00777335757376
0.00865377447824
0.008825032381
0.00779357210868
0.00833397316995
0.00873239012527
0.00887339457083
0.00884739331011
0.00889045197971
0.00914265558181
0.00851950203119
0.00831271165639
0.00835329490802
0.00863532573975
0.00926502951328
0.00900155508795
0.00904175713043
0.00907837373337
0.00892141650514
0.00850119666661
0.00791810212458
0.00886159908834
0.0088082833596
0.00779710832758
0.00832520522845
0.00869333242374
0.00879612470036
0.0088282003581
0.00957059543914
0.0135527100929
0.0105173098783
0.0100200303329
0.0101122931809
0.0108256719004
0.0141531647979
0.00966759961386
0.00905278065748
0.00904221255563
0.00892234636477
0.00853114111786
0.00795410589023
0.00890054615275
0.00875186982825
0.00777078749667
0.00828426715543
0.0086188719226
0.00868725812804
0.00886488949079
0.0128360595608
0.013837320372
0.00921202839918
0.00897520518536
0.00887819018872
0.00851510922662
0.00794348668277
0.00887115695715
0.00872543468755
0.00775751373311