/*--------------------------------*- C++ -*----------------------------------*\
| =========                 |                                                 |
| \\      /  F ield         | OpenFOAM: The Open Source CFD Toolbox           |
|  \\    /   O peration     | Version:  v1606+                                |
|   \\  /    A nd           | Web:      www.OpenFOAM.com                      |
|    \\/     M anipulation  |                                                 |
\*---------------------------------------------------------------------------*/
FoamFile
{
    version     2.0;
    format      ascii;
    class       volScalarField;
    location    "1.9";
    object      k;
}
// * * * * * * * * * * * * * * * * * * * * * * * * * * * * * * * * * * * * * //

dimensions      [0 2 -2 0 0 0 0];

internalField   nonuniform List<scalar> 
11640
(
0.00177828131115
0.0019702040801
0.00208640196202
0.00214438825488
0.00216819401747
0.00217308131626
0.00217083560096
0.00216811320747
0.00216714747402
0.00216618811599
0.0021657345475
0.00216697998818
0.00217196985646
0.00218044400198
0.00219260386427
0.00219924131672
0.00218206434011
0.00212368647625
0.00200031271044
0.00179785524606
0.00197078927073
0.00301156666225
0.00354283266334
0.00379261217503
0.00389332163025
0.0039241745883
0.00392670139363
0.00392185207949
0.00392090514281
0.00392367499796
0.00392942051577
0.0039491085122
0.0039862163161
0.00402327924421
0.00403304284605
0.00398858058936
0.00386765119171
0.00359626010241
0.00304124320963
0.00198112293109
0.00208837415529
0.00354752265578
0.00428484695804
0.0046263926745
0.00475509211408
0.00478063866126
0.00476931165676
0.004758621404
0.00476174837977
0.00477484000109
0.00479876698462
0.00489588744609
0.00502245328842
0.00514251094286
0.0051995604895
0.00511934191859
0.00485835296715
0.00439411333447
0.00358992602114
0.00209387925966
0.00214869865638
0.0038058946145
0.00463495105655
0.00499801176405
0.00511007558802
0.00510401641809
0.00506040836938
0.00502397376571
0.00501888371541
0.00503705927441
0.00509607084393
0.00530243422978
0.00553890973647
0.0057782421677
0.00593680372859
0.00588919653666
0.00555849242933
0.00490643625514
0.00387820208876
0.00214818375089
0.00217987354845
0.00391752110542
0.00476445077278
0.00510311373434
0.00517068042792
0.00510192044418
0.00498106817969
0.00487020218701
0.00482712555159
0.00483279105239
0.00495876758931
0.00524464872556
0.00559370649842
0.00599326991942
0.00631403115507
0.00636235327785
0.00603520815656
0.00528167853322
0.0040659740777
0.00217284958138
0.0021987694797
0.00395218710392
0.00477864993463
0.00506850642784
0.00506211824192
0.00488022346814
0.00459888245718
0.00433519273058
0.00421478347981
0.00418647989305
0.00432784091681
0.00464912365518
0.00510604788478
0.00574510910199
0.00632928323554
0.00655288038596
0.00629869283732
0.00551931546913
0.00420226543272
0.00219549019021
0.00220811951273
0.00395131924988
0.00474584692048
0.00498079627594
0.00487706289213
0.00451814030967
0.00396333184138
0.00341824415394
0.00320644533529
0.00316059807214
0.00335953769243
0.00362200566162
0.00411398169236
0.00506429588429
0.00603859306458
0.00650814959665
0.00637543299995
0.00562330526541
0.00427351732831
0.00221768033562
0.00220874210624
0.0039373578302
0.00470712233913
0.0048963031956
0.00470681366455
0.00419378240685
0.0033803104665
0.00272152755724
0.0024857435974
0.00243841715893
0.00249078821958
0.00266627540142
0.00311981715129
0.00427194317369
0.00562793332625
0.00632970136671
0.00632094686258
0.00562210195181
0.00428540390015
0.00223131144579
0.00220731086325
0.00392831114299
0.00468673472043
0.0048517390747
0.00461800563997
0.00402963191082
0.0031331048288
0.00245016806307
0.00220101395414
0.00215212139383
0.0021887452394
0.00232009967383
0.00273199578619
0.00386947166808
0.0053652016295
0.0061919413235
0.00625844691828
0.00559764922138
0.00427924821633
0.00223943948355
0.00220774918332
0.00393267185782
0.00469491900138
0.00486104292623
0.00462747602745
0.0040352291309
0.00313444223501
0.0024401536462
0.00219023240269
0.00213571414868
0.00216062959945
0.00228688308377
0.00269541616432
0.0038278121191
0.00533999340921
0.00618498696518
0.00626016168815
0.0056006471373
0.00428147840133
0.00224718176423
0.00221111804605
0.0039530598684
0.0047353345915
0.00492953302079
0.00473869207473
0.00420963685753
0.00337806169916
0.00268104541894
0.00243070592487
0.00236405950854
0.00238769687761
0.00252500452685
0.00294690753189
0.00410339481893
0.00554794364067
0.00632125485697
0.00633868102255
0.00564090357825
0.00429796395031
0.00225479393757
0.00221409507026
0.00398705336914
0.00480902993099
0.00505844544326
0.00495861815178
0.00459273650479
0.00398202680642
0.003406811119
0.00318437831451
0.00311781420719
0.00311675288854
0.00337552192262
0.00389379899489
0.00495125445117
0.00604311446033
0.00659088495366
0.00647421598057
0.0056992178749
0.00431627859887
0.00225845065289
0.00221452618429
0.00402749514633
0.00491286427591
0.00523815477726
0.00524058916356
0.00503789458981
0.00469857753158
0.00435487965243
0.00421894891764
0.00419902827677
0.00436521436716
0.0047214059942
0.0052181435028
0.00593768800529
0.00659941604733
0.00685830710945
0.00657075368565
0.00571234524093
0.00430373964783
0.00225110897415
0.00221300055114
0.00405948315217
0.0050172755474
0.0054320836595
0.00553917907247
0.00548058038786
0.00534705206768
0.00521721845645
0.00517728091567
0.00520490461951
0.00539629707603
0.00573104060561
0.00613391160366
0.00659278077036
0.00693785355772
0.00695619285533
0.00652979478843
0.00562751156157
0.00424735122914
0.00223577593257
0.0022108861185
0.00406881413265
0.00507597761436
0.0055753197551
0.00577511311638
0.00581941026146
0.00580099521739
0.00576974839611
0.00577775396557
0.00582480945049
0.00602307493762
0.00627478738542
0.00655355155908
0.00682302481345
0.0069583846864
0.0068200623555
0.00632508716074
0.00545104994799
0.00416732566967
0.00222318272212
0.00220255251908
0.00402708535302
0.00503430556071
0.00557733710161
0.00584345743829
0.00595494851128
0.0059956291482
0.00600926203677
0.00602684718225
0.00607731148738
0.00621245598817
0.00636367324341
0.00652196841555
0.00665178080268
0.00665974907207
0.00645108443929
0.00597524792678
0.00521403959656
0.00407193553343
0.00220874017322
0.00217486535686
0.00389175243988
0.00483817000778
0.00535745157369
0.00563184740231
0.00576494119348
0.00582072541631
0.00583747500813
0.00584694053535
0.00589881986623
0.00596323923661
0.00603016479892
0.00609759184458
0.00613737674364
0.00608947274124
0.00589507303436
0.00552152301869
0.00491887491687
0.00391856429126
0.00217791299277
0.00211250258903
0.00359756979022
0.00440602562073
0.00484610711966
0.00507258415276
0.0051792803323
0.00522165212452
0.00523605173213
0.00525538914619
0.00527613439342
0.00529610320712
0.0053177881725
0.0053389188088
0.00534350679438
0.00529979721177
0.00517144228379
0.00491860166132
0.0044562209328
0.00361688777651
0.00211178567447
0.00198957870588
0.00303223117432
0.00358982960946
0.00388426628492
0.00403123602642
0.0040960277371
0.00412001763985
0.00413104727418
0.00413911081072
0.00414626512166
0.00415350975489
0.00416184917235
0.00416986796549
0.00417050518792
0.00414974546013
0.0040812334549
0.00392566493285
0.00361855407241
0.00304029527124
0.00198547878902
0.00179173709219
0.00197483980728
0.00208966144016
0.00214878333741
0.00217608881322
0.00218704316109
0.00219202346841
0.00219772133239
0.00220416395863
0.00221060009443
0.0022164470182
0.00222076117727
0.00222430197535
0.00222482609645
0.00222168420495
0.0022083895455
0.00217636650995
0.00210987995682
0.00198452584735
0.0017874418771
0.00283116482834
0.00351283206171
0.00392454075549
0.00412890147865
0.00420523134176
0.00421279132441
0.00420694430247
0.0042121683901
0.00422744474733
0.00424468141444
0.00426068460241
0.00426952244374
0.00427649233498
0.00429021273931
0.00430787980801
0.00430320996024
0.00421953272301
0.0039967758744
0.00356168946938
0.00286139765797
0.00351361333563
0.00642233364718
0.00771461886629
0.00832657355434
0.00856209682651
0.00862795685035
0.00864568652711
0.00866960446327
0.00870815825568
0.00875678827342
0.00880324553269
0.00883390398057
0.0088673047783
0.00889467769004
0.00889507530121
0.0088012873957
0.00849950361304
0.00781690212136
0.00646045323473
0.00351924728779
0.00392970935858
0.00772085365235
0.00936821831782
0.0101070166484
0.0103550917292
0.0103906902821
0.0103906355308
0.0104313818813
0.0105145622732
0.0106201864256
0.0107196390214
0.0107840468536
0.0108750689574
0.0109849802189
0.0110472785525
0.0109382012451
0.0105210256407
0.00959135810895
0.00780268418406
0.00393968593575
0.00413395485479
0.00832996856199
0.010086922375
0.0108022836186
0.0109814618486
0.0109480582533
0.0108942407247
0.0109116199754
0.0110168191495
0.0111705893416
0.0113187175751
0.0114382377998
0.0116352831853
0.0118892920278
0.012095717183
0.0120631870682
0.0116095684841
0.0105356768213
0.00849611319314
0.00416108049322
0.00420602424332
0.00853211851507
0.0102518525472
0.0108720750379
0.0109341972149
0.0107634177331
0.0105528586012
0.0104420538943
0.0105139555252
0.0106898195126
0.0108681534271
0.011056184015
0.0113995815035
0.0119020743923
0.0123659253103
0.0125082214429
0.0121190634024
0.0109937065492
0.00881544787542
0.00425697859159
0.00421334089717
0.00851957078516
0.0101472140884
0.0106382079539
0.0105267268318
0.0100973266592
0.00952175050364
0.00907449978713
0.00902837607456
0.00918848292481
0.00936162660075
0.00957962735961
0.0101141732336
0.0110770806291
0.0120075928467
0.0124592983658
0.0122310811479
0.0111442737098
0.00892030528423
0.0042870653971
0.0042018185917
0.00844145585263
0.00997900164465
0.0103350849267
0.00999981540154
0.00916077344289
0.00791334405275
0.00682975940985
0.00660747453689
0.00671541933504
0.00672800357852
0.00684256879437
0.00754966963709
0.00942611406193
0.0111769076963
0.0120906818909
0.0120988927884
0.0111129168354
0.00891239871099
0.00428702658626
0.00419103812983
0.00838007360971
0.00985603026257
0.0101028238599
0.00955927867716
0.0083107220343
0.00631645081996
0.00481091244979
0.00450360627776
0.00461355164238
0.00464038912228
0.00464856066628
0.00529396180356
0.00755509458959
0.0102411263714
0.0116337643033
0.0118778804672
0.0110070041546
0.00885975433899
0.00427710464246
0.00418792953078
0.00835794161717
0.00980824267944
0.00999921606047
0.00934671882066
0.0079013219508
0.00564991390636
0.00407335648968
0.00367625879227
0.00374422371163
0.00373998136423
0.00370095004904
0.00430915027132
0.00658294999654
0.0096715115631
0.0113340272352
0.0117251778304
0.0109287232427
0.00881744679676
0.00426884410771
0.0041947868459
0.00837683868593
0.00983557010278
0.0100305933386
0.00937567570108
0.00791429166563
0.00563193923714
0.00400302235212
0.00357398572247
0.00362063228936
0.00362837619683
0.0035693354389
0.00416082779264
0.00642008208578
0.00958560956634
0.0113051538839
0.0117188404723
0.0109245404001
0.00880966501217
0.00426530381662
0.00421309191513
0.00844071189957
0.00994666231529
0.0102087478186
0.00965781243522
0.00835527341401
0.00625808860192
0.00459720176022
0.0041856758479
0.00423842340061
0.00426995838598
0.00421874277215
0.00480626380553
0.00707163500408
0.010021698992
0.0115851507541
0.0118867629034
0.0110144806931
0.00884699321407
0.00427027995924
0.00424583430709
0.00855534948403
0.0101518185214
0.0105422819355
0.0102058269238
0.00929699437715
0.0078334095118
0.00639643658389
0.00602624215279
0.00614304447421
0.00635567389552
0.00650141722331
0.00720674663159
0.00907813474343
0.011091882074
0.0121690995152
0.0122100021269
0.0111841601347
0.00892380416343
0.00428501615621
0.00429267378798
0.00872904991599
0.0104676470544
0.011033235616
0.0109447399672
0.010455969569
0.00971268987008
0.00902996915097
0.00888991964763
0.0090648555512
0.00930008451188
0.0095849667656
0.010174716338
0.011249415967
0.0123369443923
0.0128564815487
0.0125813016851
0.0113780743896
0.00901914614354
0.00430579973516
0.00433957361066
0.00891654222311
0.0108348487475
0.0116056190523
0.0117582867864
0.0116058913524
0.0113450993466
0.0111546959955
0.0111999750333
0.011403857707
0.0116397427283
0.0118968403152
0.0122896797934
0.0128419100525
0.0133265373695
0.0134096668066
0.0128661493791
0.0115180628154
0.00909504910689
0.00432093989644
0.00436054976958
0.00902290696094
0.011112300933
0.0120837044342
0.0124484585255
0.0125263418091
0.0125215140124
0.0125457107665
0.0126622096267
0.0128525738967
0.0130320499329
0.0132163145572
0.0134511425397
0.0137108371803
0.013848925966
0.0136550297213
0.012939844499
0.0115244893194
0.00910221899245
0.00431736937401
0.00433339718886
0.00894370455915
0.0111150603656
0.0122356312392
0.0127591900414
0.0129812561327
0.0130908994428
0.013180523378
0.0132904699065
0.0134257404147
0.0135334528292
0.0136400813021
0.01375785755
0.0138474520253
0.0137981420196
0.0134628745847
0.012695060331
0.0113157506855
0.00897011705102
0.0042765726042
0.00422539396649
0.00859634867232
0.0106835346988
0.0118314734157
0.0124262885231
0.0127125361082
0.0128521336891
0.0129316074957
0.0130023597704
0.0130596199335
0.0131052947028
0.0131523535171
0.0131984643585
0.0132044900433
0.0130879478193
0.0127411917196
0.0120386541781
0.0107822974953
0.00859997764653
0.00416317724319
0.00399110246073
0.00785795066989
0.0096888475067
0.0107042131885
0.0112502468575
0.0115219926218
0.0116471057844
0.0117029240238
0.0117276133805
0.0117427935277
0.011756799916
0.0117746296029
0.011790591045
0.0117737968663
0.0116668080569
0.0113841894143
0.0108051922765
0.00974047607839
0.0078446619966
0.00392858329268
0.00355320606625
0.00647029413788
0.0078430332811
0.00858868388818
0.00898391948403
0.00917776363866
0.00926263501253
0.00929357010206
0.00930103145649
0.00930104131078
0.00930232197417
0.00930720976001
0.00931138558359
0.00929583067406
0.00922265042891
0.00902969865263
0.00862104369059
0.00784874049614
0.00643815342877
0.00349978477297
0.00285852519275
0.00352015919276
0.00394735821903
0.00418452411147
0.00430749971526
0.0043672807465
0.00439432156764
0.00440452129803
0.00440624228083
0.00440346944596
0.00439996965737
0.00439489576083
0.00438962258686
0.0043781092214
0.00435210805184
0.00429136228261
0.00416665267224
0.00392785775407
0.00349871529121
0.00283365455516
0.00317017503264
0.00420855150915
0.00484151730112
0.00516747725471
0.00530174904972
0.00532851374486
0.00532108713127
0.00531607507276
0.0053198358904
0.00532935528919
0.00534220586178
0.00535495611988
0.00537003913982
0.00539142147421
0.0054104855139
0.00538745547313
0.00524529139364
0.00489762652931
0.0042366234227
0.00318122806262
0.00420814162593
0.00812450655516
0.00983042868491
0.0106747411912
0.0110307610677
0.011139081386
0.01114946529
0.0111444777319
0.0111511336028
0.0111753261998
0.0112119689657
0.0112513356263
0.0113006468882
0.0113446982522
0.0113429953329
0.0112052227508
0.0107898942437
0.00987805460766
0.00810496920434
0.00417824571098
0.00484717698004
0.00983876182708
0.0119671513045
0.0129915763657
0.0133912122277
0.0134703243072
0.0134395156255
0.0134147224868
0.0134330019083
0.0134912586253
0.0135715408622
0.0136639013279
0.0137867793791
0.0139295692777
0.014005110304
0.0138559616989
0.013312407638
0.0121211858131
0.00986219329948
0.00482175163549
0.00517259925626
0.0106872871515
0.012986240525
0.0140340358361
0.0143795276772
0.0143663631992
0.0142297554568
0.0141236786245
0.0141158775255
0.0141908852256
0.0143102370991
0.0144629296072
0.0147155983215
0.0150390666965
0.0152900346846
0.0152437480222
0.0146730136752
0.0133348575822
0.010792437816
0.00517054953918
0.00530083506987
0.0110251264361
0.0133416048016
0.0143229796891
0.0145399092407
0.0143323786762
0.0139467366404
0.0136256242842
0.0135249216963
0.0135872189896
0.0137249488515
0.0139562629208
0.0143954060132
0.0150417681956
0.0156150592657
0.0157918053907
0.0153151593048
0.0139355460716
0.0112450635869
0.00533128830875
0.00532766596967
0.0110776124506
0.0133365339401
0.0141940119213
0.0141955123555
0.0136256158125
0.0126967802367
0.0118524102634
0.0115500592052
0.0115509151276
0.0116656419112
0.0119330845734
0.0126365743411
0.0139651941802
0.015153311655
0.0157282057991
0.0154610796218
0.0141429701837
0.0114090807244
0.0053877756013
0.00531678544507
0.0110173205753
0.0131957367019
0.0139011704117
0.0136116693233
0.0124676656935
0.0104326552255
0.00827198386273
0.00762647666061
0.00746179310204
0.00739844913178
0.00753324174319
0.00857303339529
0.0117064608665
0.0140827335971
0.0152662289009
0.0153008809537
0.0141157682822
0.0114158991419
0.0053942174849
0.00529911504792
0.0109478167048
0.0130611909168
0.0136346438699
0.0130739130588
0.0113425811199
0.0078403683401
0.00425420491171
0.00355338019851
0.00349649189264
0.00352181078201
0.00364285736491
0.00451695204715
0.00877502700955
0.0128494723233
0.0147042806717
0.0150389848991
0.0139958746836
0.0113579859588
0.00538031518605
0.00529189314995
0.0109187772417
0.0130021755404
0.013507344872
0.0128069713697
0.0108134512651
0.00690641121171
0.00341690420735
0.00261514370445
0.00250553165962
0.00251031200918
0.00261707978543
0.00347250327694
0.00743262685094
0.0121290071629
0.0143466599996
0.0148648671476
0.0139100169258
0.0113118403658
0.00536734853732
0.00530098814609
0.0109439576087
0.0130412556241
0.0135560294538
0.0128573268937
0.0108529259652
0.00692014479803
0.00342043953821
0.00258143728567
0.00243574221117
0.00240381446061
0.00248702819418
0.00333573862509
0.00722387309132
0.0120399283053
0.0143337012384
0.0148784408333
0.0139225685169
0.0113133092046
0.00536462145101
0.00532937534467
0.0110290519511
0.0131888341957
0.0137949505224
0.0132428126192
0.0114803857555
0.00791300641007
0.00436806406687
0.0035327259344
0.00338069336564
0.00335400586702
0.00339862364952
0.00418539889559
0.0082335310587
0.0126629254676
0.0147217821879
0.0151173535932
0.0140574440311
0.0113752540994
0.0053769048798
0.00537768021066
0.0111715055183
0.0134402800237
0.014212984001
0.0139520797113
0.0127664510651
0.0105807652958
0.00788696944116
0.007122176594
0.00712622946645
0.00733592491828
0.00766398016476
0.00871335682897
0.0114774030767
0.0141354478288
0.0154954859703
0.0155518454987
0.0142943890473
0.0114894653445
0.00540404176196
0.00544104670659
0.0113614517906
0.013779881147
0.0147624273546
0.0148343988716
0.0142438189823
0.0131871434347
0.0121425224841
0.0117490689126
0.0117937305782
0.0120014637253
0.0123452118135
0.0130969531968
0.014439446
0.0157625407613
0.0163867531963
0.016040958022
0.0145560961853
0.0116203878534
0.00543938068772
0.00549533824228
0.0115388358415
0.014124400904
0.0153259899198
0.0157022302641
0.0155695664216
0.0151775801352
0.014814008705
0.014702920593
0.0148073293909
0.0150187858279
0.0153165283304
0.0157920767217
0.0164481615356
0.0170150390881
0.0170957477881
0.0164119493134
0.0147374817978
0.0117114666354
0.00546166951187
0.00550672713243
0.0116047111728
0.0143250484092
0.0157142046518
0.0163302453132
0.0165022049412
0.0164689498477
0.0164122310839
0.0164397938388
0.0165639657803
0.0167291737112
0.0169411782622
0.0172199683441
0.017520176259
0.0176669340917
0.0174053812282
0.0165018820982
0.0147293390277
0.0116941718295
0.00544618832751
0.00544598431387
0.011443168718
0.0141995983323
0.0157003923247
0.016470642483
0.016819181678
0.0169584744644
0.0170260872625
0.0170983141128
0.0172000004659
0.0173098022144
0.0174371466602
0.0175782821067
0.0176763539508
0.0175960226182
0.0171555514958
0.016172441549
0.0144256809088
0.0114783272439
0.00536847797104
0.00526583576316
0.0109449754216
0.0135755659536
0.0150601928046
0.0158740502908
0.0162890162389
0.0164860181072
0.0165797669879
0.0166435454232
0.0166965356994
0.0167516851251
0.016813958353
0.0168702980399
0.0168664365171
0.016697753301
0.016230637405
0.0153082112156
0.0136969519452
0.0109461218049
0.00517926994893
0.00489762713851
0.00995097666174
0.0122793802206
0.0135952091571
0.0143290145464
0.0147124744015
0.0148958622204
0.0149763561148
0.0150123112174
0.0150349890954
0.0150582615764
0.0150846231401
0.0151010520911
0.0150653399512
0.0149012831282
0.0145019222803
0.0137209030891
0.0123331789842
0.00991986982778
0.00480888976946
0.0042282426355
0.00812971111493
0.0099335615923
0.010936641655
0.0114870210761
0.0117696084011
0.0119007556772
0.0119539056281
0.0119722425854
0.0119786941583
0.0119847189708
0.0119921765597
0.0119917772495
0.0119559126737
0.0118339090702
0.011544484094
0.0109687535385
0.00992380995939
0.00807231986358
0.00415555788409
0.00317613933309
0.00418157055128
0.00483699034669
0.00520897909872
0.00541011122488
0.00551144667937
0.00555813473496
0.00557689148881
0.00558190099556
0.00558108218429
0.00557705857244
0.00557099090114
0.0055619828301
0.00554165154828
0.0054941976437
0.00538971289187
0.00518441435186
0.00480943654543
0.00415511880228
0.0031645596142
0.00333222324814
0.00463267355943
0.00543390850083
0.00585840798872
0.00604331138651
0.00608719267367
0.00607611733077
0.00605870252428
0.00605011847524
0.00605106548903
0.00606086117286
0.00607779199858
0.00610166201124
0.00613096796224
0.00615118142064
0.0061107184687
0.00591812078215
0.00547182593374
0.00464198382003
0.00333027716418
0.00463130217413
0.00921541069421
0.0112215285109
0.0122435095303
0.0126947453495
0.0128353382965
0.0128352277052
0.0127986350304
0.0127724241757
0.0127721633906
0.0127993624285
0.0128479770134
0.0129152662529
0.0129739846643
0.0129736490596
0.0128044890942
0.0123001589767
0.011215010126
0.00914171307737
0.00456988914181
0.00543938487501
0.0112314500703
0.0136992122388
0.0149310932454
0.0154444566056
0.0155549884475
0.015496161674
0.0154140131382
0.0153754137149
0.0153937228068
0.0154598861372
0.0155669854814
0.0157209241261
0.0158876185828
0.0159704624175
0.0157939699026
0.0151603498953
0.013786526987
0.01119818221
0.0053795011218
0.00586257318385
0.012262320511
0.0149376349222
0.016219085544
0.0166854067601
0.0166882059081
0.0164876646326
0.0162827821992
0.0161820780259
0.0161954426379
0.0162942903543
0.0164701719451
0.0167623934296
0.0171309759727
0.0174107667827
0.0173542618215
0.0167074026039
0.0151942965877
0.0123111763704
0.00583001087869
0.00604107069938
0.0127108609284
0.0154400997245
0.0166737635883
0.0170056017518
0.0167771247324
0.0162635668916
0.0157821490301
0.0155428211695
0.0155233679945
0.0156366960165
0.0159008858259
0.0164020251976
0.0171303173669
0.0177757665336
0.0179760988712
0.0174457230962
0.0159054072753
0.0128751922414
0.00604690319962
0.00608766663837
0.0128221306131
0.0155189350121
0.016635619553
0.0167298721828
0.0160716355396
0.014870672602
0.0136730530541
0.0131545382993
0.0130786866289
0.0131820456821
0.0135172952884
0.014331742033
0.0158801835877
0.01725075994
0.017911207506
0.0176256473369
0.0161654183707
0.0130966314618
0.00613056023293
0.00607927467926
0.01278130701
0.0154083159857
0.0163673348669
0.0161352310393
0.0147891926622
0.0119720457811
0.00836138632776
0.00729827944617
0.00711613068457
0.00713632578397
0.00738959583352
0.00864034286887
0.0130581336099
0.0160277244654
0.0173995743204
0.0174602005849
0.0161537517309
0.0131250168898
0.00614597731127
0.00605652034445
0.0127091291338
0.0152718603102
0.0160884647921
0.0155509945344
0.0134804371061
0.00792734095987
0.00856688144196
0.014622902778
0.0167882746737
0.0171853729507
0.016035462832
0.0130712095656
0.00613219960571
0.0060456751704
0.012675366375
0.0152076315464
0.0159503841238
0.0152576875349
0.0128939425925
0.0069082519158
0.00723308792236
0.0138558884827
0.0164137820127
0.0170108130165
0.0159546234023
0.0130286903664
0.00611840086927
0.00605714028657
0.0127065537952
0.0152568682831
0.0160125575472
0.0153241557569
0.0129553482552
0.0069461332679
0.00712836395986
0.0138065249719
0.0164326996233
0.0170530068133
0.0159896777296
0.0130437925982
0.00611966860909
0.00609416551104
0.0128090429417
0.015431086935
0.0162922838499
0.0157756700802
0.0137094936601
0.00821413133458
0.00845183369744
0.0145732901497
0.0169138439336
0.0173568574452
0.0161685901241
0.0131324108888
0.00614002672222
0.00615494920821
0.0129718124195
0.0157142303691
0.0167637161632
0.0165827976678
0.0152319408371
0.0124521418236
0.0081521420268
0.00716006476807
0.0070338322304
0.00710549713468
0.00738145004546
0.00863259626139
0.0129933534412
0.0162747229316
0.0178248091148
0.0178830592008
0.0164643481521
0.0132807472681
0.00618073947464
0.00623057560484
0.0131712814172
0.0160670052714
0.0173465917156
0.017550001825
0.0169160746935
0.0156751287516
0.0143697705836
0.0137779390225
0.0137182268622
0.0138924900443
0.0142621777033
0.0151420009146
0.016709283655
0.0181866137577
0.0188678961331
0.0184632203175
0.0167796546245
0.0134396984177
0.00622796051674
0.00628749247831
0.0133354396076
0.0163873619772
0.017893692956
0.0184392535512
0.0183406952738
0.0178822150259
0.017418080146
0.0171987607986
0.0172298652358
0.0174171880861
0.0177389103709
0.0182754391143
0.0190024319535
0.0196162989708
0.0196834430677
0.0188934789053
0.0169881636532
0.0135380080501
0.00625401289664
0.00628587584939
0.013361021931
0.0165215089362
0.0182058121259
0.0190084221285
0.0192609078318
0.0192239179179
0.0191223571583
0.0190914699519
0.0191705139002
0.0193245278318
0.0195558974589
0.0198688673879
0.0201975567441
0.0203444620187
0.0200275062658
0.0189852572999
0.0169606173862
0.0134932234485
0.00622549271199
0.00619219936941
0.0131251240324
0.0162893049912
0.0180606178849
0.0190141897604
0.0194638302047
0.0196356633048
0.0196959716779
0.0197469154421
0.0198280222723
0.0199398089806
0.0200853678131
0.0202470995097
0.0203518379393
0.0202458229703
0.0197250479767
0.0185840149255
0.0165757513206
0.0132025687019
0.00611290622784
0.00595030779328
0.0125037822134
0.0155130623049
0.0172407510258
0.0182208207607
0.0187390334177
0.0189865710023
0.0190967197525
0.0191599212418
0.0192145594701
0.0192806383579
0.0193593526742
0.0194277051168
0.0194178970437
0.0192088854008
0.0186484857778
0.0175609182918
0.0156912947851
0.0125352549824
0.0058565702935
0.00547593039678
0.0113142814736
0.0139941307823
0.0155322392522
0.0164135618375
0.0168901610857
0.0171255403135
0.017230898574
0.0172792911103
0.0173118012842
0.0173469368345
0.0173851388364
0.0174060971434
0.0173569481878
0.0171471063424
0.0166534256488
0.0157138804185
0.0140830308964
0.0112950683861
0.00537468698762
0.00463267635626
0.0091792746556
0.0112948728026
0.0124955548128
0.0131726996222
0.0135326307696
0.0137073395838
0.0137830160141
0.0138136235115
0.0138287222245
0.0138425110779
0.0138558039948
0.0138544567432
0.0138030424349
0.0136390336048
0.0132677159602
0.0125542212266
0.0112962239308
0.00911826042487
0.00454768469349
0.00332174831239
0.00457402808293
0.00540030958741
0.00587989905939
0.00614571858934
0.00628415502071
0.00635065619526
0.00637923943496
0.00638888929945
0.00638967684913
0.00638757518845
0.00638295845788
0.00637242816753
0.00634490552624
0.00627785684696
0.00613391027761
0.00586008062546
0.00537390994022
0.00454665551764
0.00332027128596
0.0034272927833
0.00491228020919
0.00583776952036
0.00633742814879
0.00656159951887
0.00661783717733
0.00660197556545
0.00657330969529
0.00655411170219
0.00654797960839
0.0065560501421
0.00657758162208
0.00660956422096
0.00664613043016
0.00666813460968
0.00661354337881
0.00638012125343
0.00585823575803
0.00490592930472
0.00341784487054
0.00491024791096
0.00995224355053
0.0121836336516
0.013343072718
0.013868175531
0.0140325326587
0.0140210913908
0.0139550171864
0.0138983924161
0.0138764282787
0.0138968710328
0.0139547758473
0.014038876413
0.0141115287594
0.0141147970134
0.0139204851867
0.0133446673532
0.0121228049771
0.00982362089616
0.0048203507776
0.00584191304727
0.012193917936
0.0149177639311
0.0163079609857
0.0169083996726
0.0170427278474
0.0169602070161
0.016831000643
0.0167463022172
0.0167337225723
0.0167910170441
0.0169110174964
0.0170896997972
0.0172776781315
0.0173657866569
0.0171686941632
0.0164634527102
0.0149471325521
0.0121069683463
0.0057498373125
0.0063394097617
0.0133652568506
0.0163227330989
0.0177790095998
0.0183358142149
0.0183511094374
0.0181018346256
0.0178192165432
0.0176452268224
0.0176123214745
0.0176998661234
0.0179010584476
0.0182263461181
0.0186296346645
0.0189318083605
0.0188667893394
0.0181623094538
0.0165130688771
0.0133685382343
0.00627902250689
0.00655627880428
0.0138993737456
0.0169363088405
0.0183565072814
0.0187754603159
0.0185355407189
0.0179284709586
0.0173221659619
0.0169704113797
0.0168872628308
0.0169929308483
0.0172866139112
0.017841650786
0.0186290101902
0.0193309606598
0.0195515551153
0.0189837777564
0.0173224552354
0.0140307881112
0.00654348812816
0.00661684240021
0.0140553354831
0.0170787862477
0.0183882197308
0.0185574124891
0.0178463642282
0.0164569344739
0.0150139891849
0.0143065994869
0.0141499918425
0.0142490950443
0.0146373235715
0.0155553515223
0.0172443675483
0.0187563056943
0.0194885452336
0.0191979873302
0.0176351533494
0.0143102317807
0.00665311156983
0.00660893541522
0.0140290826597
0.0169924471522
0.0181431632148
0.0179675520939
0.0165021260339
0.0132074196023
0.00883743525332
0.0074390310298
0.00719578750858
0.007238460322
0.00757599603916
0.00907370465127
0.0140355317282
0.0174081003032
0.0189415639367
0.0190369961508
0.0176461382388
0.0143658182286
0.00667933792085
0.00658172029586
0.0139550761694
0.016856505638
0.0178598351431
0.0173605646098
0.0150956190317
0.0084907406039
0.00890562446634
0.0159077107304
0.0183070805519
0.0187635979261
0.0175389296397
0.0143229779363
0.00666793910852
0.00656803415065
0.0139179106315
0.016789654566
0.0177162295587
0.0170522191439
0.0144724975052
0.00734636602977
0.0074375630791
0.0151112487625
0.0179343439942
0.0186020350406
0.0174725734242
0.0142904782662
0.00665642542093
0.00658200919829
0.013954727293
0.0168475766796
0.0177894541014
0.0171313464878
0.0145495799576
0.00741134706108
0.00735975196243
0.0151114655578
0.0179971890409
0.0186816939763
0.0175371685754
0.0143249688798
0.00666344535291
0.00662666319928
0.0140719106215
0.017043077542
0.0180998285916
0.0176290275203
0.0153876284778
0.00891837410587
0.00896552911025
0.016024287429
0.0185743405398
0.0190536479719
0.017764163846
0.0144446480553
0.00669499350476
0.00669856672336
0.0142511574106
0.0173513608523
0.0186107787865