/*--------------------------------*- C++ -*----------------------------------*\
| =========                 |                                                 |
| \\      /  F ield         | OpenFOAM: The Open Source CFD Toolbox           |
|  \\    /   O peration     | Version:  v1606+                                |
|   \\  /    A nd           | Web:      www.OpenFOAM.com                      |
|    \\/     M anipulation  |                                                 |
\*---------------------------------------------------------------------------*/
FoamFile
{
    version     2.0;
    format      ascii;
    class       volScalarField;
    location    "1.82";
    object      nut.particles;
}
// * * * * * * * * * * * * * * * * * * * * * * * * * * * * * * * * * * * * * //

dimensions      [0 2 -1 0 0 0 0];

internalField   nonuniform List<scalar> 
6000
(
9.98315e-06
1.05869e-05
1.20523e-05
1.28831e-05
1.22564e-05
1.0533e-05
1.01246e-05
1.02111e-05
1.08767e-05
1.09261e-05
1.05752e-05
9.29656e-06
8.72207e-06
9.35652e-06
1.01277e-05
1.04569e-05
9.64158e-06
9.19607e-06
8.76748e-06
7.98685e-06
7.44456e-06
7.73052e-06
7.68961e-06
7.7448e-06
8.15398e-06
8.86122e-06
9.29608e-06
9.72286e-06
1.0071e-05
1.25748e-05
4.61948e-06
4.85342e-06
4.81908e-06
4.77106e-06
4.7032e-06
4.57572e-06
4.3296e-06
4.18247e-06
3.97507e-06
4.07221e-06
4.36405e-06
4.40975e-06
4.32243e-06
4.37485e-06
4.47739e-06
4.55696e-06
4.52231e-06
4.32538e-06
4.16387e-06
4.05165e-06
3.9695e-06
3.92625e-06
3.97975e-06
4.08403e-06
4.19712e-06
4.38948e-06
4.52422e-06
4.66462e-06
4.79003e-06
4.66593e-06
5.23679e-06
5.07018e-06
5.12658e-06
5.2041e-06
5.42089e-06
6.04568e-06
7.75093e-06
8.45328e-06
8.04492e-06
7.59245e-06
5.56323e-06
4.90923e-06
5.00212e-06
4.80287e-06
4.73274e-06
4.85311e-06
4.7685e-06
5.02911e-06
5.158e-06
5.42634e-06
6.64389e-06
8.37291e-06
9.10975e-06
8.91973e-06
7.78432e-06
6.62132e-06
6.43049e-06
5.64742e-06
5.28651e-06
5.1881e-06
6.55017e-06
6.15479e-06
6.0785e-06
6.84315e-06
7.79641e-06
9.585e-06
1.46099e-05
0.000116365
0.000135042
2.12302e-05
9.82517e-06
6.15577e-06
4.50321e-06
4.40345e-06
4.42754e-06
4.46686e-06
5.18288e-06
5.89713e-06
6.75466e-06
9.91837e-06
1.96667e-05
0.000404832
0.000739
0.000731375
0.000482834
3.75711e-05
1.54066e-05
1.23115e-05
1.13035e-05
1.13983e-05
1.07721e-05
1.03976e-05
1.10495e-05
1.39961e-05
1.75815e-05
2.23374e-05
2.93524e-05
0.000129623
0.000326975
0.000320149
0.00031473
1.14337e-05
6.06817e-06
4.81455e-06
4.78951e-06
5.35855e-06
7.22864e-06
9.11567e-06
1.32168e-05
0.000968431
0.00124619
0.00124751
0.00125615
0.000400259
0.000440355
0.000422142
0.00043085
0.000418715
0.000409435
0.000378629
1.48751e-05
1.57638e-05
1.63898e-05
1.65704e-05
1.67364e-05
1.50177e-05
1.14628e-05
9.79793e-06
2.09898e-05
0.000329706
0.000321568
0.00031502
1.13841e-05
7.12198e-06
6.57747e-06
7.66966e-06
1.05855e-05
3.76683e-05
0.00119266
0.00124605
0.00124549
5.49105e-05
1.34801e-05
8.03857e-06
8.74368e-06
1.38097e-05
1.971e-05
1.66621e-05
1.492e-05
1.5945e-05
1.06609e-05
9.75653e-06
8.88707e-06
6.98128e-06
5.44746e-06
3.8098e-06
2.79586e-06
2.36797e-06
3.11386e-06
1.06606e-05
0.000330646
0.00032042
0.000216549
1.26748e-05
1.08852e-05
1.14788e-05
1.74015e-05
0.000777825
0.00124407
0.00124336
3.00422e-05
4.8101e-06
1.91291e-06
1.71383e-06
1.80932e-06
2.10449e-06
2.42969e-06
2.18829e-06
1.93634e-06
2.2198e-06
3.23364e-06
2.80747e-06
2.71553e-06
2.40801e-06
2.05814e-06
1.6728e-06
1.52441e-06
1.61676e-06
1.67795e-06
1.98392e-06
6.478e-06
7.02503e-05
0.000224055
0.000173253
4.15262e-05
1.38106e-05
4.95942e-05
0.00102839
0.00124079
3.23505e-05
3.82452e-06
1.33782e-06
1.30414e-06
1.35873e-06
1.50785e-06
1.5105e-06
1.42023e-06
1.1108e-06
1.08773e-06
1.1951e-06
1.78588e-06
1.74854e-06
1.74273e-06
1.72299e-06
1.63913e-06
1.48414e-06
1.42889e-06
1.49953e-06
1.58017e-06
1.64806e-06
1.73183e-06
5.10135e-06
3.17921e-05
0.000177135
9.50094e-05
1.34069e-05
1.8822e-05
0.000707026
0.000951489
6.0872e-06
1.2922e-06
1.26454e-06
1.30426e-06
1.64994e-06
2.158e-06
2.34902e-06
2.20143e-06
1.55749e-06
1.06223e-06
1.11399e-06
1.89951e-06
2.00791e-06
2.20006e-06
2.13912e-06
2.07301e-06
1.87196e-06
1.69337e-06
1.56952e-06
1.48987e-06
1.56989e-06
1.63554e-06
1.6541e-06
4.64155e-06
7.39625e-05
9.97405e-05
1.15667e-05
1.05402e-05
0.000700831
1.47956e-05
1.7441e-06
1.25842e-06
1.25123e-06
1.41305e-06
2.20909e-06
3.26677e-06
4.15529e-06
4.30095e-06
3.52199e-06
1.41915e-06
1.14871e-06
3.8895e-06
4.37388e-06
4.395e-06
4.19599e-06
3.90664e-06
3.27346e-06
2.61101e-06
2.09838e-06
1.75234e-06
1.55034e-06
1.6005e-06
1.5952e-06
1.78977e-06
5.71933e-06
9.85791e-05
9.19228e-06
8.56519e-06
0.000463643
4.24642e-06
1.23031e-06
1.26092e-06
1.25119e-06
1.58528e-06
2.92182e-06
4.88163e-06
7.42195e-06
8.58364e-06
8.27804e-06
3.25201e-06
1.82825e-06
1.25543e-05
1.37519e-05
1.20376e-05
1.07829e-05
9.3663e-06
7.28949e-06
5.16776e-06
3.79179e-06
2.85134e-06
2.01221e-06
1.6543e-06
1.59836e-06
1.59453e-06
2.73811e-06
8.90317e-06
8.00155e-06
1.60081e-05
1.27215e-05
2.18636e-06
1.20665e-06
1.23391e-06
1.29408e-06
1.8317e-06
4.22696e-06
9.14035e-06
0.000101314
0.000299148
0.000207132
9.64755e-06
5.85366e-06
0.000880702
0.000879124
0.000880929
0.000863779
0.000483
7.66198e-05
1.24291e-05
8.71801e-06
6.1311e-06
3.86113e-06
2.23494e-06
1.73902e-06
1.75955e-06
2.71894e-06
6.72042e-06
8.04127e-06
8.43231e-05
9.19353e-06
1.86225e-06
1.1936e-06
1.23843e-06
1.39073e-06
2.36208e-06
6.70046e-06
0.000357355
0.000782644
0.000785164
0.000786933
6.15171e-05
2.05334e-05
0.000890193
0.000889523
0.000884157
0.000885572
0.000879989
0.000881335
0.000836526
0.000148705
1.437e-05
9.7444e-06
4.48362e-06
2.57028e-06
2.4453e-06
3.33937e-06
7.60129e-06
9.65029e-06
0.000147122
7.82868e-06
1.88704e-06
1.25849e-06
1.39245e-06
1.77682e-06
3.50178e-06
1.01959e-05
0.000783823
0.000787322
0.00079026
0.000161884
1.68527e-05
1.59093e-05
3.00877e-05
2.82494e-05
0.000423691
0.000891043
0.000891533
0.000885741
0.000885219
0.000880255
0.000878714
0.000532
1.10016e-05
5.67821e-06
4.3957e-06
5.10515e-06
1.08842e-05
1.48506e-05
0.000179568
7.39972e-06
2.34253e-06
1.78055e-06
2.07458e-06
2.82518e-06
6.00278e-06
1.61046e-05
0.000791098
3.35332e-05
1.28731e-05
5.48191e-06
3.55668e-06
4.82301e-06
3.86691e-06
3.30972e-06
5.15567e-06
8.99511e-06
1.50123e-05
2.19144e-05
2.50505e-05
2.88018e-05
0.000239544
0.000301382
2.06709e-05
1.2244e-05
8.58985e-06
8.77607e-06
0.000113204
4.46097e-05
0.000182911
7.96216e-06
3.72266e-06
3.14048e-06
3.77441e-06
5.57548e-06
1.16474e-05
1.67141e-05
1.01699e-05
3.74756e-06
1.97382e-06
1.64565e-06
1.65101e-06
2.20341e-06
1.80166e-06
1.42512e-06
1.45068e-06
1.69026e-06
2.26292e-06
3.03737e-06
3.73383e-06
4.65519e-06
7.24213e-06
1.20657e-05
1.6715e-05
1.49033e-05
1.29047e-05
1.47644e-05
0.000152192
0.000571372
0.000270314
1.23233e-05
5.85029e-06
5.92179e-06
7.74736e-06
1.07472e-05
1.26081e-05
5.80113e-06
2.25939e-06
1.57561e-06
1.5274e-06
1.54374e-06
1.48212e-06
1.91696e-06
1.77532e-06
1.38903e-06
1.39184e-06
1.39361e-06
1.62307e-06
1.79714e-06
1.92469e-06
1.99635e-06
2.2833e-06
3.54692e-06
6.45542e-06
9.74607e-06
1.19239e-05
0.000151035
0.000662737
0.00259513
0.00155583
0.000551784
1.06995e-05
9.91229e-06
1.27717e-05
1.18532e-05
5.88359e-06
2.3049e-06
1.58986e-06
1.55572e-06
1.5415e-06
1.51879e-06
1.5214e-06
2.31562e-06
1.92615e-06
1.38911e-06
1.41108e-06
1.49705e-06
1.8099e-06
2.06367e-06
2.2202e-06
2.09007e-06
2.09186e-06
2.63736e-06
3.74481e-06
5.37625e-06
9.55137e-06
1.91889e-05
0.00491734
0.00541386
0.00714261
0.00843935
0.000787541
2.69158e-05
1.17444e-05
6.86322e-06
2.90546e-06
1.94565e-06
1.70717e-06
1.60732e-06
1.55704e-06
1.52854e-06
1.84464e-06
3.43723e-06
2.12298e-06
1.37831e-06
1.41204e-06
1.64268e-06
2.06165e-06
2.51557e-06
2.87555e-06
2.78831e-06
2.59419e-06
2.93772e-06
3.67348e-06
4.45933e-06
1.26425e-05
1.81585e-05
0.00306344
0.00692077
0.0179871
0.0278039
0.0174182
0.00308578
1.32327e-05
5.11478e-06
2.66248e-06
2.29948e-06
2.23929e-06
2.01474e-06
1.77426e-06
1.83732e-06
2.7135e-06
5.14912e-06
2.47276e-06
1.43148e-06
1.56071e-06
1.85652e-06
2.32189e-06
2.94426e-06
3.56884e-06
3.93762e-06
3.70418e-06
3.91774e-06
4.41199e-06
5.02008e-06
8.97476e-06
0.000705551
0.00911684
0.0257498
0.0540109
0.0697195
0.06475
0.0306282
0.000495538
6.87917e-06
3.66109e-06
3.26465e-06
3.3917e-06
3.02913e-06
2.56138e-06
2.8873e-06
4.62233e-06
7.75252e-06
3.30581e-06
1.76854e-06
1.96191e-06
2.22782e-06
2.74537e-06
3.537e-06
4.50568e-06
5.46159e-06
5.35259e-06
5.4918e-06
5.84776e-06
9.78817e-06
1.22501e-05
0.0101836
0.0602461
0.0795287
0.0797511
0.079699
0.079822
0.0795323
0.0318124
3.10993e-05
6.96654e-06
4.59966e-06
4.98767e-06
4.90743e-06
4.44932e-06
5.13116e-06
7.7575e-06
1.14875e-05
5.14282e-06
2.81887e-06
2.77469e-06
2.97493e-06
3.55104e-06
4.63237e-06
6.09037e-06
7.47642e-06
7.71175e-06
7.43607e-06
8.05445e-06
1.05008e-05
0.00358902
0.0793764
0.0796181
0.0797911
0.0796114
0.0796662
0.0796591
0.0798972
0.0796982
0.0412026
0.000134012
9.53283e-06
7.16801e-06
7.26442e-06
7.76902e-06
8.66493e-06
1.08593e-05
7.15076e-05
9.05256e-06
5.64075e-06
4.50291e-06
4.45333e-06
5.04374e-06
6.53271e-06
8.65667e-06
1.03213e-05
1.05727e-05
9.16678e-06
1.02053e-05
3.37151e-05
0.0664777
0.0796258
0.0797726
0.0794047
0.0211922
0.00246203
0.0344543
0.0796232
0.0799363
0.0798489
0.0715798
0.00201086
1.35597e-05
1.06491e-05
1.11149e-05
1.22185e-05
1.17204e-05
0.000235701
4.40085e-05
1.16651e-05
8.3313e-06
7.28171e-06
7.73855e-06
9.58895e-06
1.20473e-05
1.30622e-05
1.18734e-05
1.06975e-05
1.60698e-05
0.0347068
0.0795059
0.0797766
0.0794148
0.00843115
1.63589e-05
1.14188e-05
2.22964e-05
0.0106165
0.0775078
0.079966
0.0799479
0.0793786
0.0066513
4.46091e-05
1.39902e-05
1.33892e-05
1.17379e-05
0.000430474
0.000149023
0.000243231
1.69855e-05
1.25194e-05
1.17221e-05
1.31401e-05
1.446e-05
1.31555e-05
1.22158e-05
1.60349e-05
0.0254486
0.079373
0.0797998
0.07944
0.0127638
1.536e-05
6.32577e-06
6.06673e-06
8.00668e-06
3.59546e-05
0.0120278
0.0777862
0.0799922
0.079971
0.0778144
0.00896499
8.66171e-05
1.30246e-05
1.26758e-05
0.000961777
0.000147591
0.000589263
0.00109746
0.000274303
2.26441e-05
1.49992e-05
1.40654e-05
1.38357e-05
0.000113415
0.0252503
0.0792803
0.0797556
0.0793971
0.0231019
1.50774e-05
5.77854e-06
4.47381e-06
5.27204e-06
7.52248e-06
9.13873e-05
0.00193772
0.0165339
0.0797005
0.0800028
0.079923
0.0593227
0.00275458
1.45911e-05
4.22694e-05
0.00328937
0.000159441
0.000578926
0.00208137
0.00181018
0.000635562
5.69156e-05
4.48188e-05
0.000674032
0.029932
0.0792692
0.0797434
0.0794454
0.0522318
3.77491e-05
4.89301e-06
2.59758e-06
4.7548e-06
8.2844e-06
1.28624e-05
0.00196596
0.00199966
5.62848e-05
0.0137054
0.0796936
0.0799925
0.0797803
0.0238122
0.000719882
0.0013949
0.00678398
0.00023722
3.54304e-05
0.00209642
0.00295575
0.00298765
0.00119549
0.00242549
0.0318843
0.0792601
0.0796878
0.0794081
0.0764408
0.0057803
1.93263e-05
2.78178e-06
2.239e-06
7.87403e-06
0.000377841
0.00200401
0.00199222
2.93773e-05
8.44964e-06
2.03301e-05
0.0147569
0.0796831
0.0799289
0.0748922
0.0120916
0.00566985
0.00815157
0.000239319
9.96029e-06
3.23846e-05
0.000471509
0.00467534
0.00653783
0.0305153
0.0790938
0.0795692
0.0791689
0.0309272
0.00747078
0.000365109
7.87625e-06
2.4898e-06
2.80506e-06
1.16849e-05
5.13596e-05
0.000125844
1.68543e-05
2.83401e-06
1.36566e-06
2.73725e-06
2.01238e-05
0.0232503
0.0796747
0.0797152
0.0356474
0.0114874
0.00889362
1.2943e-05
4.57602e-06
7.7748e-06
9.0801e-06
2.01873e-05
0.00755847
0.0680238
0.0790874
0.0709113
0.00447599
2.84439e-05
2.12664e-05
7.36421e-06
1.97556e-06
1.92728e-06
2.52337e-06
4.86248e-06
5.88889e-06
4.45526e-06
1.51618e-06
9.04038e-07
8.27397e-07
9.22746e-07
4.29723e-06
0.000116565
0.0749262
0.0795925
0.0531112
0.0195339
0.0100563
5.20414e-06
3.76435e-06
3.97619e-06
4.12759e-06
8.51521e-06
0.00623924
0.0677616
0.0589997
0.00016182
9.57106e-06
5.37494e-06
2.11177e-06
1.16468e-06
1.07241e-06
1.26606e-06
1.43515e-06
1.34304e-06
1.0652e-06
9.19049e-07
8.27775e-07
8.14186e-07
7.82677e-07
7.71827e-07
2.0868e-06
1.82866e-05
0.021179
0.0775503
0.0596568
0.0296947
0.0123325
6.86768e-06
3.22049e-06
3.62571e-06
3.86803e-06
4.91057e-06
2.79601e-05
0.030805
0.00227963
1.13336e-05
2.69808e-06
1.30331e-06
9.0301e-07
8.98134e-07
9.2149e-07
9.7243e-07
9.77775e-07
8.96326e-07
8.27717e-07
7.89932e-07
7.71089e-07
7.50602e-07
7.11439e-07
6.97149e-07
1.54908e-06
1.62893e-05
0.0149462
0.0545309
0.0525302
0.0367724
0.0143456
0.00377192
5.07858e-06
3.85721e-06
3.81721e-06
4.5322e-06
1.00502e-05
2.50574e-05
1.55332e-05
5.4857e-06
2.17435e-06
1.08556e-06
9.2673e-07
9.32876e-07
9.28871e-07
9.12479e-07
8.91582e-07
8.56896e-07
8.20012e-07
7.85849e-07
7.56242e-07
7.17465e-07
6.68648e-07
6.48309e-07
1.12633e-06
1.22325e-05
0.0172864
0.039007
0.0335419
0.0223087
0.00437547
0.0495866
0.00342792
8.13378e-06
5.41666e-06
5.67884e-06
6.24626e-06
9.12519e-06
5.93685e-06
6.50962e-06
2.47427e-06
1.10721e-06
9.82802e-07
9.8073e-07
9.56235e-07
9.31937e-07
9.10227e-07
8.83489e-07
8.66252e-07
8.56216e-07
8.30907e-07
7.88352e-07
7.37553e-07
7.13155e-07
9.92603e-07
6.469e-06
0.00665249
0.0125345
0.00344956
0.000872683
0.00044121
0.0505007
0.0501033
0.00657029
1.12014e-05
7.92155e-06
6.97639e-06
6.58662e-06
5.97018e-06
1.05809e-05
3.10316e-06
1.19013e-06
1.04867e-06
1.03652e-06
1.00357e-06
9.88965e-07
9.86878e-07
9.91328e-07
1.00273e-06
1.01414e-06
1.00921e-06
9.82904e-07
9.54073e-07
9.52627e-07
1.33484e-06
4.60365e-06
0.000332422
0.0014893
0.000265044
4.25436e-05
5.07804e-05
0.0505351
0.0506845
0.045341
0.00465596
1.61086e-05
8.65476e-06
7.11347e-06
7.41006e-06
1.43094e-05
3.4557e-06
1.28513e-06
1.12869e-06
1.10739e-06
1.08718e-06
1.10922e-06
1.15716e-06
1.19494e-06
1.2495e-06
1.21873e-06
1.25066e-06
1.25691e-06
1.27542e-06
1.42501e-06
2.16931e-06
5.31829e-06
7.46706e-05
0.000297792
7.48599e-05
3.54922e-05
4.48303e-05
0.00182208
0.0510976
0.0507201
0.0215128
0.00117177
1.22e-05
8.80865e-06
9.30118e-06
1.53886e-05
3.39452e-06
1.39963e-06
1.23794e-06
1.2136e-06
1.22366e-06
1.32216e-06
1.47416e-06
1.50658e-06
1.60068e-06
1.69445e-06
1.7767e-06
1.85965e-06
1.9898e-06
2.45043e-06
3.69463e-06
6.24632e-06
2.20299e-05
0.000232536
0.000136971
3.48149e-05
5.21432e-05
1.34693e-05
0.0496924
0.051756
0.0350975
0.00357508
0.000212944
1.32337e-05
1.1315e-05
1.2423e-05
3.36504e-06
1.56249e-06
1.37188e-06
1.35447e-06
1.40683e-06
1.59832e-06
1.82398e-06
2.11942e-06
2.2624e-06
2.42696e-06
2.65225e-06
2.97752e-06
3.31602e-06
4.03453e-06
5.29112e-06
6.8735e-06
8.96178e-06
0.000220548
0.000192672
6.14789e-05
6.8643e-05
1.23381e-05
0.0205049
0.05082
0.0445452
0.00543738
0.000697698
0.000167939
2.03455e-05
8.36929e-06
3.43129e-06
1.76487e-06
1.4967e-06
1.49654e-06
1.56587e-06
1.78287e-06
2.16164e-06
2.66278e-06
3.03043e-06
3.32423e-06
3.79894e-06
4.60656e-06
5.35145e-06
5.83558e-06
6.08328e-06
6.59231e-06
8.41562e-06
9.37699e-05
0.000180351
7.86482e-05
8.89053e-05
1.3085e-05
0.000724117
0.0520805
0.0456577
0.00573298
0.00138238
0.000641033
1.14321e-05
5.37068e-06
3.36662e-06
1.9091e-06
1.59021e-06
1.57775e-06
1.63373e-06
1.77855e-06
2.05016e-06
2.70088e-06
3.52099e-06
4.27289e-06
4.8763e-06
6.33831e-06
7.84985e-06
7.76798e-06
6.95731e-06
6.58946e-06
8.74945e-06
2.35532e-05
0.000132716
0.000110022
0.000129181
1.27528e-05
0.000156942
0.0498282
0.0327408
0.0054968
0.00196654
0.000893928
8.01705e-06
3.74815e-06
2.99708e-06
1.96546e-06
1.63155e-06
1.57656e-06
1.59757e-06
1.59259e-06
1.71411e-06
2.48256e-06
4.33675e-06
6.81846e-06
6.99829e-06
8.60174e-06
4.65767e-05
1.86114e-05
9.45737e-06
8.50217e-06
9.75172e-06
1.36276e-05
0.000132863
0.000133348
0.000137687
1.44454e-05
0.00034839
0.0359957
0.0143138
0.00157523
1.12567e-05
9.17023e-06
4.44855e-06
2.74088e-06
2.56212e-06
1.94589e-06
1.62886e-06
1.54561e-06
1.52468e-06
1.42678e-06
1.64307e-06
2.96164e-06
7.87019e-06
0.000273438
4.32682e-05
0.000164399
0.000340906
0.000283161
0.000175606
3.52868e-05
1.14458e-05
1.13042e-05
0.000133415
0.000133278
2.73726e-05
1.50207e-05
0.00246529
0.0282891
0.00141353
9.3652e-06
2.97973e-06
2.35994e-06
2.24548e-06
1.81051e-06
1.98901e-06
1.8331e-06
1.59827e-06
1.50453e-06
1.45903e-06
1.76068e-06
2.92721e-06
6.23419e-06
8.43173e-05
0.000274325
0.000175558
0.000414011
0.000414047
0.000414751
0.000415505
0.000126336
9.06227e-06
7.56706e-06
0.000134245
0.000117334
1.41837e-05
2.00697e-05
0.00283926
0.0118318
1.59177e-05
2.15814e-06
1.11368e-06
9.91899e-07
1.17036e-06
1.22441e-06
1.46397e-06
1.6019e-06
1.50668e-06
1.41991e-06
1.67372e-06
3.57284e-06
8.6201e-06
2.02796e-05
7.80328e-05
0.000242465
5.95857e-05
0.000414604
0.000415591
1.27922e-05
1.11105e-05
8.43963e-06
4.9987e-06
4.51144e-06
8.39921e-06
1.0779e-05
1.36223e-05
0.00037602
1.06208e-05
0.000710413
3.12381e-06
8.07214e-07
6.57888e-07
7.00626e-07
7.93276e-07
9.02441e-07
1.12459e-06
1.34414e-06
1.36556e-06
1.34537e-06
2.07396e-06
5.25891e-06
9.86599e-06
2.60433e-05
0.000260588
0.000580127
5.97078e-05
6.41188e-05
1.04952e-05
5.97215e-06
4.7136e-06
4.19465e-06
3.91191e-06
3.94536e-06
4.83683e-06
7.11877e-06
1.3412e-05
0.000387001
4.12971e-06
5.83273e-06
1.16175e-06
6.5922e-07
5.41616e-07
5.99776e-07
6.64689e-07
7.99471e-07
9.75599e-07
1.16598e-06
1.2239e-06
1.21555e-06
1.85223e-06
4.79898e-06
8.33098e-06
2.48003e-05
0.000266101
0.000578832
0.000565507
8.82775e-06
5.58593e-06
4.2202e-06
3.50747e-06
3.52255e-06
3.69399e-06
3.77451e-06
4.13711e-06
5.48601e-06
1.37426e-05
2.18487e-05
1.78551e-06
2.21023e-06
1.63987e-06
1.2612e-06
5.58822e-07
5.51446e-07
6.25706e-07
7.80575e-07
9.50006e-07
1.08261e-06
1.13133e-06
1.07835e-06
1.60939e-06
4.15004e-06
7.05087e-06
8.81213e-06
2.52691e-05
0.00051895
0.000562024
0.000315494
8.18933e-06
5.96418e-06
4.58439e-06
3.41466e-06
3.46965e-06
3.60689e-06
3.83655e-06
5.30487e-06
3.34626e-05
1.1384e-05
1.65276e-06
2.22309e-06
3.1883e-06
5.83462e-06
1.27044e-06
5.02911e-07
6.03658e-07
7.8169e-07
9.42364e-07
1.0461e-06
1.07601e-06
1.00624e-06
1.39337e-06
2.84002e-06
4.47366e-06
5.73e-06
6.02032e-06
8.46578e-06
0.000317333
0.000413427
0.000418966
5.49046e-05
7.37148e-06
4.91891e-06
3.71868e-06
3.40145e-06
3.59454e-06
5.19182e-06
0.000149597
7.27002e-06
1.5689e-06
2.07405e-06
4.52031e-06
1.39963e-05
1.23081e-05
9.18587e-07
6.14646e-07
7.8806e-07
9.31985e-07
1.01228e-06
1.03941e-06
9.58109e-07
1.03557e-06
1.40771e-06
1.94793e-06
2.48775e-06
3.01614e-06
5.17725e-06
7.06433e-06
0.000223674
0.000427329
0.000431518
0.000184879
8.2695e-06
5.63299e-06
4.38769e-06
4.2055e-06
5.41228e-06
0.000234842
4.48123e-06
1.35901e-06
1.76825e-06
3.95025e-06
9.08321e-06
2.33593e-05
1.10505e-05
1.02834e-06
7.95579e-07
9.1504e-07
9.82342e-07
1.00899e-06
9.08229e-07
7.96181e-07
8.27721e-07
8.92498e-07
1.11932e-06
1.44183e-06
2.45782e-06
5.74339e-06
1.5943e-05
0.000280085
0.000429437
0.000432986
0.000275152
8.45884e-06
6.54727e-06
6.12264e-06
5.16352e-06
2.06972e-05
4.60063e-06
1.14444e-06
1.51499e-06
2.53644e-06
5.06073e-06
1.07772e-05
2.59789e-05
3.51328e-06
8.62913e-07
8.97149e-07
9.46971e-07
9.6329e-07
8.68097e-07
7.18155e-07
6.46776e-07
6.44434e-07
6.93486e-07
9.27338e-07
1.45984e-06
4.43648e-06
1.31557e-05
8.94938e-06
2.69993e-05
0.000433967
0.00064854
0.000206344
8.35289e-06
7.68328e-06
4.07517e-06
1.29942e-05
0.00033761
3.08522e-06
1.67853e-06
2.05002e-06
3.65036e-06
5.30052e-06
1.47494e-05
4.35151e-06
8.63429e-07
8.7121e-07
9.17622e-07
9.23476e-07
8.50027e-07
7.18182e-07
6.38309e-07
6.03978e-07
6.36483e-07
8.0622e-07
1.41245e-06
5.52566e-06
1.44922e-05
7.17948e-06
5.67414e-06
9.01511e-05
0.000851216
0.00080978
0.000116306
7.02118e-06
2.80283e-06
1.33085e-05
0.00262518
0.000206214
3.63022e-06
2.47187e-06
3.06505e-06
4.49908e-06
6.64733e-06
3.59468e-06
8.68174e-07
8.24383e-07
8.90822e-07
8.98243e-07
8.3945e-07
7.2845e-07
6.6334e-07
6.3523e-07
6.73573e-07
8.64315e-07
1.54401e-06
4.08986e-06
1.07945e-05
8.10757e-06
6.69168e-06
0.000384445
0.00299848
0.00303216
0.00107773
6.58075e-06
2.48457e-06
1.35543e-05
0.00263008
0.00212864
7.99509e-05
3.41295e-06
4.44881e-06
6.14352e-06
2.08298e-06
1.78493e-06
8.52616e-07
7.548e-07
8.24485e-07
8.41866e-07
8.05603e-07
7.23151e-07
6.67617e-07
6.63312e-07
7.40025e-07
9.82175e-07
1.76379e-06
3.11938e-06
5.88776e-06
6.5016e-06
1.03592e-05
0.00282278
0.00514498
0.0051457
0.00418805
6.98338e-06
2.19736e-06
1.30782e-05
0.00263185
0.00290171
0.000969481
6.95178e-06
1.0705e-05
8.96183e-06
1.75311e-06
9.39055e-07
7.74116e-07
6.82665e-07
7.06009e-07
7.30841e-07
7.12301e-07
6.94053e-07
6.77755e-07
6.99255e-07
8.16858e-07
1.15678e-06
1.97771e-06
3.03787e-06
4.06824e-06
4.68247e-06
1.61804e-05
3.79133e-05
0.00479611
0.00514871
0.00512797
7.46392e-06
1.89137e-06
1.4586e-05
0.00263089
0.00292604
0.0049069
0.0025448
0.00144883
1.01857e-05
2.43847e-06
8.61587e-07
7.46514e-07
6.72717e-07
6.40431e-07
6.61169e-07
6.67642e-07
6.94208e-07
7.51972e-07
8.41924e-07
1.01812e-06
1.58318e-06
2.55913e-06
3.71649e-06
5.31918e-06
1.09389e-05
3.23038e-05
6.43289e-06
5.3827e-06
0.00162918
0.0051008
7.4257e-06
1.91051e-06
0.000105246
0.00326211
0.00612091
0.00617247
0.00611533
0.00534315
1.61208e-05
3.84645e-06
2.09537e-06
1.76982e-06
1.51186e-06
1.20789e-06
1.04055e-06
1.00416e-06
1.0416e-06
1.14467e-06
1.39303e-06
1.94494e-06
3.07952e-06
4.71966e-06
7.87922e-06
1.39443e-05
3.01e-05
6.52404e-06
1.27168e-06
9.91374e-07
6.78722e-06
0.000234647
6.71518e-06
7.52059e-06
0.00241299
0.00362254
0.00134096
0.00603656
0.00010736
1.47155e-05
3.39579e-05
2.25045e-05
2.16126e-05
1.97585e-05
1.40213e-05
8.63158e-06
5.04662e-06
3.77295e-06
3.28783e-06
3.37943e-06
4.03129e-06
5.64724e-06
8.9474e-06
1.36859e-05
2.41912e-05
2.05551e-05
3.95637e-06
1.07819e-06
7.95274e-07
7.70523e-07
2.57469e-06
8.31071e-06
7.63148e-06
0.00240958
0.00242063
3.97313e-05
6.11049e-06
1.56194e-05
3.26502e-06
1.47691e-06
7.77949e-06
1.61666e-05
2.33761e-05
3.49561e-05
3.30862e-05
3.03658e-05
2.65829e-05
2.24392e-05
1.7661e-05
1.53759e-05
1.55657e-05
1.68638e-05
2.13324e-05
1.82606e-05
6.63944e-06
1.87273e-06
8.85098e-07
7.92112e-07
7.70977e-07
7.62986e-07
1.63896e-06
9.05018e-06
0.00240181
0.00242133
0.000692703
1.21044e-05
1.40731e-06
2.84879e-06
1.092e-06
7.81035e-07
1.0755e-06
1.58453e-06
1.88219e-06
3.1097e-06
6.79315e-06
1.08264e-05
1.34908e-05
1.35861e-05
1.25178e-05
1.17559e-05
1.03362e-05
8.18707e-06
4.53202e-06
1.99513e-06
1.01116e-06
8.15096e-07
7.93074e-07
7.84264e-07
7.58809e-07
7.32047e-07
1.12037e-06
1.35272e-05
0.00241432
0.00241179
3.6738e-05
9.9816e-06
1.14665e-06
2.16356e-06
1.01127e-06
7.27155e-07
7.66566e-07
7.44808e-07
7.34966e-07
7.88728e-07
8.92632e-07
1.02495e-06
1.2211e-06
1.46554e-06
1.70075e-06
1.71947e-06
1.5168e-06
1.24116e-06
9.36165e-07
8.27396e-07
8.05115e-07
8.00621e-07
7.93632e-07
7.7429e-07
7.42791e-07
6.96908e-07
7.0484e-07
4.54144e-06
0.000386949
1.41866e-05
2.62471e-05
1.13421e-05
1.17938e-06
2.76572e-06
9.24492e-07
6.79946e-07
7.14499e-07
7.02252e-07
6.9575e-07
7.16028e-07
7.33732e-07
7.52435e-07
7.86465e-07
8.27985e-07
8.59221e-07
8.64923e-07
8.53109e-07
8.36265e-07
8.22862e-07
8.14987e-07
8.10216e-07
8.02389e-07
7.88808e-07
7.59627e-07
7.3329e-07
6.86666e-07
6.32563e-07
8.68308e-07
6.73136e-06
3.27593e-06
1.96006e-05
1.34429e-05
1.65673e-06
3.5952e-06
8.36593e-07
6.32859e-07
6.66428e-07
6.73296e-07
6.87129e-07
7.15225e-07
7.27855e-07
7.38824e-07
7.75051e-07
8.24607e-07
8.50255e-07
8.55362e-07
8.49216e-07
8.4038e-07
8.30518e-07
8.20735e-07
8.11739e-07
7.99693e-07
7.81237e-07
7.50231e-07
7.19779e-07
6.75079e-07
6.30023e-07
6.18712e-07
1.49665e-06
1.26627e-06
1.4625e-05
1.51842e-05
2.68057e-06
4.83263e-06
7.60171e-07
5.96281e-07
6.33866e-07
6.59516e-07
6.87101e-07
7.13786e-07
7.22788e-07
7.26008e-07
7.74545e-07
8.27931e-07
8.52069e-07
8.57391e-07
8.51726e-07
8.42794e-07
8.32543e-07
8.22107e-07
8.11001e-07
7.96367e-07
7.75511e-07
7.40151e-07
7.04607e-07
6.56447e-07
6.08595e-07
7.75098e-07
1.11362e-06
1.04425e-06
1.17831e-05
1.77157e-05
5.03038e-06
6.17131e-06
7.0051e-07
5.61533e-07
6.07612e-07
6.49311e-07
6.86824e-07
7.0985e-07
7.02798e-07
7.13146e-07
7.82934e-07
8.29331e-07
8.49799e-07
8.53614e-07
8.49906e-07
8.42128e-07
8.32423e-07
8.21561e-07
8.07349e-07
7.89931e-07
7.62242e-07
7.25116e-07
6.90842e-07
6.41495e-07
6.03488e-07
8.43003e-07
1.14575e-06
1.00951e-06
9.9256e-06
1.9667e-05
7.98399e-06
8.1046e-06
6.74746e-07
5.41722e-07
5.96988e-07
6.5066e-07
6.85662e-07
7.02221e-07
6.76152e-07
7.17245e-07
7.90577e-07
8.28812e-07
8.44539e-07
8.47989e-07
8.45792e-07
8.38302e-07
8.28619e-07
8.16515e-07
7.99225e-07
7.78613e-07
7.5216e-07
7.18024e-07
6.75197e-07
6.22316e-07
5.86814e-07
8.61176e-07
1.23498e-06
1.01208e-06
1.04556e-05
2.15491e-05
1.30549e-05
6.35897e-06
6.40741e-07
5.45367e-07
6.11557e-07
6.65514e-07
6.81645e-07
6.65848e-07
6.65917e-07
7.30651e-07
7.92592e-07
8.25652e-07
8.3789e-07
8.40754e-07
8.38123e-07
8.31718e-07
8.21926e-07
8.08392e-07
7.90791e-07
7.70036e-07
7.41663e-07
7.01963e-07
6.57057e-07
6.08131e-07
5.72057e-07
8.94261e-07
1.45267e-06
9.97809e-07
1.07945e-05
2.33872e-05
1.30709e-05
3.5028e-06
6.34637e-07
5.91698e-07
6.50473e-07
6.69009e-07
6.52462e-07
6.25821e-07
6.76937e-07
7.42922e-07
7.91941e-07
8.18702e-07
8.29098e-07
8.31635e-07
8.29454e-07
8.23778e-07
8.12813e-07
7.98515e-07
7.79347e-07
7.56163e-07
7.25904e-07
6.87426e-07
6.45665e-07
5.93619e-07
5.53602e-07
9.02807e-07
1.83756e-06
1.05228e-06
1.17053e-05
2.38662e-05
1.29163e-05
2.18564e-06
6.49319e-07
6.53004e-07
6.86515e-07
6.49809e-07
5.8518e-07
6.10056e-07
6.90185e-07
7.48195e-07
7.8819e-07
8.09814e-07
8.17929e-07
8.19672e-07
8.17982e-07
8.12274e-07
8.01055e-07
7.85486e-07
7.65493e-07
7.43231e-07
7.13837e-07
6.76901e-07
6.32443e-07
5.78022e-07
5.35037e-07
9.30891e-07
2.446e-06
1.80947e-06
1.6162e-05
2.3498e-05
1.00794e-05
1.5088e-06
6.82487e-07
7.10562e-07
6.81974e-07
5.80783e-07
5.40346e-07
6.02598e-07
6.94795e-07
7.50054e-07
7.8263e-07
8.00206e-07
8.06646e-07
8.07834e-07
8.06135e-07
8.00159e-07
7.89033e-07
7.73839e-07
7.53786e-07
7.30901e-07
7.02378e-07
6.65246e-07
6.21629e-07
5.68986e-07
5.29166e-07
9.63019e-07
3.3902e-06
4.5616e-06
0.000351904
2.23788e-05
9.95352e-06
1.15928e-06
6.9116e-07
7.21618e-07
6.28922e-07
5.14562e-07
5.23948e-07
6.00844e-07
6.95631e-07
7.50803e-07
7.77129e-07
7.90232e-07
7.95876e-07
7.96675e-07
7.93373e-07
7.86916e-07
7.75653e-07
7.60325e-07
7.40059e-07
7.17233e-07
6.9204e-07
6.57564e-07
6.15351e-07
5.61129e-07
5.23951e-07
1.04746e-06
5.44556e-06
0.000174521
0.00134851
0.000487125
0.000117512
1.11584e-06
6.9589e-07
6.67499e-07
5.29522e-07
4.8185e-07
5.2114e-07
6.02717e-07
6.91834e-07
7.48333e-07
7.70757e-07
7.79776e-07
7.85148e-07
7.86304e-07
7.80814e-07
7.74398e-07
7.63272e-07
7.46943e-07
7.28917e-07
7.06272e-07
6.83594e-07
6.49533e-07
6.1116e-07
5.59103e-07
5.29251e-07
1.1091e-06
0.000577717
0.00134121
0.00134927
0.000616986
0.000605704
1.46591e-06
6.71173e-07
5.60815e-07
4.70606e-07
4.64915e-07
5.2402e-07
6.07261e-07
6.89745e-07
7.43667e-07
7.64817e-07
7.70287e-07
7.72626e-07
7.73691e-07
7.66917e-07
7.59634e-07
7.48369e-07
7.32481e-07
7.15628e-07
6.94205e-07
6.74298e-07
6.44653e-07
6.11121e-07
5.61357e-07
5.28003e-07
1.19995e-06
0.00133666
0.00134413
0.00105418
0.000618725
0.000607049
1.69161e-06
6.00935e-07
4.92263e-07
4.54632e-07
4.76793e-07
5.30834e-07
6.08274e-07
6.929e-07
7.40289e-07
7.5982e-07
7.63088e-07
7.59853e-07
7.5977e-07
7.53877e-07
7.43644e-07
7.32957e-07
7.18993e-07
7.0258e-07
6.84982e-07
6.66709e-07
6.40782e-07
6.12525e-07
5.64399e-07
5.20003e-07
1.02915e-06
0.000122428
0.00135036
0.00120346
0.000619627
0.000606557
1.53935e-06
5.5985e-07
4.73636e-07
4.7823e-07
5.1301e-07
5.4651e-07
6.08419e-07
6.9729e-07
7.38491e-07
7.53211e-07
7.56949e-07
7.49759e-07
7.45673e-07
7.40944e-07
7.29232e-07
7.18711e-07
7.0607e-07
6.90275e-07
6.76419e-07
6.58135e-07
6.3715e-07
6.13157e-07
5.63961e-07
5.23839e-07
8.72532e-07
7.37874e-06
0.000134744
0.000142263
0.000619859
0.0003707
1.73429e-06
6.84632e-07
5.45435e-07
5.41729e-07
5.495e-07
5.52512e-07
6.07094e-07
6.97904e-07
7.35403e-07
7.43935e-07
7.47818e-07
7.40127e-07
7.28891e-07
7.26386e-07
7.14201e-07
7.03453e-07
6.92127e-07
6.79042e-07
6.6646e-07
6.49769e-07
6.3331e-07
6.08312e-07
5.63898e-07
5.28251e-07
9.50255e-07
3.44582e-06
3.33664e-06
2.65799e-05
0.000618081
0.000572591
2.21299e-06
1.18732e-06
7.76601e-07
6.29319e-07
5.6653e-07
5.52334e-07
6.08419e-07
6.95911e-07
7.29349e-07
7.33106e-07
7.33241e-07
7.2825e-07
7.10397e-07
7.07884e-07
6.97845e-07
6.87088e-07
6.77736e-07
6.6582e-07
6.55401e-07
6.42658e-07
6.27553e-07
6.04392e-07
5.64729e-07
5.35632e-07
1.10698e-06
3.8815e-06
2.48591e-06
1.36716e-05
0.000617586
0.000604758
2.93843e-06
2.11508e-06
1.23248e-06
7.07345e-07
5.69238e-07
5.46014e-07
6.07282e-07
6.87165e-07
7.1814e-07
7.22309e-07
7.16415e-07
7.08338e-07
6.92819e-07
6.86504e-07
6.80015e-07
6.69535e-07
6.61707e-07
6.52177e-07
6.42459e-07
6.35287e-07
6.22294e-07
6.00033e-07
5.65456e-07
5.39296e-07
1.30277e-06
4.27192e-06
2.2718e-06
1.31298e-05
0.000618539
2.45304e-05
3.4549e-06
3.18095e-06
1.64696e-06
7.42226e-07
5.54633e-07
5.39247e-07
6.02337e-07
6.68789e-07
6.98996e-07
7.07284e-07
6.99214e-07
6.8116e-07
6.73264e-07
6.64363e-07
6.5879e-07
6.50508e-07
6.44365e-07
6.37325e-07
6.30098e-07
6.25487e-07
6.14548e-07
5.96187e-07
5.64968e-07
5.46731e-07
1.61034e-06
4.91999e-06
2.06744e-06
1.33801e-05
0.000621178
5.50825e-06
4.11286e-06
3.9513e-06
1.75661e-06
7.37581e-07
5.36458e-07
5.30873e-07
5.9574e-07
6.51683e-07
6.78328e-07
6.87437e-07
6.77876e-07
6.56971e-07
6.48693e-07
6.43378e-07
6.37451e-07
6.30912e-07
6.26594e-07
6.2073e-07
6.16639e-07
6.13738e-07
6.07483e-07
5.926e-07
5.66022e-07
5.61403e-07
2.043e-06
7.19405e-06
2.71958e-06
1.39041e-05
1.75165e-05
4.44454e-06
4.53372e-06
3.75038e-06
1.45548e-06
6.7789e-07
5.25448e-07
5.23198e-07
5.81173e-07
6.36567e-07
6.59204e-07
6.66222e-07
6.53492e-07
6.35127e-07
6.26536e-07
6.23856e-07
6.17928e-07
6.12444e-07
6.08738e-07
6.05067e-07
6.0097e-07
6.02046e-07
6.00916e-07
5.86633e-07
5.66529e-07
5.85873e-07
2.42908e-06
3.2009e-05
2.45451e-05
0.000980738
1.38493e-05
4.27914e-06
5.12065e-06
3.60999e-06
1.20977e-06
6.34172e-07
5.22129e-07
5.15772e-07
5.63182e-07
6.15111e-07
6.34592e-07
6.40244e-07
6.28395e-07
6.19651e-07
6.10279e-07
6.05287e-07
6.00225e-07
5.95187e-07
5.9193e-07
5.89293e-07
5.85788e-07
5.8976e-07
5.92176e-07
5.82564e-07
5.69327e-07