/*--------------------------------*- C++ -*----------------------------------*\
| =========                 |                                                 |
| \\      /  F ield         | OpenFOAM: The Open Source CFD Toolbox           |
|  \\    /   O peration     | Version:  v1606+                                |
|   \\  /    A nd           | Web:      www.OpenFOAM.com                      |
|    \\/     M anipulation  |                                                 |
\*---------------------------------------------------------------------------*/
FoamFile
{
    version     2.0;
    format      ascii;
    class       surfaceVectorField;
    location    "1.4";
    object      Uf;
}
// * * * * * * * * * * * * * * * * * * * * * * * * * * * * * * * * * * * * * //

dimensions      [0 1 -1 0 0 0 0];

internalField   nonuniform List<vector> 
1460
(
(0.00369403 0.0597207 6.8757e-21)
(-0.00091271 0.0533534 -1.03925e-20)
(-0.00656351 0.0584553 -1.88029e-22)
(0.0128651 0.0589833 4.15862e-20)
(0.00791414 0.0533234 2.36975e-20)
(0.0214628 0.0566028 2.76923e-20)
(0.0160774 0.0516619 -5.11566e-21)
(0.0297394 0.0526549 -6.71002e-20)
(0.0238125 0.0489504 0)
(0.0376463 0.047223 -8.03981e-20)
(0.0311249 0.044832 -1.63284e-20)
(0.0448705 0.0407942 6.21669e-20)
(0.0380153 0.039326 -6.37142e-20)
(0.0509018 0.033652 7.5676e-20)
(0.0440753 0.0325307 5.10241e-20)
(0.0547444 0.0255665 4.27743e-20)
(0.0483993 0.0246947 -1.97777e-21)
(0.0546643 0.01608 2.86391e-20)
(0.0495166 0.0159379 2.17221e-20)
(0.0486639 0.00575629 6.57785e-22)
(0.0455022 0.00635857 -1.42295e-20)
(0.0372644 -0.00284832 3.566e-20)
(0.0349851 -0.00346172 1.44639e-20)
(0.0149921 -0.0141587 6.23988e-20)
(0.00310493 0.0466379 6.56223e-21)
(-0.000790363 0.0416467 -3.37133e-21)
(-0.0055411 0.0460553 -6.5051e-21)
(0.0109499 0.0457087 -2.34335e-20)
(0.00662088 0.0411975 -3.08313e-21)
(0.0182487 0.043832 -3.32142e-20)
(0.0136826 0.039626 -7.36249e-21)
(0.0251058 0.0409979 5.15633e-20)
(0.020304 0.0371159 1.25649e-20)
(0.0315207 0.036862 6.29318e-22)
(0.0264439 0.0337711 -2.37167e-20)
(0.0372835 0.0310452 -7.64566e-20)
(0.0321004 0.0294665 -1.53794e-20)
(0.0416456 0.0236 -2.73404e-20)
(0.0368831 0.0239386 -9.50017e-20)
(0.0433065 0.0150942 -2.33012e-20)
(0.0397679 0.0171393 1.84577e-20)
(0.0405072 0.00609953 -2.14808e-20)
(0.0390054 0.00944124 -2.40956e-20)
(0.0312578 -0.00333826 0)
(0.0323911 0.00155718 -3.06094e-21)
(0.0139353 -0.0136171 4.12399e-20)
(0.0181485 -0.00605599 -7.36389e-20)
(-0.00892267 -0.0204745 7.74091e-21)
(0.0024698 0.0359794 -1.29956e-20)
(-0.00072066 0.0322695 0)
(-0.00457825 0.0355396 0)
(0.00911699 0.0349535 1.28912e-20)
(0.00548181 0.0318633 1.10196e-20)
(0.015399 0.0328111 3.85327e-20)
(0.011483 0.0301972 2.60466e-20)
(0.0212926 0.0298788 -6.26668e-20)
(0.0171465 0.0274515 6.06613e-20)
(0.0267457 0.0264434 -3.92636e-20)
(0.0224156 0.0239017 -7.57664e-20)
(0.0315141 0.0224533 -3.34514e-20)
(0.0271988 0.0198494 5.95559e-20)
(0.0348683 0.0175325 -4.91693e-20)
(0.0310722 0.0155156 1.9395e-20)
(0.0353601 0.0114589 1.78007e-20)
(0.0330358 0.0109186 -7.13194e-22)
(0.0309091 0.0046949 -6.05808e-21)
(0.0312695 0.00597093 -2.50844e-21)
(0.0190417 -0.0023287 -7.93206e-20)
(0.0230202 0.00110717 -3.09972e-21)
(-0.00272911 -0.011982 -1.13593e-19)
(0.00466078 -0.00311134 -8.66461e-20)
(-0.0271696 -0.0139586 -2.72543e-20)
(0.00203392 0.0280126 2.42452e-20)
(-0.0038084 0.0277132 0)
(-0.000675181 0.0255073 -5.62354e-21)
(0.00761726 0.0270093 2.42452e-20)
(0.00456283 0.025126 8.33212e-22)
(0.012927 0.0247899 4.82351e-20)
(0.00963218 0.0235318 0)
(0.0179253 0.021504 4.82351e-20)
(0.0144037 0.0207588 1.39001e-21)
(0.0225318 0.017443 2.33642e-20)
(0.0188043 0.0168857 -1.12702e-20)
(0.0264536 0.013091 1.12436e-19)
(0.0226878 0.0121251 -3.25202e-20)
(0.028931 0.00900327 6.78652e-20)
(0.0255637 0.00703467 1.1164e-19)
(0.0284716 0.00540652 -2.15671e-20)
(0.0263508 0.00248997 -2.16956e-20)
(0.0225597 0.00239098 0)
(0.023179 -0.000913144 0)
(0.00765629 0.000702145 -1.7173e-20)
(0.0132623 -0.00268485 1.59387e-20)
(-0.0192893 -0.000748518 -1.28632e-20)
(-0.00766861 -0.00190605 2.38554e-20)
(-0.0337748 0.00622272 1.26202e-20)
(-0.0179923 0.0121928 -3.71937e-21)
(-0.00977943 0.0234496 2.21468e-21)
(-0.0111523 0.00226455 1.65578e-21)
(-0.00470632 0.0164985 4.37249e-21)
(-0.00233897 -0.0121104 9.64955e-21)
(0.00374581 0.00266041 -4.48119e-21)
(0.00593524 -0.0281141 1.03868e-20)
(0.0134789 -0.0134672 7.48958e-21)
(0.0096074 -0.0423236 -2.66727e-20)
(0.0193269 -0.0292419 -5.20391e-21)
(0.00530531 -0.0516268 -3.95342e-20)
(0.0166264 -0.0412682 -1.72712e-20)
(-0.00632288 -0.0542702 -2.09483e-20)
(0.00553124 -0.0472959 -1.50682e-20)
(-0.0214014 -0.0503155 -7.17115e-21)
(-0.00970512 -0.0469138 -3.12533e-20)
(-0.0359993 -0.041551 0)
(-0.0250105 -0.0411756 -9.12792e-21)
(-0.047508 -0.0302426 -1.30278e-20)
(-0.0376765 -0.0322026 2.22199e-20)
(-0.0550428 -0.0182017 -1.31743e-20)
(-0.0465264 -0.0217577 -2.82992e-20)
(-0.0516332 -0.0110833 -3.58418e-21)
(-0.0589478 -0.00662536 2.07655e-20)
(0.00338038 0.0305051 2.28233e-20)
(0.00966159 0.039692 2.32364e-20)
(0.00975552 0.0185808 0)
(0.0124745 0.0325557 8.81829e-21)
(0.0194514 0.00276919 -3.41832e-21)
(0.0210727 0.0160459 1.49603e-21)
(0.025787 -0.0137468 -6.52201e-21)
(0.0292419 -0.00126555 4.55109e-22)
(0.0246574 -0.0280713 8.5764e-21)
(0.0310124 -0.0176352 -2.84276e-21)
(0.0157202 -0.0374045 8.49215e-21)
(0.0240386 -0.0299095 8.54662e-21)
(0.00163342 -0.040761 -2.41957e-20)
(0.0106702 -0.0360741 7.27215e-21)
(-0.0135201 -0.0386388 -3.29781e-20)
(-0.00441383 -0.0365516 -7.97125e-21)
(-0.0267042 -0.0324915 1.31799e-20)
(-0.0180169 -0.0324701 -4.00089e-22)
(-0.0365735 -0.0241205 7.08263e-21)
(-0.0287289 -0.0256282 2.55129e-22)
(-0.0429149 -0.0148741 -1.86639e-20)
(-0.0360461 -0.017474 -3.30178e-21)
(-0.0402313 -0.00897575 -9.46567e-21)
(-0.0461306 -0.00560466 -1.35713e-20)
(0.0172548 0.0431883 -5.49413e-21)
(0.0208816 0.0491172 -2.72724e-21)
(0.0230784 0.0309757 9.54805e-21)
(0.0202853 0.0412751 4.20078e-21)
(0.0307721 0.0134178 5.42618e-21)
(0.0271324 0.0232258 -2.73327e-21)
(0.0333608 -0.00407457 9.17195e-21)
(0.0326257 0.00568226 2.40696e-21)
(0.028549 -0.0187135 4.40057e-21)
(0.0312097 -0.0101493 -1.94055e-20)
(0.0176157 -0.028134 7.31909e-21)
(0.0227864 -0.0216213 -1.12698e-20)
(0.00407037 -0.0317254 2.4351e-20)
(0.010296 -0.0275629 4.47273e-20)
(-0.00918714 -0.0305351 2.51051e-20)
(-0.00259019 -0.0285232 1.66197e-20)
(-0.0201885 -0.0259348 -1.29913e-20)
(-0.0136186 -0.0257 4.51899e-20)
(-0.0281866 -0.0193977 -1.00317e-20)
(-0.022143 -0.020545 -2.20317e-20)
(-0.0332507 -0.0120339 5.775e-21)
(-0.0279473 -0.0141763 -9.79274e-21)
(-0.0312731 -0.00737262 5.60619e-21)
(-0.0357788 -0.00453808 -2.19474e-20)
(0.020509 0.0438454 1.88399e-21)
(0.0115671 0.0420773 -3.45831e-20)
(0.0238699 0.0347273 -1.41944e-20)
(0.0131788 0.0375646 -3.46142e-20)
(0.0291302 0.0169389 -3.22465e-21)
(0.0214211 0.0233263 2.34915e-20)
(0.0298786 6.31579e-05 -2.58486e-20)
(0.0268666 0.00758701 -1.55652e-21)
(0.0243608 -0.0132558 -3.53212e-20)
(0.025097 -0.0063184 6.92083e-21)
(0.0145206 -0.0215481 2.43192e-20)
(0.017912 -0.0162079 9.1454e-23)
(0.0033745 -0.0248034 3.75952e-20)
(0.00795463 -0.021521 -2.79429e-23)
(-0.00715909 -0.0241482 3.64549e-20)
(-0.0021458 -0.0226139 -2.2315e-20)
(-0.0157421 -0.020744 3.64549e-20)
(-0.0107154 -0.020676 -7.41983e-21)
(-0.0219839 -0.0156924 -2.18659e-20)
(-0.0173933 -0.0167472 0)
(-0.0259626 -0.00984367 -1.01579e-20)
(-0.0220171 -0.0116998 -6.31139e-22)
(-0.0279428 -0.00376175 3.29428e-20)
(-0.0247121 -0.00617096 6.14009e-21)
(-0.0601014 0.00389474 2.0912e-20)
(-0.0536987 -0.000941337 1.07989e-20)
(-0.0591981 0.0133099 2.768e-20)
(-0.0535535 0.00825599 -3.34775e-21)
(-0.0566674 0.021927 2.03943e-22)
(-0.0518556 0.0165719 7.44047e-22)
(-0.0525939 0.0300776 -2.7476e-20)
(-0.0489341 0.0241845 -2.76593e-20)
(-0.0471453 0.0378307 -2.6641e-20)
(-0.0447484 0.0313552 -6.44023e-20)
(-0.0407237 0.0449352 -2.67053e-20)
(-0.0392177 0.0381146 -6.47375e-20)
(-0.0335774 0.0508576 9.50882e-20)
(-0.0324248 0.0440577 -5.89669e-22)
(-0.0254734 0.0545889 1.15503e-19)
(-0.0245935 0.0482713 1.17485e-19)
(-0.0159758 0.0543961 -3.50201e-20)
(-0.0158412 0.049282 -4.25204e-20)
(-0.00567006 0.0483191 -6.96266e-20)
(-0.0062815 0.0451919 1.14811e-20)
(0.00292087 0.0369875 -3.77726e-20)
(0.00351032 0.0346985 -1.47787e-20)
(0.0142425 0.0148689 1.92414e-20)
(0.0130697 0.0235786 -2.15986e-20)
(-0.046896 0.00320635 -1.35873e-20)
(-0.0418345 -0.000711547 -2.59993e-20)
(-0.0459344 0.0112943 -3.04221e-20)
(-0.0414792 0.00695824 -1.96539e-22)
(-0.0439119 0.0186232 -2.70519e-20)
(-0.039759 0.0140794 -2.72254e-20)
(-0.0409517 0.0253594 -6.48348e-20)
(-0.0371122 0.0205857 -5.04153e-20)
(-0.0367388 0.0316461 -1.03251e-19)
(-0.033685 0.0266037 -1.71743e-21)
(-0.0308965 0.0372907 -3.93294e-20)
(-0.0293297 0.032147 2.1106e-20)
(-0.0234634 0.0415426 2.06916e-20)
(-0.0237864 0.0368219 -7.20022e-20)
(-0.0149839 0.0431026 -4.12836e-20)
(-0.0170064 0.0396061 -6.45051e-20)
(-0.00601721 0.0402338 5.26734e-21)
(-0.00935222 0.0387665 -1.41973e-19)
(0.00339154 0.030997 6.83399e-20)
(-0.00152748 0.0321385 1.53671e-19)
(0.0136584 0.013807 4.27726e-20)
(0.00602213 0.018004 -1.59259e-20)
(0.0205173 -0.00887075 -3.80785e-20)
(0.0293851 -0.00172713 4.27726e-20)
(-0.0362459 0.00269145 -1.26158e-20)
(-0.0325138 -0.000619304 5.32729e-21)
(-0.0351251 0.00944286 3.21593e-21)
(-0.032071 0.00576185 6.27445e-21)
(-0.0328459 0.0156824 -5.07407e-20)
(-0.0302731 0.0117858 0)
(-0.0298276 0.021477 1.24087e-20)
(-0.0274217 0.0173587 1.09675e-20)
(-0.0263348 0.0268214 1.23352e-19)
(-0.023818 0.022524 6.33435e-20)
(-0.0223082 0.0314843 -1.08086e-20)
(-0.0197333 0.027209 4.7034e-20)
(-0.0173819 0.0347416 -1.57952e-19)
(-0.0153812 0.0309904 -7.15688e-20)
(-0.011347 0.0351607 -1.65825e-19)
(-0.0107924 0.0328775 -6.48468e-20)
(-0.00465176 0.030695 6.43863e-21)
(-0.00589263 0.0310718 -2.05546e-20)
(0.00230549 0.01891 6.72537e-20)
(-0.00110259 0.022859 8.30151e-20)
(0.0119526 -0.0026818 -1.03103e-19)
(0.00305344 0.00462663 4.56348e-20)
(0.0139418 -0.0270435 2.26681e-20)
(0.0376515 -0.0212322 -8.70746e-20)
(-0.0282282 0.00220733 2.4306e-20)
(-0.025714 -0.000580113 1.53226e-20)
(-0.0271163 0.00787124 3.05754e-21)
(-0.0252728 0.00477975 -2.7767e-21)
(-0.0247844 0.0131539 6.16542e-20)
(-0.0235644 0.00986197 5.82251e-21)
(-0.0214317 0.0180624 6.1447e-20)
(-0.0207065 0.0145618 6.20214e-20)
(-0.0173429 0.0225741 -1.28014e-20)
(-0.0167962 0.0188793 -5.70585e-20)
(-0.0129785 0.0264092 -1.26915e-20)
(-0.0120271 0.0226797 -4.72297e-20)
(-0.00888931 0.0288134 2.11846e-20)
(-0.00694267 0.0254819 1.06374e-19)
(-0.0053156 0.0283113 7.76678e-20)
(-0.00241045 0.0262178 8.33608e-20)
(-0.00235389 0.0224122 5.81793e-20)
(0.000965082 0.0230326 5.74009e-20)
(-0.00072441 0.00758907 6.32645e-20)
(0.00269147 0.0131654 3.73367e-22)
(0.000712195 -0.0192333 1.55368e-19)
(0.00188021 -0.0076644 4.30242e-21)
(0.0311445 -0.036694 9.67119e-20)
(-0.00620653 -0.0336598 7.10935e-20)
(0.0121018 0.0177433 -2.83023e-21)
(0.0233993 0.00947812 1.5032e-21)
(0.00211974 0.0108702 -1.67906e-21)
(0.0163964 0.00438866 -4.35231e-21)
(-0.0122912 0.00208233 4.42653e-21)
(0.00252883 -0.00402362 4.45606e-21)
(-0.0282157 -0.00611547 0)
(-0.0136107 -0.0136969 -1.53998e-21)
(-0.0422718 -0.00961675 3.4107e-20)
(-0.0292716 -0.0193553 -3.9953e-21)
(-0.0514137 -0.00513755 3.29373e-20)
(-0.0411354 -0.0164406 2.67362e-20)
(-0.0539236 0.00655864 2.22775e-20)
(-0.0470241 -0.00527143 2.11014e-20)
(-0.0499136 0.0216161 2.55817e-20)
(-0.0465466 0.00993399 -7.33228e-21)
(-0.041192 0.0361662 -2.37841e-20)
(-0.0407832 0.0251555 0)
(-0.0299792 0.0476199 -3.67573e-20)
(-0.0318631 0.0377093 -7.64262e-21)
(-0.0180222 0.0548545 -6.14311e-21)
(-0.0216403 0.0465465 -4.08457e-21)
(-0.0110422 0.0513734 3.74151e-21)
(0.0304897 -0.00372532 0)
(0.0396479 -0.00997335 0)
(0.0184822 -0.0100653 0)
(0.0325024 -0.0127758 8.84864e-21)
(0.0026237 -0.0196675 -1.55033e-21)
(0.015943 -0.0212851 -4.62334e-22)
(-0.0138329 -0.0258262 -6.87284e-21)
(-0.00140954 -0.0293216 -3.5441e-21)
(-0.0280333 -0.0245004 -1.57617e-20)
(-0.0176766 -0.0308726 -1.53609e-22)
(-0.0372191 -0.0154771 1.59122e-20)
(-0.0298071 -0.0237618 -6.19465e-22)
(-0.0404681 -0.0013938 -8.84119e-21)
(-0.0358339 -0.0103991 4.27679e-20)
(-0.0382871 0.0136752 -3.33067e-20)
(-0.036233 0.00459791 -1.71669e-20)
(-0.0321513 0.0267405 1.64096e-20)
(-0.0321314 0.0180895 8.82089e-21)
(-0.0239125 0.036502 2.5418e-20)
(-0.0253252 0.02866 -5.66074e-21)
(-0.0147934 0.0428429 5.85843e-21)
(-0.0173331 0.0359057 -2.29616e-21)
(-0.00893921 0.040106 -3.17549e-21)
(0.0431188 -0.0175292 8.90575e-21)
(0.0489822 -0.021115 3.46834e-21)
(0.0308834 -0.0232759 7.55334e-21)
(0.0411951 -0.0204872 1.65841e-20)
(0.013297 -0.0308339 -1.13232e-21)
(0.0231169 -0.0272103 -4.68192e-22)
(-0.00417147 -0.0332301 1.01529e-21)
(0.00554746 -0.0325522 -2.00896e-21)
(-0.018704 -0.0282964 1.19597e-20)
(-0.0102005 -0.0309809 -4.3068e-21)
(-0.0279912 -0.0173464 2.37872e-20)
(-0.0215472 -0.0225044 9.25365e-21)
(-0.0314648 -0.0038907 3.52042e-20)
(-0.0273819 -0.0100743 -1.89298e-20)
(-0.0302301 0.00928584 2.50581e-20)
(-0.0282454 0.00272665 1.65894e-20)
(-0.0256408 0.0201673 -1.29251e-20)
(-0.0254194 0.0136484 -2.7147e-20)
(-0.0191803 0.0280382 -3.32661e-20)
(-0.0203036 0.0220432 -2.19376e-20)
(-0.0119367 0.0330427 -1.14631e-20)
(-0.0140568 0.027755 -2.18367e-20)
(-0.00734834 0.031049 0)
(0.043688 -0.0206852 2.25371e-20)
(0.0418551 -0.0117357 3.51067e-21)
(0.0346081 -0.0239453 2.55108e-21)
(0.0374315 -0.0132696 -2.51949e-20)
(0.0168166 -0.0290696 0)
(0.0232088 -0.0213799 4.92604e-21)
(-3.21934e-05 -0.0296812 -8.30173e-21)
(0.00747645 -0.0267233 0)
(-0.0132495 -0.024108 -9.01793e-21)
(-0.00636352 -0.0248781 -8.35116e-21)
(-0.0214315 -0.0142876 -3.44561e-20)
(-0.0161508 -0.017679 1.262e-20)
(-0.0246097 -0.00318323 -3.7537e-20)
(-0.0213615 -0.00778132 -1.59623e-20)
(-0.0238988 0.00721379 -3.63038e-20)
(-0.022407 0.00223284 -7.01083e-21)
(-0.0205072 0.0156864 -3.63038e-20)
(-0.0204492 0.0107174 -7.81204e-22)
(-0.0155282 0.0218272 -1.05636e-20)
(-0.0165546 0.0172859 0)
(-0.00978366 0.0257575 -1.05636e-20)
(-0.0116023 0.0218343 1.06101e-20)
(-0.0061593 0.024504 5.41218e-21)
(0.00168955 0.022541 -2.92125e-20)
(-0.000614375 0.0209857 -2.00811e-22)
(-0.00321576 0.0223059 -2.12622e-22)
(0.00641846 0.0215944 -2.35552e-20)
(0.00386055 0.0206395 -2.36907e-20)
(0.0109053 0.0194745 -4.694e-20)
(0.00816703 0.0191561 -4.39104e-20)
(0.0150501 0.0161721 -5.82777e-20)
(0.0121602 0.0165229 -3.62256e-20)
(0.0187214 0.0117001 -6.71556e-20)
(0.0157286 0.0126937 -2.23523e-20)
(0.0215628 0.0062655 -3.4155e-20)
(0.0186471 0.00762238 7.65683e-21)
(0.0226966 0.000634236 2.18754e-20)
(0.0203335 0.00157765 6.29397e-20)
(0.0205878 -0.00399504 0)
(0.0195653 -0.00437271 -2.00469e-20)
(0.013121 -0.00636755 1.60342e-20)
(0.0145902 -0.00857957 0)
(-0.00197508 -0.00499755 5.94225e-20)
(0.00352388 -0.0090644 1.61264e-20)
(-0.0194045 0.00377245 4.28391e-20)
(-0.0133894 -0.00515384 4.30854e-20)
(-0.0217674 0.00990865 0)
(0.00145665 0.0190669 5.48998e-21)
(-0.000525375 0.0180899 4.28655e-22)
(-0.00272536 0.0188458 2.01892e-22)
(0.00550213 0.018179 -4.41643e-20)
(0.0033238 0.0177816 -2.60866e-20)
(0.00929737 0.0161875 -3.31165e-20)
(0.00700458 0.0164133 3.62264e-21)
(0.0127004 0.0130713 4.57349e-23)
(0.010358 0.0139685 1.11092e-20)
(0.0155103 0.00871592 5.30609e-20)
(0.0132128 0.0103978 -1.1074e-20)
(0.0172967 0.00307845 1.05072e-19)
(0.0153019 0.00559182 -1.19878e-19)
(0.0171156 -0.00341162 2.0995e-20)
(0.0160152 -0.000396491 1.40498e-19)
(0.0135569 -0.00928861 -2.01628e-20)
(0.0141971 -0.00680857 -2.02749e-20)
(0.00510427 -0.0122925 0)
(0.00831941 -0.0116929 -1.71658e-20)
(-0.00747056 -0.00970173 0)
(-0.00194022 -0.0119736 3.34759e-20)
(-0.0171823 7.91092e-05 0)
(-0.0135489 -0.00650327 -1.61378e-20)
(-0.0162394 0.00630818 0)
(0.00128707 0.0168375 -3.13527e-20)
(-0.000423175 0.0161441 -1.95965e-22)
(-0.00230376 0.0166224 -1.9357e-22)
(0.00476732 0.01602 2.19258e-20)
(0.00289692 0.0158756 -6.13635e-21)
(0.00799241 0.0141829 4.81681e-20)
(0.00605307 0.0146232 8.24616e-21)
(0.0107895 0.0113093 0)
(0.00887196 0.0123832 3.01215e-20)
(0.0129207 0.00732824 -1.84946e-19)
(0.0111562 0.00914379 -2.98009e-20)
(0.0139461 0.00219056 -8.53392e-20)
(0.0126311 0.00484932 -2.0428e-19)
(0.0130189 -0.00382839 9.9648e-20)
(0.012747 -0.000441041 -3.37589e-20)
(0.00897189 -0.00947223 -1.72617e-20)
(0.0105981 -0.00614739 -1.78995e-20)
(0.00123571 -0.0121739 1.77437e-20)
(0.00514486 -0.010651 5.6572e-22)
(-0.00799133 -0.00948644 1.60763e-20)
(-0.00308468 -0.0107708 1.00579e-19)
(-0.0130758 -0.000995757 -1.6228e-20)
(-0.0106637 -0.00565772 -1.63153e-20)
(-0.0112744 0.00408943 0)
(0.00115685 0.0152378 2.52831e-20)
(-0.000313625 0.0146705 4.99528e-21)
(-0.0019299 0.0150128 1.84632e-22)
(0.00414983 0.0145068 -2.00845e-20)
(0.00254319 0.0144438 2.04196e-20)
(0.00688878 0.012825 -1.01138e-20)
(0.00523741 0.0133087 -1.51398e-21)
(0.00919234 0.0102181 3.29548e-22)
(0.00760593 0.0112749 -8.70548e-21)
(0.0108174 0.0066804 -4.86065e-20)
(0.00943949 0.00837208 -7.76112e-20)
(0.0113713 0.00223247 -1.53047e-19)
(0.0104781 0.00462048 1.61486e-19)
(0.0102129 -0.00283451 -1.52459e-19)
(0.0102801 0.000143971 -9.76727e-20)
(0.00657981 -0.00749172 4.90717e-22)
(0.0082213 -0.00454178 7.1442e-20)
(0.00041278 -0.00964637 8.51133e-20)
(0.00371389 -0.008207 1.8111e-20)
(-0.00616491 -0.00734035 6.70961e-20)
(-0.00247446 -0.0082536 1.7768e-21)
(-0.00930577 -0.000800663 0)
(-0.00758905 -0.0042774 -6.32544e-20)
(-0.00766917 0.00272785 0)
(0.00105108 0.0139422 0)
(-0.000208874 0.0134479 0)
(-0.00159368 0.0137205 0)
(0.00361209 0.0132909 3.92567e-20)
(0.0022381 0.0132613 4.64123e-21)
(0.00592883 0.011779 -3.55397e-23)
(0.0045279 0.0122397 3.4823e-20)
(0.00782007 0.00942994 -8.70806e-20)
(0.00650232 0.010404 -3.01645e-20)
(0.00906109 0.00630426 1.33286e-19)
(0.00797153 0.00781198 9.15213e-20)
(0.00932841 0.00250081 2.18455e-19)
(0.00869945 0.00454479 9.01876e-20)
(0.00817732 -0.00166597 1.27872e-19)
(0.00834804 0.000779397 5.58658e-20)
(0.00518043 -0.00536764 9.0001e-20)
(0.00652021 -0.00301348 2.08456e-20)
(0.000458441 -0.00708495 -6.52844e-20)
(0.00292363 -0.00591058 -1.63586e-20)
(-0.00429267 -0.00544152 -1.2887e-19)
(-0.0016937 -0.0059898 -4.91929e-20)
(-0.00631732 -0.000861781 -6.35857e-20)
(-0.00527095 -0.00314873 -2.09427e-21)
(-0.00520753 0.00176476 0)
(0.000962052 0.0128511 4.6648e-21)
(-0.000106532 0.0124058 0)
(-0.00128723 0.0126255 0)
(0.00313802 0.0122626 4.00842e-23)
(0.00196722 0.012253 9.15934e-21)
(0.00508216 0.0108922 4.71797e-21)
(0.00389836 0.0113369 -9.14338e-21)
(0.00662752 0.0087945 1.49552e-19)
(0.00553869 0.00968369 9.41956e-21)
(0.00757023 0.00602932 4.80229e-20)
(0.00670146 0.00736935 5.97204e-20)
(0.00765786 0.00276151 -7.37418e-20)
(0.00720217 0.00450796 -1.01208e-19)
(0.00659178 -0.000688612 -5.16387e-20)
(0.00678002 0.00130519 -1.63569e-20)
(0.00415644 -0.00364098 -8.62971e-20)
(0.00520573 -0.00180941 -1.54848e-19)
(0.000538119 -0.00504074 6.42659e-22)
(0.00234395 -0.00413275 4.87815e-20)
(-0.00292228 -0.00391763 7.83991e-20)
(-0.0011072 -0.00429708 1.65856e-20)
(-0.00435425 -0.000667758 6.18945e-20)
(-0.00362583 -0.0023131 1.85263e-19)
(-0.00352584 0.00112711 0)
(0.000886716 0.0118963 4.49371e-21)
(-1.17963e-05 0.0115067 0)
(-0.00100898 0.0116781 0)
(0.0027202 0.0113858 4.11534e-23)
(0.00173438 0.0113809 8.83436e-21)
(0.00433968 0.0101576 -4.48692e-21)
(0.00334312 0.0105609 2.58497e-20)
(0.00558706 0.00826907 -8.14507e-20)
(0.00468649 0.00907606 8.7147e-21)
(0.00629229 0.00581426 -9.00527e-20)
(0.0055949 0.00700754 -2.1134e-20)
(0.00626162 0.00297322 -4.32724e-20)
(0.00592324 0.00448431 -2.57047e-20)
(0.00530169 6.02778e-05 -1.2022e-19)
(0.00547416 0.00171649 4.96562e-20)
(0.00331796 -0.00236184 -1.94412e-20)
(0.00413421 -0.000904255 4.61168e-20)
(0.000534146 -0.00355416 6.56256e-20)
(0.00184424 -0.00283205 1.29735e-19)
(-0.00198794 -0.00285382 1.23671e-19)
(-0.000740927 -0.00309577 1.52373e-20)
(-0.00295387 -0.00060908 1.23671e-19)
(-0.00250634 -0.00174468 1.09882e-19)
(-0.00237823 0.000676195 0)
(0.000825286 0.0110802 4.33991e-21)
(7.8596e-05 0.0106996 0)
(-0.00075847 0.0108608 0)
(0.00235003 0.01062 3.48792e-20)
(0.00152352 0.0106019 4.36001e-21)
(0.00367804 0.00951636 3.92597e-20)
(0.00284761 0.00987407 -3.15872e-21)
(0.00466923 0.00781646 6.97418e-20)
(0.00392829 0.00854658 8.79695e-21)
(0.0051848 0.00563547 4.39019e-20)
(0.00462603 0.00669856 6.09409e-20)
(0.00507219 0.00314046 6.81234e-20)
(0.00481852 0.00446534 -3.37044e-20)
(0.00421403 0.000626752 2.17117e-19)
(0.00436553 0.00204312 1.01938e-19)
(0.00258189 -0.00145453 1.96304e-19)
(0.00322402 -0.000210772 6.86199e-20)
(0.000452272 -0.0025003 7.94888e-20)
(0.00140373 -0.00188509 4.92345e-20)
(-0.00137708 -0.00210683 6.66801e-22)
(-0.000529687 -0.00224661 1.51647e-19)
(-0.0020259 -0.000548481 -1.43446e-20)
(-0.00174035 -0.00135733 -1.32105e-19)
(-0.00158419 0.000349118 1.16557e-19)
(0.000768833 0.0103099 0)
(0.000156775 0.00998483 0)
(-0.000533996 0.0101101 0)
(0.00201663 0.0099207 -3.39355e-20)
(0.00134488 0.00992709 1.60895e-20)
(0.00308538 0.00893431 -3.39355e-20)
(0.00241192 0.00929664 -6.67523e-20)
(0.00386149 0.00742719 -2.6428e-22)
(0.00327119 0.00811906 8.21186e-21)
(0.00421911 0.00548875 -1.68731e-20)
(0.00378947 0.00647667 -8.24508e-20)
(0.00404611 0.00327814 2.49149e-22)
(0.00387377 0.00449821 4.02939e-20)
(0.00328337 0.00107532 -4.77132e-20)
(0.00343563 0.00235795 -4.67573e-20)
(0.00195249 -0.000753684 -7.95028e-20)
(0.00246917 0.000379576 -4.88424e-20)
(0.000329093 -0.00173288 1.22003e-19)
(0.00103375 -0.00113114 -1.36687e-19)
(-0.000974027 -0.00158133 1.87356e-20)
(-0.000391751 -0.00159538 3.42055e-20)
(-0.0013728 -0.000525113 -1.06535e-21)
(-0.00119145 -0.0010656 -1.33295e-19)
(-0.00101717 0.000113959 3.99149e-21)
(0.000728398 0.00969021 1.61623e-20)
(0.000254038 0.00959375 0)
(-0.000329235 0.00945468 0)
(0.00173557 0.00936006 -1.66494e-20)
(0.0012147 0.00956741 -3.07622e-20)
(0.00258507 0.00851293 -2.45627e-20)
(0.00207582 0.00901241 -1.08707e-21)
(0.00317543 0.00717595 -7.42184e-20)
(0.00274241 0.00795558 8.28522e-21)
(0.00340381 0.00545341 -2.51937e-20)
(0.00311425 0.00648042 -9.07799e-20)
(0.00319637 0.0034906 -6.29404e-21)
(0.00311682 0.00470593 1.77602e-20)
(0.0025286 0.00153175 -4.75531e-20)
(0.00270425 0.00278714 -1.26498e-19)
(0.00145814 -0.000111293 -1.06002e-19)
(0.00189815 0.00100917 -1.44692e-20)
(0.000238655 -0.00107487 -2.25582e-19)
(0.000781008 -0.000402612 2.58927e-20)
(-0.000662411 -0.00113483 -1.18509e-19)
(-0.000242317 -0.00098474 -3.54881e-21)
(-0.000889331 -0.000479628 -1.28778e-19)
(-0.000751903 -0.000766214 -1.47283e-20)
(-0.000601025 -3.03975e-05 -1.14615e-19)
(0.000730077 0.00957076 -4.71946e-20)
(0.000340941 0.00912115 -7.38744e-21)
(-0.00013421 0.00934082 0)
(0.00155037 0.00927649 -1.5208e-20)
(0.00106809 0.00894345 -4.73866e-20)
(0.00222538 0.00849696 3.19866e-20)
(0.00169572 0.00832085 3.21234e-20)
(0.00266517 0.00726486 -7.9791e-21)
(0.00213868 0.00729426 7.74415e-21)
(0.00279743 0.00569217 -4.77854e-20)
(0.00234252 0.00594726 -1.57631e-20)
(0.00257479 0.00391325 -1.02842e-19)
(0.00225617 0.00438928 -1.16558e-19)
(0.00199885 0.00212864 -9.36282e-20)
(0.00187318 0.00275061 1.93282e-19)
(0.00115202 0.000602926 1.18688e-19)
(0.00123948 0.001251 -3.06652e-20)
(0.000264192 -0.000370401 2.4992e-19)
(0.00044574 3.5228e-05 3.47596e-20)
(-0.000356324 -0.000651352 1.01068e-19)
(-0.000214115 -0.000543703 -9.89566e-21)
(-0.00050125 -0.000356787 0)
(-0.000474059 -0.000514841 -1.09446e-19)
(-0.000333924 -0.000104092 1.08105e-19)
(0.000684833 0.00858874 -7.40195e-21)
(6.71522e-05 0.00872316 -2.63943e-22)
(0.00122774 0.00804819 1.72046e-23)
(0.00162514 0.00714927 7.7774e-21)
(0.00182747 0.00597106 7.57621e-24)
(0.001799 0.004591 -8.46354e-20)
(0.00153555 0.00313346 1.8088e-19)
(0.00106778 0.00173158 2.5757e-19)
(0.000491 0.00057162 -1.15436e-19)
(-3.9712e-05 -0.000187558 -2.27496e-19)
(-0.000329429 -0.000430487 -2.21976e-19)
(-0.000329758 -0.000296568 -1.34734e-21)
(0.00281455 0.0285358 -3.66506e-20)
(0.00159057 0.016544 -1.19358e-20)
(0.0130836 0.0264878 9.95937e-21)
(0.00261987 0.0241773 2.30856e-21)
(0.0205424 0.0142632 2.79581e-20)
(0.0130834 0.0180491 -5.14452e-21)
(0.0222142 0.000884414 2.91298e-20)
(0.0191632 0.00641505 0)
(0.018182 -0.00999003 4.06975e-20)
(0.0184465 -0.00453702 5.48677e-20)
(0.0107486 -0.0168713 -2.41089e-20)
(0.0133304 -0.0125772 2.10835e-20)
(0.00221049 -0.0197707 -5.96073e-20)
(0.00586238 -0.0171075 -8.83032e-20)
(-0.00583632 -0.0194648 -6.6002e-20)
(-0.00193906 -0.0182623 -2.19227e-20)
(-0.0125641 -0.0169282 -4.37774e-20)
(-0.00873153 -0.0169083 -4.40291e-20)
(-0.0175731 -0.0129538 2.12809e-20)
(-0.014141 -0.0138687 0)
(-0.0208455 -0.00821079 1.56647e-20)
(-0.0179841 -0.00979619 2.14033e-20)
(-0.02028 -0.00523005 -1.08241e-20)
(-0.0224966 -0.00317749 -1.15784e-20)
(-0.00271927 0.0123906 2.53372e-20)
(-0.00379202 0.00672591 0)
(0.00502208 0.0165395 -6.58388e-21)
(-0.0019122 0.0144996 4.37672e-20)
(0.0131854 0.0102194 -2.82342e-20)
(0.00798916 0.0124876 5.1387e-21)
(0.0157986 0.000669806 2.57183e-20)
(0.0134937 0.00464688 0)
(0.0133986 -0.0077337 3.4565e-20)
(0.0136153 -0.00350859 -3.53123e-23)
(0.00800375 -0.013361 -4.17215e-20)
(0.0100593 -0.00990728 3.10763e-20)
(0.0014166 -0.0159451 -5.10484e-20)
(0.00435009 -0.0137316 1.71098e-20)
(-0.00500011 -0.0159239 1.76945e-22)
(-0.00187205 -0.0149023 -1.3664e-20)
(-0.0104992 -0.0140106 0)
(-0.00747786 -0.0139864 -2.43312e-20)
(-0.0147289 -0.0108354 0)
(-0.0120609 -0.011599 0)
(-0.0175431 -0.00692444 -5.2055e-21)
(-0.0153911 -0.00827971 -1.87034e-20)
(-0.0174301 -0.00445337 -1.93222e-22)
(-0.0190007 -0.0026939 -1.61449e-20)
(-0.00359 0.00762241 1.83914e-20)
(-0.00400977 0.00461897 0)
(0.00237085 0.0109701 5.43205e-20)
(-0.00211863 0.0098374 -5.63526e-21)
(0.0092229 0.00713808 3.37172e-20)
(0.00567154 0.00874377 -2.18154e-20)
(0.0117026 0.000390589 -2.46018e-20)
(0.00998231 0.00334124 0)
(0.0101801 -0.00604301 -2.62609e-21)
(0.0103479 -0.00274256 -3.45152e-20)
(0.00606386 -0.0106461 8.8999e-20)
(0.00770647 -0.00783902 -1.07379e-20)
(0.000768419 -0.012946 5.43082e-20)
(0.00317083 -0.0110662 1.17555e-19)
(-0.00455736 -0.0131303 -3.89651e-20)
(-0.00195088 -0.0122143 1.37437e-20)
(-0.00923408 -0.0116918 -2.44672e-20)
(-0.00671279 -0.0116226 -2.41163e-20)
(-0.012906 -0.0091276 -1.88079e-20)
(-0.0107032 -0.00974116 4.35252e-21)
(-0.0154145 -0.00587013 -1.37536e-20)
(-0.0136614 -0.00701023 -2.73904e-21)
(-0.0155124 -0.00377938 2.76554e-21)
(-0.0167507 -0.00227958 7.67684e-21)
(-0.00275757 0.00614885 -2.39908e-20)
(-0.00305557 0.00395481 6.27334e-21)
(0.00195853 0.0080468 -7.92981e-20)
(-0.00123763 0.00743631 -3.71586e-20)
(0.00704658 0.00519862 -5.53072e-20)
(0.00450412 0.00641275 -2.83168e-20)
(0.00896333 0.000244907 -9.83399e-21)
(0.00766646 0.00247563 7.55235e-21)
(0.00783837 -0.00474049 -4.19709e-20)
(0.00798233 -0.00215017 3.67153e-20)
(0.00455555 -0.00851065 1.7289e-20)
(0.00589391 -0.00621879 -4.19206e-20)
(0.000193088 -0.0105314 7.72686e-20)
(0.00219739 -0.00892972 -4.01671e-20)
(-0.00432361 -0.0108407 2.83262e-20)
(-0.00209679 -0.0100091 2.88732e-20)
(-0.00838382 -0.00976494 4.71461e-21)
(-0.0061981 -0.00964582 3.1031e-20)
(-0.0116342 -0.00768599 2.06939e-20)
(-0.00971186 -0.00816178 -3.55132e-20)
(-0.0139053 -0.00496443 1.39326e-20)
(-0.0123675 -0.00590806 1.63013e-20)
(-0.0140612 -0.00318949 6.69134e-21)
(-0.0151214 -0.00191141 -2.32845e-21)
(-0.00182457 0.00498269 -6.1755e-21)
(-0.00225014 0.00328853 6.33806e-21)
(0.00185308 0.00614641 1.51326e-20)
(-0.000548098 0.00577019 -2.01157e-20)
(0.00556513 0.00390684 3.55603e-20)
(0.0037017 0.00483772 3.41647e-20)
(0.00696065 0.00016232 5.44365e-20)
(0.00598917 0.00187752 7.63026e-21)
(0.00603297 -0.00373517 3.70788e-20)
(0.00618311 -0.00168324 2.07096e-20)
(0.00334507 -0.00681285 -9.95905e-20)
(0.0044602 -0.00493377 -5.00686e-20)
(-0.000290908 -0.00855165 -8.88295e-20)
(0.00139409 -0.00720089 -5.42932e-20)
(-0.00417696 -0.00892205 3.17213e-20)
(-0.00225584 -0.00816699 -6.11597e-21)
(-0.00772941 -0.00812148 -9.14512e-21)
(-0.00581497 -0.00796636 3.77574e-20)
(-0.0106229 -0.00643563 -4.01211e-20)
(-0.00892151 -0.00679681 -8.9761e-21)
(-0.0126849 -0.00416733 9.07922e-21)
(-0.0113136 -0.00493708 0)
(-0.0128648 -0.00265959 3.33261e-22)
(-0.013811 -0.00157982 1.61122e-20)
(-0.00117539 0.00394386 -6.97352e-21)
(-0.00165113 0.00263372 5.24213e-20)
(0.00170341 0.00473435 9.25626e-22)
(-0.000126958 0.00446948 4.08455e-20)
(0.00445179 0.00298721 6.99631e-21)
(0.00307638 0.00370184 6.38477e-21)
(0.00543995 0.000122136 -2.62687e-20)
(0.00472607 0.0014581 7.67713e-21)
(0.00462207 -0.00293761 -6.66863e-20)
(0.00479448 -0.00129718 9.93073e-21)
(0.00236667 -0.00544075 -4.2254e-21)
(0.00331982 -0.00389304 1.07835e-20)
(-0.00072662 -0.00692156 2.89721e-20)
(0.000728225 -0.00577522 2.52559e-20)
(-0.00408265 -0.00730101 -2.17192e-22)
(-0.00241144 -0.00662251 -6.932e-21)
(-0.00720576 -0.00670808 3.83433e-20)
(-0.00552579 -0.00653096 6.92445e-21)
(-0.00979559 -0.00534481 3.14526e-20)
(-0.00828091 -0.00560815 3.16069e-20)
(-0.0116531 -0.00345884 -8.82773e-21)
(-0.010436 -0.00408562 1.38836e-20)
(-0.0118548 -0.00217719 -6.81949e-21)
(-0.0127072 -0.00127755 -2.03016e-20)
(-0.000724584 0.00308359 1.00769e-19)
(-0.00118396 0.00206146 8.77827e-21)
(0.0015514 0.00366022 4.8156e-20)
(0.000148586 0.00345187 -1.17024e-20)
(0.00359997 0.00232032 7.61674e-21)
(0.00258827 0.00286702 -6.52125e-22)
(0.00427152 0.000122949 4.42223e-20)
(0.00376752 0.00117255 7.75171e-21)
(0.00351452 -0.00227883 8.80075e-20)
(0.00372225 -0.000959704 -2.51636e-20)
(0.00157004 -0.00430755 4.09011e-20)
(0.00241475 -0.00302626 9.29197e-20)
(-0.00111869 -0.00556411 -1.08435e-20)
(0.000177391 -0.00457345 -6.02676e-20)
(-0.00402627 -0.00592447 0)
(-0.00255155 -0.00532201 -6.16537e-20)
(-0.00679116 -0.00548693 0)
(-0.00530141 -0.00529382 6.45246e-21)
(-0.00910881 -0.0043906 1.39521e-20)
(-0.0077549 -0.00457134 -3.74809e-21)
(-0.010785 -0.00283067 1.5975e-20)
(-0.00969602 -0.00333611 2.23736e-21)