/*--------------------------------*- C++ -*----------------------------------*\
| =========                 |                                                 |
| \\      /  F ield         | OpenFOAM: The Open Source CFD Toolbox           |
|  \\    /   O peration     | Version:  v1606+                                |
|   \\  /    A nd           | Web:      www.OpenFOAM.com                      |
|    \\/     M anipulation  |                                                 |
\*---------------------------------------------------------------------------*/
FoamFile
{
    version     2.0;
    format      ascii;
    class       volScalarField;
    location    "0.92";
    object      nut.air;
}
// * * * * * * * * * * * * * * * * * * * * * * * * * * * * * * * * * * * * * //

dimensions      [0 2 -1 0 0 0 0];

internalField   nonuniform List<scalar> 
6000
(
0.000528648
0.00488417
0.00776378
0.0084491
0.00867782
0.00880496
0.00887695
0.00892269
0.00893044
0.00892982
0.00892555
0.00892887
0.00893833
0.00895221
0.00896575
0.00897349
0.00897362
0.00896762
0.0089608
0.00895794
0.00895936
0.00895611
0.0089401
0.00890083
0.00882977
0.00871282
0.00847827
0.00778941
0.00490507
0.000528993
0.000451379
0.00307985
0.0059889
0.00774702
0.00864025
0.00911941
0.00938134
0.00950582
0.00956026
0.00960958
0.00964954
0.00969028
0.00973741
0.00979898
0.00985573
0.00989043
0.00989493
0.00987029
0.00984483
0.0098151
0.00977096
0.00970638
0.00960167
0.00945899
0.00921898
0.00874351
0.00785202
0.00609076
0.00311154
0.00045682
0.000385851
0.00240427
0.00505035
0.00701748
0.00834802
0.00915661
0.00957755
0.00978488
0.00996097
0.0101108
0.0102273
0.0103171
0.0103855
0.01046
0.0105297
0.0105801
0.0106029
0.0106006
0.0105834
0.0105443
0.0104562
0.0103054
0.0100832
0.00981197
0.00941682
0.00861707
0.00725977
0.00519468
0.00245979
0.000391171
0.000334066
0.00200853
0.00446268
0.00655914
0.00807072
0.0091017
0.00978976
0.0102208
0.0105377
0.0108027
0.0110539
0.0112771
0.0114799
0.0116467
0.0117974
0.0118977
0.0119287
0.0118971
0.0117975
0.0116336
0.0114172
0.0111308
0.0108021
0.0103413
0.00958922
0.00848499
0.00687353
0.00471825
0.00209818
0.000341616
0.000298059
0.00201457
0.0042445
0.00621691
0.00779908
0.00894766
0.00981665
0.0105278
0.0110783
0.0115186
0.0119332
0.0123408
0.0127509
0.0131264
0.013405
0.0135618
0.0135846
0.0134465
0.0131619
0.0128159
0.0124267
0.0119631
0.0114041
0.0106097
0.00959711
0.00834456
0.00668657
0.00457438
0.00219047
0.000312244
0.000280328
0.00218105
0.0043758
0.00623417
0.00773013
0.00893397
0.00994606
0.0107984
0.0115644
0.0122434
0.0128712
0.0134319
0.0139109
0.0142878
0.0145628
0.0147376
0.014801
0.0147361
0.0145029
0.0140945
0.013513
0.0128177
0.0119432
0.0108519
0.00968594
0.00836468
0.00676509
0.00474651
0.00236605
0.000296741
0.000279832
0.00244278
0.00472428
0.00651615
0.00793738
0.00914803
0.0102029
0.0111942
0.0120503
0.0128586
0.013558
0.0140776
0.0144883
0.0148366
0.0151239
0.0153249
0.0154174
0.0153948
0.0152808
0.0150234
0.01451
0.0136819
0.0125745
0.0112882
0.00996013
0.008627
0.00708509
0.00508636
0.00255477
0.000292978
0.000286457
0.00270521
0.00510036
0.00691002
0.00828198
0.00946262
0.0105935
0.011578
0.0124421
0.0131945
0.01383
0.0143155
0.0147145
0.0150672
0.0153758
0.0156088
0.015734
0.0157343
0.0156479
0.0154539
0.015086
0.0143345
0.0132314
0.0119076
0.0105224
0.00918542
0.00761229
0.00551205
0.00277096
0.000297936
0.000302609
0.00294266
0.00549631
0.00733509
0.00872256
0.00988209
0.0109286
0.0118695
0.0126823
0.0133571
0.0139243
0.0144106
0.0148179
0.0151773
0.0155013
0.0157666
0.0159286
0.0159609
0.0158843
0.0156772
0.0152846
0.0147041
0.0137723
0.0125367
0.0111784
0.00982816
0.00818114
0.00595887
0.00303914
0.000312547
0.000320502
0.00310309
0.00583307
0.00776788
0.00912603
0.0102185
0.0111778
0.0120492
0.0128207
0.0134858
0.014049
0.0145276
0.014933
0.0152979
0.0156225
0.0158793
0.0160531
0.0161086
0.016035
0.0158073
0.0154335
0.0149016
0.014171
0.0130841
0.0118309
0.0104587
0.00871923
0.00634119
0.00325982
0.000330751
0.000336564
0.0032385
0.0060852
0.0081026
0.00947457
0.0105248
0.0114399
0.0122698
0.0130363
0.01374
0.014326
0.0148048
0.0152348
0.0156224
0.0159171
0.0160845
0.0161532
0.0161877
0.0161033
0.015897
0.0155487
0.0150852
0.0144444
0.0135231
0.0124115
0.0110576
0.00921334
0.00669336
0.00345302
0.000350203
0.000349017
0.0033375
0.00628567
0.00840526
0.00983127
0.0109481
0.0119233
0.0127986
0.0136114
0.0143398
0.0149258
0.0154084
0.0158622
0.0162582
0.0165238
0.0166179
0.0164727
0.016261
0.0161405
0.0159344
0.0156302
0.0152088
0.014662
0.0138657
0.0129008
0.0116002
0.00969766
0.00707627
0.00366738
0.000371813
0.00035619
0.00341112
0.0064568
0.00871262
0.010321
0.0115954
0.0126819
0.0136568
0.0145156
0.0152422
0.0158413
0.0163474
0.0167861
0.0171284
0.0173361
0.0173632
0.0171575
0.0166628
0.0162419
0.0159903
0.0156926
0.01528
0.0147629
0.0140694
0.0132861
0.012051
0.0101964
0.00749034
0.00391231
0.000394415
0.000371852
0.00340491
0.00653789
0.00895594
0.0107966
0.0122611
0.0134925
0.0145488
0.0154557
0.016222
0.0168604
0.0173887
0.0178138
0.0181265
0.0183025
0.0183066
0.0180946
0.0176005
0.016849
0.0162692
0.015867
0.0154499
0.014945
0.0143089
0.0135367
0.0123882
0.0106257
0.00787535
0.00415412
0.000416394
0.00038748
0.00339359
0.00656649
0.00913989
0.0112119
0.0128963
0.014287
0.01545
0.0164303
0.0172564
0.0179409
0.0184924
0.0189239
0.0192382
0.0194239
0.019462
0.019317
0.0189116
0.0181599
0.017253
0.0164853
0.0158565
0.0152614
0.0146141
0.0137942
0.0126299
0.0108724
0.00814185
0.00431858
0.00044614
0.000389487
0.00340005
0.00664793
0.00936746
0.011636
0.013542
0.015103
0.0163807
0.0174419
0.0183297
0.0190657
0.0196557
0.0201142
0.0204569
0.0206886
0.0208054
0.0207749
0.0204918
0.0197704
0.0188113
0.017813
0.0168495
0.0158974
0.0149795
0.0140342
0.0128079
0.0109587
0.0082358
0.00439072
0.000475281
0.000390418
0.00350775
0.00689911
0.00975969
0.0121966
0.0142647
0.015968
0.0173578
0.0185003
0.0194484
0.0202352
0.0208717
0.0213712
0.0217588
0.0220515
0.0222517
0.0223382
0.0221462
0.0214638
0.0205019
0.0193855
0.0181902
0.0169548
0.0157089
0.0143755
0.0128489
0.0108371
0.00808042
0.00429444
0.000481595
0.000398016
0.00375549
0.00736284
0.0103444
0.0128784
0.0150494
0.0168877
0.0183825
0.0196027
0.0206116
0.021447
0.0221301
0.0226749
0.0231082
0.0234469
0.0236934
0.0237817
0.0234771
0.0228546
0.0219739
0.0208627
0.0195599
0.0181441
0.0166259
0.0149469
0.0130008
0.0106241
0.00773271
0.0041109
0.000476097
0.000420617
0.00401091
0.00782587
0.0109968
0.0136358
0.0158848
0.0178388
0.0194486
0.0207417
0.0218084
0.0226933
0.0234197
0.0240064
0.0244755
0.0248399
0.0250799
0.0250395
0.0245596
0.0238651
0.0230318
0.0220074
0.0207681
0.019298
0.0176188
0.0156994
0.0134394
0.0106894
0.00746998
0.00382478
0.00046013
0.000443542
0.00413631
0.00818749
0.011596
0.0144168
0.0167902
0.0188173
0.0205285
0.0219076
0.023033
0.023964
0.0247302
0.0253517
0.0258464
0.026224
0.0264487
0.0262705
0.0256117
0.0248008
0.0239193
0.0229152
0.0217557
0.0203488
0.0186398
0.0165962
0.0141394
0.0111453
0.00757149
0.00365409
0.000443675
0.000453442
0.00415813
0.00841494
0.0121139
0.0151905
0.0177268
0.0198503
0.0216363
0.0230886
0.0242729
0.0252492
0.0260533
0.0267041
0.0272128
0.0275797
0.0277418
0.0274541
0.0266923
0.025912
0.0250295
0.0240228
0.0228401
0.0214365
0.019722
0.017619
0.0150553
0.0119371
0.00813546
0.00379255
0.000447366
0.000458068
0.00419767
0.00874068
0.0126802
0.0159573
0.018675
0.0209281
0.0227807
0.0242866
0.0255196
0.0265419
0.0273865
0.0280683
0.0285873
0.0289322
0.0290041
0.0286112
0.0279968
0.0273464
0.0265274
0.0255217
0.0242775
0.022805
0.0210115
0.0188134
0.016131
0.0128788
0.00892322
0.00425033
0.000467411
0.00046966
0.0044769
0.00925445
0.0133411
0.0167561
0.0196073
0.021968
0.0239097
0.0254822
0.0267625
0.0278354
0.0287298
0.0294509
0.0299894
0.0303394
0.0303784
0.0299211
0.0295338
0.029021
0.0282833
0.0273114
0.0260629
0.024517
0.0226051
0.0202428
0.0173722
0.0139166
0.00974051
0.00475855
0.000509546
0.000493184
0.00487564
0.00987854
0.0140609
0.0175615
0.0204905
0.0229452
0.0249883
0.0266469
0.0279857
0.029123
0.0300799
0.0308553
0.0314421
0.0317892
0.0317102
0.0314774
0.0313183
0.0308895
0.0302277
0.0293156
0.0280918
0.0265157
0.0244905
0.0219309
0.018794
0.0150534
0.0105765
0.0052452
0.000561163
0.000518719
0.00522873
0.0104823
0.0148054
0.0183933
0.0213942
0.0239125
0.0260235
0.0277688
0.0291892
0.0304036
0.0314312
0.0322727
0.0328999
0.0332173
0.0332723
0.0333526
0.0332816
0.032899
0.0323407
0.0315142
0.0303337
0.0286922
0.0265458
0.0238303
0.0204203
0.0163006
0.0114455
0.00571551
0.000614121
0.000541253
0.00553962
0.0110419
0.0155654
0.0192625
0.0223429
0.0249274
0.0270958
0.0289064
0.0303973
0.031684
0.0327825
0.033693
0.0343931
0.0348314
0.0351762
0.035425
0.0352874
0.0350065
0.0346175
0.0339131
0.0327504
0.0309315
0.0285278
0.0257059
0.0221427
0.0176682
0.0123661
0.00618002
0.000666055
0.000574331
0.00574797
0.0114976
0.0162634
0.0201244
0.0233102
0.0259712
0.0282033
0.0300793
0.0316168
0.0329629
0.0341334
0.0351264
0.0359362
0.0365819
0.0371045
0.0373596
0.0372501
0.0372595
0.0371184
0.0365676
0.0353513
0.0331495
0.0304264
0.0273901
0.023734
0.0190605
0.0133419
0.00665601
0.000716491
0.000599346
0.00593043
0.0118843
0.0168847
0.020939
0.0242507
0.0269906
0.0292874
0.0312225
0.032819
0.0342217
0.0354704
0.0365539
0.0374891
0.0382853
0.0389285
0.0391315
0.0393591
0.0396945
0.039866
0.0395177
0.0382245
0.0357545
0.0327555
0.0291672
0.0251923
0.0203375
0.0143242
0.00714784
0.000765613
0.000607122
0.00605529
0.0122521
0.0174826
0.0217336
0.0251794
0.027986
0.0303226
0.032299
0.033991
0.0354453
0.0367711
0.0379365
0.0389612
0.0398572
0.0405053
0.0409074
0.0415469
0.0422528
0.0427882
0.0427072
0.0414043
0.0389042
0.0355498
0.0314307
0.0268157
0.0215748
0.0152313
0.00763098
0.000812535
0.000613523
0.00624051
0.0126736
0.0181086
0.0225501
0.026136
0.0290194
0.0313694
0.033381
0.0351364
0.036638
0.038017
0.0392287
0.0402914
0.0412032
0.0419329
0.0427414
0.043721
0.0448041
0.0456246
0.0456747
0.0444447
0.0421287
0.0385681
0.033963
0.0287579
0.0228935
0.0161031
0.00807777
0.000855319
0.000629892
0.00646697
0.0131353
0.0187693
0.0234036
0.027132
0.0301053
0.0324694
0.0345003
0.0362547
0.0377951
0.0391952
0.0404213
0.0415046
0.0424775
0.0434107
0.0444825
0.0458107
0.04707
0.0478688
0.0476253
0.0464203
0.0444785
0.0412361
0.0365527
0.0308165
0.0243458
0.0169959
0.00849926
0.00089216
0.000652273
0.00670247
0.013619
0.0194724
0.0242901
0.0281462
0.0312071
0.0336215
0.0356171
0.0373586
0.0389139
0.0402965
0.0415096
0.0426026
0.0436397
0.0447233
0.0460489
0.047532
0.0486881
0.0489986
0.0483569
0.0471056
0.0454155
0.0427948
0.0386269
0.0327946
0.0257628
0.0178925
0.00890647
0.000923703
0.000675275
0.00692436
0.0141563
0.0202637
0.0252571
0.0292164
0.0323387
0.0348103
0.0367565
0.0384754
0.0399847
0.0413047
0.0424736
0.0435558
0.0446235
0.0457984
0.0471942
0.0485078
0.0492909
0.0492349
0.048414
0.0471368
0.0454838
0.0431993
0.0396753
0.0342646
0.0269995
0.018686
0.00926484
0.000948065
0.000698874
0.00717581
0.0148084
0.0211959
0.0263631
0.0304228
0.033596
0.0360518
0.0379951
0.0395997
0.0409882
0.0421951
0.043276
0.0443237
0.0453803
0.0465224
0.0477684
0.0488396
0.0493699
0.049132
0.0482523
0.046938
0.0452518
0.0430646
0.0398783
0.0349449
0.0278915
0.019313
0.00951871
0.000962029
0.000729862
0.00754541
0.0156053
0.0222992
0.0276756
0.0318519
0.0350544
0.0374414
0.0393237
0.0405946
0.0418589
0.0429139
0.0438755
0.0448541
0.0458454
0.0468742
0.0479372
0.0487961
0.0492259
0.0488884
0.0479898
0.0466595
0.0449282
0.0427591
0.0397382
0.0351038
0.0283023
0.0197193
0.00966915
0.000974346
0.000777388
0.00813393
0.016591
0.023591
0.0291407
0.0333292
0.0364522
0.0387567
0.0403908
0.0415294
0.0425919
0.0434423
0.0442512
0.0451219
0.0460021
0.0468861
0.0477791
0.0485169
0.0488739
0.0485167
0.0476288
0.0462884
0.0445132
0.0422979
0.0393619
0.0349272
0.0283909
0.0199323
0.00978785
0.000986694
0.000823114
0.00876058
0.017594
0.0247094
0.0301493
0.0341931
0.0371917
0.0393731
0.0407536
0.0418353
0.0427806
0.0435126
0.0442846
0.0450972
0.0458765
0.0466273
0.0473537
0.048061
0.0483622
0.0480465
0.0471894
0.0458475
0.0440389
0.0417511
0.0387256
0.0344105
0.0283642
0.0202718
0.00993821
0.00100187
0.000860658
0.00909494
0.0180667
0.0251055
0.0303413
0.0341685
0.0369716
0.0391063
0.0404851
0.041568
0.0424981
0.0432318
0.0440344
0.0448179
0.0455226
0.0461826
0.0467452
0.0474017
0.0476603
0.0474095
0.0466127
0.0452927
0.0434832
0.0411305
0.0379872
0.0336587
0.0278725
0.0202194
0.0101294
0.00101943
0.000884258
0.00918679
0.0180636
0.0248869
0.0299308
0.0336
0.0363053
0.0383797
0.0397459
0.0408959
0.0418986
0.0427436
0.0435867
0.044341
0.0449948
0.0455838
0.0461072
0.0466196
0.0468649
0.0466599
0.0459066
0.0446347
0.0428383
0.0404413
0.0372145
0.0327973
0.0269317
0.0193722
0.00969039
0.00104495
0.000896659
0.00915868
0.0177937
0.0243432
0.0292334
0.0328019
0.0354368
0.0374037
0.0387572
0.0399919
0.0411145
0.0420866
0.0429722
0.0437307
0.0443622
0.0448548
0.0454572
0.0458014
0.0460113
0.0458539
0.0451484
0.0439051
0.0421155
0.0396885
0.0364253
0.0319754
0.0260479
0.0184462
0.00905109
0.00107619
0.000895865
0.00894702
0.0172643
0.0235969
0.0283443
0.0318383
0.0344198
0.0363057
0.0376634
0.0389658
0.0401977
0.0412952
0.0422431
0.0430448
0.0437089
0.0443035
0.0446986
0.0449481
0.0451058
0.044974
0.0443161
0.0430999
0.0413246
0.0388867
0.0356287
0.0312181
0.0253774
0.0179605
0.00903512
0.0010985
0.000881583
0.00855128
0.0165473
0.0226928
0.0273273
0.0307689
0.0333199
0.0351763
0.0365356
0.0378611
0.0391939
0.0404064
0.0414381
0.042296
0.0429506
0.0436046
0.0438888
0.0440607
0.0441426
0.0440107
0.043405
0.0422275
0.0404758
0.0380494
0.0348219
0.0304884
0.0248129
0.0176818
0.00908028
0.00110294
0.000854781
0.00812609
0.0157679
0.0217314
0.0262682
0.0296696
0.0322057
0.0340614
0.0354181
0.0367111
0.0381419
0.0394618
0.040608
0.0415578
0.0422909
0.0428086
0.0430534
0.0431576
0.0431437
0.0429805
0.0424158
0.0413
0.0395775
0.0371809
0.0340009
0.0297685
0.0242918
0.0174925
0.00917741
0.00109373
0.000825631
0.0077141
0.0150126
0.0207944
0.0252358
0.0285975
0.0311225
0.032986
0.0343416
0.0355652
0.037062
0.0384851
0.0397489
0.0408015
0.0415794
0.0420078
0.0422168
0.0422635
0.0421673
0.0419259
0.0413809
0.040316
0.038634
0.036282
0.0331618
0.0290475
0.0237882
0.0173546
0.00933039
0.001078
0.000797043
0.00734775
0.0143295
0.0199284
0.0242679
0.0275823
0.0300916
0.0319631
0.0333234
0.0344512
0.035954
0.0374584
0.0388276
0.0399703
0.04077
0.0411903
0.0413784
0.0413797
0.0412191
0.0408795
0.0403113
0.0392899
0.0376525
0.0353548
0.0323032
0.0283111
0.0232591
0.0171414
0.00936577
0.0010684
0.000770579
0.00703566
0.0137325
0.0191475
0.0233757
0.0266315
0.0291165
0.0309911
0.0323632
0.0334204
0.0348249
0.0363737
0.0378266
0.0390629
0.0399069
0.0403476
0.0405289
0.0404996
0.0402847
0.0398682
0.0392329
0.0382244
0.0366527
0.0344052
0.031424
0.0275456
0.0226642
0.016765
0.00918838
0.00106576
0.000746849
0.00677171
0.0132132
0.0184456
0.0225535
0.0257392
0.0281897
0.0300576
0.0314437
0.032491
0.0336977
0.035232
0.0367359
0.0380786
0.0390043
0.0394786
0.0396658
0.0396244
0.0393748
0.038909
0.0381867
0.0371565
0.0356309
0.0334374
0.0305253
0.0267474
0.0220026
0.0162592
0.00889587
0.00105967
0.000725791
0.00654406
0.0127535
0.017805
0.0217851
0.0248898
0.0272945
0.0291434
0.0305333
0.0315753
0.0325932
0.0340438
0.0355577
0.0370019
0.0380547
0.0385767
0.0387825
0.0387472
0.0384856
0.0379878
0.0371974
0.0361139
0.034601
0.032463
0.0296156
0.0259311
0.0213109
0.0157258
0.00862785
0.00103934
0.000706999
0.00633887
0.0123314
0.0172042
0.0210502
0.0240631
0.0264092
0.0282251
0.0296077
0.0306407
0.0315007
0.0328056
0.0343138
0.0358178
0.0370322
0.0376214
0.0378654
0.0378609
0.0376165
0.0371146
0.036297
0.0351354
0.0335983
0.031501
0.0287105
0.0251169
0.0206232
0.0152062
0.00837784
0.00102282
0.000689676
0.00614317
0.0119286
0.0166246
0.0203318
0.023243
0.0255173
0.0272859
0.028648
0.0296845
0.0304788
0.0315084
0.0329952
0.034573
0.0359134
0.0365958
0.0369038
0.036958
0.0367621
0.036293
0.0354975
0.0342751
0.0326883
0.0305908
0.0278399
0.0243225
0.0199517
0.0147112
0.00814812
0.00100447
0.000673372
0.00595257
0.0115347
0.0160555
0.0196224
0.0224235
0.0246149
0.0263223
0.0276472
0.0286792
0.0294971
0.0303353
0.0317005
0.0333303
0.034713
0.0355015
0.0358968
0.0360343
0.0359154
0.0355124
0.034773
0.0335799
0.0319521
0.0298231
0.0270773
0.0236002
0.0193202
0.0142317
0.0079109
0.000987854
0.000657784
0.00576486
0.0111467
0.0154947
0.0189207
0.0216079
0.0237075
0.0253429
0.0266163
0.0276222
0.0284454
0.0292455
0.0305039
0.0321048
0.0334698
0.0343576
0.034848
0.0350824
0.0350632
0.0347559
0.0341113
0.0330472
0.0314366
0.0293053
0.0265467
0.0230723
0.0188308
0.0138289
0.0076873
0.000969408
0.000642769
0.00558038
0.0107658
0.0149436
0.0182284
0.0207977
0.0227989
0.0243532
0.0255653
0.0265296
0.0273275
0.0281115
0.0293115
0.030828
0.0321974
0.0331661
0.033747
0.0340812
0.0341747
0.0339858
0.0334634
0.0325583
0.031102
0.0290586
0.0263411
0.0228816
0.0186476
0.0136718
0.00760253
0.000949516
0.00062834
0.00540058
0.0103935
0.0144029
0.0175449
0.0199914
0.0218867
0.0233509
0.0244925
0.0254076
0.0261721
0.0269221
0.0280425
0.0295114
0.0308903
0.0319164
0.0325769
0.0330052
0.0332116
0.0331511
0.0327645
0.0320029
0.0307766
0.0289575
0.0263942
0.0230425
0.0188563
0.013873
0.00774267
0.00092304
0.000614493
0.00522598
0.0100297
0.0138712
0.0168674
0.0191852
0.0209661
0.0223311
0.0233943
0.0242565
0.024987
0.0257008
0.0267322
0.0281569
0.0295388
0.0306075
0.0313312
0.0318407
0.0321477
0.0322101
0.031963
0.0313441
0.0302865
0.0287241
0.0264526
0.0233263
0.0193147
0.0143336
0.00798234
0.000907718
0.00060119
0.00505617
0.00967309
0.0133462
0.0161926
0.0183752
0.0200328
0.0212899
0.0222686
0.0230764
0.023777
0.0244595
0.0253955
0.0267621
0.0281452
0.0292454
0.0300177
0.0305913
0.030981
0.0311488
0.0310323
0.0305621
0.0296684
0.0283054
0.0263347
0.0235289
0.0197363
0.0148056
0.00818374
0.000905516
0.000588377
0.00489043
0.00932202
0.0128255
0.0155181
0.017559
0.0190845
0.0202249
0.0211143
0.0218657
0.0225434
0.0232095
0.0240633
0.0253339
0.0267134
0.0278393
0.0286517
0.0292736
0.0297291
0.0299831
0.0299782
0.0296479
0.0289183
0.0277315
0.0259975
0.0234492
0.0199262
0.0150769
0.0082999
0.000910954
0.000575985
0.00472803
0.00897511
0.0123077
0.0148428
0.0167352
0.0181209
0.0191363
0.0199307
0.0206235
0.0212829
0.0219445
0.0227617
0.0239112
0.0252458
0.0263967
0.0272511
0.0279119
0.0284191
0.0287429
0.0288286
0.0286165
0.0280389
0.0270075
0.0254915
0.0231531
0.0198379
0.0151267
0.00829649
0.000920488
0.000563939
0.00456861
0.00863191
0.0117924
0.0141667
0.0159042
0.0171426
0.0180272
0.0187179
0.0193513
0.0199907
0.0206592
0.0214818
0.0225306
0.0237685
0.0249301
0.0258314
0.0265286
0.0270785
0.0274597
0.0276182
0.0274981
0.0270411
0.0261617
0.0247939
0.0226603
0.0194898
0.0148764
0.00817117
0.000925723
0.00055218
0.0044121
0.00829261
0.0112801
0.0134908
0.0150688
0.0161522
0.0168999
0.0174818
0.0180543
0.0186779
0.0193545
0.0201932
0.0211835
0.0223174
0.0234631
0.0244079
0.0251418
0.0257295
0.0261602
0.0263798
0.0263302
0.0259605
0.0251985
0.023934
0.02198
0.0189203
0.014402
0.007882
0.0009213
0.000540692
0.00425867
0.00795761
0.0107717
0.0128168
0.0142322
0.0151549
0.0157599
0.0162303
0.0167423
0.017356
0.0180511
0.0188916
0.0198432
0.0208997
0.0220124
0.0229905
0.0237655
0.0243887
0.0248646
0.0251385
0.0251455
0.0248343
0.024146
0.0229654
0.0211236
0.0181942
0.0137905
0.00750186
0.000908853
0.000529461
0.00410833
0.00762719
0.0102686
0.0121473
0.0133986
0.0141589
0.0146143
0.0149724
0.0154244
0.0160307
0.0167533
0.0175933
0.0185074
0.0195014
0.0205766
0.0215836
0.0224042
0.0230651
0.023585
0.0239113
0.023968
0.0236958
0.0230438
0.0219194
0.0201436
0.0173623
0.0131032
0.00709542
0.000888652
0.000518494
0.00396068
0.00730125
0.00977174
0.011486
0.0125731
0.0131715
0.0134748
0.0137204
0.0141128
0.0147129
0.015461
0.0163052
0.0171838
0.0181151
0.0191491
0.0201852
0.0210588
0.0217633
0.0223294
0.0227102
0.0228163
0.0225734
0.0219313
0.0208251
0.0190958
0.0164479
0.0123813
0.0066838
0.000865661
0.000507752
0.00381498
0.00697949
0.0092825
0.0108362
0.0117619
0.0122021
0.0123555
0.0124907
0.0128248
0.0134202
0.0141931
0.0150317
0.0158751
0.0167527
0.0177443
0.0187986
0.0197317
0.0204912
0.0211097
0.0215491
0.0217077
0.0214916
0.020844
0.0197227
0.0180214
0.0154816
0.0116392
0.00627737
0.000840629
0.0004972
0.0036699
0.0066613
0.0088021
0.0102013
0.0109716
0.0112611
0.0112715
0.0113022
0.0115782
0.012162
0.0129518
0.0137835
0.0145976
0.0154291
0.0163827
0.0174411
0.0184387
0.0192657
0.0199457
0.0204454
0.0206606
0.0204722
0.0198124
0.0186528
0.0169484
0.0144936
0.0108842
0.00587937
0.000814962
0.000486714
0.00352426
0.00634661
0.00833232
0.00958505
0.0102088
0.0103587
0.0102393
0.0101706
0.0103872
0.0109541
0.0117507
0.0125635
0.0133556
0.0141522
0.0150747
0.016138
0.0172022
0.0181091
0.0188467
0.0194169
0.0196922
0.0195317
0.0188577
0.0176461
0.0159023
0.0135062
0.0101216
0.0054868
0.000787659
0.00047619
0.0033785
0.00603585
0.00787475
0.00899124
0.00948049
0.00950633
0.00927307
0.00911329
0.0092651
0.00980695
0.0106025
0.0113984
0.0121639
0.0129353
0.0138407
0.0149138
0.016043
0.0170363
0.0178542
0.0184945
0.0188266
0.0186832
0.0179914
0.0167256
0.0149153
0.0125338
0.00933862
0.00504739
0.000761434
0.00046569
0.00322997
0.00572949
0.00743073
0.00842284
0.00879323
0.00871242
0.0083844
0.00814256
0.00822393
0.00873632
0.00952408
0.0102967
0.0110359
0.0117981
0.0127041
0.0137914
0.0149851
0.0160762
0.0169829
0.0176845
0.018063
0.0179383
0.0172181
0.0158951
0.0140069
0.0115968
0.00852874
0.00453735
0.000734204
0.000455268
0.00307567
0.00542743
0.00700169
0.00788289
0.00815097
0.0079836
0.00757967
0.0072647
0.0072711
0.00775003
0.00852624
0.00927932
0.00999624
0.0107563
0.0116797
0.0127913
0.0140456
0.0152437
0.0162291
0.0169795
0.017382
0.0172609
0.0165221
0.0151469
0.013185
0.0107206
0.00772401
0.00400318
0.000704892
0.000444812
0.00291785
0.005131
0.0065893
0.00737394
0.0075574
0.00732351
0.00686187
0.00648118
0.00641402
0.00686004
0.00761644
0.00835282
0.00906083
0.00983074
0.0107785
0.0119239
0.0132288
0.0145189
0.0155786
0.0163679
0.0167768
0.0166518
0.0158855
0.0144691
0.0124499
0.00993108
0.00697298
0.00349497
0.000672769
0.000434196
0.00275882
0.00484205
0.00619478
0.00689682
0.00701357
0.00673181
0.00622786
0.00578985
0.00565983
0.00607507
0.00681537
0.00753316
0.00823167
0.00902765
0.0100092
0.0111866
0.0125358
0.0138971
0.0150192
0.0158327
0.0162337
0.0160887
0.0152944
0.0138463
0.0117989
0.00924914
0.00632545
0.00306273
0.000638015
0.000423493
0.00260319
0.00456241
0.00581834
0.00645018
0.00651558
0.00619942
0.00566848
0.00518448
0.00500945
0.00540007
0.00612183
0.00682819
0.00752642
0.00834422
0.00936575
0.0105788
0.0119563
0.0133699
0.0145363
0.0153593
0.0157377
0.0155675
0.0147473
0.0132826
0.0112263
0.0086819
0.00580459
0.0027307
0.000601576
0.000412695
0.00245374
0.00429293
0.00545922
0.00603039
0.00605684
0.00571772
0.00516917
0.00465479
0.00445314
0.00482812
0.00553338
0.0062304
0.00693399
0.00777973
0.00883442
0.0100801
0.0114826
0.0129262
0.0141173
0.0149327
0.0152754
0.0150479
0.0142208
0.0127741
0.0107296
0.00822869
0.00541421
0.00249535
0.000564939
0.000401827
0.00231335
0.0040343
0.00511649
0.0056334
0.00562882
0.00527286
0.0047165
0.00418641
0.00397351
0.00433816
0.00502306
0.00571513
0.00642938
0.00730949
0.00839724
0.00966955
0.0110945
0.012552
0.0137526
0.0145433
0.0148402
0.0145676
0.013726
0.0123089
0.0103151
0.00787753
0.00514508
0.00234507
0.000529638
0.000391015
0.00218368
0.00378683
0.00478763
0.00525624
0.00522474
0.00485299
0.00429754
0.00376691
0.00355855
0.00390955
0.00457047
0.00525695
0.00598565
0.00689744
0.00802273
0.00932588
0.0107673
0.0122299
0.0134197
0.0141726
0.0144144
0.0141089
0.0132638
0.0118853
0.00997686
0.00761603
0.00498423
0.00227305
0.000497202
0.000380235
0.00206456
0.00355076
0.004471
0.00489672
0.00483831
0.00444935
0.0039075
0.00338847
0.00319028
0.00352488
0.00416063
0.00484708
0.00559571
0.00653981
0.00769987
0.00902956
0.0104875
0.0119261
0.0130938
0.0138039
0.0139991
0.0136648
0.0128308
0.011504
0.00968871
0.00744505
0.00491036
0.00227323
0.000469109
0.000369842
0.00196258
0.00332778
0.00416833
0.00455429
0.00446989
0.00406534
0.00354506
0.00304925
0.00285067
0.00316263
0.00378341
0.00449545
0.00526585
0.00623187
0.00741475
0.00876239
0.0102295
0.0116161
0.01274
0.0134131
0.013576
0.0132295
0.0124219
0.0111599
0.00944528
0.0073296
0.00490841
0.00233454
0.000446507
0.000359534
0.0018812
0.00312054
0.00388295
0.00423557
0.00412996
0.00371416
0.00321885
0.00276902
0.00256007
0.00286722
0.00347722
0.00421798
0.00499958
0.00597045
0.00715426
0.00850153
0.00995923
0.0113067
0.0123697
0.0130194
0.0131493
0.012801
0.012031
0.010843
0.00923557
0.00724769
0.00495512
0.00244013
0.000429879
0.000350426
0.00181603
0.00293063
0.00361855
0.00394225
0.00381851
0.00339581
0.00291912
0.00252156
0.00236169
0.00267335
0.00325118
0.0040276
0.00481471
0.00576987
0.00693117
0.00827612
0.00969479
0.0109748
0.0119983
0.0126251
0.0127238
0.0123807
0.011654
0.0105459
0.00904858
0.00718894
0.00502155
0.00256911
0.000418742
0.000342304
0.00175133
0.00275087
0.00337046
0.00366234
0.00351982
0.00309372
0.00263457
0.00228761
0.00220843
0.00258113
0.00313465
0.00387578
0.00464963
0.00560596
0.00674803
0.00804677
0.00940459
0.0106363
0.0116426
0.0122324
0.0123054
0.0119705
0.0112906
0.0102647
0.00887717
0.00714251
0.00509185
0.00270285
0.000412006
0.000335493
0.00167949
0.00257057
0.00312561
0.00337689
0.00321599
0.00279666
0.00235198
0.00205534
0.00209594
0.00254312
0.00308204
0.00373066
0.00445224
0.0053874
0.00650493
0.00776176
0.00908831
0.0103036
0.011298
0.0118417
0.0118923
0.0115708
0.0109402
0.00999642
0.0087168
0.00710317
0.00516547
0.00285241
0.000407961
0.000328157
0.00159195
0.00237424
0.0028706
0.00307743
0.00290447
0.00250156
0.00207794
0.00184725
0.00201953
0.00252164
0.00305092
0.00361509
0.00424633
0.00510025
0.00617249
0.00740198
0.00874329
0.0099696
0.0109398
0.0114382
0.0114761
0.0111756
0.0105974
0.00973554
0.00856147
0.00706442
0.00523258
0.00296535
0.00040854
0.00031949
0.00142977
0.0021438
0.00260172
0.002773
0.00259845
0.00221751
0.00182729
0.00167773
0.00196203
0.00249481
0.00302066
0.00351019
0.00405283
0.0048184
0.00583467
0.00703452
0.00837579
0.00960315
0.0105423
0.0110056
0.0110428
0.010772
0.0102505
0.00947119
0.00840127
0.00701749
0.00528459
0.00304618
0.000410137
0.00030898
0.00119285
0.00187524
0.0023256
0.00248347
0.00231634
0.0019551
0.00161074
0.00154573
0.0019204
0.00246743
0.00298047
0.00340291
0.00387832
0.00458239
0.00554227
0.00670746
0.00801898
0.00921308
0.0101038
0.0105417
0.010585
0.0103488
0.00988693
0.00919023
0.00822378
0.00695071
0.00530861
0.00308688
0.00041233
0.00029525
0.000940707
0.00159397
0.00205632
0.0022191
0.00206178
0.00171758
0.00142488
0.00146944
0.00191885
0.00245711
0.00293628
0.00330082
0.00372006
0.00437068
0.00528475
0.00641457
0.00767944
0.00881493
0.00964542
0.0100583
0.0101058
0.00990494
0.00950144
0.00888452
0.00801928
0.00685402
0.00529696
0.00309532
0.000413021
0.000278574
0.000735777
0.00133814
0.00180552
0.00198415
0.00183374
0.00150274
0.00127382
0.00143963
0.00194443
0.00246726
0.00290161
0.003221
0.00359599
0.00419594
0.0050644
0.00614895
0.00734835
0.00841573
0.00919394
0.00957169
0.00961783
0.00944984
0.00909877
0.00855376
0.00778361
0.00672163
0.00524763
0.00308111
0.000413088
0.00025986
0.00057942
0.00111769
0.00157043
0.00177195
0.00163464
0.00131774
0.00115242
0.00143214
0.00195833
0.00245338
0.00283786
0.00312576
0.00347622
0.00405316
0.00489012
0.00592328
0.00704534
0.00804282
0.00877061
0.00909866
0.00913693
0.008996
0.00868651
0.00819987
0.00751276
0.00654601
0.00515557
0.00304338
0.000412846
0.000239573
0.000463732
0.000928387
0.00135952
0.00158347
0.00146112
0.001166
0.001063
0.00141493
0.00192717
0.0024251
0.00278463
0.00305724
0.00339469
0.0039524
0.00475559
0.00573206
0.00678066
0.00772303
0.00838717
0.008651
0.00867416
0.00854761
0.00826339
0.00781624
0.00719214
0.00630689
0.00500186
0.00296826
0.000411726
0.000220072
0.000390111
0.000760365
0.00116315
0.00141381
0.00132323
0.00104058
0.000964831
0.00135076
0.00187988
0.00238318
0.00272997
0.00299294
0.00332459
0.00387987
0.00468053
0.00562552
0.00660838
0.00747532
0.00804711
0.0082293
0.00822684
0.00809551
0.00781494
0.00738558
0.00679947
0.00597688
0.0047544
0.00283776
0.000408938
0.000200914
0.000341004
0.000633409
0.00100336
0.00124164
0.00118668
0.000932048
0.000866356
0.00128084
0.00181858
0.00236629
0.00271766
0.0029719
0.00329063
0.00382964
0.00462477
0.00556066
0.0065075
0.0073137
0.00773558
0.00783382
0.00777896
0.00762096
0.00732233
0.0068905
0.00631742
0.00553168
0.00438914
0.00265384
0.000403057
0.000185081
0.000303161
0.000521974
0.000862279
0.00108866
0.00107863
0.000870192
0.000800958
0.00121292
0.001783
0.00234724
0.00270087
0.00294314
0.00325175
0.00379991
0.00457986
0.00550762
0.00644136
0.00716508
0.00743143
0.00744062
0.00732041
0.00711351
0.00678133
0.00633085
0.00574757
0.00495722
0.00386426
0.00227369
0.000392355
0.000171094
0.000278575
0.000442383
0.000749869
0.000939332
0.000973206
0.000844973
0.000782001
0.00118875
0.00177576
0.00230846
0.00263691
0.00286972
0.00317157
0.00372784
0.0045305
0.00549196
0.00640806
0.0069443
0.00709723
0.00703353
0.0068589
0.0065887
0.00621548
0.00572888
0.00510573
0.00430183
0.00322663
0.00178464
0.000376703
0.000159436
0.000261461
0.000387109
0.000644951
0.000802198
0.00084614
0.000800365
0.000781711
0.00120455
0.00180646
0.00228388
0.00257767
0.00278667
0.00309415
0.0036658
0.0045094
0.00547052
0.00629403
0.00662448
0.00671783
0.00662509
0.00640446
0.00608002
0.00565985
0.00512617
0.00446162
0.00363825
0.00259904
0.00133387
0.000354172
0.000149263
0.000246303
0.000345881
0.0005488
0.000673485
0.00069998
0.000699864
0.000778482
0.0012141
0.00184592
0.00230723
0.00257265
0.00275596
0.00305597
0.00362919
0.00447702
0.00541074
0.00602751
0.00626783
0.00633264
0.00622767