/*--------------------------------*- C++ -*----------------------------------*\
| =========                 |                                                 |
| \\      /  F ield         | OpenFOAM: The Open Source CFD Toolbox           |
|  \\    /   O peration     | Version:  v1606+                                |
|   \\  /    A nd           | Web:      www.OpenFOAM.com                      |
|    \\/     M anipulation  |                                                 |
\*---------------------------------------------------------------------------*/
FoamFile
{
    version     2.0;
    format      ascii;
    class       volScalarField;
    location    "0.58";
    object      pMean;
}
// * * * * * * * * * * * * * * * * * * * * * * * * * * * * * * * * * * * * * //

dimensions      [1 -1 -2 0 0 0 0];

internalField   nonuniform List<scalar> 
6000
(
108781
108782
108781
108781
108780
108779
108778
108778
108777
108777
108777
108777
108777
108778
108778
108778
108778
108777
108777
108777
108777
108777
108778
108779
108780
108780
108781
108782
108782
108782
108710
108711
108710
108710
108709
108708
108707
108706
108706
108705
108705
108706
108706
108707
108707
108707
108707
108706
108706
108706
108705
108706
108707
108707
108708
108709
108710
108711
108711
108711
108661
108661
108661
108661
108660
108659
108658
108657
108657
108657
108657
108658
108659
108659
108659
108659
108659
108659
108658
108657
108657
108657
108658
108659
108660
108661
108661
108662
108662
108661
108607
108607
108606
108606
108605
108604
108603
108602
108601
108601
108601
108602
108603
108604
108605
108604
108604
108603
108602
108601
108601
108602
108603
108604
108605
108606
108607
108607
108607
108608
108557
108556
108555
108555
108554
108553
108552
108550
108549
108548
108547
108547
108548
108550
108550
108550
108550
108548
108548
108548
108548
108550
108551
108552
108554
108555
108555
108556
108556
108557
108507
108506
108504
108503
108502
108502
108501
108500
108498
108497
108496
108495
108495
108496
108497
108497
108496
108495
108496
108497
108498
108499
108500
108501
108502
108503
108504
108505
108506
108507
108455
108453
108450
108449
108448
108449
108449
108449
108448
108447
108445
108445
108444
108444
108445
108445
108444
108445
108445
108446
108447
108449
108449
108449
108449
108449
108449
108451
108453
108455
108399
108395
108391
108389
108390
108392
108394
108395
108395
108395
108393
108393
108392
108392
108392
108392
108392
108393
108393
108394
108395
108396
108395
108394
108392
108390
108389
108391
108395
108399
108335
108329
108325
108325
108328
108332
108336
108338
108339
108340
108340
108339
108339
108339
108339
108339
108339
108339
108339
108340
108340
108340
108338
108336
108332
108328
108325
108325
108330
108336
108264
108260
108258
108259
108263
108270
108276
108281
108283
108285
108286
108286
108286
108287
108287
108287
108287
108286
108286
108286
108285
108283
108281
108276
108270
108263
108259
108258
108260
108264
108192
108189
108189
108192
108198
108207
108216
108223
108227
108230
108233
108234
108234
108236
108236
108236
108236
108234
108234
108233
108230
108227
108222
108215
108206
108198
108192
108189
108189
108192
108121
108119
108120
108124
108132
108142
108154
108163
108169
108174
108178
108181
108182
108184
108185
108185
108184
108182
108181
108178
108173
108169
108162
108153
108141
108131
108123
108119
108119
108120
108050
108049
108051
108056
108064
108076
108090
108102
108110
108116
108123
108127
108129
108132
108133
108133
108131
108129
108127
108122
108116
108109
108101
108088
108075
108063
108054
108050
108049
108050
107982
107981
107983
107987
107996
108009
108023
108038
108049
108058
108066
108072
108076
108078
108080
108079
108077
108075
108072
108065
108057
108048
108036
108022
108007
107994
107986
107981
107980
107981
107917
107916
107917
107920
107928
107940
107956
107972
107986
107997
108007
108016
108021
108023
108026
108025
108023
108020
108015
108006
107996
107984
107970
107954
107939
107927
107919
107916
107915
107916
107855
107854
107855
107857
107862
107872
107887
107904
107920
107934
107945
107956
107963
107967
107969
107969
107967
107963
107954
107944
107932
107918
107902
107886
107871
107861
107856
107854
107854
107854
107795
107795
107796
107797
107800
107807
107818
107835
107852
107867
107880
107891
107901
107906
107909
107909
107906
107900
107889
107878
107865
107850
107833
107817
107806
107799
107797
107795
107795
107795
107737
107737
107737
107738
107740
107744
107752
107765
107781
107798
107811
107821
107831
107839
107842
107842
107839
107830
107820
107810
107796
107779
107763
107750
107743
107739
107738
107737
107736
107736
107679
107679
107679
107679
107680
107682
107687
107696
107710
107727
107741
107750
107758
107766
107770
107769
107765
107757
107749
107739
107726
107709
107695
107686
107681
107679
107678
107678
107678
107678
107620
107620
107618
107617
107618
107620
107624
107631
107642
107657
107670
107679
107685
107691
107695
107694
107690
107684
107678
107669
107656
107641
107631
107623
107619
107616
107616
107617
107618
107618
107561
107560
107558
107556
107557
107560
107565
107571
107580
107591
107603
107612
107616
107618
107620
107620
107618
107616
107611
107602
107590
107579
107570
107564
107559
107556
107555
107557
107559
107560
107505
107503
107500
107499
107501
107504
107508
107513
107520
107529
107539
107547
107551
107551
107551
107551
107551
107550
107546
107538
107528
107519
107512
107507
107503
107500
107499
107500
107503
107505
107451
107449
107447
107447
107449
107451
107453
107456
107461
107468
107476
107483
107487
107488
107488
107488
107488
107487
107483
107475
107467
107460
107456
107453
107451
107449
107448
107447
107449
107451
107397
107396
107396
107397
107398
107399
107400
107400
107402
107407
107414
107420
107424
107425
107425
107425
107425
107424
107420
107413
107406
107402
107400
107400
107399
107398
107397
107397
107397
107398
107344
107344
107346
107346
107347
107346
107345
107344
107344
107346
107351
107357
107361
107362
107362
107362
107362
107360
107356
107350
107346
107344
107344
107345
107346
107347
107347
107346
107345
107345
107292
107293
107295
107295
107294
107291
107288
107285
107284
107285
107288
107293
107297
107298
107298
107298
107298
107297
107293
107288
107285
107284
107285
107288
107291
107294
107295
107295
107293
107293
107240
107241
107242
107241
107237
107232
107228
107224
107223
107223
107225
107229
107232
107234
107234
107234
107234
107232
107228
107225
107222
107222
107224
107227
107232
107237
107241
107242
107241
107240
107186
107187
107187
107183
107177
107170
107165
107161
107159
107159
107160
107164
107168
107170
107170
107170
107170
107168
107164
107160
107158
107159
107161
107165
107170
107176
107183
107187
107188
107186
107130
107130
107127
107121
107113
107106
107100
107095
107093
107093
107095
107099
107103
107105
107106
107106
107105
107103
107099
107095
107093
107093
107095
107100
107106
107113
107120
107126
107130
107130
107070
107068
107063
107055
107047
107040
107033
107028
107026
107026
107029
107034
107038
107040
107042
107042
107040
107038
107033
107029
107026
107026
107028
107032
107039
107047
107055
107062
107068
107070
107005
107002
106996
106988
106979
106971
106964
106960
106958
106960
106964
106969
106973
106976
106977
106977
106976
106973
106969
106964
106960
106958
106959
106964
106971
106979
106987
106995
107002
107005
106938
106934
106928
106919
106910
106902
106895
106892
106892
106895
106899
106904
106909
106911
106912
106912
106911
106909
106904
106899
106895
106892
106892
106895
106901
106910
106919
106927
106934
106937
106869
106865
106858
106849
106840
106833
106828
106827
106829
106832
106836
106841
106845
106847
106848
106848
106847
106845
106841
106836
106832
106829
106827
106828
106832
106840
106849
106857
106864
106868
106799
106795
106788
106779
106771
106766
106764
106765
106768
106771
106774
106778
106781
106782
106783
106783
106782
106780
106777
106774
106771
106768
106765
106764
106766
106771
106779
106787
106794
106798
106729
106725
106718
106710
106705
106703
106703
106706
106708
106711
106712
106714
106716
106718
106718
106718
106717
106716
106714
106712
106710
106708
106705
106703
106702
106704
106710
106717
106724
106728
106659
106655
106649
106644
106642
106642
106644
106647
106649
106650
106650
106651
106652
106652
106652
106652
106652
106651
106650
106649
106649
106648
106646
106644
106642
106641
106644
106649
106655
106658
106590
106587
106583
106581
106581
106583
106585
106587
106588
106587
106586
106586
106586
106586
106585
106585
106585
106585
106585
106586
106587
106587
106587
106585
106583
106581
106580
106583
106587
106590
106523
106521
106519
106519
106522
106524
106526
106526
106525
106523
106521
106519
106519
106518
106518
106518
106518
106518
106519
106520
106522
106524
106525
106525
106524
106521
106519
106519
106521
106523
106457
106457
106458
106460
106462
106464
106464
106462
106460
106456
106454
106451
106450
106449
106449
106448
106449
106449
106450
106453
106456
106459
106462
106463
106463
106462
106459
106458
106457
106457
106393
106393
106396
106399
106401
106401
106399
106396
106391
106387
106384
106381
106380
106379
106378
106378
106379
106379
106380
106383
106386
106390
106394
106398
106401
106401
106399
106396
106393
106393
106328
106330
106334
106336
106337
106335
106330
106325
106319
106315
106311
106309
106308
106307
106307
106307
106307
106308
106308
106310
106314
106318
106324
106329
106334
106336
106336
106334
106330
106328
106263
106265
106268
106268
106267
106262
106256
106250
106244
106240
106237
106235
106235
106235
106235
106235
106235
106235
106235
106236
106239
106243
106249
106256
106262
106266
106268
106267
106265
106263
106196
106198
106198
106196
106192
106186
106179
106172
106166
106163
106161
106160
106160
106160
106160
106161
106161
106160
106160
106161
106163
106166
106171
106178
106186
106192
106196
106198
106198
106197
106127
106127
106124
106120
106114
106106
106099
106092
106087
106085
106084
106084
106084
106085
106085
106085
106085
106085
106085
106085
106085
106087
106092
106098
106106
106114
106120
106124
106127
106127
106052
106051
106047
106041
106033
106025
106017
106011
106007
106006
106006
106006
106007
106007
106007
106008
106008
106008
106007
106007
106008
106009
106012
106017
106025
106033
106041
106047
106051
106052
105972
105970
105965
105958
105950
105941
105934
105930
105928
105927
105927
105927
105928
105928
105928
105929
105929
105929
105929
105929
105929
105929
105931
105936
105942
105950
105959
105966
105971
105973
105889
105887
105881
105873
105865
105857
105852
105849
105848
105847
105847
105847
105847
105847
105848
105848
105848
105848
105849
105849
105849
105850
105851
105853
105858
105866
105874
105881
105887
105890
105804
105801
105794
105787
105779
105773
105769
105768
105767
105766
105765
105765
105765
105765
105765
105765
105766
105766
105767
105768
105768
105769
105770
105771
105774
105780
105787
105795
105801
105805
105717
105713
105707
105700
105694
105689
105687
105686
105684
105683
105682
105682
105681
105681
105681
105681
105682
105682
105683
105685
105686
105688
105689
105689
105691
105694
105700
105707
105713
105717
105628
105625
105620
105613
105609
105606
105605
105603
105601
105600
105598
105597
105596
105596
105596
105596
105596
105597
105599
105601
105603
105605
105607
105607
105607
105609
105613
105619
105624
105627
105540
105537
105532
105527
105524
105523
105522
105520
105518
105515
105513
105512
105510
105509
105509
105509
105509
105510
105512
105515
105518
105521
105523
105524
105524
105524
105526
105531
105535
105538
105452
105449
105445
105441
105440
105439
105438
105436
105433
105430
105427
105425
105423
105422
105421
105420
105420
105421
105423
105426
105430
105435
105438
105441
105441
105441
105441
105443
105446
105449
105363
105360
105358
105356
105355
105355
105353
105350
105347
105343
105340
105337
105334
105332
105330
105329
105329
105330
105332
105335
105340
105345
105350
105354
105357
105357
105356
105356
105357
105359
105274
105273
105271
105272
105272
105270
105267
105262
105258
105254
105250
105246
105242
105240
105238
105236
105236
105236
105238
105240
105244
105250
105257
105264
105269
105272
105271
105270
105269
105269
105187
105186
105187
105188
105187
105183
105177
105171
105167
105162
105157
105153
105148
105145
105142
105140
105140
105139
105140
105142
105145
105149
105156
105166
105175
105181
105184
105183
105181
105181
105099
105100
105102
105101
105097
105091
105083
105077
105072
105067
105061
105056
105051
105047
105044
105042
105040
105040
105040
105041
105042
105045
105050
105059
105071
105083
105090
105093
105092
105091
105010
105011
105012
105008
105001
104993
104985
104980
104975
104969
104963
104957
104951
104947
104943
104941
104939
104938
104937
104937
104937
104939
104941
104948
104959
104973
104987
104996
104999
104999
104918
104919
104915
104907
104898
104890
104885
104880
104875
104868
104861
104855
104849
104844
104840
104837
104835
104834
104833
104832
104831
104831
104831
104835
104843
104857
104873
104888
104897
104899
104820
104818
104809
104799
104792
104788
104784
104780
104773
104765
104757
104750
104744
104740
104736
104733
104730
104729
104727
104726
104725
104723
104722
104722
104727
104739
104754
104771
104786
104791
104713
104707
104697
104689
104687
104686
104683
104676
104668
104659
104651
104644
104638
104633
104630
104627
104625
104623
104622
104620
104619
104616
104613
104611
104614
104622
104635
104652
104666
104675
104598
104592
104585
104584
104585
104584
104579
104570
104560
104551
104542
104535
104530
104526
104522
104520
104518
104517
104516
104515
104514
104512
104509
104506
104505
104509
104520
104534
104547
104555
104484
104480
104480
104483
104484
104479
104471
104460
104449
104439
104431
104425
104420
104417
104414
104412
104411
104411
104410
104410
104410
104410
104409
104407
104405
104404
104409
104420
104430
104438
104375
104377
104382
104384
104380
104371
104359
104346
104335
104326
104319
104314
104310
104307
104305
104304
104304
104303
104304
104305
104307
104310
104313
104314
104312
104309
104308
104312
104319
104326
104273
104278
104283
104281
104271
104257
104243
104230
104219
104211
104205
104201
104199
104197
104196
104195
104195
104196
104197
104199
104203
104208
104214
104220
104222
104219
104215
104214
104216
104220
104176
104179
104179
104170
104155
104139
104124
104112
104102
104095
104091
104089
104087
104086
104085
104085
104086
104086
104088
104091
104096
104102
104111
104120
104127
104129
104126
104123
104121
104121
104077
104077
104068
104053
104036
104019
104005
103993
103985
103980
103977
103976
103975
103975
103975
103975
103976
103977
103978
103981
103986
103993
104003
104014
104025
104033
104036
104034
104030
104028
103969
103963
103949
103932
103915
103899
103885
103875
103868
103865
103864
103864
103864
103865
103866
103866
103867
103867
103868
103870
103874
103881
103891
103903
103917
103929
103938
103941
103939
103937
103852
103843
103828
103811
103794
103779
103767
103758
103753
103752
103752
103753
103755
103756
103758
103758
103759
103759
103759
103760
103763
103768
103777
103790
103805
103820
103833
103842
103844
103844
103730
103721
103707
103692
103676
103662
103652
103646
103642
103641
103642
103645
103647
103650
103652
103653
103653
103652
103652
103651
103653
103657
103665
103676
103691
103708
103723
103735
103743
103745
103610
103602
103589
103575
103562
103550
103543
103538
103535
103534
103536
103539
103543
103547
103549
103550
103550
103549
103547
103546
103546
103549
103556
103565
103578
103594
103610
103624
103635
103640
103493
103486
103475
103464
103453
103444
103438
103435
103433
103433
103434
103439
103444
103448
103451
103452
103451
103450
103447
103444
103444
103447
103452
103460
103470
103483
103498
103512
103524
103530
103381
103376
103368
103358
103350
103344
103340
103338
103337
103337
103339
103344
103349
103353
103356
103357
103357
103355
103352
103349
103348
103351
103354
103360
103367
103377
103390
103403
103414
103420
103276
103272
103266
103259
103253
103249
103247
103246
103247
103248
103251
103254
103258
103262
103264
103265
103264
103263
103261
103259
103259
103259
103261
103265
103270
103278
103287
103298
103307
103313
103177
103174
103170
103166
103162
103160
103158
103158
103160
103163
103165
103167
103169
103171
103172
103173
103173
103172
103172
103171
103172
103171
103172
103174
103178
103184
103191
103198
103205
103210
103082
103081
103080
103078
103076
103074
103072
103073
103075
103078
103079
103080
103080
103080
103080
103081
103081
103081
103082
103083
103084
103084
103084
103085
103089
103094
103100
103105
103108
103111
102992
102993
102995
102994
102991
102989
102987
102988
102989
102991
102992
102990
102989
102988
102987
102987
102988
102989
102990
102992
102994
102994
102995
102996
103000
103005
103010
103015
103016
103016
102905
102907
102910
102909
102906
102903
102901
102900
102900
102900
102900
102898
102896
102894
102893
102893
102893
102894
102896
102899
102900
102902
102903
102906
102910
102915
102920
102925
102926
102926
102820
102821
102822
102821
102818
102814
102811
102809
102807
102807
102806
102804
102801
102799
102797
102797
102797
102799
102801
102803
102805
102807
102809
102813
102819
102824
102830
102835
102837
102837
102732
102732
102731
102729
102726
102722
102718
102715
102713
102711
102710
102707
102705
102702
102700
102700
102700
102702
102704
102706
102708
102710
102714
102719
102725
102732
102738
102743
102745
102746
102642
102641
102638
102634
102631
102628
102624
102620
102617
102615
102612
102610
102607
102604
102602
102602
102602
102603
102605
102608
102610
102614
102618
102624
102631
102638
102644
102648
102651
102652
102550
102548
102544
102540
102537
102533
102529
102525
102521
102517
102514
102511
102508
102505
102503
102503
102503
102504
102506
102509
102513
102518
102524
102530
102537
102544
102550
102553
102556
102558
102458
102455
102452
102448
102444
102440
102435
102430
102424
102419
102415
102411
102408
102406
102404
102403
102403
102405
102407
102410
102415
102422
102429
102437
102445
102451
102455
102458
102461
102463
102366
102364
102361
102358
102354
102349
102343
102335
102328
102321
102316
102312
102309
102306
102305
102304
102305
102306
102308
102313
102319
102327
102335
102344
102352
102359
102362
102366
102368
102370
102276
102275
102273
102270
102265
102258
102251
102242
102233
102225
102218
102214
102210
102208
102207
102206
102207
102208
102211
102216
102223
102232
102241
102251
102259
102265
102270
102274
102277
102278
102189
102187
102186
102182
102176
102168
102159
102149
102139
102130
102123
102117
102114
102112
102110
102110
102111
102112
102116
102121
102128
102137
102147
102157
102165
102172
102179
102184
102187
102188
102102
102102
102099
102094
102086
102077
102066
102055
102045
102036
102028
102023
102020
102018
102017
102017
102017
102019
102022
102027
102034
102043
102052
102062
102071
102079
102087
102094
102097
102098
102017
102016
102012
102005
101995
101985
101974
101962
101952
101944
101937
101932
101929
101927
101927
101927
101927
101929
101932
101937
101942
101950
101958
101968
101978
101987
101995
102003
102008
102009
101932
101930
101924
101915
101904
101893
101881
101870
101861
101854
101849
101845
101843
101841
101841
101841
101842
101843
101846
101849
101854
101860
101867
101876
101885
101895
101904
101913
101919
101921
101846
101842
101835
101825
101813
101802
101791
101782
101774
101769
101765
101762
101761
101760
101760
101760
101761
101762
101763
101766
101769
101773
101779
101787
101795
101805
101815
101824
101830
101834
101758
101754
101746
101736
101724
101714
101705
101697
101691
101687
101685
101683
101683
101682
101683
101683
101683
101684
101685
101687
101689
101691
101696
101702
101709
101718
101727
101736
101743
101746
101671
101666
101659
101649
101640
101631
101623
101617
101613
101610
101609
101608
101608
101607
101607
101608
101608
101609
101610
101611
101612
101614
101617
101621
101628
101635
101643
101651
101657
101661
101585
101580
101574
101568
101560
101552
101546
101541
101538
101537
101536
101535
101534
101534
101534
101534
101534
101535
101536
101537
101538
101540
101542
101546
101551
101558
101564
101569
101574
101578
101501
101498
101494
101490
101484
101478
101473
101469
101467
101465
101464
101463
101462
101461
101461
101461
101462
101463
101464
101465
101466
101468
101470
101474
101479
101484
101488
101491
101494
101497
101421
101420
101418
101415
101411
101407
101403
101399
101396
101394
101393
101391
101391
101390
101390
101390
101390
101391
101392
101393
101395
101397
101400
101404
101409
101412
101414
101417
101418
101419
101345
101345
101344
101342
101339
101337
101334
101331
101327
101324
101322
101321
101320
101319
101319
101319
101320
101321
101322
101323
101325
101328
101332
101336
101339
101341
101343
101344
101344
101345
101272
101272
101272
101271
101269
101267
101264
101261
101258
101255
101253
101251
101250
101250
101250
101250
101250
101251
101252
101253
101255
101259
101263
101267
101269
101271
101272
101273
101273
101272
101201
101202
101202
101202
101201
101198
101195
101192
101189
101186
101184
101182
101181
101181
101181
101181
101181
101182
101183
101184
101186
101190
101194
101197
101200
101202
101203
101203
101202
101201
101130
101132
101132
101132
101131
101129
101126
101123
101120
101117
101115
101114
101113
101112
101112
101112
101113
101113
101114
101116
101118
101121
101124
101128
101131
101133
101133
101133
101132
101131
101059
101061
101062
101062
101061
101059
101057
101054
101052
101050
101048
101047
101046
101045
101045
101045
101045
101046
101047
101048
101050
101053
101055
101058
101060
101062
101062
101062
101061
101059
100991
100992
100993
100993
100992
100992
100991
100989
100988
100986
100985
100984
100983
100983
100983
100983
100983
100983
100984
100985
100987
100989
100990
100991
100992
100993
100993
100992
100992
100990
100927
100927
100928
100928
100928
100928
100929
100929
100929
100928
100927
100926
100926
100926
100925
100925
100926
100926
100927
100927
100928
100929
100930
100929
100928
100928
100927
100927
100926
100926
100866
100866
100866
100866
100867
100868
100870
100872
100873
100873
100872
100872
100872
100871
100871
100871
100872
100872
100872
100873
100873
100873
100872
100871
100868
100867
100865
100865
100865
100865
100808
100807
100807
100808
100809
100812
100815
100817
100819
100820
100820
100820
100820
100819
100819
100819
100819
100820
100820
100820
100820
100820
100818
100815
100812
100809
100807
100806
100806
100806
100752
100751
100751
100753
100755
100759
100762
100765
100767
100768
100769
100769
100769
100769
100769
100769
100769
100769
100769
100770
100769
100768
100766
100762
100759
100755
100752
100750
100750
100750
100698
100698
100699
100701
100705
100708
100711
100714
100717
100718
100719
100720
100720
100720
100720
100720
100720
100720
100720
100720
100719
100718
100715
100712
100708
100704
100700
100698
100697
100697
100647
100648
100649
100652
100656
100659
100662
100665
100668
100669
100671
100671
100672
100672
100672
100672
100672
100672
100672
100672
100671
100669
100666
100663
100659
100656
100652
100649
100647
100647
100599
100600
100602
100606
100609
100612
100615
100618
100620
100622
100623
100624
100624
100625
100625
100625
100625
100625
100625
100624
100623
100621
100619
100616
100612
100609
100606
100602
100599
100599
100554
100554
100557
100561
100563
100566
100569
100571
100574
100575
100577
100578
100578
100578
100578
100578
100578
100578
100578
100577
100576
100574
100572
100569
100567
100564
100561
100558
100555
100554
100510
100511
100514
100516
100519
100521
100523
100526
100528
100530
100531
100532
100532
100533
100533
100533
100533
100533
100532
100532
100530
100528
100526
100524
100522
100520
100517
100515
100512
100511
100468
100469
100471
100473
100475
100477
100479
100481
100483
100485
100486
100487
100488
100488
100488
100488
100488
100488
100488
100487
100485
100483
100481
100480
100478
100476
100474
100472
100470
100469
100428
100428
100430
100431
100433
100435
100436
100438
100439
100441
100443
100444
100445
100445
100445
100445
100445
100445
100444
100443
100441
100440
100438
100437
100436
100434
100432
100431
100429
100429
100390
100389
100390
100391
100393
100394
100395
100396
100397
100399
100401
100402
100403
100403
100403
100403
100403
100403
100402
100401
100399
100398
100396
100395
100394
100393
100392
100391
100390
100390
100353
100352
100353
100353
100354
100355
100355
100356
100357
100359
100360
100362
100362
100363
100363
100363
100363
100363
100362
100360
100359
100358
100356
100356
100355
100355
100354
100354
100353
100354
100318
100317
100317
100317
100318
100318
100318
100318
100319
100321
100322
100323
100324
100325
100325
100325
100325
100324
100324
100323
100321
100320
100319
100318
100318
100318
100318
100318
100318
100319
100285
100284
100284
100284
100283
100283
100283
100284
100285
100286
100287
100287
100288
100289
100289
100289
100289
100289
100288
100287
100286
100285
100284
100284
100284
100284
100284
100285
100285
100286
100254
100253
100252
100252
100252
100252
100252
100252
100252
100253
100254
100254
100255
100255
100255
100255
100255
100255
100255
100254
100254
100253
100253
100252
100252
100253
100253
100253
100254
100255
100225
100224
100224
100223
100223
100223
100222
100222
100222
100222
100223
100223
100223
100224
100224
100224
100224
100224
100224
100223
100223
100223
100223
100223
100223
100224
100224
100224
100225
100226
100198
100197
100197
100196
100196
100196
100195
100195
100194
100194
100194
100194
100194
100194
100194
100195
100195
100195
100194
100195
100195
100195
100196
100196
100196
100197
100197
100197
100198
100199
100173
100172
100172
100172
100171
100170
100170
100169
100168
100168
100167
100167
100167
100168
100168
100168
100168
100168
100168
100168
100168
100169
100170
100170
100171
100172
100172
100172
100173
100174
100150
100149
100149
100148
100148
100147
100146
100145
100144
100144
100144
100144
100144
100144
100144
100144
100144
100144
100144
100145
100145
100145
100146
100147
100147
100148
100149
100149
100149
100150
100128
100127
100127
100126
100126
100125
100124
100124
100123
100123
100123
100123
100123
100123
100123
100123
100124
100123
100124
100124
100124
100124
100124
100125
100125
100126
100127
100127
100127
100128
100107
100106
100106
100106
100106
100105
100105
100105
100104
100104
100104
100104
100104
100104
100105
100105
100105
100105
100105
100105
100105
100105
100105
100106
100106
100106
100106
100106
100106
100107
100087
100087
100088
100088
100088
100088
100087
100087
100087
100087
100087
100087
100087
100087
100087
100087
100087
100087
100087
100087
100087
100087
100088
100088
100088
100088
100088
100087
100087
100087
100071
100071
100071
100071
100071
100071
100071
100071
100071
100071
100071
100071
100071
100072
100072
100072
100072
100072
100071
100071
100071
100071
100071
100071
100071
100071
100071
100071
100071
100071
100057
100056
100055
100055
100056
100056
100056
100056
100057
100057
100057
100057
100057
100058
100058
100058
100058
100057
100057
100057
100057
100057
100057
100056
100056
100056
100055
100055
100056
100056
100043
100042
100042
100042
100042
100043
100043
100043
100044
100044
100044
100045
100045
100045
100045
100045
100045
100045
100045
100044
100044
100044
100044
100043
100043
100042
100042
100041
100042
100043
100031
100029
100029
100030
100030
100031
100032
100032
100033
100033
100033
100034
100034
100034
100034
100034
100034
100034
100034
100033
100033
100033
100032
100032
100031
100030
100030
100029
100029
100030
100020
100019
100019
100020
100021
100021
100022
100023
100023
100023
100024
100024
100024
100024
100024
100024
100024
100024
100024
100024
100023
100023
100023
100022
100021
100021
100020
100019
100019
100020
100011
100011
100011
100012
100013
100014
100014
100015
100015
100015
100016
100016
100016
100016
100016
100016
100016
100016
100016
100016
100016
100015
100015
100014
100014
100013
100012
100011
100011
100011
100006
100006
100006
100007
100007
100008
100008
100009
100009
100009
100009
100010
100010
100010
100010
100010
100010
100010
100010
100010
100009
100009
100009
100008
100008
100007
100007
100006
100005
100006
100003
100003
100003
100004
100004
100004
100004
100005
100005
100005
100005
100005
100005
100005
100005
100005
100005
100005
100005
100005
100005
100005
100005
100004
100004
100004
100004
100003
100003
100003
100002
100002
100002
100002
100002
100002
100003
100003
100003
100003
100003
100003
100003
100003
100003
100003
100003
100003
100003
100003
100003
100003
100003
100003
100002
100002
100002
100002
100002
100002
100002
100002
100002
100002
100002
100002
100002
100002
100002
100002
100002
100002
100002
100002
100002
100002
100002
100002
100002
100002
100002
100002
100002
100002
100002
100002
100002
100002
100002
100002
100002
100002
100002
100002
100002
100002
100002
100002
100002
100002
100002
100002
100002
100002
100002
100002
100002
100002
100002
100002
100002
100002
100002
100002
100002
100002
100002
100002
100002
100002
100002
100002
100002
100002
100002
100002
100002
100002
100002
100002
100002
100002
100002
100002
100002
100002
100002
100002
100002
100002
100002
100002
100002
100002
100002
100002
100002
100002
100002
100002
100002
100002
100002
100002
100002
100002
100002
100002
100002
100002
100002
100002
100002
100002
100002
100002
100002
100002
100002
100002
100002
100002
100002
100002
100002
100002
100002
100002
100002
100002
100002
100002
100002
100002
100002
100002
100002
100002
100002
100002
100002
100002
100002
100002
100002
100002
100002
100002
100002
100002
100002
100002
100002
100002
100002
100002
100002
100002
100002
100002
100002
100002
100002
100002
100002
100002
100002
100002
100002
100002
100002
100002
100002
100002
100002
100002
100002
100002
100002
100002
100002
100002
100002
100002
100002
100002
100002
100002
100002
100002
100002
100002
100002
100002
100002
100002
100002
100002
100002
100002
100002
100002
100002
100002
100002
100002
100002
100002
100002
100002
100002
100002