/*--------------------------------*- C++ -*----------------------------------*\
| =========                 |                                                 |
| \\      /  F ield         | OpenFOAM: The Open Source CFD Toolbox           |
|  \\    /   O peration     | Version:  2.4.0                                 |
|   \\  /    A nd           | Web:      www.OpenFOAM.org                      |
|    \\/     M anipulation  |                                                 |
\*---------------------------------------------------------------------------*/
FoamFile
{
    version     2.0;
    format      ascii;
    class       surfaceScalarField;
    location    "1";
    object      phiAlpha;
}
// * * * * * * * * * * * * * * * * * * * * * * * * * * * * * * * * * * * * * //

dimensions      [0 3 -1 0 0 0 0];

internalField   nonuniform List<scalar> 
5952
(
-4.32828e-22
2.03266e-23
-4.85325e-21
1.46497e-21
-3.95079e-20
5.52302e-21
-6.3482e-19
2.59293e-20
-7.58867e-18
2.83849e-19
-2.25137e-17
2.48452e-18
-7.64288e-11
2.65741e-11
-4.68157e-09
9.78448e-10
-6.09685e-09
2.86956e-09
-4.9313e-09
1.41764e-10
-2.46444e-08
1.4816e-09
3.52006e-10
-2.49964e-08
-9.45493e-21
1.05659e-21
-9.26132e-20
2.7486e-20
-4.52418e-19
1.25877e-19
-2.15448e-18
3.81949e-19
-1.26622e-17
1.25107e-18
-2.71353e-17
5.33858e-18
-1.68817e-08
1.05984e-09
-1.15474e-07
3.42e-08
-1.76268e-07
6.48906e-08
-1.64995e-09
1.95733e-08
-1.68343e-10
5.46941e-18
-8.76155e-13
-5.81491e-12
-1.42306e-19
1.15983e-20
-2.50843e-18
6.20394e-19
-6.70461e-19
4.65697e-18
-5.29158e-18
3.61397e-18
-2.48285e-17
4.29388e-18
-6.05772e-17
1.55264e-17
-1.41634e-07
2.09536e-08
-3.07938e-07
6.85341e-08
-2.75076e-07
8.11058e-08
-1.07062e-09
6.90663e-09
-1.0706e-09
-2.64729e-14
-1.55059e-12
-6.64795e-10
-2.80354e-19
4.00766e-20
-6.23423e-18
1.56506e-18
-9.59394e-15
1.52542e-17
-1.76488e-12
8.84584e-13
1.18906e-12
1.93734e-12
1.189e-12
3.30049e-17
-1.36067e-07
1.90879e-08
-2.64919e-07
8.62285e-08
-6.92749e-09
5.72839e-08
-2.08551e-11
1.62978e-17
-2.60045e-10
5.61699e-12
2.40031e-11
-3.90095e-10
-7.33101e-19
2.18779e-19
-7.77474e-18
4.71361e-18
-4.12623e-17
2.42733e-17
-1.19823e-12
3.636e-13
1.13499e-12
8.64262e-13
1.13488e-12
8.22999e-17
-1.07959e-07
1.5288e-08
-2.36355e-07
4.68654e-08
-4.62653e-17
1.64371e-08
-4.85166e-17
1.72204e-17
-5.43125e-17
5.61699e-12
2.40031e-11
-7.87483e-17
-2.46751e-18
1.73811e-18
-1.23501e-17
1.60733e-17
-7.72651e-14
2.99617e-14
-1.08109e-13
1.96231e-15
1.34399e-14
2.77899e-14
-2.45381e-09
2.45382e-09
-2.2413e-08
3.09993e-08
-4.78742e-08
3.21813e-08
-2.05474e-08
9.9997e-09
-6.88425e-09
2.36062e-09
-4.29312e-09
1.78441e-09
1.12028e-09
-5.99483e-10
-2.7072e-16
4.5715e-17
-4.52513e-15
2.61755e-15
-1.87105e-15
2.46506e-16
-8.82039e-17
1.53696e-16
2.7515e-14
1.63775e-16
-1.14776e-08
3.32973e-08
-3.1726e-08
8.7057e-08
-6.67858e-09
8.58064e-08
-3.37506e-09
2.69967e-09
-6.95653e-09
5.17168e-10
-6.68064e-09
4.28461e-09
8.68705e-10
-9.20516e-09
-1.37738e-16
1.83125e-16
-1.76418e-16
6.61237e-16
-9.00349e-17
1.40746e-16
-8.92268e-17
1.26348e-16
-5.5844e-17
1.03782e-16
1.08261e-08
2.1004e-08
1.30305e-08
8.49609e-08
-4.21312e-09
1.02942e-07
-5.34612e-10
7.58792e-09
-1.10712e-10
4.30454e-12
-1.86646e-11
-1.9599e-10
4.75012e-13
4.23305e-10
-1.34716e-12
7.61845e-13
-5.93945e-17
3.77039e-12
-6.48296e-17
1.66051e-16
-3.33618e-15
3.37766e-15
4.61977e-14
2.0631e-15
9.5127e-09
-2.23164e-10
6.81221e-09
1.48093e-08
-1.47439e-08
5.23628e-08
2.49943e-10
8.77835e-09
-1.23507e-12
2.19868e-11
2.74259e-11
-2.95624e-11
-4.71691e-10
1.4727e-10
7.64922e-14
6.40684e-13
3.84986e-12
3.95502e-15
-9.98033e-12
8.84103e-11
4.10837e-11
1.83313e-10
1.67972e-10
1.10089e-12
3.64413e-10
6.19351e-12
3.1747e-09
7.98748e-10
1.04682e-08
7.23509e-09
3.5597e-09
1.4035e-09
-2.19372e-10
9.56362e-11
7.45044e-11
1.8379e-10
-4.0003e-10
5.77131e-10
-3.77562e-19
6.40684e-13
8.45464e-18
3.94616e-15
1.81064e-17
8.84103e-11
5.42315e-17
1.83313e-10
4.75069e-14
1.05345e-12
5.65122e-11
-1.83978e-09
1.51023e-16
8.5526e-10
1.69691e-16
7.23509e-09
1.81433e-16
1.4035e-09
-3.35226e-12
9.89889e-11
2.87665e-10
2.0709e-09
3.81483e-11
1.12777e-09
7.21865e-08
-1.68681e-07
1.74829e-07
-1.72276e-07
3.84041e-07
-2.09639e-07
7.06014e-07
-2.83991e-07
9.88671e-07
-2.78951e-07
1.12222e-06
-2.68115e-07
1.1442e-06
1.41573e-07
1.18888e-06
2.69251e-07
9.79993e-07
-4.04801e-09
3.25167e-07
-1.25774e-07
9.8227e-09
-5.60325e-08
3.43897e-09
-1.23545e-08
-1.73151e-08
-7.55978e-11
-5.7586e-10
-1.96811e-11
-5.7586e-10
-4.44864e-18
-1.13043e-09
-2.76454e-09
-6.43728e-10
-6.54208e-09
-1.33206e-08
4.19876e-09
-3.62038e-09
-1.77431e-09
-2.78976e-09
3.03045e-09
-2.80705e-10
-7.71643e-10
-2.80206e-11
-5.70485e-10
-1.02314e-13
-5.26128e-11
-1.03219e-13
-6.36938e-17
-8.14127e-11
-4.55626e-17
-1.96811e-11
-4.66596e-17
-4.60355e-18
-4.75926e-09
-4.47393e-17
-7.45197e-09
-5.81024e-17
1.08218e-08
-4.0307e-10
2.68511e-08
-4.56218e-09
3.17422e-08
-2.17241e-09
1.40644e-08
1.65005e-08
2.71158e-09
1.08917e-08
-3.76947e-09
4.09943e-09
-1.07267e-08
-2.93344e-10
-3.16707e-11
-6.31764e-17
-1.36565e-17
-1.82729e-17
-4.95067e-17
-1.49146e-17
-4.80982e-17
-1.27353e-17
-6.02811e-17
-4.0307e-10
-2.64743e-17
3.73271e-09
-9.81055e-10
7.51291e-08
-1.29595e-08
7.80795e-08
-6.64631e-10
7.28799e-08
9.34003e-09
5.78345e-08
2.58961e-08
5.76802e-08
-6.82767e-17
-3.54644e-12
-1.53664e-16
-6.52846e-17
-1.03729e-16
-5.51911e-16
-1.0254e-16
-5.98625e-16
-3.73178e-17
-2.18099e-16
5.16095e-16
-5.68423e-16
-1.63098e-10
-4.21977e-17
2.74229e-09
-2.55107e-17
1.54516e-08
-1.49875e-08
1.12572e-08
2.64824e-08
1.82667e-10
5.63486e-08
5.46339e-08
-2.43176e-16
-3.54635e-12
-1.17988e-15
-4.23113e-17
-8.49763e-16
-5.58662e-15
-2.18405e-16
-1.23947e-14
-3.76993e-16
-3.05515e-16
-9.82873e-18
-1.40388e-15
1.60812e-17
-6.81076e-17
7.3741e-17
-5.97266e-17
1.79755e-07
-1.49681e-08
1.15518e-07
2.52273e-07
2.91125e-08
3.5382e-07
1.93112e-07
-1.27677e-14
-1.30676e-09
-1.28622e-14
-4.97871e-17
-3.20173e-14
-1.39225e-14
-6.26876e-15
-8.29156e-14
-5.00004e-16
-6.32926e-15
-5.86048e-18
-1.6664e-15
1.84335e-17
-1.06852e-16
6.73594e-16
-6.58058e-17
3.78914e-07
-5.16651e-08
3.9292e-07
4.701e-07
1.56183e-07
5.97134e-07
3.49295e-07
-1.03804e-09
-2.39526e-09
-7.07054e-15
-1.03803e-09
-2.36237e-14
-1.75466e-14
-1.20952e-15
3.90104e-14
-6.51457e-16
1.54238e-15
-2.08872e-18
-3.59847e-16
1.69689e-17
-4.36766e-16
3.47246e-17
-9.8037e-17
5.16188e-07
-1.27288e-07
4.05712e-07
5.84839e-07
1.7167e-07
8.31176e-07
5.20965e-07
2.68119e-10
-8.7926e-10
-7.45642e-12
-2.17898e-10
7.16617e-16
-7.05534e-12
2.38957e-15
7.83393e-14
1.03626e-15
2.74901e-13
3.25592e-17
-3.36243e-16
3.98918e-17
-1.94817e-16
4.04491e-16
-1.48306e-16
4.50406e-07
-1.79098e-07
3.71041e-07
6.64203e-07
1.5571e-07
1.04651e-06
6.76675e-07
2.21537e-10
-1.16812e-09
1.52131e-11
-2.83961e-10
2.00188e-12
-3.65602e-12
1.18397e-12
-7.66531e-11
1.37753e-13
-1.71186e-11
1.1637e-16
1.4062e-13
1.53209e-17
-1.69825e-16
3.76864e-16
-8.14484e-17
7.43197e-08
-5.71865e-08
2.3358e-07
5.14954e-07
1.08425e-07
1.17166e-06
7.851e-07
9.40548e-10
3.25586e-10
4.06282e-11
1.04572e-10
3.69726e-11
-6.56455e-16
4.03472e-10
-2.27773e-10
2.92494e-10
-1.4075e-10
-2.53303e-12
1.14744e-10
3.93867e-13
-1.67178e-11
3.93816e-13
-4.65847e-17
-6.44698e-09
-2.88138e-10
1.88557e-07
1.57502e-07
9.80248e-08
1.26219e-06
8.75116e-07
2.28456e-10
8.51827e-10
1.55567e-15
3.33026e-10
4.09619e-12
-4.09634e-12
1.28285e-09
1.19616e-10
1.08493e-09
-2.18067e-12
8.52338e-10
-1.51316e-09
9.39772e-17
4.91248e-13
2.90603e-17
1.28238e-17
-2.88138e-10
-4.33592e-18
4.04672e-08
2.62708e-09
1.17216e-07
1.09371e-06
9.92755e-07
2.74722e-08
-8.59964e-09
7.06813e-08
-9.63151e-08
7.75626e-09
-1.06142e-07
1.17861e-15
7.86948e-09
4.15111e-13
-1.18447e-10
6.8096e-09
8.43214e-10
2.15464e-10
3.28895e-09
7.05956e-17
2.15464e-10
3.45019e-17
3.17572e-17
1.95163e-09
6.75443e-10
2.96007e-07
4.16608e-07
1.28876e-06
1.24196e-29
-1.8814e-28
7.1996e-27
-3.46619e-26
1.25835e-25
-3.5001e-25
3.8749e-25
-4.98915e-25
2.30371e-25
3.41216e-26
3.17519e-26
3.58512e-26
-4.54829e-23
4.25278e-25
-4.43208e-21
1.42582e-22
-6.73345e-20
4.65346e-21
-5.34255e-19
4.44269e-20
-2.53414e-18
2.56057e-19
9.2231e-19
-7.68603e-18
-5.8138e-27
-1.50917e-27
5.04896e-27
-2.68013e-25
9.53334e-26
-2.37597e-24
-2.381e-24
5.55746e-25
-8.73876e-22
1.29157e-23
-5.19664e-20
1.71646e-21
-9.1078e-19
6.5724e-20
-7.23874e-18
8.46897e-19
-3.658e-17
5.29088e-18
-1.9729e-16
2.16827e-17
-1.20394e-15
9.56293e-17
4.71667e-16
-4.64902e-15
-2.72301e-26
-3.43526e-26
-3.47831e-24
-4.33233e-25
-1.29515e-22
3.56193e-24
-6.07704e-21
1.4761e-22
-1.37343e-19
6.9886e-21
-1.52003e-18
1.52988e-19
-9.39115e-18
1.55672e-18
-3.74121e-17
8.58859e-18
-1.20554e-16
3.00757e-17
-3.7571e-16
8.39893e-17
-1.03418e-15
2.22782e-16
5.07769e-16
-1.64314e-15
-4.25857e-24
5.14003e-26
-2.5456e-22
8.86428e-24
-6.59309e-21
3.03514e-22
-9.9633e-20
6.50563e-21
-9.46588e-19
9.65124e-20
-5.81149e-18
9.45533e-19
-2.32271e-17
5.84616e-18
-6.38915e-17
2.27234e-17
-1.3856e-16
5.89211e-17
-2.79388e-16
1.16566e-16
-5.12325e-16
2.07341e-16
3.22881e-16
-6.61463e-16
-1.0964e-22
5.04366e-24
-3.32958e-21
3.11156e-22
-4.19693e-20
4.43572e-21
-3.56542e-19
4.0083e-20
-2.2283e-18
3.13587e-19
-1.01298e-17
2.06215e-18
-3.27294e-17
1.00304e-17
-7.52452e-17
3.39198e-17
-1.30879e-16
7.94989e-17
-1.94715e-16
1.34866e-16
-2.70824e-16
1.86306e-16
2.28907e-16
-3.3681e-16
-7.14906e-22
8.27147e-23
-1.24073e-20
2.32275e-21
-1.01179e-19
1.78232e-20
-6.05606e-19
9.50978e-20
-2.89899e-18
4.90037e-19
-1.09826e-17
2.47894e-18
-3.17163e-17
1.04843e-17
-6.73586e-17
3.36827e-17
-1.06924e-16
8.04716e-17
-1.35263e-16
1.3817e-16
-1.52487e-16
1.77224e-16
1.90106e-16
-1.68653e-16
-1.93633e-21
4.32687e-22
-2.22436e-20
6.8572e-21
-1.28689e-19
3.40676e-20
-5.80429e-19
1.21175e-19
-2.2681e-18
4.42671e-19
-7.62184e-18
1.84392e-18
-2.08984e-17
7.10095e-18
-4.3084e-17
2.20356e-17
-6.58736e-17
5.72484e-17
-7.66089e-17
1.12905e-16
-7.16365e-17
1.59672e-16
1.72694e-16
-6.63471e-17
-4.80658e-21
3.49741e-21
-2.52307e-20
1.82038e-20
-9.03938e-20
4.14543e-20
-2.969e-19
8.89817e-20
-9.36806e-19
2.31594e-19
-2.84982e-18
8.44498e-19
-7.77525e-18
3.05882e-18
-1.58193e-17
8.66395e-18
-2.11098e-17
2.44142e-17
-1.49617e-17
6.14143e-17
5.31858e-18
1.08851e-16
1.40153e-16
2.59965e-17
-6.92585e-19
7.35968e-19
-1.9116e-18
2.78762e-18
-2.42716e-18
3.46766e-18
-3.10999e-18
2.82251e-18
-1.69731e-19
3.38822e-18
-2.60533e-19
3.6393e-19
-7.69311e-19
8.3693e-19
-1.2844e-18
1.90588e-18
1.34814e-18
5.4957e-18
1.13091e-17
2.10991e-17
4.17583e-17
4.36746e-17
7.06795e-17
8.70192e-17
-7.02945e-19
3.73671e-18
-1.12933e-19
3.06307e-18
1.57326e-20
3.2731e-18
1.87667e-19
2.71647e-18
3.63631e-19
3.14636e-18
4.37282e-19
8.85138e-19
3.89016e-19
4.48374e-19
3.76916e-19
1.50959e-18
7.60501e-18
2.28486e-18
1.25431e-17
6.14606e-18
3.2153e-17
8.82792e-18
1.44867e-17
7.63184e-17
-5.79709e-24
3.73672e-18
3.39141e-20
3.02915e-18
8.27939e-09
1.6545e-09
4.78594e-08
-2.9878e-08
2.87744e-08
-1.18097e-07
4.46497e-10
1.36259e-08
5.32782e-14
4.46444e-10
2.99902e-09
2.1363e-09
4.7353e-17
2.99902e-09
2.42658e-17
3.30463e-17
2.59044e-17
3.37628e-18
-5.85406e-17
8.17624e-17
4.40288e-08
1.00216e-08
1.46336e-07
-2.19098e-08
4.84329e-07
-1.87046e-07
1.30267e-06
-4.51453e-07
1.5576e-06
-5.5242e-07
1.26e-06
-1.05298e-07
1.19507e-06
2.55838e-07
1.52031e-06
1.21983e-07
8.76908e-07
-1.76657e-08
6.44479e-07
4.90252e-07
8.29954e-07
1.99385e-07
4.48812e-07
-3.61761e-07
-2.77677e-17
2.11448e-18
-7.04524e-17
5.50091e-18
-8.21791e-17
8.92178e-18
-1.26011e-16
1.02536e-16
-1.75879e-16
2.28929e-16
-2.04327e-16
-2.56251e-14
-5.35332e-15
5.5561e-15
-1.3929e-14
-4.57547e-13
-9.69896e-15
-2.62813e-16
-4.38104e-18
-1.52629e-14
-1.45075e-21
-3.7505e-19
-3.83719e-20
-4.51172e-15
1.42128e-15
-2.22534e-16
1.00145e-15
-3.17909e-14
3.15833e-14
-4.2985e-12
1.62709e-12
-3.02286e-11
-3.89931e-12
-4.87218e-11
-1.2902e-11
-2.45576e-11
-1.69651e-11
-9.64378e-14
-3.34549e-12
-9.67358e-14
-2.33794e-17
-1.32675e-18
2.52559e-14
-2.44266e-19
-8.47728e-18
-5.36111e-19
7.05303e-16
6.38527e-16
1.3638e-15
1.32297e-16
-4.04738e-11
1.27189e-12
-1.2875e-10
7.65959e-12
-1.25431e-10
-7.2175e-12
-1.1813e-10
-2.02037e-11
-7.5791e-11
-6.15411e-13
-5.90212e-13
-2.85757e-13
-5.65084e-17
-5.90295e-13
-1.40925e-17
2.51652e-14
-8.76333e-19
-3.20978e-17
-6.20989e-18
-5.0967e-16
3.36159e-16
-8.22843e-16
1.92595e-16
-5.21323e-11
1.81822e-12
-1.29899e-10
6.83301e-12
-1.36224e-10
-8.93784e-13
-2.73258e-12
-6.38335e-17
-4.85126e-14
-1.46628e-15
-3.34518e-13
-1.26096e-16
-4.02961e-12
-3.75096e-13
-5.69825e-13
-1.61154e-11
-6.96512e-15
-8.13511e-12
-6.98591e-15
-4.33756e-16
2.36667e-16
-1.34033e-13
2.32805e-16
-7.28442e-12
-5.88168e-14
-5.95814e-12
4.0078e-14
-1.49469e-16
-5.30173e-18
-1.40591e-16
-5.30306e-17
-2.1698e-16
-1.44956e-15
-2.37604e-16
-6.18253e-17
-3.75096e-13
-2.64062e-16
-1.89364e-11
-1.1634e-11
-3.92984e-12
-7.25906e-11
-5.80883e-11
-2.76294e-16
1.84943e-16
-8.10774e-14
8.64919e-15
-4.00971e-14
1.68601e-16
-1.15864e-16
4.29063e-17
-1.74029e-16
1.86878e-18
-1.92017e-16
-4.91628e-17
-1.36873e-14
-6.94025e-16
6.61894e-15
-7.54951e-14
2.23152e-13
-2.16575e-13
-5.22208e-12
-9.83734e-13
-3.13568e-11
-3.54604e-11
-8.94451e-11
-2.85405e-16
1.65152e-16
-6.53421e-17
6.14268e-16
-6.00827e-17
9.89354e-17
-7.98497e-17
4.89747e-17
-1.02565e-16
1.45211e-17
-6.66822e-17
-3.09146e-17
-7.07084e-16
-3.28855e-17
-2.71127e-13
-2.28752e-14
-1.26567e-13
-1.97789e-12
1.14353e-12
-3.71718e-12
-2.12149e-11
-3.06062e-12
-3.42394e-16
3.34908e-17
1.43105e-16
3.03859e-17
1.37959e-16
1.47568e-17
8.65948e-17
3.23462e-18
4.62673e-17
-7.91117e-18
1.54253e-17
-8.70881e-18
-5.60449e-18
-1.44756e-17
-1.15318e-17
-2.28774e-14
-2.00629e-17
-3.31289e-12
-1.03379e-12
-3.98261e-12
-3.33591e-11
-8.10333e-17
-1.05399e-10
-4.23428e-16
1.17387e-16
9.86703e-17
1.17643e-16
1.0795e-16
9.66243e-17
8.89899e-17
6.85056e-17
5.46872e-17
4.04198e-17
2.03067e-17
1.90111e-17
-1.05258e-18
7.4e-18
-1.14729e-17
3.76545e-18
-2.76913e-17
4.15773e-15
-3.07224e-17
-1.86664e-11
-1.48041e-11
-6.56844e-12
-4.45515e-10
-6.56887e-12
1.26525e-16
3.92784e-17
1.52634e-16
6.87666e-17
1.47616e-16
7.40733e-17
1.21191e-16
5.48993e-17
8.50551e-17
2.63606e-17
5.05318e-17
4.02897e-18
2.89926e-17
-1.30499e-17
2.84797e-17
-3.55844e-17
1.44232e-17
-5.05289e-17
6.3894e-13
-2.65789e-17
1.55733e-11
-2.89619e-10
-2.44049e-10
9.24516e-17
7.81991e-18
1.32616e-16
3.53726e-17
1.42488e-16
4.98936e-17
1.29349e-16
4.34584e-17
1.00539e-16
2.48632e-17
6.79109e-17
7.1465e-18
8.60518e-17
-5.79038e-17
8.78795e-17
-5.22945e-17
6.4228e-17
-4.10302e-17
1.75197e-17
-4.21429e-17
8.69605e-11
-1.3407e-12
-1.57089e-10
9.21605e-09
2.00827e-09
1.15471e-16
9.21605e-09
5.27764e-17
1.63969e-17
9.19697e-18
8.57569e-17
8.96726e-18
2.47462e-17
9.43909e-18
6.53697e-18
3.00997e-14
-2.37796e-14
1.58404e-13
-8.25449e-13
1.11601e-16
1.57924e-13
7.31334e-17
-5.34091e-17
1.45903e-12
-2.79998e-12
6.40821e-11
2.82278e-31
-6.04403e-30
3.9283e-28
-3.01089e-27
1.02568e-26
-4.66857e-26
3.98278e-26
-1.36473e-25
2.78198e-26
-8.13429e-26
5.18588e-27
4.35195e-28
7.55458e-28
3.49726e-28
8.6806e-26
4.38078e-25
-8.07092e-22
1.66868e-22
-4.92953e-21
1.26566e-21
-1.50459e-20
3.76275e-21
7.49313e-21
-3.3112e-20
1.71817e-30
-1.27556e-28
3.40475e-27
-4.26155e-26
9.1631e-26
-5.86787e-25
4.47544e-25
-2.08135e-24
5.08077e-25
-1.57776e-24
6.81552e-25
2.09093e-24
-1.80259e-21
4.70115e-22
-1.25232e-20
4.75872e-21
-4.17873e-20
1.59028e-20
-9.93813e-20
3.57526e-20
-1.9232e-19
6.31185e-20
9.31422e-20
-3.22078e-19
3.62956e-29
-3.15757e-27
1.07706e-26
-3.65877e-25
1.38642e-25
-4.22753e-24
-1.1328e-24
-1.37024e-23
-3.34642e-22
1.33562e-23
-3.60331e-21
9.01652e-22
-1.74196e-20
6.85193e-21
-5.43999e-20
2.53074e-20
-1.29436e-19
6.247e-20
-2.55324e-19
1.19499e-19
-4.38135e-19
1.89935e-19
2.59099e-19
-6.73006e-19
-1.14484e-25
-2.18871e-26
-3.93483e-24
-1.35077e-24
-6.02515e-23
-7.05376e-24
-6.63918e-22
1.93698e-23
-3.67297e-21
5.44603e-22
-1.39681e-20
4.37456e-21
-4.08571e-20
1.92066e-20
-9.78089e-20
5.63291e-20
-1.99664e-19
1.24157e-19
-3.57419e-19
2.21642e-19
-5.72583e-19
3.34631e-19
4.36756e-19
-8.3352e-19
-3.17308e-24
8.86665e-26
-7.96579e-23
4.04917e-24
-6.77014e-22
4.42584e-23
-3.1006e-21
3.11231e-22
-9.97535e-21
1.84493e-21
-2.56476e-20
8.61414e-21
-5.68305e-20
3.02563e-20
-1.13297e-19
8.0738e-20
-2.06281e-19
1.7039e-19
-3.43216e-19
2.95962e-19
-5.2162e-19
4.35524e-19
5.52208e-19
-7.26568e-19
-2.74037e-23
2.52162e-24
-3.91962e-22
5.94649e-23
-2.08542e-21
3.30355e-22
-6.7226e-21
1.02882e-21
-1.62423e-20
3.09677e-21
-3.23937e-20
1.02812e-20
-5.71044e-20
3.22529e-20
-9.43818e-20
8.43763e-20
-1.51144e-19
1.79568e-19
-2.33262e-19
3.14684e-19
-3.38688e-19
4.62284e-19
5.7665e-19
-4.53855e-19
-9.23074e-23
1.81458e-23
-8.85139e-22
2.46513e-22
-3.55936e-21
8.94664e-22
-9.23115e-21
1.77078e-21
-1.84259e-20
3.17224e-21
-3.03385e-20
7.68243e-21
-4.26351e-20
2.34097e-20
-5.35478e-20
6.5364e-20
-6.58558e-20
1.4968e-19
-8.67658e-20
2.77746e-19
-1.21303e-19
4.22241e-19
5.31423e-19
-1.64945e-19
-1.50699e-22
5.07519e-23
-1.0664e-21
4.55075e-22
-3.44724e-21
1.22312e-21
-7.55371e-21
1.70586e-21
-1.30659e-20
1.73189e-21
-1.82145e-20
2.54447e-21
-1.86657e-20
9.49879e-21
-8.1602e-21
3.46129e-20
1.16566e-20
9.80404e-20
3.66739e-20
2.05123e-19
5.87958e-20
3.35965e-19
4.44062e-19
6.59086e-20
-3.2336e-21
2.96628e-22
-9.36774e-20
1.0795e-20
-9.62333e-19
1.25495e-19
-1.07085e-18
4.90092e-19
-4.3573e-18
3.95271e-17
-2.11123e-21
-5.48822e-18
2.87755e-21
1.95305e-22
1.75669e-20
1.10996e-20
5.04378e-20
4.78312e-20
1.02495e-19
1.22831e-19
1.63649e-19
2.28297e-19
3.28791e-19
2.14667e-19
-1.39857e-19
5.02904e-20
-2.01553e-20
5.64642e-19
1.42324e-20
6.27129e-20
1.92998e-14
1.1767e-16
6.87932e-14
1.05941e-14
6.43879e-14
3.13059e-13
6.04314e-16
1.44558e-15
1.41946e-19
5.74654e-16
2.36365e-19
6.56675e-20
2.17454e-19
1.08842e-19
2.27207e-19
1.53271e-19
2.18948e-19
2.77975e-19
5.09219e-24
5.02843e-20
4.5395e-21
5.601e-19
8.57729e-12
-1.68177e-10
1.60279e-16
8.57554e-12
-6.77103e-14
7.86046e-14
6.80634e-12
1.01196e-11
7.51126e-12
4.89139e-13
1.39835e-12
1.08265e-15
3.37864e-17
1.39829e-12
3.5199e-19
3.35473e-17
1.22964e-18
4.90582e-19
4.26357e-19
8.65265e-19
9.28253e-10
-4.80422e-11
4.63022e-09
-1.05151e-16
6.53508e-09
-1.1259e-17
6.20149e-09
-3.18038e-09
2.09096e-09
-5.99198e-09
2.3089e-11
-3.79032e-10
2.92663e-11
7.04416e-11
5.41854e-12
3.74513e-12
2.40139e-11
1.0975e-11
3.5947e-12
1.91655e-12
3.10352e-17
3.59458e-12
3.01698e-19
3.12329e-17
-5.98058e-20
1.15481e-20
-9.4134e-20
1.44296e-20
-1.33274e-19
1.43425e-20
-1.73023e-19
9.81724e-21
-2.08583e-19
2.91526e-23
-2.08883e-19
-4.16787e-20
-1.74287e-19
-8.04283e-20
-1.14958e-19
-1.06292e-19
-5.17953e-20
-1.07923e-19
-1.00627e-20
-7.90715e-20
-2.0537e-23
-3.11103e-20
-5.09073e-22
-4.82023e-19
1.17369e-19
-6.5592e-19
1.25055e-19
-8.18805e-19
1.05952e-19
-9.40935e-19
5.40394e-20
-9.86271e-19
-3.76584e-20
-9.44884e-19
-1.69576e-19
-8.10107e-19
-3.04014e-19
-5.93818e-19
-4.12939e-19
-3.35903e-19
-4.56564e-19
-1.11097e-19
-3.9113e-19
-3.52119e-21
-2.09746e-19
-1.86239e-20
-9.41683e-19
3.0589e-19
-1.21346e-18
3.07582e-19
-1.45007e-18
2.46624e-19
-1.61311e-18
1.16939e-19
-1.67959e-18
-7.30937e-20
-1.64903e-18
-3.01953e-19
-1.50144e-18
-5.54233e-19
-1.21657e-18
-8.03528e-19
-8.02092e-19
-9.82868e-19
-3.43981e-19
-9.68897e-19
-3.12478e-20
-6.42635e-19
-1.14982e-19
-1.11609e-18
4.95394e-19
-1.38934e-18
4.81491e-19
-1.62362e-18
3.78818e-19
-1.79605e-18
1.8757e-19
-1.90231e-18
-6.61728e-20
-1.96067e-18
-3.38532e-19
-1.93388e-18
-6.74362e-19
-1.75071e-18
-1.08352e-18
-1.33358e-18
-1.50771e-18
-7.00152e-19
-1.7297e-18
-1.14774e-19
-1.37882e-18
-3.68038e-19
-9.34965e-19
6.06567e-19
-1.12582e-18
5.72254e-19
-1.2904e-18
4.45024e-19
-1.43378e-18
2.37802e-19
-1.56231e-18
-2.3801e-20
-1.72358e-18
-2.54014e-19
-1.88738e-18
-5.822e-19
-1.95516e-18
-1.08942e-18
-1.7462e-18
-1.80356e-18
-1.11109e-18
-2.4809e-18
-2.70227e-19
-2.3794e-18
-8.35873e-19
-5.58402e-19
6.13655e-19
-6.38148e-19
5.54287e-19
-6.98807e-19
4.14255e-19
-7.68911e-19
2.28547e-19
-8.73638e-19
1.73372e-20
-1.06588e-18
-1.16411e-19
-1.35668e-18
-3.37229e-19
-1.68733e-18
-8.03557e-19
-1.83309e-18
-1.71545e-18
-1.43048e-18
-2.97812e-18
-4.66579e-19
-3.49751e-18
-1.5277e-18
-2.02851e-19
5.54372e-19
-2.19015e-19
4.73723e-19
-2.11421e-19
3.20947e-19
-2.06264e-19
1.58688e-19
-2.6223e-19
3.16557e-20
-3.85934e-19
-2.37359e-20
-6.3554e-19
-1.08902e-19
-1.05249e-18
-4.02947e-19
-1.49886e-18
-1.29461e-18
-1.49025e-18
-3.0572e-18
-6.27568e-19
-4.50503e-18
-2.38301e-18
5.27874e-20
4.74956e-19
2.52427e-20
4.02909e-19
-1.47271e-21
2.52566e-19
-5.88193e-21
9.80735e-20
-1.40842e-20
1.29988e-20
-3.9736e-20
-8.00842e-21
-1.24716e-19
-2.83468e-20
-3.72023e-19
-1.50096e-19
-8.36192e-19
-8.24507e-19
-1.17376e-18
-2.76862e-18
-6.51964e-19
-5.16833e-18
-3.2548e-18
2.35564e-19
3.73688e-19
2.15531e-19
3.316e-19
1.59701e-19
2.17977e-19
9.09657e-20
9.47325e-20
3.85245e-20
2.05103e-20
1.63751e-20
-7.80986e-21
1.31852e-20
-3.39031e-20
1.91961e-20
-1.45284e-19
-5.06923e-20
-7.23851e-19
-4.41096e-19
-2.41252e-18
-4.33682e-19
-5.32766e-18
-3.90375e-18
3.2083e-19
2.65698e-19
3.21193e-19
2.55264e-19
2.72158e-19
1.87297e-19
1.95396e-19
1.0021e-19
1.26286e-19
3.48811e-20
8.06796e-20
-1.84319e-21
6.5448e-20
-4.04915e-20
1.27434e-19
-2.01539e-19
3.02951e-19
-8.79555e-19
3.79331e-19
-2.52427e-18
1.36755e-19
-5.26624e-18
-3.99376e-18
5.34227e-19
2.84937e-19
4.08955e-19
2.12427e-19
3.42271e-19
1.55212e-19
2.75057e-19
9.39299e-20
2.10371e-19
4.09529e-20
1.58756e-19
3.41689e-21
1.75417e-19
-1.21411e-19
4.11776e-19
-4.89763e-19
1.00421e-18
-1.48745e-18
1.54535e-18
-3.15987e-18
1.27976e-18
-5.27133e-18
-2.99141e-18
3.05364e-19
2.06772e-19
3.54689e-19
5.44593e-19
3.52688e-19
1.16392e-19
3.20888e-19
7.98912e-20
2.74672e-19
3.95907e-20
2.41266e-19
5.2296e-21
9.85081e-19
-2.01947e-18
1.87128e-18
-3.76653e-18
3.51859e-18
-4.29609e-18
5.03663e-18
-5.18822e-18
4.71098e-18
-5.52107e-18
1.27408e-18
-1.51955e-08
1.51955e-08
-6.0635e-08
4.54395e-08
-1.22417e-07
6.17818e-08
-1.85151e-07
6.27346e-08
-2.36228e-07
5.10761e-08
-2.69085e-07
3.2857e-08
-2.83728e-07
1.46436e-08
-2.79324e-07
-4.40371e-09
-2.61296e-07
-1.80279e-08
-2.3524e-07
-2.60561e-08
-2.04377e-07
-3.0863e-08
-2.22106e-08
-1.82166e-07
-6.11742e-08
7.63697e-08
-1.88043e-07
1.72309e-07
-3.41567e-07
2.15305e-07
-4.88681e-07
2.09849e-07
-6.02012e-07
1.64408e-07
-6.68306e-07
9.91511e-08
-6.85732e-07
3.20688e-08
-6.62952e-07
-2.69828e-08
-6.15135e-07
-6.51854e-08
-5.57829e-07
-8.29128e-08
-4.91898e-07
-9.67925e-08
-7.26026e-08
-4.40982e-07
-9.39316e-08
1.70301e-07
-2.90309e-07
3.68686e-07
-5.23228e-07
4.48225e-07
-7.40632e-07
4.27253e-07
-8.96063e-07
3.19838e-07
-9.75739e-07
1.78828e-07
-9.93059e-07
4.93887e-08
-9.51015e-07
-6.57928e-08
-8.66694e-07
-1.48246e-07
-7.55246e-07
-1.96118e-07
-6.71615e-07
-1.8618e-07
-1.22746e-07
-6.11941e-07
-1.19572e-07
2.89874e-07
-3.63582e-07
6.12695e-07
-6.56241e-07
7.40883e-07
-9.32085e-07
7.03097e-07
-1.1055e-06
4.93254e-07
-1.16968e-06
2.43008e-07
-1.17199e-06
5.17023e-08
-1.10453e-06
-1.33256e-07
-9.96272e-07
-2.56505e-07
-8.61326e-07
-3.32924e-07
-7.34873e-07
-3.12632e-07
-2.55505e-07
-5.11401e-07
-1.14882e-07
4.04756e-07
-3.54878e-07
8.52691e-07
-6.51295e-07
1.0373e-06
-9.33967e-07
9.8577e-07
-9.56704e-07
4.83025e-07
-8.68528e-07
1.13327e-07
-8.55298e-07
1.7175e-08
-9.04175e-07
-3.67218e-08
-9.42335e-07
-1.79966e-07
-8.4153e-07
-4.09121e-07
-7.45418e-07
-4.08745e-07
-3.63551e-07
-6.37373e-07
-7.00515e-08
4.74807e-07
-2.26521e-07
1.00916e-06
-4.16365e-07
1.22714e-06
-4.4181e-07
9.57319e-07
-1.23281e-07
2.70517e-08
-1.57714e-08
3.98553e-12
7.38732e-11
1.94822e-18
-3.6648e-08
-2.2367e-17
-1.38868e-07
-5.13545e-17
-3.70457e-07
-9.12906e-09
-5.50389e-07
-1.03384e-07
-2.69472e-07
-5.82826e-07
-8.66997e-09
4.83477e-07
-3.8945e-08
1.03944e-06
-6.23911e-08
1.24466e-06
5.39789e-09
7.13011e-07
-3.98549e-12
3.0263e-09
-7.84204e-18
5.67394e-17
-1.65818e-17
1.80616e-17
-2.29152e-17
-8.35594e-18
-3.37427e-17
-2.2271e-17
-9.12906e-09
-2.29852e-17
-6.5216e-08
-2.23271e-17
-3.94092e-17
-1.39827e-07
4.56642e-08
4.37813e-07
1.51309e-07
9.33791e-07
3.13649e-07
1.08232e-06
1.62912e-07
6.81181e-07
1.03131e-16
9.55412e-08
6.44139e-17
8.28308e-17
3.07998e-17
4.07434e-17
1.19589e-17
6.3218e-18
-5.30617e-18
-5.00488e-18
-1.78508e-17
-6.33882e-18
-2.66337e-17
-1.82337e-17
-2.70249e-17
-3.43283e-17
5.75919e-08
3.80221e-07
2.40588e-07
7.50795e-07
4.84456e-07
8.38448e-07
4.92583e-07
5.88561e-07
2.78513e-08
3.52766e-07
1.09167e-16
2.78513e-08
7.80224e-17
5.52261e-17
6.15197e-17
1.03913e-17
4.22959e-17
7.71594e-18
1.39278e-17
1.92473e-17
-5.35945e-18
5.77511e-19
-1.77338e-17
-1.39441e-17
6.08844e-08
3.19337e-07
2.89416e-07
5.22264e-07
5.68361e-07
5.59503e-07
8.73402e-07
2.8352e-07
5.49891e-07
5.01604e-07
4.62632e-08
2.89203e-07
9.83039e-17
4.62632e-08
1.13332e-16
5.66761e-19
8.4279e-17
1.73404e-17
6.37349e-17
4.39915e-17
3.98873e-17
2.36132e-17
-7.12575e-18
2.82969e-17
1.72899e-07
1.46437e-07
5.04797e-07
1.90366e-07
7.90021e-07
2.74279e-07
1.0723e-06
1.24094e-09
1.08238e-06
4.91521e-07
9.54369e-07
2.08642e-07
1.63838e-07
4.2074e-07
3.88861e-08
-1.73105e-07
1.1155e-08
-3.51845e-08
-3.32959e-12
1.11583e-08
3.182e-09
1.63986e-09
3.182e-09
1.12847e-16
2.19345e-07
-1.51847e-17
5.02639e-07
-2.3975e-18
9.85166e-07
-1.34719e-19
1.52838e-06
-1.29811e-19
1.43726e-06
5.82642e-07
1.60706e-06
3.88451e-08
1.49886e-06
4.35288e-07
1.42574e-06
-1.88165e-07
1.37501e-06
-3.02359e-07
1.34247e-06
1.57542e-08
1.81623e-06
3.27223e-08
1.33261e-06
2.76842e-07
-1.70137e-07
-1.20994e-08
-1.42657e-07
-2.74792e-08
-1.33413e-07
-9.24471e-09
-1.37104e-07
3.69159e-09
-1.32114e-07
-4.85326e-09
-1.17425e-07
-1.46565e-08
-9.31778e-08
-2.42474e-08
-6.90354e-08
-2.41865e-08
-5.04313e-08
-1.86132e-08
-3.55332e-08
-1.48985e-08
-1.49179e-08
-2.06153e-08
-1.49177e-08
-4.09663e-07
-2.8759e-08
-3.82669e-07
-3.33834e-08
-3.98721e-07
3.44452e-09
-4.2045e-07
2.45977e-08
-3.92468e-07
-4.34314e-08
-3.41349e-07
-7.26132e-08
-2.73705e-07
-9.18891e-08
-2.09251e-07
-8.79298e-08
-1.54836e-07
-7.30287e-08
-1.0759e-07
-6.21445e-08
-4.55816e-08
-8.26237e-08
-6.05002e-08
-3.88348e-07
-3.45678e-08
-3.67658e-07
-5.38539e-08
-3.57299e-07
-7.0577e-09
-5.28457e-07
6.35229e-09
-5.03144e-07
-6.87451e-08
-4.44528e-07
-1.31228e-07
-3.59848e-07
-1.7657e-07
-2.52628e-07
-1.87309e-07
-1.97453e-07
-1.18001e-07
-1.83786e-07
-6.57967e-08
-9.55956e-08
-1.70124e-07
-1.56096e-07
-3.82848e-07
-6.75672e-08
-3.19011e-07
-1.17848e-07
-3.36875e-07
1.10807e-08
-5.46019e-07
1.21657e-08
-5.3416e-07
-8.06041e-08
-4.97759e-07
-1.6763e-07
-4.36035e-07
-2.38294e-07
-3.29927e-07
-2.83928e-07
-1.56195e-07
-2.5135e-07
-9.44698e-08
-1.35837e-07
-6.44071e-08
-1.76128e-07
-2.0171e-07
-4.32838e-07
-2.55357e-07
-3.73199e-07
-7.7492e-08
-5.57368e-07
1.27862e-07
-5.76761e-07
-7.31053e-08
-5.06733e-07
-1.50632e-07
-4.76144e-07
-1.98219e-07
-4.54039e-07
-2.60399e-07
-4.03333e-07
-3.34633e-07
-2.93203e-07
-3.71881e-07
-1.30712e-07
-3.11972e-07
-1.67414e-08
-2.68797e-07
-1.97436e-07
-4.05234e-07
-4.09834e-07
-2.69911e-07
-2.09975e-07
-1.34026e-07
9.16523e-09
-1.48452e-07
-6.9397e-08
-2.0308e-07
-9.60039e-08
-2.73711e-07
-1.27588e-07
-3.47732e-07
-1.86377e-07
-3.93663e-07
-2.88701e-07
-3.76921e-07
-3.88622e-07
-2.41229e-07
-4.47666e-07
-8.18272e-08
-4.64346e-07
-2.79263e-07
-2.99596e-07
-1.18872e-08
-2.83221e-07
-9.21202e-08
-6.30298e-08
-1.53829e-07
2.2106e-08
-1.38257e-07
1.20339e-08
-8.59318e-08
-5.06398e-08
-6.49142e-08
-1.47507e-07
-8.95091e-08
-2.29624e-07
-2.06587e-07
-2.5544e-07
-3.62807e-07
-1.74512e-07
-5.26514e-07
-1.99578e-08
-6.24071e-07
-3.66428e-07
-1.18872e-08
-2.98559e-17
-5.54202e-08
-3.10832e-17
-4.8953e-08
-3.01488e-17
2.32292e-09
-1.72975e-09
1.00911e-07
-4.44163e-08
1.21136e-07
-5.70345e-08
5.68777e-08
-2.52499e-08
-3.03984e-08
-1.19312e-07
-1.17913e-07
-2.75291e-07
-1.46202e-07
-4.96765e-07
-8.02241e-08
-6.96175e-07
-4.46652e-07
-1.75258e-17
-2.97952e-17
-1.81171e-17
-3.05133e-17
-1.48235e-17
-3.3421e-17
-1.72975e-09
-2.78069e-17
-7.90039e-10
-1.7195e-17
9.04914e-08
-1.10551e-17
1.65736e-07
-2.27363e-08
1.30141e-07
-8.37153e-08
2.75355e-08
-1.72687e-07
-9.5502e-08
-3.74315e-07
-6.78103e-08
-7.31209e-07
-5.00959e-07
1.897e-17
-3.01011e-17
1.17011e-17
-3.47884e-17
9.66053e-18
-4.62706e-17
9.83713e-18
-3.08626e-17
5.30505e-18
-1.26629e-17
6.0214e-18
-1.17715e-17
2.42066e-08
-7.50041e-10
1.62092e-07
-7.0713e-08
1.65583e-07
-1.47761e-07
9.54994e-09
-2.18891e-07
-1.2867e-08
-7.18652e-07
-5.13826e-07
1.12691e-16
-4.90371e-17
9.16132e-17
-2.94243e-17
7.7719e-17
-7.03704e-17
4.84286e-17
-3.09153e-17
1.96667e-17
-1.11073e-18
4.15419e-18
8.11502e-18
-7.50041e-10
1.31065e-17
3.72084e-08
-2.79838e-08
2.45704e-07
-8.47347e-08
2.75005e-07
-1.01713e-07
2.52574e-07
-6.757e-07
-2.74667e-07
7.2269e-07
3.25033e-07
6.34317e-07
1.06827e-08
4.82198e-07
-2.45486e-07
5.61415e-08
-2.82105e-07
6.88901e-17
5.61415e-08
2.65496e-17
4.4361e-17
1.7361e-17
2.83896e-17
4.49389e-08
-4.07354e-08
2.51115e-07
-1.05943e-07
1.02229e-06
-2.18566e-07
1.22113e-06
-4.84611e-07
9.46464e-07
3.84812e-06
-1.74695e-07
-4.05589e-06
3.79094e-06
-2.30315e-07
3.7778e-06
-3.41835e-07
3.5175e-06
-5.41133e-07
3.18265e-06
-5.42388e-07
3.58164e-06
-2.63181e-07
4.54042e-06
-1.33902e-07
5.08515e-06
-1.7572e-09
4.94861e-06
1.46267e-07
4.74233e-06
8.10751e-08
4.46554e-06
2.20181e-07
3.03542e-07
3.4832e-06
5.3108e-06
-3.09486e-07
-5.16732e-06
5.38847e-06
-3.09064e-07
5.39302e-06
-3.45309e-07
5.38229e-06
-5.34235e-07
3.88027e-06
-7.4794e-07
3.33197e-06
-6.531e-07
3.5287e-06
-4.23034e-07
3.71663e-06
-9.72784e-08
5.78486e-06
2.82677e-07
5.50904e-06
3.56291e-07
4.8864e-06
4.9237e-07
6.58777e-07
4.53469e-06
6.22244e-06
-6.13356e-07
-3.57302e-06
6.3576e-06
-4.43101e-07
6.36087e-06
-3.72778e-07
6.51634e-06
-6.19502e-07
6.60829e-06
-7.81954e-07
6.26065e-06
-6.17843e-07
3.95809e-06
-5.35376e-07
4.70681e-06
4.89562e-08
6.24212e-06
2.87769e-07
6.10947e-06
4.89572e-07
5.79701e-06
7.52499e-07
9.63799e-07
5.49586e-06
6.67051e-06
-6.88219e-06
-5.92144e-07
5.95932e-06
-5.60236e-07
6.04201e-06
-6.04219e-07
6.94316e-06
-7.32179e-07
7.06355e-06
-6.89913e-07
6.98512e-06
-5.39407e-07
6.88395e-06
-4.34205e-07
6.59557e-06
2.00951e-07