/*--------------------------------*- C++ -*----------------------------------*\
| =========                 |                                                 |
| \\      /  F ield         | OpenFOAM: The Open Source CFD Toolbox           |
|  \\    /   O peration     | Version:  2.4.0                                 |
|   \\  /    A nd           | Web:      www.OpenFOAM.org                      |
|    \\/     M anipulation  |                                                 |
\*---------------------------------------------------------------------------*/
FoamFile
{
    version     2.0;
    format      ascii;
    class       volScalarField;
    location    "0.7";
    object      p_rgh;
}
// * * * * * * * * * * * * * * * * * * * * * * * * * * * * * * * * * * * * * //

dimensions      [1 -1 -2 0 0 0 0];

internalField   nonuniform List<scalar> 
3072
(
0
0.0153386
-0.0214639
-0.118257
-0.266127
-0.422474
-0.582854
-0.732942
-0.752574
-0.635843
-0.4365
-0.456483
1.39576
1.36088
1.27919
1.15456
1.01499
0.838655
0.669691
0.492731
0.670144
1.30833
2.41866
1.76471
2.75255
2.67948
2.55559
2.42103
2.30902
2.25554
2.25346
2.36632
7.2528
3.71168
4.97826
4.36499
4.30853
4.19743
4.05459
3.93947
3.90064
3.97679
4.15485
4.63689
10.3237
7.2764
6.89453
6.91629
6.00341
5.87227
5.73213
5.66277
5.7281
6.00098
6.47969
7.28644
12.4172
9.60135
9.15259
9.28377
7.80071
7.68379
7.56967
7.56045
7.71394
8.14042
8.86938
9.6934
10.52
10.987
11.3508
11.6691
9.6608
9.6236
9.5689
9.63502
9.83221
10.3083
11.1304
11.9991
13.1096
13.5843
13.7369
13.9813
11.5289
11.6888
11.7466
11.9256
12.131
12.5304
13.0488
14.8148
14.1446
15.4944
15.9131
16.0319
13.3095
13.8632
14.0965
14.4549
14.7095
15.1006
15.4363
16.302
21.5633
21.0713
19.8315
18.4708
14.8187
16.1039
16.5604
17.1238
17.4964
18.0267
18.4449
18.9139
25.0187
25.5753
25.0244
25.6807
15.732
18.3349
19.0504
19.7552
20.2367
20.9104
21.7142
22.3316
23.4772
26.3127
27.6152
27.5467
14.7142
20.2298
21.2855
21.9799
22.5518
23.4421
24.6525
25.9398
27.7175
28.2572
27.1283
25.7129
-0.0375884
0.378903
0.890998
-0.428265
-1.07924
-0.510062
0.212477
1.48516
1.1614
0.911039
0.839756
0.731578
5.23088
6.09162
5.36369
5.49173
7.17045
6.31697
2.71045
2.85129
2.41154
1.8178
1.4823
2.00665
5.75774
10.518
8.14407
4.86144
4.38239
4.95971
4.40971
5.13103
6.5779
6.11351
4.13959
2.63849
6.47378
6.23895
6.43843
6.84202
6.56378
6.77243
6.65195
5.68139
5.1618
4.23231
5.35327
9.05087
9.2871
9.3455
9.34
9.4693
9.77799
9.33725
8.35758
7.52146
6.64017
5.51895
4.13908
2.97914
11.8351
11.8886
11.805
11.5953
11.6585
11.3382
10.273
9.3099
8.2271
7.01862
5.5973
4.04297
14.2622
14.2175
14.1235
13.9322
13.6468
13.2321
12.4269
11.1349
9.93992
8.69751
8.01453
6.57381
16.5339
16.3627
16.3346
16.2118
16.0128
15.6627
14.6893
14.0095
13.9612
11.5532
11.0828
11.3042
18.8839
18.2698
18.4339
18.4493
18.4184
18.2676
17.7187
19.3319
21.1232
18.6514
15.8582
18.4444
25.6611
21.4978
20.3076
20.5713
20.6911
20.7162
20.4442
22.007
22.4585
21.7759
22.6733
27.121
29.6589
24.7989
22.2325
22.6236
22.7113
22.6599
23.3194
24.2564
24.6417
25.1444
30.5526
35.4241
23.8759
23.9127
24.1521
24.5902
24.538
24.544
26.1661
26.4167
26.7002
27.871
35.6603
42.3012
5.57116
5.59024
5.53868
5.41106
5.21684
4.99503
4.75644
4.48884
4.2048
3.92098
3.66356
3.46915
6.9785
6.94054
6.85031
6.71954
6.5884
6.42776
6.28612
6.17522
6.09005
6.02661
5.98521
5.97499
8.36011
8.27233
8.12825
7.97503
7.85096
7.80989
7.83683
7.93503
8.08249
8.24876
8.40615
8.54223
9.95418
9.82009
9.65251
9.51795
9.46762
9.54035
9.73515
10.0288
10.3684
10.6904
10.9434
11.1091
11.6965
11.5376
11.3733
11.2881
11.3298
11.5363
11.8936
12.3501
12.8174
13.2029
13.4451
13.5385
13.5476
13.3995
13.2672
13.2585
13.4026
13.7384
14.2288
14.7954
15.3188
15.6879
15.8456
15.8106
15.4648
15.3864
15.3178
15.4152
15.6569
16.095
16.6685
17.2824
17.7974
18.0964
18.1343
17.9563
17.3923
17.4822
17.5137
17.7511
18.0713
18.563
19.1503
19.7416
20.195
20.3957
20.3104
20.0038
19.25
19.665
19.8595
20.2452
20.6121
21.0925
21.6099
22.1047
22.454
22.5491
22.3608
21.9602
20.8655
21.8757
22.2584
22.8242
23.1935
23.6027
23.9722
24.303
24.5181
24.5155
24.2595
23.8134
21.9228
24.0796
24.5991
25.3036
25.6464
25.9492
26.1382
26.2717
26.3438
26.2615
25.978
25.54
21.1216
25.9639
26.5118
27.2363
27.6755
27.8829
27.9581
27.9401
27.9067
27.7763
27.5009
27.1187
3.37998
3.43522
3.65887
4.0451
4.58852
5.26292
5.86665
6.29211
6.45528
6.35538
6.0971
5.82699
6.0172
6.14124
6.37458
6.73385
7.17393
7.56955
7.8865
8.02166
7.91148
7.57156
7.12534
6.71657
8.66569
8.80117
8.97629
9.21078
9.48328
9.7177
9.84707
9.78078
9.45567
8.87127
8.17128
7.49722
11.2055
11.2719
11.3476
11.4624
11.5944
11.7075
11.7336
11.5782
11.1613
10.4212
9.48389
8.51012
13.5262
13.4719
13.4312
13.4349
13.4812
13.5334
13.54
13.3984
13.0246
12.2704
11.1916
9.95021
15.6569
15.4732
15.3307
15.2591
15.2712
15.3229
15.383
15.3362
15.1239
14.5046
13.4483
12.0441
17.6643
17.3676
17.1492
17.0405
17.0603
17.1587
17.3328
17.4483
17.5092
17.1691
16.3701
14.9499
19.5963
19.2109
18.9385
18.8133
18.8628
19.0325
19.361
19.6947
20.1439
20.2359
19.9931
18.7437
21.4718
21.0238
20.7096
20.5695
20.6407
20.8743
21.3612
21.9425
22.8837
23.5777
24.2494
23.4545
23.2875
22.8054
22.4548
22.2906
22.3462
22.6055
23.2036
24.0085
25.4752
26.9149
28.9149
29.0151
25.0241
24.5401
24.1617
23.9575
23.9488
24.1706
24.7804
25.7087
27.5652
29.7027
33.3526
34.9561
26.6557
26.2022
25.8042
25.54
25.4288
25.5489
26.04
26.9247
28.8041
31.1591
35.9017
39.6439
3.94821
3.9605
3.90683
3.78168
3.59349
3.39423
3.16863
2.91635
2.65005
2.3877
2.1578
1.99924
5.36944
5.32933
5.24506
5.12775
5.00868
4.86866
4.75322
4.66839
4.61034
4.57603
4.56703
4.59416
6.74839
6.66432
6.53556
6.40466
6.32108
6.30867
6.37315
6.50946
6.69414
6.89607
7.08818
7.25987
8.33518
8.2121
8.07033
7.97409
7.96898
8.09191
8.34022
8.68537
9.07075
9.4309
9.71588
9.91121
10.0657
9.92534
9.79766
9.76164
9.86417
10.139
10.5664
11.0871
11.6064
12.0292
12.2978
12.4133
11.904
11.7808
11.6958
11.747
11.9685
12.3917
12.9707
13.6149
14.1951
14.5993
14.7767
14.756
13.8137
13.7617
13.7503
13.9157
14.2538
14.8026
15.4866
16.1932
16.7696
17.0999
17.1492
16.9764
15.7591
15.8586
15.9563
16.264
16.7031
17.3341
18.0577
18.7589
19.277
19.5027
19.4176
19.1042
17.6561
18.0522
18.299
18.7758
19.2894
19.9419
20.6239
21.2468
21.6607
21.7709
21.5679
21.1449
19.3693
20.2995
20.7212
21.3849
21.9424
22.5537
23.1125
23.5869
23.8607
23.8587
23.5706
23.0832
20.6018
22.5067
23.1101
23.9532
24.5144
25.0425
25.43
25.7121
25.8259
25.7247
25.3917
24.8917
20.2309
24.3554
25.1359
26.115
26.7468
27.1947
27.4429
27.5556
27.5267
27.3501
27.0101
26.5445
1.95564
2.06664
2.35511
2.81353
3.44495
4.19453
4.86839
5.34857
5.54599
5.45942
5.19837
4.91724
4.68063
4.85734
5.1523
5.5812
6.08459
6.54875
6.92455
7.10381
7.01861
6.68412
6.22875
5.80443
7.42214
7.60172
7.82677
8.11224
8.44388
8.73383
8.91186
8.88269
8.57843
7.9962
7.28299
6.58882
10.0389
10.141
10.2588
10.4229
10.5945
10.7503
10.8167
10.6946
10.2988
9.56284
8.61137
7.61338
12.4246
12.3983
12.3902
12.4299
12.5122
12.6008
12.642
12.5318
12.1813
11.4367
10.3465
9.08048
14.6186
14.4563
14.3386
14.2955
14.3384
14.4215
14.512
14.4958
14.3099
13.7078
12.6467
11.2214
16.6923
16.4097
16.2091
16.1245
16.168
16.2936
16.4956
16.6431
16.7354
16.4229
15.6301
14.1939
18.6933
18.3126
18.0497
17.9432
18.0093
18.2027
18.5584
18.929
19.4183
19.5537
19.3321
18.0726
20.6383
20.1827
19.8682
19.7396
19.8198
20.0733
20.5879
21.2141
22.2082
22.9697
23.6809
22.888
22.5215
22.017
21.6553
21.4899
21.5494
21.823
22.4496
23.3086
24.844
26.3824
28.4415
28.5755
24.3213
23.7979
23.3934
23.1717
23.1619
23.3939
24.0319
25.0203
26.9613
29.2312
32.9567
34.65
26.0094
25.4984
25.0611
24.7667
24.6425
24.7649
25.2792
26.2198
28.193
30.7058
35.5552
39.3677
-11.6461
-11.7968
-11.9243
-12.0448
-12.1571
-12.2759
-12.4187
-12.5916
-12.7988
-13.0325
-13.2692
-13.4659
-8.43559
-8.59266
-8.60966
-8.55949
-8.48999
-8.45295
-8.48212
-8.56919
-8.72133
-8.93836
-9.1863
-9.37785
-5.90741
-5.88934
-5.6216
-5.22768
-4.78249
-4.40398
-4.19052
-4.07827
-4.09487
-4.28294
-4.57141
-4.77768
-3.42688
-3.11853
-2.43146
-1.57345
-0.499714
0.487747
1.11424
1.68123
2.02868
1.81477
1.26027
0.889533
-1.14859
-0.484889
0.594563
1.78972
3.84534
5.79301
6.94218
7.63095
7.43112
7.26068
6.82017
6.50768
1.11725
2.11281
3.41958
4.97642
9.38193
11.7168
11.943
11.5555
11.1011
10.7985
10.7245
10.5907
3.61153
4.91155
6.31259
8.43225
14.5928
14.409
14.4731
14.2978
14.1181
13.9892
13.9527
13.9352
6.51147
8.0504
9.369
10.816
16.8425
16.8514
16.9794
16.8875
16.8211
16.8111
16.8371
16.877
9.93955
11.7343
12.9419
13.9033
18.0804
18.9731
19.301
19.2267
19.1577
19.2354
19.2699
19.297
13.7366
15.9852
16.931
17.6023
18.146
20.5386
21.5077
21.313
21.0981
21.3229
21.3022
21.231
17.3534
20.6772
21.2415
21.4831
21.7139
20.3249
22.7881
23.0914
22.5251
23.1719
23.0013
22.7665
19.1548
25.1427
25.4247
25.224
25.904
26.469
25.4546
23.3227
22.1758
24.8258
24.3454
23.9338
-13.5992
-13.6609
-13.629
-13.4914
-13.2249
-12.8154
-12.3809
-12.0099
-11.7954
-11.8082
-12.0004
-12.245
-9.50296
-9.58439
-9.58053
-9.45905
-9.27674
-9.01304
-8.74326
-8.8066
-8.84204
-9.12865
-9.56391
-10.0054
-4.9288
-5.127
-5.2466
-5.31974
-5.14259
-5.06366
-5.15658
-5.24026
-5.50134
-6.11607
-6.94578
-7.75843
0.615923
0.0946931
-0.272604
-0.449259
-0.761958
-0.981996
-1.05728
-1.48211
-1.67015
-2.30351
-3.6856
-4.82674
6.38784
5.69897
4.90696
4.66626
4.05083
3.59411
3.0424
4.37788
7.1643
4.67232
0.676875
-0.773223
10.5733
10.9421
10.0089
10.2224
9.22798
7.84435
6.77505
9.30519
11.565
10.7398
7.21897
3.51138
14.013
14.2942
14.4995
14.4666
13.2206
10.4427
10.008
9.13965
8.95193
7.70905
6.75556
6.08539
17.003
17.2906
17.636
17.9581
18.5552
15.0893
12.9321
12.8693
13.1218
13.2974
13.1524
11.5723
19.4154
19.7175
20.1949
20.7098
21.7706
19.3242
15.6903
16.4441
17.6979
18.8239
19.9526
21.7729
21.2805
21.5274
21.9242
22.2438
22.9551
20.0962
18.7119
19.9426
22.0757
24.311
27.8334
31.0816
22.7351
22.9114
23.2003
22.9681
22.2933
20.4708
21.8381
22.9593
25.6598
28.8483
35.0649
40.6819
23.9188
23.9547
24.0534
23.7404
23.7534
23.4797
24.095
25.023
27.7635
31.2782
39.1836
46.6826
19.8371
22.5741
23.0864
23.7816
23.7284
25.0728
26.8302
28.4117
29.814
31.601
30.8854
29.3661
21.7063
22.5674
23.1796
24.0776
24.465
25.6434
27.3518
29.7099
30.9251
29.805
28.3717
27.4649
21.2945
21.81
22.4547
23.5338
24.4841
25.8092
26.8803
28.4214
32.1061
33.6442
35.2539
38.0053
19.6061
20.5342
21.7079
22.9012
24.09
25.4581
27.8191
31.9412
36.9317
39.9092
40.096
39.032
27.2641
26.352
26.0469
26.48
26.2268
26.73
28.4306
28.3139
28.1501
29.0909
33.2187
33.3388
27.6668
27.1416
27.5348
28.1974
27.5296
29.1689
30.9213
30.245
29.2774
28.7776
28.1988
27.8987
37.6785
37.7639
29.3702
29.0207
28.3904
33.4052
33.5506
31.9059
29.8375
27.4441
25.5417
25.1429
40.9374
39.5344
42.6336
39.9917
35.1265
32.5092
32.7674
32.0889
30.1152
27.6428
24.3586
22.4684
24.8055
27.0365
27.4644
28.1648
28.6575
29.107
29.2652
29.2227
29.1901
29.0727
28.837
28.5455
24.7007
25.4592
25.8679
27.2606
28.3791
29.3348
29.9881
30.376
30.2459
30.1771
30.0227
29.851
22.9841
23.2263
23.9685
25.7217
27.4616
29.0347
30.0871
30.7276
31.025
31.1072
31.0833
31.0757
20.4426
20.193
21.5463
23.7938
26.2251
28.4411
29.9377
31.1125
31.734
32.2438
33.6142
33.7394
28.1656
27.7683
27.3656
27.0396
26.7965
26.7565
26.9986
27.6453
29.0671
30.9418
33.8697
33.8093
29.5747
29.2459
28.8517
28.4843
28.1101
27.868
27.7561
27.9491
28.5445
29.6208
30.6824
30.6906
30.9362
30.6981
30.3094
29.9666
29.5058
29.0543
28.5191
28.0528
27.5632
27.5953
27.4221
27.8912
32.765
32.2846
32.0167
31.5865
31.0597
30.4014
29.4435
28.2847
26.7292
25.5829
24.3449
24.3585
25.5575
26.7255
26.8759
27.6356
28.2301
28.7253
28.9778
29.0398
28.9475
28.7434
28.4324
28.0345
25.8252
26.2936
26.7511
27.7247
28.649
29.4257
29.8979
30.0959
30.0787
29.9329
29.6977
29.3925
25.1178
25.4048
26.0679
27.198
28.4116
29.5042
30.2897
30.7492
30.9344
30.9481
30.852
30.6707
23.6982
24.1249
24.9863
26.2817
27.7764
29.2019
30.3283
31.0911
31.5563
31.821
31.9391
31.9271
27.5664
27.0932
26.6443
26.2695
26.0037
25.9546
26.2051
26.885
28.3866
30.4286
33.5595
34.1958
29.0086
28.583
28.1568
27.712
27.3095
27.0461
26.9151
27.0933
27.7082
28.8823
30.144
30.5888
30.3924
30.019
29.5904
29.1939
28.7064
28.2232
27.6321
27.0823
26.4905
26.4749
26.3557
26.9574
31.8099
31.5852
31.2399
30.8121
30.2676
29.5703
28.5229
27.212
25.4169
24.011
22.5575
22.6122
26.9336
28.7096
28.6654
28.2906
28.7483
29.4285
30.4869
30.7453
32.3078
26.4391
24.3934
23.0472
26.3509
27.5954
28.6229
29.3025
29.5721
30.8615
32.5499
33.643
33.8922
31.7152
31.264
32.705
24.7259
25.8026
27.338
28.9049
30.3706
32.0701
33.5819
35.198
35.8039
30.504
32.4372
33.8684
22.2559
23.3435
25.256
27.694
30.2138
33.2307
38.0619
41.7358
43.8387
48.8978
49.9506
49.3691
22.8525
23.3928
25.2885
26.2794
25.8492
24.9126
25.5792
26.3762
28.1194
30.8396
35.4606
34.5779
32.3921
30.6004
28.9637
28.5611
26.8559
27.7818
27.8252
27.2995
27.0473
28.5639
30.1693
29.716
33.7892
32.3858
30.2611
29.7723
29.7702
28.3829
27.0598
25.8229
24.9434
25.0086
24.8127
25.4234
48.4963
45.558
39.2572
31.763
29.6321
29.1518
27.3228
25.2826
22.8117
21.1645
19.5443
20.3173
19.3333
20.5347
21.9549
23.2839
24.5822
25.8699
27.7015
30.3103
29.8393
28.7953
30.5981
32.2308
21.0089
22.126
23.5646
24.8078
25.8898
26.8889
27.6501
28.7256
29.0184
29.0019
29.9686
30.8252
22.7242
23.9389
25.5742
26.7057
26.9637
27.1828
27.8807
28.5542
28.7764
28.976
29.612
30.1064
24.0938
25.556
27.1267
27.3719
27.274
27.5648
28.0369
28.4843
28.71
28.9444
29.3621
29.6298
30.9884
30.2217
28.1893
27.1152
28.05
30.5685
31.7518
31.9196
30.7383
28.2761
24.8861
22.2501
30.5109
29.8939
28.853
28.3539
28.9585
30.3639
31.2364
31.3409
30.4406
28.5821
26.1466
24.1106
30.1569
29.7916
29.223
28.9952
29.4361
30.3007
30.9195
31.0021
30.3408
28.9556
27.1804
25.6406
30.0281
29.825
29.5021
29.4061
29.734
30.308
30.7461
30.8047
30.3248
29.3264
28.0547
26.9269
20.4237
20.0017
21.2144
23.3835
25.8274
28.2144
30.371
31.6746
32.3111
32.4323
32.6391
32.7004
22.7681
22.5627
23.27
25.0476
27.1808
28.9453
30.1026
31.0569
31.5862
31.9517
32.2091
32.2529
24.6362
24.5281
25.3156
26.6426
27.9566
29.1342
30.2559
30.9628
31.403
31.7093
31.9109
31.9944
26.2328
26.1542
26.6392
27.5556
28.6623
29.5877
30.394
30.9194
31.2777
31.5379
31.7129
31.8115
32.7554
32.7448
32.6241
32.3539
31.9299
31.2575
30.2053
28.7811
26.9535
25.2731
23.7651
23.3722
32.2836
32.3217
32.3166
32.1883
31.9001
31.3809
30.5378
29.339
27.8462
26.4075
25.2837
25.0422
32.1537
32.2088
32.2215
32.1423
31.9258
31.5133
30.8358
29.8629
28.659
27.467
26.5496
26.176
32.1087
32.1701
32.1779
32.111
31.9346
31.6051
31.0729
30.3145
29.3782
28.434
27.6941
27.3406
23.535
24.0231
24.9033
26.1605
27.6404
29.0811
30.2544
31.0783
31.6137
31.9608
32.172
32.2537
24.8832
25.2002
25.935
26.986
28.1969
29.3601
30.307
30.9764
31.4134
31.6897
31.832
31.8248
26.1304
26.4411
27.0735
27.9317
28.8709
29.7393
30.4319
30.9254
31.2587
31.4823
31.6069
31.6778
27.2862
27.5498
28.0589
28.7237
29.4194
30.044
30.5354
30.8948
31.1555
31.3522
31.4948
31.5547
32.259
32.0899
31.8927
31.6112
31.1595
30.4288
29.2632
27.6517
25.5399
23.5382
21.7424
21.3197
31.7201
31.7231
31.6615
31.5037
31.1764
30.5904
29.6285
28.2386
26.4789
24.7684
23.4572
23.0841
31.6358
31.6376
31.6071
31.4965
31.2414
30.7677
29.9842
28.8412
27.4073
25.9926
24.9602
24.6525
31.5831
31.605
31.5825
31.4896
31.2822
30.905
30.2903
29.3986
28.2845
27.1763
26.3849
26.1567
21.6218
22.6019
24.4403
26.9534
29.5107
31.8482
31.5796
29.8905
29.5491
29.6357
31.7059
33.491
23.1311
23.8478
25.2493
27.0877
28.9223
30.3896
30.4634
29.7682
29.6602
30.1328
31.2893
32.3223
24.7542
25.3256
26.3273
27.5317
28.5856
29.4764
29.4742
29.4436
29.6931
30.2875
31.1166
31.8499
26.2629
26.5975
27.2529
27.881
28.4873
29.0779
29.1613
29.3895
29.7363
30.2979
30.919
31.4419
34.3231
33.9817
32.6881
31.833
30.8407
29.8105
28.04
25.6894
22.8419
20.4053
18.4292
18.6072
33.053
33.0453
32.4881
31.9128
31.1445
30.1825
28.696
26.7196
24.4323
22.4229
21.0464
20.8167
32.5857
32.7125
32.4448
32.0191
31.3978
30.5598
29.331
27.7219
25.8911
24.2473
23.1275
22.7742
32.4291
32.576
32.4236
32.0928
31.585
30.8819
29.8873
28.6107
27.1746
25.8711
24.9932
24.5543
25.3688
27.3405
28.3401
28.133
27.7084
27.7694
28.0691
28.4109
28.6543
28.8813
29.1524
29.0781
27.7629
33.226
29.7229
28.6028
27.9469
27.8552
28.0636
28.3502
28.5989
28.8098
29.0301
29.0425
26.6456
28.7174
29.4412
28.6107
28.0396
27.9068
28.0676
28.3181
28.5558
28.7523
28.9289
28.9794
27.531
28.0572
28.9277
28.4674
28.0949
27.9713
28.0962
28.3113
28.526
28.7036
28.8496
28.9075
28.399
28.8122
28.5724
28.3608
28.1543
28.0483
28.1391
28.3165
28.5051
28.6627
28.7859
28.8417
29.031
29.6136
28.7811
28.3255
28.1941
28.111
28.1758
28.324
28.4887
28.6283
28.7343
28.7861
29.5257
30.0835
29.3159
28.2356
28.1809
28.1411
28.199
28.3283
28.474
28.5993
28.6928
28.7403
29.8687
30.4058
30.6365
28.0274
28.1116
28.1414
28.2089
28.3279
28.4602
28.5753
28.6603
28.7037
30.0423
30.3211
29.9108
27.8877
28.08
28.1344
28.2106
28.3237
28.4474
28.5562
28.6363
28.6766
30.085
29.9397
28.5455
27.9109
28.0897
28.1292
28.2067
28.3161
28.4356
28.542
28.6203
28.6594
30.0608
29.2811
28.7486
28.0498
28.1022
28.118
28.1959
28.3052
28.4249
28.5322
28.612
28.6523
30.0365
30.4413
30.3202
28.1898
28.1053
28.0983
28.1799
28.2927
28.4159
28.5265
28.61
28.6545
30.2006
29.935
29.7208
29.6867
29.9311
30.3305
30.6454
30.6902
30.3473
29.6346
28.7326
27.9246
30.2248
30.0261
29.8812
29.8773
30.061
30.3464
30.5747
30.6094
30.366
29.8587
29.2174
28.6412
30.2186
30.0884
29.9934
30.0046
30.1445
30.352
30.5179
30.5427
30.3663
30.0007
29.5394
29.1203
30.2198
30.1308
30.0698
30.0886
30.1966
30.3491
30.4687
30.4829
30.3489
30.077
29.7349
29.4187
30.2223
30.1594
30.1211
30.1432
30.2276
30.3407
30.4256
30.4291
30.3207
30.1093
29.8454
29.5987
30.2223
30.1778
30.1549
30.178
30.2449
30.3293
30.3885
30.3824
30.2891
30.1169
29.9042
29.7051
30.2195
30.1889
30.1763
30.1993
30.2534
30.3172
30.3574
30.3435
30.2595
30.113
29.9346
29.7691
30.2153
30.1948
30.1893
30.2117
30.2565
30.3056
30.3322
30.3124
30.2343
30.1053
29.9512
29.8089
30.2106
30.1972
30.1964
30.2182
30.2565
30.2956
30.3127
30.2886
30.2144
30.0974
29.96
29.8342
30.2059
30.1972
30.1994
30.2209
30.2552
30.2878
30.2987
30.2717
30.2
30.0908
29.9645
29.8499
30.2016
30.1954
30.1994
30.2211
30.2535
30.2826
30.29
30.2612
30.1908
30.086
29.9662
29.858
30.1979
30.193
30.1975
30.2198
30.252
30.28
30.2859
30.2562
30.1859
30.083
29.9663
29.8615
27.4234
27.3559
27.7323
28.4191
29.2096
29.8842
30.4697
30.8737
31.1723
31.4005
31.5562
31.6137
28.2796
28.2287
28.4963
28.9883
29.5525
30.0504
30.49
30.8195
31.0793
31.2855
31.4303
31.4956
28.8516
28.8046
28.9892
29.3413
29.7521
30.1351
30.4836
30.7672
31.0013
31.1912
31.3245
31.3896
29.2126
29.1663
29.2941
29.5536
29.8663
30.1771
30.4698
30.7235
30.9388
31.1141
31.2366
31.298
29.4342
29.3899
29.4817
29.6828
29.9346
30.1995
30.4569
30.6892
30.8897
31.0518
31.1643
31.2212
29.5702
29.5304
29.601
29.7655
29.979
30.2135
30.4469
30.6626
30.8503
31.0017
31.1058
31.158
29.656
29.622
29.6806
29.8219
30.0104
30.2233
30.4398
30.6421
30.8193
30.9622
31.0595
31.1074
29.712
29.6838
29.7358
29.8619
30.0335
30.231
30.4343
30.6266
30.7957
30.9321
31.0244
31.0688
29.7492
29.726
29.7743
29.8901
30.0501
30.2369
30.4305
30.6155
30.7788
30.9106
30.9996
31.0414
29.7731
29.7537
29.7999
29.9091
30.0615
30.241
30.4283
30.6083
30.7678
30.8969
30.9845
31.0251
29.7867
29.7696
29.8136
29.9196
30.068
30.2435
30.4273
30.6046
30.7623
30.8903
30.9782
31.0197
29.7927
29.7767
29.82
29.9243
30.0707
30.2446
30.4271
30.6036
30.7609
30.8892
30.9788
31.0237
32.1481
32.1535
32.144
32.0798
31.9303
31.6632
31.2446
30.6593
29.9443
29.219
28.6409
28.3339
32.1495
32.1334
32.1076
32.0424
31.91
31.6873
31.3523
30.8979
30.3529
29.8012
29.3531
29.0893
32.1318
32.1067
32.0704
32.0027
31.8802
31.6867
31.4091
31.0462
30.6217
30.1944
29.8388
29.6096
32.1058
32.0765
32.0339
31.9633
31.846
31.6709
31.4308
31.1285
30.7841
30.4397
30.1444
29.9403
32.0765
32.0457
31.9994
31.926
31.8113
31.6476
31.4317
31.1686
30.8755
30.5844
30.3286
30.1411
32.0474
32.0165
31.9679
31.8921
31.7787
31.6223
31.4222
31.1846
30.9244
30.6656
30.4375
30.2621
32.0207
31.9904
31.9402
31.8624
31.7495
31.598
31.4087
31.1881
30.9499
30.7142
30.5034
30.3373
31.9979
31.9685
31.9169
31.8373
31.7245
31.5765
31.3948
31.186
30.963
30.743
30.545
30.3864
31.9802
31.9514
31.8985
31.8172
31.7043
31.5585
31.3821
31.1818
30.9693
30.7605
30.5721
30.4194
31.9682
31.9397
31.8852
31.8022
31.6888
31.5444
31.3715
31.177
30.9721
30.7711
30.5897
30.4417
31.9629
31.9332
31.8766
31.7921
31.6781
31.5342
31.3635
31.1727
30.9727
30.7773
30.6007
30.4558
31.9636
31.9311
31.872
31.7863
31.6716
31.5278
31.3582
31.1694
30.9723
30.7803
30.6069
30.4638
28.2647
28.4494
28.8209
29.3024
29.7939
30.2344
30.5864
30.8594
31.0767
31.2576
31.3953
31.4834
29.0057
29.1102
29.3554
29.6849
30.0224
30.3362
30.6003
30.8228
31.0145
31.1829
31.3152
31.4045
29.5128
29.5518
29.6994
29.9193
30.1538
30.3879
30.6001
30.793
30.9681
31.1233
31.2455
31.3227
29.8337
29.8277
29.9095
30.0587
30.2303
30.4168
30.5982
30.7719
30.9334
31.0757
31.1858
31.2534
30.0291
29.9962
30.0382
30.1443
30.279
30.4368
30.5983
30.7577
30.9068
31.0368
31.1356
31.1955
30.1487
30.1019
30.1212
30.2015
30.3138
30.453
30.6001
30.7474
30.8855
31.0047
31.0937
31.1468
30.2251
30.1721
30.1787
30.2429
30.3408
30.4661
30.6021
30.7395
30.8681
30.9784
31.0595
31.1066
30.2765
30.221
30.2202
30.2737
30.3613
30.4765
30.6035
30.7328
30.854
30.9575
31.0328
31.0749
30.312
30.2555
30.2501
30.296
30.3762
30.4836
30.604
30.7272
30.8429
30.9417
31.0127
31.0515
30.3362
30.2791
30.2703
30.3109
30.3857
30.4877
30.6035
30.7227
30.8349
30.9309
31.0001
31.0368
30.3516
30.2939
30.2824
30.3194
30.3905
30.4891
30.6023
30.7191
30.8296
30.9245
30.994
31.0311
30.3601
30.3017
30.2877
30.3227
30.3916
30.4885
30.6005
30.7166
30.8267
30.9219
30.993
31.0332
31.5442
31.5778
31.5562
31.4755
31.3053
31.0064
30.5317
29.8542
29.0157
28.1837
27.6058
27.4538
31.5514
31.5555
31.5255
31.4518
31.3085
31.0689
30.7032
30.1956
29.5772
28.9637
28.5354
28.4119
31.5474
31.5317
31.4944
31.4241
31.2989
31.1011
30.814
30.4317
29.9777
29.5263
29.1828
29.0568
31.5301
31.506
31.4645
31.3956
31.2818
31.1123
30.8794
30.5844
30.2473
29.9167
29.654
29.5287
31.5066
31.4798
31.4363
31.3679
31.2616
31.111
30.9143
30.6777
30.4202
30.1766
29.9876
29.8993
31.4822
31.4549
31.4105
31.3422
31.2408
31.1031
30.9307
30.7324
30.5266
30.339
30.2025
30.154
31.4595
31.4327
31.3877
31.3193
31.2213
31.0926
30.9367
30.7637
30.5898
30.4373
30.3258
30.2821
31.44
31.4139
31.3684
31.2996
31.2039
31.0816
30.9372
30.7812
30.6283
30.4958
30.3932
30.3298
31.4246
31.3992
31.353
31.2835
31.1892
31.0713
30.935
30.7906
30.6515
30.5309
30.43
30.3405
31.4142
31.389
31.3415
31.2711
31.1774
31.0623
30.9315
30.7952
30.6656
30.5531
30.4516
30.3405
31.4096
31.3833
31.3339
31.2623
31.1685
31.0549
30.9276
30.797
30.6747
30.569
30.4685
30.3323
31.4105
31.3813
31.3296
31.2567
31.1624
31.0494
30.9239
30.7972
30.6805
30.5821
30.4813
30.3106
27.5244
27.5549
28.1055
28.714
28.6252
28.9319
29.1234
29.4282
29.7889
30.2766
30.7422
31.0041
28.446
28.4487
29.3421
29.2792
28.7846
28.9385
29.1808
29.5016
29.8489
30.2586
30.6315
30.8452
29.0661
30.0998
31.2228
29.7358
29.0368
29.0759
29.2986
29.593
29.9067
30.2482
30.5515
30.7372
29.5557
30.3151
31.2875
30.0732
29.3376
29.2749
29.443
29.6893
29.9587
30.2413
30.4882
30.6472
30.0616
30.5902
30.8831
30.2217
29.5912
29.4728
29.5839
29.7777
30.0014
30.2342
30.4359
30.5712
30.3973
30.8276
30.6855
30.2655
29.7732
29.6402
29.7037
29.8502
30.0329
30.2251
30.3913
30.5069
30.4441
30.3543
30.6526
30.3046
29.9015
29.7689
29.7962
29.9041
30.0529
30.2135
30.353
30.4524
30.4034
30.2718
30.6358
30.341
29.9946
29.8614
29.8612
29.9397
30.0626
30.2
30.32
30.4069
30.321
30.4116
30.608
30.3619
30.0586
29.9217
29.9013
29.9589
30.0637
30.1853
30.2926
30.3704
30.2673
30.637
30.6106
30.3759
30.097
29.9539
29.9195
29.9639
30.0576
30.1703
30.2709
30.3439
30.2304
30.913
30.6396
30.3847
30.1135
29.9623
29.9189
29.9566
30.0458
30.1555
30.2555
30.3285
30.5213
31.3106
30.6659
30.3904
30.1133
29.9536
29.9054
29.9417
30.0311
30.1421
30.2458
30.3243
32.5926
32.5573
32.4195
32.1414
31.7148
31.1243
30.3175
29.3044
28.1761
27.1345
26.4026
25.916
32.6484
32.5561
32.4073
32.1583
31.7881
31.2842
30.6188
29.8014
28.8948
28.0263
27.3265
26.7526
32.6313
32.5313
32.38
32.149
31.8172
31.376
30.812
30.1343
29.3842
28.6417
27.9752
27.3392
32.5887
32.4874
32.3393
32.121
31.8156
31.4189
30.9264
30.348
29.7127
29.0802
28.4762
27.9578
32.5337
32.4339
32.2905
32.0818
31.7953
31.4304
30.9889
30.4821
29.9331
29.3702
28.8859
28.5218
32.4738
32.3777
32.2389
32.0374
31.7651
31.4239
31.0197
30.5663
30.0868
29.6141
29.2234
28.9939
32.4148
32.3233
32.1883
31.9924
31.7311
31.4082
31.0324
30.6196
30.1949
29.7965
29.4919
29.3712
32.3613
32.2744
32.142
31.9501
31.6973
31.3886
31.0347
30.6534
30.2718
29.9306
29.6941
29.6484
32.3166
32.2333
32.1022
31.9126
31.666
31.3682
31.031
30.6736
30.3246
30.0257
29.836
29.8238
32.2837
32.2019
32.0701
31.8814
31.6388
31.3487
31.0237
30.6839
30.3586
30.0896
29.9299
29.9204
32.265
32.1811
32.0463
31.8571
31.6168
31.3315
31.0147
30.6869
30.3777
30.1293
29.9898
29.9746
32.2604
32.1697
32.0305
31.84
31.6004
31.3177
31.0057
30.6853
30.3861
30.1502
30.0241
30.0128
)
;

boundaryField
{
    rotor
    {
        type            zeroGradient;
    }
    stator
    {
        type            zeroGradient;
    }
    front
    {
        type            empty;
    }
    back
    {
        type            empty;
    }
}


// ************************************************************************* //
