/*--------------------------------*- C++ -*----------------------------------*\
| =========                 |                                                 |
| \\      /  F ield         | OpenFOAM: The Open Source CFD Toolbox           |
|  \\    /   O peration     | Version:  v1606+                                |
|   \\  /    A nd           | Web:      www.OpenFOAM.com                      |
|    \\/     M anipulation  |                                                 |
\*---------------------------------------------------------------------------*/
FoamFile
{
    version     2.0;
    format      ascii;
    class       volVectorField;
    location    "0.9";
    object      ddt0(U);
}
// * * * * * * * * * * * * * * * * * * * * * * * * * * * * * * * * * * * * * //

dimensions      [0 1 -2 0 0 0 0];

internalField   nonuniform List<vector> 
11640
(
(0.00500857092056 0.00578385886752 -0.0083964924063)
(0.0159654411538 0.00470171481226 -0.00795155438319)
(0.0271965355554 0.00379964591185 -0.00729466234485)
(0.0381038804005 0.00311885402521 -0.0066127192393)
(0.0483174728539 0.00247390411396 -0.00587568056519)
(0.0575982391347 0.00181383965454 -0.00509313323049)
(0.0658393147949 0.00117960045754 -0.00418573635159)
(0.0726945837571 0.000435933367369 -0.00312349623138)
(0.0778179201274 -0.000202313994836 -0.00199822625655)
(0.0809272088134 -0.000788625500107 -0.00081059308279)
(0.0817889762078 -0.00131217742333 0.000402382780609)
(0.0802341257957 -0.00179181167452 0.00158748016507)
(0.0762054177926 -0.00222306316791 0.00271793174446)
(0.0699023919953 -0.00267331397908 0.00374713293858)
(0.0616217903771 -0.00304368238942 0.00464790167871)
(0.0517042719909 -0.0033649484919 0.00534176255172)
(0.0406301479917 -0.00349122725603 0.00576658325671)
(0.0288867746204 -0.00332836514611 0.00582310880663)
(0.0167833553137 -0.00281669581912 0.00539016378049)
(0.00600452893358 -0.00213733302883 0.00454453503189)
(0.00387796994205 0.0183240601922 -0.00795787280669)
(0.0139085471133 0.0163580561806 -0.0099940098932)
(0.0256259689836 0.0143821459535 -0.0100431756501)
(0.0368196192914 0.0126711423065 -0.00964853862919)
(0.0470800934735 0.0109966597432 -0.00917088826957)
(0.056372265667 0.00913441190945 -0.00861350200882)
(0.0646704917581 0.00710838806757 -0.0079433064494)
(0.0715969117693 0.00531546634975 -0.00690567898485)
(0.0767848714802 0.00338783861999 -0.00585462696401)
(0.0799731111461 0.00165700234236 -0.00468702585168)
(0.080891066393 0.000134775307663 -0.00345385989573)
(0.0793838862061 -0.00118620356742 -0.00216518455771)
(0.075358861054 -0.00239841652093 -0.000946903007068)
(0.0691410055138 -0.00373248480536 8.8569276808e-05)
(0.0610431820885 -0.00487821310613 0.00102144763063)
(0.0513483432288 -0.00600554099081 0.00167896105831)
(0.0406530286076 -0.00674942631976 0.00213076284869)
(0.0294712223324 -0.00695603831578 0.00244999971686)
(0.0181576542956 -0.00658501473086 0.00277970026738)
(0.00684797191467 -0.00620158974445 0.00455813979136)
(0.00297491741712 0.0310578800345 -0.00730143313085)
(0.0118935448409 0.0296639777013 -0.0100361664847)
(0.0234633542756 0.02770210474 -0.0105776648374)
(0.0346105841745 0.025583577378 -0.0105129894616)
(0.0447719010933 0.0232746470375 -0.0103368330524)
(0.0538712619412 0.0205097981316 -0.00993789133134)
(0.0624522662218 0.017563153186 -0.00916224219254)
(0.0695615428214 0.0152289452182 -0.00802385523788)
(0.0746170445327 0.0123688854378 -0.00682269092344)
(0.077992343324 0.00966287504615 -0.00546897805408)
(0.0791215163505 0.00719292152399 -0.00400885741844)
(0.0777591069945 0.00494854735027 -0.00258586120509)
(0.0736625167014 0.00282632846915 -0.00115194926955)
(0.0674968132076 0.000458453139779 -0.000110550894249)
(0.0595653434729 -0.00156652092264 0.000913391282562)
(0.0500878792527 -0.00369019640886 0.0019007324653)
(0.0397919797968 -0.00562052492226 0.00226350698938)
(0.0290907843222 -0.00712958573792 0.00246442052123)
(0.0183040017554 -0.0081348657253 0.00306813807279)
(0.00703210468931 -0.00937361249542 0.00527280774148)
(0.00237051853284 0.0433384788794 -0.00657407568801)
(0.0103024453171 0.0423712329702 -0.00963109286672)
(0.0213513244277 0.040583275514 -0.0105478208824)
(0.0321596212547 0.0382073666556 -0.0106700213975)
(0.0420381185538 0.0351726864844 -0.0106150195733)
(0.0510766793819 0.0314461384318 -0.0100003785899)
(0.0601543707975 0.0273876474663 -0.00915017905425)
(0.0672362253795 0.0249415810934 -0.00723379334763)
(0.0719027681657 0.0208686476145 -0.00582712766639)
(0.0753070145498 0.0169098288836 -0.00418205480107)
(0.0765565318758 0.0131702842533 -0.00241174215397)
(0.0753269314543 0.00945366236594 -0.000585229587039)
(0.0711464573399 0.00590432179032 0.00121483728046)
(0.0650236406673 0.00238859840221 0.00204511000228)
(0.0572617151291 -0.000419196755227 0.00319212864866)
(0.047768291623 -0.00368757351576 0.00376498727932)
(0.0377166505985 -0.00683619591375 0.00489374113088)
(0.0273516663893 -0.00984866962271 0.00462454737871)
(0.0170194225692 -0.0123667601434 0.00461763871152)
(0.00647230877053 -0.0152483977972 0.00620332968272)
(0.0018541676114 0.0545911922197 -0.00580898203321)
(0.00886484743566 0.0538517195511 -0.00908197360461)
(0.0192943492799 0.0520295292574 -0.0103336884706)
(0.0296335239465 0.0492512799169 -0.0105732493824)
(0.039302647098 0.04517301555 -0.0103553393944)
(0.0480398449136 0.0403185709305 -0.00979859900563)
(0.0581325755845 0.0347351996755 -0.00893510270782)
(0.0650139316331 0.0327490929137 -0.00620714917944)
(0.0680592564823 0.0270629986833 -0.00481529453288)
(0.0713144627077 0.0212785229721 -0.0030271543037)
(0.0725063055428 0.0152480611664 -0.00106492524879)
(0.0713317332283 0.00936344295014 0.00121252939491)
(0.0674085925382 0.00235697815102 0.00421747578406)
(0.0618509691587 -0.000345446796026 0.00457761637052)
(0.0539939509199 -0.00375818130626 0.00605726549283)
(0.0441768069577 -0.00823486378368 0.00642218887373)
(0.0342969279849 -0.0125378611614 0.00769263712799)
(0.0243361159103 -0.0168308753493 0.00719200214782)
(0.0146294516011 -0.0205516840074 0.00651353512291)
(0.0054106014613 -0.0246875898777 0.00708865961328)
(0.00141052266885 0.064358820416 -0.00497008014784)
(0.0074631564347 0.0637415452622 -0.00849413028172)
(0.0172434559365 0.0617707356266 -0.00987347087469)
(0.0270984063747 0.0585020918709 -0.0100622774009)
(0.0364847054371 0.0537720122717 -0.00950608068838)
(0.0448483833192 0.0486681631161 -0.00886663673717)
(0.0565300116911 0.0443583742606 -0.00894643909064)
(0.0617162600567 0.0468980538964 -0.003560626411)
(0.061533409821 0.0410387210522 -0.00305487176726)
(0.064086551243 0.0345351980462 -0.00174575277083)
(0.0655334505906 0.0268361468226 0.00072634792594)
(0.0635811966409 0.018397907503 0.00376388024662)
(0.0627515523927 0.00786881031776 0.012622560636)
(0.0600441823636 -0.00285914741976 0.00836048481711)
(0.0497782986295 -0.0107369792694 0.00927298234973)
(0.0389575632731 -0.017357267415 0.00907029927571)
(0.0293823491695 -0.0229203985636 0.00882513365304)
(0.0201196356846 -0.0283238556131 0.00917080401981)
(0.0112952479289 -0.0329508012208 0.00810552599492)
(0.00392235175696 -0.0381046256279 0.00781965813152)
(0.000986527221162 0.0723012685716 -0.00398173810208)
(0.00615229286795 0.0716213297379 -0.0076310688329)
(0.0153171168255 0.0694126060396 -0.00905360250421)
(0.0248515244103 0.0653959774281 -0.00915655991407)
(0.0343268604934 0.05957230651 -0.00840200000071)
(0.0431864033428 0.0532591011711 -0.00695885504065)
(0.0593192894629 0.0471226012068 -0.00604953937321)
(0.061112831734 0.0511020064241 0.00686654283181)
(0.0555391724344 0.0377083318435 0.00636067487236)
(0.0567819366465 0.0209832955668 0.00819054674608)
(0.0571408392963 0.00067503640905 0.0114613273013)
(0.0544429894764 -0.0181727169077 0.0148372868886)
(0.0496284751863 -0.0339708276395 0.0196822932836)
(0.0444398763195 -0.0249865326026 0.0150730173247)
(0.0399048676395 -0.0286320923233 0.01356210109)
(0.0312863176525 -0.0331895352155 0.0116089961658)
(0.0229233831285 -0.0382346309921 0.0105723943616)
(0.014686451055 -0.0439340081483 0.00998869372277)
(0.00693637085923 -0.0486765021789 0.00898134705717)
(0.00196839245939 -0.0541961790062 0.00842995433913)
(0.000541807337343 0.0781675252497 -0.00287474585847)
(0.00475923122242 0.0774742486701 -0.00656227543142)
(0.0129274379389 0.0752099746435 -0.00809922090344)
(0.0211472734588 0.0710590196899 -0.0082725794417)
(0.0290021463608 0.0649937633443 -0.00789240619491)
(0.0341012623332 0.0583040737835 -0.00816709667096)
(0.0519119957782 0.0516518726158 -0.0106302083853)
(0.0485697100021 0.0492811628044 0.0112445966913)
(0.030688283787 0.0324590859045 0.00324497649449)
(0.0278835384381 0.014847344433 -0.002051012938)
(0.028414895488 -0.00863761845573 -0.00484191737453)
(0.0317194849797 -0.0299532478504 -0.00615081366312)
(0.0588439892053 -0.0510579187228 -0.0103291709386)
(0.0682243269887 -0.0392946196959 0.0138959610333)
(0.0410620433456 -0.0449969300621 0.0135107130849)
(0.0280288024892 -0.0498769931672 0.0117956261464)
(0.0174716791059 -0.0549699533388 0.0107838360714)
(0.00935750073551 -0.0612409763063 0.0100484080105)
(0.00283546592741 -0.0666473355167 0.00820119794389)
(0.000127203623258 -0.0724001498815 0.00674189353348)
(0.000158712265388 0.0816071081216 -0.00164597110504)
(0.00353048285435 0.080981426434 -0.00530793720932)
(0.0110384715549 0.0788053718358 -0.00667836809606)
(0.0186622185657 0.0750239406798 -0.00664564045938)
(0.0257572590782 0.0696919592516 -0.00586636937495)
(0.0308040330586 0.0640992056128 -0.00599438187668)
(0.0470418068891 0.0603311790436 -0.00806674234388)
(0.0386213924045 0.0533895433844 0.0136303909357)
(0.0175486507251 0.0404033931518 0.00523352606587)
(0.0143555574466 0.0267387275083 0.00143065182619)
(0.0145348963145 0.0107202217579 0.000430824548327)
(0.0154220752658 -0.00757813092922 0.000417256854957)
(0.0437638176986 -0.0272420597909 -0.00468657438595)
(0.0551435520189 -0.0395947249395 0.0232735628303)
(0.0294738750323 -0.0540314325551 0.0202998038323)
(0.0196873742111 -0.063628869617 0.0152083862603)
(0.0098725550612 -0.0713994922682 0.009631272151)
(0.00213077068824 -0.078816575777 0.0072574566189)
(-0.00271707468557 -0.0852377693638 0.00711689581087)
(-0.00205856468788 -0.091419581302 0.00527365270734)
(-0.000278243464435 0.0824389895764 -0.000373948824493)
(0.00224452150148 0.0817114035519 -0.00396625703947)
(0.00900324431789 0.0793577143098 -0.00523802112071)
(0.0158406077404 0.075262912967 -0.0049552160079)
(0.0219039718731 0.0695163192015 -0.0038227297703)
(0.0258867936166 0.0634198224927 -0.00363146845842)
(0.0383803799125 0.0602543691107 -0.0049675384935)
(0.0267110789047 0.0529868488746 0.0159455701621)
(0.00446314623622 0.0425077290558 0.00811995584081)
(-0.00120648006636 0.0265447600783 0.00318601031993)
(-0.00360450197576 0.00692793982245 0.000998089170787)
(-0.00263002878312 -0.0156643219203 -0.000235446069128)
(0.0291273120345 -0.0329465312257 -0.00782064350122)
(0.0430294775923 -0.0503007208218 0.0147341821037)
(0.0174639884222 -0.064992042795 0.00999311100478)
(0.00669525782084 -0.0774525414123 0.00883690837129)
(-0.00064517880622 -0.0878553203094 0.0081197254324)
(-0.00566999703411 -0.0961302675935 0.00543381125736)
(-0.00836305801293 -0.102731516783 0.0056322070629)
(-0.00435086797267 -0.109274581227 0.00335779007221)
(-0.000771715010368 0.0805733157388 0.000920492743406)
(0.000720076943602 0.0796660992812 -0.00264336194195)
(0.00653069662733 0.0769085794829 -0.00378338365015)
(0.0124658635407 0.0720799856804 -0.00331139872279)
(0.0176086227246 0.064914368848 -0.00192268878292)
(0.0223354735416 0.0558919086176 -0.00143717494016)
(0.0330661793378 0.048349573775 -0.00107407017811)
(0.0176823444962 0.0305828612832 0.0190989888071)
(-0.0103217690796 0.0175037336744 0.0123357430822)
(-0.0232081919236 0.00395923906337 0.00653970108198)
(-0.0255391791043 -0.00915853265885 0.00274016238105)
(-0.0217028474085 -0.0223380802786 -0.00240132252884)
(0.00989986111931 -0.0317594824601 -0.00953755217648)
(0.0234669791977 -0.0613772977925 0.0129143216149)
(0.0028409975243 -0.0783390287954 0.00789077555356)
(-0.00632345409154 -0.0913275774324 0.00681170722552)
(-0.0116100047207 -0.101780019248 0.00632456239146)
(-0.0144032716106 -0.110710276389 0.00334594155004)
(-0.0147025460971 -0.117374306753 0.00340306942872)
(-0.00701888370929 -0.123591974822 0.000462649013953)
(-0.00142947497826 0.0763415445653 0.00219593992601)
(-0.00119183187285 0.0752434242804 -0.00129825809481)
(0.00318155612553 0.0722358308579 -0.00244164389135)
(0.00700554806755 0.0669712929504 -0.00191228126413)
(0.00820300549501 0.0588378012801 -0.000757203457348)
(0.00725559216356 0.0482074104312 -0.000364145811715)
(-0.000703587348457 0.035155039537 0.00247786403407)
(-0.0114185051259 0.0105765874077 -0.00397807269894)
(-0.0190601836149 0.00184345016841 -0.00450297188982)
(-0.0237120121633 -0.00555338722927 -0.004162649938)
(-0.0249524687153 -0.0105782328831 -0.00468493026581)
(-0.0224949790154 -0.0186388323341 -0.00595267642245)
(-0.00725556890572 -0.0272778418176 -0.00542770810211)
(-0.00173749642813 -0.0628787693781 0.00376088193269)
(-0.0144566336954 -0.0836990821385 0.00414141732302)
(-0.0206353080243 -0.0992143862773 0.0038065944693)
(-0.0240443256265 -0.111192119186 0.000966875793669)
(-0.0238500934218 -0.120875304605 0.000799799618053)
(-0.0210182169642 -0.127787904677 0.000815726306293)
(-0.00950121409477 -0.134116384557 -0.00244447276103)
(-0.00213550425855 0.0700580302033 0.0034789381934)
(-0.0032116042863 0.0688033253529 0.000147746626239)
(6.40710185277e-06 0.0655927569303 -0.000791395567129)
(0.00271056172179 0.0604116560094 -3.98235452404e-05)
(0.00337666859794 0.0528431934077 0.00159010431451)
(0.00225365757839 0.0439704099275 0.00339527706715)
(-0.00319764353159 0.0337055160916 0.00681323915685)
(-0.013780285381 0.0266541094897 0.00649062154092)
(-0.0260441073932 0.0188714328667 0.00832827325891)
(-0.0365382978581 0.00961462527537 0.0085785097415)
(-0.0418955412722 -0.00287485504302 0.00629332210492)
(-0.0427663649433 -0.0183046313817 0.00525862265288)
(-0.0373079254168 -0.0354736197568 0.00166780753344)
(-0.0321459650221 -0.0659794954337 0.00410531374329)
(-0.0371250261902 -0.0871082817315 0.00271383711165)
(-0.0390573057693 -0.103360391583 7.10738290419e-05)
(-0.0379580748404 -0.116503259615 -0.00199399314717)
(-0.0339334221014 -0.126254214686 -0.00161898958698)
(-0.0277553790802 -0.133272279383 -0.00184230326773)
(-0.0121014851595 -0.139233397251 -0.00566183909159)
(-0.00293088059232 0.062066664282 0.00461359819456)
(-0.00555401114676 0.0606650198209 0.00144217753775)
(-0.00389439187731 0.057330248806 0.000640962340166)
(-0.00304088868776 0.0519969136107 0.00145518383754)
(-0.00453469900283 0.0442852429994 0.0029595633386)
(-0.00877653150304 0.0343221043136 0.00467917268832)
(-0.0169734644604 0.0220506183434 0.0068291770131)
(-0.0274788192355 0.00955607290067 0.00675414619756)
(-0.0368964431798 -0.00205036255877 0.00790150021486)
(-0.0462375124654 -0.0124224701947 0.00592877909082)
(-0.053520719156 -0.0236250611695 0.00513234242329)
(-0.0563272670577 -0.0365334631645 0.00389144114841)
(-0.0561719106048 -0.0517015927375 0.000856012100714)
(-0.0551621243862 -0.0734508724393 0.000755714497809)
(-0.0568353625176 -0.0908128692936 -0.00208949854054)
(-0.0553685767191 -0.105634794087 -0.00381038703987)
(-0.0508065410115 -0.11760623288 -0.00395660019256)
(-0.0434922385912 -0.126677688776 -0.00366374908214)
(-0.0338817623489 -0.133126398274 -0.00453804928236)
(-0.0143624922807 -0.138432162187 -0.00891763462293)
(-0.0037287820846 0.0528069968395 0.00553141192657)
(-0.0079501483518 0.0514723275466 0.00247562249405)
(-0.00788996921407 0.0482682991101 0.0018625213643)
(-0.00889574968102 0.0432626021729 0.00276782948248)
(-0.012315582165 0.0362567634705 0.00417509697093)
(-0.018263637488 0.027501050326 0.00573762308497)
(-0.0274000018592 0.0176377649713 0.0067677564554)
(-0.0387494721672 0.00753241565749 0.00662025688852)
(-0.0498751944338 -0.00327607106409 0.00678261677596)
(-0.0598662230941 -0.0155848446453 0.00615205350706)
(-0.0679349915903 -0.0280020850405 0.00485874109347)
(-0.0728266109558 -0.0415659027662 0.00292119041421)
(-0.0743661424573 -0.0569358515995 0.000220644557634)
(-0.0746714130542 -0.0744348776467 -0.00199157237035)
(-0.0736148672068 -0.0898408651523 -0.00395229302912)
(-0.0695969702305 -0.102863381208 -0.00505201115597)
(-0.0622470741627 -0.113380406222 -0.00535334965466)
(-0.0518382683437 -0.121437584074 -0.0055087349769)
(-0.0392122002163 -0.127117622532 -0.00726725458084)
(-0.0164407135335 -0.131826280252 -0.0121348024195)
(-0.0044202819212 0.0428128266446 0.00625175109784)
(-0.0101399538762 0.0417540360441 0.0032562702715)
(-0.0117370066494 0.0388702060579 0.00275790913699)
(-0.0146142466703 0.0343312896862 0.00373451985731)
(-0.0199168300817 0.0280557385099 0.00503931972226)
(-0.0275538595924 0.0201953100484 0.00629542376831)
(-0.0381096597176 0.0110779094643 0.00653499408027)
(-0.0503018731827 0.00134084151226 0.00670865709872)
(-0.0618389541341 -0.00895691462781 0.00660378288682)
(-0.0724879074598 -0.0199449331683 0.00592508116565)
(-0.0811760228795 -0.0315744681522 0.00451197593762)
(-0.086932310035 -0.0440125122348 0.00246602923145)
(-0.0896685078199 -0.0574113323943 -2.93896744566e-05)
(-0.0898566155366 -0.0714764534246 -0.00229461351591)
(-0.0872746747107 -0.0842996748956 -0.0043512571894)
(-0.0812580832081 -0.0952238529757 -0.00571454689254)
(-0.0716315361026 -0.104070734671 -0.0066617939358)
(-0.0587250929451 -0.110937651778 -0.00759276593664)
(-0.0436725462846 -0.115605532773 -0.0101267646139)
(-0.0180831002856 -0.118952690937 -0.0152304993481)
(-0.00492184608412 0.0324991296102 0.00669365139356)
(-0.0119409417049 0.0318873937858 0.00373930242851)
(-0.0151046658641 0.029527381431 0.0033227062421)
(-0.0196894744729 0.02565446805 0.00431591437514)
(-0.0266891541878 0.0202775168276 0.00553785618249)
(-0.035891123569 0.0135278529927 0.00659724531914)
(-0.0474164479244 0.00556063600489 0.00666833356111)
(-0.0601808996208 -0.00280497782108 0.00674593811687)
(-0.0724516379935 -0.0118577465085 0.00643510958569)
(-0.0836546775983 -0.0214085380376 0.00558105953583)
(-0.0928788180475 -0.0315680260572 0.00403445972091)
(-0.0990805020222 -0.0421945351223 0.00207492914619)
(-0.102063579118 -0.0531911142619 -0.000195236226163)
(-0.101898359185 -0.0642311232258 -0.00257559388424)
(-0.0981487784251 -0.0744114137859 -0.0046666875009)
(-0.0905176054174 -0.0831581931206 -0.00653986879011)
(-0.0790589643312 -0.0902612114486 -0.00816050028684)
(-0.063991015074 -0.0954702323921 -0.0098000566794)
(-0.0466046267851 -0.0985566371247 -0.0128072048949)
(-0.0190030113813 -0.100219919604 -0.017791738537)
(-0.00513595409936 0.0222522578223 0.00678969277295)
(-0.0131634655581 0.022177052244 0.00407408192028)
(-0.0178393159672 0.0205429969524 0.00379460478652)
(-0.0239136756746 0.0174144258434 0.00473347854945)
(-0.0323474096758 0.0129975805455 0.00578936208328)
(-0.0428109676061 0.00746437399029 0.00666928492489)
(-0.0551661218657 0.00102667960387 0.00656455764415)
(-0.0684956999671 -0.0058397195969 0.00653213619513)
(-0.0812391120005 -0.0131189163067 0.00606329706693)
(-0.0929522638181 -0.0207910517807 0.00500178097752)
(-0.102305346489 -0.0288995643092 0.0033949764321)
(-0.108693892528 -0.037037118801 0.00148428639259)
(-0.111782621623 -0.0453923118966 -0.000746847051662)
(-0.111108578836 -0.0534891175741 -0.00316894970368)
(-0.106363120592 -0.0609520070573 -0.00562980051634)
(-0.0974112977585 -0.0672869841719 -0.00798770472141)
(-0.0842456732822 -0.0722947519643 -0.0100824315826)
(-0.0671891959715 -0.0754634322924 -0.0120741985116)
(-0.0479391002762 -0.0768073149684 -0.014872723746)
(-0.0192019916691 -0.0766282222828 -0.019569398353)
(-0.00506335782914 0.0122640587567 0.00641068083623)
(-0.0138054449209 0.0129284818766 0.00420557753112)
(-0.0199237289973 0.0121174603749 0.00407270916014)
(-0.0274213467986 0.00985472980615 0.00478865080145)
(-0.0370246190934 0.00660921761979 0.00554928821293)
(-0.0484094891147 0.00266131264715 0.00619771239637)
(-0.0613716043536 -0.00218608070173 0.00579686760745)
(-0.0750574346787 -0.00720258406396 0.00540759101895)
(-0.0881410244407 -0.0124737821797 0.00461172551)
(-0.100075114481 -0.0180233075111 0.00330144375959)
(-0.109351196211 -0.0237352968018 0.00146001039889)
(-0.115921790527 -0.0294387933521 -0.000674573836375)
(-0.118729715411 -0.0350454962219 -0.00305845408026)
(-0.117562350051 -0.0403468739547 -0.0056707798943)
(-0.112024877864 -0.0452925102354 -0.00839804432548)
(-0.101906459651 -0.0492767066211 -0.0110423287818)
(-0.0872453470023 -0.0521070982558 -0.0133372678238)
(-0.0685040599793 -0.05340035434 -0.0150598023741)
(-0.0473442885891 -0.0528017264419 -0.0170260754345)
(-0.0183159033955 -0.0495853015314 -0.0204674434852)
(-0.0048028780282 0.00432652493791 0.00555322345564)
(-0.0142233970153 0.00479949234537 0.00511828404373)
(-0.0218820404283 0.00455811358903 0.00511666233297)
(-0.0307576155376 0.00364304741311 0.0051851049389)
(-0.0412888006311 0.00232502905071 0.00509406503168)
(-0.0536482196288 0.000763917852227 0.00474668594252)
(-0.0672582187849 -0.00133030827572 0.00386317752631)
(-0.0811679293038 -0.00343442935152 0.00266229934552)
(-0.0944087916333 -0.00561310611672 0.00117559403733)
(-0.106421417606 -0.00789133818961 -0.000763663238738)
(-0.11561146901 -0.01026827623 -0.00306293655785)
(-0.121943108466 -0.0125551518782 -0.00546018444615)
(-0.124324763179 -0.0147800791048 -0.00797318886849)
(-0.122721006737 -0.0168660869983 -0.010694852074)
(-0.11633230487 -0.0187416100383 -0.0133983398187)
(-0.105002205142 -0.020186457577 -0.0159623415249)
(-0.0889156909969 -0.0211024718537 -0.0181656008136)
(-0.0682916916308 -0.0212895731154 -0.0196999714426)
(-0.0440523050024 -0.0203842620464 -0.0204456621252)
(-0.0155892342887 -0.0176981155005 -0.0206626490369)
(0.00586650379988 0.00663927094313 -0.0225886023909)
(0.0169737335529 0.006792885196 -0.0218272724008)
(0.0285474118959 0.00633503043014 -0.0202339581881)
(0.0397026587164 0.00593419037512 -0.0183278861673)
(0.0501592694465 0.00552286766019 -0.0162822908798)
(0.0595950940164 0.00511150196934 -0.014081193412)
(0.0680526684489 0.00472601796082 -0.0114997578446)
(0.0750103670886 0.00431886726512 -0.00850854848413)
(0.080082369783 0.00391436325603 -0.00532766497887)
(0.0831308879863 0.00351702069176 -0.00192681473953)
(0.0838552472701 0.00317592383408 0.00156346691814)
(0.0821393745087 0.00287128761244 0.00502970491311)
(0.0779152689211 0.00259862851211 0.00834051627611)
(0.0714184082123 0.00222118430871 0.0112280472648)
(0.0629268576119 0.00193507206703 0.0137950189833)
(0.0526685262521 0.00164850105729 0.0157326368634)
(0.0411049795005 0.00148071246874 0.0169918845507)
(0.0287596807965 0.00142400030888 0.0174024521561)
(0.0159499150018 0.00100744156581 0.0168484361877)
(0.00529098372486 -0.0010211235412 0.0156575602316)
(0.00601457021234 0.0193499802399 -0.0217815514658)
(0.016727296671 0.0190304416878 -0.0247660463582)
(0.0280296827575 0.0177730281587 -0.0244800434388)
(0.0391923916724 0.0165358759705 -0.0232299696846)
(0.049686764765 0.0151512597989 -0.021681180186)
(0.0591883595649 0.0136301644485 -0.0198561740135)
(0.0677784658461 0.0120716431119 -0.0175419633559)
(0.074828103211 0.0106583611829 -0.0145807918748)
(0.0798585111257 0.00919753232857 -0.0114602908983)
(0.082902761595 0.00781782168697 -0.00798832717752)
(0.0835860753613 0.00661633380205 -0.00429741285098)
(0.0818362707718 0.00557822201607 -0.000526064899905)
(0.0774675549289 0.00470141333282 0.00312123653362)
(0.0709421012117 0.00359006413705 0.00618551391294)
(0.0625488852354 0.00259960993533 0.00880159409663)
(0.0524264027551 0.00131927043532 0.0105829342408)
(0.0412151278368 0.000197477147271 0.0116587405135)
(0.0293980864075 -0.000686871536561 0.0125034823551)
(0.0175425678229 -0.00189921146755 0.0132500535684)
(0.00637145492736 -0.0052551088091 0.0155655262391)
(0.00556193457078 0.0323978582319 -0.0201116447812)
(0.0154506239557 0.031798563414 -0.0244401267143)
(0.0263335618451 0.0302087393419 -0.0252254993979)
(0.0372278379486 0.0284177918073 -0.0247605081294)
(0.04760233656 0.0263657519937 -0.0237981865153)
(0.0571668487924 0.0240869155356 -0.0221900522546)
(0.0660346722619 0.0216669944393 -0.0196967675162)
(0.0731724060999 0.0198293163146 -0.0166541155256)
(0.0781495717591 0.0175097986536 -0.0131165369194)
(0.0812590437099 0.0152119870949 -0.0091966452063)
(0.0821093827848 0.0131016975739 -0.00493252866548)
(0.0805322465652 0.0112239200839 -0.000473940422625)
(0.076083989935 0.00969191236118 0.00398432619082)
(0.0695236327275 0.00762521317802 0.00734155242944)
(0.0611935850951 0.00572803778578 0.0103092929781)
(0.0511425007289 0.00307230353083 0.0117223481636)
(0.0402715464802 0.000377257695669 0.0125496999195)
(0.0289862419263 -0.00208139321863 0.0132475805614)
(0.0176813046727 -0.00440200761643 0.0142477080765)
(0.00661325483047 -0.00785759016718 0.0172872245611)
(0.00519136146866 0.0448856210968 -0.0181543833114)
(0.0141791280245 0.0443875684731 -0.0231723867149)
(0.0243742844352 0.0427045067523 -0.0248967045814)
(0.0349042091586 0.0405758632472 -0.0249869034501)
(0.045173752769 0.0380657410102 -0.0242104700669)
(0.05479971934 0.0350969510089 -0.0224409732493)
(0.0641941374699 0.0315849974805 -0.0198863867937)
(0.0712562603196 0.0296990399697 -0.015873355705)
(0.0757484008773 0.0261096527056 -0.0117817591329)
(0.0789061983957 0.0224283718719 -0.00717294473604)
(0.0799279541261 0.0189497031678 -0.00211564619518)
(0.0786254090038 0.0158529130468 0.00307011236829)
(0.073952408023 0.0136837875645 0.00857265833502)
(0.0672889429276 0.0105084729792 0.0116205898497)
(0.0590832194147 0.00772024348329 0.014991636395)
(0.0488864744082 0.00354196269093 0.0166930362086)
(0.0382087761184 -0.00108775670949 0.0165317161764)
(0.0272653369424 -0.00533481743428 0.0170055555697)
(0.0164658530722 -0.00912824476351 0.0174997255217)
(0.00611630083254 -0.013504722187 0.0196315427887)
(0.00487464074436 0.0563069780094 -0.0159986372371)
(0.0128514215377 0.0559175054874 -0.0216244231638)
(0.022310913544 0.0541968178 -0.0240723960505)
(0.0325244261175 0.0518135803911 -0.0244415499203)
(0.0427579645453 0.0487625627185 -0.0235972222343)
(0.052216580708 0.0450347445829 -0.0218713380447)
(0.0626788997153 0.0402506055054 -0.0193219860565)
(0.0690501530906 0.0394128434288 -0.0141891678327)
(0.071988757108 0.0345574160552 -0.00975048836801)
(0.0751260689635 0.0288673635084 -0.00460383244513)
(0.0764052350495 0.0228539227963 0.000845447849051)
(0.075840758497 0.0174703526852 0.00667750922929)
(0.071013526954 0.0144588042359 0.0137537199232)
(0.0643635955572 0.010383950341 0.0162102878024)
(0.0561685072381 0.00635834293343 0.0198854404089)
(0.0454802627823 0.000274566454285 0.0214509282929)
(0.0350239190401 -0.00625821265332 0.0207783210708)
(0.0244627918864 -0.0122935026439 0.0211428278534)
(0.0143874204585 -0.0175384629711 0.0210244956986)
(0.00531738093621 -0.0229683137405 0.0218461152811)
(0.00452738535849 0.0662588230579 -0.0136042221217)
(0.0115084156695 0.0659346961291 -0.0197723482789)
(0.0203181493421 0.0641380799033 -0.0226005172656)
(0.0301461772874 0.0614799077653 -0.023022778614)
(0.0403063413617 0.0577197909374 -0.0217310682033)
(0.0493492916637 0.0534528331251 -0.0196009967406)
(0.0622401904522 0.0489136940536 -0.0170963388879)
(0.0662458202091 0.0530259420483 -0.00762315681791)
(0.0655639668447 0.0453714544081 -0.00422130464356)
(0.0679615802168 0.0360641531279 5.03892942016e-05)
(0.0696807263731 0.0271004832049 0.00523204141498)
(0.0714127391536 0.0187969331877 0.0112304095189)
(0.0682307731948 0.0119694801616 0.0245968799729)
(0.0604090801574 0.00652533256599 0.0206886059766)
(0.0515034398348 0.00109734769958 0.0239284972576)
(0.0404563925849 -0.00732294736789 0.0249781118626)
(0.0303953896268 -0.0158529618064 0.0251214696647)
(0.0205131905295 -0.0235326670276 0.0242714707645)
(0.0116284607698 -0.0300971957007 0.0237044492861)
(0.00429373591991 -0.0364068363474 0.0231745016016)
(0.00418922430991 0.0743238057798 -0.0107613788606)
(0.0101965502935 0.0739882708002 -0.0172867059104)
(0.0182926990169 0.0719702946058 -0.0203835585934)
(0.0274146898543 0.0687011889091 -0.0209789840145)
(0.0368566398719 0.0639096947936 -0.0198855006115)
(0.0437040753722 0.058291747698 -0.0185340845133)
(0.0595640334878 0.0505296868665 -0.0141586967006)
(0.0643599994503 0.054963854079 0.00879539354392)
(0.0587804430322 0.0413586272038 0.00388420020231)
(0.0599003062837 0.0254717204292 0.00118870828953)
(0.0618218492033 0.00852458471008 0.000795290738403)
(0.0632371369219 -0.00655832067664 0.00505429440782)
(0.0644537447501 -0.0213809749425 0.0174798866762)
(0.0532368235333 -0.00937704972694 0.0233725844771)
(0.0437277475599 -0.0136423714785 0.026820148148)
(0.0327389390675 -0.0216308016363 0.0270771914153)
(0.0241109769085 -0.0307799178444 0.026373132761)
(0.0154699642132 -0.0390267909705 0.0257715974284)
(0.00824821072743 -0.0467972342714 0.0248468155443)
(0.00311746141755 -0.0538684496582 0.0232779901227)
(0.00380359237995 0.0802646925819 -0.00761016298823)
(0.00874969127028 0.0799794833671 -0.0141950529441)
(0.0157546200925 0.0779927058821 -0.017431204476)
(0.0234220174017 0.0747611396061 -0.0180753815745)
(0.0306354431844 0.0701470967823 -0.0176823352536)
(0.0321982565078 0.0641758905593 -0.0188788415151)
(0.0447283179268 0.0571292333719 -0.0180704647771)
(0.0485764698331 0.0564014819274 0.01500000281)
(0.0374317268573 0.0427562101878 0.00548407874281)
(0.0354610825873 0.0270237508332 -0.000577134551331)
(0.0359237094404 0.00822643678971 -0.00994951120789)
(0.0374840790048 -0.00840140698257 -0.0141428953877)
(0.0630655006443 -0.0256265365725 -0.0258767261276)
(0.068649636299 -0.0190959554781 0.00684781288666)
(0.0401117857451 -0.0259244900752 0.0211174857867)
(0.027940296084 -0.0361963692833 0.0251592702188)
(0.0189907459999 -0.0487494398808 0.0251798965601)
(0.0104088375783 -0.0582983295768 0.0246435382247)
(0.00404205273353 -0.065876751794 0.0231792829745)