/*--------------------------------*- C++ -*----------------------------------*\
| =========                 |                                                 |
| \\      /  F ield         | OpenFOAM: The Open Source CFD Toolbox           |
|  \\    /   O peration     | Version:  v1606+                                |
|   \\  /    A nd           | Web:      www.OpenFOAM.com                      |
|    \\/     M anipulation  |                                                 |
\*---------------------------------------------------------------------------*/
FoamFile
{
    version     2.0;
    format      ascii;
    class       surfaceVectorField;
    location    "0.9";
    object      ddt0(Uf);
}
// * * * * * * * * * * * * * * * * * * * * * * * * * * * * * * * * * * * * * //

dimensions      [0 1 -2 0 0 0 0];

internalField   nonuniform List<vector> 
33146
(
(0.010301542668 0.00526230958186 -0.00819132594111)
(0.00446515266131 0.0118807489822 -0.00819475042743)
(0.00545586922655 0.00622783237142 -0.0147878416086)
(0.0215518005908 0.00427188396791 -0.00763040946717)
(0.0149810336238 0.00983867786379 -0.00897183831831)
(0.0165114027773 0.00576537586542 -0.0140585123604)
(0.0326956727332 0.00348147210673 -0.00695969927914)
(0.0264627293666 0.00805596345409 -0.00866688408022)
(0.027922682084 0.00508705586447 -0.0127976289301)
(0.0433246180278 0.00281913373121 -0.00624991355206)
(0.0375121165024 0.00668132256947 -0.00813481676514)
(0.0389562101746 0.004547034893 -0.0115390826928)
(0.0530439648835 0.00216744210909 -0.00548908589578)
(0.0477441771782 0.00535357086704 -0.00753668458812)
(0.0492914007062 0.00401783914775 -0.010068482038)
(0.0617695858507 0.00152210247422 -0.00464272803269)
(0.0570271852307 0.00396123509331 -0.00687392678362)
(0.0586510044699 0.00347980780912 -0.00848792123884)
(0.0694821958064 0.000834816505527 -0.00365735120036)
(0.0652974211536 0.00261603556855 -0.00608518922362)
(0.0670020257719 0.00296969704665 -0.00687404128977)
(0.0754812559278 0.000144812416385 -0.00256374926295)
(0.0721921998511 0.00123455350008 -0.00503425248049)
(0.0739087753409 0.00239732213277 -0.00474457944958)
(0.0797745166224 -0.000467058721496 -0.00140820773225)
(0.0773518358148 -1.01473027698e-05 -0.00394193498567)
(0.0790057038724 0.00187884101688 -0.00271588690619)
(0.0818771762731 -0.0010213602486 -0.000208735356692)
(0.0805025606204 -0.00117417981141 -0.00276259336949)
(0.0820832402123 0.00139137076956 -0.000423360424867)
(0.0816086051444 -0.00152225182557 0.000989284608954)
(0.0813918981913 -0.00222493523528 -0.00153869577611)
(0.0828744270671 0.000963708968229 0.00190856346576)
(0.0788336505451 -0.00197663814276 0.00214634855521)
(0.0798581936144 -0.00312004478963 -0.000299470718074)
(0.0812364636683 0.000576847483057 0.00422446319343)
(0.0734991751545 -0.00241550207709 0.00322651900778)
(0.075825871083 -0.00383604521601 0.000880768742522)
(0.0771059712755 0.000230234566331 0.00645526728253)
(0.0662180729723 -0.00282509239613 0.00419013728222)
(0.0695578593633 -0.00470146486282 0.00191359097314)
(0.070698504132 -0.000178176058319 0.00833981029152)
(0.0570061938926 -0.00317009681514 0.00498665447772)
(0.0613597808369 -0.00537934235787 0.00283093715577)
(0.0623001162855 -0.000507964747884 0.00999274126396)
(0.046371884255 -0.00339310617026 0.00554570796061)
(0.0515443412111 -0.00603012696608 0.00350543423761)
(0.0521999627783 -0.000819260807091 0.011223164866)
(0.0348070606255 -0.00337418114502 0.00578637107377)
(0.0406494184963 -0.00636102451557 0.00394617726452)
(0.0408730050041 -0.000970926458823 0.0119788638301)
(0.0228780592361 -0.00303652025022 0.0055978809718)
(0.0291739937012 -0.0062838136814 0.0041373126095)
(0.0288170378503 -0.000917967017957 0.0121611419577)
(0.0110977532318 -0.00244089857443 0.00495075492281)
(0.0174559811113 -0.00567129289756 0.00408574816933)
(0.0163520931422 -0.000870440391135 0.0116542662047)
(0.00641007934691 -0.00466255351585 0.00453645940051)
(0.00563348928514 -0.00154480366294 0.0105232466542)
(0.00821736655844 0.0173780610677 -0.00897526280463)
(0.0034492387103 0.0246699846647 -0.00763750383024)
(0.00496464831382 0.0188723300819 -0.0140038910439)
(0.0197368162009 0.0154072952099 -0.0100069683953)
(0.0129429505665 0.0229580073351 -0.0100036220251)
(0.0153550744214 0.0177284338383 -0.0164245854276)
(0.0312768737852 0.0135627239309 -0.00983204388118)
(0.0245843298558 0.0208706059068 -0.0102994625851)
(0.0268699163225 0.0161114222487 -0.0162733524768)
(0.0420175563088 0.0118689654263 -0.00939361138224)
(0.0357375880805 0.0187850622672 -0.0100781080012)
(0.038045506286 0.0146302319569 -0.0154070326894)
(0.0517581292335 0.0101034813641 -0.00887273115123)
(0.0459358239292 0.0167039480864 -0.00976462383608)
(0.0484229867349 0.0130876448161 -0.0144394959914)
(0.0604879749758 0.00816703524866 -0.00825364204404)
(0.0551250926004 0.0143899805207 -0.00928744876811)
(0.0578251096326 0.01138798945 -0.0132382230753)
(0.0684947006645 0.00626447504963 -0.00739877255655)
(0.0635679754053 0.0118462000399 -0.00859104017326)
(0.0662775528692 0.0096047094456 -0.0118284560116)
(0.0743649347726 0.00440717339203 -0.00635400638891)
(0.0706015536757 0.00991701858539 -0.00746394344792)
(0.073270091018 0.00801495358597 -0.00975291600261)
(0.0787284233338 0.00257811278523 -0.00524802516555)
(0.075736705158 0.00755993058263 -0.00633766381499)
(0.0783818430803 0.00633363064277 -0.0077052041776)
(0.0809435120621 0.000952280231233 -0.0040510259209)
(0.0790277516842 0.00538294623285 -0.00507768957684)
(0.0815001107706 0.00479320083892 -0.00532697913951)
(0.0807223230952 -0.000467342904724 -0.00279197897307)
(0.0800554378847 0.00341317864408 -0.00373498126805)
(0.0823030624527 0.00344581643525 -0.00284064344033)
(0.0779768165319 -0.00173087887545 -0.00153943597556)
(0.0786198003054 0.00159112814124 -0.00240172710099)
(0.0806757709292 0.00228266189039 -0.000294174936271)
(0.0727345960879 -0.00300160669869 -0.000416464940116)
(0.0745542251475 3.84579576214e-05 -0.0010593627426)
(0.0764774884933 0.00125791627812 0.0021631683518)
(0.0655661297379 -0.00423663587286 0.000568992985848)
(0.0683563042381 -0.00171880096426 -4.25935365507e-06)
(0.070096064183 5.65818927001e-05 0.0041966498159)
(0.0564788443709 -0.00536978961293 0.00136333067522)
(0.0603350507898 -0.00327466060601 0.000979684743932)
(0.0618286397617 -0.00100444213869 0.0059696868876)
(0.0461517678345 -0.00630309818154 0.00191688006414)
(0.0507405369352 -0.00488410367577 0.00179958941176)
(0.051897320273 -0.00221967730483 0.00703099914622)
(0.035181457683 -0.00677716781519 0.00230162034053)
(0.0402332424394 -0.00615993509776 0.00220710138371)
(0.0409310683449 -0.00317819037789 0.00757667405639)
(0.0238625610872 -0.00669399456228 0.00262578959589)
(0.0292774452306 -0.00693484193274 0.00246852335981)
(0.0294272560606 -0.00374271235656 0.00806857750615)
(0.0126652947006 -0.00631616006204 0.00367145264702)
(0.0182165577947 -0.00716255004018 0.00293560928831)
(0.0178372334811 -0.00416745058488 0.0084821403168)
(0.0069227659245 -0.00750275656509 0.00491061869253)
(0.00659414406259 -0.00565208369306 0.0103562120422)
(0.00645935386433 0.0304038851269 -0.00866645080026)
(0.0026963133203 0.0373245157783 -0.00694452161505)
(0.00428831472348 0.0317708569555 -0.0127413171052)
(0.0175807786448 0.0287220791686 -0.010293999406)
(0.0111360604675 0.0361197178886 -0.00982178311594)
(0.0137079039319 0.030771298863 -0.0162356423337)
(0.0290413340678 0.0266741823912 -0.0105248382381)
(0.0224303467074 0.0341479800356 -0.0105597190985)
(0.0249268619874 0.0289848217229 -0.0168568775219)
(0.0396725194903 0.0244584573717 -0.0103975458957)
(0.0333834134546 0.0317837146863 -0.010623142595)
(0.0359330269557 0.0269981863051 -0.0167246810031)
(0.0492990104244 0.0219296331445 -0.0101079746947)
(0.0433887962464 0.0290615943021 -0.0105607078852)
(0.0462108115579 0.0247963456312 -0.0161928515759)
(0.0583020863348 0.0190871500233 -0.00953692436167)
(0.0524594889715 0.0257544371986 -0.010117052274)
(0.0555531064294 0.0222614248827 -0.0152741935597)
(0.0660291611565 0.0164727736186 -0.00853795761688)
(0.0613036384658 0.0223403705397 -0.00929184681005)
(0.0642976609486 0.0195901882911 -0.0135973373248)
(0.0721917386263 0.0138755086151 -0.00738009076578)
(0.0684222959729 0.0199175995824 -0.00781878830721)
(0.0714362136144 0.0175376409497 -0.0115111839223)
(0.0766529909977 0.0110907174584 -0.0061095043828)
(0.0733054449352 0.0166276384885 -0.00650859460056)
(0.0764505025832 0.0149834040979 -0.00905992061779)
(0.0790790772856 0.00850188344339 -0.00471209245197)
(0.0767066930851 0.0133415083626 -0.0050424919333)
(0.0796978719169 0.012506228045 -0.00635155151733)
(0.0790648403619 0.00614638288514 -0.00327701132011)
(0.077899550733 0.0102147996321 -0.00347305016002)
(0.0806929408856 0.0102399376399 -0.00339255399615)
(0.0763861259477 0.00396914050397 -0.00184665091141)
(0.0766018660725 0.00726774733201 -0.00185883763856)
(0.0792296341665 0.00820519154621 -0.000341595282255)
(0.070986453305 0.00172797954044 -0.000617521886492)
(0.072457648739 0.00457061005309 -0.000221196106907)
(0.0749599893643 0.00641297987262 0.00278581873272)
(0.0640043058661 -0.000458117696863 0.00042392044061)
(0.0663137885871 0.0016881117476 0.000794521991482)
(0.0685840051033 0.00423766673299 0.00507763558488)
(0.055024645179 -0.00252786121311 0.00142524580949)
(0.0584733794177 -0.000770392753068 0.00190686767303)
(0.0604178332282 0.00229104948206 0.00710997668197)
(0.0450907615893 -0.00455165486525 0.00209873421014)
(0.048985816181 -0.00352385563503 0.00271474041841)
(0.0506167786734 -0.000114182619015 0.00804168321977)
(0.0344814819305 -0.00626920155442 0.00237868743871)
(0.0387965687962 -0.00595494321006 0.00352364835362)
(0.0400099791777 -0.00245868252146 0.00834789047188)
(0.0237424652759 -0.00752349156442 0.00277894734236)
(0.0282353191608 -0.00811023570484 0.00353641284749)
(0.0290143024498 -0.00447401551258 0.00845919956575)
(0.0129371760609 -0.00864392716977 0.00417456794786)
(0.0176505601361 -0.00985060881192 0.0038527948617)
(0.0179768770541 -0.0061547687295 0.00908678013795)
(0.0067351617207 -0.0118195956344 0.00573356899921)
(0.00680694569098 -0.00850482512777 0.0115247331833)
(0.00521560573819 0.0428975036382 -0.00810343098955)
(0.00213575452706 0.0491415686092 -0.0061987312046)
(0.00380142061566 0.0441562968446 -0.0113608599015)
(0.0156128689082 0.041508041618 -0.0100779033908)
(0.00961924545362 0.04827720127 -0.00934727740322)
(0.0122615995136 0.0434159204756 -0.0153356851757)
(0.0268112753644 0.0394090194283 -0.0105830606991)
(0.0203400619869 0.0463176846936 -0.0104640139453)
(0.0228531942943 0.0416602934083 -0.016760209063)
(0.0370942565791 0.036703670331 -0.0106051291908)
(0.0308964725094 0.0436543063913 -0.0106955062454)
(0.0335084339559 0.0393608034356 -0.0170652601485)
(0.0466770902629 0.0333466637628 -0.0102617093476)
(0.0406637796763 0.0400440232863 -0.0106472485688)
(0.04361003764 0.0365225551479 -0.0167947407297)
(0.0553289793861 0.0294894230969 -0.0095242618763)
(0.0495619625604 0.0356898093213 -0.0101336639461)
(0.0529825342418 0.0331103218883 -0.0155684827342)
(0.0641135984721 0.0262650061456 -0.00814218944469)
(0.0591633562997 0.030617793009 -0.00950963385403)
(0.0622776878908 0.0293266584565 -0.0138676959991)
(0.0694796763788 0.0230012531662 -0.00648386080119)
(0.0661741827622 0.0287463670961 -0.00695568376588)
(0.0693546841522 0.0272700605988 -0.0108303488872)
(0.0739693952984 0.0189780183637 -0.00495964227483)
(0.0700519598336 0.0238255108801 -0.00571768868598)
(0.0739144576713 0.0235048701983 -0.00805399891785)
(0.0764956298393 0.0151245909316 -0.00326763610141)
(0.0733880449789 0.018961332834 -0.00407898940604)
(0.0771886610645 0.0197393468993 -0.00484510489866)
(0.0764064788204 0.0113999295697 -0.00147670302072)
(0.074608045956 0.014173466548 -0.00225286939689)
(0.0783302704622 0.0161717448872 -0.00129751095098)
(0.0739846951008 0.00777744093815 0.00034626172711)
(0.073404264017 0.00914477431292 -0.000317296398245)
(0.0770746165141 0.0128058929758 0.00228976020253)
(0.0682086132646 0.00425607354426 0.00167102962016)
(0.0693532423634 0.00483816637229 0.00233967002832)
(0.0726567472329 0.00999988121169 0.00624662442286)
(0.0615875928341 0.00110678132427 0.00266208926145)
(0.0635261356375 0.000975814440187 0.00287761773251)
(0.066244286714 0.00674627312352 0.00829008682895)
(0.052603020327 -0.00192906519473 0.00349862069318)
(0.0557290644243 -0.00211628266522 0.00431098033589)
(0.0582034858356 0.00395175449086 0.0106250782915)
(0.0428983610271 -0.00513544498316 0.00434536988428)
(0.0460743139772 -0.00597735643168 0.00483951670749)
(0.0483113848366 0.000176797162761 0.0115406444453)
(0.0326676523815 -0.00821688890173 0.0047702680219)
(0.0360898368125 -0.0095271040127 0.00614124566674)
(0.0379210064618 -0.00377557168298 0.0115954112235)
(0.0222603570577 -0.0109749811092 0.00463191459042)
(0.025884676521 -0.0129313882366 0.00586376447547)
(0.0272604090336 -0.00743148295307 0.0113112170042)
(0.011891783383 -0.0136682352261 0.00541261221194)
(0.0158277843053 -0.0160212772922 0.005562674627)
(0.0167128697789 -0.0105983504241 0.0113245289059)
(0.00592530242056 -0.0194272164217 0.00664037183093)
(0.00627885516197 -0.0142348083878 0.0130313313175)
(0.00409520178522 0.0542638505545 -0.00744986410413)
(0.0016553710335 0.0597267465584 -0.00539889593071)
(0.0033809322534 0.0554923049505 -0.00988116819252)
(0.0137955763603 0.0529618991797 -0.00969585971535)
(0.00819752881484 0.058957223769 -0.00879219156281)
(0.0108476340235 0.0549212301624 -0.0144196647562)
(0.0245271587439 0.0506406879489 -0.0104157196881)
(0.0182935645157 0.056977758775 -0.0101507537986)
(0.0207442397933 0.0531185622494 -0.0165350085254)
(0.0344837413645 0.0472155745739 -0.0104188419759)
(0.0283766902473 0.0538449911733 -0.0104752404537)
(0.0310379665362 0.0504517643301 -0.0170238754813)
(0.0436687304965 0.0427918575346 -0.0100216807514)
(0.0379073053319 0.0493079085277 -0.0102307062959)
(0.0410820270279 0.0467155255662 -0.0166000986285)
(0.0527505107124 0.0376272306525 -0.00931844129988)
(0.0464750475938 0.0438746427805 -0.00981036786333)
(0.0502793729829 0.0422623975003 -0.0154815179229)
(0.0613904836455 0.0339011042343 -0.00735063704196)
(0.0573913620516 0.0381740277002 -0.00967125787875)
(0.0606898847824 0.037064129313 -0.0137833672437)
(0.0660985711832 0.0300220770806 -0.00549585145271)
(0.0634498582817 0.0372938758256 -0.00536532072079)
(0.0672656823346 0.0359056156131 -0.00987756599763)
(0.0700568645107 0.0242696548798 -0.00388161722873)
(0.0648907866182 0.0306229056809 -0.00469189098696)
(0.070154581499 0.030765170699 -0.00711190490845)
(0.0725252812462 0.018354995421 -0.00201902884673)
(0.0677925391449 0.0233022274234 -0.00340569653198)
(0.0733050691938 0.0251376710254 -0.00370625442946)
(0.0726448021996 0.012402922317 8.71436187121e-05)
(0.069103674351 0.0155579986726 -0.00113834838341)
(0.074530515656 0.0191972833402 0.000163425186749)
(0.0699213149825 0.00597674600064 0.00273806105944)
(0.0675450010876 0.00791055715586 0.00120353915268)
(0.0736769363763 0.0136283770995 0.00418941179911)
(0.0653808618353 0.00113764696678 0.00434914937087)
(0.0651737026237 -0.00235284312505 0.00663918283019)
(0.0693540039373 0.00866919653147 0.00976653595574)
(0.0584377670497 -0.00189558994102 0.0053888897621)
(0.0610762896398 -0.00427209761409 0.00538630458346)
(0.0632218629675 0.00546427618262 0.0113795731778)
(0.0489728614645 -0.00584560673232 0.00625532085386)
(0.0520410539805 -0.00805411207603 0.00702259960831)
(0.0550888889439 0.00174943965781 0.0140571927337)
(0.0393244873583 -0.0102354391519 0.00707566297647)
(0.0417144307888 -0.0130412441244 0.00735658249246)
(0.0447893594565 -0.00364219122338 0.0148594760712)
(0.0294838584304 -0.0145352660426 0.00744826102645)
(0.0319588741915 -0.017712301857 0.00803168631546)
(0.0346068056689 -0.00919706330153 0.014785412223)
(0.0195111956952 -0.0185362440651 0.00685966516137)
(0.0222996905611 -0.0223086405277 0.00807616229594)
(0.0243512129794 -0.014415681009 0.0143877505846)
(0.00997948881528 -0.0224509792066 0.00680010885061)
(0.0129860015735 -0.0264424414351 0.00728096210064)
(0.0144682013843 -0.0188783783859 0.0137759477012)
(0.00465605699808 -0.0308856682948 0.00744327859348)
(0.00534666990762 -0.0236510531208 0.0143710231884)
(0.00309558016464 0.0640939123879 -0.0067399484001)
(0.00122204480661 0.0687206720799 -0.00448638386572)
(0.00297473263278 0.0653532820649 -0.00832927277211)
(0.0120412395095 0.0627726233097 -0.00917091214305)
(0.00684612660346 0.0679778375073 -0.00807296072818)
(0.00944510965629 0.0648793869614 -0.0133829125901)
(0.0220941647778 0.0601299126009 -0.00992182265946)
(0.0163272735535 0.0659030163173 -0.0094922998105)
(0.0187059192533 0.0629524528403 -0.015785099713)
(0.0317890068133 0.0561433708006 -0.00972287659858)
(0.0260094903963 0.0621260291914 -0.00979960879612)
(0.0286268617619 0.0598292026487 -0.0163427293648)
(0.0409115144572 0.0512824685186 -0.00912895675101)
(0.0354440502363 0.0568183151315 -0.00938470451692)
(0.0385943770267 0.0552950387596 -0.0155139568658)
(0.0497782531916 0.0466417028867 -0.00893930386801)
(0.044072441487 0.0510036948066 -0.00886469930268)
(0.0475054889252 0.0503991469452 -0.0140359253263)
(0.0592031899831 0.0458748933662 -0.0057707120594)
(0.058017578864 0.0455089028359 -0.00924327790072)
(0.0600690987932 0.0460553924754 -0.0131503826943)
(0.0606137805471 0.04409647515 -0.00338082428894)
(0.06155136655 0.048332612613 -0.00128842526391)
(0.0644757211823 0.0498856279389 -0.00546164879523)
(0.0633488149313 0.0378856120331 -0.00236981466793)
(0.0586754800395 0.0391314535902 -0.00206253570308)
(0.0637639309936 0.0432262262212 -0.00359965895467)
(0.0654655656831 0.0307786672921 -0.000542417866034)
(0.0605715044375 0.0277336292507 -0.00117050633815)
(0.0661867651137 0.0353820836575 -0.000267646112347)
(0.0659750079565 0.022726777165 0.0023459318333)
(0.061480930008 0.0141652235909 0.00121057882333)
(0.0676510134973 0.0270865639472 0.00444234670789)
(0.0608451704989 0.0132687604946 0.00815686871327)
(0.0591676530457 0.000947346146691 0.00451182692396)
(0.0676980834906 0.0187687609741 0.0107422601335)
(0.0649362353139 0.00267588008812 0.0104987416768)
(0.0563775266165 -0.00773139301445 0.012747439044)
(0.0654924091746 0.0101016711594 0.00339593418003)
(0.0546980330503 -0.0065940426387 0.0089154394003)
(0.0524289829724 -0.0111037252333 0.0105408266202)
(0.060459335051 0.00235958760656 0.0138686599031)
(0.043721195173 -0.0138666113604 0.00916233671908)
(0.0450236813028 -0.018231302667 0.0108340278464)
(0.050644584271 -0.00422774775934 0.0166677621614)
(0.0341241841522 -0.0199642866032 0.00897375989117)
(0.0352854852132 -0.0247540226751 0.00996797006038)
(0.0396629095837 -0.0118894646435 0.0171124620804)
(0.0248686880457 -0.025445450858 0.00900313891251)
(0.0262876561222 -0.0304366057366 0.00944528828591)
(0.0298377279116 -0.0191587863025 0.0168767800112)
(0.0156659503953 -0.0304578294873 0.00863745863712)
(0.0175018664889 -0.0360498527353 0.00939482499648)
(0.0202844320753 -0.0258137519736 0.0164188178935)
(0.00733600478744 -0.0353299537364 0.00795778145436)
(0.00915743725523 -0.0408389016106 0.00848270663867)
(0.0114318995385 -0.0313601648899 0.0154922098631)
(0.00294330265798 -0.0462717868811 0.00810452612729)
(0.00408944722439 -0.0370457689005 0.0152166207242)
(0.00220370995513 0.072008241648 -0.00581577250229)
(0.000788491731089 0.0756654027217 -0.00343896213778)
(0.0025834079184 0.0733606052221 -0.00648894437845)
(0.0103152383999 0.0705374293641 -0.00832842562271)
(0.005500812908 0.0749070340529 -0.00710024513167)
(0.00812115795719 0.0728516846531 -0.0117534078976)
(0.0200561779949 0.0674031056259 -0.00906544853867)
(0.0141788646794 0.0726498977419 -0.00859384325538)
(0.016759271728 0.0706710047671 -0.0144445309021)
(0.0294712495571 0.0625023884163 -0.00872980734631)
(0.0230675011615 0.0685077530742 -0.00873564252666)
(0.0262558128037 0.0667683241264 -0.0149425439346)
(0.0392111450391 0.0564879070339 -0.00762543829688)
(0.031750748097 0.0623940388015 -0.00808657179159)
(0.0360247926791 0.0610203279834 -0.0142226486484)
(0.049841080582 0.050318902351 -0.00669167277249)
(0.0387506592917 0.0557678122591 -0.00711725001092)
(0.0442221573212 0.0546664977171 -0.0129978550367)
(0.0591645253823 0.049353825427 0.000998916593244)
(0.055710977162 0.0488209565073 -0.00739197030441)
(0.0609242246471 0.0475088479027 -0.0098936180401)
(0.055288521709 0.0444524888838 0.00626440017672)
(0.0549215824831 0.0498467747756 0.0103704861432)
(0.0636968622459 0.0524803907786 0.00930633818333)
(0.0571761443893 0.0293381714506 0.00730153100541)
(0.043189693195 0.0348588850984 0.00795651460094)
(0.0574036127256 0.0391019317145 0.00608434120367)
(0.0579528725957 0.0108319259051 0.00981310794628)
(0.0424028049057 0.0197383399958 0.00786196059444)
(0.0583572802448 0.0231354066917 0.00440594902679)
(0.057082122306 -0.00868768145449 0.0131565903739)
(0.042843149195 -0.000712395695467 0.00919013440522)
(0.0594115735964 0.00495309208507 0.00502002443789)
(0.0520905610281 -0.025875712886 0.0171869461666)
(0.0431510844323 -0.0202945005782 0.010631424432)
(0.0588728103666 -0.0115265820482 0.00815531027393)
(0.0465094844657 -0.0290270530172 0.017159971324)
(0.0543283796091 -0.0413435060719 0.0104020684225)
(0.0571916956434 -0.0262449937446 0.0159928360168)
(0.0426314000534 -0.0265047002052 0.0145376880878)
(0.0564369714788 -0.0341445421743 0.0165001155593)
(0.0492753625274 -0.0161396310195 0.0156934032188)
(0.035243106091 -0.0306972958186 0.0125642820545)
(0.0405831686048 -0.0390640748375 0.0138667138653)
(0.0419731121133 -0.0201650085953 0.0181644566596)
(0.027030337529 -0.0355211302179 0.0111352322133)
(0.0297666850367 -0.0426599852726 0.0115789942522)
(0.032017202365 -0.0267651499039 0.0183554653784)
(0.0189384756253 -0.0408824820379 0.0102806503199)
(0.0203043666908 -0.0474607442 0.0104421085109)
(0.0234946130991 -0.0342190449387 0.0174814892949)
(0.0107836333039 -0.0460956099286 0.00947535712962)
(0.012105068938 -0.0531287575053 0.00983409725697)
(0.0150884778714 -0.0413786204686 0.0168929489785)
(0.00371068581225 -0.0512065518775 0.00869476506551)
(0.00492356178467 -0.0576488717504 0.00852618356463)
(0.00759675699174 -0.0475693312244 0.0157967456534)
(0.00104759441723 -0.0629449469235 0.00756300832356)
(0.00253950663683 -0.0537870569358 0.0135619946817)
(0.00124157981318 0.0778724034619 -0.00472782887611)
(0.000376570779124 0.0804504456845 -0.00226953801681)
(0.00216627122927 0.0792670371953 -0.00442902059838)
(0.00846093508543 0.0763711656927 -0.00731866069285)
(0.00419731201329 0.0797974451985 -0.00592505461695)
(0.00669935017862 0.0787789987344 -0.0098412971931)
(0.0170384171963 0.0731463171906 -0.00814059440349)
(0.0120469218673 0.0776192394603 -0.00738165917777)
(0.0143076973999 0.0765746671673 -0.0125118474774)
(0.0249283532353 0.068059743175 -0.00802397085434)
(0.0199788181034 0.0738069751747 -0.00744099339799)
(0.0223903285066 0.0725823914154 -0.013124318489)
(0.0324482264834 0.06172669069 -0.00794571472819)
(0.027451717607 0.0681682299682 -0.00703634064981)
(0.0301805488313 0.0667336111973 -0.0130011712479)
(0.0409950164905 0.0550911607891 -0.00974537802407)
(0.0325497696749 0.0622134447917 -0.00694024044771)
(0.033651952196 0.0599007473123 -0.0135917921781)
(0.0483906501164 0.0506343561146 0.00147961382429)
(0.0495634936382 0.057787682853 -0.00879315642338)
(0.0498176550694 0.0527666880207 -0.01504132677)
(0.0370834488627 0.0409322187432 0.0065626244126)
(0.0436944784164 0.0533601948864 0.0129482899997)
(0.0490330871232 0.0519495282908 0.0155119357687)
(0.0313399336241 0.0236986881426 0.000490824889958)
(0.0242489684859 0.0399006688264 0.00479585949294)
(0.0338850504471 0.0368490782573 0.00590876141737)
(0.0285636899575 0.00317898400584 -0.0037160349831)
(0.0212676201481 0.0267531118136 -0.000163858230431)
(0.0316495858961 0.0207062442246 -0.00169631538665)
(0.0313619140371 -0.0191547147879 -0.00559539500454)
(0.0216360606584 0.0085603980586 -0.00274408942843)
(0.0324277236466 0.000424983157975 -0.00740768973715)
(0.0420585516138 -0.0402146843674 -0.00895095951401)
(0.0237496300469 -0.0104984291499 -0.00388008709153)
(0.0350401562797 -0.0175856071697 -0.00921624763179)
(0.0673560989436 -0.0446574467348 0.00309514270532)
(0.051503158367 -0.0298616655773 -0.00789451032202)
(0.0606263500576 -0.0358632341865 -0.0143326561992)
(0.0516566292561 -0.0417860366047 0.0133012768367)
(0.0618327850797 -0.0355049697339 0.0189078201463)
(0.0671963315325 -0.0274989177004 0.0116507043105)
(0.0345514636631 -0.0471841952585 0.0125518576013)
(0.0353683330471 -0.0491332389098 0.0168490666718)
(0.0401646986738 -0.0342316137683 0.0181761684027)
(0.0224850572818 -0.0521992678512 0.0112982729372)
(0.023951733371 -0.0571265748224 0.0132917083035)
(0.0276851884619 -0.0422794717434 0.0176663601163)
(0.013220757236 -0.0578624760178 0.0103898245605)
(0.0137488797148 -0.0631897076477 0.0100509347364)
(0.0181335124582 -0.0515032394137 0.0160998298953)
(0.00627397993538 -0.0636888611395 0.00910220436787)
(0.00580882739431 -0.0700794773945 0.00850648494466)
(0.00994760115058 -0.0596278944007 0.0149471188436)
(0.000300397334162 -0.0692521952671 0.00745703927227)
(0.000105063447171 -0.0766454434647 0.00756869501062)
(0.0034757036062 -0.066061186841 0.0159397347882)
(-0.000961073090695 -0.0826073977246 0.0059788394645)
(0.00087352608752 -0.0725720073691 0.0131494047288)
(0.000426757150208 0.0813495621259 -0.00348654644461)
(-3.19804745451e-05 0.082627627529 -0.0010189599346)
(0.00181070114144 0.0827531878278 -0.00213395112141)
(0.00690727178762 0.0799315131127 -0.00598250385999)
(0.0029426731758 0.081945474675 -0.00462863616561)
(0.00552391846131 0.0823538150299 -0.00747725912058)
(0.0147445430757 0.0769406356803 -0.00661256869364)
(0.0100936669106 0.0797701585115 -0.00593818776056)
(0.012449153744 0.0802953283501 -0.0100521245256)
(0.0221316688741 0.0724056132084 -0.00618390645272)
(0.0173335517749 0.0759051482909 -0.00578229525875)
(0.0198551435211 0.0767397977161 -0.0104311554826)
(0.0286716672992 0.0669819966659 -0.0057882978257)
(0.0239238790797 0.0704626679492 -0.00483093457482)
(0.0267579781077 0.0718127324055 -0.00972058349057)
(0.0373730050816 0.0623224932902 -0.00742229375474)
(0.0284507792046 0.0646377160717 -0.0049688512523)
(0.029926370409 0.066184874408 -0.0108009703609)
(0.0405356858042 0.0569825081029 0.00392797728021)
(0.0428192666272 0.0601645007715 -0.00661540509613)
(0.0438853445722 0.0621894016721 -0.00789956720057)
(0.0257513685293 0.0470481515209 0.00859373370091)
(0.0327710182313 0.0503108965832 0.0152322415613)
(0.0402064394575 0.0552220798455 0.0212441003442)
(0.0186126738939 0.0337719271142 0.00321796898941)
(0.0111430414946 0.0376366361702 0.0067940226094)
(0.0205583998102 0.0431345574355 0.0112158364046)
(0.0152510312142 0.0189840874889 0.000616840651115)
(0.00672790882595 0.0234544369953 0.00173550629824)
(0.0185728739114 0.0298933147542 0.00548688416572)
(0.0177220406715 0.00187743073776 0.000223608463662)
(0.00562276502427 0.00642127236022 -9.78440442349e-05)
(0.0186654656016 0.0160210934822 0.000513910521231)
(0.0262030170215 -0.0170228485499 -0.00304524646901)
(0.00655580854225 -0.014317528798 -0.000678990102916)
(0.01854375336 0.00100372365908 0.000818630417198)
(0.0520455153124 -0.0329958405423 0.0108487776427)
(0.0366290420054 -0.032692406803 -0.00704646996514)
(0.046256110471 -0.0161340643909 -0.00567005090546)
(0.0376745611674 -0.0464527677562 0.0212859636055)
(0.0492571372257 -0.0452725270361 0.0185256550991)
(0.0536134647433 -0.0315390995803 0.016471288247)
(0.0252392644679 -0.0585383823923 0.0176492958054)
(0.0235941335342 -0.0582959103928 0.0150351931844)
(0.0274789627403 -0.0466443562459 0.0145531422362)
(0.0152067863469 -0.0672340671742 0.0124255988504)
(0.0133079338657 -0.0704256902164 0.0117562646969)
(0.0168696052702 -0.0581880114557 0.0145437576579)
(0.00547681864751 -0.074801458146 0.00842142553906)
(0.0047385667088 -0.0808799827721 0.00848192672798)
(0.00891952401718 -0.0688168665164 0.016150622324)
(-0.000454443156127 -0.0817139027193 0.00715105934266)
(-0.00166959397469 -0.0886213223051 0.00609840553487)
(0.00321341936646 -0.0780397458315 0.0140266815635)
(-0.0034813266521 -0.0880066915163 0.00617733054047)
(-0.00548420604411 -0.0950165226956 0.00627848667883)
(-0.00115320504947 -0.0849074363847 0.012976163988)
(-0.00319672841113 -0.101328458302 0.00428697027765)
(-0.000963923344613 -0.0916996798111 0.00989024089241)
(-0.000420659738145 0.0821324844073 -0.00217944708811)
(-0.00049601295434 0.0820739206652 0.000263648321816)
(0.00140412669988 0.0835951914261 0.000262828305917)
(0.00518577939835 0.0805791205341 -0.00458956059246)
(0.00154295534274 0.0812834874869 -0.00329286206343)
(0.00427381953102 0.0831255983163 -0.00498346183153)
(0.0123057867432 0.0773466704197 -0.005048790237)
(0.00785077545876 0.0788099334892 -0.00447315846501)
(0.0104426710715 0.0809228771607 -0.00739621638684)
(0.0188092296792 0.0724484129974 -0.00432037871328)
(0.0142546215665 0.0744999674168 -0.00405152684016)
(0.0170505841779 0.0771767355227 -0.00742188551525)
(0.0244979619145 0.0665605089968 -0.00367989992544)
(0.019873882077 0.0684512066012 -0.00273478061441)
(0.022761380539 0.0719863900503 -0.00618211776624)
(0.0313471861599 0.0619463791014 -0.00461297197213)
(0.0242346733574 0.0620311377929 -0.0026725357609)
(0.0245813961986 0.0658783614543 -0.00651107733576)
(0.0298051730478 0.056714526724 0.00678307646509)
(0.0358609939746 0.05798272938 -0.00423766204468)
(0.0343631165572 0.0625095157103 -0.00155619518958)
(0.0141183189349 0.0479584733068 0.011225910884)
(0.0223738075832 0.0439142534227 0.0140342562321)
(0.0278085157523 0.0538915700215 0.0249240655933)
(0.00411079638539 0.034814013081 0.00546981424861)
(-0.00271664039696 0.0320947665934 0.00644222097029)
(0.00831360953912 0.0438990387219 0.016372318792)
(-0.00151374270352 0.0170814319395 0.00174638073537)
(-0.0119857655724 0.0199358545005 0.00236431648963)
(0.00319534958037 0.0289629581573 0.0077144716412)