/*--------------------------------*- C++ -*----------------------------------*\
| =========                 |                                                 |
| \\      /  F ield         | OpenFOAM: The Open Source CFD Toolbox           |
|  \\    /   O peration     | Version:  v1606+                                |
|   \\  /    A nd           | Web:      www.OpenFOAM.com                      |
|    \\/     M anipulation  |                                                 |
\*---------------------------------------------------------------------------*/
FoamFile
{
    version     2.0;
    format      ascii;
    class       volScalarField;
    location    "0.99";
    object      p_rgh;
}
// * * * * * * * * * * * * * * * * * * * * * * * * * * * * * * * * * * * * * //

dimensions      [1 -1 -2 0 0 0 0];

internalField   nonuniform List<scalar> 
6000
(
107010
107005
106998
106990
106982
106976
106972
106969
106968
106970
106975
106981
106989
106996
107004
107011
107018
107024
107030
107036
107041
107048
107056
107064
107073
107084
107097
107109
107121
107131
106982
106981
106977
106968
106960
106954
106949
106947
106949
106953
106960
106968
106976
106986
106995
107003
107010
107015
107019
107023
107027
107031
107038
107046
107056
107066
107078
107090
107098
107106
106996
107005
107008
107003
106991
106980
106967
106958
106959
106965
106974
106983
106992
107002
107011
107020
107027
107032
107035
107038
107041
107043
107050
107063
107082
107102
107117
107125
107130
107127
106921
106948
106979
107005
107013
107005
106985
106967
106965
106973
106982
106991
107004
107018
107033
107045
107051
107052
107049
107048
107050
107052
107059
107081
107114
107131
107130
107114
107091
107071
106800
106838
106898
106949
106988
107013
107008
106993
106992
107003
107013
107026
107042
107062
107081
107096
107103
107101
107087
107076
107077
107078
107088
107118
107141
107125
107093
107049
106994
106947
106713
106732
106767
106850
106920
106957
106990
107008
107014
107030
107045
107060
107078
107097
107116
107134
107148
107154
107145
107131
107127
107126
107130
107138
107115
107085
107040
106940
106867
106834
106711
106708
106705
106712
106765
106843
106893
106916
106933
106962
106995
107015
107036
107057
107078
107099
107121
107140
107153
107155
107148
107138
107120
107089
107064
107023
106909
106834
106816
106817
106722
106737
106719
106673
106642
106667
106716
106751
106769
106794
106832
106877
106920
106964
107010
107045
107075
107097
107103
107088
107067
107059
107036
106986
106945
106879
106840
106834
106826
106824
106745
106797
106773
106697
106624
106600
106604
106614
106619
106628
106645
106676
106716
106762
106825
106909
106980
107030
107028
106957
106882
106888
106841
106797
106795
106830
106870
106886
106865
106835
106795
106867
106865
106761
106642
106602
106598
106595
106595
106597
106598
106606
106626
106657
106709
106780
106837
106862
106842
106762
106677
106660
106648
106655
106727
106857
106945
106969
106931
106873
106866
106938
106967
106861
106687
106609
106605
106603
106604
106604
106609
106627
106658
106694
106749
106820
106868
106850
106794
106711
106630
106598
106598
106607
106696
106896
107031
107043
107003
106934
106950
107021
107048
106969
106749
106625
106611
106610
106613
106613
106627
106674
106733
106779
106842
106918
106949
106892
106803
106723
106645
106604
106602
106604
106668
106922
107102
107096
107074
106997
107057
107113
107114
107037
106814
106650
106617
106615
106628
106631
106660
106749
106843
106884
106942
107003
106995
106916
106816
106739
106675
106620
106607
106608
106656
106980
107140
107132
107143
107063
107167
107195
107161
107064
106883
106696
106630
106627
106653
106665
106711
106851
106981
106997
107031
107057
107019
106936
106846
106777
106723
106652
106612
106612
106668
107049
107174
107177
107195
107145
107245
107268
107221
107118
106979
106801
106677
106658
106688
106712
106781
106977
107119
107107
107109
107102
107062
107008
106957
106903
106820
106710
106630
106616
106715
107044
107174
107234
107251
107236
107314
107337
107295
107198
107147
107057
106836
106728
106734
106770
106871
107107
107231
107199
107177
107174
107172
107160
107141
107101
106992
106838
106707
106664
106821
107112
107261
107312
107310
107307
107327
107340
107324
107272
107303
107339
107155
106861
106794
106838
106972
107207
107304
107273
107267
107273
107294
107307
107303
107279
107201
107061
106904
106845
107043
107282
107357
107357
107345
107338
107287
107316
107320
107320
107360
107381
107366
107022
106872
106912
107056
107257
107351
107340
107343
107355
107367
107377
107385
107388
107371
107301
107193
107157
107296
107399
107392
107367
107349
107336
107254
107283
107299
107322
107349
107357
107337
107155
106961
106983
107104
107262
107371
107375
107373
107374
107374
107377
107386
107401
107422
107429
107413
107409
107429
107416
107380
107350
107329
107314
107213
107247
107274
107296
107312
107315
107328
107262
107068
107047
107120
107245
107370
107370
107361
107353
107348
107347
107354
107369
107390
107413
107429
107429
107407
107371
107338
107311
107291
107275
107167
107213
107237
107250
107245
107269
107338
107379
107225
107117
107130
107226
107351
107346
107330
107316
107307
107303
107307
107316
107328
107340
107346
107341
107323
107298
107275
107255
107238
107223
107125
107172
107186
107182
107140
107220
107344
107404
107383
107231
107155
107215
107313
107309
107287
107268
107255
107249
107247
107249
107252
107254
107251
107243
107228
107211
107196
107183
107172
107160
107087
107118
107123
107103
107081
107220
107281
107297
107347
107323
107202
107189
107250
107254
107230
107209
107195
107185
107178
107173
107169
107164
107155
107142
107127
107113
107102
107096
107091
107086
107038
107052
107050
107037
107074
107170
107164
107085
107196
107252
107213
107141
107157
107178
107161
107141
107126
107112
107101
107091
107081
107070
107056
107039
107021
107006
106991
106994
106995
106997
106969
106970
106978
106982
107054
107078
107030
106752
107024
107111
107146
107084
107070
107092
107084
107067
107050
107033
107018
107003
106989
106973
106956
106935
106910
106889
106851
106878
106882
106899
106876
106841
106895
106932
106982
106988
106886
106655
106797
106975
107036
107026
107000
107007
107003
106989
106970
106949
106930
106912
106895
106877
106858
106833
106800
106765
106699
106744
106715
106796
106766
106592
106778
106847
106902
106916
106740
106585
106570
106815
106931
106955
106937
106930
106923
106907
106885
106862
106839
106818
106800
106783
106766
106744
106713
106668
106635
106623
106553
106660
106560
106332
106588
106744
106829
106863
106707
106626
106476
106558
106825
106877
106873
106859
106845
106825
106799
106771
106745
106722
106703
106688
106678
106672
106664
106644
106606
106573
106501
106527
106405
106301
106352
106617
106759
106818
106781
106674
106384
106345
106711
106803
106812
106793
106771
106744
106712
106679
106649
106621
106596
106579
106576
106584
106597
106608
106602
106578
106507
106477
106512
106296
106251
106447
106681
106761
106771
106589
106372
106292
106577
106731
106755
106732
106699
106664
106625
106586
106547
106508
106471
106436
106441
106457
106483
106512
106540
106548
106527
106449
106641
106393
106210
106251
106596
106704
106735
106629
106391
106235
106395
106656
106704
106675
106631
106585
106538
106490
106441
106385
106308
106199
106244
106299
106352
106391
106427
106458
106468
106414
106572
106492
106171
106143
106517
106631
106674
106652
106407
106195
106236
106593
106659
106619
106564
106508
106453
106395
106330
106238
106046
105889
105954
106068
106192
106269
106313
106349
106371
106346
106476
106484
106234
106080
106413
106549
106607
106621
106469
106163
106180
106550
106607
106561
106497
106433
106370
106300
106212
106055
105839
105828
105806
105783
105973
106130
106206
106247
106271
106259
106352
106357
106383
106097
106238
106447
106531
106568
106503
106175
106187
106513
106548
106498
106431
106362
106289
106202
106086
105893
105795
105851
105782
105638
105652
105972
106097
106155
106181
106174
106254
106276
106282
106131
106041
106330
106439
106491
106479
106260
106256
106473
106486
106435
106367
106294
106207
106091
105976
105893
105881
105977
105873
105589
105463
105774
105984
106070
106103
106103
106184
106178
106090
105999
105861
106196
106341
106410
106431
106331
106302
106416
106423
106373
106306
106227
106117
105985
105960
105963
105960
105936
105916
105613
105410
105517
105850
105988
106038
106045
106093
106058
105722
105829
105766
106032
106237
106330
106368
106339
106308
106355
106364
106319
106251
106157
106007
105928
105929
105902
105873
105847
105836
105680
105355
105330
105693
105907
105983
106001
106005
105768
105539
105647
105698
105884
106120
106245
106302
106318
106306
106320
106319
106277
106194
106082
105920
105873
105843
105672
105603
105598
105592
105324
105122
105195
105554
105821
105936
105968
105896
105374
105493
105576
105716
105736
106019
106153
106239
106290
106303
106307
106299
106246
106125
106011
105870
105547
104806
104307
104545
104897
104755
104389
104429
104745
105367
105729
105903
105946
105674
105146
105496
105577
105680
105578
106001
106062
106113
106248
106294
106302
106291
106218
105993
105895
105260
104140
103687
103595
103697
103866
103769
103615
103649
103868
104707
105695
105890
105930
105077
104967
105447
105510
105569
105296
105180
105573
105849
106163
106273
106299
106281
106168
105608
104799
104083
103689
103567
103530
103505
103469
103404
103350
103336
103379
103838
105419
105870
105894
104097
104349
104811
104849
104744
104320
103905
104950
105870
106108
106264
106310
106297
106126
105093
104115
103910
103782
103614
103529
103484
103415
103347
103300
103275
103270
103393
105023
105915
105887
103427
103531
103656
103664
103575
103423
103384
104447
105846
105906
106245
106339
106335
106195
105098
104101
104077
103918
103663
103536
103484
103414
103341
103289
103263
103254
103316
104296
105971
105938
103256
103261
103265
103263
103254
103245
103260
103593
105068
105781
106240
106375
106390
106367
105853
104622
104258
104060
103738
103561
103505
103435
103345
103283
103256
103247
103281
103757
105793
105998
103238
103237
103235
103233
103234
103236
103247
103353
104474
106028
106289
106419
106448
106440
106287
105372
104566
104319
103881
103596
103527
103476
103363
103281
103250
103243
103264
103501
104836
106053
103238
103236
103234
103233
103233
103237
103247
103315
104157
106103
106284
106453
106513
106506
106440
106074
105141
104675
104111
103643
103536
103507
103387
103280
103244
103240
103249
103337
103846
105402
103238
103236
103234
103233
103233
103238
103250
103288
103573
105005
106339
106431
106575
106575
106535
106374
105837
105125
104472
103744
103539
103515
103404
103285
103241
103239
103240
103264
103415
105157
103238
103236
103234
103233
103233
103238
103252
103287
103413
104109
105917
106185
106597
106645
106608
106503
106285
105663
104954
103961
103554
103519
103437
103311
103246
103238
103237
103250
103378
105069
103238
103236
103234
103232
103233
103238
103254
103301
103412
103741
104667
106128
106613
106718
106676
106599
106476
106144
105450
104304
103589
103521
103513
103395
103277
103246
103238
103249
103400
105104
103238
103236
103234
103232
103233
103238
103255
103308
103451
103733
104468
106462
106565
106758
106746
106680
106591
106408
105884
104740
103674
103495
103595
103531
103358
103292
103255
103256
103468
104915
103238
103236
103233
103232
103233
103238
103255
103314
103485
103866
104505
105458
106129
106758
106802
106746
106678
106554
106219
105182
103819
103444
103614
103615
103478
103396
103309
103284
103539
104499
103238
103236
103233
103232
103233
103238
103255
103320
103519
103966
104628
104840
105966
106794
106845
106789
106752
106684
106467
105524
103959
103386
103523
103589
103557
103511
103404
103342
103579
104291
103237
103236
103233
103232
103233
103237
103255
103325
103559
104077
104791
104812
106232
106897
106897
106816
106814
106782
106626
105739
104041
103333
103353
103441
103554
103556
103493
103423
103616
104266
103237
103236
103233
103231
103232
103236
103253
103330
103605
104203
104951
105299
106739
106971
106952
106819
106862
106852
106724
105855
104072
103294
103242
103285
103450
103516
103519
103494
103658
104292
103237
103235
103232
103231
103231
103235
103251
103335
103658
104339
105196
105977
106930
107039
106936
106787
106913
106920
106800
105906
103996
103262
103204
103209
103289
103372
103464
103519
103682
104207
103237
103235
103232
103231
103229
103233
103249
103339
103725
104507
105485
106515
107034
107109
106921
106764
106982
106991
106867
105774
103799
103234
103195
103185
103196
103233
103322
103447
103603
103917
103237
103235
103232
103230
103227
103230
103245
103344
103813
104703
105739
106828
107133
107184
106973
106804
107015
107062
106914
105465
103567
103213
103192
103179
103166
103166
103201
103299
103413
103552
103236
103235
103232
103229
103225
103227
103241
103349
103923
104921
105966
107005
107219
107258
107108
106877
107005
107133
106887
104959
103381
103199
103190
103178
103159
103144
103147
103184
103241
103295
103236
103234
103231
103228
103225
103225
103237
103356
104041
105136
106140
107098
107275
107266
107191
106886
107052
107191
106683
104394
103266
103190
103188
103178
103158
103137
103129
103135
103157
103180
103236
103234
103231
103227
103224
103224
103234
103362
104141
105323
106258
106967
107274
107255
107112
106920
107022
107176
106199
103931
103210
103184
103185
103178
103157
103134
103122
103120
103130
103143
103235
103233
103230
103227
103224
103224
103232
103367
104204
105454
106360
106858
107106
107168
107030
106961
106958
107029
105822
103674
103183
103179
103184
103179
103158
103133
103119
103117
103123
103133
103234
103233
103230
103226
103225
103224
103231
103370
104230
105518
106427
106874
107008
107044
107006
107005
106976
106907
105698
103490
103166
103175
103184
103182
103159
103131
103117
103116
103121
103131
103234
103232
103229
103226
103225
103225
103232
103370
104187
105517
106453
106906
107026
107045
107050
107053
107036
106870
105638
103312
103155
103172
103185
103185
103162
103131
103116
103116
103121
103131
103233
103232
103229
103226
103225
103225
103233
103356
104002
105247
106294
106869
107067
107108
107115
107100
107088
106818
105165
103196
103148
103169
103186
103188
103165
103131
103116
103116
103121
103130
103231
103231
103229
103226
103225
103225
103234
103340
103819
104834
105925
106717
107109
107169
107173
107154
107143
106562
104379
103167
103143
103166
103185
103189
103169
103133
103116
103116
103121
103130
103230
103231
103229
103227
103225
103225
103238
103337
103726
104533
105554
106479
107092
107232
107238
107210
107193
106104
103694
103151
103139
103164
103185
103190
103173
103139
103118
103116
103121
103131
103229
103230
103229
103227
103226
103226
103246
103356
103714
104410
105295
106214
107016
107310
107302
107277
107198
105464
103314
103130
103136
103161
103185
103192
103180
103148
103124
103119
103124
103133
103229
103230
103230
103229
103227
103226
103261
103431
103794
104406
105187
105999
106871
107373
107364
107371
107123
104853
103184
103122
103132
103158
103185
103196
103190
103163
103138
103130
103133
103141
103230
103231
103232
103234
103230
103229
103281
103539
104023
104575
105192
105877
106685
107378
107422
107470
107024
104483
103159
103121
103130
103152
103183
103202
103205
103187
103163
103153
103154
103161
103230
103231
103237
103243
103236
103236
103303
103648
104320
104989
105392
105869
106547
107262
107465
107546
106974
104351
103160
103121
103129
103146
103177
103206
103220
103216
103203
103193
103194
103201
103230
103233
103246
103259
103248
103248
103329
103745
104617
105519
105881
106045
106521
107139
107487
107609
106978
104347
103178
103121
103129
103140
103167
103203
103229
103242
103244
103243
103247
103252
103231
103236
103260
103279
103264
103267
103367
103843
104889
106047
106519
106521
106650
107109
107496
107671
107012
104578
103207
103120
103129
103137
103155
103193
103228
103253
103267
103278
103286
103287
103231
103242
103276
103300
103284
103295
103427
103959
105130
106485
107103
107076
107032
107176
107517
107661
107138
104945
103231
103120
103130
103135
103145
103176
103218
103250
103271
103287
103295
103295
103232
103248
103293
103318
103307
103331
103508
104099
105340
106806
107495
107483
107393
107369
107560
107656
107342
105136
103230
103121
103131
103136
103140
103160
103199
103235
103260
103279
103297
103297
103233
103254
103306
103334
103329
103371
103607
104268
105534
107014
107704
107700
107593
107519
107613
107696
107452
105140
103186
103121
103135
103138
103138
103150
103180
103212
103237
103257
103283
103298
103233
103257
103316
103347
103351
103413
103716
104472
105753
107163
107820
107819
107690
107617
107691
107793
107487
104643
103149
103122
103140
103144
103139
103146
103166
103192
103214
103233
103260
103295
103233
103258
103325
103362
103373
103455
103833
104719
106050
107338
107915
107908
107767
107728
107819
107906
107495
104060
103137
103124
103147
103152
103145
103145
103160
103180
103199
103217
103240
103272
103233
103259
103335
103382
103400
103499
103958
105000
106407
107582
107999
107988
107878
107888
107936
107978
107512
103755
103135
103129
103156
103164
103155
103147
103159
103175
103193
103209
103227
103248
103233
103265
103348
103408
103434
103552
104094
105275
106717
107780
108065
108053
108002
108002
108030
108038
107373
103661
103141
103136
103168
103179
103170
103155
103160
103175
103192
103207
103220
103232
103237
103281
103373
103444
103479
103621
104236
105490
106901
107872
108120
108107
108089
108079
108105
108097
106999
103598
103155
103150
103183
103195
103188
103167
103164
103176
103193
103207
103216
103222
103256
103316
103418
103494
103537
103707
104374
105629
106976
107893
108176
108167
108172
108158
108168
108124
106144
103475
103174
103169
103202
103216
103207
103181
103172
103180
103195
103209
103215
103217
103310
103386
103497
103569
103614
103806
104513
105741
107009
107934
108324
108305
108299
108258
108274
107891
105033
103346
103195
103197
103228
103240
103227
103198
103186
103190
103203
103213
103215
103212
103416
103508
103623
103678
103713
103918
104704
105968
107168
108082
108482
108456
108448
108391
108401
107431
104206
103289
103220
103235
103261
103269
103250
103218
103206
103208
103218
103223
103216
103207
103584
103691
103804
103830
103845
104062
105073
106578
107599
108262
108570
108555
108541
108511
108491
106996
103810
103285
103255
103280
103300
103302
103277
103245
103234
103236
103240
103235
103217
103201
103806
103928
104037
104032
104018
104270
105693
107433
108000
108366
108618
108615
108602
108587
108561
106708
103675
103307
103298
103329
103343
103337
103308
103279
103269
103270
103264
103243
103216
103195
104070
104204
104302
104275
104230
104566
106344
108113
108269
108431
108541
108648
108649
108644
108586
106611
103652
103345
103347
103382
103392
103372
103341
103318
103310
103305
103282
103245
103212
103194
104337
104487
104554
104516
104455
104866
106668
108395
108433
108489
108532
108559
108606
108644
108564
106695
103705
103400
103407
103440
103444
103413
103380
103361
103355
103338
103295
103244
103207
103194
104540
104700
104722
104692
104642
105013
106628
108373
108494
108538
108583
108556
108597
108585
108606
106926
103808
103478
103485
103510
103503
103465
103433
103416
103407
103373
103308
103243
103205
103194
104623
104781
104780
104772
104742
104992
106073
107712
108387
108533
108594
108602
108619
108612
108644
106637
103894
103578
103585
103602
103583
103545
103516
103497
103474
103417
103333
103250
103207
103194
104620
104791
104791
104789
104767
104856
105474
106831
108129
108501
108612
108636
108657
108670
108291
105348
103917
103687
103704
103718
103699
103672
103645
103618
103572
103488
103383
103281
103218
103193
104604
104800
104801
104799
104778
104777
105059
106117
107746
108528
108714
108695
108719
108726
107121
104481
103894
103796
103835
103858
103858
103852
103833
103799
103728
103616
103482
103354
103256
103201
104612
104772
104813
104801
104790
104789
104887
105669
107355
108583
108868
108807
108867
108718
105687
104143
103912
103903
103962
104012
104049
104073
104076
104051
103973
103838
103667
103495
103343
103240
104620
104718
104825
104831
104803
104802
104863
105482
107217
108742
108951
108903
108950
107850
104805
104061
103972
104008
104069
104147
104227
104294
104337
104345
104297
104171
103977
103747
103518
103348
104631
104703
104828
104947
104930
104892
104947
105479
107288
108946
109006
108964
109004
106734
104441
104088
104067
104097
104140
104233
104340
104450
104547
104603
104614
104551
104392
104138
103827
103566
104642
104735
104919
105126
105138
105093
105118
105643
107603
109046
109036
109040
109056
105928
104314
104138
104149
104162
104183
104269
104381
104513
104635
104737
104810
104840
104788
104605
104282
103916
104652
104835
105089
105343
105382
105344
105371
106054
108073
109100
109088
109142
108814
105474
104277
104178
104189
104198
104212
104279
104386
104519
104645
104755
104858
104952
104999
104946
104751
104348
104722
105012
105318
105619
105688
105659
105708
106556
108474
109164
109156
109209
108520
105276
104284
104205
104211
104218
104231
104277
104377
104493
104599
104696
104801
104926
105026
105030
104999
104706
104933
105258
105605
105967
106069
106046
106096
106952
108660
109217
109199
109263
108241
105220
104324
104232
104229
104236
104246
104275
104355
104442
104524
104619
104738
104859
104965
105034
105022
104841
105252
105574
105968
106382
106510
106483
106511
107290
108837
109256
109203
109314
107869
105196
104410
104285
104261
104260
104260
104277
104339
104408
104493
104604
104734
104814
104857
104946
104924
104753
105647
105977
106420
106862
107004
106961
106922
107689
109144
109271
109233
109268
107541
105226
104545
104379
104321
104301
104286
104290
104339
104405
104502
104633
104747
104781
104747
104740
104705
104515
106133
106475
106952
107398
107540
107460
107326
108125
109346
109294
109284
109214
107366
105341
104719
104518
104418
104364
104328
104319
104348
104412
104521
104665
104751
104741
104639
104543
104486
104246
106716
107063
107548
107959
108080
107955
107744
108549
109478
109364
109322
109231
107313
105543
104932
104695
104550
104450
104381
104354
104360
104415
104536
104679
104741
104698
104544
104417
104363
104099
107374
107709
108162
108491
108578
108433
108210
108930
109556
109466
109381
109296
107332
105795
105186
104905
104707
104548
104438
104383
104370
104411
104542
104683
104735
104675
104488
104359
104319
104091
108053
108345
108716
108938
108996
108886
108757
109275
109610
109561
109526
109314
107467
106108
105493
105149
104876
104649
104489
104403
104378
104410
104560
104707
104756
104674
104469
104339
104297
104096
108665
108875
109141
109274
109319
109288
109306
109556
109661
109654
109664
109172
107625
106481
105872
105432
105052
104746
104536
104425
104392
104429
104613
104769
104813
104696
104470
104336
104276
104098
109135
109246
109425
109512
109557
109575
109625
109701
109701
109703
109708
108974
107834
106948
106342
105767
105243
104843
104585
104459
104425
104491
104711
104875
104914
104744
104486
104343
104259
104103
109465
109499
109615
109676
109705
109702
109682
109703
109734
109740
109596
108853
108106
107507
106909
106169
105454
104946
104650
104520
104495
104608
104850
105013
105042
104815
104534
104371
104256
104107
109689
109686
109747
109778
109779
109726
109644
109574
109596
109558
109263
108885
108477
108112
107548
106636
105694
105070
104743
104624
104618
104773
105020
105171
105186
104910
104627
104442
104275
104113
109815
109803
109816
109818
109777
109646
109490
109399
109381
109319
109169
108995
108864
108712
108215
107139
105970
105229
104883
104782
104801
104979
105220
105354
105353
105038
104764
104563
104340
104118
109858
109844
109839
109827
109676
109471
109345
109325
109328
109307
109249
109233
109274
109265
108862
107655
106286
105440
105084
105004
105045
105232
105461
105583
105561
105214
104942
104736
104487
104179
109878
109849
109824
109787
109613
109423
109351
109355
109387
109425
109496
109613
109696
109708
109424
108170
106653
105725
105363
105301
105357
105549
105782
105910
105849
105462
105169
104958
104727
104369
109910
109877
109846
109828
109712
109530
109445
109484
109580
109706
109850
109957
109999
109981
109807
108619
107073
106108
105752
105698
105783
105995
106255
106392
106260
105834
105478
105236
105058
104699
110001
109968
109942
109943
109874
109730
109649
109711
109845
109983
110082
110128
110131
110120
109984
108932
107518
106608
106298
106268
106477
106850
107164
107262
106997
106457
105935
105601
105464
105158
110097
110072
110053
110037
109961
109864
109825
109915
110037
110128
110174
110188
110188
110187
110005
109122
107965
107251
107084
107313
107809
108364
108613
108527
108137
107486
106750
106163
105951
105739
110111
110113
110106
110042
109952
109895
109940
110052
110142
110191
110211
110215
110217
110186
109923
109237
108424
108096
108331
108919
109465
109779
109859
109713
109329
108751
108043
107145
106560
106428
110118
110120
110111
109972
109917
109926
110049
110147
110200
110222
110224
110223
110208
110088
109747
109308
108966
109161
109697
110121
110347
110421
110430
110371
110216
109907
109374
108576
107484
107170
110116
110122
110078
109896
109905
110023
110156
110206
110230
110230
110222
110208
110131
109881
109586
109421
109564
110061
110402
110530
110567
110578
110585
110578
110542
110439
110231
109852
108795
107893
109655
110035
109963
109900
109979
110159
110220
110231
110238
110223
110202
110156
109979
109683
109569
109595
110100
110460
110564
110574
110569
110574
110596
110616
110623
110596
110521
110384
109897
108581
108061
108989
109676
109942
110125
110220
110225
110231
110234
110198
110163
110067
109815
109548
109551
109936
110424
110553
110545
110523
110504
110502
110532
110587
110626
110638
110620
110549
110192
109250
107833
108102
109225
110040
110187
110222
110224
110227
110217
110157
110114
109966
109696
109534
109697
110312
110530
110524
110498
110444
110389
110327
110339
110464
110571
110624
110645
110623
110361
109641
108023
108346
109327
110138
110222
110222
110218
110209
110176
110114
110060
109881
109633
109555
110098
110479
110503
110486
110424
110312
110172
109841
109787
110017
110418
110558
110619
110641
110484
109830
108889
109110
109776
110242
110228
110215
110135
109810
110089
110090
110016
109835
109625
109826
110369
110489
110475
110438
110320
110142
109878
109742
109737
109734
109971
110437
110556
110607
110535
110060
109758
109818
110138
110241
110177
109938
109169
108625
109463
110057
110013
109833
109713
110146
110424
110470
110451
110372
110215
109997
109724
109714
109706
109696
109690
110238
110470
110539
110531
110283
109832
109954
110069
110077
109668
108983
108234
108203
108343
109421
109986
109873
109864
110238
110418
110455
110419
110305
110148
109957
109757
109737
109742
109704
109643
109868
110335
110473
110503
110407
109413
109653
109643
109419
108862
108265
108207
108209
108210
108351
109408
109912
109944
110261
110413
110432
110371
110265
110132
109971
109863
109865
109868
109803
109697
109308
110010
110392
110454
110452
108812
109018
109091
108997
108751
108365
108216
108217
108219
108219
108585
109687
110045
110283
110408
110406
110342
110253
110138
110018
109968
109965
109949
109923
109703
108086
108833
110072
110414
110454
108579
108723
108922
108994
108897
108625
108366
108253
108256
108291
108590
109421
110132
110312
110399
110383
110327
110251
110152
110050
110026
109994
109894
109523
108140
105944
106962
109417
110188
110427
108509
108694
108834
108971
108940
108814
108683
108626
108697
108794
109035
109597
110210
110343
110383
110364
110316
110239
110109
109800
109238
108776
108086
106910
105395
104723
105737
108591
109826
110275
108518
108652
108726
108901
108926
108996
109124
109269
109413
109527
109691
109990
110291
110348
110359
110342
110287
110151
109472
107690
106443
105868
105295
104826
104700
104703
105405
108022
109794
110067
108526
108598
108683
108898
109071
109361
109645
109830
109922
109975
110053
110193
110292
110323
110319
110299
110196
109550
106997
105068
104734
104707
104709
104710
104712
104714
105445
107642
109933
110032
108533
108661
108846
109158
109523
109849
110031
110094
110104
110105
110118
110161
110212
110229
110215
110224
109980
107528
104963
104720
104721
104722
104814
104862
104872
105023
105785
107435
109373
109950
108590
108972
109329
109706
110003
110141
110171
110163
110142
110126
110111
110104
110097
110108
110026
110158
108927
105847
104734
104734
104735
104995
105344
105494
105535
105841
106577
107560
108224
108285
108968
109507
109881
110113
110206
110212
110193
110168
110148
110133
110113
110088
110054
110038
109969
109795
107732
105671
104935
104878
105020
105615
106190
106484
106593
106893
107339
107490
107164
106637
109542
109961
110174
110242
110238
110216
110185
110167
110160
110152
110138
110112
110067
110010
109979
109370
107626
106084
105560
105443
105663
106359
107054
107498
107704
107791
107695
107203
106608
106464
109929
110172
110262
110262
110236
110202
110194
110199
110211
110216
110207
110176
110117
110041
109958
109390
108055
107003
106528
106374
106539
107115
107793
108318
108572
108407
107806
106974
106490
106483
110076
110246
110289
110265
110242
110244
110275
110307
110325
110324
110305
110263
110194
110098
109972
109578
108835
108122
107657
107472
107533
107915
108483
108935
109063
108789
107953
107030
106560
106500
110142
110295
110321
110307
110327
110375
110414
110430
110424
110399
110360
110311
110242
110140
110002
109807
109504
109101
108742
108557
108549
108818
109268
109474
109340
109052
108314
107400
106847
106514
110222
110372
110398
110417
110460
110489
110490
110467
110431
110391
110346
110298
110233
110142
110035
109947
109855
109710
109536
109422
109427
109658
109942
109967
109744
109448
108955
108156
107435
106629
110362
110472
110490
110512
110521
110507
110478
110442
110398
110346
110297
110255
110200
110129
110062
110026
110005
109974
109930
109908
109956
110105