/*--------------------------------*- C++ -*----------------------------------*\
| =========                 |                                                 |
| \\      /  F ield         | OpenFOAM: The Open Source CFD Toolbox           |
|  \\    /   O peration     | Version:  v1606+                                |
|   \\  /    A nd           | Web:      www.OpenFOAM.com                      |
|    \\/     M anipulation  |                                                 |
\*---------------------------------------------------------------------------*/
FoamFile
{
    version     2.0;
    format      ascii;
    class       volVectorField;
    location    "0.99";
    object      U.particles;
}
// * * * * * * * * * * * * * * * * * * * * * * * * * * * * * * * * * * * * * //

dimensions      [0 1 -1 0 0 0 0];

internalField   nonuniform List<vector> 
6000
(
(-0.0187006 -0.237672 0)
(-0.0249147 -0.268165 0)
(-0.0145684 -0.282074 0)
(-0.0140519 -0.334706 0)
(-0.0154799 -0.366147 0)
(-0.0229381 -0.393646 0)
(-0.0272091 -0.417526 0)
(-0.0475936 -0.428082 0)
(-0.0679297 -0.43462 0)
(-0.0778263 -0.481556 0)
(-0.0755599 -0.517647 0)
(-0.0688153 -0.535101 0)
(-0.059705 -0.540846 0)
(-0.0488684 -0.539035 0)
(-0.0368097 -0.538296 0)
(-0.0236501 -0.541615 0)
(-0.0110564 -0.546965 0)
(-0.000544262 -0.552641 0)
(0.00589131 -0.557549 0)
(0.0136688 -0.552697 0)
(0.0180547 -0.541805 0)
(0.0129618 -0.500342 0)
(0.00210238 -0.452723 0)
(-0.00634171 -0.440026 0)
(-0.00770922 -0.419696 0)
(-0.00232682 -0.394103 0)
(0.0068399 -0.360659 0)
(0.0124624 -0.306918 0)
(0.0261067 -0.287474 0)
(0.0226825 -0.236426 0)
(-0.00613544 0.174146 0)
(-0.0233696 0.185094 0)
(-0.00818503 0.168282 0)
(0.00384358 0.166465 0)
(0.00765267 0.146059 0)
(-0.0139905 0.124386 0)
(-0.0580302 0.0971115 0)
(-0.102921 0.0647459 0)
(-0.116461 0.0669595 0)
(-0.101176 0.0757095 0)
(-0.0865299 0.0858309 0)
(-0.07369 0.0809118 0)
(-0.0596685 0.0568395 0)
(-0.0482137 0.0279168 0)
(-0.0330714 0.00678809 0)
(-0.0172441 -0.00556868 0)
(-0.00579123 -0.00877082 0)
(0.00357747 -0.000652748 0)
(0.011862 0.0163748 0)
(0.0188431 0.0456066 0)
(0.0284495 0.0484338 0)
(0.0490891 0.0504526 0)
(0.0494442 0.0545042 0)
(0.0270712 0.069173 0)
(0.00269644 0.099408 0)
(-0.0172857 0.132515 0)
(-0.00735845 0.153631 0)
(0.0131966 0.159807 0)
(0.0372915 0.179501 0)
(0.0177125 0.157817 0)
(-0.0212701 0.146368 0)
(-0.0439381 0.0862179 0)
(-0.0405842 0.0678527 0)
(-0.0350847 0.0824198 0)
(-0.026095 0.10784 0)
(-0.0451284 0.119838 0)
(-0.0908804 0.100738 0)
(-0.117156 0.0538356 0)
(-0.10841 -0.0287425 0)
(-0.088922 -0.067806 0)
(-0.0697806 -0.0814608 0)
(-0.0514752 -0.0880832 0)
(-0.0388035 -0.0769782 0)
(-0.0313034 -0.0642378 0)
(-0.0201447 -0.0618843 0)
(-0.00875045 -0.0576766 0)
(-0.00111211 -0.0532938 0)
(0.0012867 -0.0573446 0)
(1.57655e-06 -0.0638687 0)
(0.0042138 -0.0797313 0)
(0.0204404 -0.0835832 0)
(0.0384206 -0.0690141 0)
(0.0581363 -0.0182727 0)
(0.0554204 0.0391772 0)
(0.0410877 0.0709745 0)
(0.0258448 0.0691083 0)
(0.0369234 0.0435602 0)
(0.0564644 0.0416721 0)
(0.0673212 0.0820322 0)
(0.0300701 0.155568 0)
(-0.0131732 0.0376776 0)
(-0.0366329 0.0139895 0)
(-0.0596158 0.0397209 0)
(-0.0754438 0.0836903 0)
(-0.0889732 0.152796 0)
(-0.105029 0.182528 0)
(-0.128041 0.167017 0)
(-0.130841 0.119868 0)
(-0.100314 0.0628501 0)
(-0.0735053 0.0372349 0)
(-0.0497399 0.0249955 0)
(-0.0363449 0.0312967 0)
(-0.0329549 0.0314473 0)
(-0.026304 0.0229726 0)
(-0.0152157 0.0126882 0)
(-0.00401895 0.0071774 0)
(0.00606097 0.00919647 0)
(0.0106629 0.00894925 0)
(0.00482898 0.00883709 0)
(-0.00328297 0.00847731 0)
(0.00766713 0.00326761 0)
(0.0341485 0.011234 0)
(0.0735369 0.0460624 0)
(0.0874236 0.0925057 0)
(0.0795788 0.119659 0)
(0.0688594 0.103652 0)
(0.0704385 0.0580606 0)
(0.068811 0.0389689 0)
(0.0561269 0.0611227 0)
(0.0234263 0.0984809 0)
(0.011234 -0.18366 0)
(0.00989301 -0.181964 0)
(-0.017823 -0.110263 0)
(-0.0676751 0.0153047 0)
(-0.110546 0.133678 0)
(-0.136278 0.202483 0)
(-0.149705 0.214042 0)
(-0.142054 0.171742 0)
(-0.108799 0.0970495 0)
(-0.0798142 0.0588926 0)
(-0.0546191 0.0543867 0)
(-0.0452076 0.0689658 0)
(-0.0412146 0.0749375 0)
(-0.0372402 0.060631 0)
(-0.0289971 0.0430509 0)
(-0.0149471 0.0318871 0)
(0.00355947 0.0350217 0)
(0.0192018 0.0570028 0)
(0.00496998 0.0757535 0)
(-0.00154731 0.053425 0)
(0.0174192 0.0201483 0)
(0.054725 0.0224681 0)
(0.0954078 0.0733007 0)
(0.104389 0.12992 0)
(0.0901472 0.126049 0)
(0.0785378 0.0854569 0)
(0.0761139 0.0335784 0)
(0.0540369 -0.0106022 0)
(0.0142212 -0.0756163 0)
(-0.00297372 -0.0955671 0)
(0.0196375 -0.264234 0)
(0.0354118 -0.2753 0)
(0.0471914 -0.254173 0)
(0.0130203 -0.160026 0)
(-0.0525715 0.0140694 0)
(-0.105971 0.160313 0)
(-0.120375 0.195322 0)
(-0.108703 0.180142 0)
(-0.0861445 0.13841 0)
(-0.0778103 0.108954 0)
(-0.0708359 0.100245 0)
(-0.0712597 0.100046 0)
(-0.074658 0.0900245 0)
(-0.0704454 0.0633885 0)
(-0.0570137 0.0383424 0)
(-0.035417 0.0233046 0)
(-0.00910423 0.025295 0)
(0.0246294 0.0488416 0)
(0.0554635 0.092083 0)
(0.059088 0.102136 0)
(0.0558484 0.0721037 0)
(0.0647963 0.0603205 0)
(0.0778743 0.0977261 0)
(0.0754765 0.126342 0)
(0.0626092 0.10991 0)
(0.054686 0.0588973 0)
(0.0232801 -0.0432228 0)
(-0.0299928 -0.179313 0)
(-0.0456943 -0.263211 0)
(-0.0258546 -0.255909 0)
(0.0155307 -0.255408 0)
(0.0305402 -0.275729 0)
(0.0494972 -0.27953 0)
(0.0556489 -0.258608 0)
(0.0432776 -0.173291 0)
(0.0100442 -0.0427862 0)
(-0.0157581 0.0270432 0)
(-0.0153185 0.0445997 0)
(-0.0245466 0.0282201 0)
(-0.0444882 0.017466 0)
(-0.0635836 0.054209 0)
(-0.0759252 0.0773068 0)
(-0.0813061 0.0720109 0)
(-0.0780976 0.0432489 0)
(-0.0632352 0.00574582 0)
(-0.0364044 -0.026748 0)
(-0.00483836 -0.0333081 0)
(0.035913 -0.012603 0)
(0.0743433 0.0361862 0)
(0.0919213 0.0721608 0)
(0.0861379 0.0731984 0)
(0.063978 0.0622421 0)
(0.0421332 0.0907578 0)
(0.0185904 0.113322 0)
(-0.0103904 0.0745247 0)
(-0.0464248 -0.0618523 0)
(-0.10794 -0.223755 0)
(-0.0898576 -0.280915 0)
(-0.053842 -0.287803 0)
(-0.0241199 -0.272765 0)
(0.0214749 -0.216608 0)
(0.0281897 -0.236775 0)
(0.0243999 -0.251666 0)
(0.0231936 -0.244304 0)
(0.0431251 -0.204555 0)
(0.0694739 -0.179208 0)
(0.0651334 -0.170346 0)
(0.0394228 -0.185823 0)
(0.0260298 -0.226458 0)
(0.0159748 -0.241667 0)
(-0.0170346 -0.186728 0)
(-0.043444 -0.0896749 0)
(-0.0392449 -0.0688631 0)
(-0.0328395 -0.0884086 0)
(-0.0165427 -0.0989833 0)
(-0.000639829 -0.101882 0)
(0.0178737 -0.115756 0)
(0.0491878 -0.102691 0)
(0.0866817 -0.0471225 0)
(0.112833 0.0163853 0)
(0.104286 0.0322608 0)
(0.0548406 0.0278154 0)
(-0.0164487 0.0373053 0)
(-0.078409 0.0183911 0)
(-0.123469 -0.0696146 0)
(-0.150308 -0.207145 0)
(-0.13125 -0.254745 0)
(-0.089157 -0.269742 0)
(-0.0540449 -0.268867 0)
(-0.0234242 -0.255014 0)
(0.0242979 -0.179892 0)
(0.0294082 -0.195202 0)
(0.0145201 -0.215308 0)
(-0.00924529 -0.219429 0)
(0.00992423 -0.17948 0)
(0.0430153 -0.166032 0)
(0.0471994 -0.182125 0)
(0.0257009 -0.209299 0)
(0.0328579 -0.240766 0)
(0.0379085 -0.257837 0)
(0.0291745 -0.275765 0)
(0.0315209 -0.284642 0)
(0.0472379 -0.302552 0)
(0.0716543 -0.311028 0)
(0.0897615 -0.294164 0)
(0.0787092 -0.241411 0)
(0.0816419 -0.244182 0)
(0.0813223 -0.245729 0)
(0.0916556 -0.220687 0)
(0.113994 -0.163523 0)
(0.109105 -0.163711 0)
(0.0530817 -0.129253 0)
(-0.0307482 -0.144392 0)
(-0.100752 -0.127167 0)
(-0.128766 -0.158976 0)
(-0.124771 -0.218216 0)
(-0.106649 -0.246269 0)
(-0.0811652 -0.250552 0)
(-0.0482893 -0.248873 0)
(-0.0215871 -0.233558 0)
(0.0325076 -0.145005 0)
(0.0490155 -0.148527 0)
(0.0338519 -0.14514 0)
(-0.0209629 -0.168479 0)
(-0.0340133 -0.134128 0)
(0.0108156 -0.115523 0)
(0.0240827 -0.12296 0)
(0.0225985 -0.143721 0)
(0.0452268 -0.179166 0)
(0.0270097 -0.200545 0)
(0.0159698 -0.222429 0)
(0.0303294 -0.239455 0)
(0.0536879 -0.281221 0)
(0.0929196 -0.310428 0)
(0.12086 -0.330084 0)
(0.125932 -0.329619 0)
(0.127702 -0.32391 0)
(0.127661 -0.324953 0)
(0.109724 -0.331724 0)
(0.0935528 -0.31449 0)
(0.0881159 -0.270487 0)
(0.0705329 -0.25531 0)
(0.0463578 -0.223003 0)
(-0.000811457 -0.159778 0)
(-0.0492905 -0.165993 0)
(-0.071268 -0.213037 0)
(-0.0759555 -0.232838 0)
(-0.0611744 -0.223292 0)
(-0.043407 -0.219474 0)
(-0.0208315 -0.207235 0)
(0.0299929 -0.120587 0)
(0.0449329 -0.115123 0)
(0.0419078 -0.100301 0)
(0.00672516 -0.102142 0)
(-0.0684171 -0.100477 0)
(-0.018129 -0.04729 0)
(0.0161759 -0.0496968 0)
(0.0280502 -0.0912561 0)
(0.0295379 -0.127406 0)
(0.0331632 -0.147273 0)
(0.0338169 -0.150771 0)
(0.0380124 -0.180712 0)
(0.0642927 -0.233789 0)
(0.0999282 -0.261503 0)
(0.11892 -0.274762 0)
(0.118562 -0.284614 0)
(0.109297 -0.286081 0)
(0.101687 -0.279976 0)
(0.0942068 -0.282254 0)
(0.0714455 -0.277965 0)
(0.070371 -0.244731 0)
(0.0853071 -0.217065 0)
(0.0887223 -0.202034 0)
(0.0738699 -0.159706 0)
(0.0375454 -0.143253 0)
(-0.00270762 -0.203263 0)
(-0.0377338 -0.220954 0)
(-0.0338844 -0.197127 0)
(-0.0316173 -0.190668 0)
(-0.0171693 -0.180929 0)
(0.0313459 -0.0974823 0)
(0.0422202 -0.080093 0)
(0.0322437 -0.0533437 0)
(0.0130481 -0.0387423 0)
(-0.053061 -0.0616769 0)
(-0.0707675 -0.044619 0)
(0.00288727 -0.0595397 0)
(0.0204576 -0.0667241 0)
(0.0374534 -0.0922972 0)
(0.035839 -0.100434 0)
(0.0446607 -0.108389 0)
(0.0550725 -0.143101 0)
(0.0772841 -0.196501 0)
(0.102667 -0.211695 0)
(0.105259 -0.218825 0)
(0.0972106 -0.222625 0)
(0.0704541 -0.227458 0)
(0.0490444 -0.22649 0)
(0.0531069 -0.227518 0)
(0.0666464 -0.23016 0)
(0.0736965 -0.205019 0)
(0.0981633 -0.162161 0)
(0.0981817 -0.148237 0)
(0.102266 -0.140775 0)
(0.0992536 -0.134257 0)
(0.0618938 -0.188071 0)
(-0.0039261 -0.203125 0)
(-0.00194644 -0.169785 0)
(-0.0153302 -0.158049 0)
(-0.0125226 -0.151694 0)
(0.0196728 -0.0709797 0)
(0.019902 -0.0432297 0)
(0.0129219 -0.0143826 0)
(-0.00568515 0.0114979 0)
(-0.043554 0.0128811 0)
(-0.0806444 -0.0103839 0)
(-0.0488154 -0.00666211 0)
(0.015479 0.0012884 0)
(0.0273145 -0.0059452 0)
(0.0313502 -0.00328983 0)
(0.0407752 -0.0211427 0)
(0.0592137 -0.0782372 0)
(0.0734498 -0.129419 0)
(0.0914086 -0.148732 0)
(0.0919192 -0.165619 0)
(0.0725278 -0.178694 0)
(0.0409792 -0.188469 0)
(0.0195764 -0.186779 0)
(0.0256276 -0.184833 0)
(0.0552396 -0.188948 0)
(0.0838281 -0.171357 0)
(0.11456 -0.140016 0)
(0.142299 -0.115558 0)
(0.15993 -0.0978537 0)
(0.162557 -0.104717 0)
(0.0848018 -0.178534 0)
(0.0119188 -0.174725 0)
(0.0181062 -0.14123 0)
(0.00113963 -0.120255 0)
(-0.00843662 -0.114652 0)
(0.00744543 -0.038706 0)
(-0.00635828 -0.0115749 0)
(-0.0222467 0.021803 0)
(-0.043358 0.0701778 0)
(-0.0678181 0.0857864 0)
(-0.0951213 0.0614208 0)
(-0.0826569 0.0367215 0)
(-0.0236694 0.0332714 0)
(0.0203081 0.0452473 0)
(0.0330799 0.0582816 0)
(0.0565449 0.0380143 0)
(0.0778497 -0.0188484 0)
(0.0775699 -0.073124 0)
(0.0827016 -0.0932875 0)
(0.070837 -0.110726 0)
(0.0384329 -0.124288 0)
(-9.81093e-05 -0.126425 0)
(-0.0265982 -0.120905 0)
(-0.0231126 -0.111876 0)
(0.00720075 -0.121324 0)
(0.0488857 -0.136314 0)
(0.0916026 -0.11273 0)
(0.135685 -0.0890004 0)
(0.166828 -0.0424539 0)
(0.194024 -0.0454941 0)
(0.0637401 -0.133128 0)
(0.0360165 -0.144517 0)
(0.026747 -0.116841 0)
(0.00875228 -0.0908313 0)
(0.00277897 -0.0724922 0)
(0.0121392 0.00163634 0)
(-0.0293541 0.0409324 0)
(-0.117864 0.0832922 0)
(-0.177013 0.147554 0)
(-0.18936 0.152218 0)
(-0.157704 0.117081 0)
(-0.0938289 0.0790844 0)
(-0.0396747 0.0869026 0)
(0.00284859 0.0902758 0)
(0.0326762 0.114989 0)
(0.0742888 0.100375 0)
(0.0884982 0.0417974 0)
(0.0742233 -0.0155714 0)
(0.0647317 -0.0350616 0)
(0.0393077 -0.0528796 0)
(-0.00160593 -0.0621068 0)
(-0.0434589 -0.0543622 0)
(-0.0699411 -0.0357436 0)
(-0.0731501 -0.0206616 0)
(-0.0598635 -0.0218779 0)
(-0.0507663 -0.0611415 0)
(0.00933677 -0.0570032 0)
(0.0838978 -0.0299339 0)
(0.119716 0.0106979 0)
(0.207634 -0.00962871 0)
(0.0600854 -0.106965 0)
(0.0732416 -0.102381 0)
(0.0458564 -0.0729929 0)
(0.0172218 -0.0475985 0)
(0.00245628 -0.0348927 0)
(-0.00575885 0.0343279 0)
(-0.0510306 0.0928838 0)
(-0.163832 0.172334 0)
(-0.203201 0.191924 0)
(-0.13108 0.115009 0)
(-0.0974667 0.0966693 0)
(-0.12729 0.148705 0)
(-0.0440368 0.136825 0)
(-0.00675422 0.146877 0)
(0.0317228 0.164966 0)
(0.0847027 0.155935 0)
(0.0875244 0.0948932 0)
(0.0613853 0.0357637 0)
(0.0404899 0.0195124 0)
(0.00716666 0.00847939 0)
(-0.0390053 0.0169878 0)
(-0.101859 0.0413255 0)
(-0.138768 0.0399051 0)
(-0.146722 0.015961 0)
(-0.134657 -0.00777542 0)
(-0.127338 -0.0177327 0)
(-0.114518 -0.00248188 0)
(-0.0486015 0.034368 0)
(0.0137215 0.0860832 0)
(0.185694 0.0899621 0)
(0.119013 -0.0109677 0)
(0.0903614 -0.0282243 0)
(0.0408633 -0.0119947 0)
(0.0146203 -0.00650756 0)
(-0.000304028 -0.00710986 0)
(-0.011886 0.0405785 0)
(-0.0367926 0.0859872 0)
(-0.0710203 0.11927 0)
(-0.0312499 0.109382 0)
(0.0354133 0.0875091 0)
(0.0421657 0.096128 0)
(0.00818482 0.119439 0)
(-0.0689139 0.213583 0)
(-0.0090942 0.210404 0)
(0.0317097 0.215232 0)
(0.0827164 0.204903 0)
(0.0749221 0.13854 0)
(0.0395165 0.0834717 0)
(0.0129079 0.075258 0)
(-0.033653 0.0864871 0)
(-0.0815482 0.0962612 0)
(-0.0977354 0.0878688 0)
(-0.104354 0.0769142 0)
(-0.107501 0.0675644 0)
(-0.111095 0.056068 0)
(-0.110138 0.0443681 0)
(-0.106347 0.0440877 0)
(-0.10325 0.0774201 0)
(-0.0101483 0.0987034 0)
(0.108778 0.0656008 0)
(0.0770097 0.0277567 0)
(0.0406715 0.0234761 0)
(0.0187164 0.0199669 0)
(0.00640461 0.0142454 0)
(-0.00138279 0.00506573 0)
(-0.0117203 0.0499575 0)
(-0.0112688 0.0817083 0)
(0.00477529 0.0833996 0)
(0.0356247 0.0802857 0)
(0.053942 0.0995917 0)
(0.0612622 0.11891 0)
(0.0685546 0.14628 0)
(-0.0376236 0.253505 0)
(-0.0185712 0.275302 0)
(0.0272268 0.264654 0)
(0.0712404 0.244679 0)
(0.0530803 0.172337 0)
(0.0103281 0.128569 0)
(-0.0288894 0.128916 0)
(-0.0538001 0.121245 0)
(-0.0585832 0.10687 0)
(-0.0555342 0.0959546 0)
(-0.0519598 0.0884382 0)
(-0.0502981 0.0840398 0)
(-0.0515806 0.0830684 0)
(-0.0548554 0.083863 0)
(-0.0567568 0.0834844 0)
(-0.0498154 0.0889035 0)
(0.0108623 0.0908813 0)
(0.0339203 0.0642096 0)
(0.0196319 0.0520973 0)
(0.0114769 0.0424954 0)
(0.00524921 0.0332399 0)
(0.000772488 0.0227866 0)
(-0.00192755 0.0096594 0)
(0.00288378 0.0486015 0)
(0.0137568 0.0758304 0)
(0.0319042 0.0800411 0)
(0.0482397 0.0905229 0)
(0.0578992 0.112365 0)
(0.0628379 0.138699 0)
(0.0552654 0.189672 0)
(-0.0488499 0.344789 0)
(-0.0472819 0.326118 0)
(0.0144559 0.304167 0)
(0.051521 0.272498 0)
(0.031772 0.202425 0)
(-0.0215653 0.161707 0)
(-0.0389115 0.138476 0)
(-0.0371992 0.120586 0)
(-0.0313326 0.106181 0)
(-0.0245609 0.0964057 0)
(-0.0183808 0.0908794 0)
(-0.0134995 0.0891112 0)
(-0.0100779 0.0894296 0)
(-0.00720135 0.0884725 0)
(-0.00324763 0.0858802 0)
(0.00277162 0.0813836 0)
(0.0105039 0.0751062 0)
(0.00795105 0.0699121 0)
(0.00441599 0.0611216 0)
(0.00197078 0.0506244 0)
(-0.000656486 0.0387521 0)
(-0.00202921 0.0262214 0)
(-0.00218535 0.0110447 0)
(0.00956962 0.0471101 0)
(0.0255938 0.0697802 0)
(0.0392603 0.0815777 0)
(0.0493265 0.0992012 0)
(0.0538369 0.125038 0)
(0.0479149 0.164925 0)
(-0.037625 0.309577 0)
(-0.0999245 0.418587 0)
(-0.0716253 0.379567 0)
(-0.00973532 0.329135 0)
(0.0264403 0.290502 0)
(0.0123456 0.229851 0)
(-0.0333933 0.17324 0)
(-0.0288191 0.135671 0)
(-0.0193608 0.115945 0)
(-0.0105845 0.103452 0)
(-0.00239362 0.0951576 0)
(0.0047455 0.0908826 0)
(0.0100655 0.0902984 0)
(0.01318 0.0915371 0)
(0.0146694 0.0918624 0)
(0.0155225 0.0896109 0)
(0.0152972 0.0851158 0)
(0.0136009 0.0803808 0)
(0.010065 0.075592 0)
(0.00586727 0.0672078 0)
(0.00167627 0.0554084 0)
(-0.0014524 0.0418978 0)
(-0.00270126 0.0275786 0)
(-0.00228305 0.010863 0)
(0.0135666 0.0447372 0)
(0.0290695 0.0658343 0)
(0.0396106 0.0840566 0)
(0.0465361 0.106331 0)
(0.0427028 0.138046 0)
(-0.0030407 0.22488 0)
(-0.0638546 0.332473 0)
(-0.0701033 0.328775 0)
(-0.107674 0.391914 0)
(-0.036008 0.354054 0)
(0.00485731 0.30991 0)
(-0.00449257 0.250193 0)
(-0.0262892 0.166831 0)
(-0.0143175 0.128288 0)
(-0.00307323 0.109792 0)
(0.00663227 0.0989688 0)
(0.0151883 0.0921735 0)
(0.0222249 0.0893163 0)
(0.0268719 0.0900595 0)
(0.0288709 0.092529 0)
(0.0288103 0.0945512 0)
(0.0274803 0.0948885 0)
(0.0250005 0.0932502 0)
(0.0212892 0.0895817 0)
(0.0163547 0.083341 0)
(0.0105175 0.0735358 0)
(0.00475704 0.0604198 0)
(0.00041051 0.0451804 0)
(-0.00194133 0.0287624 0)
(-0.00233532 0.0102605 0)
(0.0159786 0.0346642 0)
(0.0284356 0.0622031 0)
(0.0378782 0.0858195 0)
(0.0450293 0.112167 0)
(0.0380497 0.154282 0)
(-0.021782 0.313489 0)
(-0.0316079 0.301962 0)
(-0.0414005 0.30163 0)
(-0.0537664 0.295004 0)
(-0.095923 0.32427 0)
(-0.0249182 0.323964 0)
(-0.00640072 0.246181 0)
(-0.00913544 0.155258 0)
(0.000496121 0.120113 0)
(0.011379 0.103137 0)
(0.0211254 0.0936029 0)
(0.0295194 0.0884976 0)
(0.0360563 0.087415 0)
(0.0400215 0.0897273 0)
(0.0414212 0.0936124 0)
(0.0409084 0.0971979 0)
(0.0389837 0.0994091 0)
(0.035595 0.0996506 0)
(0.0306271 0.0972238 0)
(0.0241803 0.091218 0)
(0.0168455 0.080841 0)
(0.00971373 0.0665224 0)
(0.00395203 0.0494966 0)
(0.000156977 0.0308492 0)
(-0.00206842 0.0101878 0)
(0.0142507 0.0236521 0)
(0.0237543 0.0587349 0)
(0.0323679 0.0880817 0)
(0.0382605 0.123618 0)
(0.00792199 0.252956 0)
(-0.0161305 0.272939 0)
(-0.0240973 0.290588 0)
(-0.0338786 0.299847 0)
(-0.0456686 0.290317 0)
(-0.0638911 0.273784 0)
(-0.0899147 0.255115 0)
(-0.00157471 0.206735 0)
(0.00719244 0.140574 0)
(0.0139228 0.112148 0)
(0.0239376 0.0965146 0)
(0.0334488 0.0880256 0)
(0.0415508 0.0847115 0)
(0.0476122 0.0855803 0)
(0.0511855 0.0895111 0)
(0.0524678 0.0947827 0)
(0.0520975 0.0997945 0)
(0.0503978 0.103618 0)
(0.0470992 0.105615 0)
(0.0418053 0.104838 0)
(0.034443 0.09993 0)
(0.0258497 0.0895523 0)
(0.0168132 0.07412 0)
(0.0089847 0.0552121 0)
(0.00363991 0.0342799 0)
(-0.000749519 0.011289 0)
(0.00930249 0.0195091 0)
(0.0142421 0.0571705 0)
(0.0201618 0.0918296 0)
(0.0207903 0.138987 0)
(-0.0106804 0.231742 0)
(-0.0171591 0.255348 0)
(-0.015865 0.284858 0)
(-0.0289055 0.301271 0)
(-0.0529704 0.289908 0)
(-0.0616641 0.25817 0)
(-0.0745591 0.215114 0)
(-0.037485 0.160245 0)
(0.013616 0.122005 0)
(0.0240784 0.102056 0)
(0.034437 0.0889674 0)
(0.0440515 0.0821487 0)
(0.0519838 0.0808855 0)
(0.0577304 0.0837438 0)
(0.0611673 0.0892139 0)
(0.0626497 0.0957381 0)
(0.0628099 0.102007 0)
(0.0618753 0.107305 0)
(0.0594962 0.111082 0)
(0.0549841 0.112406 0)
(0.0478363 0.109524 0)
(0.0391584 0.0998117 0)
(0.0267355 0.0833148 0)
(0.0154444 0.0623631 0)
(0.00826278 0.0390193 0)
(0.00110751 0.0133915 0)
(0.00210971 0.0203644 0)
(-0.00299711 0.058899 0)
(-0.00761704 0.0984408 0)
(-0.0171234 0.148329 0)
(-0.0282189 0.195907 0)
(-0.0258947 0.240537 0)
(-0.0150969 0.28302 0)
(-0.0134701 0.315648 0)
(-0.0528906 0.29118 0)
(-0.0528245 0.245195 0)
(-0.0559853 0.188658 0)
(-0.0456072 0.136447 0)
(0.0109511 0.0985594 0)
(0.0314905 0.0879477 0)
(0.0434988 0.0795733 0)
(0.0534634 0.0757362 0)
(0.0612873 0.0769483 0)
(0.0668253 0.0817533 0)
(0.0702361 0.0886016 0)
(0.0720266 0.0961438 0)
(0.0728695 0.103372 0)
(0.073003 0.109871 0)
(0.07215 0.115375 0)
(0.0697734 0.11908 0)
(0.0648277 0.119186 0)
(0.0587415 0.111524 0)
(0.0394764 0.0941671 0)
(0.0236672 0.0705819 0)
(0.0130529 0.0440369 0)
(0.00259934 0.0157281 0)
(-0.00520871 0.0232387 0)
(-0.0270691 0.0616025 0)
(-0.0552519 0.103676 0)
(-0.0645585 0.141144 0)
(-0.0652595 0.181489 0)
(-0.0543667 0.227758 0)
(-0.0460936 0.281673 0)
(-0.00966184 0.406141 0)
(-0.0400691 0.293213 0)
(-0.0326729 0.235066 0)
(-0.0291876 0.173106 0)
(-0.0220128 0.11355 0)
(0.010986 0.0759691 0)
(0.0378903 0.0708198 0)
(0.0519358 0.0685693 0)
(0.0621423 0.0688576 0)
(0.0697624 0.0728718 0)
(0.0750579 0.0795489 0)
(0.078319 0.0876274 0)
(0.0801736 0.0959476 0)
(0.0813649 0.103785 0)
(0.0823194 0.111017 0)
(0.0830142 0.117822 0)
(0.0831444 0.124058 0)
(0.0819592 0.128649 0)
(0.0797962 0.127087 0)
(0.0583784 0.118585 0)
(0.043034 0.0856825 0)
(0.0132776 0.0465943 0)
(0.00423181 0.0195254 0)
(-0.0148514 0.0316419 0)
(-0.047862 0.0721918 0)
(-0.110725 0.108093 0)
(-0.112296 0.138551 0)
(-0.108032 0.172319 0)
(-0.0936342 0.211449 0)
(-0.0889168 0.263188 0)
(0.0412742 0.556556 0)
(-0.00886338 0.388609 0)
(0.00203177 0.221259 0)
(0.000523231 0.157532 0)
(0.00543965 0.0999797 0)
(0.0236533 0.0627141 0)
(0.0461273 0.0548451 0)
(0.0604602 0.0571818 0)
(0.0704025 0.0618111 0)
(0.077608 0.0687299 0)
(0.0824407 0.077315 0)
(0.0851257 0.0866485 0)
(0.0862841 0.0957218 0)
(0.0866534 0.104045 0)
(0.0866727 0.111809 0)
(0.0864933 0.119521 0)
(0.0858559 0.127722 0)
(0.0843113 0.137032 0)
(0.0829668 0.148736 0)
(0.0768387 0.167934 0)
(0.0746936 0.123322 0)
(0.0107346 0.0760052 0)
(0.0196791 0.0297229 0)
(-0.0634706 0.0475989 0)
(-0.0946133 0.171251 0)
(-0.164583 0.111636 0)
(-0.157831 0.135341 0)
(-0.152008 0.160932 0)
(-0.140143 0.186267 0)
(-0.137793 0.214701 0)
(0.0388367 0.534021 0)
(0.0632655 0.489092 0)
(0.0164254 0.185625 0)
(0.0222381 0.136825 0)
(0.0270146 0.0866989 0)
(0.0393503 0.0530734 0)
(0.0561532 0.0426053 0)
(0.0690855 0.0468253 0)
(0.0782759 0.0550762 0)
(0.0849146 0.0648023 0)
(0.0889429 0.0755551 0)
(0.0903992 0.0864984 0)
(0.0897258 0.0966923 0)
(0.0875125 0.105763 0)
(0.0839534 0.114006 0)
(0.0791673 0.121839 0)
(0.0727461 0.129335 0)
(0.0636733 0.135773 0)
(0.0509342 0.140832 0)
(0.0378307 0.146818 0)
(0.0473214 0.153887 0)
(0.0303735 0.168272 0)
(0.0451822 0.0625943 0)
(-0.10755 0.193241 0)
(-0.147799 0.263771 0)
(-0.221512 0.171204 0)
(-0.195964 0.132325 0)
(-0.189136 0.149291 0)
(-0.178954 0.156302 0)
(-0.177066 0.150897 0)
(-0.153005 0.240141 0)
(0.0785499 0.464558 0)
(0.0179839 0.214488 0)
(0.0392021 0.108851 0)
(0.0417295 0.0721235 0)
(0.0520471 0.04335 0)
(0.0659705 0.0337741 0)
(0.0772717 0.0383744 0)
(0.085846 0.0490634 0)
(0.0918183 0.0616133 0)
(0.0947959 0.0748332 0)
(0.0948006 0.0878164 0)
(0.0920971 0.0997252 0)
(0.086483 0.109994 0)
(0.077246 0.118845 0)
(0.0663199 0.126419 0)
(0.0559437 0.132411 0)
(0.0454343 0.135609 0)
(0.0341057 0.13513 0)
(0.0201681 0.129584 0)
(0.00802885 0.121735 0)
(-0.0019441 0.12295 0)
(0.0175074 0.118259 0)
(-0.0375662 0.291129 0)
(-0.160859 0.344247 0)
(-0.244914 0.211694 0)
(-0.224938 0.130634 0)
(-0.211128 0.137259 0)
(-0.19777 0.130974 0)
(-0.186722 0.119542 0)
(-0.182478 0.13221 0)
(0.0246218 0.381334 0)
(0.0722505 0.301158 0)
(0.0486339 0.0755311 0)
(0.0495887 0.0551913 0)
(0.0604654 0.030485 0)
(0.0744981 0.0242933 0)
(0.085736 0.0307407 0)
(0.0938441 0.043743 0)
(0.0990384 0.0591208 0)
(0.10127 0.0750495 0)
(0.100618 0.0904639 0)
(0.0967815 0.104523 0)
(0.0883526 0.116208 0)
(0.0718252 0.125448 0)
(0.0524949 0.133548 0)
(0.0388018 0.139118 0)
(0.0267958 0.139192 0)
(0.0171348 0.134479 0)
(0.00950704 0.125239 0)
(0.00298751 0.112818 0)
(-0.00556024 0.097781 0)
(-0.0151372 0.0823749 0)
(0.0524266 0.169007 0)
(-0.0946756 0.409809 0)
(-0.241281 0.263862 0)
(-0.249948 0.141504 0)
(-0.221938 0.122761 0)
(-0.210454 0.113504 0)
(-0.198576 0.0979069 0)
(-0.197889 0.0808324 0)
(-0.150648 0.139549 0)
(0.0611075 0.279013 0)
(0.0448906 0.0509202 0)
(0.0541382 0.0325499 0)
(0.0665245 0.0135901 0)
(0.081281 0.0126736 0)
(0.0932408 0.0224292 0)
(0.101382 0.0383554 0)
(0.106323 0.0567417 0)
(0.10855 0.0755027 0)
(0.108509 0.093187 0)
(0.106858 0.108193 0)
(0.100877 0.120247 0)
(0.0746242 0.128033 0)
(0.0305786 0.139429 0)
(0.0145775 0.14498 0)
(0.00777911 0.143827 0)
(0.00311954 0.136589 0)
(-0.000336273 0.1245 0)
(-0.00292982 0.108464 0)
(-0.00519404 0.0888507 0)
(-0.00886325 0.0596584 0)
(0.0192104 0.118232 0)
(0.0104555 0.351072 0)
(-0.166007 0.376251 0)
(-0.238501 0.171358 0)
(-0.220656 0.114037 0)
(-0.21256 0.100988 0)
(-0.199316 0.0762985 0)
(-0.189133 0.0415939 0)
(-0.178694 0.0352992 0)
(-0.0364034 0.160406 0)
(0.0452406 0.015892 0)
(0.0582469 -0.000738458 0)
(0.0698456 -0.00612288 0)
(0.0850941 -0.000408794 0)
(0.098047 0.0133428 0)
(0.106869 0.0323851 0)
(0.112328 0.0537286 0)
(0.115187 0.0748859 0)
(0.117109 0.093827 0)
(0.118326 0.110006 0)
(0.116356 0.124086 0)
(0.0976979 0.177193 0)
(0.0123954 0.163408 0)
(-0.00754746 0.152789 0)
(-0.0108252 0.148034 0)
(-0.0104346 0.137901 0)
(-0.00913081 0.123007 0)
(-0.00716286 0.104775 0)
(-0.00510794 0.0822009 0)
(-0.00545961 0.0442586 0)
(0.00422598 0.112234 0)
(0.0463003 0.30174 0)
(-0.0325472 0.496864 0)
(-0.175331 0.284129 0)
(-0.20966 0.109952 0)
(-0.205475 0.0887079 0)
(-0.192199 0.0560872 0)
(-0.178921 0.0213439 0)
(-0.174063 0.00258351 0)
(-0.114075 0.0315142 0)
(0.044602 -0.035923 0)
(0.0546698 -0.0403467 0)
(0.0673656 -0.0284513 0)
(0.0838839 -0.0151422 0)
(0.0985418 0.00286467 0)
(0.108835 0.0250601 0)
(0.115286 0.0493792 0)
(0.118959 0.073226 0)
(0.123621 0.0941796 0)
(0.129815 0.112216 0)
(0.15653 0.1521 0)
(0.132944 0.273977 0)
(0.0735993 0.275539 0)
(-0.0238887 0.205958 0)
(-0.0242269 0.155217 0)
(-0.0202646 0.13915 0)
(-0.0160124 0.120373 0)
(-0.010787 0.0997198 0)
(-0.00536504 0.0755314 0)
(-0.00323121 0.0356423 0)
(0.00744624 0.114278 0)
(0.056341 0.305573 0)
(0.0646435 0.46414 0)
(-0.118304 0.441931 0)
(-0.201765 0.107253 0)
(-0.194283 0.0756345 0)
(-0.182606 0.0402483 0)
(-0.169795 0.00452177 0)
(-0.164105 -0.0323302 0)
(-0.139523 -0.0426118 0)
(0.035754 -0.0866713 0)
(0.0417524 -0.0792457 0)
(0.05804 -0.0531503 0)
(0.0772652 -0.0324183 0)
(0.0941335 -0.00996529 0)
(0.106289 0.0157157 0)
(0.113249 0.0439483 0)
(0.118192 0.0711812 0)
(0.128307 0.0948174 0)
(0.155454 0.112425 0)
(0.209636 0.225261 0)
(0.202454 0.400727 0)
(0.0915829 0.419233 0)
(0.0192204 0.327676 0)
(-0.0446062 0.181132 0)
(-0.0261743 0.138925 0)
(-0.0195528 0.117351 0)
(-0.0132931 0.0935268 0)
(-0.00616357 0.0682543 0)
(-0.00240232 0.0295919 0)
(0.0260837 0.119104 0)
(0.0514584 0.307125 0)
(0.0479222 0.455256 0)
(0.0253381 0.540327 0)
(-0.190928 0.130155 0)
(-0.177099 0.0647976 0)
(-0.167553 0.0272279 0)
(-0.154543 -0.0138571 0)
(-0.146151 -0.0626387 0)
(-0.138005 -0.0925409 0)
(0.0239219 -0.126609 0)
(0.025614 -0.110071 0)
(0.0440511 -0.0785697 0)
(0.0665945 -0.0523983 0)
(0.0855165 -0.0256873 0)
(0.0987288 0.00370258 0)
(0.105244 0.0369488 0)
(0.112589 0.0687187 0)
(0.137275 0.0963082 0)
(0.196222 0.134118 0)
(0.180767 0.286952 0)
(0.153771 0.397649 0)
(0.113064 0.47096 0)
(-0.00122637 0.395969 0)
(-0.0375832 0.272486 0)
(-0.0316669 0.137073 0)
(-0.0206154 0.112107 0)
(-0.0137226 0.0873124 0)
(-0.00668669 0.0606112 0)
(-0.00226462 0.0241924 0)
(0.0129211 0.107493 0)
(0.0142152 0.286253 0)
(-0.0024104 0.460905 0)
(-0.00325204 0.603254 0)
(-0.158349 0.193324 0)
(-0.150982 0.05532 0)
(-0.146637 0.0155458 0)
(-0.13497 -0.0321495 0)
(-0.123919 -0.084229 0)
(-0.116873 -0.136717 0)
(-0.0028452 -0.165032 0)
(0.00920623 -0.13608 0)
(0.0291707 -0.103976 0)
(0.0540558 -0.0748346 0)
(0.074198 -0.0439738 0)
(0.0870946 -0.0106697 0)
(0.0916886 0.0262946 0)
(0.107184 0.0656734 0)
(0.142926 0.0974432 0)
(0.145521 0.158032 0)
(0.120219 0.27572 0)
(0.0874348 0.393278 0)
(0.0724073 0.466698 0)
(0.0417845 0.496622 0)
(-0.0790561 0.319606 0)
(-0.049719 0.153007 0)
(-0.0206102 0.103874 0)
(-0.0128831 0.0802292 0)
(-0.00619529 0.0530521 0)
(-0.00172884 0.0199494 0)
(-0.00691327 0.0997708 0)
(-0.029108 0.278389 0)
(-0.0143714 0.469702 0)
(-0.00421384 0.683963 0)
(-0.0910106 0.368397 0)
(-0.122675 0.0455963 0)
(-0.121595 0.00372735 0)
(-0.112804 -0.0467614 0)
(-0.099747 -0.0990334 0)
(-0.0871337 -0.157324 0)
(-0.0379587 -0.189751 0)
(-0.00860032 -0.160529 0)
(0.015364 -0.130154 0)
(0.041543 -0.0994446 0)
(0.0614733 -0.0637251 0)
(0.0723715 -0.0268151 0)
(0.0759496 0.00817336 0)
(0.12467 0.0587471 0)
(0.147105 0.0831508 0)
(0.10415 0.149358 0)
(0.0410177 0.272531 0)
(0.00857547 0.401298 0)
(0.00712399 0.475242 0)
(-0.0256017 0.495804 0)
(-0.146405 0.298691 0)
(-0.0863843 0.183248 0)
(-0.0265072 0.0896237 0)
(-0.0129811 0.0711838 0)
(-0.0053748 0.0462903 0)
(-0.00094749 0.0167986 0)
(-0.0211261 0.0874006 0)
(-0.0653604 0.259635 0)
(-0.00973411 0.613872 0)
(0.0216132 0.715332 0)
(0.0309681 0.55189 0)
(-0.0975313 0.073046 0)
(-0.0967878 -0.0111702 0)
(-0.0917291 -0.0580676 0)
(-0.0818187 -0.110584 0)
(-0.0692104 -0.16453 0)
(-0.0451052 -0.194099 0)
(-0.0206384 -0.182366 0)
(0.00550167 -0.157101 0)
(0.031054 -0.125177 0)
(0.0472537 -0.0841579 0)
(0.0553924 -0.0473918 0)
(0.0678306 -0.023589 0)
(0.178793 0.0260146 0)
(0.189379 0.0395098 0)
(0.115918 0.0832099 0)
(-0.0289006 0.259079 0)
(-0.0997934 0.444169 0)
(-0.0592159 0.460606 0)
(-0.133504 0.251045 0)
(-0.176568 0.170279 0)
(-0.131886 0.129853 0)
(-0.0481997 0.0710248 0)
(-0.0151545 0.0591516 0)
(-0.00563132 0.0389606 0)
(-0.000347629 0.0144658 0)
(-0.0546425 0.116244 0)
(-0.00272434 0.351313 0)
(0.000683442 0.684565 0)
(0.0447877 0.710056 0)
(0.115476 0.613057 0)
(-0.0507693 0.169422 0)
(-0.080593 -0.020378 0)
(-0.0716628 -0.0666413 0)
(-0.067109 -0.116155 0)
(-0.0618284 -0.165664 0)
(-0.046004 -0.196246 0)
(-0.0248132 -0.197991 0)
(-0.000179842 -0.181475 0)
(0.0233764 -0.15064 0)
(0.0323866 -0.102435 0)
(0.0448889 -0.0729515 0)
(0.0785586 -0.0872946 0)
(0.21582 -0.166915 0)
(0.221507 -0.451711 0)
(0.0399135 -0.837365 0)
(0.0219809 -0.100806 0)
(-0.0688373 0.381925 0)
(-0.0428115 0.266635 0)
(-0.0435897 0.0219807 0)
(-0.0854543 -0.062198 0)
(-0.115345 -0.0586741 0)
(-0.104588 0.00298455 0)
(-0.0236657 0.0372432 0)
(-0.00851234 0.0287406 0)
(-0.000151986 0.0125156 0)
(-0.232235 0.219684 0)
(-0.0274185 0.516108 0)
(0.0092044 0.672939 0)
(0.0671247 0.678958 0)
(0.152039 0.604348 0)
(0.0651365 0.244342 0)
(-0.0184252 0.00116603 0)
(-0.0431192 -0.0666776 0)
(-0.0527384 -0.125376 0)
(-0.0599762 -0.169244 0)
(-0.0480967 -0.199766 0)
(-0.0271407 -0.210932 0)
(-0.0028487 -0.204086 0)
(0.0162562 -0.180515 0)
(0.0129755 -0.13402 0)
(0.0732133 -0.115337 0)
(0.147629 -0.370678 0)
(0.0854153 -1.24356 0)
(0.0198395 -1.36311 0)
(0.041827 -1.19617 0)
(0.0235355 -0.746486 0)
(0.0760242 -0.0674694 0)
(0.117664 -0.0234609 0)
(0.123566 -0.0450519 0)
(0.0737998 -0.105038 0)
(0.0185428 -0.175859 0)
(-0.0507203 -0.16635 0)
(-0.0438557 -0.0140946 0)
(-0.0169256 0.0116617 0)
(-0.00104915 0.0102739 0)
(-0.17115 0.25361 0)
(-0.0357896 0.466248 0)
(0.0190255 0.590894 0)
(0.0827948 0.58767 0)
(0.155671 0.538444 0)
(0.147641 0.326147 0)
(0.0328106 -0.207704 0)
(-0.0538506 -0.146771 0)
(-0.0641658 -0.164175 0)
(-0.0648085 -0.182003 0)
(-0.0518548 -0.210621 0)