/*--------------------------------*- C++ -*----------------------------------*\
| =========                 |                                                 |
| \\      /  F ield         | OpenFOAM: The Open Source CFD Toolbox           |
|  \\    /   O peration     | Version:  v1606+                                |
|   \\  /    A nd           | Web:      www.OpenFOAM.com                      |
|    \\/     M anipulation  |                                                 |
\*---------------------------------------------------------------------------*/
FoamFile
{
    version     2.0;
    format      ascii;
    class       volScalarField;
    location    "0.0044";
    object      k;
}
// * * * * * * * * * * * * * * * * * * * * * * * * * * * * * * * * * * * * * //

dimensions      [0 2 -2 0 0 0 0];

internalField   nonuniform List<scalar> 
2450
(
0.467911
0.431989
0.382631
0.344988
0.323446
0.31786
0.319533
0.404968
0.626744
0.713605
0.748957
0.75649
0.753778
0.744722
0.736435
0.730257
0.725893
0.722697
0.720428
0.718791
0.717583
0.716675
0.715982
0.715446
0.715025
0.714693
0.714427
0.714212
0.714038
0.713895
0.713778
0.713681
0.7136
0.713532
0.713474
0.713425
0.713383
0.713347
0.713315
0.713287
0.713262
0.713241
0.713221
0.713204
0.713189
0.713176
0.713164
0.713154
0.713145
0.713138
0.713132
0.713127
0.713122
0.713119
0.713117
0.713115
0.713114
0.713114
0.713114
0.713114
0.713115
0.713115
0.713115
0.713114
0.71311
0.713103
0.713091
0.713076
0.713061
0.713051
0.424781
0.40103
0.365416
0.33592
0.320215
0.319393
0.329404
0.467005
0.620998
0.720445
0.753337
0.75825
0.754328
0.744239
0.736016
0.730119
0.725693
0.722563
0.720342
0.718735
0.717546
0.716651
0.715967
0.715436
0.71502
0.714691
0.714427
0.714214
0.714041
0.7139
0.713783
0.713687
0.713606
0.713538
0.713481
0.713432
0.71339
0.713354
0.713323
0.713295
0.713271
0.713249
0.71323
0.713213
0.713198
0.713184
0.713173
0.713163
0.713154
0.713147
0.713141
0.713136
0.713132
0.713129
0.713126
0.713125
0.713124
0.713123
0.713123
0.713124
0.713124
0.713125
0.713125
0.713123
0.713119
0.713111
0.713097
0.713078
0.713059
0.713049
0.372094
0.360737
0.341323
0.324001
0.315663
0.31917
0.327291
0.483051
0.650745
0.735435
0.758579
0.759615
0.753356
0.742978
0.735088
0.729454
0.725253
0.722276
0.720153
0.718607
0.717459
0.716591
0.715926
0.715409
0.715002
0.71468
0.714421
0.714212
0.714043
0.713904
0.713789
0.713694
0.713615
0.713548
0.713492
0.713444
0.713403
0.713367
0.713336
0.713309
0.713284
0.713263
0.713244
0.713227
0.713213
0.7132
0.713188
0.713178
0.71317
0.713163
0.713157
0.713152
0.713148
0.713145
0.713142
0.713141
0.71314
0.71314
0.71314
0.71314
0.713141
0.713141
0.713141
0.713139
0.713135
0.713125
0.713109
0.713085
0.713062
0.713048
0.334511
0.331681
0.323797
0.315172
0.312079
0.328343
0.387604
0.582769
0.688222
0.747814
0.761541
0.760046
0.751142
0.741159
0.73377
0.728517
0.724625
0.721859
0.719871
0.718413
0.717322
0.716493
0.715855
0.715357
0.714965
0.714653
0.714402
0.7142
0.714034
0.713899
0.713788
0.713695
0.713618
0.713553
0.713498
0.713451
0.713411
0.713376
0.713345
0.713319
0.713295
0.713274
0.713255
0.713239
0.713224
0.713212
0.713201
0.713191
0.713183
0.713175
0.71317
0.713165
0.713161
0.713158
0.713156
0.713154
0.713154
0.713153
0.713153
0.713154
0.713154
0.713155
0.713155
0.713153
0.713148
0.713138
0.713119
0.713092
0.713065
0.713049
0.312319
0.31138
0.30887
0.308052
0.323693
0.353004
0.517541
0.664206
0.726074
0.759624
0.764015
0.758734
0.747842
0.738813
0.732292
0.727376
0.723858
0.721346
0.719519
0.718165
0.717144
0.716363
0.715759
0.715285
0.71491
0.714611
0.71437
0.714175
0.714016
0.713885
0.713777
0.713688
0.713613
0.71355
0.713497
0.713451
0.713412
0.713378
0.713348
0.713322
0.713299
0.713279
0.713261
0.713245
0.71323
0.713218
0.713207
0.713198
0.713189
0.713183
0.713177
0.713172
0.713169
0.713166
0.713164
0.713162
0.713162
0.713161
0.713161
0.713162
0.713162
0.713163
0.713163
0.713161
0.713156
0.713145
0.713125
0.713097
0.713068
0.71305
0.296199
0.29104
0.299234
0.323369
0.362393
0.468713
0.630864
0.713898
0.753578
0.765882
0.76372
0.754535
0.744111
0.736198
0.730426
0.726109
0.72301
0.720768
0.719115
0.717876
0.716934
0.716207
0.715641
0.715194
0.71484
0.714556
0.714326
0.71414
0.713988
0.713863
0.713759
0.713673
0.713601
0.71354
0.713489
0.713445
0.713407
0.713374
0.713345
0.71332
0.713298
0.713278
0.71326
0.713245
0.713231
0.713219
0.713208
0.713199
0.713191
0.713185
0.713179
0.713175
0.713171
0.713169
0.713167
0.713165
0.713165
0.713164
0.713164
0.713165
0.713165
0.713166
0.713166
0.713164
0.713159
0.713148
0.713128
0.713099
0.713068
0.71305
0.315244
0.316095
0.334965
0.390112
0.526162
0.631904
0.714087
0.752798
0.767891
0.767554
0.760212
0.74932
0.740246
0.733585
0.7285
0.724804
0.722125
0.720154
0.71868
0.71756
0.7167
0.716031
0.715506
0.71509
0.714758
0.71449
0.714274
0.714097
0.713953
0.713834
0.713735
0.713653
0.713584
0.713526
0.713476
0.713434
0.713398
0.713366
0.713338
0.713314
0.713292
0.713273
0.713256
0.713241
0.713228
0.713217
0.713206
0.713198
0.71319
0.713184
0.713179
0.713175
0.713171
0.713169
0.713167
0.713166
0.713165
0.713165
0.713165
0.713165
0.713166
0.713166
0.713166
0.713164
0.713159
0.713148
0.713128
0.713099
0.713068
0.71305
0.408893
0.428111
0.502446
0.608342
0.661914
0.719837
0.75565
0.769369
0.770539
0.7642
0.75354
0.743879
0.736372
0.730836
0.726618
0.723527
0.721243
0.719531
0.71823
0.71723
0.716453
0.715843
0.715361
0.714976
0.714668
0.714418
0.714215
0.714049
0.713913
0.7138
0.713707
0.713629
0.713563
0.713508
0.713461
0.713421
0.713386
0.713356
0.713329
0.713306
0.713285
0.713267
0.713251
0.713236
0.713224
0.713213
0.713203
0.713195
0.713188
0.713182
0.713177
0.713173
0.71317
0.713167
0.713166
0.713164
0.713164
0.713164
0.713164
0.713164
0.713165
0.713165
0.713165
0.713164
0.713158
0.713147
0.713127
0.713097
0.713067
0.713048
0.643252
0.656712
0.688512
0.716841
0.741296
0.761231
0.77206
0.772287
0.766647
0.756117
0.746517
0.738763
0.732884
0.728304
0.724879
0.722323
0.720394
0.71892
0.717783
0.716897
0.716201
0.715649
0.71521
0.714857
0.714572
0.71434
0.714152
0.713997
0.713869
0.713763
0.713675
0.713602
0.71354
0.713488
0.713443
0.713405
0.713372
0.713343
0.713318
0.713296
0.713277
0.713259
0.713244
0.71323
0.713218
0.713208
0.713198
0.713191
0.713184
0.713178
0.713174
0.71317
0.713167
0.713165
0.713164
0.713163
0.713162
0.713162
0.713162
0.713163
0.713164
0.713164
0.713164
0.713162
0.713157
0.713146
0.713125
0.713096
0.713065
0.713047
0.744622
0.749532
0.755774
0.762321
0.766541
0.771268
0.771498
0.766027
0.756651
0.747685
0.740273
0.734403
0.729678
0.726064
0.723317
0.721216
0.719596
0.718335
0.717348
0.716568
0.715949
0.715454
0.715056
0.714735
0.714473
0.71426
0.714086
0.713942
0.713823
0.713724
0.713642
0.713574
0.713516
0.713466
0.713424
0.713389
0.713357
0.71333
0.713306
0.713285
0.713267
0.713251
0.713236
0.713223
0.713212
0.713202
0.713193
0.713186
0.71318
0.713175
0.71317
0.713167
0.713165
0.713163
0.713161
0.713161
0.71316
0.71316
0.713161
0.713161
0.713162
0.713162
0.713162
0.71316
0.713155
0.713144
0.713123
0.713094
0.713063
0.713045
0.765287
0.768295
0.769621
0.770358
0.76986
0.768492
0.763145
0.755223
0.747486
0.740727
0.735211
0.730601
0.726967
0.724143
0.721941
0.720217
0.718861
0.717787
0.716934
0.716251
0.715704
0.715262
0.714903
0.714612
0.714374
0.714179
0.714018
0.713885
0.713776
0.713684
0.713608
0.713544
0.71349
0.713444
0.713405
0.713371
0.713342
0.713316
0.713294
0.713274
0.713257
0.713241
0.713228
0.713216
0.713205
0.713196
0.713188
0.713181
0.713175
0.713171
0.713167
0.713164
0.713162
0.71316
0.713159
0.713158
0.713158
0.713158
0.713159
0.713159
0.71316
0.71316
0.71316
0.713158
0.713153
0.713142
0.713121
0.713092
0.713061
0.713043
0.767581
0.768278
0.768171
0.76714
0.763518
0.758118
0.751985
0.745825
0.740116
0.735213
0.730965
0.727499
0.724726
0.722512
0.720743
0.719329
0.718194
0.717282
0.716546
0.715951
0.715468
0.715075
0.714754
0.714491
0.714275
0.714097
0.71395
0.713829
0.713727
0.713643
0.713572
0.713513
0.713463
0.71342
0.713384
0.713352
0.713325
0.713301
0.71328
0.713262
0.713246
0.713231
0.713219
0.713208
0.713198
0.713189
0.713182
0.713176
0.713171
0.713166
0.713163
0.71316
0.713158
0.713157
0.713156
0.713156
0.713156
0.713156
0.713156
0.713157
0.713158
0.713158
0.713158
0.713156
0.713151
0.71314
0.713119
0.71309
0.713059
0.713041
0.761627
0.760881
0.758812
0.755746
0.751951
0.747622
0.743045
0.738672
0.734441
0.730745
0.727612
0.725016
0.722882
0.721136
0.719709
0.718545
0.717596
0.716821
0.716188
0.71567
0.715246
0.714897
0.71461
0.714374
0.714179
0.714017
0.713883
0.713772
0.713679
0.713602
0.713537
0.713482
0.713436
0.713396
0.713362
0.713333
0.713308
0.713286
0.713267
0.71325
0.713234
0.713221
0.71321
0.713199
0.71319
0.713183
0.713176
0.71317
0.713166
0.713162
0.713159
0.713157
0.713155
0.713154
0.713153
0.713153
0.713153
0.713154
0.713154
0.713155
0.713155
0.713156
0.713156
0.713154
0.713149
0.713138
0.713117
0.713088
0.713057
0.713038
0.750298
0.749434
0.747818
0.745558
0.742747
0.73957
0.736347
0.733037
0.729993
0.72731
0.724996
0.723027
0.721367
0.719979
0.718822
0.717861
0.717065
0.716406
0.715861
0.71541
0.715038
0.714729
0.714473
0.714261
0.714086
0.713939
0.713818
0.713716
0.713631
0.713561
0.713501
0.713451
0.713408
0.713372
0.713341
0.713314
0.71329
0.71327
0.713252
0.713237
0.713223
0.713211
0.7132
0.713191
0.713182
0.713175
0.71317
0.713165
0.713161
0.713157
0.713155
0.713153
0.713152
0.713151
0.71315
0.71315
0.713151
0.713151
0.713152
0.713153
0.713153
0.713154
0.713154
0.713152
0.713147
0.713135
0.713115
0.713086
0.713055
0.713036
0.741336
0.740802
0.739635
0.73792
0.735969
0.733623
0.731202
0.72884
0.726653
0.724684
0.722943
0.721427
0.720122
0.719008
0.718063
0.717266
0.716596
0.716034
0.715565
0.715172
0.714845
0.714572
0.714345
0.714155
0.713996
0.713864
0.713754
0.713662
0.713585
0.71352
0.713466
0.713419
0.71338
0.713347
0.713319
0.713294
0.713273
0.713254
0.713238
0.713223
0.713211
0.7132
0.71319
0.713182
0.713174
0.713168
0.713163
0.713159
0.713155
0.713152
0.71315
0.713149
0.713148
0.713147
0.713147
0.713148
0.713148
0.713149
0.713149
0.71315
0.713151
0.713152
0.713152
0.71315
0.713145
0.713134
0.713113
0.713083
0.713053
0.713034
0.734831
0.734433
0.733565
0.732319
0.730812
0.729146
0.727423
0.72573
0.724129
0.722653
0.72132
0.720135
0.719096
0.718193
0.717416
0.716751
0.716184
0.715704
0.715298
0.714956
0.714669
0.714427
0.714224
0.714054
0.713912
0.713793
0.713693
0.71361
0.713539
0.71348
0.713431
0.713389
0.713353
0.713323
0.713297
0.713274
0.713255
0.713238
0.713223
0.71321
0.713199
0.713189
0.71318
0.713172
0.713166
0.713161
0.713156
0.713153
0.71315
0.713147
0.713146
0.713145
0.713144
0.713144
0.713144
0.713145
0.713145
0.713146
0.713147
0.713148
0.713149
0.71315
0.71315
0.713148
0.713143
0.713132
0.713111
0.713082
0.713051
0.713033
0.729902
0.729624
0.729015
0.728139
0.727071
0.725885
0.724641
0.723396
0.722194
0.721065
0.720026
0.719086
0.718249
0.71751
0.716865
0.716306
0.715824
0.715412
0.71506
0.714761
0.714508
0.714294
0.714113
0.713961
0.713833
0.713726
0.713635
0.71356
0.713496
0.713442
0.713397
0.713359
0.713326
0.713299
0.713275
0.713255
0.713237
0.713221
0.713208
0.713196
0.713186
0.713177
0.71317
0.713163
0.713158
0.713153
0.713149
0.713146
0.713144
0.713142
0.713141
0.713141
0.71314
0.713141
0.713141
0.713142
0.713143
0.713144
0.713145
0.713146
0.713147
0.713148
0.713148
0.713146
0.713141
0.71313
0.713109
0.71308
0.713049
0.713031
0.726363
0.726168
0.725739
0.725116
0.724347
0.723479
0.722554
0.721614
0.720692
0.71981
0.718987
0.718231
0.717547
0.716937
0.716396
0.715923
0.715511
0.715155
0.714848
0.714586
0.714362
0.714172
0.714011
0.713874
0.713759
0.713662
0.713581
0.713512
0.713454
0.713406
0.713364
0.71333
0.7133
0.713275
0.713254
0.713235
0.713219
0.713205
0.713193
0.713183
0.713174
0.713166
0.71316
0.713154
0.713149
0.713146
0.713143
0.71314
0.713139
0.713137
0.713137
0.713137
0.713137
0.713137
0.713138
0.713139
0.71314
0.713141
0.713142
0.713144
0.713145
0.713146
0.713146
0.713144
0.713139
0.713128
0.713108
0.713078
0.713047
0.713029
0.7238
0.723661
0.723351
0.722893
0.722322
0.721668
0.720963
0.720235
0.719512
0.718811
0.718147
0.71753
0.716965
0.716455
0.715998
0.715594
0.715239
0.714929
0.714661
0.71443
0.714231
0.714062
0.713918
0.713795
0.713691
0.713604
0.71353
0.713467
0.713415
0.713371
0.713333
0.713302
0.713275
0.713252
0.713233
0.713216
0.713202
0.713189
0.713179
0.71317
0.713162
0.713155
0.71315
0.713145
0.713141
0.713138
0.713136
0.713134
0.713133
0.713132
0.713132
0.713132
0.713133
0.713134
0.713135
0.713136
0.713137
0.713139
0.71314
0.713141
0.713143
0.713144
0.713144
0.713142
0.713137
0.713126
0.713106
0.713077
0.713046
0.713028
0.721903
0.721801
0.72157
0.721224
0.720787
0.720282
0.71973
0.719155
0.718576
0.718008
0.717465
0.716954
0.716481
0.716049
0.715659
0.715311
0.715003
0.714732
0.714496
0.714291
0.714114
0.713963
0.713833
0.713722
0.713629
0.713549
0.713482
0.713425
0.713378
0.713337
0.713303
0.713275
0.713251
0.71323
0.713212
0.713197
0.713185
0.713174
0.713164
0.713157
0.71315
0.713144
0.71314
0.713136
0.713133
0.713131
0.713129
0.713128
0.713127
0.713127
0.713128
0.713128
0.713129
0.71313
0.713132
0.713133
0.713135
0.713136
0.713138
0.713139
0.713141
0.713142
0.713142
0.713141
0.713136
0.713125
0.713104
0.713075
0.713044
0.713026
0.720469
0.720392
0.720215
0.719947
0.719605
0.719204
0.718763
0.718299
0.717826
0.717359
0.716907
0.716478
0.716077
0.715708
0.715372
0.715069
0.714799
0.714561
0.714351
0.714169
0.71401
0.713874
0.713757
0.713657
0.713571
0.713499
0.713438
0.713386
0.713343
0.713306
0.713275
0.713249
0.713227
0.713209
0.713193
0.713179
0.713168
0.713159
0.713151
0.713144
0.713138
0.713133
0.71313
0.713127
0.713125
0.713123
0.713122
0.713122
0.713122
0.713122
0.713123
0.713124
0.713126
0.713127
0.713129
0.71313
0.713132
0.713134
0.713136
0.713137
0.713139
0.71314
0.713141
0.713139
0.713134
0.713123
0.713103
0.713074
0.713043
0.713025
0.719367
0.719308
0.719169
0.718956
0.718682
0.718358
0.717997
0.717615
0.717222
0.716831
0.716449
0.716084
0.71574
0.71542
0.715127
0.714862
0.714624
0.714412
0.714225
0.714061
0.713918
0.713794
0.713688
0.713597
0.713519
0.713453
0.713397
0.71335
0.71331
0.713277
0.713249
0.713225
0.713205
0.713188
0.713174
0.713162
0.713152
0.713144
0.713137
0.713131
0.713127
0.713123
0.71312
0.713118
0.713117
0.713116
0.713116
0.713116
0.713117
0.713118
0.713119
0.71312
0.713122
0.713124
0.713126
0.713128
0.71313
0.713132
0.713134
0.713136
0.713137
0.713139
0.713139
0.713138
0.713133
0.713122
0.713102
0.713073
0.713042
0.713024
0.718508
0.718461
0.718351
0.718178
0.717953
0.717685
0.717385
0.717064
0.716732
0.716399
0.716072
0.715757
0.715458
0.715178
0.71492
0.714685
0.714473
0.714283
0.714114
0.713966
0.713837
0.713724
0.713627
0.713544
0.713472
0.713412
0.71336
0.713317
0.71328
0.71325
0.713224
0.713202
0.713184
0.713169
0.713156
0.713146
0.713137
0.71313
0.713124
0.713119
0.713116
0.713113
0.713111
0.71311
0.713109
0.713109
0.71311
0.71311
0.713112
0.713113
0.713115
0.713117
0.713119
0.713121
0.713123
0.713125
0.713127
0.71313
0.713132
0.713134
0.713136
0.713137
0.713138
0.713137
0.713132
0.713121
0.713101
0.713072
0.713041
0.713023
0.71783
0.717793
0.717703
0.71756
0.717372
0.717146
0.716892
0.716618
0.716333
0.716045
0.715761
0.715485
0.715222
0.714974
0.714745
0.714534
0.714343
0.714172
0.714019
0.713884
0.713765
0.713662
0.713573
0.713496
0.71343
0.713374
0.713327
0.713286
0.713253
0.713224
0.713201
0.713181
0.713164
0.71315
0.713139
0.71313
0.713122
0.713116
0.713112
0.713108
0.713105
0.713103
0.713102
0.713102
0.713102
0.713103
0.713104
0.713105
0.713107
0.713109
0.713111
0.713113
0.713115
0.713118
0.71312
0.713123
0.713125
0.713127
0.71313
0.713132
0.713134
0.713136
0.713137
0.713136
0.713131
0.71312
0.7131
0.713071
0.713041
0.713023
0.717292
0.717262
0.717187
0.717066
0.716906
0.716713
0.716493
0.716255
0.716007
0.715755
0.715504
0.715259
0.715025
0.714803
0.714596
0.714406
0.714233
0.714076
0.713936
0.713812
0.713703
0.713608
0.713525
0.713454
0.713392
0.71334
0.713296
0.713259
0.713227
0.713201
0.713179
0.713161
0.713146
0.713133
0.713123
0.713115
0.713109
0.713104
0.7131
0.713097
0.713095
0.713094
0.713094
0.713094
0.713095
0.713096
0.713098
0.7131
0.713102
0.713104
0.713107
0.71311
0.713112
0.713115
0.713118
0.71312
0.713123
0.713126
0.713128
0.713131
0.713133
0.713134
0.713135
0.713135
0.71313
0.71312
0.7131
0.71307
0.71304
0.713022
0.716861
0.716836
0.716773
0.71667
0.716531
0.716362
0.716169
0.71596
0.71574
0.715516
0.715292
0.715072
0.71486
0.71466
0.714472
0.714298
0.714139
0.713995
0.713865
0.71375
0.713649
0.71356
0.713483
0.713416
0.713359
0.71331
0.713269
0.713234
0.713204
0.71318
0.713159
0.713142
0.713129
0.713117
0.713108
0.713101
0.713096
0.713092
0.713089
0.713087
0.713086
0.713086
0.713086
0.713087
0.713088
0.71309
0.713092
0.713095
0.713097
0.7131
0.713103
0.713106
0.713109
0.713112
0.713115
0.713118
0.713121
0.713124
0.713126
0.713129
0.713131
0.713133
0.713134
0.713134
0.713129
0.713119
0.713099
0.71307
0.713039
0.713021
0.716515
0.716494
0.716441
0.716351
0.716229
0.716079
0.715907
0.715719
0.715522
0.715319
0.715117
0.714917
0.714724
0.71454
0.714367
0.714207
0.714059
0.713925
0.713805
0.713697
0.713602
0.713519
0.713446
0.713383
0.713329
0.713283
0.713244
0.713211
0.713183
0.71316
0.713141
0.713125
0.713113
0.713103
0.713095
0.713088
0.713084
0.713081
0.713078
0.713077
0.713077
0.713077
0.713078
0.71308
0.713082
0.713084
0.713087
0.71309
0.713093
0.713096
0.7131
0.713103
0.713106
0.713109
0.713112
0.713116
0.713119
0.713122
0.713125
0.713127
0.71313
0.713132
0.713133
0.713132
0.713128
0.713118
0.713098
0.713069
0.713039
0.713021
0.716238
0.71622
0.716173
0.716094
0.715984
0.71585
0.715694
0.715524
0.715344
0.715159
0.714973
0.714789
0.714611
0.71444
0.714279
0.71413
0.713992
0.713866
0.713753
0.713651
0.713562
0.713482
0.713414
0.713354
0.713302
0.713259
0.713221
0.71319
0.713164
0.713142
0.713124
0.713109
0.713098
0.713088
0.713081
0.713076
0.713072
0.71307
0.713068
0.713068
0.713068
0.713069
0.713071
0.713073
0.713076
0.713078
0.713082
0.713085
0.713088
0.713092
0.713095
0.713099
0.713102
0.713106
0.713109
0.713113
0.713116
0.713119
0.713122
0.713125
0.713128
0.71313
0.713131
0.713131
0.713127
0.713116
0.713096
0.713068
0.713037
0.713019
0.716015
0.715999
0.715958
0.715887
0.715787
0.715664
0.715521
0.715364
0.715198
0.715027
0.714854
0.714683
0.714516
0.714357
0.714206
0.714065
0.713934
0.713815
0.713708
0.713611
0.713526
0.71345
0.713384
0.713327
0.713278
0.713236
0.7132
0.71317
0.713145
0.713124
0.713107
0.713093
0.713083
0.713074
0.713068
0.713063
0.71306
0.713058
0.713057
0.713057
0.713058
0.71306
0.713062
0.713065
0.713068
0.713071
0.713075
0.713078
0.713082
0.713086
0.71309
0.713094
0.713097
0.713101
0.713105
0.713108
0.713112
0.713115
0.713118
0.713121
0.713124
0.713126
0.713128
0.713127
0.713123
0.713113
0.713093
0.713064
0.713034
0.713016
0.715836
0.715822
0.715785
0.715719
0.715628
0.715513
0.71538
0.715234
0.715078
0.714917
0.714755
0.714594
0.714436
0.714285
0.714142
0.714008
0.713884
0.71377
0.713667
0.713574
0.713492
0.713419
0.713356
0.7133
0.713253
0.713212
0.713178
0.713149
0.713125
0.713105
0.713089
0.713076
0.713066
0.713058
0.713052
0.713048
0.713045
0.713044
0.713044
0.713045
0.713046
0.713048
0.713051
0.713054
0.713058
0.713061
0.713065
0.713069
0.713073
0.713077
0.713081
0.713085
0.713089
0.713093
0.713097
0.713101
0.713104
0.713108
0.713111
0.713114
0.713117
0.71312
0.713121
0.713121
0.713117
0.713107
0.713087
0.713058
0.713028
0.71301
0.715693
0.71568
0.715645
0.715583
0.715497
0.715389
0.715263
0.715125
0.714977
0.714825
0.71467
0.714516
0.714366
0.714222
0.714084
0.713955
0.713836
0.713726
0.713627
0.713537
0.713457
0.713387
0.713325
0.713272
0.713225
0.713186
0.713152
0.713124
0.713101
0.713082
0.713066
0.713054
0.713044
0.713037
0.713032
0.713028
0.713026
0.713025
0.713026
0.713027
0.713029
0.713031
0.713035
0.713038
0.713042
0.713046
0.71305
0.713054
0.713059
0.713063
0.713067
0.713071
0.713076
0.71308
0.713084
0.713088
0.713091
0.713095
0.713098
0.713102
0.713105
0.713107
0.713109
0.713108
0.713105
0.713094
0.713075
0.713046
0.713015
0.712997
0.715578
0.715563
0.715529
0.715468
0.715386
0.715282
0.715162
0.71503
0.714888
0.714742
0.714593
0.714445
0.7143
0.714161
0.714028
0.713903
0.713787
0.71368
0.713583
0.713496
0.713419
0.71335
0.713289
0.713237
0.713192
0.713153
0.713121
0.713093
0.713071
0.713052
0.713037
0.713025
0.713016
0.713009
0.713004
0.713001
0.713
0.712999
0.713
0.713001
0.713004
0.713007
0.71301
0.713014
0.713018
0.713023
0.713027
0.713032
0.713036
0.713041
0.713045
0.713049
0.713054
0.713058
0.713062
0.713066
0.71307
0.713073
0.713077
0.71308
0.713083
0.713086
0.713088
0.713088
0.713084
0.713073
0.713054
0.713025
0.712995
0.712977
0.715487
0.71547
0.715432
0.715371
0.715289
0.715189
0.715073
0.714945
0.714808
0.714666
0.714521
0.714377
0.714236
0.7141
0.713971
0.713849
0.713735
0.713631
0.713536
0.713451
0.713375
0.713307
0.713248
0.713197
0.713152
0.713115
0.713083
0.713056
0.713034
0.713015
0.713001
0.71299
0.712981
0.712974
0.71297
0.712967
0.712966
0.712966
0.712967
0.712969
0.712972
0.712975
0.712979
0.712983
0.712987
0.712992
0.712996
0.713001
0.713006
0.713011
0.713015
0.71302
0.713024
0.713028
0.713033
0.713037
0.713041
0.713044
0.713048
0.713051
0.713055
0.713057
0.713059
0.713059
0.713055
0.713045
0.713025
0.712996
0.712966
0.712949
0.71542
0.7154
0.715358
0.715295
0.715213
0.715114
0.715
0.714875
0.714741
0.714602
0.71446
0.714319
0.714181
0.714048
0.71392
0.7138
0.713689
0.713586
0.713493
0.713409
0.713334
0.713267
0.713209
0.713158
0.713115
0.713077
0.713046
0.71302
0.712998
0.71298
0.712966
0.712955
0.712947
0.712941
0.712937
0.712934
0.712933
0.712934
0.712935
0.712937
0.71294
0.712943
0.712947
0.712952
0.712956
0.712961
0.712966
0.712971
0.712976
0.71298
0.712985
0.71299
0.712994
0.712998
0.713003
0.713007
0.713011
0.713015
0.713018
0.713022
0.713025
0.713028
0.713029
0.713029
0.713025
0.713015
0.712996
0.712967
0.712938
0.712921
0.715381
0.715359
0.715315
0.71525
0.715168
0.71507
0.714957
0.714833
0.714701
0.714563
0.714424
0.714285
0.714148
0.714016
0.71389
0.713772
0.713661
0.71356
0.713468
0.713384
0.71331
0.713244
0.713186
0.713136
0.713093
0.713056
0.713025
0.712999
0.712978
0.71296
0.712946
0.712935
0.712927
0.712921
0.712917
0.712915
0.712914
0.712915
0.712916
0.712919
0.712922
0.712925
0.712929
0.712934
0.712939
0.712943
0.712948
0.712953
0.712958
0.712963
0.712968
0.712972
0.712977
0.712981
0.712986
0.71299
0.712994
0.712998
0.713001
0.713005
0.713008
0.713011
0.713012
0.713012
0.713008
0.712998
0.712978
0.712951
0.712923
0.712907
)
;

boundaryField
{
    left
    {
        type            symmetryPlane;
    }
    right
    {
        type            symmetryPlane;
    }
    top
    {
        type            symmetryPlane;
    }
    bottom
    {
        type            symmetryPlane;
    }
    frontAndBack
    {
        type            empty;
    }
}


// ************************************************************************* //
