/*--------------------------------*- C++ -*----------------------------------*\
| =========                 |                                                 |
| \\      /  F ield         | OpenFOAM: The Open Source CFD Toolbox           |
|  \\    /   O peration     | Version:  v1606+                                |
|   \\  /    A nd           | Web:      www.OpenFOAM.com                      |
|    \\/     M anipulation  |                                                 |
\*---------------------------------------------------------------------------*/
FoamFile
{
    version     2.0;
    format      ascii;
    class       volScalarField;
    location    "1.5";
    object      alpha.air;
}
// * * * * * * * * * * * * * * * * * * * * * * * * * * * * * * * * * * * * * //

dimensions      [0 0 0 0 0 0 0];

internalField   nonuniform List<scalar> 
6000
(
0.565841
0.565845
0.565855
0.565855
0.565856
0.565858
0.56586
0.576992
0.59532
0.609088
0.620365
0.621238
0.618878
0.617752
0.618946
0.628221
0.620592
0.605252
0.58685
0.570461
0.558001
0.557763
0.557762
0.557761
0.55776
0.557759
0.557759
0.557759
0.557759
0.55776
0.565845
0.571313
0.569728
0.571435
0.575496
0.590669
0.616778
0.627537
0.627568
0.627606
0.627593
0.627615
0.627593
0.62762
0.628221
0.628189
0.628221
0.628187
0.628206
0.628157
0.628107
0.605779
0.578465
0.565646
0.56248
0.559281
0.558656
0.561287
0.562307
0.577819
0.570955
0.601283
0.58281
0.556791
0.540237
0.539109
0.543962
0.570802
0.603733
0.612516
0.604785
0.609036
0.621884
0.624731
0.623912
0.62136
0.617875
0.611827
0.609331
0.598039
0.565127
0.534162
0.522266
0.537664
0.562717
0.57477
0.584133
0.595691
0.61312
0.634151
0.624469
0.656552
0.64204
0.606077
0.572736
0.538001
0.504685
0.504835
0.555094
0.584439
0.573916
0.582213
0.611892
0.620513
0.616125
0.608626
0.600848
0.591169
0.583515
0.556481
0.506737
0.483016
0.522089
0.58015
0.610495
0.624593
0.633283
0.643862
0.653526
0.653526
0.65616
0.656516
0.656506
0.656166
0.631403
0.587538
0.512673
0.479229
0.496248
0.530823
0.529129
0.541273
0.581271
0.595322
0.584349
0.571272
0.561989
0.554651
0.543728
0.50735
0.475255
0.475078
0.547135
0.623723
0.640077
0.640234
0.640395
0.647028
0.653526
0.653526
0.64504
0.656506
0.656475
0.656458
0.656247
0.63912
0.581919
0.478855
0.474448
0.479612
0.484322
0.493692
0.523183
0.536505
0.526459
0.516325
0.51007
0.506072
0.4974
0.475223
0.474891
0.475233
0.576991
0.620037
0.628445
0.619513
0.613697
0.620714
0.642797
0.628482
0.601144
0.635224
0.650112
0.648328
0.643567
0.63831
0.620556
0.523028
0.47473
0.474279
0.474758
0.474524
0.47506
0.476091
0.475051
0.474882
0.475196
0.475032
0.475138
0.474883
0.475149
0.495579
0.611121
0.599347
0.586058
0.575599
0.568654
0.577935
0.602419
0.571519
0.543452
0.577834
0.604453
0.608476
0.605015
0.61084
0.611168
0.584636
0.474248
0.474687
0.474257
0.474727
0.474454
0.474815
0.474664
0.474905
0.474817
0.475013
0.474877
0.475106
0.474807
0.617605
0.678265
0.591665
0.548217
0.548094
0.548061
0.555602
0.563307
0.522745
0.511625
0.523519
0.540356
0.551966
0.554413
0.567234
0.601089
0.648649
0.556124
0.4741
0.474688
0.47427
0.474749
0.484356
0.508885
0.517579
0.502753
0.485177
0.479121
0.502947
0.596941
0.778642
0.783386
0.645368
0.548615
0.547925
0.548202
0.552082
0.534942
0.498538
0.504739
0.506131
0.505415
0.511158
0.520224
0.548024
0.62775
0.723708
0.696608
0.528952
0.510008
0.560207
0.623284
0.677332
0.709811
0.717233
0.699446
0.675266
0.668897
0.707056
0.793774
0.855891
0.859391
0.769379
0.618435
0.552644
0.567452
0.557151
0.512581
0.486603
0.506785
0.521153
0.501502
0.501503
0.522689
0.601523
0.716861
0.789002
0.784037
0.724259
0.722351
0.756181
0.786731
0.805774
0.814749
0.817114
0.817565
0.817492
0.820896
0.83817
0.862432
0.873387
0.873586
0.850198
0.718305
0.589951
0.587229
0.585384
0.506318
0.475615
0.517915
0.566328
0.521053
0.527396
0.607447
0.74222
0.808963
0.825208
0.819105
0.810444
0.807687
0.804315
0.801958
0.803152
0.807512
0.815088
0.824942
0.835901
0.849063
0.863716
0.872854
0.873531
0.873402
0.866718
0.74933
0.580006
0.586995
0.586931
0.569446
0.479351
0.531364
0.566034
0.552602
0.583747
0.746022
0.833369
0.850639
0.843479
0.829602
0.815131
0.797953
0.778096
0.765099
0.760553
0.767869
0.788908
0.813459
0.834029
0.852427
0.86712
0.873414
0.873381
0.873531
0.856758
0.6752
0.535752
0.572877
0.586964
0.586931
0.513729
0.521024
0.566182
0.561618
0.61127
0.813167
0.853409
0.856747
0.854287
0.833464
0.805052
0.765306
0.724861
0.701822
0.696723
0.712513
0.749771
0.792129
0.827486
0.853028
0.866693
0.870828
0.870751
0.870274
0.817231
0.566049
0.509747
0.537691
0.563759
0.575105
0.52239
0.500037
0.566043
0.545272
0.553943
0.811949
0.856561
0.85653
0.856581
0.834944
0.787651
0.72394
0.671281
0.644342
0.639539
0.658272
0.703242
0.757686
0.80733
0.840632
0.851132
0.850605
0.850826
0.839792
0.732288
0.524764
0.486321
0.500353
0.517429
0.525477
0.491171
0.479256
0.533137
0.539392
0.4907
0.766899
0.856181
0.856564
0.856473
0.83533
0.76819
0.686227
0.631425
0.604899
0.599516
0.610048
0.639518
0.679633
0.73134
0.778854
0.797963
0.799123
0.801651
0.763014
0.611832
0.487663
0.470681
0.468459
0.472116
0.473097
0.461365
0.465208
0.489478
0.522551
0.490804
0.67218
0.843588
0.856467
0.856567
0.830668
0.73454
0.63802
0.59271
0.576825
0.572676
0.564254
0.552385
0.550691
0.59085
0.652004
0.699232
0.718671
0.722445
0.660935
0.510085
0.460805
0.455
0.450868
0.451186
0.451765
0.4517
0.459914
0.469359
0.489382
0.48689
0.592597
0.803955
0.840929
0.839381
0.805627
0.666081
0.559716
0.536931
0.539378
0.537038
0.506913
0.477634
0.470144
0.480362
0.517574
0.585232
0.629034
0.625492
0.557834
0.46735
0.451397
0.449075
0.44784
0.447834
0.448373
0.454996
0.457059
0.456264
0.456447
0.463505
0.549554
0.718024
0.784458
0.782588
0.746461
0.592852
0.484127
0.48404
0.4918
0.489584
0.466611
0.456001
0.454756
0.454916
0.463858
0.500322
0.549766
0.545497
0.482123
0.453911
0.453755
0.453619
0.450446
0.449522
0.448402
0.459753
0.455035
0.455035
0.455157
0.496919
0.544424
0.632322
0.710839
0.714394
0.691215
0.606178
0.4974
0.470215
0.470154
0.463939
0.456141
0.455042
0.453727
0.45364
0.454878
0.464979
0.500344
0.490672
0.454542
0.454411
0.456525
0.497684
0.561829
0.52808
0.459852
0.45984
0.455128
0.455265
0.601946
0.69816
0.657288
0.655725
0.692459
0.698041
0.699538
0.704445
0.687291
0.612586
0.481018
0.460511
0.458488
0.46067
0.453726
0.453488
0.453494
0.454003
0.467409
0.475691
0.53275
0.578226
0.63358
0.71155
0.766949
0.732471
0.563017
0.532269
0.61387
0.677611
0.779231
0.813951
0.808449
0.776588
0.763394
0.764612
0.783755
0.832162
0.853351
0.828085
0.700853
0.52295
0.471823
0.483106
0.4673
0.453536
0.453488
0.453498
0.458875
0.600991
0.725494
0.75638
0.786016
0.811907
0.819414
0.81945
0.775979
0.761253
0.737155
0.79419
0.812402
0.818869
0.844787
0.84914
0.849034
0.854516
0.868235
0.882689
0.882738
0.873262
0.83238
0.747314
0.669237
0.632836
0.604046
0.499556
0.453616
0.453687
0.596422
0.744723
0.785406
0.789625
0.795903
0.810685
0.819457
0.819413
0.819451
0.819419
0.743779
0.801531
0.812226
0.810959
0.828787
0.850431
0.866887
0.87829
0.882999
0.883064
0.87845
0.861594
0.837776
0.823909
0.815494
0.804677
0.779207
0.645344
0.581152
0.593198
0.698484
0.756207
0.772634
0.777601
0.786627
0.800466
0.813363
0.819451
0.819402
0.819416
0.72983
0.797708
0.812095
0.808053
0.808005
0.82877
0.846532
0.858896
0.865426
0.865012
0.855223
0.836173
0.824078
0.826501
0.84714
0.868516
0.865988
0.736541
0.651136
0.640483
0.691098
0.734835
0.752527
0.761399
0.772039
0.783212
0.792261
0.801078
0.807848
0.811712
0.715312
0.788394
0.81203
0.807978
0.798097
0.803557
0.813662
0.823215
0.829538
0.828392
0.81877
0.807028
0.806299
0.824344
0.863195
0.894603
0.900318
0.766386
0.638497
0.612346
0.660906
0.710325
0.734463
0.745088
0.752661
0.757607
0.759349
0.762545
0.770119
0.776174
0.699594
0.774457
0.806811
0.8036
0.790198
0.783783
0.788528
0.794343
0.795964
0.790252
0.780024
0.776474
0.791802
0.832674
0.882367
0.910039
0.914948
0.811885
0.633107
0.583723
0.630114
0.686926
0.716623
0.726755
0.729813
0.728271
0.719952
0.712617
0.716236
0.720013
0.678535
0.756061
0.790344
0.789746
0.77543
0.761276
0.765947
0.771991
0.769624
0.754183
0.735464
0.74215
0.786346
0.853418
0.902107
0.919069
0.921175
0.864571
0.651706
0.569516
0.59614
0.660176
0.696774
0.706453
0.707031
0.700042
0.683185
0.6616
0.649817
0.650627
0.661276
0.729542
0.761422
0.763642
0.752022
0.736538
0.735276
0.739455
0.738349
0.716715
0.685562
0.708312
0.792891
0.87847
0.914274
0.922151
0.922222
0.898421
0.733221
0.569347
0.559272
0.630192
0.674968
0.68707
0.68725
0.677695
0.657254
0.624092
0.593509
0.577694
0.63592
0.699088
0.727088
0.730489
0.721196
0.706077
0.700599
0.703223
0.700603
0.674332
0.637051
0.688966
0.815279
0.897137
0.917404
0.921866
0.922222
0.913877
0.825
0.575289
0.531582
0.598103
0.64974
0.668425
0.670902
0.662158
0.644805
0.610642
0.565883
0.525352
0.609315
0.666793
0.688055
0.691766
0.684233
0.671032
0.662834
0.663853
0.657802
0.626678
0.598113
0.693196
0.847551
0.904223
0.914688
0.918914
0.9215
0.917493
0.871013
0.658042
0.526741
0.559821
0.617135
0.647492
0.656475
0.651613
0.6402
0.611967
0.565654
0.504637
0.582287
0.63422
0.648285
0.649426
0.640258
0.627505
0.617871
0.615191
0.604353
0.572777
0.577022
0.723867
0.87201
0.904045
0.906974
0.910876
0.916448
0.915957
0.89038
0.757232
0.526592
0.526512
0.576788
0.619348
0.640218
0.642025
0.63636
0.616134
0.58375
0.504637
0.557172
0.604214
0.610711
0.6066
0.591138
0.574118
0.560211
0.550819
0.537753
0.510482
0.559645
0.75682
0.87935
0.897318
0.894718
0.897707
0.906046
0.911124
0.897104
0.814536
0.582722
0.525661
0.543471
0.585526
0.618896
0.629041
0.628151
0.617635
0.601609
0.513292
0.534777
0.577841
0.57621
0.561749
0.537414
0.51457
0.497577
0.487009
0.482883
0.480961
0.516811
0.750505
0.865027
0.878291
0.877636
0.882754
0.894969
0.905558
0.900325
0.848706
0.678887
0.525723
0.52914
0.557362
0.59206
0.609769
0.614465
0.610417
0.610473
0.531769
0.51534
0.552992
0.541388
0.51482
0.48821
0.472404
0.463933
0.460651
0.460944
0.471396
0.48129
0.693311
0.814655
0.844292
0.853649
0.86726
0.887349
0.903528
0.905169
0.872694
0.755792
0.562324
0.53041
0.544844
0.566609
0.588195
0.599408
0.600143
0.610108
0.546719
0.500844
0.526288
0.505029
0.477363
0.461838
0.455845
0.454739
0.455311
0.459589
0.459061
0.476868
0.58512
0.742619
0.794494
0.820118
0.848883
0.882569
0.906336
0.910668
0.889624
0.812338
0.656597
0.559969
0.551379
0.552131
0.568206
0.583039
0.590725
0.60987
0.557463
0.49521
0.497146
0.473417
0.456045
0.451075
0.450204
0.453917
0.45817
0.463435
0.459042
0.45913
0.495945
0.657516
0.723848
0.770632
0.824793
0.879835
0.910853
0.91048
0.901745
0.85941
0.759749
0.635731
0.562199
0.54096
0.549785
0.561024
0.567881
0.609759
0.523058
0.494923
0.473336
0.454737
0.448755
0.448698
0.448764
0.457721
0.463035
0.463995
0.46443
0.459972
0.471498
0.555212
0.630853
0.691018
0.787335
0.87674
0.910486
0.910757
0.909527
0.889698
0.831827
0.715341
0.570695
0.517895
0.518188
0.520473
0.521401
0.540047
0.472322
0.494831
0.457856
0.448757
0.448694
0.448757
0.458691
0.464397
0.464308
0.464285
0.464455
0.462184
0.46501
0.488184
0.528633
0.575205
0.724001
0.867917
0.910736
0.910451
0.910531
0.898273
0.857321
0.751632
0.569954
0.48158
0.482416
0.473539
0.470746
0.466827
0.448974
0.494765
0.450892
0.448698
0.448761
0.455788
0.549012
0.469135
0.462377
0.461174
0.461452
0.46135
0.464002
0.465102
0.465192
0.485072
0.645231
0.833075
0.890527
0.892004
0.890648
0.876748
0.838521
0.736631
0.555887
0.46483
0.455012
0.448628
0.448668
0.448572
0.448581
0.494675
0.448795
0.448767
0.462469
0.671638
0.809976
0.727073
0.592952
0.461116
0.46101
0.460982
0.467914
0.472884
0.493172
0.497694
0.618286
0.75677
0.809553
0.812028
0.804795
0.78496
0.74985
0.66666
0.520099
0.456581
0.449026
0.448689
0.448544
0.448576
0.448544
0.473734
0.448802
0.459308
0.62501
0.85874
0.897545
0.881519
0.817628
0.694228
0.528111
0.494659
0.589182
0.721636
0.735437
0.67832
0.659181
0.686599
0.714434
0.715296
0.694387
0.662204
0.620634
0.551002
0.477242
0.465933
0.478409
0.521075
0.448769
0.448517
0.44856
0.480165
0.44891
0.518773
0.80605
0.897638
0.897689
0.883204
0.846407
0.811248
0.773792
0.783538
0.847486
0.902743
0.905693
0.874042
0.795023
0.729925
0.722192
0.719306
0.69078
0.661158
0.630994
0.599486
0.602502
0.660989
0.748611
0.80309
0.575365
0.448773
0.467882
0.519692
0.461332
0.676656
0.870811
0.891467
0.88432
0.855339
0.827077
0.820369
0.854782
0.891055
0.912348
0.924733
0.92781
0.927102
0.904132
0.852499
0.821272
0.811357
0.79065
0.781614
0.786897
0.812129
0.852642
0.882477
0.90078
0.90136
0.768482
0.514371
0.490593
0.538879
0.53788
0.765867
0.872796
0.880211
0.866389
0.832236
0.824593
0.835359
0.878095
0.901077
0.914176
0.922961
0.927824
0.929333
0.929317
0.921138
0.911051
0.906366
0.902238
0.904338
0.911064
0.918198
0.919971
0.918378
0.914588
0.90651
0.819496
0.554789
0.509474
0.525813
0.573659
0.783702
0.868139
0.8756
0.859195
0.828649
0.824721
0.856441
0.886117
0.904006
0.91399
0.919453
0.92423
0.928101
0.929772
0.929772
0.929772
0.929773
0.929773
0.929773
0.929773
0.9274
0.92125
0.914461
0.90886
0.900052
0.823203
0.553218
0.497614
0.512176
0.554477
0.785558
0.867047
0.87659
0.865498
0.844275
0.844073
0.863285
0.886228
0.904062
0.913153
0.9165
0.919274
0.924077
0.92806
0.929508
0.929772
0.929772
0.929773
0.929773
0.928907
0.924504
0.917202
0.908109
0.900835
0.891815
0.822331
0.546847
0.4842
0.491049
0.535286
0.78933
0.868998
0.876744
0.87698
0.863557
0.858874
0.861314
0.876102
0.897709
0.911361
0.914788
0.915752
0.91968
0.924584
0.927036
0.928621
0.929383
0.929468
0.928618
0.925441
0.919855
0.911985
0.90232
0.893869
0.884241
0.822415
0.552206
0.472005
0.475958
0.517273
0.789776
0.870767
0.877042
0.876812
0.873907
0.860883
0.853573
0.855064
0.87972
0.905639
0.913918
0.914832
0.917008
0.921285
0.923913
0.925659
0.926769
0.926792
0.925148
0.921216
0.915378
0.90709
0.896355
0.886554
0.875491
0.818685
0.56584
0.468796
0.475948
0.507043
0.760169
0.867554
0.876738
0.87688
0.876499
0.858734
0.840496
0.832435
0.854213
0.893425
0.911536
0.915139
0.916305
0.919072
0.921622
0.922801
0.923412
0.922998
0.920883
0.916845
0.910505
0.901019
0.888457
0.876522
0.863184
0.807199
0.587862
0.468802
0.475939
0.497233
0.671741
0.850601
0.876785
0.876707
0.875088
0.851213
0.823915
0.81218
0.828544
0.876091
0.9054
0.915357
0.917032
0.917952
0.919763
0.920481
0.920259
0.918964
0.916092
0.911388
0.903825
0.892252
0.877293
0.862288
0.845447
0.784631
0.613227
0.47569
0.475932
0.512928
0.600366
0.824526
0.876663
0.876731
0.867381
0.837347
0.806828
0.793669
0.807496
0.857766
0.894673
0.912853
0.917502
0.917583
0.917553
0.917744
0.916592
0.914037
0.910002
0.903917
0.894441
0.880371
0.862452
0.843565
0.821353
0.748954
0.60003
0.515972
0.504592
0.516844
0.606555
0.80781
0.872099
0.873556
0.85224
0.821392
0.79067
0.77517
0.791645
0.842122
0.881737
0.905368
0.915351
0.916569
0.914692
0.91338
0.911382
0.907615
0.902234
0.894348
0.882566
0.865904
0.844607
0.820409
0.78915
0.704292
0.571056
0.506301
0.495855
0.507023
0.645476
0.800811
0.855461
0.854649
0.831521
0.804794
0.774379
0.756995
0.777958
0.830278
0.86958
0.894995
0.908509
0.911809
0.910004
0.90732
0.904221
0.899581
0.892833
0.882825
0.868412
0.848545
0.822684
0.790815
0.74686
0.658548
0.543359
0.486444
0.485921
0.518873
0.658473
0.781168
0.823121
0.820729
0.804258
0.78162
0.754179
0.740406
0.767965
0.820656
0.859004
0.884539
0.899067
0.903532
0.902768
0.899595
0.894982
0.889231
0.880599
0.86776
0.849768
0.824841
0.792058
0.749914
0.694255
0.618585
0.525786
0.478933
0.485733
0.538284
0.648266
0.738043
0.771211
0.773695
0.76481
0.748129
0.728939
0.723836
0.759385
0.811691
0.849133
0.874352
0.888961
0.893838
0.89384
0.889822
0.883129
0.875005
0.8632
0.845804
0.821606
0.78852
0.745862
0.692903
0.630539
0.566433
0.515116
0.489754
0.494318
0.557386
0.61991
0.671048
0.697918
0.707057
0.707571
0.702499
0.696897
0.705863
0.749556
0.801745
0.839027
0.86373
0.877763
0.882472
0.882769
0.877217
0.867397
0.854972
0.837493
0.812766
0.778659
0.734363
0.681336
0.622288
0.562142
0.516161
0.500373
0.500289
0.541718
0.558314
0.574525
0.587986
0.604409
0.618912
0.63178
0.64327
0.655705
0.682442
0.73454
0.78877
0.827367
0.851453
0.864083
0.867973
0.86779
0.859683
0.845271
0.82623
0.800357
0.765611
0.720099
0.665958
0.608555
0.554377
0.510953
0.488598
0.484063
0.490474
0.541528
0.536681
0.513764
0.506801
0.512327
0.525075
0.544921
0.571139
0.60311
0.648513
0.710549
0.770151
0.811946
0.835433
0.845771
0.848434
0.846612
0.834847
0.814239
0.78644
0.750538
0.705143
0.650942
0.594168
0.544645
0.509311
0.488514
0.479132
0.47429
0.474983
0.518473
0.486173
0.466945
0.463214
0.464086
0.470148
0.481228
0.503135
0.54106
0.600505
0.674637
0.743315
0.790117
0.813022
0.820606
0.821908
0.817243
0.800705
0.77225
0.734224
0.688101
0.635136
0.580572
0.534412
0.504723
0.489513
0.481135
0.475816
0.471519
0.468745
0.477135
0.459096
0.459077
0.459101
0.463844
0.467594
0.468691
0.473192
0.4931
0.546232
0.628004
0.70737
0.758363
0.780477
0.785922
0.785886
0.777133
0.754488
0.717312
0.669699
0.61722
0.566037
0.524778
0.499484
0.487482
0.48151
0.4772
0.473706
0.470611
0.468171
0.459534
0.459068
0.459091
0.471601
0.474541
0.476771
0.475137
0.474467
0.478189
0.509584
0.581597
0.660965
0.712514
0.733944
0.738544
0.736712
0.722955
0.693827
0.65011
0.59875
0.550481
0.514541
0.494162
0.48479
0.480055
0.476821
0.474039
0.471665
0.469568
0.468164
0.459066
0.459077
0.479754
0.500245
0.495733
0.494153
0.485871
0.475977
0.471249
0.489953
0.540394
0.604813
0.651541
0.672017
0.676443
0.672528
0.654394
0.621639
0.578588
0.535754
0.504711
0.488488
0.4814
0.477834
0.475334
0.473163
0.47118
0.469584
0.46822
0.468126
0.459072
0.466414
0.511076
0.52591
0.511183
0.498488
0.483309
0.468648
0.459781
0.472389
0.506434
0.547172
0.580703
0.598046
0.602534
0.597979
0.579431
0.550604
0.519372
0.495912
0.483516
0.47784
0.47489
0.473023
0.47147
0.469945
0.468507
0.46749
0.466692
0.467846
0.462209
0.492685
0.509222
0.528563
0.521094
0.492817
0.467597
0.454344
0.451882
0.460809
0.478794
0.49799
0.514023
0.525401
0.529844
0.527819
0.515877
0.499341
0.485701
0.478419
0.47463
0.472064
0.470293
0.46908
0.46806
0.466997
0.465973
0.465383
0.465088
0.467281
0.483585
0.518574
0.518175
0.528591
0.498129
0.461981
0.448166
0.447158
0.45173
0.457892
0.461024
0.465773
0.47124
0.477135
0.480844
0.481775
0.478825
0.474688
0.472066
0.470553
0.469188
0.467779
0.466585
0.465729
0.465034
0.464292
0.463583
0.463293
0.463436
0.466484
0.527266
0.527209
0.495792
0.478487
0.450644
0.441286
0.442436
0.447021
0.450991
0.451748
0.450888
0.452837
0.455873
0.459156
0.461733
0.463574
0.464605
0.465016
0.465177
0.465138
0.464783
0.464122
0.463399
0.462819
0.462344
0.461831
0.461358
0.461276
0.461775
0.465464
0.527876
0.483491
0.44688
0.44117
0.441068
0.44108
0.442306
0.445585
0.446453
0.444965
0.444974
0.447203
0.449849
0.452346
0.454514
0.456454
0.458093
0.459309
0.460144
0.460675
0.460894
0.460796
0.460508
0.460196
0.459913
0.459586
0.459295
0.459368
0.460153
0.464233
0.486929
0.44303
0.442899
0.442892
0.441096
0.441048
0.441587
0.442087
0.4411
0.440562
0.44158
0.443717
0.445857
0.447889
0.449839
0.451727
0.453445
0.454875
0.455993
0.456838
0.457414
0.457711
0.457781
0.457737
0.457648
0.4575
0.457371
0.457574
0.458588
0.462824
0.443007
0.442945
0.444342
0.477976
0.446699
0.440945
0.439776
0.438211
0.437401
0.437902
0.43924
0.441
0.4427
0.444421
0.446192
0.447979
0.449679
0.45119
0.452459
0.453486
0.454278
0.454835
0.45518
0.455376
0.455481
0.455512
0.455543
0.455872
0.45707
0.46127
0.443032
0.474714
0.489144
0.489318
0.456094
0.439054
0.435482
0.434382
0.434733
0.435891
0.437284
0.438739
0.440175
0.441688
0.443293
0.444947
0.446572
0.448078
0.449402
0.450522
0.451439
0.45216
0.452699
0.453091
0.453376
0.453578
0.453768
0.454222
0.455566
0.459593
0.452508
0.518211
0.518028
0.48309
0.441536
0.431513
0.430579
0.431496
0.432877
0.434298
0.435646
0.436927
0.43821
0.439561
0.440995
0.442491
0.443993
0.445429
0.446735
0.44788
0.448858
0.449674
0.450341
0.45088
0.451318
0.451678
0.452018
0.452586
0.454037
0.457806
0.494041
0.51834
0.499447
0.44601
0.426521
0.425409
0.427659
0.430147
0.432033
0.433395
0.434584
0.435665
0.436771
0.437947
0.439196
0.440508
0.44185
0.443165
0.444399
0.445517
0.446505
0.447366
0.448109
0.448749
0.449308
0.449804
0.450281
0.450945
0.452448
0.455909
0.511061
0.503491
0.446619
0.424421
0.424321
0.424304
0.427787
0.430484
0.432353
0.433519
0.434411
0.435134
0.43592
0.436813
0.437835
0.438934
0.440081
0.441238
0.442356
0.443401
0.444358
0.445222
0.446
0.446701
0.447346
0.447954
0.448553
0.449295
0.450793
0.453909
0.499363
0.447086
0.424406
0.424296
0.424253
0.425908
0.432076
0.433175
0.434108
0.43454
0.434941
0.435345
0.435745
0.436218
0.436898
0.437739
0.438656
0.439616
0.440579
0.441514
0.4424
0.443232
0.444009
0.444737
0.445433
0.446124
0.446831
0.447646
0.449097
0.451843
0.46409
0.424466
0.424289
0.424233
0.4244
0.439016
0.453611
0.443562
0.439822
0.4376
0.436594
0.436187
0.436068
0.436197
0.436427
0.436916
0.43756
0.438284
0.439055
0.43984
0.440621
0.441386
0.442132
0.442856
0.443572
0.444311
0.445101
0.445992
0.447391
0.449781
0.435774
0.424349
0.424233
0.424346
0.452024
0.48664
0.501563
0.472256
0.452643
0.443531
0.439621
0.437803
0.436886
0.43647
0.436427
0.43646
0.43678
0.437233
0.437774
0.438375
0.439013
0.439678
0.440362
0.441056
0.441763
0.442512
0.443349
0.44431
0.44568
0.447778
0.426439
0.424265
0.424418
0.46593
0.533553
0.543216
0.533621
0.509877
0.471674
0.451546
0.443545
0.439957
0.438097
0.437056
0.436512
0.436282
0.436277
0.43644
0.436728
0.437113
0.437577
0.438107
0.438697
0.439334
0.440009
0.440737
0.441573
0.442571
0.443935
0.445837
0.426195
0.426307
0.471453
0.568915
0.568757
0.559143
0.532828
0.526182
0.482245
0.457976
0.447149
0.442106
0.439417
0.437827
0.436832
0.436277
0.435983
0.43587
0.435899
0.436051
0.436312
0.436675
0.437138
0.43769
0.438313
0.438998
0.439793
0.440772
0.442116
0.443901
0.426447
0.484558
0.565359
0.56874
0.569005
0.554471
0.5264
0.525582
0.482385
0.461068
0.449576
0.443775
0.44053
0.438556
0.437273
0.436346
0.435808
0.435463
0.435254
0.435174
0.435219
0.435388
0.43569
0.436125
0.436673
0.437306
0.438037
0.438942
0.440209
0.441896
0.447487
0.568565
0.568691
0.56895
0.567242
0.540105
0.507785
0.512835
0.478313
0.460422
0.450175
0.444555
0.441145
0.439003
0.437614
0.436412
0.435665
0.435144
0.434749
0.434469
0.434305
0.434267
0.434375
0.434649
0.435089
0.435657
0.436323
0.437125
0.43824
0.439775
0.487311
0.568593
0.566118
0.568688
0.556828
0.519956
0.48027
0.481989
0.468157
0.457373
0.449356
0.444335
0.441106
0.439015
0.437658
0.436382
0.435487
0.434847
0.434336
0.433922
0.433597
0.433368
0.433262
0.433325
0.433594
0.434057
0.434654
0.435359
0.436277
0.437568
0.513627
0.557095
0.556662
0.566144
0.542797
0.498653
0.461932
0.459668
0.457016
0.452571
0.447436
0.443515
0.440699
0.438784
0.4375
0.436234
0.435269
0.434558
0.433993
0.433523
0.433121
0.432772
0.432487
0.432313
0.43233
0.432595
0.433073
0.433679
0.434405
0.435399
0.510006
0.526898
0.550164
0.557543
0.530965
0.480848
0.455226
0.453004
0.450842
0.448396
0.445147
0.442237
0.439914
0.43827
0.437106
0.435976
0.435042
0.434307
0.43372
0.433245
0.432841
0.432474
0.43212
0.43178
0.431531
0.431496
0.431733
0.432177
0.432715
0.433422
0.509788
0.508365
0.534336
0.551066
0.52008
0.468665
0.449682
0.44975
0.448066
0.445724
0.443189
0.440904
0.439007
0.437629
0.43657
0.435608
0.434775
0.434065
0.433471
0.432991
0.432605
0.432275
0.431957
0.431614
0.431247
0.430935
0.430844
0.431005
0.431306
0.431734
0.52407
0.496185
0.499694
0.529333
0.496367
0.453158
0.446083
0.451823
0.447389
0.444348
0.441795
0.439775
0.438173
0.43699
0.435994
0.435132
0.43439
0.433725
0.433128
0.432617
0.432213
0.431908
0.431662
0.431413
0.431103
0.430727
0.430406
0.430236
0.430231
0.430363
0.537732
0.478995
0.467292
0.486191
0.462884
0.442154
0.445655
0.462912
0.449603
0.444427
0.441005
0.438938
0.437482
0.436416
0.435451
0.434597
0.433864
0.433202
0.432575
0.431992
0.431502
0.431152
0.430931
0.43078
0.430622
0.430387
0.430035
0.429641
0.429373
0.429271
0.529887
0.461723
0.453954
0.460338
0.447893
0.441877
0.453695
0.46315
0.456547
0.445802
0.440699
0.43833
0.436917
0.435923
0.434973
0.434055
0.433225
0.432475
0.431768
0.431108
0.430525
0.430059
0.42975
0.429591
0.429543
0.429509
0.429291
0.42888
0.428507
0.428291
0.498777
0.44946
0.449409
0.451067
0.444166
0.441643
0.462925
0.463354
0.462863
0.449396
0.44077
0.43774
0.43638
0.435482
0.434539
0.433511
0.432531
0.431653
0.430859
0.430131
0.42943
0.428831
0.428414
0.428182
0.428083
0.428071
0.428012
0.427765
0.427431
0.427192
0.470715
0.449422
0.449402
0.450778
0.443094
0.441095
0.460347
0.463279
0.463277
0.451087
0.440333
0.436782
0.435769
0.435093
0.434176
0.433065
0.432019
0.431096
0.430214
0.42928
0.42828
0.427463
0.426988
0.426776
0.426608
0.426473
0.426394
0.426242
0.425976
0.425766
0.457853
0.449414
0.452532
0.452793
0.443265
0.44109
0.450698
0.463785
0.463715
0.450015
0.438287
0.435482
0.435311
0.434974
0.434096
0.432984
0.43203
0.431197
0.430237
0.428857
0.427336
0.426147
0.425609
0.425495
0.425322
0.425061
0.424791
0.424478
0.424093
0.42384
0.449459
0.449432
0.460356
0.456128
0.443027
0.440996
0.444397
0.464203
0.463994
0.445463
0.435499
0.435458
0.435449
0.435386
0.434455
0.433336
0.432578
0.432089
0.43124
0.430002
0.428622
0.427161
0.426036
0.425164
0.424624
0.424183
0.423717
0.42292
0.421958
0.42138
0.449447
0.457072
0.460405
0.457644
0.442621
0.440743
0.445076
0.464341
0.456917
0.437678
0.435481
0.435478
0.436923
0.436525
0.435289
0.434468
0.434807
0.435605
0.435968
0.43735
0.438891
0.437732
0.434289
0.429289
0.426726
0.425113
0.423959
0.422228
0.420067
0.418801
0.451428
0.516006
0.456141
0.456017
0.442408
0.440577
0.444542
0.459293
0.444079
0.437283
0.436945
0.439167
0.439308
0.437921
0.436715
0.43748
0.441522
0.445617
0.451173
0.464217
0.475162
0.476177
0.467575
0.448211
0.439315
0.432377
0.427555
0.423295
0.419258
0.417338
0.521799
0.677535
0.55717
0.457771
0.440841
0.440743
0.442035
0.448195
0.444157
0.441712
0.442866
0.442436
0.440147
0.438889
0.43935
0.444361
0.459021
0.466577
0.481096
0.484731
0.484374
0.48458
0.484336
0.482659
0.46977
0.451059
0.437357
0.427778
0.421682
0.417328
0.654435
0.745506
0.697689
0.586789
0.481117
0.441143
0.467118
0.452066
0.44797
0.448348
0.444827
0.440985
0.440168
0.440536
0.443747
0.457208
0.48243
0.484341
0.484618
0.484375
0.484581
0.484339
0.48188
0.478464
0.469537
0.460641
0.44955
0.436366
0.435836
0.418592
0.687501
0.745479
0.686765
0.647837
0.57315
0.534054
0.543063
0.525148
0.454539
0.450335
0.441847
0.440184
0.440181
0.445029
0.450827
0.475596
0.490586
0.484033
0.484334
0.484581
0.484327
0.475143
0.463556
0.459637
0.459736
0.462614
0.464033
0.452415
0.479196
0.434526
0.644313
0.69956
0.608889
0.580022
0.552073
0.542653
0.556123
0.556487
0.519566
0.445477
0.441397
0.440916
0.446082
0.463125
0.496345
0.517853
0.49588
0.481674
0.484341
0.483354
0.473293
0.458927
0.458787
0.459425
0.476399
0.510451
0.511209
0.491855
0.50515
0.44592
0.561437
0.602745
0.535985
0.506543
0.489543
0.487597
0.497471
0.52765
0.524805
0.484747
0.445656
0.462047
0.502063
0.566016
0.608072
0.580868
0.509538
0.479882
0.478846
0.472084
0.459001
0.458874
0.460306
0.482797
0.540091
0.541041
0.540915
0.52954
0.557213
0.51465
0.490955
0.510973
0.489831
0.478516
0.468508
0.463056
0.463793
0.476567
0.494547
0.501671
0.502916
0.528082
0.590804
0.651531
0.652125
0.600957
0.51138
0.476641
0.470173
0.462553
0.460107
0.46316
0.479498
0.535725
0.541042
0.540923
0.540153
0.560835
0.695083
0.725092
0.472307
0.472275
0.473151
0.506559
0.500722
0.463117
0.457315
0.457247
0.457599
0.4724
0.499308
0.545856
0.609647
0.644602
0.633992
0.580304
0.504891
0.478961
0.472826
0.468338
0.470276
0.479369
0.51364
0.541041
0.540923
0.541088
0.540098
0.66415
0.871263
0.906226
0.472173
0.497185
0.585471
0.648377
0.641275
0.557392
0.457347
0.457284
0.457179
0.457352
0.462032
0.469291
0.507969
0.549615
0.537656
0.524633
0.501062
0.495084
0.492856
0.491781
0.492789
0.499782
0.520964
0.532615
0.532761
0.542974
0.652246
0.87249
0.957779
0.96142
0.544688
0.662637
0.731577
0.739337
0.735373
0.689968
0.55142
0.457299
0.457384
0.558661
0.622697
0.613567
0.602003
0.585194
0.560502
0.492852
0.484127
0.48443
0.488755
0.48869
0.488308
0.488328
0.488152
0.516628
0.598494
0.746063
0.902201
0.968473
0.972573
0.968913
0.665096
0.739342
0.739344
0.739338
0.739338
0.71882
0.643298
0.572092
0.656494
0.814681
0.864236
0.868919
0.861169
0.839239
0.820379
0.740911
0.616584
0.538229
0.510718
0.503794
0.507918
0.535413
0.627118
0.771789
0.892477
0.95746
0.981959
0.98218
0.975351
0.969922
0.583133
0.695712
0.69522
0.712862
0.705427
0.681184
0.64656
0.64083
0.749713
0.880666
0.914915
0.921918
0.9277
0.934024
0.938597
0.932925
0.904889
0.860212
0.817853
0.80516
0.820492
0.869325
0.931861
0.967026
0.981952
0.987778
0.988827
0.985299
0.977594
0.970751
0.437388
0.479978
0.544572
0.615326
0.632106
0.623252
0.602411
0.622361
0.772674
0.891351
0.914874
0.922461
0.930119
0.939046
0.947577
0.954342
0.95924
0.96191
0.962906
0.965617
0.969931
0.97492
0.979076
0.982295
0.985989
0.988988
0.989747
0.987284
0.980412
0.972276
0.436978
0.437018
0.442367
0.484962
0.54388
0.571989
0.573232
0.609551
0.78418
0.894946
0.91207
0.920243
0.929148
0.938586
0.946844
0.953694
0.960279
0.966637
0.972284
0.97649
0.978757
0.979782
0.980605
0.982513
0.985977
0.989233
0.990393
0.988822
0.983057
0.974688
0.436948
0.436918
0.43683
0.437032
0.460575
0.508202
0.546826
0.590957
0.786211
0.896023
0.909524
0.918261
0.927999
0.937284
0.944947
0.951527
0.958368
0.965439
0.971999
0.976801
0.979256
0.980229
0.980868
0.982586
0.986043
0.989538
0.991018
0.99002
0.985159
0.977409
0.461372
0.437042
0.436882
0.436698
0.436808
0.45206
0.50106
0.54271
0.779138
0.89622
0.907569
0.916716
0.926575
0.935212
0.942496
0.949096
0.956241
0.964144
0.971719
0.977118
0.979751
0.980623
0.981016
0.982585
0.986086
0.989842
0.991575
0.991017
0.98687
0.97976
0.557424
0.512186
0.45273
0.436796
0.436609
0.436714
0.461118
0.502881
0.778602
0.8966