/*--------------------------------*- C++ -*----------------------------------*\
| =========                 |                                                 |
| \\      /  F ield         | OpenFOAM: The Open Source CFD Toolbox           |
|  \\    /   O peration     | Version:  v1606+                                |
|   \\  /    A nd           | Web:      www.OpenFOAM.com                      |
|    \\/     M anipulation  |                                                 |
\*---------------------------------------------------------------------------*/
FoamFile
{
    version     2.0;
    format      ascii;
    class       volScalarField;
    location    "1.5";
    object      dgdt;
}
// * * * * * * * * * * * * * * * * * * * * * * * * * * * * * * * * * * * * * //

dimensions      [0 0 -1 0 0 0 0];

internalField   nonuniform List<scalar> 
6000
(
-19.0773
-19.3104
-19.3382
-19.2898
-19.195
-19.1086
-19.0166
-18.0827
-16.8826
-16.1494
-15.614
-15.6913
-15.9196
-15.9921
-15.9411
-15.4855
-15.704
-16.3374
-17.3087
-18.3871
-19.366
-19.587
-19.6485
-19.7473
-19.8383
-19.8461
-19.8175
-19.7991
-19.729
-19.7248
-2.59009
-2.51757
-2.38955
-2.30427
-2.21918
-2.17045
-2.19577
-2.18563
-2.07091
-2.04481
-2.10112
-2.17636
-2.2269
-2.25057
-2.27334
-2.33335
-2.17691
-2.02593
-1.98884
-2.00865
-1.95299
-1.92928
-1.99719
-2.09595
-2.16564
-2.17646
-2.16118
-2.1883
-2.2594
-2.50104
-0.149274
-0.182418
-0.176165
-0.18046
-0.18653
-0.20042
-0.244486
-0.364155
-0.498691
-0.426262
-0.39665
-0.442699
-0.474408
-0.49316
-0.488907
-0.463634
-0.416142
-0.410196
-0.407433
-0.300104
-0.205987
-0.158433
-0.150735
-0.153904
-0.149085
-0.139223
-0.130276
-0.124748
-0.116313
-0.129498
-0.0234304
-0.0280968
-0.0281436
-0.0321036
-0.0379611
-0.0445638
-0.0577583
-0.136119
-0.322483
-0.243644
-0.151761
-0.131326
-0.182061
-0.202111
-0.183978
-0.169128
-0.190298
-0.21385
-0.175626
-0.0859806
-0.0432969
-0.0307111
-0.0340106
-0.0347512
-0.0307306
-0.0256052
-0.0218009
-0.0198901
-0.0190766
-0.0202268
-0.012668
-0.0150687
-0.0161899
-0.0172891
-0.0209797
-0.0260697
-0.0312976
-0.0537859
-0.190744
-0.237443
-0.0987911
-0.0116023
-0.0558196
-0.0894671
-0.0926979
-0.109134
-0.164667
-0.17532
-0.117271
-0.0504834
-0.0277635
-0.0221306
-0.0273115
-0.0248661
-0.0207488
-0.0166263
-0.0138009
-0.0128521
-0.0133665
-0.0130785
-0.0103756
-0.0117774
-0.0133899
-0.0147399
-0.0169362
-0.0203623
-0.0243884
-0.0295844
-0.0717462
-0.192553
-0.10194
-0.00357539
0.0175151
-0.023275
-0.0496004
-0.0805925
-0.147084
-0.16365
-0.140782
-0.0470058
-0.0310982
-0.0271924
-0.037872
-0.0304445
-0.022065
-0.0167613
-0.0134246
-0.0121409
-0.0129608
-0.0119541
-0.00982405
-0.0109373
-0.0124272
-0.0141455
-0.0173633
-0.0227654
-0.0271785
-0.0295236
-0.039099
-0.0994176
-0.109669
-0.0433204
-0.0014631
-0.0202836
-0.0404893
-0.0584447
-0.098611
-0.127871
-0.129083
-0.0528578
-0.0384664
-0.0392395
-0.0528763
-0.0409104
-0.0267692
-0.0189484
-0.0147932
-0.0128703
-0.0134223
-0.0113498
-0.0105108
-0.0117757
-0.0132437
-0.0156643
-0.020387
-0.0287968
-0.038904
-0.0404601
-0.0307846
-0.049318
-0.0865543
-0.0822029
-0.07925
-0.0682118
-0.0606104
-0.05852
-0.0670127
-0.0816036
-0.0846832
-0.0631443
-0.0292493
-0.0275497
-0.0397559
-0.0384616
-0.0266685
-0.0181962
-0.0140163
-0.0126769
-0.0122703
-0.00952049
-0.0115992
-0.0128917
-0.0140063
-0.017183
-0.0236501
-0.0346055
-0.0437474
-0.0337084
-0.00665118
-0.0223883
-0.0770482
-0.10158
-0.0988944
-0.0753886
-0.0551728
-0.046237
-0.0447266
-0.0493898
-0.0517122
-0.0452823
-0.0173077
-0.00308172
-0.0101379
-0.0174518
-0.0179795
-0.013925
-0.011562
-0.0109253
-0.00926935
-0.00704399
-0.0118543
-0.0132853
-0.0127766
-0.0165049
-0.0241552
-0.0306269
-0.0243195
0.00371022
0.00611245
-0.0353645
-0.0643934
-0.0682479
-0.0518958
-0.0306417
-0.017743
-0.0146643
-0.0142993
-0.0164557
-0.0207114
-0.0222683
-0.00797961
0.00079619
-0.000464286
-0.00331148
-0.00662056
-0.00770138
-0.00794483
-0.00825409
-0.00598272
-0.0050621
-0.00985167
-0.0114581
-0.0099131
-0.0129626
-0.0178835
-0.0141539
-0.00243803
0.00715885
-0.0130645
-0.0281606
-0.0238903
-0.0198255
-0.0150127
-0.00881434
-0.00641155
-0.00554389
-0.00526102
-0.0059219
-0.0080473
-0.0107691
-0.009429
-0.00455828
-0.001421
-0.00117816
-0.00178394
-0.00268456
-0.00429545
-0.00510451
-0.00402064
-0.00347023
-0.00612713
-0.00699351
-0.00554193
-0.0063832
-0.00610797
-0.00143425
-0.000303801
-0.0120399
-0.0239518
-0.0167843
-0.0104182
-0.00989285
-0.00873467
-0.00658691
-0.00516471
-0.00442395
-0.00417596
-0.00446309
-0.00542644
-0.00677537
-0.00754797
-0.00664197
-0.0039753
-0.00189148
-0.00138853
-0.00115252
-0.00244494
-0.00357053
-0.00339487
-0.00201185
-0.00312828
-0.0032984
-0.00131538
-0.000293543
0.000564348
0.00187607
-0.00508927
-0.0165328
-0.0208946
-0.00987365
-0.00954332
-0.0096837
-0.0087325
-0.00705829
-0.00549308
-0.00445416
-0.00406498
-0.00414529
-0.00458542
-0.0052869
-0.00590882
-0.00618268
-0.00525468
-0.00332011
-0.00264659
-0.00217202
-0.00265517
-0.00327242
-0.00338102
-0.001979
-0.00148536
-0.00109068
0.000351636
0.00141366
0.00302745
-4.26435e-05
-0.00841934
-0.0165531
-0.0155551
-0.0106776
-0.011099
-0.0105575
-0.00921142
-0.00756972
-0.00603035
-0.00476255
-0.00406754
-0.0038304
-0.00390325
-0.00436356
-0.00485859
-0.00518503
-0.00504751
-0.00457079
-0.0041396
-0.00317314
-0.00319344
-0.00345393
-0.00360994
-0.00243836
-0.000761465
-0.000550282
-0.000913831
-0.000912214
0.00177848
-0.00403693
-0.0113479
-0.0152729
-0.0121314
-0.0110389
-0.0113101
-0.0103172
-0.00923565
-0.00837915
-0.00744732
-0.00608154
-0.00460837
-0.00371498
-0.0035008
-0.0040572
-0.00483821
-0.0051653
-0.00507141
-0.00571576
-0.00626258
-0.00513863
-0.00434778
-0.00419117
-0.00409426
-0.00275067
-0.000704479
-0.000882331
-0.00186383
-0.00426907
-0.00487075
-0.00744059
-0.0117851
-0.0131756
-0.0108598
-0.010675
-0.00976021
-0.00876912
-0.00853736
-0.00904602
-0.00945572
-0.00858582
-0.0065885
-0.00496481
-0.00447662
-0.00524021
-0.00654355
-0.0069421
-0.00669949
-0.00821911
-0.00991714
-0.00818277
-0.0064539
-0.00545127
-0.0046656
-0.00348621
-0.00125738
-0.00150582
-0.00284402
-0.00731776
-0.0123008
-0.0114028
-0.0142209
-0.0128674
-0.0119008
-0.0115328
-0.00853458
-0.00728558
-0.00754661
-0.00902745
-0.0105519
-0.0113263
-0.0107299
-0.00901926
-0.00823984
-0.00921559
-0.011077
-0.0114486
-0.011648
-0.014679
-0.014865
-0.0119873
-0.00927144
-0.00694693
-0.00522724
-0.00371444
-0.00282902
-0.00289675
-0.0044303
-0.00845916
-0.016854
-0.0208099
-0.0225975
-0.020218
-0.0184482
-0.0175324
-0.0104006
-0.00771514
-0.00734667
-0.0089902
-0.0109579
-0.0132307
-0.0147593
-0.0154205
-0.0148769
-0.0152228
-0.0182394
-0.0194568
-0.0210594
-0.0236956
-0.0200193
-0.0162368
-0.0131379
-0.00848002
-0.00543292
-0.00368716
-0.00591812
-0.00572298
-0.0076347
-0.0116398
-0.0276141
-0.04354
-0.0427952
-0.0401371
-0.0387294
-0.0342219
-0.0182346
-0.0115194
-0.00884216
-0.00979402
-0.0110513
-0.0133049
-0.0151455
-0.0164394
-0.0166109
-0.0182664
-0.0246028
-0.0296132
-0.0345404
-0.0338059
-0.0241611
-0.0167579
-0.0108125
-0.00572671
-0.00485233
-0.00504666
-0.00980664
-0.00947655
-0.0110631
-0.0187258
-0.0407591
-0.0711258
-0.0698371
-0.0685778
-0.0687586
-0.0496011
-0.0262267
-0.014612
-0.0107818
-0.0100469
-0.0100394
-0.0118928
-0.0133395
-0.0136513
-0.0133228
-0.0156962
-0.0250212
-0.0380747
-0.0417422
-0.0325621
-0.0250087
-0.0150192
-0.0121102
-0.00880776
-0.00491256
-0.00689702
-0.0112769
-0.0109994
-0.00955658
-0.0152397
-0.0306454
-0.0549233
-0.0647391
-0.0656565
-0.0624583
-0.0391038
-0.0220041
-0.0171189
-0.0151613
-0.00940956
-0.00786305
-0.00909765
-0.0115078
-0.0110671
-0.0104861
-0.0145334
-0.0235671
-0.0313393
-0.0255539
-0.0177565
-0.0124103
-0.010051
-0.00938723
-0.00995191
-0.00881517
-0.00772596
-0.0056623
-0.00558403
-0.00665026
-0.00764332
-0.0102251
-0.0193959
-0.0290473
-0.0310704
-0.0264733
-0.0151322
-0.00935264
-0.00909203
-0.0118416
-0.0130727
-0.0116607
-0.0109155
-0.0132785
-0.00776492
-0.0109763
-0.0162638
-0.0181786
-0.0147939
-0.0111269
-0.00900479
-0.00717041
-0.00651714
-0.00694331
-0.00616178
-0.00649431
-0.00559272
-0.00437981
-0.00471256
-0.00569243
-0.00614782
-0.00605924
-0.00712826
-0.00939936
-0.00987228
-0.00862641
-0.00689668
-0.00683089
-0.00781154
-0.01042
-0.0135854
-0.014332
-0.0156767
-0.0172212
-0.0134336
-0.0142457
-0.0142425
-0.00862723
-0.00820858
-0.00785301
-0.00737823
-0.00682072
-0.00567005
-0.00596287
-0.00560222
-0.00521442
-0.00489619
-0.00507091
-0.00530726
-0.00554044
-0.00589409
-0.00602743
-0.00593329
-0.00597957
-0.00582412
-0.00589789
-0.00618076
-0.00728774
-0.00951687
-0.0125949
-0.0137474
-0.0126468
-0.0119527
-0.0127007
-0.0159075
-0.0130593
-0.00814736
-0.00744011
-0.00816466
-0.00794941
-0.0075313
-0.00706906
-0.0063659
-0.00588399
-0.00535039
-0.00509621
-0.00498732
-0.00504039
-0.00540425
-0.00544833
-0.00762747
-0.00628444
-0.00616837
-0.00613271
-0.00622417
-0.00653573
-0.00727636
-0.00899866
-0.0121995
-0.0148829
-0.0149032
-0.0122483
-0.00967856
-0.00901532
-0.0128326
-0.0122547
-0.0105171
-0.00977324
-0.00901504
-0.00863066
-0.00817803
-0.00763891
-0.00751191
-0.00641642
-0.0057067
-0.00532129
-0.00517287
-0.00503424
-0.00549837
-0.00526905
-0.00370277
-0.00622544
-0.00642191
-0.00684315
-0.00732402
-0.00788795
-0.00888701
-0.0111991
-0.0146792
-0.0169
-0.0156627
-0.011968
-0.00896418
-0.007923
-0.0128172
-0.0131619
-0.0121632
-0.0104797
-0.00959047
-0.00924329
-0.00888755
-0.00845306
-0.00812865
-0.00733831
-0.0066121
-0.00615462
-0.00593182
-0.00503515
-0.00556966
-0.00528926
-0.00549733
-0.00600644
-0.00639843
-0.00700122
-0.0077285
-0.00861921
-0.0100389
-0.0129973
-0.0170776
-0.0186905
-0.0151536
-0.0105907
-0.0083278
-0.00767772
-0.0120358
-0.0133598
-0.0125898
-0.0110762
-0.0101505
-0.00992414
-0.00980691
-0.00968276
-0.00950337
-0.00893484
-0.00810569
-0.00740084
-0.00710296
-0.00512141
-0.00562166
-0.00550255
-0.00557097
-0.00602127
-0.00649648
-0.0070183
-0.00774219
-0.00880796
-0.0106813
-0.014462
-0.0189559
-0.0187389
-0.0128265
-0.00862856
-0.00768912
-0.00757644
-0.0097313
-0.0137337
-0.0129261
-0.0117434
-0.0107038
-0.0105408
-0.0106556
-0.0107826
-0.0108208
-0.0105419
-0.00978741
-0.00888458
-0.0083682
-0.00524315
-0.00588856
-0.00601684
-0.00609863
-0.00636571
-0.00676569
-0.00734766
-0.00815584
-0.00927762
-0.0114207
-0.0157934
-0.0193371
-0.0163758
-0.00985985
-0.00732796
-0.00736688
-0.0076129
-0.00804298
-0.0126811
-0.0127875
-0.0121071
-0.0111364
-0.0109504
-0.0111885
-0.0114862
-0.0116764
-0.0116154
-0.0110042
-0.00999635
-0.00921875
-0.00546069
-0.00629335
-0.00660346
-0.00667873
-0.00679355
-0.00707296
-0.00767162
-0.00852215
-0.00974198
-0.0121106
-0.0163243
-0.0177884
-0.0127963
-0.00774436
-0.00691605
-0.00729216
-0.00762627
-0.00746197
-0.0101384
-0.0127839
-0.012007
-0.0113866
-0.0111314
-0.0113543
-0.011714
-0.011932
-0.0119093
-0.0113221
-0.0102238
-0.00904224
-0.00566634
-0.0066891
-0.00708183
-0.00711537
-0.00710034
-0.00725464
-0.00777741
-0.00862985
-0.0099801
-0.0125438
-0.0157634
-0.0151566
-0.0094561
-0.00685766
-0.0069983
-0.00746263
-0.00775267
-0.00776288
-0.00903669
-0.0130533
-0.0118888
-0.0115975
-0.0112067
-0.0112646
-0.0115446
-0.0116751
-0.0115879
-0.0110058
-0.00997953
-0.00816177
-0.00579082
-0.00698675
-0.00737508
-0.00735556
-0.00722997
-0.00729549
-0.00775252
-0.00863583
-0.0101147
-0.0124676
-0.0139291
-0.0121117
-0.00736343
-0.00663751
-0.0074413
-0.00819666
-0.00855731
-0.00868197
-0.00926485
-0.0124024
-0.0118657
-0.0114946
-0.0112027
-0.01107
-0.0111299
-0.011099
-0.0109257
-0.0104075
-0.00966298
-0.00730586
-0.00578684
-0.0070718
-0.00736235
-0.00727104
-0.00711996
-0.0072399
-0.00777513
-0.00878033
-0.0102374
-0.0117444
-0.0119559
-0.00989822
-0.00663461
-0.00687927
-0.00826751
-0.00952859
-0.0101574
-0.0101739
-0.0103612
-0.0124798
-0.0132453
-0.0112372
-0.0109958
-0.0107245
-0.0105386
-0.0103475
-0.0101022
-0.00957577
-0.00901659
-0.0066213
-0.00560808
-0.0068365
-0.00694169
-0.00676519
-0.00668618
-0.00705053
-0.00781806
-0.00893682
-0.0101682
-0.0108281
-0.0113005
-0.00951062
-0.00718293
-0.00801514
-0.00956857
-0.0111036
-0.0118776
-0.0116797
-0.0112286
-0.0125855
-0.0140511
-0.0112724
-0.0105414
-0.0101113
-0.00977026
-0.00949679
-0.0092079
-0.00872211
-0.00845816
-0.006223
-0.00528576
-0.00621395
-0.00604879
-0.00583449
-0.00592614
-0.00642952
-0.00729545
-0.00834237
-0.00929995
-0.00992684
-0.0110981
-0.0108192
-0.00947425
-0.00992398
-0.011236
-0.0125552
-0.0128771
-0.011554
-0.0109384
-0.0118593
-0.0134539
-0.0121053
-0.0103211
-0.00940331
-0.00881757
-0.00849204
-0.00818647
-0.00783958
-0.00766401
-0.00601981
-0.00490392
-0.00518173
-0.00485673
-0.004842
-0.00526473
-0.00580976
-0.0065202
-0.00743434
-0.00840159
-0.00941043
-0.0109567
-0.0128747
-0.0118682
-0.0118791
-0.0128688
-0.0136854
-0.0126716
-0.0110472
-0.0106058
-0.0105747
-0.0122653
-0.0122428
-0.0100656
-0.00859737
-0.00772435
-0.00733375
-0.00703116
-0.00677958
-0.00595909
-0.00591743
-0.00451607
-0.00410959
-0.00409145
-0.00464312
-0.00537343
-0.00568857
-0.00603227
-0.00692822
-0.00788395
-0.00893354
-0.0113044
-0.013704
-0.0134488
-0.0133001
-0.0140705
-0.0141992
-0.0120532
-0.0101691
-0.00951559
-0.00894592
-0.00944655
-0.00978557
-0.00912758
-0.00775646
-0.00668705
-0.00612676
-0.00581586
-0.0057042
-0.00511897
-0.00616306
-0.00426008
-0.0035868
-0.00414093
-0.00516201
-0.00615507
-0.00617405
-0.00616457
-0.00745208
-0.0075777
-0.00816974
-0.0103429
-0.0132851
-0.0151613
-0.0139826
-0.0144585
-0.0142994
-0.0110852
-0.00866526
-0.00814688
-0.00730034
-0.00677837
-0.0070034
-0.00763992
-0.00710727
-0.00590456
-0.00514182
-0.0046644
-0.00491728
-0.00591777
-0.00621956
-0.0040986
-0.00348665
-0.00440206
-0.00564237
-0.00769768
-0.00696461
-0.00636188
-0.00800557
-0.0065236
-0.00690103
-0.00857247
-0.0117568
-0.0153656
-0.0154222
-0.0148256
-0.0150872
-0.0104547
-0.00735624
-0.00656851
-0.0058555
-0.00537237
-0.00573955
-0.00677595
-0.00680119
-0.00485783
-0.00340488
-0.00290931
-0.00411645
-0.00521417
-0.00618617
-0.00390917
-0.00329901
-0.00434206
-0.00589736
-0.00769952
-0.00868838
-0.00894017
-0.00758239
-0.00673331
-0.0050412
-0.00682385
-0.00981904
-0.0138625
-0.0172943
-0.0177676
-0.0213695
-0.0144752
-0.0092645
-0.00785938
-0.00675234
-0.00659182
-0.00689895
-0.00813386
-0.00837465
-0.00564228
-0.00182537
-0.000697765
-0.00399045
-0.00458274
-0.00559434
-0.00342267
-0.003123
-0.00389586
-0.00496812
-0.00509345
-0.00404429
-0.00507206
-0.00580871
-0.00749958
-0.00431062
-0.00587131
-0.0079905
-0.0126704
-0.0162436
-0.0256738
-0.0394112
-0.0333937
-0.0244913
-0.0207348
-0.0182016
-0.0161885
-0.0158522
-0.0161232
-0.0155381
-0.00964072
-0.000755728
0.00474216
0.000233286
-0.00329635
-0.00449698
-0.0032468
-0.00283937
-0.00296808
-0.00412494
-0.00258382
-0.00216338
-0.00223123
-0.00303351
-0.00310872
-0.00571739
-0.00702377
-0.00728659
-0.00693369
-0.00985106
-0.0209661
-0.0449747
-0.0572171
-0.0508345
-0.0467155
-0.0444815
-0.0431929
-0.0405248
-0.0350548
-0.0238882
-0.0135114
-0.00631177
-0.00125021
0.00499318
-0.00115572
-0.00254877
-0.00258656
-0.0019688
-0.00401276
-0.00303207
-0.00201063
-0.00214413
-0.00230118
-0.00284259
-0.00298708
-0.00424245
-0.00406701
-0.00320513
-0.00235434
-0.00269432
-0.00520907
-0.0165036
-0.0356857
-0.041925
-0.0424489
-0.0436808
-0.0427004
-0.0364482
-0.026959
-0.0160232
-0.00804366
-0.00545399
-0.00452893
-0.00141108
0.00101764
0.00237309
-0.00214403
-0.00310543
-0.00347295
-0.00237603
-0.00236013
-0.00254749
-0.00288526
-0.00325335
-0.00327687
-0.00272705
-0.00207567
-0.00179806
-0.00170303
-0.00176036
-0.00192047
-0.00337034
-0.00843732
-0.013692
-0.0159568
-0.0171414
-0.0142826
-0.0115402
-0.00689599
-0.00377319
-0.00260138
-0.00233499
-0.00230982
-0.00315741
0.00166655
0.00250384
-0.00198202
-0.00215595
-0.00308054
-0.00247059
-0.00257712
-0.00288034
-0.00326879
-0.00334861
-0.00278908
-0.00214569
-0.00186911
-0.00178987
-0.00178953
-0.00181045
-0.00183889
-0.00186964
-0.00231855
-0.00303352
-0.00349179
-0.00341328
-0.00309272
-0.00239353
-0.00188005
-0.00169256
-0.00172308
-0.00186959
-0.00197297
-0.00243863
0.00037253
0.00101305
-0.00239748
-0.00204641
-0.00291599
-0.00249039
-0.00293128
-0.00284228
-0.00319896
-0.00285543
-0.00231846
-0.00195551
-0.00182744
-0.00182067
-0.0018826
-0.00189812
-0.00188255
-0.0018557
-0.00182595
-0.00180923
-0.00180964
-0.00175681
-0.0016775
-0.00159449
-0.00158138
-0.00169191
-0.00181717
-0.00193245
-0.001991
-0.00240338
-0.00187546
-0.00150609
-0.00282007
-0.00264002
-0.00273582
-0.00253522
-0.00378306
-0.000383072
-0.00277803
-0.00239097
-0.00216093
-0.00191009
-0.00177719
-0.00180946
-0.00192415
-0.00199972
-0.0019694
-0.0019126
-0.00188633
-0.00186571
-0.00184773
-0.00180493
-0.00175054
-0.00171092
-0.00173904
-0.00181619
-0.00193197
-0.00199729
-0.00201504
-0.00234811
-0.00288791
-0.00303545
-0.0034152
-0.00286043
-0.00265199
-0.00236656
0.00293405
-0.00537401
-0.00230541
-0.00226106
-0.00216111
-0.00200739
-0.00183312
-0.00181594
-0.00194591
-0.00206986
-0.00207414
-0.0020079
-0.00196412
-0.00191685
-0.00188144
-0.00184465
-0.00181308
-0.00182004
-0.00185224
-0.00190868
-0.00198026
-0.0020209
-0.00202122
-0.00229684
-0.00328726
-0.00431225
-0.00399392
-0.00284422
-0.00224281
-0.00156401
-0.00743763
0.0033202
-0.00223679
-0.00221174
-0.00224703
-0.00227362
-0.0020935
-0.00191346
-0.00196684
-0.00209833
-0.00214519
-0.00209665
-0.00205161
-0.00199896
-0.00194536
-0.00190404
-0.00188621
-0.00189815
-0.00191948
-0.00195913
-0.00201865
-0.0020514
-0.00205851
-0.00229885
-0.00307752
-0.00489899
-0.00368006
-0.00254447
-0.00243595
-0.00228892
0.000245034
-0.00560395
-0.00205007
-0.00223165
-0.0024175
-0.00256612
-0.00247306
-0.00215124
-0.00203634
-0.0021131
-0.00217999
-0.00216271
-0.00211485
-0.00207555
-0.00202867
-0.0019881
-0.00196832
-0.00196594
-0.00198223
-0.00202479
-0.0020902
-0.0021298
-0.00214863
-0.00237473
-0.00281722
-0.0043255
-0.00321722
-0.00231068
-0.00253078
-0.00221496
-0.00450894
-0.00252481
-0.00215964
-0.00236629
-0.00262352
-0.00281992
-0.00283522
-0.00248183
-0.00219604
-0.00213758
-0.00219167
-0.00220888
-0.00216312
-0.00212649
-0.00209313
-0.00206438
-0.00205016
-0.00204989
-0.00207707
-0.00213853
-0.00221691
-0.00227343
-0.00230734
-0.0024706
-0.00230921
-0.0020055
-0.00134823
-0.00163293
-0.00235982
-0.00251887
0.00020537
-0.00485608
-0.00214646
-0.0025466
-0.00284618
-0.00304422
-0.00312206
-0.00281645
-0.00246428
-0.00223508
-0.00221451
-0.00224465
-0.00223
-0.00218768
-0.00216339
-0.00215214
-0.00215189
-0.00216845
-0.00221688
-0.00230044
-0.00239889
-0.00247951
-0.00253462
-0.00265229
-0.00208812
-0.00101088
-0.00120829
-0.00171315
-0.00181538
-0.00172091
-0.00183635
-0.00235248
-0.00252943
-0.00280516
-0.00308957
-0.00328421
-0.00336302
-0.00310124
-0.00279365
-0.00248735
-0.00232298
-0.00230892
-0.00233158
-0.00230559
-0.00227627
-0.00226975
-0.00227641
-0.00231035
-0.00238067
-0.0024811
-0.00259824
-0.00270666
-0.00278962
-0.00281095
-0.00219508
-0.00184397
-0.00261929
-0.00333777
-0.00471787
-0.00382529
-0.0027969
-0.00270983
-0.00291754
-0.00310618
-0.0033637
-0.00356702
-0.00367132
-0.00337376
-0.00315259
-0.00286098
-0.00261673
-0.00251909
-0.0025107
-0.00248827
-0.00244083
-0.00240602
-0.00239539
-0.00244418
-0.00254088
-0.0026713
-0.00280964
-0.00294121
-0.00306712
-0.00292518
-0.00210254
-0.00172347
-0.00282989
-0.00412941
-0.00586078
-0.0062136
-0.00404544
-0.00348843
-0.00338568
-0.00345986
-0.00366917
-0.00385764
-0.0040089
-0.00368536
-0.00352708
-0.00326922
-0.00302598
-0.00287949
-0.00279749
-0.00273035
-0.00265177
-0.00255478
-0.00248542
-0.00257732
-0.00273742
-0.00290757
-0.00307392
-0.00325889
-0.00337596
-0.00300287
-0.00189302
-0.000936691
-0.00234345
-0.00393947
-0.00563329
-0.00574972
-0.00460793
-0.00407851
-0.00385578
-0.00389011
-0.00400451
-0.00413424
-0.00428123
-0.00392971
-0.00389503
-0.00366978
-0.00344815
-0.00328141
-0.00314175
-0.00303113
-0.00292882
-0.00273724
-0.00244464
-0.00276288
-0.00307252
-0.0033167
-0.0035777
-0.00380602
-0.00382042
-0.00325394
-0.00199126
-0.000698441
-0.00210361
-0.00380436
-0.00552844
-0.00599161
-0.00528897
-0.00476923
-0.00450111
-0.00442959
-0.00441119
-0.00448451
-0.00462927
-0.00453753
-0.00434479
-0.00413086
-0.00391686
-0.0037322
-0.00353141
-0.00337854
-0.00334655
-0.00308573
-0.00172021
-0.00315152
-0.00377725
-0.00419451
-0.00454657
-0.00469794
-0.00439724
-0.00351335
-0.00235941
-0.0019512
-0.00161344
-0.00341341
-0.0050292
-0.00597088
-0.00596355
-0.00565517
-0.00532665
-0.00503955
-0.00483124
-0.00484125
-0.00500203
-0.00520008
-0.00489655
-0.00470997
-0.00451783
-0.00432951
-0.00402332
-0.00371093
-0.00416427
-0.0046938
-0.00517487
-0.00524617
-0.0055189
-0.00586312
-0.00604698
-0.00578644
-0.00484592
-0.00356587
-0.00248024
-0.00182208
-0.00106438
-0.00236927
-0.00401999
-0.0054694
-0.00638991
-0.00667277
-0.00639549
-0.00583072
-0.00532479
-0.00520784
-0.00539223
-0.00559928
-0.00548836
-0.00545424
-0.0053928
-0.00527456
-0.00482316
-0.00325717
-0.00534751
-0.00706298
-0.0105794
-0.00870939
-0.00828324
-0.00815142
-0.00770172
-0.00664895
-0.00516428
-0.00371611
-0.00258844
-0.00209198
-0.000612296
-0.00130553
-0.00247276
-0.00439673
-0.00627416
-0.00721291
-0.00722473
-0.00687426
-0.00629486
-0.00593535
-0.00607164
-0.00628611
-0.00613026
-0.00621756
-0.00644834
-0.00670223
-0.00707649
-0.00769976
-0.00803591
-0.0091765
-0.0110362
-0.0111397
-0.0109002
-0.0101534
-0.00880892
-0.00715075
-0.00546118
-0.00398178
-0.00283655
-0.00219506
0.00045247
-0.0002052
-0.00115872
-0.00320558
-0.00564238
-0.00740348
-0.00822556
-0.00807859
-0.00721232
-0.00701058
-0.00720177
-0.00731184
-0.00710784
-0.00709113
-0.00753948
-0.00828169
-0.00989222
-0.0139818
-0.0120604
-0.0122867
-0.0132927
-0.0135394
-0.0128189
-0.0112221
-0.00928093
-0.00738239
-0.00567881
-0.00427908
-0.00315459
-0.00233994
0.0018218
0.00122973
0.000619447
-0.00242961
-0.00574474
-0.00839311
-0.00986237
-0.00988976
-0.00805049
-0.00733558
-0.00824327
-0.00872347
-0.00871311
-0.00872685
-0.00925824
-0.0102737
-0.0119555
-0.0144741
-0.0150154
-0.0155389
-0.0159048
-0.0152615
-0.0136523
-0.0115448
-0.00940416
-0.00748131
-0.00586039
-0.00455321
-0.00346962
-0.0025408
0.00338614
0.00277571
0.000650148
-0.00362427
-0.00630579
-0.00903859
-0.0109474
-0.0118403
-0.00968337
-0.0065997
-0.00781687
-0.00986416
-0.0105248
-0.0109155
-0.0117589
-0.0131773
-0.0150465
-0.0171467
-0.0181973
-0.0183981
-0.0176
-0.0159356
-0.0137916
-0.0115327
-0.00941837
-0.00757977
-0.00605058
-0.00482449
-0.00378783
-0.00284305
0.00473038
0.00200756
-0.00128579
-0.00443856
-0.00669479
-0.00856249
-0.0102818
-0.0118793
-0.0121003
-0.00857383
-0.00722933
-0.0100266
-0.0120311
-0.0132322
-0.0146913
-0.016731
-0.0188463
-0.0205132
-0.0209332
-0.0200578
-0.0182735
-0.0160272
-0.0136788
-0.0114616
-0.00946242
-0.00772216
-0.00627031
-0.00510906
-0.00411541
-0.00320813
0.00421641
-0.00125521
-0.00459953
-0.00658901
-0.00608079
-0.00717151
-0.00933106
-0.0118034
-0.0151211
-0.0158057
-0.01274
-0.0121815
-0.0142089
-0.0161675
-0.018158
-0.0205182
-0.022307
-0.0230182
-0.0223406
-0.0206118
-0.0183402
-0.0158764
-0.0135413
-0.0114288
-0.0095428
-0.00789318
-0.00650828
-0.00540045
-0.00445048
-0.00361148
0.000967501
-0.00435757
-0.00568305
-0.00646422
-0.00819042
-0.00942805
-0.0115296
-0.0148995
-0.0188715
-0.0226773
-0.0227144
-0.0202801
-0.0198144
-0.0206945
-0.0220145
-0.023654
-0.0244396
-0.0239845
-0.0224882
-0.0203847
-0.0179876
-0.0156014
-0.0133786
-0.0113798
-0.00960127
-0.0080414
-0.00672435
-0.00566804
-0.00476936
-0.00401626
-0.000755649
-0.00419108
-0.00892615
-0.0140922
-0.0158894
-0.0170083
-0.0184392
-0.0206529
-0.0236453
-0.0266472
-0.0280969
-0.0275286
-0.0265383
-0.0259817
-0.0256808
-0.0255415
-0.0249339
-0.0236085
-0.0217365
-0.0195968
-0.0173683
-0.0151692
-0.0131048
-0.0112334
-0.00956979
-0.00810808
-0.00686817
-0.0058693
-0.00503237
-0.00437412
-0.004195
-0.00861896
-0.0193062
-0.030879
-0.0277448
-0.0250172
-0.0247899
-0.0259491
-0.0276863
-0.0292243
-0.0301076
-0.0299044
-0.0290746
-0.0281266
-0.0270514
-0.0258387
-0.0243355
-0.022555
-0.020623
-0.0186125
-0.0165753
-0.0145705
-0.0126753
-0.0109496
-0.00941009
-0.0080556
-0.00690225
-0.00596885
-0.00520253
-0.00463675
-0.0138633
-0.0217293
-0.0320788
-0.0401587
-0.033473
-0.0293148
-0.0286378
-0.0293317
-0.0303566
-0.0310521
-0.0312494
-0.0308195
-0.0298336
-0.028538
-0.0270006
-0.0252831
-0.0234259
-0.0214908
-0.0195417
-0.0176059
-0.0157012
-0.0138585
-0.0121246
-0.0105391
-0.00912392
-0.00787859
-0.0068146
-0.00595014
-0.00525759
-0.00477066
-0.0241686
-0.0276164
-0.0363141
-0.0339833
-0.0298207
-0.028851
-0.0298533
-0.0312935
-0.0322777
-0.0326011
-0.0323084
-0.0315326
-0.0302792
-0.0286722
-0.026799
-0.0247625
-0.0226622
-0.0205815
-0.018573
-0.016655
-0.0148306
-0.0131062
-0.0115017
-0.0100435
-0.00874123
-0.00759743
-0.00661753
-0.00581832
-0.00519405
-0.00476421
-0.0208708
-0.0259895
-0.0286638
-0.026498
-0.0229111
-0.027128
-0.0312105
-0.0336309
-0.0345302
-0.0343799
-0.0335438
-0.032275
-0.0306255
-0.0286817
-0.0265267
-0.0242602
-0.0219852
-0.0197874
-0.0177188
-0.0157966
-0.0140171
-0.0123742
-0.0108701
-0.00951099
-0.00830372
-0.00724621
-0.00633874
-0.0055947
-0.0050255
-0.0046293
-0.0144263
-0.0220572
-0.0216847
-0.0210019
-0.0244686
-0.0308133
-0.0355775
-0.0374457
-0.0374584
-0.0364257
-0.0348329
-0.0329262
-0.0307949
-0.0285051
-0.0261151
-0.0236939
-0.0213182
-0.0190583
-0.0169599
-0.0150396
-0.013292
-0.0117069
-0.0102732
-0.00898921
-0.00785393
-0.00686298
-0.00601197
-0.00530908
-0.00477711
-0.00438967
-0.0115367
-0.0186413
-0.0203031
-0.0259844
-0.0336555
-0.0393307
-0.0424473
-0.0422161
-0.0405599
-0.0382502
-0.0357308
-0.0331613
-0.0305851
-0.0280154
-0.0254755
-0.022993
-0.020604
-0.0183531
-0.0162743
-0.0143818
-0.0126722
-0.0111321
-0.00974993
-0.00851751
-0.00743055
-0.00648389
-0.00567048
-0.00499259
-0.00447862
-0.00408057
-0.0139265
-0.0156395
-0.0267285
-0.0378245
-0.0447747
-0.0501136
-0.0505927
-0.0470957
-0.0431091
-0.0392143
-0.0357074
-0.032575
-0.0297225
-0.0270549
-0.0245142
-0.0220957
-0.0197997
-0.0176424
-0.0156451
-0.0138194
-0.0121644
-0.0106714
-0.00932904
-0.00812929
-0.00706821
-0.006142
-0.00534475
-0.00467383
-0.00415864
-0.00373397
-0.0191165
-0.0242404
-0.0365797
-0.0481236
-0.0557459
-0.0595718
-0.0576611
-0.0501407
-0.0437828
-0.0384673
-0.0342389
-0.030825
-0.0279686
-0.0254677
-0.0231518
-0.0209586
-0.0188798
-0.0169112
-0.015065
-0.013353
-0.0117796
-0.0103416
-0.00903432
-0.00785329
-0.00679885
-0.00586861
-0.00506414
-0.00438002
-0.0038444
-0.00338299
-0.027418
-0.0324587
-0.0433126
-0.053657
-0.0622388
-0.0585804
-0.0545124
-0.0466349
-0.039992
-0.0346184
-0.0306302
-0.0276263
-0.025229
-0.0231913
-0.0213471
-0.0195731
-0.0178465
-0.0161636
-0.0145396
-0.0129902
-0.0115276
-0.0101587
-0.00888657
-0.00771364
-0.00664401
-0.00569338
-0.00485905
-0.00414046
-0.00356519
-0.00305807
-0.0272627
-0.0320123
-0.0433301
-0.0522243
-0.0469699
-0.0395742
-0.0364382
-0.0330976
-0.0298949
-0.0268952
-0.024597
-0.0229107
-0.0215607
-0.0203626
-0.0192095
-0.018015
-0.0167386
-0.0154285
-0.0140901
-0.012748
-0.011425
-0.0101393
-0.0089058
-0.00773549
-0.0066409
-0.00564835
-0.0047609
-0.00398717
-0.00335515
-0.00279855
-0.0154986
-0.0241416
-0.0330425
-0.0325679
-0.0203655
-0.0190118
-0.0181327
-0.0163449
-0.0158545
-0.0165586
-0.0169663
-0.0172225
-0.0173156
-0.0172099
-0.0168878
-0.0161904
-0.015645
-0.0147644
-0.013756
-0.012654
-0.0114924
-0.0103015
-0.00910874
-0.00793864
-0.00681759
-0.00575819
-0.0047971
-0.00394991
-0.00324813
-0.0026411
-0.00252892
-0.0107324
-0.0100034
-0.00171706
-0.00844998
-0.00886701
-0.00774749
-0.00581254
-0.00477894
-0.00717483
-0.00965284
-0.0116644
-0.0131448
-0.0141317
-0.0146787
-0.0149875
-0.0146888
-0.0142555
-0.0135926
-0.0127456
-0.0117568
-0.0106663
-0.00951273
-0.00833392
-0.00716569
-0.00603516
-0.00498693
-0.00405076
-0.00326801
-0.00261113
0.00672562
0.00441502
0.00415253
-0.000117764
-0.00332912
-0.00340426
-0.00108835
6.49596e-05
0.00138184
-0.00103872
-0.0042632
-0.00727952
-0.00973604
-0.0115855
-0.0128693
-0.0136515
-0.0140127
-0.0139969
-0.0136644
-0.0130664
-0.0122493
-0.0112579
-0.010139
-0.00894078
-0.0077091
-0.00649625
-0.00534508
-0.00430328
-0.00342581
-0.00271339
0.018314
0.0122125
0.00763284
0.00280495
0.000407408
0.000666434
0.00358966
0.00385967
0.00433114
0.0019549
-0.00127596
-0.00458793
-0.00751735
-0.00990011
-0.0117184
-0.0129618
-0.0137357
-0.0140786
-0.0140371
-0.0136623
-0.0130004
-0.0120983
-0.0110062
-0.00977931
-0.00847598
-0.00715692
-0.00588218
-0.00471339
-0.00371997
-0.00293449
0.0218592
0.014759
0.00955933
0.00625044
0.0034505
0.00512049
0.00666854
0.00482953
0.0044494
0.00245969
-0.000421845
-0.0035997
-0.00659985
-0.00919628
-0.0113182
-0.0128606
-0.0139408
-0.0145708
-0.0147699
-0.0145786
-0.0140404
-0.0132032
-0.0121199
-0.0108503
-0.00946114
-0.00802053
-0.00660214
-0.00528164
-0.00414216
-0.00325137
0.0223198
0.0161952
0.0115099
0.00842039
0.00762187
0.00967279
0.00952155
0.00478233
0.00315067
0.00126748
-0.0011827
-0.00398085
-0.0067839
-0.00937747
-0.0116391
-0.0133735
-0.0146687
-0.0155208
-0.0159153
-0.015869
-0.015416
-0.014604
-0.0134923
-0.01215
-0.0106524
-0.00907598
-0.00749983
-0.00600697
-0.00469161
-0.00365673
0.0197961
0.0154956
0.013603
0.0107311
0.0118039
0.0138423
0.0114026
0.00469445
0.00140603
-0.000769748
-0.00290876
-0.00528212
-0.00778119
-0.0102675
-0.0125817
-0.0144658
-0.0159376
-0.0169728
-0.0175339
-0.0176092
-0.0172129
-0.0163874
-0.0151974
-0.0137244
-0.012065
-0.0103189
-0.00856641
-0.00688848
-0.00538124
-0.0041751
0.0146176
0.0139339
0.014586
0.0132535
0.0151754
0.0161695
0.0101156
0.001562
-0.00105982
-0.00323658
-0.00503099
-0.00700879
-0.00922893
-0.0116207
-0.0139856
-0.0160448
-0.0177184
-0.0189476
-0.0196778
-0.0198743
-0.0195272
-0.0186657
-0.0173555
-0.0156915
-0.0138012
-0.0118063
-0.00982049
-0.007934
-0.00623073
-0.00484795
0.00887529
0.0108768
0.0119532
0.0116546
0.0137387
0.0125251
0.00125408
-0.0141284
-0.0021904
-0.00523378
-0.00686993
-0.00863703
-0.010746
-0.0131679