/*--------------------------------*- C++ -*----------------------------------*\
| =========                 |                                                 |
| \\      /  F ield         | OpenFOAM: The Open Source CFD Toolbox           |
|  \\    /   O peration     | Version:  v1606+                                |
|   \\  /    A nd           | Web:      www.OpenFOAM.com                      |
|    \\/     M anipulation  |                                                 |
\*---------------------------------------------------------------------------*/
FoamFile
{
    version     2.0;
    format      ascii;
    class       surfaceScalarField;
    location    "1.5";
    object      phi;
}
// * * * * * * * * * * * * * * * * * * * * * * * * * * * * * * * * * * * * * //

dimensions      [0 3 -1 0 0 0 0];

internalField   nonuniform List<scalar> 
11770
(
-1.01475e-06
4.79852e-05
-3.61269e-06
4.9837e-05
-4.93101e-06
4.85899e-05
-4.79785e-06
4.70827e-05
-2.81118e-06
4.512e-05
-3.40267e-07
4.45364e-05
4.23445e-07
4.61377e-05
5.21524e-07
4.62759e-05
5.96172e-07
4.57846e-05
6.38674e-07
4.56136e-05
3.73238e-07
4.58299e-05
1.96445e-07
4.58907e-05
-4.57882e-07
4.65395e-05
-1.68043e-06
4.7141e-05
-2.86427e-06
4.7101e-05
-5.11105e-06
4.8073e-05
-6.60611e-06
4.71905e-05
-7.27605e-06
4.63633e-05
-7.00054e-06
4.56718e-05
-6.39054e-06
4.57933e-05
-6.28228e-06
4.6799e-05
-4.30815e-06
4.51712e-05
-1.4181e-06
4.43248e-05
2.57804e-07
4.56506e-05
3.65217e-07
4.73219e-05
6.67528e-07
4.71358e-05
1.7315e-06
4.63418e-05
2.89345e-06
4.62231e-05
3.97328e-06
4.62258e-05
5.12744e-05
2.60977e-06
4.83583e-05
-2.60561e-06
5.79888e-05
-5.43478e-06
5.41958e-05
-6.01043e-06
5.03467e-05
-5.66983e-06
4.73933e-05
-4.69723e-06
4.6215e-05
-1.83882e-06
4.61442e-05
9.28182e-08
4.72783e-05
-8.10371e-07
4.9468e-05
-2.18907e-06
4.97378e-05
-8.31258e-07
4.72931e-05
2.68234e-07
4.77134e-05
-1.14642e-06
5.0944e-05
-2.83288e-06
5.18493e-05
-3.98571e-06
5.13112e-05
-3.57964e-06
5.08048e-05
-3.97732e-06
5.05159e-05
-5.89107e-06
5.10015e-05
-9.8764e-06
5.23318e-05
-1.23527e-05
5.09705e-05
-9.96219e-06
4.70342e-05
-5.25072e-06
4.29067e-05
-1.96362e-06
4.34066e-05
-1.62711e-06
4.77268e-05
-2.86844e-06
5.10381e-05
-2.79028e-06
4.95268e-05
-1.43202e-06
4.7432e-05
3.68525e-07
4.69165e-05
6.99249e-07
4.84761e-05
5.49357e-05
2.1898e-06
4.63425e-05
-1.61217e-06
6.20195e-05
-5.0034e-06
5.77982e-05
-6.4406e-06
5.19875e-05
-8.34122e-06
4.94968e-05
-8.45623e-06
4.65474e-05
-3.19695e-06
4.1153e-05
2.39048e-06
4.21151e-05
2.55736e-06
4.99304e-05
3.86034e-07
5.24591e-05
9.0849e-07
4.72724e-05
1.18513e-06
4.8003e-05
-1.66305e-06
5.44195e-05
-4.31242e-06
5.51558e-05
-5.26267e-06
5.29114e-05
-5.10818e-06
5.12625e-05
-5.46505e-06
5.14172e-05
-6.71578e-06
5.27806e-05
-9.93218e-06
5.60696e-05
-1.18877e-05
5.32993e-05
-8.51947e-06
4.39029e-05
-3.58721e-06
3.81445e-05
-1.66442e-06
4.16416e-05
-4.18749e-06
5.04163e-05
-6.0902e-06
5.31113e-05
-5.90558e-06
4.95059e-05
-4.12938e-06
4.58124e-05
-2.19352e-06
4.51349e-05
-2.13431e-06
4.85673e-05
5.29783e-05
-7.04476e-07
4.70781e-05
3.3345e-06
5.80214e-05
3.88091e-06
5.72911e-05
7.85465e-07
5.51237e-05
-3.11759e-06
5.34442e-05
-6.13325e-06
4.96113e-05
-4.33041e-06
3.94085e-05
-2.98904e-07
3.8221e-05
1.63601e-06
4.83579e-05
7.84195e-07
5.36041e-05
-9.17487e-08
4.83265e-05
-9.09867e-07
4.89782e-05
-3.2673e-06
5.70115e-05
-5.48041e-06
5.76352e-05
-5.64966e-06
5.33203e-05
-4.8842e-06
5.07131e-05
-4.27313e-06
5.10446e-05
-4.51118e-06
5.32801e-05
-5.46708e-06
5.72364e-05
-5.76724e-06
5.36964e-05
-6.0125e-06
4.4192e-05
-4.96404e-06
3.71257e-05
-6.79502e-06
4.35082e-05
-1.27295e-05
5.63921e-05
-1.43774e-05
5.47986e-05
-1.28189e-05
4.79815e-05
-9.63347e-06
4.26567e-05
-6.8201e-06
4.23495e-05
-5.07201e-06
4.68467e-05
4.79355e-05
1.04816e-06
4.60484e-05
8.40078e-06
5.06908e-05
1.24657e-05
5.32497e-05
1.20179e-05
5.55967e-05
8.40771e-06
5.70829e-05
2.87439e-06
5.51763e-05
-1.69447e-06
4.40094e-05
1.35318e-06
3.5225e-05
3.17365e-06
4.67267e-05
2.74803e-06
5.42828e-05
-3.49063e-07
5.15285e-05
-3.34279e-06
5.19846e-05
-4.81715e-06
5.85525e-05
-5.28907e-06
5.82177e-05
-4.40317e-06
5.25459e-05
-3.22269e-06
4.96599e-05
-1.61747e-06
4.96273e-05
1.45789e-07
5.17137e-05
1.6122e-06
5.58984e-05
5.32974e-07
5.48269e-05
-4.62089e-06
4.93723e-05
-8.47415e-06
4.1e-05
-1.93268e-05
5.4391e-05
-2.5726e-05
6.28244e-05
-2.54286e-05
5.45301e-05
-2.10357e-05
4.36117e-05
-1.50798e-05
3.672e-05
-9.06463e-06
3.63525e-05
-5.87357e-06
4.36749e-05
4.20808e-05
6.92666e-06
3.91363e-05
1.30543e-05
4.45803e-05
1.7199e-05
4.91245e-05
2.20649e-05
5.07522e-05
2.41969e-05
5.49755e-05
2.00757e-05
5.93257e-05
8.1933e-06
5.5921e-05
5.88314e-06
3.75636e-05
6.20937e-06
4.64687e-05
5.60248e-06
5.50747e-05
2.13772e-06
5.50921e-05
-1.28926e-06
5.54151e-05
-1.847e-06
5.90919e-05
-1.43899e-06
5.78348e-05
-1.44925e-06
5.26085e-05
-1.4301e-06
4.97241e-05
-7.65668e-08
4.84239e-05
3.31243e-06
4.84904e-05
7.30701e-06
5.20439e-05
6.15358e-06
5.60251e-05
-9.281e-07
5.64836e-05
-1.27926e-05
5.28905e-05
-3.70153e-05
7.86584e-05
-4.00926e-05
6.59417e-05
-3.36479e-05
4.81151e-05
-2.58419e-05
3.58277e-05
-1.85733e-05
2.94688e-05
-1.20684e-05
2.98637e-05
-7.89746e-06
3.95221e-05
3.41994e-05
7.64474e-06
3.15039e-05
1.55465e-05
3.66935e-05
2.2098e-05
4.25908e-05
2.87932e-05
4.40771e-05
3.63796e-05
4.74135e-05
3.90645e-05
5.66722e-05
2.82562e-05
6.67651e-05
9.25771e-06
5.6593e-05
6.81251e-06
4.89512e-05
5.94656e-06
5.60352e-05
5.12457e-06
5.60184e-05
4.42937e-06
5.61516e-05
4.7006e-06
5.88221e-05
3.88662e-06
5.86681e-05
1.44687e-06
5.50868e-05
-4.1141e-07
5.1638e-05
-2.48083e-08
4.81312e-05
3.39039e-06
4.5197e-05
8.99605e-06
4.65612e-05
1.03748e-05
5.46966e-05
6.40255e-06
6.04926e-05
-2.07982e-05
8.01301e-05
-5.06599e-05
0.000108588
-4.81686e-05
6.35015e-05
-3.60963e-05
3.60752e-05
-2.64988e-05
2.62525e-05
-1.98719e-05
2.28591e-05
-1.47415e-05
2.47485e-05
-7.76954e-06
3.2567e-05
2.64431e-05
3.99631e-06
2.75191e-05
1.20527e-05
2.8651e-05
2.22887e-05
3.23715e-05
3.1951e-05
3.44348e-05
4.24044e-05
3.6986e-05
5.04518e-05
4.86618e-05
4.69096e-05
7.03573e-05
1.55777e-05
8.79736e-05
3.71037e-06
6.08477e-05
5.00207e-06
5.47904e-05
7.4417e-06
5.36611e-05
9.04401e-06
5.46275e-05
9.39512e-06
5.85464e-05
7.94758e-06
6.01806e-05
3.44354e-06
5.96486e-05
-7.7129e-07
5.59086e-05
-1.56855e-06
4.89923e-05
8.24545e-07
4.28816e-05
6.47749e-06
4.09889e-05
1.20205e-05
4.92137e-05
1.02158e-05
6.23251e-05
-2.59504e-05
0.000116332
-5.03399e-05
0.000133039
-4.70394e-05
6.0248e-05
-3.58557e-05
2.4921e-05
-2.75056e-05
1.79225e-05
-2.13426e-05
1.67116e-05
-1.61709e-05
1.95911e-05
-6.71389e-06
2.3124e-05
1.97392e-05
3.24272e-06
2.42883e-05
9.1883e-06
2.2719e-05
1.9627e-05
2.1948e-05
3.1083e-05
2.2998e-05
4.18367e-05
2.62589e-05
5.13407e-05
3.91978e-05
5.08977e-05
7.08551e-05
2.28435e-05
0.000116076
-4.13929e-06
8.7838e-05
8.38258e-07
4.98342e-05
6.71582e-06
4.78569e-05
8.85003e-06
5.25899e-05
8.10882e-06
5.93817e-05
6.0068e-06
6.23557e-05
2.59242e-06
6.31191e-05
-6.58177e-07
5.92071e-05
-1.91811e-06
5.02972e-05
-1.79668e-06
4.28081e-05
-7.20951e-07
3.99628e-05
1.11032e-06
4.7428e-05
-9.58934e-06
7.30463e-05
-2.62763e-05
0.000133026
-3.13705e-05
0.000138157
-3.74263e-05
6.63285e-05
-3.38335e-05
2.13481e-05
-2.64146e-05
1.0519e-05
-2.13659e-05
1.16757e-05
-1.57384e-05
1.39758e-05
-5.76194e-06
1.31575e-05
1.39843e-05
4.85599e-06
1.94443e-05
8.92969e-06
1.86587e-05
1.82318e-05
1.26589e-05
2.95381e-05
1.17086e-05
3.78892e-05
1.7933e-05
4.01989e-05
3.69219e-05
3.003e-05
8.10566e-05
1.40283e-05
0.000132071
-6.5108e-06
0.000108367
-1.03554e-05
5.37163e-05
-1.11347e-05
4.87019e-05
-1.24314e-05
5.39642e-05
-1.39247e-05
6.09439e-05
-1.26559e-05
6.11344e-05
-1.00999e-05
6.05938e-05
-7.05341e-06
5.61865e-05
-5.27739e-06
4.8545e-05
-5.4989e-06
4.3055e-05
-9.46872e-06
4.39639e-05
-1.96784e-05
5.76757e-05
-3.59628e-05
8.93501e-05
-2.77823e-05
0.000124843
-1.59721e-05
0.000126348
-2.47612e-05
7.51247e-05
-2.55015e-05
2.20971e-05
-2.03407e-05
5.3668e-06
-1.71805e-05
8.52471e-06
-1.30216e-05
9.82627e-06
-4.41755e-06
4.55957e-06
9.57169e-06
6.5115e-06
1.29428e-05
9.4114e-06
1.57708e-05
1.82742e-05
3.80605e-06
2.77461e-05
2.24958e-06
2.92055e-05
1.64923e-05
1.21524e-05
5.39928e-05
-1.1082e-05
0.000104295
-1.8215e-05
0.000139187
-2.71606e-05
0.000117343
-4.60159e-05
7.26226e-05
-5.79094e-05
6.06384e-05
-6.3258e-05
5.93535e-05
-5.93092e-05
5.70303e-05
-4.8493e-05
5.03409e-05
-3.56201e-05
4.77381e-05
-2.52361e-05
4.58177e-05
-2.06065e-05
4.39298e-05
-2.21952e-05
4.46599e-05
-2.98684e-05
5.16597e-05
-4.06148e-05
6.84553e-05
-4.3225e-05
9.19946e-05
-2.87728e-05
0.000110409
-1.24068e-05
0.000109988
-1.53897e-05
7.81116e-05
-1.55381e-05
2.22486e-05
-8.95581e-06
-1.21224e-06
-6.79006e-06
6.36416e-06
-5.53638e-06
8.57875e-06
-4.12878e-06
3.15605e-06
5.44621e-06
5.5231e-06
7.42601e-06
1.10395e-05
1.02625e-05
1.75362e-05
-2.6849e-06
2.40893e-05
-4.29673e-06
9.54979e-06
3.10396e-05
-2.3023e-05
8.65684e-05
-4.70482e-05
0.000128321
-5.15284e-05
0.000143702
-5.79803e-05
0.000123861
-7.45119e-05
8.91985e-05
-8.54017e-05
7.15553e-05
-8.30987e-05
5.70757e-05
-7.16939e-05
4.56475e-05
-5.86447e-05
3.73085e-05
-4.49632e-05
3.40699e-05
-3.53964e-05
3.62629e-05
-3.02735e-05
3.88188e-05
-3.04635e-05
4.48635e-05
-3.52716e-05
5.64857e-05
-4.00426e-05
7.32512e-05
-3.75531e-05
8.95348e-05
-2.62263e-05
9.91081e-05
-1.44216e-05
9.8199e-05
-8.63566e-06
7.23328e-05
3.94429e-07
1.32213e-05
4.09428e-06
-4.91072e-06
5.00511e-06
5.45629e-06
3.68705e-06
9.90114e-06
-2.55149e-06
9.39852e-06
2.89666e-06
3.21012e-06
4.21922e-06
9.48435e-06
3.99205e-06
1.29317e-05
-6.13077e-06
1.41939e-05
-5.55859e-06
-1.34433e-05
5.86756e-05
-4.27891e-05
0.000115909
-5.947e-05
0.000145019
-6.82672e-05
0.000152551
-7.60929e-05
0.000131748
-8.49088e-05
9.80412e-05
-8.79599e-05
7.46299e-05
-8.08079e-05
4.99456e-05
-6.92882e-05
3.41464e-05
-5.76532e-05
2.56883e-05
-4.70123e-05
2.34408e-05
-3.85078e-05
2.77689e-05
-3.42231e-05
3.4545e-05
-3.26233e-05
4.32762e-05
-3.3936e-05
5.78139e-05
-3.43668e-05
7.37019e-05
-3.03909e-05
8.55822e-05
-2.25517e-05
9.12934e-05
-1.30993e-05
8.87673e-05
1.3545e-06
5.78906e-05
1.20168e-05
2.56308e-06
8.22127e-06
-1.11284e-06
7.20584e-06
6.47483e-06
6.29109e-06
1.08198e-05
2.5768e-06
1.31169e-05
5.47549e-06
6.22139e-07
3.59863e-06
1.87205e-06
2.74339e-06
1.23515e-06
-5.49427e-06
-2.24945e-07
-4.10031e-06
-1.92958e-05
7.77384e-05
-4.00499e-05
0.000136663
-5.37094e-05
0.000158708
-6.57649e-05
0.000164664
-7.3783e-05
0.000139813
-7.78449e-05
0.00010213
-7.00846e-05
6.68933e-05
-5.94418e-05
3.9322e-05
-5.05789e-05
2.52989e-05
-4.46018e-05
1.97236e-05
-4.07237e-05
1.95733e-05
-3.77196e-05
2.47744e-05
-3.56223e-05
3.24574e-05
-3.24684e-05
4.01334e-05
-3.09584e-05
5.63172e-05
-2.84941e-05
7.1254e-05
-2.35422e-05
8.0649e-05
-1.65212e-05
8.42925e-05
-4.59274e-06
7.68583e-05
1.22728e-05
4.10376e-05
1.22293e-05
2.61134e-06
6.57771e-06
4.54195e-06
4.42718e-06
8.62881e-06
3.7712e-06
1.14798e-05
3.50862e-06
1.33837e-05
8.98666e-06
-6.03465e-07
4.20286e-06
-1.36405e-06
3.50462e-06
-6.14332e-06
-7.14e-07
-1.00377e-05
-2.04908e-07
-1.33731e-05
8.10691e-05
-2.77109e-05
0.000151015
-4.17263e-05
0.000172763
-5.47414e-05
0.000177732
-6.40659e-05
0.000149174
-6.30339e-05
0.000101124
-5.02323e-05
5.41121e-05
-4.13643e-05
3.04697e-05
-3.68686e-05
2.08161e-05
-3.57343e-05
1.86009e-05
-3.67523e-05
2.06021e-05
-3.71506e-05
2.5183e-05
-3.37658e-05
2.90821e-05
-2.88401e-05
3.52173e-05
-2.36406e-05
5.11287e-05
-1.85669e-05
6.6194e-05
-1.32761e-05
7.53744e-05
-4.95144e-06
7.59851e-05
8.90786e-06
6.30148e-05
2.23307e-05
2.76255e-05
1.3605e-05
1.13436e-05
7.21302e-06
1.09389e-05
4.21318e-06
1.1633e-05
3.12447e-06
1.25728e-05
3.03106e-06
1.34815e-05
1.20204e-05
-1.42785e-06
5.63138e-06
-2.39726e-06
4.47497e-06
-6.2025e-06
3.09326e-06
-1.08824e-05
4.47915e-06
1.22692e-06
6.89702e-05
-1.01188e-05
0.000162386
-2.66167e-05
0.000189302
-4.09448e-05
0.000192106
-5.08599e-05
0.000159122
-4.47725e-05
9.50601e-05
-3.38922e-05
4.32474e-05
-2.86729e-05
2.52623e-05
-2.7756e-05
1.99101e-05
-2.94411e-05
2.02974e-05
-3.19392e-05
2.31123e-05
-3.21494e-05
2.54051e-05
-2.82816e-05
2.52246e-05
-2.24903e-05
2.94353e-05
-1.37771e-05
4.24256e-05
-5.56004e-06
5.79899e-05
7.01869e-07
6.91288e-05
7.36962e-06
6.93349e-05
1.68798e-05
5.35188e-05
1.97555e-05
2.47603e-05
1.27419e-05
1.8367e-05
7.52356e-06
1.6165e-05
4.44115e-06
1.47215e-05
2.83063e-06
1.41885e-05
2.14061e-06
1.41759e-05
1.41643e-05
-1.35194e-06
6.9845e-06
-1.95404e-06
5.07854e-06
-4.68507e-06
5.82726e-06
-9.64797e-06
9.44924e-06
6.70043e-06
5.26406e-05
3.42129e-06
0.000165702
-1.16199e-05
0.000204393
-2.508e-05
0.000205611
-3.41028e-05
0.00016818
-2.56264e-05
8.66054e-05
-1.92714e-05
3.69042e-05
-1.82827e-05
2.42825e-05
-1.97697e-05
2.1406e-05
-2.19851e-05
2.25234e-05
-2.2563e-05
2.37023e-05
-2.12219e-05
2.40766e-05
-1.96849e-05
2.36995e-05
-1.5902e-05
2.56634e-05
-6.14115e-06
3.26765e-05
4.32861e-06
4.75355e-05
1.1037e-05
6.24401e-05
1.69117e-05
6.34808e-05
2.24586e-05
4.79891e-05
1.85014e-05
2.87325e-05
1.34134e-05
2.34687e-05
8.76553e-06
2.08239e-05
5.23377e-06
1.82617e-05
3.02507e-06
1.64035e-05
1.75548e-06
1.54503e-05
1.59231e-05
-8.7587e-07
7.86299e-06
-1.33343e-06
5.53883e-06
-2.76649e-06
7.26466e-06
-8.34182e-06
1.50328e-05
-5.06393e-06
4.93834e-05
4.23078e-06
0.00015646
-2.62358e-08
0.000208721
-5.81693e-06
0.000211465
-1.35498e-05
0.00017596
-7.69836e-06
8.07802e-05
-7.26928e-06
3.64869e-05
-1.01243e-05
2.71458e-05
-1.27001e-05
2.39898e-05
-1.46228e-05
2.44558e-05
-1.50605e-05
2.41511e-05
-1.49765e-05
2.40053e-05
-1.55761e-05
2.4313e-05
-1.48878e-05
2.499e-05
-9.32422e-06
2.71283e-05
1.24772e-06
3.69819e-05
9.95174e-06
5.37607e-05
1.71433e-05
5.63152e-05
2.32176e-05
4.19385e-05
2.03777e-05
3.15946e-05
1.54955e-05
2.83692e-05
1.04151e-05
2.5919e-05
5.57956e-06
2.31092e-05
2.49847e-06
1.94923e-05
1.20101e-06
1.67527e-05
1.71275e-05
-2.91533e-07
8.15997e-06
-8.51585e-07
6.10415e-06
-4.02157e-06
1.04417e-05
-1.2461e-05
2.34831e-05
-2.13357e-05
5.82887e-05
-4.85884e-06
0.000140061
7.17732e-06
0.000196784
1.52775e-05
0.000203457
1.11717e-05
0.000180143
4.14643e-06
8.78475e-05
-1.2356e-06
4.18866e-05
-6.38621e-06
3.23076e-05
-9.65901e-06
2.72713e-05
-1.11511e-05
2.59575e-05
-1.1782e-05
2.47923e-05
-1.30392e-05
2.52748e-05
-1.40148e-05
2.53025e-05
-1.38446e-05
2.48349e-05
-1.15339e-05
2.48331e-05
-3.73747e-06
2.92038e-05
6.7844e-06
4.32661e-05
1.7938e-05
4.51942e-05
2.41575e-05
3.57523e-05
2.12836e-05
3.44995e-05
1.79733e-05
3.17017e-05
1.25236e-05
3.1384e-05
4.01767e-06
3.16249e-05
-4.94353e-07
2.40095e-05
-6.28986e-07
1.68917e-05
1.65032e-05
1.18566e-06
6.98331e-06
2.04772e-06
5.25079e-06
-6.74167e-06
1.92412e-05
-2.40568e-05
4.08169e-05
-3.34799e-05
6.77565e-05
-1.48629e-05
0.00012154
8.5061e-06
0.000173536
3.04948e-05
0.000181588
4.15865e-05
0.000169162
2.23992e-05
0.000107098
1.88033e-06
6.24316e-05
-7.63075e-06
4.18325e-05
-9.93913e-06
2.95898e-05
-9.97572e-06
2.60035e-05
-1.0714e-05
2.55398e-05
-1.27256e-05
2.72973e-05
-1.37595e-05
2.63485e-05
-1.3465e-05
2.45529e-05
-1.13337e-05
2.2714e-05
-5.10754e-06
2.29923e-05
7.69543e-06
3.04882e-05
1.9018e-05
3.39091e-05
1.92458e-05
3.55628e-05
1.59133e-05
3.78618e-05
1.61808e-05
3.14572e-05
1.45564e-05
3.30234e-05
2.40758e-06
4.37875e-05
-4.44792e-06
3.08744e-05
-4.14097e-06
1.65893e-05
1.23686e-05
4.65508e-06
2.33857e-06
3.99822e-06
5.91774e-06
-7.42996e-06
3.06814e-05
-2.19867e-05
5.53989e-05
-2.73472e-05
7.31616e-05
-1.44629e-05
0.000108736
1.49375e-05
0.000144241
4.4232e-05
0.000152403
6.6277e-05
0.000147221
5.38805e-05
0.00011956
2.254e-05
9.38073e-05
-2.1391e-06
6.65336e-05
-9.69914e-06
3.71645e-05
-9.42079e-06
2.57339e-05
-9.7712e-06
2.58975e-05
-1.27592e-05
3.02937e-05
-1.46293e-05
2.82291e-05
-1.39336e-05
2.38674e-05
-1.05739e-05
1.93638e-05
-4.75979e-06
1.71915e-05
7.00934e-06
1.87412e-05
1.35521e-05
2.73962e-05
1.0843e-05
3.82992e-05
1.00917e-05
3.86341e-05
7.74491e-06
3.38209e-05
5.80599e-06
3.49798e-05
2.56752e-06
4.70461e-05
-4.57161e-06
3.80321e-05
-6.16314e-06
1.81909e-05
6.21374e-06
6.56077e-06
-4.21486e-06
-3.42658e-06
1.59137e-05
-9.55981e-06
3.68297e-05
-7.77395e-06
5.36336e-05
-9.295e-06
7.47094e-05
2.07899e-06
9.74052e-05
2.94336e-05
0.000116947
5.73064e-05
0.000124596
7.92333e-05
0.000125355
8.00157e-05
0.000118823
6.38006e-05
0.000110054
3.69479e-05
9.34128e-05
1.24497e-05
6.16825e-05
-1.59092e-06
3.97882e-05
-5.8665e-06
3.01841e-05
-1.10172e-05
3.5455e-05
-1.66733e-05
3.38977e-05
-1.59588e-05
2.31599e-05
-1.02831e-05
1.36982e-05
-2.35596e-06
9.27924e-06
3.99689e-06
1.24052e-05
5.25799e-06
2.61536e-05
2.54762e-06
4.10299e-05
2.17427e-06
3.90259e-05
-1.94846e-06
3.79604e-05
-1.52478e-06
3.45734e-05
6.80393e-06
3.87366e-05
1.11516e-05
3.37015e-05
8.34573e-06
2.10112e-05
1.45712e-05
-3.26377e-07
-3.88016e-06
-8.39624e-06
2.39951e-05
-6.64495e-06
3.50936e-05
2.92764e-06
4.4078e-05
1.4232e-05
6.34245e-05
2.952e-05
8.21409e-05
4.91796e-05
9.73189e-05
6.82558e-05
0.000105554
8.43922e-05
0.000109252
9.37812e-05
0.000109464
9.84288e-05
0.000105436
9.56532e-05
9.62192e-05
7.76946e-05
7.96721e-05
5.18214e-05
6.56883e-05
2.49759e-05
5.70513e-05
-2.5289e-06
6.29811e-05
-2.50034e-05
5.6394e-05
-2.0154e-05
1.83239e-05
-1.32231e-05
6.78041e-06
-7.40802e-06
3.47716e-06
-7.35978e-06
1.23676e-05
-1.30861e-05
3.18961e-05
-1.22613e-05
4.02233e-05
-1.04658e-05
3.72479e-05
-8.64988e-06
3.61612e-05
-5.16108e-06
3.10996e-05
9.58905e-07
3.26331e-05
6.21603e-06
2.84599e-05
4.94743e-06
2.22943e-05
1.95322e-05
9.52129e-07
-4.82239e-06
-2.47962e-06
2.74402e-05
-2.14809e-06
3.47768e-05
3.56617e-06
3.83793e-05
1.74187e-05
4.95896e-05
3.53345e-05
6.42449e-05
5.41286e-05
7.85473e-05
7.0849e-05
8.8857e-05
8.56943e-05
9.44316e-05
9.9237e-05
9.59472e-05
0.000111013
9.36898e-05
0.000119278
8.79884e-05
0.000116274
8.27148e-05
9.77819e-05
8.42199e-05
5.9174e-05
9.56934e-05
1.03785e-05
0.000111807
-3.37582e-05
0.000100559
-4.28504e-05
2.74385e-05
-3.69383e-05
8.83986e-07
-3.26779e-05
-7.73248e-07
-3.16328e-05
1.13348e-05
-2.78902e-05
2.81703e-05
-2.16546e-05
3.40051e-05
-1.72447e-05
3.2855e-05
-1.34558e-05
3.23888e-05
-1.1334e-05
2.89938e-05
-7.21037e-06
2.85252e-05
-1.26578e-06
2.25301e-05
6.56522e-07
2.03861e-05
2.02025e-05
2.7398e-06
-7.55286e-06
1.46924e-06
2.87241e-05
2.49381e-06
3.37667e-05
5.22663e-06
3.56663e-05
1.19619e-05
4.28707e-05
2.70575e-05
4.91673e-05
4.45283e-05
6.10964e-05
6.18475e-05
7.15599e-05
7.82082e-05
7.80953e-05
9.41309e-05
8.00514e-05
0.000109028
7.88238e-05
0.000119073
7.79806e-05
0.00011899
8.28398e-05
0.000105967
9.7286e-05
7.24705e-05
0.00012923
2.34209e-05
0.000160894
-2.58559e-05
0.00014987
-5.20691e-05
5.3676e-05
-5.27897e-05
1.62211e-06
-4.6994e-05
-6.55432e-06
-4.0301e-05
4.65766e-06
-3.29271e-05
2.08134e-05
-2.72852e-05
2.83807e-05
-2.37848e-05
2.93717e-05
-2.04574e-05
2.90782e-05
-1.83698e-05
2.69235e-05
-1.3543e-05
2.37139e-05
-7.70861e-06
1.67101e-05
-2.82347e-06
1.55148e-05
1.73928e-05
1.95174e-06
-9.49575e-06
6.00391e-06
2.46849e-05
7.03042e-06
3.27542e-05
9.09425e-06
3.36121e-05
1.2731e-05
3.92494e-05
2.25902e-05
3.93245e-05
3.57052e-05
4.79997e-05
5.01109e-05
5.71749e-05
6.5521e-05
6.27083e-05
8.2834e-05
6.27643e-05
9.99973e-05
6.16914e-05
0.000110752
6.72637e-05
0.000110464
8.31714e-05
9.81982e-05
0.000109597
6.86247e-05
0.000158847
2.92996e-05
0.000200261
-1.30609e-05
0.00019227
-4.25395e-05
8.3182e-05
-4.62384e-05
5.33918e-06
-4.39346e-05
-8.84245e-06
-3.87701e-05
-4.91376e-07
-3.317e-05
1.52299e-05
-2.95998e-05
2.48279e-05
-2.75902e-05
2.73796e-05
-2.56013e-05
2.71064e-05
-2.30374e-05
2.43763e-05
-1.79043e-05
1.8596e-05
-1.28777e-05
1.16975e-05
-6.81842e-06
9.46889e-06
1.05876e-05
2.06434e-06
-1.15517e-05
7.93966e-06
1.88219e-05
8.73889e-06
3.19687e-05
9.98617e-06
3.23789e-05
1.66079e-05
3.2642e-05
2.5236e-05
3.07112e-05
3.60963e-05
3.7156e-05
4.84556e-05
4.48344e-05
6.20333e-05
4.91517e-05
7.86646e-05
4.61569e-05
9.67406e-05
4.3645e-05
0.000108406
5.56364e-05
0.000105488
8.6134e-05
8.8479e-05
0.000126651
6.20703e-05
0.000185301
3.54079e-05
0.00022697
6.77427e-06
0.000220949
-2.95242e-05
0.000119512
-3.89139e-05
1.47471e-05
-3.954e-05
-8.20125e-06
-3.60823e-05
-3.93402e-06
-3.17865e-05
1.09502e-05
-2.90082e-05
2.20671e-05
-2.71433e-05
2.55326e-05
-2.53987e-05
2.53797e-05
-2.31962e-05
2.21913e-05
-1.98054e-05
1.52212e-05
-1.49113e-05
6.81746e-06
-7.91934e-06
2.49003e-06
2.68094e-06
-1.35951e-09
-1.15424e-05
5.368e-06
1.34641e-05
8.78064e-06
2.85692e-05
1.14352e-05
2.97375e-05
1.75449e-05
2.65458e-05
2.49363e-05
2.33334e-05
3.45549e-05
2.75524e-05
4.55442e-05
3.3862e-05
5.64822e-05
3.82328e-05
6.91321e-05
3.35288e-05
8.44396e-05
2.83649e-05
9.65777e-05
4.3535e-05
9.44456e-05
8.83099e-05
7.63007e-05
0.00014484
5.72179e-05
0.000204428
4.3641e-05
0.000240594
2.81029e-05
0.000236535
-1.02838e-05
0.000157935
-3.21726e-05
3.66556e-05
-3.53335e-05
-5.02532e-06
-3.28354e-05
-6.4176e-06
-2.89977e-05
7.1283e-06
-2.60179e-05
1.91046e-05
-2.37322e-05
2.32651e-05
-2.17456e-05
2.34115e-05
-1.95865e-05
2.00502e-05
-1.72815e-05
1.29328e-05
-1.3783e-05
3.33336e-06
-7.66247e-06
-3.61778e-06
-4.96956e-06
-1.44886e-06
-1.00858e-05
2.03697e-06
9.98917e-06
7.81026e-06
2.28085e-05
1.30845e-05
2.44762e-05
1.83701e-05
2.12729e-05
2.39875e-05
1.77289e-05
3.14613e-05
2.00925e-05
4.01369e-05
2.5202e-05
4.9441e-05
2.89464e-05
5.8998e-05
2.3992e-05
6.99001e-05
1.74879e-05
7.92125e-05
3.42557e-05
7.72701e-05
9.02918e-05
6.2727e-05
0.000159424
5.45474e-05
0.00021265
5.17574e-05
0.000243432
4.4933e-05
0.000243408
1.28623e-05
0.000190045
-2.46266e-05
7.41683e-05
-2.99234e-05
2.86352e-07
-2.89531e-05
-7.37415e-06
-2.56459e-05
3.8361e-06
-2.19801e-05
1.54557e-05
-1.91271e-05
2.043e-05
-1.66989e-05
2.10017e-05
-1.43757e-05
1.77451e-05
-1.27424e-05
1.13165e-05
-1.07367e-05
1.3423e-06
-6.67376e-06
-7.66843e-06
-1.16324e-05
-1.76473e-06
-8.31355e-06
5.16515e-07
7.71838e-06
6.35673e-06
1.69804e-05
1.24284e-05
1.8417e-05
1.76747e-05
1.60388e-05
2.21475e-05
1.32682e-05
2.7922e-05
1.43307e-05
3.48679e-05
1.82706e-05
4.26702e-05
2.11603e-05
4.99872e-05
1.66935e-05
5.65637e-05
1.09339e-05
5.97886e-05
3.10594e-05
5.47759e-05
9.53391e-05
4.97077e-05
0.00016453
5.35409e-05
0.000208859
5.9936e-05
0.000237083
5.90977e-05
0.000244296
3.67116e-05
0.000212475
-6.44873e-06
0.000117358
-2.21695e-05
1.60221e-05
-2.46423e-05
-4.88853e-06
-2.2291e-05
1.49905e-06
-1.81338e-05
1.13144e-05
-1.47207e-05
1.70339e-05
-1.19209e-05
1.82197e-05
-9.42051e-06
1.52624e-05
-7.96532e-06
9.87804e-06
-7.06288e-06
4.54401e-07
-4.97465e-06
-9.74489e-06
-1.65975e-05
-1.74817e-06
-6.55813e-06
5.88538e-08
5.92139e-06
5.08104e-06
1.19695e-05
1.05064e-05
1.30032e-05
1.54522e-05
1.11042e-05
1.94829e-05
9.24847e-06
2.39364e-05
9.88878e-06
2.93272e-05
1.28926e-05
3.55467e-05
1.49554e-05
4.09945e-05
1.12625e-05
4.45142e-05
7.43387e-06
4.32461e-05
3.23522e-05
3.71449e-05
0.000101471
4.14578e-05
0.000160252
5.49916e-05
0.000195366
6.85874e-05
0.000223534
7.18092e-05
0.000241123
5.67065e-05
0.000227624
1.61689e-05
0.00015793
-1.62989e-05
4.8509e-05
-2.03816e-05
-7.93268e-07
-1.90408e-05
1.71373e-07
-1.50738e-05
7.36211e-06
-1.12018e-05
1.31779e-05
-8.14431e-06
1.5179e-05
-5.57127e-06
1.27061e-05
-3.8753e-06
8.19817e-06
-3.2815e-06
-1.25214e-07
-3.29699e-06
-9.71791e-06
-1.98863e-05
-1.48802e-06
-5.06318e-06
-3.78645e-08
4.48079e-06
3.94746e-06
7.9947e-06
8.62101e-06
8.34011e-06
1.30142e-05
6.72108e-06
1.64503e-05
5.82211e-06
1.97037e-05
6.64561e-06
2.37007e-05
8.90676e-06
2.80802e-05
1.05887e-05
3.1077e-05
8.28026e-06
3.31058e-05
5.42159e-06
2.91397e-05
3.63403e-05
2.84775e-05
0.000102162
3.975e-05
0.000149015
5.85307e-05
0.000176625
7.67312e-05
0.000205379
8.40023e-05
0.000233903
7.35552e-05
0.000238123
3.95372e-05
0.000191991
-2.44548e-06
9.05172e-05
-1.34189e-05
1.01927e-05
-1.51143e-05
1.87894e-06
-1.27097e-05
4.97075e-06
-8.89677e-06
9.37948e-06
-5.58634e-06
1.1884e-05
-2.86802e-06
1.00033e-05
-7.55284e-07
6.10046e-06
-1.03788e-07
-7.63154e-07
-1.69939e-06
-8.1107e-06
-2.15783e-05
-1.12169e-06
-3.93496e-06
3.29339e-07
3.03869e-06
3.69119e-06
4.64231e-06
7.68579e-06
4.35474e-06
1.12163e-05
3.19931e-06
1.3733e-05
3.3139e-06
1.56721e-05
4.71536e-06
1.77427e-05
6.84591e-06
1.95999e-05
8.7426e-06
1.98284e-05
8.06378e-06
2.02972e-05
4.9663e-06
1.99285e-05
3.67294e-05
2.7746e-05
9.43722e-05
4.41002e-05
0.000132694
6.37751e-05
0.00015699
8.27364e-05
0.000186464
9.30708e-05
0.000223623
8.61014e-05
0.00024515
5.87778e-05
0.000219365
1.68214e-05
0.000132507
-7.14286e-06
3.41729e-05
-1.12397e-05
5.98761e-06
-1.07259e-05
4.46902e-06
-7.68033e-06
6.34682e-06
-4.08565e-06
8.30318e-06
-1.03902e-06
6.97061e-06
1.44424e-06
3.63078e-06
2.42469e-06
-1.73108e-06
5.54009e-07
-6.2287e-06
-2.10175e-05
-6.27905e-07
-3.30102e-06
1.08597e-06
1.33292e-06
4.18047e-06
1.55599e-06
7.76975e-06
7.73181e-07
1.03256e-05
6.50675e-07
1.15802e-05
2.06654e-06
1.20799e-05
4.2235e-06
1.25085e-05
6.42599e-06
1.32058e-05
8.05518e-06
1.27936e-05
8.48637e-06
1.02549e-05
7.51667e-06
1.44842e-05
3.25191e-05
3.02673e-05
7.86158e-05
5.03476e-05
0.000112646
7.05248e-05
0.000136852
8.79969e-05
0.000169039
9.84051e-05
0.000213271
9.50842e-05
0.000248533
7.57128e-05
0.000238792
3.86253e-05
0.000169636
3.35229e-06
6.94677e-05
-5.26734e-06
1.46191e-05
-7.48881e-06
6.70168e-06
-6.2225e-06
5.09194e-06
-2.91344e-06
5.0061e-06
2.44357e-07
3.82498e-06
2.80564e-06
1.08144e-06
4.12903e-06
-3.04328e-06
2.76491e-06
-4.85373e-06
-1.82459e-05
-2.67734e-07
-3.02784e-06
1.97159e-06
-8.99461e-07
5.10838e-06
-1.5742e-06
7.90029e-06
-2.01272e-06
9.12389e-06
-5.67136e-07
9.23403e-06
1.96249e-06
8.85167e-06
4.61266e-06
8.40041e-06
6.88499e-06
7.88496e-06
8.57924e-06
7.03117e-06
9.34955e-06
4.97753e-06
9.58101e-06
1.16064e-05
2.59079e-05
2.91293e-05
6.11184e-05
5.11011e-05
9.07065e-05
7.3443e-05
0.000114548
9.04521e-05
0.000152078
9.8796e-05
0.000204985
9.75732e-05
0.000249815
8.5479e-05
0.000250944
5.68969e-05
0.000198265
2.03952e-05
0.000105997
2.44582e-06
3.25823e-05
-3.03057e-06
1.21891e-05
-3.88896e-06
5.96066e-06
-1.80651e-06
2.93382e-06
8.86393e-07
1.14239e-06
3.46301e-06
-1.48496e-06
5.14934e-06
-4.71979e-06
4.47623e-06
-4.1708e-06
-1.37631e-05
1.63063e-08
-3.03923e-06
2.96817e-06
-3.84585e-06
6.07914e-06
-4.68027e-06
7.76802e-06
-3.69696e-06
7.97756e-06
-7.71784e-07
7.308e-06
2.63739e-06
6.00263e-06
5.924e-06
4.23433e-06
8.66012e-06
2.05211e-06
1.07692e-05
5.01687e-08
1.13602e-05
-2.36816e-06
1.20098e-05
4.07108e-06
1.94842e-05
2.14456e-05
4.37669e-05
4.59736e-05
6.62075e-05
6.87205e-05
9.18371e-05
8.65985e-05
0.000134245
9.3472e-05
0.000198165
9.37138e-05
0.000249632
8.95932e-05
0.000255124
7.09174e-05
0.000216989
3.92381e-05
0.000137709
1.15909e-05
6.02473e-05
2.06772e-06
2.17237e-05
-2.31941e-07
8.2699e-06
1.50336e-07
2.56017e-06
1.35589e-06
-5.46748e-08
3.29676e-06
-3.4174e-06
5.22107e-06
-6.63582e-06
4.9298e-06
-3.87189e-06
-8.82658e-06
8.32817e-07
-3.86757e-06
4.06461e-06
-7.07356e-06
6.40093e-06
-7.01271e-06
7.09738e-06
-4.38914e-06
6.65744e-06
-3.26947e-07
5.2084e-06
4.0916e-06
2.88247e-06
8.25546e-06
-3.07619e-07
1.18566e-05
-3.34435e-06
1.38133e-05
-5.71268e-06
1.37368e-05
-7.64534e-06
1.39529e-05
-4.83556e-06
1.6688e-05
8.30993e-06
3.06411e-05
3.18318e-05
4.27097e-05
5.70269e-05
6.66727e-05
7.38532e-05
0.000117459
8.00412e-05
0.000192027
8.30034e-05
0.000246727
8.64305e-05
0.00025175
7.92292e-05
0.000224236
5.55708e-05
0.000161401
2.59672e-05
8.98713e-05
9.73556e-06
3.79678e-05
5.46883e-06
1.25455e-05
3.28219e-06
4.75409e-06
2.37935e-06
8.54973e-07
2.896e-06
-3.92743e-06
3.98965e-06
-7.72287e-06
5.24984e-06
-5.12553e-06
-3.57028e-06
1.67689e-06
-5.54025e-06
4.60501e-06
-9.99827e-06
6.2088e-06
-8.61271e-06
6.52538e-06
-4.70104e-06
5.43862e-06
7.65396e-07
2.20553e-06
7.33029e-06
-1.59752e-06
1.20642e-05
-5.61516e-06
1.58812e-05
-7.97793e-06
1.61832e-05
-9.17003e-06
1.49365e-05
-1.02902e-05
1.50826e-05
-1.0552e-05
1.69624e-05
-3.69374e-06
2.37999e-05
9.85144e-06
2.91835e-05
3.39127e-05
4.26349e-05
5.30463e-05
9.8359e-05
5.88115e-05
0.000186307
6.41554e-05
0.000241432
7.27133e-05
0.000243238
7.5339e-05
0.00022165
6.29425e-05
0.000173828
4.02398e-05
0.000112595
2.09466e-05
5.72744e-05
1.27142e-05
2.07861e-05
6.73659e-06
1.07379e-05
3.23865e-06
4.35825e-06
2.36635e-06
-3.05027e-06
2.27555e-06
-7.62693e-06
2.93602e-06
-5.77956e-06
-6.28366e-07
2.33055e-06
-7.86674e-06
4.96005e-06
-1.26246e-05
6.62518e-06
-1.02738e-05
7.23393e-06
-5.30467e-06
5.07487e-06
2.93144e-06
-3.52477e-06
1.59364e-05
-8.54803e-06
1.70934e-05
-1.15697e-05
1.89103e-05
-1.1471e-05
1.60906e-05
-1.0612e-05
1.4084e-05
-1.06833e-05
1.51619e-05
-1.2035e-05
1.83251e-05
-1.10183e-05
2.27982e-05
-7.52873e-06
2.57102e-05
3.25841e-06
3.18652e-05
2.11424e-05
8.05023e-05
2.82633e-05
0.000179226
3.67383e-05
0.000232998
4.96461e-05
0.000230367
6.04575e-05
0.000210872
5.95791e-05
0.000174733
4.67709e-05
0.000125423
3.11152e-05
7.29438e-05
1.8319e-05
3.35902e-05
9.35314e-06
1.97084e-05
4.86696e-06
8.84772e-06
3.03814e-06
-1.21868e-06
1.84617e-06
-6.43108e-06
1.19665e-06
-5.12515e-06
5.739e-07
2.96259e-06
-1.08255e-05
5.83977e-06
-1.54987e-05
8.2981e-06
-1.27282e-05
1.02805e-05
-7.28169e-06
2.54662e-06
1.06724e-05
-9.82976e-06
2.83224e-05
-1.52378e-05
2.25098e-05
-1.59998e-05
1.96793e-05
-1.25684e-05
1.26655e-05
-9.99725e-06
1.15175e-05
-9.0385e-06
1.42094e-05
-1.03888e-05
1.96846e-05
-1.27173e-05
2.51397e-05
-1.58465e-05
2.88556e-05
-1.93169e-05
3.53529e-05
-1.87703e-05
7.99858e-05
-1.64898e-05
0.000176989
-1.00635e-06
0.000217557
1.93272e-05
0.00021007
3.88253e-05
0.000191404
4.81943e-05
0.000165391
4.6125e-05
0.000127514
3.60743e-05
8.301e-05
2.3172e-05
4.65019e-05
1.4691e-05
2.81947e-05
9.29436e-06
1.4246e-05
5.44226e-06
2.63405e-06
2.87732e-06
-3.86252e-06
1.45617e-06
-3.69984e-06
2.03514e-06
4.15121e-06
-1.49733e-05
8.06684e-06
-1.94115e-05
1.15836e-05
-1.62415e-05
1.47501e-05
-1.04436e-05
4.46992e-06
2.09603e-05
-1.06164e-05
4.34193e-05
-2.03393e-05
3.22421e-05
-1.82993e-05
1.76464e-05
-1.24107e-05
6.78386e-06
-8.31492e-06
7.42568e-06
-5.72308e-06
1.1623e-05
-6.20009e-06
2.01691e-05
-1.23212e-05
3.12728e-05
-2.80273e-05
4.45777e-05
-4.70371e-05
5.43882e-05
-6.1282e-05
9.42824e-05
-5.2368e-05
0.000168143