/*--------------------------------*- C++ -*----------------------------------*\
| =========                 |                                                 |
| \\      /  F ield         | OpenFOAM: The Open Source CFD Toolbox           |
|  \\    /   O peration     | Version:  v1606+                                |
|   \\  /    A nd           | Web:      www.OpenFOAM.com                      |
|    \\/     M anipulation  |                                                 |
\*---------------------------------------------------------------------------*/
FoamFile
{
    version     2.0;
    format      ascii;
    class       surfaceScalarField;
    location    "18";
    object      phi;
}
// * * * * * * * * * * * * * * * * * * * * * * * * * * * * * * * * * * * * * //

dimensions      [0 3 -1 0 0 0 0];

internalField   nonuniform List<scalar> 
9981
(
3.63333
0.00795611
3.60101
0.0323209
3.5492
0.0518069
3.47508
0.0741245
3.37754
0.0975342
3.26091
0.116636
3.12621
0.1347
2.96935
0.156862
2.79606
0.173288
2.60618
0.189879
2.39677
0.209406
2.1797
0.217074
1.94486
0.234838
1.69954
0.245323
1.45088
0.24865
1.17648
0.274408
0.911036
0.26544
0.662222
0.248814
0.337545
0.324676
0.337545
3.49805
0.0207468
3.46524
0.0651357
3.41224
0.104812
3.3383
0.148065
3.24474
0.191089
3.1331
0.228282
2.99856
0.269244
2.84922
0.306198
2.67735
0.345161
2.48739
0.379834
2.28712
0.409683
2.06091
0.443282
1.83225
0.463502
1.58574
0.491834
1.31256
0.521823
1.05396
0.53301
0.755338
0.564064
0.418601
0.585552
0.187732
0.555545
0.525277
3.37424
0.0315733
3.34444
0.094938
3.2927
0.15655
3.22412
0.216646
3.13361
0.281604
3.02318
0.338702
2.89799
0.394434
2.74919
0.455
2.58591
0.508437
2.40478
0.560971
2.20285
0.611613
1.98875
0.657376
1.75251
0.699744
1.49699
0.747358
1.2271
0.791706
0.93255
0.827563
0.614896
0.881718
0.300902
0.899546
-0.0924355
0.948883
0.432842
3.25317
0.0422086
3.22426
0.123848
3.17796
0.202852
3.11109
0.283513
3.02566
0.367042
2.92286
0.441497
2.80161
0.515687
2.66278
0.593825
2.50891
0.662313
2.34012
0.729757
2.15761
0.79412
1.96849
0.846502
1.76845
0.899783
1.5674
0.948409
1.36797
0.991134
1.16821
1.02733
0.984202
1.06572
0.831222
1.05253
0.643866
1.13624
1.07671
3.13814
0.0509492
3.11059
0.151397
3.06613
0.24731
3.002
0.347647
2.92258
0.446464
2.82575
0.538322
2.71109
0.630353
2.57998
0.724931
2.43358
0.808716
2.27092
0.892415
2.09742
0.967626
1.91041
1.0335
1.71472
1.09548
1.50951
1.15362
1.29752
1.20312
1.07446
1.25039
0.859805
1.28038
0.615538
1.29679
0.372815
1.37896
1.44952
3.02574
0.0593551
3.00005
0.177086
2.95852
0.288847
2.89951
0.406649
2.82426
0.52172
2.73242
0.630165
2.62274
0.740026
2.49913
0.848544
2.3563
0.951546
2.19975
1.04897
2.02632
1.14105
1.8415
1.21832
1.63891
1.29806
1.42901
1.36353
1.20003
1.4321
0.973026
1.47739
0.739375
1.51403
0.502851
1.53332
0.255024
1.62679
1.70455
2.91776
0.0670505
2.89457
0.200278
2.85566
0.327755
2.80146
0.460846
2.73097
0.592207
2.64365
0.717491
2.54099
0.842685
2.42202
0.967509
2.28654
1.08702
2.13386
1.20166
1.96974
1.30517
1.78763
1.40043
1.59995
1.48575
1.39306
1.57042
1.18546
1.6397
0.953182
1.70967
0.722271
1.74494
0.439732
1.81586
0.180151
1.88637
1.8847
2.81384
0.0738597
2.79237
0.221753
2.75678
0.363342
2.70755
0.510076
2.64261
0.657146
2.56186
0.798245
2.46675
0.937796
2.35448
1.07978
2.22692
1.21458
2.08365
1.34493
1.92574
1.46308
1.75388
1.57228
1.56328
1.67635
1.36384
1.76985
1.13444
1.86911
0.909786
1.93432
0.653688
2.00104
0.438847
2.0307
0.199448
2.12577
2.08415
2.71324
0.0802275
2.69413
0.240857
2.66265
0.394827
2.61917
0.553558
2.55979
0.716525
2.48841
0.86962
2.39942
1.02679
2.29778
1.18143
2.17668
1.33567
2.04441
1.4772
1.89271
1.61479
1.72862
1.73637
1.55144
1.85353
1.35909
1.9622
1.17035
2.05785
0.954243
2.15043
0.757988
2.19729
0.489832
2.29885
0.254724
2.36088
2.33887
2.61637
0.0860373
2.60014
0.257087
2.57401
0.420957
2.53505
0.592514
2.48444
0.767137
2.41925
0.934811
2.34215
1.10389
2.24628
1.2773
2.13882
1.44313
2.01095
1.60508
1.87247
1.75326
1.71218
1.89666
1.53928
2.02643
1.34912
2.15236
1.12847
2.2785
0.916775
2.36212
0.649318
2.46475
0.461447
2.48672
0.237206
2.58512
2.57608
2.52366
0.0906138
2.51078
0.269969
2.48856
0.443179
2.45632
0.624755
2.41332
0.81014
2.35786
0.990267
2.28951
1.17224
2.20647
1.36033
2.10706
1.54253
1.99345
1.71869
1.85982
1.88689
1.71389
2.0426
1.55021
2.1901
1.37253
2.33004
1.19827
2.45276
0.98637
2.57402
0.822831
2.62829
0.537159
2.77239
0.335153
2.78713
2.91123
2.43423
0.0940556
2.42451
0.279683
2.40632
0.461373
2.38248
0.648596
2.347
0.845619
2.30369
1.03358
2.24424
1.23168
2.17594
1.42864
2.08748
1.631
1.9857
1.82047
1.86542
2.00717
1.72553
2.18249
1.56662
2.34901
1.38639
2.51027
1.16405
2.6751
0.952488
2.78558
0.64264
2.93814
0.469385
2.94565
0.172409
3.0841
3.08364
2.34887
0.0955298
2.34086
0.287694
2.3296
0.472629
2.31137
0.666825
2.28962
0.867369
2.25164
1.07156
2.212
1.27132
2.14986
1.49078
2.08174
1.69911
1.99031
1.9119
1.88339
2.11408
1.75571
2.31017
1.60811
2.49661
1.43943
2.67895
1.26958
2.84495
1.04635
3.0088
0.898042
3.08645
0.545289
3.2984
0.398234
3.23116
3.48187
2.2654
0.0962701
2.26163
0.291472
2.25475
0.479506
2.24817
0.673403
2.23094
0.884596
2.21265
1.08986
2.17756
1.30642
2.1406
1.52773
2.07998
1.75974
2.01145
1.98043
1.91959
2.20594
1.80793
2.42183
1.67296
2.63159
1.5074
2.84451
1.29651
3.05584
1.07669
3.22862
0.71305
3.45009
0.540049
3.4714
0.0934657
3.67774
3.57534
2.18475
0.0964831
2.18505
0.291172
2.1854
0.479152
2.184
0.674807
2.1807
0.887891
2.17063
1.09993
2.1576
1.31945
2.12825
1.55709
2.09586
1.79212
2.03883
2.03746
1.96995
2.27482
1.87629
2.51548
1.7549
2.75299
1.60802
2.99138
1.43654
3.22733
1.21838
3.44678
1.07424
3.59423
0.668851
3.87679
0.578407
3.76818
4.15374
2.10959
0.0935809
2.11178
0.288985
2.11789
0.473035
2.12221
0.67049
2.13234
0.877765
2.13383
1.09844
2.13525
1.31803
2.13023
1.5621
2.1089
1.81346
2.08518
2.06117
2.03514
2.32486
1.9695
2.58112
1.87819
2.8443
1.74911
3.12046
1.57987
3.39657
1.34778
3.67886
0.965237
3.97678
0.749579
4.09245
0.1048
4.41296
4.25854
2.03299
0.0918123
2.04141
0.280559
2.04834
0.466104
2.0679
0.650933
2.07836
0.867299
2.10369
1.07311
2.11387
1.30785
2.12863
1.54734
2.13655
1.80554
2.12574
2.07198
2.11206
2.33854
2.0686
2.62458
2.00219
2.91072
1.90601
3.21664
1.75479
3.54779
1.57474
3.85892
1.4007
4.15082
0.961546
4.5316
0.895297
4.47921
5.15384
1.9625
0.0877625
1.9718
0.271256
1.98898
0.448925
2.00401
0.635904
2.03978
0.831526
2.05936
1.05353
2.10169
1.26552
2.1264
1.52263
2.15741
1.77453
2.18324
2.04615
2.19096
2.33082
2.19722
2.61833
2.17132
2.93661
2.11707
3.2709
2.02544
3.63942
1.83575
4.04861
1.50733
4.47923
1.17557
4.86336
0.250286
5.4045
5.40413
1.89618
0.079875
1.90641
0.261022
1.92265
0.432686
1.95227
0.606284
1.98319
0.800605
2.03325
1.00348
2.06635
1.23242
2.13023
1.45875
2.1703
1.73447
2.22398
1.99246
2.27271
2.2821
2.30386
2.58717
2.33214
2.90834
2.33317
3.26986
2.28179
3.6908
2.21553
4.11487
2.03442
4.66034
1.66113
5.23665
1.68664
5.37899
7.09077
1.82336
0.0771572
1.84016
0.244223
1.85625
0.416602
1.89485
0.56768
1.93137
0.764086
1.98464
0.950205
2.04942
1.16764
2.10719
1.40097
2.19359
1.64807
2.26738
1.91867
2.34551
2.20397
2.44005
2.49263
2.49991
2.84848
2.58422
3.18555
2.6475
3.62752
2.58602
4.17636
2.63588
4.61047
2.18151
5.69102
1.25635
6.30416
8.34711
-2.99124
2.99124
-4.21207
1.22083
-4.62867
0.416603
-5.15498
0.526301
-5.74805
0.593076
-6.35851
0.610456
-6.78591
0.427399
-7.00497
0.219067
-7.22868
0.223711
-7.37868
0.149998
-7.41395
0.0352657
-7.28743
-0.126515
-7.0486
-0.238829
-6.65375
-0.394856
-5.4296
-1.22415
-0.863043
-4.56656
3.90079
-4.76384
7.33278
-3.43198
9.6673
-2.33452
11.2143
-1.54704
12.1775
-0.963124
12.7246
-0.547082
12.9998
-0.275241
13.1036
-0.103797
13.1006
0.00298622
13.0269
0.073712
12.9248
0.102081
12.8123
0.112534
12.7009
0.111341
12.5961
0.1048
12.4996
0.0965818
12.4109
0.0886422
12.3288
0.0821502
12.2513
0.0774595
12.1771
0.0741808
12.1053
0.0717965
12.0355
0.0698651
11.9669
0.0685088
11.9002
0.066786
11.8347
0.0654167
11.7708
0.0639299
11.7077
0.0631039
11.6458
0.0618978
11.5887
0.0571063
11.5396
0.0491083
11.5042
0.0353698
11.4783
0.0259474
11.4525
0.025777
11.4192
0.03326
11.3805
0.0387101
11.3545
0.0260507
11.3377
0.0167386
11.3424
-0.00462198
11.3414
0.00100595
11.3209
0.0204299
11.3038
0.0171469
11.2921
0.0116575
11.2785
0.0136611
11.3109
-0.032418
-0.0164728
-1.37537
4.36661
-2.04049
1.88594
-2.62323
0.999349
-3.37415
1.27721
-4.26166
1.48059
-5.31767
1.66646
-6.31547
1.4252
-7.0494
0.952994
-7.34919
0.523501
-7.4468
0.247609
-7.40113
-0.0104091
-7.07086
-0.456784
-6.1901
-1.11959
-4.58757
-1.99739
-2.89016
-2.92156
0.554696
-8.01142
4.02894
-8.23808
6.93673
-6.33978
9.17586
-4.57365
10.7699
-3.14112
11.8102
-2.00336
12.421
-1.15794
12.7438
-0.598043
12.8845
-0.244501
12.9094
-0.0218726
12.8908
0.0923333
12.8377
0.155138
12.7718
0.178419
12.704
0.179128
12.6398
0.169087
12.5808
0.155503
12.527
0.14249
12.477
0.132149
12.4295
0.12499
12.3832
0.120445
12.3373
0.117691
12.2912
0.11598
12.2447
0.115035
12.1977
0.113746
12.1505
0.112612
12.103
0.1114
12.0556
0.110527
12.0096
0.107893
11.9675
0.0992697
11.932
0.0845477
11.9022
0.0652326
11.8758
0.0523287
11.8514
0.0501098
11.8296
0.0551018
11.8114
0.0568892
11.7955
0.0419896
11.7847
0.0275207
11.7691
0.0109325
11.7586
0.0115336
11.7547
0.0243755
11.7548
0.0170094
11.7561
0.0103465
11.7681
0.0016934
11.7729
-0.0372366
-0.0212513
-0.375214
4.74183
-0.223633
1.73436
-0.351819
1.12754
-0.51761
1.443
-0.986938
1.94992
-2.23373
2.91327
-4.41494
3.60641
-6.44905
2.9871
-7.16798
1.24241
-7.50068
0.58032
-7.79664
0.285549
-7.85312
-0.400321
-7.48921
-1.4835
-4.28229
-5.20432
-1.17236
-6.03148
1.97532
-11.1591
4.50539
-10.7681
6.89167
-8.72605
8.9227
-6.60468
10.4412
-4.6596
11.4566
-3.01879
12.0675
-1.76882
12.4065
-0.937017
12.577
-0.415068
12.6582
-0.10309
12.683
0.0675715
12.6782
0.159927
12.6588
0.197842
12.6334
0.204552
12.607
0.195448
12.5816
0.180875
12.5573
0.166832
12.5333
0.156156
12.5088
0.149469
12.4832
0.146063
12.4559
0.144977
12.4266
0.145314
12.3952
0.146421
12.3619
0.147018
12.3273
0.147233
12.2916
0.147051
12.2556
0.146555
12.2204
0.1431
12.1876
0.132057
12.159
0.113211
12.1339
0.0902637
12.1123
0.0739472
12.0939
0.068483
12.0792
0.069808
12.0677
0.0684558
12.0558
0.0538726
12.0451
0.0381717
12.0345
0.0215941
12.0277
0.0182915
12.0287
0.0234281
12.0313
0.0143344
12.0371
0.00458328
12.0462
-0.00740023
12.046
-0.0370667
-0.0232545
0.404171
4.33766
1.00134
1.13719
1.35028
0.778599
1.81398
0.979311
2.6201
1.14379
4.3571
1.17627
6.46853
1.49497
5.59283
3.86284
1.64803
5.18717
-2.80466
5.03303
-6.90335
4.38422
-9.76989
2.46619
-10.0996
-1.1538
-5.50586
-9.79803
0.95216
-12.4895
3.36365
-13.5706
5.21275
-12.6172
7.12343
-10.6367
8.88476
-8.36601
10.2479
-6.0227
11.17
-3.94091
11.7348
-2.33367
12.0757
-1.27792
12.2834
-0.622786
12.4121
-0.231736
12.4967
-0.0170612
12.5463
0.110385
12.5778
0.166352
12.5966
0.185686
12.6078
0.184266
12.6138
0.174872
12.6156
0.165071
12.6133
0.15838
12.6072
0.155588
12.5974
0.15593
12.5839
0.158482
12.5667
0.162449
12.5462
0.166983
12.5226
0.170554
12.497
0.172854
12.47
0.174015
12.4424
0.174166
12.4149
0.170602
12.3886
0.158429
12.3648
0.136937
12.3442
0.110924
12.3269
0.0912352
12.3131
0.0822281
12.3027
0.0802445
12.2946
0.0765535
12.2863
0.0621604
12.2789
0.0455663
12.2716
0.0289332
12.2677
0.0221381
12.2697
0.0214256
12.2739
0.0101941
12.2807
-0.00225704
12.2885
-0.0152383
12.289
-0.0375481
-0.0223254
1.2453
3.09236
1.68191
0.700574
1.90366
0.556847
2.16615
0.71682
2.51094
0.799006
2.9519
0.735317
3.42315
1.0237
4.87785
2.40817
5.05737
5.00765
2.10968
7.98065
-2.4865
8.98036
-5.40551
5.38524
-5.36502
-1.1943
-1.14419
-14.0188
2.40715
-16.0408
4.42446
-15.5879
5.90278
-14.0956
7.46256
-12.1965
8.95615
-9.8596
10.1151
-7.18164
10.8924
-4.71826
11.3854
-2.8266
11.7428
-1.63531
12.0122
-0.892231
12.2175
-0.437025
12.3693
-0.168854
12.485
-0.00529066
12.5703
0.0810496
12.6317
0.124227
12.6764
0.139607
12.7082
0.143087
12.7298
0.143454
12.7429
0.145244
12.7489
0.149659
12.7488
0.156043
12.7435
0.163715
12.7337
0.172307
12.7196
0.181092
12.7018
0.188261
12.6817
0.192973
12.6604
0.195358
12.6386
0.195974
12.6166
0.192622
12.5947
0.180338
12.5741
0.157519
12.556
0.128986
12.5413
0.105993
12.5304
0.0930983
12.5228
0.0877996
12.5173
0.0820782
12.5119
0.0675437
12.5069
0.0505837
12.5021
0.0337427
12.5001
0.0240994
12.5026
0.0189771
12.5071
0.00564696
12.5139
-0.00907949
12.5209
-0.0221482
12.5212
-0.0378733
-0.0203693
1.62152
1.47085
1.84237
0.479725
2.01088
0.388337
2.18992
0.537785
2.35003
0.63889
2.51524
0.570106
2.80927
0.729666
3.40469
1.81275
4.56334
3.84899
4.68684
7.85714
1.48216
12.185
-0.95752
7.82492
1.10313
-3.25491
2.73481
-15.6505
4.14429
-17.4503
5.29238
-16.736
6.47337
-15.2766
7.77758
-13.5007
9.02387
-11.1059
9.94176
-8.09953
10.5509
-5.32742
10.9851
-3.26079
11.4293
-2.07954
11.808
-1.2709
12.1096
-0.738605
12.3405
-0.399739
12.5156
-0.180477
12.6426
-0.0458793
12.7351
0.0316649
12.8027
0.0720523
12.8505
0.0953009
12.8834
0.110554
12.9047
0.123945
12.9169
0.137433
12.9221
0.15083
12.9218
0.164057
12.9166
0.177447
12.9071
0.190648
12.8938
0.201558
12.878
0.208753
12.8612
0.212194
12.8442
0.212907
12.8273
0.209555
12.8099
0.197765
12.792
0.175406
12.7748
0.146181
12.7603
0.120474
12.7507
0.1027
12.7451
0.0934214
12.7416
0.0855441
12.7386
0.0705206
12.7355
0.0536985
12.7323
0.0369351
12.7313
0.0251029
12.7338
0.0165058
12.7381
0.00134481
12.7443
-0.0153127
12.7496
-0.0274464
12.7497
-0.0379563
-0.0169772
1.18591
0.284934
1.59686
0.0687774
1.85587
0.129327
2.04836
0.345298
2.14464
0.54261
2.19142
0.523328
2.36741
0.553673
2.72472
1.45544
3.25744
3.31626
4.9322
6.18241
3.82156
13.2956
1.53714
10.1093
3.91075
-5.62849
4.98486
-16.7246
5.38723
-17.8526
6.0096
-17.3584
6.91823
-16.1852
8.00105
-14.5836
9.01327
-12.1181
9.6966
-8.78286
10.1857
-5.81654
10.6412
-3.71628
11.2336
-2.67189
11.7374
-1.77471
12.1235
-1.12477
12.4119
-0.688095
12.6228
-0.391359
12.7761
-0.199168
12.8871
-0.0793376
12.9659
-0.00680532
13.0205
0.0407673
13.0571
0.0739043
13.0803
0.100724
13.0935
0.124237
13.0994
0.144997
13.0999
0.163508
13.0964
0.180996
13.0892
0.197831
13.0788
0.211952
13.0662
0.221387
13.0528
0.225543
13.0403
0.225433
13.0289
0.220914
13.017
0.209678
13.0023
0.190074
12.9852
0.16328
12.97
0.135721
12.962
0.110665
12.9595
0.0960027
12.9591
0.085854
12.9593
0.070338
12.9585
0.0545037
12.9566
0.0388302
12.9563
0.0254689
12.9595
0.0132367
12.9649
-0.00406218
12.9716
-0.0220271
12.9758
-0.0316346
12.9763
-0.0384096
-0.011784
0.733761
-0.448825
1.21316
-0.410621
1.55663
-0.214141
1.80594
0.0959828
1.91308
0.435474
1.88262
0.553785
1.96064
0.475655
2.20659
1.20949
2.48243
3.04041
3.3892
5.27564
4.02762
12.6572
2.24582
11.8911
4.87954
-8.26219
5.80475
-17.6498
6.12631
-18.1742
6.54021
-17.7723
7.23117
-16.8761
8.11957
-15.4719
9.00155
-13.0001
9.47708
-9.25839
9.46748
-5.80693
10.3925
-4.64127
11.3762
-3.65562
11.9035
-2.30204
12.2306
-1.45182
12.4417
-0.899202
12.5777
-0.527351
12.6635
-0.284999
12.7151
-0.130887
12.7464
-0.0381752
12.7726
0.0145869
12.8039
0.0425915
12.8617
0.0429685
12.9463
0.0396607
13.0396
0.0516909
13.1202
0.0828805
13.1758
0.125387
13.2077
0.165897
13.2227
0.197044
13.2268
0.217265
13.225
0.227304
13.2213
0.229117
13.2175
0.224738
13.212
0.215169
13.202
0.20009
13.1874
0.177906
13.1733
0.149774
13.1652
0.118753
13.1642
0.0970378
13.167
0.083026
13.1692
0.0682039
13.1685
0.0551515
13.1657
0.0416821
13.1649
0.0262458
13.1685
0.00961982
13.1737
-0.00923032
13.1786
-0.026911
13.1783
-0.0313359
13.1675
-0.0276731
-0.00524874
0.399309
-0.848134
0.813669
-0.824981
1.18605
-0.586518
1.49538
-0.213356
1.6632
0.26766
1.56369
0.653293
1.5223
0.517039
1.71557
1.01623
1.83776
2.91822
1.47163
5.64177
2.96864
11.1602
2.10757
12.7522
5.79331
-11.9479
6.35109
-18.2075
6.56045
-18.3836
6.87245
-18.0843
7.41855
-17.4222
8.17455
-16.2279
9.29628
-14.1218
11.6381
-11.6002
12.1131
-6.28192
12.2191
-4.74721
12.1284
-3.56499
12.2394
-2.41301
12.3516
-1.564
12.4271
-0.974642
12.4681
-0.568424
12.482
-0.29885
12.4766
-0.125498
12.4498
-0.0114032
12.4204
0.0439695
12.3959
0.06711
12.3782
0.0607312
12.3748
0.0430492
12.3866
0.0398993
12.4059
0.063565
12.4253
0.106029
12.4392
0.151962
12.4458
0.190441
12.4463
0.216739
12.4432
0.23049
12.4388
0.233462
12.4349
0.228658
12.4311
0.218922
12.4262
0.205029
12.4195
0.184571
12.4138
0.155536
12.4105
0.122034
12.4119
0.0956701
12.4175
0.077374
12.4237
0.062052
12.4294
0.0494742
12.4346
0.0364595
12.4407
0.0200935
12.4499
0.000442293
12.4578
-0.0171411
12.4632
-0.0323185
12.4651
-0.033191
12.4616
-0.0241718
-0.00657377
0.155045
-1.00318
0.44028
-1.11022
0.789926
-0.936165
1.13318
-0.556609
1.37443
0.0264035
1.2664
0.761329
0.970825
0.812614
1.11204
0.875011
1.45278
2.57749
1.2392
5.85536
2.34004
10.0593
2.9172
12.175
6.5058
-15.5365
6.68784
-18.3896
6.79321
-18.4889
7.04649
-18.3375
7.51373
-17.8895
8.23285
-16.9471
9.48099
-15.37
9.62306
-11.7423
11.398
-8.05688
11.9406
-5.28979
11.9713
-3.59568
11.9932
-2.43494
12.0258
-1.59651
12.0478
-0.996716
12.0557
-0.576242
12.0479
-0.291033
12.0252
-0.102823
11.9951
0.0186671
11.9524
0.0866515
11.9048
0.114755
11.8552
0.110311
11.8087
0.0896
11.7711
0.0774257
11.7457
0.0889937
11.7305
0.121253
11.7211
0.161323
11.7142
0.197403
11.7079
0.223019
11.7021
0.236327
11.6971
0.238433
11.6934
0.232346
11.6912
0.221154
11.6906
0.205655
11.6915
0.18358
11.6939
0.153209
11.697
0.118929
11.7026
0.0900754
11.7112
0.0687145
11.7213
0.0519513
11.7325
0.0382859
11.7448
0.0242056
11.7577
0.00721478
11.7694
-0.0112965
11.7796
-0.0272936
11.7859
-0.0386568
11.7898
-0.0371331
11.7925
-0.0268701
-0.0138309
-0.0483617
-0.954816
0.100096
-1.25867
0.392946
-1.22902
0.751463
-0.915126
1.08099
-0.303124
1.10466
0.73766
0.261688
1.65559
0.250558
0.886142
0.622669
2.20538
0.989626
5.4884
1.34908
9.69987
4.27713
9.247
6.71876
-17.9781
6.7858
-18.4566
6.89646
-18.5996
7.11863
-18.5597
7.5282
-18.299
8.30799
-17.7268
9.23987
-16.3019
9.66515
-12.1676
10.1928
-8.58455
10.6824
-5.77931
10.9564
-3.86978
11.1192
-2.59773
11.2269
-1.7042
11.2988
-1.06855
11.3448
-0.622232
11.3688
-0.315094
11.3737
-0.107688
11.3626
0.0297797
11.3348
0.114455
11.2935
0.156018
11.2416
0.162273
11.1834
0.14774
11.1269
0.133906
11.0795
0.13641
11.0442
0.156629
11.0196
0.18586
11.0031
0.213945
10.992
0.234143
10.9846
0.243688
10.9801
0.242917
10.9783
0.234206
10.9793
0.220099
10.9837
0.20129
10.991
0.176309
10.9996
0.144527
11.0085
0.110018
11.0189
0.0797212
11.0316
0.0560086
11.0463
0.0373011
11.0627
0.0218247
11.0803
0.00661143
11.0975
-0.00998643
11.1127
-0.0264837
11.1252
-0.0397487
11.1339
-0.0473683
11.1412
-0.0444323
11.1492
-0.0349003
-0.0242285
-0.20154
-0.753276
-0.200211
-1.26
-0.0063201
-1.42291
0.346927
-1.26837
0.804823
-0.761019
0.982478
0.560003
-0.161833
2.79989
-0.746895
1.4712
-0.539134
1.99762
-0.0371892
4.98646
-1.41248
11.0752
5.89871
1.93582
6.60559
-18.685
6.76199
-18.613
6.9056
-18.7432
7.13028
-18.7844
7.47791
-18.6467
7.9514
-18.2003
8.15771
-16.5081
8.29833
-12.3082
8.69726
-8.98348
9.15172
-6.23377
9.54659
-4.26465
9.84883
-2.89997
10.0753
-1.93066
10.2449
-1.23822
10.3712
-0.748465
10.4618
-0.405686
10.5217
-0.167559
10.5552
-0.00379693
10.5644
0.105269
10.5522
0.168225
10.5212
0.193328
10.476
0.192937
10.4248
0.18506
10.3767
0.184501
10.3377
0.195696
10.3093
0.214213
10.2905
0.232724
10.2793
0.245401
10.2736
0.249313
10.2723
0.244235
10.2748
0.231793
10.281
0.213881
10.2911
0.191173
10.3043
0.163066
10.319
0.129851
10.334
0.0950628
10.3499
0.0637887
10.3677
0.0382493
10.3873
0.0176754
10.4086
0.00055613
10.4305
-0.0152928
10.4514
-0.0308734
10.4698
-0.0449467
10.4852
-0.0550976
10.4973
-0.0594692
10.5083
-0.0554974
10.5201
-0.0466927
-0.0368988
-0.303466
-0.44981
-0.440644
-1.12283
-0.409836
-1.45371
-0.169741
-1.50847
0.320404
-1.25116
0.999478
-0.119071
0.846279
2.95309
-1.57148
3.88897
-2.05889
2.48502
-1.68368
4.61125
-3.05059
12.4421
7.02609
-8.14088
6.60848
-18.2674
6.69851
-18.703
6.86659
-18.9113
7.09229
-19.0101
7.39142
-18.9458
7.59966
-18.4086
7.28542
-16.1939
7.18803
-12.2108
7.33302
-9.12848
7.68683
-6.58758
8.08221
-4.66003
8.44172
-3.25948
8.74949
-2.23843
9.0062
-1.49492
9.21573
-0.957988
9.38216
-0.572113
9.50942
-0.294826
9.60113
-0.0955153
9.66145
0.0449542
9.69294
0.136739
9.69874
0.187524
9.68368
0.208005
9.65563
0.213113
9.62385
0.216284
9.59572
0.223834
9.57502
0.234921
9.56247
0.245267
9.5572
0.25067
9.55783
0.248677
9.5632
0.238873
9.57266
0.22234
9.58606
0.20049
9.60318
0.174058
9.6231
0.143141
9.64431
0.108632
9.66585
0.0735261
9.68803
0.0416087
9.71148
0.0148069
9.73629
-0.00713113
9.76214
-0.0252812
9.78797
-0.04112
9.81232
-0.055218
9.834
-0.0666348
9.85257
-0.0736663
9.86826
-0.0751741
9.88281
-0.0700531
9.89738
-0.0612775
-0.0512882
-0.33143
-0.11838
-0.593095
-0.861163
-0.737707
-1.3091
-0.639644
-1.60653
-0.387346
-1.50346
0.130329
-0.636746
1.67114
1.41228
-1.74329
7.3034
-3.92241
4.6641
-5.39029
6.07915
-2.32454
9.37627
6.47239
-16.9378
6.51713
-18.3121
6.65622
-18.8421
6.82351
-19.0786
7.01979
-19.2064
7.18999
-19.116
7.28006
-18.4987
6.48059
-15.3945
6.27351
-12.0037
6.25073
-9.1057
6.4402
-6.77706
6.74175
-4.96158
7.07327
-3.591
7.39908
-2.56424
7.70154
-1.79738
7.97051
-1.22695
8.20094
-0.80255
8.39143
-0.485327
8.54313
-0.247218
8.65861
-0.0705253
8.74044
0.0549184
8.79166
0.136303
8.8169
0.18276
8.82336
0.206662
8.81973
0.21992
8.81374
0.229838
8.81039
0.238267
8.81196
0.243699
8.81881
0.243809
8.83044
0.237048
8.84614
0.223184
8.86542
0.203063
8.88806
0.177857
8.91369
0.148426
8.94144
0.115392
8.97007
0.0800022
8.99879
0.0448022
9.02771
0.0126854
9.05723
-0.0146995
9.08737
-0.0372629
9.11774
-0.0556524
9.14742
-0.0707906
9.17518
-0.0829806
9.20013
-0.0915834
9.22199
-0.0955314
9.24112
-0.0943085
9.25872
-0.0876608
9.27548
-0.0780491
-0.0670235
-0.292938
0.174557
-0.645308
-0.508794
-0.941427
-1.01298
-1.01588
-1.53207
-0.938989
-1.58035
-0.639795
-0.935939
-0.148832
0.921315
-5.3512
12.5058
-10.3176
9.63045
-11.2841
7.04566
3.9765
-5.8843
6.01394
-18.9752
6.43856
-18.7367
6.60275
-19.0063
6.76839
-19.2442
6.92924
-19.3672
7.0103
-19.1971
6.74668
-18.235
5.9202
-14.568
5.49306
-11.5766
5.3483
-8.96093
5.39385
-6.82262
5.57049
-5.13823
5.82264
-3.84316
6.11385
-2.85545
6.41743
-2.10095
6.71227
-1.52179
6.98356
-1.07385
7.22264
-0.724409
7.42587
-0.450448
7.59274
-0.237393
7.72443
-0.0767757
7.82318
0.0375571
7.89287
0.113076
7.93959
0.159943
7.97103
0.188487
7.99453
0.20635
8.01558
0.217216
8.03744
0.221828
8.06158
0.219672
8.08833
0.210294
8.1176
0.193923
8.1492
0.171464
8.18299
0.144073
8.21862
0.112802
8.25535
0.0786591
8.29225
0.0430974
8.32873
0.00832127
8.36479
-0.0233678
8.40063
-0.0505352
8.43623
-0.0728571
8.47121
-0.0906272
8.50479
-0.104366
8.53604
-0.114229
8.56431
-0.119848
8.58943
-0.120662
8.61173
-0.116615
8.63198
-0.107924
8.65055
-0.0966199
-0.0839136
-0.193232
0.367789
-0.583165
-0.118861
-1.04657
-0.54958
-1.27066
-1.30798
-1.31686
-1.53416
-1.13393
-1.11887
-1.52107
1.30845
-5.04073
16.0254
-7.70612
12.2958
-3.81569
3.15523
6.37521
-16.0752
6.09212
-18.6921
6.32682
-18.9714
6.51492
-19.1944
6.68902
-19.4183
6.80069
-19.4789
6.75478
-19.1512
5.98689
-17.4671
5.30954
-13.8906
4.81816
-11.0852
4.57087
-8.71366
4.4977
-6.74945
4.55393
-5.19447
4.70789
-3.99711
4.93332
-3.08087
5.20394
-2.37156
5.49362
-1.81147
5.78038
-1.36062
6.04875
-0.992781
6.28964
-0.691332
6.4987
-0.446452
6.67458
-0.252658
6.81792
-0.105777
6.93135
-0.000354857
7.01947
0.0718304
7.08864
0.11933
7.14531
0.149678
7.19489
0.167634
7.24111
0.175604
7.28616
0.174624
7.33111
0.165342
7.37644
0.148605
7.42232
0.125589
7.46878
0.0976169
7.5156
0.065979
7.56228
0.031982
7.60817
-0.00279222
7.65286
-0.036372
7.69633
-0.0668343
7.73869
-0.0928863
7.77988
-0.114042
7.81958
-0.130325
7.8572
-0.141981
7.89206
-0.149093
7.92372
-0.151503
7.95207
-0.14902
7.97734
-0.141891
7.99998
-0.130573
8.02015
-0.116797
-0.101918
-0.0813467
0.449135
-0.451233
0.251025
-1.06287
0.0620611
-1.41546
-0.955392
-1.60298
-1.34664
-1.44359
-1.27827
-3.0616
2.92645
-4.13551
17.0993
-3.71336
11.8736
3.21673
-3.77491
5.92827
-18.7868
6.1151
-18.879
6.2583
-19.1146
6.43001
-19.3661
6.59246
-19.5808
6.64405
-19.5305
6.57905
-19.0862
5.40922
-16.2973
4.76047
-13.2419
4.24116
-10.5659
3.89946
-8.37197
3.71907
-6.56906
3.66631
-5.14172
3.72095
-4.05174
3.8672
-3.22711
4.08413
-2.58849
4.34548
-2.07284
4.62561
-1.64075
4.90407
-1.27124
5.16701
-0.954266
5.40618
-0.685623
5.61731
-0.463792
5.79892
-0.287377
5.95173
-0.153165
6.07891
-0.0553443
6.18506
0.0131871
6.27549
0.0592479
6.35507
0.0880599
6.42753
0.103134
6.49546
0.106699
6.56042
0.100383
6.62334
0.0856902
6.68474
0.0641982
6.74486
0.0374996
6.80368
0.0071542
6.86095
-0.0252827
6.91629
-0.0581329
6.96948
-0.0895636
7.02053
-0.117879
7.06952
-0.141868
7.11641
-0.160929
7.16098
-0.174891
7.20282
-0.183815
7.24147
-0.187746
7.27663
-0.18667
7.30824
-0.180634
7.3364
-0.170056
7.36133
-0.15551
7.38309
-0.138565
-0.121114
-0.0505376
0.499672
-0.357405
0.55789
-0.973904
0.678558
-1.45828
-0.471015
-1.86577
-0.939145
-2.28525
-0.858804
-4.22299
4.86428
-4.05685
16.9332
-1.6752
9.49207
6.02809
-11.4781
5.99958
-18.7582
6.06827
-18.9477
6.18974
-19.2361
6.35291
-19.5293
6.49116
-19.719
6.54641
-19.5857
6.17797
-18.7177
5.08466
-15.204
4.27637
-12.4336
3.7086
-9.99818
3.29911
-7.9625
3.03078
-6.30073
2.88389
-4.99483
2.84659
-4.01443
2.91169
-3.29223
3.06511
-2.74192
3.2834
-2.29114
3.54013
-1.89749
3.81214
-1.54325
4.08215
-1.22427
4.33862
-0.942095
4.57446
-0.699628
4.78584
-0.498758
4.9716
-0.338921
5.13294
-0.216678
5.27281
-0.12668
5.39515
-0.0630871
5.50395
-0.0207459
5.60264
0.0044453
5.69382
0.0155159
5.77933
0.0148774
5.86039
0.00463951
5.93777
-0.0131772
6.01195
-0.0366713
6.08311
-0.0640044
6.15123
-0.0934082
6.21621
-0.123111
6.278
-0.151348
6.33667
-0.176544
6.39233
-0.197528
6.44502
-0.213612
6.49462
-0.224485
6.54089
-0.230081
6.58355
-0.230412
6.62242
-0.22554
6.65742
-0.215638
6.68855
-0.201192
6.71585
-0.182821
6.73934
-0.162065
-0.141666
-0.128563
0.628235
-0.36471
0.794036
-0.88469
1.19854
-1.45049
0.0947846
-1.98087
-0.408755
-2.90722
0.0675329
-2.89676
4.85373
-2.78262
16.819
0.630032
6.07943
6.17426
-17.0224
5.96721
-18.5512
5.99287
-18.9733
6.1138
-19.357
6.27242
-19.6879
6.35445
-19.8011
6.30438
-19.5357
5.44087
-17.8542
4.57085
-14.334
3.79262
-11.6554
3.20013
-9.40569
2.74705
-7.50941
2.41347
-5.96716
2.18945
-4.7708
2.07133
-3.89631
2.0595
-3.28041
2.14677
-2.82921
2.31388
-2.45824
2.53561
-2.11922
2.78804
-1.79568
3.05201
-1.48824
3.31357
-1.20366
3.56326
-0.949317
3.79508
-0.730578
4.0059
-0.54973
4.19501
-0.405783
4.36363
-0.295302
4.51424
-0.213691
4.64977
-0.156275
4.77307
-0.118856
4.88651
-0.0979304
4.99195
-0.0905586
5.09073
-0.0941358
5.18382
-0.106256
5.27184
-0.124692
5.3552
-0.147358
5.43409
-0.172294
5.50861
-0.197637
5.5789
-0.221633
5.64512
-0.242761
5.70746
-0.259859
5.76602
-0.27217
5.82082
-0.279282
5.87177
-0.281027
5.91873
-0.277374
5.96158
-0.268397
6.00023
-0.254297
6.03458
-0.235543
6.0645
-0.212753
6.08998
-0.187556
-0.163812
-0.264989
0.893224
-0.504689
1.03374
-0.92431
1.61816
-1.42779
0.598268
-1.87102
0.0344698
-2.61275
0.809264
-1.40806
3.64903
-0.767225
16.1782
4.33214
0.980089
5.81584
-18.5061
5.87954
-18.6149
5.92886
-19.0227
6.04848
-19.4766
6.1895
-19.8289
6.22106
-19.8326
6.16006
-19.4747
4.90205
-16.5962
4.0989
-13.5309
3.35495
-10.9115
2.73582
-8.78657
2.24402
-7.0176
1.85997
-5.58312
1.5741
-4.48494
1.38712
-3.70933
1.30536
-3.19866
1.32785
-2.85172
1.4399
-2.57029
1.61886
-2.29817
1.84164
-2.01846
2.08852
-1.73512
2.34417
-1.45931
2.5973
-1.20245
2.84006
-0.973333
3.06748
-0.777147
3.27708
-0.615377
3.46838
-0.486596
3.64236
-0.387672
3.80084
-0.314756
3.94589
-0.263908
4.07946
-0.231496
4.20321
-0.214306
4.31848
-0.209401
4.4263
-0.214068
4.52742
-0.225808
4.62239
-0.242324
4.71159
-0.261495
4.79532
-0.281362
4.87384
-0.300154
4.94744
-0.316359
5.01639
-0.328802
5.08089
-0.33667
5.14108
-0.339465
5.19698
-0.336931
5.24858
-0.32897
5.29578
-0.315607
5.33847
-0.29699
5.37641
-0.27349
5.40933
-0.245682
5.43715
-0.215382
-0.187835
-0.330667
1.22389
-0.618058
1.32113
-0.942938
1.94304
-1.35612
1.01145
-1.78057
0.458921
-2.31386
1.34256
-2.1468
3.48197
-1.18707
15.2185
6.24446
-6.45136
5.82038
-18.082
5.7714
-18.5659
5.8514
-19.1027
5.99198
-19.6172
6.10897
-19.9459
6.14954
-19.8732
5.79829
-19.1234
4.61658
-15.4145
3.67915
-12.5935
2.93374
-10.1661
2.30509
-8.15793
1.78719
-6.49971
1.36676
-5.1627
1.03416
-4.15235
0.791424
-3.46661
0.648774
-3.05603
0.610317
-2.81326
0.665846
-2.62581
0.796455
-2.42878
0.981446
-2.20345
1.20179
-1.95547
1.44158
-1.6991
1.68832
-1.44918
1.93265
-1.21767
2.16804
-1.01253
2.39034
-0.837684
2.59752
-0.693768
2.78911
-0.579271
2.96579
-0.491436
3.12876
-0.42687
3.27937
-0.382104
3.41897
-0.353908
3.54877
-0.33919
3.66975
-0.335039
3.78271
-0.338768
3.88831
-0.347922
3.98707
-0.360251
4.07942
-0.373711
4.16576
-0.386491
4.24647
-0.397069
4.32192
-0.404243
4.3924
-0.407148
4.45814
-0.405206
4.51929
-0.398073
4.57587
-0.38556
4.62785
-0.367589
4.67503
-0.344172
4.71703
-0.3155
4.7534
-0.282061
4.78394
-0.245931
-0.214046
-0.275261
1.49915
-0.629206
1.67507
-0.812044
2.12588
-1.20993
1.40934
-1.68484
0.933825
-1.86317
1.52089
-1.94373
3.56255
0.528013
12.7467
6.13511
-12.0584
5.66952
-17.6164
5.66408
-18.5605
5.78912
-19.2277
5.94155
-19.7697
5.99081
-19.9952
5.96065
-19.843
5.0718
-18.2346
4.10722
-14.45
3.22673
-11.713
2.50719
-9.44654
1.89296
-7.54371
1.3698
-5.97656
0.930669
-4.72359
0.568743
-3.79043
0.286509
-3.18438
0.0957295
-2.86525
0.00279085
-2.72031
0.0021675
-2.62518
0.0802173
-2.50683
0.219761
-2.343
0.404305
-2.14002
0.618384
-1.91318
0.84885
-1.67964
1.08524
-1.45405
1.31962
-1.24691
1.5464
-1.06446
1.76204
-0.909408
1.96477
-0.781996
2.15409
-0.680758
2.3303
-0.603076
2.49408
-0.545884
2.64636
-0.506178
2.78806
-0.480892
2.92008
-0.467047
3.04318
-0.461865
3.15806
-0.462797
3.26532
-0.467506
3.36548
-0.473875
3.45905
-0.480055
3.54648
-0.484498
3.62822
-0.485973
3.70463
-0.48356
3.77603
-0.476609
3.84264
-0.464678
3.90454
-0.447463
3.96168