/*--------------------------------*- C++ -*----------------------------------*\
| =========                 |                                                 |
| \\      /  F ield         | OpenFOAM: The Open Source CFD Toolbox           |
|  \\    /   O peration     | Version:  v1606+                                |
|   \\  /    A nd           | Web:      www.OpenFOAM.com                      |
|    \\/     M anipulation  |                                                 |
\*---------------------------------------------------------------------------*/
FoamFile
{
    version     2.0;
    format      ascii;
    class       surfaceScalarField;
    location    "0.1";
    object      meshPhiCN_0;
}
// * * * * * * * * * * * * * * * * * * * * * * * * * * * * * * * * * * * * * //

dimensions      [0 3 -1 0 0 0 0];

internalField   nonuniform List<scalar> 
33146
(
0
0
0
0
0
0
0
0
0
5.65073123928e-10
-5.25909087058e-09
-3.825612224e-09
6.26930892682e-09
-6.36024551433e-08
-3.91936428913e-08
1.29214816196e-08
-1.78583309706e-07
-9.36823132794e-08
1.5718244211e-08
-2.6650178322e-07
-1.11518263058e-07
1.57180229311e-08
-2.92523804363e-07
-8.86775287777e-08
1.57178016962e-08
-2.92524057342e-07
-5.32166774544e-08
1.57175803742e-08
-2.92524310322e-07
-1.77558261416e-08
1.57173591851e-08
-2.925245633e-07
1.77050251696e-08
1.57171378934e-08
-2.92524816281e-07
5.31658764848e-08
1.57169165989e-08
-2.92525069264e-07
8.86267277969e-08
1.29202853277e-08
-2.66503179831e-07
1.11471761876e-07
6.26895689732e-09
-1.78584068167e-07
9.36507775756e-08
5.65069745083e-10
-6.36025793509e-08
3.91822293977e-08
0
-5.259091977e-09
3.82464350043e-09
0
0
0
0
0
0
0
0
0
0
0
0
0
0
4.60867952148e-09
-4.2889861082e-08
-3.63985250595e-08
2.27881252785e-08
-2.49651463028e-07
-1.90628526161e-07
5.03575997691e-08
-6.16838645787e-07
-4.38191510666e-07
7.42035575058e-08
-9.79974639256e-07
-6.18666377123e-07
8.34376297733e-08
-1.19964707937e-06
-6.16982184394e-07
8.34333073119e-08
-1.25950144583e-06
-4.70480749269e-07
8.3428984561e-08
-1.25950613576e-06
-2.82334145116e-07
8.34246614318e-08
-1.2595108257e-06
-9.41875409654e-08
8.34203380033e-08
-1.25951551562e-06
9.3959063185e-08
8.34160141115e-08
-1.25952020556e-06
2.82105667334e-07
8.34116899533e-08
-1.25952489549e-06
4.70252271484e-07
7.41754859989e-08
-1.19967608093e-06
6.16764403601e-07
5.0339853895e-08
-9.79998659771e-07
6.1848953222e-07
2.27828159146e-08
-6.16850059977e-07
4.38082830509e-07
4.60841308798e-09
-2.49653743502e-07
1.90585534777e-07
0
-4.28899492047e-08
3.63907907891e-08
0
0
0
0
0
0
0
0
4.6086985388e-09
-4.288985383e-08
-4.15977619385e-08
3.45933664487e-08
-3.21825347214e-07
-3.14716095853e-07
8.99545902167e-08
-9.08679442484e-07
-8.81625441171e-07
1.49499363548e-07
-1.60937214514e-06
-1.45096180643e-06
1.93699533336e-07
-2.2099344017e-06
-1.71551510103e-06
2.09846796423e-07
-2.55084177577e-06
-1.58246458703e-06
2.0982467048e-07
-2.6410813963e-06
-1.1823779267e-06
2.09802540438e-07
-2.64110201879e-06
-7.09515192753e-07
2.09780406283e-07
-2.64112264132e-06
-2.36652458814e-07
2.09758268186e-07
-2.64114326383e-06
2.36210275136e-07
2.09736125843e-07
-2.64116388635e-06
7.0907300908e-07
2.0971397947e-07
-2.64118450885e-06
1.18193574302e-06
1.93547418112e-07
-2.5509739069e-06
1.58203126942e-06
1.4938269989e-07
-2.21005868498e-06
1.71512345065e-06
8.99000506124e-08
-1.60945138186e-06
1.45066085294e-06
3.45818316244e-08
-9.08709177482e-07
8.81452434354e-07
4.60839408261e-09
-3.21829912129e-07
3.14656395418e-07
0
-4.28899564488e-08
4.15900276038e-08
0
0
5.65073979137e-10
-5.25909053907e-09
-5.73817616041e-09
2.68326231017e-08
-2.12020558747e-07
-2.47868807427e-07
9.77200890514e-08
-8.36504426542e-07
-1.01329181739e-06
1.90805442277e-07
-1.77311661601e-06
-2.06099775406e-06
2.78827781651e-07
-2.75351616029e-06
-2.85977169022e-06
3.39821423712e-07
-3.53533217877e-06
-3.10024784141e-06
3.61323563621e-07
-3.95995317312e-06
-2.75073254187e-06
3.61262781024e-07
-4.06955114952e-06
-2.03407420931e-06
3.61201979966e-07
-4.06960011389e-06
-1.22054384581e-06
3.61141160338e-07
-4.06964907827e-06
-4.07013482308e-07
3.61080322229e-07
-4.06969804266e-06
4.06516881196e-07
3.61019465737e-07
-4.06974700704e-06
1.2200472447e-06
3.6095859071e-07
-4.06979597142e-06
2.03357760819e-06
3.39389672113e-07
-3.96027291713e-06
2.75023204011e-06
2.78460438396e-07
-3.53565311377e-06
3.09974828922e-06
1.90593937257e-07
-2.75375066047e-06
2.85931376776e-06
9.76513721205e-08
-1.77323061135e-06
2.06065780243e-06
2.68252415982e-08
-8.36534135822e-07
1.01312108926e-06
5.6506888903e-10
-2.1202301937e-07
2.47826237204e-07
-5.25909228825e-09
5.73720742714e-09
6.83452359495e-09
-5.83433174232e-08
-6.93964313796e-08
6.63171681048e-08
-4.68419450259e-07
-6.67653647837e-07
1.73165183214e-07
-1.3896960455e-06
-1.96406519157e-06
2.96516220617e-07
-2.58974929346e-06
-3.36880351552e-06
4.04717201809e-07
-3.75603658563e-06
-4.27990124099e-06
4.75105156251e-07
-4.6289223914e-06
-4.41467930463e-06
4.98754505614e-07
-5.07630195381e-06
-3.82105353662e-06
4.98642347118e-07
-5.18661349609e-06
-2.80549464656e-06
4.98530142341e-07
-5.18669303183e-06
-1.68336788161e-06
4.98417891298e-07
-5.18677256755e-06
-5.61241116661e-07
4.98305594068e-07
-5.18685210327e-06
5.60885648289e-07
4.98193250634e-07
-5.18693163899e-06
1.68301241324e-06
4.98080860927e-07
-5.18701117471e-06
2.80513917819e-06
4.74289012839e-07
-5.07682906772e-06
3.82067794331e-06
4.03973179655e-07
-4.62947601478e-06
4.41424462806e-06
2.96032263077e-07
-3.75647590535e-06
4.27941279047e-06
1.72968743149e-07
-2.58999383419e-06
3.36835402678e-06
6.62822446e-08
-1.38977761275e-06
1.96377329358e-06
6.83388458989e-09
-4.68430704754e-07
6.67548209805e-07
-5.8343534158e-08
6.93850341241e-08
1.9191655493e-08
-1.2023980249e-07
-1.94851523588e-07
1.05387943849e-07
-6.90133328706e-07
-1.14530173658e-06
2.3789176019e-07
-1.80017794423e-06
-2.82590767632e-06
3.80919591519e-07
-3.15543552016e-06
-4.44711789845e-06
4.99063025197e-07
-4.40813178337e-06
-5.37762671069e-06
5.6965192873e-07
-5.28249048879e-06
-5.36767561002e-06
5.90980885939e-07
-5.68733680826e-06
-4.55518253686e-06
5.90825460984e-07
-5.77570400803e-06
-3.32246576261e-06
5.90669960608e-07
-5.77580263783e-06
-1.99351089629e-06
5.9051438488e-07
-5.77590126763e-06
-6.64556029982e-07
5.90358733853e-07
-5.77599989744e-06
6.64398836329e-07
5.90203007394e-07
-5.77609852722e-06
1.99335370264e-06
5.90047205691e-07
-5.77619715702e-06
3.32230856894e-06
5.68494656745e-07
-5.68800066913e-06
4.55499708832e-06
4.97950052814e-07
-5.2832151187e-06
5.36738950876e-06
3.80138147919e-07
-4.40873949307e-06
5.37720172107e-06
2.37533587493e-07
-3.15579978343e-06
4.44663695224e-06
1.05306321051e-07
-1.80031477649e-06
2.82553379694e-06
1.91883276972e-08
-6.9015717771e-07
1.145132852e-06
-1.20240723118e-07
1.94820366087e-07
2.86416987024e-08
-1.46261536763e-07
-2.90778346138e-07
1.29033319511e-07
-7.76003809067e-07
-1.4542722822e-06
2.74657806534e-07
-1.95024275356e-06
-3.32822498597e-06
4.26796484049e-07
-3.35519713002e-06
-5.04519622043e-06
5.4745527805e-07
-4.62790754243e-06
-5.95752840797e-06
6.13457625226e-07
-5.48099047204e-06
-5.83500393434e-06
6.30113260148e-07
-5.84277061823e-06
-4.88291828018e-06
6.29937172034e-07
-5.91003463756e-06
-3.54162928153e-06
6.2976099302e-07
-5.91013790874e-06
-2.124986567e-06
6.29584723139e-07
-5.91024117996e-06
-7.08343852482e-07
6.29408362417e-07
-5.91034445115e-06
7.08298862044e-07
6.29231910835e-07
-5.91044772234e-06
2.12494157657e-06
6.2905536839e-07
-5.91055099355e-06
3.54158429109e-06
6.12120918408e-07
-5.8434727865e-06
4.88284701228e-06
5.46123490327e-07
-5.48177248879e-06
5.83482212329e-06
4.25823216519e-07
-4.62857843595e-06
5.95716740149e-06
2.74186142722e-07
-3.35560944407e-06
5.0447205451e-06
1.28913880659e-07
-1.95040337636e-06
3.32781531407e-06
2.8635018395e-08
-7.76033788097e-07
1.4540660368e-06
-1.46262899048e-07
2.90732791752e-07
3.14389912211e-08
-1.46261536747e-07
-3.19170210103e-07
1.35477226652e-07
-7.76003809018e-07
-1.54070593362e-06
2.84391694655e-07
-1.95024275356e-06
-3.46281780472e-06
4.38638379369e-07
-3.35519713007e-06
-5.20141279232e-06
5.59385428355e-07
-4.62790754245e-06
-6.10398811543e-06
6.23013850382e-07
-5.48099047204e-06
-5.94457939614e-06
6.37381748064e-07
-5.84277061826e-06
-4.95011310577e-06
6.37201620715e-07
-5.91003463762e-06
-3.58231925707e-06
6.37021399259e-07
-5.91013790877e-06
-2.14939584631e-06
6.36841083778e-07
-5.91024118001e-06
-7.16472435558e-07
6.36660674405e-07
-5.9103444512e-06
7.16450975192e-07
6.36480170928e-07
-5.91044772238e-06
2.14937438594e-06
6.3629957353e-07
-5.91055099359e-06
3.5822977967e-06
6.21635718804e-07
-5.84347278653e-06
4.95006808537e-06
5.57995899469e-07
-5.48177248884e-06
5.94442566917e-06
4.37611355087e-07
-4.62857843601e-06
6.10364752037e-06
2.83886728873e-07
-3.35560944408e-06
5.20094200485e-06
1.35345902979e-07
-1.95040337637e-06
3.46240054668e-06
3.14310186571e-08
-7.76033788099e-07
1.54048992137e-06
-1.46262899032e-07
3.19120559498e-07
3.14389912277e-08
-1.4626153671e-07
-3.19170210107e-07
1.3547722666e-07
-7.76003809032e-07
-1.54070593362e-06
2.84391694652e-07
-1.95024275357e-06
-3.46281780473e-06
4.38638379369e-07
-3.35519713007e-06
-5.20141279232e-06
5.59385428343e-07
-4.62790754246e-06
-6.10398811543e-06
6.23013850373e-07
-5.48099047208e-06
-5.94457939613e-06
6.37381748087e-07
-5.84277061828e-06
-4.95011310577e-06
6.37201620707e-07
-5.91003463763e-06
-3.58231925707e-06
6.37021399283e-07
-5.91013790879e-06
-2.14939584631e-06
6.36841083792e-07
-5.91024118002e-06
-7.16472435556e-07
6.3666067442e-07
-5.91034445119e-06
7.16450975193e-07
6.36480170925e-07
-5.9104477224e-06
2.14937438594e-06
6.36299573508e-07
-5.91055099362e-06
3.5822977967e-06
6.21635718812e-07
-5.84347278654e-06
4.95006808537e-06
5.57995899485e-07
-5.48177248883e-06
5.94442566917e-06
4.37611355124e-07
-4.62857843601e-06
6.10364752037e-06
2.83886728819e-07
-3.35560944411e-06
5.20094200485e-06
1.3534590305e-07
-1.95040337639e-06
3.46240054668e-06
3.1431018578e-08
-7.76033788105e-07
1.54048992138e-06
-1.46262899035e-07
3.19120559495e-07
3.14389912231e-08
-1.46261536723e-07
-3.19170210104e-07
1.35477226658e-07
-7.76003808993e-07
-1.54070593362e-06
2.84391694652e-07
-1.95024275355e-06
-3.46281780473e-06
4.38638379364e-07
-3.35519713008e-06
-5.20141279232e-06
5.59385428332e-07
-4.62790754251e-06
-6.10398811543e-06
6.23013850395e-07
-5.48099047213e-06
-5.94457939613e-06
6.37381748086e-07
-5.84277061831e-06
-4.95011310577e-06
6.37201620686e-07
-5.91003463767e-06
-3.58231925707e-06
6.37021399285e-07
-5.9101379088e-06
-2.14939584631e-06
6.36841083814e-07
-5.91024118003e-06
-7.16472435559e-07
6.36660674351e-07
-5.91034445121e-06
7.16450975195e-07
6.36480170925e-07
-5.91044772241e-06
2.14937438594e-06
6.3629957353e-07
-5.91055099362e-06
3.58229779669e-06
6.21635718785e-07
-5.84347278655e-06
4.95006808537e-06
5.57995899431e-07
-5.48177248887e-06
5.94442566917e-06
4.37611355187e-07
-4.62857843605e-06
6.10364752037e-06
2.83886728823e-07
-3.35560944411e-06
5.20094200485e-06
1.35345903044e-07
-1.95040337638e-06
3.46240054668e-06
3.14310185834e-08
-7.76033788087e-07
1.54048992137e-06
-1.46262899028e-07
3.19120559494e-07
3.14389912261e-08
-1.46261536765e-07
-3.19170210109e-07
1.35477226648e-07
-7.76003809064e-07
-1.54070593362e-06
2.84391694654e-07
-1.95024275359e-06
-3.46281780473e-06
4.38638379365e-07
-3.35519713002e-06
-5.20141279232e-06
5.59385428333e-07
-4.62790754254e-06
-6.10398811543e-06
6.23013850395e-07
-5.48099047217e-06
-5.94457939613e-06
6.37381748101e-07
-5.84277061832e-06
-4.95011310577e-06
6.37201620708e-07
-5.91003463766e-06
-3.58231925706e-06
6.37021399265e-07
-5.91013790884e-06
-2.14939584631e-06
6.36841083805e-07
-5.91024118003e-06
-7.16472435559e-07
6.36660674386e-07
-5.91034445119e-06
7.16450975192e-07
6.36480170913e-07
-5.91044772242e-06
2.14937438594e-06
6.36299573517e-07
-5.91055099364e-06
3.5822977967e-06
6.21635718796e-07
-5.84347278658e-06
4.95006808537e-06
5.57995899515e-07
-5.48177248889e-06
5.94442566917e-06
4.37611355132e-07
-4.62857843607e-06
6.10364752037e-06
2.83886728875e-07
-3.3556094441e-06
5.20094200485e-06
1.35345903024e-07
-1.95040337638e-06
3.46240054668e-06
3.14310185324e-08
-7.76033788126e-07
1.54048992138e-06
-1.46262899082e-07
3.19120559493e-07
2.86416481598e-08
-1.20239802491e-07
-2.90777854669e-07
1.29032795332e-07
-6.90133328747e-07
-1.45426377671e-06
2.74656122729e-07
-1.80017794421e-06
-3.32819451159e-06
4.26793303595e-07
-3.15543552015e-06
-5.04513701765e-06
5.47451170215e-07
-4.40813178346e-06
-5.95744945359e-06
6.1345393849e-07
-5.28249048893e-06
-5.83492470717e-06
6.30110379355e-07
-5.6873368084e-06
-4.88286414446e-06
6.29934292897e-07
-5.77570400811e-06
-3.54160619284e-06
6.29758115484e-07
-5.77580263792e-06
-2.12497276111e-06
6.2958184723e-07
-5.77590126774e-06
-7.08339329385e-07
6.29405488185e-07
-5.77599989753e-06
7.08294102336e-07
6.29229038215e-07
-5.77609852733e-06
2.12492753406e-06
6.29052497505e-07
-5.77619715715e-06
3.54156096578e-06
6.12117248033e-07
-5.68800066927e-06
4.88279260839e-06
5.4611940275e-07
-5.28321511884e-06
5.83474258511e-06
4.25820050685e-07
-4.40873949319e-06
5.95708816603e-06
2.74184464821e-07
-3.15579978349e-06
5.04466116463e-06
1.28913357374e-07
-1.80031477648e-06
3.32778476525e-06
2.86349678419e-08
-6.90157177746e-07
1.45405751434e-06
-1.2024072307e-07
2.90732299115e-07
1.91915749796e-08
-5.83433174038e-08
-1.94850740204e-07
1.05386801559e-07
-4.68419450311e-07
-1.14528407835e-06
2.37887711744e-07
-1.38969604557e-06
-2.82583612887e-06
3.8091143622e-07
-2.58974929354e-06
-4.44697049321e-06
4.9905158368e-07
-3.75603658578e-06
-5.37742200896e-06
5.69639661792e-07
-4.62892239155e-06
-5.36746469011e-06
5.90969043366e-07
-5.0763019539e-06
-4.55502427843e-06
5.90813624478e-07
-5.18661349618e-06
-3.32237077008e-06
5.90658130237e-07
-5.18669303191e-06
-1.99345409191e-06
5.90502560631e-07
-5.18677256765e-06
-6.64537413761e-07
5.90346915715e-07
-5.18685210337e-06
6.64379264405e-07
5.90191195346e-07
-5.18693163909e-06
1.99329594257e-06
5.90035399781e-07
-5.1870111748e-06
3.32221262072e-06
5.68482438122e-07
-5.07682906782e-06
4.5548378623e-06
4.97938659404e-07
-4.6294760149e-06
5.36717765914e-06
3.80130022828e-07
-3.75647590543e-06
5.3769962805e-06
2.37529549217e-07
-2.58999383424e-06
4.44648911269e-06
1.05305179833e-07
-1.38977761283e-06
2.82546207939e-06
1.91882471496e-08
-4.68430704726e-07
1.14511515907e-06
-5.83435341188e-08
1.94819580869e-07
6.83449901969e-09
-5.25909055001e-09
-6.93961920923e-08
6.63162549349e-08
-2.12020558762e-07
-6.67641497371e-07
1.73161076881e-07
-8.3650442656e-07
-1.96399626967e-06
2.96506831763e-07
-1.77311661605e-06
-3.36864133634e-06
4.04702480409e-07
-2.75351616039e-06
-4.27965670129e-06
4.75087154121e-07
-3.53533217883e-06
-4.41441054388e-06
4.98735582622e-07
-3.95995317323e-06
-3.82083095957e-06
4.98623430958e-07
-4.06955114968e-06
-2.80534251522e-06
4.98511233054e-07
-4.06960011407e-06
-1.68327689297e-06
4.98398988839e-07
-4.0696490784e-06
-5.6121127071e-07
4.98286698534e-07
-4.06969804281e-06
5.60854351548e-07
4.98174361875e-07
-4.06974700714e-06
1.68291997381e-06
4.98061979021e-07
-4.06979597159e-06
2.80498559607e-06
4.7427105916e-07
-3.96027291724e-06
3.82045395813e-06
4.03958497236e-07
-3.53565311382e-06
4.41397464718e-06
2.96022892494e-07
-2.75375066061e-06
4.27916738805e-06
1.72964639914e-07
-1.77323061136e-06
3.36819139252e-06
6.62813309125e-08
-8.36534135882e-07
1.96370421651e-06
6.83386006684e-09
-2.12023019402e-07
6.67536035062e-07
-5.2590923164e-09
6.93847942848e-08
5.65073779194e-10
0
-5.73817419434e-09
2.68323257236e-08
-4.28898538224e-08
-2.47866099123e-07
9.77177704174e-08
-3.21825347198e-07
-1.01325700514e-06
1.9079880997e-07
-9.08679442502e-07
-2.06088985972e-06
2.78815876383e-07
-1.60937214527e-06
-2.85958486565e-06
3.3980542498e-07
-2.20993440174e-06
-3.10002376129e-06
3.61306075578e-07
-2.55084177575e-06
-2.75053427127e-06
3.61245295149e-07
-2.64108139632e-06
-2.03393311482e-06
3.61184496219e-07
-2.64110201876e-06
-1.22045943505e-06
3.61123678708e-07
-2.64112264129e-06
-4.06985755284e-07
3.6106284273e-07
-2.64114326381e-06
4.06487924481e-07
3.61001988348e-07
-2.64116388634e-06
1.21996160425e-06
3.60941115415e-07
-2.64118450881e-06
2.03343528401e-06
3.39373686143e-07
-2.55097390685e-06
2.75003259743e-06
2.78448538383e-07
-2.21005868504e-06
3.09952325191e-06
1.90587302672e-07
-1.60945138198e-06
2.85912633119e-06
9.7649050308e-08
-9.08709177491e-07
2.06054962923e-06
2.68249436136e-08
-3.21829912111e-07
1.01308620337e-06
5.65068684071e-10
-4.28899564284e-08
2.47823522275e-07
0
5.73720546355e-09
0
0
0
4.60868515326e-09
0
-4.15976460703e-08
3.45928149553e-08
-4.28898610823e-08
-3.14710625963e-07
8.99520211303e-08
-2.49651463025e-07
-8.8158832356e-07
1.49493612781e-07
-6.16838645795e-07
-1.4508769597e-06
1.93690890496e-07
-9.79974639267e-07
-1.71539868484e-06
2.09836999426e-07
-1.19964707936e-06
-1.58235502307e-06
2.09814872076e-07
-1.25950144591e-06
-1.18229857383e-06
2.09792740583e-07
-1.25950613586e-06
-7.09467705054e-07
2.09770605066e-07
-1.25951082582e-06
-2.36636836276e-07
2.09748465469e-07
-1.25951551573e-06
2.36194032505e-07
2.09726321781e-07
-1.25952020571e-06
7.09024901284e-07
2.09704173934e-07
-1.25952489558e-06
1.18185577006e-06
1.93538764459e-07
-1.19967608097e-06
1.58192112365e-06
1.49376938539e-07
-9.79998659747e-07
1.71500658752e-06
8.98974749147e-08
-6.16850060019e-07
1.45057575622e-06
3.45812785886e-08
-2.49653743497e-07
8.81415228621e-07
4.60838063028e-09
-4.28899491559e-08
3.14650911918e-07
0
0
4.15899114308e-08
0
0
0
0
0
0
0
0
4.60866611846e-09
0
-3.6398423691e-08
2.27878152326e-08
-5.25909087254e-09
-1.90625896807e-07
5.03564051474e-08
-6.36024550904e-08
-4.38176870137e-07
7.42013072629e-08
-1.78583309607e-07
-6.18638079074e-07
8.34349083577e-08
-2.66501783222e-07
-6.16952265616e-07
8.34305849835e-08
-2.92523804342e-07
-4.70458643756e-07
8.34262613137e-08
-2.92524057393e-07
-2.82320913509e-07
8.34219372097e-08
-2.92524310315e-07
-9.41831832571e-08
8.34176128825e-08
-2.92524563248e-07
9.3954546991e-08
8.34132880756e-08
-2.92524816355e-07
2.82092277235e-07
8.34089629893e-08
-2.92525069318e-07
4.70230007478e-07
7.41732297207e-08
-2.66503179814e-07
6.16734340142e-07
5.03386554565e-08
-1.78584068196e-07
6.1846113503e-07
2.27825049868e-08
-6.36025793115e-08
4.38068148061e-07
4.60839974655e-09
-5.25909195537e-09
1.90582897386e-07
0
0
3.63906891205e-08
0
0
0
0
0
0
0
0
0
0
0
0
0
0
5.6507293219e-10
0
-3.8256109171e-09
6.2692841387e-09
0
-3.91934944037e-08
1.29213765159e-08
0
-9.36814762547e-08
1.57180887317e-08
0
-1.11516820016e-07
1.57178674474e-08
0
-8.86762687751e-08
1.57176461493e-08
0
-5.32159234198e-08
1.57174248533e-08
0
-1.77555780678e-08
1.57172035647e-08
0
1.77047672885e-08
1.57169822584e-08
0
5.31651126396e-08
1.57167610002e-08
0
8.86254580014e-08
1.29201800428e-08
0
1.11470310623e-07
6.26893208153e-09
0
9.36499366505e-08
5.65069485823e-10
0
3.91820803103e-08
0
0
3.82464218828e-09
0
0
0
0
0
0
0
0
0
0
0
0
0
0
0
0
0
0
0
0
0
0
0
0
0
0
0
0
0
0
0
0
0
0
0
0
0
0
0
0
0
0
0
0
0
0
0
0
0
0
0
0
0
0
0
0
0
0
0
0
0
0
0
0
0
0
0
0
0
0
0
0
0
0
0
0
0
0
0
0
0
0
0
0
0
0
0
0
0
0
0
0
0
0
0
0
0
0
0
0
0
0
0
0
0
0
0
0
0
0
0
0
0
0
0
1.29597115084e-09
-1.89025937736e-08
-9.92467145229e-09
1.07120866437e-08
-1.60166980977e-07
-6.01917774495e-08
2.12570188376e-08
-4.17059528382e-07
-1.2570844445e-07
2.5649441037e-08
-6.07379185787e-07
-1.42853583634e-07
2.56492384889e-08
-6.63168153028e-07
-1.12359072726e-07
2.56490359478e-08
-6.63168306184e-07
-6.74281923849e-08
2.56488334434e-08
-6.63168459345e-07
-2.24973120529e-08
2.56486309375e-08
-6.63168612507e-07
2.24335682861e-08
2.5648428377e-08
-6.63168765662e-07
6.73644486143e-08
2.56482259277e-08
-6.63168918823e-07
1.12295328952e-07
2.12558845295e-08
-6.07380039243e-07
1.42794651218e-07
1.07116906966e-08
-4.1706008297e-07
1.25666596899e-07
1.29595646923e-09
-1.60167134988e-07
6.01744885046e-08
0
-1.89025999715e-08
9.9221662436e-09
0
0
0
0
0
0
0
0
0
0
0
0
0
0
8.04065978839e-09
-1.06947286028e-07
-5.43623512251e-08
3.71081579714e-08
-5.67262889589e-07
-2.48728605706e-07
8.04006241874e-08
-1.34789541275e-06
-5.34096553403e-07
1.17421539085e-07
-2.1079324122e-06
-7.30624351538e-07
1.31706554708e-07
-2.5648774617e-06
-7.18303098021e-07
1.31704700841e-07
-2.68905038328e-06
-5.45702722858e-07
1.31702846969e-07
-2.68905173498e-06
-3.27473857946e-07
1.31700992967e-07
-2.68905308668e-06
-1.09244993044e-07
1.31699139224e-07
-2.68905443838e-06
1.08983871848e-07
1.3169728535e-07
-2.68905579008e-06
3.27212736747e-07
1.31695431429e-07
-2.68905714177e-06
5.4544160166e-07
1.17408635617e-07
-2.56488520992e-06
7.1805312264e-07
8.03905312552e-08
-2.10793849984e-06
7.30417565486e-07
3.71038809984e-08
-1.34789876897e-06
5.33964605502e-07
8.04032969322e-09
-5.67263942013e-07
2.48672598733e-07
0
-1.06947366879e-07
5.4350854672e-08
0
0
0
0
0
0
0
0
8.04068336439e-09
-1.06947277099e-07
-6.21275802866e-08
5.59146812882e-08
-7.19651609716e-07
-3.99741728881e-07
1.41870371936e-07
-1.95722886438e-06
-1.04200075812e-06
2.33431507265e-07
-3.41150223582e-06
-1.65297948774e-06
3.01112968298e-07
-4.6486767505e-06
-1.91940419124e-06
3.2581332067e-07
-5.34813537755e-06
-1.75671373384e-06
3.25809598651e-07
-5.53287468397e-06
-1.30987772702e-06
3.25805876613e-07
-5.53287878342e-06
-7.86020344966e-07
3.2580215459e-07
-5.53288288288e-06
-2.621629629e-07
3.2579843261e-07
-5.53288698235e-06
2.61694419152e-07
3.25794710618e-07
-5.5328910818e-06
7.85551801204e-07
3.25790988509e-07
-5.53289518126e-06
1.30940918327e-06
3.01085669721e-07
-5.34815924188e-06
1.75625261171e-06
2.33405880423e-07
-4.64869687979e-06
1.91897981484e-06
1.41853061357e-07
-3.41151546553e-06
1.652642093e-06
5.59080377393e-08
-1.95723505308e-06
1.04179648049e-06
8.04030610685e-09
-7.19653202961e-07
3.99665597124e-07
0
-1.06947375801e-07
6.21160835878e-08
0
0
1.29597481286e-09
-1.89025919023e-08
-1.48863808918e-08
4.38524894589e-08
-4.79218237447e-07
-3.22928178083e-07
1.53928944997e-07
-1.80484001673e-06
-1.19788293756e-06
2.96725293072e-07
-3.74798858402e-06
-2.32635996945e-06
4.30963752876e-07
-5.76109674708e-06
-3.15489169139e-06
5.23640396891e-07
-7.3546440001e-06
-3.37839532941e-06
5.56293602282e-07
-8.21522031378e-06
-2.98003706271e-06
5.56289559258e-07
-8.43642157366e-06
-2.20006375104e-06
5.56285516481e-07
-8.43642898355e-06
-1.32013500478e-06
5.56281473779e-07
-8.43643639345e-06
-4.4020625852e-07
5.5627743113e-07
-8.43644380335e-06
4.39722487747e-07
5.56273388719e-07
-8.43645121322e-06
1.319651234e-06
5.56269346446e-07
-8.43645862313e-06
2.19957998027e-06
5.23609653858e-07
-8.21526447885e-06
2.97954570085e-06
4.30931784764e-07
-7.35468363303e-06
3.37789041258e-06
2.966994612e-07
-5.76112555618e-06
3.15440772118e-06
1.53914537321e-07
-3.74800452874e-06
2.32598151645e-06
4.38486255566e-08
-1.80484590637e-06
1.1976800261e-06
1.29595291455e-09
-4.79219132849e-07
3.22872510795e-07
-1.89026018408e-08
1.48838756545e-08
1.20081624323e-08
-1.41264376617e-07
-1.05361186041e-07
1.05495933865e-07
-1.02884403242e-06
-8.14387105756e-07
2.69790424235e-07
-2.95455700335e-06
-2.23835486662e-06
4.57881931775e-07
-5.42460974397e-06
-3.71696633003e-06
6.21828849734e-07
-7.79956353372e-06
-4.63854417395e-06
7.27720564024e-07
-9.55450971608e-06
-4.73062212181e-06
7.63132841305e-07
-1.04400505952e-05
-4.06816245059e-06
7.63130246845e-07
-1.06549487716e-05
-2.98076810942e-06
7.6312765275e-07
-1.0654957634e-05
-1.78852013658e-06
7.63125058865e-07
-1.06549664965e-05
-5.96272163736e-07
7.63122465361e-07
-1.06549753589e-05
5.95975809083e-07
7.63119872251e-07
-1.06549842213e-05
1.78822378193e-06
7.63117279472e-07
-1.06549930837e-05
2.98047175479e-06
7.27699554322e-07
-1.04401073912e-05
4.06784221978e-06
6.21804014033e-07
-9.55456616371e-06
4.7302242405e-06
4.57858864683e-07
-7.79960821596e-06
4.63805837917e-06
2.69775013398e-07
-5.4246371022e-06
3.71648679268e-06
1.05489773271e-07
-2.95456890083e-06
2.23802255474e-06
1.2007580015e-08
-1.02884687878e-06
8.14257243926e-07
-1.4126454549e-07
1.05343926596e-07
3.19687666282e-08
-2.75795148242e-07
-2.60199811821e-07
1.65841396848e-07
-1.49614736418e-06
-1.35415472831e-06
3.68671170534e-07
-3.8020507288e-06
-3.16348572528e-06
5.85892114613e-07
-6.57870910346e-06
-4.84752472985e-06
7.63629446304e-07
-9.10958817101e-06
-5.7634446445e-06
8.67610602166e-07
-1.0825690142e-05
-5.67322471243e-06
8.97751282491e-07
-1.15705367321e-05
-4.76201833426e-06
8.97750491658e-07
-1.17148547547e-05
-3.45707505474e-06
8.97749701163e-07
-1.17148603988e-05
-2.07426285666e-06
8.97748910937e-07
-1.17148660429e-05
-6.91450658594e-07
8.97748121101e-07
-1.17148716871e-05
6.91361539473e-07
8.97747331684e-07
-1.17148773312e-05
2.07417373756e-06
8.97746542601e-07
-1.17148829752e-05
3.45698593564e-06
8.67602455312e-07
-1.15705908262e-05
4.76190405498e-06
7.63616732988e-07
-1.08257556267e-05
5.67300337391e-06
5.85878302861e-07
-9.10964359723e-06
5.76305119503e-06
3.68660782271e-07
-6.57874524257e-06
4.84702920401e-06
1.65836460105e-07
-3.80206780499e-06
3.16307097516e-06
3.19678592287e-08
-1.49615220588e-06
1.35395270401e-06
-2.75795539729e-07
2.60158304654e-07
4.69053230677e-08
-3.31584024789e-07
-3.71927826889e-07
2.02205802419e-07
-1.67610829174e-06
-1.695990233e-06
4.24676938419e-07
-4.11095976555e-06
-3.69782918534e-06
6.55196323886e-07
-6.98464282497e-06
-5.46880430627e-06
8.35602655717e-07
-9.5456760118e-06
-6.34600671284e-06
9.29727998045e-07
-1.11848855015e-05
-6.10355907005e-06
9.50010343645e-07
-1.17903243233e-05
-5.01541233161e-06
9.5001024689e-07
-1.18658226506e-05
-3.60469755942e-06
9.50010150285e-07
-1.18658242375e-05
-2.16281963678e-06
9.50010053945e-07
-1.18658258244e-05
-7.20941714131e-07
9.50009957827e-07
-1.18658274114e-05
7.20936208521e-07
9.50009861964e-07
-1.18658289984e-05
2.16281413116e-06
9.50009766357e-07
-1.18658305853e-05
3.60469205381e-06
9.29725834775e-07
-1.17903711639e-05
5.0153940499e-06
8.35597158149e-07
-1.11849543252e-05
6.1034455974e-06
6.55189492575e-07
-9.5457350541e-06
6.34569258811e-06
4.24671465343e-07
-6.98468218248e-06
5.46832506834e-06
2.02203018024e-07
-4.11097886365e-06
3.69738060715e-06
4.69047005355e-08
-1.67611397291e-06
1.69574696921e-06
-3.31584509311e-07
3.71869652848e-07
5.12975222486e-08
-3.31584024803e-07
-4.04405688074e-07
2.12097798196e-07
-1.67610829175e-06
-1.79084325685e-06
4.39482631252e-07
-4.11095976553e-06
-3.84039136698e-06
6.7303745859e-07
-6.98464282499e-06
-5.63016421271e-06
8.53162917062e-07
-9.54567601181e-06
-6.49057615236e-06
9.42290898814e-07
-1.11848855015e-05
-6.194094455e-06
9.57706072249e-07
-1.17903243233e-05
-5.04556630561e-06
9.57706053541e-07
-1.18658226506e-05
-3.60972908822e-06
9.57706034929e-07
-1.18658242375e-05
-2.16583745293e-06
9.57706016352e-07
-1.18658258245e-05
-7.21945817632e-07
9.57705997979e-07
-1.18658274114e-05
7.21945817666e-07
9.57705979705e-07
-1.18658289984e-05
2.16583745296e-06
9.57705961579e-07
-1.18658305854e-05
3.60972908824e-06
9.42289578389e-07
-1.17903711639e-05
5.04556076753e-06
8.53158395044e-07
-1.11849543253e-05
6.19400577106e-06
6.73031559569e-07
-9.54573505415e-06
6.49028572278e-06
4.39477818694e-07
-6.9846821825e-06
5.62969285694e-06
2.12095309215e-07
-4.11097886363e-06
3.83993594341e-06
5.12969423671e-08
-1.67611397286e-06
1.7905893346e-06
-3.31584509334e-07
4.0434284591e-07
5.12975222492e-08
-3.31584024785e-07
-4.04405688079e-07
2.12097798201e-07
-1.67610829172e-06
-1.79084325685e-06
4.39482631239e-07
-4.11095976558e-06
-3.84039136698e-06
6.73037458589e-07
-6.98464282506e-06
-5.63016421273e-06
8.53162917069e-07
-9.54567601187e-06
-6.49057615237e-06
9.42290898812e-07
-1.11848855015e-05
-6.194094455e-06
9.5770607226e-07
-1.17903243233e-05
-5.04556630561e-06
9.57706053568e-07
-1.18658226506e-05
-3.60972908823e-06
9.57706034922e-07
-1.18658242375e-05
-2.16583745293e-06
9.57706016343e-07
-1.18658258245e-05
-7.21945817637e-07
9.57705997978e-07
-1.18658274115e-05
7.21945817663e-07
9.57705979723e-07
-1.18658289984e-05
2.16583745296e-06
9.5770596155e-07
-1.18658305854e-05
3.60972908824e-06
9.42289578356e-07
-1.17903711639e-05
5.04556076753e-06
8.53158395083e-07
-1.11849543253e-05
6.19400577106e-06
6.73031559523e-07
-9.54573505418e-06
6.49028572278e-06
4.39477818723e-07
-6.98468218258e-06
5.62969285695e-06
2.12095309172e-07
-4.11097886366e-06
3.8399359434e-06
5.12969423955e-08
-1.67611397288e-06
1.79058933461e-06
-3.31584509278e-07
4.043428459e-07
5.12975222472e-08
-3.31584024801e-07
-4.04405688073e-07
2.12097798193e-07
-1.67610829174e-06
-1.79084325685e-06
4.39482631252e-07
-4.11095976558e-06
-3.84039136699e-06
6.73037458583e-07
-6.98464282504e-06
-5.63016421272e-06
8.53162917066e-07
-9.54567601192e-06
-6.49057615237e-06
9.42290898822e-07
-1.11848855016e-05
-6.194094455e-06
9.57706072248e-07
-1.17903243234e-05
-5.04556630561e-06
9.57706053548e-07
-1.18658226506e-05
-3.60972908823e-06
9.57706034917e-07
-1.18658242375e-05
-2.16583745293e-06
9.57706016331e-07
-1.18658258245e-05
-7.21945817632e-07
9.57705997977e-07
-1.18658274114e-05
7.2194581766e-07
9.57705979683e-07
-1.18658289984e-05
2.16583745295e-06
9.57705961587e-07
-1.18658305854e-05
3.60972908824e-06
9.42289578385e-07
-1.1790371164e-05
5.04556076753e-06
8.53158395047e-07
-1.11849543254e-05
6.19400577106e-06
6.73031559554e-07
-9.54573505424e-06
6.49028572277e-06
4.3947781869e-07
-6.98468218257e-06
5.62969285695e-06
2.12095309167e-07
-4.11097886368e-06
3.8399359434e-06
5.12969424132e-08
-1.6761139729e-06
1.79058933461e-06
-3.31584509309e-07
4.04342845909e-07
5.12975222516e-08
-3.31584024829e-07
-4.04405688078e-07
2.12097798187e-07
-1.67610829178e-06
-1.79084325684e-06
4.39482631237e-07
-4.11095976555e-06
-3.84039136698e-06
6.73037458576e-07
-6.984642825e-06
-5.63016421272e-06
8.53162917066e-07
-9.5456760119e-06
-6.49057615237e-06
9.42290898811e-07
-1.11848855016e-05
-6.194094455e-06
9.57706072253e-07
-1.17903243234e-05
-5.04556630561e-06
9.5770605355e-07
-1.18658226506e-05
-3.60972908823e-06
9.5770603491e-07
-1.18658242375e-05
-2.16583745293e-06
9.57706016357e-07
-1.18658258245e-05
-7.21945817635e-07
9.5770599797e-07
-1.18658274115e-05
7.21945817661e-07
9.57705979727e-07