/*--------------------------------*- C++ -*----------------------------------*\
| =========                 |                                                 |
| \\      /  F ield         | OpenFOAM: The Open Source CFD Toolbox           |
|  \\    /   O peration     | Version:  v1606+                                |
|   \\  /    A nd           | Web:      www.OpenFOAM.com                      |
|    \\/     M anipulation  |                                                 |
\*---------------------------------------------------------------------------*/
FoamFile
{
    version     2.0;
    format      ascii;
    class       surfaceScalarField;
    location    "0.0046";
    object      phi;
}
// * * * * * * * * * * * * * * * * * * * * * * * * * * * * * * * * * * * * * //

dimensions      [1 0 -1 0 0 0 0];

internalField   nonuniform List<scalar> 
4795
(
-1.18517e-08
1.04279e-08
-2.61533e-08
1.28465e-08
-4.3711e-08
1.60258e-08
-5.80887e-08
1.27067e-08
-6.79506e-08
7.93296e-09
-6.45459e-08
-5.82903e-09
-2.87202e-08
-1.17031e-08
4.36801e-07
-8.07386e-08
1.91253e-06
-2.08707e-08
2.65439e-06
1.24445e-07
2.96702e-06
2.41476e-07
3.03821e-06
2.62297e-07
2.9102e-06
2.24315e-07
2.74666e-06
1.94322e-07
2.57493e-06
1.67086e-07
2.41868e-06
1.44293e-07
2.27401e-06
1.24034e-07
2.14536e-06
1.0787e-07
2.03018e-06
9.43793e-08
1.92642e-06
8.30214e-08
1.83238e-06
7.33842e-08
1.74667e-06
6.51472e-08
1.66809e-06
5.80593e-08
1.59569e-06
5.19239e-08
1.52862e-06
4.6585e-08
1.46619e-06
4.19174e-08
1.40777e-06
3.78196e-08
1.35284e-06
3.42075e-08
1.30091e-06
3.10114e-08
1.25156e-06
2.81734e-08
1.20443e-06
2.56435e-08
1.15917e-06
2.33808e-08
1.11551e-06
2.13491e-08
1.0732e-06
1.95193e-08
1.03207e-06
1.78677e-08
9.91958e-07
1.63707e-08
9.52759e-07
1.50127e-08
9.14392e-07
1.37797e-08
8.76808e-07
1.2657e-08
8.39971e-07
1.16358e-08
8.03865e-07
1.07071e-08
7.68474e-07
9.86307e-09
7.33794e-07
9.094e-09
6.99814e-07
8.39724e-09
6.66528e-07
7.76551e-09
6.33924e-07
7.19335e-09
6.01983e-07
6.6775e-09
5.70689e-07
6.21139e-09
5.4002e-07
5.79335e-09
5.09954e-07
5.4161e-09
4.80468e-07
5.07796e-09
4.5154e-07
4.77558e-09
4.23144e-07
4.50867e-09
3.95258e-07
4.27029e-09
3.6786e-07
4.06171e-09
3.40937e-07
3.86969e-09
3.14462e-07
3.70582e-09
2.88414e-07
3.56306e-09
2.62774e-07
3.43576e-09
2.37516e-07
3.32818e-09
2.12617e-07
3.23396e-09
1.8805e-07
3.15412e-09
1.63789e-07
3.08579e-09
1.39801e-07
3.02907e-09
1.16065e-07
2.97658e-09
9.25468e-08
2.93667e-09
6.92168e-08
2.90498e-09
4.60553e-08
2.87083e-09
2.29993e-08
2.864e-09
2.85581e-09
-8.78452e-09
1.79801e-08
-2.16911e-08
2.44972e-08
-3.97856e-08
3.28009e-08
-6.49149e-08
3.6416e-08
-9.19506e-08
3.33893e-08
-1.39486e-07
3.98755e-08
-8.88099e-08
-6.70106e-09
3.88296e-07
-1.35853e-08
1.90272e-06
2.16211e-07
2.80614e-06
4.86174e-07
3.03877e-06
5.38242e-07
3.02312e-06
5.03588e-07
2.88995e-06
4.44462e-07
2.72223e-06
3.83144e-07
2.55197e-06
3.28184e-07
2.39883e-06
2.83442e-07
2.25755e-06
2.44709e-07
2.13167e-06
2.13015e-07
2.01869e-06
1.86577e-07
1.91669e-06
1.64278e-07
1.82408e-06
1.45325e-07
1.73953e-06
1.29103e-07
1.66193e-06
1.15128e-07
1.59033e-06
1.03017e-07
1.52394e-06
9.24691e-08
1.46208e-06
8.32396e-08
1.40416e-06
7.51307e-08
1.34964e-06
6.79782e-08
1.29808e-06
6.16463e-08
1.24904e-06
5.60205e-08
1.20218e-06
5.10041e-08
1.15715e-06
4.65144e-08
1.11369e-06
4.24829e-08
1.07156e-06
3.88511e-08
1.03058e-06
3.55684e-08
9.90612e-07
3.25955e-08
9.51538e-07
2.98968e-08
9.13282e-07
2.74439e-08
8.75798e-07
2.52112e-08
8.39053e-07
2.31797e-08
8.03031e-07
2.13316e-08
7.67716e-07
1.96502e-08
7.33106e-07
1.81211e-08
6.99192e-07
1.67332e-08
6.65966e-07
1.54747e-08
6.33416e-07
1.4335e-08
6.01527e-07
1.33065e-08
5.7028e-07
1.23775e-08
5.39651e-07
1.15475e-08
5.09624e-07
1.07923e-08
4.80171e-07
1.01217e-08
4.51277e-07
9.51537e-09
4.22908e-07
8.9856e-09
3.95051e-07
8.50716e-09
3.67682e-07
8.0879e-09
3.4078e-07
7.70906e-09
3.14324e-07
7.38355e-09
2.88295e-07
7.09589e-09
2.6267e-07
6.8436e-09
2.37426e-07
6.62857e-09
2.12539e-07
6.44103e-09
1.87982e-07
6.28228e-09
1.63725e-07
6.14887e-09
1.39741e-07
6.03613e-09
1.16005e-07
5.93387e-09
9.24871e-08
5.85584e-09
6.91591e-08
5.79476e-09
4.59998e-08
5.73689e-09
2.29749e-08
5.69807e-09
5.6777e-09
-9.08829e-09
2.6252e-08
-1.94597e-08
3.40339e-08
-3.21761e-08
4.46296e-08
-4.85679e-08
5.18621e-08
-6.00122e-08
4.38752e-08
-8.56063e-08
6.45717e-08
-2.24125e-08
9.56028e-09
4.98987e-07
1.15146e-07
2.05304e-06
6.20824e-07
2.83531e-06
7.99687e-07
3.01768e-06
8.12187e-07
2.96901e-06
7.43275e-07
2.83115e-06
6.48791e-07
2.66755e-06
5.57795e-07
2.50673e-06
4.79348e-07
2.35952e-06
4.13399e-07
2.22516e-06
3.58528e-07
2.10465e-06
3.12826e-07
1.99595e-06
2.74496e-07
1.89738e-06
2.42059e-07
1.80757e-06
2.14414e-07
1.72531e-06
1.90695e-07
1.64961e-06
1.70219e-07
1.57961e-06
1.52443e-07
1.51456e-06
1.36937e-07
1.45384e-06
1.2335e-07
1.39688e-06
1.11397e-07
1.3432e-06
1.00843e-07
1.29235e-06
9.14888e-08
1.24394e-06
8.31708e-08
1.1976e-06
7.57471e-08
1.15304e-06
6.90973e-08
1.10998e-06
6.31216e-08
1.06821e-06
5.77339e-08
1.02755e-06
5.28634e-08
9.87855e-07
4.84495e-08
9.4903e-07
4.44408e-08
9.10998e-07
4.07948e-08
8.73717e-07
3.74768e-08
8.37159e-07
3.44567e-08
8.01305e-07
3.17062e-08
7.66147e-07
2.92053e-08
7.3168e-07
2.69323e-08
6.97897e-07
2.48672e-08
6.64793e-07
2.29934e-08
6.32355e-07
2.1298e-08
6.00567e-07
1.97683e-08
5.69412e-07
1.83853e-08
5.38874e-07
1.7144e-08
5.08924e-07
1.6027e-08
4.79548e-07
1.50235e-08
4.50716e-07
1.41263e-08
4.2241e-07
1.33327e-08
3.94609e-07
1.26213e-08
3.67294e-07
1.19924e-08
3.40434e-07
1.14384e-08
3.14023e-07
1.09469e-08
2.88033e-07
1.052e-08
2.62442e-07
1.01472e-08
2.37229e-07
9.82582e-09
2.12368e-07
9.54871e-09
1.87831e-07
9.31589e-09
1.63596e-07
9.1149e-09
1.39633e-07
8.94606e-09
1.15908e-07
8.80406e-09
9.24003e-08
8.69001e-09
6.90883e-08
8.59934e-09
4.59489e-08
8.52222e-09
2.29526e-08
8.46087e-09
8.43909e-09
-8.60923e-09
3.47392e-08
-1.85881e-08
4.38658e-08
-2.85842e-08
5.44175e-08
-4.35971e-08
6.66179e-08
-5.85085e-08
5.86693e-08
-6.26684e-08
1.01951e-07
8.0287e-08
8.85818e-08
9.68881e-07
6.03576e-07
2.33376e-06
1.10108e-06
2.83863e-06
1.14093e-06
2.94215e-06
1.06086e-06
2.87685e-06
9.52625e-07
2.74193e-06
8.28351e-07
2.5889e-06
7.12961e-07
2.43983e-06
6.14651e-07
2.30366e-06
5.32489e-07
2.17866e-06
4.63064e-07
2.06567e-06
4.05148e-07
1.96302e-06
3.56362e-07
1.86936e-06
3.14902e-07
1.78355e-06
2.79435e-07
1.7046e-06
2.48908e-07
1.63164e-06
2.22479e-07
1.56394e-06
1.9948e-07
1.50084e-06
1.79374e-07
1.44178e-06
1.61723e-07
1.38624e-06
1.46169e-07
1.33377e-06
1.32413e-07
1.28397e-06
1.20207e-07
1.23645e-06
1.09337e-07
1.1909e-06
9.96236e-08
1.14702e-06
9.09141e-08
1.10456e-06
8.30792e-08
1.06331e-06
7.6009e-08
1.02311e-06
6.96118e-08
9.83819e-07
6.38086e-08
9.45359e-07
5.85369e-08
9.07659e-07
5.37403e-08
8.70677e-07
4.93712e-08
8.3439e-07
4.53929e-08
7.98786e-07
4.17716e-08
7.63858e-07
3.84748e-08
7.29602e-07
3.54776e-08
6.96014e-07
3.27572e-08
6.63087e-07
3.02849e-08
6.30813e-07
2.80498e-08
5.99176e-07
2.60314e-08
5.6816e-07
2.42077e-08
5.37748e-07
2.25675e-08
5.07917e-07
2.10929e-08
4.78646e-07
1.97698e-08
4.49911e-07
1.85871e-08
4.21696e-07
1.75343e-08
3.93976e-07
1.65968e-08
3.66733e-07
1.57662e-08
3.39946e-07
1.50327e-08
3.13594e-07
1.43865e-08
2.87659e-07
1.3822e-08
2.62118e-07
1.33308e-08
2.36949e-07
1.29068e-08
2.12127e-07
1.25427e-08
1.8763e-07
1.22321e-08
1.63428e-07
1.19684e-08
1.39491e-07
1.17484e-08
1.1579e-07
1.15662e-08
9.23052e-08
1.14167e-08
6.90131e-08
1.13023e-08
4.58949e-08
1.12097e-08
2.29174e-08
1.11361e-08
1.11033e-08
-1.7749e-08
5.34417e-08
-4.049e-08
6.75026e-08
-6.85035e-08
8.31876e-08
-6.80031e-08
6.66885e-08
-3.64139e-08
4.92504e-08
7.39706e-08
9.66071e-08
5.45374e-07
3.38902e-07
1.59043e-06
1.02569e-06
2.45767e-06
1.39774e-06
2.78209e-06
1.40019e-06
2.83401e-06
1.27536e-06
2.75415e-06
1.12397e-06
2.62661e-06
9.76817e-07
2.4892e-06
8.43499e-07
2.35686e-06
7.30804e-07
2.23309e-06
6.35972e-07
2.11983e-06
5.55858e-07
2.01614e-06
4.88187e-07
1.92099e-06
4.30712e-07
1.83345e-06
3.81594e-07
1.75267e-06
3.39374e-07
1.67789e-06
3.02882e-07
1.60842e-06
2.71177e-07
1.54365e-06
2.43502e-07
1.48304e-06
2.19243e-07
1.4261e-06
1.97897e-07
1.37238e-06
1.79046e-07
1.32148e-06
1.62345e-07
1.27302e-06
1.47498e-07
1.22668e-06
1.34255e-07
1.18214e-06
1.22404e-07
1.13914e-06
1.11763e-07
1.09745e-06
1.02178e-07
1.05688e-06
9.35187e-08
1.01727e-06
8.56754e-08
9.78521e-07
7.85553e-08
9.40539e-07
7.20802e-08
9.0327e-07
6.61847e-08
8.66681e-07
6.08145e-08
8.30753e-07
5.59191e-08
7.95475e-07
5.14608e-08
7.60847e-07
4.74032e-08
7.26869e-07
4.37107e-08
6.93536e-07
4.03587e-08
6.60844e-07
3.73131e-08
6.28786e-07
3.45575e-08
5.97348e-07
3.2067e-08
5.66515e-07
2.9818e-08
5.36269e-07
2.77938e-08
5.06591e-07
2.59727e-08
4.77461e-07
2.43398e-08
4.48856e-07
2.28798e-08
4.20757e-07
2.15787e-08
3.93144e-07
2.04199e-08
3.65998e-07
1.93935e-08
3.39299e-07
1.84878e-08
3.13029e-07
1.76883e-08
2.87167e-07
1.69908e-08
2.61694e-07
1.63836e-08
2.36585e-07
1.58604e-08
2.11817e-07
1.54108e-08
1.87367e-07
1.50268e-08
1.63207e-07
1.47012e-08
1.39308e-07
1.44306e-08
1.15642e-07
1.42081e-08
9.21869e-08
1.4027e-08
6.8926e-08
1.38865e-08
4.58401e-08
1.37789e-08
2.28907e-08
1.37002e-08
1.36607e-08
-3.38182e-08
8.98481e-08
-5.74782e-08
9.36846e-08
-7.12405e-08
9.91597e-08
-4.30491e-08
7.05045e-08
2.63752e-08
9.31885e-08
3.10539e-07
3.4058e-07
1.08242e-06
1.03324e-06
2.01703e-06
1.54922e-06
2.53782e-06
1.70542e-06
2.69664e-06
1.60496e-06
2.68743e-06
1.43385e-06
2.60604e-06
1.25909e-06
2.49174e-06
1.09303e-06
2.37483e-06
9.50783e-07
2.26034e-06
8.28628e-07
2.15177e-06
7.24159e-07
2.0512e-06
6.35917e-07
1.95789e-06
5.60819e-07
1.87127e-06
4.96533e-07
1.79075e-06
4.41237e-07
1.71579e-06
3.9344e-07
1.64587e-06
3.51927e-07
1.58049e-06
3.15709e-07
1.51918e-06
2.83981e-07
1.46152e-06
2.56081e-07
1.4071e-06
2.31465e-07
1.35556e-06
2.09673e-07
1.30653e-06
1.90322e-07
1.25969e-06
1.73084e-07
1.21475e-06
1.5768e-07
1.17144e-06
1.4387e-07
1.1295e-06
1.3145e-07
1.08874e-06
1.20246e-07
1.04899e-06
1.10111e-07
1.01012e-06
1.00918e-07
9.72014e-07
9.25649e-08
9.34615e-07
8.49614e-08
8.97874e-07
7.80326e-08
8.61765e-07
7.17164e-08
8.26274e-07
6.59553e-08
7.91399e-07
6.07069e-08
7.5714e-07
5.59279e-08
7.23501e-07
5.15735e-08
6.90482e-07
4.7622e-08
6.58079e-07
4.40297e-08
6.26286e-07
4.07776e-08
5.95093e-07
3.78376e-08
5.64483e-07
3.51834e-08
5.34443e-07
3.27901e-08
5.04954e-07
3.06385e-08
4.75996e-07
2.87068e-08
4.47551e-07
2.69799e-08
4.19595e-07
2.54434e-08
3.92116e-07
2.40689e-08
3.65091e-07
2.28544e-08
3.38498e-07
2.17862e-08
3.1233e-07
2.08333e-08
2.8656e-07
2.00084e-08
2.61168e-07
1.92903e-08
2.36134e-07
1.86697e-08
2.11433e-07
1.81391e-08
1.87043e-07
1.76826e-08
1.62936e-07
1.7297e-08
1.39084e-07
1.69789e-08
1.15462e-07
1.67167e-08
9.2045e-08
1.65048e-08
6.88195e-08
1.63396e-08
4.57689e-08
1.6216e-08
2.28563e-08
1.61311e-08
1.60881e-08
-2.79774e-08
1.46333e-07
-6.53446e-08
1.71172e-07
-1.19096e-07
2.3455e-07
-1.24841e-07
2.75708e-07
2.8851e-07
5.81285e-07
1.04165e-06
1.36832e-06
1.68628e-06
1.81014e-06
2.23009e-06
1.95438e-06
2.47375e-06
1.90384e-06
2.5431e-06
1.73504e-06
2.51679e-06
1.53971e-06
2.4404e-06
1.35088e-06
2.34791e-06
1.18021e-06
2.2515e-06
1.03317e-06
2.15457e-06
9.04977e-07
2.06233e-06
7.95889e-07
1.9751e-06
7.02576e-07
1.89283e-06
6.22384e-07
1.81535e-06
5.53182e-07
1.74245e-06
4.93226e-07
1.67387e-06
4.41073e-07
1.60932e-06
3.95528e-07
1.54849e-06
3.55608e-07
1.49106e-06
3.20495e-07
1.43671e-06
2.89511e-07
1.38515e-06
2.62088e-07
1.33607e-06
2.37745e-07
1.28918e-06
2.16073e-07
1.24419e-06
1.96723e-07
1.20086e-06
1.79393e-07
1.15894e-06
1.63826e-07
1.11823e-06
1.498e-07
1.07855e-06
1.37124e-07
1.03975e-06
1.2564e-07
1.00172e-06
1.1521e-07
9.64372e-07
1.0572e-07
9.27653e-07
9.70732e-08
8.91527e-07
8.91863e-08
8.55978e-07
8.19895e-08
8.21001e-07
7.54222e-08
7.86597e-07
6.94352e-08
7.52769e-07
6.39836e-08
7.1953e-07
5.90061e-08
6.86878e-07
5.4492e-08
6.54814e-07
5.03857e-08
6.23334e-07
4.66659e-08
5.92427e-07
4.33022e-08
5.62082e-07
4.02625e-08
5.32285e-07
3.7522e-08
5.03017e-07
3.50565e-08
4.74264e-07
3.28407e-08
4.46007e-07
3.0859e-08
4.18219e-07
2.91029e-08
3.90896e-07
2.75185e-08
3.64012e-07
2.61266e-08
3.37554e-07
2.4897e-08
3.11504e-07
2.38031e-08
2.85841e-07
2.28553e-08
2.60546e-07
2.20302e-08
2.35599e-07
2.13171e-08
2.10979e-07
2.07053e-08
1.8666e-07
2.01812e-08
1.62615e-07
1.97403e-08
1.38821e-07
1.93738e-08
1.15248e-07
1.90741e-08
9.18787e-08
1.88317e-08
6.86956e-08
1.86431e-08
4.56857e-08
1.85035e-08
2.28154e-08
1.84102e-08
1.83641e-08
-4.53787e-08
4.66377e-07
-8.54236e-08
5.56326e-07
-3.23807e-08
7.70039e-07
3.13121e-07
1.19294e-06
1.18148e-06
1.79148e-06
1.43856e-06
1.96425e-06
1.86696e-06
2.17055e-06
2.18677e-06
2.15101e-06
2.31987e-06
1.99794e-06
2.35427e-06
1.79833e-06
2.32938e-06
1.59588e-06
2.26938e-06
1.40412e-06
2.1997e-06
1.23688e-06
2.122e-06
1.08973e-06
2.04416e-06
9.61966e-07
1.9679e-06
8.5149e-07
1.894e-06
7.55813e-07
1.82289e-06
6.72738e-07
1.75479e-06
6.00408e-07
1.6898e-06
5.3725e-07
1.62792e-06
4.81937e-07
1.56906e-06
4.33351e-07
1.51309e-06
3.90549e-07
1.45984e-06
3.52737e-07
1.40909e-06
3.19245e-07
1.36064e-06
2.89501e-07
1.31425e-06
2.63017e-07
1.2697e-06
2.39374e-07
1.22675e-06
2.18208e-07
1.1852e-06
1.99207e-07
1.14484e-06
1.82099e-07
1.10549e-06
1.66652e-07
1.06701e-06
1.52667e-07
1.02927e-06
1.39974e-07
9.92181e-07
1.28429e-07
9.55682e-07
1.1791e-07
9.19728e-07
1.08315e-07
8.84297e-07
9.9553e-08
8.49382e-07
9.15503e-08
8.14985e-07
8.42427e-08
7.81115e-07
7.75753e-08
7.47778e-07
7.15046e-08
7.14993e-07
6.59496e-08
6.8276e-07
6.09144e-08
6.5108e-07
5.63324e-08
6.19956e-07
5.21762e-08
5.89376e-07
4.84172e-08
5.59332e-07
4.50181e-08
5.29811e-07
4.19527e-08
5.00796e-07
3.91942e-08
4.72276e-07
3.67101e-08
4.44229e-07
3.44918e-08
4.16644e-07
3.2518e-08
3.89494e-07
3.07491e-08
3.62777e-07
2.91808e-08
3.3647e-07
2.77992e-08
3.10554e-07
2.65747e-08
2.85014e-07
2.55092e-08
2.59831e-07
2.4582e-08
2.34985e-07
2.37807e-08
2.10456e-07
2.30921e-08
1.86219e-07
2.25029e-08
1.62248e-07
2.20091e-08
1.38518e-07
2.15973e-08
1.15005e-07
2.12604e-08
9.16897e-08
2.0989e-08
6.85558e-08
2.07774e-08
4.55924e-08
2.06228e-08
2.27693e-08
2.05214e-08
2.04707e-08
1.40453e-07
1.63514e-06
2.8096e-07
1.68538e-06
4.07433e-07
1.86016e-06
9.13876e-07
2.20635e-06
1.32495e-06
2.35339e-06
1.62346e-06
2.33661e-06
1.84269e-06
2.28382e-06
2.03347e-06
2.18279e-06
2.12777e-06
2.00785e-06
2.15445e-06
1.80739e-06
2.13772e-06
1.60882e-06
2.10114e-06
1.42954e-06
2.05085e-06
1.26877e-06
1.99302e-06
1.12613e-06
1.93263e-06
1.0013e-06
1.8713e-06
8.92004e-07
1.81015e-06
7.96204e-07
1.7499e-06
7.12143e-07
1.69108e-06
6.38275e-07
1.63403e-06
5.73252e-07
1.57894e-06
5.15905e-07
1.52593e-06
4.65225e-07
1.475e-06
4.20343e-07
1.42611e-06
3.80512e-07
1.37915e-06
3.45087e-07
1.33398e-06
3.13513e-07
1.29046e-06
2.85307e-07
1.24841e-06
2.6005e-07
1.20764e-06
2.37375e-07
1.16799e-06
2.16965e-07
1.1293e-06
1.98544e-07
1.09143e-06
1.81873e-07
1.05425e-06
1.6675e-07
1.01766e-06
1.52997e-07
9.8161e-07
1.40468e-07
9.4604e-07
1.29036e-07
9.10925e-07
1.18594e-07
8.76258e-07
1.09048e-07
8.42041e-07
1.00321e-07
8.08285e-07
9.23456e-08
7.75001e-07
8.50669e-08
7.42218e-07
7.8419e-08
7.09933e-07
7.23511e-08
6.78162e-07
6.68396e-08
6.4691e-07
6.18226e-08
6.1618e-07
5.7264e-08
5.85964e-07
5.31428e-08
5.56255e-07
4.9413e-08
5.27039e-07
4.60494e-08
4.9831e-07
4.30141e-08
4.70048e-07
4.02857e-08
4.42239e-07
3.78468e-08
4.14871e-07
3.56706e-08
3.87927e-07
3.37238e-08
3.61391e-07
3.19966e-08
3.3525e-07
3.04728e-08
3.09486e-07
2.91242e-08
2.84084e-07
2.79485e-08
2.59027e-07
2.69252e-08
2.34295e-07
2.60408e-08
2.09868e-07
2.52799e-08
1.85723e-07
2.46288e-08
1.61834e-07
2.40851e-08
1.38179e-07
2.36303e-08
1.14735e-07
2.32573e-08
9.14779e-08
2.29591e-08
6.84002e-08
2.27268e-08
4.54905e-08
2.25573e-08
2.27182e-08
2.24457e-08
2.23908e-08
2.38006e-07
2.47918e-06
4.74256e-07
2.48631e-06
7.59516e-07
2.51797e-06
1.06131e-06
2.53704e-06
1.27035e-06
2.47184e-06
1.53752e-06
2.43429e-06
1.72893e-06
2.31462e-06
1.85474e-06
2.1512e-06
1.92978e-06
1.96885e-06
1.95678e-06
1.77754e-06
1.95821e-06
1.59705e-06
1.93982e-06
1.43082e-06
1.90743e-06
1.2796e-06
1.86736e-06
1.14479e-06
1.8225e-06
1.02505e-06
1.77476e-06
9.18823e-07
1.72544e-06
8.2464e-07
1.67547e-06
7.41142e-07
1.62557e-06
6.67093e-07
1.57626e-06
6.01385e-07
1.5279e-06
5.43024e-07
1.48074e-06
4.9113e-07
1.4349e-06
4.44925e-07
1.39045e-06
4.03725e-07
1.34737e-06
3.66927e-07
1.30561e-06
3.34005e-07
1.26505e-06
3.0449e-07
1.2256e-06
2.77975e-07
1.18712e-06
2.54099e-07
1.14947e-06
2.32547e-07
1.11255e-06
2.13045e-07
1.07623e-06
1.95353e-07
1.04042e-06
1.79266e-07
1.00507e-06
1.6461e-07
9.70123e-07
1.51234e-07
9.35549e-07
1.3901e-07
9.01336e-07
1.27831e-07
8.67492e-07
1.17596e-07
8.3403e-07
1.08231e-07
8.00969e-07
9.96643e-08
7.68324e-07
9.18454e-08
7.3613e-07
8.46842e-08
7.04394e-07
7.81544e-08
6.73123e-07
7.22231e-08
6.42342e-07
6.68049e-08
6.12041e-07
6.189e-08
5.82221e-07
5.74416e-08
5.52878e-07
5.34104e-08
5.23995e-07
4.97797e-08
4.95576e-07
4.64887e-08
4.67598e-07
4.35374e-08
4.40052e-07
4.0894e-08
4.12921e-07
3.85369e-08
3.86197e-07
3.64236e-08
3.59862e-07
3.45496e-08
3.33904e-07
3.28954e-08
3.08308e-07
3.14309e-08
2.83059e-07
3.01532e-08
2.5814e-07
2.90404e-08
2.33534e-07
2.80783e-08
2.09221e-07
2.72496e-08
1.85176e-07
2.65438e-08
1.61378e-07
2.59515e-08
1.37805e-07
2.54559e-08
1.14433e-07
2.50505e-08
9.12444e-08
2.47263e-08
6.823e-08
2.4474e-08
4.53782e-08
2.42896e-08
2.26626e-08
2.41688e-08
2.41097e-08
2.55918e-07
2.65624e-06
5.13612e-07
2.64856e-06
7.58245e-07
2.61434e-06
1.00186e-06
2.58062e-06
1.22691e-06
2.48151e-06
1.41538e-06
2.37414e-06
1.56558e-06
2.23444e-06
1.67268e-06
2.07295e-06
1.7398e-06
1.89943e-06
1.77701e-06
1.72837e-06
1.79212e-06
1.56582e-06
1.7883e-06
1.41354e-06
1.7721e-06
1.27453e-06
1.747e-06
1.14865e-06
1.71567e-06
1.03528e-06
1.68001e-06
9.33456e-07
1.64141e-06
8.42182e-07
1.60095e-06
7.60461e-07
1.55945e-06
6.87349e-07
1.51753e-06
6.21963e-07
1.47568e-06
5.63486e-07
1.43425e-06
5.1117e-07
1.39346e-06
4.64337e-07
1.35344e-06
4.22375e-07
1.31426e-06
3.84734e-07
1.27593e-06
3.50922e-07
1.23839e-06
3.20498e-07
1.2016e-06
2.93073e-07
1.16545e-06
2.68298e-07
1.12987e-06
2.45867e-07
1.09476e-06
2.25512e-07
1.06006e-06
2.07002e-07
1.0257e-06
1.90132e-07
9.91633e-07
1.74731e-07
9.57842e-07
1.60648e-07
9.24315e-07
1.47758e-07
8.91058e-07
1.35952e-07
8.58087e-07
1.25131e-07
8.25426e-07
1.1522e-07
7.93104e-07
1.06143e-07
7.61143e-07
9.78545e-08
7.29577e-07
9.02504e-08
6.98422e-07
8.33176e-08
6.67698e-07
7.70103e-08
6.37414e-07
7.12472e-08
6.07573e-07
6.60173e-08
5.78176e-07
6.12795e-08
5.4922e-07
5.69836e-08
5.20709e-07
5.31005e-08
4.92618e-07
4.95945e-08
4.64946e-07
4.64396e-08
4.3768e-07
4.3612e-08
4.10808e-07
4.10902e-08
3.8432e-07
3.88276e-08
3.58202e-07
3.68198e-08
3.32442e-07
3.5047e-08
3.07028e-07
3.34765e-08
2.81944e-07
3.21056e-08
2.57176e-07
3.09108e-08
2.32706e-07
2.98773e-08
2.08515e-07
2.89866e-08
1.8458e-07
2.82304e-08
1.60882e-07
2.75933e-08
1.37398e-07
2.70606e-08
1.14108e-07
2.6624e-08
9.09927e-08
2.62755e-08
6.8045e-08
2.60054e-08
4.52567e-08
2.58074e-08
2.26026e-08
2.56778e-08
2.56143e-08
2.3992e-07
2.60569e-06
4.76943e-07
2.58628e-06
7.01458e-07
2.53691e-06
9.13421e-07
2.47782e-06
1.11603e-06
2.38177e-06
1.27353e-06
2.25769e-06
1.40335e-06
2.11985e-06
1.50035e-06
1.97032e-06
1.57011e-06
1.81814e-06
1.61524e-06
1.66588e-06
1.64005e-06
1.52019e-06
1.64918e-06
1.38341e-06
1.64596e-06
1.25661e-06
1.63326e-06
1.14016e-06
1.61344e-06
1.03391e-06
1.58832e-06
9.3737e-07
1.55929e-06
8.49937e-07
1.52746e-06
7.70926e-07
1.49371e-06
6.99647e-07
1.45874e-06
6.35422e-07
1.42309e-06
5.77598e-07
1.38716e-06
5.25555e-07
1.35127e-06
4.78715e-07
1.3156e-06
4.36542e-07
1.28027e-06
3.98543e-07
1.24534e-06
3.64268e-07
1.21083e-06
3.33311e-07
1.1767e-06
3.05305e-07
1.14291e-06
2.7992e-07
1.10942e-06
2.56866e-07
1.07617e-06
2.35887e-07
1.04311e-06
2.16757e-07
1.01023e-06
1.99282e-07
9.77487e-07
1.83293e-07
9.44895e-07
1.68647e-07
9.12456e-07
1.55218e-07
8.80192e-07
1.42902e-07
8.48133e-07
1.31598e-07
8.16312e-07
1.21233e-07
7.84762e-07
1.11733e-07
7.53524e-07
1.03043e-07
7.2262e-07
9.50742e-08
6.92078e-07
8.77989e-08
6.61925e-07
8.11674e-08
6.32166e-07
7.51139e-08
6.02812e-07
6.96113e-08
5.73867e-07
6.4622e-08
5.45325e-07
6.01003e-08
5.17194e-07
5.59977e-08
4.89456e-07
5.23011e-08
4.62109e-07
4.89681e-08
4.35141e-07
4.59793e-08
4.08546e-07
4.33085e-08
3.82309e-07
4.09161e-08
3.56423e-07
3.87891e-08
3.30875e-07
3.69107e-08
3.05654e-07
3.52448e-08
2.80748e-07
3.37903e-08
2.56141e-07
3.25212e-08
2.31817e-07
3.14232e-08
2.07757e-07
3.04781e-08
1.8394e-07
2.96762e-08
1.6035e-07
2.89974e-08
1.36963e-07
2.84304e-08
1.13757e-07
2.7968e-08
9.07214e-08
2.75968e-08
6.78462e-08
2.73091e-08
4.51264e-08
2.70988e-08
2.25382e-08
2.69613e-08
2.68938e-08
2.17399e-07
2.45609e-06
4.30413e-07
2.43308e-06
6.33534e-07
2.38629e-06
8.2098e-07
2.31768e-06
9.9225e-07
2.22689e-06
1.13642e-06
2.11616e-06
1.25483e-06
1.99256e-06
1.34958e-06
1.86196e-06
1.41963e-06
1.72726e-06
1.47024e-06
1.59439e-06
1.50362e-06
1.46584e-06
1.52249e-06
1.34343e-06
1.52944e-06
1.22843e-06
1.52682e-06
1.12144e-06
1.51666e-06
1.02267e-06
1.5006e-06
9.31963e-07
1.47999e-06
8.49018e-07
1.45589e-06
7.73409e-07
1.42921e-06
7.04663e-07
1.40065e-06
6.42277e-07
1.3708e-06
5.85746e-07
1.3401e-06
5.3457e-07
1.3089e-06
4.88264e-07
1.27742e-06
4.46366e-07
1.24583e-06
4.08446e-07
1.21424e-06
3.74098e-07
1.18269e-06
3.42953e-07
1.1512e-06
3.14673e-07
1.11975e-06
2.88952e-07
1.08834e-06
2.65519e-07
1.05695e-06
2.4413e-07
1.02556e-06
2.24575e-07
9.94167e-07
2.06669e-07
9.62777e-07
1.90251e-07
9.31408e-07
1.75182e-07
9.00085e-07
1.61343e-07
8.68845e-07
1.48631e-07
8.37726e-07
1.36951e-07
8.06773e-07
1.26228e-07
7.76028e-07
1.16391e-07
7.45531e-07
1.07382e-07
7.15318e-07
9.91146e-08
6.85418e-07
9.15595e-08
6.55854e-07
8.46676e-08
6.26645e-07
7.83712e-08
5.97798e-07
7.26441e-08
5.69324e-07
6.74434e-08
5.41219e-07
6.27305e-08
5.13486e-07
5.84474e-08
4.86117e-07
5.45887e-08
4.5911e-07
5.11019e-08
4.32457e-07
4.79749e-08
4.0615e-07
4.51775e-08
3.80179e-07
4.26717e-08
3.54537e-07
4.04415e-08
3.29213e-07
3.84719e-08
3.04197e-07
3.67219e-08
2.79478e-07
3.5194e-08
2.55041e-07
3.38599e-08
2.3087e-07
3.27062e-08
2.06949e-07
3.17126e-08
1.8326e-07
3.08681e-08
1.59783e-07
3.01543e-08
1.36496e-07
2.95579e-08
1.13385e-07
2.90702e-08
9.0433e-08
2.86793e-08
6.76352e-08
2.83764e-08
4.4988e-08
2.81552e-08
2.24701e-08
2.80104e-08
2.79395e-08
1.94153e-07
2.2737e-06
3.8398e-07
2.25136e-06
5.63192e-07
2.20715e-06
7.30844e-07
2.14564e-06
8.82757e-07
2.06605e-06
1.01435e-06
1.97102e-06
1.12572e-06
1.86407e-06
1.21615e-06
1.75065e-06
1.28782e-06
1.63456e-06
1.34238e-06
1.5187e-06
1.38169e-06
1.40527e-06
1.40773e-06
1.296e-06
1.42253e-06
1.19211e-06
1.42799e-06
1.09436e-06
1.42582e-06
1.00314e-06
1.41748e-06
9.18555e-07
1.40417e-06
8.40514e-07
1.38693e-06
7.68798e-07
1.36661e-06
7.03108e-07
1.34391e-06
6.43093e-07
1.31943e-06
5.88373e-07
1.29361e-06
5.38554e-07
1.26682e-06
4.93238e-07
1.23934e-06
4.52038e-07
1.21134e-06
4.14579e-07
1.18296e-06
3.80505e-07
1.15429e-06
3.49484e-07
1.12536e-06
3.21211e-07
1.09622e-06
2.95407e-07
1.06686e-06
2.71821e-07
1.03731e-06
2.5023e-07
1.00758e-06
2.30436e-07
9.7768e-07
2.12267e-07
9.47647e-07
1.95571e-07
9.17512e-07
1.8022e-07
8.8732e-07
1.66098e-07
8.5712e-07
1.53106e-07
8.26961e-07
1.41156e-07
7.96896e-07
1.30171e-07
7.66977e-07
1.2008e-07
7.37237e-07
1.10843e-07
7.07736e-07
1.02339e-07
6.78494e-07
9.45736e-08
6.49543e-07
8.74788e-08
6.20899e-07
8.09944e-08
5.92577e-07
7.50898e-08
5.64588e-07
6.97219e-08
5.36931e-07
6.48567e-08
5.09615e-07
6.04255e-08
4.82625e-07
5.64402e-08
4.55974e-07
5.28227e-08
4.29647e-07
4.95828e-08
4.0364e-07
4.66817e-08
3.77947e-07
4.40802e-08
3.5256e-07
4.17637e-08
3.27468e-07
3.97186e-08
3.02667e-07
3.78963e-08
2.78144e-07
3.63062e-08
2.53886e-07
3.49158e-08
2.29877e-07
3.37165e-08
2.06103e-07
3.26806e-08
1.82545e-07
3.18005e-08
1.59187e-07
3.10551e-08
1.3601e-07
3.04327e-08
1.12993e-07
2.99255e-08
9.01293e-08
2.95174e-08
6.74132e-08
2.92007e-08
4.48424e-08
2.89701e-08
2.23981e-08
2.88189e-08
2.87449e-08
1.72439e-07
2.08953e-06
3.40438e-07
2.07069e-06
5.02694e-07
2.03436e-06
6.52234e-07
1.98085e-06
7.88992e-07
1.91154e-06
9.09355e-07
1.82964e-06
1.01363e-06
1.73878e-06
1.10127e-06
1.64185e-06
1.17292e-06
1.54159e-06
1.22969e-06
1.44047e-06
1.27292e-06
1.34043e-06
1.30414e-06
1.24303e-06
1.32493e-06
1.14946e-06
1.33681e-06
1.06053e-06
1.3412e-06
9.7675e-07
1.33934e-06
8.98372e-07
1.33232e-06
8.25465e-07
1.32109e-06
7.57961e-07
1.30643e-06
6.957e-07
1.28903e-06
6.38452e-07
1.26944e-06
5.85945e-07
1.24814e-06
5.37876e-07
1.22548e-06
4.93929e-07
1.20174e-06
4.5378e-07
1.17714e-06
4.1711e-07
1.15182e-06
3.83611e-07
1.12591e-06
3.52991e-07
1.09946e-06
3.24978e-07
1.07254e-06
2.99321e-07
1.04519e-06
2.75794e-07
1.01744e-06
2.54192e-07
9.89338e-07
2.34335e-07
9.6092e-07
2.16064e-07
9.32235e-07
1.9924e-07
9.03335e-07
1.83741e-07
8.74278e-07
1.6946e-07
8.45124e-07
1.56304e-07
8.15934e-07
1.44187e-07
7.86768e-07
1.33036e-07
7.57677e-07
1.22786e-07
7.28729e-07
1.1338e-07
6.99943e-07
1.04733e-07
6.71371e-07
9.68187e-08
6.43042e-07
8.95799e-08
6.14976e-07
8.29628e-08
5.8719e-07
7.69296e-08
5.59694e-07
7.14409e-08
5.32499e-07
6.64588e-08
5.05606e-07
6.19195e-08
4.79014e-07
5.78331e-08
4.52724e-07
5.41186e-08
4.26734e-07
5.079e-08
4.01034e-07
4.78106e-08
3.75628e-07
4.51301e-08
3.50505e-07
4.27452e-08
3.25654e-07
4.06421e-08
3.01077e-07
3.87578e-08
2.76758e-07
3.71171e-08
2.52684e-07
3.5685e-08
2.28844e-07
3.44452e-08
2.05221e-07
3.33768e-08
1.81802e-07
3.24657e-08
1.58567e-07
3.16959e-08
1.35499e-07
3.10534e-08
1.12584e-07
3.05287e-08
8.98119e-08
3.01046e-08
6.71815e-08
2.97779e-08
4.46901e-08
2.95388e-08
2.23232e-08
2.93824e-08
2.93061e-08
1.54559e-07
1.91902e-06
3.04907e-07
1.90322e-06
4.49607e-07
1.8714e-06
5.8414e-07
1.82472e-06
7.08268e-07
1.76602e-06
8.19837e-07
1.69682e-06
9.17896e-07
1.61943e-06
1.0021e-06
1.5362e-06
1.07266e-06
1.44939e-06
1.13031e-06
1.36101e-06
1.17601e-06
1.27276e-06
1.2109e-06
1.18604e-06
1.2362e-06
1.10197e-06
1.25313e-06
1.02135e-06
1.26284e-06
9.44758e-07
1.2664e-06
8.72526e-07
1.26475e-06
8.04832e-07
1.25873e-06
7.41718e-07
1.24907e-06
6.83127e-07
1.2364e-06
6.28926e-07
1.22125e-06
5.78932e-07
1.20406e-06
5.3292e-07
1.1852e-06
4.9064e-07
1.16495e-06
4.51831e-07
1.14353e-06
4.16225e-07
1.1211e-06
3.8356e-07
1.09779e-06
3.53583e-07
1.07371e-06
3.26054e-07
1.04893e-06
3.00753e-07
1.02351e-06
2.77476e-07
9.9751e-07
2.56042e-07
9.70999e-07
2.36287e-07
9.44033e-07
2.18067e-07
9.16679e-07
2.01255e-07
8.89001e-07
1.85741e-07
8.61073e-07
1.7142e-07
8.32963e-07
1.58212e-07
8.04744e-07
1.46031e-07
7.76479e-07
1.3481e-07
7.48231e-07
1.24485e-07
7.20058e-07
1.14996e-07
6.92002e-07
1.06272e-07
6.64107e-07
9.82766e-08
6.36406e-07
9.09563e-08
6.08924e-07
8.42603e-08
5.81679e-07
7.8149e-08
5.54688e-07
7.25828e-08
5.27958e-07
6.75262e-08
5.01493e-07
6.29173e-08
4.75308e-07
5.87534e-08
4.49386e-07
5.49801e-08
4.23738e-07
5.15866e-08
3.98354e-07
4.85542e-08
3.7324e-07
4.58133e-08
3.48387e-07
4.3379e-08
3.23784e-07
4.12345e-08
2.99435e-07
3.93016e-08
2.75325e-07
3.76242e-08
2.5144e-07
3.6161e-08
2.27772e-07
3.48906e-08
2.04307e-07
3.37954e-08
1.81028e-07
3.28633e-08
1.57923e-07
3.20717e-08
1.34972e-07
3.14138e-08
1.12164e-07
3.08738e-08
8.94861e-08
3.04408e-08
6.6942e-08
3.01057e-08
4.45329e-08
2.98598e-08
2.22458e-08
2.96998e-08
2.96213e-08
1.38074e-07
1.75994e-06
2.73564e-07
1.74641e-06
4.03798e-07
1.71957e-06
5.26393e-07
1.68049e-06
6.40116e-07
1.63079e-06
7.43544e-07
1.57192e-06
8.35711e-07
1.50571e-06
9.16185e-07
1.43399e-06
9.85022e-07
1.35861e-06
1.04265e-06
1.28125e-06
1.08975e-06
1.20338e-06
1.12716e-06
1.12624e-06
1.15581e-06
1.05085e-06
1.17667e-06
9.77996e-07
1.19067e-06
9.08247e-07
1.19871e-06
8.41996e-07
1.2016e-06
7.79482e-07
1.20008e-06
7.20822e-07
1.19479e-06
6.66035e-07
1.18631e-06
6.15062e-07
1.17514e-06
5.67792e-07
1.16168e-06
5.24061e-07
1.14629e-06
4.83681e-07
1.12925e-06
4.46443e-07
1.11076e-06
4.12127e-07
1.09103e-06
3.80512e-07
1.07018e-06
3.51384e-07
1.04833e-06
3.24535e-07
1.02557e-06
2.99774e-07
1.002e-06
2.76923e-07
9.77687e-07
2.55819e-07
9.52716e-07
2.3632e-07
9.27163e-07
2.18295e-07
9.01108e-07
2.0163e-07
8.74632e-07
1.86223e-07
8.47817e-07
1.71982e-07
8.20742e-07
1.58829e-07
7.93485e-07
1.46684e-07
7.66117e-07
1.35484e-07
7.38705e-07
1.25169e-07
7.11308e-07
1.15682e-07
6.8398e-07
1.06948e-07
6.56762e-07
9.89377e-08
6.29691e-07
9.15966e-08
6.02794e-07
8.4877e-08
5.76094e-07
7.87368e-08
5.49605e-07
7.31409e-08
5.23347e-07
6.80464e-08
4.97317e-07
6.34069e-08
4.71531e-07
5.92033e-08
4.45983e-07
5.53971e-08
4.20678e-07
5.19698e-08
3.95624e-07
4.88946e-08
3.70803e-07
4.61295e-08
3.4622e-07
4.36641e-08
3.21874e-07
4.14872e-08
2.97756e-07
3.95267e-08
2.73856e-07
3.78255e-08
2.50169e-07
3.63377e-08
2.26676e-07
3.50515e-08
2.0337e-07
3.39378e-08
1.8024e-07
3.29871e-08
1.57264e-07
3.21843e-08
1.34431e-07
3.15152e-08
1.11728e-07
3.09657e-08
8.91499e-08
3.05248e-08
6.6695e-08
3.0183e-08
4.43713e-08
2.99334e-08
2.21658e-08
2.97704e-08
2.96904e-08
1.24722e-07
1.6142e-06
2.47225e-07
1.60269e-06
3.65396e-07
1.57992e-06
4.77473e-07
1.54682e-06
5.82137e-07
1.50451e-06
6.78198e-07
1.45418e-06
7.6482e-07
1.39726e-06
8.41544e-07
1.33525e-06
9.08295e-07
1.26963e-06
9.65305e-07
1.20183e-06
1.01303e-06
1.13311e-06
1.05209e-06
1.06455e-06
1.08319e-06
9.97076e-07
1.10708e-06
9.31415e-07
1.12452e-06
8.68128e-07
1.13624e-06
8.07622e-07
1.14295e-06
7.50173e-07
1.14527e-06
6.95944e-07
1.14377e-06
6.45008e-07
1.13898e-06
5.97364e-07
1.13134e-06
5.52949e-07
1.12123e-06
5.11658e-07
1.10897e-06
4.7335e-07
1.09485e-06
4.37862e-07
1.07907e-06
4.05016e-07
1.06182e-06
3.74632e-07
1.04325e-06
3.46529e-07
1.02349e-06
3.20531e-07
1.00265e-06
2.96473e-07
9.80829e-07
2.74203e-07
9.58126e-07
2.53581e-07
9.34633e-07
2.34478e-07
9.10443e-07
2.16782e-07
8.85649e-07
2.0039e-07
8.60344e-07
1.85209e-07
8.34617e-07
1.71157e-07
8.08559e-07
1.58163e-07
7.82248e-07
1.46153e-07
7.55766e-07
1.35062e-07
7.29183e-07
1.24839e-07
7.02549e-07
1.15441e-07