/*--------------------------------*- C++ -*----------------------------------*\
| =========                 |                                                 |
| \\      /  F ield         | OpenFOAM: The Open Source CFD Toolbox           |
|  \\    /   O peration     | Version:  v1606+                                |
|   \\  /    A nd           | Web:      www.OpenFOAM.com                      |
|    \\/     M anipulation  |                                                 |
\*---------------------------------------------------------------------------*/
FoamFile
{
    version     2.0;
    format      ascii;
    class       volScalarField;
    location    "0.62";
    object      alpha.particlesMean;
}
// * * * * * * * * * * * * * * * * * * * * * * * * * * * * * * * * * * * * * //

dimensions      [0 0 0 0 0 0 0];

internalField   nonuniform List<scalar> 
6000
(
0.409645
0.414639
0.413916
0.41379
0.412577
0.411382
0.409518
0.407986
0.40665
0.405857
0.405267
0.403983
0.401912
0.400989
0.399984
0.40044
0.401144
0.402505
0.404116
0.405231
0.406101
0.407059
0.408235
0.409801
0.411356
0.412624
0.413996
0.414078
0.414837
0.408833
0.393768
0.396302
0.39516
0.394308
0.392748
0.3917
0.390929
0.390497
0.389862
0.389305
0.388619
0.388268
0.388168
0.38814
0.388268
0.388291
0.388157
0.388164
0.388266
0.388693
0.389353
0.389902
0.390542
0.39097
0.391737
0.392862
0.394345
0.395217
0.39614
0.393548
0.396241
0.406796
0.405417
0.405039
0.402854
0.401779
0.400349
0.399365
0.397953
0.396858
0.396411
0.396446
0.396194
0.396052
0.396098
0.395968
0.39604
0.396098
0.396496
0.396434
0.396876
0.397925
0.399376
0.400434
0.401821
0.402996
0.405173
0.405646
0.406768
0.396315
0.385964
0.39497
0.393207
0.393766
0.392792
0.392385
0.391585
0.391459
0.390816
0.39054
0.391351
0.393485
0.394562
0.394445
0.394269
0.394168
0.394329
0.394352
0.393165
0.391076
0.39035
0.390552
0.391216
0.391523
0.392305
0.392837
0.393897
0.393459
0.395119
0.386025
0.369953
0.37457
0.373697
0.376295
0.375435
0.374566
0.373561
0.373285
0.373825
0.375218
0.377275
0.381096
0.385708
0.387122
0.387098
0.387013
0.386849
0.385002
0.380244
0.37679
0.374773
0.373388
0.373015
0.373573
0.374696
0.375692
0.376514
0.373948
0.374807
0.370071
0.355836
0.359663
0.363132
0.365688
0.363875
0.362123
0.360553
0.358572
0.356743
0.356449
0.358413
0.362147
0.369524
0.374637
0.375339
0.375232
0.373948
0.36817
0.361197
0.357962
0.356052
0.356503
0.358604
0.360819
0.362507
0.364383
0.366081
0.363196
0.359707
0.355979
0.35191
0.362943
0.367677
0.369805
0.367949
0.36428
0.3599
0.3553
0.349993
0.344882
0.343191
0.345046
0.351735
0.361077
0.364213
0.363862
0.359348
0.349951
0.34454
0.343016
0.34495
0.350282
0.355845
0.360605
0.365013
0.3687
0.37042
0.367971
0.362799
0.351657
0.359938
0.37215
0.376879
0.380575
0.382063
0.378465
0.369998
0.361435
0.353211
0.343038
0.33351
0.331456
0.334732
0.345566
0.354245
0.353095
0.342048
0.333323
0.331503
0.334008
0.344118
0.354247
0.362461
0.371172
0.379344
0.382683
0.381228
0.377406
0.372623
0.359915
0.370837
0.375536
0.382791
0.391617
0.397877
0.39611
0.385843
0.37256
0.3615
0.350931
0.333043
0.322718
0.321718
0.32724
0.342255
0.338045
0.324396
0.321868
0.32341
0.334557
0.352741
0.36303
0.374159
0.387162
0.396856
0.397981
0.391815
0.382996
0.376018
0.371863
0.372661
0.375977
0.384936
0.399193
0.409441
0.409453
0.400598
0.386021
0.37157
0.361532
0.341513
0.320583
0.316112
0.316706
0.328389
0.323909
0.315722
0.316869
0.321704
0.343918
0.363425
0.373537
0.387926
0.401388
0.409787
0.409367
0.398979
0.384765
0.376344
0.374177
0.37005
0.373975
0.384364
0.403271
0.417428
0.420773
0.413406
0.399173
0.382868
0.370454
0.352921
0.324008
0.31476
0.31415
0.322813
0.318971
0.313565
0.315213
0.325934
0.35574
0.372341
0.384965
0.400637
0.414261
0.421169
0.417285
0.402767
0.383844
0.374378
0.371736
0.365187
0.369679
0.3811
0.404295
0.422295
0.431227
0.428079
0.413153
0.393776
0.377763
0.362687
0.332751
0.315443
0.315293
0.321862
0.318705
0.314685
0.315851
0.335768
0.365643
0.379629
0.395654
0.414648
0.429032
0.431473
0.422013
0.403494
0.380338
0.370158
0.366805
0.35933
0.363925
0.375618
0.402498
0.424322
0.438223
0.441214
0.427678
0.403792
0.383114
0.371471
0.344993
0.318915
0.318769
0.324975
0.32177
0.317542
0.319867
0.34872
0.373975
0.385156
0.405653
0.429233
0.441912
0.438354
0.424054
0.401493
0.374943
0.364372
0.360733
0.353032
0.357362
0.368875
0.397982
0.423805
0.441455
0.450191
0.439719
0.413433
0.389158
0.377523
0.357414
0.328155
0.325094
0.333848
0.32983
0.322513
0.330008
0.361019
0.379349
0.391135
0.415422
0.441322
0.451069
0.441957
0.42387
0.396827
0.368287
0.357665
0.354301
0.346519
0.350444
0.361609
0.390624
0.420605
0.442315
0.456613
0.448686
0.421954
0.396107
0.383102
0.370862
0.344451
0.337922
0.343909
0.34258
0.334226
0.346718
0.37416
0.384575
0.397937
0.423973
0.450747
0.458331
0.443204
0.420281
0.388882
0.360987
0.350702
0.347684
0.340458
0.343723
0.354319
0.379691
0.412738
0.441114
0.46256
0.456618
0.429166
0.403089
0.389375
0.383926
0.366979
0.355233
0.354444
0.354126
0.353003
0.368041
0.385229
0.391172
0.405321
0.431873
0.459724
0.464461
0.440954
0.411607
0.377476
0.353554
0.343935
0.34163
0.334482
0.337858
0.347993
0.368344
0.401378
0.43379
0.465206
0.464022
0.43762
0.41171
0.395916
0.390196
0.387047
0.37061
0.366329
0.366937
0.371439
0.386322
0.390395
0.397657
0.414752
0.441461
0.466858
0.465689
0.43301
0.399439
0.366553
0.34743
0.33816
0.335484
0.329339
0.336472
0.3459
0.362436
0.389396
0.422454
0.457471
0.46597
0.447044
0.42181
0.401433
0.392117
0.394552
0.383068
0.377128
0.377696
0.38498
0.394339
0.391974
0.40362
0.425692
0.450473
0.466887
0.455941
0.421574
0.38782
0.361852
0.346228
0.337188
0.330231
0.328941
0.340632
0.350642
0.364419
0.382887
0.412701
0.439237
0.458305
0.453091
0.431826
0.407108
0.389789
0.389508
0.387829
0.381775
0.382433
0.389287
0.389215
0.390316
0.410254
0.435513
0.45465
0.455676
0.434591
0.409162
0.381627
0.364323
0.351445
0.34153
0.329946
0.332556
0.345642
0.355789
0.366418
0.378355
0.39513
0.414633
0.430766
0.445263
0.438639
0.413183
0.386557
0.378072
0.383994
0.380624
0.381439
0.383943
0.377863
0.387858
0.416132
0.44057
0.443226
0.426056
0.410263
0.39138
0.376194
0.364326
0.354123
0.344858
0.332505
0.332073
0.342495
0.3456
0.350212
0.360553
0.372446
0.391926
0.409081
0.42595
0.429737
0.412689
0.386785
0.372479
0.376427
0.376336
0.376608
0.37639
0.373165
0.388637
0.414474
0.429806
0.423969
0.406475
0.388468
0.367929
0.355881
0.345545
0.34079
0.338932
0.32887
0.315424
0.322109
0.321513
0.32519
0.337663
0.355111
0.376668
0.3982
0.418738
0.426183
0.413908
0.391934
0.375352
0.372217
0.372269
0.372346
0.372717
0.376995
0.394244
0.415639
0.426626
0.417472
0.396361
0.373659
0.352593
0.33519
0.322438
0.317229
0.317013
0.310577
0.293009
0.298232
0.30221
0.312216
0.328085
0.346224
0.366893
0.391141
0.41526
0.426892
0.418416
0.39936
0.381887
0.373469
0.370277
0.370491
0.374306
0.384086
0.401998
0.420338
0.427183
0.413779
0.389133
0.365
0.344961
0.327145
0.311606
0.300702
0.295256
0.289636
0.283013
0.285894
0.293999
0.308034
0.323298
0.341103
0.360323
0.384206
0.410604
0.427008
0.423654
0.40718
0.389157
0.377705
0.371633
0.371896
0.37848
0.391442
0.409887
0.425333
0.426909
0.408903
0.382211
0.35925
0.340443
0.322943
0.307789
0.293675
0.284662
0.281551
0.278804
0.278182
0.291131
0.305637
0.321059
0.338022
0.354956
0.376352
0.404181
0.425645
0.427825
0.414201
0.396219
0.382873
0.373979
0.374013
0.383806
0.398338
0.416453
0.428991
0.425004
0.402227
0.374549
0.354005
0.33758
0.320858
0.305239
0.291006
0.277571
0.278166
0.27471
0.275026
0.2903
0.304424
0.321049
0.336019
0.349703
0.368177
0.395536
0.421304
0.430555
0.41999
0.402659
0.388068
0.376216
0.375838
0.389106
0.40495
0.422065
0.431035
0.419702
0.393752
0.36684
0.348739
0.335333
0.320721
0.304105
0.289967
0.274684
0.274377
0.273546
0.276679
0.291709
0.30668
0.321689
0.333749
0.34508
0.361362
0.386789
0.414204
0.430822
0.424883
0.408427
0.392485
0.377836
0.376349
0.393533
0.411109
0.427195
0.431478
0.413703
0.38625
0.360777
0.344376
0.333057
0.32126
0.306608
0.291569
0.276516
0.272993
0.277426
0.284139
0.299201
0.312282
0.323829
0.333856
0.344327
0.358696
0.380391
0.407499
0.430184
0.429497
0.413755
0.396179
0.379085
0.374903
0.396771
0.416679
0.432224
0.432062
0.408799
0.380799
0.358768
0.344355
0.333801
0.323828
0.312505
0.299516
0.284345
0.276998
0.284866
0.297299
0.309961
0.320433
0.329715
0.338554
0.348407
0.361103
0.378945
0.401787
0.428231
0.433771
0.419221
0.399687
0.380787
0.375578
0.39981
0.422298
0.437164
0.431566
0.403861
0.379296
0.361372
0.348791
0.338893
0.329987
0.320708
0.310233
0.297608
0.28463
0.294575
0.310258
0.320037
0.328732
0.336964
0.344993
0.353915
0.365008
0.380332
0.399298
0.424095
0.437499
0.424903
0.403234
0.384476
0.38102
0.403168
0.428061
0.441996
0.429168
0.400762
0.38043
0.365383
0.354387
0.345427
0.33731
0.329003
0.320229
0.310346
0.294361
0.304865
0.321093
0.329267
0.336929
0.344411
0.351458
0.35902
0.368222
0.38173
0.398632
0.421041
0.439547
0.43049
0.406663
0.389305
0.387881
0.407128
0.433954
0.445974
0.425335
0.399236
0.381859
0.36867
0.359538
0.351956
0.344836
0.337268
0.329457
0.321047
0.304633
0.315098
0.33078
0.338168
0.345114
0.351523
0.35686
0.36215
0.36936
0.38203
0.398856
0.421615
0.440845
0.434544
0.410444
0.395378
0.394596
0.410566
0.439415
0.4479
0.424808
0.399326
0.382297
0.36991
0.362694
0.357377
0.352
0.345533
0.338401
0.330695
0.314844
0.32468
0.339807
0.346836
0.353013
0.357152
0.359673
0.362981
0.369463
0.38259
0.400546
0.424202
0.44459
0.439557
0.416945
0.402879
0.401701
0.41564
0.443672
0.451346
0.427373
0.40124
0.383142
0.370109
0.363553
0.360233
0.357589
0.35343
0.347105
0.339746
0.324481
0.334223
0.348592
0.35522
0.359087
0.360066
0.360223
0.362832
0.370832
0.385416
0.404423
0.428179
0.449709
0.446455
0.425585
0.411244
0.409492
0.423465
0.449811
0.456443
0.431458
0.4054
0.386356
0.371699
0.363529
0.360736
0.360477
0.359404
0.35551
0.348558
0.334089
0.344071
0.357171
0.361984
0.362207
0.360446
0.359436
0.364035
0.374629
0.390988
0.410166
0.432907
0.454475
0.45378
0.434661
0.419866
0.418074
0.432478
0.456831
0.461256
0.436587
0.411444
0.392241
0.375805
0.364942
0.360072
0.360802
0.362506
0.362139
0.357161
0.343923
0.354389
0.364618
0.365732
0.363066
0.359427
0.360962
0.368079
0.380786
0.398171
0.416762
0.437956
0.458615
0.459944
0.443701
0.428781
0.426853
0.44149
0.463011
0.465057
0.441977
0.418273
0.399557
0.382181
0.369111
0.361607
0.359938
0.363278
0.365904
0.364551
0.354177
0.364294
0.368763
0.367914
0.362819
0.360072
0.364258
0.374349
0.388926
0.406192
0.42364
0.443608
0.462682
0.465445
0.452943
0.438287
0.43637
0.450854
0.468498
0.468494
0.447648
0.425324
0.407558
0.390324
0.375569
0.364956
0.360745
0.363191
0.368129
0.36873
0.363906
0.372556
0.372102
0.36896
0.362439
0.362894
0.37031
0.38333
0.398809
0.414745
0.430885
0.449504
0.467094
0.470763
0.462108
0.447886
0.446039
0.460286
0.473807
0.472316
0.453528
0.43283
0.41609
0.400198
0.384685
0.371224
0.363749
0.363065
0.369425
0.372219
0.371966
0.379287
0.374765
0.369437
0.364087
0.369475
0.379204
0.393479
0.408791
0.42342
0.438246
0.455371
0.471232
0.476112
0.470879
0.457044
0.4553
0.469334
0.479008
0.4759
0.459252
0.440437
0.42495
0.410274
0.395075
0.38062
0.370541
0.364636
0.370184
0.375184
0.378602
0.384485
0.375146
0.373875
0.371083
0.378652
0.389675
0.404781
0.4189
0.431896
0.445147
0.460395
0.474839
0.481606
0.479075
0.465593
0.463938
0.477758
0.484336
0.479045
0.464006
0.447424
0.433579
0.420476
0.406541
0.391172
0.379332
0.371508
0.374622
0.376224
0.383913
0.388469
0.379012
0.381832
0.381911
0.39007
0.400384
0.415224
0.427862
0.439261
0.450896
0.464278
0.477732
0.486995
0.487035
0.474021
0.472434
0.485954
0.489566
0.481503
0.467576
0.4531
0.440937
0.429395
0.416958
0.401987
0.390608
0.382204
0.382344
0.379488
0.387846
0.391358
0.385601
0.389835
0.391752
0.399712
0.409429
0.423039
0.43473
0.444864
0.455077
0.466866
0.480148
0.492665
0.495055
0.481139
0.480165
0.49406
0.494949
0.483669
0.469743
0.457031
0.446427
0.436236
0.424833
0.411104
0.400694
0.392301
0.390396
0.386222
0.390705
0.396685
0.394629
0.398766
0.399941
0.407384
0.41727
0.429236
0.439658
0.448391
0.457319
0.468462
0.482596
0.498175
0.502183
0.487266
0.486837
0.50149
0.500185
0.48594
0.471095
0.458977
0.449842
0.44118
0.431042
0.419107
0.408696
0.400626
0.399048
0.394882
0.396061
0.406109
0.405533
0.407874
0.408618
0.415606
0.425204
0.434946
0.443143
0.450214
0.458699
0.470198
0.485391
0.502993
0.508048
0.492863
0.492901
0.507788
0.504998
0.488785
0.473
0.460468
0.451694
0.44451
0.436519
0.426954
0.41713
0.409243
0.407965
0.40535
0.405471
0.415849
0.415699
0.417367
0.419581
0.425754
0.433779
0.440584
0.44611
0.452289
0.461843
0.473816
0.489549
0.50717
0.512013
0.498535
0.498775
0.511798
0.509264
0.492825
0.476898
0.464234
0.454016
0.447387
0.441821
0.435018
0.427021
0.420149
0.417398
0.415653
0.415199
0.423947
0.425829
0.427674
0.430836
0.435912
0.44112
0.445218
0.449823
0.456777
0.467542
0.479816
0.494988
0.5103
0.513381
0.504104
0.504507
0.514909
0.512286
0.497721
0.482802
0.470263
0.458698
0.451325
0.446395
0.442153
0.436727
0.431336
0.428016
0.425938
0.423465
0.431396
0.436575
0.437927
0.440231
0.443366
0.446199
0.449403
0.455267
0.463926
0.474802
0.486807
0.500338
0.513118
0.516447
0.509585
0.510057
0.518554
0.515486
0.502819
0.489516
0.477414
0.465821
0.456721
0.450586
0.447171
0.444175
0.440849
0.438383
0.437043
0.431227
0.439439
0.446764
0.446127
0.446854
0.448438
0.450138
0.454307
0.462559
0.472231
0.482235
0.49378
0.505611
0.516537
0.519774
0.514847
0.515395
0.522211
0.519019
0.507873
0.496222
0.484561
0.473941
0.463839
0.455464
0.451238
0.449348
0.447511
0.446733
0.447275
0.439843
0.44734
0.453506
0.452192
0.451887
0.45252
0.454709
0.461499
0.471104
0.480121
0.489275
0.50028
0.510704
0.519898
0.523103
0.519778
0.520414
0.52564
0.522503
0.512858
0.502592
0.491425
0.481706
0.472145
0.462372
0.455734
0.453644
0.452551
0.452569
0.453665
0.447817
0.453662
0.458474
0.457712
0.456545
0.456934
0.461546
0.469702
0.479275
0.486983
0.495787
0.506271
0.515652
0.52343
0.526391
0.524283
0.524943
0.528759
0.525856
0.517654
0.508631
0.498137
0.489443
0.480918
0.470348
0.462315
0.458177
0.457388
0.457679
0.458079
0.453795
0.45942
0.462997
0.463248
0.461486
0.46398
0.469185
0.477667
0.48698
0.493899
0.501883
0.511941
0.520482
0.527092
0.529724
0.528502
0.529036
0.53164
0.529143
0.522301
0.514583
0.505303
0.497736
0.490135
0.479137
0.470319
0.465131
0.462497
0.463303
0.462253
0.459399
0.464245
0.467159
0.468622
0.467381
0.471844
0.476636
0.485823
0.495697
0.501722
0.508069
0.517702
0.525413
0.530975
0.53314
0.532456
0.532765
0.534443
0.532515
0.52704
0.520697
0.513271
0.506791
0.499437
0.489341
0.478887
0.472346
0.468736
0.468736
0.466067
0.463833
0.468052
0.470384
0.472947
0.473706
0.477837
0.484968
0.494823
0.504045
0.509907
0.515206
0.52386
0.53064
0.535103
0.536721
0.536309
0.536387
0.537379
0.536121
0.532005
0.527054
0.521816
0.517069
0.510061
0.5011
0.489756
0.481372
0.475397
0.474855
0.468417
0.467044
0.471191
0.47218
0.475632
0.478218
0.485945
0.495144
0.505064
0.512714
0.518431
0.523268
0.530579
0.536101
0.539439
0.540502
0.540243
0.540264
0.540686
0.539978
0.537155
0.533386
0.529614
0.526482
0.522234
0.51487
0.503058
0.493747
0.482553
0.481674
0.470719
0.46887
0.474283
0.47154
0.479717
0.487584
0.498046
0.506669
0.515681
0.521277
0.526217
0.531432
0.537419
0.541605
0.543877
0.544482
0.54431
0.54427
0.544417
0.544097
0.542357
0.539502
0.536297
0.533577
0.531848
0.52865
0.520434
0.508796
0.494795
0.48793
0.474208
0.471439
0.477786
0.471823
0.490334
0.499738
0.511726
0.51958
0.525231
0.527821
0.533488
0.539084
0.543916
0.546862
0.548259
0.548561
0.548461
0.548365
0.54841
0.548325
0.547391
0.545311
0.542249
0.538979
0.537077
0.537006
0.534546
0.526918
0.511737
0.499779
0.480034
0.475542
0.479644
0.481581
0.502956
0.514712
0.525371
0.529507
0.531049
0.533828
0.540492
0.546046
0.549726
0.55163
0.552395
0.552527
0.552481
0.552402
0.552387
0.552374
0.551927
0.550518
0.547717
0.54397
0.539915
0.540262
0.541022
0.538995
0.530178
0.516091
0.495182
0.483282
0.485618
0.498157
0.518294
0.527088
0.532119
0.532949
0.534621
0.540415
0.547115
0.552122
0.554623
0.555695
0.55603
0.556059
0.556028
0.555981
0.555924
0.555884
0.555641
0.554705
0.552305
0.54829
0.543106
0.541457
0.542434
0.543379
0.541232
0.532612
0.513702
0.49679
0.499935
0.517511
0.528065
0.531617
0.532923
0.53405
0.539401
0.547312
0.553336
0.55703
0.558427
0.558845
0.55887
0.558793
0.558719
0.558657
0.558587
0.558515
0.558298
0.557554
0.555487
0.551151
0.545896
0.541266
0.541555
0.544016
0.544918
0.542718
0.532773
0.512765
0.517407
0.5273
0.531008
0.53056
0.532258
0.538949
0.546494
0.553833
0.558505
0.560524
0.560969
0.560869
0.56064
0.56043
0.560265
0.560155
0.560069
0.559966
0.559722
0.559008
0.557105
0.55245
0.546325
0.539468
0.538184
0.541794
0.545324
0.546731
0.543145
0.529023
0.527703
0.528577
0.530359
0.525179
0.536281
0.545734
0.553812
0.559372
0.561985
0.562536
0.562263
0.561791
0.561354
0.561029
0.560787
0.560636
0.560522
0.56041
0.560146
0.559415
0.55743
0.552495
0.544076
0.535325
0.532324
0.535787
0.54249
0.547398
0.547097
0.541104
0.5303
0.526579
0.521273
0.527686
0.543647
0.553814
0.56032
0.563122
0.563734
0.563322
0.562596
0.561899
0.561376
0.561111
0.560933
0.560798
0.560638
0.560438
0.560135
0.559381
0.5572
0.551818
0.541362
0.530662
0.524061
0.527751
0.534985
0.54516
0.547697
0.547569
0.530342
0.515459
0.525864
0.536429
0.55342
0.561383
0.564299
0.564755
0.564182
0.563226
0.562232
0.561527
0.561224
0.561088
0.561003
0.560916
0.56078
0.560523
0.560109
0.559247
0.556943
0.551551
0.541876
0.530636
0.51983
0.517417
0.526998
0.538417
0.545162
0.549122
0.524638
0.521466
0.536514
0.550158
0.562041
0.565489
0.565743
0.564925
0.56373
0.562398
0.561417
0.561067
0.561033
0.561031
0.56105
0.561043
0.56098
0.560795
0.560353
0.559341
0.557075
0.552526
0.545251
0.536087
0.523275
0.51498
0.516139
0.531413
0.536407
0.547506
0.520333
0.530589
0.55087
0.561816
0.566326
0.566686
0.56567
0.564123
0.562321
0.560869
0.560431
0.560537
0.560705
0.560829
0.560925
0.561011
0.561067
0.561014
0.560707
0.559853
0.557746
0.554227
0.549927
0.543563
0.532164
0.521222
0.512759
0.523824
0.531214
0.542299
0.52716
0.546197
0.561818
0.566716
0.567423
0.566431
0.564464
0.562048
0.559629
0.558969
0.559301
0.559824
0.560177
0.560363
0.560499
0.560652
0.560813
0.560906
0.56077
0.560123
0.558535
0.555675
0.553415
0.5491
0.540947
0.530336
0.520167
0.520264
0.525511
0.537743
0.538331
0.559465
0.56672
0.567904
0.567115
0.564687
0.561603
0.558394
0.556207
0.556945
0.557962
0.558917
0.55936
0.559574
0.559733
0.559917
0.560121
0.560276
0.56023
0.559652
0.558287
0.555863
0.554595
0.552105
0.54637
0.538674
0.53069
0.526738
0.523845
0.534481
0.549468
0.564858
0.568062
0.567715
0.565065
0.560948
0.556547
0.553097
0.552075
0.554435
0.556292
0.557612
0.558177
0.558456
0.558652
0.558853
0.559043
0.559157
0.559022
0.558254
0.55648
0.553785
0.552777
0.552489
0.549575
0.544628
0.539875
0.537355
0.528839
0.533361
0.557586
0.566522
0.56804
0.565857
0.561021
0.555351
0.550065
0.54756
0.547944
0.551227
0.553944
0.555734
0.556528
0.556945
0.557222
0.557461
0.55761
0.557598
0.557199
0.555979
0.553435
0.550183
0.549258
0.549741
0.550133
0.548436
0.54628
0.546691
0.53744
0.536266
0.561606
0.567032
0.566535
0.561642
0.555105
0.54824
0.5431
0.542655
0.543895
0.547129
0.550454
0.552927
0.554131
0.554817
0.55525
0.555547
0.555674
0.555482
0.554613
0.552632
0.549042
0.545621
0.544752
0.544811
0.547243
0.549412
0.54966
0.552315
0.548192
0.542619
0.563442
0.56599
0.562506
0.555673
0.548008
0.540557
0.537126
0.538063
0.539206
0.541674
0.545058
0.548651
0.550623
0.551948
0.552589
0.553
0.553007
0.552524
0.55093
0.547797
0.542698
0.540681
0.539416
0.539149
0.541855
0.546555
0.550466
0.554088
0.55449
0.549127
0.563667
0.561801
0.557186
0.549231
0.5406
0.533974
0.532501
0.533328
0.534446
0.534878
0.537747
0.542935
0.546857
0.549129
0.550074
0.550502
0.550245
0.54894
0.546302
0.541412
0.535325
0.535577
0.534728
0.534077
0.535615
0.540977
0.547399
0.552836
0.55526
0.552501
0.561974
0.556899
0.55166
0.542314
0.533311
0.528734
0.527746
0.529358
0.530005
0.529354
0.531028
0.538071
0.544534
0.547692
0.548985
0.549271
0.548817
0.546576
0.542305
0.535111
0.530093
0.531235
0.53095
0.529862
0.530447
0.534307
0.541499
0.549606
0.553384
0.552932
0.55919
0.552631
0.546072
0.534921
0.527726
0.524331
0.524478
0.52552
0.525875
0.526099
0.52851
0.536396
0.544257
0.548059
0.549425
0.549676
0.549
0.546459
0.540996
0.532148
0.527815
0.528086
0.527911
0.526723
0.527293
0.530133
0.535017
0.544629
0.550081
0.55204
0.555226
0.546667
0.540313
0.529727
0.524935
0.520394
0.521359
0.521709
0.523872
0.526415
0.530744
0.537965
0.545427
0.549274
0.550482
0.550821
0.550108
0.547495
0.541847
0.533665
0.530173
0.52729
0.525474
0.524609
0.524876
0.528341
0.532887
0.542061
0.543697
0.54968
0.550188
0.540393
0.539771
0.528892
0.524235
0.51951
0.517778
0.520381
0.525852
0.530978
0.53569
0.540875
0.547165
0.550622
0.551684
0.55198
0.551444
0.548894
0.543193
0.536662
0.533838
0.528848
0.524772
0.522946
0.522532
0.526824
0.532764
0.54232
0.540886
0.546161
0.544486
0.539433
0.542431
0.531647
0.523683
0.51838
0.517884
0.521957
0.529048
0.535815
0.540406
0.543958
0.548946
0.551889
0.552823
0.553035
0.552658
0.550259
0.544585
0.539568
0.536761
0.531229
0.525024
0.5219
0.520705
0.525455
0.532114
0.543789
0.541851
0.542746
0.542449
0.540638
0.544299
0.535388
0.526171
0.518107
0.518748
0.523544
0.531739
0.539536
0.544216
0.547107
0.550716
0.553072
0.553848
0.55396
0.553671
0.551464
0.546246
0.542517
0.538941
0.532982
0.525946
0.521197
0.519606
0.524741
0.532548
0.545766
0.543495
0.543823
0.543258
0.542256
0.545585
0.538597
0.528845
0.520214
0.521038
0.525748
0.534106
0.542221
0.547156
0.549607
0.552468
0.554211
0.554697
0.554665
0.554416
0.552426
0.548104
0.545208
0.54061
0.533523
0.52585
0.520183
0.518192
0.524326
0.534164
0.547678
0.544117
0.544954
0.543406
0.544029
0.545393
0.535617
0.52545
0.521712
0.523343
0.527658
0.53582
0.54406
0.549288
0.551851
0.554042
0.555098
0.555219
0.555051
0.554822
0.55309
0.549844
0.547226
0.541856
0.533662
0.52493
0.518366
0.51645
0.521623
0.535409
0.549168
0.545877
0.545246
0.543576
0.545111
0.54204
0.529575
0.52353
0.521592
0.523803
0.529986
0.537761
0.545408
0.550768
0.553451
0.555024
0.555489
0.555348
0.555091
0.554841
0.55337
0.551083
0.548371
0.542485
0.534063
0.525106
0.517105
0.515053
0.520059
0.53492
0.547141
0.547363
0.545305
0.543383
0.542734
0.535506
0.526114
0.522834
0.522533
0.525488
0.532349
0.539435
0.545974
0.551176
0.553983
0.555147
0.555309
0.555074
0.554763
0.554416
0.553125
0.551259
0.548312
0.542311
0.534495
0.526114
0.517855
0.516011
0.52185
0.53216
0.542296
0.545761
0.544761
0.541815
0.536523
0.532407
0.525194
0.524138
0.525038
0.527631
0.533533
0.539603
0.545467
0.550461
0.553353
0.554432
0.55457
0.554364
0.554001
0.55348
0.552186
0.550185
0.546937
0.541408
0.534739
0.527418
0.52007
0.520098
0.525882
0.529232
0.53814
0.540967
0.543254
0.538033
0.533298
0.531092
0.52655
0.52733
0.527534
0.529473
0.534272
0.539375
0.544176
0.54881
0.551736
0.553004
0.553271
0.553111
0.552684
0.551963
0.550526
0.548214
0.544855
0.540182
0.535028
0.529059
0.52392
0.525578
0.529019
0.529516
0.535438
0.537385
0.540114
0.534283
0.531723
0.532225
0.529779
0.530244
0.529148
0.531079
0.534723
0.539137
0.542821
0.546746
0.549569
0.550971
0.551327
0.551158
0.550661
0.549819
0.548257
0.545828
0.542758
0.539091
0.535329
0.530805
0.52789
0.529852
0.532079
0.532847
0.536332
0.535795
0.536705
0.53195
0.531566
0.534477
0.533236
0.531662
0.53048
0.532221
0.535266
0.53889
0.541618
0.544488
0.546822
0.548118
0.548497
0.54825
0.547694
0.546863
0.545356
0.543132
0.540589
0.538038
0.5354
0.532066
0.530564
0.532022
0.533981
0.537043
0.539496
0.536448
0.53472
0.530543
0.533995
0.537032
0.535505
0.532537
0.531483
0.532651
0.535252
0.537937
0.539797
0.541513
0.543138
0.54429
0.544719
0.544471
0.54386
0.543078
0.541651
0.539798
0.537838
0.536309
0.534734
0.532375
0.531273
0.532332
0.534464
0.53965
0.543017
0.539758
0.533149
0.531339
0.536882
0.538607
0.536143
0.532744
0.531672
0.532021
0.533949
0.535787
0.536791
0.5375
0.538584
0.539739
0.540241
0.54005
0.539405
0.538714
0.53722
0.535578
0.534098
0.533202
0.532454
0.531079
0.530092
0.531195
0.533584
0.539903
0.545053
0.543039
0.534419
0.533631
0.538189
0.539374
0.535718
0.531975
0.52999
0.529939
0.531171
0.532158
0.532572
0.532717
0.533583
0.534925
0.53563
0.535473
0.534908
0.534254
0.532551
0.530895
0.529707
0.529034
0.528537
0.527876
0.527262
0.528319
0.531772
0.538293
0.545601
0.544768
0.537319
0.534779
0.53884
0.539821
0.5341
0.529052
0.526527
0.526638
0.526891
0.527336
0.527548
0.52785
0.529034
0.530701
0.531857
0.531635
0.531253
0.530509
0.52849
0.526556
0.52527
0.524336
0.523761
0.523277
0.52321
0.523675
0.527823
0.535832
0.545006
0.54532
0.539107
0.536111
0.540078
0.539552
0.5296
0.524685
0.521881
0.521688
0.521315
0.522067
0.522879
0.523994
0.525645
0.527703
0.52917
0.529101
0.528793
0.527982
0.525782
0.523434
0.521661
0.520053
0.518878
0.517924
0.517873
0.517797
0.52243
0.530159
0.543402
0.544843
0.539748
0.537659
0.539835
0.535875
0.52789
0.520785
0.51687
0.515536
0.515704
0.517456
0.5194
0.521342
0.523447
0.525852
0.527455
0.527505
0.527282
0.526499
0.524319
0.52173
0.519435
0.516944
0.514728
0.512767
0.511952
0.512384
0.518444
0.52791
0.537136
0.542415
0.539786
0.53824
0.534146
0.532836
0.527374
0.519137
0.512523
0.51037
0.511053
0.513865
0.516866
0.51974
0.522188
0.524765
0.526324
0.526492
0.52633
0.525583
0.523605
0.521005
0.518501
0.514966
0.511653
0.508022
0.507075
0.509064
0.517587
0.52688
0.533036
0.534969
0.539014
0.536419
0.52977
0.530096
0.525436
0.51902
0.511633
0.508122
0.5076
0.511135
0.515045
0.518796
0.521433
0.524014
0.525411
0.52571
0.525539
0.524812
0.523098
0.520571
0.518065
0.513802
0.5095
0.503934
0.504521
0.509343
0.517657
0.523957
0.53019
0.530569
0.535863
0.53271
0.526771
0.527857
0.522551
0.517098
0.51084
0.507994
0.50682
0.509699
0.513873
0.518066
0.520832
0.523368
0.524592
0.524932
0.524791
0.524099
0.522634
0.520166
0.517567
0.513132
0.507791
0.502751
0.504581
0.509672
0.516111
0.52133
0.527857
0.527689
0.53144
0.528867
0.524611
0.526281
0.520061
0.515692
0.509532
0.507042
0.507615
0.509749
0.513228
0.517293
0.520311
0.522761
0.523838
0.524179
0.524094
0.523476
0.52219
0.519796
0.516943
0.512452
0.506496
0.503247
0.505316
0.509033
0.51493
0.519392
0.526292
0.525054
0.528206
0.525595
0.522541
0.525544
0.519293
0.515609
0.509405
0.507016
0.508131
0.510167
0.513013
0.516664
0.519855
0.522199
0.523188
0.523563
0.523473
0.522944
0.521781
0.51943
0.516473
0.511613
0.506132
0.504716
0.50634
0.510064
0.514943
0.518752
0.525775
0.52293
0.525206
0.521386
0.522097
0.526622
0.520809
0.517672
0.511416
0.508355
0.508463
0.510607
0.51298
0.516055
0.519368
0.521592
0.522567
0.522965
0.522854
0.522392
0.521309
0.518958
0.515871
0.510577
0.506167
0.506305
0.509105
0.513195
0.516772
0.520072
0.527005
0.522733
0.521192
0.517671
0.522396
0.526601
0.522468
0.519644
0.514478
0.509702
0.508159
0.50961
0.511522
0.514309
0.517506
0.519593
0.520571
0.520991
0.520871
0.520429
0.51936
0.516996
0.513846
0.508456
0.505324
0.507424
0.512296
0.515458
0.519219
0.521404
0.526522
0.523162
0.517645
0.506182
0.513628
0.517291
0.51434
0.512307
0.50719
0.501994
0.498792
0.498943
0.500331
0.5029
0.505804
0.507796
0.508755
0.509163
0.509051
0.508586
0.507507
0.505112
0.501919
0.497058
0.495473
0.499998
0.504528
0.507579
0.512082
0.513959
0.516275
0.514078
0.506215
0.466007
0.475176
0.48038
0.479485
0.477604
0.472452
0.467928
0.464639
0.46385
0.46457
0.466814
0.469483
0.47141
0.472366
0.472772
0.472655
0.472144
0.47103
0.46857
0.465398
0.46141
0.461404
0.466282
0.469733
0.47285
0.477632
0.479476
0.479634
0.475077
0.46597
0.442065
0.451187
0.458985
0.459148
0.457125
0.452589
0.449439
0.446996
0.446572
0.447209
0.448926
0.451346
0.453335
0.454308
0.454738
0.454621
0.454033
0.452846
0.450262
0.447321
0.444177
0.444733
0.448296
0.450929
0.453069
0.457274
0.459289
0.45878
0.450987
0.441862
0.42633
0.435356
0.444018
0.443781
0.44165
0.438324
0.437067
0.435505
0.435804
0.436944
0.438188
0.44013
0.442137
0.443145
0.443592
0.443488
0.442809
0.441538
0.438948
0.436499
0.433942
0.43424
0.436544
0.438389
0.438902
0.44193
0.443963
0.444099
0.435664
0.4263
0.412338
0.420625
0.429275
0.428628
0.427609
0.42586
0.426041
0.425557
0.426417
0.428102
0.429232
0.430555
0.432464
0.433501
0.433967
0.433864
0.433121
0.431796
0.429412
0.427595
0.425183
0.425053
0.426373
0.427401
0.426628
0.427991
0.428652
0.429075
0.421207
0.412724
0.397628
0.40468
0.413284
0.413973
0.414774
0.414784
0.415844
0.416479
0.417605
0.419598
0.420908
0.421697
0.423372
0.424397
0.424873
0.424759
0.423989
0.422634
0.420634
0.419276
0.41687
0.416406
0.417048
0.417232
0.415772
0.415375
0.413756
0.412668
0.405206
0.398468
0.380694
0.387144
0.396376
0.399922
0.402984
0.404285
0.406418
0.408092
0.409345
0.411212
0.412706
0.413265
0.414581
0.415548
0.415986
0.415854
0.415091
0.413712
0.412167
0.410874
0.408628
0.408049
0.408209
0.407414
0.405194
0.403681
0.399659
0.395281
0.387869
0.381953
0.362635
0.368706
0.379621
0.387132
0.391722
0.394132
0.397307
0.399798
0.401248
0.402832
0.404398
0.405022
0.405883
0.40672
0.407057
0.406919
0.406151
0.404803
0.403716
0.402174
0.400316
0.399757
0.399196
0.397389
0.394429
0.392029
0.386609
0.378349
0.369588
0.36402
0.346364
0.350469
0.365542
0.375031
0.380696
0.383821
0.387799
0.391083
0.39307
0.394372
0.395774
0.396644
0.397037
0.397699
0.397926
0.39772
0.396901
0.395697
0.394983
0.393278
0.3919
0.39131
0.389692
0.386867
0.383269
0.380044
0.373759
0.363757
0.351046
0.346102
0.331236
0.337631
0.353872
0.363565
0.369463
0.373302
0.377749
0.381525
0.384278
0.385524
0.386779
0.387768
0.38778
0.3882
0.388391
0.388096
0.387189
0.386248
0.385802
0.384269
0.38315
0.382151
0.379535
0.375986
0.371762
0.367352
0.360826
0.351144
0.3371
0.330386
0.318741
0.327265
0.343029
0.351475
0.357472
0.361651
0.366568
0.370646
0.373916
0.375684