/*--------------------------------*- C++ -*----------------------------------*\
| =========                 |                                                 |
| \\      /  F ield         | OpenFOAM: The Open Source CFD Toolbox           |
|  \\    /   O peration     | Version:  v1606+                                |
|   \\  /    A nd           | Web:      www.OpenFOAM.com                      |
|    \\/     M anipulation  |                                                 |
\*---------------------------------------------------------------------------*/
FoamFile
{
    version     2.0;
    format      ascii;
    class       surfaceVectorField;
    location    "4.2";
    object      ddt0(Uf);
}
// * * * * * * * * * * * * * * * * * * * * * * * * * * * * * * * * * * * * * //

dimensions      [0 1 -2 0 0 0 0];

internalField   nonuniform List<vector> 
33146
(
(0.00272394909878 0.00454462575636 -0.00447782059684)
(0.00111844548936 0.00956011527886 -0.0044081320733)
(0.00151712569733 0.00497587296509 -0.00818568156556)
(0.00601613657355 0.00421039660278 -0.00436004934388)
(0.00412561399056 0.00882460173298 -0.00497587071224)
(0.00459752918389 0.00482596940998 -0.00807362480467)
(0.00938476156753 0.00407002439318 -0.00422250184489)
(0.00773197641052 0.00835985703036 -0.00501857292741)
(0.00796103394821 0.00465962224966 -0.00781513327341)
(0.0124746191532 0.00408588930342 -0.00411842702439)
(0.0111985884782 0.00832244470907 -0.00494094426991)
(0.0112208754413 0.00463473597981 -0.00760964582789)
(0.0151934252635 0.00418850162052 -0.00404360348017)
(0.0142527495286 0.00848012125623 -0.00485818229755)
(0.0141735938649 0.0046794124857 -0.00750033280122)
(0.0175856616062 0.00435072956091 -0.00397344984023)
(0.016917798369 0.00867901096282 -0.00477139883666)
(0.0167552002142 0.00477010443406 -0.00745628217842)
(0.0195359259285 0.00460035962688 -0.00388955117678)
(0.0191908261113 0.00901410857614 -0.00463147550409)
(0.0189383664306 0.00491854072637 -0.00739390380929)
(0.0207957587183 0.00492222072086 -0.00373766502219)
(0.0208782533936 0.00954277276534 -0.00443445472732)
(0.0205422862719 0.00518559646059 -0.00727147974495)
(0.0213383401934 0.00523668797776 -0.00364527431958)
(0.0217771706225 0.0100879569731 -0.00413147298777)
(0.0214304915702 0.00547716699967 -0.00714385930101)
(0.0212325172981 0.00547974613238 -0.00358318706111)
(0.0219562742873 0.0106093436823 -0.00402568005083)
(0.0215842623178 0.00569316355652 -0.00705004055998)
(0.0205234254575 0.00567732070545 -0.00346610672924)
(0.0214596625395 0.0110644512034 -0.00377307553486)
(0.0210986833941 0.00582621428795 -0.00695128104256)
(0.0193269962119 0.0058752340388 -0.00339913592569)
(0.0204278791961 0.0114207436867 -0.00357321584681)
(0.0200888947991 0.00594946389141 -0.00686752727866)
(0.017852501573 0.00605493525913 -0.0033952512329)
(0.0190203762095 0.0117760811907 -0.00349250722175)
(0.018695666907 0.00602137586297 -0.00693112118237)
(0.01578653388 0.00620860648359 -0.00338238839261)
(0.0171696976095 0.0121236765681 -0.00344837920421)
(0.0169382523122 0.00614640283899 -0.00677358136702)
(0.0135033638265 0.00633852845203 -0.0033165827641)
(0.0149242472733 0.0123508931742 -0.00329007185102)
(0.0148106756695 0.00627236496382 -0.00677215371335)
(0.0109344868255 0.00643056705371 -0.0032504853648)
(0.0124326710879 0.0125764975426 -0.00316670149437)
(0.0123841883269 0.00638557409497 -0.00669817288809)
(0.0081228487665 0.00645911110396 -0.00319242805303)
(0.00966192400787 0.0127144393309 -0.00304190530236)
(0.00967076978162 0.00644011257624 -0.00660104383855)
(0.00508366123297 0.00642603497065 -0.00315053464881)
(0.00666139708667 0.0128451756954 -0.0029574849717)
(0.0067097432725 0.00643730341263 -0.00652880672333)
(0.00229525631554 0.00630180672514 -0.00315514344703)
(0.00364612036931 0.0125741545242 -0.0029693406449)
(0.00376470999795 0.00635620112201 -0.00650998701434)
(0.0011179810138 0.012314027589 -0.00323341900646)
(0.00125741992354 0.0061623354435 -0.00666614566635)
(0.00192535859568 0.0141878858179 -0.00490618218871)
(0.000786524813005 0.0192554560053 -0.00411478264002)
(0.00143658122059 0.0147856869477 -0.00774452214916)
(0.00570143076523 0.0136934698616 -0.0056339575159)
(0.00367525425711 0.0189045488369 -0.00552528481818)
(0.00453123767794 0.0145759945126 -0.00923507639917)
(0.00951133552667 0.0135255020609 -0.00573340861732)
(0.00771499885044 0.0186799975996 -0.00585591463805)
(0.00820319453463 0.0143012783842 -0.00945380940508)
(0.0128373243847 0.0136447871854 -0.00566895318432)
(0.0115001823682 0.0188166974706 -0.00591051601885)
(0.0118131910935 0.0143180947292 -0.00938837035509)
(0.0157447017977 0.0138938476183 -0.00556212084431)
(0.0147450520394 0.0190368849362 -0.00586435826768)
(0.0149822464472 0.0144407143921 -0.00936211307301)
(0.0183474135083 0.0142890058818 -0.00539528336295)
(0.0176217100631 0.0192834677196 -0.00575205638396)
(0.0178020154189 0.014619619072 -0.0093262223862)
(0.0204731081836 0.0148970314795 -0.00513794555405)
(0.020090344189 0.0199283744401 -0.0055466725229)
(0.020197737226 0.0149771268625 -0.00916972425727)
(0.0218019461455 0.0155869359649 -0.00479101292725)
(0.021933568009 0.0209704405633 -0.00514266887372)
(0.0219257985438 0.015615454885 -0.00884153329925)
(0.0222843891915 0.0162748363985 -0.0044757480175)
(0.0226787112709 0.0219629206141 -0.0047460921478)
(0.0227587522209 0.0162418551268 -0.00844208025273)
(0.0221071521257 0.0168780751569 -0.00418376268289)
(0.0227575716881 0.0227747147966 -0.00445312764288)
(0.0228322962498 0.0168336150029 -0.00811789920127)
(0.0213431242892 0.0173503976234 -0.003854330105)
(0.0221458956363 0.0234047273251 -0.00405536540033)
(0.0222496464627 0.0172302993589 -0.00782692545962)
(0.0200492499396 0.0178203253944 -0.00364150758754)
(0.0210477674764 0.0238272872824 -0.00373254989161)
(0.0210827715601 0.0175630169999 -0.00754739415119)
(0.018461090382 0.0181518632111 -0.00352938294717)
(0.019457024455 0.0244067054109 -0.00379320202356)
(0.0195628298107 0.0177885881665 -0.00756982362077)
(0.0162687919285 0.0183720337405 -0.00334766274055)
(0.0174625661752 0.0243722872766 -0.00358079814096)
(0.0177339973746 0.0179750988617 -0.00696356681414)
(0.013912446849 0.0186191819622 -0.00313797192741)
(0.0152191950787 0.0245700931773 -0.00333083708778)
(0.0154897357238 0.0182482873557 -0.00688437171516)
(0.0111963263253 0.0188060121925 -0.00295851342704)
(0.0126503545474 0.0247751917632 -0.00310121763752)
(0.0129184501962 0.0185400975228 -0.00657568283604)
(0.00823954393882 0.0188694330415 -0.00280765774928)
(0.00974654291678 0.02494444421 -0.00285614809909)
(0.0100701239729 0.018750238572 -0.00630764655292)
(0.00507533758233 0.0188102442951 -0.00277641750492)
(0.00663677033442 0.0251123714981 -0.00267618188609)
(0.00701163682985 0.0188203027928 -0.00608431856808)
(0.00204934409058 0.0186064089255 -0.00304761620434)
(0.00350713860113 0.024865520121 -0.00275685576429)
(0.00400570656134 0.0187293324426 -0.00615982708431)
(0.00100075375762 0.0246773734506 -0.00331805925846)
(0.00137038086614 0.0184115054887 -0.00686082035596)
(0.00146376832574 0.0238223978418 -0.00473399233617)
(0.000666460844108 0.0283126330485 -0.00373361022657)
(0.00129122710436 0.0242058319638 -0.00701543014095)
(0.00549476672971 0.0237725079901 -0.00574608356622)
(0.0035887418577 0.0284028734164 -0.00539120293456)
(0.00431832891798 0.0243200571648 -0.009062036546)
(0.0096378286646 0.0238428410356 -0.00602774509598)
(0.00789010350056 0.0285132696472 -0.0059237416066)
(0.00821586543365 0.0242955354909 -0.00961813416319)
(0.0131277671931 0.0239973163546 -0.00609954438498)
(0.0118841267107 0.0287817432444 -0.00610006498069)
(0.0120686295804 0.0243928634468 -0.00981028094084)
(0.0163213746225 0.0242699908877 -0.0060422076813)
(0.015313868266 0.0286226525909 -0.00616464201004)
(0.0154823118065 0.0244673457531 -0.00993923779974)
(0.0191534455755 0.0248819827212 -0.00587134992894)
(0.0184117361479 0.0288923024866 -0.00611670058871)
(0.0185709464684 0.0246624324222 -0.00996271961222)
(0.0215051480436 0.0260352966049 -0.00551036831556)
(0.0212551928915 0.0300621962234 -0.00587204589424)
(0.0212047262857 0.0252588986592 -0.00973840433539)
(0.0227345563024 0.027400863214 -0.00506647348601)
(0.0231808299255 0.0320701843966 -0.00527558170427)
(0.0230446485717 0.0265649324805 -0.00915154944075)
(0.0230004713744 0.0285401606826 -0.00469427939956)
(0.0236171301945 0.033979228307 -0.00493930648282)
(0.0236384215401 0.0277267277618 -0.00868251125835)
(0.0226908754996 0.0293454920057 -0.00430495882159)
(0.023356150815 0.035178858871 -0.00456934849359)
(0.023523841057 0.0285522044837 -0.00829048983474)
(0.0217897956809 0.0298583111654 -0.00393300117217)
(0.0224673973102 0.0359514700821 -0.00406037518903)
(0.0227568733566 0.0290646433721 -0.00792595949509)
(0.0205690254073 0.0302961197971 -0.00388635671057)
(0.0212590148576 0.0363359576922 -0.00373876734537)
(0.0214528387392 0.029355928623 -0.00778128890728)
(0.0183814292706 0.030540858764 -0.00384130765248)
(0.019487858471 0.0366139276863 -0.00409045815825)
(0.0197674647428 0.0295754120826 -0.00700339768242)
(0.0164190696245 0.0306724317007 -0.00353926760624)
(0.0174511644523 0.0364858377519 -0.00382748538389)
(0.0178883370588 0.0297086435867 -0.00730070486362)
(0.0140469558084 0.0308724758128 -0.00327258123871)
(0.0153512946482 0.0368270400093 -0.00357061805579)
(0.015698731611 0.0300960412172 -0.00728046612569)
(0.0112927379079 0.0309999334891 -0.00299022265909)
(0.0127584609403 0.0369430962845 -0.00329344497161)
(0.0131086247412 0.0304743231168 -0.0069793222511)
(0.0081888977403 0.0310642371317 -0.00272460505182)
(0.00978152008239 0.0369179489093 -0.0028934054246)
(0.0101685885649 0.0307794434324 -0.00640921173173)
(0.0049884917865 0.0310571543833 -0.00265742279938)
(0.00656894208169 0.037092736296 -0.00257379912043)
(0.00701132647518 0.0310157079096 -0.00605665963474)
(0.00191542943326 0.0309419061311 -0.00302730253795)
(0.00338172186587 0.0370675849059 -0.00265646362622)
(0.00397560158347 0.0310612089202 -0.00609813411573)
(0.000930173881666 0.0370168955337 -0.00332211020895)
(0.00134756548428 0.0308815809679 -0.00693197798414)
(0.00148741220352 0.0325517333177 -0.00439147007369)
(0.000751310236097 0.0362050890369 -0.00332624913494)
(0.00130347852991 0.0327307083715 -0.0062660721114)
(0.00576497632134 0.0328262793921 -0.00556309262263)
(0.00387830694469 0.0365380554359 -0.00505308136252)
(0.0044036984002 0.0332168766646 -0.00850975588237)
(0.010011239507 0.0329220948797 -0.00599843067159)
(0.00834073991039 0.0367944419497 -0.00575016084733)
(0.00843366969474 0.0334575788916 -0.00930918931674)
(0.0138113141239 0.0328069117267 -0.00615387129194)
(0.012507530409 0.0364053472372 -0.00606283847079)
(0.0124884725812 0.033471970441 -0.0097210807443)
(0.0171023120066 0.032832977382 -0.00617885070804)
(0.0161503067947 0.0354871494723 -0.00624319062782)
(0.0161251433271 0.0332370549738 -0.00995801405646)
(0.02024758135 0.0336535365579 -0.00605888575821)
(0.0195505881107 0.0353360315541 -0.00640396784811)
(0.0194751552375 0.0332272226746 -0.00983761890787)
(0.0231068906971 0.0357677160405 -0.0055696875953)
(0.0231408002656 0.0371882726483 -0.00613406357248)
(0.0226116940562 0.0342606578628 -0.00941859824785)
(0.0238696445975 0.0385452761376 -0.00501218977735)
(0.024959982505 0.0413721074768 -0.00502135205776)
(0.024435750882 0.0369719901233 -0.00853862779923)
(0.0237921639436 0.0407327333585 -0.00460622141801)
(0.0248888725021 0.0449069963249 -0.00469829402421)
(0.0245407734692 0.0393183893009 -0.0081451744703)
(0.0230625561459 0.0419703558307 -0.00410071816061)
(0.0238874717649 0.0470003589374 -0.00414379559416)
(0.02398785178 0.0408052726158 -0.00781656741028)
(0.0218374700607 0.0425946753711 -0.00367486436626)
(0.0225495043559 0.0478790315038 -0.00345870274313)
(0.0228942980576 0.0415188429885 -0.00740646057217)
(0.0205653451268 0.0427349782378 -0.00381611376441)
(0.0209277678834 0.0481680211146 -0.00323336135036)
(0.0213967991082 0.0417589331073 -0.00734821318592)
(0.0182336642293 0.0426518874077 -0.00395825749587)
(0.0191393371076 0.0477823842575 -0.00357853824026)
(0.0196580260655 0.0416275540223 -0.0064364921335)
(0.0165340440868 0.0427865268476 -0.00377108441933)
(0.0175090835703 0.0484017598931 -0.00376505052661)
(0.0179479757075 0.0413355657202 -0.00768266128813)
(0.0141785316365 0.0429696488333 -0.00354783135308)
(0.0156985533142 0.0489051495899 -0.00370865892805)
(0.0158853570201 0.0417959470347 -0.00756982528945)
(0.0113346461469 0.0429701272792 -0.00317685125918)
(0.0130664032762 0.0489454000888 -0.00344760042668)
(0.0132287033468 0.0421644888755 -0.0073249176127)
(0.00826121222206 0.0429905755452 -0.00273367062159)
(0.0100213860789 0.0486793659539 -0.00286317637081)
(0.0102801867274 0.0424855922717 -0.00681949814906)
(0.00494100140268 0.04308954228 -0.00257328202615)
(0.00667937809872 0.0487322271449 -0.00245605524868)
(0.00706414266582 0.0428997012082 -0.00613523609477)
(0.00182112319419 0.0431282555332 -0.00295108358923)
(0.00338505652488 0.0489968530181 -0.00254997227623)
(0.00393356734021 0.0431986404209 -0.00602582568346)
(0.000925167391207 0.0491026605253 -0.00323050071538)
(0.00132583574931 0.0432060847169 -0.00682777197244)
(0.00186429099536 0.0397828961419 -0.00398603983501)
(0.000943062176367 0.0425170125163 -0.00289931935126)
(0.00140708312902 0.0398926319981 -0.00552187333504)
(0.00631690175629 0.040071684102 -0.00522861231481)
(0.00433012143178 0.0429803000403 -0.00461540033841)
(0.00466253851768 0.0405909659947 -0.00783818729227)
(0.0108660876919 0.0397465947883 -0.00576200859843)
(0.00900592124629 0.0430579412218 -0.00533367655349)
(0.00884239159885 0.0408440607732 -0.00899804444936)
(0.0148783175143 0.0386077747419 -0.00604458427003)
(0.0134023319887 0.0413138845173 -0.00588520041135)
(0.013168707111 0.0403009133064 -0.00944683181786)
(0.0185201161048 0.037651366684 -0.00627483847678)
(0.0173643673016 0.038650416899 -0.00640637056228)
(0.0171013538999 0.038902530415 -0.00940601948819)
(0.0220990618747 0.0386145132677 -0.00619052022351)
(0.0212147044884 0.0381042311894 -0.00687791583327)
(0.0208138440798 0.0383498286345 -0.00917340294714)
(0.0256802662321 0.0425998462168 -0.00533016118334)
(0.0259741547406 0.0411317849513 -0.00671642577677)
(0.024939166907 0.040041617529 -0.00861189847945)
(0.025484541654 0.0474865797247 -0.00458421554707)
(0.0273236062215 0.0490840454962 -0.00518443646782)
(0.0266408334334 0.0452295175507 -0.00707243480016)
(0.024768579342 0.0507101827705 -0.00419754215807)
(0.0258749476555 0.0547374456727 -0.00487295764416)
(0.026021304655 0.0484754606787 -0.00687660535778)
(0.0233107823511 0.0521016304618 -0.00357008534297)
(0.0235900073922 0.0580863975747 -0.00447966399029)
(0.0246219959268 0.0503827667313 -0.00658818090048)
(0.021727133907 0.0523160003496 -0.00313868954633)
(0.0216639124281 0.0586858208898 -0.00367833888781)
(0.0227546080076 0.0509963279464 -0.00629010421995)
(0.0197369999063 0.0521592626293 -0.00312311350726)
(0.0199704844345 0.0591366013059 -0.00276290868826)
(0.0207871072576 0.0509340076774 -0.00664734970992)
(0.0180430210972 0.0527657648794 -0.00351729670609)
(0.0194653593611 0.0580804380186 -0.00277452778205)
(0.018856289123 0.0509405196999 -0.00676864986596)
(0.0170289799291 0.0540998077081 -0.00381985264245)
(0.018788036831 0.0592441675231 -0.0039589727221)
(0.0177507827428 0.0513538381405 -0.00772765633853)
(0.0146552414195 0.0547086730284 -0.00366886663975)
(0.0168530247664 0.0603460921719 -0.00371823611848)
(0.0162610459725 0.0528335776597 -0.00749618268426)
(0.0118151677375 0.0545835249133 -0.00317358547057)
(0.0139317149697 0.0603719822982 -0.00348015455301)
(0.0135911807497 0.0533711066926 -0.00739567990867)
(0.00858149552801 0.054492715072 -0.00257914333617)
(0.0107220786785 0.0600388929288 -0.00252371051749)
(0.0106499480635 0.053766088324 -0.00697923213237)
(0.00513695793262 0.0547031393313 -0.00243014531634)
(0.0071711392382 0.059833745289 -0.00228623971301)
(0.00736097810546 0.054316655846 -0.00614045833119)
(0.00185296945667 0.0549479336016 -0.00282992519994)
(0.00364022495691 0.0605900059241 -0.00236672343619)
(0.00407498101634 0.0549244771141 -0.00595400874541)
(0.00101069110916 0.0607853048226 -0.00303471069645)
(0.00135932496446 0.055207672606 -0.0065847766577)
(0.00223409911135 0.0452609314587 -0.00352079073255)
(0.00114440597833 0.0471479443103 -0.00244907962723)
(0.00154871399993 0.0453964833501 -0.00474200835544)
(0.00673219231898 0.0453446830982 -0.00470919640059)
(0.00480341097007 0.0476384728738 -0.00405673100231)
(0.00499269080756 0.0462342067382 -0.00700367975287)
(0.0114791690379 0.0440146397714 -0.00529260508678)
(0.00971514683774 0.0470047447634 -0.00478149967536)
(0.00949421363671 0.0462384821345 -0.00822165479146)
(0.0158694430019 0.0410710223321 -0.00578465140925)
(0.0145204348573 0.0437785658092 -0.00548330543957)
(0.0141393690722 0.0444923191499 -0.00883372847489)
(0.0201487280949 0.0390933314165 -0.00624683161822)
(0.0189897248224 0.0394088067241 -0.0061480527723)
(0.0184124293877 0.041595026875 -0.00880918122593)
(0.0241820701767 0.040915548227 -0.00622170065622)
(0.0232615777232 0.0394912780473 -0.00650812059153)
(0.0224296144317 0.0410415566771 -0.0088914027006)
(0.0289085360469 0.0486564318927 -0.00497180422251)
(0.0303492586888 0.0441734646451 -0.00577129899929)
(0.027983681071 0.044457914033 -0.0087470335777)
(0.0263472105212 0.0581437175111 -0.00397880341733)
(0.031566510084 0.0585211754974 -0.00192966960689)
(0.0286862700203 0.0563212702633 -0.00642992058949)
(0.0244307928344 0.0650041321598 -0.00368561499608)
(0.0278861782511 0.0656190529337 -0.00136444769113)
(0.0260243817504 0.06249449779 -0.00668717818888)
(0.0217146347918 0.0690798061838 -0.00290331684118)
(0.0243174714705 0.0695926268932 -0.00100161785892)
(0.0235783860651 0.0668507256376 -0.00606231208803)
(0.0200574244152 0.0701525833064 -0.001990211961)
(0.0216788459496 0.0681651716628 -7.76472221272e-07)
(0.0218181375142 0.0678797578087 -0.00559835582265)
(0.0193949882291 0.0695025837866 -0.00107971263099)
(0.0193533261324 0.067046728669 0.00234594093856)
(0.0206999713788 0.0680024113172 -0.00615191493767)
(0.0205087850804 0.0677196477588 -0.00213444351123)
(0.0188029724178 0.0656663745179 0.00393180220704)
(0.0200428460956 0.0667898011322 -0.00832301904803)
(0.0191592755939 0.0665597178153 -0.00348308462326)
(0.0189501750439 0.0680859455696 -0.00159857806523)
(0.0193125982101 0.0637656880868 -0.00685052051605)
(0.016060532771 0.0662082431499 -0.00341784516728)
(0.0181467028288 0.0697615338414 -0.00208399993727)
(0.0178103412448 0.0639290336135 -0.00613216084402)
(0.0128112179601 0.0656089036997 -0.00287969495113)
(0.0153638642976 0.0707109183156 -0.0022439260577)
(0.0146071270463 0.0641758586233 -0.00687136841768)
(0.00949016220839 0.065376868624 -0.00223523918245)
(0.0120422149872 0.0704742854593 -0.00196624093082)
(0.011561471905 0.0645481517591 -0.00670342711065)
(0.00564900016275 0.0657615334536 -0.00221015777719)
(0.00820123904938 0.0707117337104 -0.00194077251439)
(0.00808180535746 0.0652535637368 -0.00613001734698)
(0.00215920933051 0.0662404570026 -0.00258572015276)
(0.0042819549742 0.071376270069 -0.00204365900765)
(0.00453886416474 0.0661525916821 -0.00551709227943)
(0.00122617160178 0.0719301137957 -0.00269650216803)
(0.00149753143411 0.0667212926091 -0.00609774014169)
(0.00259773730502 0.0489819697424 -0.002977716985)
(0.00130178547372 0.0501208815173 -0.0019745414165)
(0.00168192302878 0.0491781334838 -0.00392563953615)
(0.00742799657524 0.0487697152356 -0.00404534516323)
(0.00520698602552 0.0505432311941 -0.00339462510648)
(0.00534271946243 0.0500706454229 -0.00610476210766)
(0.0124935604128 0.0462494507484 -0.00466736889767)
(0.0103332364137 0.0495210562374 -0.0040732518455)
(0.0101887580838 0.0496780593147 -0.00737234701759)
(0.0174216884409 0.0416147661224 -0.00521549021615)
(0.0155524588328 0.044909156051 -0.00487915604751)
(0.0153412550971 0.04658198781 -0.00785539156546)
(0.0221976349361 0.0391668590713 -0.00560748249024)
(0.0204376476218 0.0393759003336 -0.0055682728765)
(0.0202208934533 0.0423059451036 -0.00786221074598)
(0.0268621551453 0.041578676883 -0.00503825240117)
(0.0243420273259 0.0396966467502 -0.00633797304337)
(0.024814009408 0.041576366294 -0.00783840028628)
(0.0343341305137 0.0520198890974 -0.00139657273087)
(0.0349228143562 0.0439750639016 -0.00707631048086)
(0.034588404961 0.0445715573492 -0.00686614736824)
(0.0300058900965 0.0631393953034 0.00126361655793)
(0.034901026396 0.0612425335843 8.47041384804e-05)
(0.0359081061254 0.0614522198223 0.00274032139918)
(0.027368768198 0.0669663494613 0.00212281549306)
(0.0254647135781 0.0645725432103 0.000433563539502)
(0.0298167595773 0.0647434655167 0.00319866186579)
(0.0241767457205 0.0655722662369 0.00290638710647)
(0.0204338459463 0.0661902102607 0.000838066640016)
(0.0261198230685 0.0652192398649 0.00312356868337)
(0.0209732491803 0.0615352884022 0.00468876448963)
(0.0181241797182 0.063930589357 -0.000204870887044)
(0.0234627780439 0.0608155842032 0.00321004100207)
(0.0183657013146 0.0572454706557 0.00608756899639)
(0.0174418654066 0.0605029848426 -0.00157810867704)
(0.0208173992673 0.0567105954031 0.00547699019748)
(0.0164809007869 0.0617627137909 0.00355796571275)
(0.0242735146476 0.0591721932597 -0.00167222629656)
(0.0167038364337 0.0520847293033 0.0057310290037)
(0.0189677435346 0.0705332069707 -0.000159139133312)
(0.0262934219111 0.0714626284895 -0.00277491897019)
(0.0162702897373 0.0654823521494 -0.00563906087069)
(0.0171584812136 0.0731809480099 -0.00111175880412)
(0.0212506526771 0.0779728484759 -0.00271789147889)
(0.0178178352657 0.0696871397006 -0.00594217279543)
(0.0145346838445 0.0746019012686 -0.00163527735539)
(0.0183969429637 0.0791222735872 -0.0031752268366)
(0.015703199172 0.0720201067616 -0.00566825609847)
(0.0110350543271 0.0754247324543 -0.0017827375825)
(0.0145182012235 0.079720410159 -0.00187410214891)
(0.0129518145539 0.0740012443404 -0.00576756105509)
(0.00676218868107 0.0761397460608 -0.00180538618293)
(0.00993536826264 0.0806470751832 -0.00154806207932)
(0.00934041462413 0.0754311823428 -0.00532422444304)
(0.00273958762931 0.0768706228951 -0.00216579322955)
(0.00532384288992 0.0815208324354 -0.00155909474647)
(0.0053803314103 0.0767381973242 -0.00486059312002)
(0.00157467646949 0.0823456962384 -0.00218346982332)
(0.00178968315816 0.0775644019291 -0.00527330474062)
(0.00295853437371 0.0511437163786 -0.0023823220899)
(0.00145735692087 0.0514931083116 -0.00148815586487)
(0.00179218646503 0.0513293919807 -0.00308300941129)
(0.00789634468425 0.0508140808534 -0.00333214821309)
(0.00560666763064 0.0519881105798 -0.00268560472514)
(0.00561380310368 0.0522874421912 -0.00504853450711)
(0.0131044624863 0.0477227070088 -0.00400694305593)
(0.0109434537226 0.0509752042812 -0.00330204034494)
(0.0106336620182 0.0517327007325 -0.0062525807359)
(0.018343690039 0.0424170824061 -0.00473554796607)
(0.0164846038679 0.0459148483588 -0.0040484314036)
(0.0160228700161 0.048054874407 -0.00697790150176)
(0.0231752229239 0.0399844977413 -0.00592567910079)
(0.0217768165897 0.0404711128384 -0.00480292312775)
(0.0209942074057 0.0431052597335 -0.0074514545475)
(0.0279587061421 0.0431511955926 -0.00756531130224)
(0.0252932967009 0.0416534303659 -0.00604824443737)
(0.0239819207166 0.0421511638089 -0.00883065145425)
(0.0361342383396 0.0542255184386 -0.00252137666935)
(0.0378201447503 0.0483101951424 -0.00736863836677)
(0.0382192495996 0.0448507675357 -0.0113295620253)
(0.0257405248175 0.0643436757367 0.000792307319248)
(0.0361529379427 0.0623806853185 0.0025036648766)
(0.0359354032571 0.0603359587171 0.00976316500769)
(0.0189890184653 0.0665662683275 -0.000592727604027)
(0.0225598051309 0.0684134780524 0.00182670721876)
(0.0210777352471 0.0622024795764 0.00434025818491)
(0.0139746020666 0.0667185394323 -0.00325138328758)
(0.0183942865098 0.0743358373881 0.00128900453857)
(0.0157120927172 0.063110908562 -0.00143758017884)
(0.016168803056 0.06642701254 -0.00669173063765)
(0.0171432225948 0.0761017760215 -0.000870388103461)
(0.013454765319 0.0633854005109 -0.00916258045381)
(0.0218936736436 0.0664265716019 -0.00896694690751)
(0.0176165358641 0.0775236338803 -0.0031277664397)
(0.0140093768237 0.0632754533625 -0.0141097035345)
(0.0348939919565 0.0741602982015 -0.00582662261841)
(0.0314300611946 0.0801547046978 -0.00364216954607)
(0.0289289366909 0.062362208761 -0.0207439835919)
(0.0273183579915 0.083712846351 -0.00347172055648)
(0.0348667579779 0.0889706928035 0.00181979487189)
(0.0342449717301 0.0773428322404 -0.00893534216265)
(0.022194793624 0.085766277297 -0.00418271453818)
(0.0245880863664 0.0925253978086 -0.00148788257159)
(0.0239494281788 0.080655508545 -0.00767573326845)
(0.0184871006506 0.0855204731689 -0.00301980863173)
(0.0214295602924 0.0919947156785 -0.00284086144752)
(0.0204809277835 0.0824072614055 -0.00816070425544)
(0.0137345408657 0.0852683031789 -0.00156808986251)
(0.0171334794052 0.0902454382082 -0.00117314844138)
(0.0166693543499 0.0838070019247 -0.00580842725863)
(0.0084794750139 0.0858871605249 -0.00132555236765)
(0.0118709069255 0.0903182446333 -0.000873562858396)
(0.0116375301289 0.0851793431504 -0.004479149613)
(0.00355445256635 0.0866754828684 -0.00158703294425)
(0.0065276131384 0.0909417813875 -0.00091529697918)
(0.00665291782178 0.0865438284844 -0.00377441470104)
(0.00199112087695 0.0917321869468 -0.00149715577969)
(0.00220545119816 0.0875282749775 -0.00405023925357)
(0.00331680868535 0.0518145513025 -0.00178420293579)
(0.00166896587994 0.0513330497935 -0.00106269614851)
(0.0019282345317 0.0519218612882 -0.00226880333431)
(0.00837491551081 0.051521066744 -0.00260742816694)
(0.00610967922914 0.0519167569675 -0.00203021065574)
(0.00601961155184 0.0529420383633 -0.00393452715007)
(0.0140172311827 0.048340916662 -0.00320121509187)
(0.011671109553 0.0508937255021 -0.00257815343124)
(0.01127090032 0.0524917644101 -0.00498186852688)
(0.0196448429541 0.0430875063621 -0.00384119156955)
(0.017529921479 0.045785420387 -0.00314330096761)
(0.0170059343218 0.0487889510541 -0.00560398082926)
(0.0246143771717 0.0411498875335 -0.00494421776482)
(0.0233068622221 0.040641282926 -0.0037996088515)
(0.0225076297977 0.0439650007967 -0.00596245881526)
(0.0302972127029 0.0454807996917 -0.00689897825571)
(0.0273729542033 0.0422224137922 -0.00551169589141)
(0.0258217423113 0.0438727703775 -0.00719711340427)
(0.0383147500665 0.0553425833247 -0.00185204129578)
(0.0394240582342 0.0507161824877 -0.00743408346252)
(0.0405636884222 0.0484255370258 -0.00927929952094)
(0.0280971587156 0.0649169493254 0.00131236316613)
(0.0375096340545 0.0614805508363 0.00169413727476)
(0.0376456743085 0.0580735483729 0.0124208969329)
(0.0233297395659 0.0710263951974 0.000806833882363)
(0.0247779887583 0.0679794936174 0.000537793301803)
(0.023614851872 0.064136813529 0.00712500925125)
(0.0215231158087 0.0762642105003 0.000993828668558)
(0.0227442573098 0.0724699273522 9.79075966473e-05)
(0.0223420073281 0.0702412144041 0.00396831340963)
(0.0208236460427 0.0811601537458 0.00106766866228)
(0.0220535887308 0.0757143000574 -0.000325202714088)
(0.0205224706977 0.0761216009251 0.000777011098538)
(0.023628780568 0.0859562780057 0.0005339316134)
(0.0220732279642 0.0808219811971 -0.000595453828287)
(0.0179619210853 0.0820526018406 -0.00452240167408)
(0.0347843830787 0.0907691791967 0.00343766939866)
(0.034900339218 0.0880307967297 -0.000807339928066)
(0.0296924238809 0.0862686953751 -0.0125760254285)
(0.0286534046321 0.094538577741 0.00264095321401)
(0.0378656482529 0.0949982999061 0.00615247926355)
(0.0332946661957 0.0910105370569 -0.00192254143861)
(0.0232615640043 0.0958227906873 -0.0013311207809)
(0.0277493380576 0.0979048570222 0.000628893663317)
(0.0237700043313 0.092148313244 -0.000692034927777)
(0.0205732681114 0.0950688528099 -0.00155651045374)
(0.0241900367159 0.0991710705911 -0.00105057734962)
(0.02150067569 0.093155162113 -0.0050423301333)
(0.0157105311927 0.0943323464213 -0.000716894745674)
(0.0194050345902 0.0983057631053 4.39454725744e-05)
(0.0183191218688 0.0934083142857 -0.00403396785541)
(0.0100284017658 0.094660741994 -0.000578070703127)
(0.0137296777213 0.0982740565283 0.000108856178684)
(0.0133247460232 0.0941691339196 -0.0030230331322)
(0.00442842261578 0.0953873228799 -0.000853948003328)
(0.007737895447 0.0990587413472 0.00014176622494)
(0.00783518770181 0.0955244479322 -0.0024452273049)
(0.00239815364221 0.0997354259155 -0.000586010445417)
(0.00266485525341 0.0963683600919 -0.00253831954605)
(0.00375303324633 0.0509357720706 -0.0013064537705)
(0.00192616095917 0.049732878253 -0.000744334678644)
(0.00211345546038 0.0509538524666 -0.00157039795494)
(0.00917755152416 0.0507187940551 -0.00195585518435)
(0.00671445800711 0.0503837755986 -0.00148543106943)
(0.00655117999754 0.0520449793313 -0.00300955177828)
(0.0149273953644 0.0475983423002 -0.00239746526393)
(0.0125164540333 0.0495299200174 -0.00188614344333)
(0.0120529711512 0.051728318478 -0.00375950689563)
(0.0209193980831 0.0426154531677 -0.00288974451713)
(0.0186254401091 0.044542166444 -0.00224875777115)
(0.0180940420077 0.0481011675525 -0.00430162584727)
(0.0266681014539 0.0411252059007 -0.00398711842507)
(0.0248614694149 0.0397429271391 -0.00251017736851)
(0.0239238067289 0.0435331745064 -0.00470602156304)
(0.0322412148471 0.0468508083673 -0.00589246760808)
(0.0302950625578 0.0414141888822 -0.0035826293694)
(0.0277678253417 0.0441071932451 -0.0058398184309)
(0.0391419129116 0.0574416396127 -0.00119720713815)
(0.0416059635726 0.0520728192896 -0.00499765128843)
(0.0413876599222 0.0511699060407 -0.00777800239297)
(0.0297585725246 0.0668976844237 0.00175083277366)
(0.0397652847504 0.0587350841243 0.00290921531551)
(0.0380100149752 0.0598070971128 0.0126703400425)
(0.0259312813572 0.0724009966001 0.00121241605868)
(0.0277267040616 0.0650060897606 0.00134714895935)
(0.0252769405606 0.0663843893505 0.00743938509906)
(0.0237368966966 0.0759624276616 0.000693395269352)
(0.0256518269656 0.0708848135712 0.00100985607835)