/*--------------------------------*- C++ -*----------------------------------*\
| =========                 |                                                 |
| \\      /  F ield         | OpenFOAM: The Open Source CFD Toolbox           |
|  \\    /   O peration     | Version:  v1606+                                |
|   \\  /    A nd           | Web:      www.OpenFOAM.com                      |
|    \\/     M anipulation  |                                                 |
\*---------------------------------------------------------------------------*/
FoamFile
{
    version     2.0;
    format      ascii;
    class       volVectorField;
    location    "4.2";
    object      ddt0(rho,U);
}
// * * * * * * * * * * * * * * * * * * * * * * * * * * * * * * * * * * * * * //

dimensions      [1 -2 -2 0 0 0 0];

internalField   nonuniform List<vector> 
11640
(
(1.32430758995 4.74783328245 -4.5108544871)
(4.40137568707 4.32504911435 -4.42865505528)
(7.74985852901 4.08055666979 -4.2757086677)
(11.024957667 4.04670884749 -4.15659497278)
(14.1671931188 4.13267748149 -4.09362874505)
(17.1727265791 4.30331113252 -4.06773775038)
(19.6621489731 4.50974771639 -4.0030648457)
(21.2554250645 4.81793505247 -3.89754830631)
(22.003128018 5.13214292606 -3.66333085247)
(22.0058877429 5.41265332963 -3.67468208558)
(21.3389005749 5.58636957327 -3.51149779546)
(20.1557510676 5.77958919001 -3.42245663493)
(18.6295741208 5.95813107992 -3.36812343439)
(16.725332492 6.12260508767 -3.41244748912)
(14.5378783999 6.25970692017 -3.34456875715)
(12.1954971019 6.38651782431 -3.28133393505)
(9.55379104499 6.44941876745 -3.20994348095)
(6.61754616439 6.44538610442 -3.16368598009)
(3.70400193842 6.38354910854 -3.12604133459)
(1.18514048955 6.19737731577 -3.172884018)
(0.908546571391 14.4700680555 -4.28952779315)
(3.83492941506 13.854544632 -5.50513663722)
(7.79072801927 13.5345568434 -5.76685109616)
(12.1316877074 13.797385009 -5.83407760986)
(16.8082789398 14.3836299482 -5.91046630316)
(21.1724733454 15.0086172712 -5.89807495992)
(24.2022788638 15.5925892725 -5.67146654376)
(25.5006670331 16.1603665608 -5.26248571512)
(25.3881819038 16.5532787631 -4.75523131158)
(24.4684764568 17.0137390523 -4.43245032873)
(22.8744939232 17.2779064915 -4.03606440657)
(20.8103662846 17.5516563219 -3.69461765048)
(18.4843783545 17.903100959 -3.58555274348)
(16.0424683274 18.0192885321 -3.47925452364)
(13.8064622479 18.2990044241 -3.25259263329)
(11.7972874692 18.6106284915 -3.07184812841)
(9.47513630783 18.8112549896 -2.88009716183)
(6.64521577993 18.8259954527 -2.74453000171)
(3.57511045763 18.722367844 -2.80194984221)
(1.04680208573 18.4234631328 -3.28231031699)
(0.661651599671 23.828768747 -3.92519914925)
(3.57330539687 23.8239441559 -5.55203808124)
(8.5716630371 24.4157953354 -6.14228026552)
(14.9463725103 25.814572075 -6.64827271874)
(21.9314440053 27.4184882934 -7.05543815931)
(27.8375335156 28.7520512237 -7.12546897782)
(31.0184658891 29.6196503442 -6.77167934763)
(31.2741902098 30.2427452971 -5.9440339689)
(29.2413714286 30.335047102 -5.25429601856)
(26.5262264786 30.228240241 -4.6666237781)
(23.2596845845 29.8927394678 -4.12852822677)
(19.8262116289 29.6159282124 -3.75521305354)
(16.1433184089 29.6162628247 -4.0167172529)
(12.8277209465 29.4382093652 -3.73183461438)
(10.6689286634 29.7690121602 -3.51248583267)
(9.37148031183 30.2501003436 -3.26101041706)
(8.18065605234 30.6879490138 -2.93415152641)
(6.20328216539 30.9536499174 -2.64119992891)
(3.39936430847 30.964624096 -2.70720401127)
(0.951109014611 30.8000656721 -3.34185963832)
(0.672118370348 32.3489893306 -3.53201903164)
(4.03887615637 33.346302858 -5.37467405112)
(10.5851227855 35.6985002963 -6.45285234511)
(19.4760799361 38.9143936728 -7.45380715386)
(28.797418343 41.9663337101 -8.23906209867)
(35.8323859341 44.1167370154 -8.49130855305)
(38.9120214461 45.048736364 -7.91141174863)
(37.3866924956 45.4296116682 -6.45961167628)
(32.9336563005 44.9790710966 -5.50825018927)
(27.8326117037 43.7417619194 -4.60910515477)
(22.617199616 42.3846589181 -3.83287737438)
(17.7323362578 41.4103728015 -3.50868631183)
(12.8951130192 40.4773725931 -4.07289387583)
(8.92825781398 40.0396846414 -3.98680271642)
(6.74183465024 40.4958918138 -3.86240578776)
(5.8892814083 41.1205541792 -3.69160003669)
(5.79880156256 41.845113601 -3.17636191317)
(5.16424842966 42.5737902378 -2.68234023564)
(3.138444172 42.995202819 -2.6389339088)
(0.904547374016 43.0344863872 -3.29125362168)
(0.866960762756 39.7146077085 -3.14763066268)
(4.99350897257 42.1100199461 -5.17147425543)
(13.2350804266 46.6664076086 -6.6860145184)
(24.3339297475 51.9313133067 -8.15843432541)
(35.341239493 56.3179507163 -9.45497214567)
(43.0479146399 58.8283910409 -9.90195657602)
(46.211974973 59.4514607167 -8.85832364838)
(42.5547974019 60.2925189623 -6.48649103973)
(35.5406172881 58.3250146335 -5.3046742513)
(28.1837288545 55.1325669443 -4.13242205057)
(21.6093597345 51.6546714148 -3.2347811596)
(15.2860144246 49.3982724247 -2.96583233017)
(9.65789865315 47.987556859 -3.2521246896)
(5.73781317347 48.9742491384 -4.04363564054)
(3.67686684064 50.3684728999 -4.09087657437)
(2.9512016578 51.2930523901 -3.96035121152)
(3.53426645573 52.2516323496 -3.23663636895)
(3.92443085433 53.4919480879 -2.68065548385)
(2.86145013475 54.496194631 -2.6107816712)
(0.924072815302 54.9239064789 -3.17059623621)
(1.13393662412 45.620419232 -2.75401893077)
(5.98096888144 49.5627804647 -4.85323383694)
(15.4726144019 56.0913858931 -6.5613120635)
(27.8956387704 62.8746538811 -8.42750477069)
(39.8222913082 67.8151400116 -10.0231114979)
(47.8933000034 70.4508893607 -10.3897802218)
(52.0932181862 70.737780956 -9.02225447872)
(46.338161953 75.202336611 -5.74273703652)
(35.8845912885 73.619899277 -4.58912366861)
(26.327367944 71.6927277741 -3.53150246546)
(19.0210967943 68.4938471652 -2.42516203639)
(13.2680444258 66.1414036376 -1.42369525489)
(9.81709993875 63.7798511057 -0.914491867559)
(6.69604627944 61.1736181207 -3.81991464188)
(3.49428443898 61.2614195673 -3.74712238296)
(1.95446994441 61.5033910572 -3.94123412652)
(2.54089463709 62.18607401 -2.92535406723)
(3.32821776026 63.8652596709 -2.65414489882)
(2.80305043631 65.3988669272 -2.4849826195)
(1.01949543695 66.270851659 -2.93864846754)
(1.3340202588 49.7356858502 -2.30634529709)
(6.61150965685 54.7188179974 -4.26571303525)
(16.4667530445 62.4583074937 -5.87550991924)
(29.2094672057 69.6808374196 -7.77573516981)
(41.331084505 74.6623255187 -9.02035503544)
(49.7625854639 76.8876624432 -9.0856023818)
(58.0848536508 75.6299343098 -6.48527795774)
(51.4872176025 84.0281927608 0.727850562046)
(37.5594002998 78.8260106335 2.13001995617)
(27.7918564067 70.9007281903 2.37573734677)
(20.5186050333 61.7460877046 3.29400341081)
(13.2254557033 57.2154050666 5.40764261325)
(6.58857144572 52.1556887321 5.67056670217)
(3.5111417191 64.5555990404 -0.105186612049)
(3.056255278 66.6957821473 -1.20025470409)
(2.08518658465 68.9760871013 -2.09907051852)
(2.95172769905 71.4388803902 -2.47128613399)
(3.84573989085 73.7161167622 -2.37962927125)
(3.32046284237 75.7266503474 -2.14010562949)
(1.2778066757 76.9480441745 -2.54895061132)
(1.46411138306 52.0289243619 -1.81108828745)
(6.87286678137 57.4767369937 -3.47970358407)
(16.4581270343 65.865631406 -4.8845659336)
(28.6357788108 73.4546670656 -6.55977162385)
(39.9438776715 78.9864819267 -7.84352422987)
(47.4121797866 81.1555660918 -9.62314838863)
(62.1702964324 79.1150132761 -9.61453092439)
(51.8414178665 85.8219765061 3.49107555628)
(28.1024434325 78.3314369488 1.28069703707)
(17.1538295616 69.9232043128 -1.64254266243)
(12.1264328424 64.5779129386 -4.62561246811)
(10.133389331 62.9889877623 -7.30091937717)
(21.0559125594 62.6234889589 -8.95648026267)
(21.5519786585 76.9719364536 -2.73780108343)
(8.50790487288 79.5633211065 -3.85641046069)
(6.82207255038 80.547942427 -4.67565504399)
(6.21058854465 81.1975373788 -2.38659891135)
(5.80785524372 83.3555082843 -1.986747216)
(4.45095709856 85.4199951313 -1.61835173463)
(1.66866313235 86.7754759259 -1.95123956431)
(1.63493497555 52.6981797277 -1.3051178099)
(7.16962918476 58.3559635036 -2.66230299834)
(16.4573683133 67.160820996 -3.78552307286)
(28.0596603105 75.3229264882 -4.99060132199)
(38.9852800627 81.8070245555 -6.06776293785)
(46.3251720982 84.5118659643 -7.83552677148)
(62.0799389 82.6875654146 -8.49133875245)
(52.1120916587 83.0608688876 4.60481065658)
(29.2369001424 78.7137610924 2.02275569278)
(22.6842735168 76.42000686 0.723954285981)
(18.9773944669 76.765601999 1.59123913297)
(14.6510768678 79.2218436109 1.14044753804)
(21.6690955345 82.8474330225 0.157601737986)
(21.5239159741 87.0216011421 5.53662130834)
(9.39289762051 89.7004106284 -0.243524910521)
(8.40069615677 90.2219529053 -2.50454719692)
(8.16614084122 90.5263121779 -1.42502893733)
(7.56325956286 92.2196268285 -1.18012171793)
(5.6424587696 94.1781648927 -0.91353603978)
(2.09878334345 95.456261571 -1.19232936221)
(1.86974666152 51.7716628292 -0.927706170843)
(7.57260225401 57.5316293987 -1.95249832468)
(16.5618848095 66.4769399267 -2.74924243202)
(27.5539033344 74.9465738311 -3.47589278696)
(38.1302409917 81.9174243331 -4.10257677602)
(46.0113246742 84.417121495 -5.81311166706)
(60.4756289552 83.4690463904 -6.80212603085)
(50.9667767994 81.3884802041 5.71565451606)
(30.327320411 79.1802611963 2.62047652997)
(25.2269802809 76.7078852536 1.23430025809)
(22.4765931303 75.4421479511 0.522081920164)
(20.4148828559 76.7074618417 0.0831772628453)
(29.2256985136 83.0146168285 -0.862100564228)
(28.2660661477 89.7403201132 7.05322172484)
(15.0317438992 93.3759001136 2.56278624582)
(12.5990165049 95.5210851455 -0.307750221905)
(10.9572871801 96.8155322702 0.112828368259)
(9.59695527463 98.922257948 -0.0210784821861)
(6.89387302638 100.958653746 0.454327126517)
(2.48330556976 102.276127454 -0.138188781637)
(2.13112236049 49.5541997662 -0.640430299957)
(8.05647968682 55.2778894913 -1.36833041935)
(16.7037489955 64.188317322 -1.85439450405)
(26.9254073999 72.7769904402 -2.05705977142)
(36.8993700569 79.7298690582 -2.26981353914)
(45.5310352219 81.134613676 -3.47385192625)
(59.043645537 78.8747206605 -4.4225020354)
(51.975464475 61.1647788459 5.9482551829)
(33.7500769527 60.30823844 2.65294296906)
(28.2493311978 64.8069745901 0.715566935801)
(26.3033295549 71.709698455 0.540074473153)
(26.8900939877 78.7040076311 0.264937085025)
(35.0004232971 87.9618350793 -1.21333307731)
(33.0129295547 90.2720019131 8.44825827613)
(20.8116864315 93.7501772003 4.57148637152)
(17.1124209995 96.8352087296 2.16167089242)
(14.4606706461 100.174177914 1.40230219095)
(12.1429694513 102.990304046 1.26390456086)
(8.39936881999 105.279670911 1.5107001977)
(2.98863049513 106.722438089 1.01915117152)
(2.40095982066 45.999740443 -0.422368215974)
(8.50865740961 51.3509770567 -0.91266272998)
(16.7335764494 59.8286001172 -1.03934965403)
(26.0627156088 68.4090711339 -0.684302263748)
(34.7584189543 75.5450750613 -0.580312783577)
(40.7793638628 78.4052857308 -1.97009968582)
(40.375134112 76.8168364103 -3.02755114102)
(40.3358177557 63.8149032383 -8.3773891464)
(42.6047431873 64.2552383665 -8.07278804808)
(43.1190719686 69.2293180395 -5.99145299429)
(42.8197074073 77.4549792899 -2.88051407201)
(41.374822587 83.1696109968 -1.36745129692)
(41.1936540447 90.6844107713 -0.350694190031)
(37.731308811 89.2607297263 3.33813294639)
(28.3095862351 93.8279432732 2.85094959381)
(22.8886844903 98.5367629046 2.22182588567)
(19.1618664338 102.199586594 2.09326752475)
(15.479820843 104.982841728 2.51740427066)
(10.2870988413 107.160713146 2.83270032201)
(3.58185845825 108.542916628 2.34471293712)
(2.71729458111 41.3337060604 -0.334720111727)
(9.05274277113 45.5717947734 -0.591691359018)
(17.107628225 52.9684034547 -0.432276487161)
(26.0361804515 60.8387328295 0.175848661854)
(34.8968036019 67.5427479913 0.96559859121)
(42.8953950065 71.6166858674 1.33472257972)
(48.4154297451 72.9255732057 1.73237369979)
(49.9215861201 75.0762218389 2.64280591488)
(48.4200517028 75.8389244162 2.57051898733)
(46.7789462818 77.5774549361 2.84872230493)
(45.5522208064 79.694095589 2.92286822583)
(44.2034343004 81.9682146108 2.62741511519)
(42.8158164407 86.2075550312 2.57095821012)
(39.4260416457 88.185757106 3.8636357391)
(33.5684515893 92.7733080045 3.97611875849)
(28.5897290837 97.5029439298 4.08708987042)
(23.9330904187 101.314701631 4.2761803328)
(18.7248549403 104.127756993 4.34947903806)
(12.0920049753 105.978195575 4.40476402031)
(4.13532076908 107.191579862 3.85921047689)
(3.1078387969 35.9630627877 -0.315258593276)
(9.73354848012 38.72255668 -0.43877802764)
(17.6613858477 44.2536780347 -0.233900937747)
(26.3302202225 50.7272476533 0.373137962022)
(34.9470799926 56.3668334513 1.22629206101)
(42.5605043544 59.9897523331 1.81808553189)
(48.0121742005 60.6087304638 1.8395079485)
(50.8620935647 59.6876561161 1.13697504582)
(52.5393043927 60.157121326 0.922603390323)
(53.2002763765 63.106773415 1.32144642432)
(52.9267461353 67.224551942 1.85832112576)
(51.6742923568 71.8088408498 2.50782745601)
(49.6537355401 77.323196879 3.18667485306)
(45.9635232228 82.2180200494 4.29510559283)
(40.8501813162 87.5582671545 4.93739043077)
(35.5432724879 92.4900972352 5.38806365796)
(29.6710668646 96.3508017721 5.75897215869)
(22.5175522837 99.2479343701 5.9207888821)
(13.9450738195 101.194187476 6.0282026267)
(4.67321659453 102.340129388 5.44336325791)
(3.49528908289 30.3961262785 -0.403212615936)
(10.5415020969 31.8523469984 -0.418396092554)
(18.4253881205 35.1518237336 -0.266823680703)
(26.8764898245 39.9104323766 0.198321591881)
(35.3179885759 44.4587345772 0.877444521255)
(42.9853003076 47.9177333003 1.53955829346)
(49.1686827879 49.9965289315 1.91690398137)
(53.5319480547 51.6865900728 2.0283776191)
(56.5653724773 53.9093026976 2.1462193395)
(58.3453769586 57.1820016424 2.45400432148)
(59.0270436799 60.972054055 3.02067226271)
(58.5051497738 65.4746625293 3.64647572743)
(56.6134434387 70.4072648654 4.37004701042)
(53.0737415574 75.1877373244 5.32727447513)
(48.1524973173 80.1202646687 6.15337401511)
(42.206582449 84.5619603536 6.77501972251)
(35.0137234895 88.193544395 7.11145156219)
(26.2049072003 90.7395332867 7.47526971485)
(15.9091385129 92.7407067863 7.50295686296)
(5.21693120024 93.9428828641 6.98395902184)
(3.84088463945 24.7072581737 -0.552396436078)
(11.3952316402 25.5457452795 -0.475862650312)
(19.433234071 27.2180147644 -0.36295609914)
(27.7421574818 30.0310173345 -0.0573265396205)
(36.0611425295 33.4088037047 0.399242651728)
(43.8524574378 36.5193368587 0.933116721462)
(50.5775962798 39.1079536999 1.41042599953)
(56.023900118 41.4988752519 1.75649625317)
(60.3061344739 44.2783362609 2.20664362693)
(63.378497102 47.7163246384 2.78538313192)
(65.0643974237 51.7338494153 3.48692940181)
(65.2006449325 56.12950007 4.28667079555)
(63.670876966 60.7406525638 5.16793551881)
(60.2578337875 65.2618186632 6.1758480001)
(55.0620284832 69.6481178803 7.12314891795)
(48.2449257113 73.5469152369 7.96870582646)
(39.5243408157 76.6091895174 8.75658289453)
(29.0807194059 78.5179053604 8.97856343248)
(17.6083210284 80.4757965013 9.03238974476)
(5.81858608728 82.1316986638 8.47384055008)
(4.14850066269 18.9166709993 -0.714813993823)
(12.2007043415 19.5383041591 -0.58414354412)
(20.512686672 20.4916756022 -0.458075169893)
(28.8761949566 21.9986187579 -0.207204312599)
(37.1608860719 24.0755809138 0.128945300108)
(45.1194372174 26.4591308561 0.562630965314)
(52.3959816606 28.951797695 1.05273951101)
(58.7128405417 31.592193608 1.57071062042)
(63.9123595356 34.5752998863 2.19947308893)
(67.8387835763 37.9317188251 2.98788336524)
(70.2401055321 41.6032259528 3.84772034089)
(70.881427517 45.4799975006 4.80771755975)
(69.5508252601 49.4153832484 5.82018863554)
(66.0736634158 53.18687098 6.88413747616)
(60.4269303993 56.7513468252 7.87134040257)
(52.5439496315 59.83052844 8.82607882874)
(42.2945631694 61.7527639463 10.0907221566)
(31.1134089054 64.2142258262 11.6839575205)
(19.6840424337 66.0269156155 11.6255599309)
(6.83294140244 67.3988209794 9.96243149742)
(4.35431666904 13.1484215367 -0.875784046199)
(12.7831581293 13.5498628686 -0.693940039609)
(21.4345831129 14.1409740114 -0.563218496823)
(30.0620585192 15.0514694687 -0.337231087722)
(38.5442569191 16.3088845217 -0.0290653204773)
(46.7631665122 17.936357002 0.381693432885)
(54.446011058 19.8737869585 0.892270699875)
(61.3044957956 22.0376155553 1.50137469756)
(67.0890823178 24.5153321258 2.23008618218)
(71.528134676 27.2523148406 3.07904618958)
(74.2938451422 30.1786678464 4.01731880514)
(75.130596133 33.1939461751 5.05740161096)
(73.8283643641 36.2049901397 6.12858554286)
(70.1735473941 39.0869140509 7.21125326468)
(64.0443385784 41.733983015 8.25027933448)
(54.9903538249 44.0624732183 9.36516221776)
(44.8841382016 45.6951964272 12.1238246048)
(33.6810972779 48.0188467023 12.0409473012)
(20.7986806405 49.2749263413 12.1711855059)
(7.16719353646 50.1531721771 11.0536726333)
(4.42114975169 7.57729874871 -1.02769443163)
(13.0824330917 7.74860146312 -0.883624442855)
(21.9685667267 8.01337156996 -0.776793814484)
(30.8684387411 8.48267020592 -0.585780224497)
(39.6383114724 9.18077964594 -0.307175926241)
(48.1486119597 10.14834276 0.0993053141427)
(56.1214619168 11.3252278804 0.614888618904)
(63.2958012914 12.7017796356 1.27770987327)
(69.3749025318 14.3027722001 2.04652888962)
(74.0373011142 16.0432804454 2.96342601759)
(76.9490826361 17.8854763444 3.9927698081)
(77.8481950306 19.8084308597 5.10852582955)
(76.5108004912 21.7261430329 6.24046008325)
(72.695700169 23.5636527788 7.37808798357)
(66.3098017243 25.3261195859 8.48010283923)
(57.0586941345 27.0539290111 9.61275137146)
(46.4710950815 29.1475247344 12.1011692489)
(34.7285029397 30.1248859975 12.6225125289)
(21.7955627072 30.9342544823 13.2332226525)
(7.70619656749 31.13483223 11.7450339132)
(4.37319116738 2.47495189808 -1.17429021955)
(13.073361233 2.49408475062 -1.26346217299)
(22.0855572556 2.54840571233 -1.26919023415)
(31.1457524663 2.66503055127 -1.16232066133)
(40.1111455921 2.87277763585 -0.945202111418)
(48.787056332 3.18234942783 -0.608839448082)
(56.9096875733 3.55993176484 -0.105141618045)
(64.2531339753 4.0173002068 0.546760393505)
(70.4495236202 4.55310937944 1.32561919175)
(75.2164344243 5.14241395032 2.2864814603)
(78.2068523825 5.76096352263 3.36357057387)
(79.1443561076 6.42796800428 4.52522074713)
(77.7903874746 7.09306499413 5.75788208932)
(73.9804920878 7.74526540493 7.00865599348)
(67.6658112202 8.4026553408 8.25506821224)
(58.8428878012 9.12723930014 9.51984780233)
(47.9446155101 10.2188270629 10.7817109219)
(35.4553842496 10.6314267657 11.6169568931)
(21.7874654712 10.9796272023 12.0285880713)
(7.39029400166 10.667189136 12.1151922374)
(1.70447598641 5.18599337345 -12.5464840865)
(4.77710363863 5.30950605721 -12.4700407301)
(8.14362575237 5.22193217229 -12.1299565084)
(11.426481138 5.21219136405 -11.8748919073)
(14.5804198383 5.25441325006 -11.7533524065)
(17.603573862 5.33449867762 -11.7498645783)
(20.1653580605 5.47042134261 -11.6818454498)
(21.893713339 5.69546113246 -11.4628055288)
(22.7208488856 5.93995959985 -11.1421392964)
(22.7678223646 6.06359829473 -10.8744746918)
(22.178830635 6.13009290595 -10.6515730648)
(21.0497726688 6.15915611283 -10.435039626)
(19.5059841395 6.10210481379 -10.3100844299)
(17.61851264 6.17431570952 -10.2930093999)
(15.2780845564 6.27444657767 -10.1501325733)
(12.5883620933 6.36470634314 -10.0007678039)
(9.74971671666 6.40758060879 -9.86735597732)
(6.77777207527 6.40604211435 -9.79130488136)
(3.81186720754 6.30597201002 -9.74667104127)
(1.32516771839 6.10510751639 -9.9049327824)
(1.9594354535 15.0480477139 -12.0679315456)
(5.21120998347 15.2449418457 -13.9719764797)
(8.792396559 15.1184668856 -14.3639710791)
(12.8734727001 15.2959565032 -14.5399894882)
(17.0883083686 15.5961856682 -14.7875176031)
(21.0741861986 15.875511737 -14.8741219431)
(24.2758538721 16.2176109124 -14.5989275652)
(26.2098145804 16.7759839362 -13.9272240511)
(26.9012162747 17.2942041504 -13.1553856098)
(26.6904039372 17.6687441695 -12.4588773097)
(25.779895006 17.8697253048 -11.8038583681)
(24.201850844 17.9780061056 -11.2404812441)
(22.2779487725 17.8448059495 -10.8273171311)
(20.1529260513 17.9746303467 -10.5629417808)
(17.4224281117 18.1731318537 -10.1131630067)
(14.1553864658 18.4319936528 -9.69088657531)
(10.6958946296 18.636457903 -9.34745771596)
(7.35289482899 18.7482913028 -9.12019662568)
(4.42187498253 18.6688678162 -9.25131737625)
(1.68903459184 18.3332708734 -10.0707937762)
(1.91613675385 24.4956540516 -11.0683096937)
(5.18434343901 24.9097969546 -13.760954387)
(9.22077175122 25.2060467238 -14.8404520064)
(14.1089248693 25.7758255894 -15.6045100724)
(18.9968088107 26.2480894073 -16.1381191354)
(23.5072700066 26.6823283504 -16.2910327686)
(27.1134698799 27.2647107218 -15.8446925222)
(29.1056846552 28.371434286 -14.7777224591)
(29.4386790462 29.1950360604 -13.7368578676)
(28.8342796076 29.573833581 -12.8387900742)
(27.5474325981 29.7184605553 -12.0397608863)
(25.5668542047 29.6178534905 -11.450572488)
(23.4157076377 29.3875373723 -11.2452384965)
(21.2516469742 29.451779992 -10.8854583046)
(18.451937459 29.8172947431 -10.3430613124)
(15.0698530819 30.2387151166 -9.81819330654)
(11.3750490892 30.6345741328 -9.32000802479)
(7.66450307615 30.9471835124 -8.91831256485)
(4.52794468705 31.044682307 -9.08222253836)
(1.73917506329 30.8519184599 -10.1632753592)
(1.93980049816 33.0475150136 -9.95575194096)
(5.34435002904 34.0450968444 -13.0561317269)
(9.74329517658 34.9588277641 -14.6595452621)
(14.9698720975 35.7433323079 -15.705151344)
(20.1085444611 36.3166531028 -16.3706129554)
(24.8653823882 36.805788136 -16.3135619711)
(28.8444465539 37.754916901 -15.5649211937)
(30.6713947428 40.040616958 -14.0741796421)
(30.2339771763 41.3944459886 -13.0666300059)
(29.1733226535 42.0826204034 -12.1756744728)
(27.5507732138 42.1703250153 -11.3750940876)
(25.3311350377 41.8605168832 -10.7934102806)
(23.1722293707 41.4437889611 -10.9713665443)
(21.30010351 40.6974084495 -11.0203782565)
(18.6978092093 41.1015060994 -10.4210861352)
(15.2985743664 41.6352208452 -9.98504431376)
(11.6687567948 42.1943464695 -9.49706569861)
(7.93476439437 42.8120387137 -8.93118169229)
(4.59322937866 43.208157496 -8.88722140208)
(1.73999730379 43.2198980248 -9.99042114958)
(2.00771815124 40.3694575621 -8.82728431301)
(5.53470437788 41.8003237052 -12.0992414871)
(10.042907536 42.9985846881 -14.0125715404)
(15.4051528855 43.7182289036 -15.1631017823)
(20.5721230199 44.0737388128 -15.3682002517)
(25.2097931175 44.5812703443 -14.9307382486)
(29.8678544653 45.6493497998 -13.9112614331)
(31.4373387465 49.4936755804 -11.6204283376)
(30.1489424543 50.5522595245 -10.8585250922)
(28.435315509 50.8812946388 -10.3328302156)
(25.9467339641 50.8112764825 -9.96105697582)
(23.5874597545 50.1856798251 -10.4292814992)
(21.0960471343 50.1751137882 -10.449921125)
(19.8735874535 49.4533543052 -10.8836255629)
(18.2646755969 51.1685807868 -10.1134055416)
(15.1330830016 52.1471358178 -9.99009495858)
(11.7849250644 53.1959765719 -9.83841596307)
(8.20122611876 54.1174331204 -9.12460997814)
(4.77779787938 54.945073886 -8.68314383859)
(1.77385664801 55.2772418585 -9.59814451723)
(2.07425431633 45.9926912205 -7.58916067487)
(5.65813472359 47.6896624385 -10.8208947465)
(10.2732968803 48.8789154861 -12.7986716579)
(15.5578457207 49.4348757957 -13.690209505)
(20.413279126 49.9308328892 -13.4977395235)
(24.5386159347 50.6776459931 -13.2817343416)
(30.3127232648 52.7661869971 -12.6909419304)
(30.4644174043 63.2899830885 -10.2187615214)
(27.355685828 65.9142540613 -10.476588024)
(25.4523826457 66.7517765983 -10.1242881186)
(24.1112964509 66.0631029136 -9.98263930809)
(23.1363494669 65.8193433393 -10.1622991025)
(20.9525145504 64.8610598572 -12.3807257016)
(19.7572829749 60.8262175855 -11.1947891072)
(18.8564784005 61.2961182097 -8.62094821889)
(15.338397905 62.2415670866 -8.99923790054)
(12.1933760013 63.7195518933 -9.79360412519)
(8.698625031 64.9219280604 -8.87972386415)
(5.20392647661 66.1888503417 -8.15680830022)
(1.90742703249 66.8615828695 -8.81985696194)
(2.14637953971 49.7468163767 -6.22403693712)
(5.75863902366 51.4795685836 -9.26680618034)
(10.4909486082 52.4235780038 -11.0692008281)
(15.8098979998 52.733204555 -11.4438249068)
(20.823356235 52.8844815065 -11.0050144632)
(25.4879993965 52.7031634404 -10.5404835896)
(36.2570458672 52.7619633116 -8.58180234694)
(36.9047133413 67.7089306289 5.26938061359)
(29.4344863249 65.5691492332 3.57702188742)
(26.4953671172 63.0348384742 1.58782305352)
(24.5990399705 57.7634250302 1.74522287527)
(22.6367463076 52.884639277 0.873846691962)
(15.9789256468 48.5389301974 1.68405492179)
(14.5715901793 61.7495223989 -6.80503670093)
(17.0419056284 66.3762338108 -6.06299337028)
(15.1223362873 69.3732850603 -7.73112709108)
(12.7986962124 72.4967973548 -8.33333773861)
(9.54779178294 74.8893576931 -7.87276555232)
(5.91837954731 76.7645903854 -7.14629129496)
(2.18524726781 77.7738245624 -7.58539932777)
(2.22682760927 51.8333070099 -4.84559907945)
(5.8744587132 53.5923965885 -7.55447884327)
(10.6063583167 54.4616558063 -9.18183573607)
(15.8456345039 54.8355684979 -9.74266293109)
(20.6005980899 54.5190315458 -9.86823866623)
(23.2475183475 53.5522982896 -11.4554897981)
(39.3953237455 51.8353908072 -10.6542060268)
(36.7038232829 63.070655628 17.4254744644)
(20.8389864693 60.5178660024 6.86951368582)
(16.0257682221 59.8332696319 -1.06069252257)
(13.1151103687 59.4014752882 -19.356734497)
(12.5597561367 58.5145662215 -24.5011263602)
(28.1437644678 56.2656003937 -38.9546733367)
(35.8678801739 71.7188805802 -23.9498727041)
(24.3667258652 74.8344212588 -14.5295309374)
(20.3750245195 78.0694769466 -12.0270847536)
(16.7807523211 82.0120745424 -8.81650607165)
(11.8783722817 84.5518201837 -6.78852002747)
(7.18334432452 86.5749625164 -5.56766944901)
(2.606995814 87.8164502027 -5.77798626874)
(2.32139087352 52.3829669974 -3.54525746074)
(6.23693535552 54.2113306198 -5.84628930448)
(11.1917737395 55.3267552005 -7.24548487509)
(16.7584164565 55.99481646 -7.81653157182)
(21.8951803237 55.7527383734 -7.76473976994)
(25.0144144095 55.6515656632 -9.32025020537)
(42.0584415775 55.7685876753 -7.03916500946)
(38.3317207589 59.2392087002 22.1669763158)
(23.2143842503 62.0358650616 11.838068113)
(23.2083935113 67.1192562343 6.27846087247)
(20.6730741561 72.8194277413 1.96346618229)
(16.5878676572 79.3920158446 -5.07408079727)
(29.1872270236 83.0593268394 -20.1521696901)
(33.7980396303 87.6493532525 -3.16582844601)
(22.7579779312 87.5289265303 -5.2209858556)
(20.5618179596 89.691818456 -7.30157645787)
(18.0618415444 91.8538476397 -6.30938534744)
(13.4718807653 93.6926200126 -4.42987977181)
(8.35358225783 95.7809755421 -3.25591513576)
(3.09260596327 96.7901077885 -3.43293655335)
(2.44500586038 51.3737193338 -2.46436440961)
(6.74222510271 53.2464776406 -4.44229287973)
(11.9456597658 54.5641148747 -5.52172207241)
(17.752591678 55.3380423103 -6.09255076919)
(23.0600446958 55.0593336521 -6.12368839642)
(26.3123181146 55.6581330426 -7.45239945115)
(42.3646785813 58.0393018324 -5.51629753056)
(38.3748418425 60.1552657621 21.8485646988)
(24.9194173518 63.966821007 12.7134029497)
(24.300301974 66.5974294422 7.14436339946)
(22.8828071377 69.2646756604 -5.56677930821)
(21.7394903138 74.9343335882 -11.8472319755)
(36.1149044749 81.8576489862 -22.0936284168)
(40.6373936666 88.2650191292 -2.39081044468)
(27.049646899 92.6999642698 -0.798919275277)
(23.2883548472 96.1114630338 -2.78619695195)
(20.0379724148 98.5442933106 -2.15905799511)
(15.3150811156 100.675807144 -1.18595503929)
(9.54572008369 102.845225366 -0.276728543249)
(3.29473780996 103.886036655 -0.443777237325)
(2.62569859963 49.0136786238 -1.68275151123)
(7.34502638104 50.9104411803 -3.22884755674)
(12.8128273176 52.3930268937 -4.14873646923)
(18.980972052 53.2018721493 -4.56092864091)
(24.9734334069 52.3705488379 -4.45647280379)
(29.977471334 51.6351014921 -5.05448587165)
(45.9467315948 52.5692912325 -1.37440662599)
(42.0848397606 43.2749805105 28.2833731192)
(28.6181880107 52.2735272654 17.7973611372)
(27.161255277 58.8167743693 9.14321382345)
(27.3595384249 69.5468566965 -3.41177238358)
(27.9269586442 79.2437916341 -7.65113739486)
(41.2046483876 90.448347733 -15.9908766571)
(44.0032062041 88.9610541454 9.3190505296)
(29.6815398017 94.4998547981 8.56665742287)
(25.7765858178 98.9050356135 2.46564137895)
(22.8204769584 101.554906681 1.52008215525)
(17.6070545112 104.768230739 2.37533793593)
(10.9711199916 107.165216312 3.23044099078)
(3.86505103093 108.529337379 3.0880585853)
(2.82636845589 45.4568002695 -1.16951966771)
(8.01407280018 47.2231932491 -2.36487479475)
(13.700557775 48.8625627279 -3.10320990502)
(19.6114280287 49.9869386264 -3.48851239636)
(24.3660122798 49.9083970403 -3.59612424345)
(28.2892196058 50.3406802967 -4.78988729002)
(28.5690667374 52.9013176703 -1.68858268004)
(31.4247414766 41.7863887685 -12.2001114463)
(36.6097902218 53.3156029679 -10.7898735342)
(39.7961350103 64.297452953 -8.36820520083)
(41.8223184863 76.8360845807 -4.7200401277)
(42.1812896166 88.5589375584 -3.84657305265)
(46.5296565113 98.9383947245 -5.74532225142)
(44.6968464117 92.7216832405 4.25842855679)
(35.3906778379 96.6207038234 4.00972917853)
(31.3786029419 100.647121732 2.39631708829)
(27.1946665326 104.213665821 3.47975022279)
(20.8649644187 107.079437891 6.13538319183)
(12.7955977302 109.383030859 7.25205229842)
(4.4347172326 110.584649498 7.10127098491)
(3.12513402807 40.9572046605 -0.969011202711)
(8.89763826172 42.4635503983 -1.73332598589)
(15.0957210633 43.9750451588 -2.19237870418)
(21.6146046789 45.4827149644 -2.35795107515)
(27.7879350844 46.7821747923 -1.9261472564)
(34.067378522 49.6866067676 -1.058450826)
(39.7332971272 54.4768064407 1.75064074925)
(42.2128595594 63.7814591389 2.21519363419)
(42.9019204457 70.4623110173 4.07405913985)
(44.0792090883 77.1405032209 4.90160971897)
(44.9168497481 83.559046535 5.84948232556)
(45.6286268368 89.8756315773 6.10177639248)
(47.5633910829 95.6148454667 6.81333513931)
(46.1332213176 93.8833706071 7.8189845208)
(41.034892609 96.977297541 7.96057407089)