/*--------------------------------*- C++ -*----------------------------------*\
| =========                 |                                                 |
| \\      /  F ield         | OpenFOAM: The Open Source CFD Toolbox           |
|  \\    /   O peration     | Version:  v1606+                                |
|   \\  /    A nd           | Web:      www.OpenFOAM.com                      |
|    \\/     M anipulation  |                                                 |
\*---------------------------------------------------------------------------*/
FoamFile
{
    version     2.0;
    format      ascii;
    class       volScalarField;
    location    "4.2";
    object      ddt0(epsilon);
}
// * * * * * * * * * * * * * * * * * * * * * * * * * * * * * * * * * * * * * //

dimensions      [0 2 -4 0 0 0 0];

internalField   nonuniform List<scalar> 
11640
(
-0.000137807926671
-0.000170086663901
-0.000189478712663
-0.000198934741432
-0.000200209708269
-0.000194622316672
-0.000190759620739
-0.000192394627208
-0.000198986368788
-0.000205486520895
-0.000212770749485
-0.000223373486325
-0.00023153461918
-0.00023710370703
-0.000241738290937
-0.000242456732821
-0.000236946979256
-0.000221799490907
-0.000195179745598
-0.000158242019562
-0.00016985123311
-0.000345195022921
-0.000441466720377
-0.000456583489913
-0.000406524146067
-0.000348150011788
-0.000333332190412
-0.000368758470092
-0.000427949832873
-0.000491638779263
-0.000569268118884
-0.000639167323651
-0.000687578979353
-0.000723951487831
-0.000726677623787
-0.000691097394799
-0.000622623359608
-0.000528154744223
-0.0003898381653
-0.000186241652691
-0.000190262075795
-0.000450977632642
-0.000542175588682
-0.000425538652409
-0.000210610103115
-6.53488469476e-05
-7.28928018414e-05
-0.000205436407411
-0.000383013511962
-0.000573840328133
-0.000816413306667
-0.00096307607989
-0.00108737033751
-0.00118637436542
-0.00121922372982
-0.00114865612231
-0.000981229683095
-0.000761248094342
-0.000517528921968
-0.00020697508069
-0.000203432167926
-0.000479395538737
-0.000431506440668
-7.07599761146e-05
0.000326567657151
0.000513171926476
0.000427609939422
0.000149063488464
-0.000185259909154
-0.000536291822793
-0.000944071138966
-0.00120157820434
-0.00142486005099
-0.00161717584949
-0.00170812604376
-0.0016338726878
-0.00137866222447
-0.00100258880171
-0.000612606596286
-0.000218604342128
-0.000211915783947
-0.000435076248268
-0.000183882009371
0.000399110776987
0.000908946370262
0.0010643165807
0.000842696417408
0.000422428302944
-2.17403819689e-05
-0.000481334022104
-0.000994865635135
-0.00132155059479
-0.00160777826984
-0.00187927772449
-0.00205288313039
-0.00202120217039
-0.00173885710448
-0.00125178888835
-0.000710141627795
-0.000225256877532
-0.000215246801321
-0.000360922973202
4.87121724941e-05
0.000750805026627
0.00125982696984
0.00128209568223
0.000905429043042
0.000419242994333
-5.86232523875e-06
-0.00042901175094
-0.000881327109514
-0.00119657726407
-0.00150897104826
-0.00187531247891
-0.00217427551637
-0.00223024584911
-0.00197472894397
-0.00144277608519
-0.000797633613507
-0.000232639408167
-0.000216789821023
-0.000316753398351
0.00015186245759
0.000860626079427
0.00128425492791
0.00114940487954
0.000645234597729
0.000149333154368
-0.000141901757253
-0.000429820312318
-0.000711355753669
-0.000907811792252
-0.0011659412513
-0.00161747752196
-0.0020936804457
-0.00226033005132
-0.00206354665887
-0.00153339881826
-0.000847402888259
-0.000237538753219
-0.000218326965875
-0.000313041100939
0.000149626489309
0.000818942648762
0.00116526097682
0.000954169659448
0.00038670188946
-3.14122489547e-05
-0.000172643671149
-0.000260650742682
-0.000364660442172
-0.000463473425885
-0.000679280134532
-0.00125667879513
-0.00190616744403
-0.00218290540314
-0.00205152843206
-0.00154510431181
-0.000858297772011
-0.000239654876824
-0.0002209075392
-0.000326313261726
0.000121336645262
0.000765927699553
0.00107694795422
0.000835866036271
0.000288796122915
-4.74396217836e-05
-0.000153058704818
-0.000202943848406
-0.00024935854569
-0.000314736159988
-0.000501814004358
-0.00105341427415
-0.00179050215908
-0.0021234660303
-0.00202430014613
-0.00153268348085
-0.000853037567808
-0.000239252840427
-0.000223897277303
-0.000341993305341
0.000100312745846
0.000741132890916
0.00105081631698
0.000817458086357
0.000283085350951
-4.17846508253e-05
-0.000134596807539
-0.000172674117018
-0.000213957909431
-0.00027728527511
-0.000467626427779
-0.00102442685678
-0.00178494016669
-0.00213166000571
-0.00203753454025
-0.00153976240858
-0.000854394402596
-0.000239161429926
-0.000226432658632
-0.000354112929913
8.98549769431e-05
0.000750166981296
0.00109536260948
0.000899127236125
0.000374420824263
1.84203109519e-05
-8.84476139903e-05
-0.000161905302717
-0.000236245456859
-0.000328631317799
-0.000543928607139
-0.00117281999887
-0.00192084438287
-0.00222757084072
-0.002098322709
-0.00156970347964
-0.000863826136492
-0.000239056554424
-0.000228771703388
-0.000381591059033
4.27094707398e-05
0.000703220203353
0.00111619606488
0.0010516898017
0.000671265380078
0.000286142436636
7.88765477596e-05
-9.08162722977e-05
-0.000362712507761
-0.000581600463706
-0.000930024538713
-0.00156329321
-0.00216996200486
-0.00239205402693
-0.00218943445919
-0.00160761922462
-0.00087168964864
-0.000238732169645
-0.000233027001899
-0.000450340136465
-0.000116539290344
0.000488848085386
0.000930075674676
0.00098341157954
0.000709457611412
0.000315527445127
-3.96073362635e-05
-0.000426999557456
-0.00077197730191
-0.00115216244881
-0.0015603560224
-0.00205998534799
-0.00245673614726
-0.00253901989723
-0.00223401897844
-0.00159703163538
-0.000853582722313
-0.000236502537626
-0.000239090898174
-0.000552695575631
-0.000386001077325
9.08065923477e-05
0.000495660782907
0.000614334871464
0.000433903424534
8.28814541939e-05
-0.000329308115945
-0.000795940881519
-0.00115092664551
-0.00156740377178
-0.00197506101042
-0.00236446260226
-0.00259850773479
-0.0025373404926
-0.00214068856344
-0.00148779176725
-0.000799394635904
-0.000233646952577
-0.000244062921008
-0.000638222734911
-0.000680684308149
-0.00040538498619
-9.77077814689e-05
1.91477194445e-05
-0.000106006127101
-0.000410971918899
-0.000790226597823
-0.0012198771691
-0.00143183664495
-0.00177128262984
-0.00209551239424
-0.0023647445641
-0.00246871398786
-0.0023066054389
-0.00187766996894
-0.00129420407405
-0.000739437929811
-0.000233724710325
-0.000242558489736
-0.00065730488713
-0.000870755746381
-0.000834570256914
-0.000683967475095
-0.000604451719897
-0.000680278958217
-0.000884189345045
-0.00113497438769
-0.001357331263
-0.00148678411571
-0.00169454970206
-0.00189988219938
-0.00205422887867
-0.00206098881411
-0.00187001058591
-0.00151287781563
-0.00110173139999
-0.000707939971961
-0.000235617334068
-0.000235087355864
-0.000615912677121
-0.000860680616399
-0.00100518994896
-0.00101412817788
-0.00100513742628
-0.00104261280131
-0.00113524981406
-0.0012296607919
-0.00124342122109
-0.00131979828864
-0.0014090833349
-0.00150248224673
-0.0015650845459
-0.00153978207714
-0.00140678574359
-0.0012064484847
-0.000982533904752
-0.000674941251031
-0.000232997694548
-0.000219754804902
-0.000530156804461
-0.000731126741793
-0.000852982411399
-0.000917275601895
-0.000946293917072
-0.000963872340887
-0.0009776038424
-0.000991145321413
-0.00100565770392
-0.00102591927341
-0.0010529614483
-0.00108475162518
-0.00110909502284
-0.00110486272764
-0.0010663453691
-0.000987989450315
-0.000821948601474
-0.000580509153076
-0.000221121759108
-0.00019409281786
-0.000392717808137
-0.000516889753352
-0.000590231681719
-0.000630641064565
-0.000652039514071
-0.000661053383156
-0.000664556100192
-0.000666851841627
-0.00067062643454
-0.000678775681938
-0.000691171496974
-0.000707520872555
-0.000725614640411
-0.000736510579553
-0.000729154956842
-0.000688125905506
-0.000588212776506
-0.000432501044881
-0.000195956954574
-0.00015831108851
-0.000190194307604
-0.000212237090647
-0.000225043399497
-0.000231195433305
-0.000233857696941
-0.000235555381173
-0.000236505193172
-0.000237306729245
-0.000238264803797
-0.000240117549832
-0.000241511199103
-0.000244195812385
-0.000246575590892
-0.000247729618991
-0.000246816501863
-0.000241307644455
-0.000227554917603
-0.000199650258606
-0.000158847229739
-0.000195242341543
-0.000297437064024
-0.000358385227044
-0.000385522589155
-0.000386938223907
-0.00037548648301
-0.000373452400792
-0.000385392056325
-0.000402145474803
-0.00041838715583
-0.000434400806764
-0.000447452965862
-0.000466037400127
-0.000477652002752
-0.000486451439522
-0.000480195600065
-0.000456301529307
-0.000408640879092
-0.000328744689317
-0.000220103856433
-0.000297104205346
-0.000417047776565
-0.000513202037676
-0.000532121365074
-0.000496779717486
-0.000451037081923
-0.000424033979404
-0.000416796922351
-0.000424219316535
-0.000434060660155
-0.00044720501802
-0.000461945597929
-0.000468865731203
-0.000473792209828
-0.000486450825757
-0.00050903356149
-0.000522645259205
-0.000486970692828
-0.000405658120761
-0.00030967175146
-0.0003612203629
-0.000514475076772
-0.000622055319663
-0.000635782303518
-0.000602527270264
-0.000541103233428
-0.000477079469161
-0.000447255659646
-0.000441216073864
-0.000445212930526
-0.000464786715191
-0.000469744362814
-0.000463684830865
-0.000450710025616
-0.000451980212334
-0.000488566904871
-0.000536083960164
-0.000553941642727
-0.000488552092677
-0.000379460383572
-0.000391522623942
-0.000552309771842
-0.000681143289199
-0.000743438926822
-0.000739363644614
-0.000676679259843
-0.00058762967671
-0.000520973117004
-0.000490111387046
-0.000484170974151
-0.000506301937148
-0.000502044420978
-0.00047551035455
-0.000426484351802
-0.00038535913662
-0.000407588115824
-0.00048679981071
-0.000550584356978
-0.000527534037827
-0.000421588302363
-0.000393447652917
-0.000566700444416
-0.000756979130165
-0.000898296230891
-0.000937913376424
-0.000870271333924
-0.000743017542047
-0.000632304913606
-0.000577721946812
-0.000569285355737
-0.000600804319659
-0.000601675813867
-0.000569728392718
-0.000486020898465
-0.000381001695398
-0.000348964540608
-0.000423860898034
-0.000529310073165
-0.000541486174544
-0.000446818772015
-0.000384459111479
-0.000583391604086
-0.000847978216598
-0.00105870736848
-0.00111835401975
-0.001012853244
-0.000830126885221
-0.000677978445234
-0.000630061837055
-0.000640320003006
-0.00069449126968
-0.000738139641981
-0.000746958523173
-0.000640048899178
-0.000471316362327
-0.00036472857743
-0.000401766300058
-0.000516894118353
-0.000554092342394
-0.000467396163758
-0.00038125199238
-0.000604647530466
-0.000921013645609
-0.0011648128858
-0.00118877268534
-0.000974592316572
-0.000666233500914
-0.000494173967921
-0.000531117650133
-0.000606402024217
-0.000703436948679
-0.000823078347941
-0.000968570052992
-0.000802238281183
-0.000594244358568
-0.000440646614407
-0.000436044521653
-0.000533626549348
-0.000569837288236
-0.000478960950735
-0.000385403844438
-0.000611762212564
-0.000936826425548
-0.00117084929516
-0.00113375470036
-0.000782595606197
-0.000274994166888
-0.000263406222803
-0.000354902448366
-0.000416019671628
-0.00048616435265
-0.000598364413943
-0.000821358587412
-0.000932993135314
-0.000689819027397
-0.000500088164747
-0.000467980334664
-0.000549093013876
-0.000576924903691
-0.000481713766321
-0.000392843442537
-0.000608044664955
-0.000921355430213
-0.00113633064865
-0.00106378264771
-0.000670431751673
-0.000187393731511
-0.000155961306995
-0.000231537271162
-0.000270757719266
-0.000300685607649
-0.000369283410939
-0.000569883956273
-0.000795279223391
-0.000660202000314
-0.000487250568292
-0.000458826536902
-0.000542454092315
-0.000572324761503
-0.000478935825316
-0.000403103362391
-0.000609531974806
-0.000918564250263
-0.00112895716186
-0.00104414413956
-0.00062844324256
-0.000116778250731
-6.6371499496e-05
-0.000133736828552
-0.00016646704113
-0.000186740206741
-0.000242818130085
-0.000436330078327
-0.000697902159683
-0.000600508840344
-0.000449648777983
-0.000439341902538
-0.000534674191933
-0.000569924005709
-0.0004781324034
-0.000416184702513
-0.000615246669963
-0.000929329294233
-0.00115394976822
-0.00108519430414
-0.000666601168564
-6.92342858896e-05
5.36448761124e-05
-2.86521592584e-05
-9.45190336825e-05
-0.000142525412448
-0.000221616939557
-0.000433298475513
-0.000697683333099
-0.000539224267473
-0.000399948720853
-0.000415424373326
-0.00052888956966
-0.000571172146037
-0.000479582581937
-0.000435192385978
-0.000632648906451
-0.0009643836519
-0.00123244282165
-0.00123340311667
-0.000910131548749
-0.000426986528089
1.95348346988e-05
-1.0590555431e-05
-9.70937355932e-05
-0.00020163720698
-0.000333806432913
-0.000518904412025
-0.000573310440955
-0.000471144343021
-0.000397744255009
-0.000446536089857
-0.000562775507107
-0.000589485350561
-0.000483250907079
-0.000461049134839
-0.000652305947383
-0.0009889027751
-0.00129907381385
-0.00139784392369
-0.00120727723875
-0.000860914767343
-0.000595808865518
-0.000511566483935
-0.000517043618375
-0.000551962107104
-0.000595982984325
-0.000642712736792
-0.000588366343054
-0.000521380132482
-0.00050445043764
-0.000568175247036
-0.000649024440475
-0.000621043320933
-0.000483821149318
-0.000485492617583
-0.000655166850326
-0.000960349586649
-0.00127547880413
-0.00145634168794
-0.00141534492105
-0.00121822070273
-0.00103138364838
-0.000928080505752
-0.000888443917574
-0.000870614091737
-0.000868294580943
-0.000850390365802
-0.00078523913808
-0.000721906649713
-0.000705644108286
-0.000734980531892
-0.000740852632791
-0.000637041921286
-0.000477345246824
-0.000491008871192
-0.000637122931512
-0.000890456829746
-0.00116207804736
-0.00137032574904
-0.00143522031281
-0.00136866872073
-0.00126686957497
-0.00119312122118
-0.00115392903854
-0.00110799912819
-0.00108950969494
-0.00106129321692
-0.00100751553452
-0.000946448113733
-0.000906341609205
-0.000871990567569
-0.000789407693614
-0.000625924356014
-0.000471940661803
-0.000477496519617
-0.0006030720159
-0.000796512183108
-0.00100082490903
-0.00117877908235
-0.00128365850318
-0.00129597361145
-0.00126372714191
-0.00123213879768
-0.00120371297096
-0.00117645625664
-0.00116527878113
-0.00115210086989
-0.00111877097899
-0.00106289523514
-0.000995069810967
-0.000902040865534
-0.000762156193536
-0.000594773809746
-0.000467483739026
-0.000447301323642
-0.00055955416591
-0.000698928287068
-0.000829500030325
-0.00095253837542
-0.00104054460998
-0.00107943652287
-0.00108494290695
-0.00107848780859
-0.0010633194928
-0.00106144966791
-0.00106384098752
-0.00106322804708
-0.00104601394813
-0.000999354652869
-0.000921501828947
-0.000812972406473
-0.000688739796342
-0.000556473420839
-0.000447929716058
-0.000397032875547
-0.000496838744852
-0.000611448388188
-0.000684462632022
-0.000736818074486
-0.000780609942052
-0.000806625269815
-0.00081382273663
-0.000814185760846
-0.000814526231275
-0.000816784600796
-0.000820854928497
-0.000825106023885
-0.00081989302425
-0.000792570194672
-0.000744832055618
-0.000686569974311
-0.000608849557142
-0.000500569250531
-0.000401945201813
-0.00031973474575
-0.00040974429737
-0.000503335670085
-0.000561106797553
-0.000593039780489
-0.000608826066271
-0.00061487357245
-0.00061627749983
-0.000616095488278
-0.000616055524442
-0.000617236009233
-0.000619530833477
-0.000622048805007
-0.000622467314785
-0.000616917182871
-0.000599969311019
-0.000564712081784
-0.000504032920613
-0.00041346347649
-0.000322859708674
-0.000216739074892
-0.00031160651532
-0.000382522457354
-0.000425549546651
-0.000450402353907
-0.000464113310775
-0.000471624858805
-0.000476218548014
-0.000479989606514
-0.000484713953645
-0.000489599002855
-0.000495604272165
-0.000501588015638
-0.000506113527142
-0.000506832336559
-0.000496294310687
-0.000467439084813
-0.000413476738592
-0.000329692937734
-0.000218886098892
-0.000247973265285
-0.000419218929639
-0.000523274442147
-0.00057102003485
-0.00057782035341
-0.000565066338446
-0.000561491845845
-0.000572608650563
-0.000590198450192
-0.000608421088966
-0.000626994644777
-0.000644990631671
-0.000664787775706
-0.000671926619806
-0.000682278808408
-0.00067971673024
-0.000638828374521
-0.000558686221085
-0.000428995767489
-0.000257497712451
-0.000418665684485
-0.000456886721351
-0.000540651969388
-0.000546880701435
-0.000500829791136
-0.000453475588484
-0.000431091739607
-0.000434105734861
-0.000449945936813
-0.000468264632574
-0.000488149635848
-0.000510274736657
-0.00052706050664
-0.000543207395311
-0.000563247199027
-0.000585622532092
-0.000597528298929
-0.000565400213633
-0.000489473131405
-0.000402333327488
-0.000527435022946
-0.000540434490913
-0.000604000030094
-0.000578910692537
-0.000518902321131
-0.000453796752853
-0.000413776823068
-0.000410979797694
-0.000427163795594
-0.000449215751149
-0.000476297896623
-0.000503645957711
-0.000523867587918
-0.000538973971037
-0.000559467723264
-0.000590219417332
-0.000616723003722
-0.000623256745805
-0.000579533487796
-0.00051763358332
-0.000579502486447
-0.00056394339728
-0.000613729537001
-0.000601607216315
-0.000552174788205
-0.000494730799909
-0.000452166894351
-0.000440368554253
-0.000454307487327
-0.000481489449196
-0.00052133943105
-0.000555232725272
-0.000578803664145
-0.000586395637695
-0.000588978558302
-0.000606861272729
-0.000637258957387
-0.000650254320276
-0.000629269834191
-0.000587872031085
-0.000590080156603
-0.000559419122219
-0.000631605690805
-0.000661100396528
-0.000646114090539
-0.000601503338347
-0.000551431898326
-0.000518355987615
-0.000534596581928
-0.000574846154313
-0.000630953498782
-0.000682700239517
-0.000714744251983
-0.000716594997447
-0.000687546087094
-0.000667488875974
-0.000678892859293
-0.000690323663259
-0.000662442324955
-0.000626601065141
-0.00058606569607
-0.000560642939809
-0.000671103147189
-0.000745132064778
-0.000752351337392
-0.000697573869934
-0.000615443729094
-0.000515569572865
-0.000570019241703
-0.000651958796144
-0.000743864654392
-0.000839391064052
-0.000896692732117
-0.000890153290678
-0.000834143184687
-0.000769968404092
-0.00074846146392
-0.00074348173908
-0.000700950611697
-0.000653259778346
-0.000585801721976
-0.000576820036594
-0.000719360452219
-0.000818003677982
-0.000804312096689
-0.000670856305946
-0.000424471768723
-0.000225159945052
-0.000532767849553
-0.000755056946935
-0.000957350304556
-0.00118345371181
-0.00144281529453
-0.00105262019157
-0.000962525672082
-0.000879551523724
-0.000832674519843
-0.000803140411553
-0.00073769258772
-0.000666990915545
-0.000591814641804
-0.000588750600238
-0.000736916194509
-0.000830145526752
-0.000773654108602
-0.000528033023856
0.000138900753412
-0.000304526574507
-0.000864746737892
-0.00102405345455
-0.00111291870972
-0.00124387887688
-0.00192882094049
-0.00149026539902
-0.00104791124994
-0.00093073407038
-0.000872526837594
-0.000831037379043
-0.000752874560291
-0.000670780859002
-0.000601631120306
-0.000591894606221
-0.00072964244166
-0.000807468359551
-0.000723150545415
-0.000436392352995
0.000147473286539
1.51236068654e-05
-0.0003130445821
-0.000340986338717
-0.000344686939783
-0.000413168729448
-0.000933987643913
-0.00125303427395
-0.0010237977625
-0.00092006571675
-0.000866619980065
-0.000827727761349
-0.000750082101791
-0.000667442668451
-0.00061652287024
-0.000599746257176
-0.00073195042425
-0.000804099020989
-0.000708973883963
-0.000401536091073
0.000224953329289
0.000185494809302
-9.38886511402e-05
-9.43022425374e-05
-7.33326134672e-05
-0.000124486373147
-0.00059670844784
-0.00111665527371
-0.000976682360077
-0.000898536737424
-0.000858816617607
-0.000826920648663
-0.000750670160311
-0.000667599723435
-0.000636653731748
-0.00061157052632
-0.00074376101522
-0.000823258173984
-0.000741987555475
-0.000451963221145
0.000308873840717
0.000850545633111
0.000480449932803
0.000429778527864
0.000417372706868
0.000327182859708
-0.000201264929991
-0.00119531434918
-0.000965205183611
-0.000884976013575
-0.000856816627247
-0.000831988579446
-0.000756401386795
-0.000672997587385
-0.000663846087767
-0.000641433099627
-0.000788646793929
-0.000897752318349
-0.000863092591718
-0.000653031809213
-0.000331183786778
0.000437928689915
0.00028237037226
8.42723552098e-05
-0.000149347404194
-0.000531732820526
-0.000994485417143
-0.000996188067161
-0.000943782761137
-0.000919202852931
-0.000904535635367
-0.000872045002777
-0.000779076454962
-0.000684901509226
-0.000695885605484
-0.000685897083319
-0.000853785066793
-0.0010009380025
-0.00103157744932
-0.000905388602845
-0.000715916422652
-0.000559589191181
-0.000528558393698
-0.00059861905923
-0.000713944425185
-0.000857866375844
-0.00103251927453
-0.00102562496321
-0.00102648249891
-0.0010265715975
-0.00100564337255
-0.00093837167213
-0.000805847893691
-0.000696482564512
-0.000718650319371
-0.00071709831008
-0.000893446084194
-0.00106331584718
-0.0011576370958
-0.00113237888876
-0.00103618810999
-0.000964527247866
-0.000938734443072
-0.000962626881564
-0.00101748689085
-0.00108846363848
-0.00116021133349
-0.00117387765059
-0.00117287877499
-0.00115211181797
-0.00109340516081
-0.000975867348555
-0.000804336181876
-0.000699990511923
-0.000715458201593
-0.000716996625557
-0.000892791300082
-0.00106460615228
-0.0011926609061
-0.00124284198982
-0.00122710236867
-0.00119828188742
-0.00118592755865
-0.00119526400415
-0.00122295741013
-0.00126018142429
-0.00129428590803
-0.00130424982256
-0.0012845317633
-0.00122762545032
-0.00112086233817
-0.000957873915348
-0.000769275896343
-0.000697325383743
-0.000688372551998
-0.000685905898299
-0.000841373183428
-0.00099961997861
-0.00113012822666
-0.00121324982987
-0.00124329700733
-0.00124635958802
-0.00124834092547
-0.00125479388895
-0.00127099449289
-0.00129293078071
-0.00131281993313
-0.00131415335893
-0.00127681738003
-0.0011905795249
-0.00105327763813
-0.000876432982838
-0.000717581955636
-0.000688703425864
-0.000635341937025
-0.000638254633791
-0.000756446560762
-0.000874734021997
-0.000988339589134
-0.0010685945992
-0.00111204062202
-0.0011262377851
-0.00113357093311
-0.00114192790608
-0.0011542254593
-0.00116667840072
-0.00117668395736
-0.00117004957468
-0.00112581813672
-0.00103534701551
-0.000906401786439
-0.00077357838581
-0.000664705346332
-0.000652610728655
-0.000549905862669
-0.000574435056877
-0.000678817206157
-0.000751807233357
-0.000809154817558
-0.000859602539226
-0.000892210286926
-0.000905291649699
-0.000910611023194
-0.000915803585041
-0.000921905985219
-0.000928525798284
-0.000933882150411
-0.000927323099239
-0.000893455173728
-0.000833842155965
-0.000766341855432
-0.000689759516314
-0.000598238109264
-0.000571716599382
-0.000422794515501
-0.000491852686892
-0.000596416443397
-0.000664874101194
-0.000705403173008
-0.000727374653558
-0.000738287900936
-0.000743344148406
-0.000746146221612
-0.000748553456509
-0.000751488408621
-0.000754562256714
-0.000756368295439
-0.000754007322476
-0.000743152110585
-0.000718203259495
-0.000672893068546
-0.00060155756347
-0.000505119360468
-0.000438511760119
-0.000257701119021
-0.000412356558797
-0.00053091614925
-0.000604044283741
-0.00064698009328
-0.000671487317821
-0.000685104845246
-0.000694056154183
-0.00070117386388
-0.00070928235087
-0.000718860595588
-0.000729758450477
-0.000743093699768
-0.000751724613853
-0.000753006652127
-0.000732384290232
-0.000670024198514
-0.000575828530443
-0.000439707142941
-0.000264440573972
-0.000278419478915
-0.000507865371004
-0.000648970182792
-0.000715481292342
-0.000728464389531
-0.000714787454197
-0.000709426202194
-0.000719243760373
-0.000736579616762
-0.000754746300678
-0.000774846576468
-0.00079549549151
-0.000817256553818
-0.000822856173408
-0.00083295546448
-0.000829215018208
-0.000771409625597
-0.000663562943673
-0.000494661959651
-0.000276487150723
-0.000507079643159
-0.000504871815805
-0.000585415387678
-0.000586590165357
-0.000536098994113
-0.000489789369945
-0.000472852369005
-0.000480266549618
-0.000497475009394
-0.000517374053674
-0.000538684009861
-0.000559971698023
-0.000581094228001
-0.000601757916717
-0.000629261500249
-0.000655897378736
-0.000668517686452
-0.000635250308561
-0.000556309356671
-0.000461871177735
-0.000653929889341
-0.000584643706797
-0.00062388954328
-0.000579076312058
-0.000508899561649
-0.000448837989569
-0.000424671095841
-0.00043420223087
-0.000455631581575
-0.000480836245932
-0.000508039537577
-0.00053697057903
-0.000560708612437
-0.000586266307763
-0.000621490063549
-0.00065942666839
-0.000686059796248
-0.000692743024166
-0.000658430564814
-0.000612311437925
-0.000725893394005
-0.000601371802216
-0.000607385492333
-0.000559477484899
-0.000494621375385
-0.000447791536663
-0.000434317531657
-0.000446194008972
-0.000473171124496
-0.000506978091857
-0.00054506565618
-0.000583879112215
-0.000615852032037
-0.000645966437038
-0.000676278891831
-0.000705662119635
-0.000729155594695
-0.000731999888031
-0.000718375566822
-0.000705211358458
-0.000744541672226
-0.000587974365863
-0.000598852388154
-0.000575621359052
-0.00054170855036
-0.00051957746375
-0.000512759323351
-0.000502474856065
-0.000539725932522
-0.000586871613495
-0.000640350797774
-0.000692974062388
-0.000731533697026
-0.000784933312771
-0.000805751384048
-0.000808134259282
-0.000809263695156
-0.000795182459325
-0.000761956508304
-0.000756911353031
-0.000743294072288
-0.000584740454024
-0.000618529107628
-0.000628671911325
-0.000621640728329
-0.00060894114925
-0.000575800547786
-0.000445724812255
-0.000538590148003
-0.000611671938361
-0.000685813106388
-0.000766527624366
-0.000801145420445
-0.000910917933148
-0.000962252422552
-0.000941361877673
-0.000914543884318
-0.000873932300406
-0.000811717921821
-0.000792261996236
-0.000743687020161
-0.00060286152288
-0.000661573933461
-0.000694796741512
-0.000682723879169
-0.000637847377015
-0.000511396489208
-0.000613217604931
-0.00108461541986
-0.00119762852862
-0.00126966287469
-0.00147196481938
-0.00200990440463
-0.000963193185553
-0.0010746343657
-0.00106177957029
-0.00101980988912
-0.000952117238692
-0.000857790631847
-0.000811301287847
-0.000749327857458
-0.000620097050008
-0.000685248339678
-0.000719535304038
-0.000692104712117
-0.000672675823399
-0.000973981953657
-0.00243095793565
-0.00116234733355
-0.00110929154245
-0.00106394385174
-0.000986334204322
-0.000877460583708
-0.000818228965364
-0.000760289394447
-0.000628377081597
-0.000685213635619
-0.000707846917185
-0.000657600347932
-0.000570000649295
-0.000508546682272
-0.00144440617945
-0.00110783840456
-0.00109587908797
-0.00105889175791
-0.000984695891919
-0.000875988477441
-0.000816065442065
-0.000778519484798
-0.000641448424215
-0.000693036987057
-0.000710192028037
-0.00064939950715
-0.000531745290175
-0.00031328882549
-0.000997407046595
-0.00104853199199
-0.00108191058427
-0.00105705120362
-0.000987397102992
-0.000878489096286
-0.000818988833383
-0.000803299226806
-0.000658195340097
-0.000707903822399
-0.00072825133717
-0.000679082585306
-0.000596427700527
5.98471464335e-05
-0.000549662014604
-0.00104861808018
-0.00109140929589
-0.00106734920907
-0.000998227985811
-0.000887277127074
-0.000830243610978
-0.000836624219063
-0.000696077138778
-0.000760307560945
-0.000801653449829
-0.000773001582596
-0.000675765410643
-0.000657445401326
-0.000228855308391
-0.000158890269785
-0.000237362975699
-0.000303122874483
-0.000431987513738
-0.00101083303752
-0.00104677311958
-0.00112686266288
-0.00115249130709
-0.00112701807382
-0.00104409589156
-0.000914614456623
-0.000850064323958
-0.000873396128618
-0.000752861166382
-0.000846382637586
-0.000922944373778
-0.000936966387786
-0.000872288667776
-0.000815342033841
-0.000854787015678
-0.000804272102744
-0.000853227996854
-0.000945303962644
-0.00109676340374
-0.00131334772524
-0.00123734522203
-0.00125898751109
-0.00127435534389
-0.00122811740183
-0.00110827976372
-0.0009441080473
-0.0008713014278
-0.000896449657359
-0.000795168931035
-0.000916319110758
-0.0010253302708
-0.00108993232401
-0.00109010256997
-0.00106567126752
-0.00106714021755
-0.00106327699396
-0.00109925050483
-0.00116089016123
-0.00124485195651
-0.00134163655337
-0.00137381865328
-0.00139683855285
-0.00137925512623
-0.00129052147837
-0.00112896294613
-0.000938466538158
-0.000881108295049
-0.000885542585042
-0.000800506193269
-0.000943652951544
-0.00107631461946
-0.00117671060153
-0.00123228930155
-0.00125319620185
-0.00126401956887
-0.00127431666879
-0.00129915203039
-0.0013411535262
-0.00139033666484
-0.00144017686012
-0.00147128102492
-0.00147060258503
-0.00141049621812
-0.0012783797988
-0.00108674992512
-0.000891841817179
-0.000880070952887
-0.000846125998398
-0.000767197431987
-0.000907815722764
-0.00105043816458
-0.00116745431744
-0.00125004243294
-0.00129722321046
-0.00131968789343
-0.00133274659458
-0.00135167641661
-0.00137671137679
-0.00140534778932
-0.00143243202586
-0.00144574946531
-0.00141817988343
-0.00132670043586
-0.00117311878631
-0.000980826532748
-0.000826457506707
-0.00086795654478
-0.000773808247913
-0.00071333886515
-0.000824860400195
-0.000942877320273
-0.00105576367607
-0.00114199525595
-0.00119242418213
-0.00121537163752
-0.00122797200243
-0.00124105383263
-0.00125568418694
-0.0012698522105
-0.00128104861033
-0.001277813907
-0.00123538528398
-0.00113883746174
-0.000998516847681
-0.000859817576702
-0.000762521101703
-0.000814671127963
-0.000659471061397
-0.000644407022054
-0.000749719791091
-0.000827530805814
-0.000890661160945
-0.000948460794222
-0.000987626091905
-0.00100489506307
-0.00101204610996
-0.00101860646478
-0.001025552974
-0.00103248629053
-0.00103717194515
-0.0010293089467
-0.00099177909635
-0.000925138002328
-0.000850062446084
-0.000771068045
-0.000684360400772
-0.000701694787289
-0.000492417205265
-0.00055919236819
-0.000678469213999
-0.000758983335967
-0.000808371619232
-0.000836509437406
-0.000851477861223
-0.000859333284743
-0.00086406784589
-0.000867980053485
-0.000872009754521
-0.000875659073216
-0.000876977428859
-0.00087249966809
-0.0008574695076
-0.000825604739683
-0.000770309595218
-0.000686164585243
-0.000579556147725
-0.000521976738704
-0.000279791131569
-0.000481354190578
-0.000638492824587
-0.000737018311174
-0.000796354978637
-0.000831403249402
-0.00085105036258
-0.000864745433603