/*--------------------------------*- C++ -*----------------------------------*\
| =========                 |                                                 |
| \\      /  F ield         | OpenFOAM: The Open Source CFD Toolbox           |
|  \\    /   O peration     | Version:  v1606+                                |
|   \\  /    A nd           | Web:      www.OpenFOAM.com                      |
|    \\/     M anipulation  |                                                 |
\*---------------------------------------------------------------------------*/
FoamFile
{
    version     2.0;
    format      ascii;
    class       volScalarField;
    location    "0.86";
    object      k.air;
}
// * * * * * * * * * * * * * * * * * * * * * * * * * * * * * * * * * * * * * //

dimensions      [0 2 -2 0 0 0 0];

internalField   nonuniform List<scalar> 
6000
(
0.886441
0.94608
0.967308
0.983118
0.99502
1.00143
1.0015
0.996507
0.994233
0.99918
1.00683
1.01187
1.01465
1.01711
1.01839
1.01738
1.01552
1.01357
1.01135
1.0085
1.00034
0.995147
0.998695
1.00382
1.00323
0.99556
0.982255
0.966544
0.946278
0.886468
0.566151
0.835334
0.942882
1.01191
1.07245
1.12205
1.1458
1.14099
1.14034
1.15832
1.18257
1.19501
1.20435
1.21756
1.22793
1.23088
1.22736
1.22149
1.21812
1.21168
1.18231
1.15704
1.15686
1.16353
1.13345
1.08043
1.01844
0.949097
0.845553
0.573831
0.376048
0.702704
0.881827
0.980759
1.05147
1.10777
1.14761
1.17391
1.20479
1.24313
1.2746
1.29665
1.31607
1.33482
1.34851
1.35466
1.35529
1.35249
1.34506
1.32603
1.29102
1.24365
1.20443
1.17239
1.12657
1.06468
0.989726
0.891434
0.718984
0.388907
0.296576
0.631271
0.837649
0.965347
1.05521
1.12689
1.18644
1.23844
1.29411
1.35015
1.38138
1.40551
1.42767
1.44802
1.46496
1.47685
1.48594
1.49455
1.49464
1.47185
1.43788
1.36555
1.28961
1.22462
1.15645
1.0773
0.983047
0.855649
0.652678
0.31049
0.285061
0.638289
0.845422
0.988725
1.09852
1.19176
1.27738
1.344
1.40386
1.45901
1.49534
1.52856
1.55918
1.58476
1.60443
1.61827
1.62799
1.63598
1.63315
1.60632
1.57175
1.49972
1.4121
1.33156
1.23754
1.13442
1.01862
0.873893
0.66453
0.299171
0.302351
0.687326
0.901788
1.05647
1.18575
1.29993
1.4088
1.48683
1.54617
1.60074
1.64804
1.69285
1.73174
1.76305
1.7866
1.80229
1.81095
1.81467
1.80649
1.77216
1.7231
1.65303
1.57177
1.48572
1.37284
1.24952
1.11377
0.953599
0.729469
0.320566
0.346072
0.775318
1.00823
1.17769
1.3202
1.44998
1.57576
1.66884
1.73479
1.79672
1.85003
1.90291
1.9533
1.99708
2.03057
2.04994
2.0543
2.04661
2.02606
1.98551
1.92619
1.85611
1.78495
1.69568
1.56899
1.43014
1.27938
1.10023
0.847666
0.376886
0.388544
0.882288
1.14501
1.3413
1.50904
1.65768
1.7957
1.90522
1.97964
2.0521
2.10885
2.16866
2.24085
2.31193
2.36494
2.39028
2.38531
2.35621
2.31178
2.26811
2.21139
2.1395
2.07616
1.98443
1.84827
1.69047
1.51144
1.29667
0.999946
0.434888
0.463119
1.00125
1.30039
1.53595
1.74083
1.92087
2.08023
2.21358
2.31109
2.37624
2.43404
2.5091
2.61594
2.72863
2.80996
2.84527
2.83065
2.77195
2.69382
2.64407
2.59384
2.53182
2.47101
2.36876
2.21615
2.028
1.80654
1.54254
1.18664
0.535978
0.516442
1.0995
1.46371
1.74998
1.99955
2.22674
2.42737
2.60257
2.74849
2.846
2.89574
2.97226
3.10483
3.2545
3.36477
3.41526
3.39953
3.31694
3.21149
3.14841
3.11486
3.0798
2.99624
2.85919
2.67176
2.43994
2.17068
1.82653
1.3646
0.641304
0.537415
1.19499
1.62228
1.97807
2.27134
2.55073
2.81635
3.06125
3.28548
3.46163
3.56582
3.65447
3.78403
3.92763
4.04104
4.10127
4.09194
4.00974
3.91002
3.86232
3.86695
3.81027
3.66689
3.4623
3.21192
2.92527
2.59704
2.12768
1.55336
0.688932
0.590123
1.31475
1.77648
2.1785
2.53578
2.87557
3.23677
3.58181
3.90317
4.17909
4.38424
4.5282
4.66084
4.79111
4.8922
4.94896
4.94508
4.8892
4.83987
4.82971
4.81307
4.70376
4.48549
4.18336
3.8252
3.45992
3.01286
2.43876
1.77487
0.78037
0.695817
1.49454
1.98351
2.39462
2.80123
3.22329
3.68742
4.14269
4.57631
4.97034
5.28471
5.49203
5.65425
5.8115
5.9371
6.01134
6.02187
5.99532
5.98333
5.96893
5.91953
5.75363
5.44837
5.02303
4.51856
4.01871
3.44471
2.84537
2.11972
0.959928
0.801835
1.71687
2.24539
2.68796
3.12797
3.61556
4.16217
4.72083
5.2783
5.82038
6.25941
6.50521
6.72608
6.95886
7.15598
7.27533
7.30794
7.29108
7.2742
7.25131
7.20787
6.98328
6.56596
5.9891
5.32429
4.66146
4.03618
3.40318
2.58607
1.17774
0.895734
1.9404
2.53367
3.02714
3.50777
4.03835
4.64536
5.29043
5.9769
6.68241
7.22926
7.54202
7.86898
8.22774
8.54684
8.74243
8.77891
8.71994
8.67704
8.67247
8.67627
8.43553
7.86282
7.10517
6.27997
5.50254
4.83419
4.09374
3.12179
1.40297
0.976277
2.13912
2.81046
3.36378
3.89123
4.46011
5.10815
5.81643
6.61152
7.41012
8.03961
8.49324
8.96685
9.48202
9.97151
10.2941
10.3308
10.2081
10.1206
10.1487
10.1974
10.0392
9.35201
8.37434
7.41161
6.56499
5.77694
4.85645
3.68113
1.6349
1.0368
2.30527
3.05485
3.66411
4.23894
4.8441
5.51832
6.25577
7.06923
7.87255
8.6007
9.19232
9.72765
10.3219
10.9925
11.5123
11.6738
11.5655
11.4479
11.5316
11.6116
11.6009
10.9469
9.77341
8.69047
7.72291
6.74044
5.62132
4.23724
1.87384
1.11756
2.45236
3.27316
3.9261
4.53962
5.17698
5.85894
6.58836
7.35687
8.12156
8.92458
9.66043
10.2669
10.8171
11.4374
12.041
12.4432
12.6204
12.511
12.6726
12.8432
12.8258
12.414
11.1336
9.93782
8.81178
7.64231
6.35613
4.78393
2.11212
1.22753
2.61473
3.45824
4.1475
4.79765
5.45762
6.13507
6.8525
7.58823
8.34968
9.14581
9.93665
10.6766
11.3028
11.8359
12.3415
12.8412
13.2814
13.3279
13.4996
13.7929
13.6865
13.4695
12.3436
11.0496
9.78538
8.47943
7.05808
5.31979
2.34949
1.23145
2.73275
3.62006
4.34573
5.03144
5.70613
6.39304
7.11148
7.85612
8.63205
9.43396
10.281
11.1295
11.8833
12.4357
12.8213
13.264
13.7975
14.001
14.1527
14.5334
14.3711
14.193
13.4187
12.0681
10.6891
9.27246
7.73279
5.84533
2.58702
1.30319
2.85923
3.77317
4.5142
5.20644
5.89099
6.59239
7.32214
8.08433
8.88491
9.76241
10.7253
11.7288
12.6312
13.2265
13.5273
13.7866
14.2595
14.5758
14.7471
15.1533
14.9656
14.7379
14.3393
13.0152
11.5503
10.0398
8.38645
6.35525
2.82669
1.39277
2.98656
3.90931
4.6606
5.36158
6.06457
6.79336
7.55995
8.36579
9.2105
10.1225
11.1229
12.1939
13.2298
13.9789
14.3225
14.4305
14.7231
15.1273
15.3549
15.746
15.519
15.1923
15.0247
13.8777
12.3947
10.8133
9.0371
6.84029
2.96954
1.46679
3.11582
4.037
4.78105
5.48764
6.20321
6.95101
7.74631
8.59862
9.50209
10.45
11.4545
12.5246
13.6011
14.4711
14.9314
15.0497
15.2204
15.6676
15.9949
16.3014
16.0562
15.5916
15.4968
14.7131
13.3138
11.6633
9.73167
7.30738
3.06826
1.4807
3.19772
4.12668
4.87978
5.5918
6.30971
7.05897
7.85744
8.7201
9.64477
10.6263
11.6661
12.7793
13.9198
14.8476
15.3508
15.5028
15.6275
16.0258
16.4797
16.6794
16.5008
16.0009
15.9388
15.6834
14.4801
12.6879
10.5134
7.74432
3.27517
1.4537
3.17869
4.16134
4.93853
5.65707
6.37322
7.11738
7.90954
8.76171
9.6798
10.6684
11.7309
12.8727
14.0737
15.1339
15.7133
15.8822
15.9462
16.1946
16.6287
16.8076
16.7207
16.3842
16.4217
16.7062
15.8844
13.8999
11.3404
8.26477
3.52734
1.41872
3.1481
4.16848
4.96411
5.68846
6.40257
7.13909
7.91583
8.75126
9.65374
10.6284
11.68
12.8117
14.0104
15.18
15.9842
16.2546
16.2938
16.3714
16.6363
16.8325
16.8015
16.688
16.8774
17.4589
17.1909
15.1834
12.3384
8.99659
3.8717
1.42692
3.18802
4.19536
4.98526
5.70544
6.41114
7.13023
7.8897
8.70507
9.58488
10.5353
11.5585
12.6553
13.8164
14.9998
16.0277
16.5719
16.72
16.7065
16.7605
16.9005
16.9229
16.9785
17.2903
17.8849
17.9196
16.2934
13.3975
9.83483
4.26207
1.48052
3.23798
4.23084
5.01206
5.72664
6.42345
7.1269
7.85537
8.63778
9.49189
10.4122
11.4018
12.4588
13.5749
14.7276
15.8368
16.6862
17.1473
17.1916
17.092
17.1101
17.1863
17.3551
17.7113
18.1542
18.2409
17.0561
14.2873
10.5998
4.63892
1.50578
3.27342
4.25878
5.03012
5.73244
6.42094
7.12026
7.83783
8.58087
9.38939
10.2776
11.2336
12.2554
13.3338
14.4501
15.5612
16.5411
17.3225
17.6522
17.5529
17.476
17.605
17.8467
18.1214
18.3487
18.4059
17.5473
14.9845
11.2219
4.94674
1.49886
3.28594
4.26111
5.02678
5.72874
6.41408
7.10297
7.8102
8.54058
9.30368
10.1429
11.0696
12.0645
13.1181
14.2141
15.3171
16.3141
17.1976
17.8032
17.9407
17.8737
17.9918
18.2713
18.4355
18.492
18.503
17.848
15.513
11.7177
5.18095
1.4984
3.28176
4.25548
5.02177
5.72065
6.39958
7.08207
7.78211
8.50083
9.23517
10.0249
10.9197
11.8955
12.9396
14.0384
15.1555
16.1776
17.0762
17.7897
18.1093
18.1517
18.2011
18.4184
18.5757
18.6271
18.6402
18.0447
15.8885
12.1321
5.44805
1.48808
3.27291
4.25441
5.02528
5.72431
6.39854
7.06817
7.75089
8.45045
9.17155
9.9331
10.7886
11.7498
12.7982
13.9233
15.0947
16.2065
17.2005
17.9792
18.2939
18.3521
18.3362
18.4348
18.615
18.7897
18.8705
18.2091
16.0672
12.3925
5.72493
1.44713
3.24988
4.25616
5.04155
5.75089
6.42563
7.07856
7.73055
8.40068
9.10487
9.85455
10.6754
11.6215
12.682
13.8492
15.109
16.3922
17.5266
18.3754
18.6551
18.6293
18.521
18.4973
18.6705
18.9651
19.0998
18.3171
16.0713
12.4636
5.86265
1.42023
3.2278
4.27016
5.08023
5.80344
6.47258
7.10619
7.7375
8.36906
9.03835
9.76376
10.5618
11.4942
12.5696
13.7793
15.1196
16.5574
17.8074
18.7248
19.0765
19.0291
18.806
18.6364
18.7217
19.0505
19.2007
18.2896
15.9352
12.3703
5.85526
1.42242
3.2384
4.30468
5.13929
5.87182
6.52898
7.13845
7.75249
8.35667
8.97314
9.64525
10.4252
11.3515
12.4417
13.6859
15.082
16.6294
18.0022
18.9909
19.4038
19.4033
19.1235
18.8125
18.7349
18.9884
19.1253
18.1157
15.6337
12.0483
5.48123
1.44392
3.27868
4.35343
5.19399
5.90369
6.52369
7.14509
7.80046
8.36836
8.87375
9.4797
10.253
11.1773
12.2822
13.5546
14.9876
16.6011
18.0953
19.1568
19.5791
19.6112
19.3362
18.9433
18.7047
18.8106
18.888
17.6567
15.017
11.4595
5.02937
1.47915
3.3404
4.39937
5.19019
5.84387
6.44936
7.06197
7.67558
8.23187
8.73011
9.27083
10.0258
10.9556
12.0771
13.3697
14.8185
16.4281
18.0137
19.1443
19.5804
19.6001
19.3404
18.929
18.5835
18.5182
18.41
17.0126
14.4134
10.9437
4.68881
1.53378
3.40118
4.39969
5.12356
5.74538
6.33811
6.91569
7.47453
8.02359
8.52209
9.00207
9.72163
10.6784
11.8245
13.1415
14.6007
16.1114
17.7025
18.9298
19.4306
19.4138
19.1523
18.7442
18.3386
18.1576
17.9042
16.4849
13.9921
10.5934
4.49286
1.60045
3.40585
4.3415
5.03161
5.63254
6.19545
6.72658
7.27554
7.82332
8.30295
8.72923
9.39424
10.3614
11.5323
12.8792
14.3527
15.7666
17.2331
18.5405
19.144
19.0911
18.798
18.3947
17.9938
17.7663
17.4424
16.0635
13.6958
10.4189
4.35636
1.60426
3.37496
4.27191
4.92372
5.48294
6.00136
6.51846
7.05665
7.5838
8.04479
8.44191
9.05402
10.0183
11.2037
12.5699
14.0429
15.3854
16.6965
17.9895
18.7321
18.6999
18.3816
17.9801
17.5928
17.3316
16.9658
15.712
13.5272
10.3815
4.48651
1.56123
3.31701
4.15848
4.76787
5.2923
5.78671
6.28544
6.79708
7.29445
7.73845
8.1264
8.70952
9.66018
10.8475
12.2173
13.6738
14.9497
16.1244
17.305
18.163
18.241
17.9342
17.5401
17.1647
16.8759
16.5003
15.4451
13.4999
10.5339
4.681
1.53895
3.23097
4.02562
4.59658
5.08763
5.55436
6.0261
6.50604
6.9732
7.40134
7.79096
8.35769
9.28996
10.4739
11.8361
13.2763
14.4954
15.536
16.5418
17.4405
17.6946
17.4533
17.0773
16.7122
16.4107
16.0458
15.1557
13.4516
10.6656
4.7913
1.49011
3.10542
3.86359
4.40364
4.86623
5.3062
5.74986
6.19951
6.64025
7.05478
7.44531
7.99849
8.91237
10.0903
11.4404
12.866
14.0389
14.962
15.7871
16.5944
17.0369
16.9135
16.5699
16.2127
15.9021
15.5417
14.7868
13.3076
10.6693
4.8998
1.41718
2.95364
3.6817
4.19646
4.63486
5.05064
5.46802
5.89
6.30711
6.70813
7.09487
7.63571
8.53194
9.70141
11.0387
12.4491
13.587
14.4076
15.0814
15.7179
16.2431
16.2743
15.9893
15.6454
15.3223
14.952
14.3017
13.0323
10.544
5.00579
1.33878
2.79322
3.49245
3.98515
4.40283
4.79691
5.18977
5.58573
5.97994
6.36564
6.7444
7.27081
8.1506
9.30839
10.6303
12.0251
13.1328
13.8588
14.4135
14.8949
15.346
15.5075
15.3192
15.006
14.6679
14.272
13.6849
12.6023
10.2723
4.89417
1.26096
2.63582
3.30617
3.77843
4.17741
4.55109
4.92017
5.29053
5.66141
6.0295
6.39605
6.9048
7.76673
8.9086
10.2095
11.5795
12.6589
13.3102
13.7814
14.1797
14.4692
14.649
14.571
14.3056
13.9554
13.5272
12.9678
12.0356
9.87269
4.67236
1.18907
2.48828
3.12902
3.58125
3.96207
4.31532
4.66024
5.00441
5.35068
5.69868
6.04945
6.53643
7.37823
8.49588
9.76793
11.0959
12.1458
12.7492
13.1704
13.536
13.7557
13.8337
13.7897
13.5646
13.2111
12.7526
12.1977
11.3735
9.38048
4.46346
1.12433
2.35275
2.96336
3.39516
3.75712
4.08879
4.40822
4.72481
5.04468
5.37015
5.7025
6.16249
6.97963
8.06656
9.30266
10.5623
11.5827
12.1711
12.5795
12.926
13.1593
13.162
13.0506
12.8243
12.4667
11.9861
11.414
10.6487
8.82676
4.26129
1.06755
2.22946
2.80923
3.21957
3.56104
3.86918
4.16123
4.44838
4.73976
5.04058
5.35326
5.77956
6.56535
7.61836
8.8151
9.98213
10.9632
11.5641
11.9942
12.3323
12.58
12.6229
12.4363
12.1565
11.7719
11.2723
10.6724
9.90546
8.22848
3.99931
1.01854
2.11723
2.66534
3.05282
3.37182
3.6543
3.9169
4.17248
4.43288
4.70681
4.99862
5.38478
6.12675
7.14566
8.29411
9.38751
10.3072
10.9268
11.3991
11.7555
11.9976
12.0897
11.9416
11.6109
11.1801
10.654
10.0251
9.21268
7.63436
3.72543
0.975831
2.01401
2.53014
2.89345
3.18822
3.4433
3.67492
3.89719
4.12399
4.36768
4.63613
4.98321
5.66431
6.64873
7.73261
8.76902
9.62379
10.2564
10.7718
11.1722
11.4242
11.5174
11.4461
11.157
10.7104
10.1553
9.49173
8.62079
7.1179
3.54898
0.937097
1.91773
2.40244
2.74082
3.0104
3.23744
3.43794
3.62677
3.81908
4.0299
4.27326
4.59451
5.19613
6.12697
7.14333
8.11359
8.91611
9.5481
10.093
10.5423
10.8373
10.9358
10.8723
10.6643
10.2755
9.72324
9.02495
8.12688
6.67567
3.25839
0.900881
1.82711
2.28166
2.5951
2.83941
3.03893
3.20962
3.36673
3.52584
3.70336
3.91735
4.21323
4.75522
5.6029
6.54796
7.43778
8.18783
8.8045
9.35879
9.84145
10.191
10.3327
10.2716
10.0751
9.74382
9.25496
8.59012
7.71467
6.3204
3.03819
0.866458
1.74152
2.16765
2.4567
2.67624
2.84935
2.99202
3.11938
3.24688
3.39159
3.5737
3.83381
4.32306
5.08918
5.94782
6.75705
7.44915
8.03751
8.5824
9.07621
9.46786
9.67503
9.65645
9.47492
9.16929
8.74623
8.17262
7.3784
6.06285
2.92793
0.833618
1.66078
2.06026
2.32581
2.52131
2.66917
2.7853
2.88419
2.98062
3.09223
3.24091
3.46143
3.89037
4.58038
5.35267
6.08277
6.71256
7.26452
7.78676
8.27372
8.68789
8.95746
9.01418
8.88087
8.61136
8.24586
7.75993
7.06181
5.85036
2.87964
0.802361
1.58479
1.95933
2.20236
2.37465
2.49835
2.58904
2.66025
2.7261
2.80495
2.92051
3.10318
3.46911
4.08058
4.77332
5.42418
5.99366
6.50572
6.9984
7.46745
7.88716
8.20322
8.3423
8.28116
8.06907
7.75602
7.33931
6.72258
5.61236
2.82336
0.772702
1.51349
1.86473
2.08622
2.23619
2.33678
2.403
2.44736
2.48359
2.53158
2.6167
2.76521
3.07165
3.60451
4.21942
4.79827
5.31055
5.78192
6.2421
6.68797
7.10217
7.44713
7.65778
7.67859
7.5351
7.27256
6.90812
6.35156
5.32409
2.72117
0.744456
1.44674
1.77641
1.9773
2.10593
2.18443
2.22705
2.24553
2.25382
2.27383
2.33165
2.44966
2.70262
3.16146
3.70487
4.21863
4.67776
5.11
5.53772
5.9587
6.36148
6.72129
6.98673
7.08973
7.01439
6.8035
6.47744
5.96386
5.00392
2.58777
0.717424
1.38448
1.69437
1.87563
1.98398
2.04121
2.06119
2.05503
2.03753
2.03298
2.06734
2.15877
2.36501
2.75771
3.23602
3.69219
4.10508
4.50065
4.89744
5.29442
5.68342
6.04827
6.35177
6.52699
6.52056
6.35975
6.06249
5.57886
4.67474
2.43917
0.691795
1.32685
1.61856
1.78123
1.87004
1.90699
1.90566
1.87605
1.83517
1.81009
1.82491
1.89378
2.05985
2.39339
2.81451
3.22217
3.59493
3.95801
4.32689
4.70178
5.07674
5.44034
5.76681
5.99917
6.06227
5.94639
5.67429
5.21134
4.35397
2.28713
0.668028
1.27404
1.54879
1.6937
1.76387
1.7822
1.7602
1.70867
1.64745
1.60563
1.60502
1.65556
1.78799
2.06844
2.4385
2.8057
3.14596
3.48103
3.82564
4.18134
4.54305
4.90163
5.23879
5.51068
5.63664
5.56579
5.31674
4.86876
4.05169
2.13962
0.646245
1.22604
1.48476
1.61272
1.6656
1.6664
1.62476
1.55306
1.47474
1.42004
1.40787
1.44445
1.55085
1.78139
2.10438
2.43793
2.75263
3.06499
3.38931
3.72885
4.07923
4.43133
4.77011
5.06334
5.23854
5.21371
4.9872
4.55205
3.77177
2.00093
0.626569
1.18285
1.42593
1.53793
1.57536
1.55935
1.49907
1.40931
1.3175
1.25353
1.23317
1.25963
1.34783
1.53365
1.81028
2.11442
2.40929
2.70336
3.01115
3.3377
3.6793
4.02559
4.36107
4.66004
4.86436
4.88259
4.67898
4.25779
3.51325
1.8734
0.608877
1.14416
1.37217
1.4693
1.4926
1.46054
1.38282
1.2773
1.17536
1.1054
1.07954
1.0983
1.17261
1.32598
1.55809
1.83227
2.10985
2.38869
2.68307
2.99955
3.33553
3.67859
4.0099
4.30471
4.51692
4.56583
4.38488
3.97986
3.27117
1.75499
0.593059
1.10968
1.32326
1.40662
1.41675
1.36949
1.27528
1.15662
1.04796
0.974736
0.945491
0.957881
1.02058
1.14885
1.34392
1.58754
1.84801
2.11444
2.39734
2.70599
3.03919
3.38272
3.71239
3.99981
4.20471
4.26407
4.10232
3.71293
3.03956
1.64049
0.578894
1.07902
1.27885
1.34963
1.34729
1.28523
1.17578
1.04664
0.934167
0.860213
0.828886
0.83658
0.890344
0.998143
1.16255
1.37683
1.61934
1.87432
2.14711
2.4491
2.78142
3.12892
3.46118
3.74348
3.9348
3.98714
3.83428
3.45673
2.81137
1.52576
0.566085
1.05166
1.23851
1.29806
1.28355
1.20705
1.08351
0.946751
0.83315
0.760459
0.728229
0.733226
0.779374
0.870586
1.00929
1.19574
1.41928
1.66269
1.92568
2.22127
2.55336
2.90737
3.24659
3.52733
3.70607
3.74273
3.58503
3.2111
2.58026
1.41413
0.554328
1.02725
1.20197
1.25135
1.22502
1.13406
0.998027
0.856481
0.74406
0.674133
0.642287
0.64559
0.685093
0.761908
0.879283
1.04091
1.24356
1.47446
1.7284
2.01664
2.3474
2.70864
3.05846
3.34091
3.50927
3.53041
3.36175
2.98062
2.35073
1.30076
0.543552
1.00539
1.16873
1.20885
1.17073
1.0652
0.918286
0.77435
0.665146
0.598832
0.568719
0.571367
0.604919
0.669198
0.768053
0.907358
1.08949
1.30642
1.5506
1.83001
2.15739
2.52471
2.88805
3.17625
3.33582
3.34179
3.162
2.77198
2.13819
1.18842
0.53318
0.985756
1.13822
1.16985
1.11971
0.999431
0.843566
0.69962
0.595411
0.533227
0.506177
0.508542
0.536764
0.590307
0.673252
0.792354
0.953719
1.15524
1.38914
1.65971
1.98072
2.35069
2.72884
3.02855
3.18241
3.17155
2.97964
2.58511
1.95421
1.08255
0.523587
0.967949
1.10966
1.13331
1.07051
0.935447
0.772597
0.630782
0.532843
0.476043
0.452563
0.454888
0.478543
0.522642
0.591415
0.692926
0.834829
1.01956
1.24235
1.50348
1.81556
2.18496
2.57657
2.89391
3.04728
3.02044
2.81578
2.41884
1.79909
0.986718
0.514124
0.951217
1.08194
1.09753
1.0217
0.872463
0.705088
0.567641
0.476445
0.425831
0.406026
0.408511
0.428241
0.464585
0.521762
0.607518
0.730929
0.898563
1.10897
1.36128
1.66322
2.02548
2.42704
2.76693
2.92785
2.88756
2.67102
2.27262
1.672
0.903046
0.504699
0.933316
1.05377
1.06084
0.971539
0.809273
0.639843
0.508919
0.425529
0.38129
0.365261
0.368185
0.38485
0.414772
0.461878
0.533716
0.640186
0.790737
0.988014
1.23062
1.52364
1.87732
2.28155
2.64364
2.82039
2.77151
2.54317
2.14415
1.56859
0.832602
0.4937
0.913892
1.02389
1.02171
0.918916
0.74619
0.577641
0.45417
0.378907
0.341264
0.32931
0.333107
0.347547
0.372223
0.410782
0.470359
0.561281
0.695128
0.878688
1.11178
1.39672
1.74155
2.14359
2.52372
2.72255
2.67057
2.42773
2.02949
1.48446
0.774357
0.481488
0.886911
0.989942
0.978543
0.862482
0.681813
0.517816
0.403325
0.33614
0.305441
0.297929
0.302965
0.315871
0.33634
0.367642
0.416464
0.493254
0.611106
0.780589
1.00427
1.28245
1.6198
2.01614
2.40911
2.62905
2.57838
2.31982
1.92552
1.41557
0.727478
0.467784
0.849131
0.949154
0.929388
0.801906
0.618173
0.460753
0.355524
0.297173
0.274155
0.271204
0.277687
0.289565
0.306668
0.331918
0.371445
0.435514
0.538273
0.693516
0.907546
1.17951
1.51097
1.90238
2.30171
2.53736
2.48983
2.21828
1.83085
1.35551
0.689624
0.45081
0.798959
0.900394
0.874864
0.740212
0.556227
0.407139
0.311122
0.262698
0.247808
0.249182
0.257135
0.268309
0.282762
0.303096
0.334851
0.387767
0.47663
0.61791
0.821576
1.08754
1.414
1.80114
2.20307
2.44686
2.40111
2.12086
1.74378
1.29982
0.65789
0.430215
0.739232
0.843293
0.814749
0.676306
0.497195
0.358083
0.271734
0.233799
0.226304
0.231604
0.241276
0.252329
0.26478
0.281019
0.306187
0.349534
0.426017
0.554235
0.747186
1.00629
1.32792
1.71088
2.11159
2.35462
2.30804
2.02558
1.66198
1.24483
0.629528
0.405937
0.672028
0.776388
0.74845
0.61341
0.441711
0.313778
0.238627
0.210495
0.209503
0.219186
0.231852
0.243855
0.254914
0.267492
0.286567
0.321346
0.387123
0.503695
0.686083
0.936667
1.2513
1.62717
2.02111
2.25504
2.20676
1.93064
1.58325
1.18985
0.602951
0.378339
0.600795
0.700953
0.677696
0.553253
0.392087
0.276163
0.210959
0.191549
0.196914
0.212753
0.22954
0.243162
0.253527
0.263549
0.278081
0.305248
0.360907
0.467119
0.639876
0.880547
1.18338
1.54715
1.92723
2.14201
2.09306
1.83332
1.50571
1.13297
0.576779
0.348203
0.528963
0.621492
0.607331
0.499598
0.350022
0.244792
0.186206
0.174051
0.18597
0.209905
0.232623
0.249561
0.260462
0.268694
0.27923
0.300159
0.347902
0.445355
0.609293
0.838725
1.12552
1.47271
1.83058
2.01454
1.96798
1.73388
1.4294
1.07572
0.550023
0.316258
0.458826
0.54149
0.537273
0.449364
0.311414
0.212907
0.158393
0.153884
0.173686
0.207818
0.23745
0.258807
0.271616
0.277808
0.282521
0.297572
0.339504
0.430834
0.587976
0.808609
1.08056
1.41009
1.73497
1.87947
1.83851
1.63612
1.35722
1.02277
0.524562
0.283958
0.389921
0.46215
0.465043
0.392717
0.266432
0.173919
0.130178
0.136114
0.166213
0.202068
0.230815
0.251929
0.266578
0.274578
0.278742
0.289677
0.325165
0.409402
0.557979
0.772608
1.04072
1.36127
1.64105
1.74307
1.70885
1.54104
1.28901
0.973796
0.501372
0.2517
0.3234
0.384564
0.389149
0.328611
0.220907
0.140295
0.109696
0.12392
0.158601
0.190675
0.215107
0.233064
0.245758
0.253929
0.260025
0.269255
0.295111
0.365693
0.507275
0.720727
0.99034
1.30271
1.53202
1.59848
1.57433
1.44455
1.22158
0.923322
0.480527
0.220186
0.26133
0.315474
0.319471
0.26682
0.180761
0.115986
0.098651
0.117242
0.1501
0.17895
0.201044
0.216665
0.226427
0.231311
0.233609
0.238571
0.258814
0.321147
0.455986
0.663743
0.926134
1.2187
1.39867
1.44094
1.43135
1.34154
1.15225
0.873537
0.461344
0.19077
0.207886
0.251789
0.256156
0.213486
0.144186
0.094102
0.0885317
0.111776
0.143736
0.170215
0.190342
0.204061
0.211691
0.214327
0.21423
0.216418
0.233448
0.291635
0.42067
0.619193
0.860837
1.11771
1.25146
1.2793
1.2792
1.22399
1.07506
0.825434
0.44539
0.161405
0.164672
0.197771
0.202504
0.167488
0.111992
0.0740397
0.0774766
0.106572
0.138939
0.164581
0.183458
0.195718
0.201649
0.202519
0.20031
0.200004
0.213136
0.265924
0.387934
0.57384
0.795651
1.01703
1.10956
1.12041
1.12026
1.08726
0.978194
0.769406
0.424943
0.136949
0.132655
0.154935
0.155038
0.130337
0.0866728
0.0599145
0.0695868
0.103851
0.136976
0.162331
0.180511
0.191615
0.196063
0.19515
0.190437
0.186614
0.193436
0.235723
0.344556
0.517488
0.729725
0.916098
0.97093
0.968309
0.962694
0.93744
0.853876
0.682987
0.398405
0.115659
0.107477
0.119748
0.117845
0.100381
0.0696669
0.0521769
0.0652171
0.104038
0.138675
0.163735
0.181134
0.191196
0.194358
0.191928
0.184943
0.177467
0.17829
0.208669
0.30035
0.455082
0.651622
0.806895
0.839262
0.827476
0.814779
0.786989
0.713505
0.568169
0.359737
0.0981488
0.0875462
0.09386
0.0924518
0.0827072
0.0623379
0.0496891
0.0633299
0.107402
0.145296
0.168936
0.184185
0.192503
0.194834
0.192079
0.184559
0.174864
0.172103
0.193511
0.269762
0.4038
0.573987
0.691492
0.708758
0.698483
0.677784
0.642071
0.572909
0.449283
0.3127
0.0840343
0.0718848
0.0748899
0.0742794
0.0695045
0.0579537
0.0471758
0.0590063
0.107042
0.150924
0.17424
0.187097
0.194145
0.196138
0.194003
0.187562
0.178223
0.175623
0.195751
0.265354
0.382033
0.517866
0.585791
0.592798
0.581903
0.553818
0.513119
0.444647
0.339166
0.260409
0.0718417
0.0592861
0.0591397
0.0584941
0.0559006
0.0484186
0.0410251
0.0548217
0.105162
0.150884
0.175475
0.187902
0.195314
0.197917
0.196663
0.191376
0.182658
0.180311
0.201334
0.26994
0.372032
0.464504
0.50233
0.507739
0.486947
0.450982
0.405345
0.339614
0.254435
0.214728
0.0611441
0.0485726
0.0452274
0.0435297
0.0409007
0.0339876
0.0334979
0.0544133
0.104848
0.148919
0.174527
0.187243
0.194825
0.19826
0.197827
0.192789
0.182207
0.177162
0.195914
0.260799
0.348332
0.416628
0.442279
0.439654
0.407264
0.365125
0.315675
0.255043
0.195118
0.177533
0.0511431
0.0386926
0.0326203
0.0291641
0.0262231
0.0241621
0.0308367
0.057359
0.103643
0.144406
0.171998
0.185265
0.192673
0.19677
0.196649
0.190573
0.175877
0.165129
0.175752
0.228004
0.297091
0.35158
0.373175
0.369637
0.33733
0.295251
0.247029
0.192082
0.154737
0.151463
0.0413756
0.0290272
0.0217298
0.0188807
0.0186018
0.0219457
0.0339447
0.0643491
0.102454
0.138675
0.167903
0.182174
0.189034
0.19309
0.192722
0.183955
0.164357
0.146281
0.144596
0.172491
0.223354
0.26698
0.287189
0.290205
0.269742
0.2355
0.193956
0.147571
0.12417
0.131302
0.0324242
0.0206947
0.0158429
0.0157596
0.0180778
0.0250126
0.0440867
0.0715426
0.102216
0.133124
0.161917
0.178317
0.184314
0.187516
0.185813
0.174252
0.154753
0.133047
0.121321
0.125785
0.152526
0.183817
0.203019
0.210938
0.205016
0.182369
0.151007
0.116002
0.100462
0.114038
0.0260547
0.016784
0.0152061
0.0166659
0.0220313
0.0358295
0.055532
0.0781021
0.102813
0.128702
0.154501
0.172664
0.178238
0.180511
0.177112
0.164995
0.14811
0.128653
0.109684
0.0988761
0.102188
0.118039
0.134141
0.14431
0.146472
0.135667
0.115378
0.092216
0.0822943
0.100949
0.023424
0.0168673
0.0175142
0.0231609
0.0345124
0.0488839
0.0654751
0.084314
0.10453
0.125736
0.14698
0.164101
0.170895
0.172547
0.168093
0.157897
0.144395
0.128028
0.109024
0.089456
0.0764366
0.0760731
0.0840315
0.0942607
0.0987127
0.0961895
0.0851584
0.072425
0.0672792
0.0879569
0.0234489
0.0209061
0.0274646
0.0376887
0.0484529
0.0606233
0.0746145
0.0902122
0.106838
0.123931
0.140471
0.154666
0.16244
0.163954
0.160197
0.15287
0.142681
0.128947
0.111276
0.0904985
0.0705553
0.0577391
0.0553912
0.059598
0.063898
0.0643571
0.0592824
0.0540239
0.0535549
0.0737467
0.0259381
0.0331084
0.0420506
0.0514735
0.0611897
0.0717417
0.0834208
0.0960113
0.109431
0.12307
0.135496
0.14628
0.153282
0.15553
0.153829
0.14936
0.142035
0.131055
0.1158
0.0957839
0.0736503
0.0564877
0.0461395
0.0420586
0.0414355
0.0408585
0.0388404
0.0376541
0.04157
0.0621747
0.0338653
0.042856
0.0533634
0.0634818
0.0730511
0.0826326
0.0922401
0.10209
0.112624
0.123196
0.132009
0.139467
0.145288
0.148527
0.148885
0.146665
0.141532
0.132879
0.120167
0.103274
0.0832253
0.0623799
0.0474845
0.03881
0.0331682
0.0296561
0.0277699
0.027151
0.032418
0.0532813
0.0382339
0.0482765
0.060726
0.0727843
0.0840972
0.0933153
0.100809
0.108512
0.116642
0.124193
0.130161
0.135158
0.140016
0.143667
0.145165
0.144378
0.140903
0.134254
0.124062
0.110491
0.0943734
0.0764194
0.0570308
0.0421131
0.0335224
0.02831
0.0252836
0.0240573
0.0274332
0.0438039
0.0379296
0.0479801
0.0640516
0.0784502
0.0929514
0.102755
0.108535
0.115221
0.121713
0.12644
0.130217
0.13373
0.137516
0.140737
0.142561
0.142615
0.140437
0.135514
0.127667
0.117117
0.104453
0.0901314
0.0741307
0.0561678
0.0404576
0.0311975
0.026399
0.024331
0.0256909
0.0370965
0.035567
0.0441752
0.0626389
0.0792065
0.0958154
0.108392
0.115596
0.122709
0.12836
0.13041
0.131756
0.134137
0.136933
0.139449
0.141212
0.141753
0.140537
0.137045
0.131209
0.123171
0.113384
0.102275
0.089837
0.0757433
0.0600476
0.0445132
0.0337416
0.0280861
0.0264512
0.0353254
0.0312791
0.0411917
0.0599649
0.0772212
0.0941573
0.108537
0.119296
0.129512
0.135655
0.135565
0.135003
0.135765
0.137493
0.139515
0.141168
0.14193
0.141336
0.139106
0.134888
0.128822
0.121367
0.112998
0.103721
0.0930208
0.0805212
0.0670072
0.0539241
0.0423377
0.0332236
0.0356856
0.0306123
0.0421088
0.0603254
0.0764507
0.091575
0.106248
0.119127
0.130914
0.138692
0.139781
0.13806
0.138181
0.139134
0.140592
0.1421
0.143123
0.143239
0.141945
0.138934
0.134346
0.128714
0.122624
0.116075
0.108306
0.0986528
0.0878003
0.0765398
0.0659904
0.0552589
0.0398452
0.0317392
0.0454157
0.0621131
0.0773457
0.0914937
0.104891
0.11794
0.129832
0.137526
0.140663
0.141514
0.140955
0.141524
0.142908
0.144445
0.145768
0.146362
0.145723
0.143592
0.140091
0.135833
0.131606
0.127426
0.122108
0.114648
0.105964
0.0971471
0.0888164
0.079945
0.0537667
0.0346168
0.0489347
0.065452
0.079638
0.0925818
0.105005
0.117112
0.128542
0.137032
0.14133
0.143775
0.144769
0.145168
0.145967
0.147617
0.149389
0.150533
0.150503
0.149129
0.146548
0.143301
0.140445
0.138407
0.135347
0.130101
0.123467
0.117618
0.111974
0.099148
0.079163
0.0358687
0.0525611
0.0697152
0.0823748
0.0941164
0.105447
0.116422
0.126962
0.136329
0.142617
0.146245
0.147884
0.148884
0.150271
0.152202
0.154074
0.155554
0.155989
0.155154
0.153288
0.151151
0.150384
0.150685
0.150797
0.149684
0.15103
0.152864
0.140064
0.104926
0.0816533
0.0368364
0.0546835
0.0712265
0.0838053
0.0955168
0.106345
0.116061
0.125132
0.134364
0.142249
0.147718
0.150429
0.151432
0.152691
0.154865
0.15778
0.160672
0.162439
0.162941
0.162638
0.162511
0.163835
0.16726
0.173098
0.180963
0.183812
0.174758
0.142912
0.0986414
0.0773034
0.0371151
0.0545566
0.0706721
0.0838957
0.0967112
0.107199
0.115689
0.123443
0.131747
0.140221
0.146479
0.14966
0.151136
0.152527
0.154641
0.157583
0.161186
0.164927
0.167576
0.169266
0.1717
0.176599
0.187175
0.20222
0.2053
0.193964
0.171692
0.134507
0.0869699
0.0661361
0.0364573
0.0527618
0.0687957
0.0834383
0.0969514
0.106991
0.114756
0.122016
0.129882
0.137442
0.142402
0.145106
0.147181
0.1495
0.15224
0.155421
0.159284
0.163585
0.167366
0.171096
0.175966
0.183666
0.199165
0.210011
0.202828
0.185089
0.155936
0.117869
0.0722151
0.0543751
0.0335337
0.0487204
0.0678379
0.0835399
0.0966445
0.105915
0.11354
0.121067
0.127853
0.133105
0.136743
0.139571
0.14228
0.14521
0.148335
0.151536
0.15555
0.160478
0.165711
0.170946
0.176808
0.184887
0.196834
0.201185
0.191158
0.17008
0.142551
0.106182
0.0612905
0.0445789
0.0314498
0.0484198
0.0688598
0.0844029
0.0962555
0.10527
0.113046
0.119293
0.124061
0.128303
0.132303
0.135857
0.139153
0.142365
0.145395
0.148031
0.151257
0.156181
0.162212
0.168587
0.174696
0.182082
0.188147
0.184905
0.173758
0.156084
0.134341
0.102119
0.0594132
0.0384304
0.0315476
0.0507205
0.0716513
0.0857723
0.0969564
0.105653
0.111841
0.116243
0.120451
0.125104
0.129624
0.133575
0.137073
0.140282
0.143135
0.145367
0.147612
0.151562
0.157249
0.163255
0.168755
0.173955
0.175686
0.17139
0.161561
0.147232
0.129746
0.102489
0.0618791
0.0357446
0.0333355
0.0573862
0.0751886
0.0882149
0.0984221
0.105097
0.109536
0.113723
0.118466
0.123486
0.128092
0.131981
0.135285
0.13818
0.140687
0.142701
0.144481
0.147258
0.151621
0.156401
0.160476
0.163746
0.164738
0.161883
0.154079
0.141981
0.126723
0.103732
0.0682386
0.0359313
0.039246
0.0641666