/*--------------------------------*- C++ -*----------------------------------*\
| =========                 |                                                 |
| \\      /  F ield         | OpenFOAM: The Open Source CFD Toolbox           |
|  \\    /   O peration     | Version:  2.4.0                                 |
|   \\  /    A nd           | Web:      www.OpenFOAM.org                      |
|    \\/     M anipulation  |                                                 |
\*---------------------------------------------------------------------------*/
FoamFile
{
    version     2.0;
    format      ascii;
    class       volScalarField;
    location    "1.5";
    object      alpha.water;
}
// * * * * * * * * * * * * * * * * * * * * * * * * * * * * * * * * * * * * * //

dimensions      [0 0 0 0 0 0 0];

internalField   nonuniform List<scalar> 
3072
(
0.000400246
0.000330013
0.000318467
0.00053507
0.000389312
0.000238798
0.00149462
0.000502339
0.000292141
0.000484174
5.51191e-09
2.06106e-12
0.000402446
0.00213586
0.00177689
0.00295765
0.00268277
1.34577e-12
0.00010599
8.69503e-05
0.000243359
0.000351866
2.16093e-12
2.16998e-12
0.00140361
0.00295771
0.00295752
0.00295785
0.00216406
1.19244e-12
1.18985e-12
1.19101e-12
9.02863e-06
1.54615e-05
2.33148e-12
0.00645655
0.00295763
0.00295746
0.00295769
0.00271929
0.000138152
0.00310257
0.123028
0.160502
1.27717e-12
1.34037e-12
4.35997e-05
0.0120574
0.0011113
0.00295763
0.00288683
0.000299416
0.000114524
0.114098
0.507712
0.42798
1.29014e-12
2.82116e-12
0.00414205
0.107183
0.000512667
0.00295743
0.00133649
1.36064e-12
0.00481367
0.282122
0.511713
0.284717
2.9068e-12
2.76769e-12
0.085722
0.415707
0.000241515
0.0023396
0.00166116
1.31736e-12
0.0300352
0.434952
0.507712
0.129532
2.78371e-12
2.99356e-12
0.13603
0.383872
0.000727122
0.000485165
0.000987546
1.26982e-12
0.0155137
0.380964
0.511713
0.00762536
2.9133e-12
0.00473124
0.0215657
0.0437163
0.000622056
8.74327e-06
1.459e-05
1.24178e-12
1.29032e-12
0.0939606
0.326566
0.0898819
0.0768612
0.0239002
0.00034087
0.00034087
3.25474e-05
2.58077e-05
1.43303e-07
0.000207644
1.25637e-12
0.0112804
0.0120692
0.0663885
0.143328
0.141289
0.013715
0.00034087
3.59549e-07
2.02601e-05
7.88581e-08
0.000901676
0.203163
0.43858
0.000115766
0.0174848
0.141908
0.124422
0.0707871
0.000357297
3.76914e-07
3.76009e-07
9.2212e-07
9.0785e-13
0.398016
0.705835
0.000165932
0.001669
0.017429
0.0105681
4.10316e-10
0.189403
2.22622e-12
1.73574e-05
3.83696e-05
1.77799e-05
9.90068e-06
3.12406e-05
0.000302427
0.000343621
0.000315173
0.000169009
0.000300255
0.000353997
0.000130704
0.000463661
0.0001191
9.90068e-06
5.39548e-05
0.000331535
0.000309081
4.59973e-05
2.2399e-12
2.24371e-12
1.3278e-05
0.000344109
0.0207555
0.00529484
9.90068e-06
9.90065e-06
0.000228113
0.000704871
0.000708849
0.000593718
3.31206e-05
2.44111e-06
2.26189e-12
2.17516e-12
0.0289297
0.0171885
9.89837e-06
9.90068e-06
9.90068e-06
0.000148172
0.000521291
0.000780677
0.000797632
0.000457387
2.1315e-05
8.90237e-08
0.180065
0.0835241
9.95361e-06
9.89837e-06
9.95362e-06
9.90068e-06
9.95362e-06
0.000268333
0.00081158
0.000872645
0.000619286
3.37933e-05
0.45095
0.398586
0.260168
0.161002
0.0599569
0.0231231
0.00945886
7.80314e-13
7.87521e-13
0.000643322
0.000841398
0.000185979
0.459784
0.502153
0.501509
0.50217
0.350675
0.229668
0.0384766
8.6452e-13
1.71778e-07
8.89429e-13
0.000550546
0.000271262
0.103822
0.443926
0.502002
0.500774
0.281283
0.2454
0.0522411
9.36521e-13
2.22354e-06
4.42071e-09
1.00005e-12
0.00019137
0.0365547
0.493498
0.501296
0.1788
3.94606e-14
1.65033e-14
0.00410003
0.00184524
2.37842e-06
1.29809e-05
1.05535e-05
8.49794e-05
0.19473
0.501294
0.501296
0.0829224
8.68472e-14
2.07275e-14
1.86085e-14
1.23502e-06
6.43067e-05
4.37409e-05
3.74244e-05
0.000154246
0.479134
0.501296
0.237971
0.0253401
7.10855e-14
1.35908e-14
7.39089e-07
8.28823e-07
1.56121e-06
2.18229e-06
4.62341e-05
0.000163791
0.508368
0.388982
0.00776496
1.06675e-13
8.80045e-14
1.15008e-14
2.71255e-07
1.62216e-05
8.38702e-06
3.16767e-06
4.75216e-05
0.000163791
7.41547e-09
7.73976e-09
5.3765e-08
7.56659e-08
4.79873e-08
2.85091e-09
2.00516e-09
3.37306e-08
4.03486e-08
2.65602e-12
5.71145e-10
7.32112e-10
1.48051e-09
1.03505e-07
4.74474e-07
2.7706e-07
4.66718e-08
4.03035e-08
1.6299e-08
8.85037e-09
1.13941e-08
2.70769e-12
9.54679e-10
1.52586e-09
6.61766e-08
4.69539e-07
4.74481e-07
2.05211e-07
1.81657e-08
2.99646e-08
7.24732e-10
3.02971e-12
3.01311e-12
2.83038e-12
4.28772e-09
1.71718e-08
1.6122e-07
4.74472e-07
4.42903e-07
1.1338e-08
2.90537e-12
2.23643e-08
3.84745e-08
3.4553e-08
8.69507e-10
4.32616e-10
1.7437e-08
4.96554e-08
1.48413e-07
4.74473e-07
4.72258e-07
1.70775e-08
2.81759e-12
4.5932e-09
2.43031e-08
3.38093e-08
5.71655e-08
6.4664e-08
6.18745e-08
1.31398e-08
2.22587e-07
4.74472e-07
4.38829e-07
1.79546e-12
2.64804e-12
2.80325e-11
5.22901e-10
5.73431e-10
4.67305e-07
1.1333e-08
2.83266e-10
2.81899e-09
2.04411e-07
4.74473e-07
1.92266e-07
1.77276e-12
1.28957e-10
2.90997e-12
2.99268e-12
6.80282e-06
8.43433e-11
2.75051e-11
2.75583e-11
2.74791e-11
1.22246e-07
2.99497e-07
1.86223e-12
1.77482e-12
1.84674e-12
1.19481e-05
6.23285e-05
1.2767e-05
7.76752e-11
8.84588e-06
2.34546e-05
1.37285e-05
1.91726e-09
5.70248e-09
2.53504e-12
1.83859e-12
5.48016e-06
6.15169e-05
7.36079e-05
3.95206e-05
1.74701e-08
5.31957e-05
6.1181e-05
6.14514e-05
1.76147e-12
1.80758e-12
3.73871e-12
1.89552e-12
8.2677e-06
7.36079e-05
7.30466e-05
4.10219e-05
8.38539e-06
6.1181e-05
6.14514e-05
1.49798e-05
1.58665e-08
7.86095e-10
1.91007e-12
1.9007e-12
1.86889e-06
4.12299e-05
5.72756e-05
1.32255e-05
8.88537e-06
6.00807e-05
3.97732e-05
1.19214e-12
4.42124e-08
2.41405e-09
1.95877e-12
1.36482e-11
6.82845e-09
7.73532e-08
2.80668e-06
6.67182e-10
8.20443e-06
4.69981e-05
5.32431e-06
1.16767e-12
6.9e-10
6.44674e-10
5.33981e-10
4.09586e-10
2.89444e-10
2.20298e-10
1.2456e-10
5.30746e-11
2.2536e-11
2.0981e-11
5.25815e-07
1.23799e-06
1.44352e-09
1.61683e-09
1.47523e-09
1.078e-09
9.1032e-10
7.86356e-10
6.56062e-10
3.98808e-10
1.42201e-10
2.09747e-11
3.05922e-08
4.20757e-07
1.8407e-08
6.75202e-09
4.07067e-11
3.31196e-10
7.90824e-10
8.37401e-10
8.31583e-10
7.85717e-10
4.97359e-10
2.72229e-10
3.46495e-12
3.45741e-12
4.88088e-08
3.17135e-08
4.21907e-11
4.07943e-11
1.21795e-10
4.24067e-10
6.13787e-10
7.6838e-10
8.60699e-10
9.36824e-10
6.49636e-10
7.41842e-10
2.53683e-08
2.47287e-08
4.07006e-11
4.23196e-11
2.50807e-10
2.8323e-10
5.30935e-10
1.10922e-09
2.07983e-09
1.97782e-09
7.86664e-10
5.84422e-10
3.83959e-09
2.74553e-11
2.20245e-09
6.34258e-09
4.47577e-10
3.07661e-10
2.68664e-10
7.65227e-10
2.90122e-09
3.63608e-09
2.13944e-09
6.20057e-10
2.74958e-11
2.74486e-11
2.7511e-11
3.27592e-08
3.03151e-10
9.53157e-10
1.92892e-10
1.77027e-10
1.19552e-09
3.48084e-09
3.68951e-09
1.56743e-09
8.97278e-07
1.57408e-05
7.31882e-06
7.92893e-09
8.35494e-13
1.69101e-09
5.24415e-08
4.9319e-11
4.95186e-11
2.04371e-09
3.69977e-09
2.5597e-09
2.49138e-05
4.35109e-05
2.59298e-05
1.94205e-07
8.37695e-13
7.64348e-13
9.8617e-07
2.51553e-06
1.01702e-06
2.13932e-09
3.0429e-09
2.76636e-09
3.49721e-05
3.28699e-05
1.38389e-05
2.65831e-07
2.13319e-08
7.66734e-13
7.72668e-07
6.77542e-06
6.7436e-06
1.50299e-06
2.06779e-09
2.00998e-09
1.1906e-12
1.20787e-12
1.1906e-12
1.46997e-07
1.24751e-07
2.7502e-09
4.5097e-10
3.33383e-06
6.8059e-06
6.6597e-06
6.63617e-07
6.24233e-13
1.78515e-10
3.1074e-10
2.39398e-10
1.94181e-10
1.68852e-10
6.29055e-09
3.31523e-09
2.00066e-10
4.22954e-06
7.26024e-06
3.57572e-06
1.90419e-10
0.000271564
0.000981739
0.000261008
2.17481e-05
1.03722e-12
9.01286e-13
8.38405e-13
7.77543e-13
0.0292209
0.716967
0.930193
0.930193
0.102572
0.0242866
1.23555e-12
1.06331e-06
1.30337e-07
8.92728e-13
7.77543e-13
7.77543e-13
9.24782e-13
0.626082
0.930193
0.930193
0.181513
0.0394591
1.11748e-12
1.17912e-12
3.22943e-09
1.03402e-12
0.185423
0.525651
0.335139
0.0990807
0.708337
0.923584
0.181513
0.000412962
0.0106828
1.01144e-12
1.16505e-12
0.306548
0.774421
0.796886
0.58227
1.31423e-05
0.387988
0.918326
0.161538
0.000865472
0.217733
0.314037
2.09509e-10
0.492702
0.796886
0.796902
0.385798
1.18119e-05
0.0508593
0.153876
0.0463966
0.0317369
0.405537
0.526362
0.34589
0.284942
0.479554
0.406313
0.0514177
1.31424e-05
6.85429e-13
5.94869e-13
0.0206216
0.0849773
0.526362
0.526452
0.526362
0.411929
0.0478164
1.65157e-12
1.61397e-12
1.35761e-05
8.48726e-06
3.26711e-06
0.0707709
0.0557889
0.519105
0.52643
0.526733
0.526876
0.266398
1.41926e-12
4.02527e-06
7.03817e-05
3.45922e-06
3.44484e-06
0.245104
0.00323695
0.198553
0.418575
0.34685
0.30643
0.185245
1.6067e-12
3.42142e-14
6.90305e-05
3.56264e-06
3.80862e-06
0.345173
1.43573e-13
1.23739e-13
0.0218557
0.00519058
0.00235162
0.00300439
0.000539627
1.15744e-13
9.32694e-08
7.9678e-06
1.20628e-05
0.455927
0.00570248
3.84857e-14
9.96248e-14
0.000339331
0.000556655
1.1478e-13
1.32292e-13
7.90227e-14
3.50008e-08
2.35652e-05
5.183e-05
0.693785
4.29745e-14
3.92776e-14
1.20947e-13
0.000539779
0.00165748
3.66968e-08
3.82744e-08
1.87992e-13
4.35027e-06
8.0735e-06
1.94853e-13
0.919054
0.9183
0.918305
0.868165
0.575857
0.562962
0.564732
0.706011
0.914932
0.835837
0.453058
0.0463184
0.923571
0.918656
0.530575
0.0908485
0.364946
0.914512
0.91492
0.917898
0.912142
0.795179
0.724734
0.830406
0.91837
0.58758
3.14817e-13
4.22049e-13
0.0861778
0.732419
0.917898
0.931343
0.837345
0.811704
0.879571
0.89558
0.699355
0.0105933
2.93551e-13
3.47311e-13
4.39608e-13
0.19454
0.787177
0.948936
0.941858
0.932085
0.941897
0.70231
0.0371222
3.49046e-13
3.80423e-13
4.4624e-13
5.04785e-13
0.0204532
0.617858
0.991046
0.994664
0.980101
0.951181
0.867563
5.18321e-13
4.45502e-13
9.30774e-07
8.65629e-07
1.73165e-06
1.00102e-12
0.28753
0.946426
0.998657
0.99023
0.917802
0.951544
4.89851e-06
6.89788e-06
2.27761e-05
8.3539e-06
8.27182e-06
9.27678e-13
0.12806
0.840656
0.999999
0.999993
0.914003
0.951544
9.9735e-06
4.16794e-05
3.60252e-05
3.04055e-05
8.28846e-06
0.0144098
0.551642
0.918742
0.999999
0.999999
0.945775
0.879333
6.62394e-05
7.10928e-05
1.9309e-05
1.55374e-05
0.00268039
0.503587
0.985089
0.999999
0.999999
0.999999
0.98891
0.740352
3.97142e-05
7.0843e-05
1.55374e-05
1.53186e-05
0.493051
0.980446
0.999999
0.999999
0.999999
0.999999
0.999999
0.777006
5.17986e-05
5.27237e-05
0.161131
0.530276
0.973881
0.999999
0.999999
0.934011
0.828042
0.665253
0.827491
0.810421
1.9474e-13
0.0758506
0.761193
0.999999
0.999999
0.996504
0.646403
0.289958
0.129483
0.0486397
0.152747
0.744659
0.807737
0.807737
0.807738
0.807738
0.801542
0.388116
0.485796
0.867141
0.907933
0.363815
0.249019
0.249019
0.807737
0.707251
0.423893
0.102104
0.124661
0.727411
0.745556
0.685913
0.420844
0.397249
0.602034
0.991046
0.73273
0.276945
0.0566551
0.0566605
0.121318
0.619462
0.658378
0.366589
0.368364
0.805308
1
1
0.750477
0.142305
0.0566605
0.0566616
0.0566896
0.185963
0.487912
0.558737
0.796494
1
0.999992
0.999827
0.830377
0.362513
0.0566568
0.0900214
0.276206
0.481704
0.82707
0.978988
0.991003
1
0.999997
0.99999
0.627087
0.171043
0.165436
0.776774
0.952604
0.974142
0.999973
1
1
0.999998
0.999998
0.999998
0.504305
0.185625
0.64198
1
1
1
1
1
0.999999
0.999999
1
1
0.732633
0.545157
0.993963
1
0.999993
0.999994
1
1
1
1
1
1
0.997006
0.986071
1
0.999996
0.99999
0.999995
0.999992
0.99998
0.999984
1
1
1
1
1
1
0.999998
0.999997
1
0.999999
1
1
1
1
1
1
1
1
1
1
1
1
0.955814
1
1
1
0.999999
0.999931
0.999972
0.999765
1
1
0.95193
0.642408
0.527653
0.968326
1
1
0.999999
0.579902
1
0.999999
0.999999
0.999997
0.999999
1
1
0.996328
0.919446
0.873137
0.960429
0.960919
0.975343
1
0.999999
0.999993
0.999993
1
1
1
0.988743
0.871444
0.823597
1
1
0.999999
0.999991
1
1
1
1
1
1
0.957803
0.878377
0.999809
0.9999
1
0.999903
0.999651
0.999344
1
1
1
0.99931
0.988633
0.994615
0.999991
0.999999
0.999999
0.999999
0.999318
0.981044
0.964987
0.999203
1
1
0.99931
1
0.999996
0.999996
0.999999
0.999999
0.999999
0.982486
0.902892
0.729013
0.599872
0.683233
0.988704
1
1
1
0.999997
0.99999
0.999999
1
0.970894
0.502488
0.0809947
0.0680476
0.466505
0.988768
1
1
0.999999
0.999977
0.999977
1
1
0.886648
0.241407
0.0266266
0.00465852
0.732665
1
1
1
1
0.999999
0.999998
1
1
0.955914
0.329385
0.0102621
0.417646
0.999999
1
1
1
1
1
1
1
1
0.799421
0.0691613
0.205642
0.999999
1
1
1
0.888439
0.924936
0.987678
0.989165
0.861041
0.572764
0.0278658
0.373704
0.999999
0.986498
0.913298
0.80641
0.338448
0.272324
0.410593
0.652964
0.409617
0.0434101
1.17029e-12
0.329835
0.140555
0.108368
9.8535e-13
9.06401e-13
0.228044
0.705425
0.352588
4.1032e-10
8.12321e-13
4.10311e-10
8.26027e-13
0.395354
0.0627584
0.1441
0.0429981
9.55227e-13
0.000524695
0.687001
0.681135
0.495207
0.300249
0.0455223
0.243627
0.504981
0.0558828
0.141736
0.201977
0.00990332
1.04468e-12
0.300105
0.673886
0.664935
0.532344
0.486896
0.531252
0.504544
0.101454
0.0990722
0.203297
0.126633
0.00151338
9.45271e-05
0.249621
0.430241
0.168374
0.360031
0.45346
0.10683
0.505251
0.0947649
5.71606e-13
7.82439e-09
8.7458e-08
4.0562e-09
3.76804e-14
2.43006e-05
2.90573e-05
2.83403e-05
8.05321e-05
4.95188e-05
0.336248
0.0242488
5.10162e-13
3.59101e-08
1.57383e-07
1.23372e-07
1.00925e-08
1.53998e-05
3.73072e-05
2.89997e-05
2.33926e-05
7.78292e-05
0.0806852
3.63953e-09
5.52913e-09
2.21889e-08
1.15665e-07
1.13816e-07
1.31552e-08
1.00925e-08
2.32149e-05
1.98429e-05
1.60027e-07
0.000182751
9.93816e-08
8.57249e-08
3.86497e-08
1.61025e-12
4.12174e-13
9.5821e-05
4.36424e-13
4.32265e-05
3.6061e-06
2.55634e-06
5.75197e-08
0.000186538
2.92952e-09
2.82666e-09
2.68572e-10
2.68545e-11
1.04177e-12
3.79845e-08
6.67127e-10
7.43621e-10
2.05197e-05
5.76663e-05
1.01525e-05
1.25417e-12
8.05668e-06
2.03894e-10
1.89594e-10
1.35521e-10
9.96143e-13
3.91085e-07
2.33714e-05
1.73252e-05
4.64485e-05
5.19377e-05
1.28287e-05
1.12468e-12
0.000187496
3.34186e-06
1.50293e-10
1.46735e-10
9.96101e-13
5.38465e-06
2.99673e-05
2.14332e-05
9.53719e-06
1.16363e-12
1.04811e-12
1.08795e-12
0.000207117
0.000171733
1.0928e-05
1.03874e-12
9.96096e-13
4.68827e-06
3.01558e-05
1.06213e-05
4.23029e-12
3.7718e-10
5.60506e-09
1.11906e-12
6.22641e-10
1.13293e-09
7.48613e-10
2.27653e-10
1.65512e-09
8.83441e-09
5.85575e-09
8.27872e-11
1.94303e-07
7.24982e-06
4.52817e-06
4.92562e-13
7.74384e-10
1.24397e-09
8.32274e-10
2.40672e-10
7.30732e-09
1.034e-08
8.97789e-09
1.5197e-09
8.3821e-13
3.54336e-06
3.6413e-06
4.92589e-13
4.64427e-10
9.73354e-10
4.95563e-10
2.59911e-10
7.03921e-09
9.39205e-09
5.67865e-09
8.99781e-13
8.39087e-13
2.03405e-07
7.97913e-07
1.65469e-07
6.90487e-11
1.47087e-10
1.27155e-10
6.64304e-10
2.21719e-09
2.15657e-12
4.01192e-08
2.91148e-07
2.59677e-07
2.34707e-07
8.59004e-13
8.00477e-13
0.477194
0.256165
4.45873e-14
7.72046e-14
0.000112688
0.00128517
2.72618e-08
2.90499e-07
1.313e-07
1.93688e-13
1.94853e-13
1.96633e-13
0.0376058
0.468846
0.602886
0.00915464
1.30598e-13
1.40942e-13
3.26659e-08
3.07789e-07
1.84656e-07
2.99414e-09
2.49074e-13
2.26634e-13
8.02353e-13
0.410547
0.855397
0.627993
0.448254
0.0155768
2.02381e-13
1.63676e-07
2.61486e-06
2.48389e-13
2.50061e-13
0.0395593
7.83981e-13
0.106857
0.79503
0.970853
0.976069
0.115144
1.34995e-13
0.000304645
1.57667e-05
2.9964e-13
2.95465e-13
0.406333
2.48274e-13
0.602924
0.999999
0.999999
0.945846
0.494783
0.0246678
1.79719e-13
1.57655e-13
1.56852e-13
1.00768e-13
0.529777
0.224084
0.917814
0.999999
0.974702
0.373502
2.88572e-13
2.27808e-13
2.30953e-13
2.05196e-13
1.91496e-13
7.349e-14
0.245102
0.73998
0.999999
0.999999
0.567881
0.0107143
3.64004e-13
4.55609e-08
2.80069e-13
7.60541e-07
7.6746e-14
7.34972e-14
0.015577
0.978473
0.999999
0.932599
0.141137
6.26256e-08
1.67818e-06
2.06454e-06
2.6519e-05
6.94688e-05
5.88875e-05
6.50585e-06
5.35723e-13
0.99588
0.999965
0.999045
1
1
0.724542
0.00708288
0.134294
0.690681
1
1
1
0.937787
0.999953
0.999299
0.998442
0.994281
0.479259
0.000604284
0.000604284
0.463458
0.999407
1
1
0.776935
0.999943
0.999936
0.997957
1
0.259303
0.000604284
0.000604284
0.686681
1
0.990103
0.731011
0.213042
0.690365
0.936886
0.999988
1
0.399302
0.000604284
0.270234
0.874752
1
0.815064
0.258235
0.989079
0.46985
0.231109
0.242868
0.163889
0.0605568
0.0596389
0.167381
0.366981
0.116228
1.1908e-12
0.103341
0.494928
0.0408723
0.0412486
0.126109
0.512171
0.257609
0.0605568
0.14089
0.822654
0.810827
0.173708
0.060828
0.0537444
0.0405489
0.138348
0.526856
0.529633
0.282352
0.0596389
0.211112
0.883844
0.934814
0.858742
0.146022
2.83886e-12
0.0403276
0.514102
0.529633
0.295009
0.0144014
0.131208
0.407585
0.758714
0.934765
0.934814
0.582209
0.247552
0.0345658
0.133097
0.0262894
1.69337e-05
8.43186e-05
7.79452e-13
0.00853094
0.0271456
0.186382
0.00141555
0.00436138
0.239813
0.00761336
1.23427e-05
7.03281e-06
2.06645e-05
0.000203267
7.20476e-13
0.00500516
0.155506
0.224776
0.0968824
0.411842
0.0774985
0.0140106
0.113094
0.163846
1.0579e-05
0.000111594
6.55295e-13
0.0403636
0.372501
0.286283
0.523251
0.605229
0.00284932
0.116954
0.3484
0.3484
0.117219
5.69492e-13
6.07943e-13
0.0762615
0.372022
0.349819
0.605229
0.60478
0.000839522
1.01176e-12
1.01084e-12
4.16799e-13
0.00261972
0.0312293
0.0108785
0.00360174
0.00429417
1.29461e-05
5.05628e-06
0.000161931
0.000981286
1.0104e-12
1.70016e-06
0.00584566
0.0407309
0.0510125
0.0491543
0.00416997
0.000194468
6.39067e-07
8.40551e-07
5.0901e-05
0.00224278
9.68534e-13
7.04955e-05
0.0291168
0.0510105
0.051003
0.0510107
0.00160088
2.56027e-08
6.79347e-07
5.80436e-07
6.38232e-11
9.65919e-13
9.59606e-13
0.000230657
0.033088
0.0510095
0.0510151
0.0301828
6.85227e-13
3.17244e-08
3.57848e-07
1.87233e-07
5.84049e-11
0.000206967
0.000102379
1.09763e-12
1.03857e-12
1.04772e-12
5.46309e-06
1.79227e-05
8.39673e-08
1.10737e-12
9.29989e-09
3.18942e-08
1.01037e-07
0.000161864
9.04064e-07
4.28646e-08
1.21317e-07
8.60171e-08
6.07625e-07
3.23956e-07
1.58365e-06
5.62326e-11
2.5087e-09
2.30864e-08
4.76012e-07
7.30539e-07
6.37777e-11
2.52175e-08
1.53837e-07
3.82553e-08
7.69946e-13
3.43517e-07
4.79007e-06
5.37573e-11
1.07371e-12
1.10651e-12
5.17893e-07
4.76079e-05
6.2027e-05
6.27423e-09
5.05491e-08
7.56035e-13
7.31241e-13
7.33655e-13
1.49371e-06
1.12425e-12
1.10702e-12
1.47611e-10
1.64193e-12
2.90966e-11
2.65114e-11
5.41171e-11
8.98175e-10
3.02457e-10
2.10848e-12
2.25125e-07
1.30144e-06
1.16356e-06
1.3935e-07
8.29579e-07
8.21214e-13
1.25652e-06
1.8807e-11
1.85386e-11
2.35569e-11
6.43248e-12
2.18641e-12
1.85753e-07
1.29468e-06
1.26666e-06
1.00941e-12
7.09856e-06
0.00013861
9.391e-06
1.85541e-11
4.13315e-06
2.16154e-11
6.54549e-11
4.65824e-11
1.49043e-12
5.14216e-07
1.26264e-06
9.55889e-13
9.54048e-13
0.000341605
9.83452e-06
0.000178419
0.000268651
4.53373e-11
4.52317e-11
1.3289e-11
1.07711e-11
6.03645e-07
1.27614e-06
3.45389e-07
9.12884e-13
9.53604e-13
8.2338e-13
0.00387735
0.514253
0.976069
0.753009
0.019642
2.02397e-13
2.86284e-06
3.78937e-13
3.81046e-13
0.0579492
0.649005
8.0001e-13
8.282e-13
0.0569295
0.597253
0.0911199
0.000469361
0.000437079
7.71144e-13
1.85205e-11
1.68728e-12
9.12257e-13
0.224447
0.0064225
8.0001e-13
8.7759e-13
0.0107006
9.61136e-13
9.76834e-13
0.000286871
7.51543e-13
1.05501e-12
5.08354e-12
8.66321e-13
0.133495
0.0765655
0.439687
0.277008
9.21643e-13
9.2652e-13
9.21626e-13
3.1134e-07
1.94534e-07
9.55861e-13
5.65068e-12
8.2509e-13
0.075844
1
0.999326
0.764209
6.26256e-08
5.43614e-08
4.20673e-06
8.91863e-06
0.000111509
0.000111509
4.02818e-05
5.50007e-07
5.0716e-13
1
1
0.90571
0.108445
2.18756e-11
2.18799e-11
6.14064e-07
2.11896e-05
9.13858e-05
2.94197e-06
5.20957e-13
5.08173e-13
1
1
0.940256
0.288717
2.18704e-11
1.59948e-07
9.8144e-07
9.68106e-07
1.19485e-05
4.70444e-13
4.90287e-13
5.27482e-13
1
1
0.976981
0.436283
2.19016e-11
2.6043e-07
1.24742e-06
1.20711e-06
4.64429e-13
4.32109e-13
4.68558e-13
0.0748352
5.6194e-13
0.417815
0.994956
1
0.964552
0.39628
0.295549
1
1
0.997292
0.669495
0.213103
0.000146669
0.573319
1
1
0.954627
0.545198
0.562507
1
1
1
1
0.698769
0.112585
0.961026
1
1
0.980703
0.750173
0.591171
0.806741
0.986176
1
1
0.848225
0.735356
1
1
1
0.991032
0.667243
0.573669
0.423397
0.813528
1
1
0.960413
2.80575e-12
0.200938
0.543491
0.449217
0.0142223
0.0157721
0.69205
0.79007
0.157502
0.704718
0.934765
0.871264
2.81091e-12
0.0607247
0.544388
0.492769
0.0283556
0.0760272
0.73781
0.761458
0.0806413
0.128123
0.825647
0.873042
2.80921e-12
0.0263058
0.251283
0.441712
0.0644312
0.099512
0.774222
0.771655
0.100231
0.000364264
0.212681
0.471508
0.164069
2.32016e-12
2.33079e-12
0.108132
0.0675199
0.146368
0.770825
0.653404
1.10053e-12
1.10045e-12
1.15933e-12
0.00546235
0.0322274
0.348398
0.3484
0.348398
0.201825
5.66254e-13
0.0160147
0.285494
0.422847
0.457214
0.257327
0.606442
0.020425
0.187108
0.348398
0.314886
0.0457386
6.16182e-13
0.032258
0.338541
0.342552
0.246325
0.101276
0.606442
0.00222831
0.00251194
0.0589541
0.0452432
6.9977e-13
6.45694e-13
0.156374
0.295196
0.109283
0.0326786
0.100059
0.606442
5.07089e-13
5.1568e-13
5.20257e-13
5.52251e-13
0.000859746
0.0348323
0.192419
0.119272
0.0326786
0.0326786
0.106093
0.53748
0.000311929
4.85908e-13
2.21983e-09
5.75123e-13
0.0108703
0.181327
0.192768
0.310678
0.0326786
0.0326786
0.040266
0.354743
4.74438e-05
9.16542e-05
5.27786e-13
5.25279e-13
0.00616695
0.0790991
0.140776
0.745663
0.074041
0.0326786
0.0399645
0.548343
1.07889e-05
0.000135153
1.38903e-07
5.67857e-06
0.000247335
0.000211746
0.338088
0.775447
0.483536
0.0632938
0.0407551
0.443215
1.07783e-05
4.17836e-05
9.92136e-08
3.84726e-06
2.61305e-08
2.40483e-13
0.723715
0.775447
0.730062
0.290168
0.0757561
0.0786638
1.07889e-05
1.07783e-05
0.00170549
4.46237e-10
2.72102e-13
2.40412e-13
0.457472
0.775447
0.67618
0.483335
0.157314
0.0803526
0.0770055
0.0222828
0.00766022
2.40412e-13
2.40412e-13
2.40412e-13
0.0298977
0.273347
0.357601
0.230083
0.0877529
0.0803526
0.116479
0.116448
0.0152763
0.00232536
0.00140421
2.41975e-13
2.50082e-13
0.0873227
0.200626
0.051035
0.068906
0.143946
0.038058
0.0399222
0.00782203
0.0409463
0.0350409
0.0752185
0.107271
0.0896656
0.0415014
0.0199887
0.166598
0.407144
9.94931e-09
9.26932e-13
9.17299e-13
0.00735524
0.0510151
0.051003
0.00251484
6.85306e-13
6.86198e-13
7.45967e-13
1.38896e-05
0.000108927
4.12551e-13
2.9927e-11
8.78178e-13
0.00181138
0.0334721
0.0325178
7.39879e-13
7.14484e-06
4.25037e-06
7.50115e-13
2.00872e-05
0.000272061
2.2938e-12
3.06276e-11
8.41963e-13
0.000497427
0.00725649
0.012737
7.60261e-13
9.22991e-05
0.000369961
0.000173543
1.38858e-05
8.41029e-05
2.65516e-12
1.11368e-11
8.13e-13
0.000638552
0.00860156
0.0115485
1.11992e-05
3.00951e-06
0.000418922
0.000523736
0.000197836
1.45909e-06
8.39664e-13
8.10601e-13
7.85321e-13
8.24702e-13
0.00612619
0.0124834
0.00179954
7.96598e-13
0.0002007
0.000529136
0.000520399
5.44609e-13
1.72516e-05
4.16381e-07
3.33594e-07
6.46082e-07
0.00513142
0.0123926
0.00178701
7.47532e-13
2.74111e-05
0.000113786
0.000159438
2.88875e-05
8.75577e-05
4.71329e-05
8.67544e-06
2.09516e-06
0.000743536
0.00372357
0.0042986
0.000226578
1.76705e-05
2.33417e-05
1.58694e-05
2.0985e-06
8.75577e-05
8.75582e-05
1.44931e-05
6.16151e-13
6.47003e-13
0.000772933
0.00225543
0.00129671
1.79832e-05
2.82699e-05
4.83551e-05
4.53916e-05
8.75593e-05
8.75562e-05
1.53441e-05
6.39577e-13
6.88622e-13
7.23633e-13
0.000140802
0.000354201
0.000138371
1.41776e-05
4.45408e-05
4.96792e-05
8.75543e-05
4.76259e-05
6.13981e-06
1.62756e-05
4.656e-06
2.00674e-05
3.00827e-05
4.42386e-05
5.93396e-05
1.34422e-05
4.35776e-06
1.27149e-05
8.75525e-05
8.27653e-06
6.1326e-06
5.90167e-05
1.72236e-05
1.24473e-12
7.8638e-07
2.30162e-06
4.08457e-06
6.65638e-06
2.36572e-06
2.59219e-12
1.88975e-05
2.67508e-06
2.17725e-12
5.91092e-05
6.40823e-05
1.24206e-12
1.5343e-07
1.60066e-07
5.56844e-07
1.47126e-06
2.24076e-06
1.99742e-06
0.000272061
0.00027207
5.4489e-05
8.20835e-13
7.56588e-13
2.33605e-05
3.23429e-05
8.88241e-09
8.67665e-09
6.49744e-08
2.9429e-09
1.60938e-12
0.00027207
0.000272061
6.96894e-05
8.25812e-13
2.48153e-05
4.83813e-05
4.76145e-05
4.67818e-06
8.88244e-09
2.69242e-06
9.04799e-09
1.60939e-12
0.000192001
0.000104228
9.98139e-06
5.19429e-09
2.2395e-05
4.76145e-05
1.80245e-05
6.75683e-06
6.88019e-06
4.99562e-06
2.92066e-08
1.64285e-12
2.77537e-06
5.66184e-13
5.61406e-13
4.63297e-10
1.33762e-06
1.02488e-05
9.4371e-11
4.05852e-05
6.31229e-05
4.96011e-06
1.79418e-12
1.73325e-12
5.48369e-13
5.26753e-13
5.26045e-13
5.26766e-13
5.56639e-13
5.89805e-13
6.03114e-13
6.63043e-05
0.000134063
5.83948e-05
3.01103e-06
1.53264e-12
5.35911e-13
1.14285e-06
1.46267e-06
1.22347e-06
5.63921e-13
5.7837e-13
9.43334e-11
3.64182e-05
0.000133801
0.000134056
3.88285e-05
4.55209e-07
5.58581e-13
1.3284e-06
2.73039e-06
2.0238e-06
7.01047e-07
5.02688e-07
9.43345e-11
3.99627e-05
0.000134057
0.000133801
5.67806e-05
1.29002e-05
6.32953e-07
1.12887e-07
2.69113e-06
5.76165e-07
8.49524e-07
6.55153e-07
9.43359e-11
3.48456e-05
0.00012628
8.14703e-05
8.85457e-06
2.23129e-05
6.31456e-07
3.31242e-08
3.54737e-07
1.97196e-12
2.27421e-07
5.08334e-08
3.89704e-06
2.59937e-05
1.53046e-05
7.29411e-07
7.0601e-07
2.95619e-06
2.58195e-12
9.70104e-08
7.02731e-08
1.93879e-12
1.96798e-12
4.78358e-08
8.04936e-06
6.93405e-06
5.8967e-06
3.7394e-06
7.29411e-07
1.35359e-06
2.59503e-12
1.28967e-08
3.04913e-08
1.93879e-12
1.93879e-12
1.06547e-06
2.85629e-06
2.11561e-06
1.64049e-06
2.96639e-07
1.02808e-06
2.50715e-06
3.49653e-07
8.86769e-09
2.78634e-08
1.44989e-07
1.4729e-07
5.0789e-07
5.1159e-07
5.47791e-07
3.75724e-07
4.31132e-12
5.13429e-06
3.61779e-06
2.84705e-06
0.000359342
0.000396856
3.11561e-05
8.93441e-13
1.46652e-11
1.39506e-12
1.596e-07
1.10646e-06
1.09482e-06
9.13854e-13
9.47012e-13
1.61021e-10
9.84143e-05
0.000395868
0.000310553
8.93411e-13
2.82913e-08
3.08674e-08
2.40128e-08
6.7015e-07
1.11433e-06
1.47218e-07
9.23774e-13
1.61009e-10
1.09876e-05
0.000332432
0.000384862
8.62327e-13
6.32275e-08
8.92378e-08
1.50777e-09
7.47219e-08
3.50473e-07
2.18414e-07
8.90174e-13
1.55341e-09
1.60994e-10
2.66956e-05
0.000380309
8.57145e-13
8.28673e-13
8.28902e-13
7.93189e-13
7.62541e-13
8.02838e-13
2.89098e-08
8.60351e-13
4.67629e-09
1.60993e-10
1.07646e-05
0.000117912
0.000325661
8.67316e-13
0.000115862
0.000361602
7.92845e-13
1.34429e-12
7.89551e-13
8.24743e-13
2.2972e-09
2.47373e-09
2.42789e-09
5.16043e-05
0.00111169
0.00120631
0.000546631
0.00578998
0.00797602
7.38914e-13
7.42187e-13
7.84943e-13
2.82365e-09
6.92701e-09
1.46749e-07
1.16439e-07
0.000912943
0.00350409
0.00345624
0.0164993
0.0763557
0.0565864
7.25371e-13
7.25772e-13
3.10802e-09
3.15571e-09
1.20173e-06
1.40033e-05
3.44533e-05
0.00334234
0.00625407
0.00395726
0.0902893
0.50135
0.463842
0.368921
8.05432e-10
1.54866e-08
3.30096e-07
7.25232e-05
9.5699e-05
4.46787e-06
2.4836e-05
2.53408e-05
0.05232
0.379903
0.790002
0.921276
1.65019e-08
2.11529e-08
5.99147e-08
1.30876e-05
5.20604e-05
2.02301e-05
1.10606e-11
0.0161521
0.0847383
0.0969062
0.198481
0.327607
5.42424e-09
9.0881e-09
2.0405e-09
1.09059e-11
1.0906e-11
6.39703e-08
2.7236e-06
0.0138864
0.0353829
0.0457477
0.0253827
0.00753351
2.09185e-10
1.09137e-11
1.09059e-11
1.09059e-11
1.09379e-11
1.19916e-05
3.72596e-05
3.68108e-05
3.68108e-05
0.00175567
0.00224315
0.00174677
0.0803186
0.825414
0.94234
0.126959
9.3955e-13
9.27331e-13
1.0091e-07
2.55508e-07
1.00055e-11
2.71261e-12
7.87376e-13
7.84777e-13
0.0437898
0.72719
1
0.847078
0.193348
9.15408e-13
2.70703e-08
5.15323e-08
7.63868e-13
9.38107e-13
8.3597e-13
2.61383e-09
0.0693092
0.736602
1
0.981226
0.201284
9.27326e-13
3.46645e-07
9.79878e-08
7.64768e-13
7.69077e-13
6.25631e-06
4.49663e-06
0.288788
0.95939
0.999507
0.974389
0.0347244
9.15418e-13
1.51057e-06
9.57707e-07
8.02932e-13
8.21195e-13
1.2426e-05
8.75468e-06
0.281644
0.998474
0.998854
0.434212
9.03956e-11
8.32997e-11
1.52023e-06
1.01016e-06
9.4206e-06
1.35035e-05
1.28826e-05
1.04826e-05
0.0388174
0.501182
0.971082
1.06172e-10
1.04711e-12
1.21142e-05
9.84261e-07
5.65446e-08
2.79203e-05
2.59785e-05
1.06073e-05
1.05505e-05
7.34666e-13
7.72289e-13
0.28999
0.147483
0.03712
1.15851e-08
5.16473e-13
3.66861e-06
2.81184e-05
1.06671e-05
1.06356e-05
0.0003333
0.457264
0.234363
0.503959
0.859736
0.0467862
5.18896e-13
5.04155e-13
1.31564e-05
1.98762e-05
0.000978479
0.00746176
0.00191166
0.915975
0.905909
0.929634
0.933531
0.391379
0.0566019
5.3731e-13
5.78746e-13
6.08951e-13
0.0492622
0.041267
0.00278093
0.463178
0.871122
0.933531
0.933531
0.827111
0.252928
5.69857e-13
0.00614147
0.0423186
0.078305
0.0436214
0.000205949
0.0307834
0.357293
0.878209
0.517946
0.229765
0.0693578
0.0456259
0.0880618
0.0924279
0.0783884
0.00848855
2.41745e-11
0.00147401
0.0126556
0.129959
0.0116514
0.00467544
0.00467544
0.0500093
0.0890893
0.043777
0.00347536
2.41621e-11
2.41431e-11
1
1
0.976137
0.508599
0.0502334
2.07672e-07
1.99413e-07
8.11631e-07
1.39791e-08
4.18645e-13
4.55877e-13
0.102722
1
1
0.794155
0.370972
0.284336
0.114037
1.13056e-10
1.13813e-10
1.13194e-07
4.20158e-13
4.56919e-13
0.0198688
1
0.999741
0.61639
0.196176
0.329875
0.327973
0.0271941
4.44427e-13
1.23335e-08
4.26541e-13
4.64324e-13
0.00027352
1
1
0.727632
0.196236
0.199531
0.337378
0.297243
4.46187e-13
4.1723e-13
4.1892e-13
4.37429e-13
0.189223
0.971221
1
0.970801
0.523094
0.193378
0.337291
0.441797
0.181056
0.119101
0.339057
0.456191
0.826084
0.845104
1
1
0.863887
0.193361
0.159119
0.441231
0.269214
0.106728
0.56918
0.618807
0.628236
0.830083
1
1
0.992669
0.575988
0.158814
0.177851
0.176543
0.0439509
0.125963
0.242053
0.112645
0.995898
0.994675
1
1
0.855669
0.302717
0.184993
0.193704
0.133377
0.021494
0.0211999
0.021494
0.692591
0.775478
0.802447
1
0.987973
0.641424
0.285735
0.218279
0.241261
0.200559
0.158134
0.213426
0.519614
0.645246
0.431234
1
0.999457
0.920403
0.606216
0.33912
0.254054
0.252164
0.345723
0.61693
0.389614
0.106681
0.193641
0.97666
0.999279
0.958233
0.85591
0.742869
0.617129
0.539991
0.649142
0.890973
0.0162811
0.104406
0.869463
0.985187
0.994719
0.999637
0.95217
0.839847
0.842277
0.928321
0.928321
0.928321
0.725186
0.956648
1
0.9891
0.731866
0.486303
0.520006
0.387857
0.46196
1
0.999651
0.999874
0.230743
0.84518
1
0.98847
0.668687
0.471386
0.387873
0.387858
0.430879
1
1
0.999895
0.556843
0.929197
1
0.997522
0.914424
0.70164
0.387872
0.387876
0.787793
0.994357
0.97082
0.999874
1
1
1
0.999888
0.999881
0.994237
0.434333
0.387876
0.897888
0.994238
0.540251
0.990156
0.8975
0.99196
0.9581
0.999881
0.999866
0.999847
0.456292
0.419008
0.915606
0.958967
0.402546
0.754764
0.222234