/*--------------------------------*- C++ -*----------------------------------*\
| =========                 |                                                 |
| \\      /  F ield         | OpenFOAM: The Open Source CFD Toolbox           |
|  \\    /   O peration     | Version:  v1606+                                |
|   \\  /    A nd           | Web:      www.OpenFOAM.com                      |
|    \\/     M anipulation  |                                                 |
\*---------------------------------------------------------------------------*/
FoamFile
{
    version     2.0;
    format      ascii;
    class       volScalarField;
    location    "3.1";
    object      rAU;
}
// * * * * * * * * * * * * * * * * * * * * * * * * * * * * * * * * * * * * * //

dimensions      [-1 3 1 0 0 0 0];

internalField   nonuniform List<scalar> 
11640
(
1.05151529802e-05
1.05086475964e-05
1.0506749816e-05
1.0506406336e-05
1.05081050048e-05
1.05115330881e-05
1.05158412841e-05
1.05194343999e-05
1.05151456565e-05
1.04862724383e-05
1.04732050338e-05
1.04879503431e-05
1.04941995008e-05
1.04983042562e-05
1.05005269296e-05
1.05019783072e-05
1.05033266655e-05
1.05047224365e-05
1.05069255442e-05
1.05149867373e-05
1.0508481947e-05
1.04797775221e-05
1.04697826838e-05
1.04685682199e-05
1.04736437375e-05
1.04798635238e-05
1.04844690439e-05
1.04840645642e-05
1.04674414645e-05
1.04477739717e-05
1.04439903789e-05
1.04496277169e-05
1.04544864059e-05
1.04573655787e-05
1.04586256272e-05
1.04586036386e-05
1.04600361049e-05
1.04655657971e-05
1.0477030361e-05
1.05082708885e-05
1.05067964237e-05
1.04703810904e-05
1.04615096945e-05
1.04660256247e-05
1.04759993545e-05
1.0484268201e-05
1.04886687689e-05
1.04775974107e-05
1.04518144341e-05
1.04392103254e-05
1.04392838814e-05
1.04430793106e-05
1.04452489417e-05
1.04454584993e-05
1.04446137598e-05
1.04423175201e-05
1.04416974802e-05
1.0449448357e-05
1.04668706452e-05
1.05066151594e-05
1.05064300718e-05
1.04691098152e-05
1.04669062967e-05
1.04784690572e-05
1.04915030945e-05
1.0498025073e-05
1.04997708452e-05
1.04581398174e-05
1.04264933827e-05
1.04377048471e-05
1.04385138689e-05
1.04428621881e-05
1.04437723934e-05
1.04393887006e-05
1.04338539447e-05
1.04279848516e-05
1.04210088597e-05
1.04299624263e-05
1.04585930169e-05
1.05051786243e-05
1.05079856347e-05
1.04742878195e-05
1.04800325689e-05
1.04952223746e-05
1.05016407915e-05
1.04994090644e-05
1.05029106014e-05
1.04510233539e-05
1.04151601678e-05
1.04386471603e-05
1.04299596812e-05
1.03977575693e-05
1.03867372054e-05
1.03243005607e-05
1.03931834976e-05
1.03864871848e-05
1.0372483488e-05
1.03893803101e-05
1.04457443394e-05
1.05033879458e-05
1.05111569373e-05
1.04826940188e-05
1.04934084447e-05
1.05029901927e-05
1.04943617557e-05
1.04880373061e-05
1.04662675258e-05
1.04150389927e-05
1.04090543927e-05
1.04430507625e-05
1.04368948764e-05
1.0446549274e-05
1.04546905758e-05
1.04102460969e-05
1.03564148897e-05
1.02646291877e-05
1.02959908077e-05
1.03534091121e-05
1.04305115245e-05
1.05004991492e-05
1.05152873348e-05
1.04900724531e-05
1.05009481968e-05
1.04970684065e-05
1.04851610498e-05
1.04840141318e-05
1.04416098328e-05
1.03948457815e-05
1.04344499722e-05
1.04733105704e-05
1.04475166509e-05
1.04079210328e-05
1.03274161503e-05
1.02593962441e-05
1.02383203555e-05
1.02351545269e-05
1.02747383321e-05
1.03368358145e-05
1.04108743772e-05
1.04975094424e-05
1.05195427168e-05
1.04943241055e-05
1.05018040939e-05
1.04874118991e-05
1.04790464026e-05
1.0478720461e-05
1.04473422526e-05
1.04275680631e-05
1.04742161052e-05
1.0494424234e-05
1.04717392107e-05
1.0425739932e-05
1.03826766533e-05
1.0377576077e-05
1.0220681565e-05
1.02349957282e-05
1.0273302955e-05
1.03325105246e-05
1.04082340396e-05
1.0497218547e-05
1.05239931491e-05
1.0495166694e-05
1.04969037232e-05
1.04760572965e-05
1.04728790752e-05
1.04692858809e-05
1.04495161289e-05
1.04513275082e-05
1.04964099132e-05
1.0510027608e-05
1.04755502362e-05
1.04244267987e-05
1.0407616998e-05
1.04104492132e-05
1.02340885389e-05
1.02370260288e-05
1.02744167165e-05
1.03331488992e-05
1.04087148226e-05
1.04976814712e-05
1.05183247511e-05
1.04884286907e-05
1.04867597861e-05
1.0463533108e-05
1.04660949109e-05
1.04620519273e-05
1.04541567426e-05
1.04683311682e-05
1.05056879825e-05
1.05115662987e-05
1.04692089997e-05
1.04188951479e-05
1.03810309128e-05
1.03911046425e-05
1.02599041388e-05
1.02435113057e-05
1.0275410631e-05
1.03333927153e-05
1.04092947043e-05
1.0498315038e-05
1.04946043094e-05
1.04779316391e-05
1.04737181581e-05
1.04527427285e-05
1.04635249983e-05
1.04606773855e-05
1.0479886968e-05
1.05083801498e-05
1.05123553986e-05
1.04982447961e-05
1.04612184969e-05
1.04214078063e-05
1.03667915362e-05
1.03058132794e-05
1.02630431954e-05
1.02472426168e-05
1.02751246938e-05
1.03331864459e-05
1.04101296542e-05
1.04997847334e-05
1.04833445274e-05
1.04726475294e-05
1.04547579806e-05
1.04390555671e-05
1.04558114411e-05
1.0447583093e-05
1.04579321562e-05
1.05152883781e-05
1.04891519738e-05
1.04560519072e-05
1.04383289004e-05
1.0382243024e-05
1.03242204084e-05
1.02872494123e-05
1.02593768529e-05
1.0249122403e-05
1.02759207602e-05
1.03336562179e-05
1.04085480794e-05
1.05024411339e-05
1.04897103647e-05
1.04698818356e-05
1.04294382423e-05
1.04222115475e-05
1.04376630421e-05
1.04281678278e-05
1.04259676565e-05
1.0444774868e-05
1.04500860026e-05
1.04352594153e-05
1.04018820963e-05
1.03589461045e-05
1.03163789924e-05
1.02836880857e-05
1.02594590314e-05
1.02584466579e-05
1.0288531678e-05
1.0344475605e-05
1.04135269004e-05
1.04912728545e-05
1.04924621157e-05
1.04585632377e-05
1.04481044305e-05
1.04200037055e-05
1.04202889949e-05
1.04261150924e-05
1.04212722454e-05
1.04207152822e-05
1.04261836705e-05
1.04181063623e-05
1.03932651604e-05
1.03605088441e-05
1.03277990111e-05
1.02947421811e-05
1.02775835868e-05
1.02848715366e-05
1.03173764238e-05
1.03690282664e-05
1.04288865458e-05
1.04866413916e-05
1.04958630722e-05
1.04520208057e-05
1.04471578137e-05
1.04442425873e-05
1.04257128506e-05
1.04200657601e-05
1.04169156835e-05
1.04146225606e-05
1.0416640206e-05
1.04163386758e-05
1.03941646506e-05
1.03681429138e-05
1.03433407961e-05
1.03221972908e-05
1.03137276899e-05
1.03257001053e-05
1.03567613263e-05
1.03992611831e-05
1.04435328089e-05
1.04969410518e-05
1.04991705771e-05
1.04531147258e-05
1.0439552745e-05
1.04387063342e-05
1.04405054778e-05
1.04374227709e-05
1.04319068587e-05
1.04267627304e-05
1.04219100042e-05
1.04159385549e-05
1.04000136747e-05
1.03850257478e-05
1.03705986177e-05
1.03593822003e-05
1.03576614437e-05
1.03772667833e-05
1.03957409586e-05
1.04242597829e-05
1.04512583117e-05
1.04994424843e-05
1.05020883421e-05
1.04577804178e-05
1.04421960133e-05
1.04344377989e-05
1.04330294944e-05
1.0432557613e-05
1.04305031392e-05
1.04273831639e-05
1.04235008261e-05
1.04166768181e-05
1.04121191234e-05
1.04097862066e-05
1.0408402288e-05
1.04072113114e-05
1.04086571462e-05
1.04138728849e-05
1.04235556642e-05
1.04383373696e-05
1.04561047308e-05
1.04989887653e-05
1.05042107445e-05
1.04646263008e-05
1.0450490344e-05
1.04428120686e-05
1.0439092022e-05
1.04374123133e-05
1.04363857055e-05
1.04355411376e-05
1.04342684519e-05
1.04323730899e-05
1.04305084061e-05
1.04292348503e-05
1.04289022215e-05
1.0429221498e-05
1.0430111498e-05
1.04326211007e-05
1.04389119864e-05
1.04470523338e-05
1.04617216987e-05
1.05002547352e-05
1.05066998587e-05
1.0476626901e-05
1.0466665958e-05
1.04608550427e-05
1.04577343773e-05
1.04562764546e-05
1.04558512964e-05
1.04562150489e-05
1.04565794486e-05
1.04560948419e-05
1.04529093373e-05
1.04499913824e-05
1.04507431996e-05
1.04516343183e-05
1.04512968223e-05
1.04517766919e-05
1.0455507282e-05
1.04616792623e-05
1.0472903817e-05
1.05051908196e-05
1.05149241335e-05
1.0508162745e-05
1.05063101546e-05
1.05049804116e-05
1.0504267991e-05
1.05039525096e-05
1.05040442119e-05
1.05046200801e-05
1.05053431044e-05
1.05071031335e-05
1.04967023284e-05
1.04876485457e-05
1.04943586517e-05
1.04991279854e-05
1.04998612958e-05
1.05001390778e-05
1.05001888232e-05
1.05018107342e-05
1.05058124808e-05
1.05149163903e-05
1.04857497048e-05
1.04631298695e-05
1.04558853391e-05
1.04528055721e-05
1.04529219672e-05
1.04554157994e-05
1.04586126487e-05
1.04593535154e-05
1.04543246369e-05
1.04453547505e-05
1.04398387383e-05
1.04410255587e-05
1.04436568847e-05
1.04452767529e-05
1.04462573811e-05
1.04467887017e-05
1.04488413671e-05
1.04534299461e-05
1.04618704746e-05
1.0485844881e-05
1.04628626464e-05
1.03383937583e-05
1.02877309195e-05
1.02678178577e-05
1.02623230852e-05
1.02626576901e-05
1.02639471917e-05
1.02612880099e-05
1.02518781078e-05
1.02418808727e-05
1.02371466535e-05
1.02405838909e-05
1.02460509817e-05
1.02493249205e-05
1.02515378035e-05
1.02517693056e-05
1.02574492747e-05
1.02794099114e-05
1.03336448323e-05
1.04627720315e-05
1.04554194325e-05
1.02876324843e-05
1.02188903056e-05
1.01921337265e-05
1.01840103504e-05
1.01835422616e-05
1.01850322334e-05
1.01800920564e-05
1.01666706308e-05
1.01569791647e-05
1.01561534399e-05
1.016812468e-05
1.01783674373e-05
1.01851453157e-05
1.01874136642e-05
1.01840807468e-05
1.01841226701e-05
1.02082475646e-05
1.02815875211e-05
1.04551425278e-05
1.04524175412e-05
1.02673743607e-05
1.01928185449e-05
1.01653507619e-05
1.01575053121e-05
1.01562398592e-05
1.01585368965e-05
1.01506359917e-05
1.01339489661e-05
1.01308830147e-05
1.0137947226e-05
1.0158087448e-05
1.01720357675e-05
1.01834244279e-05
1.01828739496e-05
1.01728443774e-05
1.01592857752e-05
1.01767836447e-05
1.02589127036e-05
1.04508227576e-05
1.04521590959e-05
1.02611490377e-05
1.01874748647e-05
1.01613004943e-05
1.0148806492e-05
1.01427204833e-05
1.01501485172e-05
1.01457504739e-05
1.01318219168e-05
1.01427161519e-05
1.01330095774e-05
1.01191335774e-05
1.0116575601e-05
1.00949144347e-05
1.01698373403e-05
1.01516449304e-05
1.01281560295e-05
1.01460557784e-05
1.02466692188e-05
1.04491406427e-05
1.04518820805e-05
1.02610065375e-05
1.01917013083e-05
1.01618306041e-05
1.01387508127e-05
1.01357539149e-05
1.01391518928e-05
1.01435512285e-05
1.01591050152e-05
1.02037862453e-05
1.01619743906e-05
1.01625985525e-05
1.01578462907e-05
1.01749532358e-05
1.01402206685e-05
1.00618727921e-05
1.00799374228e-05
1.01283725688e-05
1.02394288942e-05
1.04482559051e-05
1.04511562646e-05
1.02623983323e-05
1.01971594925e-05
1.01579953094e-05
1.01364954504e-05
1.0155454182e-05
1.01647775109e-05
1.01456186248e-05
1.02234096712e-05
1.03066778399e-05
1.02622935439e-05
1.02261208976e-05
1.01374042858e-05
1.00866165341e-05
1.0059078293e-05
1.00567525401e-05
1.0079964391e-05
1.01256289082e-05
1.02275484853e-05
1.04467325717e-05
1.04533108657e-05
1.02661120923e-05
1.01998238244e-05
1.01528497408e-05
1.01312608977e-05
1.01325081029e-05
1.01504417193e-05
1.02534194971e-05
1.03564573097e-05
1.03882735587e-05
1.03743072683e-05
1.03360672058e-05
1.02706665131e-05
1.02467395768e-05
1.01035172171e-05
1.00906926932e-05
1.00889467913e-05
1.01280136169e-05
1.02283444854e-05
1.04469487502e-05
1.04539877331e-05
1.02670213763e-05
1.01980185924e-05
1.0145571187e-05
1.01245426284e-05
1.01168324484e-05
1.01925685404e-05
1.02986004861e-05
1.038083067e-05
1.0431989653e-05
1.0397293143e-05
1.03841360988e-05
1.0333947583e-05
1.02847448764e-05
1.00999236895e-05
1.00873041605e-05
1.00898273815e-05
1.01296209455e-05
1.02295720765e-05
1.04477562073e-05
1.04509366602e-05
1.02642923281e-05
1.01907522457e-05
1.0133533608e-05
1.01086455377e-05
1.00993184726e-05
1.01994740308e-05
1.02975426187e-05
1.03651538518e-05
1.04125785067e-05
1.04202956371e-05
1.04079151731e-05
1.03337724328e-05
1.02715675974e-05
1.01120620847e-05
1.00855450682e-05
1.00864316456e-05
1.01277384077e-05
1.02292123608e-05
1.04482681345e-05
1.04451392022e-05
1.02593436059e-05
1.0177547546e-05
1.01175023e-05
1.00833133374e-05
1.00761140457e-05
1.01894757685e-05
1.02837399329e-05
1.03251840376e-05
1.03663777195e-05
1.04021825895e-05
1.0381945105e-05
1.02905138931e-05
1.01897929274e-05
1.011618988e-05
1.00794776074e-05
1.00802062507e-05
1.01234250584e-05
1.0227065227e-05
1.04491229629e-05
1.04407370255e-05
1.02543133983e-05
1.01574735266e-05
1.00993051457e-05
1.0063374143e-05
1.00402349238e-05
1.01648209176e-05
1.0225031072e-05
1.02424466746e-05
1.0241662214e-05
1.02859832267e-05
1.02843683424e-05
1.01984212173e-05
1.01579039564e-05
1.01119825988e-05
1.00700210614e-05
1.00725439353e-05
1.01181800065e-05
1.02229047287e-05
1.04498385037e-05
1.04389185947e-05
1.02487915301e-05
1.0133064859e-05
1.00846013465e-05
1.0043798886e-05
1.00098241052e-05
1.00608285288e-05
1.0170917217e-05
1.01917028511e-05
1.01789552026e-05
1.0151471864e-05
1.01297846497e-05
1.00867812466e-05
1.01061250268e-05
1.00751077409e-05
1.00536179988e-05
1.00647344187e-05
1.0114596285e-05
1.0220173777e-05
1.0437261952e-05
1.04372572804e-05
1.02330354031e-05
1.01447669771e-05
1.00834707639e-05
1.00300488604e-05
9.9954288127e-06
1.00221739453e-05
1.00633159661e-05
1.0094169097e-05
1.0110169104e-05
1.01105935428e-05
1.0103199823e-05
1.00838175086e-05
1.00651065431e-05
1.00447878409e-05
1.00402108376e-05
1.00609813078e-05
1.01137781346e-05
1.02205359758e-05
1.04315320248e-05
1.04389682844e-05
1.02243086115e-05
1.01374379138e-05
1.00959226391e-05
1.00594878726e-05
1.00436234867e-05
1.00409869168e-05
1.00499404035e-05
1.00630521116e-05
1.00674492547e-05
1.00609732826e-05
1.00518292312e-05
1.00437090536e-05
1.00356159394e-05
1.00299023881e-05
1.00372388936e-05
1.00637134766e-05
1.01172659038e-05
1.02225298834e-05
1.04401473526e-05
1.04422566453e-05
1.02292236819e-05
1.01348516947e-05
1.0093926924e-05
1.0074618241e-05
1.00627551274e-05
1.00562677569e-05
1.00529794192e-05
1.00494977342e-05
1.0046376763e-05
1.0039599958e-05
1.00356326989e-05
1.00329056237e-05
1.00313706659e-05
1.0034261425e-05
1.00531712051e-05
1.00753972562e-05
1.0127236385e-05
1.02276565598e-05
1.0442862152e-05
1.04467087013e-05
1.02443030711e-05
1.01531977477e-05
1.01073987557e-05
1.00853027354e-05
1.00741078807e-05
1.00675373303e-05
1.00628461619e-05
1.00588507191e-05
1.00540543745e-05
1.00534490386e-05
1.00555755175e-05
1.00591822387e-05
1.00630302055e-05
1.00681961317e-05
1.00775928853e-05
1.00994185028e-05
1.01473213863e-05
1.02418337418e-05
1.04445730256e-05
1.04523042917e-05
1.0272801862e-05
1.01930070739e-05
1.01527289585e-05
1.01307879209e-05
1.01186068467e-05
1.01119535871e-05
1.01084998631e-05
1.01063662275e-05
1.01048176374e-05
1.01039865342e-05
1.01039457047e-05
1.01051619709e-05
1.01077255919e-05
1.01124443959e-05
1.01225892812e-05
1.01453811012e-05
1.01869423674e-05
1.02699221527e-05
1.04494199551e-05
1.04613012991e-05
1.03307550622e-05
1.02749245319e-05
1.02465171782e-05
1.02307799974e-05
1.02221665896e-05
1.02177429565e-05
1.02157401862e-05
1.02148097993e-05
1.02137758953e-05
1.02117348854e-05
1.02102584275e-05
1.02108180689e-05
1.02126998376e-05
1.02160437617e-05
1.02233464026e-05
1.02397221077e-05
1.02693502382e-05
1.03278240965e-05
1.04608855141e-05
1.04859726428e-05
1.04625268779e-05
1.04539156726e-05
1.04490034774e-05
1.0446256868e-05
1.04448314634e-05
1.04441754367e-05
1.04443252906e-05
1.04447647761e-05
1.04462066576e-05
1.04417424653e-05
1.0435196046e-05
1.04366079099e-05
1.04398489417e-05
1.04413750298e-05
1.04429334455e-05
1.04452372244e-05
1.04506280341e-05
1.04612790108e-05
1.04869768832e-05
1.04768672023e-05
1.04457422438e-05
1.04353050205e-05
1.04302809862e-05
1.0429307167e-05
1.04310375115e-05
1.04329866818e-05
1.04319123723e-05
1.04289623777e-05
1.04253059629e-05
1.04227889599e-05
1.04226558932e-05
1.04229860057e-05
1.04209380306e-05
1.04205315402e-05
1.0421304122e-05
1.04246764436e-05
1.04320635589e-05
1.04451253612e-05
1.04765359294e-05
1.04454856615e-05
1.0251881226e-05
1.01693433144e-05
1.01341011253e-05
1.0121152228e-05
1.01182371611e-05
1.0117972534e-05
1.01151311249e-05
1.01101198399e-05
1.01045257075e-05
1.01005998678e-05
1.00990429487e-05
1.00968891468e-05
1.00932437276e-05
1.00941508511e-05
1.01004188636e-05
1.01184545722e-05
1.01592642485e-05
1.02479754331e-05
1.04453704218e-05
1.04344812473e-05
1.01685411214e-05
1.00494407411e-05
9.99748896041e-06
9.97769637215e-06
9.97313840795e-06
9.97408156314e-06
9.97242577988e-06
9.96558514913e-06
9.95898597394e-06
9.95487939011e-06
9.95335586531e-06
9.94796027647e-06
9.94282854533e-06
9.94187302264e-06
9.94990896408e-06
9.97561233474e-06
1.00350389545e-05
1.01628342659e-05
1.04344854815e-05
1.04291959091e-05
1.01321537975e-05
9.99781766125e-06
9.94138009158e-06
9.92270488006e-06
9.92216827488e-06
9.9298279784e-06
9.93431502402e-06
9.92626476512e-06
9.92057898376e-06
9.91854874422e-06
9.91390785125e-06
9.89932922528e-06
9.89515185322e-06
9.88591714229e-06
9.88772215882e-06
9.91230665102e-06
9.97847906114e-06
1.01241193914e-05
1.0428299295e-05
1.04272266635e-05
1.01175924674e-05
9.98112363749e-06
9.92801415076e-06
9.91605081349e-06
9.92338254929e-06
9.94546338459e-06
9.96608947165e-06
9.95696195805e-06
9.95087222119e-06
9.93237912693e-06
9.91138044928e-06
9.87437143034e-06
9.87252632569e-06
9.88346449637e-06
9.8657483459e-06
9.88956407443e-06
9.95608579496e-06
1.01074023366e-05
1.04258553258e-05
1.04256087598e-05
1.01138367798e-05
9.98290998791e-06
9.93728530437e-06
9.9373559489e-06
9.94938713129e-06
9.98839945632e-06
1.0029934892e-05
1.00344945345e-05
1.00499262777e-05
1.00186542589e-05
9.97075545029e-06
9.90310669467e-06
9.84784746344e-06
9.88564569667e-06
9.85929495082e-06
9.89712821966e-06
9.95463042385e-06
1.01028737246e-05
1.0424662531e-05
1.0426552706e-05
1.01173155166e-05
9.99178715809e-06
9.95487092599e-06
9.96950531646e-06
1.00003478697e-05
1.00581677016e-05
1.01341105853e-05
1.02230686393e-05
1.02630164881e-05
1.02122352758e-05
1.01641674206e-05
1.00686243222e-05
9.96437708081e-06
9.87701132801e-06
9.88382595214e-06
9.91625337891e-06
9.96130585001e-06
1.01041733831e-05
1.04240632996e-05
1.04275652288e-05
1.0121272597e-05
9.99990119524e-06
9.96965013602e-06
9.97748569817e-06
9.92336676223e-06
1.00802619785e-05
1.0349110026e-05
1.04403890217e-05
1.04369887603e-05
1.04248779119e-05
1.03904925358e-05
1.03172291431e-05
1.00690834909e-05
9.89428660926e-06
9.94741641842e-06
9.93609171921e-06
9.96892347548e-06
1.01071420334e-05
1.04245059482e-05
1.04275668465e-05
1.01222722822e-05
1.00028962377e-05
9.97562156688e-06
9.97580362936e-06
9.93140992535e-06
1.01313546397e-05
1.0394533272e-05
1.04607962965e-05
1.04490255047e-05
1.0446586934e-05
1.04554023028e-05
1.04168219391e-05
1.01444785326e-05
9.93016856298e-06
9.94339487839e-06
9.93868738386e-06
9.97112188148e-06
1.01085309344e-05
1.04252225129e-05
1.04259780965e-05
1.0119535046e-05
9.99949628001e-06
9.97095632278e-06
9.95787034981e-06
9.9222010075e-06
1.01427528078e-05
1.03813073953e-05
1.04458278028e-05
1.043227173e-05
1.04645955814e-05
1.04786855655e-05
1.04353143871e-05
1.01739416276e-05
9.93970471354e-06
9.94388227103e-06
9.93371625217e-06
9.96765453359e-06
1.01071500246e-05
1.04257452309e-05
1.04236019432e-05
1.01138052132e-05
9.99068462283e-06
9.95598635964e-06
9.92540703242e-06
9.88682363995e-06
1.01038161607e-05
1.03206935633e-05
1.03783864624e-05
1.04074095694e-05
1.04515653123e-05
1.04299135614e-05
1.03758253468e-05
1.01238545856e-05
9.9212881696e-06
9.94494956647e-06
9.9192289224e-06
9.9586550891e-06
1.01026844675e-05
1.04267891201e-05
1.04207896457e-05
1.01056647019e-05
9.97766861006e-06
9.93317225817e-06
9.90735970185e-06
9.84888622668e-06
1.00228736268e-05
1.01011440579e-05
1.01542328867e-05
1.02105803181e-05
1.02543329985e-05
1.0251335626e-05
1.01671850152e-05
1.00691008053e-05
9.97842466119e-06
9.91591833591e-06
9.89427293281e-06
9.94528574266e-06
1.0094887897e-05
1.04269320377e-05
1.04177663698e-05
1.00947637136e-05
9.96115109249e-06
9.90970428009e-06
9.87334040183e-06
9.84840320483e-06
9.87522978789e-06
9.99875078765e-06
1.00191456122e-05
1.00147273469e-05
1.00075746574e-05
9.97786886892e-06
9.93597731413e-06
9.95920359357e-06
9.90529944947e-06
9.86118980764e-06
9.86635332202e-06
9.92904510991e-06
1.00840975109e-05
1.04177686074e-05
1.04147223049e-05
1.00810779719e-05
9.93737548392e-06
9.88342898914e-06
9.83590912451e-06
9.80420481717e-06
9.82240027776e-06
9.84626222271e-06
9.86492900949e-06
9.87061888941e-06
9.86838171075e-06
9.87259369648e-06
9.86870867822e-06
9.85247641675e-06
9.82650535735e-06
9.81680378016e-06
9.84039515172e-06
9.91260049366e-06
1.00745621005e-05
1.0411809611e-05
1.04140596412e-05
1.007290056e-05
9.91568442936e-06
9.84855650533e-06
9.82159780366e-06
9.80804033654e-06
9.80012399831e-06
9.79887275884e-06
9.79910747566e-06
9.7908218669e-06
9.7860171717e-06
9.78520976449e-06
9.78463929771e-06
9.78240437409e-06
9.77924314916e-06
9.7887312274e-06
9.82347305527e-06
9.90278558737e-06
1.00714698488e-05
1.04168756634e-05
1.04165626968e-05
1.00791727677e-05
9.91612282159e-06
9.83957897095e-06
9.80336809622e-06
9.7863479027e-06
9.77742116459e-06
9.77093420013e-06
9.76400356408e-06
9.75780144075e-06
9.75584092634e-06
9.75595580793e-06
9.75717461007e-06
9.75966560074e-06
9.7662484342e-06
9.784462837e-06
9.82538644708e-06
9.90868109597e-06
1.00790989762e-05
1.04208058852e-05
1.04218921495e-05
1.01021636453e-05
9.94574561075e-06
9.86700415436e-06
9.82653893289e-06
9.80551901592e-06
9.79390006269e-06
9.78656436917e-06
9.78129155724e-06
9.77801968383e-06
9.77672613501e-06
9.77676463788e-06
9.77857781484e-06
9.78313966923e-06
9.79329212711e-06
9.81472152466e-06
9.85727138897e-06
9.93942108066e-06
1.01018855047e-05
1.04254995011e-05
1.04303282476e-05
1.01487759515e-05
1.00138035865e-05
9.94439006459e-06
9.90642080681e-06
9.88551126746e-06
9.87410422658e-06
9.86790967693e-06
9.86425152484e-06
9.86183717779e-06
9.86027589833e-06
9.85983125413e-06
9.86129290848e-06
9.86593865955e-06
9.87623871101e-06
9.89695953216e-06
9.93597552687e-06
1.00080672113e-05
1.01484314153e-05
1.04330521854e-05
1.04441793019e-05
1.02428084872e-05
1.01516993099e-05
1.01049764569e-05
1.00789193622e-05
1.00643525263e-05
1.00564691395e-05
1.0052406559e-05
1.00501727322e-05
1.00483864614e-05
1.00462587139e-05
1.00450980152e-05
1.00460587212e-05
1.00496775951e-05
1.00572989779e-05
1.00720166101e-05
1.00989160794e-05
1.01476024834e-05
1.02429635614e-05
1.04468205934e-05
1.04769043333e-05
1.04451356956e-05
1.04328560366e-05
1.04257312194e-05
1.04217255349e-05
1.04196516109e-05
1.0418725882e-05
1.04187214533e-05
1.04190709494e-05
1.04200799796e-05
1.04177061852e-05
1.04128365485e-05
1.04124963192e-05
1.04150234365e-05
1.04174854502e-05
1.04205265982e-05
1.04252347889e-05
1.04329984079e-05
1.04466907935e-05
1.0479300278e-05
1.04733723283e-05
1.04369737757e-05
1.04249724865e-05
1.04186849064e-05
1.04169082194e-05
1.04180544364e-05
1.04191228321e-05
1.04185394944e-05
1.04166924838e-05
1.04148047228e-05
1.04136173655e-05
1.04132759699e-05
1.04128645078e-05
1.04106285945e-05
1.04090636005e-05
1.0409304012e-05
1.04129937012e-05
1.04216153214e-05
1.04372557805e-05
1.04734219493e-05
1.04367349202e-05
1.02031806474e-05
1.0100646558e-05
1.00548176571e-05
1.00364463947e-05
1.00313222959e-05
1.00307421066e-05
1.00300871039e-05
1.00281507156e-05
1.00254380391e-05
1.00225853697e-05
1.0019808295e-05
1.00160216925e-05
1.00108629495e-05
1.00092796731e-05
1.00160441864e-05
1.00392534159e-05
1.00912344473e-05
1.0201286768e-05
1.04373400595e-05
1.04236236102e-05
1.00990391435e-05
9.94551734921e-06
9.87430414281e-06
9.84488815924e-06
9.83720951774e-06
9.83920143716e-06
9.84178867083e-06
9.84110267727e-06
9.83880386483e-06
9.83578308984e-06
9.83114217988e-06
9.82259664902e-06
9.81180134813e-06
9.80673375057e-06
9.81595520346e-06
9.85154313198e-06
9.93125934249e-06
1.00950717328e-05
1.04238334513e-05
1.04164874134e-05
1.00510189221e-05
9.87375803533e-06
9.79286607966e-06
9.7631003169e-06
9.76136745545e-06
9.77470344754e-06
9.79005716035e-06
9.79251589026e-06
9.79163299831e-06
9.78931530479e-06
9.77950637359e-06
9.76158187334e-06
9.74266873187e-06
9.72504471542e-06
9.72558586087e-06
9.76192343511e-06
9.85364662019e-06
1.00446238906e-05
1.04161901005e-05
1.04133267394e-05
1.00299539988e-05
9.84603560568e-06
9.76689057452e-06
9.74618696895e-06
9.75518354417e-06
9.78402464394e-06
9.81907276865e-06
9.82611883266e-06
9.82671782028e-06
9.82031227492e-06
9.78963475622e-06
9.74963440553e-06
9.70731987238e-06
9.71971802036e-06
9.6989843921e-06
9.72656480614e-06
9.81954142616e-06
1.00206121086e-05
1.04128718357e-05
1.04137145365e-05
1.0025490179e-05
9.84347525595e-06
9.77397781667e-06
9.77282429062e-06
9.80012370519e-06
9.86802868993e-06
9.9543160749e-06
9.97540754173e-06
9.97952755658e-06
9.98088247066e-06
9.95668553313e-06
9.90471283337e-06
9.71582260778e-06
9.71855728598e-06
9.69461872638e-06
9.72346642646e-06
9.81278327146e-06
1.00120740435e-05
1.04110135221e-05
1.04143765078e-05
1.00282480493e-05
9.85269925096e-06
9.79689721354e-06
9.82029180586e-06
9.89323288279e-06
1.00405789904e-05
1.02669304507e-05
1.03375241898e-05
1.03706629359e-05
1.03194389639e-05
1.0261319627e-05
1.02056835461e-05
9.91825869356e-06
9.64974877471e-06
9.72677173083e-06
9.74339650215e-06
9.81845663274e-06
1.00118095709e-05
1.04100282914e-05
1.04151061887e-05
1.00323479563e-05
9.86297796122e-06
9.82098431646e-06
9.86083467593e-06
9.90254447026e-06
1.02074776404e-05
1.01884428236e-05
9.75735020074e-06
9.71397914715e-06
9.77131061454e-06
9.82592579884e-06
1.00143876959e-05
1.04104039848e-05
1.0415207358e-05
1.00335223102e-05
9.86678878543e-06
9.83033179724e-06
9.87176522432e-06
9.92488899022e-06
1.02535494067e-05
1.0238515512e-05
9.81515224581e-06
9.69471348414e-06
9.77569556588e-06
9.82803115779e-06
1.0015325368e-05
1.04111287769e-05
1.04141766538e-05
1.00304434999e-05
9.86242214141e-06
9.82558413849e-06
9.8612097954e-06
9.92389868074e-06
1.02445648169e-05
1.02780849136e-05
9.82171061068e-06
9.69283617332e-06
9.77020354682e-06
9.82330315491e-06
1.0012817082e-05
1.04117057379e-05
1.04125868378e-05
1.00236360544e-05
9.85047357573e-06
9.80654498875e-06
9.83372207202e-06
9.89025373287e-06
1.02013365164e-05
1.0234962853e-05
9.76209319398e-06
9.72917911634e-06
9.7511242186e-06
9.81097691981e-06
1.00065202779e-05
1.04124966372e-05
1.04100242445e-05
1.00136302168e-05
9.83244859403e-06
9.77430964466e-06
9.7918934854e-06
9.8264966441e-06
9.97925356868e-06
1.02546183497e-05
1.03026622777e-05
1.03388057744e-05
1.03548841409e-05
1.0325568861e-05
1.02782867636e-05
9.99194843227e-06
9.7927140202e-06
9.73716736131e-06
9.71858207221e-06
9.79354386439e-06
9.99700958078e-06
1.04120589179e-05
1.04064244738e-05
1.00011129828e-05
9.81064849106e-06
9.73866252648e-06
9.73505826535e-06
9.77008211276e-06
9.80697661629e-06
9.90353822124e-06
9.93305324843e-06
9.93823689602e-06
9.940580419e-06
9.92708567172e-06
9.89683797567e-06
9.80035570063e-06
9.70967890694e-06
9.66557218491e-06
9.68287174676e-06
9.77405438893e-06
9.98556538885e-06
1.04036514143e-05
1.0402999349e-05
9.98833424483e-06
9.78739039852e-06
9.70238918717e-06
9.67861928438e-06
9.68857393623e-06
9.70659276647e-06
9.71649197241e-06
9.72413462132e-06
9.72118320483e-06
9.70172764761e-06
9.68947416127e-06
9.68184949766e-06
9.65161741972e-06
9.61985125297e-06
9.61570360936e-06
9.65430980175e-06
9.75756515088e-06
9.97675857746e-06
1.03985426741e-05
1.04019438714e-05
9.98216042283e-06
9.77163466749e-06
9.67354897648e-06
9.63154545138e-06
9.61873990618e-06
9.6186704424e-06
9.6171486094e-06
9.61195071951e-06
9.60560094459e-06
9.59553873543e-06
9.58901455453e-06
9.58294556293e-06
9.57471330658e-06
9.57201057109e-06
9.58875109204e-06
9.64033039059e-06
9.75146893766e-06
9.97582104355e-06
1.0403216307e-05
1.0404127875e-05
9.9910132474e-06
9.77803166026e-06
9.67276451455e-06
9.62019998129e-06
9.59505009079e-06
9.58328026196e-06
9.57658112101e-06
9.57051158457e-06
9.56493747068e-06
9.56087026579e-06
9.55793332671e-06
9.55631974567e-06
9.55737238516e-06
9.56627813461e-06
9.59292628038e-06
9.65105535776e-06
9.76464790165e-06
9.98756564646e-06
1.04075466139e-05
1.04097798287e-05
1.00198470434e-05
9.81796112684e-06
9.71385393844e-06
9.65863698734e-06
9.62933915317e-06
9.61356091474e-06
9.60473724664e-06
9.59904333048e-06
9.59534079393e-06
9.5928252869e-06
9.59139088634e-06
9.5920750567e-06
9.59692658088e-06
9.61042504508e-06
9.64029142412e-06
9.69847931609e-06
9.80763609857e-06
1.00173232413e-05
1.04131686674e-05
1.04195639727e-05
1.00780670653e-05
9.90612198849e-06
9.81601872683e-06
9.76614006218e-06
9.73844694056e-06
9.7232423734e-06
9.71493023009e-06
9.71014621623e-06
9.70708620361e-06
9.70490731916e-06
9.70386052401e-06
9.70521004236e-06
9.71091561263e-06
9.72453169316e-06
9.7522252445e-06
9.80383137183e-06
9.89763467087e-06
1.0076295978e-05
1.04224169874e-05
1.04360648709e-05
1.01945272454e-05
1.00812736569e-05
1.00225452061e-05
9.98945553917e-06
9.97069706121e-06
9.96028472616e-06
9.95473136661e-06
9.9515894778e-06
9.94926888794e-06
9.9470276239e-06
9.94568850808e-06
9.94668022361e-06
9.95109078916e-06
9.96083410048e-06
9.97972867614e-06
1.00139827135e-05
1.00753702505e-05
1.01938520434e-05
1.04390558298e-05
1.04730146332e-05
1.04361240311e-05
1.04218770051e-05
1.04133594073e-05
1.04084411042e-05
1.04058843926e-05
1.04047133651e-05
1.04044379493e-05
1.04048174654e-05
1.04053717672e-05
1.04034562828e-05
1.03996814509e-05
1.03991073465e-05
1.04012216429e-05
1.04037158738e-05
1.04070875964e-05
1.04128010085e-05
1.04222984953e-05
1.043906024e-05
1.04766847569e-05
1.04707263708e-05
1.04305604385e-05
1.04177369507e-05
1.04104542247e-05
1.04081405087e-05
1.04089065546e-05
1.04101666845e-05
1.0410196542e-05
1.04089783307e-05
1.04077433845e-05
1.04069487103e-05
1.0406612008e-05
1.04057305057e-05
1.04034076594e-05
1.04013712182e-05
1.0401269907e-05
1.04052670813e-05
1.04147021969e-05
1.04319386589e-05
1.04712478426e-05
1.04302723911e-05
1.01716390678e-05
1.00564638095e-05
1.00034135521e-05
9.98150441282e-06
9.97513353886e-06
9.97526945238e-06
9.97638128626e-06
9.97640402291e-06
9.97516507836e-06
9.97254440321e-06
9.96888349815e-06
9.96409023114e-06
9.95780343277e-06
9.95469987786e-06
9.96146636754e-06
9.98803336107e-06
1.00476955744e-05
1.01718262016e-05
1.04318706364e-05
1.0415475502e-05
1.00538026457e-05
9.87832553305e-06
9.79391398722e-06
9.75806949952e-06
9.7486582619e-06
9.75185319338e-06
9.75757350477e-06
9.76075314524e-06
9.76088192028e-06
9.75813653632e-06
9.75222131064e-06