/*--------------------------------*- C++ -*----------------------------------*\
| =========                 |                                                 |
| \\      /  F ield         | OpenFOAM: The Open Source CFD Toolbox           |
|  \\    /   O peration     | Version:  v1606+                                |
|   \\  /    A nd           | Web:      www.OpenFOAM.com                      |
|    \\/     M anipulation  |                                                 |
\*---------------------------------------------------------------------------*/
FoamFile
{
    version     2.0;
    format      ascii;
    class       volScalarField;
    location    "3.7";
    object      ddt0(epsilon);
}
// * * * * * * * * * * * * * * * * * * * * * * * * * * * * * * * * * * * * * //

dimensions      [0 2 -4 0 0 0 0];

internalField   nonuniform List<scalar> 
11640
(
-0.000258158196463
-0.00029482865975
-0.000322086345595
-0.000337463739931
-0.000350150939012
-0.000365623906782
-0.000373208371008
-0.000370602683041
-0.000362866920999
-0.000354838833978
-0.000347902213139
-0.000340072183461
-0.000326792346797
-0.000317535839886
-0.000315425965903
-0.000317550023715
-0.000315574361488
-0.000304383542168
-0.000278130177757
-0.000236016925218
-0.000294642504503
-0.0005816403107
-0.000772980638321
-0.000937644037758
-0.00110848139309
-0.00123334129067
-0.00126337972225
-0.0012135796467
-0.00113297613823
-0.00105359493076
-0.000988139854786
-0.000823441388672
-0.000700216783558
-0.000613334525983
-0.000603219863241
-0.000670721001138
-0.000730370991881
-0.000706750527484
-0.000559933597326
-0.000285292448937
-0.000322194023998
-0.000771103010932
-0.0011662351707
-0.00163406190702
-0.00207339196231
-0.00232103016045
-0.00230638511542
-0.00210962320475
-0.00185781305951
-0.00159220436907
-0.00125368753706
-0.000839339190106
-0.000482293409348
-0.000199593295728
-0.000107856975902
-0.000275912755526
-0.000623934395438
-0.000843013007067
-0.000728118698292
-0.000317028359223
-0.000334740271513
-0.000923775780014
-0.00162772706246
-0.00246345177456
-0.00312926302943
-0.00337761379276
-0.00322156159441
-0.00281689757088
-0.00234801296267
-0.00184941719519
-0.00118990544025
-0.000487974069923
0.000154697584999
0.000702992533966
0.00096597409317
0.000764222765293
0.000139247043303
-0.000550437538556
-0.000740842690499
-0.00033138066157
-0.000340160531922
-0.00108256320145
-0.00210317226188
-0.00319933341462
-0.00392732867575
-0.00408041649198
-0.00369682509887
-0.00306530064585
-0.00242847381704
-0.001765692427
-0.000855166496204
2.81316221939e-05
0.000856581303417
0.00161179208648
0.00208872260579
0.00196632540367
0.0011618327001
6.00741782954e-05
-0.000587070441057
-0.000329917679157
-0.000344399843643
-0.00121700468012
-0.00243609850661
-0.00362285087024
-0.00428023352453
-0.00418946971259
-0.00348364758726
-0.00265104751897
-0.0019839350089
-0.00134550815611
-0.000475310658874
0.000332644306753
0.00114703789132
0.00202797599886
0.00276778625048
0.00284494077355
0.00202694875383
0.000661449899481
-0.000360097488717
-0.000315169407443
-0.000345535072131
-0.00127339297283
-0.00254625041853
-0.00369201321112
-0.00419340986554
-0.00382377819912
-0.00273276713568
-0.00167785452099
-0.00112345758602
-0.000684428076334
-4.77463871401e-05
0.000454973251208
0.00105203120719
0.00189906150306
0.00290514705756
0.00320981988347
0.00248160164392
0.00101878944755
-0.000200620385991
-0.000303011911407
-0.000342808083999
-0.00126383596098
-0.00251137457777
-0.00358610573308
-0.00395712461039
-0.00340768357286
-0.00198265704081
-0.000923106805862
-0.000549849934003
-0.000380727582234
-0.000174262879064
6.09841093928e-05
0.000441861996374
0.00139229973964
0.00261843219409
0.00314000442929
0.00254370710107
0.00110850701127
-0.000152554767179
-0.000299862659009
-0.000338623431259
-0.00123877689108
-0.00245871464044
-0.00349296209915
-0.00379958713054
-0.00317397183248
-0.0017173328296
-0.000735499877386
-0.000428954687438
-0.000326824191819
-0.000216974575563
-6.8726019988e-05
0.000237465941734
0.00110830282596
0.0024254137362
0.00304256923379
0.0025128606341
0.00110385705768
-0.000151958689673
-0.000302070452115
-0.000334395656445
-0.00121976033199
-0.00243051558606
-0.00346212427038
-0.00376757823114
-0.003141182356
-0.00169455242787
-0.000719216834416
-0.000433634736628
-0.000345519542496
-0.000260893100402
-0.00012758336017
0.000167729907498
0.00104592064366
0.00241359607691
0.00306615553244
0.00254753774402
0.00112385692202
-0.000146730548066
-0.000304624752351
-0.000332573926447
-0.00121867182196
-0.00244421733792
-0.00351118012987
-0.00388131337007
-0.00334388699978
-0.00196577381691
-0.000901333553482
-0.0005871821748
-0.000454454307934
-0.00031920947567
-0.000127488263002
0.000229304787047
0.00125351563373
0.00264918125591
0.00325120124752
0.00266013032668
0.00116926036052
-0.000138206470083
-0.00030833113552
-0.000331495740008
-0.00120569179656
-0.00242932103058
-0.00353498433693
-0.00403803116532
-0.00374392863127
-0.00277725780746
-0.0018298773481
-0.00133820518021
-0.00100819835919
-0.000600300964592
-4.4537359519e-05
0.000653075534848
0.00182193942231
0.00306376242374
0.00351354707112
0.00276273007325
0.00117057234582
-0.00016129938274
-0.000315789870253
-0.000327227185825
-0.00113847659489
-0.00228642201711
-0.00338427763359
-0.00400109847898
-0.00396173708461
-0.00335620563544
-0.00258314951553
-0.00193399809139
-0.00132308009191
-0.000631289934229
0.000329663533287
0.00134689068122
0.00248722576664
0.00343277594334
0.00354478646764
0.00256188672816
0.000924175496404
-0.00029938455478
-0.000333437171184
-0.000321447851181
-0.00102483917739
-0.00200073239235
-0.00301361163281
-0.00367372448283
-0.00381477425898
-0.00348030190472
-0.00289065206269
-0.00224909818492
-0.00157973596229
-0.000782247469851
0.000352392448681
0.0014778300088
0.00254229010029
0.00317088661235
0.00294581682052
0.00182407701732
0.000335785562485
-0.000548933229768
-0.000356365293254
-0.000324376030943
-0.000922311490239
-0.00163874321158
-0.00245557428902
-0.00307232483448
-0.00328756125481
-0.00310836254513
-0.00267224372036
-0.00214866869949
-0.00161588734037
-0.00090719415567
6.08053731468e-05
0.00100629386735
0.00180377055223
0.00211575906951
0.00168920405225
0.00064854338536
-0.000428354777688
-0.000786981724722
-0.000368828364256
-0.00032196423251
-0.000884849874138
-0.0013498798479
-0.00186441456162
-0.00232385104275
-0.00254918935742
-0.00249232300083
-0.00223134453604
-0.00190523965539
-0.00162072087831
-0.00111761576257
-0.000523796749014
5.08069415446e-05
0.000492189202446
0.000556850563553
0.00013343819829
-0.000555238247766
-0.00101273274676
-0.000889457388194
-0.000367309049933
-0.000316672639079
-0.000822078438054
-0.00120148850197
-0.00150513866101
-0.00171223277279
-0.00185771432899
-0.00187600695622
-0.00179538275959
-0.00169848087599
-0.00160527102508
-0.00133518141021
-0.0011057346879
-0.000885325068821
-0.000738645226074
-0.000782738885258
-0.00101016253057
-0.00122085642904
-0.00118085657846
-0.000862281007545
-0.000358980707813
-0.000304302287177
-0.000733558311576
-0.0010275770983
-0.00121178796283
-0.0013407591947
-0.00143879570802
-0.0014778684994
-0.00145856670526
-0.00141779991405
-0.00137906471471
-0.00133932225394
-0.0013017505903
-0.00126492170562
-0.00124244335898
-0.00125689890479
-0.00127596019615
-0.00121501655698
-0.00104789251314
-0.00076293109249
-0.000340570554097
-0.000277988029665
-0.000567594048239
-0.000757772138704
-0.000869558046053
-0.000930531888951
-0.000959253396425
-0.000971162510611
-0.000973830581347
-0.000972800006527
-0.000972878531049
-0.000972814146287
-0.000974292047902
-0.000975007752491
-0.000969596318568
-0.000955301024586
-0.000924580228536
-0.000865603802662
-0.000762448255155
-0.000585366684473
-0.000306859387427
-0.000236265778139
-0.000286853911545
-0.000318765982247
-0.000334479608943
-0.000340607341681
-0.000341409480853
-0.000340280598202
-0.000339206113288
-0.000339449547141
-0.000341426354793
-0.000345357447735
-0.000351549165402
-0.000358163038071
-0.000365323380742
-0.000371109845355
-0.000372198726318
-0.000365163986936
-0.00034587231981
-0.000309508555444
-0.000252924347509
-0.000352849348837
-0.000482416809924
-0.000588786481638
-0.000658987018366
-0.000715312495241
-0.000762508780937
-0.000776822406391
-0.00076041240549
-0.000736056029098
-0.000715620975992
-0.000699306801246
-0.000686187189496
-0.000666252871094
-0.000647166934345
-0.000643066184878
-0.000626150130669
-0.000603404128891
-0.000558569134802
-0.000465408623717
-0.000326861019872
-0.000478175375447
-0.000569501737683
-0.000690079348556
-0.000833142765137
-0.000988078460209
-0.00110673862228
-0.00115975830113
-0.00116500168206
-0.00114689171002
-0.00112753722697
-0.00110780326316
-0.00108228153372
-0.00106328518337
-0.0010516646041
-0.00102444960683
-0.00096754526715
-0.000876898129457
-0.000760387732036
-0.000618513462462
-0.00047880639932
-0.000582139005761
-0.000687265799593
-0.000863300720553
-0.00106478285634
-0.00123307523101
-0.00136011734258
-0.00145704134177
-0.00149290399507
-0.00148974164738
-0.00147535677056
-0.00144890927966
-0.00141881210709
-0.00141520177733
-0.00142934269871
-0.00142049836005
-0.00133800554318
-0.0011807707413
-0.000981888249036
-0.000752473798361
-0.000582066458126
-0.000650355966953
-0.000795802988258
-0.000982838166467
-0.00112113217948
-0.00122289560231
-0.00134420007922
-0.0014683808201
-0.00154710835361
-0.00157112225731
-0.00156353125837
-0.00151952291863
-0.00149581917322
-0.00152059399467
-0.00159266401675
-0.00165476043888
-0.00160960038637
-0.00142990473883
-0.00115550558748
-0.000851873234896
-0.000636609143485
-0.000704555700212
-0.000857906369022
-0.000957192041063
-0.00094933323539
-0.000960100069712
-0.00105747452942
-0.00120686701818
-0.0013263681656
-0.00136601755394
-0.00134792481835
-0.00127232724031
-0.00124052043227
-0.00129158952789
-0.00144942241824
-0.00163579163256
-0.0016945285355
-0.00155147848189
-0.00124989119419
-0.000899646100744
-0.000648260836033
-0.000738404183213
-0.000857709396977
-0.00082413728323
-0.000672465963459
-0.000612038442775
-0.000712031671522
-0.000876854899625
-0.000993993957645
-0.000981628582081
-0.000915893124163
-0.000787141954489
-0.000702935291608
-0.000739482759191
-0.00102959047635
-0.00138020609841
-0.00158895525919
-0.00153287726875
-0.00125309359085
-0.000889228481734
-0.00062423775663
-0.000742492880089
-0.000817528935497
-0.000679785429029
-0.000440570867444
-0.000382739648833
-0.000569633570585
-0.000783841734594
-0.000768991117526
-0.000577997244968
-0.000395327516658
-0.000181920762515
2.16321878364e-05
0.000138372214909
-0.000476312790205
-0.00100801895556
-0.00135968104498
-0.00140465076538
-0.00118358196385
-0.00084824412165
-0.000597118035899
-0.000727669467541
-0.000792571186629
-0.000625860612813
-0.000375427472025
-0.000364175214862
-0.000664067571325
-0.000921936613094
-0.000577621760401
-0.000305579482555
-0.000211036849834
-0.000105407678536
6.92101099149e-05
0.000276641898023
7.81267505941e-05
-0.000692086472084
-0.00117240471513
-0.00129545210691
-0.00112427128408
-0.000819382133389
-0.000584514480362
-0.000710907226718
-0.000791489721575
-0.000637428809992
-0.000405553309421
-0.00041925832696
-0.0007301054379
-0.000902888676006
-0.00053920827641
-0.000290744576445
-0.000229406484612
-0.000181731930175
-7.98299771558e-05
8.84332002066e-05
7.12661542535e-05
-0.00061306607934
-0.00111984088355
-0.00126856948584
-0.00111282063358
-0.000815256597354
-0.000582165056977
-0.000696924122161
-0.000791455397162
-0.000644679266887
-0.000419445628589
-0.000445628859918
-0.000781671381321
-0.00099358930544
-0.00065589037704
-0.000413949881457
-0.000355824113803
-0.00032214590373
-0.000239469461422
-7.72667916933e-05
-3.32609942045e-05
-0.000664863348064
-0.00114827608908
-0.00128103748827
-0.00111645908582
-0.000815276416268
-0.000581376937613
-0.000688010789413
-0.000796812892984
-0.000651056491832
-0.000414503758776
-0.000432398113858
-0.000800928590286
-0.00117869791729
-0.000980771027478
-0.00071759273744
-0.000618680043786
-0.000540081516417
-0.000410133272372
-0.000213495477996
-0.000123034106069
-0.000809644940804
-0.00124724842389
-0.00133280179076
-0.00113764157352
-0.000821162567965
-0.00058245500241
-0.000675738273965
-0.000790828389826
-0.000632035152064
-0.000352456988578
-0.000306531248375
-0.000613703972096
-0.00104172528157
-0.00131166269006
-0.00115847844073
-0.00101348040295
-0.000857417309644
-0.000687097282651
-0.000493706416862
-0.000661698486527
-0.00107860258799
-0.00133632683468
-0.00133627840533
-0.00111917060824
-0.000812225580832
-0.000588113114666
-0.000653184035141
-0.000783882703279
-0.000639636836734
-0.000328262486797
-0.000191878879678
-0.000395305218631
-0.000775831801863
-0.00103871421098
-0.00108436002527
-0.0010442496827
-0.000966656867501
-0.000868052722362
-0.000814636156036
-0.000992018685429
-0.00119637623833
-0.00130057690518
-0.00124462922018
-0.00105035366954
-0.000797909927948
-0.000610464304104
-0.000628855334656
-0.000800467358118
-0.00073330937421
-0.000460718844408
-0.000251734959317
-0.000301923608731
-0.000553186962311
-0.000784340462453
-0.000906372843586
-0.000953161445701
-0.000948935876685
-0.000910148211597
-0.000913004044837
-0.00101075250152
-0.00112500862094
-0.00117437650248
-0.00112602165221
-0.00099428009718
-0.000813949144494
-0.000647470366544
-0.000621945150724
-0.00083559927549
-0.000864896605487
-0.00070236258522
-0.000495452350935
-0.000431189532858
-0.000536018853825
-0.000681368389654
-0.000782759939899
-0.000847386837368
-0.000866095749389
-0.000849822456328
-0.00085583292575
-0.00091051873011
-0.000991027525206
-0.00104224960003
-0.00104191736751
-0.000987388422575
-0.000855769765795
-0.000674986832659
-0.000615305421585
-0.000863538383084
-0.000984680336925
-0.000939877793703
-0.000816545504928
-0.000718751134413
-0.000719895984122
-0.000771625147603
-0.00081607788478
-0.000857950428415
-0.000859189439512
-0.00084684010222
-0.000842267631194
-0.000870534005614
-0.000934870432779
-0.00100130986645
-0.00105031806534
-0.00103859942548
-0.000885870328345
-0.000669385275194
-0.000596419171857
-0.000839341894742
-0.0010300176617
-0.00110000132182
-0.00105631389452
-0.000999071779541
-0.000975464493157
-0.0009795405386
-0.000988195730306
-0.000993931358687
-0.000977574633888
-0.000965203079829
-0.000953579114132
-0.000964570360717
-0.00101585444331
-0.0010866145805
-0.00112515674572
-0.0010589179547
-0.000858883930793
-0.000638677647529
-0.000549860773723
-0.000763523820486
-0.000940453507236
-0.00106193495176
-0.00111894723784
-0.00112600899585
-0.00111887908355
-0.00111545034099
-0.00111216437379
-0.00110852933506
-0.00110462446052
-0.00110088723193
-0.0010960017331
-0.00109935884005
-0.00111823763604
-0.00112699737101
-0.00107820526158
-0.000959169388036
-0.000771676197746
-0.000579122521291
-0.000458774261936
-0.000622600470873
-0.000758658350664
-0.000849011646766
-0.000903085334765
-0.000932121934523
-0.000945921905258
-0.00095124247426
-0.000952837136119
-0.000953786249407
-0.000954849730222
-0.000956516743148
-0.000957504393204
-0.000954870668609
-0.000943680424863
-0.000916752094168
-0.000864275614464
-0.000773680655483
-0.000630996216049
-0.000478346351448
-0.00032560669375
-0.000481955268754
-0.000589622403557
-0.000654560638853
-0.000690119698909
-0.000706746503976
-0.00071349508202
-0.000714602217869
-0.000712971202325
-0.000711886703606
-0.000711712925558
-0.000711190717637
-0.000711211573354
-0.000708846654572
-0.000701878751398
-0.000684508115593
-0.000650454087101
-0.000588976909524
-0.000485650476087
-0.000332800449189
-0.000390799347156
-0.000594673630943
-0.000769856375867
-0.000889142210179
-0.000981194041389
-0.00105229878617
-0.00107680541476
-0.00106122615105
-0.00103346676799
-0.00101249477199
-0.000999724463727
-0.000987907766993
-0.00097043472556
-0.000957529320215
-0.000952533266119
-0.000925395931883
-0.000871828917107
-0.000788747777455
-0.000629691811093
-0.00039543337369
-0.000586371664365
-0.000724468237938
-0.000867154845866
-0.00104405492347
-0.00122772560731
-0.00135635103295
-0.00140546135411
-0.00139754951968
-0.00136725755421
-0.00133707564578
-0.00130908015257
-0.00128824434974
-0.00126784613747
-0.00124926146037
-0.00121116778102
-0.00113717178903
-0.00102411009385
-0.000883786376151
-0.00072591980322
-0.000643512141606
-0.00075637975521
-0.000863641254595
-0.00105285370945
-0.00129729196004
-0.00150749747588
-0.00164848825364
-0.00171629591521
-0.00171040440712
-0.00167191845387
-0.00163061173832
-0.00159123398121
-0.00155917499258
-0.00154332051554
-0.00153713801697
-0.00150701476333
-0.00142087094877
-0.00127111408567
-0.00107608491157
-0.00085669132008
-0.000817439581535
-0.000872011985062
-0.00100617980787
-0.00123099295003
-0.00145669835846
-0.0016330438437
-0.00175762539829
-0.00181371970884
-0.00180467796839
-0.00175441147898
-0.00169448674989
-0.00163457486132
-0.00159348736026
-0.00158886494586
-0.00161541115997
-0.00163355760247
-0.00158419557485
-0.00143985771799
-0.00121689016637
-0.000961688286
-0.000918501495572
-0.000954425498199
-0.00111023160689
-0.00130017476657
-0.00144595935017
-0.00155560176548
-0.00163156767573
-0.00166692415139
-0.00165810046571
-0.00157522849715
-0.00147631341192
-0.00137708188788
-0.00131683997726
-0.001327725274
-0.00141044299242
-0.00151675154947
-0.00155655078251
-0.00146364161318
-0.00125660620731
-0.00100346568086
-0.000962523500971
-0.000995038992202
-0.00114429650834
-0.00126385443988
-0.00131906789318
-0.00136443170598
-0.00141102848257
-0.00143435565751
-0.00143245429835
-0.00123505397492
-0.00104236845537
-0.00086373781493
-0.000745088996589
-0.000751155011502
-0.000973218432076
-0.00120587342717
-0.00136691763044
-0.00135815909012
-0.00119865799236
-0.000974152435489
-0.000954289465573
-0.000994985537122
-0.00111864115375
-0.00117265398602
-0.00116483361169
-0.00120177167659
-0.00130549016695
-0.00142891327885
-0.00145635379959
-0.000856814513082
-0.000310346854483
4.72488711566e-05
0.00033393781629
0.000571347875306
-0.000440141111975
-0.000847510992485
-0.00110858648256
-0.00118099711852
-0.00108553491272
-0.000911367172861
-0.000928031249547
-0.000973540435158
-0.0010894524581
-0.00112387800759
-0.00110459880621
-0.00116949530713
-0.00138500560769
-0.0016862679591
-0.000725657800667
0.000382657692096
0.000738588947763
0.000934931291042
0.00123792749552
0.00212911497355
0.000541483155264
-0.00056972134451
-0.000931989912712
-0.00106375426195
-0.0010127971855
-0.000872070138638
-0.000911486108853
-0.000951378239781
-0.00107991209376
-0.00112639163817
-0.00111989725247
-0.00119726988929
-0.00140065241575
-0.00154596895028
-0.000889880242793
-0.000150588385228
-5.88929595076e-05
-2.90621133464e-05
8.50372909557e-05
0.000721832936077
0.000420900208015
-0.000473646880851
-0.000881541753367
-0.00103939510463
-0.00100091949979
-0.000865853418183
-0.000906069593377
-0.000933553182729
-0.00107234640264
-0.00112863935659
-0.00113027060087
-0.00121928857266
-0.00144684246153
-0.00165946400918
-0.00116034531658
-0.000453150764771
-0.000411775444146
-0.000431758801865
-0.000366950856085
0.000208946604173
0.000226085087129
-0.000527493712199
-0.000907122796696
-0.00104982702328
-0.00100292319272
-0.000864646160945
-0.000904232237293
-0.00092392501158
-0.00107105799714
-0.00113417909102
-0.00113513322977
-0.00122371095451
-0.0014783009132
-0.00197915546465
-0.00232006123675
-0.00145072519925
-0.00138422038812
-0.00136673110359
-0.00125025378825
-0.000541330139215
9.38554002102e-05
-0.000670220184481
-0.000993337793331
-0.00109306988714
-0.00102014358701
-0.000869904099555
-0.000906218709451
-0.0009139107102
-0.00104703796938
-0.00109572618774
-0.00107074827056
-0.00112345114699
-0.00131280183561
-0.00152690293839
-0.00198775169165
-0.00170250356921
-0.00144282137692
-0.00118320421791
-0.000939695957697
-0.000420713456455
-0.000439299080976
-0.000859971914259
-0.00105140507535
-0.00108583700712
-0.000998762371232
-0.000859753739068
-0.000911629598896
-0.000898181940655
-0.000999792565243
-0.0010258562945
-0.000964584430285
-0.000962282310818
-0.00110044673405
-0.00127102588545
-0.00132489765804
-0.00127279125904
-0.00113151339854
-0.000970500844379
-0.000799382308984
-0.000621116014487
-0.000797794901268
-0.000948808219287
-0.00101489292641
-0.00101010816593
-0.000945340767208
-0.000850074807125
-0.000930565906328
-0.00088779438064
-0.000969463293104
-0.000993589157482
-0.000919460729108
-0.000859157994375
-0.000900804879458
-0.00100416191105
-0.0010525002869
-0.00104594731327
-0.000991056033855
-0.000910345395387
-0.000834133334379
-0.000780872923555
-0.00083943026358
-0.000899314076278
-0.000936873946082
-0.000948169197301
-0.000930652812101
-0.000880637606793
-0.000962921549715
-0.000893646699859
-0.000972925982174
-0.00100398246986
-0.000946961200309
-0.000856744476666
-0.000820049189476
-0.000844946423523
-0.00087226693096
-0.000873929234327
-0.000853805205045
-0.000814085467359
-0.000780969200564
-0.000762199872461
-0.000781541739132
-0.000827628937611
-0.000884970785048
-0.000939850023002
-0.000971488669297
-0.000942659571591
-0.000985916730865
-0.000888740580033
-0.000986448220627
-0.00105627447395
-0.00102511609567
-0.000949344761098
-0.000877292872891
-0.000848905236089
-0.000846055510841
-0.000840447023087
-0.000825365930716
-0.000805889213938
-0.000790135023644
-0.000780389049616
-0.000793315951407
-0.000844767737994
-0.000926030197595
-0.00101487672964
-0.00106304122646
-0.000986785405317
-0.00096746213498
-0.000855994026957
-0.000960284481445
-0.00108796030464
-0.00112258159882
-0.00107794714724
-0.0010200620643
-0.000983784677947
-0.000969519140774
-0.000955396407406
-0.000943855771806
-0.000933768553259
-0.000926198658319
-0.000919878112661
-0.000931372803554
-0.000983955256704
-0.00106875913348
-0.00113848378099
-0.00111220541015
-0.000963960843434
-0.000910256553111
-0.000775061737858
-0.00087366649092
-0.00100869216
-0.00110756344585
-0.00114655243226
-0.00113554879495
-0.00111604252498
-0.00110836785425
-0.00110528976107
-0.00110238703183
-0.0011014314942
-0.00110228610819
-0.00110323338976
-0.00111331647516
-0.00114275420357
-0.00116731389936
-0.00113466760697
-0.00103039626161
-0.0008732859848
-0.000806604785765
-0.000619209805728
-0.000724447670415
-0.00084801573041
-0.000936784459087
-0.000991483118337
-0.00102090291597
-0.00103421768741
-0.00103906855773
-0.00104052185383
-0.00104187373298
-0.00104454239788
-0.00104893058989
-0.00105362973234
-0.00105511437981
-0.00104725309954
-0.00102174280692
-0.000968090783577
-0.000874275012572
-0.000733171635191
-0.000638032150971
-0.000394632974953
-0.00065024867663
-0.000832512410077
-0.000946674590316
-0.00101309259791
-0.0010464548435
-0.00106088684545
-0.0010654939199
-0.00106447664624
-0.00106265820071
-0.00106049915175
-0.00105822293147
-0.00105389607155
-0.00104559951306
-0.00102659566989
-0.000989892872864
-0.000925819810466
-0.000818631619831
-0.000647709779022
-0.000406422110433
-0.000403576071184
-0.000654687092827
-0.000880054687296
-0.00103756106321
-0.00115872409706
-0.00124933380896
-0.0012808243369
-0.00126399018279
-0.00123278929895
-0.00121152586254
-0.00120102340516
-0.00120655655267
-0.00119520586604
-0.00118916915996
-0.00118600202523
-0.00114587793958
-0.00107102481316
-0.000957252841859
-0.000743258085165
-0.000432222701041
-0.000643677044175
-0.000828280308257
-0.000994949266928
-0.00120049535996
-0.00140670481365
-0.00154256540555
-0.0015862316595
-0.00157147071209
-0.00153872252049
-0.00150760842862
-0.00148164820113
-0.00146560410677
-0.00144968365315
-0.00142739298968
-0.00137704238855
-0.00128596190778
-0.00115243632163
-0.00099219620276
-0.000817270069539
-0.000756620594717
-0.000861489046371
-0.000990679426832
-0.00120004485334
-0.00147757478861
-0.00171143821566
-0.00185171285304
-0.00189519422431
-0.0018673641444
-0.00181865168825
-0.0017725415306
-0.00173206540479
-0.00170912008258
-0.00169423959344
-0.00167505216522
-0.00162101465323
-0.00151933517205
-0.00136411969679
-0.00116678457063
-0.000950932171361
-0.000989126220961
-0.00101370803101
-0.00116413254243
-0.00142250951322
-0.00170019638723
-0.00190972983075
-0.00202151377761
-0.00202915668596
-0.0019761448873
-0.00189913105598
-0.00182743380286
-0.00177312660416
-0.0017342529184
-0.00172423646258
-0.00171924560167
-0.00169235468461
-0.00162103584458
-0.00148458882942
-0.00128734561231
-0.00106175995007
-0.00113112212679
-0.00112193168746
-0.00129978802986
-0.00154762272358
-0.00177692945736
-0.00192674110736
-0.00197211955636
-0.00193559076687
-0.00187088591957
-0.00173548221092
-0.00161789987165
-0.00153268243994
-0.00148183721477
-0.00148953447199
-0.00151071442782
-0.00153511904786
-0.00153258144481
-0.00145191794469
-0.00129594025092
-0.00110242726848
-0.00120410636793
-0.0011761656834
-0.00135354276569
-0.00155982801077
-0.00172319632616
-0.00180704361712
-0.0017987265959
-0.00174618116125
-0.00179992402538
-0.0015034719759
-0.00129556686463
-0.00116656000975
-0.00108962283617
-0.0011001314032
-0.00113282969509
-0.00122588522751
-0.00130525061544
-0.00129809532696
-0.00120405542184
-0.00106482201974
-0.00120998165897
-0.00117975184764
-0.00133205260961
-0.00148902213744
-0.00159745409053
-0.00165364890607
-0.00164118151825
-0.00158203309309
-0.0019143402959
-0.000791836087908
-0.000495234192719
-0.000314285298037
-5.74504329904e-05
0.000106735352382
-0.000840472744238
-0.000926220015045
-0.00104726485839
-0.00109624369861
-0.00106643775142
-0.000991067117282
-0.00118525611499
-0.00115676440685
-0.00129776500902
-0.00143679645171
-0.00152958495701
-0.00158954571469
-0.00159028926415
-0.001678487222
0.00100176834906
-0.000756066627659
-0.000897637140615
-0.000978485556946
-0.000986083491088
-0.000945802116046
-0.00116615907782
-0.00113282999498
-0.00128224614606
-0.0014301612021
-0.00152950467041
-0.00159209397969
-0.00160328084032
-0.001869530735
-2.62120106791e-05
-0.000672208646214
-0.000853241654592
-0.000957709747569
-0.000974764849424
-0.00093899310801
-0.00115896444572
-0.00111400908249
-0.00126936612238
-0.00142590468167
-0.00153210961704
-0.00160591652227
-0.00166063557381
-0.00220610125552
-0.000621437265646
-0.000744253900586
-0.000876584132075
-0.000965947077503
-0.000975810334319
-0.000937915322524
-0.00115718886366
-0.00110636877171
-0.00126419536395
-0.00142901212232
-0.00154041917108
-0.00162455935015
-0.00174370317509
-0.00343929826732
-0.00161443834669
-0.000906943331452
-0.000944772625409
-0.000999263371611
-0.000989925559435
-0.000944022896099
-0.0011617859362
-0.00110009850007
-0.00123085152636
-0.0013780218091
-0.00147330613041
-0.00154681959211
-0.00161364413189
-0.00151915182549
-0.00288160844247
-0.00227369483654
-0.00201817107872
-0.00190716306239
-0.00173613755727
-0.00113056616842
-0.000603346740125
-0.000861424767564
-0.000945153005271
-0.000973127723165
-0.000962896700099
-0.000932886598773
-0.00116867477619
-0.00108888494372
-0.00116488093899
-0.00126723016167
-0.00132270646272
-0.00136710029846
-0.00143219477248
-0.00141037620374
-0.0011998789095
-0.00116555391533
-0.00103285823914
-0.000886060998184
-0.000745874733061
-0.000513718663919
-0.000740527305693
-0.000856064491913
-0.000877809131584
-0.000893703425103
-0.000913376520755
-0.000924580820441
-0.00118616876636
-0.00108541448705
-0.0011146303997
-0.00117411815437
-0.0011874359944
-0.00118528936621
-0.00119679333145
-0.00119328378799
-0.00110506570313
-0.001055389073
-0.000977168273436
-0.00088379330839
-0.000804848172986
-0.000727201921164
-0.000773767899355
-0.000792671968166
-0.000812074237331
-0.000859145044393
-0.000921693652305
-0.000964222616502
-0.00121547034835
-0.00109874490163
-0.00110384662408
-0.00112893874601
-0.00111257423044
-0.00106479430772
-0.00102249783721
-0.000988684460307
-0.000948734961469
-0.000914291973192
-0.000869285279802
-0.00081576259861
-0.000775202583453
-0.000742947652367
-0.000736858263741
-0.000751034491168
-0.00080697791138
-0.000900100100878
-0.000996206674522
-0.00104275248913
-0.00123216929983
-0.00109472991984
-0.00110928910886
-0.00114953557382
-0.00111866804108
-0.00105409423173
-0.00098070758409
-0.000924817149573
-0.00089211104868
-0.000869990274713
-0.000838545953501
-0.000815993350976
-0.000798668450476
-0.000785828939363
-0.000784656591933
-0.000820457507456
-0.000908967821109
-0.00102802974211
-0.00112262202774
-0.00109883032869
-0.001199973003
-0.00104936210071
-0.00107730221096
-0.00117234535313
-0.00118929802311
-0.00113740962652
-0.00107149176312
-0.00102081048072
-0.000992266115325
-0.000978070942383
-0.000967043351164
-0.000959640774334
-0.000955361909475
-0.00095267512846
-0.00096167061382
-0.00101071990874
-0.00110410706898
-0.00119607973819
-0.00119511905929
-0.0010753727642
-0.00111829516319
-0.000939108522145
-0.00097792105402
-0.0010917413985
-0.00118099543452
-0.00121423747871
-0.00119525886072
-0.00116848623433
-0.00115812621912
-0.00115615042568
-0.00115528114557
-0.00115725361844
-0.00116192571024
-0.00116724719892
-0.00118064198579
-0.00121448361093
-0.0012465471257
-0.00122133181
-0.00112094600164
-0.000975626949067
-0.000975562406072
-0.000729745380575
-0.000814005108941
-0.000936517750285
-0.00102929079916
-0.00108844339465
-0.00112116952341
-0.0011364219975
-0.00114239559107
-0.00114483570775
-0.00114768003034
-0.0011526943013
-0.0011600492396
-0.00116799288017
-0.00117205344377
-0.00116521866357
-0.00113783860226
-0.00107855875938
-0.000975682615653
-0.000825883233559
-0.000747763406246
-0.000431324496954
-0.000766093047409
-0.00101047017031
-0.00116670808864
-0.00126039756545
-0.00130976280292
-0.00133141856361
-0.00133901910594
-0.00133862655245
-0.00133690423481
-0.00133390746831
-0.00133048926439
-0.00132416487974
-0.0013097278032
-0.00128123042413
-0.00122758530618
-0.00113568231171
-0.000987895771776
-0.000757644067892
-0.000446673989258
-0.000406349850937
-0.000679080139192
-0.000935966453012
-0.00112113094999
-0.00126741291842
-0.00137557665011
-0.00141276237868
-0.00139364659327
-0.00135970337534
-0.00133783750865
-0.00133100094377
-0.00134035006446
-0.00135583766111