/*--------------------------------*- C++ -*----------------------------------*\
| =========                 |                                                 |
| \\      /  F ield         | OpenFOAM: The Open Source CFD Toolbox           |
|  \\    /   O peration     | Version:  v1606+                                |
|   \\  /    A nd           | Web:      www.OpenFOAM.com                      |
|    \\/     M anipulation  |                                                 |
\*---------------------------------------------------------------------------*/
FoamFile
{
    version     2.0;
    format      ascii;
    class       pointVectorField;
    location    "3.7";
    object      pointDisplacement;
}
// * * * * * * * * * * * * * * * * * * * * * * * * * * * * * * * * * * * * * //

dimensions      [0 1 0 0 0 0 0];

internalField   nonuniform List<vector> 
13461
(
(0 0 0)
(0 0 0)
(0 0 0)
(0 0 0)
(0 0 0)
(0 0 0)
(0 0 0)
(0 0 0)
(0 0 0)
(0 0 0)
(0 0 0)
(0 0 0)
(0 0 0)
(0 0 0)
(0 0 0)
(0 0 0)
(0 0 0)
(0 0 0)
(0 0 0)
(0 0 0)
(0 0 0)
(0 0 0)
(0 0 0)
(0 0 0)
(0 0 0)
(0 0 0)
(0 0 0)
(0 0 0)
(0 0 0)
(0 0 0)
(0 0 0)
(0 0 0)
(0 0 0)
(0 0 0)
(0 0 0)
(0 0 0)
(0 0 0)
(0 0 0)
(0 0 0)
(0 0 0)
(0 0 0)
(0 0 0)
(0 0 0)
(0 0 0)
(0 0 0)
(0 0 0)
(0 0 0)
(0 0 0)
(0 0 0)
(0 0 0)
(0 0 0)
(0 0 0)
(0 0 0)
(0 0 0)
(0 0 0)
(0 0 0)
(0 0 0)
(0 0 0)
(0 0 0)
(0 0 0)
(0 0 0)
(0 0 0)
(0 0 0)
(0 0 0)
(0 0 0)
(0 0 0)
(0 0 0)
(0 0 0)
(0 0 0)
(0 0 0)
(0 0 0)
(0 0 0)
(0 0 0)
(0 0 0)
(0 0 0)
(0 0 0)
(0 0 0)
(0 0 0)
(0 0 0)
(0 0 0)
(0 0 0)
(0 0 0)
(0 0 0)
(0 0 0)
(0 0 0)
(0 0 0)
(0 0 0)
(0 0 0)
(0 0 0)
(0 0 0)
(0 0 0)
(0 0 0)
(0 0 0)
(0 0 0)
(0 0 0)
(0 0 0)
(0 0 0)
(0 0 0)
(0 0 0)
(0 0 0)
(0 0 0)
(0 0 0)
(0 0 0)
(0 0 0)
(0 0 0)
(0 0 0)
(0 0 0)
(0 0 0)
(0 0 0)
(0 0 0)
(0 0 0)
(0 0 0)
(0 0 0)
(0 0 0)
(0 0 0)
(0 0 0)
(0 0 0)
(0 0 0)
(0 0 0)
(0 0 0)
(0 0 0)
(0 0 0)
(0 0 0)
(0 0 0)
(0 0 0)
(0 0 0)
(0 0 0)
(0 0 0)
(0 0 0)
(0 0 0)
(0 0 0)
(0 0 0)
(0 0 0)
(0 0 0)
(0 0 0)
(0 0 0)
(0 0 0)
(0 0 0)
(0 0 0)
(0 0 0)
(0 0 0)
(0 0 0)
(0 0 0)
(0 0 0)
(0 0 0)
(0 0 0)
(0 0 0)
(0 0 0)
(0 0 0)
(0 0 0)
(0 0 0)
(0 0 0)
(0 0 0)
(0 0 0)
(0 0 0)
(0 0 0)
(0 0 0)
(0 0 0)
(0 0 0)
(0 0 0)
(0 0 0)
(0 0 0)
(0 0 0)
(0 0 0)
(0 0 0)
(0 0 0)
(0 0 0)
(0 0 0)
(0 0 0)
(0 0 0)
(0 0 0)
(0 0 0)
(0 0 0)
(0 0 0)
(0 0 0)
(0 0 0)
(0 0 0)
(0 0 0)
(0 0 0)
(0 0 0)
(0 0 0)
(0 0 0)
(0 0 0)
(0 0 0)
(0 0 0)
(0 0 0)
(0 0 0)
(0 0 0)
(0 0 0)
(0 0 0)
(0 0 0)
(0 0 0)
(0 0 0)
(0 0 0)
(0 0 0)
(0 0 0)
(0 0 0)
(0 0 0)
(0 0 0)
(0 0 0)
(0 0 0)
(0 0 0)
(0 0 0)
(0 0 0)
(0 0 0)
(0 0 0)
(0 0 0)
(0 0 0)
(0 0 0)
(0 0 0)
(0 0 0)
(0 0 0)
(0 0 0)
(0 0 0)
(0 0 0)
(0 0 0)
(0 0 0)
(0 0 0)
(0 0 0)
(0 0 0)
(0 0 0)
(0 0 0)
(0 0 0)
(0 0 0)
(0 0 0)
(0 0 0)
(0 0 0)
(0 0 0)
(0 0 0)
(0 0 0)
(0 0 0)
(0 0 0)
(0 0 0)
(0 0 0)
(0 0 0)
(0 0 0)
(0 0 0)
(0 0 0)
(0 0 0)
(0 0 0)
(0 0 0)
(0 0 0)
(0 0 0)
(0 0 0)
(0 0 0)
(0 0 0)
(0 0 0)
(0 0 0)
(0 0 0)
(0 0 0)
(0 0 0)
(0 0 0)
(0 0 0)
(0 0 0)
(0 0 0)
(0 0 0)
(0 0 0)
(0 0 0)
(0 0 0)
(0 0 0)
(0 0 0)
(0 0 0)
(0 0 0)
(0 0 0)
(0 0 0)
(0 0 0)
(0 0 0)
(0 0 0)
(0 0 0)
(0 0 0)
(0 0 0)
(0 0 0)
(0 0 0)
(0 0 0)
(0 0 0)
(0 0 0)
(0 0 0)
(0 0 0)
(0 0 0)
(0 0 0)
(0 0 0)
(0 0 0)
(0 0 0)
(0 0 0)
(0 0 0)
(0 0 0)
(0 0 0)
(0 0 0)
(0 0 0)
(0 0 0)
(0 0 0)
(0 0 0)
(0 0 0)
(0 0 0)
(0 0 0)
(0 0 0)
(0 0 0)
(0 0 0)
(0 0 0)
(0 0 0)
(0 0 0)
(0 0 0)
(0 0 0)
(0 0 0)
(0 0 0)
(0 0 0)
(0 0 0)
(0 0 0)
(0 0 0)
(0 0 0)
(0 0 0)
(0 0 0)
(0 0 0)
(0 0 0)
(0 0 0)
(0 0 0)
(0 0 0)
(0 0 0)
(0 0 0)
(0 0 0)
(0 0 0)
(0 0 0)
(0 0 0)
(0 0 0)
(0 0 0)
(0 0 0)
(0 0 0)
(0 0 0)
(0 0 0)
(0 0 0)
(0 0 0)
(0 0 0)
(0 0 0)
(0 0 0)
(0 0 0)
(0 0 0)
(0 0 0)
(0 0 0)
(0 0 0)
(0 0 0)
(0 0 0)
(0 0 0)
(0 0 0)
(0 0 0)
(0 0 0)
(0 0 0)
(0 0 0)
(0 0 0)
(0 0 0)
(0 0 0)
(0 0 0)
(0 0 0)
(0 0 0)
(0 0 0)
(0 0 0)
(0 0 0)
(0 0 0)
(0 0 0)
(0 0 0)
(0 0 0)
(0 0 0)
(0 0 0)
(0 0 0)
(0 0 0)
(0 0 0)
(0 0 0)
(0 0 0)
(0 0 0)
(0 0 0)
(0 0 0)
(0 0 0)
(0 0 0)
(0 0 0)
(0 0 0)
(0 0 0)
(0 0 0)
(0 0 0)
(0 0 0)
(0 0 0)
(0 0 0)
(0 0 0)
(0 0 0)
(0 0 0)
(0 0 0)
(0 0 0)
(0 0 0)
(0 0 0)
(0 0 0)
(0 0 0)
(0 0 0)
(0 0 0)
(0 0 0)
(0 0 0)
(0 0 0)
(0 0 0)
(0 0 0)
(0 0 0)
(0 0 0)
(0 0 0)
(0 0 0)
(0 0 0)
(0 0 0)
(0 0 0)
(0 0 0)
(0 0 0)
(0 0 0)
(0 0 0)
(0 0 0)
(0 0 0)
(0 0 0)
(0 0 0)
(0 0 0)
(0 0 0)
(0 0 0)
(0 0 0)
(0 0 0)
(0 0 0)
(0 0 0)
(0 0 0)
(0 0 0)
(0 0 0)
(0 0 0)
(0 0 0)
(0 0 0)
(0 0 0)
(0 0 0)
(0 0 0)
(0 0 0)
(0 0 0)
(0 0 0)
(0 0 0)
(0 0 0)
(0 0 0)
(0 0 0)
(0 0 0)
(0 0 0)
(0 0 0)
(0 0 0)
(0 0 0)
(0 0 0)
(0 0 0)
(0 0 0)
(0 0 0)
(0 0 0)
(0 0 0)
(0 0 0)
(0 0 0)
(0 0 0)
(0 0 0)
(0 0 0)
(0 0 0)
(0 0 0)
(0 0 0)
(0 0 0)
(0 0 0)
(0 0 0)
(0 0 0)
(0 0 0)
(0 0 0)
(0 0 0)
(0 0 0)
(0 0 0)
(0 0 0)
(0 0 0)
(0 0 0)
(0 0 0)
(-5.57036465565e-08 -1.97518737119e-05 2.50204874014e-07)
(-6.17937336911e-07 -0.000219123776681 2.31307716939e-06)
(-1.27344909046e-06 -0.000451593304297 3.81355442637e-06)
(-1.5490242018e-06 -0.000549325464659 3.47903255025e-06)
(-1.54903765426e-06 -0.000549325464659 2.31918727651e-06)
(-1.54905110666e-06 -0.000549325464659 1.15934200279e-06)
(-1.54906455907e-06 -0.000549325464659 -5.03270931873e-10)
(-1.54907801131e-06 -0.000549325464659 -1.16034854467e-06)
(-1.54909146388e-06 -0.000549325464659 -2.32019381839e-06)
(-1.54910491634e-06 -0.000549325464659 -3.48003909212e-06)
(-1.27352182244e-06 -0.000451593304297 -3.81439502579e-06)
(-6.17958742288e-07 -0.000219123776681 -2.31350020803e-06)
(-5.57038551952e-08 -1.97518737119e-05 -2.5024417883e-07)
(0 0 0)
(0 0 0)
(0 0 0)
(0 0 0)
(0 0 0)
(0 0 0)
(0 0 0)
(-4.54267180233e-07 -0.000161084095963 2.38063278495e-06)
(-2.18958576481e-06 -0.000776550611674 9.83696423141e-06)
(-4.34196968438e-06 -0.00154016734881 1.6258355521e-05)
(-6.03353410572e-06 -0.00214042508756 1.80757118149e-05)
(-6.6670952098e-06 -0.00236521315962 1.49801986156e-05)
(-6.66734460109e-06 -0.00236521315962 9.9862897643e-06)
(-6.66759399232e-06 -0.00236521315962 4.99238091296e-06)
(-6.66784338355e-06 -0.00236521315962 -1.52793837999e-09)
(-6.66809277494e-06 -0.00236521315962 -4.99543678971e-06)
(-6.66834216612e-06 -0.00236521315962 -9.98934564105e-06)
(-6.6685915574e-06 -0.00236521315962 -1.49832544924e-05)
(-6.03516802544e-06 -0.00214042508756 -1.80786204072e-05)
(-4.34302717489e-06 -0.00154016734881 -1.62607234967e-05)
(-2.18990836276e-06 -0.000776550611674 -9.83833461325e-06)
(-4.5428337514e-07 -0.000161084095963 -2.38094655508e-06)
(0 0 0)
(0 0 0)
(0 0 0)
(0 0 0)
(0 0 0)
(-4.54266023547e-07 -0.000161084095963 2.72074559495e-06)
(-2.95365692149e-06 -0.00104762252715 1.54827624645e-05)
(-6.66634703606e-06 -0.00236521315962 2.99619251696e-05)
(-1.03673859845e-05 -0.00367934749918 3.88411965188e-05)
(-1.30183627101e-05 -0.00462086411932 3.90245175723e-05)
(-1.39730912244e-05 -0.00495972780299 3.1414603465e-05)
(-1.39741878449e-05 -0.00495972780299 2.09426388833e-05)
(-1.39752844653e-05 -0.00495972780299 1.04706743016e-05)
(-1.39763810857e-05 -0.00495972780299 -1.29028007723e-09)
(-1.39774777064e-05 -0.00495972780299 -1.04732548618e-05)
(-1.39785743267e-05 -0.00495972780299 -2.09452194435e-05)
(-1.39796709472e-05 -0.00495972780299 -3.14171840251e-05)
(-1.30259778351e-05 -0.00462086411932 -3.90273874727e-05)
(-1.03734210539e-05 -0.00367934749918 -3.88445119561e-05)
(-6.66933973126e-06 -0.00236521315962 -2.99649810464e-05)
(-2.95434190223e-06 -0.00104762252715 -1.54845267022e-05)
(-4.54284531659e-07 -0.000161084095963 -2.72105936509e-06)
(0 0 0)
(0 0 0)
(0 0 0)
(-5.57035944107e-08 -1.97518737119e-05 3.75317137223e-07)
(-2.18953199849e-06 -0.000776550611674 1.31161807055e-05)
(-6.66609764477e-06 -0.00236521315962 3.4955834021e-05)
(-1.20978384219e-05 -0.00429439734621 5.44015769725e-05)
(-1.7030842391e-05 -0.00604758275598 6.38437070778e-05)
(-2.03597592514e-05 -0.00723087158692 6.10695813422e-05)
(-2.15190008772e-05 -0.00764235445538 4.84092388155e-05)
(-2.15216046014e-05 -0.00764235445538 3.2273179025e-05)
(-2.15242083258e-05 -0.00764235445538 1.61371192346e-05)
(-2.15268120502e-05 -0.00764235445538 1.05944415046e-09)
(-2.15294157744e-05 -0.00764235445538 -1.61350003463e-05)
(-2.15320194987e-05 -0.00764235445538 -3.22710601367e-05)
(-2.15346232231e-05 -0.00764235445538 -4.84071199272e-05)
(-2.03784063785e-05 -0.00723087158692 -6.10684609661e-05)
(-1.70471467711e-05 -0.00604758275598 -6.38448974498e-05)
(-1.21077040864e-05 -0.00429439734621 -5.44046610578e-05)
(-6.66958912243e-06 -0.00236521315962 -3.49588898977e-05)
(-2.18996212908e-06 -0.000776550611674 -1.31175510874e-05)
(-5.57039074867e-08 -1.97518737119e-05 -3.75356442039e-07)
(0 0 0)
(0 0 0)
(-6.17928774781e-07 -0.000219123776681 4.16370812036e-06)
(-4.34165243718e-06 -0.00154016734881 2.60140792263e-05)
(-1.03661789706e-05 -0.00367934749918 5.43783382138e-05)
(-1.7029211953e-05 -0.00604758275598 7.66125675306e-05)
(-2.2687263361e-05 -0.00806000635178 8.50910654499e-05)
(-2.62471676281e-05 -0.00932614598945 7.87684880838e-05)
(-2.74141969451e-05 -0.00974020657576 6.17007740377e-05)
(-2.74184263278e-05 -0.00974020657576 4.11353115364e-05)
(-2.74226557105e-05 -0.00974020657576 2.0569849035e-05)
(-2.74268850932e-05 -0.00974020657576 4.38653360857e-09)
(-2.74311144759e-05 -0.00974020657576 -2.05610759678e-05)
(-2.74353438585e-05 -0.00974020657576 -4.11265384691e-05)
(-2.74395732411e-05 -0.00974020657576 -6.16920009705e-05)
(-2.62781871465e-05 -0.00932614598945 -7.87612354075e-05)
(-2.27162242186e-05 -0.00806000635178 -8.50878302156e-05)
(-1.70487772091e-05 -0.00604758275598 -7.66137579026e-05)
(-1.03746280679e-05 -0.00367934749918 -5.43816536511e-05)
(-4.34334442212e-06 -0.00154016734881 -2.6016447202e-05)
(-6.17967304328e-07 -0.000219123776681 -4.16413115899e-06)
(0 0 0)
(0 0 0)
(-1.27340363289e-06 -0.000451593304297 8.58102283396e-06)
(-6.03271714583e-06 -0.00214042508756 3.61528779259e-05)
(-1.30155070381e-05 -0.00462086411932 6.82939819642e-05)
(-2.03550974695e-05 -0.00723087158692 9.16040919193e-05)
(-2.62432901882e-05 -0.00932614598945 9.84597035203e-05)
(-2.95851545526e-05 -0.0105149720533 8.88111515221e-05)
(-3.05210544088e-05 -0.0108465375058 6.87107725044e-05)
(-3.05262991359e-05 -0.0108465375058 4.58094041299e-05)
(-3.05315438629e-05 -0.0108465375058 2.29080357554e-05)
(-3.05367885899e-05 -0.0108465375058 6.66738093902e-09)
(-3.05420333171e-05 -0.0108465375058 -2.28947009935e-05)
(-3.0547278044e-05 -0.0108465375058 -4.5796069368e-05)
(-3.05525227711e-05 -0.0108465375058 -6.86974377425e-05)
(-2.96245863776e-05 -0.0105149720533 -8.87992601463e-05)
(-2.62820645864e-05 -0.00932614598945 -9.8452450844e-05)
(-2.03830681604e-05 -0.00723087158692 -9.16029715432e-05)
(-1.3028833507e-05 -0.00462086411932 -6.82968518646e-05)
(-6.03598498528e-06 -0.00214042508756 -3.61557865182e-05)
(-1.27356727986e-06 -0.000451593304297 -8.58186343339e-06)
(0 0 0)
(0 0 0)
(-1.54894348731e-06 -0.000549325464659 1.04381041926e-05)
(-6.66584825351e-06 -0.00236521315962 3.99497428723e-05)
(-1.39687047427e-05 -0.00495972780299 7.33024617917e-05)
(-2.15111897041e-05 -0.00764235445538 9.68174181868e-05)
(-2.74057381797e-05 -0.00974020657576 0.000102831699041)
(-3.05158096818e-05 -0.0108465375058 9.16121408788e-05)
(-3.12293180073e-05 -0.0110988161238 7.03093258234e-05)
(-3.12348095448e-05 -0.0110988161238 4.68752966672e-05)
(-3.12403010823e-05 -0.0110988161238 2.34412675111e-05)
(-3.12457926199e-05 -0.0110988161238 7.23835492933e-09)
(-3.12512841574e-05 -0.0110988161238 -2.34267908012e-05)
(-3.12567756948e-05 -0.0110988161238 -4.68608199574e-05)
(-3.12622672324e-05 -0.0110988161238 -7.02948491135e-05)
(-3.05577674979e-05 -0.0108465375058 -9.1598806117e-05)
(-2.74480320067e-05 -0.00974020657576 -0.000102822925973)
(-2.15424343961e-05 -0.00764235445538 -9.68152992985e-05)
(-1.3984057429e-05 -0.00495972780299 -7.33050423519e-05)
(-6.66983851372e-06 -0.00236521315962 -3.99527987491e-05)
(-1.54918563067e-06 -0.000549325464659 -1.04391107345e-05)
(0 0 0)
(0 0 0)
(-1.54894348731e-06 -0.000549325464659 1.04381041926e-05)
(-6.66584825351e-06 -0.00236521315962 3.99497428723e-05)
(-1.39687047427e-05 -0.00495972780299 7.33024617917e-05)
(-2.15111897041e-05 -0.00764235445538 9.68174181868e-05)
(-2.74057381797e-05 -0.00974020657576 0.000102831699041)
(-3.05158096818e-05 -0.0108465375058 9.16121408788e-05)
(-3.12293180073e-05 -0.0110988161238 7.03093258234e-05)
(-3.12348095448e-05 -0.0110988161238 4.68752966672e-05)
(-3.12403010823e-05 -0.0110988161238 2.34412675111e-05)
(-3.12457926199e-05 -0.0110988161238 7.23835492933e-09)
(-3.12512841574e-05 -0.0110988161238 -2.34267908012e-05)
(-3.12567756948e-05 -0.0110988161238 -4.68608199574e-05)
(-3.12622672324e-05 -0.0110988161238 -7.02948491135e-05)
(-3.05577674979e-05 -0.0108465375058 -9.1598806117e-05)
(-2.74480320067e-05 -0.00974020657576 -0.000102822925973)
(-2.15424343961e-05 -0.00764235445538 -9.68152992985e-05)
(-1.3984057429e-05 -0.00495972780299 -7.33050423519e-05)
(-6.66983851372e-06 -0.00236521315962 -3.99527987491e-05)
(-1.54918563067e-06 -0.000549325464659 -1.04391107345e-05)
(0 0 0)
(0 0 0)
(-1.54894348731e-06 -0.000549325464659 1.04381041926e-05)
(-6.66584825351e-06 -0.00236521315962 3.99497428723e-05)
(-1.39687047427e-05 -0.00495972780299 7.33024617917e-05)
(-2.15111897041e-05 -0.00764235445538 9.68174181868e-05)
(-2.74057381797e-05 -0.00974020657576 0.000102831699041)
(-3.05158096818e-05 -0.0108465375058 9.16121408788e-05)
(-3.12293180073e-05 -0.0110988161238 7.03093258234e-05)
(-3.12348095448e-05 -0.0110988161238 4.68752966672e-05)
(-3.12403010823e-05 -0.0110988161238 2.34412675111e-05)
(-3.12457926199e-05 -0.0110988161238 7.23835492933e-09)
(-3.12512841574e-05 -0.0110988161238 -2.34267908012e-05)
(-3.12567756948e-05 -0.0110988161238 -4.68608199574e-05)
(-3.12622672324e-05 -0.0110988161238 -7.02948491135e-05)
(-3.05577674979e-05 -0.0108465375058 -9.1598806117e-05)
(-2.74480320067e-05 -0.00974020657576 -0.000102822925973)
(-2.15424343961e-05 -0.00764235445538 -9.68152992985e-05)
(-1.3984057429e-05 -0.00495972780299 -7.33050423519e-05)
(-6.66983851372e-06 -0.00236521315962 -3.99527987491e-05)
(-1.54918563067e-06 -0.000549325464659 -1.04391107345e-05)
(0 0 0)
(0 0 0)
(-1.54894348731e-06 -0.000549325464659 1.04381041926e-05)
(-6.66584825351e-06 -0.00236521315962 3.99497428723e-05)
(-1.39687047427e-05 -0.00495972780299 7.33024617917e-05)
(-2.15111897041e-05 -0.00764235445538 9.68174181868e-05)
(-2.74057381797e-05 -0.00974020657576 0.000102831699041)
(-3.05158096818e-05 -0.0108465375058 9.16121408788e-05)
(-3.12293180073e-05 -0.0110988161238 7.03093258234e-05)
(-3.12348095448e-05 -0.0110988161238 4.68752966672e-05)
(-3.12403010823e-05 -0.0110988161238 2.34412675111e-05)
(-3.12457926199e-05 -0.0110988161238 7.23835492933e-09)
(-3.12512841574e-05 -0.0110988161238 -2.34267908012e-05)
(-3.12567756948e-05 -0.0110988161238 -4.68608199574e-05)
(-3.12622672324e-05 -0.0110988161238 -7.02948491135e-05)
(-3.05577674979e-05 -0.0108465375058 -9.1598806117e-05)
(-2.74480320067e-05 -0.00974020657576 -0.000102822925973)
(-2.15424343961e-05 -0.00764235445538 -9.68152992985e-05)
(-1.3984057429e-05 -0.00495972780299 -7.33050423519e-05)
(-6.66983851372e-06 -0.00236521315962 -3.99527987491e-05)
(-1.54918563067e-06 -0.000549325464659 -1.04391107345e-05)
(0 0 0)
(0 0 0)
(-1.54894348731e-06 -0.000549325464659 1.04381041926e-05)
(-6.66584825351e-06 -0.00236521315962 3.99497428723e-05)
(-1.39687047427e-05 -0.00495972780299 7.33024617917e-05)
(-2.15111897041e-05 -0.00764235445538 9.68174181868e-05)
(-2.74057381797e-05 -0.00974020657576 0.000102831699041)
(-3.05158096818e-05 -0.0108465375058 9.16121408788e-05)
(-3.12293180073e-05 -0.0110988161238 7.03093258234e-05)
(-3.12348095448e-05 -0.0110988161238 4.68752966672e-05)
(-3.12403010823e-05 -0.0110988161238 2.34412675111e-05)
(-3.12457926199e-05 -0.0110988161238 7.23835492933e-09)
(-3.12512841574e-05 -0.0110988161238 -2.34267908012e-05)
(-3.12567756948e-05 -0.0110988161238 -4.68608199574e-05)
(-3.12622672324e-05 -0.0110988161238 -7.02948491135e-05)
(-3.05577674979e-05 -0.0108465375058 -9.1598806117e-05)
(-2.74480320067e-05 -0.00974020657576 -0.000102822925973)
(-2.15424343961e-05 -0.00764235445538 -9.68152992985e-05)
(-1.3984057429e-05 -0.00495972780299 -7.33050423519e-05)
(-6.66983851372e-06 -0.00236521315962 -3.99527987491e-05)
(-1.54918563067e-06 -0.000549325464659 -1.04391107345e-05)
(0 0 0)
(0 0 0)
(-1.27340363289e-06 -0.000451593304297 8.58102283396e-06)
(-6.03271714583e-06 -0.00214042508756 3.61528779259e-05)
(-1.30155070381e-05 -0.00462086411932 6.82939819642e-05)
(-2.03550974695e-05 -0.00723087158692 9.16040919193e-05)
(-2.62432901882e-05 -0.00932614598945 9.84597035203e-05)
(-2.95851545526e-05 -0.0105149720533 8.88111515221e-05)
(-3.05210544088e-05 -0.0108465375058 6.87107725044e-05)
(-3.05262991359e-05 -0.0108465375058 4.58094041299e-05)
(-3.05315438629e-05 -0.0108465375058 2.29080357554e-05)
(-3.05367885899e-05 -0.0108465375058 6.66738093902e-09)
(-3.05420333171e-05 -0.0108465375058 -2.28947009935e-05)
(-3.0547278044e-05 -0.0108465375058 -4.5796069368e-05)
(-3.05525227711e-05 -0.0108465375058 -6.86974377425e-05)
(-2.96245863776e-05 -0.0105149720533 -8.87992601463e-05)
(-2.62820645864e-05 -0.00932614598945 -9.8452450844e-05)
(-2.03830681604e-05 -0.00723087158692 -9.16029715432e-05)
(-1.3028833507e-05 -0.00462086411932 -6.82968518646e-05)
(-6.03598498528e-06 -0.00214042508756 -3.61557865182e-05)
(-1.27356727986e-06 -0.000451593304297 -8.58186343339e-06)
(0 0 0)
(0 0 0)
(-6.17928774781e-07 -0.000219123776681 4.16370812036e-06)
(-4.34165243718e-06 -0.00154016734881 2.60140792263e-05)
(-1.03661789706e-05 -0.00367934749918 5.43783382138e-05)
(-1.7029211953e-05 -0.00604758275598 7.66125675306e-05)
(-2.2687263361e-05 -0.00806000635178 8.50910654499e-05)
(-2.62471676281e-05 -0.00932614598945 7.87684880838e-05)
(-2.74141969451e-05 -0.00974020657576 6.17007740377e-05)
(-2.74184263278e-05 -0.00974020657576 4.11353115364e-05)
(-2.74226557105e-05 -0.00974020657576 2.0569849035e-05)
(-2.74268850932e-05 -0.00974020657576 4.38653360857e-09)
(-2.74311144759e-05 -0.00974020657576 -2.05610759678e-05)
(-2.74353438585e-05 -0.00974020657576 -4.11265384691e-05)
(-2.74395732411e-05 -0.00974020657576 -6.16920009705e-05)
(-2.62781871465e-05 -0.00932614598945 -7.87612354075e-05)
(-2.27162242186e-05 -0.00806000635178 -8.50878302156e-05)
(-1.70487772091e-05 -0.00604758275598 -7.66137579026e-05)
(-1.03746280679e-05 -0.00367934749918 -5.43816536511e-05)
(-4.34334442212e-06 -0.00154016734881 -2.6016447202e-05)
(-6.17967304328e-07 -0.000219123776681 -4.16413115899e-06)
(0 0 0)
(0 0 0)
(-5.57035944107e-08 -1.97518737118e-05 3.75317137223e-07)
(-2.18953199849e-06 -0.000776550611674 1.31161807055e-05)
(-6.66609764477e-06 -0.00236521315962 3.4955834021e-05)
(-1.20978384219e-05 -0.00429439734621 5.44015769725e-05)
(-1.7030842391e-05 -0.00604758275598 6.38437070778e-05)
(-2.03597592514e-05 -0.00723087158692 6.10695813422e-05)
(-2.15190008772e-05 -0.00764235445538 4.84092388155e-05)
(-2.15216046014e-05 -0.00764235445538 3.2273179025e-05)
(-2.15242083258e-05 -0.00764235445538 1.61371192346e-05)
(-2.15268120502e-05 -0.00764235445538 1.05944415046e-09)
(-2.15294157744e-05 -0.00764235445538 -1.61350003463e-05)
(-2.15320194987e-05 -0.00764235445538 -3.22710601367e-05)
(-2.15346232231e-05 -0.00764235445538 -4.84071199272e-05)
(-2.03784063785e-05 -0.00723087158692 -6.10684609661e-05)
(-1.70471467711e-05 -0.00604758275598 -6.38448974498e-05)
(-1.21077040864e-05 -0.00429439734621 -5.44046610578e-05)
(-6.66958912243e-06 -0.00236521315962 -3.49588898977e-05)
(-2.18996212908e-06 -0.000776550611674 -1.31175510874e-05)
(-5.57039074867e-08 -1.97518737118e-05 -3.75356442039e-07)
(0 0 0)
(0 0 0)
(0 0 0)
(-4.54266023547e-07 -0.000161084095963 2.72074559495e-06)
(-2.95365692149e-06 -0.00104762252715 1.54827624645e-05)
(-6.66634703606e-06 -0.00236521315962 2.99619251696e-05)
(-1.03673859845e-05 -0.00367934749918 3.88411965188e-05)
(-1.30183627101e-05 -0.00462086411932 3.90245175723e-05)
(-1.39730912244e-05 -0.00495972780299 3.1414603465e-05)
(-1.39741878449e-05 -0.00495972780299 2.09426388833e-05)
(-1.39752844653e-05 -0.00495972780299 1.04706743016e-05)
(-1.39763810857e-05 -0.00495972780299 -1.29028007723e-09)
(-1.39774777064e-05 -0.00495972780299 -1.04732548618e-05)
(-1.39785743267e-05 -0.00495972780299 -2.09452194435e-05)
(-1.39796709472e-05 -0.00495972780299 -3.14171840251e-05)
(-1.30259778351e-05 -0.00462086411932 -3.90273874727e-05)
(-1.03734210539e-05 -0.00367934749918 -3.88445119561e-05)
(-6.66933973126e-06 -0.00236521315962 -2.99649810464e-05)
(-2.95434190223e-06 -0.00104762252715 -1.54845267022e-05)
(-4.54284531659e-07 -0.000161084095963 -2.72105936509e-06)
(0 0 0)
(0 0 0)
(0 0 0)
(0 0 0)
(0 0 0)
(-4.54267180233e-07 -0.000161084095963 2.38063278495e-06)
(-2.18958576481e-06 -0.000776550611674 9.83696423141e-06)
(-4.34196968438e-06 -0.00154016734881 1.6258355521e-05)
(-6.03353410572e-06 -0.00214042508756 1.80757118149e-05)
(-6.6670952098e-06 -0.00236521315962 1.49801986156e-05)
(-6.66734460109e-06 -0.00236521315962 9.9862897643e-06)
(-6.66759399232e-06 -0.00236521315962 4.99238091296e-06)
(-6.66784338355e-06 -0.00236521315962 -1.52793837999e-09)
(-6.66809277494e-06 -0.00236521315962 -4.99543678971e-06)
(-6.66834216612e-06 -0.00236521315962 -9.98934564105e-06)
(-6.6685915574e-06 -0.00236521315962 -1.49832544924e-05)
(-6.03516802544e-06 -0.00214042508756 -1.80786204072e-05)
(-4.34302717489e-06 -0.00154016734881 -1.62607234967e-05)
(-2.18990836276e-06 -0.000776550611674 -9.83833461325e-06)
(-4.5428337514e-07 -0.000161084095963 -2.38094655508e-06)
(0 0 0)
(0 0 0)
(0 0 0)
(0 0 0)
(0 0 0)
(0 0 0)
(0 0 0)
(-5.57036465565e-08 -1.97518737119e-05 2.50204874014e-07)
(-6.17937336911e-07 -0.000219123776681 2.31307716939e-06)
(-1.27344909046e-06 -0.000451593304297 3.81355442637e-06)
(-1.5490242018e-06 -0.000549325464659 3.47903255025e-06)
(-1.54903765426e-06 -0.000549325464659 2.31918727651e-06)
(-1.54905110666e-06 -0.000549325464659 1.15934200279e-06)
(-1.54906455907e-06 -0.000549325464659 -5.03270931873e-10)
(-1.54907801131e-06 -0.000549325464659 -1.16034854467e-06)
(-1.54909146388e-06 -0.000549325464659 -2.32019381839e-06)
(-1.54910491634e-06 -0.000549325464659 -3.48003909212e-06)
(-1.27352182244e-06 -0.000451593304297 -3.81439502579e-06)
(-6.17958742288e-07 -0.000219123776681 -2.31350020803e-06)
(-5.57038551952e-08 -1.97518737119e-05 -2.5024417883e-07)
(0 0 0)
(0 0 0)
(0 0 0)
(0 0 0)
(0 0 0)
(0 0 0)
(0 0 0)
(0 0 0)
(0 0 0)
(0 0 0)
(0 0 0)
(0 0 0)
(0 0 0)
(0 0 0)
(0 0 0)
(0 0 0)
(0 0 0)
(0 0 0)
(0 0 0)
(0 0 0)
(0 0 0)
(0 0 0)
(0 0 0)
(0 0 0)
(0 0 0)
(0 0 0)
(0 0 0)
(0 0 0)
(0 0 0)
(0 0 0)
(0 0 0)
(0 0 0)
(0 0 0)
(0 0 0)
(0 0 0)
(0 0 0)
(0 0 0)
(0 0 0)
(0 0 0)
(0 0 0)
(0 0 0)
(0 0 0)
(0 0 0)
(0 0 0)
(0 0 0)
(0 0 0)
(0 0 0)
(0 0 0)
(0 0 0)
(0 0 0)
(0 0 0)
(0 0 0)
(0 0 0)
(0 0 0)
(0 0 0)
(0 0 0)
(0 0 0)
(0 0 0)
(0 0 0)
(0 0 0)
(0 0 0)
(0 0 0)
(0 0 0)
(0 0 0)
(0 0 0)
(0 0 0)
(0 0 0)
(0 0 0)
(0 0 0)
(0 0 0)
(0 0 0)
(0 0 0)
(0 0 0)
(0 0 0)
(0 0 0)
(0 0 0)
(0 0 0)
(0 0 0)
(0 0 0)
(0 0 0)
(0 0 0)
(0 0 0)
(0 0 0)
(0 0 0)
(0 0 0)
(0 0 0)
(0 0 0)
(0 0 0)
(0 0 0)
(0 0 0)
(0 0 0)
(0 0 0)
(-7.23813849135e-08 -5.12417021147e-05 6.49099270777e-07)
(-4.39858353463e-07 -0.000311431325939 3.28747982757e-06)
(-8.25057560994e-07 -0.000584227212929 4.9336048132e-06)
(-9.82913334002e-07 -0.000696024736625 4.40812106281e-06)
(-9.82934930782e-07 -0.000696024736625 2.93853508315e-06)
(-9.82956527673e-07 -0.000696024736625 1.46894910349e-06)
(-9.82978124453e-07 -0.000696024736625 -6.36876149041e-10)
(-9.82999721177e-07 -0.000696024736625 -1.47022285579e-06)
(-9.83021318124e-07 -0.000696024736625 -2.93980883545e-06)
(-9.83042914959e-07 -0.000696024736625 -4.40939481511e-06)
(-8.25179290231e-07 -0.000584227212929 -4.93468952646e-06)
(-4.39901591376e-07 -0.000311431325939 -3.28807828398e-06)
(-7.23827896509e-08 -5.12417021147e-05 -6.49200913957e-07)
(0 0 0)
(0 0 0)
(0 0 0)
(0 0 0)
(0 0 0)
(0 0 0)
(0 0 0)
(-3.3980170297e-07 -0.000240584160416 3.55555101676e-06)
(-1.34453685458e-06 -0.000952285133733 1.20630813545e-05)
(-2.53113964804e-06 -0.00179337191687 1.89312122797e-05)
(-3.44712261985e-06 -0.00244293066324 2.06302787914e-05)
(-3.7879139313e-06 -0.00268450414958 1.70023577538e-05)
(-3.78823520031e-06 -0.00268450414958 1.13342982078e-05)
(-3.78855646932e-06 -0.00268450414958 5.66623866184e-06)
(-3.78887773828e-06 -0.00268450414958 -1.82088411016e-09)
(-3.78919900723e-06 -0.00268450414958 -5.66988043006e-06)
(-3.78952027624e-06 -0.00268450414958 -1.1337939976e-05)
(-3.78984154514e-06 -0.00268450414958 -1.7005999522e-05)
(-3.44925101814e-06 -0.00244293066324 -2.06337333299e-05)
(-2.53257342442e-06 -0.00179337191687 -1.89340256135e-05)
(-1.34502198201e-06 -0.000952285133733 -1.20647659592e-05)
(-3.39837827656e-07 -0.000240584160416 -3.55601739051e-06)
(0 0 0)
(0 0 0)
(0 0 0)
(0 0 0)
(0 0 0)
(-3.39799122645e-07 -0.000240584160416 4.06352018871e-06)
(-1.76955414152e-06 -0.00125354936234 1.85261368658e-05)
(-3.78695012432e-06 -0.00268450414958 3.40065363916e-05)
(-5.75747287643e-06 -0.0040837361317 4.31098931229e-05)
(-7.15334871149e-06 -0.00507539393417 4.28627290886e-05)
(-7.65375568235e-06 -0.00543036001758 3.43950617887e-05)
(-7.65507029532e-06 -0.00543036001758 2.29294048119e-05)
(-7.65638490818e-06 -0.00543036001758 1.14637478351e-05)
(-7.65769952121e-06 -0.00543036001758 -1.90914163645e-09)
(-7.65901413413e-06 -0.00543036001758 -1.14675661184e-05)
(-7.66032874699e-06 -0.00543036001758 -2.29332230952e-05)
(-7.66164335986e-06 -0.00543036001758 -3.43988800719e-05)
(-7.16253563615e-06 -0.00507539393417 -4.28667264132e-05)
(-5.76490744908e-06 -0.0040837361317 -4.31140730534e-05)
(-3.79080535218e-06 -0.00268450414958 -3.40101781598e-05)
(-1.77053487627e-06 -0.00125354936234 -1.85282644827e-05)
(-3.39840407926e-07 -0.000240584160416 -4.06398656246e-06)
(0 0 0)
(0 0 0)
(0 0 0)
(-7.23810337153e-08 -5.12417021148e-05 9.73674316965e-07)
(-1.34445599999e-06 -0.000952285133733 1.60843892401e-05)
(-3.78662885533e-06 -0.00268450414958 3.96745959376e-05)
(-6.66901731838e-06 -0.00473245263241 5.99505193583e-05)
(-9.241860189e-06 -0.00656290529811 6.9283136494e-05)
(-1.09535045484e-05 -0.00778097616891 6.57144217298e-05)
(-1.15445919708e-05 -0.0082002583033 5.19418703431e-05)
(-1.15475897228e-05 -0.0082002583033 3.46278529543e-05)
(-1.1550587475e-05 -0.0082002583033 1.73138355655e-05)
(-1.1553585227e-05 -0.0082002583033 -1.81823264778e-10)
(-1.15565829791e-05 -0.0082002583033 -1.7314199212e-05)
(-1.15595807311e-05 -0.0082002583033 -3.46282166008e-05)
(-1.15625784833e-05 -0.0082002583033 -5.19422339896e-05)
(-1.09750968434e-05 -0.00778097616891 -6.5715542523e-05)
(-9.26106159027e-06 -0.00656290529811 -6.92859829968e-05)
(-6.68099835666e-06 -0.00473245263241 -5.99546327438e-05)
(-3.79112662108e-06 -0.00268450414958 -3.96782377058e-05)
(-1.34510283656e-06 -0.000952285133733 -1.60860738449e-05)
(-7.23831407035e-08 -5.12417021148e-05 -9.73775960145e-07)
(0 0 0)
(0 0 0)
(-4.39841058318e-07 -0.000311431325939 5.91770307219e-06)
(-2.53070951516e-06 -0.00179337191687 3.02907836477e-05)
(-5.75598596192e-06 -0.0040837361317 6.03546863581e-05)
(-9.23994004887e-06 -0.00656290529811 8.31400484431e-05)
(-1.21308044236e-05 -0.0086228608814 9.10317421176e-05)
(-1.38891400294e-05 -0.00987551691639 8.34063739358e-05)
(-1.44440757286e-05 -0.0102685384171 6.50452419449e-05)
(-1.44487763786e-05 -0.0102685384171 4.33642601859e-05)
(-1.44534770286e-05 -0.0102685384171 2.1683278427e-05)
(-1.44581776785e-05 -0.0102685384171 2.29666798079e-09)
(-1.44628783285e-05 -0.0102685384171 -2.1678685091e-05)
(-1.44675789785e-05 -0.0102685384171 -4.335966685e-05)
(-1.44722796285e-05 -0.0102685384171 -6.50406486089e-05)
(-1.39239216895e-05 -0.00987551691639 -8.34028788954e-05)
(-1.21639513609e-05 -0.0086228608814 -9.10312581002e-05)
(-9.26298173054e-06 -0.00656290529811 -8.31428949459e-05)
(-5.76639436356e-06 -0.0040837361317 -6.03588662886e-05)
(-2.53300355724e-06 -0.00179337191687 -3.02935969815e-05)
(-4.39918886541e-07 -0.000311431325939 -5.9183015286e-06)
(0 0 0)
(0 0 0)
(-8.24981480338e-07 -0.000584227212929 1.11012887755e-05)
(-3.44605842059e-06 -0.00244293066324 4.1262284852e-05)
(-7.14990361464e-06 -0.00507539393417 7.50112749018e-05)
(-1.09481064746e-05 -0.00778097616891 9.85719127931e-05)
(-1.38847923219e-05 -0.00987551691639 0.00010425753054)
(-1.53820024847e-05 -0.0109421579867 9.24163685572e-05)
(-1.5681867204e-05 -0.0111525675564 7.06462254832e-05)
(-1.56874120613e-05 -0.0111525675564 4.70987056149e-05)
(-1.56929569186e-05 -0.0111525675564 2.35511857466e-05)
(-1.56985017757e-05 -0.0111525675564 3.665878337e-09)
(-1.5704046633e-05 -0.0111525675564 -2.35438539899e-05)
(-1.57095914902e-05 -0.0111525675564 -4.70913738582e-05)
(-1.57151363475e-05 -0.0111525675564 -7.06388937265e-05)
(-1.54247033419e-05 -0.0109421579867 -9.24097222214e-05)
(-1.39282693971e-05 -0.00987551691639 -0.000104254035499)
(-1.09804949171e-05 -0.00778097616891 -9.85730335863e-05)
(-7.16598073291e-06 -0.00507539393417 -7.50152722263e-05)
(-3.45031521731e-06 -0.00244293066324 -4.12657393905e-05)
(-8.25255370929e-07 -0.000584227212929 -1.11023734887e-05)
(0 0 0)
(0 0 0)
(-9.82783752983e-07 -0.000696024736625 1.32256369407e-05)
(-3.78630758638e-06 -0.00268450414958 4.53426554835e-05)
(-7.64849723067e-06 -0.00543036001758 8.02576896958e-05)
(-1.15355987145e-05 -0.0082002583033 0.000103883922509)
(-1.44346744287e-05 -0.0102685384171 0.000108407205463)
(-1.56763223467e-05 -0.0111525675564 9.41937453515e-05)
(-1.57255385348e-05 -0.0111837694174 7.0843915701e-05)
(-1.57311144615e-05 -0.0111837694174 4.72305162288e-05)
(-1.57366903881e-05 -0.0111837694174 2.36171167566e-05)
(-1.57422663148e-05 -0.0111837694174 3.7172844386e-09)
(-1.57478422415e-05 -0.0111837694174 -2.36096821877e-05)
(-1.57534181682e-05 -0.0111837694174 -4.72230816599e-05)
(-1.57589940948e-05 -0.0111837694174 -7.08364811321e-05)
(-1.57206812047e-05 -0.0111525675564 -9.41864135948e-05)
(-1.44816809282e-05 -0.0102685384171 -0.000108402612127)
(-1.15715717396e-05 -0.0082002583033 -0.000103884286156)
(-7.66690181164e-06 -0.00543036001758 -8.0261507979e-05)
(-3.7914478902e-06 -0.00268450414958 -4.53462972518e-05)
(-9.83172495861e-07 -0.000696024736625 -1.3226910693e-05)
(0 0 0)
(0 0 0)