/*--------------------------------*- C++ -*----------------------------------*\
| =========                 |                                                 |
| \\      /  F ield         | OpenFOAM: The Open Source CFD Toolbox           |
|  \\    /   O peration     | Version:  2.4.0                                 |
|   \\  /    A nd           | Web:      www.OpenFOAM.org                      |
|    \\/     M anipulation  |                                                 |
\*---------------------------------------------------------------------------*/
FoamFile
{
    version     2.0;
    format      ascii;
    class       volScalarField;
    location    "2.625";
    object      p_rgh;
}
// * * * * * * * * * * * * * * * * * * * * * * * * * * * * * * * * * * * * * //

dimensions      [1 -1 -2 0 0 0 0];

internalField   nonuniform List<scalar> 
4608
(
0
0.0191371
0.0253454
0.0810274
-0.0154599
-0.0841573
-0.167494
-0.293469
-0.451364
-0.630529
-0.842944
-0.659693
1.97492
1.93016
1.8716
1.77635
1.63685
1.48593
1.28456
1.07522
0.889158
0.681401
0.568351
0.476162
3.68993
3.62121
3.51137
3.35515
3.15195
2.8699
2.59847
2.2299
1.81866
1.57388
1.60533
1.91467
5.77063
5.67814
5.56136
5.40015
5.15538
4.83859
4.37118
3.8054
3.30309
2.97679
3.07645
3.2111
8.04367
7.9825
7.92425
7.89699
7.60973
7.16582
6.55117
5.77783
5.032
4.58702
4.90484
5.67735
10.4814
10.5255
10.5841
10.7088
10.4311
10.0241
9.28072
8.21122
6.98144
6.2864
6.74519
8.38205
13.0321
13.2784
13.5129
13.8499
13.7303
13.4428
12.7407
11.5588
9.88927
9.15817
14.2101
14.0192
15.6501
16.2287
16.6503
17.2389
17.3815
17.3552
16.9607
16.1135
14.7708
14.2656
21.5295
24.9703
18.4623
19.4072
19.9931
20.7922
21.2103
21.4881
21.4602
21.1349
20.4375
19.5917
20.3206
20.5415
22.909
22.8572
23.6097
24.5322
25.1202
25.5425
25.769
25.8513
25.706
25.602
25.8497
26.0754
24.5529
26.4745
27.4381
28.4272
29.0444
29.4591
29.7277
29.9885
30.095
30.3456
30.7771
31.1192
27.0952
29.6925
31.0805
32.1949
32.799
33.1168
33.3
33.5977
33.7341
34.0621
34.5931
35.0513
-0.833768
-0.637278
-0.562893
-0.662684
-0.683941
-0.669153
-0.629895
-0.596645
-0.600165
-0.566733
-0.532744
0.560239
0.512948
1.02072
0.800141
0.712533
0.966047
1.07235
1.19933
1.27918
1.33217
1.39084
1.45456
1.57931
1.55283
2.03155
2.26227
2.92559
2.90722
2.58276
2.6566
2.79593
2.83399
2.91646
3.02248
3.12086
3.80875
3.95512
3.91914
3.92863
3.93448
4.24466
4.63752
4.47491
4.46867
4.54586
4.59768
4.48025
6.16982
6.06755
6.24863
6.38149
6.09996
5.86214
5.57384
5.87469
6.00044
5.90859
6.05866
6.79362
8.62506
8.25483
8.34197
8.3161
7.70824
8.13852
8.77423
8.96557
9.24103
9.37052
9.61195
10.3301
13.7658
13.9885
13.533
12.9624
13.8825
15.2148
15.3223
15.2307
14.9586
14.8781
14.9032
15.2852
23.3952
22.0639
21.6694
21.0737
20.9212
20.6848
20.6584
20.5513
20.4618
20.2681
20.233
20.5969
20.7653
21.017
20.9851
21.4128
22.9802
25.2801
26.1878
26.3954
26.0321
25.8992
25.6334
26.1358
26.1367
26.5642
26.6063
27.3242
28.531
30.0783
30.7924
31.3687
31.8875
31.8697
31.2021
31.9549
31.0326
31.4494
31.3094
32.1084
33.0872
34.4361
35.3232
36.1957
37.6369
37.7916
36.4701
37.6135
35.0386
35.435
35.9202
37.1024
37.6023
38.9383
39.1985
40.0209
40.9523
41.4048
44.4327
36.3405
7.68344
7.6517
7.61617
7.58361
7.54547
7.50411
7.4614
7.41785
7.40423
7.71301
7.57155
7.29895
9.8855
9.83628
9.81316
9.79566
9.89392
9.90738
9.80007
9.79734
9.7779
9.74575
9.73261
9.68297
11.5581
11.5604
11.5943
11.6682
11.9257
11.8982
11.9789
12.0448
12.0778
12.0814
12.0491
11.957
13.6826
13.6945
13.7799
13.997
14.2739
14.4284
14.6174
14.7818
14.9011
14.9703
14.9758
14.9085
16.0178
16.0613
16.2067
16.6169
17.1999
17.1809
17.4833
17.7554
17.9732
18.1257
18.1943
18.1665
18.5926
18.6817
18.9033
19.5209
20.4381
20.0899
20.5032
20.8858
21.2066
21.4532
21.606
21.6519
21.3794
21.5212
21.8028
22.4635
23.4393
23.1238
23.6139
24.0987
24.5052
24.8297
25.0561
25.1763
24.3625
24.5525
24.8324
25.4433
26.5534
26.3588
26.8286
27.3587
27.8079
28.1661
28.4245
28.5802
27.5567
27.8364
28.074
28.5276
29.093
29.5228
30.0498
30.6131
31.0685
31.4076
31.6439
31.7763
30.9328
31.4148
31.5854
31.9463
32.3572
32.7598
33.2606
33.8387
34.2586
34.5179
34.6799
34.7294
34.5535
35.2849
35.3502
35.4055
35.6458
35.962
36.3576
36.9575
37.3037
37.4228
37.4769
37.3988
36.5033
38.9267
39.0387
38.5906
38.7666
38.8074
39.1732
39.8662
40.2258
40.842
40.7859
39.7124
7.27008
7.16594
7.08028
7.11065
6.92765
6.93023
6.88197
6.86459
6.88106
6.89693
6.89923
6.90602
9.55557
9.5478
9.47825
9.34174
9.06755
8.95927
8.95232
8.92456
8.93109
8.89891
8.84398
8.79829
11.8325
11.633
11.3804
11.0639
10.78
11.0461
10.7091
10.5313
10.7014
10.6808
10.5912
10.5136
14.7368
14.4723
14.108
13.6477
13.1344
12.5501
12.8691
12.5089
12.9177
12.9441
12.7305
12.7306
18.0131
17.7433
17.3277
16.7656
16.0772
15.3126
15.1171
16.5033
15.058
15.1673
15.2104
15.4205
21.5808
21.3588
20.994
20.4577
19.7497
18.9126
18.1414
19.477
19.9023
20.2096
20.0853
19.4959
25.1914
25.0928
24.8632
24.499
23.9813
23.3385
22.5742
22.3463
24.3619
27.902
28.3386
27.3983
28.6468
28.6532
28.5865
28.4537
28.241
27.9886
27.5825
27.3455
27.432
29.4532
32.1062
33.1436
31.8323
31.8889
31.9376
32.0014
32.0651
32.245
32.2468
32.2881
33.0464
34.0214
34.9603
34.9861
34.7017
34.7608
34.86
35.0505
35.2733
35.754
35.954
36.0358
37.3797
39.2996
41.0396
40.5344
37.2183
37.2451
37.3543
37.6064
37.9294
38.5316
39.178
39.7103
40.9497
43.6417
46.9682
46.7086
39.3427
39.3162
39.4309
39.6633
40.1056
40.7854
41.4058
45.5491
52.888
49.8262
52.0918
54.3205
11.7982
11.7659
11.7391
11.7154
11.6894
11.6651
11.6491
11.644
11.6361
11.6599
11.6882
11.7917
13.9645
13.9229
13.905
13.8937
13.8958
13.9213
13.9702
14.0414
14.0782
14.3444
14.5668
14.6174
15.6222
15.627
15.6594
15.7187
15.8001
15.9741
16.1514
16.3371
16.4348
16.8163
17.088
17.2073
17.7128
17.7403
17.8345
17.9745
18.1487
18.5929
18.7653
18.9622
19.22
19.4362
19.7086
20.085
19.9791
20.0542
20.22
20.4453
20.709
21.2701
21.5468
21.8002
22.1342
22.4522
22.7684
23.0294
22.4605
22.5948
22.8389
23.157
23.5136
24.0591
24.4653
24.7617
25.1747
25.5704
25.9387
26.2565
25.1606
25.3716
25.6904
26.0883
26.5004
26.9508
27.4114
27.8676
28.3221
28.7533
29.1501
29.4926
28.0701
28.404
28.7965
29.257
29.6902
30.1513
30.6095
31.0746
31.5317
31.9563
32.3443
32.676
31.1583
31.7186
32.1868
32.6761
33.0604
33.4655
33.8847
34.3187
34.7434
35.1231
35.4639
35.7487
34.3306
35.3285
35.8844
36.3082
36.5221
36.8074
37.1257
37.4968
37.8625
38.1637
38.4222
38.6292
37.4539
39.1757
39.8499
40.0807
39.8898
39.9691
40.1472
40.4479
40.7424
40.9416
41.0912
41.2025
38.9847
42.7505
43.5291
43.5746
42.6928
42.611
42.6352
42.9288
43.196
43.2888
43.3047
43.3175
11.892
11.7639
11.9506
11.9154
12.2353
12.1268
12.1216
12.0913
12.068
12.0104
11.9608
11.9302
14.5737
14.6516
14.7585
14.5922
14.7945
14.828
14.4475
14.2047
14.0436
13.8881
13.7681
13.6872
17.3124
17.4323
17.3407
17.1754
17.0292
16.8027
16.6379
16.2971
16.0021
15.8529
15.5107
15.4185
20.4391
20.198
20.1881
20.141
19.9886
19.7317
19.3801
18.9051
18.4012
18.9138
18.2012
17.8217
23.2168
23.3511
23.4191
23.3847
23.2321
22.9531
22.5391
21.9829
21.3222
20.83
20.6988
20.0227
26.5101
26.689
26.7811
26.7695
26.6332
26.3659
25.954
25.3779
24.6641
23.8674
23.077
23.7787
29.7734
29.978
30.095
30.1128
30.0073
29.7795
29.416
28.8692
28.1676
27.2912
26.2629
25.0068
32.9508
33.1525
33.2781
33.3137
33.2503
33.0669
32.7973
32.3379
31.743
31.0049
30.0475
28.6847
35.9864
36.1567
36.268
36.3051
36.2675
36.1279
35.9753
35.6441
35.2022
34.9069
34.4732
33.4425
38.8039
38.9178
38.9908
39.0105
38.9758
38.8679
38.8163
38.6235
38.2271
38.7712
39.6031
39.3141
41.3026
41.3509
41.3611
41.3489
41.2699
41.1623
41.2501
41.1888
40.6982
42.5232
45.1949
47.8776
43.3678
43.3989
43.3495
43.3389
43.1495
42.9997
42.8679
42.8632
45.9615
52.6815
53.2855
58.4988
14.8906
8.02672
7.99135
8.07489
8.10147
8.18809
8.76073
8.87266
8.92908
8.72716
8.66652
8.91749
13.1337
10.1319
10.2054
10.3551
10.4996
10.7329
10.9869
11.0142
11.2241
11.4853
11.775
12.0925
13.3534
11.9103
12.1432
12.4405
12.7595
13.0858
13.4206
13.7534
14.082
14.4147
14.7324
15.0444
14.7309
13.8743
14.2693
14.7656
15.2683
15.7989
16.3167
16.8064
17.2352
17.6211
17.9647
18.3091
16.9788
16.0218
16.5577
17.2447
17.8647
18.6113
19.3527
20.0505
20.5872
21.4294
21.9443
22.2789
19.6156
18.4632
19.0789
19.8914
20.4981
21.635
22.4191
23.3093
24.0185
24.5149
24.9619
25.6267
20.7407
21.35
22.0681
23.0506
24.3261
28.0769
28.3724
26.9532
27.4821
27.9367
28.2656
28.5178
22.6154
24.6811
25.4188
26.6207
28.9865
31.6105
32.3552
30.767
30.911
31.24
31.494
31.6897
25.8577
28.3642
28.985
30.4433
32.3236
35.4379
34.9535
33.7756
34.0637
34.2995
34.4846
34.6043
33.2586
32.2111
32.8073
34.409
34.832
36.8215
36.5315
36.6791
37.0125
37.1266
37.2192
37.2141
37.5823
35.4424
35.8833
37.9685
39.1214
39.4179
39.2602
39.5648
39.7515
39.6817
39.6382
39.4834
44.367
45.6749
49.3075
41.2518
43.0735
42.3718
41.6663
42.1053
42.1186
41.8309
41.666
41.3722
9.20365
9.52954
9.90043
10.2674
10.62
10.9411
11.2616
12.3056
14.9495
14.9292
14.7637
14.6256
12.4308
12.7394
12.999
13.2127
13.3621
13.4153
13.3276
15.1102
16.6667
17.8454
18.649
18.3975
15.3639
15.6377
15.8544
15.979
16.0024
15.9068
16.7106
16.3329
16.09
16.8102
18.0208
18.8625
18.6493
18.8942
19.095
19.1754
19.1555
19.5581
20.2643
19.646
20.5364
20.5043
19.9008
19.2273
22.4031
22.2721
22.3825
22.4191
22.555
22.7335
23.2137
23.1283
23.0682
23.4411
23.1756
22.7757
25.5332
25.5616
25.5841
25.6451
25.4433
25.262
24.8515
25.5247
25.8532
24.8175
24.6818
25.6184
28.679
28.8205
28.9428
28.9378
28.7682
28.1566
27.5764
31.2655
32.885
31.766
30.607
29.5437
31.8496
32.0051
32.2022
32.3435
32.3532
31.9498
31.1465
33.5482
35.5482
36.0537
36.2685
36.262
34.7271
34.8894
35.2348
35.9068
35.9558
36.5753
37.2274
35.9512
37.5432
39.1575
40.9919
42.3215
37.2466
37.3301
37.6757
38.2179
40.6266
40.9694
41.9106
46.0789
41.4285
42.9806
45.6917
47.8612
39.414
39.327
39.6656
40.1689
40.9371
46.4347
48.5432
48.6161
54.5632
47.5633
50.2528
52.3833
41.2187
40.9526
41.1324
41.9762
42.3334
43.2762
49.0249
50.273
53.5216
51.7048
54.3982
53.1122
29.7622
32.7647
33.87
34.7984
35.2788
35.5022
35.5931
35.9197
36.1023
36.3628
36.8227
37.2583
32.1786
33.5666
35.1704
36.4133
36.8057
36.8803
36.9193
37.2887
37.5528
37.7639
38.1246
38.5399
38.6953
36.0113
36.646
38.0627
38.8028
38.9864
38.8367
38.751
38.8656
39.0446
39.2316
39.6654
40.9404
40.2949
39.5978
40.3191
40.9182
41.0233
40.8033
40.4482
39.7113
40.1398
40.1119
40.6387
42.5724
42.6532
42.2207
42.2807
42.733
42.7889
42.5961
42.2343
40.7954
40.8112
40.5986
41.2208
44.5355
43.8667
43.3776
43.9429
44.2625
44.2955
44.233
43.9988
42.7782
42.9159
41.5416
40.1149
45.5666
44.7218
44.363
45.1939
45.6152
45.6377
45.7492
45.6408
44.7495
45.2364
43.6501
52.0511
46.075
45.5546
45.2081
45.7194
46.4594
46.8882
47.1873
47.1884
46.6289
47.2464
44.0979
52.3929
46.3958
46.1904
45.9987
46.3305
46.8494
47.4847
48.4381
48.6887
48.529
49.0476
44.9798
54.2943
46.6925
46.7732
46.7421
46.913
47.3729
47.9564
48.9034
49.7702
50.577
50.3202
44.5996
57.9722
46.8828
47.3328
47.4873
47.4391
47.866
48.5247
49.4459
49.9651
50.8791
49.7982
55.8015
59.7966
49.8205
54.364
54.5023
48.8742
48.2921
49.0075
49.93
50.5031
51.7855
52.2535
55.28
54.9959
37.1581
37.5454
37.9628
38.8239
39.1693
41.6359
42.4622
45.101
43.3818
48.0217
46.3374
50.736
38.3318
38.7264
39.3781
41.1869
41.0425
44.2676
43.8202
46.5867
47.4013
46.8172
51.2165
50.1022
39.3145
39.8909
41.1382
43.6388
49.5241
56.6092
59.2506
49.7004
48.2785
50.7974
45.7646
49.3672
40.1377
40.9667
43.3688
45.5609
46.0852
45.312
48.615
55.2695
50.1162
51.3698
48.2739
48.2927
40.3916
41.5479
46.9691
48.2863
48.4253
48.4428
49.7161
48.8473
50.3694
51.5549
47.9004
48.7513
38.1009
41.4855
50.643
49.3391
48.4799
49.1123
50.5471
49.8665
49.1912
51.6145
51.3884
48.0221
52.4557
50.3898
53.3485
46.6522
47.5901
49.7188
51.2887
50.3563
51.1798
50.9566
49.74
49.6638
52.2892
48.7994
55.5912
44.9686
53.0694
50.5439
51.9835
50.4383
50.7707
51.2467
51.8151
49.5961
51.8257
49.1828
56.5911
49.6503
52.0397
50.6824
52.645
50.0463
49.9213
49.4167
47.809
48.4629
60.3596
55.0923
57.7887
45.0728
51.9942
51.9727
53.6868
49.6133
48.4233
48.359
47.197
47.5966
57.8943
50.0614
49.0956
53.0207
64.1145
58.2722
57.0974
48.856
47.437
47.1727
46.3397
46.7409
56.9123
57.6944
57.1607
45.834
43.6814
55.1192
58.7336
49.4492
44.2247
45.6833
45.1478
45.8631
41.0636
41.8043
41.8788
41.3532
40.644
40.5044
40.8227
41.7958
42.4012
42.3778
42.5031
42.7229
45.2045
42.9011
43.2357
42.4178
42.8351
43.2748
42.5588
42.8268
43.4221
44.1097
44.5394
43.4962
47.6575
48.2214
45.1944
42.7451
43.3701
43.5237
43.078
46.0424
46.2269
44.3899
45.8323
45.2732
43.4777
47.2597
49.3687
47.6165
43.7837
44.0173
44.364
44.2952
45.32
47.3781
46.9872
46.1046
44.6077
46.9401
44.2393
44.5149
45.6883
45.9046
44.9698
44.6024
45.6025
46.245
48.449
48.5622
45.3633
46.9817
44.9513
44.3055
43.9888
44.5519
44.45
45.0203
45.8194
45.8954
45.6527
45.6709
45.8102
46.9571
45.4636
44.2318
44.1617
44.8026
44.6542
44.7826
45.7629
46.1275
46.0354
46.1353
46.2628
46.8695
45.8341
44.0325
44.14
45.0307
44.8658
45.0551
45.8332
46.27
46.4406
46.6892
46.4907
46.9286
46.094
43.7106
43.9499
45.276
45.033
45.2578
45.8077
46.3172
46.8143
47.3518
46.313
46.9805
46.2386
43.2592
43.6177
45.6073
45.1725
45.3987
45.6684
46.2584
47.1939
47.9971
46.0298
46.9713
45.8063
42.329
43.0043
46.1559
45.2692
45.4924
45.5531
46.0767
47.5952
48.648
45.7397
47.6785
50.5327
53.3876
59.0498
59.0257
63.4852
63.8804
59.9603
46.928
50.5482
64.8916
42.6752
41.4595
40.7199
40.8784
41.3665
42.1453
42.7907
44.9602
52.2948
52.9858
53.5923
51.2518
42.8973
41.834
41.5158
41.5817
42.1058
42.9005
43.6114
45.4759
50.3092
53.1678
53.3076
49.915
44.5932
42.8617
42.2217
42.1988
42.775
43.562
44.3209
45.989
49.8172
52.9887
53.0343
53.7308
44.1074
43.2954
42.836
42.7318
43.3849
44.1635
44.9406
46.384
48.3663
51.7391
52.725
54.0589
48.8364
44.7675
43.3609
43.1838
43.9333
44.7198
45.4916
46.9468
48.2096
50.0115
52.0142
50.9969
45.6671
44.5472
43.8367
43.5637
44.3377
45.2569
45.9956
47.1451
48.2024
49.9715
52.3866
51.9997
46.1317
44.8955
44.2594
43.8586
44.666
45.6874
46.3077
47.6005
48.5182
49.9747
52.5975
53.5527
46.7575
45.4999
44.5774
44.0581
44.8548
46.2094
46.5021
48.0373
48.7819
49.9692
52.6002
49.752
47.5212
46.1804
44.7832
44.1565
44.8842
46.8213
46.4741
48.4783
48.9762
50.0757
48.8437
53.3673
48.2751
46.7702
44.7681
44.1218
44.85
48.0781
46.3359
49.2685
49.1243
50.2582
48.8618
50.8424
49.2004
47.7922
44.6793
43.8921
44.6644
53.2385
59.9126
52.3579
49.1238
50.3929
48.9334
51.083
65.7505
60.41
47.4578
43.4665
49.8228
62.1926
59.5065
64.9398
49.6154
50.3694
49.0415
51.6528
42.993
45.5029
46.0078
46.0326
44.0962
44.3111
44.1389
44.2814
44.5453
44.6317
44.5872
44.5658
43.4712
46.6386
47.3218
47.6659
45.8361
46.4023
45.6618
45.0368
44.8347
44.8762
44.9905
45.1708
43.7093
47.2663
48.3342
49.4737
49.5982
48.4271
47.0809
46.4546
46.2809
46.2439
46.3016
46.5202
51.1291
46.7141
48.3264
50.721
51.1498
49.3449
48.1632
47.6521
47.5239
47.5034
47.467
47.729
49.0804
47.3121
46.7628
49.4134
54.9587
49.6761
49.0104
48.657
48.5828
48.6125
48.5498
48.8853
47.831
52.1338
52.0888
51.4743
51.5133
49.9792
49.7904
49.558
49.5219
49.6047
49.5085
50.0861
57.9359
46.5127
52.3225
54.364
54.0995
50.5201
50.3974
50.2954
50.3479
50.4858
50.4402
50.9334
56.6272
54.208
45.6014
45.0831
47.0581
50.1589
50.7225
50.7846
50.9216
51.1669
51.2046
51.7066
55.815
51.231
50.4008
47.2297
47.773
49.4316
50.2297
50.8027
51.4784
52.0863
52.2585
52.5274
55.7584
54.4318
46.0855
47.7973
48.3508
49.56
50.4268
51.0708
51.7999
52.4336
52.968
53.3119
56.4655
53.011
47.4926
47.6148
48.5274
49.7348
50.7039
51.3774
52.1181
52.7641
53.312
53.4105
55.7717
55.274
59.725
47.0356
48.6178
49.8608
50.9617
51.6504
52.382
53.0423
53.6034
53.5537
44.6363
44.5878
44.4904
44.601
44.3359
44.1504
44.2099
44.3662
47.4589
55.199
55.7335
56.2796
45.4623
45.7019
45.8116
45.903
45.1403
44.8421
44.9764
45.3447
47.6319
52.9804
55.5344
56.5088
46.8999
47.2826
47.4225
47.7399
46.9249
45.9107
45.5432
46.2528
47.9805
53.7187
55.0153
55.8977
48.2468
48.7475
48.816
49.4632
49.048
47.5844
45.9821
46.9009
47.7477
51.5932
54.3785
55.2942
49.4747
50.0634
50.0433
51.0505
50.6406
50.0165
46.8251
47.4879
48.6188
51.0246
53.5165
54.8353
50.7825
51.248
51.082
52.4209
51.9492
52.5197
48.3586
48.0445
49.3756
51.4575
52.864
54.2434
51.5848
52.293
51.9266
53.568
52.8445
50.9754
48.0039
48.6302
50.0228
51.8908
53.0344
54.0434
52.5357
53.1918
52.5548
54.5548
53.4944
49.6935
47.9976
49.1253
50.4697
52.1692
53.1685
53.9729
53.4758
53.9472
52.9532
55.4659
54.0633
49.5272
48.7577
49.4039
50.6623
52.2799
53.2631
53.8588
54.2684
54.5952
53.1883
56.2929
53.7006
49.5004
48.8736
49.3531
50.6363
52.2532
53.3253
53.6857
53.6806
53.9634
52.8823
56.2932
51.0038
47.5217
47.5509
48.9506
50.4043
52.1531
53.4023
53.4733
53.3185
53.6179
56.5726
65.3573
58.3555
47.884
46.0375
48.332
49.9903
51.9849
53.5635
53.2482
53.6808
47.2548
54.8422
49.0724
46.0409
44.1558
42.8017
43.7121
43.5977
43.0917
42.8755
42.4808
53.7577
59.1726
56.1779
49.9739
49.4058
49.7952
45.6672
44.6883
44.4727
43.7819
43.5562
43.1043
53.4733
53.3074
58.3132
55.4419
53.2051
55.2139
46.7924
45.736
45.3061
44.374
44.1358
43.613
53.5215
50.4429
48.4704
49.4628
52.3585
63.0808
50.7382
45.4838
45.5951
44.9158
44.7455
43.9984
53.6259
52.5335
49.6801
50.5165
45.5801
42.894
46.5754
45.1624
46.1067
46.017
46.4329
45.0222
53.6885
53.0463
50.59
51.5257
47.1994
44.5584
47.6642
45.5208
47.1646
46.9235
47.7015
46.4258
53.7667
53.4774
51.4016
53.0321
49.3943
46.6232
49.2557
46.0561
48.3447
47.7859
48.8823
47.6621
53.8796
53.5696
51.919
54.8844
51.3434
48.6056
50.8284
46.402
49.5153
48.618
49.7907
48.2591
53.9633
53.674
51.6118
56.3608
53.0359
50.5807
52.3609
46.4836
50.6931
49.493
50.4154
47.5299
53.9803
53.8596
55.608
57.797
53.8826
52.21
53.7592
46.1844
51.7352
50.0883
50.592
46.8317
53.8869
53.8328
55.8123
59.7811
54.9757
53.0149
53.6045
44.5218
51.9606
50.0943
50.6981
49.4527
53.7103
56.3785
64.518
62.6392
55.1415
54.5306
54.3603
54.7858
52.595
51.0353
50.6944
48.0904
42.2969
41.8438
41.8447
43.1669
43.9146
45.4419
46.0335
54.2864
51.1126
57.5457
53.426
48.067
42.9383
42.292
42.1832
43.9267
44.9828
46.4501
46.5538
52.8525
52.8054
55.5169
52.9143
45.5537
43.5316
42.5567
42.5013
44.8932
45.5453
47.4925
47.3585
51.2408
53.8411
52.5021
55.0446
45.9031
44.1101
42.6854
44.3902
48.2757
47.4343
47.621
48.0674
50.7051
53.3479
51.8088
54.6618
47.2095
44.5345
42.6883
44.6048
48.7736
49.1506
47.1187
48.2053
49.9864
53.8249
52.5473
49.3607
49.9522
45.6692
42.3558
43.7973
45.5286
49.2936
46.9397
48.1897
49.4706
54.2616
53.4845
49.4681
50.3135
53.1668
43.63
44.0192
45.6056
47.5037
47.4018
48.2877
49.6469
54.5684
54.2813
49.8632
49.7035
55.4952
46.2053
44.0386
46.0432
46.9743
46.8865
48.5703
49.7559
55.1516
55.1699
51.823
49.1371
47.7752
44.9052
44.2296
46.2787
47.2661
48.5502
48.9913
49.3604
54.9917
55.9436
60.4218
49.6954
47.6786
43.857
43.9804
46.2855
47.349
47.1813
50.4559
47.8893
53.2724
54.187
51.3165
51.9318
48.2619
44.0564
43.8055
46.4322
45.9413
47.2917
48.7438
49.2967
53.3608
53.663
50.5227
48.7406
47.5289
43.4572
43.3483
47.072
50.3603
50.4279
50.3188
50.1071
54.0844
53.9796
51.1454
49.9198
49.2388
50.3441
49.2364
48.493
48.678
49.3415
50.1525
50.7333
52.0143
51.8728
60.8283
57.2676
49.1826
50.0983
49.3649
48.8935
49.0168
49.536
50.1621
50.6546
51.5701
51.6387
56.164
57.8286
49.3677
49.9354
49.4478
49.1569
49.2494
49.6482
50.1306
50.5752
51.3215
51.537
54.394
57.5906
49.5398
49.87
49.5111
49.3213
49.3916
49.7163
50.1056
50.5334
51.1841
51.3927
52.9292
57.4067
49.6695
49.8564
49.5581
49.4228
49.4786
49.761
50.0945
50.5117
51.095
51.2837
52.2517
57.4153
49.9613
49.8579
49.5904
49.4892
49.5384
49.7961
50.0962
50.507
51.0235
51.2405
52.3207
57.146
49.9203
49.8638
49.6131
49.5374
49.5827
49.8301
50.1079
50.5062
50.966
51.2007
52.0158
53.4939
49.971
49.8738
49.6348
49.5746
49.6241
49.8665
50.1268
50.5084
50.9208
51.1659
51.539
51.7177
50.0345
49.882
49.6547
49.6137
49.6716
49.899
50.1501
50.5131
50.8858
51.1399
51.3988
51.5185
50.0881
49.8951
49.6811
49.6543
49.7188
49.9341
50.1759
50.5194
50.8591
51.1131
51.2854
51.3983
50.1323
49.9071
49.7137
49.6973
49.7662
49.9705
50.203
50.5267
50.8389
51.0865
51.2025
51.2939
50.2306
49.9221
49.75
49.7425
49.8135
50.0069
50.2302
50.5346
50.8239
51.0629
51.1562
51.255
58.9804
55.0161
45.5806
46.0878
44.3107
52.2797
45.2074
38.9904
42.9616
44.8366
44.9451
45.6504
57.7284
51.1769
46.7696
46.3527
44.5991
43.1773
47.8158
41.1341
43.6052
45.1704
45.7257
46.1437
56.472
50.758
47.4736
46.6139
44.8019
43.1517
40.867
42.5311
44.4666
45.6314
46.2251
46.7175
55.7616
50.5605
47.8983
46.814
45.1483
43.7175
42.0356
43.5392
45.1312
46.1677
46.7384
47.2167
54.951
50.5531
48.1343
46.9629
45.4495
44.1741
42.9173
43.6709
45.3604
46.5347
46.851
47.048
53.6958
50.2653
48.2218
47.0743
45.7069
44.5884
43.6458
44.0858
44.996
45.8359
46.5443
47.1377
51.8862
49.8996
48.2187
47.156
45.9278
44.96
44.2494
44.6268
45.3107
45.9995
46.6958
47.3306
50.2773
49.6408
48.1748
47.2151
46.1169
45.2859
44.744
45.0518
45.6327
46.25
46.9061
47.5025
49.7412
49.4742
48.1211
47.2587
46.2787
45.5674
45.1631
45.426
45.9212
46.4812
47.0846
47.6478
49.5233
49.3123
48.0692
47.2898
46.4177
45.8081
45.5078
45.7397
46.1725
46.6813
47.2365
47.7668
49.3021
49.0526
48.0223
47.3251
46.5543
46.0123
45.7903
45.9993
46.3854
46.8503
47.3616
47.8633
49.0478
48.8618
47.9795
47.3302
46.639
46.1859
46.0208
46.2116
46.5615
46.9898
47.4663
47.9401
45.982
48.1675
50.6126
51.5652
53.9755
57.3024
57.9856
54.8767
48.6323
47.3413
49.2387
50.2855
46.6871
48.4468
49.189
51.1259
51.927
51.259
54.7828
53.0692
48.9211
47.2612
48.8165
49.6273
47.3663
48.6594
49.3951
51.1095
51.6234
51.5692
53.8317
52.418
49.3764
48.1139
48.8953
49.2576
47.5814
48.409
49.3344
50.9467
51.4466
51.6588
53.1225
51.9859
49.6854
48.6646
48.9836
49.0414
47.5515
48.4971
49.3368
50.7738
51.2893
51.6252
52.5782
51.6653
49.8971
49.0281
49.0657
48.9081
47.7573
48.6065
49.3547
50.6153
51.1511
51.5258
52.1552
51.4161
50.0406
49.2738
49.1344
48.8169
47.9263
48.6906
49.372
50.4768
51.0269
51.3963
51.8225
51.2166
50.1311
49.44
49.1908
48.7485
48.0666
48.7562
49.3846
50.3562
50.9111
51.2573
51.5558
51.0525
50.1827
49.5513
49.2366
48.693
48.1805
48.807
49.3929
50.2512
50.8014
51.1192
51.3376
50.9118
50.2065
49.6241
49.2729
48.6458
48.2714
48.846
49.3975
50.1598
50.6977
50.9877
51.1557
50.7932
50.2106
49.6695
49.3005
48.6068
48.343
48.8753
49.3986
50.0805
50.6008
50.866
51.002
50.6901
50.2013
49.6954
49.3195
48.5705
48.3994
48.8973
49.3972
50.0119
50.5115
50.7556
50.8709
50.6001
50.1832
49.7077
49.3299
48.4888
48.413
46.9842
47.2903
49.5215
46.3857
48.2156
54.76
49.7257
50.8043
53.0764
50.2528
50.6039
48.4679
47.3183
46.3586
44.4227
46.173
48.7392
52.7621
50.1226
49.8717
50.009
49.3687
50.4729
48.4884
47.6145
46.7906
45.6246
46.9391
49.083
51.748
50.1406
49.8783
49.962
49.7555
50.6604
48.537
47.8745
47.1926
46.484
47.5337
49.2966
51.1427
50.2338
50.0745
49.9986
50.0138
50.7659
48.5991
48.0965
47.5466
47.1247
47.9826
49.4251
50.7597
50.2862
50.2099
50.0893
50.1869
50.8194
48.6591
48.2853
47.8529
47.6127
48.3246
49.5052
50.512
50.307
50.2914
50.1697
50.3152
50.846
48.7127
48.4484
48.1135
47.989
48.5882
49.5594
50.3488
50.3085
50.3382
50.2384
50.4062
50.8554
48.758
48.5911
48.333
48.2822
48.7931
49.5985
50.2389
50.2993
50.3632
50.295
50.4711
50.8555
48.7912
48.717
48.5173
48.5131
48.9534
49.628
50.1634
50.2848
50.3749
50.3405
50.5177
50.8507
48.808
48.8293
48.6721
48.6966
49.0791
49.6511
50.1103
50.2684
50.3785
50.3765
50.5512
50.8436
48.8253
48.9319
48.8023
48.8433
49.1789
49.6699
50.0725
50.2522
50.3774
50.4045
50.5755
50.8359
48.9302
49.0284
48.9112
48.9611
49.2585
49.6854
50.0451
50.2371
50.3739
50.4262
50.5932
50.8282
52.5269
52.0856
48.5655
50.3236
51.7109
50.3664
51.1041
51.786
52.4472
53.0698
53.5365
53.485
52.0764
51.6821
49.4604
49.8366
51.2766
50.4603
51.1474
51.7914
52.3633
52.8688
53.2115
53.2152
51.7557
51.4117
49.933
49.9723
49.9754
50.3247
51.187
51.7701
52.2629
52.6759
52.9421
52.9603
51.5433
51.2663
50.2794
50.2923
50.2758
50.5185
51.2347
51.7495
52.1716
52.5104
52.7192
52.7436
51.3873
51.1874
50.5231
50.5234
50.5109
50.6759
51.2762
51.7289
52.0888
52.3634
52.5268
52.5524
51.2781
51.1419
50.6958
50.6945
50.6899
50.8092
51.31
51.7063
52.012
52.2302
52.356
52.3789
51.1972
51.1136
50.8173
50.8216
50.8265
50.9211
51.3379
51.6825
51.9411
52.1104
52.2048
52.222
51.1363
51.0947
50.9029
50.9164
50.9318
51.0133
51.3608
51.6589
51.8768
52.0044
52.0725
52.0816
51.0895
51.0813
50.9637
50.9876
51.0135
51.0884
51.3795
51.6363
51.8196
51.912
51.9587
51.9583
51.0531
51.0712
51.0071
51.0414
51.0771
51.1491
51.3944
51.6154
51.7697
51.8331
51.8623
51.852
51.0244
51.0631
51.0383
51.0822
51.1267
51.1979
51.4065
51.5969
51.7272
51.7673
51.7805
51.7522
51.0016
51.0564
51.0609
51.1133
51.1656
51.237
51.4165
51.5811
51.6921
51.7141
51.711
51.6185
53.4536
53.5635
53.3351
48.9373
45.9598
45.2023
46.2046
48.2189
49.8709
51.8994
53.5356
53.1996
53.2461
53.1678
52.3489
51.8008
48.0904
46.3197
47.0385
48.5244
50.0705
51.9827
53.435
53.4186
53.028
52.8553
51.9936
50.5652
49.9384
47.7263
47.8916
49.1134
50.2598
51.5164
52.7417
53.04
52.8448
52.6443
51.6515
49.8868
50.4521
48.6851
48.7119
49.6699
50.5921
51.5129
52.4485
52.7417
52.6941
52.5165
51.6307
49.8805
50.9015
49.3725
49.3492
50.1156
50.8954
51.6704
52.4556
52.7874
52.5709
52.4412
51.6893
50.2475
50.9428
49.9173
49.859
50.4783
51.1401
51.806
52.4732
52.8129
52.4731
52.3978
51.771
50.7931
50.4455
50.3965
50.2759
50.7839
51.3424
51.9156
52.4843
52.8151
52.3983
52.3768
51.8679
51.2606
50.4715
50.74
50.6249
51.048
51.5154
52.007
52.4898
52.8016
52.3429
52.3721
51.959
51.513
50.8099
50.4592
50.9285
51.2756
51.667
52.0859
52.4926
52.7805
52.3037
52.3793
52.0371
51.6544
51.2422
50.4318
51.2072
51.4678
51.8028
52.1551
52.4941
52.7565
52.2909
52.397
52.1032
51.7708
51.5644
50.6654
51.0929
51.6338
51.927
52.2162
52.4949
52.7324
52.3583
52.4259
52.1587
51.8631
51.6753
50.9964
50.8243
51.8077
52.0357
52.2707
52.4951
52.7096
53.5035
56.1203
58.6093
56.1446
55.2115
54.8121
55.1338
53.5517
53.0189
50.9563
51.2284
48.4149
53.8475
55.9996
59.8541
56.5995
55.3453
54.0086
49.5126
53.1228
50.523
51.6908
50.7387
47.1063
53.7183
55.2114
52.8065
51.2264
52.7993
53.3934
50.6387
53.3659
50.8667
51.5028
49.9327
52.7582
53.4775
54.4688
52.5403
50.9195
51.9726
52.5252
51.43
53.1511
50.7327
50.8719
49.6158
48.8723
53.4085
53.9669
52.5747
51.1234
51.8238
52.3669
51.9536
53.2358
52.003
51.1393
50.3588
54.7001
53.3402
53.6372
52.622
51.431
51.9193
52.2895
52.0704
52.955
51.9484
51.5298
49.9555
51.6208
53.2606
53.4
52.6452
51.6675
51.9852
52.2164
52.0341
52.4454
50.6988
49.7968
49.568
51.253
53.1759
53.2213
52.6504
51.8442
52.0338
52.1558
51.9697
51.8789
50.0774
49.6259
49.6935
51.1079
53.0939
53.0855
52.6459
51.9762
52.0706
52.1064
51.9075
51.6873
50.178
49.7292
49.7698
50.77
53.0191
52.982
52.6371
52.0748
52.0981
52.0658
51.8521
51.5442
50.2504
49.7864
49.7912
50.4899
52.953
52.9024
52.6264
52.1482
52.1184
52.0317
51.8
51.4298
50.3068
49.8218
49.7843
50.2358
52.8959
52.8406
52.6151
52.2027
52.133
52.0028
51.7533
51.3419
50.3543
49.8503
49.7607
49.8967
48.0066
43.8825
43.6772
46.6382
50.0515
48.2619
50.1677
53.9614
54.5735
54.1159
51.6916
51.1263
49.3128
45.3835
44.4437
47.1423
48.3107
49.0514
49.4127
50.1602
50.8648
50.6147
48.8731
47.3895
53.8772
50.2053
51.3642
52.4609
49.9642
49.7528
51.0287
52.1201
50.9456
50.5748
49.1928
48.2202
46.7192
50.0811
51.8863
52.9664
55.6047
49.3641
50.0763
51.7678
51.0124
50.6112
49.5064
48.814
52.8517
50.268
51.9399
49.6216
48.6918
51.653
50.5982
51.705
51.0134
50.6273
49.7347
49.1785
52.6295
52.6401
52.4075
49.9493
49.6121
49.061
52.3268
52.1176
50.8728
50.6305
50.0764
49.6633
52.5331
52.7248
53.0643
50.1819
50.0794
49.8255
50.2161
54.6881
50.2527
50.6304
50.197
49.8842
52.2828
51.9314
48.6214
50.1245
50.4366
51.5094
50.0868
54.6479
57.5299
52.0832
50.4173
50.065
51.8726
51.4201
49.2323
50.2623
50.6429
51.9796
54.2328
53.9382
55.6717
54.1352
50.5651
50.2634
51.6982
51.5315
49.7087
49.9878
50.4894
51.1155
52.4486
54.6081
53.9431
51.1005
50.827
50.3972
51.6166
51.6444
50.1503
50.1192
50.3995
51.2722
52.478
54.7163
53.8907
51.4129
50.9328
50.5231
51.7521
51.759
50.5155
50.4055
50.6414
51.531
52.6571
54.091
53.7772
51.6406
51.097
50.6332
50.1891
49.9332
49.7883
49.7887
49.8598
50.0423
50.2565
50.5426
50.8129
51.0432
51.1396
51.3096
50.2133
49.938
49.826
49.8345
49.9041
50.0761
50.2812
50.5503
50.8046
51.0265
51.1326
51.2985
50.2041
49.9359
49.8596
49.8779
49.9453
50.1074
50.3037
50.5573
50.798
51.0115
51.1249
51.2712
50.2109
49.9256
49.8856
49.9172
49.9827
50.1357
50.3237
50.5633
50.7923
50.9974
51.1152
51.2489
50.2759
49.908
49.9032
49.9509
50.0153
50.1603
50.3409
50.568
50.7869
50.9838
51.104
51.2304
50.5925
49.9308
49.9151
49.9781
50.0427
50.1811
50.3548
50.5712
50.7814
50.9707
51.0917
51.2124
51.858
49.9275
49.9249
49.9988
50.0647
50.1976
50.3655
50.5728
50.7756
50.9579
51.0787
51.194
52.0249
49.9165
49.9298
50.0143
50.0814
50.2098
50.373
50.5728
50.7695
50.9455
51.0651
51.1755
52.1289
50.233
49.9334
50.0266
50.0935
50.218
50.3773
50.5713
50.763
50.9336
51.0516
51.1573
52.1435
50.362
49.9512
50.0369
50.1014
50.2223
50.3786
50.5684
50.7564
50.9224
51.0385
51.1402
52.1712
50.3964
49.9834
50.0462
50.1057
50.2233
50.3773
50.5644
50.75
50.9123
51.0262
51.1251
52.1707
50.4193
50.016
50.0555
50.1076
50.2221
50.3745
50.5603
50.7444
50.9041
51.0159
51.1135
48.7901
48.6999
47.9387
47.3446
46.7261
46.3301
46.208
46.3834
46.7047
47.1029
47.5503
48.0009
48.6549
48.5627
47.9013
47.356
46.8007
46.4513
46.359
46.521
46.8194
47.1931
47.617
48.0488
48.5638
48.4514
47.8684
47.3653
46.864
46.5516
46.4799
46.6299
46.9099
47.2641
47.6693
48.0862
48.4879
48.3618
47.8411
47.3736
46.9171
46.6337
46.5757
46.7152
46.9804
47.3194
47.7101
48.1153
48.4231
48.2885
47.8232
47.3812
46.9609
46.6996
46.6504
46.7809
47.0345
47.3621
47.7416
48.138
48.3714
48.2327
47.8095
47.3881
46.996
46.7512
46.7072
46.8305
47.0754
47.3947
47.7661
48.1557
48.3329
48.1912
47.7992
47.3934
47.0235
46.79
46.749
46.8668
47.1056
47.4194
47.7851
48.1698
48.3064
48.1616
47.7919