/*--------------------------------*- C++ -*----------------------------------*\
| =========                 |                                                 |
| \\      /  F ield         | OpenFOAM: The Open Source CFD Toolbox           |
|  \\    /   O peration     | Version:  v1606+                                |
|   \\  /    A nd           | Web:      www.OpenFOAM.com                      |
|    \\/     M anipulation  |                                                 |
\*---------------------------------------------------------------------------*/
FoamFile
{
    version     2.0;
    format      ascii;
    class       surfaceScalarField;
    location    "1";
    object      phi;
}
// * * * * * * * * * * * * * * * * * * * * * * * * * * * * * * * * * * * * * //

dimensions      [0 3 -1 0 0 0 0];

internalField   nonuniform List<scalar> 
4432
(
3.32156e-07
-3.32156e-07
-1.86519e-06
2.19735e-06
-4.73775e-06
2.87257e-06
-7.70131e-06
2.96357e-06
-1.05896e-05
2.88832e-06
-1.32653e-05
2.67565e-06
-1.55924e-05
2.32707e-06
-1.74352e-05
1.84279e-06
-1.86668e-05
1.23165e-06
-1.91836e-05
5.16738e-07
-1.89317e-05
-2.51891e-07
-1.80513e-05
-8.80336e-07
-1.67715e-05
-1.27981e-06
-1.53532e-05
-1.41828e-06
-1.39409e-05
-1.41229e-06
-1.2457e-05
-1.48395e-06
-1.06188e-05
-1.83822e-06
-8.02255e-06
-2.59621e-06
-4.43504e-06
-3.58752e-06
-9.77143e-08
-4.33732e-06
3.99294e-06
-4.09067e-06
4.85207e-06
-8.59132e-07
4.85207e-06
-1.32234e-06
9.90197e-07
-4.06891e-06
4.94393e-06
-7.23519e-06
6.03886e-06
-1.0375e-05
6.10339e-06
-1.32952e-05
5.8085e-06
-1.58349e-05
5.21535e-06
-1.78579e-05
4.35002e-06
-1.92556e-05
3.24053e-06
-1.99674e-05
1.94345e-06
-2.00137e-05
5.63004e-07
-1.95235e-05
-7.42031e-07
-1.8618e-05
-1.7858e-06
-1.7422e-05
-2.47586e-06
-1.60464e-05
-2.79385e-06
-1.46157e-05
-2.84299e-06
-1.3174e-05
-2.92564e-06
-1.15316e-05
-3.48072e-06
-9.39612e-06
-4.73165e-06
-6.58273e-06
-6.40093e-06
-3.12162e-06
-7.79844e-06
3.80445e-07
-7.59274e-06
2.54697e-06
-3.02566e-06
7.39904e-06
-2.35371e-06
3.34391e-06
-5.12731e-06
7.71754e-06
-8.14575e-06
9.0573e-06
-1.1131e-05
9.08863e-06
-1.38886e-05
8.56613e-06
-1.62737e-05
7.60044e-06
-1.81649e-05
6.24125e-06
-1.94681e-05
4.54364e-06
-2.01336e-05
2.60901e-06
-2.01812e-05
6.10583e-07
-1.97036e-05
-1.21966e-06
-1.88163e-05
-2.67303e-06
-1.76324e-05
-3.65984e-06
-1.62657e-05
-4.16055e-06
-1.48682e-05
-4.24045e-06
-1.35279e-05
-4.26595e-06
-1.21296e-05
-4.87902e-06
-1.04318e-05
-6.42949e-06
-8.23835e-06
-8.59437e-06
-5.42918e-06
-1.06076e-05
-2.24718e-06
-1.07747e-05
3.36933e-07
-5.60977e-06
7.73598e-06
-2.92873e-06
6.27264e-06
-5.75112e-06
1.05399e-05
-8.66757e-06
1.19737e-05
-1.1534e-05
1.1955e-05
-1.41812e-05
1.12133e-05
-1.64775e-05
9.89672e-06
-1.83082e-05
8.07196e-06
-1.95808e-05
5.81631e-06
-2.02433e-05
3.2715e-06
-2.03062e-05
6.73452e-07
-1.98451e-05
-1.68074e-06
-1.89664e-05
-3.55174e-06
-1.77736e-05
-4.8526e-06
-1.63899e-05
-5.54429e-06
-1.50154e-05
-5.61494e-06
-1.38051e-05
-5.47627e-06
-1.26897e-05
-5.99444e-06
-1.14424e-05
-7.67675e-06
-9.81994e-06
-1.02168e-05
-7.51984e-06
-1.29077e-05
-4.5016e-06
-1.3793e-05
-1.53134e-06
-8.58003e-06
6.20462e-06
-3.25458e-06
9.52723e-06
-6.14825e-06
1.34336e-05
-9.01007e-06
1.48355e-05
-1.17939e-05
1.47389e-05
-1.43662e-05
1.37856e-05
-1.66091e-05
1.21396e-05
-1.84126e-05
9.87549e-06
-1.96822e-05
7.08584e-06
-2.03581e-05
3.94741e-06
-2.04406e-05
7.55945e-07
-1.99951e-05
-2.12617e-06
-1.91193e-05
-4.42756e-06
-1.79037e-05
-6.06817e-06
-1.64808e-05
-6.9672e-06
-1.51181e-05
-6.97764e-06
-1.40529e-05
-6.54152e-06
-1.32509e-05
-6.79643e-06
-1.24775e-05
-8.45018e-06
-1.14211e-05
-1.12732e-05
-9.5532e-06
-1.47756e-05
-6.54455e-06
-1.68016e-05
-3.00607e-06
-1.21185e-05
3.19855e-06
-3.44585e-06
1.29731e-05
-6.39683e-06
1.63846e-05
-9.22129e-06
1.766e-05
-1.19435e-05
1.74611e-05
-1.44645e-05
1.63066e-05
-1.66805e-05
1.43556e-05
-1.84848e-05
1.16798e-05
-1.97767e-05
8.37774e-06
-2.04848e-05
4.65551e-06
-2.05983e-05
8.69392e-07
-2.01762e-05
-2.5482e-06
-1.93085e-05
-5.29528e-06
-1.80651e-05
-7.31159e-06
-1.65841e-05
-8.4482e-06
-1.52181e-05
-8.3436e-06
-1.43029e-05
-7.45681e-06
-1.38353e-05
-7.26394e-06
-1.35626e-05
-8.72294e-06
-1.3088e-05
-1.17477e-05
-1.16018e-05
-1.62618e-05
-8.44767e-06
-1.99558e-05
-4.20324e-06
-1.6363e-05
-1.0047e-06
-3.55352e-06
1.65266e-05
-6.52511e-06
1.93562e-05
-9.30833e-06
2.04432e-05
-1.19776e-05
2.01305e-05
-1.44638e-05
1.87928e-05
-1.66766e-05
1.65684e-05
-1.85106e-05
1.35138e-05
-1.98549e-05
9.72206e-06
-2.06221e-05
5.42278e-06
-2.07895e-05
1.03677e-06
-2.04123e-05
-2.9254e-06
-1.95723e-05
-6.13528e-06
-1.83101e-05
-8.57378e-06
-1.67627e-05
-9.99559e-06
-1.53777e-05
-9.72863e-06
-1.46068e-05
-8.22775e-06
-1.44894e-05
-7.38132e-06
-1.47528e-05
-8.45955e-06
-1.48838e-05
-1.16167e-05
-1.37079e-05
-1.74377e-05
-1.02645e-05
-2.33992e-05
-5.28228e-06
-2.13451e-05
-6.28699e-06
-3.5806e-06
2.01072e-05
-6.53473e-06
2.23103e-05
-9.26259e-06
2.31711e-05
-1.18791e-05
2.27469e-05
-1.43427e-05
2.12565e-05
-1.65763e-05
1.8802e-05
-1.84738e-05
1.54112e-05
-1.99101e-05
1.11583e-05
-2.0777e-05
6.28975e-06
-2.10371e-05
1.29683e-06
-2.07442e-05
-3.21825e-06
-1.99733e-05
-6.90624e-06
-1.87293e-05
-9.81774e-06
-1.71237e-05
-1.16012e-05
-1.56919e-05
-1.11604e-05
-1.50374e-05
-8.88227e-06
-1.52815e-05
-7.13719e-06
-1.6133e-05
-7.60807e-06
-1.69165e-05
-1.08333e-05
-1.59566e-05
-1.83975e-05
-1.20599e-05
-2.72959e-05
-6.26572e-06
-2.71394e-05
-1.25527e-05
5.55458e-06
-5.55458e-06
-1.28617e-05
1.84163e-05
-3.50539e-05
2.21922e-05
-4.95071e-05
1.44532e-05
-4.92132e-05
-2.93963e-07
-3.96068e-05
-9.60639e-06
-2.79799e-05
-1.16269e-05
-1.88122e-05
-9.16767e-06
-1.30603e-05
-5.75189e-06
-1.19796e-05
-1.08071e-06
-1.27722e-05
7.92588e-07
-1.26208e-05
-1.51374e-07
-1.07366e-05
-1.88419e-06
-8.19843e-06
-2.5382e-06
-5.60268e-06
-2.59576e-06
-2.64208e-06
-2.96059e-06
8.62771e-07
-3.50487e-06
3.65857e-06
-2.79579e-06
3.65856e-06
-8.39265e-06
2.83809e-06
-2.75823e-05
3.76059e-05
-4.45782e-05
3.91881e-05
-5.05531e-05
2.04281e-05
-4.80835e-05
-2.76352e-06
-4.05773e-05
-1.71126e-05
-3.10622e-05
-2.11421e-05
-2.23312e-05
-1.78987e-05
-1.61672e-05
-1.19159e-05
-1.38534e-05
-3.39447e-06
-1.33611e-05
3.00285e-07
-1.22962e-05
-1.21637e-06
-1.04515e-05
-3.72883e-06
-8.45338e-06
-4.53636e-06
-6.75515e-06
-4.29399e-06
-5.08379e-06
-4.63192e-06
-2.8829e-06
-5.70577e-06
3.05936e-07
-5.9846e-06
3.96448e-06
-1.58999e-05
1.8738e-05
-3.17566e-05
5.34626e-05
-4.24733e-05
4.99048e-05
-4.69058e-05
2.48606e-05
-4.59706e-05
-3.6987e-06
-4.04402e-05
-2.2643e-05
-3.19415e-05
-2.96408e-05
-2.25254e-05
-2.73148e-05
-1.59491e-05
-1.84921e-05
-1.32491e-05
-6.09443e-06
-1.24204e-05
-5.28375e-07
-1.13457e-05
-2.29109e-06
-9.75951e-06
-5.31506e-06
-8.18586e-06
-6.10999e-06
-7.00495e-06
-5.47491e-06
-6.10782e-06
-5.52905e-06
-5.09838e-06
-6.71522e-06
-3.41724e-06
-7.66571e-06
5.4723e-07
-1.87838e-05
3.75218e-05
-3.12753e-05
6.59542e-05
-3.87354e-05
5.73649e-05
-4.34751e-05
2.96002e-05
-4.40196e-05
-3.15416e-06
-4.00598e-05
-2.66028e-05
-3.19058e-05
-3.77947e-05
-2.07561e-05
-3.84645e-05
-1.3392e-05
-2.58563e-05
-1.11e-05
-8.38637e-06
-1.04025e-05
-1.22597e-06
-9.68843e-06
-3.0051e-06
-8.61889e-06
-6.38461e-06
-7.55123e-06
-7.17766e-06
-6.75189e-06
-6.27426e-06
-6.17871e-06
-6.10221e-06
-6.0284e-06
-6.86553e-06
-5.60377e-06
-8.09032e-06
-5.05655e-06
-1.91372e-05
5.6659e-05
-2.9087e-05
7.59039e-05
-3.54325e-05
6.37104e-05
-4.05823e-05
3.475e-05
-4.15204e-05
-2.216e-06
-3.76329e-05
-3.04904e-05
-2.972e-05
-4.57076e-05
-1.85333e-05
-4.96513e-05
-8.76632e-06
-3.56233e-05
-7.27398e-06
-9.87874e-06
-7.25593e-06
-1.24403e-06
-7.2534e-06
-3.00764e-06
-6.98258e-06
-6.65543e-06
-6.60584e-06
-7.5544e-06
-6.00048e-06
-6.87962e-06
-5.11938e-06
-6.98331e-06
-4.91565e-06
-7.06928e-06
-5.30168e-06
-7.70428e-06
-1.03582e-05
-1.83281e-05
7.49871e-05
-2.58877e-05
8.34636e-05
-3.12217e-05
6.90445e-05
-3.6938e-05
4.04663e-05
-3.77357e-05
-1.41835e-06
-3.32806e-05
-3.49455e-05
-2.58014e-05
-5.31869e-05
-1.57525e-05
-5.97002e-05
-4.00936e-06
-4.73665e-05
-6.96963e-07
-1.31911e-05
-2.68477e-06
7.43798e-07
-3.87024e-06
-1.82217e-06
-4.65896e-06
-5.86671e-06
-4.88857e-06
-7.32479e-06
-3.94765e-06
-7.82055e-06
-1.73423e-06
-9.19673e-06
-2.10377e-07
-8.59316e-06
-8.38094e-07
-7.07654e-06
-1.11964e-05
-1.72319e-05
9.22189e-05
-2.23329e-05
8.85646e-05
-2.64605e-05
7.31721e-05
-3.30076e-05
4.70134e-05
-3.33299e-05
-1.09612e-06
-2.79129e-05
-4.03624e-05
-2.08182e-05
-6.02816e-05
-1.31058e-05
-6.74126e-05
-2.97936e-06
-5.74929e-05
8.0303e-06
-2.42008e-05
4.95987e-06
3.81425e-06
1.93176e-06
1.20596e-06
-4.77779e-07
-3.45718e-06
-3.09855e-07
-7.49271e-06
3.52806e-06
-1.16585e-05
9.31491e-06
-1.49836e-05
1.2965e-05
-1.22433e-05
9.73557e-06
-3.84705e-06
-1.46081e-06
-1.67653e-05
0.000108984
-1.95754e-05
9.13747e-05
-2.35697e-05
7.71665e-05
-2.94557e-05
5.28994e-05
-2.86567e-05
-1.89521e-06
-2.1565e-05
-4.7454e-05
-1.52527e-05
-6.65939e-05
-1.03714e-05
-7.22939e-05
-2.517e-06
-6.53473e-05
1.58297e-05
-4.25476e-05
1.93642e-05
2.79693e-07
1.39165e-05
6.65363e-06
9.64214e-06
8.17201e-07
9.7738e-06
-7.6244e-06
1.33791e-05
-1.52638e-05
1.95348e-05
-2.11393e-05
2.38147e-05
-1.65233e-05
1.9232e-05
7.35734e-07
1.77712e-05
-7.31824e-06
2.74254e-05
-1.34988e-05
2.84908e-05
-1.91019e-05
2.87742e-05
-2.44861e-05
2.81312e-05
-2.97047e-05
2.6475e-05
-3.46384e-05
2.37358e-05
-3.90533e-05
1.98261e-05
-4.26198e-05
1.47248e-05
-4.50192e-05
8.68913e-06
-4.61029e-05
2.38052e-06
-4.59921e-05
-3.32898e-06
-4.48531e-05
-8.04529e-06
-4.25019e-05
-1.2169e-05
-3.89521e-05
-1.5151e-05
-3.56317e-05
-1.44808e-05
-3.43867e-05
-1.01273e-05
-3.62455e-05
-5.27837e-06
-4.08877e-05
-2.96593e-06
-4.6244e-05
-5.47692e-06
-4.3751e-05
-2.08906e-05
-3.31709e-05
-3.7876e-05
-2.11676e-05
-3.91427e-05
-2.58114e-05
-7.90894e-06
-6.40883e-06
3.38343e-05
-1.1946e-05
3.40279e-05
-1.7136e-05
3.39642e-05
-2.23763e-05
3.33715e-05
-2.78277e-05
3.19264e-05
-3.34676e-05
2.93757e-05
-3.90665e-05
2.5425e-05
-4.41706e-05
1.9829e-05
-4.83087e-05
1.28272e-05
-5.11564e-05
5.22828e-06
-5.26517e-05
-1.8337e-06
-5.33873e-05
-7.30975e-06
-5.29538e-05
-1.26024e-05
-4.91418e-05
-1.89631e-05
-4.39024e-05
-1.97202e-05
-4.17404e-05
-1.22893e-05
-4.69628e-05
-5.5913e-08
-6.08877e-05
1.0959e-05
-7.15659e-05
5.20126e-06
-6.41167e-05
-2.83397e-05
-5.63956e-05
-4.55971e-05
-5.38109e-05
-4.17274e-05
-2.32848e-05
-5.63375e-05
-4.50481e-06
3.83391e-05
-9.01009e-06
3.85332e-05
-1.35931e-05
3.85472e-05
-1.86689e-05
3.84473e-05
-2.44966e-05
3.7754e-05
-3.1218e-05
3.60972e-05
-3.86436e-05
3.28506e-05
-4.62366e-05
2.7422e-05
-5.34807e-05
2.00713e-05
-6.02645e-05
1.20121e-05
-6.60631e-05
3.96489e-06
-7.07707e-05
-2.60206e-06
-7.47316e-05
-8.64153e-06
-7.45295e-05
-1.91652e-05
-6.88668e-05
-2.53829e-05
-6.35785e-05
-1.75777e-05
-6.62205e-05
2.58617e-06
-7.54171e-05
2.01556e-05
-7.93946e-05
9.17875e-06
-7.63884e-05
-3.13459e-05
-7.71607e-05
-4.48248e-05
-8.09312e-05
-3.79568e-05
-1.88383e-05
-8.53778e-05
-1.45457e-06
3.97936e-05
-4.47283e-06
4.15515e-05
-8.21625e-06
4.22906e-05
-1.30175e-05
4.32486e-05
-1.92764e-05
4.40129e-05
-2.73206e-05
4.41414e-05
-3.73944e-05
4.29243e-05
-4.98316e-05
3.98592e-05
-6.41774e-05
3.4417e-05
-8.00581e-05
2.78928e-05
-9.88077e-05
2.27144e-05
-0.000116453
1.50436e-05
-0.000124515
-5.80134e-07
-0.000123285
-2.03952e-05
-0.000114202
-3.44659e-05
-9.74148e-05
-3.43645e-05
-8.23239e-05
-1.25047e-05
-7.45715e-05
1.24032e-05
-7.44096e-05
9.01688e-06
-7.90741e-05
-2.66815e-05
-8.32736e-05
-4.06253e-05
-8.70272e-05
-3.42032e-05
-1.75905e-05
-8.82749e-05
2.16004e-06
3.76336e-05
1.01966e-06
4.26918e-05
-1.71712e-06
4.50274e-05
-6.01484e-06
4.75463e-05
-1.28754e-05
5.08735e-05
-2.29131e-05
5.4179e-05
-3.7552e-05
5.75633e-05
-6.31304e-05
6.54375e-05
-0.000103922
7.52089e-05
-0.000135102
5.90723e-05
-0.000149482
3.70951e-05
-0.000155388
2.09492e-05
-0.000156356
3.87685e-07
-0.000153266
-2.34852e-05
-0.000146049
-4.16833e-05
-0.000131646
-4.87675e-05
-0.000105778
-3.83719e-05
-8.02655e-05
-1.31098e-05
-6.89008e-05
-2.34783e-06
-7.59751e-05
-1.96072e-05
-8.03706e-05
-3.62298e-05
-8.14705e-05
-3.31034e-05
-1.97834e-05
-7.92776e-05
4.05187e-06
3.35817e-05
5.29553e-06
4.14482e-05
3.23454e-06
4.70884e-05
-1.32665e-06
5.21075e-05
-1.10578e-05
6.06047e-05
-2.90059e-05
7.21271e-05
-6.40915e-05
9.2649e-05
-0.00011626
0.000117606
-0.000152409
0.000111358
-0.000160815
6.74783e-05
-0.000162409
3.86888e-05
-0.000164727
2.32673e-05
-0.000167001
2.66186e-06
-0.000166315
-2.41719e-05
-0.000162803
-4.51946e-05
-0.000154752
-5.68185e-05
-0.000135492
-5.76317e-05
-0.000104559
-4.40435e-05
-7.85206e-05
-2.83861e-05
-7.22733e-05
-2.58545e-05
-7.60304e-05
-3.24727e-05
-7.39359e-05
-3.51979e-05
-2.50661e-05
-6.86532e-05
-6.12462e-06
3.97064e-05
6.00266e-07
3.47232e-05
-2.89453e-06
5.05832e-05
-1.44602e-05
6.36732e-05
-3.57525e-05
8.1897e-05
-6.76018e-05
0.000103976
-0.000104305
0.000129352
-0.000131336
0.000144637
-0.000141639
0.000121661
-0.000145248
7.10871e-05
-0.000149071
4.2512e-05
-0.000155137
2.93336e-05
-0.000162527
1.00513e-05
-0.000166418
-2.02804e-05
-0.00016895
-4.26626e-05
-0.000166058
-5.97105e-05
-0.000157255
-6.6435e-05
-0.000137031
-6.42673e-05
-0.000109251
-5.61662e-05
-8.82187e-05
-4.68867e-05
-7.64371e-05
-4.42544e-05
-7.32724e-05
-3.83626e-05
-3.25456e-05
-6.5793e-05
-5.94623e-06
4.56526e-05
-1.79036e-05
4.66803e-05
-2.85912e-05
6.12708e-05
-4.25841e-05
7.7666e-05
-5.80209e-05
9.73339e-05
-7.42144e-05
0.00012017
-8.81569e-05
0.000143295
-9.49798e-05
0.00015146
-9.84048e-05
0.000125086
-0.000108956
8.16381e-05
-0.000123151
5.67069e-05
-0.000133196
3.93791e-05
-0.000140642
1.74968e-05
-0.00015537
-5.55225e-06
-0.000167581
-3.04518e-05
-0.000168109
-5.91817e-05
-0.000165109
-6.94351e-05
-0.000156274
-7.31027e-05
-0.000141595
-7.08451e-05
-0.000121987
-6.64948e-05
-0.000103732
-6.25091e-05
-8.67418e-05
-5.53529e-05
-4.62139e-05
-7.30735e-05
-1.28695e-05
5.85221e-05
-2.71018e-05
6.09121e-05
-3.91903e-05
7.33594e-05
-4.94256e-05
8.79012e-05
-5.7135e-05
0.000105043
-6.13583e-05
0.000124393
-6.02339e-05
0.00014217
-5.57314e-05
0.000146958
-5.8124e-05
0.000127478
-7.14076e-05
9.49218e-05
-8.71306e-05
7.24302e-05
-0.000102359
5.46079e-05
-0.000119707
3.48445e-05
-0.000137785
1.25255e-05
-0.000149707
-1.85297e-05
-0.000161962
-4.69261e-05
-0.000163241
-6.81568e-05
-0.000159648
-7.66953e-05
-0.000151656
-7.88367e-05
-0.000140835
-7.73162e-05
-0.000129146
-7.41981e-05
-0.00011451
-6.99893e-05
-6.53533e-05
-9.53703e-05
-1.35805e-05
7.21028e-05
-2.68779e-05
7.42095e-05
-3.62522e-05
8.27334e-05
-4.22567e-05
9.39057e-05
-4.45626e-05
0.000107349
-4.23108e-05
0.000122141
-3.51315e-05
0.000134991
-2.68186e-05
0.000138645
-2.60627e-05
0.000126723
-3.61264e-05
0.000104986
-4.97553e-05
8.60595e-05
-6.39999e-05
6.88526e-05
-7.91433e-05
4.9988e-05
-9.48667e-05
2.8249e-05
-0.000115482
2.086e-06
-0.000136156
-2.62527e-05
-0.000149797
-5.45154e-05
-0.000154633
-7.18597e-05
-0.000148982
-8.44876e-05
-0.000142394
-8.39044e-05
-0.000133158
-8.34342e-05
-0.000122582
-8.05646e-05
-7.63735e-05
-0.000111562
-1.02588e-05
8.23616e-05
-2.01833e-05
8.4134e-05
-2.67386e-05
8.92886e-05
-2.98185e-05
9.69858e-05
-2.90796e-05
0.00010661
-2.40797e-05
0.000117141
-1.52516e-05
0.000126163
-5.9341e-06
0.000129328
-2.2463e-06
0.000123035
-6.63389e-06
0.000109374
-1.51958e-05
9.46216e-05
-2.55995e-05
7.92564e-05
-3.74673e-05
6.18559e-05
-5.09572e-05
4.17389e-05
-6.74499e-05
1.85786e-05
-8.69716e-05
-6.73109e-06
-0.000109926
-3.15604e-05
-0.000128819
-5.29669e-05
-0.000139642
-7.36644e-05
-0.00013649
-8.7057e-05
-0.000128944
-9.09803e-05
-0.000120981
-8.85277e-05
-8.66063e-05
-0.000110748
-5.74695e-06
8.81084e-05
-1.19006e-05
9.02874e-05
-1.5737e-05
9.31248e-05
-1.66733e-05
9.79221e-05
-1.43093e-05
0.000104246
-8.40626e-06
0.000111238
4.62822e-07
0.000117294
9.94265e-06
0.000119848
1.62012e-05
0.000116777
1.70118e-05
0.000108563
1.38995e-05
9.7734e-05
8.18589e-06
8.49701e-05
2.49143e-07
6.97928e-05
-9.91237e-06
5.19005e-05
-2.27751e-05
3.14414e-05
-3.8749e-05
9.24281e-06
-5.73531e-05
-1.2956e-05
-7.62465e-05
-3.40734e-05
-9.63784e-05
-5.35323e-05
-0.00011401
-6.94252e-05
-0.000122402
-8.2588e-05
-0.000117437
-9.34932e-05
-9.27662e-05
-0.000111277
-1.54875e-06
8.96571e-05
-4.43773e-06
9.31762e-05
-5.77203e-06
9.44593e-05
-4.94053e-06
9.70905e-05
-1.54097e-06
0.000100846
4.57484e-06
0.000105122
1.30021e-05
0.000108867
2.22521e-05
0.000110598
3.00163e-05
0.000109013
3.46506e-05
0.000103929
3.62202e-05
9.61643e-05
3.51557e-05
8.60347e-05
3.15815e-05
7.33673e-05
2.54011e-05
5.80809e-05
1.64064e-05
4.04361e-05
4.49478e-06
2.11544e-05
-9.84999e-06
1.38886e-06
-2.60162e-05
-1.7907e-05
-4.33951e-05
-3.61533e-05
-6.04484e-05
-5.23719e-05
-7.71775e-05
-6.58588e-05
-9.61219e-05
-7.45488e-05
-8.16059e-05
-0.000107282
1.69305e-06
8.79642e-05
1.40501e-06
9.34643e-05
2.20496e-06
9.36595e-05
4.52135e-06
9.4774e-05
8.68499e-06
9.66828e-05
1.48536e-05
9.89539e-05
2.27883e-05
0.000100932
3.16407e-05
0.000101746
4.00759e-05
0.000100578
4.69445e-05
9.70607e-05
5.18109e-05
9.12982e-05
5.45381e-05
8.33076e-05
5.49416e-05
7.29638e-05
5.27777e-05
6.0245e-05
4.78297e-05
4.53841e-05
4.00684e-05
2.89158e-05
2.98304e-05
1.16267e-05
1.76303e-05
-5.70687e-06
3.9989e-06
-2.25219e-05
-1.02853e-05
-3.80877e-05
-2.42726e-05
-5.18716e-05
-3.56793e-05
-6.31419e-05
-7.4534e-05
-4.27511e-05
3.55909e-06
8.4405e-05
5.45929e-06
9.15642e-05
7.99139e-06
9.11273e-05
1.15207e-05
9.12446e-05
1.63117e-05
9.18919e-05
2.25103e-05
9.27554e-05
3.00226e-05
9.34197e-05
3.84043e-05
9.33641e-05
4.6913e-05
9.20691e-05
5.47918e-05
8.9182e-05
6.15351e-05
8.4555e-05
6.6779e-05
7.8064e-05
7.01661e-05
6.95768e-05
7.13447e-05
5.90662e-05
7.00366e-05
4.66923e-05
6.61359e-05
3.28166e-05
5.98028e-05
1.79599e-05
5.14184e-05
2.67764e-06
4.14289e-05
-1.25324e-05
3.05062e-05
-2.7165e-05
1.9507e-05
-4.08724e-05
9.77362e-06
-5.34087e-05
-6.56933e-05
9.32819e-07
4.44289e-06
7.99621e-05
7.95296e-06
8.80542e-05
1.17841e-05
8.72961e-05
1.62396e-05
8.67891e-05
2.15184e-05
8.66129e-05
2.77487e-05
8.65251e-05
3.49177e-05
8.62508e-05
4.28123e-05
8.54696e-05
5.10323e-05
8.38491e-05
5.91045e-05
8.11101e-05
6.66038e-05
7.70558e-05
7.31431e-05
7.15247e-05
7.83324e-05
6.43876e-05
8.1794e-05
5.56045e-05
8.32161e-05
4.52703e-05
8.24153e-05
3.36176e-05
7.93925e-05
2.0983e-05
7.43247e-05
7.74553e-06
6.75032e-05
-5.71087e-06
5.93486e-05
-1.90105e-05
5.03205e-05
-3.18443e-05
4.0864e-05
-4.39521e-05
-5.53281e-05
3.04989e-05
4.78248e-06
7.51798e-05
9.30249e-06
8.35343e-05
1.39973e-05
8.26012e-05
1.90803e-05
8.17063e-05
2.4688e-05
8.1005e-05
3.09168e-05
8.02962e-05
3.77855e-05
7.93823e-05
4.51997e-05
7.80556e-05
5.29479e-05
7.61008e-05
6.07413e-05
7.33166e-05
6.82662e-05
6.95309e-05
7.51935e-05
6.45973e-05
8.11767e-05
5.84044e-05
8.58719e-05
5.09094e-05
8.89783e-05
4.2164e-05
9.02804e-05
3.23155e-05
8.96794e-05
2.15841e-05
8.71951e-05
1.02298e-05
8.29463e-05
-1.46202e-06
7.71227e-05
-1.31869e-05
6.9926e-05
-2.46476e-05
6.14899e-05
-3.55162e-05
-4.54445e-05
5.16061e-05
4.85283e-06
7.03271e-05
9.91058e-06
7.84764e-05
1.50878e-05
7.7424e-05
2.05159e-05
7.62779e-05
2.62806e-05
7.52405e-05
3.24418e-05
7.4135e-05
3.9019e-05
7.28052e-05
4.59691e-05
7.11053e-05
5.31781e-05
6.88919e-05
6.04693e-05
6.60254e-05
6.7623e-05
6.23771e-05
7.43863e-05
5.78339e-05
8.04801e-05
5.23104e-05
8.56195e-05
4.577e-05
8.95422e-05
3.82414e-05
9.20377e-05
2.982e-05
9.29662e-05
2.06556e-05
9.2261e-05
1.09351e-05
8.99209e-05
8.77901e-07
8.59888e-05
-9.25484e-06
8.05149e-05
-1.91736e-05
7.35173e-05
-2.85184e-05
-3.68212e-05
6.48944e-05
4.79529e-06
6.55316e-05
1.00691e-05
7.32023e-05
1.54375e-05
7.20556e-05
2.09758e-05
7.07393e-05
2.6736e-05
6.94804e-05
3.2749e-05
6.81222e-05
3.90216e-05
6.65326e-05
4.55266e-05
6.46e-05
5.21951e-05
6.22233e-05
5.89141e-05
5.93065e-05
6.55311e-05
5.57601e-05
7.18597e-05
5.15052e-05
7.76873e-05
4.64828e-05
8.27898e-05
4.06675e-05
8.69524e-05
3.40788e-05
8.99889e-05
2.67834e-05
9.17547e-05
1.88897e-05
9.21485e-05
1.05413e-05
9.1108e-05
1.9185e-06
8.86019e-05
-6.74866e-06
8.46059e-05
-1.51777e-05
7.90882e-05
-2.30009e-05
-2.9724e-05
7.19908e-05
4.66921e-06
6.08622e-05
9.95501e-06
6.79162e-05
1.53141e-05
6.66964e-05
2.07895e-05
6.52637e-05
2.64151e-05
6.38547e-05
3.22036e-05
6.23338e-05
3.81489e-05
6.05871e-05
4.4225e-05
5.85238e-05
5.03809e-05
5.60674e-05
5.6537e-05
5.31504e-05
6.25849e-05
4.97124e-05
6.83881e-05
4.5702e-05
7.37882e-05
4.10829e-05
7.86139e-05
3.58419e-05
8.26958e-05
2.99971e-05
8.58786e-05
2.36007e-05
8.803e-05
1.67384e-05
8.9043e-05
9.52834e-06
8.88342e-05
2.12734e-06
8.73414e-05
-5.25569e-06
8.45133e-05
-1.23495e-05
8.03068e-05
-1.87943e-05
-2.41118e-05
7.46947e-05
4.4914e-06
5.63707e-05
9.66259e-06
6.27448e-05
1.48857e-05
6.14731e-05
2.01845e-05
5.99649e-05
2.55845e-05
5.84547e-05
3.10893e-05
5.6829e-05
3.66852e-05
5.4991e-05
4.23437e-05
5.28651e-05
4.80205e-05
5.03905e-05
5.36534e-05
4.75175e-05
5.91606e-05
4.42052e-05
6.44405e-05
4.04221e-05
6.93747e-05
3.61487e-05
7.38337e-05
3.13827e-05
7.76861e-05
2.61447e-05
8.08064e-05
2.04806e-05
8.30812e-05
1.44636e-05
8.44117e-05
8.19783e-06
8.47137e-05
1.82512e-06
8.3919e-05
-4.46102e-06
8.19739e-05
-1.04044e-05
7.88434e-05
-1.56638e-05
-1.97962e-05
7.45278e-05
4.26775e-06
5.21028e-05
9.24472e-06
5.77678e-05
1.4257e-05
5.64608e-05
1.93125e-05
5.49094e-05
2.44316e-05
5.33356e-05
2.96145e-05
5.16461e-05
3.48449e-05
4.97605e-05
4.00939e-05
4.7616e-05
4.53209e-05
4.51635e-05
5.04732e-05
4.23651e-05
5.54857e-05
3.91927e-05
6.02799e-05
3.56279e-05
6.47657e-05
3.1663e-05
6.88445e-05
2.73041e-05
7.24144e-05
2.25748e-05
7.53756e-05
1.75193e-05
7.76344e-05
1.22048e-05
7.91054e-05
6.72678e-06
7.97134e-05
1.21698e-06
7.93963e-05
-4.14401e-06
7.8109e-05
-9.11722e-06
7.58321e-05
-1.3387e-05
-1.65543e-05
7.25902e-05
4.0113e-06
4.80913e-05
8.74325e-06
5.3036e-05
1.3502e-05
5.17021e-05
1.82785e-05
5.01329e-05
2.30878e-05
4.85265e-05
2.79286e-05
4.68053e-05
3.27859e-05
4.49032e-05
3.76329e-05
4.2769e-05
4.24329e-05
4.03635e-05
4.71406e-05
3.76575e-05
5.17018e-05
3.46317e-05
5.60537e-05
3.12761e-05
6.01257e-05
2.7591e-05
6.38415e-05
2.35883e-05
6.71216e-05
1.92948e-05
6.98869e-05
1.47541e-05
7.20611e-05
1.00305e-05
7.35737e-05
5.21414e-06
7.43617e-05
4.2897e-07
7.43741e-05
-4.15642e-06
7.35784e-05
-8.32154e-06
7.19712e-05
-1.17798e-05
-1.41797e-05
6.95966e-05
3.74437e-06
4.43469e-05
8.20064e-06
4.85802e-05
1.26813e-05
4.72213e-05
1.71606e-05
4.56537e-05
2.16467e-05
4.40407e-05
2.61379e-05
4.2314e-05
3.06219e-05
4.04192e-05
3.50756e-05
3.83153e-05
3.94677e-05
3.59716e-05
4.37589e-05
3.33663e-05
4.79039e-05
3.04868e-05
5.18512e-05
2.73289e-05
5.55442e-05
2.3898e-05
5.89224e-05
2.02102e-05
6.19232e-05
1.62942e-05
6.44834e-05
1.21939e-05
6.65419e-05
7.97189e-06
6.80417e-05
3.71428e-06
6.89322e-05
-4.61624e-07
6.91748e-05
-4.39901e-06
6.87494e-05
-7.8961e-06
6.76659e-05
-1.06963e-05
-1.2495e-05
6.59812e-05
3.49055e-06
4.08565e-05
7.65673e-06
4.44144e-05
1.1845e-05
4.30327e-05
1.60172e-05
4.14816e-05
2.0175e-05
3.98829e-05
2.43167e-05
3.81722e-05
2.84325e-05
3.63034e-05
3.25039e-05
3.4244e-05
3.65049e-05
3.19708e-05
4.04027e-05
2.94686e-05
4.41593e-05
2.67302e-05
4.77324e-05
2.37559e-05
5.10757e-05
2.05547e-05
5.41405e-05
1.71454e-05
5.68767e-05
1.3558e-05
5.92339e-05
9.83659e-06
6.11634e-05
6.04228e-06
6.26197e-05
2.25788e-06
6.35635e-05
-1.40558e-06
6.39676e-05
-4.8031e-06
6.38224e-05
-7.75091e-06
6.31475e-05
-1.00214e-05
-1.13535e-05
6.2006e-05
3.26509e-06
3.75918e-05
7.14016e-06
4.05394e-05
1.1029e-05
3.91437e-05
1.48887e-05
3.7622e-05
1.87177e-05
3.60538e-05
2.25142e-05
3.43757e-05
2.62705e-05
3.2547e-05
2.99725e-05
3.0542e-05
3.35992e-05
2.83442e-05
3.71238e-05
2.5944e-05
4.05152e-05
2.33387e-05
4.37384e-05
2.05325e-05
4.67558e-05
1.75372e-05
4.95276e-05
1.43733e-05
5.20137e-05
1.10718e-05
5.41735e-05
7.67658e-06
5.59683e-05
4.24731e-06
5.73625e-05
8.63569e-07
5.83266e-05
-2.36973e-06
5.88425e-05
-5.31895e-06
5.8909e-05
-7.81734e-06
5.85517e-05
-9.66408e-06
-1.06372e-05
5.78354e-05
3.07038e-06
3.45218e-05
6.66281e-06
3.69467e-05
1.0251e-05
3.55556e-05
1.37973e-05
3.40756e-05
1.73004e-05
3.25505e-05
2.07591e-05
3.09169e-05
2.41675e-05
2.91384e-05
2.75149e-05
2.71945e-05
3.07847e-05
2.50742e-05
3.39556e-05
2.27729e-05
3.70025e-05
2.02917e-05
3.9897e-05
1.76379e-05
4.26083e-05
1.48256e-05
4.51046e-05
1.18768e-05
4.73532e-05
8.82308e-06
4.93217e-05
5.70786e-06
5.09796e-05
2.58934e-06
5.22995e-05
-4.56358e-07
5.32598e-05
-3.32999e-06
5.38499e-05
-5.90891e-06
5.40745e-05
-8.04191e-06
5.39628e-05
-9.55232e-06
-1.02524e-05
5.3578e-05
2.89793e-06
3.16239e-05
6.22064e-06
3.36237e-05
9.5125e-06
3.22638e-05
1.27493e-05
3.08385e-05
1.59335e-05
2.93664e-05
1.90647e-05
2.77857e-05
2.21391e-05
2.60639e-05
2.51484e-05
2.41852e-05
2.80799e-05
2.21427e-05
3.09169e-05
1.99358e-05
3.36393e-05
1.75691e-05
3.62247e-05
1.50525e-05
3.86483e-05
1.2402e-05
4.08845e-05
9.64058e-06
4.29071e-05
6.80039e-06
4.46906e-05
3.92432e-06
4.6211e-05
1.06884e-06
4.74474e-05
-1.69267e-06
4.83856e-05
-4.26809e-06
4.902e-05
-6.54331e-06
4.936e-05
-8.38184e-06
4.94359e-05
-9.62828e-06
-1.01244e-05
4.93078e-05
2.73417e-06
2.88895e-05
5.79978e-06
3.0558e-05
8.8041e-06
2.92594e-05
1.17405e-05
2.79019e-05
1.46164e-05
2.64906e-05
1.74336e-05
2.49685e-05
2.01899e-05
2.33075e-05
2.28794e-05
2.14957e-05
2.54923e-05
1.95298e-05
2.80157e-05
1.74123e-05
3.04342e-05
1.51507e-05
3.27299e-05
1.27568e-05
3.48834e-05
1.02484e-05
3.68744e-05
7.64953e-06
3.86822e-05
4.9925e-06
4.02868e-05
2.31971e-06
4.16702e-05
-3.14585e-07
4.28168e-05
-2.83925e-06
4.37178e-05
-5.16906e-06
4.43723e-05
-7.19784e-06
4.47923e-05
-8.80195e-06
4.50085e-05
-9.84457e-06
-1.01923e-05
4.50762e-05
2.56643e-06
2.63228e-05
5.38431e-06
2.77403e-05
8.11264e-06
2.65309e-05
1.07613e-05
2.52531e-05
1.3343e-05
2.39089e-05
1.58621e-05
2.24493e-05
1.83182e-05
2.08513e-05
2.07073e-05
1.91065e-05
2.30222e-05
1.72148e-05
2.52532e-05
1.51813e-05
2.73884e-05
1.30153e-05
2.94143e-05
1.07309e-05
3.13158e-05
8.34692e-06
3.30768e-05
5.88845e-06
3.46813e-05
3.38788e-06
3.61141e-05
8.86833e-07
3.73612e-05
-1.56173e-06
3.84133e-05
-3.89137e-06
3.92649e-05
-6.02079e-06
3.99189e-05
-7.85203e-06
4.03894e-05
-9.27258e-06
4.07062e-05
-1.01615e-05
-1.04059e-05
4.09197e-05
2.38687e-06
2.3936e-05
4.96253e-06
2.51649e-05
7.42714e-06
2.40663e-05
9.80272e-06
2.28778e-05
1.21062e-05
2.16054e-05
1.43447e-05
2.02107e-05
1.65196e-05
1.86763e-05
1.86284e-05
1.69976e-05
2.06663e-05
1.51768e-05
2.26264e-05
1.32211e-05
2.44997e-05
1.11418e-05
2.62761e-05
8.95442e-06
2.79438e-05
6.67912e-06
2.94905e-05
4.3417e-06
3.09037e-05
1.97458e-06
3.2172e-05
-3.81507e-07
3.32858e-05
-2.67569e-06
3.42394e-05
-4.84507e-06
3.50314e-05
-6.81292e-06
3.56675e-05
-8.48825e-06
3.61631e-05
-9.76831e-06
3.6547e-05
-1.05455e-05
-1.07234e-05
3.68645e-05
2.19345e-06
2.17428e-05
4.52955e-06
2.2829e-05
6.74184e-06
2.1854e-05
8.85902e-06
2.07609e-05
1.0901e-05
1.95634e-05
1.28771e-05
1.82347e-05
1.47898e-05
1.67636e-05
1.66386e-05
1.51488e-05
1.84206e-05
1.33948e-05
2.01311e-05
1.15106e-05
2.17639e-05
9.50901e-06
2.33112e-05
7.40707e-06
2.4764e-05
5.2263e-06
2.61124e-05
2.99324e-06
2.73468e-05
7.40149e-07
2.84587e-05
-1.49349e-06
2.94423e-05
-3.65935e-06
3.02949e-05
-5.69784e-06
3.10186e-05
-7.53674e-06
3.16215e-05
-9.09129e-06
3.21203e-05
-1.02672e-05
3.25428e-05
-1.09679e-05
-1.11102e-05
3.29296e-05
1.98864e-06
1.97543e-05
4.08655e-06
2.07311e-05
6.0564e-06
1.98842e-05
7.92909e-06
1.88882e-05
9.72598e-06
1.77664e-05
1.14573e-05
1.65034e-05
1.31268e-05
1.5094e-05
1.47355e-05
1.35401e-05
1.62821e-05
1.18481e-05
1.7764e-05
1.00286e-05
1.9177e-05
8.09592e-06
2.05155e-05
6.06856e-06
2.17721e-05
3.96968e-06
2.29385e-05
1.82685e-06
2.40067e-05
-3.28008e-07
2.49706e-05
-2.45743e-06
2.58272e-05
-4.51605e-06
2.6577e-05
-6.44778e-06
2.72249e-05
-8.18473e-06
2.77814e-05
-9.64782e-06
2.82643e-05
-1.07501e-05
2.87006e-05
-1.14042e-05
-1.15374e-05
2.91279e-05
1.77684e-06
1.79775e-05
3.63823e-06
1.88696e-05
5.37455e-06
1.81478e-05
7.01597e-06
1.72465e-05
8.58345e-06
1.61987e-05
1.00872e-05
1.49996e-05
1.15318e-05
1.36493e-05
1.29193e-05
1.21524e-05
1.425e-05
1.05172e-05
1.55232e-05
8.75536e-06
1.67365e-05
6.88254e-06
1.78858e-05
4.91925e-06
1.89646e-05
2.89089e-06
1.99648e-05
8.26676e-07
2.08788e-05
-1.24207e-06
2.17025e-05
-3.28114e-06
2.24352e-05
-5.24892e-06
2.30805e-05
-7.09316e-06
2.3646e-05
-8.7502e-06
2.41442e-05
-1.01461e-05
2.45944e-05
-1.12003e-05
2.50235e-05
-1.18333e-05
-1.19805e-05
2.54665e-05
1.56227e-06
1.64152e-05
3.19068e-06
1.7241e-05
4.70289e-06
1.66355e-05
6.12637e-06
1.58227e-05
7.47992e-06
1.4845e-05
8.77283e-06
1.37065e-05
1.001e-05
1.24119e-05
1.11941e-05
1.0968e-05
1.23271e-05
9.38407e-06
1.34097e-05
7.67253e-06
1.44417e-05
5.85048e-06
1.54201e-05
3.94084e-06
1.63385e-05
1.97249e-06
1.71873e-05
-2.21435e-08
1.79581e-05
-2.01297e-06
1.8648e-05
-3.97114e-06
1.92592e-05
-5.86018e-06
1.9798e-05
-7.63204e-06
2.02748e-05
-9.22699e-06
2.07044e-05
-1.05756e-05
2.11071e-05
-1.16029e-05
2.15099e-05
-1.22361e-05
-1.24173e-05
2.19468e-05
1.34844e-06
1.50668e-05
2.75096e-06
1.58384e-05
4.05078e-06
1.53356e-05
5.27087e-06
1.46025e-05
6.42632e-06
1.36894e-05
7.5249e-06
1.26077e-05
8.57118e-06
1.13654e-05
9.56845e-06
9.97057e-06
1.05197e-05
8.43264e-06
1.14277e-05
6.7644e-06
1.2294e-05
4.98401e-06
1.31175e-05
3.11728e-06
1.38912e-05
1.19875e-06
1.46017e-05
-7.32711e-07
1.52379e-05
-2.64925e-06
1.57983e-05
-4.53163e-06
1.62886e-05
-6.35052e-06
1.67186e-05
-8.06204e-06
1.71012e-05
-9.60961e-06
1.74531e-05
-1.09274e-05
1.77953e-05
-1.19451e-05
1.81549e-05
-1.25957e-05
-1.28273e-05
1.85648e-05
1.13938e-06
1.39274e-05
2.32834e-06
1.46494e-05
3.43133e-06
1.42326e-05
4.46466e-06
1.35692e-05
5.43889e-06
1.27151e-05
6.35981e-06
1.16867e-05
7.23123e-06
1.04939e-05
8.05653e-06
9.14513e-06
8.8396e-06
7.64941e-06
9.58508e-06
6.01879e-06
1.02974e-05
4.27157e-06
1.0978e-05
2.43654e-06
1.16198e-05
5.56895e-07
1.2202e-05
-1.31505e-06
1.2708e-05
-3.15543e-06
1.31396e-05
-4.96331e-06
1.35078e-05
-6.71879e-06
1.38266e-05
-8.38078e-06
1.41109e-05
-9.89395e-06
1.43782e-05
-1.11946e-05
1.46494e-05
-1.22163e-05
1.49508e-05
-1.28971e-05
-1.31905e-05
1.53141e-05
9.41879e-07
1.29855e-05