/*--------------------------------*- C++ -*----------------------------------*\
| =========                 |                                                 |
| \\      /  F ield         | OpenFOAM: The Open Source CFD Toolbox           |
|  \\    /   O peration     | Version:  v1606+                                |
|   \\  /    A nd           | Web:      www.OpenFOAM.com                      |
|    \\/     M anipulation  |                                                 |
\*---------------------------------------------------------------------------*/
FoamFile
{
    version     2.0;
    format      ascii;
    class       volScalarField;
    location    "1.34";
    object      p_rgh;
}
// * * * * * * * * * * * * * * * * * * * * * * * * * * * * * * * * * * * * * //

dimensions      [1 -1 -2 0 0 0 0];

internalField   nonuniform List<scalar> 
6000
(
106209
106205
106202
106198
106191
106185
106183
106180
106178
106176
106176
106178
106182
106183
106184
106183
106182
106181
106181
106184
106188
106190
106194
106202
106210
106213
106212
106207
106203
106203
106177
106176
106176
106175
106170
106167
106165
106163
106164
106165
106167
106169
106169
106170
106170
106169
106168
106166
106165
106165
106166
106170
106174
106180
106188
106190
106185
106177
106169
106165
106167
106177
106189
106200
106199
106190
106180
106177
106176
106177
106180
106184
106186
106187
106188
106187
106184
106181
106178
106177
106178
106186
106198
106214
106221
106211
106189
106166
106149
106139
106111
106129
106151
106184
106213
106216
106196
106185
106183
106186
106195
106205
106209
106211
106212
106210
106206
106199
106193
106189
106190
106203
106222
106235
106221
106183
106137
106112
106097
106089
106054
106065
106086
106129
106194
106242
106231
106207
106202
106213
106233
106249
106252
106251
106250
106248
106243
106234
106227
106220
106217
106229
106243
106230
106201
106128
106081
106068
106066
106067
106046
106045
106044
106060
106126
106220
106260
106245
106241
106255
106276
106284
106281
106276
106271
106265
106261
106258
106253
106248
106244
106242
106229
106210
106168
106078
106062
106065
106068
106070
106051
106050
106048
106045
106064
106164
106241
106263
106269
106276
106268
106258
106247
106238
106229
106220
106211
106203
106198
106201
106208
106206
106197
106177
106103
106076
106073
106073
106074
106077
106060
106058
106054
106053
106068
106116
106224
106239
106244
106239
106224
106200
106177
106159
106142
106127
106109
106088
106071
106084
106127
106144
106145
106083
106042
106089
106118
106114
106109
106110
106096
106094
106094
106100
106103
106108
106178
106205
106195
106172
106128
106063
106011
105973
105936
105905
105885
105862
105848
105862
105922
105993
105994
105918
105958
106090
106168
106178
106173
106172
106167
106167
106174
106176
106131
106051
106033
106113
106055
105959
105885
105847
105818
105794
105774
105758
105742
105732
105730
105735
105759
105802
105819
105804
105854
106044
106183
106222
106226
106228
106232
106232
106237
106208
106096
105915
105815
105835
105780
105767
105786
105800
105796
105785
105769
105753
105734
105734
105735
105736
105745
105777
105791
105786
105789
105959
106169
106242
106250
106263
106265
106260
106254
106201
105995
105761
105691
105691
105700
105753
105811
105831
105827
105815
105796
105776
105746
105742
105743
105747
105772
105803
105802
105794
105795
105885
106135
106270
106266
106290
106284
106275
106274
106191
105898
105690
105684
105684
105712
105783
105852
105877
105873
105859
105837
105808
105764
105749
105750
105773
105820
105851
105828
105803
105803
105855
106112
106307
106291
106321
106313
106300
106312
106243
105852
105689
105689
105693
105738
105815
105888
105926
105924
105908
105881
105837
105787
105760
105768
105810
105876
105918
105875
105817
105813
105856
106106
106346
106323
106355
106365
106332
106370
106317
105837
105693
105693
105711
105769
105847
105926
105974
105974
105956
105922
105863
105811
105783
105797
105854
105941
105994
105939
105857
105827
105874
106103
106387
106369
106392
106432
106382
106431
106368
105851
105698
105698
105736
105806
105890
105977
106032
106033
106008
105959
105887
105836
105816
105835
105905
106013
106079
106022
105928
105873
105919
106130
106426
106448
106441
106504
106452
106486
106413
105883
105709
105708
105768
105851
105948
106044
106102
106100
106062
105995
105912
105861
105853
105879
105965
106095
106172
106126
106035
105971
106004
106179
106435
106515
106508
106579
106530
106549
106422
105943
105747
105742
105816
105916
106031
106133
106184
106173
106117
106033
105938
105890
105893
105937
106047
106193
106282
106259
106186
106123
106129
106223
106404
106580
106579
106643
106630
106628
106397
106014
105820
105816
105898
106023
106155
106250
106276
106248
106178
106077
105971
105928
105945
106020
106167
106342
106452
106444
106387
106325
106283
106285
106361
106508
106607
106686
106693
106682
106382
106087
105934
105943
106045
106200
106335
106394
106382
106330
106254
106132
106017
105985
106023
106149
106357
106556
106632
106629
106598
106547
106467
106381
106370
106376
106466
106716
106638
106618
106440
106219
106107
106145
106287
106456
106554
106556
106511
106431
106355
106207
106087
106069
106145
106347
106590
106716
106736
106735
106725
106704
106650
106529
106408
106389
106382
106743
106580
106594
106557
106434
106365
106435
106591
106710
106740
106715
106657
106563
106482
106308
106184
106194
106331
106578
106752
106776
106767
106761
106756
106752
106742
106689
106541
106417
106396
106764
106609
106629
106723
106701
106667
106730
106807
106830
106824
106811
106780
106707
106619
106431
106311
106363
106554
106760
106804
106777
106759
106752
106752
106754
106761
106761
106704
106548
106431
106806
106745
106747
106816
106820
106822
106841
106839
106828
106828
106829
106828
106802
106731
106554
106455
106550
106742
106819
106782
106751
106732
106726
106729
106735
106750
106768
106775
106703
106537
106808
106807
106800
106795
106781
106788
106800
106797
106790
106799
106809
106823
106829
106794
106648
106591
106701
106805
106780
106738
106706
106687
106678
106675
106701
106730
106759
106784
106776
106631
106799
106790
106760
106750
106743
106745
106757
106752
106741
106748
106779
106801
106820
106816
106706
106690
106764
106761
106727
106696
106672
106645
106591
106477
106501
106694
106746
106781
106802
106662
106781
106723
106317
106403
106619
106727
106727
106715
106632
106571
106725
106779
106802
106813
106747
106739
106731
106703
106654
106588
106481
106291
105995
105716
105730
106245
106725
106781
106810
106681
106568
106158
105789
105724
105912
106197
106337
106235
105997
105890
106259
106742
106793
106799
106746
106586
106354
106206
106051
105863
105643
105423
105262
105188
105205
105474
106324
106780
106826
106725
106335
106050
105738
105529
105452
105490
105533
105448
105301
105242
105443
106069
106732
106806
106471
105779
105471
105370
105286
105211
105153
105121
105117
105118
105138
105204
105667
106612
106848
106751
106378
106118
105780
105531
105384
105333
105313
105242
105141
105105
105186
105455
105950
106190
105617
105254
105176
105151
105134
105119
105114
105115
105120
105135
105159
105197
105410
106200
106832
106733
106491
106213
105809
105516
105355
105306
105299
105228
105132
105107
105184
105386
105570
105640
105363
105222
105179
105160
105148
105136
105131
105131
105140
105163
105191
105227
105429
106040
106739
106734
106649
106299
105788
105482
105326
105282
105280
105213
105131
105110
105200
105397
105580
105611
105398
105250
105204
105187
105176
105164
105158
105158
105169
105193
105222
105263
105496
106195
106701
106804
106770
106373
105754
105467
105320
105267
105243
105188
105132
105121
105218
105410
105596
105628
105429
105285
105235
105216
105204
105191
105185
105185
105196
105220
105252
105299
105548
106321
106805
106855
106829
106433
105758
105512
105375
105271
105210
105164
105135
105135
105230
105411
105590
105647
105462
105317
105263
105243
105231
105218
105211
105211
105223
105250
105285
105342
105602
106405
106877
106906
106881
106468
105874
105694
105541
105318
105202
105157
105140
105155
105244
105416
105597
105665
105494
105350
105290
105269
105258
105245
105239
105240
105253
105283
105323
105392
105672
106505
106982
106975
106929
106467
106084
105976
105797
105421
105211
105161
105156
105186
105264
105424
105611
105694
105551
105394
105322
105297
105286
105274
105268
105271
105287
105320
105366
105449
105750
106597
107101
107075
106974
106501
106331
106250
106010
105536
105238
105172
105187
105230
105292
105425
105623
105764
105650
105463
105369
105331
105318
105306
105300
105305
105323
105360
105414
105515
105843
106670
107159
107123
106928
106682
106588
106478
106102
105608
105285
105201
105229
105287
105331
105432
105632
105830
105759
105551
105437
105382
105362
105348
105339
105343
105363
105405
105469
105591
105974
106784
107124
107148
106895
106836
106803
106704
106210
105672
105364
105274
105301
105370
105405
105481
105670
105880
105846
105639
105515
105451
105422
105404
105390
105391
105411
105458
105534
105680
106132
106929
107186
107212
106985
107005
107013
106894
106341
105802
105511
105417
105428
105488
105520
105581
105747
105945
105933
105730
105603
105534
105498
105477
105461
105460
105477
105526
105617
105792
106283
107039
107308
107315
107116
107157
107189
107058
106541
106032
105750
105640
105620
105652
105672
105720
105864
106035
106027
105833
105709
105637
105596
105571
105555
105554
105571
105623
105729
105940
106427
107112
107405
107401
107221
107266
107289
107173
106786
106379
106110
105966
105896
105880
105872
105903
106025
106160
106139
105964
105845
105770
105724
105696
105681
105684
105708
105769
105894
106137
106585
107184
107461
107455
107266
107320
107313
107225
107036
106807
106599
106427
106297
106214
106159
106160
106241
106330
106288
106142
106030
105953
105902
105870
105857
105870
105910
105991
106141
106400
106794
107290
107450
107495
107283
107337
107313
107276
107264
107226
107136
107003
106850
106707
106586
106529
106543
106566
106501
106385
106284
106208
106153
106119
106108
106137
106206
106320
106490
106734
107047
107374
107397
107527
107294
107359
107363
107405
107480
107521
107520
107477
107395
107281
107142
107023
106951
106894
106807
106708
106617
106544
106489
106458
106451
106499
106602
106747
106915
107094
107272
107411
107410
107483
107318
107427
107487
107552
107600
107612
107618
107612
107615
107608
107562
107483
107391
107290
107185
107092
107011
106943
106893
106867
106866
106925
107042
107184
107304
107382
107421
107442
107445
107447
107395
107525
107578
107602
107605
107589
107541
107529
107546
107576
107611
107631
107631
107589
107523
107450
107384
107329
107288
107267
107267
107312
107394
107478
107528
107536
107515
107483
107474
107456
107499
107582
107592
107591
107561
107441
107376
107383
107416
107483
107550
107600
107637
107663
107668
107647
107614
107581
107554
107539
107534
107545
107566
107587
107601
107600
107577
107537
107507
107458
107565
107587
107585
107554
107388
107249
107223
107261
107317
107384
107455
107534
107593
107638
107673
107688
107684
107671
107657
107646
107637
107627
107618
107616
107622
107624
107614
107586
107552
107460
107583
107568
107526
107408
107209
107170
107147
107194
107271
107335
107388
107454
107531
107602
107654
107682
107690
107686
107677
107668
107658
107647
107634
107626
107628
107632
107629
107617
107594
107482
107567
107428
107402
107266
107230
107144
107143
107160
107240
107308
107351
107397
107469
107560
107634
107670
107682
107681
107674
107666
107658
107648
107637
107629
107628
107630
107631
107627
107611
107500
107494
107432
107455
107332
107254
107149
107140
107143
107212
107291
107328
107360
107417
107529
107619
107660
107671
107669
107663
107656
107649
107641
107632
107625
107622
107623
107624
107623
107604
107489
107437
107436
107569
107497
107292
107168
107153
107143
107189
107267
107307
107331
107398
107519
107613
107652
107659
107655
107648
107641
107635
107629
107622
107616
107612
107611
107611
107611
107591
107472
107450
107555
107637
107601
107305
107186
107190
107166
107183
107248
107291
107318
107406
107531
107619
107643
107643
107636
107629
107623
107617
107612
107606
107601
107597
107594
107594
107595
107575
107459
107560
107613
107623
107557
107262
107130
107174
107170
107188
107233
107268
107331
107459
107573
107621
107628
107622
107614
107607
107602
107596
107591
107586
107581
107577
107574
107573
107573
107555
107448
107585
107588
107594
107452
107194
107060
107153
107159
107178
107207
107282
107427
107537
107596
107610
107607
107598
107590
107583
107578
107573
107568
107563
107558
107553
107549
107547
107547
107530
107435
107548
107548
107520
107325
107111
107033
107147
107159
107188
107281
107406
107522
107575
107591
107589
107580
107571
107563
107557
107551
107546
107541
107537
107532
107526
107522
107518
107516
107501
107418
107495
107480
107349
107241
107087
107054
107189
107212
107292
107414
107507
107559
107573
107571
107562
107552
107542
107534
107528
107522
107517
107512
107507
107502
107497
107491
107486
107482
107468
107397
107392
107109
107236
107234
107182
107177
107251
107287
107398
107495
107542
107557
107554
107544
107532
107521
107511
107503
107497
107491
107486
107481
107476
107470
107465
107458
107452
107445
107432
107371
106428
106474
107084
107287
107321
107307
107309
107350
107459
107523
107541
107539
107527
107513
107500
107488
107478
107470
107463
107458
107452
107447
107442
107437
107430
107423
107415
107407
107393
107342
105800
105826
106405
107121
107345
107364
107363
107410
107492
107525
107526
107513
107496
107479
107464
107452
107442
107434
107427
107422
107416
107411
107406
107401
107394
107387
107378
107368
107352
107308
105804
105805
105809
106413
107174
107356
107407
107462
107508
107515
107501
107480
107459
107440
107424
107412
107402
107394
107388
107383
107378
107373
107368
107363
107357
107349
107340
107328
107310
107270
105809
105809
105808
105874
106836
107369
107457
107498
107507
107492
107465
107437
107414
107395
107379
107367
107358
107350
107345
107340
107336
107332
107328
107324
107318
107311
107301
107287
107268
107229
105896
105880
105816
105986
106842
107402
107506
107510
107487
107453
107417
107385
107359
107341
107327
107317
107309
107303
107297
107294
107291
107288
107285
107282
107277
107271
107261
107247
107225
107186
106305
106322
106125
106471
107096
107479
107527
107493
107447
107399
107350
107312
107286
107273
107266
107260
107255
107250
107246
107243
107241
107240
107239
107237
107234
107229
107221
107207
107183
107142
106780
106928
106759
107064
107411
107533
107504
107453
107383
107306
107238
107211
107203
107207
107210
107208
107203
107197
107193
107190
107188
107188
107188
107188
107187
107184
107179
107167
107142
107099
107060
107306
107233
107368
107510
107513
107460
107379
107247
107138
107102
107125
107170
107188
107189
107178
107165
107151
107141
107135
107132
107132
107133
107135
107137
107136
107134
107126
107103
107057
107114
107376
107371
107442
107495
107462
107395
107203
107003
106990
107076
107152
107195
107200
107182
107155
107130
107107
107090
107080
107075
107074
107076
107078
107082
107084
107085
107081
107063
107019
106998
107328
107400
107444
107456
107410
107263
106986
106972
107042
107154
107224
107223
107191
107151
107112
107079
107053
107034
107021
107014
107013
107015
107019
107023
107027
107030
107031
107020
106983
106789
107250
107392
107421
107405
107331
107043
106955
107027
107162
107239
107236
107186
107126
107072
107032
107001
106978
106962
106952
106947
106947
106951
106956
106962
106967
106971
106975
106972
106945
106656
107163
107364
107387
107359
107244
106958
106959
107134
107243
107244
107176
107092
107016
106959
106919
106894
106879
106870
106866
106867
106872
106881
106890
106899
106905
106910
106915
106917
106902
106609
107102
107330
107346
107317
107159
106923
107026
107215
107247
107178
107060
106928
106837
106785
106758
106746
106744
106748
106757
106768
106783
106799
106816
106831
106842
106849
106855
106860
106854
106597
107072
107296
107305
107271
107057
106922
107126
107244
107186
107066
106779
106590
106538
106526
106535
106554
106575
106597
106619
106643
106670
106698
106727
106753
106773
106787
106797
106804
106804
106660
107071
107262
107264
107227
107029
106979
107172
107227
107130
106833
106350
106315
106291
106296
106333
106376
106411
106442
106470
106498
106532
106570
106613
106654
106690
106717
106738
106751
106755
106800
107107
107223
107222
107178
107030
107050
107187
107187
107010
106396
106322
106298
106273
106266
106279
106300
106320
106339
106355
106370
106390
106421
106465
106514
106568
106619
106663
106691
106700
106953
107105
107162
107172
107129
107046
107093
107187
107158
106896
106341
106309
106285
106281
106285
106291
106301
106309
106303
106296
106286
106276
106275
106287
106293
106345
106427
106532
106594
106634
106980
107020
107072
107100
107083
107052
107102
107172
107138
106807
106332
106298
106298
106327
106332
106323
106317
106305
106289
106266
106237
106201
106172
106125
106010
105996
106093
106283
106384
106546
106895
106901
106975
107026
107033
107043
107096
107151
107122
106814
106425
106319
106327
106376
106368
106345
106321
106299
106276
106249
106216
106188
106143
106025
105954
105926
105961
106117
105947
106283
106737
106801
106912
106958
106969
107018
107082
107129
107103
106788
106615
106555
106396
106353
106352
106340
106316
106292
106270
106242
106208
106184
106119
106039
106011
105980
105761
105303
104486
105264
106706
106788
106903
106897
106804
106970
107063
107111
107073
106846
106810
106764
106377
106321
106294
106303
106302
106287
106269
106237
106188
106146
106117
106089
106001
105502
104458
103201
102256
102767
106682
106825
106887
106815
106616
106889
107043
107101
107085
106994
106889
106621
106327
106313
106299
106286
106287
106301
106294
106280
106267
106257
106232
105766
104513
103138
102064
101446
101193
101293
106665
106869
106871
106680
106597
106769
107023
107099
107088
107040
106821
106317
106040
106092
106119
106140
106179
106248
106254
106178
106044
105748
104504
102700
101702
101275
101094
101029
101014
101026
106666
106866
106860
106603
106586
106607
106994
107107
107100
106869
105406
103933
103764
103781
103896
104178
104520
104696
104583
104059
103201
102418
101748
101332
101112
101024
101001
100998
101002
101008
106706
106856
106840
106627
106588
106462
106933
107121
107116
106589
104402
102457
101747
101560
101555
101643
101794
101851
101759
101518
101336
101389
101474
101326
101113
101018
100998
100997
101001
101007
106767
106829
106730
106310
105725
106408
106808
107140
107143
106988
104959
102669
101522
101194
101129
101125
101131
101134
101128
101120
101153
101316
101504
101447
101159
101022
100998
100997
101001
101007
106788
106736
106347
103472
102589
102839
104440
106736
107152
107104
105694
103218
101678
101186
101101
101093
101092
101093
101096
101102
101127
101251
101509
101596
101256
101048
101006
100999
101003
101009
105006
105076
102813
101970
101977
102062
102688
104209
106266
106555
105520
103549
101806
101177
101093
101088
101089
101090
101092
101097
101112
101180
101427
101671
101449
101153
101046
101012
101010
101015
102502
102149
101878
101901
102207
102389
102396
103501
105413
105516
105195
103889
101847
101150
101088
101087
101087
101087
101090
101094
101103
101133
101295
101677
101609
101375
101153
101056
101034
101035
102077
101782
101862
102018
102449
102723
102733
103329
104891
105640
105529
104051
101740
101119
101086
101086
101086
101086
101088
101092
101099
101112
101182
101462
101614
101550
101324
101164
101107
101093
102075
101783
101958
102089
102536
102885
103029
103901
105628
106027
105721
104024
101530
101098
101085
101085
101085
101085
101087
101092
101097
101104
101124
101231
101555
101556
101456
101330
101252
101213
102096
101785
102001
102098
102556
102931
103237
104473
106169
106288
105780
103404
101265
101088
101085
101085
101085
101085
101087
101092
101097
101101
101104
101126
101280
101458
101475
101464
101418
101371
102121
101787
101973
102089
102512
102926
103363
104927
106443
106426
105449
102338
101128
101084
101085
101085
101085
101085
101087
101092
101097
101099
101098
101096
101121
101241
101476
101492
101493
101464
102174
101789
101916
102054
102428
102863
103436
105197
106508
106473
104530
101530
101097
101085
101085
101085
101085
101085
101088
101093
101097
101098
101095
101086
101079
101105
101276
101396
101444
101465
102226
101791
101896
102032
102358
102802
103488
105303
106539
106295
103463
101214
101086
101086
101085
101085
101086
101086
101089
101093
101097
101097
101093
101081
101067
101062
101105
101202
101298
101390
102262
101794
101901
102030
102332
102782
103546
105277
106071
105814
102851
101153
101087
101087
101086
101086
101087
101087
101091
101095
101097
101097
101091
101078
101060
101049
101051
101085
101158
101260
102306
101817
101967
102086
102342
102791
103623
105140
105558
105388
102681
101152
101089
101088
101086
101088
101088
101090
101095
101098
101099
101097
101090
101075
101056
101044
101043
101053
101093
101161
102373
101898
102111
102246
102462
102892
103766
105102
105296
105231
102695
101177
101094
101089
101089
101092
101092
101096
101101
101103
101102
101099
101090
101073
101054
101044
101043
101047
101073
101114
102480
102041
102313
102475
102696
103162
104051
105142
105232
105258
103093
101230
101102
101096
101098
101101
101100
101106
101111
101111
101109
101103
101091
101072
101052
101043
101043
101046
101066
101096
102844
102305
102612
102780
103005
103524
104441
105319
105274
105517
103674
101294
101118
101112
101116
101118
101117
101123
101126
101125
101121
101112
101096
101073
101052
101043
101043
101045
101064
101090
104077
102901
103162
103242
103418
103935
104849
105667
105349
106144
104025
101324
101143
101138
101146
101149
101146
101150
101150
101146
101139
101128
101107
101079
101054
101043
101043
101045
101063
101088
106700
104344
104156
103978
104006
104424
105216
105964
105775
106804
104103
101327
101176
101174
101190
101196
101193
101191
101184
101176
101168
101155
101132
101096
101062
101046
101044
101046
101064
101088
108025
106994
105770
105081
104816
105029
105541
106139
106401
107175
103622
101330
101216
101217
101246
101258
101255
101247
101230
101216
101207
101195
101172
101130
101085
101058
101051
101053
101070
101091
108095
108075
107606
106540
105894
105721
105894
106247
106781
107292
103027
101346
101260
101262
101306
101327
101325
101309
101281
101263
101255
101249
101229
101183
101129
101091
101076
101078
101092
101107
108116
108174
108163
107863
107163
106544
106376
106364
106890
107352
102799
101378
101308
101307
101361
101391
101393
101368
101329
101308
101304
101306
101292
101249
101194
101150
101130
101134
101147
101150
107633
108241
108238
108220
108044
107508
107017
106574
106855
107411
102822
101457
101358
101352
101409
101449
101452
101417
101367
101342
101340
101346
101341
101310
101265
101226
101208
101219
101239
101233
107471
108193
108306
108295
108278
108068
107675
107096
106919
107471
103604
101610
101410
101399
101450
101500
101504
101460
101399
101365
101358
101360
101360
101346
101318
101291
101279
101299
101331
101334
107528
108083
108347
108365
108355
108296
108098
107696
106979
107527
104731
101861
101467
101448
101484
101545
101553
101505
101433
101387
101366
101361
101360
101356
101338
101322
101315
101334
101375
101404
107587
107981
108144
108338
108430
108420
108348
108092
107136
107643
105584
102152
101529
101497
101515
101584
101601
101559
101481
101419
101378
101354
101344
101342
101336
101326
101320
101335
101377
101423
107649
108041
107858
107953
108363
108487
108478
108377
107871
107982
106161
102434
101596
101545
101546
101612
101645
101619
101545
101474
101407
101351
101323
101313
101315
101309
101303
101312
101351
101411
107806
107216
105280
105542
107686
108048
108543
108533
108281
108071
106660
102742
101665
101590
101578
101628
101677
101674
101617
101548
101466
101374
101317
101289
101280
101276
101268
101267
101303
101379
105823
103873
103375
103997
105720
106638
108369
108600
108413
108148
106956
102890
101710
101629
101608
101635
101695
101713
101683
101630
101554
101440
101338
101283
101254
101239
101229
101223
101258
101335
104477
103044
103131
103644
104522
106299
108316
108652
108377
108198
107080
102833
101723
101660
101634
101639
101701
101735
101730
101703
101652
101546
101405
101300
101245
101212
101197
101191
101228
101295
104144
103057
103489
103737
104380
106818
108430
108672
108289
108203
106855
102366
101715
101681
101655
101647
101694
101743
101758
101755
101737
101666
101521
101360
101253
101201
101177
101173
101210
101266
104128
103071
103986
104303
104914
107769
108618
108704
108269
108250
105459
101902
101698
101691
101670
101657
101682
101740
101770
101785
101792
101768
101660
101473
101296
101202
101170
101170
101196
101246
104515
103098
104427
105090
106041
108332
108719
108710
108313
108310
103318
101728
101689
101695
101681
101667
101675
101723
101771
101799
101822
101829
101781
101626
101399
101229
101170
101169
101185
101231
105118
103399
105042
106061
107093
108607
108774
108678
108368
107021
102004
101652
101684
101697
101688
101675
101676
101704
101756
101801
101833
101855
101852
101769
101561
101313
101183
101168
101177
101218
105476
103890
105958
107063
107847
108721
108738
108598
108397
103906
101761
101654
101684
101700
101692
101680
101678
101692
101733
101783
101828
101862
101876
101856
101732
101464
101231
101167
101171
101206
105683
104500
106883
107759
108299
108774
108681
108576
106618
102157
101655
101656
101687
101702
101697
101684
101680
101689
101716
101754
101799
101849
101881
101884
101844
101644
101327
101174
101170
101198
105943
105344
107505
108040
108490
108751
108551
107878
103584
101797
101657
101658
101693
101708
101707
101692
101685
101690
101711
101739
101772
101815
101864
101887
101881
101775
101471
101206
101169
101192
106257
106402
107743
108052
108494
108749
108340
105611
102354
101747
101679
101679
101704
101720
101723
101705
101694
101695
101713
101739
101765
101790
101822
101862
101875
101823
101613
101284
101169
101189
106596
107037
107691
107166
108036
108804
107694
103806
102168
101816
101730
101711
101721
101737
101741
101725
101711
101709
101729
101757
101776
101786
101784
101800
101824
101823
101700
101404
101182
101187
106969
107040
106710
105826
107308
108862
106821
103152
102204
101939
101803
101746
101741
101756
101761
101752
101741
101743
101771
101806
101821
101813
101773
101738
101750
101777
101728
101523
101237
101186
107152
106101
105155
104852
106453
108243
106501
103037
102367
102104
101900
101792
101768
101777
101787
101791
101789
101804
101848
101892
101910
101874
101776
101700
101685
101713
101726
101607
101340
101192
107184
104682
104564
104560
105638
107562
106658
103156
102610
102310
102038
101874
101816
101811
101829
101849
101866
101902
101961
102011
102027
101949
101795
101680
101639
101659
101697
101645
101456
101228
106716
104584
104581
104587
105035
107065
107223
103439
102869
102565
102249
102018
101906
101878
101897
101937
101981
102038
102105
102149
102144
102007
101814
101673
101608
101609
101648
101649
101541
101319
106402
104602
104607
104607
104710
106770
107602
103777
103082
102853
102551
102260
102073
102006
102009
102062
102136
102209
102269
102296
102231
102038
101827
101674
101593
101567
101597
101649
101591
101451
107693
104633
104677
104772
104749
106608
107643
103982
103185
103110
102925
102627
102362
102217
102185
102230
102320
102398
102434
102420
102279
102052
101841
101686
101592
101546
101545
101603
101614
101559
109361
107225
106298
105924
105394
106789
107682
103984
103179
103259
103286
103097
102801
102550
102445
102444
102517
102575
102582
102495
102296
102063
101866
101717
101608
101539
101501
101535
101614
101601
109616
109394
108194
107115
106436
107143
107713
103815
103005
103301
103531
103553
103357
103034
102787
102700
102710
102723
102676
102524
102302
102085
101915
101775
101649
101544
101477
101464
101558
101594
109675
109672
109442
108358
107372
107546
107738
103501
102607
103104
103640
103871
103874
103600
103223
102978
102878
102819
102714
102534
102319
102140
102000
101863
101713
101568
101468
101414
101458
101523
109543
109737
109721
109308
108280
107998
106949
102946
102072
102605
103455
104011
104198
104078
103672
103256
103009
102869
102728
102550
102377
102242
102123
101975
101797
101613
101469
101390
101373
101400
109409
109798
109786
109698
108972
108240
104607
102095
101560
101961
102953
103897
104303
104358
104018
103500
103114
102902
102754
102615
102495
102393
102272
102103
101895
101675
101488
101383
101326
101300
109182
109799
109848
109821
109352
108288
103049
101420
101195
101419
102276
103521
104292
104442
104223
103697
103220
102966
102847
102764
102683
102590
102445
102244
102006
101752
101529
101383
101307
101256
107850
108444
109835
109840
109506
106706
101840
101076
100998
101092
101654
102906
104082
104453
104376
103888
103367
103110
103037
103004
102945
102836
102653
102412
102138
101844
101582
101395
101302
101252
107216
106912
109464
109854
109039
103827
101290
100946
100914
100942
101228
102200
103626
104442
104534
104128
103609
103352
103312
103319
103274
103145
102925
102634
102297
101950
101644
101421
101302
101252
107086
106364
108355
109201
105772
102305
101214
100909
100882
100888
101000
101589
102961
104250
104681
104476
104007
103700
103650
103679
103662
103542
103295
102930
102493
102068
101716
101461
101309
101253
107014
106217
107529
107285
104402
102260
101250
100902
100869
100870
100906
101164
102175
103817
104783
104941
104542
104152
104056
104098
104122
104053
103785
103297
102721
102199
101798
101516
101335
101253
107009
106065
107234
106538
104511
102624
101340
100906
100862
100864
100877
100958
101455
103000
104777
105396
105165
104730
104573
104631
104697
104702
104382
103713
102968
102344
101895
101593
101390
101273
106993
106078
107145
106643
105123
102991
101486
100915
100856
100860
100870
100897
101055
101914
104025
105644
105953
105545
105281
105341
105502
105546