/*--------------------------------*- C++ -*----------------------------------*\
| =========                 |                                                 |
| \\      /  F ield         | OpenFOAM: The Open Source CFD Toolbox           |
|  \\    /   O peration     | Version:  v1606+                                |
|   \\  /    A nd           | Web:      www.OpenFOAM.com                      |
|    \\/     M anipulation  |                                                 |
\*---------------------------------------------------------------------------*/
FoamFile
{
    version     2.0;
    format      ascii;
    class       surfaceScalarField;
    location    "1.34";
    object      phi.particles;
}
// * * * * * * * * * * * * * * * * * * * * * * * * * * * * * * * * * * * * * //

dimensions      [0 3 -1 0 0 0 0];

internalField   nonuniform List<scalar> 
11770
(
-2.1143e-06
-9.36497e-06
-1.69708e-06
-9.93568e-06
-5.09561e-07
-1.09656e-05
1.12195e-06
-1.25352e-05
2.87281e-06
-1.35182e-05
3.67004e-06
-1.83828e-05
3.20874e-06
-2.38599e-05
2.51884e-06
-2.52447e-05
1.98978e-06
-2.53052e-05
1.53682e-06
-2.48234e-05
1.46786e-06
-2.28872e-05
1.31901e-06
-2.23492e-05
8.29332e-07
-2.25362e-05
3.21637e-07
-2.22806e-05
-2.40281e-07
-2.18295e-05
-9.31061e-07
-2.15618e-05
-1.55236e-06
-2.14232e-05
-2.42841e-06
-2.21739e-05
-3.76109e-06
-2.34883e-05
-5.43538e-06
-2.35338e-05
-7.2678e-06
-2.27109e-05
-8.49003e-06
-2.00114e-05
-8.63464e-06
-1.67953e-05
-7.49397e-06
-1.27395e-05
-5.20504e-06
-1.10225e-05
-2.59831e-06
-9.88323e-06
-4.8172e-07
-8.81733e-06
1.10499e-06
-7.96644e-06
1.75022e-06
-7.73044e-06
-7.84144e-06
-2.7176e-07
5.97613e-06
-7.05497e-07
7.49419e-06
-8.47108e-09
6.83311e-06
1.38615e-06
5.94377e-06
2.62354e-06
5.77853e-06
2.25602e-06
5.22409e-06
8.87217e-07
3.12213e-06
2.01669e-07
1.98133e-06
4.25185e-07
1.04784e-06
1.23478e-06
3.32923e-07
2.44635e-06
-1.10438e-07
3.01741e-06
7.34039e-07
2.17959e-06
2.44334e-06
1.5002e-07
3.90408e-06
-1.94723e-06
4.48082e-06
-3.19341e-06
4.17913e-06
-3.72162e-06
3.61295e-06
-3.95623e-06
3.30947e-06
-4.21163e-06
3.03401e-06
-5.31225e-06
3.62688e-06
-8.48054e-06
5.56641e-06
-1.18083e-05
7.47784e-06
-1.29961e-05
8.32373e-06
-1.14904e-05
7.48019e-06
-7.73975e-06
4.15879e-06
-4.1794e-06
3.20109e-06
-1.69058e-06
2.7327e-06
-2.00678e-07
2.02187e-06
-4.59751e-07
2.42296e-06
1.79516e-06
-1.53036e-06
-4.28611e-06
-3.15923e-06
-4.73241e-06
-4.1714e-06
-2.86355e-06
-3.59182e-06
-8.45744e-07
-5.10668e-07
2.87611e-07
2.31345e-06
2.41115e-06
2.50909e-06
3.44931e-06
1.57045e-06
2.20705e-06
1.29988e-06
8.98913e-07
1.93073e-06
4.25475e-07
2.83486e-06
5.90714e-07
3.20569e-06
2.37307e-06
2.06602e-06
5.95033e-06
-5.60509e-07
8.53751e-06
-3.31921e-06
9.11063e-06
-5.27565e-06
8.11434e-06
-6.26407e-06
6.52063e-06
-6.5571e-06
5.60223e-06
-6.26588e-06
5.17955e-06
-6.21314e-06
5.67285e-06
-7.63425e-06
8.81095e-06
-9.7373e-06
1.03023e-05
-1.04804e-05
9.35283e-06
-8.45377e-06
3.65874e-06
-4.81182e-06
-3.44543e-06
-2.64682e-06
-6.00865e-06
-2.15136e-06
-8.73029e-06
-1.69271e-06
-1.1216e-05
-1.19763e-06
-1.19329e-05
-1.16607e-05
1.59761e-06
-1.45603e-05
1.62757e-06
-1.4203e-05
-2.37868e-07
-1.07874e-05
-2.80046e-06
-6.02931e-06
-2.13631e-06
-1.80103e-06
1.12163e-06
2.30911e-06
3.10125e-06
7.09311e-06
3.19837e-06
7.73968e-06
3.19293e-06
7.11801e-06
3.75122e-06
6.62943e-06
4.33839e-06
6.92038e-06
4.1894e-06
8.59437e-06
2.92113e-06
1.24296e-05
5.12067e-07
1.59113e-05
-2.47927e-06
1.69305e-05
-5.39299e-06
1.62755e-05
-7.84633e-06
1.51057e-05
-9.08846e-06
1.37125e-05
-8.82439e-06
1.19312e-05
-7.28301e-06
1.13662e-05
-6.17958e-06
1.38594e-05
-6.70365e-06
1.55158e-05
-7.57503e-06
1.38534e-05
-7.19593e-06
4.10454e-06
-7.02319e-06
-7.47425e-06
-8.17186e-06
-1.25463e-05
-8.04599e-06
-1.66809e-05
-6.1019e-06
-1.87133e-05
-2.89038e-06
-1.8913e-05
-1.80836e-05
3.0332e-06
-2.01152e-05
5.40716e-06
-2.04754e-05
6.49252e-06
-1.84017e-05
4.58893e-06
-1.49572e-05
1.9934e-06
-9.82287e-06
3.27141e-06
-3.5882e-06
6.0221e-06
6.77897e-06
7.56013e-06
1.15489e-05
8.51876e-06
1.20956e-05
9.47838e-06
1.10506e-05
9.90027e-06
1.04735e-05
9.22732e-06
1.18115e-05
7.34874e-06
1.6355e-05
4.65969e-06
2.08098e-05
1.39552e-06
2.24533e-05
-2.44563e-06
2.23482e-05
-6.53133e-06
2.15703e-05
-9.36505e-06
2.00429e-05
-9.95165e-06
1.67656e-05
-8.27053e-06
1.49167e-05
-5.91368e-06
1.64961e-05
-5.64912e-06
1.83751e-05
-7.92709e-06
1.56675e-05
-1.09525e-05
1.28484e-06
-1.36776e-05
-1.24132e-05
-1.37175e-05
-1.85637e-05
-1.07275e-05
-2.159e-05
-7.44922e-06
-2.1842e-05
-3.3115e-06
-2.12073e-05
-1.96658e-05
3.54678e-06
-2.10214e-05
7.04216e-06
-2.16252e-05
1.04866e-05
-2.06957e-05
1.33432e-05
-1.93646e-05
1.24888e-05
-1.56833e-05
9.80806e-06
-9.04065e-06
9.7476e-06
3.92348e-06
1.17722e-05
1.21553e-05
1.38416e-05
1.35787e-05
1.48566e-05
1.25811e-05
1.44048e-05
1.09858e-05
1.2725e-05
1.15147e-05
1.02044e-05
1.55692e-05
7.52084e-06
2.00519e-05
4.77684e-06
2.15857e-05
1.62383e-06
2.1496e-05
-2.14054e-06
2.1063e-05
-6.19739e-06
2.00888e-05
-9.19773e-06
1.67594e-05
-9.81426e-06
1.3838e-05
-8.25705e-06
1.38306e-05
-7.36088e-06
1.59007e-05
-1.07121e-05
1.40517e-05
-1.6426e-05
-9.11456e-07
-1.96085e-05
-1.43714e-05
-1.71135e-05
-2.05107e-05
-1.18608e-05
-2.27627e-05
-7.71295e-06
-2.18863e-05
-3.52987e-06
-2.0882e-05
-1.89907e-05
3.54689e-06
-2.02224e-05
7.80554e-06
-2.11318e-05
1.21396e-05
-2.0439e-05
1.80064e-05
-2.06352e-05
2.13277e-05
-1.75274e-05
1.83424e-05
-1.093e-05
1.52903e-05
2.39394e-06
1.56254e-05
1.05339e-05
1.64463e-05
1.22e-05
1.59456e-05
1.04351e-05
1.4053e-05
6.44267e-06
1.18813e-05
4.31585e-06
9.86638e-06
6.02999e-06
7.89596e-06
8.69872e-06
6.00453e-06
9.08009e-06
4.02998e-06
8.25674e-06
1.6837e-06
7.48651e-06
-1.6607e-06
6.59991e-06
-6.13744e-06
4.13249e-06
-9.71773e-06
2.04964e-06
-1.02908e-05
1.97243e-06
-9.56312e-06
5.0261e-06
-1.27221e-05
6.46862e-06
-1.89756e-05
-4.25691e-06
-2.19016e-05
-1.58855e-05
-1.89131e-05
-2.05792e-05
-1.30582e-05
-2.28124e-05
-7.98917e-06
-2.12781e-05
-3.49157e-06
-1.98962e-05
-1.75466e-05
3.98053e-06
-1.87641e-05
8.45054e-06
-2.00096e-05
1.39383e-05
-1.96554e-05
2.07772e-05
-2.07516e-05
2.49665e-05
-1.68254e-05
2.29622e-05
-9.98741e-06
1.86136e-05
2.24768e-06
1.5832e-05
7.84769e-06
1.36922e-05
6.57333e-06
1.06527e-05
3.6935e-07
7.10199e-06
-7.44024e-06
4.89715e-06
-1.1946e-05
4.33983e-06
-1.26779e-05
4.3125e-06
-1.19228e-05
4.17839e-06
-1.21017e-05
4.07128e-06
-1.31389e-05
3.85727e-06
-1.39189e-05
3.04625e-06
-1.45973e-05
1.03018e-06
-1.62386e-05
-1.91502e-06
-1.66631e-05
-4.82189e-06
-1.50025e-05
-6.71022e-06
-1.15683e-05
-9.64615e-06
-7.51668e-06
-1.48581e-05
-9.99989e-06
-1.87751e-05
-1.72009e-05
-1.85629e-05
-2.15542e-05
-1.36687e-05
-2.35942e-05
-8.1999e-06
-2.10835e-05
-3.72441e-06
-1.89969e-05
-1.61444e-05
4.14335e-06
-1.75412e-05
8.89997e-06
-1.90376e-05
1.49749e-05
-1.93324e-05
2.17555e-05
-2.10071e-05
2.48487e-05
-1.73292e-05
2.18335e-05
-1.03108e-05
1.5151e-05
-2.47469e-06
8.69011e-06
-8.83859e-07
3.16449e-06
-6.8766e-06
-1.03178e-06
-1.5888e-05
-3.13003e-06
-2.36277e-05
-3.3035e-06
-2.6897e-05
-2.08559e-06
-2.74549e-05
-2.90142e-07
-2.67451e-05
1.32577e-06
-2.60125e-05
2.47582e-06
-2.58225e-05
3.14243e-06
-2.52333e-05
3.55092e-06
-2.53261e-05
3.88402e-06
-2.59035e-05
4.18504e-06
-2.60482e-05
3.59669e-06
-2.46311e-05
1.37848e-06
-2.24709e-05
-5.34373e-07
-1.83185e-05
-3.21261e-06
-1.48849e-05
-9.67728e-06
-1.74313e-05
-1.44752e-05
-2.26806e-05
-1.25065e-05
-2.53231e-05
-7.98367e-06
-2.22838e-05
-3.67894e-06
-1.91699e-05
-1.5737e-05
4.19744e-06
-1.73432e-05
9.12554e-06
-1.92566e-05
1.50984e-05
-2.05326e-05
1.9265e-05
-2.3178e-05
1.8303e-05
-2.01442e-05
1.24543e-05
-1.2175e-05
4.01015e-06
-1.03017e-05
-2.59241e-06
-1.36206e-05
-5.4384e-06
-1.97956e-05
-5.92641e-06
-2.59608e-05
-5.55633e-06
-2.95944e-05
-4.62656e-06
-3.05138e-05
-3.24924e-06
-3.00599e-05
-1.47904e-06
-2.90118e-05
2.88669e-07
-2.76031e-05
1.59513e-06
-2.62044e-05
2.14855e-06
-2.46195e-05
2.52518e-06
-2.43643e-05
3.54893e-06
-2.45457e-05
5.15517e-06
-2.43392e-05
6.85164e-06
-2.45294e-05
7.39309e-06
-2.42607e-05
7.01427e-06
-2.11901e-05
7.16792e-06
-1.51915e-05
2.53551e-06
-1.49597e-05
-6.28858e-06
-2.00706e-05
-9.19189e-06
-2.62125e-05
-6.64914e-06
-2.43331e-05
-3.21915e-06
-2.04673e-05
-1.64013e-05
3.87228e-06
-1.86148e-05
8.21934e-06
-2.09993e-05
1.21498e-05
-2.34163e-05
1.1833e-05
-2.62864e-05
5.55606e-06
-2.14377e-05
-4.4661e-07
-1.27861e-05
-4.2476e-06
-1.41864e-05
-6.39087e-06
-1.85897e-05
-5.64407e-06
-2.1271e-05
-4.02801e-06
-2.52194e-05
-3.29577e-06
-2.73156e-05
-3.023e-06
-2.7624e-05
-2.13426e-06
-2.72633e-05
-1.03653e-06
-2.63082e-05
-7.82267e-09
-2.46994e-05
9.35386e-07
-2.28433e-05
1.63123e-06
-2.10809e-05
2.491e-06
-2.07768e-05
4.10639e-06
-2.0992e-05
6.39226e-06
-2.00925e-05
8.05954e-06
-2.07363e-05
8.43771e-06
-2.15613e-05
9.32134e-06
-1.9867e-05
1.15097e-05
-1.32388e-05
1.09663e-05
-1.1356e-05
2.95383e-06
-1.51514e-05
-4.18579e-06
-2.42918e-05
-4.26244e-06
-2.51206e-05
-2.22029e-06
-2.16843e-05
-1.74206e-05
2.87882e-06
-2.02357e-05
5.68309e-06
-2.28381e-05
7.1387e-06
-2.55562e-05
2.49998e-06
-2.72309e-05
-5.36728e-06
-1.84488e-05
-8.07755e-06
-1.10785e-05
-7.60807e-06
-1.2187e-05
-5.00609e-06
-1.48897e-05
-1.92904e-06
-1.70078e-05
-1.46502e-06
-2.08347e-05
-2.06524e-06
-2.34614e-05
-2.2892e-06
-2.40086e-05
-1.47652e-06
-2.401e-05
-3.07813e-07
-2.32849e-05
3.78807e-07
-2.13195e-05
8.92266e-07
-1.94195e-05
1.58711e-06
-1.75778e-05
3.12356e-06
-1.69985e-05
5.0616e-06
-1.61707e-05
5.70917e-06
-1.62726e-05
5.5516e-06
-1.67529e-05
6.18119e-06
-1.70984e-05
7.78362e-06
-1.59687e-05
1.13162e-05
-1.16605e-05
1.35967e-05
-8.8275e-06
8.91785e-06
-1.13744e-05
1.37475e-06
-1.96714e-05
-1.56007e-06
-2.37495e-05
-9.61204e-07
-2.17155e-05
-1.7703e-05
1.43505e-06
-2.06078e-05
2.62175e-06
-2.32589e-05
2.48067e-06
-2.55797e-05
-3.59725e-06
-2.55245e-05
-1.06394e-05
-1.31184e-05
-1.03976e-05
-7.25204e-06
-6.57614e-06
-7.6776e-06
-2.39447e-06
-9.86345e-06
-1.72699e-07
-1.46507e-05
-9.58989e-07
-1.80677e-05
-2.08006e-06
-1.95072e-05
-2.07321e-06
-1.97888e-05
-1.39029e-06
-2.0065e-05
-1.44127e-07
-1.98612e-05
7.4731e-07
-1.77769e-05
1.17925e-06
-1.60036e-05
2.10659e-06
-1.40457e-05
3.70901e-06
-1.25604e-05
3.86989e-06
-1.12845e-05
2.77526e-06
-1.1979e-05
2.6521e-06
-1.28174e-05
3.79026e-06
-1.27453e-05
5.4879e-06
-1.17573e-05
9.53723e-06
-9.376e-06
1.36326e-05
-5.51819e-06
1.18486e-05
-8.09186e-06
5.10898e-06
-1.42636e-05
7.33028e-07
-2.08492e-05
2.53008e-07
-2.03529e-05
-1.69192e-05
-9.26717e-08
-1.9299e-05
3.36194e-07
-2.22611e-05
-6.92946e-07
-2.404e-05
-6.80779e-06
-2.25514e-05
-1.23973e-05
-8.03335e-06
-8.91422e-06
-3.04791e-06
-2.85022e-06
-3.89624e-06
1.82847e-07
-7.25329e-06
1.6833e-06
-1.2276e-05
2.88651e-06
-1.46178e-05
3.10633e-06
-1.50107e-05
2.12638e-06
-1.4955e-05
1.09128e-06
-1.52145e-05
7.70464e-07
-1.54405e-05
1.14251e-06
-1.41509e-05
1.71278e-06
-1.25204e-05
2.63904e-06
-1.00841e-05
2.8077e-06
-7.53757e-06
1.89486e-06
-6.5146e-06
1.92369e-06
-7.07127e-06
2.62842e-06
-8.02507e-06
3.42615e-06
-8.2071e-06
4.88945e-06
-7.53538e-06
8.3711e-06
-5.88894e-06
1.29798e-05
-2.45518e-06
1.28467e-05
-3.86545e-06
6.84485e-06
-9.0764e-06
2.36006e-06
-1.72899e-05
1.15521e-06
-1.78198e-05
-1.50443e-05
-1.20826e-06
-1.65541e-05
-9.79868e-07
-2.03412e-05
-2.19599e-06
-2.18907e-05
-7.22732e-06
-1.94026e-05
-1.12153e-05
-4.12596e-06
-6.44825e-06
8.76462e-07
-6.4655e-07
-7.62991e-07
1.55556e-06
-5.26701e-06
3.6921e-06
-8.44603e-06
4.98823e-06
-9.83464e-06
5.11479e-06
-1.0124e-05
4.59452e-06
-1.01214e-05
3.80211e-06
-1.02068e-05
2.96404e-06
-1.04194e-05
2.39204e-06
-9.81186e-06
2.26401e-06
-8.20837e-06
2.05154e-06
-5.34683e-06
1.79196e-06
-2.35665e-06
2.06353e-06
-1.55549e-06
2.65072e-06
-2.4552e-06
2.78968e-06
-2.88167e-06
2.70036e-06
-3.02572e-06
3.68373e-06
-2.62592e-06
6.18741e-06
-1.76344e-06
1.17808e-05
-5.71162e-08
1.3963e-05
5.33023e-07
8.57788e-06
-3.06351e-06
3.5357e-06
-1.22522e-05
1.58075e-06
-1.41292e-05
-1.2237e-05
-1.65923e-06
-1.30937e-05
-1.47993e-06
-1.79031e-05
-2.62105e-06
-1.95614e-05
-7.01828e-06
-1.63421e-05
-1.0015e-05
-6.32017e-07
-4.83191e-06
4.94462e-06
6.06234e-07
2.247e-06
3.01817e-06
-1.90138e-06
5.58014e-06
-4.23804e-06
6.91624e-06
-5.19174e-06
6.96032e-06
-5.1759e-06
6.17742e-06
-5.1408e-06
5.14784e-06
-5.32915e-06
4.15203e-06
-5.50904e-06
3.26524e-06
-4.77401e-06
2.52039e-06
-3.00751e-06
1.8504e-06
-2.60504e-09
2.06594e-06
2.55382e-06
3.32816e-06
2.87304e-06
4.23309e-06
2.4897e-06
3.83826e-06
2.53591e-06
2.71582e-06
2.68601e-06
2.94051e-06
2.81058e-06
5.19747e-06
2.99265e-06
1.0865e-05
3.46549e-06
1.48731e-05
4.67719e-06
1.0986e-05
2.52734e-06
4.5755e-06
-6.46383e-06
1.84207e-06
-9.93381e-06
-8.63045e-06
-1.53642e-06
-9.60404e-06
-1.06918e-06
-1.52671e-05
-2.21503e-06
-1.68978e-05
-7.3898e-06
-1.2943e-05
-9.5266e-06
3.48761e-06
-3.61207e-06
8.49754e-06
1.57981e-06
5.67897e-06
4.64881e-06
2.20452e-06
7.3004e-06
3.25568e-07
8.5123e-06
6.13215e-08
8.21821e-06
2.49966e-07
6.89057e-06
1.6854e-07
5.41373e-06
-2.13963e-07
4.35164e-06
-4.78634e-07
3.42936e-06
4.72232e-07
2.60499e-06
2.5223e-06
2.23715e-06
5.48114e-06
3.20916e-06
7.20255e-06
5.21892e-06
7.33438e-06
6.269e-06
7.71756e-06
5.34358e-06
8.26038e-06
3.4142e-06
8.90066e-06
2.90103e-06
9.0139e-06
4.78251e-06
8.57858e-06
9.3988e-06
8.11191e-06
1.41971e-05
8.49144e-06
1.09015e-05
6.67315e-06
3.72512e-06
-5.61717e-07
1.53431e-06
-6.18281e-06
-5.26142e-06
-9.75769e-07
-7.05499e-06
-1.50949e-07
-1.29172e-05
-1.08303e-06
-1.41078e-05
-7.99665e-06
-8.79776e-06
-9.40845e-06
7.92065e-06
-2.33995e-06
1.09284e-05
2.86428e-06
9.13146e-06
6.91406e-06
6.81353e-06
9.38952e-06
5.97579e-06
9.91766e-06
6.32948e-06
8.7374e-06
6.50867e-06
6.72426e-06
5.8873e-06
5.02587e-06
5.04546e-06
3.97672e-06
4.77308e-06
3.1716e-06
5.93047e-06
2.70153e-06
8.31294e-06
3.20753e-06
1.10157e-05
5.13565e-06
1.19577e-05
7.41035e-06
1.22986e-05
8.16076e-06
1.33978e-05
6.86289e-06
1.49201e-05
4.45917e-06
1.63342e-05
3.0953e-06
1.58821e-05
4.11072e-06
1.41622e-05
7.64031e-06
1.23208e-05
1.25269e-05
1.10163e-05
1.26064e-05
9.40136e-06
6.25933e-06
4.08814e-06
1.73127e-06
-3.8299e-06
-3.24788e-06
-2.90046e-07
-5.95857e-06
2.34083e-07
-1.15552e-05
-2.84424e-07
-1.19571e-05
-7.88497e-06
-2.14048e-06
-8.97033e-06
1.16386e-05
-5.39913e-07
1.37743e-05
5.01862e-06
1.32009e-05
8.97201e-06
1.25779e-05
1.03233e-05
1.30049e-05
9.54607e-06
1.37399e-05
7.32726e-06
1.34561e-05
5.00603e-06
1.18928e-05
3.67341e-06
1.02404e-05
3.1643e-06
9.89303e-06
2.87786e-06
1.14429e-05
3.18344e-06
1.42273e-05
4.86685e-06
1.64689e-05
7.50726e-06
1.70985e-05
9.53457e-06
1.81479e-05
9.40906e-06
2.01685e-05
5.89161e-06
2.30588e-05
9.7928e-07
2.38632e-05
-1.76091e-06
2.19296e-05
-1.51883e-06
1.87144e-05
1.28301e-06
1.53426e-05
6.29456e-06
1.23616e-05
1.0634e-05
9.80151e-06
8.89584e-06
5.45087e-06
2.99079e-06
-2.64897e-06
-4.47856e-06
3.17741e-07
-5.75389e-06
-2.27707e-07
-1.2968e-05
-4.14789e-06
-1.05534e-05
-9.78606e-06
5.27282e-06
-6.85269e-06
1.51434e-05
1.72282e-06
1.77817e-05
7.00136e-06
1.85765e-05
9.46058e-06
1.95554e-05
9.12693e-06
2.07444e-05
7.08364e-06
2.12824e-05
4.55006e-06
2.01384e-05
2.62139e-06
1.77011e-05
1.966e-06
1.52248e-05
2.21802e-06
1.45811e-05
2.85633e-06
1.66651e-05
4.4209e-06
1.98874e-05
7.19498e-06
2.18595e-05
9.99039e-06
2.29183e-05
1.0613e-05
2.49373e-05
6.5005e-06
2.83395e-05
4.37678e-07
3.00559e-05
-3.30951e-06
2.85402e-05
-5.057e-06
2.54716e-05
-5.30463e-06
2.17625e-05
-3.98933e-06
1.79032e-05
-8.26182e-07
1.40739e-05
3.53085e-06
1.0247e-05
5.88921e-06
6.01841e-06
3.20275e-06
-4.78153e-07
-6.0628e-06
1.20178e-06
-5.93753e-06
8.44922e-07
-1.54128e-05
-3.10205e-06
-8.5465e-06
-6.05601e-06
1.0413e-05
-2.29684e-06
1.87681e-05
4.24787e-06
2.26661e-05
7.76253e-06
2.48821e-05
7.6203e-06
2.65298e-05
5.4403e-06
2.75616e-05
3.101e-06
2.71762e-05
1.39741e-06
2.54225e-05
3.90163e-07
2.26431e-05
5.75981e-07
1.97502e-05
1.57189e-06
1.86886e-05
3.22406e-06
2.12974e-05
6.06345e-06
2.48866e-05
9.59996e-06
2.72513e-05
1.14888e-05
2.93952e-05
7.7744e-06
3.2756e-05
1.70548e-06
3.52911e-05
-1.49815e-06
3.38668e-05
-2.92563e-06
3.08702e-05
-3.76302e-06
2.73537e-05
-4.19603e-06
2.3585e-05
-4.19899e-06
1.97407e-05
-3.26568e-06
1.58994e-05
-7.13005e-07
1.20631e-05
1.99535e-06
7.85521e-06
1.8169e-06
2.79166e-06
-2.78723e-06
4.02013e-07
-5.89402e-06
1.26554e-07
-1.49005e-05
-1.24053e-06
-7.18011e-06
-1.00068e-06
1.11337e-05
2.27737e-06
2.12401e-05
5.68057e-06
2.68954e-05
6.18307e-06
2.99613e-05
3.95667e-06
3.13178e-05
1.5815e-06
3.13952e-05
9.91897e-09
3.03569e-05
-9.16777e-07
2.85459e-05
-1.08248e-06
2.60782e-05
-2.38802e-07
2.33029e-05
1.14102e-06
2.19188e-05
3.7979e-06
2.48975e-05
8.00211e-06
2.88004e-05
1.15544e-05
3.23839e-05
1.02132e-05
3.60309e-05
5.34857e-06
3.92729e-05
2.1785e-06
3.87913e-05
5.82634e-07
3.61474e-05
-6.85294e-07
3.27101e-05
-1.65017e-06
2.8905e-05
-2.28286e-06
2.49875e-05
-2.60513e-06
2.10298e-05
-2.54352e-06
1.71434e-05
-1.66386e-06
1.34885e-05
3.88045e-07
1.00297e-05
1.45272e-06
6.29832e-06
2.61934e-06
-2.48681e-07
-5.15616e-06
2.24436e-06
-1.24833e-05
5.58815e-06
-5.59924e-06
6.63593e-06
9.70797e-06
6.01431e-06
2.16534e-05
5.59768e-06
2.8734e-05
3.8172e-06
3.21148e-05
1.75522e-06
3.3516e-05
3.74639e-07
3.32453e-05
-5.49542e-07
3.19386e-05
-1.17062e-06
3.00703e-05
-1.37282e-06
2.78545e-05
-5.924e-07
2.54513e-05
9.9259e-07
2.39521e-05
4.43459e-06
2.69835e-05
9.74429e-06
3.12255e-05
1.22036e-05
3.63769e-05
1.02353e-05
4.06313e-05
7.41091e-06
4.18241e-05
5.78535e-06
4.05728e-05
4.00275e-06
3.79799e-05
2.18007e-06
3.44783e-05
7.45624e-07
3.04092e-05
-3.03227e-07
2.62124e-05
-1.17392e-06
2.20306e-05
-1.64455e-06
1.78802e-05
-1.52458e-06
1.41528e-05
-4.41914e-07
1.08501e-05
1.14779e-06
8.58471e-06
6.99385e-06
-1.672e-07
-5.29379e-06
1.80242e-06
-1.16245e-05
3.56728e-06
-4.92304e-06
3.96326e-06
8.94435e-06
3.85714e-06
2.11328e-05
3.39145e-06
2.92817e-05
2.53964e-06
3.30431e-05
1.44685e-06
3.47678e-05
2.06048e-07
3.46096e-05
-7.34313e-07
3.30534e-05
-1.27377e-06
3.09468e-05
-1.36181e-06
2.86525e-05
-6.42893e-07
2.63568e-05
9.65092e-07
2.47966e-05
4.9575e-06
2.73258e-05
1.08589e-05
3.18161e-05
1.34519e-05
3.7765e-05
1.22483e-05
4.15251e-05
1.11042e-05
4.25565e-05
9.62854e-06
4.1809e-05
7.58073e-06
3.98022e-05
5.32831e-06
3.6504e-05
3.39917e-06
3.21748e-05
1.77661e-06
2.74546e-05
1.11749e-07
2.2668e-05
-1.15079e-06
1.80821e-05
-1.68923e-06
1.39464e-05
-1.0621e-06
1.0794e-05
3.35935e-07
8.71304e-06
9.32945e-06
-4.4194e-07
-7.85401e-06
-2.72999e-07
-1.42454e-05
-7.47698e-07
-7.65389e-06
-6.75441e-07
7.22344e-06
2.77586e-07
2.03049e-05
1.13426e-06
2.84526e-05
1.46151e-06
3.27631e-05
1.08739e-06
3.51729e-05
1.28856e-07
3.57644e-05
-8.62165e-07
3.39528e-05
-1.56359e-06
3.12974e-05
-1.72401e-06
2.87842e-05
-1.04798e-06
2.64585e-05
6.89494e-07
2.46181e-05
5.31572e-06
2.59472e-05
1.16215e-05
2.97191e-05
1.42619e-05
3.6487e-05
1.4095e-05
4.10173e-05
1.37912e-05
4.29765e-05
1.30514e-05
4.29025e-05
1.14437e-05
4.14607e-05
9.24034e-06
3.87007e-05
6.7411e-06
3.45821e-05
3.80006e-06
2.94798e-05
9.46401e-07
2.34437e-05
-1.26853e-06
1.75679e-05
-2.29794e-06
1.29665e-05
-2.16967e-06
9.66644e-06
-8.7157e-07
7.81035e-06
9.43563e-06
2.30548e-07
-1.26824e-05
-1.3814e-06
-2.54023e-05
-5.26554e-06
-2.24815e-05
-6.48494e-06
-4.01848e-06
-4.03442e-06
1.79946e-05
-1.07606e-06
2.63889e-05
4.96747e-07
3.1144e-05
1.06176e-06
3.43234e-05
4.47882e-07
3.63406e-05
-9.95067e-07
3.41571e-05
-2.0196e-06
3.10336e-05
-2.28228e-06
2.82226e-05
-1.76734e-06
2.58228e-05
-1.41456e-07
2.35746e-05
5.35665e-06
2.30984e-05
1.15027e-05
2.66484e-05
1.33223e-05
3.42538e-05
1.38743e-05
4.03203e-05
1.45886e-05
4.29865e-05
1.50378e-05
4.25858e-05
1.49641e-05
3.96019e-05
1.46176e-05
3.26353e-05
1.2536e-05
2.0406e-05
6.50914e-06
7.98476e-06
-3.83385e-07
1.67358e-06
-2.5887e-06
1.66231e-05
-3.93269e-06
1.05767e-05
-4.1444e-06
7.46969e-06
-2.71154e-06
6.21101e-06
7.2781e-06
3.04071e-06
-2.93619e-05
3.08228e-07
-4.50782e-05
-5.51568e-06
-4.51123e-05
-7.85692e-06
-3.23595e-05
-5.09789e-06
-1.25435e-05
-2.01096e-06
8.81719e-06
-5.68338e-07
1.96382e-05
1.21083e-06
2.10671e-05
1.4725e-06
1.78952e-05
-1.29773e-06
1.73619e-05
-3.16815e-06
2.36812e-05
-3.04656e-06
2.65648e-05
-2.32476e-06
2.46012e-05
-7.0346e-07
2.16172e-05
3.37112e-06
2.02598e-05
7.66169e-06
2.11391e-05
9.21784e-06
2.23011e-05
1.09708e-05
2.65615e-05
1.30413e-05
2.43744e-05
1.42048e-05
1.95465e-05
1.37686e-05
1.10579e-05
1.09311e-05
-2.58808e-06
6.16594e-06
-1.78323e-05
1.71647e-06
-2.94899e-05
-2.05711e-06
-3.28659e-05
-7.31634e-06
-1.39294e-05
-7.36343e-06
7.2676e-06
-7.3714e-06
4.59945e-06
-6.26186e-06
3.1894e-06
2.57754e-06
4.30365e-06
-4.9931e-05
-1.26382e-06
-5.64315e-05
-4.68361e-07
-5.35591e-05
1.49851e-06
-4.98914e-05
5.97798e-07
-4.4595e-05
-3.65088e-07
-2.68936e-05
8.91726e-07
-1.67514e-05
1.88729e-06
-1.49492e-05
5.91918e-07
-1.52135e-05
-3.7491e-06
-1.30962e-05
-6.44231e-06
-7.85335e-06
-4.31342e-06
4.25999e-06
-2.42393e-06
2.23738e-05
-1.46576e-07
1.80628e-05
2.54924e-06
1.61061e-05
3.42261e-06
-8.35322e-06
3.20139e-06
-1.34495e-05
3.70641e-06
-1.28059e-05
3.54062e-06
-1.70763e-05
2.31546e-06
-2.16527e-05
1.74363e-07
-2.78026e-05
-1.61468e-06
-3.54045e-05
-1.58652e-06
-4.05779e-05
-3.10109e-08
-4.32025e-05
-3.21709e-07
-4.50882e-05
-7.64643e-06
-4.33476e-05
-1.41217e-05
-1.86399e-05
-1.10041e-05
2.5498e-06
-9.38279e-06
-6.18711e-07
-4.83657e-06
-2.34957e-06
-5.5601e-05
-4.31319e-06
-5.53891e-05
-3.50432e-06
-5.23098e-05
-1.0535e-06
-4.98156e-05
1.16014e-06
-4.7084e-05
1.78156e-06
-4.39516e-05
-1.53051e-07
-4.08555e-05
-3.23664e-06
-3.57421e-05
-4.64229e-06
-2.90174e-05
-5.19447e-06
-2.72843e-05
-7.10255e-06
-3.36095e-05
-5.72e-06
-3.31157e-05
-1.24826e-06
-1.33942e-05
1.71361e-06
4.39553e-06
-1.83997e-06
-1.74714e-05
-6.98553e-06
-3.90717e-05
-7.99718e-06
-4.00156e-05
-7.40463e-06
-3.94558e-05
-6.81697e-06
-3.95476e-05
-5.96668e-06
-3.95341e-05
-4.69299e-06
-3.93224e-05
-3.0729e-06
-3.92375e-05
-1.06007e-06
-3.97255e-05
1.2486e-06
-4.09128e-05
3.33788e-06
-4.27217e-05
1.80976e-06
-4.51246e-05
-7.10887e-06
-4.39841e-05
-1.24979e-05
-2.17728e-05
-9.25383e-06
-5.40908e-06
-1.64958e-05
-3.78522e-06
-5.32668e-05
-5.85572e-06
-5.30432e-05
-5.71052e-06
-5.0342e-05
-4.21648e-06
-4.82459e-05
-2.47054e-06
-4.49732e-05
-2.18849e-06
-4.13497e-05
-4.04512e-06
-3.81133e-05
-6.37004e-06
-3.25604e-05
-7.00563e-06
-2.74697e-05
-5.66487e-06
-2.67839e-05
-4.72111e-06
-3.56583e-05
-5.59312e-06
-4.67445e-05
-4.27818e-06
-4.92811e-05
-6.01759e-06
-3.04928e-05
-1.04304e-05
-4.68473e-05
-1.04612e-05
-4.30117e-05
-9.40453e-06
-4.06944e-05
-8.2852e-06
-3.91653e-05
-7.08946e-06
-3.80081e-05
-5.63756e-06
-3.6984e-05
-3.99762e-06
-3.62946e-05
-2.15044e-06
-3.62154e-05
-1.33755e-07
-3.6893e-05
1.87216e-06
-3.82465e-05
3.72156e-06
-3.99907e-05
5.87365e-06
-4.17852e-05
3.58942e-06
-4.67848e-05
-3.67808e-06
-4.54313e-05
-1.75862e-06
-2.19746e-05
-2.27071e-05
-4.63943e-06
-5.02105e-05
-8.42654e-06
-4.99267e-05
-9.55774e-06
-4.82286e-05
-8.4454e-06
-4.63204e-05
-6.15707e-06
-4.26767e-05
-5.09864e-06
-3.82884e-05
-6.81995e-06
-3.44134e-05
-8.65513e-06
-2.90107e-05
-8.56694e-06
-2.57674e-05
-6.82966e-06
-2.59657e-05
-5.42884e-06
-3.43503e-05
-6.00124e-06
-4.3784e-05
-8.00704e-06
-4.83887e-05
-1.06376e-05
-4.93207e-05
-1.12292e-05
-4.46797e-05
-1.02205e-05
-4.01144e-05
-9.13922e-06
-3.77171e-05
-7.71269e-06
-3.6184e-05
-6.35864e-06
-3.51259e-05
-4.84295e-06
-3.40717e-05
-3.13924e-06
-3.34466e-05
-1.21196e-06
-3.33763e-05
8.5399e-07
-3.40159e-05
3.02566e-06
-3.52962e-05
5.19846e-06
-3.70085e-05
7.33735e-06
-3.88331e-05
4.47893e-06
-4.35088e-05
-7.91882e-07
-4.45188e-05
-5.17058e-08
-3.50825e-05
-2.12631e-05
-6.62895e-06
-4.63159e-05
-1.1755e-05
-4.62332e-05
-1.37713e-05
-4.52925e-05
-1.30023e-05
-4.36328e-05
-1.00057e-05
-3.94324e-05
-8.88736e-06
-3.50217e-05
-1.07103e-05
-3.09047e-05
-1.15314e-05
-2.66535e-05
-1.00529e-05
-2.45034e-05
-7.2702e-06
-2.56847e-05
-5.14076e-06
-3.28581e-05
-4.98587e-06
-4.0967e-05
-6.67681e-06
-4.50709e-05
-9.4149e-06
-4.5803e-05
-1.10701e-05
-4.18755e-05
-1.04054e-05
-3.73555e-05
-8.87673e-06
-3.48787e-05
-7.50383e-06
-3.34077e-05
-6.04759e-06
-3.22357e-05
-4.36156e-06
-3.12704e-05
-2.53272e-06
-3.06377e-05
-5.11325e-07
-3.0582e-05
1.63879e-06
-3.12125e-05
3.72512e-06
-3.24812e-05
5.72837e-06
-3.40779e-05
8.02059e-06
-3.57993e-05
4.27844e-06
-4.0031e-05
-1.38179e-06
-4.07993e-05
-5.66056e-07
-3.39521e-05
-2.07997e-05
-8.66368e-06
-4.139e-05
-1.57983e-05
-4.1705e-05
-1.86132e-05
-4.10954e-05
-1.79932e-05
-3.95665e-05
-1.49377e-05
-3.53346e-05
-1.32614e-05
-3.07593e-05
-1.41289e-05
-2.81752e-05
-1.36541e-05
-2.54871e-05
-1.0744e-05
-2.39035e-05
-7.27952e-06
-2.57058e-05
-5.46484e-06
-3.16205e-05
-5.91978e-06
-3.8462e-05
-8.17539e-06
-4.18381e-05
-1.05033e-05
-4.24097e-05
-1.0741e-05
-3.88286e-05
-9.72757e-06
-3.47394e-05
-8.43029e-06
-3.2253e-05
-6.89743e-06
-3.06536e-05
-5.35191e-06
-2.94764e-05
-3.59773e-06
-2.84195e-05
-1.71344e-06
-2.77498e-05
3.5088e-07
-2.76435e-05
2.52475e-06
-2.82002e-05
4.66469e-06
-2.93433e-05
6.83976e-06
-3.08663e-05
9.05756e-06
-3.24914e-05
5.45724e-06
-3.66791e-05
-5.42157e-07
-3.75131e-05
-5.24247e-07
-3.20468e-05
-2.0318e-05
-1.12787e-05
-3.58179e-05
-1.98125e-05
-3.59909e-05
-2.23431e-05
-3.61773e-05
-2.12809e-05
-3.58532e-05
-1.91878e-05
-3.27129e-05
-1.74116e-05
-2.7312e-05
-1.63138e-05
-2.52979e-05
-1.45584e-05
-2.37117e-05
-1.08843e-05
-2.29787e-05
-6.97666e-06
-2.49768e-05
-5.11148e-06
-2.94348e-05
-5.37443e-06
-3.46043e-05
-6.90287e-06
-3.78118e-05
-9.22442e-06
-3.87665e-05
-1.02823e-05
-3.5723e-05
-9.42763e-06
-3.20545e-05
-7.88991e-06
-2.94992e-05
-6.34079e-06
-2.79062e-05
-4.71841e-06
-2.6664e-05
-2.8906e-06
-2.55787e-05
-9.45383e-07
-2.48444e-05
1.15554e-06
-2.46618e-05
3.35362e-06
-2.51348e-05
5.49399e-06
-2.61957e-05
7.69443e-06
-2.75899e-05
9.8938e-06
-2.92141e-05
6.49164e-06
-3.31223e-05
4.78072e-07
-3.39492e-05
3.64725e-07
-2.93674e-05
-1.87731e-05
-1.27406e-05
-2.97031e-05
-2.03106e-05
-2.99694e-05
-2.15653e-05
-3.12304e-05
-2.08294e-05
-3.19751e-05
-2.01888e-05
-3.06709e-05
-1.95557e-05
-2.50691e-05
-1.78833e-05
-2.22384e-05
-1.46891e-05
-2.14994e-05
-1.06711e-05
-2.1183e-05
-6.78163e-06
-2.29079e-05
-4.86042e-06
-2.62687e-05
-5.45095e-06
-3.03671e-05
-7.13342e-06
-3.35237e-05
-9.10045e-06
-3.44436e-05
-9.68816e-06
-3.21512e-05
-8.76129e-06
-2.89821e-05
-7.23206e-06
-2.66016e-05
-5.61565e-06
-2.50609e-05
-3.94714e-06
-2.38142e-05
-2.07941e-06
-2.27013e-05
-8.59349e-08
-2.18826e-05
2.03694e-06
-2.15808e-05
4.23308e-06
-2.19249e-05
6.37369e-06
-2.28572e-05
8.57583e-06
-2.4098e-05
1.06839e-05
-2.56728e-05
6.88822e-06
-2.91795e-05
6.12869e-07
-3.00986e-05
5.07477e-07
-2.65819e-05
-1.65921e-05
-1.07884e-05
-2.3765e-05
-1.60251e-05
-2.40436e-05
-1.68794e-05
-2.58356e-05
-1.71848e-05
-2.72115e-05
-1.86855e-05
-2.72707e-05
-1.92955e-05
-2.31231e-05
-1.69208e-05
-2.01586e-05
-1.33694e-05
-1.93045e-05
-1.02313e-05
-1.92299e-05
-6.74463e-06
-2.09706e-05
-4.32458e-06
-2.33691e-05
-4.42531e-06
-2.67351e-05
-6.15293e-06
-2.9029e-05
-8.28942e-06
-2.96455e-05
-9.04976e-06
-2.80498e-05
-8.15792e-06
-2.52027e-05
-6.47509e-06
-2.30546e-05
-4.77721e-06
-2.17892e-05
-3.07437e-06
-2.07098e-05
-1.16838e-06
-1.96874e-05
8.51863e-07
-1.88395e-05
2.98896e-06
-1.84168e-05
5.17333e-06
-1.86048e-05
7.30673e-06
-1.93687e-05
9.5028e-06
-2.04319e-05
1.14863e-05
-2.1931e-05
7.90745e-06
-2.47734e-05
1.17077e-06
-2.63032e-05
-4.54658e-07
-2.45179e-05
-1.58206e-05
-6.12492e-06
-1.78825e-05
-9.25871e-06
-1.90702e-05
-1.10743e-05
-1.99933e-05
-1.25603e-05
-2.15707e-05
-1.51436e-05
-2.24059e-05
-1.72672e-05
-2.05763e-05
-1.59076e-05
-1.74132e-05
-1.2122e-05
-1.60143e-05
-8.25602e-06
-1.78876e-05
-4.38093e-06
-1.89821e-05
-1.54147e-06
-2.03317e-05
-1.13146e-06
-2.22941e-05
-3.20413e-06
-2.42093e-05
-6.45509e-06
-2.50294e-05
-8.06191e-06
-2.41336e-05
-7.54427e-06
-2.15577e-05
-5.75385e-06
-1.93559e-05
-3.84797e-06
-1.78981e-05
-2.08901e-06
-1.69018e-05
-1.24402e-07
-1.60432e-05
1.91317e-06
-1.54006e-05
4.04271e-06
-1.50532e-05
6.20679e-06
-1.51171e-05
8.34023e-06
-1.57019e-05
1.05641e-05
-1.65763e-05
1.24377e-05
-1.79583e-05
1.0099e-05
-2.02115e-05
3.58689e-06
-2.21621e-05
-4.24937e-07
-2.19403e-05
-1.54389e-05
-4.24899e-06
-1.29844e-05
-8.32593e-06
-1.38e-05
-1.17099e-05
-1.41774e-05
-1.3723e-05
-1.57581e-05
-1.44303e-05
-1.67397e-05
-1.55191e-05
-1.52541e-05
-1.44613e-05
-1.20574e-05
-9.3394e-06
-1.11764e-05
-4.75265e-06
-1.41038e-05
-1.2092e-06
-1.53178e-05
2.22067e-06
-1.60776e-05
3.27509e-06
-1.69591e-05
1.2794e-06
-1.86617e-05
-2.77173e-06
-1.96566e-05
-5.67605e-06
-1.9301e-05
-6.24343e-06
-1.75283e-05
-5.20307e-06
-1.56409e-05
-3.19422e-06
-1.40917e-05
-1.13036e-06
-1.29811e-05
9.5828e-07
-1.2051e-05
3.14158e-06
-1.13926e-05
5.24514e-06
-1.10844e-05
7.35174e-06
-1.12378e-05
9.47352e-06
-1.17433e-05
1.17073e-05
-1.24611e-05
1.34242e-05
-1.37133e-05
1.15477e-05
-1.53761e-05
5.94115e-06
-1.74683e-05
1.83013e-06
-1.72792e-05
-1.26801e-05
-3.45929e-06
-8.82656e-06
-7.84159e-06
-7.96617e-06
-1.12639e-05
-8.51704e-06
-1.44697e-05
-9.85843e-06
-1.72402e-05
-9.84257e-06
-1.73135e-05
-8.36352e-06
-1.2519e-05
-6.62023e-06
-5.38296e-06
-7.3803e-06
-8.00965e-07
-8.85758e-06
1.8703e-06
-1.06534e-05
4.10254e-06
-1.11484e-05
4.47129e-06
-1.16696e-05
2.25544e-06
-1.2768e-05
-1.74285e-06
-1.33291e-05
-4.68581e-06
-1.32005e-05
-5.39331e-06
-1.23991e-05
-4.5852e-06
-1.11637e-05
-2.73311e-06
-1.01423e-05
-6.41851e-07
-9.14014e-06
1.52152e-06
-8.16952e-06
3.97317e-06
-7.28622e-06
6.43369e-06
-6.71699e-06
8.61529e-06
-6.76204e-06
1.07058e-05
-7.28264e-06
1.29095e-05
-7.942e-06
1.44302e-05
-9.03144e-06
1.12002e-05
-1.01603e-05
5.1036e-06
-1.24247e-05
2.24906e-06
-1.22431e-05
-8.83173e-06
-3.83248e-06
-4.06554e-06
-7.71137e-06
-2.99176e-06
-1.13416e-05
-3.24414e-06
-1.51322e-05
-3.5944e-06
-1.72696e-05
-2.76071e-06
-1.57462e-05
-2.16292e-06
-9.91777e-06
-2.46535e-06
-3.23672e-06
-3.69029e-06
7.78835e-07
-4.39015e-06
3.13479e-06
-5.40107e-06
4.44816e-06
-5.65999e-06
4.3429e-06
-5.83906e-06
2.1998e-06
-6.41196e-06
-1.63829e-06
-6.75324e-06
-4.62612e-06
-6.93083e-06
-5.46719e-06
-6.72929e-06
-4.78807e-06
-6.03997e-06
-2.99889e-06
-5.45449e-06