/*--------------------------------*- C++ -*----------------------------------*\
| =========                 |                                                 |
| \\      /  F ield         | OpenFOAM: The Open Source CFD Toolbox           |
|  \\    /   O peration     | Version:  v1606+                                |
|   \\  /    A nd           | Web:      www.OpenFOAM.com                      |
|    \\/     M anipulation  |                                                 |
\*---------------------------------------------------------------------------*/
FoamFile
{
    version     2.0;
    format      ascii;
    class       volVectorField;
    location    "1.34";
    object      U.airMean;
}
// * * * * * * * * * * * * * * * * * * * * * * * * * * * * * * * * * * * * * //

dimensions      [0 1 -1 0 0 0 0];

internalField   nonuniform List<vector> 
6000
(
(-0.019599 0.270927 0)
(-0.00361858 0.234363 0)
(0.0129212 0.241924 0)
(0.0194807 0.236519 0)
(0.0201621 0.229307 0)
(0.0156702 0.221861 0)
(0.0123974 0.219457 0)
(0.0075609 0.219359 0)
(0.00205709 0.220438 0)
(-0.00156668 0.217626 0)
(-0.00456719 0.213254 0)
(-0.00629565 0.211408 0)
(-0.00833001 0.213687 0)
(-0.0103895 0.21431 0)
(-0.0118185 0.217097 0)
(-0.0125565 0.217249 0)
(-0.0127073 0.215917 0)
(-0.0127277 0.213365 0)
(-0.0128837 0.207955 0)
(-0.0143582 0.207879 0)
(-0.0171263 0.212759 0)
(-0.0203976 0.215985 0)
(-0.0247159 0.216656 0)
(-0.0301677 0.220726 0)
(-0.035156 0.228597 0)
(-0.0385188 0.237627 0)
(-0.0341015 0.245212 0)
(-0.0219913 0.247684 0)
(-0.000881251 0.236657 0)
(0.0179436 0.270013 0)
(0.0160349 0.991135 0)
(0.022231 0.970613 0)
(0.0490638 0.985539 0)
(0.0613843 1.00091 0)
(0.061014 1.0174 0)
(0.0497037 1.02271 0)
(0.0314007 1.02137 0)
(0.0111033 1.02521 0)
(-0.00319714 1.01972 0)
(-0.00789366 1.01858 0)
(-0.010535 1.01954 0)
(-0.0127168 1.02047 0)
(-0.0153501 1.02012 0)
(-0.0187997 1.01865 0)
(-0.0195563 1.01518 0)
(-0.0179021 1.0134 0)
(-0.0159766 1.01381 0)
(-0.0143104 1.01532 0)
(-0.0143619 1.0205 0)
(-0.0177798 1.02319 0)
(-0.0225357 1.02116 0)
(-0.0295771 1.02109 0)
(-0.0455297 1.02677 0)
(-0.0666924 1.02803 0)
(-0.0840093 1.02163 0)
(-0.0889291 1.00762 0)
(-0.0764834 0.984367 0)
(-0.0547949 0.97086 0)
(-0.0227343 0.96194 0)
(-0.0155471 0.987689 0)
(0.0040918 0.798742 0)
(0.018934 0.7388 0)
(0.0480238 0.757031 0)
(0.0612208 0.776929 0)
(0.0651822 0.802868 0)
(0.0604086 0.815396 0)
(0.0480331 0.825298 0)
(0.0289109 0.827836 0)
(0.0131544 0.811313 0)
(0.00285432 0.799354 0)
(-0.00202948 0.792611 0)
(-0.00472507 0.791354 0)
(-0.00999596 0.795693 0)
(-0.0156364 0.795003 0)
(-0.017354 0.792318 0)
(-0.0182897 0.79014 0)
(-0.02002 0.788335 0)
(-0.0233671 0.787719 0)
(-0.0272593 0.789319 0)
(-0.0313342 0.794534 0)
(-0.0380916 0.802192 0)
(-0.0467534 0.811431 0)
(-0.0584398 0.821328 0)
(-0.075916 0.824809 0)
(-0.0901857 0.810808 0)
(-0.089196 0.784459 0)
(-0.0748152 0.757594 0)
(-0.0547312 0.742627 0)
(-0.0213787 0.731438 0)
(-0.00613981 0.794951 0)
(0.0180578 0.817931 0)
(0.0295657 0.766674 0)
(0.0467782 0.787769 0)
(0.062034 0.815769 0)
(0.0734819 0.851237 0)
(0.0698989 0.867957 0)
(0.0621409 0.882339 0)
(0.051454 0.887942 0)
(0.0360844 0.877894 0)
(0.0198867 0.864778 0)
(0.00962767 0.858135 0)
(-0.000317245 0.858731 0)
(-0.0105879 0.860092 0)
(-0.0146328 0.852012 0)
(-0.0131452 0.844298 0)
(-0.0113618 0.843417 0)
(-0.0127434 0.847279 0)
(-0.019836 0.852614 0)
(-0.0319054 0.857487 0)
(-0.0438727 0.861946 0)
(-0.0529164 0.865826 0)
(-0.0619353 0.872109 0)
(-0.0745239 0.88374 0)
(-0.0924762 0.887555 0)
(-0.0989511 0.861177 0)
(-0.0897953 0.823771 0)
(-0.0732927 0.789188 0)
(-0.0531753 0.769358 0)
(-0.0346964 0.758689 0)
(-0.0183878 0.813607 0)
(0.0148092 0.776987 0)
(0.0237654 0.737022 0)
(0.0397262 0.747564 0)
(0.0623863 0.774011 0)
(0.0842615 0.823343 0)
(0.0869923 0.857381 0)
(0.077303 0.875864 0)
(0.0685536 0.884323 0)
(0.0551098 0.879162 0)
(0.0358776 0.862168 0)
(0.0212179 0.852535 0)
(0.00643685 0.854165 0)
(-0.00649487 0.849807 0)
(-0.0108248 0.833315 0)
(-0.00657872 0.821972 0)
(-0.000943853 0.822822 0)
(0.000274616 0.832415 0)
(-0.00789679 0.845688 0)
(-0.0254189 0.856455 0)
(-0.0427327 0.857463 0)
(-0.0578533 0.860471 0)
(-0.073569 0.86819 0)
(-0.0921486 0.882435 0)
(-0.110001 0.880378 0)
(-0.112475 0.832964 0)
(-0.0967534 0.784342 0)
(-0.069718 0.744035 0)
(-0.0434318 0.727628 0)
(-0.0266722 0.726491 0)
(-0.0149901 0.76957 0)
(0.00755199 0.752546 0)
(0.0115995 0.722631 0)
(0.0260236 0.718701 0)
(0.0535281 0.739944 0)
(0.083378 0.795976 0)
(0.104096 0.849249 0)
(0.0971351 0.876497 0)
(0.0873409 0.882689 0)
(0.0750627 0.888262 0)
(0.0551778 0.877191 0)
(0.033553 0.866499 0)
(0.0101585 0.86903 0)
(-0.0098119 0.857148 0)
(-0.0157903 0.830377 0)
(-0.00625677 0.811494 0)
(0.00958736 0.813992 0)
(0.0181046 0.832361 0)
(0.0105528 0.858385 0)
(-0.00996899 0.874713 0)
(-0.035192 0.875332 0)
(-0.063318 0.881048 0)
(-0.0905587 0.883367 0)
(-0.112859 0.89194 0)
(-0.126971 0.8801 0)
(-0.12152 0.813594 0)
(-0.0942657 0.750323 0)
(-0.0580314 0.705843 0)
(-0.0264999 0.696655 0)
(-0.011678 0.711586 0)
(-0.00665803 0.745554 0)
(0.000447768 0.744756 0)
(0.00187215 0.709305 0)
(0.0088671 0.692039 0)
(0.0310746 0.703389 0)
(0.0684063 0.751132 0)
(0.107131 0.824744 0)
(0.113288 0.876003 0)
(0.102551 0.882754 0)
(0.0870448 0.892294 0)
(0.0678883 0.887518 0)
(0.0411261 0.87892 0)
(0.00865358 0.882994 0)
(-0.0182734 0.862674 0)
(-0.0263552 0.814924 0)
(-0.0114583 0.782235 0)
(0.0144072 0.785244 0)
(0.0292246 0.817853 0)
(0.0230134 0.862711 0)
(0.000469719 0.888936 0)
(-0.0298496 0.89486 0)
(-0.0656243 0.903984 0)
(-0.0987068 0.900068 0)
(-0.124318 0.897815 0)
(-0.133177 0.870617 0)
(-0.117688 0.779723 0)
(-0.0767729 0.702889 0)
(-0.0322206 0.663609 0)
(-0.00762952 0.669537 0)
(-0.000623986 0.699034 0)
(-3.1388e-05 0.738093 0)
(0.00139734 0.74185 0)
(-0.00218675 0.710083 0)
(-0.00775406 0.679974 0)
(0.00923415 0.672538 0)
(0.0468428 0.705398 0)
(0.0914511 0.790378 0)
(0.110278 0.870479 0)
(0.10058 0.890476 0)
(0.0826435 0.903012 0)
(0.061615 0.902884 0)
(0.0332574 0.901225 0)
(-0.000260753 0.897875 0)
(-0.0263094 0.864998 0)
(-0.032765 0.798703 0)
(-0.0156201 0.747861 0)
(0.0115484 0.751805 0)
(0.0293601 0.79957 0)
(0.0250135 0.861197 0)
(0.00473916 0.899297 0)
(-0.0241284 0.91619 0)
(-0.0592984 0.930538 0)
(-0.0945425 0.92408 0)
(-0.119905 0.907486 0)
(-0.123542 0.859701 0)
(-0.098973 0.742865 0)
(-0.052438 0.651357 0)
(-0.0101576 0.630601 0)
(0.00698444 0.657898 0)
(0.00157239 0.701438 0)
(-0.00181104 0.736118 0)
(-0.00137894 0.741916 0)
(-0.00700179 0.717989 0)
(-0.0196322 0.670928 0)
(-0.00811437 0.641726 0)
(0.023242 0.6615 0)
(0.061691 0.752156 0)
(0.0842923 0.856559 0)
(0.0862331 0.897144 0)
(0.0731474 0.91244 0)
(0.0486823 0.917152 0)
(0.0153899 0.921617 0)
(-0.0118382 0.913821 0)
(-0.0293923 0.864002 0)
(-0.0303325 0.782965 0)
(-0.0150193 0.718138 0)
(0.00436121 0.722819 0)
(0.021526 0.781388 0)
(0.0197068 0.859489 0)
(0.00196942 0.911091 0)
(-0.0201378 0.934643 0)
(-0.0490088 0.953919 0)
(-0.0810143 0.945252 0)
(-0.096167 0.912005 0)
(-0.0886709 0.836679 0)
(-0.0651383 0.704544 0)
(-0.028028 0.602948 0)
(0.00434242 0.600112 0)
(0.0138606 0.650997 0)
(0.00238195 0.708417 0)
(0.000181374 0.733724 0)
(-0.0035003 0.745616 0)
(-0.00995386 0.725262 0)
(-0.0216439 0.66966 0)
(-0.0190819 0.618501 0)
(0.000516084 0.628816 0)
(0.0245559 0.723827 0)
(0.0500544 0.834051 0)
(0.0703099 0.891674 0)
(0.066321 0.922096 0)
(0.0400473 0.944782 0)
(0.000713613 0.940403 0)
(-0.0175692 0.925109 0)
(-0.0239224 0.856958 0)
(-0.0244675 0.76794 0)
(-0.012961 0.695665 0)
(-0.00159574 0.699956 0)
(0.0141126 0.760604 0)
(0.0165863 0.852693 0)
(0.00793611 0.919516 0)
(-0.00978636 0.945699 0)
(-0.0385412 0.974462 0)
(-0.058742 0.955216 0)
(-0.0592449 0.902726 0)
(-0.0410388 0.809843 0)
(-0.0223238 0.679599 0)
(-0.00231418 0.57041 0)
(0.0120045 0.579155 0)
(0.014511 0.649265 0)
(0.00433782 0.71197 0)
(0.00290651 0.735467 0)
(-0.0044731 0.747162 0)
(-0.00928431 0.726518 0)
(-0.0184099 0.669623 0)
(-0.0218102 0.605269 0)
(-0.0216396 0.611551 0)
(-0.0107732 0.700069 0)
(0.0188246 0.803465 0)
(0.0544093 0.877969 0)
(0.0572916 0.927619 0)
(0.0351778 0.974745 0)
(-0.00608908 0.966678 0)
(-0.0211622 0.928619 0)
(-0.0196717 0.852734 0)
(-0.0181249 0.760419 0)
(-0.0119797 0.686837 0)
(-0.00559277 0.686574 0)
(0.0106397 0.7421 0)
(0.0191259 0.842173 0)
(0.0243831 0.92525 0)
(0.00641902 0.959343 0)
(-0.0205929 0.994326 0)
(-0.0336534 0.953204 0)
(-0.0231716 0.880955 0)
(0.00584142 0.784585 0)
(0.0216703 0.656724 0)
(0.0230094 0.556631 0)
(0.0180346 0.567974 0)
(0.0130268 0.649581 0)
(0.00411876 0.710128 0)
(0.00340535 0.734826 0)
(-0.00232302 0.749622 0)
(-0.00651679 0.725725 0)
(-0.0150318 0.672203 0)
(-0.0225647 0.602749 0)
(-0.0337277 0.608608 0)
(-0.0340037 0.67822 0)
(-0.0025049 0.76217 0)
(0.0358254 0.855759 0)
(0.0488585 0.927072 0)
(0.033463 0.996805 0)
(-0.00114276 0.992221 0)
(-0.019371 0.929401 0)
(-0.0188605 0.852052 0)
(-0.0188655 0.756011 0)
(-0.0117958 0.683505 0)
(-0.00624535 0.678891 0)
(0.00766128 0.730204 0)
(0.0194981 0.827871 0)
(0.0384712 0.924625 0)
(0.0245144 0.975871 0)
(-0.000313775 1.00947 0)
(-0.0122957 0.949086 0)
(0.00361078 0.851123 0)
(0.034474 0.753182 0)
(0.0492491 0.643628 0)
(0.0409143 0.558176 0)
(0.0227247 0.567931 0)
(0.0126329 0.651429 0)
(0.00393453 0.708015 0)
(0.00156615 0.73458 0)
(-0.000792649 0.74963 0)
(-0.00536283 0.724068 0)
(-0.0142461 0.672795 0)
(-0.025492 0.601743 0)
(-0.0395349 0.612978 0)
(-0.0414021 0.661124 0)
(-0.0135361 0.730163 0)
(0.0235661 0.830917 0)
(0.0434613 0.923667 0)
(0.0371963 1.01488 0)
(0.00980153 1.01728 0)
(-0.0143348 0.932865 0)
(-0.018062 0.851379 0)
(-0.0141851 0.749966 0)
(-0.00854202 0.680292 0)
(-0.00599846 0.672408 0)
(0.00176484 0.720891 0)
(0.0194441 0.808913 0)
(0.0440951 0.917015 0)
(0.0361023 0.990711 0)
(0.0181228 1.02296 0)
(0.0111206 0.947043 0)
(0.0265125 0.82531 0)
(0.050849 0.726838 0)
(0.0612896 0.635436 0)
(0.0473211 0.563827 0)
(0.0253679 0.573572 0)
(0.0124774 0.652714 0)
(0.00406357 0.706584 0)
(0.000447018 0.733093 0)
(-0.000255716 0.749477 0)
(-0.00645661 0.723775 0)
(-0.017502 0.67477 0)
(-0.0317964 0.603484 0)
(-0.0441314 0.610793 0)
(-0.0415722 0.641405 0)
(-0.0105238 0.698326 0)
(0.0239268 0.800452 0)
(0.0447536 0.911715 0)
(0.0464127 1.01721 0)
(0.0315993 1.03517 0)
(0.0047237 0.939039 0)
(-0.00160004 0.841311 0)
(0.00732163 0.741607 0)
(0.00497232 0.678456 0)
(-0.00262072 0.673293 0)
(-0.00800398 0.719346 0)
(0.0102286 0.788298 0)
(0.0385688 0.909963 0)
(0.0408344 1.00364 0)
(0.0275262 1.02949 0)
(0.0257692 0.941283 0)
(0.0402963 0.803654 0)
(0.0554106 0.709436 0)
(0.0640919 0.634334 0)
(0.0493365 0.572121 0)
(0.0267485 0.5828 0)
(0.0108739 0.653417 0)
(0.00369323 0.705357 0)
(0.00097865 0.731823 0)
(-0.000604619 0.746892 0)
(-0.00733473 0.726335 0)
(-0.0174861 0.678052 0)
(-0.0354367 0.609501 0)
(-0.0511841 0.605302 0)
(-0.0420601 0.614789 0)
(-0.00666957 0.66545 0)
(0.026152 0.771466 0)
(0.045837 0.900974 0)
(0.0540162 1.01013 0)
(0.0561956 1.04273 0)
(0.0390289 0.947164 0)
(0.0334361 0.826761 0)
(0.0448186 0.740353 0)
(0.0301839 0.687389 0)
(0.0106941 0.687907 0)
(-0.00816942 0.726963 0)
(0.00441781 0.766836 0)
(0.0260085 0.901822 0)
(0.0372584 1.01818 0)
(0.030586 1.04034 0)
(0.0297011 0.941535 0)
(0.0392023 0.790376 0)
(0.0451943 0.699369 0)
(0.0610594 0.629631 0)
(0.0532901 0.579878 0)
(0.0310042 0.596065 0)
(0.0114213 0.654249 0)
(0.0061413 0.703116 0)
(0.00238348 0.729924 0)
(-0.0024388 0.746352 0)
(-0.00773697 0.727219 0)
(-0.00989332 0.679049 0)
(-0.0244065 0.622912 0)
(-0.0435887 0.600969 0)
(-0.038737 0.590742 0)
(-0.0134641 0.633078 0)
(0.0158348 0.743078 0)
(0.0367833 0.885246 0)
(0.0559093 0.988904 0)
(0.0785371 1.02946 0)
(0.0804576 0.948556 0)
(0.0710263 0.813888 0)
(0.0791043 0.739054 0)
(0.0661935 0.708406 0)
(0.0379621 0.711368 0)
(0.0122422 0.742723 0)
(0.00499936 0.761759 0)
(0.0089812 0.894235 0)
(0.0216409 1.0228 0)
(0.0259714 1.04666 0)
(0.0312468 0.949473 0)
(0.0312072 0.791682 0)
(0.0309902 0.693861 0)
(0.0530421 0.617105 0)
(0.0558387 0.584668 0)
(0.0389418 0.617627 0)
(0.0154075 0.658257 0)
(0.0115942 0.703222 0)
(0.00568347 0.735565 0)
(-0.00471792 0.752127 0)
(-0.00918136 0.727907 0)
(-0.00638203 0.676485 0)
(-0.0170815 0.639562 0)
(-0.0345221 0.601196 0)
(-0.0336765 0.578769 0)
(-0.0247089 0.60942 0)
(-0.0116733 0.718819 0)
(0.0117017 0.861327 0)
(0.0458526 0.956546 0)
(0.0879903 1.00215 0)
(0.108633 0.94449 0)
(0.109275 0.810877 0)
(0.0986919 0.74428 0)
(0.0950279 0.730571 0)
(0.0712328 0.747593 0)
(0.0443789 0.777338 0)
(0.00894421 0.783869 0)
(-0.0118125 0.89812 0)
(-0.0051246 1.02206 0)
(0.0184248 1.04062 0)
(0.0386015 0.956608 0)
(0.0329823 0.802847 0)
(0.0309987 0.691657 0)
(0.0470093 0.600288 0)
(0.0484019 0.587496 0)
(0.0335378 0.635433 0)
(0.0171939 0.670985 0)
(0.0143123 0.705312 0)
(0.00727276 0.748693 0)
(-0.00504093 0.757724 0)
(-0.00626968 0.726829 0)
(9.70845e-06 0.68223 0)
(-0.0107922 0.655106 0)
(-0.0278247 0.605238 0)
(-0.038526 0.578216 0)
(-0.0508775 0.606607 0)
(-0.0513551 0.705757 0)
(-0.0285551 0.835103 0)
(0.0167264 0.917715 0)
(0.0727286 0.965937 0)
(0.110368 0.931051 0)
(0.120475 0.818582 0)
(0.111868 0.759689 0)
(0.111724 0.745256 0)
(0.0972672 0.772359 0)
(0.075026 0.817237 0)
(0.0203216 0.83426 0)
(-0.0276171 0.916783 0)
(-0.0189016 1.00728 0)
(0.0214748 1.0148 0)
(0.0578406 0.952118 0)
(0.0564447 0.820046 0)
(0.0513706 0.695441 0)
(0.0469999 0.602971 0)
(0.0308266 0.606218 0)
(0.0133132 0.653802 0)
(0.0101069 0.682502 0)
(0.0140824 0.709781 0)
(0.00609572 0.762817 0)
(-0.00210803 0.76324 0)
(0.00569771 0.722219 0)
(0.00708446 0.691492 0)
(-0.00154421 0.674685 0)
(-0.0225492 0.6248 0)
(-0.0467147 0.596451 0)
(-0.0779861 0.613955 0)
(-0.0899039 0.700946 0)
(-0.0656611 0.808168 0)
(-0.0161102 0.878872 0)
(0.0444086 0.925847 0)
(0.0919037 0.910411 0)
(0.110228 0.818759 0)
(0.115967 0.76249 0)
(0.119118 0.765585 0)
(0.109263 0.793859 0)
(0.0881003 0.855688 0)
(0.0284303 0.898545 0)
(-0.0253668 0.936948 0)
(-0.0039158 0.981346 0)
(0.0442825 0.975485 0)
(0.0911179 0.92968 0)
(0.0967137 0.831664 0)
(0.0775474 0.704425 0)
(0.0434749 0.626283 0)
(0.0092129 0.634806 0)
(-0.010561 0.668601 0)
(-0.00650933 0.687191 0)
(0.00413255 0.714531 0)
(0.00151218 0.779262 0)
(0.00503177 0.757473 0)
(0.0267327 0.719431 0)
(0.0239854 0.704022 0)
(0.00256903 0.691254 0)
(-0.0290359 0.646527 0)
(-0.0698664 0.618548 0)
(-0.111138 0.631377 0)
(-0.120845 0.694799 0)
(-0.080163 0.771421 0)
(-0.0243187 0.839853 0)
(0.0341287 0.886291 0)
(0.0827936 0.885077 0)
(0.109158 0.810404 0)
(0.113338 0.755315 0)
(0.114384 0.772683 0)
(0.109594 0.80995 0)
(0.0864565 0.893644 0)
(0.0357225 0.954018 0)
(0.00439721 0.948888 0)
(0.0362053 0.949206 0)
(0.0852619 0.933639 0)
(0.135307 0.895988 0)
(0.142557 0.838319 0)
(0.104378 0.732133 0)
(0.0522696 0.663423 0)
(0.00752178 0.659215 0)
(-0.0161205 0.674937 0)
(-0.0241344 0.685326 0)
(-0.0184706 0.712788 0)
(-0.0104013 0.780313 0)
(0.0113227 0.74861 0)
(0.0287437 0.712519 0)
(0.0188341 0.715415 0)
(-0.0108027 0.711258 0)
(-0.0481595 0.679091 0)
(-0.0953116 0.658453 0)
(-0.134583 0.647887 0)
(-0.135992 0.668812 0)
(-0.090337 0.726793 0)
(-0.0293627 0.795329 0)
(0.0282427 0.848042 0)
(0.0790454 0.853426 0)
(0.111626 0.798674 0)
(0.113704 0.755308 0)
(0.108518 0.77421 0)
(0.100847 0.820381 0)
(0.0787935 0.92159 0)
(0.0499864 0.98383 0)
(0.0421694 0.947651 0)
(0.0790809 0.919704 0)
(0.133173 0.891343 0)
(0.170217 0.866337 0)
(0.172691 0.850671 0)
(0.126867 0.772358 0)
(0.0706995 0.707639 0)
(0.0240063 0.689494 0)
(-0.0090566 0.691004 0)
(-0.0322585 0.691535 0)
(-0.0351549 0.701353 0)
(-0.0177351 0.760331 0)
(0.0119923 0.726541 0)
(0.00192709 0.707861 0)
(-0.0253845 0.737513 0)
(-0.0542336 0.74138 0)
(-0.0841993 0.712937 0)
(-0.114985 0.689788 0)
(-0.136961 0.660163 0)
(-0.142757 0.644247 0)
(-0.112153 0.670395 0)
(-0.0515286 0.743897 0)
(0.0150918 0.805024 0)
(0.0726824 0.820874 0)
(0.114253 0.78323 0)
(0.128611 0.756923 0)
(0.128092 0.773203 0)
(0.111476 0.82996 0)
(0.0900933 0.93618 0)
(0.0787838 0.995063 0)
(0.0798201 0.945463 0)
(0.111602 0.885886 0)
(0.156956 0.85679 0)
(0.179404 0.850477 0)
(0.177364 0.857768 0)
(0.138041 0.80798 0)
(0.0929375 0.742191 0)
(0.0537818 0.721125 0)
(0.0190075 0.715717 0)
(-0.00790584 0.70678 0)
(-0.0192906 0.688301 0)
(-0.0176559 0.728892 0)
(-0.00106554 0.73286 0)
(-0.0314602 0.746407 0)
(-0.0660213 0.764421 0)
(-0.0851756 0.754404 0)
(-0.100332 0.728883 0)
(-0.110268 0.7037 0)
(-0.121904 0.674802 0)
(-0.140348 0.651218 0)
(-0.142605 0.645742 0)
(-0.0993103 0.690315 0)
(-0.0230607 0.748469 0)
(0.0499619 0.774189 0)
(0.105539 0.751067 0)
(0.139165 0.737348 0)
(0.150776 0.770609 0)
(0.134696 0.84661 0)
(0.117955 0.941229 0)
(0.117171 0.999644 0)
(0.12272 0.945828 0)
(0.139235 0.862805 0)
(0.1647 0.8347 0)
(0.177346 0.843524 0)
(0.170876 0.867322 0)
(0.141227 0.83893 0)
(0.103858 0.771872 0)
(0.0728396 0.74298 0)
(0.0464422 0.727904 0)
(0.0291384 0.715282 0)
(0.0111347 0.701952 0)
(-0.00778378 0.718529 0)
(-0.013414 0.749757 0)
(-0.0504524 0.769949 0)
(-0.0781804 0.779918 0)
(-0.0947075 0.769944 0)
(-0.102119 0.743123 0)
(-0.101569 0.714071 0)
(-0.105979 0.692294 0)
(-0.128915 0.677078 0)
(-0.150299 0.647346 0)
(-0.131409 0.653207 0)
(-0.0679714 0.694858 0)
(0.0148837 0.722945 0)
(0.0789179 0.713714 0)
(0.125117 0.70991 0)
(0.15128 0.762492 0)
(0.155316 0.855807 0)
(0.150436 0.94566 0)
(0.160952 0.998204 0)
(0.175064 0.947684 0)
(0.175045 0.863932 0)
(0.175415 0.828229 0)
(0.173087 0.844075 0)
(0.16068 0.877154 0)
(0.139536 0.862142 0)
(0.102182 0.801106 0)
(0.0739017 0.761828 0)
(0.0569318 0.739706 0)
(0.0444334 0.719984 0)
(0.028463 0.714434 0)
(0.00593871 0.720409 0)
(-0.0136322 0.778053 0)
(-0.0467913 0.80314 0)
(-0.0758501 0.80366 0)
(-0.0893228 0.785349 0)
(-0.0903776 0.750851 0)
(-0.0881643 0.719084 0)
(-0.0899106 0.705156 0)
(-0.111928 0.707238 0)
(-0.14043 0.666413 0)
(-0.137044 0.641447 0)
(-0.0970398 0.648827 0)
(-0.0288812 0.667369 0)
(0.0403714 0.675433 0)
(0.0930754 0.677443 0)
(0.130589 0.743572 0)
(0.15341 0.84681 0)
(0.168022 0.94016 0)
(0.195531 0.983285 0)
(0.22304 0.948062 0)
(0.220787 0.883178 0)
(0.19856 0.83884 0)
(0.175844 0.853026 0)
(0.154514 0.88549 0)
(0.137662 0.878486 0)
(0.102572 0.831387 0)
(0.0673113 0.772285 0)
(0.0547595 0.746274 0)
(0.0458144 0.728593 0)
(0.0278412 0.732749 0)
(0.0104752 0.736249 0)
(-0.0125783 0.802213 0)
(-0.0403219 0.835177 0)
(-0.0637951 0.820684 0)
(-0.0685713 0.79273 0)
(-0.0689515 0.753422 0)
(-0.0730328 0.724255 0)
(-0.0784317 0.714782 0)
(-0.0921205 0.728239 0)
(-0.119043 0.686741 0)
(-0.129808 0.643328 0)
(-0.107909 0.632293 0)
(-0.0615667 0.628872 0)
(0.000756621 0.631767 0)
(0.0579289 0.639739 0)
(0.0976968 0.71489 0)
(0.131828 0.824768 0)
(0.166738 0.916792 0)
(0.214823 0.952916 0)
(0.258055 0.938874 0)
(0.265476 0.902692 0)
(0.235028 0.868704 0)
(0.187421 0.875918 0)
(0.149915 0.895887 0)
(0.131381 0.887786 0)
(0.10426 0.858818 0)
(0.0640194 0.788423 0)
(0.0455675 0.749244 0)
(0.0419735 0.734979 0)
(0.0264093 0.749917 0)
(0.0107493 0.751759 0)
(-0.0206114 0.822854 0)
(-0.0320814 0.851613 0)
(-0.0425702 0.824296 0)
(-0.0388255 0.791144 0)
(-0.0446097 0.758355 0)
(-0.0560891 0.731149 0)
(-0.0703247 0.722423 0)
(-0.0765146 0.737307 0)
(-0.0984362 0.707824 0)
(-0.119749 0.648461 0)
(-0.113427 0.617 0)
(-0.0786466 0.59756 0)
(-0.0275447 0.590102 0)
(0.0259523 0.60467 0)
(0.065 0.681846 0)
(0.10042 0.789418 0)
(0.150225 0.87336 0)
(0.217065 0.906364 0)
(0.27789 0.916443 0)
(0.298942 0.913383 0)
(0.270964 0.909721 0)
(0.203746 0.920238 0)
(0.146321 0.920311 0)
(0.11673 0.897111 0)
(0.0979167 0.880275 0)
(0.0641848 0.815958 0)
(0.034788 0.753124 0)
(0.0322115 0.735557 0)
(0.0246546 0.760411 0)
(0.0163967 0.76795 0)
(-0.0261153 0.847105 0)
(-0.0273743 0.850328 0)
(-0.0233151 0.816715 0)
(-0.0216815 0.791521 0)
(-0.0281605 0.765389 0)
(-0.0422756 0.743338 0)
(-0.0602061 0.731517 0)
(-0.0643561 0.737449 0)
(-0.0780259 0.727754 0)
(-0.107507 0.663464 0)
(-0.113273 0.606768 0)
(-0.0889768 0.573424 0)
(-0.0473138 0.556293 0)
(-0.00167194 0.572601 0)
(0.0375333 0.65215 0)
(0.0697306 0.752826 0)
(0.127282 0.817442 0)
(0.204982 0.847244 0)
(0.277191 0.879014 0)
(0.31108 0.913205 0)
(0.287912 0.950677 0)
(0.215354 0.980316 0)
(0.144458 0.962932 0)
(0.0980016 0.921109 0)
(0.0792384 0.898618 0)
(0.0548221 0.843952 0)
(0.0271038 0.771976 0)
(0.0177582 0.73803 0)
(0.0193867 0.76155 0)
(0.019742 0.789394 0)
(-0.0179521 0.875792 0)
(-0.0152121 0.839117 0)
(-0.00838842 0.813648 0)
(-0.0100503 0.791237 0)
(-0.0180423 0.769618 0)
(-0.03245 0.756362 0)
(-0.0501553 0.742807 0)
(-0.057638 0.733806 0)
(-0.0653896 0.741311 0)
(-0.0960724 0.684985 0)
(-0.111395 0.604076 0)
(-0.0968332 0.554853 0)
(-0.0649016 0.530774 0)
(-0.0274736 0.545055 0)
(0.011229 0.623594 0)
(0.0512556 0.717966 0)
(0.10976 0.760268 0)
(0.187568 0.785991 0)
(0.259663 0.8313 0)
(0.299396 0.900224 0)
(0.284701 0.98402 0)
(0.218467 1.04254 0)
(0.14369 1.01808 0)
(0.0817409 0.960716 0)
(0.0522857 0.922035 0)
(0.0328918 0.864673 0)
(0.0118627 0.791743 0)
(0.00430921 0.744004 0)
(0.00927697 0.757197 0)
(0.0125014 0.811385 0)
(-0.00534968 0.889535 0)
(-0.00190864 0.834477 0)
(0.00514533 0.813773 0)
(0.00209679 0.798562 0)
(-0.00788348 0.779449 0)
(-0.0229979 0.771843 0)
(-0.0412814 0.756669 0)
(-0.0566231 0.738595 0)
(-0.0641325 0.750052 0)
(-0.0895472 0.707824 0)
(-0.111257 0.607717 0)
(-0.103123 0.542161 0)
(-0.0784207 0.51268 0)
(-0.0470107 0.523395 0)
(-0.0109463 0.592557 0)
(0.0379123 0.677815 0)
(0.0964356 0.707663 0)
(0.169225 0.726407 0)
(0.234275 0.780503 0)
(0.271167 0.878258 0)
(0.264416 1.00633 0)
(0.212093 1.09488 0)
(0.141782 1.07992 0)
(0.0682309 1.00962 0)
(0.0264588 0.950858 0)
(0.00623467 0.883765 0)
(-0.00710823 0.808594 0)
(-0.01005 0.747799 0)
(-0.00342446 0.755657 0)
(0.00236658 0.821516 0)
(0.0034079 0.897443 0)
(0.00956218 0.831188 0)
(0.0162901 0.814372 0)
(0.0147092 0.80506 0)
(0.00532412 0.791653 0)
(-0.0126327 0.789284 0)
(-0.03389 0.776271 0)
(-0.0592535 0.752628 0)
(-0.0742889 0.75326 0)
(-0.0936454 0.725709 0)
(-0.116125 0.612382 0)
(-0.109767 0.527683 0)
(-0.0882273 0.498173 0)
(-0.0607671 0.507404 0)
(-0.0271661 0.563577 0)
(0.0212913 0.639391 0)
(0.0810016 0.659399 0)
(0.148857 0.668394 0)
(0.207624 0.731696 0)
(0.238694 0.853876 0)
(0.230456 1.011 0)
(0.19136 1.12637 0)
(0.134004 1.13286 0)
(0.0596143 1.06364 0)
(0.00500768 0.979783 0)
(-0.0202624 0.89852 0)
(-0.02925 0.816034 0)
(-0.0289005 0.748983 0)
(-0.0182696 0.749808 0)
(-0.00751609 0.823174 0)
(0.0092437 0.892362 0)
(0.018698 0.825822 0)
(0.0274161 0.812965 0)
(0.028151 0.810505 0)
(0.0159585 0.806109 0)
(-0.00668663 0.808224 0)
(-0.0349954 0.794738 0)
(-0.0672458 0.772748 0)
(-0.093302 0.759155 0)
(-0.109944 0.733295 0)
(-0.124814 0.614331 0)
(-0.122655 0.511653 0)
(-0.0994471 0.481413 0)
(-0.0713584 0.490105 0)
(-0.0382299 0.539095 0)
(0.00591807 0.599255 0)
(0.0647645 0.608682 0)
(0.126982 0.610205 0)
(0.180288 0.681783 0)
(0.199191 0.828802 0)
(0.182198 1.01106 0)
(0.160033 1.14152 0)
(0.121991 1.17105 0)
(0.0583459 1.1139 0)
(-0.00809653 1.01283 0)
(-0.0435017 0.911118 0)
(-0.0526837 0.817594 0)
(-0.0486613 0.744967 0)
(-0.0325414 0.739378 0)
(-0.0141026 0.809209 0)
(0.0127381 0.879245 0)
(0.0265309 0.817194 0)
(0.0382111 0.809016 0)
(0.0371414 0.816914 0)
(0.0179447 0.822332 0)
(-0.012306 0.828879 0)
(-0.0499078 0.817124 0)
(-0.0870243 0.794219 0)
(-0.116317 0.767313 0)
(-0.128548 0.731615 0)
(-0.132085 0.607213 0)
(-0.12882 0.496701 0)
(-0.108999 0.455151 0)
(-0.0791327 0.46606 0)
(-0.0434052 0.512333 0)
(0.000536961 0.562146 0)
(0.0511918 0.559957 0)
(0.106525 0.557175 0)
(0.14591 0.641582 0)
(0.142646 0.815192 0)
(0.128459 1.00351 0)
(0.121316 1.13916 0)
(0.104109 1.19297 0)
(0.0567546 1.15657 0)
(-0.00777034 1.05409 0)
(-0.0573199 0.926992 0)
(-0.0702809 0.81381 0)
(-0.0602924 0.733261 0)
(-0.0399497 0.722548 0)
(-0.0176329 0.788413 0)
(0.0185328 0.860564 0)
(0.0367809 0.807515 0)
(0.0452261 0.806036 0)
(0.0335347 0.829668 0)
(0.00276586 0.844247 0)
(-0.0344076 0.853884 0)
(-0.0748944 0.841402 0)
(-0.111822 0.812208 0)
(-0.134247 0.770305 0)
(-0.136309 0.719164 0)
(-0.128488 0.594706 0)
(-0.123368 0.47812 0)
(-0.106387 0.43331 0)
(-0.0783924 0.436155 0)
(-0.0433439 0.479834 0)
(-0.000543481 0.524638 0)
(0.0456355 0.516571 0)
(0.0848354 0.507965 0)
(0.0955234 0.618662 0)
(0.0816185 0.801241 0)
(0.0760063 0.991308 0)
(0.0789415 1.12873 0)
(0.0775057 1.20067 0)
(0.0528211 1.18802 0)
(0.00112216 1.09313 0)
(-0.0482226 0.949132 0)
(-0.0674617 0.808327 0)
(-0.0588995 0.71428 0)
(-0.0414131 0.704972 0)
(-0.0202355 0.763287 0)
(0.0279365 0.832364 0)
(0.047166 0.799353 0)
(0.043007 0.813505 0)
(0.0156644 0.854183 0)
(-0.0280235 0.871002 0)
(-0.0659617 0.874909 0)
(-0.101415 0.862482 0)
(-0.1314 0.826575 0)
(-0.149724 0.769548 0)
(-0.136703 0.698738 0)
(-0.11717 0.582707 0)
(-0.111203 0.462097 0)
(-0.0988216 0.411255 0)
(-0.0741303 0.410427 0)
(-0.0432988 0.446199 0)
(-0.00342577 0.483598 0)
(0.0350042 0.469803 0)
(0.0619891 0.48416 0)
(0.0555348 0.613168 0)
(0.0373777 0.791401 0)
(0.0333257 0.981279 0)
(0.0396627 1.11434 0)
(0.0505128 1.19739 0)
(0.0449209 1.20358 0)
(0.0116769 1.12423 0)
(-0.031167 0.971375 0)
(-0.0441481 0.809018 0)
(-0.0445537 0.705401 0)
(-0.0386547 0.69496 0)
(-0.0210011 0.73474 0)
(0.0331308 0.795325 0)
(0.0484996 0.796997 0)
(0.0289853 0.831825 0)
(-0.0139351 0.886101 0)
(-0.0659797 0.898344 0)
(-0.097379 0.892038 0)
(-0.124077 0.881617 0)
(-0.150761 0.840913 0)
(-0.164904 0.765976 0)
(-0.141946 0.666804 0)
(-0.111012 0.563561 0)
(-0.099437 0.450038 0)
(-0.0927602 0.393942 0)
(-0.0720991 0.389129 0)
(-0.0452894 0.415692 0)
(-0.00940417 0.447274 0)
(0.0247268 0.436792 0)
(0.0425082 0.464924 0)
(0.0347752 0.612699 0)
(0.0178519 0.785298 0)
(0.0108922 0.972012 0)
(0.0182376 1.09975 0)
(0.034354 1.18537 0)
(0.0418673 1.20913 0)
(0.0245864 1.1437 0)
(-0.0061668 0.990521 0)
(-0.0202616 0.806261 0)
(-0.032324 0.711243 0)
(-0.0346551 0.691423 0)
(-0.0210595 0.707557 0)
(0.0264893 0.745289 0)
(0.0365425 0.796683 0)
(0.000731071 0.849731 0)
(-0.0502823 0.91265 0)
(-0.101275 0.920006 0)
(-0.133057 0.904894 0)
(-0.157774 0.894132 0)
(-0.164955 0.845919 0)
(-0.160215 0.749423 0)
(-0.135932 0.632551 0)
(-0.103491 0.53636 0)
(-0.08746 0.437993 0)
(-0.0858646 0.380018 0)
(-0.0702833 0.372276 0)
(-0.0493205 0.390515 0)
(-0.0197209 0.414389 0)
(0.0141575 0.410025 0)
(0.030749 0.45326 0)
(0.0289957 0.612643 0)
(0.0184577 0.787267 0)
(0.0111425 0.965043 0)
(0.0200031 1.08576 0)
(0.0352688 1.17079 0)
(0.0504348 1.20358 0)
(0.0479301 1.15116 0)
(0.02699 1.00548 0)
(-0.000242472 0.816745 0)
(-0.0212254 0.724318 0)
(-0.0304047 0.689621 0)
(-0.0203952 0.680261 0)
(0.0120029 0.705593 0)
(0.00719384 0.799854 0)
(-0.0417871 0.869523 0)
(-0.0939354 0.939086 0)
(-0.142594 0.937015 0)
(-0.175618 0.913849 0)
(-0.188203 0.884342 0)
(-0.176877 0.830599 0)
(-0.151667 0.721179 0)
(-0.125624 0.599173 0)
(-0.0911207 0.509829 0)
(-0.0722555 0.430168 0)
(-0.0747661 0.372406 0)
(-0.0652068 0.360557 0)
(-0.0497758 0.373215 0)
(-0.0286769 0.387933 0)
(0.0041749 0.388789 0)
(0.0197071 0.445613 0)
(0.0246097 0.607614 0)
(0.025852 0.788372 0)
(0.0241891 0.955278 0)
(0.034352 1.07401 0)
(0.0525309 1.15411 0)
(0.0741269 1.19043 0)
(0.0823225 1.15258 0)
(0.0674573 1.02707 0)
(0.0288584 0.846565 0)
(-0.00447362 0.740389 0)
(-0.0195712 0.692106 0)
(-0.0148451 0.65985 0)
(-0.00807866 0.687011 0)
(-0.0296416 0.828124 0)
(-0.0961173 0.90176 0)
(-0.132391 0.961005 0)
(-0.17163 0.954643 0)
(-0.203861 0.924797 0)
(-0.213918 0.874508 0)
(-0.18642 0.796855 0)
(-0.13937 0.681749 0)
(-0.107055 0.566256 0)
(-0.0870194 0.479976 0)
(-0.067142 0.426562 0)
(-0.0644863 0.369906 0)
(-0.0595784 0.352809 0)
(-0.0487834 0.363028 0)
(-0.0310243 0.371682 0)
(-0.00409893 0.373925 0)
(0.00517084 0.439877 0)
(0.0147733 0.594948 0)
(0.0279672 0.783509 0)
(0.0356013 0.944121 0)
(0.0535694 1.05741 0)
(0.0777405 1.13095 0)
(0.104346 1.17008 0)
(0.117512 1.14993 0)
(0.104904 1.04691 0)
(0.0595222 0.88414 0)
(0.0164544 0.765122 0)
(-0.00781541 0.698664 0)
(-0.00957 0.647153 0)
(-0.031234 0.702316 0)
(-0.067364 0.868628 0)
(-0.127123 0.930338 0)
(-0.154788 0.979787 0)
(-0.179231 0.972126 0)
(-0.201131 0.92672 0)
(-0.198937 0.847132 0)
(-0.164868 0.753127 0)
(-0.117831 0.639906 0)
(-0.0856734 0.536332 0)
(-0.0771248 0.464903 0)
(-0.072549 0.414007 0)
(-0.061858 0.368513 0)
(-0.0556178 0.346554 0)
(-0.0458183 0.355376 0)
(-0.0228126 0.358738 0)
(-0.00516802 0.365589 0)
(-0.00458839 0.435051 0)
(0.00205609 0.579424 0)
(0.0216826 0.768846 0)
(0.0440779 0.922198 0)
(0.0730297 1.03109 0)
(0.10282 1.10365 0)
(0.130548 1.14743 0)
(0.146206 1.14565 0)
(0.136304 1.06969 0)
(0.0891576 0.928043 0)
(0.0375958 0.801329 0)
(0.00231452 0.714396 0)
(-0.00440369 0.640041 0)
(-0.0423202 0.753004 0)
(-0.086474 0.914851 0)
(-0.12649 0.958132 0)
(-0.138976 0.99332 0)
(-0.153826 0.986414 0)
(-0.164444 0.929427 0)
(-0.158823 0.827943 0)
(-0.133249 0.719459 0)
(-0.0982084 0.612166 0)
(-0.0765305 0.52295 0)
(-0.0692728 0.457213 0)
(-0.0719274 0.411042 0)
(-0.0645426 0.358035 0)
(-0.0551084 0.338852 0)
(-0.039693 0.343278 0)
(-0.0158305 0.343806 0)
(-0.00561306 0.359615 0)
(-0.00693727 0.435915 0)
(-0.00726444 0.567212 0)
(0.0170147 0.741922 0)
(0.0556265 0.890437 0)
(0.0917668 0.998832 0)
(0.123608 1.07444 0)
(0.149603 1.12533 0)
(0.164856 1.14123 0)
(0.156037 1.09287 0)
(0.110324 0.978618 0)
(0.0551831 0.846468 0)
(0.0152584 0.736744 0)
(8.61401e-06 0.641427 0)
(-0.0455593 0.819941 0)
(-0.0768061 0.946265 0)
(-0.0993071 0.980292 0)
(-0.109928 1.01483 0)
(-0.120964 1.00448 0)
(-0.124509 0.932932 0)
(-0.120939 0.817551 0)
(-0.105493 0.696761 0)
(-0.0849345 0.59473 0)
(-0.0731557 0.517719 0)
(-0.0691131 0.455938 0)
(-0.0695084 0.408397 0)
(-0.065386 0.351545 0)
(-0.0558738 0.326656 0)
(-0.0357121 0.326129 0)
(-0.0160081 0.330031 0)
(-0.00451542 0.354559 0)
(-0.00421858 0.437194 0)
(-0.0100012 0.555636 0)
(0.0154244 0.701805 0)
(0.0634699 0.849569 0)
(0.105863 0.962986 0)
(0.138498 1.04613 0)
(0.162095 1.10566 0)
(0.175004 1.13672 0)
(0.166181 1.11454 0)
(0.121986 1.02567 0)
(0.063552 0.895647 0)