/*--------------------------------*- C++ -*----------------------------------*\
| =========                 |                                                 |
| \\      /  F ield         | OpenFOAM: The Open Source CFD Toolbox           |
|  \\    /   O peration     | Version:  2.4.0                                 |
|   \\  /    A nd           | Web:      www.OpenFOAM.org                      |
|    \\/     M anipulation  |                                                 |
\*---------------------------------------------------------------------------*/
FoamFile
{
    version     2.0;
    format      ascii;
    class       volVectorField;
    location    "2.2";
    object      U;
}
// * * * * * * * * * * * * * * * * * * * * * * * * * * * * * * * * * * * * * //

dimensions      [0 1 -1 0 0 0 0];

internalField   nonuniform List<vector> 
3072
(
(-0.682169 0.320386 1.10585e-23)
(-0.476792 0.261707 5.90902e-23)
(-0.647075 -0.25112 1.88892e-23)
(-0.379475 0.111998 2.14908e-24)
(-0.631005 -0.108149 2.9206e-24)
(-0.764599 0.636133 6.64185e-23)
(0.200961 -0.0429766 3.10403e-22)
(2.15743 0.417578 2.15698e-22)
(1.69335 1.2462 -1.32591e-22)
(2.10892 1.37667 4.58575e-24)
(1.96925 1.68708 -2.55502e-23)
(2.21901 1.54226 6.83833e-24)
(-1.05797 0.675742 -1.09463e-23)
(-1.0184 0.688221 1.29331e-23)
(0.0133718 0.935615 -1.34075e-23)
(0.943143 0.867184 5.40083e-32)
(1.56412 1.27203 7.25069e-23)
(2.17696 1.99573 5.25946e-23)
(2.17587 2.10738 0)
(2.26169 2.05775 9.51691e-24)
(1.57891 2.224 1.37078e-23)
(1.97377 2.27139 0)
(1.56157 2.25878 8.34818e-23)
(1.83467 2.21399 9.83671e-23)
(-0.270762 0.883305 0)
(0.744302 1.09094 4.75802e-23)
(0.502902 1.76445 -2.32017e-23)
(1.63031 1.72052 2.96469e-23)
(1.87287 1.89659 -7.48916e-23)
(2.10142 2.16055 -1.92539e-23)
(2.52124 2.26569 1.07611e-22)
(2.32709 2.07151 -7.47886e-24)
(2.14732 2.04931 -1.16217e-22)
(2.09703 2.08049 0)
(1.86083 1.98624 -7.85508e-24)
(1.94288 1.99493 -1.49248e-22)
(-1.23972 1.79222 0)
(0.156738 0.82973 0)
(1.13465 1.67251 0)
(1.99613 1.81372 1.46275e-23)
(1.95648 2.33231 3.16292e-23)
(2.25041 2.34033 -5.17558e-23)
(2.23747 2.46822 5.77165e-23)
(2.16905 2.3227 1.73257e-22)
(1.93267 2.41434 1.02142e-22)
(1.82906 2.29795 -4.53456e-23)
(1.53207 2.32962 6.23926e-23)
(1.52394 2.16204 -1.21939e-22)
(1.28277 1.55484 -5.72537e-24)
(1.34984 1.92467 2.35291e-23)
(1.60873 2.17651 -2.99519e-23)
(1.88569 2.25266 2.20354e-23)
(2.23433 2.26389 4.73157e-24)
(2.22026 2.12801 -6.76658e-23)
(2.06232 2.18674 -6.67564e-23)
(1.98868 2.11194 -8.91888e-23)
(1.74485 2.0489 8.92122e-24)
(1.71758 2.07068 -8.86195e-23)
(1.46196 2.03657 -1.02028e-22)
(1.43063 2.09542 0)
(0.576225 1.3976 -9.79082e-25)
(0.434749 1.30561 -8.30281e-24)
(1.71421 1.5893 -2.70325e-23)
(2.56498 1.62366 5.47093e-23)
(2.36797 1.93285 -2.09125e-24)
(2.06573 2.0436 0)
(1.91005 2.19701 -9.7014e-24)
(1.72321 2.05721 -2.201e-23)
(1.61202 2.15737 1.97537e-23)
(1.55428 2.09785 8.32065e-23)
(1.43057 2.22071 4.8124e-24)
(1.29356 2.11301 -5.24846e-24)
(1.41822 1.01137 -1.63071e-24)
(1.83074 1.31913 -1.95504e-23)
(2.3869 1.74978 0)
(2.22966 2.03834 0)
(1.85461 2.17739 0)
(1.97118 2.05516 -2.82093e-23)
(1.94371 2.07008 -1.82541e-23)
(1.77828 2.16208 -1.38748e-23)
(1.89581 2.38611 9.47588e-23)
(1.76928 2.20992 1.65898e-22)
(1.46861 2.25648 -2.29951e-22)
(1.20369 1.8739 -1.09875e-22)
(1.18444 1.35918 -2.24874e-24)
(1.22192 1.45425 -5.74763e-24)
(1.98405 1.57182 0)
(2.27736 1.47594 -5.73022e-24)
(2.39161 1.46794 -6.27096e-23)
(2.4207 1.72301 8.81485e-23)
(2.11209 2.22058 -1.60162e-22)
(2.02287 2.53701 0)
(2.06421 2.71201 -2.86453e-23)
(1.54838 2.60438 -7.12832e-23)
(1.30744 2.60994 -1.6685e-22)
(1.11039 2.33109 -2.32988e-22)
(1.62737 1.16621 -2.56009e-24)
(2.08566 1.38306 -6.70028e-24)
(2.7506 1.37866 8.1665e-24)
(2.50809 1.57212 -3.2636e-24)
(2.12676 1.79493 -6.61834e-23)
(1.96789 2.10459 1.1001e-23)
(2.01028 2.22476 -2.0027e-22)
(2.41763 2.42279 -1.54655e-22)
(1.52046 2.41336 1.21387e-22)
(1.55756 2.52873 5.22288e-23)
(0.963145 2.54539 0)
(0.9027 2.62838 -2.29128e-31)
(1.33654 1.32087 4.25709e-24)
(1.5727 1.32991 1.33746e-23)
(2.20677 1.24187 0)
(2.18024 1.27949 4.2318e-32)
(2.30123 1.32359 3.09703e-23)
(2.45602 1.30765 3.37129e-23)
(2.71749 1.58035 -2.30729e-23)
(1.88536 2.075 1.22251e-22)
(1.41077 2.05413 1.5243e-22)
(1.16766 2.43361 5.63127e-23)
(0.863301 2.23562 -2.73194e-22)
(0.3229 2.47768 1.81439e-22)
(1.54564 1.2227 5.81568e-24)
(2.04693 1.24639 1.57241e-23)
(2.71403 1.02386 1.77351e-23)
(2.61975 1.11617 2.91904e-23)
(2.36331 1.17815 5.92024e-23)
(2.31895 1.47852 6.27481e-23)
(1.71475 1.73747 1.1354e-22)
(1.39333 1.74203 1.33894e-23)
(1.05301 1.75184 -8.5719e-23)
(0.941768 1.81813 -6.71257e-23)
(0.293886 2.17556 -7.26796e-23)
(-0.0352922 2.11767 1.20669e-22)
(1.08326 1.32512 1.29015e-23)
(1.5207 1.09036 4.16296e-24)
(2.17901 0.791934 0)
(2.17655 0.786628 -3.69182e-23)
(2.29852 0.824305 -4.88292e-23)
(2.33295 0.864981 -4.41512e-23)
(2.31872 0.849 -3.46934e-23)
(1.68334 1.08832 6.29595e-23)
(0.644357 1.02651 -3.29133e-23)
(0.509588 1.48193 -7.31604e-23)
(0.154134 1.78673 -8.08108e-23)
(-0.616841 1.96436 -2.24568e-23)
(2.06546 1.58102 -3.97572e-23)
(2.22103 1.37205 4.81408e-23)
(1.99721 1.30485 6.89685e-23)
(2.06261 1.07157 1.24959e-22)
(1.75384 0.926316 4.47401e-22)
(1.85144 0.73528 2.92867e-22)
(1.41653 0.622828 8.05867e-24)
(1.46786 0.41212 0)
(0.961654 0.270538 -5.82162e-24)
(1.1431 0.345421 -1.75923e-23)
(0.63806 0.564032 -1.14731e-23)
(0.588089 -0.0347864 -1.35823e-24)
(1.52643 1.99586 -4.75852e-23)
(1.8118 1.9836 0)
(1.49676 1.63269 -1.56594e-22)
(1.70145 1.65025 -6.45444e-23)
(1.41926 1.21709 0)
(1.65548 1.29498 3.88894e-23)
(1.30895 0.941324 0)
(1.54534 1.0567 3.86435e-23)
(1.08111 0.717579 5.06371e-23)
(1.19964 0.549468 -2.33161e-24)
(0.935899 0.690837 7.57206e-25)
(0.937567 -0.0565023 1.12605e-25)
(1.65611 1.72372 -2.8733e-23)
(1.81943 1.66155 1.07294e-25)
(1.55222 1.6034 3.19688e-31)
(1.53565 1.36965 -1.10841e-22)
(1.35936 1.21998 -3.32668e-25)
(1.32583 0.990263 -3.93769e-23)
(1.25624 0.935885 2.3565e-23)
(1.27775 0.835455 2.17093e-23)
(1.28701 1.09176 0)
(1.2334 0.722841 3.65811e-24)
(0.962111 0.889674 1.88396e-24)
(1.27021 0.625678 7.57407e-25)
(1.38299 2.0361 -4.21814e-23)
(1.53208 1.75092 -7.90708e-23)
(1.41645 1.86912 1.59519e-23)
(1.35296 1.66346 0)
(1.28498 1.4104 -2.05575e-23)
(1.17672 1.25213 0)
(1.14138 1.07621 -9.57297e-24)
(1.14876 0.862945 1.84804e-23)
(0.962892 0.858612 -3.17423e-24)
(1.17346 0.988485 2.83644e-25)
(0.880299 0.887653 0)
(1.15682 0.90198 5.92326e-25)
(1.19175 1.89537 0)
(1.36437 1.48307 -4.7872e-23)
(1.19105 1.62372 -7.84253e-23)
(1.20236 1.67807 0)
(1.16931 1.58887 -7.0672e-24)
(1.05393 1.23505 -4.97141e-23)
(1.08827 1.03349 -2.71851e-23)
(1.1222 1.00143 1.38836e-23)
(1.09462 0.954525 1.45661e-24)
(1.14444 0.893652 4.5854e-26)
(0.945186 0.858558 -2.88467e-24)
(1.19608 0.904178 2.35873e-24)
(1.21876 2.25189 -5.26807e-23)
(1.16596 1.61262 7.26834e-23)
(1.04691 1.58931 -2.15331e-23)
(0.900732 1.37371 0)
(0.920905 1.56002 5.00149e-23)
(0.8482 1.51391 6.78191e-23)
(0.928483 1.03751 0)
(0.979943 0.889443 0)
(0.948967 0.845971 1.11226e-23)
(1.13931 1.03758 0)
(1.03524 0.930418 -4.22654e-24)
(1.16706 1.03483 4.96878e-24)
(1.09099 2.10735 4.99166e-23)
(1.1511 2.11102 2.14427e-23)
(0.804932 1.74959 -2.22634e-23)
(1.01029 1.74378 0)
(0.671819 1.47808 -5.97272e-23)
(0.684893 1.34542 -8.81358e-23)
(0.761113 1.03254 -4.18341e-24)
(0.858988 0.90805 0)
(0.915713 0.77025 1.05502e-23)
(0.934245 0.807908 -2.384e-24)
(1.00803 0.800054 2.69994e-24)
(1.16067 0.994081 5.04377e-24)
(0.760282 1.88977 1.19417e-22)
(0.940503 1.93471 8.09455e-23)
(0.491849 1.78886 2.47117e-24)
(0.646029 1.49347 4.81489e-23)
(0.391598 1.59661 1.17785e-22)
(0.47829 1.41488 3.36198e-23)
(0.700978 0.947347 9.8674e-24)
(0.771233 0.777736 7.59752e-25)
(0.749194 0.691526 -9.2298e-24)
(0.819999 0.747762 5.31573e-24)
(0.959291 0.708176 -1.54663e-23)
(1.14471 0.84526 8.35032e-25)
(0.492125 2.11765 0)
(0.57951 1.94571 0)
(0.261279 1.86078 -3.42868e-23)
(0.40023 1.64191 3.10299e-23)
(0.0346906 1.48842 1.27239e-22)
(0.197651 1.19344 2.10706e-23)
(0.459154 0.847564 1.14427e-24)
(0.429267 0.748744 -1.74782e-24)
(0.541861 0.647379 4.96971e-24)
(0.627484 0.563328 0)
(0.840188 0.483519 -1.47673e-23)
(1.09255 0.575383 -3.09908e-32)
(0.164082 2.23595 -3.91262e-23)
(0.23299 1.83521 0)
(-0.0672558 1.75615 -1.26029e-31)
(0.0196365 1.52486 -4.30424e-23)
(-0.258927 1.43687 9.13192e-23)
(0.106334 1.10649 -8.77557e-24)
(0.325378 0.72708 5.39028e-23)
(0.144977 0.657329 -1.58799e-23)
(0.329249 0.43006 -4.92207e-23)
(0.435759 0.454709 -1.6425e-23)
(0.722429 0.221357 -6.86181e-24)
(0.976638 0.402892 3.85952e-24)
(-0.238578 2.12959 -4.01128e-23)
(-0.188484 1.86876 4.83124e-23)
(-0.416745 1.78485 1.0431e-22)
(-0.343523 1.55967 3.4382e-23)
(-0.482051 1.33538 -2.02175e-23)
(0.0561837 0.895602 -1.5872e-22)
(-0.0991375 0.755258 8.66235e-23)
(-0.253774 0.485277 1.66994e-23)
(0.17824 0.430325 -3.96663e-23)
(-0.0350525 0.064756 -1.31733e-23)
(0.846096 0.0715132 -2.18659e-24)
(0.836573 -0.464574 -6.94088e-24)
(-0.49241 1.92945 -1.37166e-22)
(-0.577711 1.65507 -3.56236e-23)
(-0.707302 1.6253 -6.48785e-23)
(-0.65575 1.41458 -1.49331e-31)
(-0.609827 1.13981 -6.98562e-23)
(-0.196275 0.954007 1.92109e-23)
(-0.692377 0.692752 1.13984e-22)
(-0.125142 0.514374 -1.46205e-23)
(-0.351249 0.141108 0)
(0.181121 -0.00223259 7.32164e-23)
(0.192102 -0.519453 -4.37356e-23)
(1.20361 -0.431335 -2.57166e-23)
(0.348922 0.965493 4.11203e-25)
(0.33922 0.611431 2.54517e-23)
(0.0138125 0.937374 -1.5421e-23)
(0.654078 0.961344 -2.32072e-23)
(0.369526 0.798165 -4.67131e-23)
(0.280106 -2.54998 3.84504e-25)
(1.8287 -2.41737 2.83502e-22)
(1.95386 -2.34065 4.44945e-22)
(2.50489 -2.74637 -4.10116e-22)
(2.43734 -2.68422 1.27058e-23)
(2.60181 -2.74553 2.64405e-23)
(2.37242 -2.91314 -7.48147e-23)
(1.06288 0.599183 4.40911e-24)
(0.788221 -0.0405944 -1.02202e-23)
(0.844289 -1.2187 -1.17467e-23)
(1.42818 -1.73412 -1.23795e-22)
(2.51562 -2.52814 7.3315e-23)
(2.00182 -2.12134 -8.94875e-24)
(2.75249 -1.89209 2.1858e-23)
(2.46609 -1.97842 0)
(3.17112 -2.00319 -6.40261e-23)
(2.88835 -1.87159 -5.63019e-23)
(3.08437 -2.00863 4.54112e-23)
(2.64939 -2.01494 0)
(0.639143 -0.0701595 3.38163e-24)
(1.42046 0.0878459 -1.12222e-23)
(1.51471 -1.22457 -3.47572e-23)
(2.10539 -1.98962 0)
(2.2639 -2.40446 9.94711e-24)
(2.08763 -2.60873 2.46767e-23)
(2.28644 -2.47381 4.68545e-23)
(2.25914 -2.43351 6.76768e-25)
(2.41111 -2.30096 -9.04274e-24)
(2.40756 -2.12778 -1.7931e-23)
(2.50277 -2.11937 0)
(2.40008 -1.97634 0)
(1.15074 0.328672 1.17942e-24)
(1.36058 -1.13759 8.462e-25)
(1.85609 -2.12321 -2.5604e-23)
(1.90044 -2.05518 -5.81502e-23)
(2.10325 -2.27222 -2.17897e-22)
(2.10632 -2.62947 -1.19744e-23)
(2.23037 -2.37534 -8.67301e-23)
(2.3069 -2.25804 -1.22379e-22)
(2.31628 -1.86282 -7.99769e-23)
(2.35287 -1.71844 -9.56838e-23)
(2.36539 -1.52266 0)
(2.28302 -1.54212 0)
(1.03739 -1.32496 -7.11009e-24)
(1.90798 -1.78267 -9.77247e-24)
(1.97891 -1.9074 1.66038e-23)
(1.97626 -1.9009 2.81048e-24)
(1.98455 -2.26068 4.83175e-23)
(1.99348 -2.38374 -8.92172e-23)
(2.13164 -2.28661 -7.27461e-23)
(2.20772 -2.15912 2.85364e-23)
(2.23209 -1.73369 6.49716e-24)
(2.30958 -1.89811 0)
(2.30373 -1.61509 -7.62212e-23)
(2.35495 -1.59754 -1.83843e-22)
(1.27767 -0.770229 1.38904e-24)
(1.37981 -1.58917 0)
(1.41363 -2.25982 -7.64344e-24)
(1.46068 -2.41125 -4.39127e-24)
(1.72095 -2.48268 2.35174e-23)
(1.9418 -2.39775 1.7592e-24)
(2.1108 -2.37526 1.83007e-22)
(2.09843 -1.85969 7.2188e-23)
(2.18947 -1.68404 1.03121e-23)
(2.114 -1.48107 9.0637e-25)
(2.25566 -1.3935 -3.74199e-23)
(2.33665 -1.09807 -3.13918e-23)
(0.940913 -1.71859 4.51547e-24)
(1.44498 -2.29606 0)
(1.57626 -2.24328 0)
(1.81089 -2.02019 3.87571e-23)
(1.89944 -2.2491 -4.35363e-33)
(1.94955 -2.52899 -5.763e-23)
(1.87468 -1.99317 -5.91484e-23)
(1.69148 -1.37367 6.13731e-23)
(1.74376 -1.23366 -6.48008e-23)
(1.31651 -1.01997 -3.86408e-23)
(1.59494 -0.949996 5.58841e-23)
(1.85205 -0.734028 -4.89235e-23)
(1.33147 -1.29051 8.50425e-25)
(1.3619 -1.96852 6.16412e-24)
(1.30091 -2.27225 -4.4692e-25)
(1.31318 -2.55404 1.58527e-25)
(1.30716 -2.97108 2.05299e-23)
(1.64243 -2.53813 1.15134e-23)
(1.48213 -1.46713 -1.9906e-23)
(1.54501 -1.43512 3.33987e-23)
(1.66217 -0.833505 0)
(1.73637 -0.900492 0)
(0.906945 -0.506359 1.89098e-23)
(1.2824 -0.736424 5.3706e-23)
(1.10281 -1.91509 -7.07768e-24)
(1.42152 -2.56265 -5.99603e-24)
(1.42173 -2.54243 -9.30449e-25)
(1.68528 -2.31211 -2.1528e-24)
(1.74504 -2.18371 -2.65581e-24)
(1.68861 -1.62562 7.46503e-24)
(1.55892 -1.49432 0)
(2.07427 -1.53338 -9.81924e-23)
(2.33118 -1.28557 -1.00014e-22)
(2.53869 -1.07836 -3.47577e-23)
(2.18753 -1.05754 -8.85465e-23)
(1.29048 -0.639276 -8.83212e-23)
(1.33325 -1.44316 -4.41839e-24)
(1.34769 -2.06211 -1.11848e-23)
(1.15462 -2.3114 4.05203e-32)
(1.25796 -2.51969 5.00859e-25)
(0.996544 -2.66776 -2.13514e-23)
(1.11488 -2.40372 -1.90212e-23)
(1.71666 -1.91892 -2.1172e-23)
(1.97108 -1.79891 -1.59199e-22)
(2.21206 -1.35687 -6.28485e-23)
(2.4431 -0.767489 9.81022e-23)
(2.71168 -0.367293 0)
(2.01627 -0.138516 7.42515e-23)
(1.10743 -1.91347 -6.44148e-24)
(1.27426 -2.56971 -4.45524e-24)
(1.23791 -2.68835 5.44359e-24)
(1.44957 -2.38457 1.46129e-23)
(1.5179 -2.10427 -2.496e-23)
(1.71109 -1.54003 -7.02781e-23)
(1.62975 -1.58572 -4.0538e-23)
(1.79633 -1.94758 -1.20712e-23)
(1.67546 -0.6294 3.10503e-23)
(1.63488 -0.655068 1.32388e-22)
(2.113 -0.212904 0)
(2.09084 0.209218 5.13242e-23)
(1.21074 -1.07669 -1.68807e-24)
(1.07358 -2.16108 -5.6717e-24)
(0.90294 -2.41489 0)
(1.0219 -2.43503 -2.31053e-23)
(0.876228 -2.41492 -4.80379e-23)
(0.834885 -2.52932 0)
(1.2399 -2.47594 2.28793e-23)
(1.4998 -1.25094 2.7226e-25)
(2.01903 -0.705191 -8.64703e-24)
(1.93588 -0.439788 -2.69374e-23)
(2.26569 0.20174 0)
(1.70641 0.374767 0)
(2.24531 -2.81011 -2.17555e-22)
(1.91609 -2.93383 -3.02637e-22)
(1.77266 -2.57531 3.26349e-23)
(1.45159 -2.64091 4.67889e-23)
(1.49153 -2.00183 4.10318e-22)
(0.834374 -2.09557 2.99515e-22)
(0.953888 -1.42761 0)
(0.438796 -1.35314 0)
(0.684578 -0.935237 1.1516e-23)
(0.0672646 -0.957986 -9.36556e-25)
(0.762393 -0.873098 -3.45801e-33)
(-0.0309553 -0.500788 -2.24111e-34)
(2.67042 -1.97419 -1.36382e-22)
(2.27331 -1.99998 7.92636e-23)
(2.18191 -1.75551 2.5228e-22)
(1.80398 -1.80618 1.8838e-22)
(1.65598 -1.35405 7.60189e-23)
(1.4525 -1.46448 0)
(1.09738 -0.963642 3.95085e-23)
(0.909483 -1.22113 6.01599e-23)
(0.719644 -0.798441 9.66711e-24)
(0.310485 -1.0394 4.17424e-24)
(0.287887 -0.549013 8.93344e-25)
(0.230492 -1.20834 -1.02466e-24)
(2.30325 -1.79347 0)
(2.15842 -1.81356 -5.16963e-24)
(1.98456 -1.53552 -4.70796e-23)
(1.86959 -1.60278 0)
(1.71866 -1.19052 -2.41004e-22)
(1.47287 -1.23256 -3.72763e-23)
(1.44021 -0.906476 4.37112e-32)
(0.951384 -1.03727 -9.01312e-24)
(1.01278 -0.773187 0)
(0.544758 -0.873334 0)
(0.407286 -0.730863 -1.35699e-24)
(0.347079 -0.847913 -6.95745e-25)
(2.20759 -1.3361 0)
(2.10968 -1.41349 -7.66182e-23)
(2.08934 -1.1582 0)
(1.88127 -1.2017 -1.59562e-22)
(2.00275 -0.948351 -2.22414e-22)
(1.58534 -0.871284 -1.12699e-22)
(1.53329 -0.771898 1.10208e-23)
(1.29578 -0.691311 2.84593e-24)
(1.03447 -0.593145 -2.67174e-24)
(0.641269 -0.763696 4.24232e-26)
(0.373364 -0.615068 -3.83357e-25)
(0.199031 -0.912402 1.41947e-24)
(2.15498 -1.23135 1.65115e-22)
(1.91903 -1.15897 3.62828e-23)
(1.98182 -0.987615 0)
(1.82476 -0.885571 2.76321e-23)
(2.00104 -0.701842 -1.04674e-22)
(1.82638 -0.641304 -1.8521e-22)
(1.58149 -0.542376 -2.13525e-23)
(1.25821 -0.549822 -2.2796e-23)
(0.987721 -0.520643 -9.3033e-24)
(0.588178 -0.612172 -3.68179e-24)
(0.293279 -0.757242 -3.26506e-25)
(-0.0297135 -0.974907 5.47918e-25)
(2.47642 -0.934782 0)
(1.97836 -0.74546 4.07205e-23)
(1.99204 -0.661499 3.3005e-23)
(1.82671 -0.447184 0)
(1.8981 -0.328475 0)
(1.74639 -0.250607 -1.52794e-23)
(1.65555 -0.25836 0)
(1.39286 -0.334203 0)
(1.10047 -0.438733 0)
(0.502925 -0.615697 6.12803e-24)
(-0.0659628 -0.701348 1.9831e-24)
(-0.024372 -0.960851 -8.79969e-25)
(2.16567 -0.50098 0)
(2.05636 -0.360111 -2.15623e-24)
(1.90186 -0.390527 -2.10102e-23)
(1.76787 -0.128615 0)
(1.87107 -0.103645 8.31342e-23)
(1.74113 0.0844232 8.37399e-23)
(1.54679 -0.0630424 -7.32622e-23)
(1.18642 -0.095657 -2.64775e-23)
(0.971446 -0.301937 0)
(0.42822 -0.443017 0)
(0.0662636 -0.806431 -1.90793e-23)
(-0.623897 -0.801548 -5.3523e-24)
(1.81588 -0.26304 0)
(1.77045 -0.124934 1.01839e-22)
(1.86808 -0.146486 5.88443e-23)
(1.70387 0.15316 1.04402e-22)
(1.80926 0.156929 8.86741e-23)
(1.66957 0.264557 -5.016e-23)
(1.51413 0.0545481 -6.26868e-23)
(1.26844 -0.0211421 -2.26853e-23)
(0.793766 -0.253039 -1.28431e-23)
(0.319777 -0.815761 7.74757e-24)
(-0.426394 -0.655176 6.236e-24)
(-0.460512 -1.33461 4.22205e-24)
(1.68379 -0.133213 6.76654e-25)
(1.72098 -0.0168966 5.24533e-23)
(1.79106 0.209374 1.4529e-23)
(1.74568 0.337954 1.6099e-22)
(1.78436 0.335482 -3.33364e-23)
(1.60349 0.40446 -8.41307e-23)
(1.40162 0.256925 -8.51615e-23)
(0.905891 0.0393795 1.80149e-24)
(0.567515 -0.731877 4.07522e-23)
(0.109377 -0.542575 7.64211e-24)
(-0.255772 -1.19407 5.10375e-24)
(-1.23871 -0.870096 3.15719e-24)
(1.92851 0.137411 3.40195e-23)
(1.77435 0.330267 -4.56823e-23)
(1.833 0.445337 5.54299e-23)
(1.59036 0.520526 1.11566e-22)
(1.67292 0.564069 7.2434e-23)
(1.44732 0.676104 1.25304e-22)
(1.03979 0.364421 -9.24297e-23)
(0.620222 -0.357639 -4.3736e-23)
(0.315677 -0.386508 -3.08116e-32)
(0.0297067 -0.83271 3.51569e-23)
(-0.765808 -0.964351 4.06108e-24)
(-0.878295 -1.39152 2.70934e-24)
(2.00599 0.12369 0)
(1.70407 0.700514 -2.82915e-23)
(1.6699 0.72685 6.40088e-23)
(1.55953 0.805865 8.53247e-23)
(1.70141 0.846627 2.1713e-22)
(1.36341 0.715827 1.78459e-22)
(0.904957 0.133447 1.43985e-22)
(0.43886 0.0673706 -1.40313e-22)
(0.136652 -0.184063 -1.01969e-22)
(-0.257987 -0.520405 8.63726e-23)
(-0.642994 -1.03152 2.45075e-24)
(-1.61301 -0.932584 -9.888e-24)
(1.90886 0.593285 0)
(1.71736 1.14497 -1.18896e-22)
(1.63676 0.908055 0)
(1.54801 1.03886 0)
(1.64553 0.989686 1.20706e-22)
(1.27519 0.67922 -1.95779e-23)
(0.974871 0.459389 1.48471e-22)
(0.342363 0.407525 0)
(-0.00762372 0.0374201 0)
(-0.696474 -0.130401 -1.22214e-22)
(-0.99884 -0.714828 -5.56265e-23)
(-1.39808 -1.21583 1.51392e-24)
(1.0168 -0.615149 -2.58988e-23)
(0.558388 0.0915789 1.07799e-23)
(0.492669 0.0218311 -5.76125e-24)
(0.209419 0.0921535 -2.57393e-23)
(0.263153 0.0701078 2.35465e-24)
(0.348596 -0.537168 0)
(-1.51235 0.0420227 -2.33052e-23)
(-1.96699 -1.12455 -1.47938e-32)
(-1.4655 -1.22185 -1.60312e-22)
(-2.11644 -1.4732 7.81554e-24)
(-1.85486 -1.5046 -1.46922e-23)
(-2.11258 -1.72001 0)
(1.07188 -1.07064 -2.13128e-23)
(0.709527 -0.157501 -1.73335e-23)
(0.0944132 -0.858554 7.81605e-23)
(-0.758778 -0.961239 3.28999e-23)
(-1.66132 -1.30092 0)
(-2.23656 -2.12182 -3.74892e-23)
(-1.8349 -1.75749 4.01985e-22)
(-1.58975 -2.03456 9.72265e-23)
(-1.2754 -1.96887 5.20656e-24)
(-1.58403 -2.06259 0)
(-1.28473 -1.85912 -2.75742e-23)
(-1.44653 -1.97057 0)
(1.07987 -1.13715 -1.58443e-23)
(-0.176428 -0.921729 1.58247e-23)
(-1.07061 -1.57397 -4.44538e-23)
(-1.78448 -1.6851 -1.40636e-23)
(-2.03133 -1.66345 -1.08048e-22)
(-2.00603 -1.93691 1.57843e-31)
(-2.02073 -1.58755 0)
(-1.70332 -1.83973 -1.35302e-22)
(-1.62524 -1.57136 -7.77656e-23)
(-1.7056 -1.77263 -1.14316e-23)
(-1.55329 -1.48277 -1.82767e-23)
(-1.71324 -1.7038 -1.50231e-23)
(0.926711 -1.65017 8.42921e-24)
(-0.383277 -1.21018 2.10528e-23)
(-1.61124 -1.83757 -1.97147e-24)
(-1.85643 -1.96375 8.90009e-24)
(-1.93691 -2.0376 -2.99111e-23)
(-1.79114 -1.9253 1.82807e-23)
(-1.75444 -1.88581 -1.18531e-22)
(-1.60346 -2.03389 -1.91796e-22)
(-1.4734 -1.97116 -8.57376e-23)
(-1.4721 -1.9583 4.46979e-23)
(-1.25209 -1.79262 -3.69529e-23)
(-1.32892 -1.59438 -6.04439e-23)
(-0.798855 -1.55582 -2.96997e-23)
(-1.20499 -2.18935 1.21736e-23)
(-1.50558 -2.15698 -4.36494e-24)
(-1.81534 -1.98277 -5.14764e-24)
(-1.94644 -1.7583 1.32627e-23)
(-1.42449 -1.73155 -3.01023e-23)
(-1.8589 -1.83324 0)
(-1.56075 -1.85412 8.95387e-24)
(-1.57624 -2.0032 3.26437e-23)
(-1.24056 -1.80309 1.99658e-22)
(-1.26517 -1.74803 -6.28565e-24)
(-1.09415 -1.28278 0)
(-0.615162 -1.26591 -1.5632e-24)
(-0.526028 -0.93726 2.51076e-23)
(-1.79373 -1.28958 3.33002e-23)
(-1.83062 -1.45034 -6.7288e-23)
(-1.49869 -1.61059 -7.46003e-23)
(-1.78326 -1.82555 -8.96444e-24)
(-2.04057 -2.01092 7.70407e-23)
(-1.52785 -2.08064 -7.19528e-24)
(-1.51332 -2.19187 -1.89497e-22)
(-1.19451 -2.01014 -2.66342e-22)
(-1.22627 -2.13557 0)
(-1.05361 -1.58528 0)
(-1.25678 -1.19743 0)
(-1.45176 -1.7707 8.36878e-24)
(-1.72544 -1.99858 2.40334e-23)
(-1.55695 -2.00193 -1.26738e-23)
(-1.93248 -1.98528 -5.66586e-23)
(-2.16449 -2.03734 4.12175e-23)
(-1.78433 -2.04052 1.15528e-23)
(-1.48961 -2.12122 2.32242e-23)
(-1.3785 -2.01467 0)
(-1.26544 -2.23335 -2.56558e-22)
(-1.16609 -2.22285 3.67516e-23)
(-1.01598 -2.03253 -7.05274e-23)
(-1.13043 -1.28027 0)
(-1.44235 -1.34174 -1.23989e-23)
(-2.15454 -1.4375 0)
(-2.21575 -1.41612 -1.57369e-23)
(-2.18797 -1.74736 2.30114e-23)
(-1.56958 -1.81149 -2.14534e-23)
(-1.6068 -1.71055 -1.64672e-24)
(-1.47468 -1.86322 8.44031e-24)
(-1.20759 -1.89152 0)
(-1.37983 -1.85273 8.24098e-23)
(-0.923194 -1.82576 2.94614e-31)
(-0.916103 -1.95233 0)
(-1.60504 -1.20663 -4.25142e-25)
(-1.87426 -1.64552 -1.77179e-24)
(-2.23398 -1.75506 2.64054e-24)
(-1.7461 -2.10528 -1.48343e-32)
(-1.52827 -2.15319 -2.08665e-23)
(-1.67635 -1.73799 1.22824e-24)
(-2.18533 -2.06945 -2.20874e-23)
(-1.43689 -2.46334 -5.38309e-23)
(-1.72173 -2.48597 0)
(-1.00467 -2.4139 -5.32756e-23)
(-1.06739 -2.50249 -1.48451e-22)
(-0.514029 -1.82068 1.04548e-23)
(-1.47314 -1.34889 -3.38587e-24)
(-1.83815 -1.46021 -8.71144e-24)
(-2.29901 -1.43831 -9.56581e-24)
(-2.22147 -1.2465 3.37909e-24)
(-2.36392 -1.2902 1.37792e-32)
(-2.22289 -1.86222 8.87285e-23)
(-1.87031 -2.31263 -3.44198e-22)
(-1.81791 -2.37511 -2.25805e-32)
(-1.31407 -2.50039 0)
(-1.1058 -2.23851 -1.87344e-23)
(-0.539164 -2.68131 -9.2772e-23)
(-0.385844 -2.17732 1.32293e-31)
(-1.72193 -1.26434 3.19183e-24)
(-2.04045 -1.51545 -7.33312e-24)
(-2.34831 -1.46098 -1.13217e-23)
(-1.90609 -1.80147 0)
(-1.71497 -2.15471 -1.00665e-23)
(-1.80196 -2.15505 -2.03581e-23)
(-2.37914 -2.05534 -2.96817e-23)
(-1.42109 -2.07811 -2.66485e-22)
(-1.33032 -2.36821 -3.59801e-23)
(-0.584287 -2.00735 -5.50905e-23)
(-0.481899 -2.2731 0)
(0.211953 -2.04159 -3.5328e-23)
(-1.42829 -1.37555 1.21225e-23)
(-1.95396 -1.26745 -2.36871e-24)
(-2.29572 -1.25441 -1.46998e-23)
(-2.28382 -1.28697 -1.07886e-23)
(-2.49405 -1.15675 -2.82611e-23)
(-3.01151 -1.5055 1.34793e-23)
(-1.89984 -2.04947 -7.45891e-23)
(-1.19822 -2.07847 -2.01734e-22)
(-0.920853 -2.55799 -6.50017e-23)
(-0.321157 -2.24311 -4.69189e-23)
(0.161296 -2.54849 0)
(0.185165 -2.13056 7.06513e-23)
(-1.74354 -1.44578 4.99181e-23)
(-2.11887 -1.46654 6.22238e-23)
(-1.58833 -1.17633 7.54814e-24)
(-1.94845 -0.893747 -1.48683e-22)
(-1.49082 -0.872613 2.90814e-22)
(-1.57511 -0.516338 2.75516e-22)
(-1.22858 -0.495044 -7.28602e-24)
(-1.20636 -0.375289 3.04329e-24)
(-1.02597 -0.493843 -3.12287e-24)
(-0.938774 -0.0575683 -5.82372e-24)
(-0.845665 -0.234382 -8.10317e-28)
(-0.664265 -0.0141978 5.96249e-26)
(-1.29183 -1.69574 0)
(-1.48548 -1.73196 1.03785e-22)
(-1.24823 -1.54143 3.10992e-23)
(-1.47344 -1.41703 1.18268e-22)
(-1.11031 -1.18823 0)
(-1.36279 -1.14393 1.36139e-23)
(-0.929461 -0.809357 0)
(-1.17339 -0.511119 -3.53679e-23)
(-0.905186 -0.604557 -5.81519e-24)
(-1.08593 -0.547528 1.10094e-24)
(-0.711363 -0.453027 1.80158e-24)
(-0.99521 -0.316205 2.22123e-26)
(-1.51338 -1.60828 0)
(-1.60447 -1.56012 0)
(-1.40579 -1.59468 9.08915e-23)
(-1.43113 -1.28297 1.95464e-23)
(-1.17946 -1.13814 -6.20523e-24)
(-1.27361 -1.07307 -1.16459e-23)
(-1.06079 -1.21538 -5.66749e-24)
(-1.09349 -0.584047 -1.14171e-23)
(-0.947757 -0.670726 0)
(-0.935962 -0.486608 1.30888e-24)
(-0.795636 -0.438389 4.09474e-25)
(-0.937846 -0.425632 -1.59182e-25)
(-1.25874 -1.68747 0)
(-1.32709 -1.52723 0)
(-1.27038 -1.74961 -1.99761e-23)
(-1.2523 -1.61554 6.11166e-23)
(-1.1169 -1.38487 9.4006e-23)
(-1.08214 -1.02305 8.46867e-23)
(-0.95115 -1.20389 1.45168e-23)
(-1.11359 -0.88408 -1.54587e-23)
(-0.935354 -0.811259 5.7121e-24)
(-1.06371 -0.788392 -6.60832e-25)
(-0.793268 -0.518408 2.23008e-24)
(-0.994559 -0.386541 -4.98112e-25)
(-1.22156 -1.45308 -5.67341e-23)
(-1.06269 -1.23528 -2.67305e-23)
(-1.12827 -1.34749 0)
(-1.03339 -1.51303 2.90718e-23)
(-0.990765 -1.63391 -1.69384e-23)
(-0.908045 -1.29366 1.79487e-23)
(-0.776176 -1.17019 9.37884e-24)
(-0.920035 -0.752168 -3.74888e-24)
(-0.904774 -0.728367 4.29188e-24)
(-1.066 -0.774577 6.65457e-24)
(-0.989211 -0.570961 1.4645e-24)
(-1.04806 -0.432714 3.17219e-24)
(-1.1238 -1.55159 -4.44224e-23)
(-0.899033 -1.36299 -2.49659e-23)
(-0.963846 -1.28719 -2.44273e-24)
(-0.82551 -1.32781 3.53838e-23)
(-0.793602 -1.53411 3.66044e-23)
(-0.680311 -1.36174 2.88659e-23)
(-0.788263 -1.28339 4.30772e-25)
(-0.90397 -0.872679 -5.18279e-25)
(-0.8513 -0.649313 4.9203e-24)
(-0.908383 -0.663412 7.09342e-24)
(-1.0029 -0.591942 0)
(-1.01227 -0.448367 -4.17743e-32)
(-0.986105 -1.73201 3.64773e-23)
(-0.875508 -1.52518 1.36807e-23)
(-0.828711 -1.30112 2.54149e-24)
(-0.803358 -1.26083 -1.75185e-23)
(-0.661073 -1.53199 3.53511e-23)
(-0.593183 -1.38167 1.881e-23)
(-0.738895 -1.20221 -9.20456e-24)
(-0.88283 -0.904792 -5.80856e-33)
(-0.867105 -0.724188 1.60168e-23)
(-0.89516 -0.552616 0)
(-1.0264 -0.534397 0)
(-1.09811 -0.318451 -2.95854e-24)
(-0.865987 -1.91032 -4.00362e-23)
(-0.622972 -1.64549 -2.93537e-23)
(-0.877569 -1.46412 0)
(-0.69498 -1.31993 0)
(-0.544341 -1.54677 -2.87372e-23)
(-0.612597 -1.30579 -2.07073e-23)
(-0.932831 -1.14328 -8.60557e-24)
(-1.0055 -0.937753 -1.31726e-23)
(-1.02415 -0.82255 3.50667e-23)
(-0.8766 -0.597838 2.76854e-24)
(-0.924679 -0.357764 7.10157e-24)
(-1.13245 -0.360083 3.10524e-24)
(-0.749288 -1.88242 3.33244e-23)
(-0.436324 -1.65666 5.83869e-23)
(-0.732992 -1.42817 6.47812e-24)
(-0.535691 -1.32596 5.63974e-24)
(-0.361957 -1.48258 -2.42959e-24)
(-0.576068 -1.18941 0)
(-0.846106 -1.02637 -6.12885e-25)
(-0.839772 -0.800077 -3.22305e-24)
(-0.769083 -0.908847 1.46303e-23)
(-0.722524 -0.586414 7.91974e-24)
(-1.17453 -0.416849 1.38455e-23)
(-1.06767 0.106457 3.43023e-24)
(-0.329909 -1.81993 -1.05432e-23)
(-0.366897 -1.61148 0)
(-0.592664 -1.48941 -5.67963e-24)
(-0.258498 -1.35744 2.56286e-25)
(-0.233622 -1.39723 -3.99778e-23)
(-0.497466 -0.987918 -5.7027e-24)
(-0.742293 -0.872805 4.58566e-23)
(-0.499608 -0.892949 -1.1829e-23)
(-0.380382 -0.667409 -2.66148e-23)
(-0.955118 -0.424661 3.77279e-24)
(-0.774871 0.0152432 3.27514e-24)
(-1.48479 -0.112351 -5.0004e-25)
(-0.320377 -1.80621 -1.67317e-23)
(-0.155267 -1.57093 0)
(-0.340597 -1.39726 -2.99379e-23)
(-0.0324602 -1.37785 -8.99165e-24)
(-0.11092 -1.32348 2.67878e-23)
(-0.573574 -0.929823 5.7612e-23)
(-0.327739 -1.00254 3.58247e-23)
(0.0828217 -0.898957 6.14192e-23)
(-0.527334 -0.709364 7.02196e-23)
(-0.269604 -0.12836 -1.4021e-23)
(-1.0232 -0.0323076 1.03662e-23)
(-0.818924 0.662512 2.57219e-24)
(-0.0672691 -1.79262 -5.92659e-23)
(-0.124289 -1.5653 0)
(-0.161833 -1.47092 -8.56208e-24)
(0.106357 -1.35464 2.88652e-23)
(-0.112194 -1.19525 7.9813e-23)
(-0.36938 -0.903877 8.02071e-23)
(0.260693 -0.96712 0)
(-0.168881 -0.797188 5.52222e-23)
(0.0198716 -0.489608 -2.26241e-23)
(-0.384953 -0.147071 0)
(-0.355096 0.481548 -7.18378e-24)
(-1.17522 0.579521 -6.5546e-25)
(-0.665674 -0.803444 1.55967e-23)
(0.12688 -0.727292 3.93679e-23)
(-0.100889 -0.572949 2.67619e-23)
(0.269951 -0.419987 3.85948e-24)
(0.00401545 -0.350052 2.07111e-24)
(0.049076 -0.326187 1.18978e-24)
(-0.347746 -0.166151 -1.7388e-22)
(-0.0908745 0.79113 -2.07496e-22)
(-0.564682 1.86275 -8.56089e-23)
(-1.20963 1.48821 -4.28848e-23)
(-1.25556 1.74326 -2.29477e-23)
(-1.39756 1.75641 1.98701e-23)
(-0.843919 -1.10294 2.80134e-25)
(-0.409315 -0.618863 9.89643e-25)
(-0.757523 -0.181793 4.47769e-24)
(-0.788786 0.394945 -4.05446e-23)
(-1.06118 1.16747 -1.11366e-22)
(-1.14336 1.5277 0)
(-1.62445 1.96745 5.48152e-24)
(-1.46111 1.94155 0)
(-1.68379 1.91055 2.133e-23)
(-1.71563 1.43735 1.7471e-23)
(-1.89146 1.70529 0)
(-1.80271 1.56228 2.94681e-23)
(-1.16359 -0.750477 -5.53987e-24)
(-0.858305 -0.0673383 9.20238e-24)
(-1.44296 0.5225 -3.26127e-23)
(-1.38787 1.08586 0)
(-1.6815 1.59324 -3.63149e-23)
(-1.61514 1.74569 -2.52993e-23)
(-1.73217 1.88319 -1.56715e-22)
(-1.55193 2.13471 -4.43844e-23)
(-1.47642 1.85371 1.12893e-22)
(-1.44535 1.68918 7.60189e-32)
(-1.4917 1.70686 -3.34409e-24)
(-1.43127 1.57345 -7.29222e-24)
(-1.50707 -0.98822 -1.32544e-23)
(-1.2947 0.172399 1.138e-23)
(-1.94602 1.04654 -3.27846e-23)
(-1.78439 1.35743 -4.15878e-24)
(-2.25985 1.83874 -9.40038e-23)
(-1.78983 1.67337 5.72571e-23)
(-2.16805 1.90329 0)
(-1.81199 1.91257 -1.10817e-22)
(-1.93212 1.83176 0)
(-1.77975 1.74002 -1.25648e-23)
(-1.83802 1.63909 -2.18241e-23)
(-1.62995 1.56244 -6.72497e-23)
(-1.43017 0.912456 -2.55452e-23)
(-2.40827 1.09555 -9.67105e-25)
(-2.23718 1.13645 2.94616e-23)
(-2.47135 1.64361 1.08962e-22)
(-2.31829 1.91792 -4.59841e-23)
(-2.30282 1.83507 8.69418e-23)
(-2.47511 2.1864 -3.58425e-23)
(-2.28786 2.0591 -4.89356e-23)
(-2.40866 2.08485 0)
(-2.28649 1.95631 -4.31134e-24)
(-2.2514 1.84317 -6.19624e-23)
(-2.09277 1.79097 0)
(-1.58513 0.734567 -4.3622e-24)
(-1.03133 0.492066 2.34025e-23)
(-1.42456 1.22776 0)
(-1.5809 1.87106 -7.49154e-24)
(-1.96226 1.72529 0)
(-2.16425 2.04638 0)
(-2.35252 2.34019 3.16647e-23)
(-2.31899 1.99797 1.81369e-23)
(-2.46196 1.97511 0)
(-2.18972 1.68282 2.65849e-22)
(-2.28237 1.56014 2.49851e-22)
(-1.96771 1.51671 -3.13857e-23)
(-1.20845 1.56595 -1.67488e-24)
(-1.43624 1.17994 6.39604e-24)
(-1.8821 1.49166 -4.97858e-24)
(-1.93873 1.61537 1.4877e-23)
(-2.11255 1.8894 0)
(-2.22028 2.40019 7.95399e-23)
(-2.19044 2.0388 1.26751e-22)
(-2.20157 1.8202 1.07302e-22)
(-2.07326 1.55303 0)
(-2.01664 1.39036 4.59497e-23)
(-1.87867 1.12414 1.27196e-22)
(-1.89525 1.18713 -7.48509e-23)
(-1.36604 1.28398 4.54352e-24)
(-1.15236 1.04636 1.02069e-23)
(-1.3904 1.86951 -2.53409e-24)
(-1.20357 2.26903 3.9818e-23)
(-1.75663 2.51729 2.45635e-24)
(-1.78051 2.08992 -5.69398e-24)
(-1.87103 1.73732 -5.12968e-23)
(-1.82687 1.63774 -1.35931e-22)
(-1.88003 1.32144 -3.96237e-23)
(-2.02358 1.31075 4.50042e-23)