/*--------------------------------*- C++ -*----------------------------------*\
| =========                 |                                                 |
| \\      /  F ield         | OpenFOAM: The Open Source CFD Toolbox           |
|  \\    /   O peration     | Version:  v1606+                                |
|   \\  /    A nd           | Web:      www.OpenFOAM.com                      |
|    \\/     M anipulation  |                                                 |
\*---------------------------------------------------------------------------*/
FoamFile
{
    version     2.0;
    format      ascii;
    class       surfaceScalarField;
    location    "2.8";
    object      phi;
}
// * * * * * * * * * * * * * * * * * * * * * * * * * * * * * * * * * * * * * //

dimensions      [0 3 -1 0 0 0 0];

internalField   nonuniform List<scalar> 
33146
(
-3.62470745931e-06
-3.79905174062e-06
7.42373006546e-06
-7.61800386297e-06
-3.37855602864e-06
7.37181273065e-06
-1.15644088039e-05
-3.13583209087e-06
7.08218728127e-06
-1.51635700363e-05
-2.98301797757e-06
6.61704780571e-06
-1.82182063997e-05
-2.72119433177e-06
6.16333162163e-06
-2.07238589297e-05
-2.20532846366e-06
5.74480304672e-06
-2.27169331268e-05
-1.73264163829e-06
5.14122291725e-06
-2.41350125963e-05
-1.48077582222e-06
4.27971875458e-06
-2.48473107396e-05
-1.46628960425e-06
3.36482121983e-06
-2.49292734488e-05
-1.39285541895e-06
2.46642193325e-06
-2.43609010302e-05
-1.20273631987e-06
1.43133583195e-06
-2.32207783168e-05
-9.94536595468e-07
4.56750771566e-07
-2.15762611681e-05
-7.64123819725e-07
-4.72693595451e-07
-1.94486367482e-05
-5.78444226854e-07
-1.33544198862e-06
-1.67841564605e-05
-6.98166788592e-07
-1.90866629992e-06
-1.3627451443e-05
-1.02581318887e-06
-2.12967042245e-06
-1.0134792246e-05
-1.23119467059e-06
-2.26424290886e-06
-6.52582131884e-06
-1.14484313833e-06
-2.46414576403e-06
-3.06257489575e-06
-8.92029571046e-07
-2.57123160811e-06
-4.92093211511e-07
-2.57049370814e-06
-3.44326745403e-06
-7.5343641673e-06
7.17854150045e-06
-7.62606090599e-06
-7.25975323418e-06
8.06394078829e-06
-1.16470339231e-05
-6.84104120203e-06
8.03931847864e-06
-1.49707407938e-05
-5.94444153351e-06
8.00532711626e-06
-1.77481713134e-05
-4.25698920792e-06
8.29682393247e-06
-2.01714079602e-05
-2.49554316507e-06
8.46555492901e-06
-2.2236388724e-05
-1.32699835205e-06
7.87358747214e-06
-2.37905582161e-05
-8.60589005286e-07
6.49009674235e-06
-2.46757986734e-05
-8.87746950256e-07
4.83017073856e-06
-2.49211129118e-05
-7.77192352387e-07
3.12048156587e-06
-2.4492947005e-05
-4.96909824654e-07
1.32419134174e-06
-2.34707035056e-05
-1.05402086997e-07
-4.85845666606e-07
-2.18981283171e-05
3.66759059533e-07
-2.31058016083e-06
-1.9787299269e-05
7.9175746149e-07
-3.95920087268e-06
-1.70277458169e-05
6.07796760227e-07
-4.90350257742e-06
-1.37827555433e-05
-1.80653093847e-07
-4.69157611729e-06
-1.02643383901e-05
-1.15133932812e-06
-3.82697195162e-06
-6.60108851429e-06
-1.64333208878e-06
-3.21576538874e-06
-3.02729264088e-06
-1.46079961429e-06
-3.00504054872e-06
-9.73546513238e-07
-2.54585279829e-06
-3.23456272381e-06
-1.11998131619e-05
6.89996649562e-06
-7.41102839471e-06
-1.08995754284e-05
8.15795446681e-06
-1.11909212321e-05
-9.55011876498e-06
8.9497426013e-06
-1.42658642673e-05
-6.79790173273e-06
1.05541243819e-05
-1.68870542489e-05
-3.34133668749e-06
1.2454916705e-05
-1.93533500402e-05
-2.55797699446e-07
1.32299556758e-05
-2.16176793757e-05
1.4923320886e-06
1.22360518057e-05
-2.34167452501e-05
1.99188223419e-06
9.71985950996e-06
-2.4557282427e-05
1.716178126e-06
6.71482718085e-06
-2.50073270613e-05
1.61923561364e-06
3.63677802603e-06
-2.47684113586e-05
1.7670088748e-06
4.85266699085e-07
-2.39366624918e-05
2.17875733384e-06
-2.72287423455e-06
-2.25166138062e-05
2.78622331157e-06
-6.04155058775e-06
-2.05092778505e-05
3.44155411509e-06
-9.07625014186e-06
-1.76166633432e-05
3.21729737539e-06
-1.09116353044e-05
-1.4076057576e-05
2.08097847687e-06
-1.0448781518e-05
-1.02431082824e-05
3.95150947249e-07
-7.96878367553e-06
-6.47224255836e-06
-1.0957739292e-06
-5.07434616109e-06
-2.91869893518e-06
-1.67294892741e-06
-3.42094676307e-06
-1.39570061444e-06
-2.49655912194e-06
-3.13508587183e-06
-1.46634052758e-05
6.64405265354e-06
-7.15286953443e-06
-1.3694511076e-05
8.58864325274e-06
-1.06603972039e-05
-1.05967174538e-05
1.13985926246e-05
-1.35256966475e-05
-5.79020219688e-06
1.54003874192e-05
-1.61267124277e-05
-5.14382942266e-07
1.85566098971e-05
-1.87091664151e-05
3.78386115309e-06
1.9333193428e-05
-2.1319081807e-05
5.99491445571e-06
1.74630159488e-05
-2.33567869289e-05
6.29393313232e-06
1.33458169833e-05
-2.47593324319e-05
5.62354205258e-06
8.64151762068e-06
-2.54012997693e-05
5.10542163946e-06
3.83828396044e-06
-2.52751349056e-05
4.89417866519e-06
-1.034674335e-06
-2.45318520147e-05
5.2217738948e-06
-6.03149024568e-06
-2.32128922934e-05
5.86896652555e-06
-1.11107512159e-05
-2.1337698172e-05
6.64739363849e-06
-1.56721679097e-05
-1.83246125866e-05
6.35821646901e-06
-1.87386977274e-05
-1.44941553139e-05
4.99979235969e-06
-1.84804312532e-05
-1.02954153034e-05
2.78418463235e-06
-1.48213361117e-05
-6.21853548998e-06
4.29437934628e-07
-9.29126514725e-06
-2.75353269507e-06
-1.13996943698e-06
-4.73720822479e-06
-1.4930057344e-06
-2.66949278491e-06
-3.12738556008e-06
-1.76572457241e-05
6.63845133884e-06
-6.97438045874e-06
-1.56207657222e-05
9.9888536507e-06
-1.0287482499e-05
-1.07030301239e-05
1.54260874773e-05
-1.31349320625e-05
-3.88307252153e-06
2.1324585225e-05
-1.58982737536e-05
3.07054629898e-06
2.51600231345e-05
-1.88005192538e-05
8.2840726492e-06
2.55981225577e-05
-2.16759644838e-05
1.07279247734e-05
2.24411800068e-05
-2.37753925731e-05
1.08323223546e-05
1.64442021225e-05
-2.52587131029e-05
1.00416615382e-05
9.79261030489e-06
-2.58153703238e-05
9.09355040871e-06
3.14017490862e-06
-2.55947787924e-05
8.6339579691e-06
-3.54449766068e-06
-2.4685324485e-05
8.76614165288e-06
-1.01937324323e-05
-2.33644575242e-05
9.35798956948e-06
-1.67055917689e-05
-2.16807325966e-05
1.00301603215e-05
-2.24015004726e-05
-1.85862496696e-05
9.47734257438e-06
-2.66341573587e-05
-1.4592998078e-05
7.98206167579e-06
-2.6783519867e-05
-1.01529579662e-05
5.39699514635e-06
-2.24256388544e-05
-5.95192733725e-06
2.41940576002e-06
-1.47996733965e-05
-2.49101726353e-06
9.97950769521e-09
-7.24631499212e-06
-1.06977177384e-06
-3.10623510747e-06
-3.1060889755e-06
-2.03003488167e-05
6.93799282083e-06
-6.81170866618e-06
-1.72225137056e-05
1.19271622744e-05
-1.01534359204e-05
-1.07287500118e-05
1.95236676036e-05
-1.30851752603e-05
-2.35267234617e-06
2.67874315996e-05
-1.60670096816e-05
5.85591525587e-06
3.10262469607e-05
-1.91588288028e-05
1.15383977807e-05
3.08865696516e-05
-2.23595756222e-05
1.39841255071e-05
2.67326649866e-05
-2.40431477381e-05
1.3154214841e-05
1.94676796439e-05
-2.51765451329e-05
1.24853099058e-05
1.15066459124e-05
-2.51969388497e-05
1.11969871572e-05
3.44474152752e-06
-2.46502337547e-05
1.11407859555e-05
-4.81487135452e-06
-2.41859917608e-05
1.22884907681e-05
-1.30370630586e-05
-2.39226910247e-05
1.37217734723e-05
-2.09666993351e-05
-2.17502205264e-05
1.24613979924e-05
-2.75106273057e-05
-1.82040116821e-05
1.19514520458e-05
-3.29819012787e-05
-1.41155804284e-05
1.06515815828e-05
-3.35639782912e-05
-9.70441906112e-06
7.8847338365e-06
-2.88182058471e-05
-5.54543165205e-06
4.44107593692e-06
-1.98111290971e-05
-2.18195044549e-06
1.40100886552e-06
-9.99399272496e-06
-1.90413940289e-07
-3.86288652109e-06
-3.04473183119e-06
-2.28095576978e-05
7.12697615218e-06
-6.67811698421e-06
-1.91392876396e-05
1.33906220092e-05
-9.9924617021e-06
-1.17342590389e-05
2.23606821965e-05
-1.3155770437e-05
-2.1821725213e-06
3.04734297303e-05
-1.62793440763e-05
7.04204130693e-06
3.45997516173e-05
-1.93608957831e-05
1.33351989697e-05
3.35385374983e-05
-2.34970454809e-05
1.69409435891e-05
2.8418953892e-05
-2.43110515339e-05
1.58370316469e-05
1.80681259835e-05
-2.56880796215e-05
1.78469295334e-05
8.18290155647e-06
-2.55836260497e-05
1.82025888029e-05
-2.71201305628e-06
-2.40116179807e-05
1.96809423836e-05
-1.34835822099e-05
-2.17846660363e-05
2.24411069662e-05
-2.35204562178e-05
-2.02250413006e-05
2.4217432269e-05
-3.09656515213e-05
-1.90954828805e-05
1.77183191519e-05
-3.24861070459e-05
-1.64243679121e-05
1.58821970536e-05
-3.75072141911e-05
-1.29348679895e-05
1.36298853354e-05
-3.77202064288e-05
-8.80576461759e-06
1.01522241311e-05
-3.26329225806e-05
-4.87525489403e-06
6.17059541856e-06
-2.27568608993e-05
-1.79600380326e-06
2.7276158623e-06
-1.16827680464e-05
9.39499325285e-07
-4.32203920618e-06
-2.80997604435e-06
-2.51649314982e-05
6.80551622812e-06
-6.22969505623e-06
-2.12994401295e-05
1.36180886304e-05
-9.55259595593e-06
-1.34110138557e-05
2.33035766356e-05
-1.27527186591e-05
-3.20208571749e-06
3.1935348718e-05
-1.56765040101e-05
6.61471860476e-06
3.61480248163e-05
-1.80395152368e-05
1.31196771346e-05
3.48483976779e-05
-2.18364711095e-05
1.70580258932e-05
3.08353261289e-05
-1.94614136965e-05
1.7102714998e-05
1.61169135846e-05
-1.8317966136e-05
1.8039605724e-05
1.0562907764e-05
-1.65019661615e-05
1.81252634613e-05
2.30173035124e-06
-1.74666055821e-05
1.99317446315e-05
-3.10439017107e-06
-2.20846881507e-05
2.24782182902e-05
-7.09589764025e-06
-3.03015401852e-05
2.37966704526e-05
-1.08979065497e-05
-2.47059025612e-05
1.84103848523e-05
-3.32311219073e-05
-1.81071841281e-05
1.66462825018e-05
-3.94696042534e-05
-1.29035410917e-05
1.4736363536e-05
-3.90161452585e-05
-8.16371543638e-06
1.13519626899e-05
-3.36157235228e-05
-4.23396947594e-06
7.34144829536e-06
-2.33679241522e-05
-1.44000870694e-06
3.84750233618e-06
-1.19058831194e-05
2.11411734945e-06
-4.23312638496e-06
-2.50754776773e-06
-2.71142663214e-05
6.09705675556e-06
-5.69275000148e-06
-2.30900514871e-05
1.30140401947e-05
-8.86389882412e-06
-1.49000934191e-05
2.29641587182e-05
-1.20258051111e-05
-4.22938567308e-06
3.19045265489e-05
-1.48805275206e-05
6.00928598105e-06
3.62570744505e-05
-1.69194477052e-05
1.26245959488e-05
3.48038600199e-05
-2.01708638258e-05
1.63228131632e-05
3.11420643112e-05
-1.74371840513e-05
1.70543123832e-05
1.70723470107e-05
-1.70429719378e-05
1.70442774152e-05
1.25001082289e-05
-1.65669519218e-05
1.75345883809e-05
4.15501605242e-06
-1.73787689831e-05
1.85181638537e-05
-1.59287386158e-06
-2.06789306145e-05
2.0477984488e-05
-6.37651540202e-06
-2.8228047638e-05
2.23263237413e-05
-1.05160941463e-05
-2.22584606144e-05
1.88820442411e-05
-3.33846949297e-05
-1.59412066181e-05
1.78655229364e-05
-3.96433173495e-05
-1.11292234098e-05
1.60117350526e-05
-3.87933939132e-05
-6.7640274579e-06
1.26044587265e-05
-3.32938601659e-05
-3.24565280613e-06
8.454623846e-06
-2.28988796008e-05
-9.57719073015e-07
4.95497143818e-06
-1.13874396341e-05
3.28946982743e-06
-3.75157080906e-06
-2.22437056731e-06
-2.84301625302e-05
5.18044991689e-06
-5.11378605725e-06
-2.43444462548e-05
1.21820464705e-05
-8.09877290004e-06
-1.59949852105e-05
2.238381678e-05
-1.11030329836e-05
-5.09498525717e-06
3.15851837769e-05
-1.38085773026e-05
5.35059126036e-06
3.61611553844e-05
-1.55963232784e-05
1.18370343183e-05
3.48451532539e-05
-1.82606411648e-05
1.49292572113e-05
3.12132843578e-05
-1.53056289799e-05
1.52658072335e-05
1.85910789554e-05
-1.44520995752e-05
1.44344087885e-05
1.36552838723e-05
-1.34607690934e-05
1.56395243138e-05
4.94404202407e-06
-1.4841257291e-05
1.75688613854e-05
-1.48853468857e-06
-1.94481515652e-05
2.01308570543e-05
-6.72293998416e-06
-2.75134865456e-05
2.17302764134e-05
-1.08742198707e-05
-2.12998127097e-05
2.00003002518e-05
-3.42754120212e-05
-1.45692834397e-05
1.89558794069e-05
-3.99277320692e-05
-9.71606809733e-06
1.70466908977e-05
-3.85942248767e-05
-5.51772441576e-06
1.35172636247e-05
-3.27873244588e-05
-2.38086597417e-06
9.33723625349e-06
-2.22868032636e-05
-4.60490014097e-07
5.81159074563e-06
-1.07690322204e-05
4.31620586476e-06
-3.10572446964e-06
-1.94979678113e-06
-2.88992816946e-05
4.05910788128e-06
-4.55667699808e-06
-2.48815066397e-05
1.1182185387e-05
-7.29761063868e-06
-1.65676433479e-05
2.1617535541e-05
-1.00028738935e-05
-5.72458261175e-06
3.10501850999e-05
-1.24437918327e-05
4.73950320562e-06
3.58489150225e-05
-1.42030246189e-05
1.15271351755e-05
3.43389602758e-05
-1.6389048118e-05
1.49174765727e-05
2.93531865567e-05
-1.33585493054e-05
1.63976340442e-05
1.55952201733e-05
-1.20669648023e-05
1.52275766128e-05
9.81414379205e-06
-1.1355097339e-05
1.65638703057e-05
2.40404116597e-06
-1.32576222253e-05
1.82179594395e-05
-2.56495380918e-06
-1.73779607724e-05
1.91796304272e-05
-6.60544848849e-06
-2.39710050868e-05
1.9749578374e-05
-1.09619039173e-05
-1.86443985737e-05
2.09949081304e-05
-3.32647275241e-05
-1.27051501153e-05
1.99195092278e-05
-3.9009744206e-05
-8.11282186348e-06
1.76651042762e-05
-3.79168059395e-05
-4.2046303288e-06
1.40110771147e-05
-3.20781854752e-05
-1.35837343799e-06
9.76616283581e-06
-2.1542516816e-05
1.09929706277e-07
6.34025638213e-06
-9.98900472058e-06
5.08174202821e-06
-2.27410348337e-06
-1.67175972959e-06
-2.85418553366e-05
2.7307289614e-06
-4.03017727146e-06
-2.50514087501e-05
9.85132421407e-06
-6.53183928746e-06
-1.74204669289e-05
2.04913311103e-05
-8.91437195137e-06
-7.30658588973e-06
3.02444655788e-05
-1.08272810795e-05
2.56500454592e-06
3.54326970781e-05
-1.18609223144e-05
9.28652581884e-06
3.43397421689e-05
-1.18648205322e-05
1.22977142846e-05
2.89351580686e-05
-1.12613061332e-05
1.31427350561e-05
2.17922104322e-05
-1.12980565863e-05
1.26785166632e-05
1.39571536935e-05
-1.20656935866e-05
1.32697564515e-05
7.66362125796e-06
-1.39998118049e-05
1.38968897722e-05
2.08759459497e-06
-1.71417524944e-05
1.41984670603e-05
-3.81394647346e-06
-2.09065236447e-05
1.50848399643e-05
-1.12769929785e-05
-1.69762107459e-05
1.77733145248e-05
-2.77234682879e-05
-1.17186592657e-05
1.7868898903e-05
-3.52831390332e-05
-6.98851908937e-06
1.60398277603e-05
-3.56626996426e-05
-3.0537717119e-06
1.28256775607e-05
-3.01791439085e-05
-4.18682161383e-07
9.02314195765e-06
-1.98890102428e-05
6.67820206385e-07
6.10570493672e-06
-8.64508270371e-06
5.4274948765e-06
-1.23074143537e-06
-1.37324661834e-06
-2.74234721991e-05
1.0710084202e-06
-3.43757343834e-06
-2.50269012394e-05
7.32361371007e-06
-5.65174279e-06
-1.89317752114e-05
1.74083025557e-05
-7.63225632097e-06
-1.0394314217e-05
2.705183777e-05
-9.23993535904e-06
-1.56966508224e-06
3.26619603673e-05
-1.03633900465e-05
5.26898053337e-06
3.22830633528e-05
-1.07593842594e-05
9.13544253741e-06
2.6707351023e-05
-1.00471493593e-05
1.05777418949e-05
1.84607713853e-05
-9.6099592125e-06
1.08848000854e-05
1.06753910355e-05
-1.00553912904e-05
1.11656895323e-05
4.57922565456e-06
-1.11255060604e-05
1.13455069308e-05
-1.63790247038e-06
-1.27803048306e-05
1.17484812393e-05
-8.4437326373e-06
-1.43104914897e-05
1.28521891218e-05
-1.60747889389e-05
-1.20268250938e-05
1.48916348241e-05
-2.59305911521e-05
-8.3632021164e-06
1.49681740323e-05
-3.16007755008e-05
-4.62698595287e-06
1.32663510338e-05
-3.16532028596e-05
-1.36239228894e-06
1.0336106045e-05
-2.60791232395e-05
7.56768025369e-07
7.21713092072e-06
-1.64075015764e-05
1.32644662823e-06
5.18137668119e-06
-6.21816802335e-06
5.27931112042e-06
3.00344055442e-07
-9.48973923335e-07
-2.53106636974e-05
-9.66209341281e-07
-2.56584672092e-06
-2.41614468905e-05
3.42249661971e-06
-4.35355767188e-06
-2.01398443618e-05
1.16683534616e-05
-5.89605330317e-06
-1.37922400169e-05
2.04075050413e-05
-7.00537794459e-06
-6.74525756374e-06
2.62442543729e-05
-7.51353067916e-06
-8.08268780966e-07
2.72320238867e-05
-7.25091207237e-06
2.81863930922e-06
2.36865630165e-05
-6.67701837962e-06
4.35257454249e-06
1.78729934092e-05
-6.4964432809e-06
5.07848315878e-06
1.16916627715e-05
-6.88946912564e-06
5.67144132812e-06
5.79740637623e-06
-7.79087261246e-06
6.31428966343e-06
-3.13024139263e-07
-8.91044636903e-06
7.29513697378e-06
-6.82849361518e-06
-9.49886615622e-06
8.75626333964e-06
-1.38728241943e-05
-7.76502484612e-06
1.04942434694e-05
-2.1326195408e-05
-5.0051983409e-06
1.07602062725e-05
-2.54958479958e-05
-2.15617550669e-06
9.4618730948e-06
-2.48478816442e-05
2.32927551967e-07
7.15927543505e-06
-1.94822427948e-05
1.75254193638e-06
4.95958093167e-06
-1.11947735579e-05
1.98082761704e-06
4.02031178435e-06
-3.24558117448e-06
5.01564782462e-06
1.73286370915e-06
-4.81689834142e-07
-2.21704546083e-05
-2.64476054582e-06
-1.48273389365e-06
-2.18854557872e-05
-5.17382360433e-07
-2.6749345442e-06
-1.99338289714e-05
4.72911630519e-06
-3.63649870204e-06
-1.59657770414e-05
1.14688312341e-05
-4.27019221018e-06
-1.10281180437e-05
1.68123888468e-05
-4.34873072274e-06
-6.54392703678e-06
1.86416917738e-05
-3.91436444879e-06
-3.47164739078e-06
1.67609783116e-05
-3.41693605694e-06
-1.86223870764e-06
1.27675212057e-05
-3.22875387639e-06
-7.3023807274e-07
8.20680992703e-06
-3.46908252121e-06
3.34096255428e-07
3.70008787251e-06
-4.04069012363e-06
1.49176718611e-06
-9.47302318e-07
-4.68573246976e-06
2.87630433962e-06
-5.74139430863e-06
-4.900881917e-06
4.51815990949e-06
-1.08158455347e-05
-3.89173869122e-06
5.99750272134e-06
-1.55463487968e-05
-2.12674020391e-06
6.3888542866e-06
-1.79221491896e-05
-1.95202127522e-07
5.56200574834e-06
-1.66284424595e-05
1.43816080775e-06
4.13317740604e-06
-1.20348414935e-05
2.43739462033e-06
3.0594223795e-06
-5.88409371551e-06
2.40494835374e-06
3.23106928838e-06
-9.35941364173e-07
4.77630254066e-06
2.59936673561e-06
-9.03893473257e-08
-1.8338205732e-05
-3.74185372259e-06
-4.46837732806e-07
-1.83258204396e-05
-3.11971965772e-06
-9.48815377598e-07
-1.7619837906e-05
-1.03097423448e-06
-1.34698812505e-06
-1.57923281062e-05
2.87935650034e-06
-1.4589856203e-06
-1.29172637361e-05
6.77062466728e-06
-1.22266508957e-06
-9.91787178293e-06
8.73600186125e-06
-6.93333447865e-07
-7.55015554266e-06
8.21253901436e-06
-2.5839979292e-07
-5.95312541887e-06
6.12227432665e-06
-1.05221693762e-07
-4.61696228015e-06
3.6047878965e-06
-2.97484994073e-07
-3.28926438292e-06
1.09179298098e-06
-7.35269364203e-07
-1.90719102383e-06
-1.48215308931e-06
-1.19469940473e-06
-4.37436656323e-07
-4.14078167191e-06
-1.38056837662e-06
1.0737817553e-06
-6.87875670304e-06
-9.10470280785e-07
2.37567362704e-06
-9.3903938487e-06
5.2499529068e-08
2.91724929435e-06
-1.0294621418e-05
1.16284478986e-06
2.68465273703e-06
-8.84793422387e-06
2.15461189117e-06
2.23116821856e-06
-5.64404579826e-06
2.83870784268e-06
2.2634729824e-06
-2.32350081883e-06
2.73090680304e-06
3.04690884988e-06
-4.58500398142e-08
4.5418197571e-06
2.9653729897e-06
2.09659203977e-07
-1.40087265872e-05
-4.53912878884e-06
3.00045529942e-07
-1.40581432301e-05
-4.35805030534e-06
4.07113503535e-07
-1.37053895473e-05
-3.96656786969e-06
5.77184441045e-07
-1.29566548128e-05
-2.75714198018e-06
8.60293381933e-07
-1.16970218965e-05
-8.52122125472e-07
1.31460341581e-06
-1.00730799728e-05
6.25974616009e-07
1.86913837355e-06
-8.49304288071e-06
9.83615431624e-07
2.27965677981e-06
-7.14258733318e-06
5.13390895395e-07
2.42236220523e-06
-5.88943023753e-06
-1.68450900044e-07
2.2605526323e-06
-4.59919255124e-06
-8.59132166838e-07
1.89467913757e-06
-3.28937193651e-06
-1.615466772e-06
1.47176233287e-06
-1.95910064571e-06
-2.45158679879e-06
1.16257312669e-06
-6.68738194188e-07
-3.37710135029e-06
1.2069096918e-06
4.7580114983e-07
-4.23995605029e-06
1.5576281609e-06
1.22526891789e-06
-4.32024660994e-06
2.05324729796e-06
1.64099816762e-06
-3.38361746523e-06
2.62259235327e-06
1.99389924042e-06
-2.03234400213e-06
3.0756399682e-06
2.52504200027e-06
-1.02387273105e-06
2.90570171611e-06
3.16883892744e-06
4.79832568648e-08
4.31965735698e-06
3.12783026391e-06
4.41167132001e-07
-9.33698095575e-06
-5.11290338098e-06
8.59895321974e-07
-9.44200631699e-06
-5.03485291858e-06
1.28361940564e-06
-9.21400381011e-06
-4.91509368318e-06
1.81101771559e-06
-8.75292570541e-06
-4.72784601583e-06
2.39792842682e-06
-8.05433309298e-06
-4.22499386153e-06
3.02708848364e-06
-7.25782579152e-06
-3.48585826845e-06
3.62443330418e-06
-6.37538670293e-06
-2.90416979928e-06
4.07673489664e-06
-5.46798250392e-06
-2.50741045975e-06
4.23337751916e-06
-4.47727247461e-06
-2.14394508492e-06
4.17750796192e-06
-3.49804240911e-06
-1.81506415365e-06
3.86204817552e-06
-2.45787918599e-06
-1.48045333703e-06
3.43906813364e-06
-1.37330394648e-06
-1.3218720676e-06
3.02771313025e-06
-3.17157457141e-07
-1.29391514523e-06
2.79009243438e-06
6.80727549217e-07
-1.35825788753e-06
2.75361911527e-06
1.55363905429e-06
-1.30953660454e-06
2.87007441881e-06
2.22694033404e-06
-1.08411228009e-06
3.10307287512e-06
2.6144897911e-06
-8.88009133882e-07
3.26863874651e-06
2.97470157048e-06
-6.15250747916e-07
2.89240437725e-06
3.23408274372e-06
3.10935187275e-07
3.78344528303e-06
3.42855631011e-06
7.09036390675e-07
-4.59140885105e-06
-5.45460245583e-06
1.34723765821e-06
-4.67153752692e-06
-5.40866249576e-06
1.94895823089e-06
-4.5493993067e-06
-5.26631410727e-06
2.57636173497e-06
-4.31767071593e-06
-5.06264377538e-06
3.31093163627e-06
-4.01957910429e-06
-4.76930607384e-06
4.05474818974e-06
-3.64865241317e-06
-4.35296996883e-06
4.72000727392e-06
-3.19210756075e-06
-3.84851698514e-06
5.21485395498e-06
-2.7150552388e-06
-3.24775203538e-06
5.56558261847e-06
-2.22473033229e-06
-2.60324861982e-06
5.63733080875e-06
-1.6493191199e-06
-1.92044941298e-06
5.43332910486e-06
-9.61520450629e-07
-1.29233564605e-06
5.0725887566e-06
-2.41771090792e-07
-7.70772514695e-07
4.66096946656e-06
4.14166757032e-07
-3.19687141843e-07
4.33993331084e-06
1.09689916056e-06
-9.51211605967e-08
4.06833090985e-06
1.84790296721e-06
-2.2653508671e-08
3.85684605306e-06
2.42394450322e-06
1.44766159095e-08
3.66677823049e-06
2.68521341954e-06
1.19318913518e-07
3.46556180044e-06
2.76348709059e-06
4.1237464521e-07
2.7275194531e-06
2.61259094079e-06
1.35944289567e-06
2.54614793413e-06
3.96473401521e-06
1.04865750616e-06
-5.64006424551e-06
1.80546437295e-06
-5.42834164314e-06
2.44432747155e-06
-5.18825725705e-06
3.12941369491e-06
-5.00274868136e-06
3.87715775963e-06
-4.76731169227e-06
4.66232357077e-06
-4.43380371021e-06
5.48022911859e-06
-4.00999595116e-06
6.21340278106e-06
-3.44820972108e-06
6.7210251361e-06
-2.73233238617e-06
7.01616833793e-06
-1.9444421126e-06
7.13385069724e-06
-1.07918410914e-06
7.01278501624e-06
-1.20689603997e-07
6.71380810399e-06
7.13155352067e-07
6.30840691751e-06
1.50230650076e-06
5.83895869322e-06
2.31734926676e-06
5.37350616256e-06
2.88938222548e-06
4.78824637147e-06
3.27043859401e-06
3.99026394734e-06
3.56140822327e-06
2.56341660805e-06
4.03935499556e-06
5.10950288716e-06
-3.89102076621e-06
-4.00521096392e-06
1.53199275067e-05
-7.90615624741e-06
-3.81639817041e-06
1.52033013591e-05
-1.18687891645e-05
-3.58059010903e-06
1.46253546072e-05
-1.54666579211e-05
-3.37726042804e-06
1.36791795163e-05
-1.85251526516e-05
-2.88199464031e-06
1.26724315628e-05
-2.10234319121e-05
-1.93702620152e-06
1.15786594935e-05
-2.30222928029e-05
-1.1214063217e-06
1.02502880413e-05
-2.44433348813e-05
-7.98959641883e-07
8.62984434396e-06
-2.51456590024e-05
-7.7631024758e-07
6.92160963027e-06
-2.51421036118e-05
-6.73748377312e-07
5.16279879789e-06
-2.45232228061e-05
-4.89717784146e-07
3.27638368542e-06
-2.33300617148e-05
-2.42699033203e-07
1.42852305184e-06
-2.16558293333e-05
5.00898305591e-08
-3.26760037643e-07
-1.95574486685e-05
2.47828586125e-07
-2.00657171049e-06
-1.70192356497e-05
-6.24001694982e-08
-3.26671337511e-06
-1.39655188496e-05
-7.56310957616e-07
-4.02843964498e-06
-1.04743407131e-05
-1.19574977243e-06
-4.53213970434e-06
-6.81234542322e-06
-1.13723214401e-06
-4.98892786657e-06
-3.25192555789e-06
-8.97025708072e-07
-5.23464211837e-06
-5.88375779027e-07
-5.2340568226e-06
-4.12746014332e-06
-7.69520317491e-06
1.49959505101e-05
-8.19881548308e-06
-7.58978284446e-06
1.59086267301e-05
-1.20178435355e-05
-7.00930231044e-06
1.56832824559e-05
-1.53030079482e-05
-5.48053443905e-06
1.52673404816e-05
-1.8158601288e-05
-2.83053212839e-06
1.50514905148e-05
-2.06171771812e-05
-4.74651134644e-08
1.46055956965e-05
-2.26297373422e-05
1.88111219524e-06
1.32860314118e-05
-2.40179184e-05
2.55331740749e-06
1.10481943937e-05
-2.47128790892e-05
2.63338774546e-06
8.47253340336e-06
-2.47280482636e-05
2.85766871831e-06
5.79623764534e-06
-2.41075487781e-05
3.22309274341e-06
3.01778459356e-06
-2.29082619555e-05
3.71089008477e-06
2.23075882125e-07
-2.12433575232e-05
4.2965437864e-06
-2.52524981011e-06
-1.91721699256e-05
4.7138969297e-06
-5.09303923971e-06
-1.66981747883e-05
4.00110295847e-06
-6.81549223457e-06
-1.38406295769e-05
2.0734848659e-06
-7.16814222612e-06
-1.06334475409e-05
-1.65622175858e-07
-6.63123207619e-06
-7.08457565641e-06
-1.5043362924e-06
-6.14803447062e-06
-3.4805349294e-06
-1.55606100918e-06
-5.9500626619e-06
-1.19308194352e-06
-5.42169654313e-06
-4.00057752408e-06
-1.13081366156e-05
1.451342685e-05
-7.96598782955e-06
-1.09613449433e-05
1.59052244502e-05
-1.15916886071e-05
-8.96451047725e-06
1.66807294953e-05
-1.49228147821e-05
-4.95187570517e-06
1.81014557463e-05
-1.79709828067e-05
2.67915730949e-08
1.95883041741e-05
-2.06239333571e-05
4.57850026161e-06
1.97225216994e-05
-2.27265263967e-05
7.52421495232e-06
1.79218350296e-05
-2.40733449479e-05
8.47341247681e-06
1.44181716392e-05
-2.4724706789e-05
8.63434580191e-06
1.03569630096e-05
-2.46995966031e-05
9.007399696e-06
6.17380748873e-06
-2.4033730847e-05
9.57081537697e-06
1.90368054192e-06
-2.27990161828e-05
1.03244684548e-05
-2.41904019785e-06
-2.11257275077e-05
1.12089262459e-05
-6.75497417209e-06
-1.9072831512e-05
1.18819571617e-05
-1.07449060886e-05
-1.6518343905e-05
1.08453029936e-05
-1.34586926416e-05
-1.35760742484e-05
7.82165036343e-06
-1.36398898534e-05
-1.03444082211e-05
3.75512479431e-06
-1.14853943166e-05
-6.94943728416e-06
1.23415647375e-07
-8.55260584471e-06
-3.44255319799e-06
-1.61518592472e-06
-6.63330561034e-06
-1.66309656951e-06
-5.46911378916e-06
-3.83605581903e-06
-1.47061858675e-05
1.39819037936e-05
-7.63013751583e-06
-1.34141551668e-05
1.62289854655e-05
-1.13838119851e-05
-9.24255905436e-06
1.93026586017e-05
-1.50028357732e-05
-2.9188917997e-06
2.32166184792e-05
-1.84106698755e-05
4.03647871679e-06
2.59788863071e-05
-2.14401305604e-05
9.98454252441e-06
2.61179822821e-05
-2.37332998071e-05
1.36447535881e-05
2.33362706769e-05
-2.49767901458e-05
1.46258151552e-05
1.80902852636e-05
-2.55368722481e-05
1.49902321026e-05
1.21346996662e-05
-2.54064067381e-05
1.55818173518e-05
6.05798543544e-06
-2.46132230728e-05
1.63807521418e-05
-7.76206452208e-08
-2.32780904569e-05
1.7427813819e-05
-6.27421292883e-06
-2.15388805357e-05
1.862911264e-05
-1.24388167739e-05
-1.94453449732e-05
1.95942040887e-05
-1.79123862492e-05
-1.66949321139e-05
1.84119058356e-05
-2.19165837182e-05
-1.35295624783e-05
1.46724652144e-05
-2.23602419213e-05
-1.01178025583e-05
9.15582349695e-06
-1.90662702255e-05
-6.65633916669e-06
3.49441256987e-06
-1.34506339603e-05
-3.28152941539e-06
-4.33178198886e-07
-8.44117525036e-06
-1.72074822272e-06
-5.88256796805e-06
-3.64226731882e-06
-1.75960376373e-05
1.37000237261e-05
-7.45123523817e-06
-1.50818225567e-05
1.7601193905e-05
-1.14677096081e-05
-9.01055496826e-06
2.35005264888e-05
-1.5536831126e-05
-8.95743859862e-07
2.93932780527e-05
-1.95002693364e-05
7.46295426523e-06
3.28473208889e-05
-2.29836410503e-05
1.42596121991e-05
3.24754070309e-05
-2.55802472429e-05
1.81537493901e-05
2.83339902508e-05
-2.65210025971e-05
1.870657424e-05
2.09340855884e-05
-2.68791130976e-05
1.95517195793e-05
1.28342761237e-05
-2.65341307219e-05
2.05194150677e-05
4.71778434968e-06
-2.5499198284e-05
2.16850735536e-05
-3.40842536788e-06
-2.3878284072e-05
2.30697262525e-05
-1.13661057945e-05
-2.18927740786e-05
2.46322892264e-05
-1.8988704864e-05
-1.98583241188e-05
2.5998970921e-05
-2.52704664171e-05
-1.69429789366e-05
2.48782627527e-05
-3.04511708344e-05
-1.35499192614e-05
2.09406173833e-05
-3.13196359675e-05
-9.91087976935e-06
1.45209225403e-05
-2.7344075711e-05
-6.31895534268e-06
7.38485467561e-06
-1.96331820198e-05
-3.01666512196e-06
1.64876267329e-06
-1.14472037974e-05
-1.04805603411e-06
-6.58553856384e-06
-3.45349219216e-06
-2.02914789549e-05
1.37497988522e-05
-7.34981312085e-06
-1.67507457324e-05
1.95562141604e-05
-1.16868845068e-05
-9.41335165571e-06
2.77578969295e-05
-1.62528454306e-05
-1.27990838021e-07
3.50617552091e-05
-2.06537676608e-05
9.01267903342e-06
3.87897426501e-05
-2.44443789486e-05
1.59235396158e-05
3.77717554349e-05
-2.73059479138e-05
1.92830820475e-05
3.27693609038e-05
-2.74042653462e-05
1.82403222767e-05
2.39471933505e-05
-2.72740854638e-05
2.01951537985e-05
1.43523655443e-05
-2.65675336178e-05
2.20241261831e-05
4.55719256035e-06
-2.53704088426e-05
2.42423713394e-05
-5.54120994759e-06
-2.41576417796e-05
2.68501474861e-05
-1.52978076125e-05
-2.29324554963e-05
2.93007161546e-05
-2.44235170928e-05
-2.03887055821e-05
2.91375582319e-05
-3.07209537564e-05
-1.70610715028e-05
2.87211840039e-05
-3.72826552258e-05
-1.34240915953e-05
2.52972938364e-05
-3.8593054412e-05
-9.58983240043e-06
1.86248702092e-05
-3.42753622246e-05
-5.93118404227e-06
1.06782591478e-05
-2.51359497176e-05
-2.72775535665e-06
3.83623735939e-06
-1.46199591838e-05
1.12719870145e-07
-7.59930267359e-06
-3.29270479943e-06
-2.29452752537e-05
1.35362845305e-05
-7.22776266961e-06
-1.89538285929e-05
2.08118975653e-05
-1.1857468466e-05
-1.10015390645e-05
3.04924903351e-05
-1.69539820494e-05
-9.75994863755e-07
3.86282966092e-05
-2.20215368512e-05
8.88493243413e-06
4.20127431331e-05
-2.6555308008e-05
1.64994059793e-05
3.93486047865e-05
-3.04281835201e-05
2.07486340439e-05
3.20548637487e-05
-2.88865227761e-05
1.99435136748e-05
1.56155532745e-05
-2.80312517908e-05
2.50743362684e-05
3.10221045684e-06
-2.67260040527e-05
2.79595736638e-05
-9.43747067702e-06
-2.47993718176e-05
3.05145973298e-05
-2.13057369858e-05
-2.2056739565e-05
3.29562937639e-05
-3.21310762082e-05
-1.90375948795e-05
3.57485684054e-05
-4.0333044483e-05
-1.79144163927e-05
3.23781819396e-05
-3.67781969411e-05
-1.56597693159e-05
3.20050204625e-05
-4.27637305124e-05
-1.25639462229e-05
2.81647941096e-05
-4.32938844578e-05
-8.92445372738e-06
2.10641661522e-05
-3.84735785342e-05
-5.37959493642e-06
1.27113922934e-05
-2.83688745071e-05
-2.38502592408e-06
5.46181744255e-06
-1.64840566928e-05
1.39216313706e-06
-8.10706896845e-06
-3.02512895326e-06
-2.5482784602e-05
1.26705431624e-05