/*--------------------------------*- C++ -*----------------------------------*\
| =========                 |                                                 |
| \\      /  F ield         | OpenFOAM: The Open Source CFD Toolbox           |
|  \\    /   O peration     | Version:  v1606+                                |
|   \\  /    A nd           | Web:      www.OpenFOAM.com                      |
|    \\/     M anipulation  |                                                 |
\*---------------------------------------------------------------------------*/
FoamFile
{
    version     2.0;
    format      ascii;
    class       volVectorField;
    location    "2.8";
    object      U_0;
}
// * * * * * * * * * * * * * * * * * * * * * * * * * * * * * * * * * * * * * //

dimensions      [0 1 -1 0 0 0 0];

internalField   nonuniform List<vector> 
11640
(
(-0.00137306727606 -0.00143474257802 0.00199196474467)
(-0.00424335434346 -0.00136027498258 0.0019899745699)
(-0.00716992875364 -0.00126295236254 0.00191767722001)
(-0.00994163635801 -0.00121033560219 0.0017817264281)
(-0.0124038798096 -0.00117125630844 0.00162518050843)
(-0.0144905234232 -0.0011420342799 0.00143703173254)
(-0.0161999059076 -0.00107679827317 0.00123599591748)
(-0.0174594451049 -0.000991905794276 0.00101985837357)
(-0.0181945554592 -0.000951194451559 0.000818077271742)
(-0.0184459915301 -0.000900990411386 0.000644185351215)
(-0.0182347415127 -0.000782996421353 0.000385376355897)
(-0.0175618695227 -0.000675968388233 0.000155949245333)
(-0.0165289135989 -0.00056216724211 -5.84224362496e-05)
(-0.0151369087449 -0.000459851330513 -0.000263806329024)
(-0.0133850080608 -0.000416981104394 -0.000457500946549)
(-0.0112749886552 -0.00040567888735 -0.000592325693835)
(-0.00885763255105 -0.000399193502624 -0.000686502332752)
(-0.00625540945618 -0.000361503354553 -0.000739670231297)
(-0.00366087773056 -0.00027589142019 -0.000757413442468)
(-0.00114620394174 -0.000129814661895 -0.000760968408704)
(-0.00138257387351 -0.00421251021359 0.00192425977127)
(-0.00424978044813 -0.00405417844255 0.00225431629371)
(-0.00721394161332 -0.00390316657936 0.00223629398512)
(-0.0100272476614 -0.00379876212479 0.00207379377098)
(-0.0124658289537 -0.00366695247467 0.00182356913254)
(-0.0145425662469 -0.00345474855171 0.00157283390402)
(-0.0162536241253 -0.00325425164338 0.00133028811356)
(-0.0175378094879 -0.0030621066635 0.00111652750449)
(-0.0182930273514 -0.00295174132065 0.000911928498706)
(-0.0185623066186 -0.00276573800003 0.000698745126243)
(-0.018332159197 -0.00247514738227 0.000441444635091)
(-0.0176445533546 -0.00215258908176 0.000181350936766)
(-0.0165664947403 -0.00180715969897 -6.66647937005e-05)
(-0.015144037106 -0.00147061693283 -0.000320828114995)
(-0.0133725450675 -0.00124661184578 -0.000556291456949)
(-0.0112645087179 -0.00110606557542 -0.000737853765971)
(-0.00887935186024 -0.00101969151165 -0.000857841780077)
(-0.0063041349113 -0.000887687480194 -0.000917138978241)
(-0.00369897889074 -0.000669264176069 -0.000904504613579)
(-0.00119056526159 -0.000378341075797 -0.000763034723461)
(-0.00129090535072 -0.00684551794538 0.00186488578931)
(-0.00415126897337 -0.00672618848275 0.00226882496449)
(-0.00713402100638 -0.00657605967426 0.00221153939698)
(-0.00992471879614 -0.006349404052 0.00190597013981)
(-0.0123292627293 -0.00593301971987 0.00154347454906)
(-0.0144080240655 -0.00542550956993 0.00122722967)
(-0.0161244333037 -0.00505337889893 0.00101216651301)
(-0.0174153207383 -0.00474118735315 0.000843834269613)
(-0.0181859872704 -0.00455925932625 0.000684943056649)
(-0.0184089585697 -0.0042565213345 0.000509958447244)
(-0.0181048662172 -0.00383907390776 0.000306075273299)
(-0.0173653531281 -0.00332202524416 7.53008589932e-05)
(-0.0162451111437 -0.00275409877568 -0.00015653543237)
(-0.0148291393372 -0.00217704717158 -0.000409882309372)
(-0.0130872004355 -0.00177318831762 -0.000663372708917)
(-0.0110112487007 -0.00149494984012 -0.000852289650244)
(-0.00866905957317 -0.00131991941064 -0.000964845867862)
(-0.00615535999095 -0.00114836936401 -0.0009980249583)
(-0.00362490272617 -0.00092904206989 -0.000954551278155)
(-0.00119131667986 -0.000628879953314 -0.000738855345517)
(-0.00122774138871 -0.00942667372025 0.00179252991321)
(-0.00409731957396 -0.00939057821606 0.00215702811037)
(-0.0070426321494 -0.00915973439497 0.00196679945455)
(-0.00974727299361 -0.0086304071628 0.00155002110109)
(-0.0120956979798 -0.00775093895031 0.00107915092773)
(-0.0142190756127 -0.00682729268464 0.000693957071075)
(-0.0159637806884 -0.00622906214529 0.0005082830378)
(-0.0172408545688 -0.00589333653019 0.000375866878758)
(-0.017977257847 -0.00575325975807 0.000267484608346)
(-0.0180982635842 -0.00547357389544 0.000134837107658)
(-0.0176741901575 -0.00500109562038 -1.93927998074e-05)
(-0.0168250854103 -0.00434092167552 -0.000221749637879)
(-0.0156218682041 -0.00355999299016 -0.000423619991921)
(-0.0142309234877 -0.00270335728749 -0.000604737666135)
(-0.0125561344753 -0.00213033379604 -0.000839221043127)
(-0.0105392808921 -0.00170727788023 -0.00100480976496)
(-0.00826670194399 -0.0014473563694 -0.00108983785877)
(-0.0058450596732 -0.00126986118307 -0.00108588424642)
(-0.00344905990637 -0.00107198891123 -0.000956819785737)
(-0.00113417670108 -0.000847634751266 -0.000752293413869)
(-0.00122065083337 -0.0118889527675 0.00170751276659)
(-0.00408859952672 -0.0117737540607 0.00195997165034)
(-0.00690381740093 -0.0113155409984 0.00165857415731)
(-0.009557610138 -0.0102526992109 0.00110216681316)
(-0.0119534204083 -0.00868616860752 0.000541324768724)
(-0.0141544814859 -0.007203762509 0.00018329997888)
(-0.0159252139095 -0.00637895675167 1.58390074552e-06)
(-0.0171917309267 -0.0060546176242 -0.000165739734226)
(-0.0177781037407 -0.00589003599672 -0.000326627974059)
(-0.0176370954734 -0.00557421226069 -0.000499022124738)
(-0.0169743310183 -0.00491336117163 -0.000677223097125)
(-0.0159603828653 -0.00399710538933 -0.000817670220087)
(-0.0146216252216 -0.00315305848072 -0.000887810702252)
(-0.0132877925336 -0.00252659566831 -0.000878096955456)
(-0.0117445192251 -0.00200472260781 -0.00103950399307)
(-0.00981599984006 -0.00154792153639 -0.00113324599694)
(-0.00767989362262 -0.00129130616328 -0.00118222995955)
(-0.00536896783519 -0.0011300573221 -0.00110778689056)
(-0.00312561999297 -0.000980291844312 -0.000977144458568)
(-0.00106662387335 -0.000851965958264 -0.000751592988726)
(-0.00122598598998 -0.0140729273678 0.00157819013192)
(-0.0039872395066 -0.0138358089649 0.00171841531805)
(-0.00672641823806 -0.0130205562803 0.00132223343397)
(-0.00939783816309 -0.0113243623381 0.00069470684532)
(-0.0118916483029 -0.00897099275664 0.000191722229545)
(-0.0142088329129 -0.00696982018274 -9.73987982251e-05)
(-0.0159812715682 -0.0060605003888 -0.000280496490458)
(-0.0171145714523 -0.00603396310346 -0.000473336553294)
(-0.0171713775854 -0.0059753287571 -0.000616538197174)
(-0.0166081680795 -0.00615547308271 -0.000777022583127)
(-0.0156345115255 -0.00594298599511 -0.000995215360831)
(-0.0146530364613 -0.00525396950288 -0.00113995887279)
(-0.0136902385036 -0.00412031492121 -0.00118481329771)
(-0.0126076341483 -0.00272911270177 -0.00110405313209)
(-0.0109315003089 -0.00185182268754 -0.00127579885298)
(-0.0089975291167 -0.00118378707859 -0.00127087415338)
(-0.00697873720688 -0.000909125384276 -0.00123310237888)
(-0.00480752220849 -0.000786540971491 -0.00112514484143)
(-0.00276923446978 -0.000726783598538 -0.000956673627003)
(-0.000917307684429 -0.000666026498512 -0.000713853107832)
(-0.00121147551887 -0.0159883635914 0.00144061951313)
(-0.00380587872632 -0.015641121658 0.00152997004786)
(-0.00649290883595 -0.0144630612583 0.00111386558352)
(-0.00917726698944 -0.0121180989746 0.000529589815757)
(-0.0116695006547 -0.0090028687903 8.67704816655e-05)
(-0.014198543517 -0.00650185036853 -0.000134385823515)
(-0.0162578787541 -0.00512065141073 -0.00011620357655)
(-0.0175580561699 -0.00540417869222 -0.000774399525791)
(-0.0169744104164 -0.00389998988353 -0.00144630307848)
(-0.0162733291377 -0.00270997032616 -0.00239022034087)
(-0.0149150904839 -0.000727901394608 -0.00302599938935)
(-0.0133540169806 0.00135905997213 -0.00333218856086)
(-0.0115901642931 0.00253249240206 -0.0029775034615)
(-0.0105681863122 9.41173865951e-05 -0.00174452795478)
(-0.00944925160626 -9.20249839279e-05 -0.00165551882072)
(-0.00783731582109 -0.000118714540073 -0.00139125502914)
(-0.00614597403839 -0.000171112893792 -0.00127003068393)
(-0.00418286928674 -0.000249012004592 -0.00111031391106)
(-0.00237453603546 -0.000300055396152 -0.00091950864829)
(-0.00076368298027 -0.000278358976604 -0.000660310859707)
(-0.00109600597546 -0.0177168979709 0.00128939358709)
(-0.00349083967116 -0.0172854900587 0.00137208785285)
(-0.00602097994866 -0.0158366001537 0.00102321051725)
(-0.0086153970664 -0.0130053377112 0.000569013558274)
(-0.0110182417478 -0.00935284763148 0.00019362241022)
(-0.0134330628731 -0.00645864417977 -1.60403556217e-05)
(-0.0151778273163 -0.00468050647687 0.000904824052388)
(-0.0154532200375 -0.00429111523382 0.000307763395402)
(-0.0120856336556 -0.00155114398738 -0.000232667927751)
(-0.0102345528063 0.000707076168004 -0.00121238267548)
(-0.00885675197137 0.00283734848767 -0.00100532779287)
(-0.0103321372105 0.00487163348822 5.86395024456e-05)
(-0.0150322480147 0.00503422511276 0.00111291867088)
(-0.0159930063908 0.00189018209062 -0.00187088821396)
(-0.0106963087947 0.000971853185353 -0.00176787710378)
(-0.00799970852987 0.000652805536255 -0.00140292507469)
(-0.00580964355712 0.000437606610953 -0.00124253236391)
(-0.00374003801622 0.000245619759146 -0.00104766169514)
(-0.00204579563644 0.000141823155765 -0.000835873613979)
(-0.000626124116947 0.000204334268914 -0.000587573391407)
(-0.000961716631125 -0.0191734987701 0.00108962514423)
(-0.00310922790924 -0.0186966329963 0.00119813370716)
(-0.00545906213308 -0.0170971731484 0.000944403668878)
(-0.00790411941822 -0.0139863492371 0.000616978653445)
(-0.010161807093 -0.00998121207115 0.000368691126817)
(-0.0124609710983 -0.00696633851181 0.000236149964563)
(-0.0140178958185 -0.00533254882734 0.00144274011776)
(-0.0137810839212 -0.004693216742 0.00141326698931)
(-0.0102534497576 -0.0034408119008 0.000943763620818)
(-0.00927333685445 -0.00223597286049 -0.00026294288491)
(-0.00851279376426 -0.00132761800442 -0.000453470397479)
(-0.00971254341798 -0.000163809507571 0.000386985244959)
(-0.0139575434602 0.000627212023825 0.00127711892369)
(-0.0148630068219 0.000619210354934 -0.00187110746656)
(-0.00953733362872 0.000661984825034 -0.00180275240159)
(-0.00707595044418 0.000836226620753 -0.00132010026633)
(-0.00503883978667 0.000776535441508 -0.00116179239303)
(-0.00312962211066 0.000625691855637 -0.000938256126715)
(-0.00162521556084 0.000556271293311 -0.000714368585715)
(-0.000445797112307 0.000676106888389 -0.000482006611769)
(-0.000832723180136 -0.0202616812617 0.000861529044546)
(-0.00273571328033 -0.0197577727915 0.000979911426879)
(-0.00485182816977 -0.0180966051816 0.000809166981672)
(-0.00706847156049 -0.0148348195675 0.000600782689254)
(-0.00918029561395 -0.0107058826877 0.000450113813681)
(-0.0112033426506 -0.0076351916939 0.000413442070422)
(-0.0125216763794 -0.00613817960588 0.00163949686402)
(-0.012005256197 -0.00543846637878 0.00201739484513)
(-0.00835680528029 -0.00435625773451 0.00143737627555)
(-0.00735328154483 -0.00227648463569 0.000167516474453)
(-0.00664056210007 -0.000490732616723 -0.000252120612186)
(-0.00856332624932 0.000941277661695 0.000272577357624)
(-0.0135122036927 0.00148664510791 0.00109184434079)
(-0.0144228493325 0.00154247802231 -0.0021213960787)
(-0.00887075757566 0.00123021366817 -0.00187236286821)
(-0.00631399813736 0.00121108358313 -0.00129428835943)
(-0.0043187643461 0.00110507474333 -0.00106079201592)
(-0.0025013545207 0.000935703178945 -0.00080866781192)
(-0.00118878255098 0.000891327855608 -0.00059145050347)
(-0.000273957281394 0.00110021258565 -0.000320435680556)
(-0.000708064806794 -0.0208210064861 0.000577973642588)
(-0.0023704701857 -0.0203486913319 0.000732211662337)
(-0.00422737381337 -0.0186961474817 0.000651797479114)
(-0.00616994641009 -0.0154609859367 0.000547140358268)
(-0.00798034497938 -0.0113160577707 0.00048715591174)
(-0.00972285408655 -0.00813107035125 0.000351056573391)
(-0.0108048272612 -0.00616859599512 0.0011800639229)
(-0.0102567156482 -0.00459244460651 0.000979039385458)
(-0.00696759723454 -0.00416367470067 0.000153243981676)
(-0.0060068364823 -0.00254399535992 -0.000475064527563)
(-0.00569636244782 -0.00117557636379 -0.000431218685468)
(-0.00789060181005 -0.000453485756641 0.000284128782368)
(-0.0118668110054 -1.15896040104e-05 0.000991835662513)
(-0.0125577315241 0.00160442326864 -0.00183120387051)
(-0.00787178278475 0.0015404118465 -0.00168840328204)
(-0.00548669216083 0.0013917097721 -0.00114306110512)
(-0.00357215406934 0.00123117355176 -0.00092781796124)
(-0.00188229294416 0.00103724466709 -0.00068176412707)
(-0.00071146322734 0.00105519729801 -0.000444818236149)
(-1.98692643249e-05 0.00140320685294 -0.000133531416449)
(-0.000574380040241 -0.0207468326881 0.000251663305141)
(-0.00201017453515 -0.0203551920278 0.000469160693225)
(-0.00361538686742 -0.0188484918465 0.00052101216445)
(-0.00523098057645 -0.0158731496305 0.00056749706578)
(-0.00666696086685 -0.0120075925459 0.00059015133695)
(-0.00754468135599 -0.00878617354921 0.00038077979865)
(-0.00739166622964 -0.00644105225568 0.000516539171735)
(-0.00695046519109 -0.0042704120723 0.000882785074766)
(-0.00622660977568 -0.0037906648624 0.000653370839259)
(-0.00605362237947 -0.00292830900337 0.000905417021558)
(-0.00655897864908 -0.00243571117615 0.001479308249)
(-0.00838348514988 -0.00238825454147 0.00173659208524)
(-0.0105726849434 -0.00192098895732 0.00157123853402)
(-0.0105650638699 0.000461795324466 -0.000393959438458)
(-0.00728816708424 0.000903264444964 -0.00085520079695)
(-0.00495225831272 0.000992125602247 -0.000780454342543)
(-0.00295005519142 0.00093225763975 -0.000688335031359)
(-0.00127748090107 0.00084664600552 -0.000514931921711)
(-0.000212992867981 0.000993955763161 -0.000298928330253)
(0.000233714326295 0.00154370280364 7.83081637751e-05)
(-0.000443344087436 -0.0200202931171 -5.43328251559e-05)
(-0.00164631989698 -0.0197524768045 0.000201607881941)
(-0.00298493483532 -0.0185552805572 0.000358581876268)
(-0.00429619792187 -0.0161502014647 0.000522516651207)
(-0.00535116362854 -0.012895707583 0.000709963562192)
(-0.00602401782331 -0.00985254008079 0.00067445339802)
(-0.00615451711874 -0.00794271235793 0.000514799826723)
(-0.00585959573788 -0.0070250593884 0.000176765148522)
(-0.00536005683886 -0.00647476885517 5.40774046486e-05)
(-0.0052399801067 -0.00602894837167 0.000463217517501)
(-0.00566151992466 -0.00565468020742 0.000803813813126)
(-0.00656653434817 -0.00504843600813 0.00088836471835)
(-0.00751439083843 -0.00387052046519 0.000686631748548)
(-0.00728370835264 -0.00158227197944 -0.000180750695934)
(-0.00548759579764 -0.000471105378478 -0.000567806622583)
(-0.0037175846367 6.30943999353e-05 -0.000584522277068)
(-0.00203607585718 0.000277167345487 -0.000535978580996)
(-0.000595394561881 0.000400692816118 -0.00041831061463)
(0.000310394726641 0.000755833082758 -0.000174729898118)
(0.000520991537767 0.00158142248119 0.000306271392047)
(-0.000286263385829 -0.0186658911496 -0.000381391849496)
(-0.00120760961059 -0.0185199981057 -0.000136460303905)
(-0.00224314943889 -0.0176773411258 5.63710256947e-05)
(-0.00321783626464 -0.0159434323882 0.000261277598475)
(-0.00390616570978 -0.0134884236103 0.000495853556748)
(-0.00418866932153 -0.0109583632283 0.000619232983337)
(-0.00405780458352 -0.0089269079855 0.000640309843625)
(-0.00371360197644 -0.00752567432762 0.000713473227709)
(-0.00351958433541 -0.00660167805151 0.000810355410687)
(-0.00363971900675 -0.00596077419818 0.000946602308403)
(-0.00414908964916 -0.00542299226033 0.00097182276574)
(-0.0048457641667 -0.00467599406765 0.000840751975149)
(-0.00540371258542 -0.00359795801637 0.000532130665981)
(-0.00511743816767 -0.00215144941519 -9.38352803163e-07)
(-0.00387842957415 -0.00118672989484 -0.000319290634774)
(-0.0025118516595 -0.000633648550412 -0.000443337037161)
(-0.00116495871952 -0.000310979544334 -0.00045998735046)
(2.34928373313e-05 -3.31544736359e-05 -0.000389124865621)
(0.000779614588612 0.000488001556737 -0.000136933222567)
(0.00075123201772 0.00148604871089 0.000446672434303)
(-0.000135711130327 -0.0167248219725 -0.000689519283049)
(-0.000721099176859 -0.0166530062153 -0.000521448294717)
(-0.00140624729652 -0.0160958674304 -0.000347192007131)
(-0.0020348193151 -0.0149371870066 -0.000155005976672)
(-0.00241637812852 -0.0132324239358 8.01583632446e-05)
(-0.00247680370105 -0.0113703823702 0.000256965138449)
(-0.00228125099253 -0.00975682303689 0.000371969729696)
(-0.0020545487095 -0.00856423173026 0.000484878785727)
(-0.00200160530345 -0.00760499504474 0.000543432766059)
(-0.00218426482816 -0.00678726232831 0.000585229497915)
(-0.00260410842406 -0.00595598649943 0.000534635846551)
(-0.00311160019784 -0.00495860994898 0.000414880832158)
(-0.00345736315621 -0.00381935039416 0.000239566484097)
(-0.00328758934138 -0.00253555063167 -6.72211764845e-05)
(-0.00253500325705 -0.0016135497981 -0.000297585464532)
(-0.00155809368211 -0.00105364116181 -0.000432746649887)
(-0.000517246914551 -0.00068164009438 -0.000513772457293)
(0.00042734213751 -0.000298993997146 -0.000476320113595)
(0.00106651089176 0.000294615645497 -0.000230026465184)
(0.000996990083203 0.00133859785844 0.000532360278401)
(-5.01258273707e-06 -0.0142877265744 -0.000935602622044)
(-0.000291562210585 -0.0142444155004 -0.000846052963811)
(-0.000617118644579 -0.013858691788 -0.000751672586879)
(-0.000904240754328 -0.0131065108009 -0.0006230069909)
(-0.00104104118004 -0.0119696236789 -0.000433505789301)
(-0.000971456723543 -0.010650832871 -0.000271067999195)
(-0.000753699651135 -0.00938234164291 -0.000150958111673)
(-0.000600518132335 -0.00829790662415 -4.89674374342e-05)
(-0.000642024208405 -0.00731872533385 1.92320558428e-05)
(-0.000862215457167 -0.00639572502805 6.57073482905e-05)
(-0.00123848470245 -0.00546920486723 6.60741873576e-05)
(-0.00165683402213 -0.00448113335638 8.98617095285e-06)
(-0.00195051569401 -0.00345112238928 -8.6887281537e-05)
(-0.00191901751927 -0.00242497612904 -0.000273661316814)
(-0.00149194564926 -0.00162429695585 -0.000436515336265)
(-0.000847541065872 -0.00107502088268 -0.000564231224792)
(-9.22174053237e-05 -0.000683758107869 -0.000658178806368)
(0.000662477196549 -0.000276647317049 -0.000660274107098)
(0.00125489404639 0.000313022139827 -0.000410742683912)
(0.00118655008574 0.0013236987369 0.000609561715956)
(8.41327177384e-05 -0.0114328787761 -0.00114006958606)
(4.36176551962e-05 -0.0114330760253 -0.00108123951573)
(-4.79892495306e-06 -0.011144890841 -0.00104320111958)
(-9.75693638213e-06 -0.0106149921577 -0.000984971682218)
(7.14596833141e-05 -0.00984941155499 -0.000855620485712)
(0.000223344495335 -0.00892335095696 -0.000715785684123)
(0.00041878058236 -0.00796185283943 -0.000587417102849)
(0.000541689763023 -0.0070476830751 -0.00046552812561)
(0.000516437477837 -0.00616032229745 -0.000355477314828)
(0.000310623886076 -0.00527092645344 -0.000277723878023)
(-4.55247627028e-05 -0.00438389096217 -0.000238980901267)
(-0.00043220595957 -0.00349339508449 -0.000251572292938)
(-0.000745930077349 -0.00261714162134 -0.000299212944797)
(-0.000858333803901 -0.00178883861626 -0.000422796185329)
(-0.000683976668843 -0.00111616599884 -0.000568399919547)
(-0.000303732623941 -0.00063603312348 -0.000706369211252)
(0.000228273425367 -0.000281691840281 -0.000814145514965)
(0.000836018064828 8.56146107802e-05 -0.000830573816646)
(0.00138032331489 0.000578851865481 -0.000550968588495)
(0.00125443711728 0.00142999213743 0.000622377885036)
(0.000138652306883 -0.00827354265574 -0.00127081874577)
(0.000303740926385 -0.00832348974444 -0.00122370611726)
(0.000463508443634 -0.00813458671897 -0.00120764733307)
(0.00063482967281 -0.00775295664123 -0.00117223581825)
(0.000853592837264 -0.00720757196636 -0.00108438673156)
(0.00109239819569 -0.00658046947195 -0.000966114782535)
(0.00131601058356 -0.00588753915875 -0.000829823454905)
(0.00144340020253 -0.00518890719662 -0.000689451527393)
(0.00144223151415 -0.0044668826086 -0.0005527589942)
(0.00129845815377 -0.00375349881011 -0.000443739867446)
(0.000996053054012 -0.0030134187372 -0.00036771714662)
(0.000631010945514 -0.00226104987235 -0.000351884838408)
(0.000297844854337 -0.00153951840381 -0.00038381266397)
(8.87748782274e-05 -0.000869930054379 -0.000481464559068)
(8.39252749138e-05 -0.000306866824073 -0.000615329885732)
(0.000255027075532 0.000117616107114 -0.000749366000705)
(0.000596330336853 0.000432120295402 -0.000839714509792)
(0.00103440026373 0.000695991797185 -0.000834752980703)
(0.00142915811322 0.000985261250697 -0.000530739721926)
(0.0011929801119 0.00152963780079 0.000637553906311)
(0.000219188446573 -0.00502941144612 -0.00133435037578)
(0.00054824279589 -0.00509444924085 -0.00130694633301)
(0.000833941439931 -0.00501389804015 -0.00128240770087)
(0.00110394003804 -0.00482273434188 -0.00123950941792)
(0.00138218088076 -0.00451413864527 -0.00116351355138)
(0.00167081893369 -0.00414478532771 -0.00105300863055)
(0.00194829752452 -0.00373254264983 -0.000926411986411)
(0.00213714707012 -0.00329686082796 -0.000774974593509)
(0.00220380552531 -0.00281881418978 -0.000625816928362)
(0.00212497719661 -0.00232403202375 -0.000488024314637)
(0.00191888923146 -0.00177024725851 -0.000380302135127)
(0.00162689592178 -0.00117333140082 -0.000307902228515)
(0.00129991651012 -0.000581161981729 -0.000286845136389)
(0.0010483565042 5.99271016957e-06 -0.000318704897772)
(0.00094567912077 0.000520421041911 -0.000386704142151)
(0.000954839550449 0.000907237269016 -0.000468810964947)
(0.00108129179337 0.00116181824124 -0.000536041935469)
(0.00127542059937 0.00127421459806 -0.000500760646802)
(0.00144804980441 0.0012996016338 -0.000192925643153)
(0.00100469040424 0.00142414087417 0.000704529116936)
(0.00032879317424 -0.00167107473051 -0.00136641392624)
(0.000802398451447 -0.00175256598034 -0.00133900273609)
(0.00113169635659 -0.00176639012867 -0.00129601260626)
(0.0014139108979 -0.00172326562964 -0.001264071483)
(0.00171641649102 -0.00164106515732 -0.0012013648455)
(0.00204703317613 -0.00152025845357 -0.00111082406632)
(0.00238785060879 -0.00139038158178 -0.00103964809486)
(0.00265611573364 -0.00121969186821 -0.000911849307153)
(0.00283370327428 -0.00103572443098 -0.000735998277066)
(0.00291590874605 -0.000826697123995 -0.000559196466784)
(0.00287863897075 -0.000535044864363 -0.000364166341469)
(0.0027300621817 -0.000217963095335 -0.000127278715535)
(0.00250665054388 0.000114752775855 7.84091856418e-05)
(0.00229294084328 0.000480220868008 0.000283995922159)
(0.00212114698491 0.000844325735511 0.000447344627211)
(0.00197533671857 0.00109252040659 0.00057881176801)
(0.00189905144097 0.00121473414672 0.000632354879553)
(0.00177746554958 0.00118119605742 0.000647173602041)
(0.00157272184576 0.000985421683277 0.000699493007187)
(0.000782511028142 0.000758629847291 0.000961833265636)
(-0.00149941045521 -0.0015265435693 0.00567980350718)
(-0.00442943710816 -0.00152649798748 0.0056511098177)
(-0.00738260680794 -0.00146559991525 0.00544630413514)
(-0.0101762618684 -0.00141321838188 0.00511659687855)
(-0.0126581843996 -0.00135606952767 0.00469776119974)
(-0.0147919271715 -0.00128008013677 0.00419448249458)
(-0.0165406577795 -0.00121042323613 0.00364640058158)
(-0.0178296546936 -0.00115500649613 0.00305979693897)
(-0.0185953582259 -0.00113243244201 0.00247347520184)
(-0.0188459033451 -0.00106777720404 0.00185927100294)
(-0.0185999039181 -0.000977869905939 0.00120689952222)
(-0.0179135221034 -0.00085908344059 0.000570872803849)
(-0.0168411231401 -0.000726613293083 -2.64255665769e-05)
(-0.015421435062 -0.000606361211196 -0.000579225978421)
(-0.0136543302927 -0.000538024363577 -0.00106851859991)
(-0.0115350677252 -0.000496062706936 -0.00146926904662)
(-0.00910460362301 -0.000455452404757 -0.0017706877332)
(-0.0064769463339 -0.000389401997169 -0.00197662339609)
(-0.00382909620251 -0.000285373731893 -0.00209386783753)
(-0.00123713733192 -0.000159215511447 -0.00212603681061)
(-0.00169008672244 -0.00431862230903 0.00556437484588)
(-0.00464240962846 -0.00427743515213 0.0059745030895)
(-0.00749618763046 -0.00411765218437 0.00583942136028)
(-0.0102840896178 -0.00396140538348 0.00543778354442)
(-0.012780055528 -0.00376882856316 0.00490713396426)
(-0.0149554734429 -0.00355181732458 0.00434429078843)
(-0.0167480433583 -0.00337516710214 0.00378056392397)
(-0.018061711988 -0.00325831357371 0.00318302328342)
(-0.0188271461887 -0.00315771421432 0.00257349066589)
(-0.0190664896036 -0.00297365997656 0.00192472558669)
(-0.0187934620296 -0.00270859695286 0.00124417276985)
(-0.0180544998926 -0.00238057671512 0.00057218822672)
(-0.0169216104185 -0.00201103280611 -7.43717123923e-05)
(-0.0154560813258 -0.00164474772498 -0.000694116532496)
(-0.0136668124857 -0.00138290156161 -0.00126460338677)
(-0.0115647240255 -0.00119713972441 -0.00173607066289)
(-0.00918687075644 -0.00105500719511 -0.00208298842659)
(-0.00660208737121 -0.000902598835837 -0.00230389461658)
(-0.00401729833331 -0.000701015696135 -0.00235636289801)
(-0.00138964221494 -0.000481915914108 -0.00214519200524)
(-0.00167819037144 -0.00693856056322 0.00539298186412)
(-0.00455810427698 -0.00688081511721 0.00589716608672)
(-0.00734880785049 -0.00666113871233 0.00570378188102)
(-0.0101313430786 -0.00636967061384 0.00515499029008)
(-0.0126437418061 -0.00599476704658 0.00454191954425)
(-0.0148619690027 -0.00561594863222 0.0039725989737)
(-0.0166963796274 -0.00533255627267 0.00344563151338)
(-0.0180059245547 -0.00516590521117 0.00286620411612)
(-0.0187299927785 -0.00497665732068 0.00227979436011)
(-0.0189106451791 -0.00466345399524 0.00164904689885)
(-0.0185691257942 -0.00423364001001 0.00099959895222)
(-0.0177618296646 -0.00370518205911 0.000351912677662)
(-0.0165645809066 -0.00311238346018 -0.000276379093538)
(-0.015091553553 -0.00249820231919 -0.000872331426509)
(-0.0133366298213 -0.00203997586983 -0.00146052356892)
(-0.0112845361171 -0.00169072952424 -0.00194184555153)
(-0.00897779334387 -0.00143305214726 -0.00227720253529)
(-0.00646706930146 -0.00121321027391 -0.00245854475814)
(-0.00397159492 -0.000985513268888 -0.00244310400164)
(-0.00141383554505 -0.000760204699339 -0.00211940352102)
(-0.00162677598947 -0.00952160681021 0.00518594423786)
(-0.0044202218308 -0.00951149723853 0.00561845590872)
(-0.00713475253302 -0.00923722155902 0.00527256903574)
(-0.00989146900889 -0.00880569908327 0.00461584701862)
(-0.012420731308 -0.00824880717186 0.00396853103428)
(-0.0147035880005 -0.00770641087574 0.00338925430689)
(-0.0165956313872 -0.00733359141415 0.00289219673665)
(-0.0178607883021 -0.00719526939362 0.00227954920763)
(-0.0184715833715 -0.00691068494992 0.00168621719843)
(-0.0185389092041 -0.00645464312122 0.00105395321339)
(-0.0180891901028 -0.00585144677506 0.000421527710014)
(-0.0171838076477 -0.00510987266341 -0.000201524421272)
(-0.0159045809897 -0.00424275759305 -0.000771440211283)
(-0.014444831816 -0.00328018746028 -0.00122507179778)
(-0.0127577428792 -0.00258972037311 -0.00177454933832)
(-0.0107778010165 -0.0020460034913 -0.00221057880634)
(-0.00856970007549 -0.00166007561496 -0.00249789979689)
(-0.00616907193337 -0.00137699127913 -0.00261495175501)
(-0.00381233242799 -0.00115246899776 -0.00251763567975)
(-0.00138851604797 -0.000989915429338 -0.00217809563361)
(-0.00154853601 -0.0119956416897 0.00494756512424)
(-0.00424478014284 -0.0119635849522 0.00523910697007)
(-0.00688194084604 -0.0116048275901 0.0047841923907)
(-0.00962819513651 -0.011010188585 0.0041013484961)
(-0.0122029526038 -0.0102619027543 0.00342728885497)
(-0.0145850525202 -0.00951958716073 0.00281428455447)
(-0.0165882872554 -0.00899125827781 0.00225900424406)
(-0.017747785055 -0.00883531846402 0.00142590594694)
(-0.018072185292 -0.00822151657669 0.000677886757771)
(-0.0179198773969 -0.00741242167411 -3.19074063665e-05)
(-0.0173084593021 -0.00643285048262 -0.000674841802023)
(-0.0162585957387 -0.00532785439017 -0.00125584236963)
(-0.014824030019 -0.00432192322308 -0.00167834912983)
(-0.0134142906621 -0.00349214680977 -0.00177643201453)
(-0.0119015694578 -0.00280312139693 -0.00219412930318)
(-0.0100447154916 -0.00213388973629 -0.00250535858951)
(-0.00798230591832 -0.00165144667704 -0.00270565887051)
(-0.00572141218088 -0.00131252837396 -0.0027294464989)
(-0.00352541675617 -0.00108734945701 -0.00255454964632)
(-0.00130966018826 -0.000972214787588 -0.00218488727546)
(-0.00143134529802 -0.0142323837878 0.00464361210213)
(-0.00401729160264 -0.0141934734541 0.00483247726169)
(-0.00658989954409 -0.0137480456129 0.00438589909961)
(-0.00934040907181 -0.0130115176244 0.00373971122502)
(-0.0119565371695 -0.0121186434904 0.00308519192996)
(-0.0144032540422 -0.0113055071913 0.00250658648233)
(-0.0164903269262 -0.0109784110811 0.00209856741321)
(-0.0173388024742 -0.0116198213583 0.00125969696137)
(-0.0170673977996 -0.0110085745453 0.000474393285929)
(-0.0165788412876 -0.0102880152984 -0.000264009025373)
(-0.0158160361564 -0.00936113596839 -0.00100536073609)
(-0.0149486567665 -0.00815626482162 -0.00175462667396)
(-0.0139137305655 -0.00654066826279 -0.00230333549221)
(-0.0127191959457 -0.00441254140237 -0.00222752608879)
(-0.0110781756542 -0.00313338005185 -0.00266514400291)
(-0.00920521196589 -0.00208128573777 -0.00277978685365)
(-0.00728171214074 -0.00145663335925 -0.00285398534455)
(-0.00518256024543 -0.00105869791167 -0.00278348545406)
(-0.00317821440074 -0.00083263275261 -0.00254262450073)
(-0.00117735971703 -0.000756822146422 -0.00216973682593)
(-0.00132696936782 -0.0162395190134 0.00429101249707)
(-0.00376566262416 -0.0161908789574 0.00445423647535)
(-0.00627441868896 -0.015627042306 0.00407236955434)
(-0.00905499107646 -0.0146597878137 0.00347733930425)
(-0.0118004059174 -0.0134549109105 0.00273161973329)
(-0.014731976989 -0.0122307797619 0.0018366626522)