/*--------------------------------*- C++ -*----------------------------------*\
| =========                 |                                                 |
| \\      /  F ield         | OpenFOAM: The Open Source CFD Toolbox           |
|  \\    /   O peration     | Version:  v1606+                                |
|   \\  /    A nd           | Web:      www.OpenFOAM.com                      |
|    \\/     M anipulation  |                                                 |
\*---------------------------------------------------------------------------*/
FoamFile
{
    version     2.0;
    format      ascii;
    class       volVectorField;
    location    "0.4";
    object      U.particlesMean;
}
// * * * * * * * * * * * * * * * * * * * * * * * * * * * * * * * * * * * * * //

dimensions      [0 1 -1 0 0 0 0];

internalField   nonuniform List<vector> 
6000
(
(-0.00717668 -0.291571 0)
(-0.00440094 -0.320634 0)
(-0.00161862 -0.322169 0)
(-0.00118509 -0.32495 0)
(0.000245674 -0.327395 0)
(0.00125214 -0.329431 0)
(0.00349181 -0.334602 0)
(0.00461853 -0.340472 0)
(0.00521183 -0.346545 0)
(0.00463675 -0.350914 0)
(0.00396643 -0.352756 0)
(0.00364103 -0.353481 0)
(0.00296581 -0.356594 0)
(0.00217458 -0.358527 0)
(0.000703333 -0.359283 0)
(-0.000873167 -0.358653 0)
(-0.00179002 -0.357569 0)
(-0.00253748 -0.355585 0)
(-0.00292006 -0.354133 0)
(-0.00391078 -0.353606 0)
(-0.00491676 -0.350491 0)
(-0.00524335 -0.345425 0)
(-0.00444835 -0.339254 0)
(-0.00297608 -0.333411 0)
(-0.000826356 -0.329597 0)
(0.000126303 -0.326309 0)
(0.0015641 -0.323796 0)
(0.0022884 -0.320828 0)
(0.00533925 -0.319394 0)
(0.00764881 -0.292079 0)
(0.00804811 0.0338627 0)
(-0.00498273 0.0562826 0)
(-0.00429301 0.0523293 0)
(-0.0086384 0.0521999 0)
(-0.00723107 0.0464408 0)
(-0.00517348 0.0406103 0)
(-0.00246747 0.0353723 0)
(-0.000414558 0.0324057 0)
(0.0014931 0.0312583 0)
(0.00252548 0.0315016 0)
(0.00295038 0.0313825 0)
(0.00278693 0.0305998 0)
(0.00228804 0.0310545 0)
(0.00133619 0.0308091 0)
(0.000504006 0.0308597 0)
(-0.00024995 0.0306673 0)
(-0.00115433 0.0310156 0)
(-0.0019551 0.0304578 0)
(-0.00246699 0.0310727 0)
(-0.00248341 0.031726 0)
(-0.00202513 0.0312768 0)
(-0.00111995 0.031627 0)
(0.000505302 0.03247 0)
(0.00268526 0.0355404 0)
(0.005552 0.0412662 0)
(0.00769704 0.0459887 0)
(0.00942675 0.0515944 0)
(0.00548358 0.0520427 0)
(0.00593015 0.0560163 0)
(-0.00761302 0.0342222 0)
(-0.00597059 -0.00856177 0)
(-0.00906905 -0.0248998 0)
(-0.00683137 -0.0267857 0)
(-0.0109696 -0.0318271 0)
(-0.00702705 -0.0373942 0)
(-0.00462641 -0.0385407 0)
(-0.00194214 -0.0383297 0)
(-0.000241032 -0.0389038 0)
(0.00125214 -0.0394668 0)
(0.00190992 -0.0402056 0)
(0.00227354 -0.0419486 0)
(0.00192897 -0.0427269 0)
(0.00138395 -0.0427411 0)
(0.000835543 -0.0430649 0)
(0.000432404 -0.0428922 0)
(-1.59706e-05 -0.0432153 0)
(-0.000560922 -0.0430754 0)
(-0.00113023 -0.0431312 0)
(-0.00186609 -0.0425982 0)
(-0.00188745 -0.041391 0)
(-0.00142232 -0.0400756 0)
(-0.000830576 -0.0393259 0)
(0.000468739 -0.0388324 0)
(0.00220487 -0.0388377 0)
(0.00521827 -0.0385501 0)
(0.00788032 -0.0376177 0)
(0.0119465 -0.0324738 0)
(0.00798738 -0.0273453 0)
(0.00975596 -0.0239916 0)
(0.0060742 -0.00722442 0)
(-0.00295282 -0.00988304 0)
(-0.0122654 -0.0312733 0)
(-0.0156939 -0.0341838 0)
(-0.0173653 -0.042226 0)
(-0.0119352 -0.048224 0)
(-0.00610906 -0.0494635 0)
(0.000288178 -0.0467461 0)
(0.0042785 -0.0432634 0)
(0.00573502 -0.0400299 0)
(0.00489302 -0.0372231 0)
(0.00335413 -0.0359267 0)
(0.00184043 -0.0350841 0)
(0.000688872 -0.0349252 0)
(0.00010874 -0.0351488 0)
(0.000125343 -0.0353583 0)
(0.00033976 -0.0353603 0)
(0.000285701 -0.0351871 0)
(-0.000347124 -0.0349765 0)
(-0.00168785 -0.0351099 0)
(-0.00315216 -0.0359158 0)
(-0.00467494 -0.0372351 0)
(-0.00545424 -0.0399647 0)
(-0.00385974 -0.0432717 0)
(0.000208927 -0.0473775 0)
(0.00701168 -0.0499352 0)
(0.013168 -0.0487665 0)
(0.0185826 -0.0428009 0)
(0.0169275 -0.0344043 0)
(0.0129656 -0.0300499 0)
(0.00307443 -0.00848121 0)
(-0.00357144 -0.0144608 0)
(-0.0223311 -0.0392974 0)
(-0.0283516 -0.0480563 0)
(-0.0260535 -0.0631947 0)
(-0.0179072 -0.070925 0)
(-0.00771863 -0.0718392 0)
(0.00262393 -0.066797 0)
(0.0100387 -0.0606958 0)
(0.0136313 -0.0551731 0)
(0.0133174 -0.050687 0)
(0.010657 -0.048538 0)
(0.0071948 -0.0472964 0)
(0.00410094 -0.0467536 0)
(0.0019423 -0.0470919 0)
(0.000677445 -0.0474834 0)
(-0.000217092 -0.047565 0)
(-0.00157246 -0.047187 0)
(-0.00382537 -0.0468749 0)
(-0.00703267 -0.0473089 0)
(-0.0105253 -0.048365 0)
(-0.0132321 -0.0506981 0)
(-0.0133988 -0.0551992 0)
(-0.00941102 -0.0607823 0)
(-0.00186445 -0.067647 0)
(0.00879466 -0.0727442 0)
(0.0192116 -0.0718148 0)
(0.0274006 -0.0639169 0)
(0.0296139 -0.0482917 0)
(0.0233369 -0.0376691 0)
(0.00388151 -0.0125065 0)
(-0.00541195 -0.0117419 0)
(-0.0311166 -0.0329887 0)
(-0.0368288 -0.0495582 0)
(-0.0318208 -0.071054 0)
(-0.0208962 -0.0805909 0)
(-0.00708484 -0.0823673 0)
(0.00655693 -0.0754146 0)
(0.0165227 -0.0652889 0)
(0.0224125 -0.0548929 0)
(0.023953 -0.0490994 0)
(0.0214218 -0.0463109 0)
(0.016395 -0.0455362 0)
(0.0110462 -0.0450338 0)
(0.00629069 -0.0453807 0)
(0.00217544 -0.0458654 0)
(-0.00170193 -0.0458613 0)
(-0.00597293 -0.0453661 0)
(-0.0108609 -0.0450147 0)
(-0.0163497 -0.0454467 0)
(-0.0213135 -0.0460749 0)
(-0.0237642 -0.049019 0)
(-0.0220259 -0.0550277 0)
(-0.0157634 -0.0657388 0)
(-0.00566548 -0.0768602 0)
(0.00833848 -0.0838737 0)
(0.022357 -0.082113 0)
(0.0334569 -0.0723391 0)
(0.0380396 -0.0498708 0)
(0.0319194 -0.0307614 0)
(0.00546103 -0.00917994 0)
(-0.013284 0.00527499 0)
(-0.0378263 -0.0247026 0)
(-0.0387052 -0.0494949 0)
(-0.0317564 -0.0738143 0)
(-0.0214721 -0.087102 0)
(-0.00764767 -0.0920802 0)
(0.00750987 -0.0867 0)
(0.0217823 -0.0739653 0)
(0.0309622 -0.0570101 0)
(0.0340141 -0.0441194 0)
(0.0315415 -0.0376222 0)
(0.0251858 -0.0355609 0)
(0.0177073 -0.0359457 0)
(0.0104073 -0.0372618 0)
(0.00356613 -0.0384186 0)
(-0.00312306 -0.0383431 0)
(-0.0101088 -0.0371706 0)
(-0.0175714 -0.0358491 0)
(-0.0252638 -0.0355291 0)
(-0.0315737 -0.0376518 0)
(-0.0338953 -0.0444744 0)
(-0.0304799 -0.0577737 0)
(-0.0208057 -0.0751225 0)
(-0.0063212 -0.0882217 0)
(0.00883653 -0.0936067 0)
(0.0226729 -0.0882608 0)
(0.0327853 -0.0744146 0)
(0.0395935 -0.0495957 0)
(0.038356 -0.0224387 0)
(0.0133053 0.00795877 0)
(-0.00229378 0.0212005 0)
(-0.0297004 -0.00731873 0)
(-0.0291136 -0.039928 0)
(-0.0245881 -0.0679149 0)
(-0.0156923 -0.0867319 0)
(-0.00481401 -0.0963999 0)
(0.00854675 -0.0945223 0)
(0.0218138 -0.0817801 0)
(0.0316541 -0.0618323 0)
(0.0371361 -0.0445861 0)
(0.0374659 -0.0349848 0)
(0.0318985 -0.0308928 0)
(0.0233102 -0.0309407 0)
(0.013864 -0.0325443 0)
(0.0047445 -0.0339427 0)
(-0.00422995 -0.0338281 0)
(-0.013413 -0.0323572 0)
(-0.0229501 -0.0307001 0)
(-0.0316587 -0.0307155 0)
(-0.0371543 -0.0349287 0)
(-0.0366914 -0.0449601 0)
(-0.0309989 -0.0628563 0)
(-0.0209924 -0.0830815 0)
(-0.00757632 -0.0959592 0)
(0.00567039 -0.0977112 0)
(0.0164643 -0.087801 0)
(0.0253005 -0.0682079 0)
(0.0293785 -0.0395506 0)
(0.0300264 -0.00528564 0)
(0.00274822 0.0243989 0)
(0.00524503 0.0304914 0)
(-0.0158996 0.00700327 0)
(-0.0143231 -0.0271274 0)
(-0.0121384 -0.0590102 0)
(-0.00946397 -0.0828782 0)
(-0.000159054 -0.0974265 0)
(0.00942761 -0.0984209 0)
(0.0213317 -0.086543 0)
(0.0303033 -0.0650484 0)
(0.0353758 -0.0425712 0)
(0.0343361 -0.0256689 0)
(0.0309739 -0.0196039 0)
(0.0238407 -0.019356 0)
(0.0146419 -0.0211321 0)
(0.00504411 -0.0226161 0)
(-0.00462776 -0.0225061 0)
(-0.0142308 -0.0208809 0)
(-0.0234509 -0.0190001 0)
(-0.0305947 -0.019279 0)
(-0.0338061 -0.025496 0)
(-0.0350684 -0.0431369 0)
(-0.0297669 -0.0660302 0)
(-0.0207517 -0.0877905 0)
(-0.00882242 -0.0996529 0)
(0.00062897 -0.09859 0)
(0.00965661 -0.0835432 0)
(0.0124023 -0.0591648 0)
(0.0143992 -0.0266296 0)
(0.0164677 0.00867369 0)
(-0.00451164 0.0332056 0)
(0.0108689 0.0431676 0)
(-0.00123407 0.0247386 0)
(0.00358059 -0.0100481 0)
(0.0024056 -0.0461233 0)
(0.00180698 -0.0745847 0)
(0.00648253 -0.0940349 0)
(0.0125368 -0.0979785 0)
(0.021018 -0.0868955 0)
(0.0278078 -0.0639986 0)
(0.0326628 -0.0390516 0)
(0.0293891 -0.0168108 0)
(0.0271171 -0.00644713 0)
(0.0215964 -0.00474687 0)
(0.01361 -0.0060773 0)
(0.00466369 -0.00740896 0)
(-0.00441294 -0.00729846 0)
(-0.0133107 -0.0058595 0)
(-0.0212429 -0.00439147 0)
(-0.0266631 -0.00603569 0)
(-0.0289672 -0.0168622 0)
(-0.032438 -0.0396835 0)
(-0.027417 -0.0649409 0)
(-0.0206325 -0.0880958 0)
(-0.0122715 -0.0989905 0)
(-0.00647078 -0.0949003 0)
(-0.00210438 -0.0747695 0)
(-0.00303568 -0.0460318 0)
(-0.00408196 -0.00938297 0)
(0.00158726 0.0266778 0)
(-0.00983276 0.0460711 0)
(0.0153687 0.0505322 0)
(0.0114167 0.0329869 0)
(0.0190967 -0.00121543 0)
(0.018852 -0.0427699 0)
(0.0154888 -0.0701444 0)
(0.015565 -0.0900984 0)
(0.0170636 -0.0963651 0)
(0.0212273 -0.0860143 0)
(0.0248922 -0.0629122 0)
(0.0267492 -0.036856 0)
(0.0242054 -0.0134646 0)
(0.0203338 0.0028008 0)
(0.0171452 0.00687799 0)
(0.0111891 0.00654809 0)
(0.00387429 0.00559187 0)
(-0.00370487 0.0056683 0)
(-0.0109797 0.00672583 0)
(-0.0168269 0.0071083 0)
(-0.0198605 0.00277 0)
(-0.0239649 -0.0143241 0)
(-0.0263603 -0.0380101 0)
(-0.0245976 -0.0640879 0)
(-0.0210706 -0.0871845 0)
(-0.0171481 -0.0971253 0)
(-0.0159867 -0.0904402 0)
(-0.0163752 -0.0707407 0)
(-0.020088 -0.0431964 0)
(-0.0200106 -0.000650992 0)
(-0.0114119 0.0341914 0)
(-0.014756 0.0530784 0)
(0.018138 0.0505921 0)
(0.021224 0.0345624 0)
(0.0333016 0.00430644 0)
(0.0358773 -0.0413234 0)
(0.0308781 -0.0714766 0)
(0.0280326 -0.0893939 0)
(0.0236678 -0.0934196 0)
(0.0224797 -0.0850964 0)
(0.0217293 -0.0649062 0)
(0.019915 -0.0417738 0)
(0.0171593 -0.0167365 0)
(0.0129122 0.00369864 0)
(0.0101125 0.0122211 0)
(0.00715322 0.0138549 0)
(0.00249042 0.0136873 0)
(-0.00249131 0.0137208 0)
(-0.0070741 0.0139228 0)
(-0.0098116 0.0122715 0)
(-0.0127558 0.0032616 0)
(-0.0169822 -0.0177252 0)
(-0.0197224 -0.0431113 0)
(-0.021618 -0.0659978 0)
(-0.0224844 -0.0859142 0)
(-0.0239773 -0.094131 0)
(-0.0288574 -0.0901811 0)
(-0.0321325 -0.0719764 0)
(-0.0373123 -0.0412794 0)
(-0.03454 0.005065 0)
(-0.0214376 0.035388 0)
(-0.0181374 0.0525199 0)
(0.0185841 0.0455133 0)
(0.0275912 0.0295056 0)
(0.0471818 0.00435886 0)
(0.0519161 -0.0416642 0)
(0.0486335 -0.0745792 0)
(0.0421755 -0.0899239 0)
(0.0322762 -0.0910979 0)
(0.0239662 -0.08069 0)
(0.0183747 -0.0635121 0)
(0.0132805 -0.0442815 0)
(0.00882849 -0.018408 0)
(0.00525324 0.00289564 0)
(0.00260175 0.0142156 0)
(0.00267051 0.017745 0)
(0.00096518 0.0184987 0)
(-0.00119889 0.0184693 0)
(-0.00281208 0.017637 0)
(-0.00251259 0.0139611 0)
(-0.00524144 0.00218048 0)
(-0.00866649 -0.0194752 0)
(-0.0131798 -0.0455811 0)
(-0.0182986 -0.0645162 0)
(-0.0240278 -0.0811939 0)
(-0.0327267 -0.0913942 0)
(-0.0430087 -0.0901761 0)
(-0.0500431 -0.0747638 0)
(-0.0533137 -0.040832 0)
(-0.048551 0.00511887 0)
(-0.0278654 0.0303206 0)
(-0.0189433 0.0472051 0)
(0.0186424 0.036961 0)
(0.0297819 0.0187683 0)
(0.0575373 -0.00219594 0)
(0.0666931 -0.0429143 0)
(0.0655983 -0.0789834 0)
(0.056831 -0.091952 0)
(0.0415927 -0.0881862 0)
(0.0266828 -0.0764186 0)
(0.0171399 -0.0614441 0)
(0.00988293 -0.0453609 0)
(0.00331753 -0.0202744 0)
(0.000293073 -0.000369188 0)
(-0.00147078 0.0114287 0)
(-0.000442938 0.0169603 0)
(-0.000131305 0.0188494 0)
(-0.000224411 0.0187966 0)
(0.000216939 0.0167468 0)
(0.0013712 0.0109167 0)
(-0.000338272 -0.00120832 0)
(-0.00321397 -0.0213056 0)
(-0.00988158 -0.0463757 0)
(-0.017151 -0.0621319 0)
(-0.0268559 -0.0767649 0)
(-0.0422034 -0.0883966 0)
(-0.0577697 -0.0923869 0)
(-0.0668417 -0.0788749 0)
(-0.0681417 -0.041608 0)
(-0.0586397 -0.00168062 0)
(-0.0300905 0.0193371 0)
(-0.0191226 0.0383704 0)
(0.0202981 0.0249992 0)
(0.030167 0.00102257 0)
(0.0621166 -0.0180729 0)
(0.0767259 -0.050017 0)
(0.0777264 -0.0841075 0)
(0.0677253 -0.093588 0)
(0.0476091 -0.0850312 0)
(0.0263852 -0.0701083 0)
(0.0135045 -0.0571483 0)
(0.00521429 -0.0442449 0)
(-0.00212378 -0.0216614 0)
(-0.00429698 -0.0042128 0)
(-0.00442706 0.00652548 0)
(-0.00282143 0.0127908 0)
(-0.000994599 0.0153394 0)
(0.000593267 0.0152624 0)
(0.00251722 0.0124905 0)
(0.00414764 0.00589767 0)
(0.00406933 -0.00501265 0)
(0.00185265 -0.0226666 0)
(-0.00557337 -0.0450612 0)
(-0.0138108 -0.0578254 0)
(-0.0267803 -0.0701177 0)
(-0.0483967 -0.0849369 0)
(-0.0686621 -0.0936143 0)
(-0.0788069 -0.0836699 0)
(-0.0778097 -0.0489845 0)
(-0.0628522 -0.0180308 0)
(-0.0305237 0.00118315 0)
(-0.0207672 0.0261211 0)
(0.0237931 0.0112064 0)
(0.0313041 -0.0191663 0)
(0.0627555 -0.0376254 0)
(0.079638 -0.0606599 0)
(0.0819423 -0.0888213 0)
(0.0712421 -0.0933728 0)
(0.047211 -0.0785073 0)
(0.0213095 -0.0623355 0)
(0.0072326 -0.0534799 0)
(0.000399686 -0.0433428 0)
(-0.00532677 -0.0259053 0)
(-0.00734491 -0.0113477 0)
(-0.00651277 -0.0035654 0)
(-0.0044629 0.00105691 0)
(-0.0018257 0.00339091 0)
(0.00102764 0.00325821 0)
(0.00370748 0.000612178 0)
(0.00578983 -0.0042925 0)
(0.00670737 -0.0121508 0)
(0.00466035 -0.026758 0)
(-0.000914525 -0.0437718 0)
(-0.00762589 -0.0536204 0)
(-0.0217423 -0.0622208 0)
(-0.0480795 -0.0785917 0)
(-0.0719916 -0.0936928 0)
(-0.0826721 -0.0883515 0)
(-0.0803044 -0.0600571 0)
(-0.0631896 -0.0378934 0)
(-0.0316948 -0.0193659 0)
(-0.024263 0.0119968 0)
(0.0280779 -0.00247207 0)
(0.0338209 -0.0379451 0)
(0.0620706 -0.0553981 0)
(0.0763002 -0.0706505 0)
(0.0778404 -0.0863702 0)
(0.0680732 -0.0881112 0)
(0.04358 -0.0695368 0)
(0.0157388 -0.0523947 0)
(0.00224544 -0.0448791 0)
(-0.00222194 -0.0328174 0)
(-0.00457633 -0.0215297 0)
(-0.00564788 -0.0132647 0)
(-0.00526945 -0.0081045 0)
(-0.00379225 -0.0054176 0)
(-0.00170161 -0.00423397 0)
(0.000592564 -0.0043416 0)
(0.00270144 -0.00572622 0)
(0.00419766 -0.00863783 0)
(0.00464682 -0.0138479 0)
(0.00372028 -0.022115 0)
(0.00150461 -0.0335337 0)
(-0.00281344 -0.0451113 0)
(-0.0164768 -0.0521734 0)
(-0.0445692 -0.0694009 0)
(-0.0686875 -0.0878828 0)
(-0.0782008 -0.0859537 0)
(-0.0765061 -0.0704205 0)
(-0.0622185 -0.0558555 0)
(-0.0341354 -0.0383463 0)
(-0.0283706 -0.00209192 0)
(0.0315371 -0.00915509 0)
(0.0375561 -0.0431537 0)
(0.0608022 -0.0583385 0)
(0.073013 -0.0639983 0)
(0.0754773 -0.0650478 0)
(0.0659538 -0.0622573 0)
(0.0408339 -0.0506436 0)
(0.0123382 -0.0362408 0)
(-0.000960364 -0.0244198 0)
(-0.00531526 -0.0104787 0)
(-0.00713771 -8.19745e-05 0)
(-0.00699115 0.00610527 0)
(-0.00583782 0.00921543 0)
(-0.00394138 0.0105292 0)
(-0.00174091 0.0108714 0)
(0.00052227 0.0108006 0)
(0.00273091 0.0103292 0)
(0.00464735 0.00888399 0)
(0.00585351 0.00564749 0)
(0.00609919 -0.000680862 0)
(0.00435257 -0.0113657 0)
(8.93743e-05 -0.0248615 0)
(-0.0134582 -0.0366462 0)
(-0.0420363 -0.0506245 0)
(-0.0665323 -0.0617575 0)
(-0.0756518 -0.0646414 0)
(-0.0729902 -0.0638733 0)
(-0.0606926 -0.0583418 0)
(-0.0377846 -0.0432462 0)
(-0.0316719 -0.00897041 0)
(0.0339784 -0.00657416 0)
(0.0415483 -0.036156 0)
(0.0606521 -0.0454427 0)
(0.0711915 -0.0442108 0)
(0.0719414 -0.0402593 0)
(0.0617449 -0.0332777 0)
(0.0374376 -0.0218106 0)
(0.0107432 -0.00947079 0)
(-0.00235416 0.000554099 0)
(-0.00602954 0.0117622 0)
(-0.00753482 0.0221288 0)
(-0.00694467 0.0285277 0)
(-0.00537786 0.0317469 0)
(-0.00345238 0.0329529 0)
(-0.00152339 0.0331834 0)
(0.000333879 0.0331165 0)
(0.00224779 0.0327539 0)
(0.00414723 0.031405 0)
(0.00570645 0.0280301 0)
(0.00629786 0.0214513 0)
(0.00481916 0.0108091 0)
(0.00104887 -0.000337329 0)
(-0.0124144 -0.0100406 0)
(-0.0386833 -0.0217443 0)
(-0.0622039 -0.0327045 0)
(-0.0719821 -0.0401441 0)
(-0.0710902 -0.044069 0)
(-0.0605034 -0.0452345 0)
(-0.0415571 -0.0360396 0)
(-0.0341014 -0.00643665 0)
(0.0358703 -0.00467532 0)
(0.0446098 -0.0244121 0)
(0.0601507 -0.0269344 0)
(0.0678928 -0.0217331 0)
(0.0668461 -0.0143401 0)
(0.0563094 -0.00468193 0)
(0.0339522 0.00666319 0)
(0.0111697 0.0154658 0)
(-0.00118043 0.0228196 0)
(-0.00443287 0.0324551 0)
(-0.00565052 0.0426944 0)
(-0.00498227 0.0492409 0)
(-0.00358136 0.0526947 0)
(-0.00213124 0.054168 0)
(-0.000994224 0.0545669 0)
(-3.83724e-05 0.0545028 0)
(0.00105904 0.0539646 0)
(0.00242783 0.0523468 0)
(0.00374381 0.0487468 0)
(0.00434083 0.0420118 0)
(0.00308312 0.0314929 0)
(-0.000400432 0.0220311 0)
(-0.0132078 0.014601 0)
(-0.0353647 0.00637109 0)
(-0.0568613 -0.00442224 0)
(-0.0670635 -0.0140535 0)
(-0.0678267 -0.0217029 0)
(-0.0599737 -0.0266573 0)
(-0.0444978 -0.024192 0)
(-0.0359919 -0.00445731 0)
(0.0349998 -0.00601311 0)
(0.0445145 -0.0135121 0)
(0.0572506 -0.00913641 0)
(0.0629557 0.000347299 0)
(0.060934 0.0108166 0)
(0.0495481 0.0249027 0)
(0.0309425 0.0335743 0)
(0.0149314 0.0374121 0)
(0.00361458 0.0433783 0)
(8.09373e-05 0.0519267 0)
(-0.00126294 0.0626262 0)
(-0.00108468 0.0698139 0)
(-0.000375931 0.0738119 0)
(7.8328e-06 0.075698 0)
(-0.00016729 0.0763478 0)
(-0.000638691 0.0762934 0)
(-0.000876943 0.0755433 0)
(-0.000617497 0.073538 0)
(-5.68349e-05 0.0693903 0)
(-4.72144e-05 0.0620047 0)
(-0.00151748 0.0510432 0)
(-0.00557266 0.0423427 0)
(-0.0173924 0.0362581 0)
(-0.0327314 0.03282 0)
(-0.0496067 0.0252655 0)
(-0.0607841 0.0109438 0)
(-0.0628022 0.000444931 0)
(-0.0570874 -0.00893811 0)
(-0.0443076 -0.0132439 0)
(-0.034973 -0.00561634 0)
(0.0299677 -0.0071467 0)
(0.0427313 -0.00288981 0)
(0.0531493 0.00888938 0)
(0.0572228 0.0225501 0)
(0.050857 0.040191 0)
(0.041952 0.056238 0)
(0.0349234 0.0547594 0)
(0.0242847 0.0549576 0)
(0.0123094 0.0611008 0)
(0.0070356 0.070271 0)
(0.00495698 0.0818161 0)
(0.00405749 0.0898555 0)
(0.00354511 0.0945957 0)
(0.00251997 0.0970736 0)
(0.000770379 0.0980851 0)
(-0.00133093 0.0980444 0)
(-0.00315671 0.096969 0)
(-0.00433609 0.0943915 0)
(-0.0050492 0.0895346 0)
(-0.00621838 0.0813165 0)
(-0.00854846 0.069564 0)
(-0.0145266 0.0602233 0)
(-0.0269866 0.0535392 0)
(-0.0373068 0.0529189 0)
(-0.0426232 0.0553547 0)
(-0.0500705 0.0403307 0)
(-0.0567452 0.022568 0)
(-0.0530535 0.00921494 0)
(-0.0424917 -0.00258016 0)
(-0.0297958 -0.00668762 0)
(0.0274274 -0.00894158 0)
(0.0361532 0.00798892 0)
(0.0492204 0.0279785 0)
(0.0469306 0.0490425 0)
(0.0392547 0.067886 0)
(0.0437545 0.0734092 0)
(0.0460369 0.0670568 0)
(0.0370415 0.0695352 0)
(0.0235681 0.0782161 0)
(0.0155327 0.0892997 0)
(0.0119816 0.101466 0)
(0.00963333 0.11052 0)
(0.00769933 0.11602 0)
(0.00511545 0.11908 0)
(0.00172893 0.120409 0)
(-0.0020384 0.120407 0)
(-0.00550438 0.119039 0)
(-0.00824305 0.115922 0)
(-0.0103767 0.110343 0)
(-0.0129931 0.101094 0)
(-0.016915 0.0890331 0)
(-0.0256967 0.0773661 0)
(-0.0394364 0.0683693 0)
(-0.048357 0.0652755 0)
(-0.0459504 0.0707234 0)
(-0.039543 0.0670714 0)
(-0.0459701 0.0489531 0)
(-0.0493348 0.0287534 0)
(-0.0359859 0.00844218 0)
(-0.0269467 -0.00830368 0)
(0.0200853 -0.00674948 0)
(0.0307634 0.0220637 0)
(0.0384017 0.0504567 0)
(0.0322946 0.0749434 0)
(0.0386344 0.0839135 0)
(0.0547873 0.077614 0)
(0.058365 0.0762385 0)
(0.0499424 0.0833061 0)
(0.0351774 0.0951503 0)
(0.0241208 0.108709 0)
(0.0185854 0.121324 0)
(0.0148356 0.131366 0)
(0.0115083 0.137561 0)
(0.00747969 0.141179 0)
(0.00259549 0.142853 0)
(-0.00268583 0.142841 0)
(-0.00764134 0.14117 0)
(-0.0118047 0.137518 0)
(-0.0153029 0.131257 0)
(-0.0192629 0.121011 0)
(-0.0252205 0.10829 0)
(-0.0369922 0.0945566 0)
(-0.0518956 0.0823339 0)
(-0.0601546 0.0747872 0)
(-0.0572152 0.0747682 0)
(-0.0406311 0.0819542 0)
(-0.0320583 0.0743207 0)
(-0.0367341 0.0506839 0)
(-0.0319105 0.0230545 0)
(-0.0192073 -0.00596857 0)
(0.0096696 0.00277559 0)
(0.0283026 0.0368809 0)
(0.0213554 0.075494 0)
(0.0271268 0.090629 0)
(0.0513446 0.0857218 0)
(0.0673142 0.0795313 0)
(0.0676726 0.0861736 0)
(0.0596373 0.0974817 0)
(0.0443836 0.112385 0)
(0.0311214 0.127973 0)
(0.0241262 0.14118 0)
(0.019407 0.152312 0)
(0.0149014 0.1593 0)
(0.00958047 0.163526 0)
(0.00338159 0.165532 0)
(-0.00320803 0.165552 0)
(-0.00946824 0.163554 0)
(-0.0149043 0.15932 0)
(-0.0195754 0.152289 0)
(-0.024475 0.141024 0)
(-0.0318576 0.127826 0)
(-0.0457117 0.111909 0)
(-0.0610313 0.0968481 0)
(-0.0689444 0.0852088 0)
(-0.0687731 0.077901 0)
(-0.0540923 0.0824207 0)
(-0.0288287 0.0890562 0)
(-0.0211766 0.075445 0)
(-0.0277949 0.0381472 0)
(-0.00960666 0.00399855 0)
(0.00329951 0.0189414 0)
(0.0141436 0.0658243 0)
(0.0132115 0.0920574 0)
(0.0404394 0.0901822 0)
(0.0673562 0.0791764 0)
(0.0749677 0.0860384 0)
(0.0741785 0.0976753 0)
(0.0662217 0.112296 0)
(0.0505898 0.129523 0)
(0.0358553 0.147028 0)
(0.0278274 0.161033 0)
(0.0225192 0.173106 0)
(0.0171068 0.180857 0)
(0.0109028 0.185661 0)
(0.00387003 0.187997 0)
(-0.0035165 0.188015 0)
(-0.0106098 0.185739 0)
(-0.0169208 0.180945 0)
(-0.022487 0.173172 0)
(-0.028001 0.161171 0)
(-0.0364377 0.146874 0)
(-0.0515991 0.12924 0)
(-0.0671601 0.111868 0)
(-0.0750145 0.0970041 0)
(-0.0757973 0.084953 0)
(-0.0686015 0.0772274 0)
(-0.0432923 0.0869281 0)
(-0.0145161 0.0904032 0)
(-0.0147868 0.0670279 0)
(-0.00323869 0.019762 0)
(-0.00894046 0.0380331 0)
(0.0106612 0.0884952 0)
(0.0281055 0.0886242 0)
(0.0599618 0.0775702 0)
(0.0733376 0.0832533 0)
(0.0788831 0.0956206 0)
(0.0775794 0.110612 0)
(0.0694795 0.127808 0)
(0.053813 0.146892 0)
(0.038318 0.165854 0)
(0.0294161 0.181517 0)
(0.0236026 0.193753 0)
(0.0176484 0.202178 0)
(0.011064 0.207416 0)
(0.00384632 0.209944 0)
(-0.00360633 0.209976 0)
(-0.0108525 0.207488 0)
(-0.017486 0.202273 0)
(-0.0235138 0.193809 0)
(-0.0295132 0.181525 0)
(-0.0387373 0.165776 0)
(-0.0544687 0.146684 0)
(-0.0700115 0.127519 0)
(-0.0780199 0.110146 0)
(-0.0793516 0.0948452 0)
(-0.0739623 0.0820884 0)
(-0.0613994 0.0755297 0)
(-0.0309033 0.0857437 0)
(-0.0117206 0.0883796 0)
(0.0101885 0.0398917 0)
(-0.0112943 0.0677759 0)
(0.018852 0.0893846 0)
(0.0473764 0.0763173 0)
(0.0652764 0.078952 0)
(0.0753455 0.0903616 0)
(0.0799939 0.106371 0)
(0.0781797 0.124293 0)
(0.0700887 0.143639 0)
(0.0550005 0.164269 0)
(0.0394168 0.184521 0)
(0.0296259 0.2012 0)
(0.0230637 0.214142 0)
(0.016761 0.223068 0)
(0.0102488 0.228338 0)
(0.00351534 0.230751 0)
(-0.00331137 0.230757 0)
(-0.0100054 0.228348 0)
(-0.0164572 0.223095 0)
(-0.0227335 0.214142 0)
(-0.029387 0.201191 0)
(-0.0393673 0.184419 0)
(-0.0550526 0.164132 0)
(-0.0700576 0.143446 0)
(-0.0781201 0.123972 0)
(-0.0799767 0.105803 0)
(-0.07544 0.0895238 0)
(-0.0656233 0.0777164 0)
(-0.0485084 0.0740998 0)
(-0.0201539 0.0862625 0)
(0.0099121 0.0698906 0)
(0.00758916 0.0864842 0)
(0.0290685 0.0761281 0)
(0.0513491 0.0754605 0)
(0.0654724 0.0846361 0)
(0.0743882 0.0995925 0)
(0.0783375 0.118192 0)
(0.0761752 0.138521 0)
(0.0683353 0.159643 0)
(0.0542119 0.181696 0)
(0.0388712 0.203036 0)
(0.0282025 0.220887 0)
(0.0208107 0.234185 0)
(0.0145672 0.242743 0)
(0.00880701 0.247371 0)
(0.00309479 0.249418 0)
(-0.00268053 0.249406 0)
(-0.00835395 0.247334 0)
(-0.0140106 0.242711 0)
(-0.020163 0.234173 0)
(-0.0276431 0.220871 0)
(-0.0385145 0.202951 0)
(-0.0539214 0.1816 0)
(-0.0679789 0.159536 0)
(-0.075816 0.138318 0)
(-0.0780402 0.117817 0)
(-0.0742229 0.0990877 0)
(-0.0655058 0.0839146 0)
(-0.05169 0.0743183 0)
(-0.0297878 0.0745038 0)
(-0.0100133 0.0861468 0)
(0.0201642 0.0795833 0)
(0.0312131 0.0754582 0)
(0.0509056 0.0788557 0)
(0.0637852 0.0915397 0)
(0.0716816 0.109217 0)
(0.0746549 0.130125 0)
(0.0719821 0.152639 0)
(0.064263 0.175595 0)
(0.0509077 0.199238 0)
(0.0357248 0.22188 0)
(0.0239889 0.240719 0)
(0.016637 0.253135 0)
(0.0116642 0.260178 0)
(0.00716041 0.264017 0)
(0.002594 0.265759 0)
(-0.00204283 0.265725 0)
(-0.00659287 0.263933 0)
(-0.0110463 0.260063 0)
(-0.0159571 0.253094 0)
(-0.0233632 0.240757 0)
(-0.035333 0.221871 0)
(-0.05064 0.199173 0)
(-0.063932 0.175501 0)
(-0.0716243 0.152462 0)
(-0.0742922 0.129818 0)
(-0.0713757 0.108834 0)
(-0.0635947 0.0910911 0)
(-0.0509118 0.0783151 0)
(-0.0316662 0.074743 0)
(-0.0213922 0.0782583 0)
(0.0235715 0.0753665 0)
(0.0309464 0.0762896 0)
(0.0488553 0.0828099 0)
(0.0606623 0.0985187 0)
(0.067337 0.118923 0)
(0.069045 0.142129 0)
(0.0657703 0.166678 0)
(0.0577544 0.191916 0)
(0.0445552 0.217867 0)
(0.0288521 0.242166 0)
(0.0169876 0.260004 0)
(0.0119872 0.269477 0)
(0.00861395 0.274918 0)
(0.00539874 0.278229 0)
(0.00200824 0.279826 0)
(-0.00146597 0.279784 0)
(-0.00487068 0.278129 0)
(-0.00811626 0.274739 0)
(-0.0115475 0.269259 0)
(-0.016616 0.259899 0)
(-0.0283412 0.242325 0)
(-0.044221 0.217944 0)
(-0.0574307 0.191867 0)
(-0.0654468 0.16648 0)
(-0.068701 0.141792 0)
(-0.0670074 0.118524 0)
(-0.0603897 0.0980673 0)
(-0.048629 0.0823695 0)
(-0.0311015 0.0758616 0)
(-0.02402 0.0742219 0)
(0.0236438 0.0707968 0)
(0.029985 0.0768161 0)
(0.0463839 0.0865663 0)
(0.0567437 0.105244 0)
(0.0618321 0.128385 0)
(0.0622169 0.153747 0)
(0.05799 0.181038 0)
(0.0485721 0.210383 0)
(0.0342375 0.240169 0)
(0.0188803 0.264569 0)
(0.0107649 0.275618 0)
(0.0079868 0.282337 0)
(0.00580278 0.286993 0)
(0.00372182 0.290133 0)
(0.00143421 0.291723 0)
(-0.000946761 0.29169 0)
(-0.00327356 0.29004 0)
(-0.00543692 0.286791 0)
(-0.00774894 0.281993 0)
(-0.0106867 0.275201 0)
(-0.0185601 0.264534 0)
(-0.0337974 0.240519 0)
(-0.0480689 0.210567 0)
(-0.0575728 0.180924 0)
(-0.0618336 0.153365 0)
(-0.0614716 0.127923 0)
(-0.0564318 0.104731 0)
(-0.0461312 0.0860359 0)
(-0.0298601 0.0763123 0)
(-0.023531 0.0699217 0)
(0.0224106 0.0662818 0)
(0.0287582 0.0763984 0)
(0.0435483 0.0899407 0)
(0.0520585 0.111795 0)
(0.0556218 0.137241 0)
(0.0546618 0.165797 0)
(0.0485443 0.199119 0)
(0.0368104 0.234451 0)
(0.0222978 0.264247 0)
(0.0103819 0.283666 0)
(0.00648895 0.287014 0)
(0.0049361 0.292195 0)
(0.00360689 0.296581 0)
(0.00240545 0.299783 0)
(0.00100648 0.301459 0)
(-0.000486742 0.301435 0)
(-0.00194007 0.299696 0)
(-0.00323732 0.296362 0)
(-0.00469562 0.291798 0)
(-0.00641419 0.286441 0)
(-0.0102302 0.282995 0)
(-0.0216996 0.264448 0)
(-0.0361421 0.234884 0)
(-0.047897 0.199219 0)
(-0.0541035 0.165546 0)
(-0.0551663 0.136699 0)
(-0.0516796 0.111212 0)
(-0.043292 0.0893314 0)
(-0.0285766 0.0758852 0)
(-0.022207 0.0657148 0)
(0.0208301 0.061487 0)
(0.0273641 0.0754776 0)
(0.0402119 0.0930552 0)
(0.0466509 0.117837 0)
(0.0490164 0.146241 0)
(0.0460126 0.182086 0)
(0.036081 0.223014 0)
(0.0232364 0.259716 0)
(0.0116138 0.283961 0)
(0.00420382 0.294991 0)
(0.00330962 0.29488 0)
(0.00280188 0.299396 0)
(0.00223437 0.30387 0)
(0.00165182 0.307324 0)
(0.000832049 0.309183 0)
(-8.09405e-05 0.309186 0)
(-0.000968392 0.307303 0)
(-0.00170025 0.303748 0)
(-0.00244873 0.299066 0)
(-0.00308376 0.29426 0)
(-0.00393505 0.294004 0)
(-0.0110894 0.283652 0)
(-0.0223915 0.25986 0)
(-0.0353076 0.22341 0)
(-0.0452168 0.182089 0)
(-0.0484346 0.145881 0)
(-0.046159 0.117218 0)
(-0.0398361 0.0925187 0)
(-0.0271617 0.0750471 0)
(-0.0206663 0.0610218 0)
(0.0191957 0.0560589 0)
(0.02554 0.0741557 0)
(0.0359502 0.0959678 0)
(0.041124 0.1237 0)
(0.0410015 0.159898 0)
(0.0332306 0.204415 0)
(0.0211043 0.24764 0)
(0.0107559 0.278381 0)
(0.00328425 0.295123 0)
(0.000816381 0.300577 0)
(0.00153156 0.299862 0)
(0.00160569 0.304376 0)
(0.00144366 0.309212 0)
(0.00120579 0.313005 0)
(0.000780917 0.315061 0)
(0.000245118 0.315079 0)
(-0.000291768 0.313011 0)
(-0.000630102 0.3091 0)
(-0.000886121 0.304068 0)
(-0.000978822 0.299236 0)
(-0.000347155 0.299543 0)
(-0.0027068 0.294437 0)
(-0.0100015 0.278097 0)
(-0.020166 0.247785 0)
(-0.0323407 0.204729 0)
(-0.0403333 0.15975 0)
(-0.040617 0.123172 0)
(-0.0354766 0.0953854 0)
(-0.0252045 0.0738212 0)
(-0.0188946 0.055784 0)
(0.0172025 0.0502367 0)
(0.0227784 0.0726948 0)
(0.0309316 0.0984787 0)
(0.0341381 0.134497 0)
(0.028247 0.179468 0)
(0.0172797 0.228694 0)
(0.00716105 0.266054 0)
(0.000508261 0.289051 0)
(-0.00124257 0.299154 0)
(-0.00041367 0.302093 0)
(0.000678472 0.302547 0)
(0.00141804 0.307623 0)
(0.00159286 0.312962 0)
(0.00145771 0.317259 0)
(0.00102683 0.319616 0)
(0.000587598 0.319661 0)
(0.000137541 0.317368 0)
(-0.000148704 0.313039 0)
(-0.000257214 0.307508 0)
(0.000149662 0.302123 0)
(0.00100558 0.301254 0)
(0.00159224 0.298181 0)
(6.59163e-05 0.28838 0)
(-0.00655155 0.265627 0)
(-0.0164158 0.228765 0)
(-0.0274934 0.179747 0)
(-0.0336682 0.134085 0)
(-0.0306243 0.0979355 0)
(-0.0224328 0.072321 0)
(-0.0168522 0.0502814 0)
(0.0140999 0.0448068 0)
(0.0193763 0.071184 0)
(0.0238661 0.106688 0)
(0.0218031 0.150953 0)
(0.0118442 0.203139 0)
(0.00198937 0.247279 0)
(-0.00431453 0.27615 0)
(-0.00561008 0.292183 0)
(-0.00297815 0.297477 0)
(-0.000526409 0.301364 0)
(0.000920416 0.303573 0)
(0.00212624 0.309392 0)
(0.00249202 0.315276 0)
(0.00236032 0.32003 0)
(0.00175065 0.322714 0)
(0.000934986 0.322864 0)
(0.000133285 0.320409 0)
(-0.000314813 0.315703 0)
(-0.000327327 0.30967 0)
(0.00043761 0.303537 0)
(0.00141282 0.301036 0)
(0.00335342 0.296815 0)
(0.00566049 0.291323 0)
(0.00453837 0.275415 0)
(-0.00177682 0.246783 0)
(-0.0112255 0.20312 0)
(-0.0212091 0.15085 0)
(-0.0236946 0.10629 0)
(-0.0193831 0.0708552 0)
(-0.0138561 0.0450082 0)
(0.0079363 0.0406764 0)
(0.0171328 0.0719232 0)
(0.0128232 0.118452 0)
(0.00635581 0.172103 0)
(-0.00408787 0.221075 0)
(-0.0102278 0.256851 0)
(-0.0116696 0.278441 0)
(-0.00822955 0.289119 0)
(-0.00293346 0.293666 0)
(0.000875884 0.299025 0)
(0.00282001 0.303339 0)
(0.00382848 0.310128 0)
(0.00374065 0.316734 0)
(0.00311751 0.321864 0)
(0.00216405 0.324727 0)
(0.00108598 0.324907 0)
(1.72929e-05 0.322368 0)
(-0.000831196 0.317404 0)
(-0.00124169 0.310819 0)
(-0.00066009 0.30388 0)
(0.000732367 0.299492 0)
(0.00384148 0.293816 0)
(0.00839961 0.288613 0)
(0.0115961 0.277585 0)
(0.0100361 0.25606 0)
(0.00392698 0.220542 0)
(-0.00613592 0.171794 0)
(-0.0125475 0.118197 0)
(-0.0171977 0.071868 0)
(-0.00777826 0.0408543 0)
(0.00043373 0.0386814 0)
(0.0102444 0.0784323 0)
(-0.000782097 0.133422 0)
(-0.0108464 0.19037 0)
(-0.0197934 0.233948 0)
(-0.0188042 0.260156 0)
(-0.0130682 0.273078 0)
(-0.00462485 0.280439 0)
(0.00119555 0.287045 0)
(0.00510446 0.294873 0)
(0.00655586 0.302239 0)
(0.00642668 0.310614 0)
(0.00541206 0.318157 0)
(0.00407985 0.323732 0)
(0.00257835 0.326801 0)
(0.00104141 0.327011 0)
(-0.0005146 0.324341 0)
(-0.00198605 0.319017 0)
(-0.00322641 0.311618 0)
(-0.00369017 0.303261 0)
(-0.00267115 0.296047 0)
(0.000716477 0.288087 0)
(0.00582513 0.280772 0)
(0.0133802 0.27249 0)
(0.0186113 0.259263 0)
(0.018792 0.232746 0)
(0.00874474 0.188925 0)
(0.000208579 0.132824 0)
(-0.0103375 0.0786677 0)