/*--------------------------------*- C++ -*----------------------------------*\
| =========                 |                                                 |
| \\      /  F ield         | OpenFOAM: The Open Source CFD Toolbox           |
|  \\    /   O peration     | Version:  2.4.0                                 |
|   \\  /    A nd           | Web:      www.OpenFOAM.org                      |
|    \\/     M anipulation  |                                                 |
\*---------------------------------------------------------------------------*/
FoamFile
{
    version     2.0;
    format      ascii;
    class       volScalarField;
    location    "0.25";
    object      p;
}
// * * * * * * * * * * * * * * * * * * * * * * * * * * * * * * * * * * * * * //

dimensions      [0 2 -2 0 0 0 0];

internalField   nonuniform List<scalar> 
400
(
6.75699e-06
-0.00586295
-0.0130086
-0.0184559
-0.020476
-0.0182832
-0.0118156
-0.00151911
0.0118107
0.0271327
0.0432389
0.0588282
0.0725931
0.0833297
0.0900774
0.092291
0.0900483
0.0842727
0.0768908
0.0710443
0.0058113
-0.000228722
-0.0057841
-0.00950708
-0.0105583
-0.00839157
-0.00293313
0.00550194
0.0163181
0.0287118
0.0417339
0.0543546
0.0655416
0.0743553
0.0800607
0.0822566
0.0810241
0.0770183
0.0712669
0.0652773
0.0133735
0.00499681
-0.000999878
-0.00442087
-0.00527226
-0.00326386
0.00160158
0.00902515
0.0184973
0.0293417
0.0407548
0.051856
0.0617521
0.069618
0.0747877
0.0768583
0.0758209
0.0720725
0.0658238
0.057481
0.0201807
0.00864026
0.00121649
-0.00267008
-0.00372683
-0.00189086
0.00272539
0.009778
0.0187729
0.0290865
0.0399823
0.050643
0.0602207
0.0679026
0.0729894
0.074987
0.0737486
0.0694474
0.0616408
0.050046
0.0245569
0.00970295
0.000582325
-0.00398352
-0.00530263
-0.00350869
0.00117274
0.00833117
0.0174568
0.0279418
0.0390754
0.0500579
0.0600344
0.0681486
0.0736088
0.0757791
0.0743467
0.0692793
0.0595799
0.0444676
0.0252499
0.00706551
-0.00380784
-0.00904967
-0.0105095
-0.0084986
-0.00335623
0.00442828
0.01431
0.0256731
0.037805
0.0498915
0.0610332
0.0702855
0.0767152
0.0794955
0.0781122
0.0723216
0.060611
0.0418029
0.0211849
-0.000360815
-0.0129375
-0.0186966
-0.0200235
-0.0174093
-0.0113148
-0.00231815
0.00898938
0.0219722
0.0359023
0.0499334
0.0630974
0.0743269
0.0825007
0.0865449
0.0856884
0.0794324
0.0657105
0.0429633
0.0112574
-0.0137299
-0.0278731
-0.0338341
-0.0345918
-0.0308483
-0.0232051
-0.0123399
0.00110708
0.0164827
0.0330475
0.0499241
0.066069
0.0802706
0.0911771
0.097401
0.0978299
0.091616
0.0760057
0.0489807
-0.00582337
-0.0343909
-0.0498602
-0.0555185
-0.0550712
-0.0494995
-0.0395806
-0.0261035
-0.00975075
0.00882548
0.028899
0.0495863
0.0697842
0.0881346
0.103021
0.112666
0.115499
0.110163
0.0929636
0.0612383
-0.0316746
-0.0640124
-0.0803955
-0.084964
-0.0823922
-0.0740562
-0.0609621
-0.0440216
-0.0239404
-0.00132998
0.0231477
0.0486572
0.0740844
0.0979524
0.118367
0.133084
0.139922
0.136774
0.11859
0.0817077
-0.0684308
-0.10475
-0.121306
-0.12353
-0.117477
-0.105097
-0.0876933
-0.0663052
-0.0416209
-0.0141437
0.0156127
0.0469541
0.0788483
0.109775
0.137593
0.159536
0.172641
0.173712
0.155686
0.113267
-0.119088
-0.15951
-0.174854
-0.172678
-0.161099
-0.142892
-0.119729
-0.0927521
-0.0625568
-0.0294307
0.00638592
0.0444804
0.0840534
0.123689
0.161106
0.193029
0.215559
0.22398
0.208224
0.160214
-0.188204
-0.232394
-0.243848
-0.233848
-0.213637
-0.187113
-0.156339
-0.122473
-0.085874
-0.0464508
-0.00399568
0.0415532
0.0898488
0.139823
0.189294
0.23463
0.270943
0.291527
0.281906
0.22919
-0.283404
-0.329427
-0.331702
-0.308166
-0.27465
-0.2364
-0.195733
-0.153583
-0.109816
-0.0637208
-0.0144134
0.0388867
0.096573
0.158285
0.222363
0.285237
0.341254
0.381387
0.385017
0.331022
-0.418599
-0.459694
-0.442164
-0.39568
-0.342086
-0.287713
-0.234595
-0.182911
-0.131589
-0.0789604
-0.0231846
0.0375092
0.104589
0.17887
0.259879
0.34495
0.428485
0.499449
0.529618
0.484334
-0.619791
-0.636621
-0.578449
-0.494115
-0.411225
-0.33565
-0.267773
-0.205966
-0.147522
-0.0893593
-0.028393
0.0383918
0.113859
0.20053
0.300029
0.412055
0.532972
0.651549
0.732545
0.721208
-0.935592
-0.878305
-0.741707
-0.598019
-0.474392
-0.372637
-0.288851
-0.217744
-0.153931
-0.0924352
-0.0286833
0.0417408
0.12332
0.220783
0.338988
0.482227
0.652184
0.84155
1.01508
1.09657
-1.47915
-1.20372
-0.920806
-0.692136
-0.517546
-0.387641
-0.290141
-0.213387
-0.148142
-0.0872045
-0.0245379
0.045531
0.129052
0.233226
0.367281
0.542982
0.772172
1.05994
1.40013
1.73272
-2.56124
-1.61216
-1.04358
-0.713355
-0.497009
-0.35287
-0.255127
-0.183999
-0.126418
-0.0737
-0.0192228
0.0429658
0.119557
0.219322
0.355549
0.54913
0.828527
1.23541
1.89203
2.94793
-4.41458
-2.02777
-0.971089
-0.563923
-0.357402
-0.239492
-0.169669
-0.123495
-0.087302
-0.0534202
-0.0166599
0.0275856
0.0844397
0.161429
0.271934
0.441687
0.718588
1.22295
2.39436
4.89795
)
;

boundaryField
{
    movingWall
    {
        type            zeroGradient;
    }
    fixedWalls
    {
        type            zeroGradient;
    }
    frontAndBack
    {
        type            empty;
    }
}


// ************************************************************************* //
