/*--------------------------------*- C++ -*----------------------------------*\
| =========                 |                                                 |
| \\      /  F ield         | OpenFOAM: The Open Source CFD Toolbox           |
|  \\    /   O peration     | Version:  v1606+                                |
|   \\  /    A nd           | Web:      www.OpenFOAM.com                      |
|    \\/     M anipulation  |                                                 |
\*---------------------------------------------------------------------------*/
FoamFile
{
    version     2.0;
    format      ascii;
    class       volScalarField;
    location    "10";
    object      k;
}
// * * * * * * * * * * * * * * * * * * * * * * * * * * * * * * * * * * * * * //

dimensions      [0 2 -2 0 0 0 0];

internalField   nonuniform List<scalar> 
5080
(
0.00417187
0.00420468
0.00423733
0.00426928
0.00430051
0.00433152
0.00436168
0.00439071
0.00441961
0.00444961
0.00448282
0.00452323
0.00457812
0.00466636
0.00483193
0.00514589
0.00563128
0.00609776
0.00605887
0.00415961
0.00414986
0.00418255
0.00426628
0.00440738
0.00459955
0.00491569
0.00535287
0.00579075
0.00629246
0.00683155
0.00741021
0.00828803
0.00931856
0.010428
0.012824
0.0184103
0.027365
0.0356827
0.0373302
0.0193503
0.00418997
0.00427118
0.00442043
0.00462873
0.00490691
0.00532823
0.00594531
0.00656807
0.00709628
0.00790482
0.00903357
0.0101676
0.0120929
0.0161373
0.0229436
0.0326147
0.0437739
0.0538294
0.0551281
0.0283112
0.00425786
0.00440942
0.00466388
0.00496124
0.00529452
0.00587394
0.0066249
0.00726571
0.00798019
0.00905113
0.0105534
0.0124159
0.0161252
0.0244425
0.0359992
0.0455549
0.0535854
0.0609249
0.0601891
0.0308571
0.00433878
0.00459693
0.00496726
0.0053691
0.0058117
0.00649125
0.00728932
0.00789219
0.00855487
0.00935139
0.0106182
0.0129648
0.0167271
0.0232391
0.0338563
0.0478735
0.0638497
0.0770193
0.0780588
0.0424583
0.00443578
0.00480715
0.00535475
0.00590743
0.00643053
0.00720771
0.00817531
0.00865647
0.00883545
0.00945538
0.0106975
0.0125481
0.0155947
0.0214542
0.032694
0.0509698
0.0749892
0.0948668
0.095591
0.0492525
0.00454887
0.00505996
0.00580266
0.00651174
0.00716345
0.00813015
0.00916155
0.00944095
0.00929673
0.00977653
0.0109266
0.0124705
0.015675
0.0228659
0.0359847
0.0559737
0.0801818
0.101123
0.102622
0.0552278
0.00466802
0.00533816
0.00630772
0.00723614
0.00803687
0.00917543
0.0102615
0.0103326
0.00998506
0.0101947
0.0112185
0.0128845
0.0170521
0.026618
0.0428984
0.0633136
0.0849804
0.101488
0.1025
0.0595727
0.00478877
0.00564351
0.00687343
0.00805725
0.00899311
0.0103145
0.0115269
0.0113542
0.0106153
0.0104435
0.0113032
0.0134015
0.0184705
0.0303621
0.0498651
0.073112
0.0939386
0.111043
0.108216
0.0577816
0.00491706
0.00595049
0.00744601
0.00890121
0.0100305
0.0115069
0.0127361
0.012161
0.010859
0.0103531
0.0112046
0.0135629
0.0192251
0.0315654
0.0524426
0.0764094
0.0982509
0.112771
0.117973
0.0644138
0.0050435
0.0062394
0.0079855
0.00972372
0.0110607
0.0125085
0.0135014
0.0124291
0.0107319
0.0101464
0.0110669
0.0137129
0.0193548
0.0316228
0.0520662
0.0783308
0.101599
0.124015
0.129492
0.0716697
0.00515537
0.00649907
0.00843503
0.0104224
0.0118584
0.013097
0.0136276
0.0122303
0.0105467
0.0101382
0.0114284
0.0142759
0.0201111
0.0317846
0.0524402
0.0794137
0.109763
0.132371
0.152028
0.0749936
0.00524211
0.00669823
0.00871305
0.0108092
0.0122218
0.0131613
0.0132454
0.0119034
0.0106456
0.0109092
0.0128761
0.0163169
0.0223174
0.0338256
0.0535561
0.0809213
0.11103
0.139957
0.161289
0.0888895
0.00529188
0.00678207
0.00870833
0.0106977
0.0120224
0.0127346
0.0127169
0.0118945
0.0116313
0.0131811
0.0164767
0.0209926
0.0274793
0.0390528
0.0583533
0.0856899
0.118315
0.14874
0.170994
0.0949432
0.0052953
0.00670051
0.00836016
0.0100739
0.0113426
0.012145
0.0125937
0.0129233
0.0143756
0.018035
0.0236358
0.0299622
0.0375343
0.0493349
0.0684324
0.0957035
0.127298
0.164843
0.197485
0.107103
0.00525198
0.00646348
0.00777562
0.00922761
0.0106391
0.0120328
0.0136545
0.0159396
0.0200464
0.0269473
0.0360837
0.0454592
0.0548526
0.0670852
0.086521
0.112787
0.150877
0.186787
0.230531
0.109148
0.00516878
0.00613742
0.00717322
0.00858926
0.0105218
0.013115
0.0167289
0.0220009
0.0300516
0.0416767
0.0558926
0.0700288
0.0823284
0.0957332
0.114314
0.141275
0.171994
0.216098
0.2545
0.132903
0.00505566
0.00580203
0.00674252
0.00847483
0.0114402
0.0159581
0.0225627
0.0321783
0.0459057
0.0641233
0.0853639
0.106254
0.123528
0.139102
0.157969
0.18287
0.219974
0.258252
0.325479
0.145938
0.00492483
0.00551965
0.00658507
0.00903631
0.0136505
0.020973
0.0318222
0.0475244
0.0690976
0.0961933
0.126737
0.15674
0.181953
0.202201
0.22268
0.25041
0.282113
0.334939
0.408703
0.210591
0.00479011
0.00532916
0.00674543
0.0103549
0.0173335
0.0285165
0.0451728
0.0690999
0.101027
0.139593
0.181909
0.223752
0.260234
0.289502
0.316512
0.346583
0.410035
0.446871
0.721087
0.299654
28.5448
45.3967
57.3124
65.7931
74.4343
82.867
89.6036
92.3545
93.8594
96.7908
93.072
75.3877
64.952
54.9556
46.4803
39.9204
34.788
30.7322
27.4806
24.8204
22.6167
20.7487
19.1106
17.6456
16.3572
15.2744
14.4219
13.7176
13.0528
12.3665
11.5806
10.7471
9.98058
9.30295
8.73245
8.17694
7.60711
7.09509
6.64153
6.23935
5.8788
5.55536
5.27478
5.05039
4.89558
4.81065
4.73255
4.63929
4.58508
4.61775
4.79614
5.1925
5.78026
6.49527
7.20489
6.92206
6.4054
6.25607
5.99741
5.73241
44.4182
90.2004
124.619
145.281
166.826
189.46
209.379
215.957
206.48
189.621
166.967
132.982
111.097
92.9869
80.063
71.0778
63.7423
57.3218
51.809
47.1891
43.334
40.008
36.9755
34.1746
31.7066
29.6686
27.9868
26.4504
24.9493
23.4391
21.8398
20.1944
18.7303
17.5303
16.5175
15.4462
14.3211
13.2794
12.3643
11.5357
10.7626
10.0489
9.43343
8.97626
8.69339
8.5113
8.34529
8.16998
8.07691
8.20896
8.52669
9.07502
9.88876
11.0165
13.3087
14.1159
12.5648
11.4939
11.0885
10.7214
47.6131
104.035
158.166
189.763
218.459
253.248
289.52
308.864
290.434
234.028
182.434
140.301
116.536
99.7624
89.0728
82.3931
75.6151
69.2462
63.5111
58.5767
54.3088
50.5095
47.0026
43.7453
40.826
38.3245
36.1573
34.1518
32.2134
30.3404
28.4107
26.4889
24.7673
23.3985
22.2992
20.9563
19.5529
18.2063
16.9946
15.8922
14.8531
13.8678
12.9952
12.3408
11.9369
11.6157
11.3511
11.098
10.9011
10.8734
11.1759
11.7799
12.6171
13.244
13.402
13.3501
13.6409
14.409
14.861
15.0986
45.926
103.646
165.187
221.448
257.537
297.361
339.355
391.564
384.139
260.096
178.391
130.416
106.915
95.6775
90.9361
90.357
83.5751
76.7335
70.7568
65.6921
61.2278
57.2438
53.6043
50.2413
47.2077
44.561
42.1929
39.9598
37.7998
35.7203
33.5934
31.5549
29.7854
28.4994
27.3687
25.9797
24.4812
22.9845
21.5831
20.2845
19.0402
17.7767
16.6264
15.7483
15.1795
14.7666
14.3571
13.9816
13.7471
13.8253
14.2777
14.9694
15.8148
16.1922
15.9722
15.9342
16.7975
18.3418
18.8011
19.5145
43.1793
99.1882
157.118
225.04
267.168
303.392
346.037
405.921
410.772
255.241
165.165
115.836
93.1735
88.62
92.1595
104.617
91.9738
82.3679
75.1838
69.6704
65.192
61.3348
57.9138
54.7847
51.9401
49.3886
47.024
44.7062
42.4439
40.1305
37.9945
35.9899
34.6163
33.8984
32.758
31.2863
29.7819
28.2642
26.764
25.209
23.4999
21.7636
20.2538
19.1233
18.3291
17.8085
17.3478
16.9494
16.8943
17.2955
18.0813
19.0168
19.665
19.5544
19.008
18.859
19.5552
20.7358
21.5634
22.3168
39.6036
92.423
145.848
207.433
251.817
284.355
321.516
371.366
341.927
230.28
149.123
102.513
80.4036
80.3271
95.1045
100.781
88.9466
80.516
74.454
69.9167
66.3014
63.3221
60.6396
58.0918
55.66
53.3371
51.09
48.7711
46.3305
43.9593
41.7366
39.8364
38.9359
38.6646
37.5184
35.9912
34.436
32.794
30.9835
28.8584
26.5671
24.5391
22.8811
21.6871
20.9708
20.5325
20.1772
20.0536
20.3526
20.9917
21.7604
22.4265
22.6226
22.1332
21.6429
21.8046
22.8846
24.4937
25.0534
24.623
35.6008
83.6829
133.206
189.076
229.813
257.958
285.967
316.144
286.185
203.375
135.377
92.6675
70.2704
69.4514
81.232
79.2562
75.3406
71.8274
69.6659
67.8474
66.0522
64.3286
62.5702
60.6979
58.713
56.6352
54.4164
51.9695
49.4104
46.9347
44.6015
42.7144
41.759
41.1377
39.7519
37.8974
35.954
33.9111
31.7861
29.7128
27.8257
26.1747
24.8108
23.8658
23.3568
23.1257
23.0356
23.1373
23.459
23.9022
24.3427
24.6668
24.8034
24.5984
24.4934
25.0843
26.2832
27.1387
25.9609
23.7588
32.0043
75.1911
120.159
172.046
207.797
233.746
259.587
277.58
250.776
184.025
126.625
86.3621
63.0523
58.9102
63.066
64.2593
62.6409
62.6305
64.1018
65.002
64.9473
64.3711
63.4472
62.1729
60.5689
58.6775
56.455
53.9006
51.2227
48.6373
46.2414
44.3186
43.0373
41.7385
39.8115
37.5685
35.3401
33.2532
31.3903
29.7886
28.4143
27.2258
26.302
25.7654
25.6088
25.6632
25.7544
25.8352
25.9516
26.1818
26.5878
27.0681
27.3596
27.2229
26.8905
26.56
26.0226
24.2427
21.2591
17.8347
28.7264
67.6035
108.14
154.443
187.714
212.424
242.464
262.445
234.939
174.61
122.153
82.6165
58.5818
52.5693
52.5611
52.0745
51.0083
52.4764
56.1352
59.1446
60.7433
61.4675
61.5566
61.0412
59.9514
58.3413
56.2292
53.7227
51.0758
48.5003
46.1163
44.0918
42.3854
40.5168
38.2258
35.85
33.7034
31.9196
30.5205
29.4386
28.5805
27.9083
27.4827
27.3718
27.5028
27.6723
27.7256
27.6626
27.6433
27.7976
28.1332
28.3498
27.993
26.715
24.8908
22.7199
20.3094
16.6904
13.0021
9.30464
25.6065
60.0871
96.0066
138.997
171.212
194.693
230.394
260.383
232.653
172.573
120.406
80.2512
55.8327
49.7126
49.5485
45.9819
42.2954
41.8833
45.0232
48.7585
51.6365
53.7963
55.3084
55.9578
55.7399
54.7304
53.04
50.8761
48.5117
46.1455
43.8919
41.822
39.8406
37.6979
35.3759
33.1865
31.396
30.074
29.1695
28.5815
28.218
28.0341
28.0321
28.1973
28.4077
28.4968
28.3901
28.152
27.9094
27.6585
27.2183
26.1602
24.1941
21.3279
18.2535
15.0172
11.9475
8.32109
5.7796
3.53482
22.5428
52.1313
83.9034
125.856
158.437
180.249
220.906
264.037
237.64
173.983
119.754
78.3284
53.7147
48.57
50.7153
44.9174
37.3583
32.7465
32.6094
35.0973
38.3256
41.6486
44.5645
46.7311
47.7653
47.7318
46.8248
45.3247
43.5104
41.5704
39.6035
37.6434
35.637
33.525
31.4483
29.6514
28.3304
27.5049
27.0832
26.9583
27.0306
27.2258
27.4899
27.7455
27.8689
27.7465
27.3485
26.7206
25.8776
24.6981
22.9273
20.2812
16.8929
13.2782
10.1796
7.42724
5.30911
3.15531
2.08369
1.12885
19.5652
45.0956
73.1615
112.763
146.541
168.086
212.992
269.901
245.453
176.358
119.081
76.2763
51.681
47.7944
52.6024
45.8624
35.0418
26.0148
21.2482
20.8973
23.4205
27.2881
31.1712
34.464
36.8637
38.0544
38.1803
37.5622
36.4803
35.1151
33.56
31.8586
30.0342
28.1684
26.4653
25.1283
24.3021
23.979
24.0334
24.3406
24.771
25.2116
25.5648
25.7281
25.594
25.0842
24.176
22.8648
21.0959
18.7364
15.713
12.2444
8.95413
6.29843
4.41344
2.91449
1.9311
1.00671
0.671252
0.330675
16.7129
39.483
64.022
96.663
128.382
156.84
207.317
277.683
254.099
178.402
117.762
73.7978
49.5528
46.9719
53.9313
46.8792
33.7659
21.2655
12.4015
9.01471
10.3009
13.8282
17.769
21.5211
24.5935
26.8979
28.1101
28.4113
28.0937
27.3328
26.224
24.8389
23.2766
21.7155
20.3994
19.5265
19.2118
19.4032
19.9227
20.5949
21.257
21.7711
22.0236
21.9133
21.3539
20.2901
18.7036
16.6014
14.0274
11.1173
8.18597
5.63526
3.74409
2.45069
1.61409
0.986325
0.619821
0.295907
0.207661
0.0962308
14.0502
34.3658
55.3217
81.8861
113.329
149.659
205.868
287.755
262.142
179.287
115.434
70.7604
47.2912
46.0633
54.5902
47.3458
32.6408
17.691
6.66116
2.18595
2.44165
4.38702
7.01997
10.1447
13.1129
15.7059
17.7458
18.8169
19.1301
18.8641
18.1102
16.9703
15.616
14.3155
13.3764
13.0139
13.2489
13.9311
14.8236
15.7135
16.4279
16.8325
16.8218
16.3152
15.2676
13.6936
11.6888
9.43179
7.14653
5.05987
3.37133
2.15416
1.3579
0.847192
0.529828
0.306412
0.187402
0.089418
0.068777
0.0324814
12.0838
30.5545
50.3466
75.3986
106.954
147.756
210.423
299.634
268.313
178.352
111.862
67.127
44.909
45.104
54.7008
47.1716
31.3287
14.7577
3.67542
0.42745
0.2019
0.57609
1.35216
2.66492
4.3901
6.36476
8.26392
9.77512
10.431
10.423
9.83128
8.79665
7.59534
6.62044
6.2015
6.45992
7.18947
8.16658
9.19074
10.0674
10.6505
10.8354
10.5563
9.80161
8.62918
7.1848
5.64598
4.18452
2.92071
1.92254
1.20883
0.739608
0.450419
0.271791
0.165369
0.0953854
0.0603826
0.0333053
0.0289164
0.0155569
11.7948
30.8999
50.8763
75.9885
108.133
151.68
220.084
313.105
270.909
174.976
106.899
62.9297
42.4565
44.1707
54.4291
46.3884
29.7107
12.2247
2.2563
0.21277
0.0542598
0.044978
0.0911598
0.257929
0.630693
1.26175
2.08317
2.97041
3.55304
3.63779
3.28484
2.67617
2.08765
1.75493
1.7758
2.16006
2.79152
3.54345
4.31306
4.9442
5.32647
5.39231
5.12641
4.57172
3.82306
3.0045
2.22437
1.55656
1.03087
0.649887
0.396301
0.238022
0.143734
0.0873986
0.0551547
0.035128
0.0252977
0.0177595
0.0168939
0.0105665
13.5942
35.1687
55.7136
82.1639
115.835
162.363
234.636
328.009
268.421
168.708
100.516
58.2631
40.0061
43.3313
53.8876
45.0636
27.759
10.0018
1.43915
0.153439
0.060117
0.0371389
0.0310142
0.0355701
0.0576106
0.116561
0.233049
0.41326
0.619034
0.695219
0.634087
0.512312
0.419344
0.400359
0.463633
0.616223
0.866723
1.19681
1.55735
1.87163
2.06875
2.10577
1.97847
1.72154
1.39354
1.05722
0.756028
0.512848
0.331295
0.206015
0.125973
0.0775196
0.0493476
0.0329657
0.0237795
0.0181611
0.0151602
0.0125555
0.012396
0.0085722
16.8715
41.1888
63.0332
92.7368
128.95
174.163
252.082
339.829
259.781
159.389
92.8399
53.2797
37.6415
42.6434
53.1359
43.2467
25.4936
8.01109
0.911647
0.12656
0.0655633
0.0411583
0.0308096
0.0275111
0.0285029
0.0337924
0.0450706
0.0654924
0.097446
0.120359
0.124927
0.120911
0.121384
0.133157
0.159822
0.206258
0.27842
0.37757
0.493376
0.601552
0.673481
0.689109
0.64516
0.555805
0.444094
0.332814
0.235849
0.159623
0.104188
0.0669661
0.0437403
0.0299177
0.0219437
0.0172817
0.0145334
0.0126939
0.0114533
0.010111
0.0101103
0.0074361
21.3612
46.5355
70.9421
102.926
136.173
182.793
263.96
342.141
244.669
147.254
84.1618
48.1764
35.4481
42.1458
52.1698
40.9806
22.9733
6.21252
0.565965
0.110915
0.0663444
0.0435987
0.0320361
0.0269151
0.0253258
0.0258598
0.0279878
0.0318584
0.0376565
0.0435587
0.0479307
0.0512155
0.054792
0.0600064
0.0683146
0.0813404
0.100629
0.126523
0.156795
0.185478
0.204648
0.208069
0.194362
0.167639
0.134741
0.102342
0.0743663
0.0525887
0.0369316
0.0265384
0.0200694
0.0161555
0.0137782
0.0122442
0.0111602
0.010286
0.00954975
0.00861837
0.00867541
0.00667353
20.7725
47.7745
73.9367
103.095
137.132
185.757
265.952
330.571
224.007
132.987
74.9161
43.1717
33.505
41.8456
50.9254
38.3499
20.3062
4.62418
0.348588
0.0984494
0.0630821
0.0431067
0.0320368
0.0264198
0.0240179
0.0234992
0.0240168
0.0252359
0.0270039
0.0290064
0.0308844
0.032488
0.0339116
0.0354467
0.0375288
0.0406158
0.0450738
0.0509065
0.0575321
0.0635457
0.0671178
0.0667689
0.0621845
0.0544114
0.0451856
0.036204
0.0284646
0.0224204
0.0180361
0.0150529
0.0130868
0.0117677
0.0108243
0.0100875
0.00944343
0.00885632
0.00832108
0.00758918
0.00767373
0.00612475
16.809
43.9968
71.3998
99.1885
132.986
182.031
259.116
307.201
200.165
117.62
65.5973
38.4715
31.8795
41.7078
49.2722
35.5304
17.6601
3.2824
0.219622
0.086468
0.0570311
0.0401165
0.0304073
0.025101
0.0224583
0.0215207
0.0215583
0.0221451
0.0230182
0.0239911
0.0249135
0.0256781
0.0262446
0.0266495
0.0269901
0.0273816
0.0279162
0.0285965
0.0293008
0.0297428
0.0295698
0.0285101
0.0265404
0.0239187
0.0210457
0.0183082
0.0159327
0.0140177
0.0125456
0.0114385
0.0105938
0.00991826
0.0093393
0.00882251
0.008321
0.00785531
0.00743458
0.00683722
0.00693887
0.00572071
15.2064
40.7283
66.4537
92.5337
126.672
175.831
248.711
281.388
175.482
102.138
56.6516
34.2372
30.6251
41.6539
47.0388
32.7846
15.2346
2.24954
0.15791
0.0746919
0.0496258
0.0356145
0.0275373
0.0229593
0.0204569
0.0193472
0.0191215
0.019444
0.0200369
0.0207261
0.0213916
0.0219516
0.0223536
0.0225722
0.0226051
0.0224648
0.0221695
0.0217311
0.0211513
0.0204126
0.0194954
0.0183943
0.0171453
0.0158226
0.0145173
0.0133092
0.0122426
0.01133
0.0105596
0.00990341
0.00933214
0.0088219
0.00834931
0.0079134
0.00748325
0.00709816
0.00676506
0.00627581
0.0063913
0.0054195
14.901
40.1131
62.9369
89.28
123.739
172.239
244.692
239.069
149.684
87.2781
48.4255
30.5731
29.7778
41.5114
44.1287
30.3411
13.1709
1.57857
0.119169
0.0628774
0.0422375
0.0307443
0.0241066
0.0203304
0.0181656
0.0170772
0.0167122
0.0168317
0.0172328
0.0177708
0.0183378
0.0188569
0.0192712
0.0195396
0.019631
0.0195245
0.0192117
0.0186985
0.0180048
0.0171631
0.0162197
0.0152205
0.0142141
0.0132399
0.0123274
0.0114933
0.0107439
0.0100748
0.00947633
0.00893566
0.00844262
0.00799202
0.00757406
0.0071949
0.00682731
0.00651423
0.00625525
0.00585337
0.00597857
0.00519028
15.3627
40.6708
63.5419
90.3027
125.959
177.689
243.067
204.073
128.355
74.1084
41.1363
27.5241
29.3345
40.8986
40.8024
28.1776
11.4581
1.14761
0.0908165
0.0517347
0.0352884
0.0260994
0.0207552
0.0176647
0.0158515
0.0148758
0.0144596
0.014436
0.0146706
0.0150592
0.0155182
0.0159801
0.0163887
0.0166999
0.0168752
0.0168825
0.0167037
0.0163377
0.0157961
0.015109
0.0143236
0.0134872
0.0126469
0.0118365
0.0110761
0.0103743
0.00973314
0.00914939
0.00861849
0.00813506
0.00769577
0.00729921
0.00693891
0.00661904
0.00631368
0.00606424
0.00586496
0.00553064
0.00566143
0.00501054
16.9313
44.5986
68.3789
96.8862
134.328
194.348
251.482
184.708
111.361
62.3721
34.7483
25.0897
29.2187
39.822
37.6799
25.9364
9.83248
0.823152
0.0691801
0.0418246
0.0291188
0.0219259
0.0176986
0.0152016
0.0137022
0.0128551
0.0124441
0.0123423
0.0124549
0.0127095
0.0130479
0.0134183
0.0137723
0.01407
0.0142745
0.0143515
0.0142821
0.0140603
0.0136884
0.0131878
0.0125915
0.0119364
0.0112615
0.0105966
0.00996014
0.00936334
0.00881139
0.00830576
0.00784623
0.00743053
0.00705711
0.00672361
0.00642469
0.00616207
0.00591237
0.00571451
0.00556113
0.00527842
0.00541151
0.00486513
19.6377
51.4632
77.7222
108.678
144.296
208.063
249.81
164.47
94.6573
51.3312
29.2078
23.2695
29.4064
38.9512
34.8725
23.2373
7.99341
0.553053
0.0524049
0.0334035
0.0238673
0.0183424
0.0150477
0.0130521
0.0118238
0.0111013
0.0107196
0.0105806
0.0106138
0.0107665
0.0109976
0.011269
0.0115442
0.0117908
0.0119776
0.0120747
0.0120648
0.0119397
0.0116977
0.0113518
0.0109217
0.010435
0.00992034
0.00940122
0.00889464
0.00841272
0.0079628
0.0075489
0.00717247
0.00683235
0.00652763
0.00625571
0.00601245
0.00579907
0.00559526
0.00543758
0.00531897
0.00507642
0.00520922
0.00474436
23.5186
60.5307
89.1839
113.5
149.859
209.563
230.706
138.143
76.6588
40.9457
24.5958
22.0721
30.0636
38.3212
31.7767
19.9409
5.88461
0.336935
0.0397883
0.0265905
0.019554
0.0153578
0.0128158
0.0112406
0.0102476
0.00964206
0.00930055
0.00914881
0.00913339
0.00921525
0.00936345
0.00954937
0.00974788
0.00993458
0.0100841
0.0101744
0.010191
0.0101255
0.00997383
0.00974361
0.00944616
0.00909983
0.00872526
0.00833884
0.00795477
0.007584
0.00723381
0.00690879
0.00661101
0.00634024
0.00609619
0.00587713
0.00568014
0.00550688
0.00533995
0.00521335
0.00512136
0.00491088
0.00504144
0.0046419
29.0642
67.0345
90.6099
114.818
153.357
205.3
175.74
105.258
58.541
31.8739
21.0464
21.4886
31.0771
37.3448
28.4833
16.3345
3.70914
0.172492
0.0302043
0.0211947
0.0160673
0.0129155
0.0109688
0.00974155
0.00895107
0.00845474
0.00816105
0.00801387
0.00797345
0.0080101
0.00809992
0.00822186
0.00835881
0.00849379
0.00860605
0.00868096
0.008709
0.00867982
0.00858976
0.00844231
0.00824359
0.00800521
0.00774089
0.00746187
0.00717901
0.00690129
0.00663501
0.00638454
0.0061523
0.00593881
0.00574434
0.00556816
0.00540863
0.00526751
0.00513032
0.00502796
0.00495672
0.00477259
0.00489935
0.00455348
31.313
65.1338
87.253
115.337
156.369
183.864
130.005
78.0297
43.5133
24.8272
18.5978
21.4926
32.223
35.4356
25.3267
12.7511
2.30313
0.0891702
0.0232751
0.0170442
0.0132986
0.01094
0.00945701
0.00851272
0.00789323
0.007497
0.00725474
0.00712454
0.00707659
0.00708809
0.00714076
0.00721967
0.00731282
0.00740853
0.0074915
0.00755205
0.00758418
0.0075766
0.00752701
0.00743626
0.00730653
0.00714603
0.00696223
0.00676329
0.00655758
0.00635154
0.00615048
0.00595847
0.00577789
0.00560984
0.00545484
0.00531291
0.00518348
0.00506824
0.00495519
0.00487202
0.00481706
0.00465515
0.00477693
0.00447611
29.1399
59.3751
82.1082
109.64
149.091
162.52
101.199
57.9113
32.1322
19.8152
17.1392
22.0002
32.5425
32.4172
22.6901
9.81842
1.30906
0.044176
0.018046
0.0138185
0.0110951
0.00935383
0.00823656
0.00751812
0.00703923
0.00672989
0.00653655
0.00642911
0.00638429
0.00638454
0.00641602
0.00646821
0.00653247
0.00660065
0.00666313
0.00671272
0.00674428
0.00674927
0.00672502
0.00667109
0.00658788
0.00648092
0.00635384
0.00621247
0.00606299
0.0059102
0.00575834
0.00561104
0.00547045
0.00533792
0.00521417
0.00509968
0.00499443
0.00490022
0.00480675
0.00473905
0.00469693
0.00455398
0.00466999
0.00440761
25.849
53.1154
75.2387
101.359
136.466
118.98
72.0499
41.2438
23.7298
16.5296
16.5128
22.8456
31.7108
29.3823
20.2582
7.50579
0.687854
0.023961
0.0142968
0.0113621
0.00937323
0.00808956
0.00725544
0.00671583
0.00635306
0.00611749
0.00596849
0.00588469
0.00584802
0.00584518
0.00586562
0.00590185
0.00594795
0.00599824
0.00604681
0.00608826
0.00611716
0.00612857
0.00611973
0.00608911
0.00603683
0.00596564
0.00587772
0.00577708
0.00566811
0.00555439
0.00543928
0.00532591
0.00521612
0.0051113
0.00501231
0.00491984
0.00483408
0.00475706
0.00467953
0.00462434
0.00459242
0.00446584
0.00457551
0.00434638
22.3344
46.9329
67.4981
96.1201
114.894
81.7323
49.7992
28.9651
18.0946
14.6461
16.5746
24.0577
30.736
26.3872
17.3202
5.21765
0.304193
0.0152296
0.0115149
0.00947355
0.00803937
0.00710696
0.00649285
0.00609018
0.0058161
0.00563657
0.00552251
0.00545849
0.00543037
0.00542784
0.00544284
0.00546971
0.00550476
0.00554385
0.00558275
0.00561776
0.00564397
0.00565843
0.00565833
0.00564249
0.00561072
0.00556343
0.00550232
0.00543055
0.00535073
0.00526562
0.00517798
0.00509035
0.00500433
0.00492117
0.00484179
0.00476699
0.00469705
0.00463396
0.00456965
0.00452443
0.00450067
0.00438834
0.00449132
0.00429123
19.3391
41.3567
59.4433
83.1419
94.4569
58.5184
34.4551
20.7314
14.6901
13.8159
17.1915
25.6641
29.1924
23.1739
14.1494
3.30197
0.13007
0.0111972
0.00947889
0.00806611
0.00703376
0.00635112
0.00589609
0.00559644
0.00539392
0.00526068
0.00517525
0.00512706
0.0051061
0.00510462
0.00511661
0.00513777
0.00516587
0.00519749
0.00522937
0.00525906
0.00528297
0.00529877
0.00530349
0.0052967
0.00527821
0.00524698
0.00520433
0.00515296
0.00509407
0.00502987
0.00496278
0.00489468
0.00482698
0.00476075
0.00469693
0.00463628
0.00457919
0.00452739
0.00447404
0.00443682
0.00441959
0.00431966
0.00441582
0.00424124
17.211
40.9231
57.0864
75.8096
63.6993
39.5133
23.6965
15.6112
12.9363
13.748
18.2505
26.1042
25.9298
20.4773
11.606
2.02257
0.0536314
0.00891935
0.00801287
0.00705086
0.00631697
0.00582541
0.00549317
0.00526414
0.00509995
0.00498621
0.00491266
0.00487115
0.00485293
0.00485119
0.00486065
0.00487795
0.00490122
0.00492751
0.00495452
0.00498032
0.00500208
0.00501825
0.00502608
0.00502521
0.00501524
0.00499487
0.00496533
0.00492838
0.00488469
0.00483598
0.00478435
0.00473117
0.00467769
0.00462476
0.00457327
0.00452399
0.00447728
0.00443474
0.00439033
0.0043596
0.00434749
0.00425847
0.00434774
0.0041957
16.0889
38.8269
56.5809
69.3142
43.6337
26.305
16.7031
12.7594
12.3391
14.2522
19.0965
24.8303
23.7404
18.5469
9.88196
1.31197
0.0246778
0.00790649
0.00724338
0.00647515
0.00591335
0.00551118
0.00521623
0.00500957
0.00487081
0.00477922
0.0047184
0.00468091
0.00466213
0.0046577
0.00466362
0.00467694
0.0046956
0.00471746
0.00474047
0.00476304
0.00478288
0.0047985
0.00480805
0.00481087
0.00480618
0.0047929
0.00477258
0.00474572
0.00471297
0.00467578
0.00463573
0.00459396
0.00455149
0.00450903
0.00446733
0.00442715
0.00438877
0.00435385
0.00431674
0.00429127
0.00428314
0.00420374
0.00428617
0.00415407
17.354
47.2772
68.6034
49.5336
29.4601
17.7946
12.6787
11.5473
12.574
15.2734
20.4801
23.3664
21.0394
16.2469
8.05261
0.81651
0.0145986
0.0084585
0.00758957
0.00659477
0.00588035
0.00544092
0.00517682
0.00497636
0.00480934
0.00468081
0.00459363
0.00454258
0.00451644
0.0045069
0.00450861
0.00451823
0.00453316
0.00455156
0.00457182
0.00459196
0.00461046
0.00462546
0.00463594
0.00464106
0.00463959
0.00463121
0.00461717
0.00459737
0.00457246
0.00454374
0.00451228
0.00447911
0.00444503
0.00441064
0.00437659
0.00434358
0.00431187
0.00428304
0.00425191
0.00423057
0.00422549
0.00415458
0.00423031
0.00411593
16.602
57.0404
51.5981
29.7978
17.695
12.1363
10.7078
11.4823
13.4232
16.7673
20.3278
19.8361
18.6285
14.6918
6.95616
0.713032
0.0169358
0.0114372
0.00881046
0.00740816
0.00650942
0.00585398
0.00533336
0.00495823
0.00473489
0.00459533
0.00450345
0.00444235
0.00440506
0.00438634
0.00438121
0.00438572
0.00439653
0.0044115
0.00442946
0.0044476
0.00446472
0.00447927
0.0044903
0.00449698
0.00449806
0.00449385
0.00448461
0.00447045
0.00445194
0.00443009
0.00440571
0.00437963
0.00435247
0.0043248
0.00429714
0.00427015
0.00424408
0.00422035
0.0041943
0.00417638
0.00417371
0.00411032
0.00417971
0.00408098
15.7488
62.2186
29.13
16.2035
10.8412
9.53652
10.3999
12.2753
14.812
17.6938
18.6303
18.1275
17.2002
14.0471
6.47261
0.483599
0.0189723
0.0159038
0.0127489
0.0101053
0.00782452
0.00696073
0.00647263
0.00572549
0.00509574
0.00473205
0.00452381
0.0044105
0.00434888
0.00431672
0.00430307
0.00430172
0.0043082
0.00431991
0.00433513
0.00435088
0.00436576
0.00437886
0.00438884
0.00439493
0.00439654
0.00439378
0.00438649
0.00437502
0.00435999
0.00434207
0.00432194
0.00430029
0.00427762
0.00425442
0.00423112
0.00420833
0.00418632
0.00416632
0.00414404
0.00412867
0.00412761
0.00407063
0.00413404
0.00404897
11.9716
12.2579
9.3455
7.90407
7.9736
9.17095
11.2267
13.6805
16.8025
19.1416
17.1184
15.3699
14.3254
12.1148
6.67578
1.78576
0.16551
0.108821
0.0686519
0.0272273
0.0120864
0.00846906
0.00663423
0.00578336
0.00527123
0.00479726
0.00452388
0.00436729
0.00428066
0.00423504
0.00421429
0.00420897
0.00421311
0.00422346
0.00423743
0.00425242
0.00426681
0.00427978
0.00429017
0.004297
0.00430015
0.00429951
0.00429485
0.00428647
0.004275
0.00426091
0.00424481
0.0042273
0.00420878
0.0041897
0.00417048
0.0041516
0.00413333
0.00411675
0.00409791
0.00408501
0.00408524
0.00403425
0.0040922
0.00401957
6.97603
6.11494
6.21657
6.96276
8.2559
10.1778
12.8254
15.6001
18.1213
19.1395
16.692
13.8876
12.5168
10.9199
6.7548
2.11452
0.497011
0.57696
0.545574
0.336769
0.164732
0.0721008
0.0203513
0.00739862
0.00611472
0.00504769
0.00457956
0.00434853
0.00423144
0.00416959
0.00413968
0.00412893
0.00412979
0.00413796
0.00415003
0.00416376
0.00417748
0.0041899
0.00420045
0.00420812
0.00421276
0.00421424
0.00421231
0.00420722
0.00419933
0.00418903
0.00417686
0.00416329
0.00414869
0.00413342
0.00411789
0.00410249
0.00408745
0.00407378
0.00405777
0.00404695
0.00404822
0.00400225
0.00405547
0.00399296
0.00466572
0.00525287
0.007258
0.0125249
0.022701
0.0390177
0.0634091
0.0980626
0.143023
0.195661
0.252234
0.308373
0.359996
0.401505
0.446365
0.480274
0.59332
0.666261
1.22474
0.687498
0.00456256
0.00531202
0.00821767
0.0158394
0.0303999
0.0537198
0.088589
0.137185
0.198235
0.267598
0.340859
0.413438
0.48317
0.54201
0.609139
0.663951
0.831444
0.875255
1.69536
1.34683
0.00449208
0.00554386
0.00977767
0.0206912
0.0412264
0.0740883
0.122879
0.188888
0.268723
0.356722
0.447752
0.538142
0.624929
0.707607
0.791347
0.874537
1.0818
1.13069
1.60917
2.04384
0.00446768
0.00602129
0.0122272
0.02779
0.0566043
0.102577
0.169511
0.25645
0.357206
0.464805
0.573392
0.681108
0.782826
0.887631
0.987166
1.09519
1.28781
1.44762
1.65314
2.27376
0.00450979
0.00690259
0.0161413
0.0385113
0.0792711
0.143554
0.233851
0.345504
0.469388
0.597391
0.723415
0.846542
0.962778
1.08277
1.2004
1.33132
1.49741
1.75645
1.90731
2.34043
0.00465808
0.00854293
0.0228144
0.0559496
0.11501
0.205403
0.326008
0.467542
0.618176
0.768595
0.912939
1.05054
1.18133
1.31335
1.44899
1.6031
1.76852
2.04842
2.25223
2.57302
0.00503655
0.0118652
0.0355138
0.0878353
0.177172
0.305964
0.466755
0.645152
0.826666
1.00109
1.16361
1.31499
1.45931
1.60422
1.75762
1.93395
2.12217
2.39942
2.67042
2.99652
0.00638154
0.0224889
0.0709623
0.163992
0.304717
0.48718
0.696059
0.912588
1.12137
1.31379
1.48823
1.64868
1.80282
1.9601
2.13062
2.32794
2.54747
2.83247
3.15056
3.51502
0.0210337
0.0876128
0.211034
0.380229
0.587292
0.820935
1.06342
1.2975
1.51211
1.70381
1.87555
2.03471
2.19132
2.3562
2.53993
2.75392
2.99901
3.29583
3.63652
4.02254
0.115405
0.362206
0.631781
0.879604
1.11864
1.3547
1.58114
1.78957
1.97602
2.14187
2.29288
2.43777
2.58686
2.75081
2.93952
3.16186
3.42038
3.7224
4.06467
4.44453
0.498232
1.02914
1.40435
1.65634
1.85472
2.02947
2.18897
2.33394
2.4652
2.58599
2.70205
2.82115
2.95234
3.10514
3.28878
3.51105
3.7746
4.07913
4.41899
4.78825
1.60123
2.17842
2.45107
2.59418
2.68379
2.75218
2.81534
2.8779
2.94152
3.00844
3.08236
3.16878
3.27479
3.40895
3.58181
3.80613
4.09511
4.44407
4.82723
5.22337
3.383
3.45337
3.48259
3.48082
3.45869
3.42616
3.39922
3.38448
3.38428
3.39966
3.43205
3.48418
3.56067
3.67088
3.83578
4.09239
4.4896
4.96741
5.4501
5.88553
4.35273
4.32693
4.18334
4.08802
4.0157
3.94784
3.88009
3.82105
3.78014
3.75967
3.7594
3.77673
3.8044
3.84917
3.95167
4.19375
4.51588
4.79327
5.05158
5.25008
4.39287
4.38959
4.30558
4.21994
4.14063
4.06754
4.00287
3.94988
3.9092
3.87728
3.85028
3.82031
3.77787
3.72791
3.70249
3.74104
3.81727
3.90375
3.94348
3.93945
4.22389
4.19683
4.147
4.08431
4.0172
3.95155
3.88788
3.82496
3.76016
3.68976
3.61087
3.52251
3.4262
3.33007
3.25164
3.1944
3.1051
2.95066
2.74134
2.49124
4.06476
3.99583
3.94351
3.89026
3.83077
3.76432
3.69016
3.60626
3.51005
3.39968
3.27462
3.13543
2.98423
2.82566
2.6641
2.49489
2.2991
2.06256
1.78488
1.47421
3.83954
3.75937
3.70263
3.64842
3.58677
3.51382
3.42778
3.32715
3.21037
3.07622
2.9242
2.75472
2.56918
2.36971
2.15741
1.92909
1.67706
1.39752
1.09604
0.786732
3.58839
3.50165
3.44303
3.38731
3.32256
3.24362
3.14828
3.03517
2.9033
2.75211
2.58168
2.3927
2.18632
1.96389
1.72635
1.47377
1.20654
0.928995
0.652568
0.39797
3.3008
3.20976
3.15032
3.09343
3.02627
2.94318
2.84194
2.72155
2.58154
2.42187
2.24297
2.04581
1.8318
1.60278
1.36105
1.10978
0.854361
0.604538
0.376474
0.194242
2.96406
2.87025
2.81169
2.7556
2.68881
2.60543
2.50333
2.38172
2.24048
2.07997
1.90106
1.70517
1.49428
1.27109
1.03937
0.804816