/*--------------------------------*- C++ -*----------------------------------*\
| =========                 |                                                 |
| \\      /  F ield         | OpenFOAM: The Open Source CFD Toolbox           |
|  \\    /   O peration     | Version:  v1606+                                |
|   \\  /    A nd           | Web:      www.OpenFOAM.com                      |
|    \\/     M anipulation  |                                                 |
\*---------------------------------------------------------------------------*/
FoamFile
{
    version     2.0;
    format      ascii;
    class       volScalarField;
    location    "10";
    object      p_rgh;
}
// * * * * * * * * * * * * * * * * * * * * * * * * * * * * * * * * * * * * * //

dimensions      [1 -1 -2 0 0 0 0];

internalField   nonuniform List<scalar> 
5080
(
421928
421961
422013
422085
422171
422270
422384
422505
422629
422761
422894
423024
423152
423274
423389
423493
423578
423644
423687
423710
421818
421856
421914
421987
422074
422174
422287
422407
422532
422663
422798
422931
423062
423189
423311
423428
423534
423616
423672
423713
421643
421680
421736
421809
421895
421995
422107
422226
422348
422474
422601
422724
422843
422957
423063
423159
423242
423312
423369
423422
421388
421424
421479
421551
421638
421737
421849
421969
422095
422228
422364
422499
422634
422757
422858
422935
423003
423064
423114
423154
421066
421102
421157
421227
421312
421410
421519
421636
421757
421885
422015
422142
422265
422384
422487
422571
422640
422701
422740
422815
420688
420723
420776
420845
420927
421021
421126
421237
421352
421472
421594
421714
421833
421948
422057
422157
422248
422311
422369
422403
420262
420296
420348
420414
420492
420582
420682
420787
420895
421009
421123
421235
421344
421450
421549
421648
421743
421842
421877
422027
419797
419831
419880
419943
420018
420103
420197
420297
420398
420505
420613
420714
420816
420904
420979
421038
421088
421115
421173
421213
419302
419334
419382
419441
419511
419591
419679
419771
419864
419965
420065
420168
420267
420364
420446
420510
420556
420650
420582
420762
418786
418816
418861
418915
418980
419052
419131
419211
419295
419382
419476
419567
419657
419741
419801
419844
419859
419824
419921
419805
418255
418284
418324
418373
418429
418491
418557
418622
418687
418760
418834
418905
418976
419032
419083
419110
419120
419166
419100
419338
417717
417744
417780
417821
417867
417917
417967
418011
418055
418105
418153
418202
418243
418283
418319
418341
418367
418319
418450
418224
417180
417205
417235
417268
417302
417337
417367
417388
417407
417428
417448
417459
417464
417466
417449
417436
417371
417380
417239
417648
416651
416673
416698
416720
416741
416759
416767
416763
416753
416741
416722
416690
416649
416593
416538
416458
416412
416271
416395
416071
416136
416155
416173
416185
416192
416191
416176
416145
416104
416053
415990
415912
415813
415696
415556
415397
415152
415055
414608
415264
415641
415656
415667
415669
415661
415641
415602
415545
415470
415378
415269
415136
414970
414770
414537
414261
413999
413516
413694
412492
415170
415182
415185
415177
415155
415116
415055
414972
414863
414729
414569
414373
414127
413821
413447
412991
412348
411817
410563
411502
414727
414735
414732
414714
414679
414624
414544
414436
414296
414119
413904
413639
413301
412864
412316
411619
410757
409547
409251
406073
414315
414320
414311
414285
414238
414170
414075
413948
413779
413563
413293
412954
412513
411929
411163
410149
408720
406817
403862
402582
413935
413938
413925
413891
413837
413761
413657
413514
413322
413071
412749
412336
411789
411050
410038
408652
406772
403557
401643
388031
94928.4
40880.4
22877.1
12906.3
11400.8
10745.2
13697.5
28521.6
88737.3
213274
340691
342551
264471
157238
77713.5
39143
25727.9
20085.5
16655.6
15023.3
14692.8
14734.4
14408.5
13785.9
13562.1
13431.8
13784.1
13583.9
12312.6
10672.9
10195.1
10177.4
10241.7
7386.22
9679.77
11896.5
12489
13364.3
14895.8
14734.9
13680.4
12296.7
10815.9
8470.11
7177.21
7921.94
8382.56
7900.5
6801.48
5446.78
4958.85
4961.98
4846.49
3257.81
444.705
121.772
96.4412
359.333
2936.31
5367.07
84249.1
33352.6
15749.4
9244.12
6750.52
5638.42
4621.28
5140.07
29950.3
123530
249606
281690
224085
132983
64839.7
33312.7
22323.9
18105.6
15609.2
14626.8
14515.8
14267.1
13990.1
14213
14343.8
14323.4
14030
13357.7
11697.6
9611.29
9797.58
10117.3
6895.48
2280.94
7143.7
14076.9
16000.2
16728
16090.1
15332.7
14056.2
12326.8
10834.2
8206.53
6214.74
6690.55
7678.08
7095.44
3699.6
484.127
23.6195
-23.2234
26.3422
63.0002
33.0201
62.4791
273.761
89.5476
1375.12
4551.2
61867.1
17415.5
5775.5
3401.97
2642.99
2650.52
2845.13
3758.92
13588.9
71206.5
181938
227066
185862
106050
47290.4
24738.8
17814.4
15226.9
14295
14170.7
14389.5
14301.4
13821.4
13347.8
13237.2
13079.1
13244.3
12817.9
7820.17
734.694
-22.6581
129.859
80.1276
509.247
4018.6
13987.8
16355.4
16346.4
16053
15383.4
11715.2
6382.09
3558.6
1554.85
172.781
-42.8392
-54.8013
-60.7369
-41.3379
-1.61738
-2.58694
-22.352
-20.6939
599.244
1172.52
901.684
346.493
44.5125
-66.251
-71.9578
46422.7
9427.29
3437.17
2843.95
2672.33
2711.1
2812.92
3373.06
8958.26
42387.2
141015
186822
153243
76919.2
23245.7
11046.4
8335.48
5692.48
2337.17
181.225
7.74035
4.94197
97.3951
287.491
270.743
44.7266
-52.567
-58.588
-56.762
-47.3936
-37.9805
-44.914
-45.2614
180.735
5313.72
8237.51
7999.76
6313.04
3071.46
754.375
52.8082
-45.9843
-49.6637
-45.0237
-43.5793
-45.0247
-47.5642
-48.225
-48.2031
75.1668
101.736
74.4157
-29.7214
-42.6642
1.32626
174.625
165.756
82.8956
-30.1882
-61.5844
40998.3
9791.72
2763.69
2703.24
2648.84
2657.77
2707.95
2906.08
5939.02
25781
112328
155617
123593
43117.5
2893.08
-91.6269
88.1322
27.3127
-5.80714
-14.8651
-13.8873
-23.2787
-31.3542
-38.0818
-39.7203
-37.0219
-37.749
-42.1199
-46.7686
-43.1632
-41.9467
-44.8425
-44.7779
-36.465
-98.7872
-76.4096
-81.353
-82.08
-74.3467
-60.9809
-56.875
-56.2712
-56.2373
-53.2653
-48.02
-45.842
-49.378
-52.3607
-36.9309
-32.5743
-28.5958
-34.0255
-28.7509
-40.1707
-61.8917
-65.0384
24.4415
84.9527
44.8446
-56.573
35431.5
11841.5
2697.06
2669.47
2604.47
2572.83
2560.7
2531.76
3983.05
14988.6
88168.9
128191
93510.6
15086.7
834.257
40.5819
128.261
91.3925
34.1384
1.49015
-13.919
-23.4856
-30.4997
-35.468
-37.8822
-39.3682
-42.1734
-45.0886
-45.6017
-43.4879
-42.7705
-43.6436
-40.8179
-32.9568
-61.1461
-66.7142
-71.4924
-75.3637
-76.1667
-71.6306
-62.149
-56.6633
-54.8497
-51.8206
-48.1506
-46.6793
-42.5078
-44.9871
-49.6645
-50.1581
-44.5896
-38.4906
-35.841
-13.8479
14.5835
-1.66637
-3.6787
-31.237
-56.0069
-57.9204
27225.9
19511.5
2740.34
2644.18
2564.55
2509.1
2475.19
2377.46
3122.15
8706.04
70330.4
104275
62256.1
5139.54
543.677
54.424
91.3196
63.4699
20.8217
-1.99581
-14.6046
-23.3162
-29.8953
-34.7111
-37.4682
-38.9273
-40.6415
-43.446
-44.0052
-43.0489
-42.6202
-43.2545
-41.1989
-40.3098
-57.1248
-65.4312
-70.6182
-73.7619
-72.9463
-67.7221
-61.0347
-56.6925
-55.2449
-52.8858
-45.5183
-39.4145
-40.7061
-43.0278
-50.0706
-49.1764
-46.4783
-20.2294
-14.0452
-28.6937
-49.3848
-66.3228
-70.1785
-57.9552
-56.2989
-58.4912
44147
25729.7
2949.29
2606.34
2532.65
2471.67
2429.22
2328.56
2727.95
5772.96
57793.6
85551.4
42541.5
2436.8
289.541
54.573
56.0453
38.1989
11.9184
-4.84383
-15.5628
-23.7325
-29.9311
-34.4705
-37.2673
-38.8119
-40.3418
-42.346
-42.918
-42.4324
-42.2309
-42.7489
-41.8535
-43.0789
-53.9625
-62.2893
-66.7562
-69.6694
-69.9754
-67.2261
-62.7305
-54.409
-51.2046
-48.5878
-46.0803
-46.805
-49.971
-50.2661
-49.5725
-42.4955
-41.2724
-42.7527
-49.2948
-59.7601
-70.3283
-75.5308
-69.3216
-59.9021
-56.7217
-57.6346
56352.1
25818.2
3111.62
2605.72
2518.51
2458.78
2410.05
2326.75
2549.49
4497.04
51382
73049.1
33814
1234.07
155.196
41.9046
26.6631
14.8373
1.09461
-9.46316
-17.9347
-25.0715
-30.66
-34.7887
-37.4858
-39.113
-40.4567
-41.851
-42.2761
-41.9051
-41.7671
-42.1867
-41.6691
-43.1785
-50.7644
-58.5047
-64.4707
-67.7684
-68.0544
-66.5699
-63.5292
-60.3018
-57.543
-55.4522
-54.0976
-52.519
-51.6881
-50.1765
-48.258
-47.5145
-47.7919
-48.6349
-50.6475
-58.2001
-67.1452
-71.2601
-66.9904
-60.1037
-56.4198
-56.6039
63682.5
28974
4044.45
2656.78
2522.79
2460.98
2407.74
2348.35
2481.45
4456.9
50485.2
66466.9
31397.3
640.926
74.7496
22.6429
5.02044
-3.33983
-9.51754
-15.0638
-21.0376
-26.9618
-31.834
-35.5745
-38.1316
-39.7321
-40.8722
-41.7969
-41.9927
-41.4747
-41.0191
-41.2901
-41.6737
-44.0027
-49.7491
-56.2717
-62.0356
-66.2468
-68.1828
-67.9074
-66.2186
-63.9578
-61.3729
-58.5234
-55.7216
-53.5764
-52.0325
-51.3044
-50.6805
-49.9051
-48.737
-48.6433
-50.8215
-56.7328
-63.4792
-66.7247
-63.8929
-59.1313
-56.227
-55.9621
71222.8
53060.4
21216.3
2785.64
2530.3
2465.11
2414.1
2374.76
2464.56
5403.77
53090.4
64744.1
31476.2
324.761
24.9756
3.42803
-9.33537
-15.0946
-17.3958
-19.7627
-23.7786
-28.6918
-33.1233
-36.5557
-38.9768
-40.5048
-41.4672
-41.9616
-41.907
-41.4364
-41.1069
-41.2038
-41.7071
-43.7927
-48.4482
-54.2976
-59.9285
-64.3293
-66.8532
-67.3694
-66.3752
-64.5841
-62.2853
-59.6
-56.8517
-54.5559
-52.9828
-51.9092
-50.8362
-49.7181
-48.7795
-48.8309
-50.7638
-55.2571
-60.1758
-62.683
-61.0602
-58.0888
-56.0792
-55.5161
79300
73625.9
37238.6
2937.45
2532.95
2468.42
2415.66
2395.58
2469.31
7177.47
57652
66516.6
32320.7
155.521
-2.56358
-11.8772
-18.6765
-21.9198
-22.2257
-22.9188
-25.7184
-29.9631
-34.0821
-37.3972
-39.7392
-41.2051
-42.0547
-42.4139
-42.2204
-41.6483
-41.113
-40.9412
-41.3652
-43.2208
-47.0957
-52.2301
-57.5467
-62.0664
-65.0958
-66.3728
-66.1493
-64.8962
-62.9112
-60.4133
-57.7581
-55.3791
-53.5006
-52.0502
-50.7967
-49.6509
-48.815
-48.9157
-50.601
-54.0637
-57.6313
-59.5511
-58.7571
-56.9549
-55.5611
-54.9423
86958.8
82242.4
26160.7
3052.1
2548.87
2479.67
2412.4
2408.63
2483.17
9894.49
63466.2
70503.5
32978.1
49.1689
-15.937
-22.4945
-24.9478
-25.9984
-25.0903
-24.9719
-27.0597
-30.7746
-34.5826
-37.8022
-40.1508
-41.6341
-42.4543
-42.7237
-42.4592
-41.8164
-41.1453
-40.7748
-41.0409
-42.5889
-45.8489
-50.4068
-55.4086
-59.9533
-63.3105
-65.1429
-65.5156
-64.7236
-63.0466
-60.7566
-58.2085
-55.7908
-53.7404
-52.0712
-50.6656
-49.5137
-48.8495
-49.1031
-50.5707
-53.1431
-55.652
-57.0784
-56.7383
-55.713
-54.761
-54.2219
92544.6
70278.6
27685.3
7830.49
4523.54
2648.13
2366.64
2389.28
2476.04
13265.5
70035.7
75718
32548.7
-33.9663
-20.4859
-28.7138
-29.0358
-28.7799
-27.1751
-26.5749
-28.1138
-31.196
-34.5773
-37.6412
-40.0103
-41.5844
-42.4608
-42.7498
-42.5141
-41.8934
-41.1794
-40.6989
-40.8337
-42.105
-44.857
-48.9146
-53.5436
-57.9525
-61.4169
-63.5615
-64.3319
-63.8982
-62.5057
-60.4392
-58.0415
-55.6692
-53.5701
-51.836
-50.4583
-49.463
-49.0086
-49.294
-50.4234
-52.2313
-53.9834
-55.0561
-54.9948
-54.457
-53.8339
-53.3929
85435.3
75463.8
75180.8
61775.9
21450.9
2305.55
2297.54
2340.92
2426.08
17701.8
77251.4
81640.6
30917.1
-44.5997
-21.3355
-31.6008
-31.397
-30.6804
-28.9042
-28.0454
-28.9186
-31.1803
-34.0017
-36.8366
-39.2264
-40.9364
-41.9573
-42.3588
-42.2254
-41.7173
-41.0862
-40.6406
-40.7663
-41.8934
-44.3003
-47.8527
-51.9794
-56.0663
-59.3364
-61.5311
-62.4936
-62.3042
-61.1652
-59.3541
-57.1999
-55.0315
-53.0965
-51.5028
-50.2668
-49.4094
-49.0234
-49.2261
-50.0437
-51.3141
-52.5596
-53.3851
-53.4751
-53.2254
-52.8466
-52.4827
89124.1
89090.3
84321.9
78147.6
19652.8
2075.45
2198.99
2263.36
2321.77
24564.6
85007.7
88010.5
28592.3
-46.5619
-21.8104
-32.7048
-32.5747
-31.864
-30.0648
-29.1669
-29.6439
-31.3935
-33.4222
-35.6746
-37.8448
-39.6139
-40.8236
-41.4152
-41.513
-41.2386
-40.8381
-40.6025
-40.8797
-41.9771
-44.0891
-47.0937
-50.5497
-53.9814
-56.9454
-59.008
-60.03
-60.0364
-59.1866
-57.7269
-55.9452
-54.1146
-52.4399
-51.0277
-49.9205
-49.1588
-48.8107
-48.9365
-49.5197
-50.4192
-51.315
-51.9526
-52.1138
-52.0291
-51.8149
-51.5383
90342.1
88306.3
86535.6
50264.1
4620.61
1917.81
2087.82
2170.45
2173.03
34339.9
92951
94706.3
25550.5
-45.5137
-22.006
-32.9396
-33.0464
-32.5314
-30.8586
-30.074
-30.3097
-31.4658
-33.0874
-34.908
-36.6967
-38.2555
-39.4455
-40.1988
-40.5401
-40.5871
-40.5047
-40.5427
-40.9724
-42.0099
-43.7885
-46.2148
-49.0805
-51.9125
-54.434
-56.2924
-57.3216
-57.5073
-56.959
-55.872
-54.475
-52.9879
-51.5829
-50.3692
-49.409
-48.7483
-48.4354
-48.4965
-48.9018
-49.537
-50.1862
-50.6779
-50.8634
-50.8696
-50.7609
-50.5673
64529.1
58430.9
38676.3
3408.97
1749.13
1847.36
1980.8
2083.03
2010.29
46016
100720
101462
21812.8
-41.6522
-21.7449
-32.7936
-33.1281
-32.8471
-31.3753
-30.7447
-30.8466
-31.5997
-32.8397
-34.2962
-35.8092
-37.1929
-38.3161
-39.1177
-39.6189
-39.8904
-40.0661
-40.3247
-40.8637
-41.8436
-43.3627
-45.3712
-47.7012
-50.0373
-52.1384
-53.7594
-54.743
-55.052
-54.7522
-53.9863
-52.9293
-51.7568
-50.6133
-49.6009
-48.7875
-48.2185
-47.9324
-47.9404
-48.2115
-48.6579
-49.1299
-49.5081
-49.6917
-49.7423
-49.6958
-49.5422
5072.5
2782.23
1459.25
1590.43
1697.44
1786.35
1887.71
2019.57
1859.69
59493.6
108157
104089
18506.7
-34.5333
-20.6183
-32.5098
-33.0076
-32.9343
-31.6782
-31.2113
-31.2351
-31.7335
-32.6757
-33.8362
-35.0936
-36.3007
-37.3465
-38.1608
-38.7684
-39.1944
-39.5457
-39.9535
-40.561
-41.4886
-42.8079
-44.4892
-46.4084
-48.3503
-50.1121
-51.513
-52.4254
-52.8076
-52.6946
-52.184
-51.407
-50.5012
-49.587
-48.7549
-48.073
-47.5844
-47.3221
-47.2912
-47.4639
-47.775
-48.1179
-48.4082
-48.5755
-48.6416
-48.6308
-48.501
1525.53
1452.73
1468.46
1528.01
1649.23
1785.67
1791.17
1984.48
1733.78
75661.9
115239
106328
14886.4
-29.3508
-18.9758
-32.261
-32.8184
-32.8835
-31.8413
-31.5117
-31.5039
-31.8337
-32.5431
-33.4662
-34.5079
-35.5514
-36.5067
-37.2912
-37.9642
-38.4904
-38.9582
-39.4647
-40.113
-40.9923
-42.1546
-43.5824
-45.1844
-46.8095
-48.301
-49.5193
-50.3595
-50.7805
-50.7997
-50.483
-49.9271
-49.239
-48.5182
-47.8429
-47.2772
-46.8613
-46.6234
-46.5671
-46.6697
-46.8834
-47.1315
-47.3534
-47.4975
-47.5629
-47.5709
-47.4553
1504.89
1489.08
1462.89
1514.05
1764.57
2034.06
1706.38
1981.88
1624.56
93752.8
122512
107047
11154
-31.0846
-18.0708
-32.1927
-32.6957
-32.773
-31.9353
-31.6979
-31.6649
-31.8855
-32.4166
-33.1477
-34.0075
-34.9041
-35.7695
-36.5637
-37.2085
-37.783
-38.3206
-38.8869
-39.5546
-40.3883
-41.4256
-42.6559
-44.0118
-45.3854
-46.6579
-47.7217
-48.4922
-48.9302
-49.0416
-48.8704
-48.4879
-47.9763
-47.4173
-46.8776
-46.4143
-46.0645
-45.8524
-45.7821
-45.8362
-45.9801
-46.1582
-46.3262
-46.445
-46.5009
-46.5176
-46.4107
1509.5
1486.22
1483.97
3924.01
4269.29
1964.48
1613.87
2005.35
1533.86
112167
129948
105232
7452.83
-42.8197
-20.023
-32.4506
-32.7956
-32.6705
-32.0398
-31.795
-31.7452
-31.8859
-32.2784
-32.853
-33.5594
-34.3243
-35.0922
-35.8261
-36.4774
-37.0741
-37.6479
-38.2445
-38.9142
-39.7033
-40.6386
-41.7127
-42.876
-44.05
-45.1453
-46.079
-46.7837
-47.2239
-47.398
-47.3354
-47.0883
-46.7194
-46.2948
-45.871
-45.4975
-45.2076
-45.0222
-44.9468
-44.9685
-45.0627
-45.1888
-45.3141
-45.4088
-45.4518
-45.471
-45.3698
1517.84
1490.79
4790.13
6618.52
4240.88
1563.74
1465.64
1861.94
17500.5
128055
137582
99111.3
4048.79
-56.6793
-26.2531
-33.0586
-33.2114
-32.6492
-32.1289
-31.8527
-31.7635
-31.8367
-32.1186
-32.5646
-33.1416
-33.7919
-34.4734
-35.1382
-35.7671
-36.3645
-36.9501
-37.5552
-38.2139
-38.9589
-39.8083
-40.7564
-41.767
-42.7818
-43.7332
-44.5579
-45.2024
-45.6353
-45.851
-45.8687
-45.7267
-45.4724
-45.1587
-44.8333
-44.5378
-44.3016
-44.1431
-44.069
-44.0702
-44.1294
-44.2172
-44.3091
-44.3824
-44.4119
-44.4304
-44.3328
1511.33
8287.24
9260.07
6719.15
1651.52
1314.84
1346.87
1360.75
46198.9
141691
145439
87435.6
1476.91
-59.4938
-34.2497
-33.8181
-33.7136
-32.759
-32.2016
-31.869
-31.7264
-31.7377
-31.9305
-32.2729
-32.7406
-33.2881
-33.8803
-34.4817
-35.0746
-35.6554
-36.2347
-36.8318
-37.47
-38.1714
-38.9469
-39.7913
-40.6785
-41.5652
-42.3993
-43.1325
-43.7227
-44.1426
-44.3849
-44.4614
-44.4005
-44.2376
-44.0148
-43.7721
-43.5437
-43.3554
-43.2233
-43.1548
-43.1443
-43.1795
-43.2397
-43.3061
-43.3613
-43.3783
-43.3942
-43.2989
7331.38
11452.2
9418.05
2138.57
1165.9
1260.65
1325
1170.83
77439.1
152313
153384
71532.5
175.559
-49.6721
-38.6739
-34.3675
-34.11
-32.8477
-32.2325
-31.834
-31.6322
-31.5867
-31.7053
-31.9612
-32.3362
-32.7946
-33.3061
-33.8452
-34.3945
-34.9471
-35.5068
-36.084
-36.6944
-37.3525
-38.0632
-38.8211
-39.6072
-40.3891
-41.127
-41.7831
-42.3244
-42.7278
-42.986
-43.1053
-43.1062
-43.0158
-42.8671
-42.6931
-42.5221
-42.3763
-42.2695
-42.2097
-42.1939
-42.2136
-42.2541
-42.3014
-42.3418
-42.3479
-42.3606
-42.2671
11774
11660.1
2240.89
977.019
1084.66
1211.89
1325.89
1020.79
110581
160719
161418
53772.8
-41.255
-37.0913
-38.1621
-34.7236
-34.2721
-32.831
-32.1802
-31.7298
-31.4757
-31.3807
-31.438
-31.6219
-31.9183
-32.2989
-32.739
-33.2181
-33.7205
-34.2377
-34.769
-35.3188
-35.8967
-36.5112
-37.1636
-37.8483
-38.5505
-39.2457
-39.9037
-40.4944
-40.9919
-41.3769
-41.643
-41.7927
-41.8402
-41.8068
-41.7182
-41.6013
-41.4791
-41.3705
-41.2879
-41.2386
-41.2219
-41.2322
-41.2593
-41.2926
-41.3211
-41.3184
-41.3278
-41.2361
11601.3
2358.02
802.7
885.027
1040.13
1108.2
1374.29
873.278
142308
168665
169651
35743.9
-31.7123
-28.0244
-36.4372
-34.5693
-34.1676
-32.6542
-32.0125
-31.5365
-31.2489
-31.1157
-31.1228
-31.2488
-31.4799
-31.7936
-32.1706
-32.5931
-33.0476
-33.5254
-34.0227
-34.5407
-35.0832
-35.6542
-36.2532
-36.8747
-37.5061
-38.1287
-38.7194
-39.2541
-39.7123
-40.0784
-40.3465
-40.5171
-40.5994
-40.6104
-40.5702
-40.5004
-40.4195
-40.3434
-40.283
-40.2452
-40.2307
-40.236
-40.2544
-40.2778
-40.2973
-40.2876
-40.2938
-40.2043
2881.43
704.247
740.125
818.449
933.178
965.594
1232.3
31257.4
168158
176966
172042
19392.6
-37.3419
-24.0705
-34.6839
-33.9602
-33.6907
-32.2906
-31.7084
-31.2435
-30.9443
-30.7881
-30.7572
-30.8373
-31.0143
-31.2714
-31.5927
-31.9631
-32.3713
-32.8081
-33.2684
-33.7515
-34.2573
-34.7859
-35.3356
-35.9013
-36.4721
-37.0329
-37.5659
-38.052
-38.4751
-38.8225
-39.0885
-39.2725
-39.3805
-39.4259
-39.4245
-39.3932
-39.3469
-39.2989
-39.2586
-39.2324
-39.2221
-39.2257
-39.2388
-39.2554
-39.2682
-39.2534
-39.257
-39.17
695.448
680.736
713.657
772.329
948.097
916.693
675.407
96234.9
184961
185654
141608
7065.6
-51.4435
-26.5706
-33.1815
-33.0992
-32.7835
-31.7425
-31.2472
-30.8388
-30.5547
-30.3915
-30.3372
-30.3829
-30.5168
-30.7266
-30.9993
-31.3226
-31.687
-32.0834
-32.5058
-32.9523
-33.4206
-33.9085
-34.4127
-34.9284
-35.4463
-35.9538
-36.4369
-36.8806
-37.272
-37.6012
-37.8622
-38.0539
-38.1805
-38.2523
-38.2815
-38.2813
-38.2637
-38.2396
-38.2174
-38.2025
-38.1975
-38.2017
-38.212
-38.2243
-38.2324
-38.214
-38.2158
-38.1317
690.511
682.338
698.135
771.037
933.655
966.316
553.618
146553
193921
194346
108001
1533.16
-48.6038
-31.5475
-31.6118
-31.9105
-31.635
-31.0386
-30.6503
-30.3284
-30.081
-29.9266
-29.8622
-29.8844
-29.9851
-30.1555
-30.3861
-30.6675
-30.9911
-31.3485
-31.7339
-32.1436
-32.5745
-33.0232
-33.4853
-33.9557
-34.4265
-34.8876
-35.3271
-35.7334
-36.0963
-36.4077
-36.6617
-36.8569
-36.9963
-37.088
-37.141
-37.1656
-37.1715
-37.1677
-37.1613
-37.157
-37.158
-37.1643
-37.1737
-37.1834
-37.1886
-37.1681
-37.1687
-37.0879
685.376
679.504
687.114
734.917
766.016
917.301
18501.7
185744
202564
203166
71433.3
-34.2203
-35.7034
-32.65
-30.3582
-30.7497
-30.4399
-30.1748
-29.9325
-29.714
-29.5238
-29.3932
-29.3299
-29.3384
-29.4153
-29.554
-29.7495
-29.9942
-30.2802
-30.6009
-30.9507
-31.3248
-31.7194
-32.1307
-32.5534
-32.9824
-33.4112
-33.8312
-34.2321
-34.6053
-34.9425
-35.2364
-35.4818
-35.6775
-35.8253
-35.9314
-36.0026
-36.0466
-36.0715
-36.0845
-36.0917
-36.0974
-36.1045
-36.1137
-36.1236
-36.1321
-36.1358
-36.1145
-36.1146
-36.0374
679.557
675.647
681.63
710.209
714.237
571.171
117763
211533
211574
212250
36611.9
-32.6688
-25.5437
-30.9035
-29.471
-29.693
-29.3041
-29.2937
-29.1677
-29.0337
-28.9
-28.7996
-28.7455
-28.7476
-28.807
-28.9209
-29.0872
-29.3
-29.5521
-29.8386
-30.1545
-30.4948
-30.8548
-31.2304
-31.6164
-32.0077
-32.3986
-32.7817
-33.1485
-33.492
-33.8054
-34.0825
-34.3183
-34.5121
-34.6649
-34.7811
-34.8656
-34.9246
-34.9645
-34.9912
-35.01
-35.0246
-35.0377
-35.0505
-35.0618
-35.0702
-35.0734
-35.0522
-35.0523
-34.979
668.932
669.776
683.272
760.302
804.298
350.957
186267
220582
220695
184912
11674.5
-45.0956
-25.559
-29.4657
-28.6402
-28.682
-28.3494
-28.3954
-28.3549
-28.294
-28.2148
-28.1474
-28.1088
-28.1108
-28.159
-28.2548
-28.3972
-28.5824
-28.8048
-29.0602
-29.3442
-29.6525
-29.9798
-30.3217
-30.6735
-31.0304
-31.387
-31.7368
-32.0731
-32.3897
-32.6811
-32.9419
-33.1677
-33.3579
-33.5129
-33.6355
-33.7294
-33.7995
-33.8511
-33.8889
-33.9174
-33.9398
-33.9586
-33.9751
-33.9883
-33.9974
-34.001
-33.9806
-33.9811
-33.9119
665.189
667.226
672.584
717.099
673.228
95225.4
226511
229733
229991
111802
386.992
-39.0849
-29.8928
-28.0634
-27.3896
-27.4418
-27.3339
-27.476
-27.5215
-27.52
-27.4907
-27.4527
-27.4302
-27.4347
-27.4754
-27.5567
-27.6789
-27.84
-28.0361
-28.2636
-28.5184
-28.7968
-29.0934
-29.4037
-29.7239
-30.0493
-30.3747
-30.6942
-31.0028
-31.2952
-31.5662
-31.8114
-32.027
-32.2123
-32.3672
-32.4932
-32.5933
-32.6713
-32.7317
-32.7783
-32.8147
-32.8438
-32.868
-32.8881
-32.9034
-32.9137
-32.9181
-32.8991
-32.9002
-32.8351
649.073
665.682
774.631
763.186
296.464
201647
239115
238992
239386
56733.4
-35.3917
-26.1028
-26.9388
-26.1796
-25.9042
-26.1217
-26.2571
-26.5097
-26.6621
-26.7261
-26.7357
-26.7181
-26.7057
-26.7135
-26.7515
-26.8243
-26.9312
-27.072
-27.2451
-27.4476
-27.676
-27.9267
-28.1946
-28.4758
-28.7668
-29.0631
-29.3599
-29.652
-29.9354
-30.2056
-30.4576
-30.6879
-30.8933
-31.0727
-31.2255
-31.3526
-31.4564
-31.5399
-31.6066
-31.6599
-31.7026
-31.7375
-31.7663
-31.7897
-31.8072
-31.8189
-31.8244
-31.8072
-31.809
-31.7481
641.419
680.115
718.006
657.227
122156
248397
248562
248425
213381
17492.9
-41.9998
-24.8999
-26.0844
-25.304
-24.8785
-24.899
-25.2533
-25.5856
-25.7866
-25.8887
-25.9405
-25.9532
-25.9532
-25.9667
-26.0019
-26.0639
-26.1558
-26.2787
-26.4315
-26.6117
-26.816
-27.041
-27.2825
-27.5369
-27.8011
-28.0704
-28.3409
-28.6081
-28.8686
-29.1183
-29.3526
-29.5687
-29.7638
-29.9364
-30.0857
-30.2121
-30.3175
-30.4044
-30.4756
-30.5338
-30.5815
-30.621
-30.6538
-30.6802
-30.6998
-30.7129
-30.7198
-30.7044
-30.7071
-30.6502
692.096
746.821
673.276
41088.4
233920
258209
258001
258206
103802
-31.9011
-36.644
-30.3551
-25.9131
-24.322
-24.0343
-24.1688
-24.3732
-24.6934
-24.9534
-25.1153
-25.1835
-25.1859
-25.1711
-25.177
-25.206
-25.2639
-25.3491
-25.4594
-25.5951
-25.7554
-25.9378
-26.1391
-26.3563
-26.586
-26.8254
-27.0699
-27.3161
-27.5607
-27.8001
-28.0308
-28.2486
-28.4511
-28.6358
-28.8008
-28.9455
-29.0698
-29.1754
-29.2641
-29.338
-29.3997
-29.4513
-29.4946
-29.5306
-29.5595
-29.581
-29.5956
-29.6039
-29.5904
-29.5937
-29.5408
651.431
649.113
16860.6
212938
267939
267739
267509
263522
37249.8
-39.8035
-29.9172
-27.4292
-25.4591
-23.7806
-22.9232
-22.8022
-23.5001
-23.8949
-24.1237
-24.2544
-24.3641
-24.3889
-24.3654
-24.3704
-24.4017
-24.4511
-24.5217
-24.6166
-24.7361
-24.8784
-25.0406
-25.2203
-25.4153
-25.6223
-25.8385
-26.0601
-26.2842
-26.5081
-26.7282
-26.941
-27.1434
-27.3327
-27.5068
-27.6639
-27.8031
-27.9244
-28.029
-28.1181
-28.1936
-28.2576
-28.3121
-28.3583
-28.3968
-28.4278
-28.4509
-28.4668
-28.4762
-28.4646
-28.4684
-28.4194
498.411
20549.8
199429
278149
277884
277503
277703
140995
10.067
-36.4418
-37.1039
-32.0836
-28.535
-26.0362
-24.2823
-22.872
-22.9268
-23.1033
-23.3925
-23.5905
-23.6703
-23.6322
-23.5442
-23.5242
-23.5388
-23.5864
-23.6575
-23.7468
-23.8542
-23.9802
-24.1238
-24.2838
-24.4583
-24.6443
-24.8389
-25.0394
-25.2433
-25.4481
-25.6502
-25.8464
-26.034
-26.2106
-26.3742
-26.523
-26.6563
-26.774
-26.8766
-26.9651
-27.0413
-27.1068
-27.1633
-27.2116
-27.2519
-27.2843
-27.3087
-27.3257
-27.3361
-27.3262
-27.3305
-27.2851
99458.4
233043
289043
288956
288278
287832
267925
45289.5
-55.4287
-28.116
-30.5199
-30.947
-29.7576
-27.7052
-25.3728
-23.4369
-22.9902
-22.8801
-22.7454
-22.6822
-22.8785
-22.9462
-22.7765
-22.6931
-22.7029
-22.737
-22.7887
-22.8599
-22.9518
-23.0619
-23.1884
-23.3303
-23.4857
-23.652
-23.8266
-24.0079
-24.1933
-24.3803
-24.5655
-24.7462
-24.9199
-25.0841
-25.2373
-25.3777
-25.5048
-25.6181
-25.718
-25.8052
-25.8811
-25.9473
-26.0049
-26.0543
-26.0956
-26.129
-26.1543
-26.1721
-26.1833
-26.1749
-26.1797
-26.1376
413588
413589
413573
413536
413478
413400
413292
413140
412930
412649
412280
411800
411155
410266
409052
407191
405041
399460
394829
375549
413268
413268
413251
413213
413157
413083
412976
412820
412595
412289
411883
411342
410629
409603
408333
405976
403817
397252
391289
374940
412968
412969
412953
412919
412871
412806
412706
412546
412311
411984
411550
410963
410218
409111
407841
405427
403099
397776
391285
383844
412689
412692
412680
412655
412621
412571
412479
412318
412073
411729
411275
410666
409907
408820
407543
405512
403037
399678
393943
390503
412428
412435
412432
412422
412410
412377
412291
412127
411872
411515
411047
410436
409679
408673
407431
405810
403528
401461
397045
394109
412181
412194
412205
412221
412236
412219
412137
411968
411703
411336
410861
410261
409525
408606
407460
406144
404202
402556
399344
396483
411941
411964
411997
412049
412095
412093
412012
411838
411565
411194
410721
410140
409439
408599
407568
406422
404817
403282
400922
398446
411690
411732
411802
411904
411984
411996
411918
411741
411467
411098
410637
410080
409420
408645
407719
406680
405339
403924
402082
400020
411427
411477
411609
411785
411909
411940
411867
411694
411425
411066
410621
410089
409466
408745
407902
406948
405792
404511
402974
401223
411068
411202
411431
411679
411857
411921
411869
411710
411452
411104
410673
410161
409567
408887
408106
407220
406182
405013
403668
402139
410803
410973
411284
411631
411876
411977
411951
411809
411562
411224
410804
410308
409739
409094
408370
407549
406589
405507
404147
401061
295264
315408
348428
374551
385958
387201
386059
382490
377005
370220
362230
352909
342031
329160
314056
297328
274839
242925
203696
158463
19574.3
30376.7
47405.2
65547
79280.6
84628.5
84223.4
80578.2
73714
65045
55521.5
45596
35608.1
25833
16893.3
7634.89
-12.9362
-19.3311
-20.1382
-21.4591
-2.37649
-5.1235
-2.21815
-2.79725
-5.29113
-7.27662
-7.72556
-7.55733
-7.20769
-6.9432
-6.84948
-6.8942
-6.75664
-6.09395
-3.05252
2.70224
5.86285
5.21696
4.54622
3.73827
0.903938
1.27111
1.1739
0.822365
0.466279
0.144978
-0.198593
-0.4755
-0.679879
-0.821255
-0.896096
-0.987712
-1.13393
-1.3548
-1.6312
-1.94709
-2.88181
-3.7325
-3.96665
-3.82927
-1.28247
-1.30236
-1.35786
-1.67707
-2.21908
-2.72467
-3.04204
-3.17394
-3.17302
-3.097
-2.97758
-2.82644
-2.60093
-2.23379
-1.66216
-1.03245
-0.633554
-0.66771
-0.83504
-1.02379
-0.809342
-0.754124
-0.806322
-0.961758
-1.18494
-1.40213
-1.57337
-1.69119
-1.76387
-1.80142
-1.81271
-1.79975
-1.75035
-1.63712
-1.43193
-1.20728
-1.11089
-1.13238
-1.17692
-1.21194
-0.854355
-0.817419
-0.895695
-1.02764
-1.19993
-1.37261
-1.51312
-1.60643
-1.65158
-1.65481
-1.62452
-1.56682
-1.48198
-1.36708
-1.22594
-1.08115
-0.986385
-0.956989
-0.970019
-1.00931
-0.841636
-0.776498
-0.8456
-0.93127
-1.03809
-1.14615
-1.23726
-1.302
-1.33806
-1.34684
-1.3306
-1.29081
-1.22806
-1.14504
-1.04944
-0.957118
-0.892572
-0.866827
-0.874079
-0.906739
-0.797312
-0.686455
-0.754811
-0.808654
-0.877285
-0.948321
-1.01013
-1.05592
-1.08282
-1.09049
-1.07975
-1.05174
-1.00788
-0.951278
-0.888359
-0.829803
-0.788145
-0.77017
-0.77585
-0.80272
-0.735432
-0.567598
-0.647248
-0.676333
-0.721793
-0.769363
-0.811216
-0.842849
-0.861868
-0.867533
-0.860196
-0.840865
-0.811175
-0.773968
-0.733999
-0.698032
-0.673339
-0.664711
-0.673781
-0.700412
-0.658775
-0.424584
-0.531953
-0.536548
-0.567923
-0.598992
-0.625935
-0.646553
-0.659251
-0.663358
-0.659017
-0.64708
-0.628893
-0.606495
-0.582865
-0.56214
-0.549502
-0.549544
-0.563733
-0.590004
-0.583176
-0.251997
-0.416546
-0.391588
-0.416807
-0.435695
-0.450811
-0.462163
-0.468952
-0.470753
-0.467698
-0.460986
-0.451833
-0.441351
-0.430801
-0.422687
-0.422094
-0.433738
-0.457061
-0.48768
-0.599198
-0.0458978
-0.291908
-0.249111
-0.270419
-0.278861
-0.28367
-0.285727
-0.285008
-0.281855
-0.276938
-0.270757
-0.264428
-0.259942
-0.260261
-0.270454
-0.294067
-0.329105
-0.366498
-0.401172
345540
344098
333124
334738
336087
341896
347625
354591
359639
363779
364374
362170
356111
346033
328754
349681
340590
336649
332716
333675
338417
344407
350921
356022
359535
360577
358222
353453
345024
334772
366323
354696
345491
340630
340332
343335
347592
352397
356336
358759
359088
356978
352809
346584
339299
379715
370244
362633
357252
354287
353679
355167
357547
359491
360274
359594
357316
353605
348711
343128
387828
381047
374939
369855
366222
364184
363513
363516
363401
362673
361073
358543
355092
351031
346623
392373
387518
382803
378549
374981
372226
370211
368671
367192
365465
363227
360500
357195
350954
295754
395388
391726
387967
384339
380958
377986
375409
373118
370860
368569
365967
360554
305321
176503
13952.7
397553
394606
391460
388278
385242
382299
379570
377083
374545
368910
314291
184881
16944.7
-51.9054
-5.45822
399148
396693
393995
391263
388577
385855
383363
372917
315429
184312
16463.6
-51.6159
-3.46761
7.06701
0.52432
400322
398169
395918
393816
387316
354177
280929
149846
5935.52
-53.5074
-1.18571
7.77702
0.54342
-4.52945
-4.73869
392585
373701
338158
273149
175274
42840.2
-51.2368
-36.8049
3.02867
6.97177
0.600006
-4.259
-4.60969
-4.21743
-3.82419
107002
51720.2
-14.9177
-42
-32.7471
-2.01317
9.92948
2.87755
-1.58005
-4.70093
-4.01484
-3.64458
-3.528
-3.55711
-3.48811
-19.1692
-1.8046
9.80624
6.10214
2.71065
0.199089
-3.75213
-5.62522
-4.20361
-3.34162
-3.02735
-3.1103
-3.21704
-3.31446
-3.3651
2.30883
0.47414
-2.51791
-4.62061
-4.72248
-3.30629
-2.86609
-3.0204
-2.99845
-2.93307
-2.92916
-3.01667
-3.11647
-3.14723
-3.14058
-3.38974
-2.27232
-1.67019
-1.59736
-1.80547
-2.04286
-2.31482
-2.58503
-2.71707
-2.78658
-2.81864
-2.83808
-2.85615
-2.87606
-2.89344
-1.23415
-1.36603
-1.46039
-1.62392
-1.80183
-1.97905
-2.20482
-2.39722
-2.47536
-2.5097
-2.53393
-2.56765
-2.59623
-2.62036
-2.64315
-1.24617
-1.28008
-1.36703
-1.52815