/*--------------------------------*- C++ -*----------------------------------*\
| =========                 |                                                 |
| \\      /  F ield         | OpenFOAM: The Open Source CFD Toolbox           |
|  \\    /   O peration     | Version:  v1606+                                |
|   \\  /    A nd           | Web:      www.OpenFOAM.com                      |
|    \\/     M anipulation  |                                                 |
\*---------------------------------------------------------------------------*/
FoamFile
{
    version     2.0;
    format      ascii;
    class       volScalarField;
    location    "0.33";
    object      nut.air;
}
// * * * * * * * * * * * * * * * * * * * * * * * * * * * * * * * * * * * * * //

dimensions      [0 2 -1 0 0 0 0];

internalField   nonuniform List<scalar> 
6000
(
0.000528436
0.00482608
0.0077342
0.00843938
0.00865961
0.00874864
0.00878768
0.00880675
0.00881916
0.00882686
0.00883523
0.00884068
0.00884339
0.00884407
0.00884415
0.00884448
0.00884462
0.00884345
0.00884076
0.00883524
0.00882758
0.00882046
0.00880761
0.00878903
0.0087503
0.0086613
0.00844199
0.00773723
0.00483424
0.000528473
0.000439474
0.00296114
0.00594338
0.00775017
0.008606
0.00898986
0.00917503
0.0092745
0.00933374
0.00936741
0.00939093
0.00940442
0.00941339
0.00941839
0.00942117
0.00942002
0.00941749
0.00941359
0.00940707
0.00939519
0.00937052
0.00933546
0.00927602
0.00918017
0.00899936
0.00861613
0.00775803
0.00594679
0.00295862
0.000439534
0.000368544
0.00252681
0.00535503
0.00725944
0.00833966
0.00890531
0.00921151
0.00936397
0.00944087
0.00947824
0.0094997
0.00951088
0.00951581
0.009518
0.00951904
0.0095191
0.0095185
0.00951787
0.00951465
0.00950548
0.00948483
0.00944903
0.00937625
0.00922756
0.00892076
0.00835606
0.00727514
0.00536111
0.00251535
0.000367563
0.000350779
0.00269635
0.00516999
0.00697557
0.00809237
0.00874823
0.00913067
0.00935012
0.00946561
0.00952357
0.00954557
0.00955282
0.00955561
0.00955818
0.00955982
0.00956056
0.00956026
0.00955953
0.00955858
0.00955373
0.00953529
0.00948113
0.00936927
0.00915399
0.00877848
0.00813082
0.00701743
0.00520437
0.00270624
0.000349777
0.000352763
0.00278947
0.00509076
0.00672025
0.00780656
0.00850256
0.00893642
0.00920549
0.00936643
0.00945819
0.00950573
0.00953029
0.0095433
0.0095505
0.00955425
0.00955548
0.00955419
0.00954964
0.00953952
0.00951849
0.00947516
0.00938799
0.0092317
0.00896733
0.00853885
0.00784974
0.00676774
0.00513422
0.00281719
0.00035392
0.000350266
0.00276207
0.00495955
0.00649631
0.00754422
0.00825267
0.00872081
0.00903086
0.00923438
0.00936115
0.00944012
0.00948841
0.00951534
0.00952915
0.00953536
0.00953722
0.00953452
0.0095245
0.00950129
0.00945728
0.0093831
0.00926168
0.00906349
0.00875933
0.00829769
0.00759663
0.00655379
0.00501302
0.00279727
0.000352821
0.00034395
0.0026489
0.00473368
0.00623911
0.00731248
0.00806898
0.00858267
0.00891861
0.00913304
0.00926919
0.00936013
0.00942103
0.00945818
0.00947788
0.0094869
0.00948918
0.00948481
0.00946983
0.00943753
0.00938172
0.00929659
0.00916679
0.00895872
0.00862921
0.00812108
0.0073705
0.00630212
0.0047924
0.00268604
0.000347914
0.000332053
0.00241708
0.00444107
0.00602175
0.00719522
0.00802755
0.00859327
0.00895767
0.00916824
0.00928481
0.00935609
0.00940133
0.00943468
0.00945533
0.00946606
0.0094686
0.00946339
0.00944825
0.00942108
0.00938258
0.00931696
0.00920644
0.00900184
0.0086416
0.00808027
0.00725225
0.00608146
0.00449976
0.00245635
0.000336359
0.000310279
0.00215032
0.0042441
0.00601194
0.00728948
0.00815803
0.00874114
0.00914052
0.0093798
0.00947506
0.00950914
0.00954718
0.00956979
0.0095838
0.00959217
0.00959487
0.00959236
0.00958394
0.00956766
0.0095342
0.00950928
0.0094191
0.00918299
0.00878569
0.00820525
0.00733907
0.00606125
0.00428953
0.00219069
0.000315222
0.000283264
0.00187031
0.0042948
0.00629986
0.00765413
0.00846744
0.0090067
0.00943797
0.00977075
0.00992234
0.00992409
0.00990612
0.00990223
0.00991271
0.00992476
0.0099268
0.00991939
0.00991533
0.00992579
0.00995192
0.00995442
0.00980554
0.00947363
0.00904378
0.00850674
0.00769118
0.00633213
0.00431686
0.00188832
0.000287785
0.000275892
0.00199396
0.00475997
0.00701195
0.00833967
0.00897385
0.00939958
0.00981779
0.0102409
0.0105217
0.0106097
0.0106315
0.0106355
0.0106253
0.01062
0.0106222
0.0106318
0.010646
0.0106464
0.0106306
0.0105496
0.0102714
0.00984985
0.00943499
0.00901574
0.00837327
0.00702959
0.00475196
0.00198503
0.000278151
0.000292414
0.00273393
0.00587646
0.00804948
0.0092689
0.0098005
0.0100898
0.0104301
0.0108659
0.0111832
0.0113127
0.0114032
0.0114779
0.0115317
0.0115578
0.0115589
0.011535
0.011484
0.0114143
0.0113307
0.0112068
0.0108913
0.0104576
0.010125
0.00984326
0.00930598
0.00806515
0.00585935
0.00267807
0.000292862
0.000359498
0.00352585
0.00667461
0.00874718
0.00988285
0.0104962
0.0107413
0.010991
0.0113326
0.0115679
0.0117525
0.011926
0.0120777
0.0121867
0.0122429
0.0122429
0.0121869
0.0120789
0.0119296
0.0117613
0.0115787
0.011345
0.0110099
0.0107689
0.010526
0.00990707
0.00876124
0.00667355
0.00350469
0.000357966
0.000420381
0.00381694
0.00683203
0.00874666
0.00979678
0.0104559
0.0107942
0.011085
0.0113665
0.0115509
0.0117253
0.0119176
0.0120923
0.0122222
0.0122903
0.0122895
0.0122198
0.0120894
0.0119158
0.0117266
0.0115493
0.011371
0.0110959
0.0108109
0.0104754
0.00981473
0.00876174
0.00684594
0.00382402
0.000421556
0.000425182
0.00374623
0.00661699
0.00842829
0.00942832
0.0101062
0.0105318
0.0109009
0.0111961
0.0113779
0.011539
0.0117212
0.011898
0.0120338
0.0121058
0.0121039
0.0120285
0.0118908
0.0117147
0.0115356
0.0113746
0.0111905
0.0109032
0.0105408
0.0101202
0.00944252
0.0084441
0.00663388
0.00376025
0.000427273
0.000420378
0.00349265
0.00618609
0.00792884
0.0089433
0.00963931
0.0101405
0.0105999
0.0109544
0.0111627
0.0113262
0.0114974
0.0116653
0.0117965
0.0118662
0.0118635
0.0117889
0.0116546
0.0114865
0.0113175
0.0111542
0.0109507
0.0106013
0.0101446
0.00964759
0.00895319
0.00794238
0.00620308
0.00350942
0.000422534
0.000408013
0.00318981
0.00570678
0.00738231
0.00840811
0.00911689
0.00968127
0.0102389
0.0106616
0.0109103
0.0110938
0.0112623
0.0114192
0.0115422
0.0116077
0.0116043
0.0115326
0.011405
0.0112462
0.0110784
0.0108977
0.0106533
0.0102304
0.00967609
0.00911698
0.0084113
0.00739069
0.00571951
0.00320242
0.000410269
0.000392895
0.00291911
0.00523438
0.00682445
0.00784545
0.00856572
0.00918777
0.00982866
0.0103206
0.0106185
0.0108296
0.0110044
0.0111555
0.0112706
0.0113311
0.0113273
0.0112593
0.0111383
0.0109832
0.0108068
0.0105967
0.0103016
0.00980988
0.00917333
0.00855615
0.00784016
0.00682579
0.00524096
0.00292723
0.000395043
0.000378964
0.00266493
0.00477455
0.00626813
0.00727034
0.00800499
0.00868114
0.00939033
0.0099429
0.0102916
0.0105348
0.0107223
0.0108744
0.0109851
0.0110419
0.0110377
0.0109727
0.010855
0.0106978
0.0105077
0.010266
0.00991789
0.00936242
0.00865716
0.00798479
0.00725479
0.00626129
0.00477498
0.00266904
0.000380982
0.000363715
0.00241834
0.00432666
0.00572141
0.00669475
0.00744957
0.00817642
0.00894044
0.00954775
0.00994505
0.0102171
0.0104188
0.010576
0.0106869
0.0107424
0.010738
0.0106738
0.0105554
0.0103925
0.0101871
0.00991745
0.00952033
0.00890607
0.00814303
0.0074181
0.00666777
0.0057055
0.00432137
0.00241976
0.000365506
0.000347183
0.0020925
0.00386846
0.00518165
0.00612281
0.00690315
0.0076814
0.00849163
0.00914872
0.00958754
0.00988225
0.0100976
0.0102619
0.0103758
0.0104321
0.0104276
0.0103625
0.0102413
0.0100713
0.00985176
0.00955939
0.00911974
0.00845264
0.00764052
0.0068623
0.00608589
0.00515668
0.00385807
0.00209174
0.000348797
0.000329391
0.00177444
0.00342526
0.00465554
0.0055657
0.00636722
0.00719163
0.00804518
0.00875005
0.0092256
0.00953693
0.00976392
0.00993588
0.0100539
0.0101119
0.0101074
0.0100406
0.00991534
0.00973732
0.00950317
0.00919518
0.00872236
0.00800416
0.00714562
0.00632081
0.00552193
0.0046232
0.00341194
0.0017762
0.000330898
0.000310799
0.00152974
0.00302701
0.00415244
0.0050317
0.00585502
0.00671595
0.00760524
0.00835847
0.00886102
0.00918348
0.00942211
0.00960207
0.00972466
0.00978489
0.00978049
0.00971165
0.00958158
0.00939515
0.00915083
0.00882805
0.00832399
0.00755955
0.00666569
0.00580428
0.00498357
0.00411495
0.00301192
0.00153486
0.000312345
0.000292547
0.00134951
0.00267918
0.00369016
0.00453671
0.00536696
0.00625812
0.00717875
0.00796762
0.00849609
0.00883235
0.00907846
0.00926506
0.00939188
0.00945416
0.00944993
0.00937933
0.0092451
0.00905176
0.008799
0.00846079
0.00793013
0.00713059
0.0062043
0.00531232
0.00448534
0.00364901
0.00266022
0.00135366
0.000294146
0.000274922
0.00120647
0.00236643
0.00326544
0.00407682
0.00490992
0.00582795
0.00677906
0.00759024
0.00813861
0.00848117
0.0087352
0.00892875
0.00905899
0.00912281
0.00911883
0.0090472
0.00890993
0.0087102
0.00845042
0.00810386
0.0075505
0.00672958
0.0057719
0.00485177
0.00402182
0.00322034
0.00234234
0.00120811
0.000276563
0.000258047
0.00107208
0.00207721
0.00287506
0.0036391
0.00447433
0.00543544
0.00641366
0.00723133
0.00778817
0.00814309
0.00840301
0.00859889
0.00873009
0.00879418
0.00879052
0.00871924
0.0085815
0.00837991
0.00811452
0.00775409
0.00719086
0.00636446
0.00537928
0.00441413
0.00358077
0.00282582
0.00204749
0.0010676
0.000259642
0.000241778
0.000947028
0.00180173
0.0025033
0.00321411
0.00406841
0.00508534
0.00608722
0.00689758
0.00745412
0.00781712
0.00808157
0.00827753
0.00840732
0.00847046
0.00846719
0.00839761
0.00826178
0.00806033
0.0077904
0.00742131
0.00685781
0.00604005
0.00503039
0.00400757
0.00315338
0.00245074
0.00176698
0.000939494
0.000243219
0.000226541
0.000837823
0.00154876
0.00214815
0.00280361
0.00369776
0.00477686
0.00578966
0.00658049
0.00713105
0.00750133
0.00776875
0.00796298
0.00809044
0.00815248
0.00814973
0.00808221
0.00794933
0.00774979
0.00747679
0.0071002
0.00654279
0.00574498
0.00472599
0.00363842
0.00274277
0.00209403
0.00151096
0.000826284
0.000227862
0.000211552
0.000729827
0.00131164
0.0017952
0.00242744
0.00336879
0.00450741
0.00549863
0.00626479
0.00680922
0.0071875
0.00745987
0.00765462
0.0077814
0.00784319
0.00784097
0.00777474
0.00764327
0.00744351
0.00716558
0.00678105
0.00623021
0.00545773
0.00446113
0.00331451
0.00236987
0.00174031
0.00126981
0.000710642
0.000212617
0.000197992
0.000631911
0.00106981
0.00145294
0.00209432
0.00311316
0.00425298
0.00520434
0.00594412
0.00648472
0.00687431
0.00715542
0.00735466
0.00748353
0.00754639
0.00754464
0.00747823
0.0073453
0.00714138
0.00685482
0.00645911
0.00591288
0.00516717
0.00421101
0.00306623
0.00203889
0.00140161
0.00102566
0.000606427
0.000198528
0.000185491
0.000483133
0.000784035
0.00114936
0.00184255
0.00293308
0.00400598
0.00491194
0.00562875
0.00616761
0.00657121
0.00686567
0.00707351
0.00720716
0.00727219
0.00727075
0.00720271
0.00706551
0.00685339
0.00655385
0.00614481
0.00560068
0.00487916
0.00396943
0.00289264
0.00179405
0.00110344
0.000744279
0.00046081
0.000185517
0.000170834
0.000323449
0.000533442
0.00090659
0.00169649
0.002793
0.00380253
0.00466088
0.00535584
0.00589651
0.00631289
0.0066223
0.00684178
0.00698221
0.00705033
0.00704919
0.00697863
0.00683529
0.00661221
0.00629852
0.00587793
0.00533255
0.00463372
0.00377198
0.00275851
0.00165494
0.000866919
0.000506955
0.000311041
0.000170589
0.000155591
0.000226967
0.000375762
0.000739906
0.0016487
0.00270647
0.00366933
0.00448793
0.00516036
0.00569861
0.0061188
0.00643899
0.00666784
0.00681494
0.00688647
0.00688561
0.00681226
0.00666306
0.00643175
0.00610866
0.00568562
0.00514357
0.00446791
0.00364622
0.00268017
0.00161676
0.00071133
0.000360711
0.000219977
0.000155262
0.000141934
0.000177493
0.0003095
0.000707588
0.00169311
0.00270613
0.00361684
0.00439253
0.0050371
0.00556319
0.00597945
0.00629943
0.0065296
0.00667848
0.0067512
0.0067507
0.00667695
0.00652695
0.00629557
0.00597443
0.00555642
0.00502751
0.00437984
0.0036011
0.0026883
0.00167384
0.000690781
0.000301321
0.000173689
0.000141678
0.000131793
0.000160325
0.000312518
0.000833857
0.00183037
0.0027893
0.00364221
0.00437032
0.00498111
0.005486
0.00588841
0.00619733
0.00642055
0.00656552
0.00663659
0.00663654
0.00656548
0.00642049
0.00619726
0.00588839
0.00548608
0.00497917
0.00436529
0.00363348
0.00277864
0.00182003
0.000822575
0.000308615
0.000158067
0.000131665
0.000123642
0.000158965
0.00037121
0.00102802
0.00204195
0.00295967
0.00374239
0.00440985
0.00497577
0.00545065
0.00583029
0.00612199
0.00633274
0.00647014
0.00653794
0.0065384
0.00647171
0.00633535
0.00612565
0.00583505
0.00545761
0.00498089
0.00441077
0.0037398
0.00295497
0.00203334
0.00101948
0.00036864
0.000157881
0.000123558
0.000114371
0.000184842
0.000471236
0.00129823
0.00227477
0.00316191
0.00388727
0.00448033
0.00498909
0.00542551
0.00578293
0.00605806
0.00625708
0.00638706
0.00645171
0.00645274
0.00639038
0.00626243
0.00606547
0.0057929
0.00543694
0.00500012
0.00448631
0.00388868
0.00315894
0.00227131
0.00129784
0.000470535
0.000184756
0.000114256
0.000106516
0.000235764
0.000718451
0.00172917
0.00263555
0.00340073
0.00402962
0.00453898
0.00498602
0.00538853
0.0057296
0.00599551
0.00618708
0.00631273
0.00637574
0.00637745
0.00631798
0.00619545
0.00600687
0.0057456
0.00540737
0.00500262
0.00454669
0.0040338
0.00340622
0.00264597
0.00173945
0.000726304
0.000235833
0.000106412
0.000105537
0.000368481
0.00125275
0.00219767
0.00297812
0.00364256
0.00417603
0.00460396
0.00496907
0.00533285
0.00567245
0.00593439
0.00612194
0.00624612
0.00630919
0.0063117
0.00625367
0.00613389
0.00595069
0.00569583
0.00536432
0.00498763
0.0046101
0.00418472
0.00365508
0.00300739
0.00222887
0.00127119
0.000371313
0.000105499
0.000110636
0.00076092
0.0017691
0.0025731
0.00325638
0.00381892
0.00427609
0.00465508
0.00499236
0.00530722
0.00562151
0.00587689
0.00606149
0.00618652
0.00625103
0.00625431
0.00619649
0.00607769
0.00589901
0.00565149
0.00533978
0.00500879
0.00466799
0.00428975
0.00384412
0.00329495
0.00261571
0.00180085
0.000768699
0.000110818
0.000127263
0.0011103
0.00211209
0.0028753
0.00347988
0.00396353
0.00434364
0.00470442
0.00503229
0.00531972
0.00558574
0.0058214
0.00600511
0.00613337
0.00619985
0.00620351
0.00614475
0.00602474
0.00584879
0.00562069
0.00534738
0.00504979
0.0047231
0.00436247
0.00398805
0.00351194
0.00291178
0.0021477
0.00112624
0.000127958
0.000147243
0.00126594
0.0022879
0.00305743
0.00359521
0.00399786
0.00437813
0.00474416
0.0050627
0.00532339
0.0055533
0.00577238
0.00595798
0.00608801
0.0061549
0.00615822
0.00609846
0.00597678
0.0057999
0.0055861
0.00534686
0.00508713
0.00477493
0.00441369
0.00402969
0.00362149
0.00308666
0.00231764
0.00128152
0.000149175
0.000161619
0.00131448
0.00233544
0.0030562
0.00354562
0.00399097
0.00441126
0.00477601
0.00507336
0.00530955
0.00552934
0.00574514
0.00592741
0.00605322
0.00611753
0.00611984
0.00606052
0.00594071
0.00576474
0.0055525
0.00533021
0.00510069
0.00481445
0.00445684
0.0040287
0.00357795
0.00308375
0.00236064
0.00133314
0.00016411
0.000166197
0.00122943
0.00220681
0.00292394
0.00347649
0.00397114
0.00441285
0.00477196
0.00505621
0.00530384
0.00553349
0.00574466
0.00591497
0.00603143
0.00609065
0.00609165
0.00603472
0.00592124
0.00575412
0.00554511
0.00531724
0.00507891
0.00480821
0.00445464
0.00401373
0.00351051
0.00294881
0.00222958
0.00124799
0.000169001
0.000165216
0.00112466
0.00204802
0.00276967
0.00339439
0.00393506
0.00438408
0.00474672
0.00505136
0.00532551
0.00556438
0.00576379
0.005919
0.00602425
0.00607721
0.0060768
0.00602333
0.00591829
0.00576412
0.00556591
0.00533142
0.00506701
0.00477258
0.00442202
0.00397863
0.00343186
0.0028003
0.00206858
0.00114027
0.000167893
0.000161161
0.000967839
0.00185803
0.00263994
0.00331533
0.00388635
0.00435457
0.00474048
0.00507377
0.00536119
0.00559987
0.00579639
0.00593753
0.0060316
0.00607793
0.00607598
0.00602597
0.00592914
0.00578686
0.00559506
0.00535905
0.00508127
0.00475554
0.00438131
0.00392392
0.00335615
0.00267435
0.00187863
0.000974803
0.000163263
0.000155116
0.000818002
0.00171465
0.00253511
0.00325012
0.00385284
0.00435187
0.00477488
0.00513935
0.0054362
0.00566455
0.00583544
0.00596914
0.00605127
0.00609055
0.00608664
0.00603948
0.00594994
0.00581539
0.00563918
0.00541582
0.00512915
0.00477704
0.00436498
0.00388188
0.00329142
0.00257449
0.00174001
0.000821517
0.000156528
0.000148035
0.000700646
0.0016087
0.0024639
0.00321673
0.00385441
0.00439967
0.00486731
0.00524905
0.00553171
0.00574149
0.00589594
0.00600254
0.00607729
0.00610972
0.00610339
0.00605805
0.00597456
0.00585457
0.00569643
0.00548849
0.00521614
0.00485188
0.00440668
0.00388414
0.00326397
0.00250969
0.00164024
0.000712357
0.000149203
0.000140788
0.000645475
0.00155725
0.00245449
0.00323994
0.00392637
0.00451905
0.00499762
0.00536479
0.00562636
0.00581473
0.00594899
0.00604346
0.00610253
0.00612877
0.00611965
0.00607457
0.00599647
0.00588492
0.00574011
0.00555283
0.00530512
0.00496206
0.00451848
0.00395988
0.00329312
0.00251113
0.00160315
0.00066913
0.000142142
0.000135323
0.000669658
0.0016078
0.00251621
0.00335863
0.00408892
0.00466184
0.00510125
0.00543982
0.00568845
0.00586275
0.00598408
0.00606929
0.0061208
0.00614249
0.00613042
0.00608386
0.00600329
0.00589465
0.00575503
0.00558266
0.00534782
0.00503998
0.00464783
0.00412594
0.00343389
0.00259827
0.00167019
0.000705063
0.000136865
0.000132267
0.000744466
0.00172094
0.00270544
0.00357671
0.00424868
0.00475167
0.0051452
0.00546129
0.00570583
0.00587347
0.00599004
0.00607461
0.00613028
0.00614853
0.00613374
0.0060842
0.006
0.00588272
0.00573701
0.00556215
0.00534289
0.005064
0.00471888
0.00427273
0.00366331
0.00282713
0.0018104
0.000788553
0.000134316
0.000132828
0.00085768
0.00198415
0.00301105
0.00377893
0.00434743
0.00479266
0.00516628
0.00546838
0.00569492
0.00585467
0.00597738
0.00606832
0.00612534
0.00614569
0.00612981
0.0060762
0.00598456
0.0058557
0.00569357
0.00551231
0.00530452
0.00507462
0.00476223
0.00435745
0.00383361
0.00311637
0.002123
0.000930349
0.000135275
0.000137372
0.00111436
0.00236995
0.00328291
0.00391435
0.00440686
0.00482682
0.00517744
0.00543935
0.00565002
0.00580687
0.00594165
0.00604491
0.00611014
0.00613532
0.00612021
0.00606407
0.00596663
0.00582792
0.00565004
0.00544677
0.0052537
0.00503761
0.00479224
0.00444295
0.00394525
0.00333392
0.00248196
0.00123472
0.000141818
0.000150262
0.00146486
0.00266989
0.0034407
0.00399523
0.00445058
0.00483053
0.00512485
0.00537516
0.00556287
0.00573979
0.00589518
0.00601255
0.00608733
0.00611849
0.00610579
0.00604921
0.00594915
0.00580662
0.00562429
0.00541457
0.00520457
0.00497797
0.0047146
0.00443396
0.00406312
0.00347278
0.0026893
0.00149869
0.000158653
0.000174542
0.00159278
0.00277067
0.0035097
0.0040565
0.00442951
0.00474771
0.00503325
0.00526445
0.0054758
0.00567597
0.00584662
0.00597536
0.00605892
0.00609628
0.00608707
0.006032
0.00593213
0.00579016
0.00560948
0.00539776
0.0051699
0.00491551
0.00462326
0.00430132
0.00394934
0.00348839
0.00271889
0.00159193
0.000181058
0.000192246
0.0016065
0.00274124
0.00346804
0.00393728
0.00432549
0.00465073
0.00493342
0.00518339
0.00541039
0.00562101
0.00579941
0.00593603
0.00602689
0.00607011
0.00606497
0.00601276
0.00591507
0.00577594
0.0055991
0.00538924
0.00515102
0.00487738
0.0045529
0.00417955
0.0037762
0.00330785
0.00258134
0.00150197
0.00018979
0.000197618
0.00149429
0.00256282
0.00329675
0.00380783
0.0042164
0.00456163
0.00485637
0.00511667
0.00535474
0.00557047
0.00575367
0.00589617
0.00599313
0.00604169
0.00604083
0.00599226
0.005898
0.00576315
0.00559212
0.0053874
0.00514835
0.00486331
0.00451324
0.0040969
0.00362686
0.0030829
0.00239331
0.00137099
0.000189028
0.000194025
0.00131703
0.00234237
0.00309205
0.00366663
0.00411585
0.00447814
0.00478462
0.00505542
0.00530133
0.00552173
0.0057094
0.00585708
0.0059594
0.00601287
0.00601622
0.00597159
0.00588137
0.00575158
0.0055874
0.00539102
0.00515881
0.00487644
0.00451818
0.00405786
0.00351761
0.00289346
0.00212523
0.00114096
0.000183294
0.000183002
0.00104785
0.00208729
0.00292192
0.00355042
0.00402334
0.0043989
0.00471539
0.00499546
0.0052486
0.00547457
0.0056673
0.00582009
0.00592736
0.00598535
0.00599268
0.00595174
0.00586527
0.00574014
0.00558277
0.00539654
0.00517804
0.0049135
0.00456271
0.0040826
0.00346961
0.00275149
0.00191238
0.00092854
0.000171846
0.000170743
0.000887895
0.00193193
0.00282291
0.00346729
0.00394253
0.00432232
0.00464628
0.00493542
0.00519703
0.00542991
0.00562849
0.00578649
0.00589844
0.00596054
0.00597147
0.00593338
0.00584929
0.00572648
0.00557281
0.00539469
0.00519295
0.00495247
0.00463507
0.00416781
0.00351416
0.00270642
0.00178001
0.000800161
0.000161148
0.000162944
0.000838288
0.00190604
0.00280045
0.0034054
0.00386273
0.00424151
0.00457477
0.00487558
0.00514775
0.005389
0.00559411
0.00575741
0.00587376
0.00593953
0.0059535
0.00591707
0.00583337
0.00570913
0.00555231
0.00537115
0.0051695
0.00495126
0.0046566
0.00425528
0.0036411
0.00278383
0.00179077
0.000756319
0.000152934
0.000154681
0.000907133
0.0019647
0.00276502
0.0033232
0.00376435
0.00415161
0.00450085
0.00481726
0.00510199
0.00535276
0.00556499
0.00573361
0.00585405
0.00592297
0.0059392
0.0059034
0.00581849
0.00569014
0.00552517
0.00533157
0.00511978
0.00489392
0.00464006
0.00426566
0.00374656
0.00296971
0.00193102
0.000838949
0.000145463
0.000154864
0.0010401
0.00204316
0.00270715
0.00319311
0.00364624
0.00405726
0.00442785
0.00476211
0.00506082
0.00532199
0.00554183
0.00571584
0.00583995
0.00591125
0.00592865
0.00589245
0.00580547
0.00567198
0.00549755
0.00528687
0.00504623
0.00479162
0.00454597
0.0042397
0.00377883
0.00313337
0.00220313
0.00096761
0.000144626
0.000159039
0.001174
0.00202406
0.00260132
0.00306608
0.0035352
0.00396787
0.00435957
0.00471236
0.00502662
0.00529958
0.00552753
0.0057066
0.00583355
0.00590618
0.00592375
0.0058865
0.0057965
0.00565685
0.00547139
0.00524528
0.00498348
0.00469458
0.00440396
0.00412068
0.00377146
0.00320665
0.0024247
0.00125884
0.000150591
0.000166995
0.00117914
0.00193687
0.00244929
0.0029482
0.0034353
0.00388836
0.00430099
0.00467398
0.00500538
0.00529102
0.00552684
0.00570978
0.00583794
0.00591042
0.00592717
0.00588853
0.00579578
0.00565107
0.00545639
0.00521551
0.00493295
0.00461749
0.00428653
0.00396278
0.00363878
0.00321351
0.00247388
0.00146628
0.000166712
0.000165952
0.00108857
0.00177321
0.00232737
0.00284896
0.00335396
0.00382592
0.00426099
0.00465633
0.00500723
0.00530511
0.00554673
0.0057307
0.00585729
0.00592737
0.00594233
0.0059028
0.00580867
0.00565992
0.00545904
0.00520593
0.00490325
0.00456193
0.00419628
0.00382318
0.00344744
0.00306308
0.00242787
0.00145895
0.000180244
0.000160888
0.000896578
0.00160819
0.00221095
0.00276539
0.00329206
0.00378859
0.00425143
0.00467121
0.0050309
0.00533519
0.00557763
0.00575853
0.00588094
0.00594855
0.00596206
0.00592205
0.00583006
0.00568498
0.00548341
0.00522312
0.00490592
0.00453599
0.00413383
0.00371381
0.00328357
0.00281779
0.0022586
0.00134298
0.000181316
0.000152316
0.000715609
0.00145518
0.00210427
0.00269679
0.00325668
0.00378944
0.00428214
0.00471695
0.00509557
0.00540636
0.00564515
0.00581701
0.00592974
0.00598988
0.00600082
0.00596336
0.00587705
0.00574017
0.00554402
0.00527846
0.0049451
0.00455614
0.00410912
0.00363706
0.00314645
0.00261556
0.00197129
0.00113294
0.000176712
0.000143335
0.000598347
0.00133353
0.00202011
0.00265748
0.00326823
0.00383985
0.0043589
0.00482622
0.00521513
0.00551821
0.00574392
0.00590257
0.00600361
0.00605434
0.00606211
0.00602786
0.00595036
0.00582443
0.00564057
0.00538453
0.00504302
0.00462026
0.00414545
0.00360704
0.00304272
0.00243791
0.00173295
0.000872592
0.000166453
0.000135886
0.000540547
0.00125916
0.00197929
0.00268119
0.00333971
0.00395567
0.00452101
0.00498717
0.00535797
0.00564191
0.00584806
0.00598674
0.00607171
0.00611251
0.00611646
0.0060851
0.0060176
0.00590931
0.00574667
0.00550988
0.0051837
0.00476188
0.00423674
0.00365864
0.00300031
0.00230672
0.00154601
0.000701178
0.000155764
0.000129511
0.000514574
0.00124241
0.00202619
0.00277581
0.00350759
0.00418524
0.00472159
0.00514285
0.00548377
0.00574851
0.00593669
0.00605648
0.00612687
0.00615815
0.00615734
0.00612603
0.00606539
0.00597183
0.0058294
0.00560779
0.0053051
0.00492089
0.00442715
0.00378493
0.00306976
0.0022674
0.00143727
0.000613277
0.00014559
0.000124199
0.00053802
0.00132499
0.00215398
0.00301138
0.00381847
0.00442165
0.00487899
0.00524607
0.00556037
0.00581698
0.00599262
0.00609903
0.00616104
0.00618669
0.00618126
0.00614584
0.00608288
0.00599308
0.00586677
0.00565537
0.00536283
0.00502458
0.00460563
0.00403308
0.00324012
0.00237312
0.00145573
0.000585589
0.00013707
0.000120828
0.000607296
0.00147993
0.00246773
0.00341326
0.00409704
0.00459075
0.00498689
0.00532423
0.00561979
0.00585633
0.00601203
0.00611264
0.00617597
0.00620259
0.00619412
0.0061518
0.00607759
0.00597523
0.0058573
0.00568857
0.00541803
0.00509032
0.00471121
0.00423033
0.00355158
0.00261435
0.00161072
0.00066774
0.000130618
0.000121611
0.00075179
0.00186859
0.00295774
0.00373799
0.00428642
0.00472236
0.00510114
0.0054128
0.00567206
0.00585837
0.00599168
0.00610005
0.00617807
0.00621437
0.00620724
0.00615701
0.00606635
0.00593976
0.00580224
0.00565595
0.0054609
0.00517078
0.0047936
0.00434111
0.00379251
0.00302482
0.00193276
0.000792078
0.000129735
0.000128714
0.00110483
0.00237732
0.00332084
0.00394673
0.00444091
0.00487311
0.00522184
0.00544412
0.00563125
0.00577964
0.00593065
0.00607398
0.00617637
0.0062259
0.00622167
0.00616437
0.00605768
0.00590971
0.00572578
0.00556907
0.00541881
0.00522255
0.00489807
0.00447584
0.00395964
0.00332225
0.00240897
0.00111482
0.000135223
0.000146093
0.00147372
0.00272467
0.00353756
0.00413334
0.00461956
0.00500586
0.00523412
0.00538942
0.00553455
0.00569387
0.00588616
0.00605752
0.00617639
0.00623522
0.00623349
0.00617262
0.00605648
0.00588982
0.00568911
0.00548176
0.00531143
0.00512667
0.00492115
0.00460715
0.00409723
0.00349808
0.00269198
0.00147692
0.000152369
0.000171326
0.00162333
0.00286446
0.00367699
0.00427831
0.00467034
0.00491641
0.00511931
0.00531131
0.00548586
0.00567591
0.00587666
0.00605707
0.00618226
0.00624583
0.00624607
0.00618387
0.00606366
0.00589163
0.0056789
0.00544741
0.00522132
0.00500364
0.00478411
0.00451153
0.00415986
0.00359596
0.00277017
0.00160724
0.000176788
0.000189511
0.0016599
0.0028631
0.00369234
0.00416461
0.00450021
0.00476125
0.00500674
0.00524689
0.0054646
0.00567936
0.00589502
0.00607451
0.00619956
0.0062644
0.00626618
0.00620498
0.00608481
0.00591112
0.00569093
0.00544271
0.00517607
0.00489866
0.00460284
0.00431935
0.00397805
0.00349165
0.0027299
0.00159273
0.000189915
0.000194322
0.00156056
0.00271991
0.00347227
0.0039597
0.00428958
0.00461749
0.00492504
0.00521073
0.00547413
0.00571943
0.00593896
0.00611332
0.00623418
0.0062977
0.00630083
0.00624303
0.00612686
0.00595588
0.00573307
0.00546569
0.00516934
0.00484434
0.00450465
0.00415475
0.00378018
0.00331452
0.00255962
0.00147434
0.00019053
0.000192056
0.00141927
0.00253152
0.00324576
0.00371097
0.00413074
0.00452194
0.00488622
0.00522041
0.00552293
0.00579187
0.00601052
0.0061756
0.00628844
0.00634815
0.00635241
0.00630076
0.00619347
0.00603136
0.0058116
0.00553023
0.00520241
0.00483944
0.00444275
0.00402949
0.00357672
0.00303346
0.00231505
0.00128227
0.000186374
0.000184234
0.00119423
0.0022102
0.00296166
0.00352489
0.00401667
0.00447521
0.00490254
0.00528748
0.00562732
0.00590192
0.00610804
0.00625704
0.00635754
0.00641088
0.00641582
0.00637238
0.00627873
0.00613325
0.00592847
0.00565208
0.00529792
0.00488667
0.00443208
0.00393921
0.00340997
0.00279815
0.0020366
0.00106309
0.000176871
0.000174704
0.000982545
0.0019427
0.00272815
0.0033744
0.00395333
0.00449551
0.00499127
0.00543185
0.00577963
0.00603623
0.00621764
0.00634525
0.00643042
0.00647553
0.00648016
0.0064445
0.0063655
0.00624026
0.00605834
0.00580338
0.00546364
0.00501544
0.00448685
0.00391187
0.0032881
0.0026026
0.00180173
0.000871663
0.000167744
0.000164354
0.00079658
0.00172389
0.00255302
0.00328779
0.00397121
0.00460212
0.00516973
0.00561328
0.00593472
0.00616053
0.00631651
0.00642323
0.00649379
0.00653079
0.00653367
0.00650228
0.00643305
0.00632167
0.00615377
0.0059198
0.00561372
0.00520214
0.00463765
0.00397029
0.00324939
0.00246867
0.0016196
0.000714249
0.000156837
0.000152755
0.000668143
0.0015788
0.00246996
0.00331649
0.00409434
0.004809
0.00535222
0.00573706
0.00602391
0.00623925
0.00638246
0.00647563
0.00653685
0.00656804
0.00656826
0.00653682
0.00647107
0.00636599
0.00620035
0.00596685
0.00568176
0.00533137
0.0048428
0.00414497
0.00332395
0.0024475
0.0015249
0.00062052
0.000145486
0.000142457
0.000622941
0.00156518
0.00253991
0.00346421
0.00433236
0.00499596
0.00544748
0.00578325
0.00606266
0.00627483
0.00641021
0.00649858
0.00655792
0.00658742
0.00658518
0.00655033
0.0064824
0.0063804
0.00622246
0.00598988
0.00569751
0.00536694
0.0049671
0.0043695
0.0035308
0.00257152
0.00158489
0.000628255
0.000136481
0.000135384
0.000693842
0.00168962
0.00273345
0.00375765
0.00454598
0.00509334
0.00548254
0.00581244
0.00609041
0.00628525
0.0064104
0.00650028
0.00656399
0.00659539
0.00659111
0.00655083
0.00647668
0.0063738
0.00623056
0.00601331
0.00573301
0.00539872
0.00501205
0.00453259
0.00382282
0.00283486
0.00174301
0.000717569
0.000131767
0.000134169
0.000801143
0.00193002
0.0031076
0.00404077
0.00467708
0.00513627
0.00552534
0.0058529
0.0061029
0.0062707
0.00638995
0.00649001
0.00656347
0.0066002
0.00659554
0.00654806
0.00646173
0.00635168
0.00622021
0.00603934
0.00577199
0.0054478
0.00507151
0.00464521
0.0040761
0.00322354
0.00206305
0.000853821
0.000132394
0.000137386
0.00103072
0.00235871
0.00346715
0.00424762
0.00477552
0.00520677
0.00558449
0.00588528
0.0060848
0.0062248
0.00635629
0.00647625
0.00656415
0.0066085
0.00660335
0.00654807
0.00644899
0.00631523
0.00617547
0.00602807
0.00581549
0.00551114
0.00514004
0.00472116
0.00423247
0.00353117
0.00247769
0.0011446
0.000138104
0.000147862
0.0013454
0.00271638
0.003726
0.00436643
0.00485705
0.00527676
0.00563183
0.00586219
0.00601499
0.00616416
0.00632313
0.00646401
0.00656858
0.00662204
0.00661696
0.00655327
0.00643845
0.00628734
0.006118
0.00596298
0.00580325
0.00556845
0.00521619
0.00480386