/*--------------------------------*- C++ -*----------------------------------*\
| =========                 |                                                 |
| \\      /  F ield         | OpenFOAM: The Open Source CFD Toolbox           |
|  \\    /   O peration     | Version:  v1606+                                |
|   \\  /    A nd           | Web:      www.OpenFOAM.com                      |
|    \\/     M anipulation  |                                                 |
\*---------------------------------------------------------------------------*/
FoamFile
{
    version     2.0;
    format      ascii;
    class       surfaceScalarField;
    location    "0.8";
    object      phi;
}
// * * * * * * * * * * * * * * * * * * * * * * * * * * * * * * * * * * * * * //

dimensions      [0 3 -1 0 0 0 0];

internalField   nonuniform List<scalar> 
5856
(
8.85194e-08
-8.85194e-08
3.83536e-07
-2.95017e-07
7.24468e-07
-3.40932e-07
1.01783e-06
-2.93367e-07
1.20735e-06
-1.89515e-07
1.28029e-06
-7.29438e-08
1.27169e-06
8.6005e-09
1.21376e-06
5.79351e-08
1.13013e-06
8.36287e-08
1.00457e-06
1.25555e-07
7.602e-07
2.44375e-07
4.12258e-07
3.47942e-07
1.81326e-07
-2.69845e-07
5.46101e-07
-6.59791e-07
9.28465e-07
-7.23296e-07
1.21431e-06
-5.79213e-07
1.36412e-06
-3.3932e-07
1.39374e-06
-1.02564e-07
1.30475e-06
9.75895e-08
1.14716e-06
2.15522e-07
9.05259e-07
3.25532e-07
4.42028e-07
5.88787e-07
-3.3657e-07
1.02297e-06
1.37102e-06
-1.29533e-06
2.83636e-07
-5.53481e-07
6.91884e-07
-1.06804e-06
1.03645e-06
-1.06786e-06
1.26003e-06
-8.02802e-07
1.34758e-06
-4.26867e-07
1.27156e-06
-2.65458e-08
1.07186e-06
2.97289e-07
7.86709e-07
5.00677e-07
3.41658e-07
7.70583e-07
-4.27098e-07
1.35754e-06
-1.37375e-06
1.96963e-06
2.19393e-06
-2.19667e-06
2.91722e-07
-8.45203e-07
6.12794e-07
-1.38911e-06
8.30098e-07
-1.28516e-06
9.52326e-07
-9.2503e-07
9.91198e-07
-4.65739e-07
9.36367e-07
2.82851e-08
7.71441e-07
4.62215e-07
4.78736e-07
7.93383e-07
-7.22754e-08
1.32159e-06
-9.08119e-07
2.19339e-06
-1.72551e-06
2.78701e-06
2.74435e-06
-2.27592e-06
2.20718e-07
-1.06592e-06
3.68399e-07
-1.53679e-06
4.56997e-07
-1.37376e-06
5.35551e-07
-1.00358e-06
5.92949e-07
-5.23137e-07
6.05354e-07
1.588e-08
5.30326e-07
5.37243e-07
2.98663e-07
1.02505e-06
-2.15179e-07
1.83544e-06
-9.3385e-07
2.91206e-06
-1.55643e-06
3.40959e-06
3.10173e-06
-1.91381e-06
6.92094e-08
-1.13513e-06
3.18499e-08
-1.49943e-06
2.49718e-08
-1.36688e-06
9.08323e-08
-1.06944e-06
2.09696e-07
-6.42001e-07
3.37913e-07
-1.12336e-07
3.97896e-07
4.7726e-07
2.83766e-07
1.13918e-06
-7.68086e-08
2.19601e-06
-6.0209e-07
3.43734e-06
-1.07107e-06
3.87857e-06
3.38428e-06
-1.35362e-06
-1.21449e-07
-1.01368e-06
-3.18522e-07
-1.30236e-06
-4.06453e-07
-1.27895e-06
-3.49932e-07
-1.12596e-06
-1.62272e-07
-8.29661e-07
9.71875e-08
-3.71796e-07
3.29085e-07
2.45363e-07
3.97093e-07
1.07117e-06
2.67049e-07
2.32605e-06
-2.15309e-08
3.72592e-06
-3.72088e-07
4.22913e-06
3.67654e-06
-6.64352e-07
-3.06814e-07
-7.06867e-07
-6.44936e-07
-9.64237e-07
-8.17642e-07
-1.10625e-06
-7.78499e-07
-1.16511e-06
-5.37739e-07
-1.07042e-06
-1.62092e-07
-7.47443e-07
2.41439e-07
-1.58168e-07
5.44815e-07
7.67791e-07
7.02948e-07
2.16792e-06
6.98895e-07
3.72997e-06
5.00507e-07
4.42751e-06
3.98752e-06
1.8953e-07
-4.49953e-07
-2.56914e-07
-8.81964e-07
-5.32227e-07
-1.1042e-06
-8.84009e-07
-1.08866e-06
-1.18065e-06
-8.34111e-07
-1.32497e-06
-3.96118e-07
-1.18544e-06
1.16146e-07
-6.70433e-07
6.39194e-07
2.44744e-07
1.10875e-06
1.69837e-06
1.43953e-06
3.39919e-06
1.48248e-06
4.38456e-06
4.22635e-06
1.24365e-06
-5.05717e-07
2.48804e-07
-8.04528e-07
-2.33417e-07
-9.3555e-07
-7.52987e-07
-9.24308e-07
-1.19189e-06
-7.3315e-07
-1.51612e-06
-3.64313e-07
-1.55427e-06
1.44149e-07
-1.1789e-06
7.16526e-07
-3.27632e-07
1.4115e-06
1.00339e-06
2.07205e-06
2.73865e-06
2.44847e-06
4.00813e-06
4.24577e-06
2.42906e-06
-4.83222e-08
2.97126e-07
1.36841e-07
-4.1858e-07
2.71527e-07
-8.87673e-07
3.19274e-07
-1.23964e-06
3.40094e-07
-1.53694e-06
4.18191e-07
-1.63237e-06
6.33563e-07
-1.39427e-06
1.04226e-06
-7.36331e-07
1.68789e-06
3.57761e-07
2.52155e-06
1.90499e-06
3.2221e-06
3.30758e-06
3.9327e-06
3.53517e-06
1.75929e-06
-1.46216e-06
2.56902e-06
-1.22831e-06
2.82119e-06
-1.13984e-06
2.84013e-06
-1.25859e-06
2.64456e-06
-1.34137e-06
2.29626e-06
-1.28407e-06
1.98111e-06
-1.07911e-06
1.91722e-06
-6.72446e-07
2.21081e-06
6.41743e-08
2.9089e-06
1.2069e-06
3.74064e-06
2.47584e-06
4.35278e-06
3.32056e-06
-2.60484e-07
6.08426e-07
-9.36141e-07
6.75657e-07
-1.47947e-06
5.43324e-07
-1.78159e-06
3.02128e-07
-1.82278e-06
4.11892e-08
-1.58449e-06
-2.3829e-07
-1.10275e-06
-4.81741e-07
-4.89098e-07
-6.13654e-07
8.59244e-08
-5.75022e-07
3.9879e-07
-3.12865e-07
2.98999e-07
9.97904e-08
2.98999e-07
-2.13179e-06
1.44488e-06
-2.69639e-06
1.24026e-06
-3.01629e-06
8.63224e-07
-3.14485e-06
4.30685e-07
-3.07392e-06
-2.97443e-08
-2.85655e-06
-4.5566e-07
-2.45523e-06
-8.8306e-07
-1.85032e-06
-1.21857e-06
-1.10132e-06
-1.32402e-06
-3.80488e-07
-1.03369e-06
3.89522e-08
-3.1965e-07
3.37952e-07
-2.73468e-06
1.98289e-06
-3.03926e-06
1.54485e-06
-3.23258e-06
1.05654e-06
-3.36592e-06
5.64029e-07
-3.44405e-06
4.83807e-08
-3.39229e-06
-5.0742e-07
-3.18981e-06
-1.08554e-06
-2.7679e-06
-1.64048e-06
-2.06497e-06
-2.02695e-06
-1.12629e-06
-1.97237e-06
-2.57177e-07
-1.18876e-06
8.0775e-08
-2.55599e-06
2.26296e-06
-2.70054e-06
1.6894e-06
-2.80934e-06
1.16534e-06
-2.91665e-06
6.71332e-07
-3.02492e-06
1.56659e-07
-3.11355e-06
-4.18795e-07
-3.12728e-06
-1.0718e-06
-2.98735e-06
-1.78041e-06
-2.56361e-06
-2.45069e-06
-1.73314e-06
-2.80284e-06
-6.29616e-07
-2.29229e-06
-5.48841e-07
-2.07038e-06
2.41953e-06
-2.15752e-06
1.77655e-06
-2.24574e-06
1.25356e-06
-2.35304e-06
7.78635e-07
-2.46929e-06
2.72909e-07
-2.57539e-06
-3.12693e-07
-2.65388e-06
-9.93313e-07
-2.66986e-06
-1.76444e-06
-2.52627e-06
-2.59428e-06
-2.01704e-06
-3.31207e-06
-9.88905e-07
-3.32042e-06
-1.53775e-06
-1.49935e-06
2.56526e-06
-1.59416e-06
1.87136e-06
-1.69277e-06
1.35217e-06
-1.81765e-06
9.03517e-07
-1.95088e-06
4.06139e-07
-2.06133e-06
-2.02243e-07
-2.12883e-06
-9.25822e-07
-2.15062e-06
-1.74264e-06
-2.11648e-06
-2.62842e-06
-1.89525e-06
-3.5333e-06
-1.15206e-06
-4.06362e-06
-2.6898e-06
-8.58064e-07
2.75897e-06
-9.6839e-07
1.98169e-06
-1.059e-06
1.44277e-06
-1.19294e-06
1.03747e-06
-1.35975e-06
5.72946e-07
-1.513e-06
-4.89917e-08
-1.60497e-06
-8.33857e-07
-1.61698e-06
-1.73063e-06
-1.57142e-06
-2.67398e-06
-1.47435e-06
-3.63037e-06
-1.06364e-06
-4.47432e-06
-3.75345e-06
-8.69483e-08
3.03545e-06
-2.33966e-07
2.12871e-06
-3.10995e-07
1.5198e-06
-4.38526e-07
1.165e-06
-6.33492e-07
7.67911e-07
-8.40102e-07
1.57619e-07
-9.91815e-07
-6.82144e-07
-1.04521e-06
-1.67723e-06
-1.00038e-06
-2.71881e-06
-9.19833e-07
-3.71092e-06
-7.68665e-07
-4.62549e-06
-4.52211e-06
9.1317e-07
3.36593e-06
6.79263e-07
2.36261e-06
5.62908e-07
1.63616e-06
4.47931e-07
1.27997e-06
2.48275e-07
9.67567e-07
-2.24038e-09
4.08135e-07
-2.20007e-07
-4.64377e-07
-3.45679e-07
-1.55156e-06
-3.67283e-07
-2.6972e-06
-3.30591e-07
-3.74761e-06
-3.33463e-07
-4.62262e-06
-4.85558e-06
2.15681e-06
3.63818e-06
1.84654e-06
2.67288e-06
1.62056e-06
1.86214e-06
1.46151e-06
1.43903e-06
1.26912e-06
1.15995e-06
1.01758e-06
6.59677e-07
7.65656e-07
-2.12451e-07
5.72212e-07
-1.35812e-06
4.42962e-07
-2.56795e-06
3.30679e-07
-3.63533e-06
1.80504e-07
-4.47244e-06
-4.67507e-06
3.47479e-06
3.69855e-06
3.20149e-06
2.94619e-06
2.89123e-06
2.17239e-06
2.64241e-06
1.68786e-06
2.42642e-06
1.37594e-06
2.1969e-06
8.89201e-07
1.96364e-06
2.08117e-08
1.75439e-06
-1.14887e-06
1.554e-06
-2.36756e-06
1.26579e-06
-3.34712e-06
8.17788e-07
-4.02444e-06
-3.85728e-06
4.59155e-06
3.45978e-06
4.50045e-06
3.03729e-06
4.2319e-06
2.44094e-06
3.94535e-06
1.9744e-06
3.70804e-06
1.61325e-06
3.50613e-06
1.09111e-06
3.32222e-06
2.04718e-07
3.15832e-06
-9.84964e-07
2.98796e-06
-2.19721e-06
2.70001e-06
-3.05917e-06
1.93666e-06
-3.2611e-06
-1.92062e-06
9.26495e-08
-9.26495e-08
3.86262e-07
-2.93613e-07
7.33028e-07
-3.46765e-07
1.0272e-06
-2.94177e-07
1.21454e-06
-1.87336e-07
1.28474e-06
-7.0198e-08
1.27454e-06
1.01976e-08
1.21508e-06
5.94605e-08
1.12981e-06
8.5271e-08
1.002e-06
1.27809e-07
7.5428e-07
2.4772e-07
4.16163e-07
3.38117e-07
1.81856e-07
-2.74506e-07
5.49946e-07
-6.61703e-07
9.30082e-07
-7.26901e-07
1.21414e-06
-5.78237e-07
1.36162e-06
-3.34815e-07
1.39002e-06
-9.85933e-08
1.30006e-06
1.00154e-07
1.1421e-06
2.17424e-07
8.97097e-07
3.30271e-07
4.26023e-07
5.98883e-07
-3.60808e-07
1.03455e-06
1.37765e-06
-1.32229e-06
2.82633e-07
-5.57138e-07
6.90422e-07
-1.06949e-06
1.02971e-06
-1.06619e-06
1.24882e-06
-7.97347e-07
1.33305e-06
-4.19043e-07
1.2543e-06
-1.98448e-08
1.0549e-06
2.99556e-07
7.70625e-07
5.017e-07
3.20271e-07
7.80625e-07
-4.56236e-07
1.37539e-06
-1.4032e-06
1.98152e-06
2.19349e-06
-2.21905e-06
2.90238e-07
-8.47376e-07
6.08122e-07
-1.38738e-06
8.20771e-07
-1.27884e-06
9.39245e-07
-9.15821e-07
9.76087e-07
-4.55885e-07
9.1959e-07
3.66522e-08
7.54043e-07
4.65102e-07
4.59501e-07
7.96243e-07
-9.96415e-08
1.33977e-06
-9.38276e-07
2.21402e-06
-1.7486e-06
2.79185e-06
2.73313e-06
-2.28825e-06
2.19113e-07
-1.06649e-06
3.64161e-07
-1.53243e-06
4.50694e-07
-1.36537e-06
5.27728e-07
-9.92855e-07
5.83048e-07
-5.11205e-07
5.94945e-07
2.47561e-08
5.18444e-07
5.41603e-07
2.81753e-07
1.03293e-06
-2.39829e-07
1.86135e-06
-9.57757e-07
2.93195e-06
-1.57145e-06
3.40554e-06
3.08108e-06
-1.9194e-06
6.88525e-08
-1.13534e-06
3.12837e-08
-1.49486e-06
2.44943e-08
-1.35858e-06
9.00777e-08
-1.05844e-06
2.08944e-07
-6.30071e-07
3.36123e-07
-1.02423e-07
3.92904e-07
4.84822e-07
2.72081e-07
1.15376e-06
-9.41801e-08
2.22761e-06
-6.18637e-07
3.45641e-06
-1.08058e-06
3.86749e-06
3.35692e-06
-1.35642e-06
-1.19815e-07
-1.01553e-06
-3.14891e-07
-1.29978e-06
-4.01128e-07
-1.27235e-06
-3.43662e-07
-1.1159e-06
-1.55275e-07
-8.18459e-07
1.01728e-07
-3.59426e-07
3.29408e-07
2.57142e-07
3.91142e-07
1.09202e-06
2.57614e-07
2.36114e-06
-3.16212e-08
3.74564e-06
-3.78745e-07
4.21461e-06
3.64476e-06
-6.66584e-07
-3.03845e-07
-7.11681e-07
-6.38617e-07
-9.6501e-07
-8.08463e-07
-1.1025e-06
-7.67529e-07
-1.15684e-06
-5.27511e-07
-1.05848e-06
-1.54011e-07
-7.32926e-07
2.45007e-07
-1.41876e-07
5.44031e-07
7.92999e-07
7.00659e-07
2.20451e-06
6.95032e-07
3.75127e-06
4.96162e-07
4.41348e-06
3.95359e-06
1.87341e-07
-4.47983e-07
-2.63698e-07
-8.75911e-07
-5.37083e-07
-1.09415e-06
-8.84259e-07
-1.0761e-06
-1.17489e-06
-8.21576e-07
-1.313e-06
-3.85915e-07
-1.16859e-06
1.22189e-07
-6.4998e-07
6.43094e-07
2.72093e-07
1.11315e-06
1.73445e-06
1.44233e-06
3.42209e-06
1.48193e-06
4.37388e-06
4.19275e-06
1.24276e-06
-5.06543e-07
2.42845e-07
-8.01819e-07
-2.41807e-07
-9.29753e-07
-7.56324e-07
-9.15717e-07
-1.18893e-06
-7.22933e-07
-1.50579e-06
-3.54011e-07
-1.53751e-06
1.51438e-07
-1.15543e-06
7.24566e-07
-3.01034e-07
1.42191e-06
1.03711e-06
2.08177e-06
2.76223e-06
2.45341e-06
4.00225e-06
4.21515e-06
2.43101e-06
-4.95916e-08
2.92436e-07
1.34426e-07
-4.25825e-07
2.70143e-07
-8.92041e-07
3.18624e-07
-1.23741e-06
3.40651e-07
-1.52781e-06
4.21096e-07
-1.61796e-06
6.40913e-07
-1.37525e-06
1.05344e-06
-7.13558e-07
1.70326e-06
3.87292e-07
2.53745e-06
1.92803e-06
3.23278e-06
3.30692e-06
3.90743e-06
3.5405e-06
1.75953e-06
-1.4671e-06
2.568e-06
-1.2343e-06
2.81718e-06
-1.14122e-06
2.83366e-06
-1.25388e-06
2.63786e-06
-1.33202e-06
2.29233e-06
-1.27242e-06
1.98321e-06
-1.06613e-06
1.92566e-06
-6.56004e-07
2.22769e-06
8.52576e-08
2.92925e-06
1.22647e-06
3.75668e-06
2.47949e-06
4.3616e-06
3.3025e-06
-2.75093e-07
6.1321e-07
-9.52289e-07
6.77196e-07
-1.4946e-06
5.42315e-07
-1.79497e-06
3.00363e-07
-1.83456e-06
3.95953e-08
-1.59444e-06
-2.40125e-07
-1.11139e-06
-4.83045e-07
-4.96403e-07
-6.14991e-07
8.04662e-08
-5.76869e-07
3.95801e-07
-3.15335e-07
2.9799e-07
9.78115e-08
2.9799e-07
-2.15439e-06
1.44531e-06
-2.7135e-06
1.23631e-06
-3.02921e-06
8.58026e-07
-3.15494e-06
4.26093e-07
-3.0815e-06
-3.38391e-08
-2.86344e-06
-4.58189e-07
-2.46145e-06
-8.85033e-07
-1.85603e-06
-1.22041e-06
-1.10633e-06
-1.32657e-06
-3.84104e-07
-1.03756e-06
3.76982e-08
-3.23991e-07
3.35688e-07
-2.74806e-06
1.97432e-06
-3.04633e-06
1.53458e-06
-3.23596e-06
1.04765e-06
-3.36698e-06
5.57114e-07
-3.44437e-06
4.35442e-08
-3.39188e-06
-5.10674e-07
-3.18957e-06
-1.08735e-06
-2.76848e-06
-1.64149e-06
-2.06668e-06
-2.02838e-06
-1.12857e-06
-1.97567e-06
-2.5853e-07
-1.19403e-06
7.71575e-08
-2.56037e-06
2.24644e-06
-2.70071e-06
1.67491e-06
-2.80728e-06
1.15423e-06
-2.91323e-06
6.63064e-07
-3.02072e-06
1.51035e-07
-3.10872e-06
-4.22682e-07
-3.12232e-06
-1.07375e-06
-2.98309e-06
-1.78071e-06
-2.5611e-06
-2.45036e-06
-1.73293e-06
-2.80385e-06
-6.306e-07
-2.29636e-06
-5.53442e-07
-2.07067e-06
2.39771e-06
-2.15556e-06
1.7598e-06
-2.24283e-06
1.2415e-06
-2.34965e-06
7.6988e-07
-2.46515e-06
2.66539e-07
-2.5705e-06
-3.17327e-07
-2.6482e-06
-9.96053e-07
-2.66381e-06
-1.7651e-06
-2.52097e-06
-2.59321e-06
-2.01401e-06
-3.31081e-06
-9.88507e-07
-3.32186e-06
-1.54195e-06
-1.49835e-06
2.53963e-06
-1.59111e-06
1.85256e-06
-1.68888e-06
1.33927e-06
-1.81362e-06
8.94619e-07
-1.94681e-06
3.99726e-07
-2.05694e-06
-2.07196e-07
-2.12396e-06
-9.29032e-07
-2.14519e-06
-1.74387e-06
-2.11084e-06
-2.62756e-06
-1.89071e-06
-3.53093e-06
-1.15029e-06
-4.06229e-06
-2.69224e-06
-8.56336e-07
2.72939e-06
-9.63494e-07
1.95972e-06
-1.05324e-06
1.42902e-06
-1.18753e-06
1.02891e-06
-1.35479e-06
5.66992e-07
-1.50847e-06
-5.35152e-08
-1.6006e-06
-8.36909e-07
-1.61256e-06
-1.73191e-06
-1.56682e-06
-2.6733e-06
-1.47e-06
-3.62776e-06
-1.06132e-06
-4.47097e-06
-3.75355e-06
-8.46529e-08
3.00138e-06
-2.27275e-07
2.10234e-06
-3.03251e-07
1.50499e-06
-4.31835e-07
1.15749e-06
-6.28097e-07
7.63255e-07
-8.35719e-07
1.54106e-07
-9.87929e-07
-6.84699e-07
-1.04153e-06
-1.67831e-06
-9.96824e-07
-2.718e-06
-9.16405e-07
-3.70817e-06
-7.66487e-07
-4.62089e-06
-4.52004e-06
9.16178e-07
3.32796e-06
6.86797e-07
2.33172e-06
5.72204e-07
1.61959e-06
4.55834e-07
1.27386e-06
2.53876e-07
9.65213e-07
1.73774e-09
4.06244e-07
-2.16735e-07
-4.66226e-07
-3.42643e-07
-1.5524e-06
-3.64468e-07
-2.69618e-06
-3.28047e-07
-3.7446e-06
-3.31507e-07
-4.61743e-06
-4.85155e-06
2.16021e-06
3.59876e-06
1.85299e-06
2.63895e-06
1.62931e-06
1.84327e-06
1.46974e-06
1.43342e-06
1.27508e-06
1.15988e-06
1.02151e-06
6.59811e-07
7.68593e-07
-2.13309e-07
5.74777e-07
-1.35858e-06
4.45261e-07
-2.56666e-06
3.32512e-07
-3.63185e-06
1.82101e-07
-4.46702e-06
-4.66945e-06
3.47818e-06
3.66109e-06
3.20542e-06
2.9117e-06
2.89692e-06
2.15177e-06
2.64887e-06
1.68148e-06
2.432e-06
1.37675e-06
2.20094e-06
8.90875e-07
1.96665e-06
2.09784e-08
1.75676e-06
-1.14869e-06
1.55585e-06
-2.36575e-06
1.26705e-06
-3.34305e-06
8.19137e-07
-4.01911e-06
-3.85031e-06
4.59487e-06
3.42782e-06
4.50124e-06
3.00533e-06
4.23303e-06
2.41998e-06
3.94804e-06
1.96647e-06
3.71173e-06
1.61306e-06
3.50999e-06
1.09261e-06
3.32549e-06
2.05481e-07
3.16076e-06
-9.83965e-07
2.98945e-06
-2.19445e-06
2.7006e-06
-3.05419e-06
1.9366e-06
-3.2551e-06
-1.91371e-06
8.86078e-08
-8.86078e-08
3.8353e-07
-2.94923e-07
7.24451e-07
-3.40921e-07
1.01773e-06
-2.93274e-07
1.20707e-06
-1.89343e-07
1.27986e-06
-7.279e-08
1.27122e-06
8.63856e-09
1.21329e-06
5.79265e-08
1.12965e-06
8.36482e-08
1.00394e-06
1.25709e-07
7.59224e-07
2.44713e-07
4.12667e-07
3.46556e-07
1.81214e-07
-2.69821e-07
5.45917e-07
-6.59626e-07
9.28066e-07
-7.2307e-07
1.21365e-06
-5.78855e-07
1.36316e-06
-3.38861e-07
1.39261e-06
-1.02236e-07
1.30353e-06
9.77156e-08
1.14591e-06
2.15547e-07
9.03711e-07
3.2585e-07
4.3967e-07
5.8975e-07
-3.39793e-07
1.02418e-06
1.37165e-06
-1.29878e-06
2.83411e-07
-5.53232e-07
6.91455e-07
-1.06767e-06
1.03576e-06
-1.06738e-06
1.25907e-06
-8.02158e-07
1.34627e-06
-4.26066e-07
1.26984e-06
-2.58081e-08
1.06998e-06
2.97576e-07
7.84763e-07
5.00768e-07
3.39071e-07
7.71542e-07
-4.30572e-07
1.35939e-06
-1.37725e-06
1.97086e-06
2.19372e-06
-2.19932e-06
2.91504e-07
-8.44736e-07
6.12428e-07
-1.38859e-06
8.2959e-07
-1.28454e-06
9.51571e-07
-9.24139e-07
9.90176e-07
-4.64671e-07
9.34986e-07
2.93818e-08
7.6978e-07
4.62783e-07
4.76724e-07
7.93824e-07
-7.5246e-08
1.32351e-06
-9.11479e-07
2.19563e-06
-1.72809e-06
2.78747e-06
2.7429e-06
-2.27728e-06
2.20653e-07
-1.06539e-06
3.68368e-07
-1.53631e-06
4.56972e-07
-1.37315e-06
5.35408e-07
-1.00257e-06
5.92432e-07
-5.21696e-07
6.04547e-07
1.72671e-08
5.29199e-07
5.38131e-07
2.96934e-07
1.02609e-06
-2.17854e-07
1.8383e-06
-9.36531e-07
2.9143e-06
-1.55811e-06
3.40905e-06
3.09918e-06
-1.91439e-06
6.93259e-08
-1.13472e-06
3.2143e-08
-1.49913e-06
2.53852e-08
-1.36639e-06
9.11929e-08
-1.06838e-06
2.09903e-07
-6.40407e-07
3.3778e-07
-1.1061e-07
3.97327e-07
4.78583e-07
2.82447e-07
1.14097e-06
-7.88761e-08
2.19962e-06
-6.04153e-07
3.43958e-06
-1.07228e-06
3.87718e-06
3.38085e-06
-1.35395e-06
-1.21211e-07
-1.0135e-06
-3.18036e-07
-1.3023e-06
-4.0574e-07
-1.27869e-06
-3.49085e-07
-1.12504e-06
-1.61341e-07
-8.28151e-07
9.74727e-08
-3.69423e-07
3.28951e-07
2.47105e-07
3.96194e-07
1.07373e-06
2.65587e-07
2.33023e-06
-2.32054e-08
3.72837e-06
-3.73281e-07
4.22725e-06
3.67236e-06
-6.64789e-07
-3.06571e-07
-7.06934e-07
-6.44416e-07
-9.64455e-07
-8.16864e-07
-1.10624e-06
-7.77465e-07
-1.16444e-06
-5.36708e-07
-1.06891e-06
-1.60997e-07
-7.45134e-07
2.41832e-07
-1.55724e-07
5.44424e-07
7.71134e-07
7.02044e-07
2.17261e-06
6.97544e-07
3.73287e-06
4.99107e-07
4.42569e-06
3.98275e-06
1.88715e-07
-4.49827e-07
-2.57107e-07
-8.81702e-07
-5.3258e-07
-1.10391e-06
-8.8403e-07
-1.08802e-06
-1.18032e-06
-8.33006e-07
-1.32392e-06
-3.94788e-07
-1.18335e-06
1.17018e-07
-6.6753e-07
6.39477e-07
2.48674e-07
1.10858e-06
1.70351e-06
1.43869e-06
3.40276e-06
1.481e-06
4.38338e-06
4.22143e-06
1.24232e-06
-5.05666e-07
2.48559e-07
-8.04966e-07
-2.3328e-07
-9.36591e-07
-7.52405e-07
-9.25255e-07
-1.19166e-06
-7.33298e-07
-1.51588e-06
-3.63512e-07
-1.55314e-06
1.45119e-07
-1.17616e-06
7.17567e-07
-3.23775e-07
1.41235e-06
1.00873e-06
2.07218e-06
2.74292e-06
2.44744e-06
4.00812e-06
4.24145e-06
2.42742e-06
-4.83855e-08
2.96945e-07
1.35474e-07
-4.1714e-07
2.69138e-07
-8.8607e-07
3.16684e-07
-1.23921e-06
3.37998e-07
-1.53719e-06
4.17142e-07
-1.63228e-06
6.33953e-07
-1.39297e-06
1.04349e-06
-7.33315e-07
1.68973e-06
3.62493e-07
2.52303e-06
1.90962e-06
3.22222e-06
3.30893e-06
3.92973e-06
3.53394e-06
1.75846e-06
-1.46152e-06
2.56719e-06
-1.22586e-06
2.81942e-06
-1.1383e-06
2.83844e-06
-1.25823e-06
2.64272e-06
-1.34147e-06
2.29447e-06
-1.28404e-06
1.98012e-06
-1.07862e-06
1.91768e-06
-6.70871e-07
2.21286e-06
6.73158e-08
2.91158e-06
1.2109e-06
3.74238e-06
2.47813e-06
4.35283e-06
3.31928e-06
-2.62349e-07
6.08906e-07
-9.38098e-07
6.75748e-07
-1.48125e-06
5.43148e-07
-1.78316e-06
3.01916e-07
-1.82421e-06
4.10505e-08
-1.58585e-06
-2.38361e-07
-1.10415e-06
-4.81699e-07
-4.90551e-07
-6.13602e-07
8.4569e-08
-5.7512e-07
3.97817e-07
-3.13248e-07
2.9854e-07
9.92774e-08
2.9854e-07
-2.13464e-06
1.44477e-06
-2.69854e-06
1.23966e-06
-3.01793e-06
8.62537e-07
-3.14615e-06
4.30138e-07
-3.07496e-06
-3.0142e-08
-2.85751e-06
-4.55809e-07
-2.45617e-06
-8.83048e-07
-1.85128e-06
-1.21849e-06
-1.1023e-06
-1.3241e-06
-3.81338e-07
-1.03421e-06
3.85657e-08
-3.20627e-07
3.37105e-07
-2.73627e-06
1.98172e-06
-3.04016e-06
1.54354e-06
-3.23307e-06
1.05545e-06
-3.36614e-06
5.63209e-07
-3.44414e-06
4.78525e-08
-3.39226e-06
-5.0768e-07
-3.18979e-06
-1.08552e-06
-2.76799e-06
-1.64028e-06
-2.06527e-06
-2.02682e-06
-1.12674e-06
-1.97274e-06
-2.57498e-07
-1.18987e-06
7.96071e-08
-2.55648e-06
2.26092e-06
-2.70059e-06
1.68765e-06
-2.80916e-06
1.16402e-06
-2.91632e-06
6.7037e-07
-3.02447e-06
1.56007e-07
-3.11297e-06
-4.19176e-07
-3.12662e-06
-1.07188e-06
-2.98671e-06
-1.78018e-06
-2.56319e-06
-2.45034e-06
-1.73312e-06
-2.80282e-06
-6.29818e-07
-2.29317e-06
-5.50211e-07
-2.07034e-06
2.41686e-06
-2.15723e-06
1.77454e-06
-2.24539e-06
1.25218e-06
-2.35272e-06
7.77692e-07
-2.46893e-06
2.72226e-07
-2.57491e-06
-3.13195e-07
-2.65322e-06
-9.93581e-07
-2.66901e-06
-1.76439e-06
-2.52542e-06
-2.59393e-06
-2.01651e-06
-3.31172e-06
-9.88861e-07
-3.32082e-06
-1.53907e-06
-1.49912e-06
2.56203e-06
-1.59366e-06
1.86908e-06
-1.69229e-06
1.35082e-06
-1.81732e-06
9.02715e-07
-1.95065e-06
4.05555e-07
-2.06108e-06
-2.02759e-07
-2.12845e-06
-9.26216e-07
-2.15003e-06
-1.74281e-06
-2.11568e-06
-2.62828e-06
-1.8945e-06
-3.53291e-06
-1.15178e-06
-4.06354e-06
-2.69085e-06
-8.57759e-07
2.755e-06
-9.67587e-07
1.97891e-06
-1.05826e-06
1.44149e-06
-1.19253e-06
1.03699e-06
-1.35959e-06
5.7261e-07
-1.51295e-06
-4.93961e-08
-1.60488e-06
-8.34286e-07
-1.61675e-06
-1.73094e-06
-1.57097e-06
-2.67406e-06
-1.47375e-06
-3.63013e-06
-1.06333e-06
-4.47396e-06
-3.75418e-06
-8.67556e-08
3.03047e-06
-2.32916e-07
2.12507e-06
-3.09961e-07
1.51854e-06
-4.38024e-07
1.16505e-06
-6.33474e-07
7.68061e-07
-8.40337e-07
1.57467e-07
-9.92068e-07
-6.82555e-07
-1.04532e-06
-1.67769e-06
-1.00028e-06
-2.7191e-06
-9.19522e-07
-3.71089e-06
-7.68478e-07
-4.625e-06
-4.52266e-06
9.12832e-07
3.35996e-06
6.80049e-07
2.35785e-06
5.64077e-07
1.63451e-06
4.48566e-07
1.28056e-06
2.48173e-07
9.68454e-07
-2.76651e-09
4.08406e-07
-2.2058e-07
-4.64741e-07
-3.46084e-07
-1.55218e-06
-3.67454e-07
-2.69773e-06
-3.30524e-07
-3.74782e-06
-3.33318e-07
-4.6222e-06
-4.85598e-06
2.1556e-06
3.63178e-06
1.84627e-06
2.66718e-06
1.62111e-06
1.85967e-06
1.46205e-06
1.43962e-06
1.26907e-06
1.16143e-06
1.01701e-06
6.60469e-07
7.6497e-07
-2.12701e-07
5.71675e-07
-1.35889e-06
4.42657e-07
-2.56871e-06
3.30561e-07
-3.63572e-06
1.80689e-07
-4.47233e-06
-4.67529e-06
3.47302e-06
3.6927e-06
3.19994e-06
2.94026e-06
2.89044e-06
2.16917e-06
2.64222e-06
1.68785e-06
2.42628e-06
1.37737e-06
2.19647e-06
8.90274e-07
1.96313e-06
2.06416e-08
1.75397e-06
-1.14973e-06
1.55374e-06
-2.36848e-06
1.2657e-06
-3.34768e-06
8.18135e-07
-4.02477e-06
-3.85716e-06
4.59014e-06
3.45539e-06
4.49832e-06
3.03209e-06
4.22998e-06
2.43751e-06
3.94417e-06
1.97365e-06
3.70747e-06
1.61407e-06
3.50591e-06
1.09184e-06
3.32207e-06
2.0448e-07
3.15821e-06
-9.85865e-07
2.9879e-06
-2.19817e-06
2.69999e-06
-3.05977e-06
1.93674e-06
-3.26153e-06
-1.92041e-06
9.27282e-08
-9.27282e-08
3.86417e-07
-2.93689e-07
7.33229e-07
-3.46812e-07
1.02742e-06
-2.94191e-07
1.21475e-06
-1.87326e-07
1.28491e-06
-7.01651e-08
1.27467e-06
1.02375e-08
1.21516e-06
5.95106e-08
1.12985e-06
8.53103e-08
1.00207e-06
1.27787e-07
7.54443e-07
2.47623e-07
4.16006e-07
3.38437e-07
1.81945e-07
-2.74673e-07
5.50119e-07
-6.61863e-07
9.30275e-07
-7.26968e-07
1.21431e-06
-5.78229e-07
1.36176e-06
-3.34775e-07
1.39015e-06
-9.85498e-08
1.30016e-06
1.00224e-07
1.14217e-06
2.175e-07
8.97193e-07
3.30287e-07
4.26297e-07
5.98683e-07
-3.60273e-07
1.03419e-06
1.37738e-06
-1.32164e-06
2.82734e-07
-5.57407e-07
6.90535e-07
-1.06966e-06
1.02977e-06
-1.06621e-06
1.24881e-06
-7.97264e-07
1.33298e-06
-4.18943e-07
1.2542e-06
-1.97728e-08
1.05481e-06
2.99614e-07
7.70568e-07
5.0174e-07
3.20366e-07
7.80489e-07
-4.55906e-07
1.37496e-06
-1.40282e-06
1.9811e-06
2.19334e-06
-2.21878e-06
2.90284e-07
-8.47691e-07
6.08105e-07
-1.38748e-06
8.20655e-07
-1.27876e-06
9.39046e-07
-9.15655e-07
9.75844e-07
-4.5574e-07
9.19338e-07
3.67331e-08
7.53818e-07
4.65133e-07
4.59339e-07
7.96219e-07
-9.96279e-08
1.33946e-06
-9.38148e-07
2.21348e-06
-1.74859e-06
2.79154e-06
2.73314e-06
-2.28839e-06
2.191e-07
-1.06679e-06
3.64063e-07
-1.53245e-06
4.50523e-07
-1.36522e-06
5.27489e-07
-9.92621e-07
5.82762e-07
-5.11014e-07
5.94642e-07
2.48535e-08
5.18157e-07
5.41617e-07
2.81517e-07
1.03286e-06
-2.39955e-07
1.86093e-06
-9.57867e-07
2.93139e-06
-1.57171e-06
3.40538e-06
3.08118e-06
-1.91975e-06
6.88432e-08
-1.13563e-06
3.1229e-08
-1.49483e-06
2.44046e-08
-1.35839e-06
8.9933e-08
-1.05815e-06
2.08711e-07
-6.29791e-07
3.35829e-07
-1.02265e-07
3.92585e-07
4.84862e-07
2.71767e-07
1.15368e-06
-9.44601e-08
2.22715e-06
-6.18914e-07
3.45584e-06
-1.08094e-06
3.86741e-06
3.35705e-06
-1.35681e-06
-1.19765e-07
-1.01587e-06
-3.14815e-07
-1.29978e-06
-4.01062e-07
-1.27214e-06
-3.43667e-07
-1.11554e-06
-1.55394e-07
-8.18064e-07
1.01447e-07
-3.59106e-07
3.29006e-07
2.57302e-07
3.90683e-07
1.092e-06
2.57146e-07
2.36069e-06
-3.20284e-08
3.74502e-06
-3.79102e-07
4.21448e-06
3.64486e-06
-6.66909e-07
-3.03666e-07
-7.12204e-07
-6.38332e-07
-9.65118e-07
-8.0818e-07
-1.1023e-06
-7.67316e-07
-1.15641e-06
-5.27481e-07
-1.0579e-06
-1.54258e-07
-7.32328e-07
2.44472e-07
-1.41428e-07
5.4334e-07
7.93133e-07
6.99934e-07
2.2041e-06
6.94455e-07
3.75049e-06
4.95835e-07
4.4131e-06
3.95353e-06
1.87156e-07
-4.47722e-07
-2.64481e-07
-8.75498e-07
-5.37342e-07
-1.09375e-06
-8.84046e-07
-1.07573e-06
-1.17443e-06
-8.21341e-07
-1.31228e-06
-3.85991e-07
-1.16768e-06
1.21669e-07
-6.49088e-07
6.42229e-07
2.72573e-07
1.11216e-06
1.73417e-06
1.44151e-06
3.42114e-06
1.48154e-06
4.37308e-06
4.19234e-06
1.24273e-06
-5.06379e-07
2.41898e-07
-8.01724e-07
-2.41997e-07
-9.29787e-07
-7.55983e-07
-9.15651e-07
-1.18857e-06
-7.22728e-07
-1.50521e-06
-3.53907e-07
-1.5365e-06
1.51208e-07
-1.1542e-06
7.23837e-07
-3.00055e-07
1.4208e-06
1.0372e-06
2.08069e-06
2.76126e-06
2.45277e-06
4.00099e-06
4.21418e-06
2.43093e-06
-4.99159e-08
2.91814e-07
1.33353e-07
-4.25266e-07
2.68878e-07
-8.91508e-07
3.17662e-07
-1.23735e-06
3.40063e-07
-1.52761e-06
4.20833e-07
-1.61727e-06
6.40797e-07
-1.37417e-06
1.0532e-06
-7.12463e-07
1.70247e-06
3.8793e-07
2.5363e-06
1.92743e-06
3.23179e-06
3.3055e-06
3.90594e-06
3.54004e-06
1.75799e-06
-1.46618e-06
2.56569e-06
-1.23296e-06
2.81493e-06
-1.14075e-06
2.83143e-06
-1.25385e-06
2.63573e-06
-1.3319e-06
2.29065e-06
-1.2722e-06
1.98238e-06
-1.0659e-06
1.92547e-06
-6.55549e-07
2.2275e-06
8.58925e-08
2.92854e-06
1.2264e-06
3.75562e-06
2.47843e-06
4.36066e-06
3.3009e-06
-2.74571e-07
6.13009e-07
-9.51704e-07
6.77133e-07
-1.49404e-06
5.42333e-07
-1.79441e-06
3.0037e-07
-1.83398e-06
3.95752e-08
-1.59379e-06
-2.40192e-07
-1.11066e-06
-4.83133e-07
-4.95601e-07
-6.15057e-07
8.12317e-08
-5.76833e-07
3.96358e-07
-3.15126e-07
2.98254e-07
9.81045e-08
2.98254e-07
-2.15383e-06
1.4452e-06
-2.71301e-06
1.23631e-06
-3.0287e-06
8.58029e-07
-3.15439e-06
4.26061e-07
-3.0809e-06
-3.39143e-08
-2.86281e-06
-4.58285e-07
-2.46078e-06
-8.85161e-07
-1.85532e-06
-1.22052e-06
-1.1056e-06
-1.32655e-06
-3.83491e-07
-1.03724e-06
3.79893e-08
-3.23376e-07
3.36243e-07
-2.7479e-06
1.97432e-06
-3.04615e-06
1.53455e-06
-3.23571e-06
1.04758e-06
-3.36668e-06
5.57037e-07
-3.44407e-06
4.3473e-08
-3.39158e-06
-5.1077e-07
-3.18925e-06
-1.08749e-06
-2.7681e-06
-1.64167e-06
-2.0662e-06
-2.02845e-06
-1.12806e-06
-1.97538e-06
-2.58219e-07
-1.19322e-06
7.80239e-08
-2.56051e-06
2.24644e-06
-2.70074e-06
1.67478e-06
-2.80722e-06
1.15406e-06
-2.91315e-06
6.62965e-07
-3.02068e-06
1.51006e-07
-3.10875e-06
-4.22704e-07
-3.12241e-06
-1.07383e-06
-2.98318e-06
-1.7809e-06
-2.56106e-06
-2.45056e-06
-1.73268e-06
-2.80376e-06
-6.30308e-07
-2.29559e-06
-5.52284e-07
-2.07092e-06
2.39762e-06
-2.15566e-06
1.75952e-06
-2.24283e-06
1.24123e-06
-2.34963e-06
7.69758e-07
-2.46518e-06
2.66558e-07
-2.57064e-06
-3.17245e-07
-2.64846e-06
-9.96006e-07
-2.66419e-06
-1.76518e-06
-2.52134e-06
-2.59341e-06
-2.01416e-06
-3.31094e-06
-9.88374e-07
-3.32138e-06
-1.54066e-06
-1.49863e-06
2.53944e-06
-1.59123e-06
1.85213e-06
-1.68889e-06
1.33889e-06
-1.81358e-06
8.94452e-07
-1.9468e-06
3.9977e-07
-2.05701e-06
-2.07034e-07
-2.12415e-06
-9.28861e-07
-2.14555e-06
-1.74378e-06
-2.11134e-06
-2.62762e-06
-1.89116e-06
-3.53112e-06
-1.15038e-06
-4.06216e-06
-2.69104e-06
-8.5659e-07
2.72912e-06
-9.63623e-07
1.95916e-06
-1.05323e-06
1.4285e-06
-1.18743e-06
1.02866e-06
-1.35467e-06
5.67011e-07
-1.5084e-06
-5.33048e-08
-1.60062e-06
-8.3664e-07
-1.61273e-06
-1.73167e-06
-1.56717e-06
-2.67317e-06
-1.47048e-06
-3.62782e-06
-1.06154e-06
-4.4711e-06
-3.75257e-06
-8.48151e-08
3.0011e-06
-2.27383e-07
2.10173e-06
-3.03202e-07
1.50432e-06
-4.31626e-07
1.15708e-06
-6.27813e-07
7.63198e-07
-8.35447e-07
1.54329e-07
-9.87749e-07
-6.84338e-07
-1.04151e-06
-1.67792e-06
-9.96987e-07
-2.71769e-06
-9.1675e-07
-3.70805e-06
-7.66696e-07
-4.62116e-06
-4.51927e-06
9.16238e-07
3.32758e-06
6.86836e-07
2.33113e-06
5.72308e-07
1.61884e-06
4.56117e-07
1.27327e-06
2.54316e-07
9.64999e-07
2.22847e-09
4.06416e-07
-2.16343e-07
-4.65766e-07
-3.42441e-07
-1.55182e-06
-3.64479e-07
-2.69565e-06
-3.28254e-07
-3.74428e-06
-3.31749e-07
-4.61766e-06
-4.85102e-06
2.16047e-06
3.59805e-06
1.85329e-06
2.6383e-06
1.62954e-06
1.84259e-06
1.47e-06
1.43281e-06
1.27548e-06
1.15953e-06
1.02205e-06
6.59845e-07
7.69081e-07
-2.12799e-07
5.75089e-07
-1.35783e-06
4.45351e-07
-2.56592e-06
3.32433e-07
-3.63136e-06
1.81793e-07
-4.46702e-06
-4.66923e-06
3.47823e-06
3.65986e-06
3.20575e-06
2.91078e-06
2.89726e-06
2.15108e-06
2.64912e-06
1.68095e-06
2.43228e-06
1.37638e-06
2.2014e-06
8.90716e-07
1.96713e-06
2.14733e-08
1.75713e-06
-1.14782e-06
1.55601e-06
-2.3648e-06
1.26703e-06
-3.34238e-06
8.18714e-07
-4.0187e-06
-3.85051e-06
4.5943e-06
3.42621e-06
4.50106e-06
3.00403e-06
4.23305e-06
2.41909e-06
3.9481e-06
1.9659e-06
3.71187e-06
1.61261e-06
3.51025e-06
1.09233e-06
3.32591e-06
2.05818e-07
3.16115e-06
-9.83062e-07
2.98971e-06
-2.19336e-06
2.7007e-06
-3.05337e-06
1.93654e-06
-3.25454e-06
-1.91397e-06
5.18634e-06
-1.81853e-06
-4.82997e-06
5.45365e-06
-1.49563e-06
5.53677e-06
-1.22296e-06
5.37234e-06
-1.09416e-06
5.02972e-06
-9.98757e-07
4.55344e-06
-8.07784e-07
3.97891e-06
-5.04584e-07
3.46543e-06
-1.58967e-07
3.24327e-06
2.86336e-07
3.52049e-06
9.29677e-07
4.17945e-06
1.81689e-06
2.61539e-06
4.88462e-06
6.30196e-06
-1.97514e-06
-6.14535e-06
6.33307e-06
-1.52674e-06
6.29314e-06
-1.18303e-06
6.14764e-06
-9.48657e-07
5.92896e-06
-7.80075e-07
5.69905e-06
-5.77882e-07
5.46224e-06
-2.67772e-07
5.15066e-06
1.5262e-07
4.82851e-06
6.08486e-07
4.69218e-06
1.066e-06
4.9185e-06
1.59057e-06
2.12596e-06
5.40793e-06
7.31718e-06
-1.92991e-06
-7.36241e-06
7.22384e-06
-1.43339e-06
7.10487e-06
-1.06406e-06
6.95165e-06
-7.95435e-07
6.76279e-06
-5.91224e-07
6.57396e-06
-3.89048e-07
6.4422e-06
-1.36011e-07
6.36152e-06
2.33299e-07
6.28352e-06
6.86483e-07
6.18468e-06
1.16484e-06
6.16901e-06
1.60623e-06
1.96838e-06
6.32659e-06
8.13843e-06
-8.33814e-06
7.96856e-06
7.82187e-06
7.68863e-06
7.55621e-06
7.43193e-06
7.33498e-06
7.30937e-06
7.35751e-06
7.43982e-06
7.52095e-06
7.61436e-06
5.35861e-06
2.98579e-06
5.50982e-06
2.88608e-06
5.41234e-06
2.53842e-06