/*--------------------------------*- C++ -*----------------------------------*\
| =========                 |                                                 |
| \\      /  F ield         | OpenFOAM: The Open Source CFD Toolbox           |
|  \\    /   O peration     | Version:  v1606+                                |
|   \\  /    A nd           | Web:      www.OpenFOAM.com                      |
|    \\/     M anipulation  |                                                 |
\*---------------------------------------------------------------------------*/
FoamFile
{
    version     2.0;
    format      ascii;
    class       surfaceVectorField;
    location    "0.2";
    object      Uf;
}
// * * * * * * * * * * * * * * * * * * * * * * * * * * * * * * * * * * * * * //

dimensions      [0 1 -1 0 0 0 0];

internalField   nonuniform List<vector> 
1460
(
(-0.116752 0.0238791 1.55892e-19)
(-0.142215 0.0221201 -1.29934e-19)
(-0.105688 0.0257415 -2.2357e-19)
(-0.13314 0.0381939 8.5117e-20)
(-0.0999165 0.0384282 -1.42486e-19)
(-0.128476 0.065528 -1.71082e-19)
(-0.0983085 0.0597992 1.44186e-19)
(-0.130099 0.0965359 7.9306e-20)
(-0.0993705 0.089664 5.04649e-20)
(-0.135091 0.131927 5.14033e-20)
(-0.101093 0.127361 -1.9477e-19)
(-0.140811 0.169704 6.72323e-20)
(-0.102523 0.169895 -1.13978e-20)
(-0.145819 0.207509 -2.56832e-19)
(-0.103341 0.212696 1.04332e-19)
(-0.149804 0.242097 7.37131e-20)
(-0.103194 0.251699 9.25994e-20)
(-0.152339 0.271217 1.56101e-20)
(-0.101599 0.284268 -2.52082e-20)
(-0.152763 0.29405 1.20853e-19)
(-0.0981526 0.309165 -3.23579e-19)
(-0.150402 0.310735 -1.04342e-19)
(-0.144867 0.321749 -6.85971e-20)
(-0.0925939 0.326194 7.31792e-20)
(-0.150958 0.0380764 -2.04753e-19)
(-0.16064 0.0399992 -2.11633e-19)
(-0.152996 0.0794824 1.52718e-19)
(-0.166595 0.0848362 4.44511e-20)
(-0.1579 0.12712 6.132e-20)
(-0.172522 0.13588 1.43118e-21)
(-0.165349 0.175404 -9.51376e-21)
(-0.179099 0.1856 -7.65293e-20)
(-0.172838 0.22172 6.85062e-20)
(-0.184004 0.231053 4.34474e-20)
(-0.179008 0.262241 7.17527e-21)
(-0.185912 0.269036 3.07905e-20)
(-0.183394 0.293705 -1.77046e-19)
(-0.18488 0.297506 1.68622e-19)
(-0.186183 0.314919 -5.35986e-20)
(-0.181897 0.316017 -2.09524e-19)
(-0.187369 0.326948 6.61176e-21)
(-0.177863 0.325995 6.34055e-20)
(-0.186374 0.332149 6.27996e-21)
(-0.173138 0.329896 -1.36937e-19)
(-0.182361 0.333002 1.38467e-19)
(-0.16746 0.330167 1.58223e-19)
(-0.160286 0.328549 7.7731e-20)
(-0.174735 0.331395 -2.55329e-20)
(-0.170413 0.0911036 1.52379e-20)
(-0.164068 0.0829349 1.15466e-19)
(-0.181662 0.148064 -1.08759e-19)
(-0.181122 0.144186 -5.09261e-20)
(-0.190101 0.202061 -1.14564e-19)
(-0.189366 0.198073 -5.94852e-20)
(-0.194974 0.2478 -1.17825e-20)
(-0.194112 0.242618 -1.30008e-19)
(-0.19567 0.282463 1.61308e-21)
(-0.194428 0.275209 7.48166e-20)
(-0.192614 0.305167 1.947e-19)
(-0.191492 0.296095 -4.322e-20)
(-0.186811 0.317307 1.44054e-19)
(-0.186833 0.307455 2.4063e-19)
(-0.179361 0.321932 -9.31819e-20)
(-0.181783 0.312448 -1.69365e-19)
(-0.171014 0.322463 -9.90377e-20)
(-0.176891 0.314071 2.40956e-22)
(-0.162158 0.32149 -4.0615e-21)
(-0.171923 0.314205 -7.26779e-20)
(-0.153028 0.320154 9.48035e-20)
(-0.166376 0.313452 -1.27811e-20)
(-0.159926 0.311806 7.49385e-20)
(-0.143958 0.318329 0)
(-0.176096 0.139924 4.81212e-20)
(-0.160526 0.126776 8.09781e-20)
(-0.186669 0.196665 0)
(-0.180438 0.190933 -6.00706e-20)
(-0.192332 0.240878 -7.43183e-20)
(-0.1855 0.234136 5.76344e-20)
(-0.192846 0.271451 -4.2859e-20)
(-0.186859 0.263596 -7.53529e-20)
(-0.189633 0.289715 3.18643e-20)
(-0.184286 0.280885 3.23079e-20)
(-0.184761 0.299175 0)
(-0.18007 0.290537 5.23992e-20)
(-0.180051 0.303793 -7.59204e-20)
(-0.175862 0.296654 6.02634e-20)
(-0.176522 0.306422 -7.62972e-20)
(-0.172672 0.301652 -1.37439e-19)
(-0.174192 0.308156 3.52073e-20)
(-0.170679 0.305938 -6.30844e-20)
(-0.172246 0.308753 -7.51827e-20)
(-0.169359 0.308654 3.88888e-20)
(-0.169459 0.307653 -3.36327e-20)
(-0.167753 0.308847 -2.05536e-19)
(-0.165249 0.306008 2.01643e-19)
(-0.164471 0.30438 9.00231e-21)
(-0.173409 0.177708 -2.82773e-20)
(-0.1565 0.158247 3.44382e-20)
(-0.178616 0.225697 -7.36508e-21)
(-0.174514 0.220099 -6.17012e-20)
(-0.1805 0.255233 5.84481e-20)
(-0.173924 0.249047 5.91989e-20)
(-0.178675 0.271706 0)
(-0.172732 0.264936 -4.36444e-20)
(-0.174957 0.280696 5.3139e-20)
(-0.169126 0.273353 8.24379e-20)
(-0.171165 0.287186 1.14253e-19)
(-0.165436 0.280405 5.65044e-21)
(-0.168401 0.29371 9.46124e-22)
(-0.162932 0.288552 6.76013e-20)
(-0.166973 0.300241 -1.25542e-19)
(-0.162462 0.297372 -6.41317e-20)
(-0.166545 0.305364 -6.21254e-20)
(-0.1641 0.304889 -6.50516e-20)
(-0.166374 0.307608 -8.85202e-20)
(-0.167089 0.309086 1.19252e-19)
(-0.16559 0.306167 3.46732e-20)
(-0.17003 0.3089 -1.39371e-19)
(-0.170673 0.304708 2.48713e-20)
(-0.163817 0.301953 1.45231e-19)
(-0.169915 0.201809 -3.99335e-21)
(-0.15538 0.174434 1.28857e-20)
(-0.168262 0.239893 0)
(-0.169543 0.234518 -3.85073e-20)
(-0.166699 0.256976 -4.42124e-20)
(-0.162485 0.251262 4.79852e-21)
(-0.163501 0.265164 3.86618e-20)
(-0.159296 0.258781 -7.70584e-20)
(-0.159858 0.271969 3.24114e-20)
(-0.154716 0.264538 7.57791e-20)
(-0.157152 0.280817 -4.53231e-20)
(-0.151035 0.273769 -5.17087e-20)
(-0.156534 0.291441 5.67321e-21)
(-0.149501 0.286422 4.6665e-20)
(-0.158693 0.301633 -2.05534e-21)
(-0.151425 0.300114 -4.6924e-20)
(-0.163408 0.308907 1.14034e-19)
(-0.157201 0.31155 -9.09425e-20)
(-0.169289 0.311437 6.13716e-20)
(-0.165839 0.317702 1.62674e-19)
(-0.174183 0.308659 -1.57025e-19)
(-0.174882 0.316976 9.0353e-22)
(-0.18152 0.30938 -5.43622e-20)
(-0.175584 0.300584 -7.76845e-20)
(-0.169156 0.21188 -5.66522e-20)
(-0.158363 0.176156 7.09462e-21)
(-0.160472 0.243209 -3.41156e-20)
(-0.167292 0.238317 -3.94057e-20)
(-0.155382 0.252436 -2.85182e-20)
(-0.153426 0.246182 3.12765e-20)
(-0.150446 0.257442 -4.27399e-20)
(-0.148156 0.250108 -3.30728e-20)
(-0.145846 0.265791 -1.00311e-20)
(-0.141438 0.256635 -5.32107e-20)
(-0.142922 0.278743 4.16686e-20)
(-0.136175 0.269711 1.9531e-20)
(-0.143386 0.294376 -3.11795e-21)
(-0.134061 0.287726 9.73681e-20)
(-0.148516 0.309466 -1.36827e-19)
(-0.137398 0.307229 -7.56899e-20)
(-0.15819 0.320388 -4.66598e-20)
(-0.14722 0.323281 -9.2533e-20)
(-0.170438 0.324088 9.9945e-20)
(-0.162362 0.331007 1.40755e-19)
(-0.181987 0.319322 1.01816e-19)
(-0.179244 0.328144 5.75364e-20)
(-0.193675 0.315759 9.98327e-20)
(-0.189402 0.306888 4.97209e-20)
(-0.171813 0.209964 -9.65853e-21)
(-0.16747 0.165843 2.95186e-20)
(-0.155399 0.238896 2.67293e-20)
(-0.166444 0.233591 -5.01968e-21)
(-0.146641 0.244045 2.67293e-20)
(-0.147056 0.236852 3.11556e-20)
(-0.138995 0.249123 -4.38023e-20)
(-0.138404 0.239829 1.52342e-20)
(-0.131757 0.260445 -2.40516e-20)
(-0.128362 0.248292 -3.88151e-20)
(-0.126707 0.278224 7.56081e-20)
(-0.119482 0.265436 1.2106e-20)
(-0.126611 0.299684 2.89483e-20)
(-0.114531 0.289005 3.39422e-20)
(-0.133948 0.320068 -3.2551e-20)
(-0.11724 0.314133 -3.10678e-20)
(-0.149227 0.333608 8.72176e-20)
(-0.129835 0.333216 -1.82266e-21)
(-0.169842 0.336069 9.83279e-20)
(-0.151344 0.339397 4.99622e-20)
(-0.190429 0.326643 5.83796e-20)
(-0.177301 0.330819 -4.50386e-20)
(-0.200994 0.311724 1.25864e-21)
(-0.205689 0.308453 1.42599e-20)
(-0.178291 0.198084 2.80633e-20)
(-0.185714 0.146964 3.34611e-20)
(-0.151972 0.229313 -8.81329e-22)
(-0.167275 0.221445 7.07697e-22)
(-0.139416 0.233158 1.95861e-20)
(-0.143457 0.225206 -6.59389e-21)
(-0.128014 0.239241 1.88736e-20)
(-0.129214 0.227289 4.0456e-22)
(-0.116514 0.253567 -2.93868e-21)
(-0.114774 0.237599 6.36563e-21)
(-0.106977 0.275719 -3.18081e-20)
(-0.100362 0.25781 -2.64975e-20)
(-0.103681 0.301642 -2.34863e-20)
(-0.0898251 0.285227 -1.46416e-20)
(-0.111056 0.324355 0)
(-0.0888609 0.313003 7.55729e-20)
(-0.130688 0.336253 -4.70091e-20)
(-0.101642 0.330541 -3.1329e-20)
(-0.159482 0.333428 -9.96793e-20)
(-0.127856 0.330163 1.05534e-20)
(-0.190085 0.316974 -1.02571e-19)
(-0.162706 0.312325 2.56451e-20)
(-0.196502 0.286024 -5.03907e-20)
(-0.215048 0.292784 -3.98412e-20)
(-0.19243 0.178585 4.80018e-21)
(-0.213754 0.125609 -1.62404e-20)
(-0.152614 0.214733 -5.57695e-21)
(-0.173382 0.202243 8.14159e-21)
(-0.133229 0.219549 -2.51318e-20)
(-0.142632 0.210014 -1.65541e-20)
(-0.116748 0.226428 -1.04732e-20)
(-0.120527 0.211486 -4.08212e-20)
(-0.0996392 0.242646 -1.77836e-20)
(-0.10057 0.222859 1.12992e-20)
(-0.0834988 0.266822 -8.59693e-21)
(-0.0795906 0.244128 -2.22176e-20)
(-0.0737451 0.293301 8.54872e-20)
(-0.0611543 0.271573 -3.24304e-21)
(-0.0775055 0.313048 5.93183e-20)
(-0.0533082 0.296862 5.14954e-20)
(-0.0987272 0.318106 2.69595e-20)
(-0.0628796 0.30771 -6.01497e-20)
(-0.134174 0.306647 1.37248e-19)
(-0.0909091 0.296754 5.91422e-20)
(-0.174889 0.282543 7.96137e-20)
(-0.133018 0.26827 -1.12455e-19)
(-0.177164 0.235689 7.09499e-20)
(-0.210495 0.253386 4.64871e-20)
(-0.213034 0.159985 -5.82496e-20)
(-0.256513 0.109928 1.15042e-20)
(-0.15865 0.195704 -8.78322e-21)
(-0.198104 0.180329 5.80787e-20)
(-0.127885 0.201619 -2.80313e-20)
(-0.150826 0.191373 -3.34501e-20)
(-0.105348 0.209065 -1.67748e-20)
(-0.114037 0.192865 -5.63887e-20)
(-0.0821764 0.225606 1.27979e-20)
(-0.0859477 0.203267 -1.26795e-20)
(-0.0580293 0.248764 -1.59626e-20)
(-0.0586097 0.22286 -1.21237e-20)
(-0.0393941 0.271448 -5.38975e-20)
(-0.0317314 0.24638 -5.04028e-21)
(-0.036024 0.283425 -4.68659e-20)
(-0.0150037 0.264159 -3.84999e-20)
(-0.0547603 0.277589 -2.84808e-20)
(-0.018672 0.264413 -4.69174e-20)
(-0.0938701 0.255409 -2.09937e-19)
(-0.0456128 0.242088 4.34742e-20)
(-0.143412 0.224647 -1.18986e-19)
(-0.0917487 0.204692 -2.1178e-19)
(-0.145442 0.166874 1.29912e-20)
(-0.188894 0.192086 1.26342e-19)
(-0.269566 0.131351 5.27209e-20)
(-0.207556 0.0854848 3.57562e-20)
(-0.188701 0.172031 2.07143e-20)
(-0.197161 0.12964 1.02429e-19)
(-0.132169 0.181278 -5.66168e-20)
(-0.162174 0.156749 4.69162e-20)
(-0.0951843 0.188756 -5.36964e-20)
(-0.115837 0.168775 1.57801e-21)
(-0.064256 0.20251 -3.89603e-20)
(-0.0762718 0.18006 8.75357e-22)
(-0.0331465 0.221017 -1.07065e-21)
(-0.0404681 0.195741 6.32927e-21)
(-0.00570674 0.236426 1.30269e-20)
(-0.005498 0.211906 4.47035e-21)
(0.00647162 0.2383 -3.2203e-20)
(0.0201822 0.219212 -1.39732e-20)
(-0.00650593 0.221125 9.85437e-21)
(0.0238595 0.207671 -6.27393e-22)
(-0.044919 0.188644 4.38593e-20)
(-9.91723e-05 0.175449 4.42251e-20)
(-0.0992967 0.151374 -5.97761e-20)
(-0.0472624 0.132063 -5.79526e-20)
(-0.153639 0.118607 -3.70649e-20)
(-0.106262 0.0920774 -3.28176e-21)
(-0.084827 0.335875 4.37347e-20)
(-0.136082 0.327785 1.01529e-19)
(-0.0750821 0.339383 -6.8968e-21)
(-0.123836 0.329885 -9.7312e-20)
(-0.0635393 0.337513 1.0083e-19)
(-0.109478 0.328382 1.51618e-19)
(-0.0505307 0.329082 1.89127e-20)
(-0.0966082 0.322487 -7.03112e-20)
(-0.0377285 0.314388 6.58971e-20)
(-0.0832493 0.313093 1.08978e-19)
(-0.026529 0.293909 3.01203e-21)
(-0.0701815 0.299922 -8.56687e-21)
(-0.0173579 0.26781 1.03748e-21)
(-0.0589641 0.282502 3.06804e-21)
(-0.00949386 0.236322 -1.81882e-21)
(-0.0501 0.260599 -1.14675e-20)
(-0.000567226 0.200406 0)
(-0.0422856 0.234518 8.03568e-21)
(0.0132107 0.163423 0)
(-0.0304497 0.205227 3.26704e-20)
(0.0331352 0.133623 -1.14952e-20)
(-0.00615432 0.173399 -1.80831e-20)
(0.033089 0.139864 -2.76703e-20)
(-0.163099 0.327615 -2.73536e-20)
(-0.152232 0.325306 -1.03691e-19)
(-0.148579 0.322579 7.29975e-20)
(-0.140269 0.32139 1.54345e-19)
(-0.13256 0.316397 -2.18035e-20)
(-0.126112 0.315878 -9.74717e-20)
(-0.116644 0.309569 2.08503e-20)
(-0.112643 0.308587 -4.75514e-20)
(-0.102028 0.301205 3.39196e-20)
(-0.100405 0.299918 5.87038e-20)
(-0.0898162 0.290592 -8.72919e-21)
(-0.0899973 0.290108 -2.64449e-20)
(-0.0807432 0.277371 -9.1644e-21)
(-0.0822701 0.279296 0)
(-0.0739788 0.260814 -5.57769e-22)
(-0.0777927 0.267465 -9.31765e-21)
(-0.0651114 0.239107 4.14774e-20)
(-0.0754931 0.253858 2.5956e-20)
(-0.044862 0.209331 1.93275e-20)
(-0.0692368 0.23649 1.04939e-20)
(-0.00390533 0.171775 -3.77372e-20)
(-0.043633 0.211484 -4.31947e-20)
(0.0170219 0.171488 -5.17189e-20)
(-0.135861 0.316826 8.14891e-20)
(-0.151424 0.309576 -6.6073e-20)
(-0.12674 0.31214 -1.92848e-20)
(-0.144611 0.304653 1.4853e-19)
(-0.11693 0.305072 -1.34526e-19)
(-0.134655 0.298818 -1.06212e-19)
(-0.107227 0.296576 -1.97935e-20)
(-0.123729 0.291738 -1.75088e-20)
(-0.098186 0.287482 1.30429e-21)
(-0.112748 0.283888 1.58399e-20)
(-0.0907066 0.27838 -1.41093e-20)
(-0.102672 0.275775 -1.18946e-20)
(-0.0859492 0.269783 0)
(-0.0945641 0.268009 0)
(-0.0845311 0.261848 1.7931e-20)
(-0.0895678 0.261275 -3.57946e-21)
(-0.0836701 0.252992 -6.64103e-21)
(-0.0883559 0.255525 8.41323e-21)
(-0.0719563 0.236962 -5.09209e-20)
(-0.0880523 0.248834 2.91738e-21)
(-0.0286197 0.203226 -5.98018e-20)
(-0.0724034 0.237216 -7.78052e-21)
(-0.0059018 0.20702 -3.3126e-20)
(-0.156716 0.299061 -5.75671e-22)
(-0.159788 0.30082 -4.65718e-20)
(-0.147402 0.293662 5.67546e-20)
(-0.152682 0.293585 -3.41257e-20)
(-0.136783 0.287194 5.09138e-21)
(-0.143865 0.285728 7.97316e-20)
(-0.12561 0.280066 1.51547e-20)
(-0.133642 0.277724 -5.58994e-21)
(-0.114684 0.272736 1.59657e-21)
(-0.122822 0.270077 -7.80035e-21)
(-0.104822 0.26568 1.59657e-21)
(-0.11229 0.263109 2.03819e-20)
(-0.0970073 0.259501 -3.63469e-21)
(-0.102937 0.257166 -6.88072e-21)
(-0.0925937 0.255062 -1.33281e-20)
(-0.095704 0.252812 -1.69421e-21)
(-0.0920924 0.252955 1.83633e-20)
(-0.0917347 0.250482 -1.27163e-20)
(-0.0881476 0.249466 4.67267e-20)
(-0.0918526 0.249364 2.85013e-20)
(-0.0527166 0.228409 1.96257e-20)
(-0.0866506 0.248735 -4.3362e-21)
(-0.0280017 0.238963 0)
(-0.159349 0.294072 -8.31727e-20)
(-0.169564 0.296163 4.36189e-20)
(-0.152392 0.284975 -7.05428e-21)
(-0.1639 0.285827 -6.73169e-20)
(-0.143231 0.275874 7.33018e-20)
(-0.154994 0.274978 4.34533e-20)
(-0.132678 0.267523 -2.9162e-20)
(-0.143818 0.264993 -6.09609e-21)
(-0.12169 0.260365 1.15166e-20)
(-0.131569 0.256705 -1.28051e-20)
(-0.111188 0.254613 1.22669e-20)
(-0.119378 0.250429 2.1518e-20)
(-0.101978 0.2504 -4.96571e-21)
(-0.108178 0.246208 -7.0675e-21)
(-0.0949104 0.248016 -8.84169e-22)
(-0.0987178 0.244091 2.038e-21)
(-0.0914783 0.248347 -2.15974e-21)
(-0.0916294 0.244263 -2.982e-21)
(-0.0903084 0.251477 -2.80999e-20)
(-0.088372 0.246251 5.78518e-21)
(-0.065874 0.244412 -2.49224e-20)
(-0.087618 0.250385 -1.84485e-20)
(-0.0435696 0.262286 9.60418e-21)
(-0.172929 0.289493 6.26862e-20)
(-0.18356 0.296515 2.51749e-20)
(-0.165914 0.276755 -1.73795e-20)
(-0.179447 0.281189 3.82588e-20)
(-0.155322 0.264524 -3.73482e-20)
(-0.169612 0.26586 -3.12887e-20)
(-0.142553 0.254281 1.07738e-20)
(-0.155836 0.2526 4.70898e-21)
(-0.129063 0.246726 -2.89215e-21)
(-0.140303 0.242608 -7.09031e-21)
(-0.116053 0.241971 1.96189e-21)
(-0.124845 0.236263 7.16991e-21)
(-0.104435 0.239854 0)
(-0.110646 0.233394 0)
(-0.0948034 0.240179 0)
(-0.0984224 0.23359 -2.215e-22)
(-0.0879299 0.242992 4.9301e-21)
(-0.0885403 0.236585 2.31443e-21)
(-0.0850233 0.249136 1.21267e-20)
(-0.0816673 0.24219 3.69072e-21)
(-0.0689688 0.252768 1.69258e-20)
(-0.0795533 0.248147 4.65331e-21)
(-0.0493693 0.275475 5.84503e-21)
(-0.190156 0.289718 0)
(-0.201322 0.297113 -3.54574e-20)
(-0.183357 0.271191 2.30757e-20)
(-0.19952 0.276059 3.52801e-20)
(-0.170359 0.254226 1.14445e-20)
(-0.188507 0.255999 1.21163e-20)
(-0.153691 0.240806 -1.34439e-20)
(-0.170906 0.239306 -7.12802e-21)
(-0.135941 0.23185 2.69395e-21)
(-0.150292 0.227304 -1.99684e-21)
(-0.118997 0.227408 5.05338e-21)
(-0.129752 0.220438 7.06995e-21)
(-0.103932 0.227007 -2.24174e-22)
(-0.111147 0.218465 -1.60375e-21)
(-0.0912445 0.230064 2.11819e-21)
(-0.0952468 0.220721 1.5503e-21)
(-0.0812479 0.23618 1.5207e-21)
(-0.0821245 0.22658 -4.52222e-21)
(-0.0748076 0.24533 -3.32922e-21)
(-0.0720429 0.235968 1.07221e-20)
(-0.0631054 0.255872 -6.55598e-21)
(-0.0660568 0.245765 -1.03249e-20)
(-0.0445802 0.279569 -3.88753e-21)
(-0.211117 0.285414 4.73098e-21)
(-0.216671 0.28717 -3.57497e-20)
(-0.205097 0.261907 2.44026e-20)
(-0.219273 0.261928 3.60492e-20)
(-0.189311 0.241226 -6.9891e-21)
(-0.208406 0.239436 5.6017e-21)
(-0.167513 0.22538 4.51892e-21)
(-0.187356 0.22158 -1.20097e-21)
(-0.143817 0.21527 2.57287e-21)
(-0.161169 0.209229 9.86732e-23)
(-0.121316 0.210955 3.60595e-22)
(-0.134508 0.202631 4.73896e-22)
(-0.101574 0.211876 2.42953e-22)
(-0.110396 0.201582 -8.98602e-22)
(-0.0849447 0.217298 -5.71172e-21)
(-0.0899262 0.205534 9.37136e-22)
(-0.0713929 0.226664 3.72141e-21)
(-0.0728894 0.213905 -7.70586e-21)
(-0.0611175 0.239953 7.51649e-21)
(-0.058926 0.226454 1.18048e-20)
(-0.0493971 0.256111 -6.0159e-21)
(-0.048372 0.241943 -7.95923e-21)
(-0.0302143 0.276733 -1.16786e-20)
(-0.227351 0.265698 4.85691e-22)
(-0.222259 0.257216 3.89694e-20)
(-0.224147 0.240351 1.71729e-20)
(-0.231717 0.231164 -2.42161e-20)
(-0.20712 0.219548 1.13429e-20)
(-0.223331 0.210391 3.19985e-20)
(-0.181064 0.204534 -6.10031e-21)
(-0.200718 0.19549 -8.87761e-21)
(-0.15156 0.195577 -2.01625e-21)
(-0.170235 0.186196 -2.73001e-22)
(-0.123031 0.192449 -8.30178e-22)
(-0.138109 0.182098 -1.76304e-21)
(-0.0978923 0.194733 -1.25395e-23)
(-0.108548 0.182888 -2.11002e-21)
(-0.0766292 0.20201 -9.57046e-22)
(-0.0831845 0.188386 2.17086e-21)
(-0.0586921 0.213974 0)
(-0.0617437 0.198494 0)
(-0.043617 0.23098 0)
(-0.0430846 0.213373 0)
(-0.0285293 0.252809 -1.37021e-20)
(-0.0269631 0.233277 0)
(-0.00663172 0.267382 -1.38366e-20)
(-0.231427 0.225128 2.20309e-20)
(-0.213984 0.205361 1.01139e-19)
(-0.233467 0.202047 -7.42847e-21)
(-0.232014 0.182536 -1.65485e-21)
(-0.21788 0.185717 9.8128e-21)
(-0.228311 0.167895 -1.29969e-20)
(-0.189993 0.175812 -2.56754e-21)
(-0.206622 0.160162 4.12447e-22)
(-0.156523 0.17135 0)
(-0.174262 0.157504 3.87046e-21)
(-0.123156 0.171474 -3.06482e-21)
(-0.138694 0.15851 -3.92726e-21)
(-0.0931173 0.175821 2.02234e-22)
(-0.105094 0.16252 5.24818e-22)
(-0.0671666 0.184528 3.26705e-21)
(-0.0755529 0.169718 7.74491e-22)
(-0.0443603 0.197969 0)
(-0.0498453 0.180632 0)
(-0.0234904 0.217375 0)
(-0.0259386 0.196469 -2.16062e-20)
(-0.00163019 0.244284 0)
(-0.00266484 0.217624 2.2274e-20)
(0.0271675 0.250442 0)
(-0.219658 0.166091 7.79714e-20)
(-0.191913 0.138176 6.53594e-20)
(-0.229286 0.149468 -7.48941e-21)
(-0.218713 0.121865 2.34475e-20)
(-0.217899 0.141605 -2.26577e-20)
(-0.221324 0.116457 -2.58561e-20)
(-0.191007 0.140273 6.93856e-21)
(-0.202931 0.118717 3.05851e-21)
(-0.156278 0.143059 -8.03239e-22)
(-0.171333 0.125073 7.1056e-21)
(-0.120369 0.148298 -2.58831e-22)
(-0.134904 0.132918 4.28318e-22)
(-0.0871097 0.155501 1.0509e-21)
(-0.0995032 0.141131 3.7377e-21)
(-0.0574029 0.165276 -2.60041e-21)
(-0.0674288 0.150097 -5.89156e-22)
(-0.0297618 0.17887 -2.18083e-20)
(-0.0383515 0.16073 0)
(-0.00226845 0.198486 -2.18134e-21)
(-0.0093729 0.17577 -2.19998e-20)
(0.0298504 0.227348 2.24823e-20)
(0.0219848 0.194213 -2.6902e-20)
(0.0755244 0.227362 -5.24971e-20)
(-0.194188 0.0979408 7.43971e-21)
(-0.15972 0.0672652 8.62008e-20)
(-0.212226 0.0902993 0)
(-0.194256 0.0588362 -4.48261e-20)
(-0.206772 0.0929915 0)
(-0.203606 0.063617 6.55299e-22)
(-0.183241 0.101937 3.19266e-21)
(-0.190012 0.076645 -6.60987e-22)
(-0.149885 0.113263 8.38852e-21)
(-0.161349 0.0925872 -8.54208e-21)
(-0.114032 0.124434 4.46634e-21)
(-0.126534 0.107595 9.16876e-21)
(-0.0798761 0.134724 2.05211e-21)
(-0.091776 0.120098 0)
(-0.0483022 0.144877 2.05211e-21)
(-0.0594095 0.130504 4.2586e-21)
(-0.0168894 0.156715 0)
(-0.0287257 0.139729 -4.26376e-21)
(0.0193685 0.173975 -5.00209e-20)
(0.00469983 0.149942 0)
(0.0785567 0.199578 -1.02983e-19)
(0.0445592 0.156265 2.92776e-20)
(0.130266 0.161121 1.85104e-20)
(0.0238941 0.116742 -3.17546e-20)
(0.0220081 0.141922 1.87924e-19)
(0.0258073 0.105731 -2.31565e-19)
(0.0384518 0.13343 -3.044e-19)
(0.0385362 0.100012 -1.86603e-21)
(0.0657083 0.128569 -4.22846e-20)
(0.0599773 0.0984238 0)
(0.0968658 0.130457 6.57766e-20)
(0.0899467 0.0994601 -9.47232e-20)
(0.132224 0.135376 0)
(0.127716 0.10116 -3.36605e-19)
(0.169981 0.141046 -9.39341e-21)
(0.170266 0.102591 -2.90973e-19)
(0.207761 0.146032 -1.84798e-19)
(0.213032 0.103423 4.69348e-20)
(0.242295 0.15 -3.2506e-19)
(0.251976 0.103291 9.66851e-20)
(0.271356 0.152516 4.09916e-19)
(0.284483 0.101703 9.26033e-20)
(0.294141 0.152917 -1.56177e-19)
(0.309324 0.0982582 -6.96128e-20)
(0.310792 0.150529 8.64662e-20)
(0.321783 0.144969 -5.97991e-20)
(0.326309 0.0926946 6.57448e-20)
(0.0384598 0.151173 -7.17642e-20)
(0.0404516 0.160369 -1.15087e-19)
(0.0799873 0.153323 -1.11727e-19)
(0.0853347 0.166814 1.07063e-19)
(0.127638 0.158301 2.70598e-20)
(0.136309 0.172822 -4.06314e-20)
(0.17586 0.16577 6.70229e-20)
(0.185908 0.179445 1.62574e-21)
(0.222065 0.17324 6.88103e-20)
(0.231229 0.184323 -9.51485e-20)
(0.26246 0.17937 1.31559e-19)
(0.269106 0.186173 7.00609e-20)
(0.293799 0.183713 -2.19793e-19)
(0.297487 0.185084 2.91698e-19)
(0.314914 0.186462 3.94052e-22)
(0.315932 0.182056 -2.05753e-19)
(0.326883 0.187606 1.22735e-19)
(0.325876 0.177989 6.01352e-20)
(0.332062 0.186566 -2.02837e-19)
(0.329771 0.173237 -8.05602e-20)
(0.332917 0.182505 6.1736e-20)
(0.330055 0.167537 -4.44315e-20)
(0.328455 0.160344 1.98538e-19)
(0.331322 0.174836 7.63666e-20)
(0.0917338 0.170461 5.4183e-20)
(0.0837076 0.163686 -1.59441e-19)
(0.148469 0.181877 1.72403e-19)
(0.144676 0.181092 2.5446e-19)
(0.202252 0.190356 -5.56389e-20)
(0.198258 0.1894 -7.47526e-20)
(0.247801 0.195216 -1.52406e-19)
(0.242562 0.194173 4.93437e-20)
(0.282321 0.195872 -9.62463e-20)
(0.274995 0.194489 -1.69516e-19)
(0.304937 0.192759 2.36205e-19)
(0.2958 0.191539 1.03164e-22)
(0.317044 0.186899 3.28174e-19)
(0.307144 0.186863 1.65939e-19)
(0.32168 0.179404 -1.36751e-19)
(0.312164 0.181801 1.22793e-19)
(0.322251 0.171026 -1.29777e-19)
(0.313832 0.176898 -2.2121e-19)
(0.321324 0.162154 1.00087e-19)
(0.314014 0.171922 7.51645e-20)
(0.320029 0.15302 9.09024e-20)
(0.313299 0.166369 4.03641e-20)
(0.311684 0.159916 1.62834e-19)
(0.318236 0.143954 9.15047e-22)
(0.140451 0.175867 3.94175e-20)
(0.127423 0.160072 -1.15357e-20)
(0.196803 0.186528 7.58672e-21)
(0.191213 0.180186 8.17859e-20)
(0.240703 0.192233 3.15548e-20)
(0.234022 0.18527 -7.69626e-20)
(0.27109 0.192766 3.54995e-20)
(0.263266 0.186681 8.01724e-20)
(0.28929 0.189563 -7.23787e-20)
(0.280479 0.184144 -1.65751e-20)
(0.298773 0.184702 -7.46516e-20)
(0.290152 0.179961 -1.0901e-19)
(0.303457 0.180005 -4.13046e-20)
(0.296333 0.175779 -2.13501e-20)
(0.306157 0.176489 3.96727e-20)
(0.301399 0.17261 9.12792e-20)
(0.307947 0.17417 -2.83613e-20)
(0.305738 0.170631 -2.48219e-20)
(0.308582 0.172231 6.70711e-21)
(0.308488 0.16932 9.01839e-20)
(0.307507 0.169444 1.12626e-19)
(0.308702 0.167718 7.23827e-20)
(0.30588 0.165216 1.31963e-19)
(0.304253 0.164451 6.49825e-20)
(0.17807 0.173066 3.69436e-20)
(0.158618 0.15609 1.17607e-19)
(0.225657 0.178289 0)
(0.220161 0.174206 -9.23269e-20)
(0.254923 0.180221 -3.15241e-20)
(0.248781 0.173615 0)
(0.271298 0.178448 2.60892e-20)
(0.264559 0.172488 -3.1929e-20)
(0.28031 0.174781 -5.25003e-20)
(0.272994 0.168934 5.83533e-20)
(0.286872 0.171034 -5.54408e-20)
(0.280117 0.165291 -6.39534e-20)
(0.293467 0.168303 1.12786e-19)
(0.288328 0.162823 5.39286e-20)
(0.300047 0.166896 2.79384e-20)
(0.297192 0.162381 -4.42138e-20)
(0.305201 0.166482 9.59674e-20)
(0.304732 0.164037 -8.04616e-20)
(0.307464 0.166318 1.60966e-19)
(0.308943 0.167036 6.78256e-20)
(0.306038 0.16554 9.46073e-20)
(0.308769 0.16998 -1.28593e-19)
(0.30459 0.170623 4.98748e-21)
(0.301839 0.163771 3.29327e-20)
(0.201964 0.169606 -4.1274e-20)
(0.174537 0.15507 6.04459e-20)
(0.239753 0.167941 -9.35284e-20)
(0.234446 0.169288 -5.7744e-20)
(0.256673 0.166422 0)
(0.250979 0.16222 0)
(0.264852 0.16328 0)
(0.258488 0.159091 0)
(0.271717 0.159686 5.0916e-20)
(0.264305 0.154552 2.73883e-20)
(0.280625 0.157022 4.75524e-20)
(0.273598 0.15091 5.15232e-20)
(0.291284 0.156436 -1.05501e-19)
(0.286283 0.149405 -3.4037e-21)
(0.301493 0.158617 -1.55089e-19)
(0.29999 0.151353 -1.48332e-19)
(0.308775 0.163348 -1.08297e-19)
(0.311431 0.157146 8.44089e-20)
(0.311311 0.169235 -2.2288e-19)
(0.317586 0.165793 -5.39476e-20)
(0.308541 0.174129 -2.17867e-19)
(0.316862 0.174835 -6.60763e-20)
(0.309272 0.181466 -4.02634e-21)
(0.300476 0.175527 1.58467e-20)
(0.21185 0.168939 1.83541e-20)
(0.17606 0.158182 -2.46171e-20)
(0.243028 0.160243 4.03719e-20)
(0.238193 0.167104 6.71135e-20)
(0.252197 0.155185 0)
(0.245948 0.15325 0)
(0.257246 0.150285 2.77188e-20)
(0.249923 0.14802 -1.55472e-20)
(0.265651 0.145718 2.77188e-20)
(0.256513 0.141323 1.86334e-21)
(0.278633 0.142823 0)
(0.269623 0.136084 0)
(0.294276 0.143312 -4.35144e-20)
(0.287648 0.133993 2.41912e-20)
(0.309367 0.148461 8.87585e-20)
(0.307152 0.13735 -7.53418e-20)
(0.320288 0.158146 1.36921e-19)
(0.323202 0.147189 1.3389e-19)
(0.323984 0.170397 1.01109e-19)
(0.330923 0.16234 2.13426e-21)
(0.319217 0.181939 1.46914e-19)
(0.328053 0.179216 2.07271e-19)
(0.315663 0.193633 1.01392e-19)
(0.306786 0.18934 6.81448e-21)
(0.209812 0.171687 6.1689e-20)
(0.165626 0.167437 -9.04351e-21)
(0.238734 0.155252 2.65882e-20)
(0.233461 0.166306 1.31295e-20)
(0.243883 0.146529 -1.57221e-20)
(0.236697 0.146961 0)
(0.24902 0.138899 -4.24151e-20)
(0.239734 0.138333 -1.11817e-21)
(0.26038 0.131675 -2.6693e-20)
(0.248245 0.128296 -2.69714e-20)
(0.27817 0.126643 2.44634e-20)
(0.265405 0.119428 -2.73375e-20)
(0.299632 0.126568 -7.23246e-21)
(0.288977 0.114494 1.92515e-20)
(0.320015 0.133923 -3.28023e-20)
(0.314106 0.117224 -3.64948e-20)
(0.333549 0.149215 -9.87167e-23)
(0.333185 0.12984 -4.3967e-20)
(0.336001 0.169833 1.04903e-19)
(0.339354 0.15136 5.95081e-20)
(0.326562 0.190406 1.62593e-19)
(0.330761 0.177314 2.24684e-21)
(0.311658 0.200984 -4.01739e-20)
(0.30837 0.20564 8.76321e-20)
(0.19789 0.178264 -5.36528e-20)
(0.146711 0.185804 -3.33442e-21)
(0.229193 0.151893 -1.38809e-20)
(0.221324 0.167208 -2.04243e-20)
(0.233072 0.139365 1.46485e-20)
(0.225128 0.143424 1.78866e-22)
(0.239203 0.127969 1.46485e-20)
(0.227257 0.129193 1.46998e-20)
(0.253553 0.116473 -2.76257e-20)
(0.237599 0.114747 4.59399e-21)
(0.275713 0.106948 -3.43601e-20)
(0.25782 0.100339 -2.27158e-20)
(0.301641 0.103671 -9.71621e-21)
(0.285246 0.0898171 -6.33577e-21)
(0.324353 0.111068 -5.727e-20)
(0.313029 0.0888751 7.17486e-20)
(0.336242 0.130719 1.22206e-20)
(0.330558 0.101681 3.34486e-20)
(0.333404 0.159518 -4.87412e-20)
(0.330165 0.127911 -9.85008e-20)
(0.316937 0.190108 -2.06258e-19)
(0.312306 0.162766 -1.07129e-19)
(0.285997 0.196538 -1.01153e-19)
(0.292737 0.215036 -1.30073e-21)
(0.178396 0.192495 -9.65828e-21)
(0.125385 0.213905 5.31729e-21)
(0.214655 0.152616 7.18248e-21)
(0.202148 0.173408 -1.23522e-20)
(0.219522 0.133227 1.13284e-21)
(0.209986 0.14266 4.22582e-20)
(0.226433 0.116741 7.87596e-21)
(0.211493 0.120549 -9.43018e-23)
(0.24267 0.0996287 6.27041e-21)
(0.222887 0.100572 -1.65076e-20)
(0.266858 0.0834958 5.67923e-21)
(0.24417 0.079589 9.15044e-21)
(0.293347 0.0737605 7.59701e-20)
(0.271631 0.0611631 -1.239e-20)
(0.313093 0.0775479 1.76762e-19)
(0.296929 0.0533395 5.80924e-20)
(0.31814 0.0987977 -8.01205e-20)
(0.307765 0.0629404 7.63095e-20)
(0.306664 0.134255 -1.66278e-19)
(0.296786 0.0909958 -1.83258e-19)
(0.282546 0.17496 0)
(0.268281 0.133114 -2.1646e-19)
(0.235693 0.177244 0)
(0.25338 0.210529 -4.18276e-20)
(0.159859 0.213141 3.09227e-21)
(0.109775 0.256691 -1.93589e-20)
(0.195671 0.158742 4.45691e-20)
(0.180291 0.198221 -2.56027e-20)
(0.201623 0.127932 4.24696e-20)
(0.191366 0.150934 3.49994e-20)
(0.209094 0.105371 -2.13884e-20)
(0.192889 0.114099 0)
(0.225653 0.0821864 -2.3641e-20)
(0.203308 0.0859689 2.89387e-20)
(0.248828 0.0580387 -9.05535e-21)
(0.22292 0.0586161 -2.63987e-21)
(0.271523 0.0394172 -4.6797e-20)
(0.246458 0.0317413 -1.53557e-20)
(0.283497 0.0360756 -5.5285e-20)
(0.264244 0.0150325 -2.82161e-20)
(0.277647 0.0548479 -5.63522e-21)
(0.264485 0.0187337 -2.75543e-20)
(0.255449 0.0939809 -2.13534e-19)
(0.24213 0.0457079 9.98021e-20)
(0.224671 0.14352 -2.18485e-19)
(0.204711 0.0918634 -9.69664e-20)
(0.166895 0.145547 0)
(0.192108 0.188968 0)
(0.131298 0.269759 -2.86254e-20)
(0.0854362 0.207635 -3.40693e-20)
(0.172041 0.188875 -2.64225e-20)
(0.129601 0.19726 -5.23963e-20)
(0.181294 0.132278 -1.17653e-20)
(0.156721 0.162332 -6.72006e-20)
(0.188795 0.0952346 5.38783e-20)
(0.168794 0.115949 -6.30112e-20)
(0.202568 0.0642725 5.44261e-20)
(0.180104 0.0763199 4.74368e-20)
(0.221091 0.0331518 -5.85027e-21)
(0.195805 0.0404778 -6.22644e-21)
(0.236509 0.00571911 -2.76422e-21)
(0.211984 0.00549587 9.41103e-21)
(0.238375 -0.00643215 0)
(0.219291 -0.0201733 -1.76552e-20)
(0.221181 0.00658512 1.04643e-19)
(0.207734 -0.0238156 0)
(0.188679 0.0450346 2.37776e-19)
(0.175485 0.000184699 1.05516e-19)
(0.151399 0.09942 1.33133e-19)
(0.132078 0.0473786 1.34243e-19)
(0.118645 0.153735 0)
(0.092106 0.106373 0)
(0.335956 0.0849149 7.49206e-20)
(0.327801 0.136162 1.87144e-19)
(0.339444 0.0751516 -1.23175e-19)
(0.329897 0.123892 -1.56883e-19)
(0.33756 0.0635857 -1.70995e-20)
(0.328392 0.109523 -6.02297e-21)
(0.329117 0.050559 3.45515e-20)
(0.322495 0.0966427 -4.88347e-20)
(0.314414 0.0377471 4.76096e-20)
(0.313102 0.0832696 6.37422e-20)
(0.29393 0.0265406 -2.56006e-21)
(0.299931 0.070194 -1.5036e-20)
(0.267828 0.0173641 2.85687e-20)
(0.282511 0.0589714 3.11088e-20)
(0.236338 0.00949624 -6.85405e-21)
(0.260607 0.0501032 -3.61293e-21)
(0.200421 0.000567959 -3.84648e-20)
(0.234527 0.0422866 1.16961e-21)
(0.163436 -0.0132087 6.63257e-21)
(0.205235 0.0304524 -1.43276e-21)
(0.133632 -0.0331307 1.09768e-19)
(0.173407 0.00616202 -3.11546e-21)
(0.139872 -0.0330786 6.36811e-20)
(0.327549 0.163163 -3.09938e-20)
(0.325222 0.152283 -1.22137e-19)
(0.322534 0.148619 -2.87657e-20)
(0.321332 0.140283 4.247e-20)
(0.316369 0.132586 -2.87657e-20)
(0.315835 0.126121 -9.20528e-20)
(0.309553 0.116663 -1.95987e-20)
(0.308551 0.112651 1.56866e-20)
(0.301195 0.102041 3.91197e-22)
(0.299892 0.100411 -4.61714e-21)
(0.290587 0.0898241 1.98139e-20)
(0.290088 0.0900004 1.22846e-20)
(0.277369 0.0807472 -1.16342e-21)
(0.279282 0.0822711 -1.25279e-20)
(0.260815 0.0739804 3.19756e-21)
(0.267456 0.0777917 -1.4215e-21)
(0.239111 0.0651137 3.75951e-20)
(0.253852 0.0754911 -1.31625e-20)
(0.209338 0.0448691 -1.4522e-20)
(0.236487 0.0692383 7.1371e-20)
(0.171782 0.00391711 -5.22147e-20)