/*--------------------------------*- C++ -*----------------------------------*\
| =========                 |                                                 |
| \\      /  F ield         | OpenFOAM: The Open Source CFD Toolbox           |
|  \\    /   O peration     | Version:  v1606+                                |
|   \\  /    A nd           | Web:      www.OpenFOAM.com                      |
|    \\/     M anipulation  |                                                 |
\*---------------------------------------------------------------------------*/
FoamFile
{
    version     2.0;
    format      ascii;
    class       volScalarField;
    location    "0.1";
    object      epsilon;
}
// * * * * * * * * * * * * * * * * * * * * * * * * * * * * * * * * * * * * * //

dimensions      [0 2 -3 0 0 0 0];

internalField   nonuniform List<scalar> 
2268
(
0.253859
0.434368
0.579899
0.686107
0.764372
0.828347
0.889483
0.958059
1.04412
1.15801
1.31003
1.49643
1.68585
1.81102
1.80556
1.6852
1.5506
1.45336
1.37478
1.2477
1.1131
0.918157
0.523462
0.282381
0.297182
0.313593
0.326052
0.336492
0.346881
0.359006
0.374836
0.396749
0.42746
0.469138
0.519636
0.56966
0.603323
0.609058
0.593336
0.575238
0.557824
0.552205
0.570973
0.675292
0.93576
0.573256
0.33434
0.285813
0.267318
0.257951
0.254393
0.255131
0.259636
0.268155
0.281555
0.30091
0.326609
0.356476
0.384551
0.403053
0.408485
0.404412
0.399242
0.406509
0.444584
0.513879
0.645576
0.927109
0.746191
0.365174
0.284168
0.247841
0.228006
0.218121
0.214804
0.216384
0.222281
0.232575
0.24744
0.26634
0.286972
0.304961
0.316645
0.322633
0.324517
0.325909
0.347649
0.424314
0.555282
0.696554
0.908256
0.817941
0.385345
0.283714
0.236692
0.210562
0.196834
0.191021
0.190767
0.194957
0.203122
0.214815
0.228943
0.243236
0.254583
0.262197
0.269305
0.276499
0.282738
0.314752
0.420718
0.59279
0.741895
0.846909
0.839581
0.399391
0.283467
0.229658
0.199384
0.182988
0.175337
0.173636
0.176396
0.182741
0.191794
0.202151
0.211712
0.218434
0.22353
0.231655
0.243353
0.254901
0.294982
0.424966
0.611858
0.734849
0.784519
0.861025
0.409815
0.283328
0.225043
0.191923
0.173562
0.164458
0.161538
0.163047
0.167818
0.174695
0.182142
0.1883
0.192021
0.195837
0.204875
0.220194
0.238023
0.284476
0.425132
0.5979
0.693484
0.75936
0.917422
0.418192
0.283098
0.221767
0.186687
0.166873
0.156617
0.15268
0.153125
0.156592
0.161764
0.167091
0.170992
0.173072
0.176691
0.186935
0.20553
0.229102
0.278031
0.408169
0.547073
0.629295
0.775476
1.03476
0.246973
0.436919
0.54121
0.578769
0.583906
0.57552
0.566674
0.559626
0.552979
0.546875
0.541215
0.535786
0.530182
0.523561
0.51389
0.496077
0.458282
0.378487
0.255934
0.269014
0.294063
0.301745
0.300744
0.298268
0.296376
0.296115
0.296529
0.296612
0.296333
0.295788
0.295086
0.294312
0.293513
0.292632
0.291256
0.287909
0.279336
0.272012
0.329379
0.282708
0.258854
0.241358
0.231558
0.227397
0.226609
0.2272
0.227884
0.228305
0.228455
0.228448
0.228464
0.228804
0.230057
0.233373
0.24097
0.258365
0.327519
0.365266
0.288559
0.245172
0.215241
0.19866
0.191188
0.188816
0.188711
0.189196
0.189647
0.189929
0.190125
0.190457
0.191385
0.193873
0.199928
0.213771
0.246308
0.362145
0.399335
0.307006
0.245444
0.203016
0.179417
0.168281
0.164017
0.162942
0.162975
0.163247
0.163495
0.163756
0.164279
0.165635
0.169045
0.177041
0.19508
0.237652
0.385569
0.454351
0.342193
0.256685
0.199468
0.168115
0.153085
0.146827
0.144688
0.144175
0.144185
0.144332
0.144604
0.145267
0.146975
0.151126
0.160599
0.181663
0.231264
0.401855
0.562727
0.39661
0.27676
0.201605
0.161844
0.142863
0.134645
0.131452
0.130377
0.130099
0.130119
0.130379
0.131154
0.133164
0.137932
0.148574
0.171909
0.226584
0.413284
0.747186
0.455541
0.300034
0.206334
0.158463
0.135866
0.125857
0.121704
0.120105
0.119547
0.119437
0.119678
0.12055
0.122825
0.128116
0.139704
0.164793
0.223196
0.421382
0.426058
0.282266
0.21818
0.181246
0.159922
0.148379
0.143264
0.142489
0.144529
0.147974
0.151364
0.153503
0.154841
0.159399
0.171985
0.195265
0.225063
0.272304
0.357606
0.42607
0.480652
0.679137
0.903871
0.435277
0.279734
0.212986
0.175011
0.152911
0.140582
0.134595
0.132803
0.133644
0.135774
0.13803
0.139829
0.142756
0.151464
0.170576
0.203852
0.23958
0.27305
0.298009
0.310071
0.339268
0.479563
0.791145
0.443214
0.275959
0.207028
0.168679
0.146481
0.133957
0.127593
0.125231
0.125358
0.126811
0.12884
0.131617
0.13799
0.153267
0.182605
0.229591
0.269659
0.279492
0.258603
0.240185
0.253601
0.347176
0.579486
0.45044
0.271698
0.200822
0.162319
0.140277
0.127832
0.121365
0.118723
0.118481
0.119724
0.122196
0.126957
0.138155
0.162059
0.205344
0.271042
0.312056
0.287171
0.235196
0.202
0.206163
0.263581
0.391494
0.457168
0.267449
0.194883
0.156307
0.13449
0.122219
0.115787
0.11305
0.112701
0.114101
0.117551
0.125095
0.142187
0.176515
0.237468
0.321569
0.350796
0.29208
0.219763
0.17952
0.177499
0.211567
0.278642
0.463453
0.263429
0.189469
0.150891
0.129316
0.117253
0.110925
0.108216
0.107949
0.109792
0.114641
0.125608
0.149466
0.195707
0.276814
0.37093
0.3763
0.289801
0.206418
0.164092
0.158201
0.177919
0.212969
0.469298
0.259711
0.184655
0.146153
0.124836
0.112996
0.106814
0.104217
0.104172
0.106676
0.113264
0.128188
0.159629
0.219048
0.321196
0.418788
0.388268
0.279784
0.193191
0.152122
0.144123
0.155075
0.173651
0.474687
0.256314
0.180435
0.142082
0.121039
0.109433
0.103428
0.101004
0.101289
0.104628
0.113245
0.132617
0.172527
0.246476
0.370934
0.462521
0.387804
0.265087
0.180543
0.14238
0.133511
0.13934
0.149515
0.479604
0.253244
0.176775
0.138629
0.117873
0.10651
0.100705
0.0985071
0.0992109
0.103533
0.114442
0.138755
0.18817
0.278397
0.426091
0.4987
0.380788
0.250075
0.169484
0.134425
0.12542
0.128395
0.134206
0.484043
0.250507
0.173643
0.135744
0.115281
0.104169
0.0985876
0.0966629
0.0978705
0.103316
0.116759
0.146497
0.206602
0.315679
0.48641
0.52666
0.373312
0.23762
0.160428
0.127943
0.11921
0.120691
0.124179
0.488011
0.248128
0.171024
0.133394
0.113226
0.102374
0.0970452
0.0954501
0.0972536
0.103963
0.120158
0.155723
0.227633
0.358933
0.544826
0.53893
0.366003
0.227601
0.152994
0.122665
0.114494
0.115272
0.117469
0.491523
0.246199
0.168953
0.131586
0.11171
0.101135
0.0961044
0.0949171
0.0974314
0.105553
0.124671
0.166271
0.250506
0.406127
0.592076
0.538793
0.357325
0.218446
0.146603
0.118478
0.111102
0.111583
0.112963
0.494682
0.24493
0.167541
0.130379
0.110781
0.100521
0.0958681
0.0952135
0.0985997
0.108302
0.130448
0.178009
0.274162
0.452547
0.636051
0.538758
0.346507
0.208926
0.140974
0.115425
0.108971
0.109281
0.109993
0.497841
0.244853
0.167007
0.129858
0.110519
0.10065
0.0965271
0.0966184
0.10113
0.112634
0.137838
0.190917
0.297839
0.497998
0.674975
0.532076
0.330471
0.198346
0.136336
0.113722
0.108078
0.108107
0.108112
0.501653
0.247957
0.167854
0.130172
0.111054
0.101735
0.0984096
0.0996095
0.105666
0.119335
0.147604
0.205213
0.320001
0.537586
0.690205
0.507798
0.307271
0.186959
0.132797
0.113386
0.108334
0.10782
0.106981
0.508446
0.259407
0.171
0.131617
0.112674
0.104174
0.102085
0.104971
0.113246
0.129702
0.16121
0.221959
0.339413
0.56465
0.667319
0.458322
0.276617
0.175068
0.130549
0.114355
0.109527
0.108153
0.106297
0.528675
0.28605
0.176733
0.134219
0.115596
0.108399
0.108226
0.113671
0.125192
0.145492
0.181007
0.244026
0.357276
0.570191
0.604781
0.391294
0.242723
0.164486
0.130035
0.116517
0.11137
0.108803
0.105812
0.583081
0.328975
0.183756
0.137436
0.119747
0.114639
0.117372
0.126637
0.142937
0.168853
0.210628
0.27772
0.381999
0.537702
0.483964
0.319824
0.21354
0.157774
0.131584
0.119534
0.113433
0.109416
0.105277
0.639352
0.294773
0.18618
0.140093
0.123977
0.121588
0.128104
0.142333
0.16471
0.197344
0.245647
0.316189
0.397957
0.442813
0.363517
0.263255
0.194937
0.15585
0.134649
0.122651
0.11512
0.10961
0.104468
0.677606
0.271936
0.177032
0.140654
0.128051
0.12801
0.136885
0.153723
0.178605
0.212164
0.255442
0.307053
0.350685
0.340201
0.288749
0.230638
0.186166
0.156675
0.137574
0.124776
0.115799
0.109057
0.103233
0.65576
0.252534
0.168345
0.138526
0.128428
0.129215
0.137991
0.153891
0.176565
0.20533
0.238191
0.269576
0.287579
0.278337
0.248518
0.212789
0.181289
0.156776
0.138457
0.124947
0.115038
0.107604
0.101539
0.624742
0.245198
0.165425
0.136625
0.126644
0.12692
0.134478
0.148188
0.167271
0.190373
0.214761
0.235554
0.246008
0.24094
0.223162
0.199118
0.174832
0.153498
0.136154
0.122771
0.112781
0.105324
0.0994785
0.61497
0.243702
0.165005
0.135513
0.124595
0.123637
0.12943
0.140549
0.155928
0.174043
0.1924
0.207416
0.21506
0.212633
0.201118
0.183686
0.164368
0.146186
0.130757
0.118569
0.10936
0.102487
0.0972303
0.603847
0.24279
0.164879
0.13461
0.122508
0.120035
0.123808
0.132186
0.143964
0.157681
0.171294
0.182211
0.187791
0.186346
0.178242
0.165503
0.150607
0.136058
0.123387
0.113182
0.105346
0.0994491
0.094998
0.591519
0.241521
0.164389
0.133509
0.120304
0.116323
0.118077
0.123783
0.132187
0.141987
0.151577
0.159103
0.162804
0.161629
0.155817
0.146791
0.135981
0.125162
0.115518
0.107567
0.10132
0.0965408
0.0929503
0.578478
0.23987
0.163461
0.132128
0.118003
0.112698
0.112657
0.116016
0.121524
0.12805
0.134376
0.139215
0.141434
0.140419
0.136363
0.130199
0.1228
0.11524
0.108326
0.102453
0.0977002
0.093983
0.0911886
0.565407
0.238096
0.162295
0.130589
0.115724
0.109352
0.107872
0.109376
0.112641
0.116691
0.120614
0.12354
0.124764
0.123937
0.121194
0.117079
0.11225
0.107186
0.102409
0.0982103
0.0946923
0.0918711
0.0897456
0.552842
0.236392
0.16109
0.129052
0.113602
0.106418
0.103871
0.104034
0.105716
0.108062
0.110375
0.112067
0.112701
0.112075
0.110269
0.107596
0.104462
0.101122
0.0978689
0.0949003
0.0923224
0.0902028
0.0886042
0.541096
0.234863
0.15998
0.127639
0.111725
0.103945
0.100648
0.0998997
0.100539
0.101793
0.103105
0.10406
0.104374
0.103924
0.102748
0.101018
0.0989577
0.0967484
0.0945209
0.0924112
0.0905154
0.0889211
0.0877208
0.530311
0.233555
0.159034
0.126416
0.110131
0.101916
0.0981045
0.0967609
0.0967428
0.0973302
0.0980495
0.0985846
0.0987389
0.0984255
0.0976579
0.0965244
0.0951483
0.0936499
0.0920949
0.0905712
0.0891595
0.0879502
0.0870443
0.520535
0.232472
0.158272
0.125405
0.108817
0.100281
0.0961177
0.0943889
0.0939644
0.0941546
0.0945331
0.0948381
0.0949185
0.0947063
0.0941995
0.0934424
0.0925027
0.0914515
0.0903391
0.0892152
0.0881467
0.0872179
0.0865274
0.511761
0.231596
0.157689
0.124599
0.107761
0.0989802
0.0945721
0.0925925
0.091917
0.0918722
0.0920572
0.0922387
0.0922893
0.0921505
0.0918119
0.0912942
0.0906351
0.0898765
0.0890585
0.088211
0.0873878
0.0866643
0.0861315
0.503927
0.230907
0.15727
0.123981
0.106931
0.0979595
0.093376
0.0912298
0.0903974
0.0902127
0.0902874
0.0904033
0.0904451
0.0903593
0.090131
0.0897689
0.0892943
0.0887335
0.0881143
0.0874616
0.0868163
0.0862442
0.085827
0.496947
0.230388
0.156993
0.123525
0.106293
0.0971722
0.0924619
0.090204
0.0892721
0.0890027
0.0890136
0.0890942
0.0891356
0.0890873
0.0889321
0.0886723
0.0883207
0.0878946
0.0874134
0.0869
0.086385
0.0859248
0.0855921
0.490833
0.230031
0.156824
0.123189
0.10581
0.0965806
0.0917856
0.0894566
0.088463
0.088142
0.0881145
0.0881746
0.0882172
0.0881936
0.0880856
0.0878922
0.0876215
0.087286
0.0869009
0.0864849
0.0860636
0.0856846
0.085412
0.485947
0.229861
0.156702
0.122912
0.105438
0.0961568
0.0913273
0.088967
0.0879419
0.0875908
0.087539
0.0875846
0.0876258
0.0876151
0.0875342
0.08738
0.0871578
0.0868777
0.0865523
0.086198
0.0858375
0.0855113
0.0852767
0.483635
0.230024
0.156521
0.122582
0.105114
0.0958841
0.0910981
0.0887586
0.0877337
0.0873706
0.0873027
0.0873349
0.0873692
0.08736
0.0872886
0.0871504
0.0869481
0.0866891
0.0863849
0.0860515
0.0857111
0.0854028
0.08518
0.488556
0.23101
0.156066
0.121988
0.104744
0.0957597
0.0911499
0.0889102
0.0879279
0.0875725
0.0874953
0.0875129
0.0875337
0.0875149
0.0874377
0.087295
0.0870851
0.0868102
0.0864779
0.086104
0.0857156
0.0853685
0.0851184
0.51623
0.234125
0.154857
0.120735
0.104179
0.0958016
0.0915892
0.0895699
0.0886897
0.0883678
0.08829
0.0882926
0.0882949
0.0882584
0.0881645
0.0880028
0.0877638
0.0874365
0.0870122
0.0864955
0.0859232
0.0854305
0.0850881
0.610934
0.241375
0.15169
0.118149
0.103238
0.0960792
0.0925963
0.0909631
0.0902616
0.090006
0.0899396
0.0899311
0.0899153
0.0898608
0.0897508
0.0895716
0.089303
0.088909
0.0883336
0.0875152
0.0864592
0.0856147
0.0850786
0.885126
0.249081
0.143174
0.113219
0.101806
0.0967691
0.0944327
0.0933714
0.0929282
0.092772
0.0927324
0.0927226
0.0926998
0.0926424
0.0925383
0.0923744
0.0921244
0.0917254
0.0910329
0.0897581
0.0875306
0.0859218
0.0850659
1.65442
0.215492
0.12172
0.105115
0.100171
0.0982496
0.0974156
0.0970568
0.0969203
0.0968839
0.0968852
0.0968923
0.0968889
0.0968671
0.0968222
0.0967495
0.0966357
0.0964332
0.0959623
0.0945694
0.0901668
0.0862949
0.0850345
1.4234
1.21751
1.01255
0.897426
0.963786
0.960755
0.866109
0.761428
0.706367
0.737066
0.706703
0.650472
0.465204
0.496096
0.488769
0.453513
0.315386
0.328765
0.322589
0.301954
0.229063
0.232425
0.226297
0.213658
0.179971
0.179265
0.173556
0.16488
0.15134
0.149086
0.1439
0.137336
0.133912
0.131127
0.126456
0.121156
0.122859
0.119949
0.115729
0.11126
0.115614
0.112722
0.10887
0.104978
0.110762
0.107912
0.10434
0.100861
0.10748
0.104645
0.10127
0.098086
0.10525
0.102387
0.0991409
0.0961697
0.10372
0.100792
0.0976281
0.0948148
0.102623
0.0996205
0.096522
0.0938347
0.101731
0.0986651
0.0956391
0.0930739
0.10086
0.0977765
0.0948572
0.0924337
0.0998598
0.0968388
0.0940835
0.0918372
0.0986402
0.0957837
0.0932612
0.0912342
0.0971904
0.0946002
0.092374
0.0906035
0.0955742
0.093329
0.0914414
0.0899492
0.0939025
0.0920424
0.0905058
0.0892926
0.0922938
0.0908171
0.0896139
0.0886606
0.0908412
0.0897127
0.0888031
0.0880759
0.0895968
0.0887615
0.0880942
0.0875526
0.0885728
0.0879697
0.0874918
0.0870951
0.0877531
0.0873254
0.0869891
0.0867011
0.0871075
0.0868076
0.0865734
0.0863643
0.0866024
0.0863929
0.0862304
0.0860772
0.0862071
0.0860605
0.0859471
0.0858326
0.0858966
0.0857928
0.0857125
0.0856244
0.0856515
0.0855766
0.085518
0.0854475
0.0854576
0.0854015
0.0853566
0.0852975
0.0853044
0.0852598
0.0852228
0.0851706
0.0851839
0.0851448
0.085111
0.0850622
0.0850893
0.0850494
0.0850143
0.0849655
0.0850129
0.0849644
0.0849227
0.0848703
0.0849434
0.084876
0.0848211
0.0847614
0.0848642
0.0847662
0.0846918
0.0846217
0.0847582
0.0846234
0.0845276
0.0844477
0.0846448
0.0844815
0.0843707
0.0842851
0.607702
0.470101
0.320563
0.212047
0.154981
0.127974
0.115717
0.110323
0.108023
0.107081
0.106787
0.106998
0.108008
0.110645
0.116633
0.129433
0.156672
0.2194
0.430483
0.620984
0.470958
0.311902
0.204199
0.147971
0.1208
0.107929
0.101921
0.0991542
0.0979118
0.0974644
0.0976619
0.0988195
0.101822
0.108471
0.122349
0.151333
0.217126
0.436683
0.52369
0.375081
0.255792
0.179377
0.136685
0.114227
0.102747
0.096996
0.0941562
0.0927908
0.092265
0.0924658
0.0937392
0.0970067
0.104112
0.118696
0.148732
0.216177
0.440172
0.367406
0.273741
0.201853
0.153986
0.124923
0.108202
0.098934
0.0939411
0.0913027
0.0899562
0.0894176
0.0896384
0.0909999
0.0944511
0.10186
0.116887
0.147543
0.215878
0.44223
0.254859
0.203196
0.162527
0.133768
0.114861
0.103058
0.0960002
0.0919224
0.0896235
0.0883854
0.0878815
0.0881348
0.0895627
0.0931361
0.100736
0.116034
0.147049
0.215879
0.443573
0.187614
0.159125
0.136228
0.119119
0.107038
0.0989195
0.0937134
0.0904993
0.0885731
0.087485
0.0870433
0.0873369
0.0888163
0.0924703
0.10019
0.115651
0.14688
0.216011
0.444534
0.148919
0.132355
0.11918
0.108945
0.10125
0.0957167
0.0919254
0.0894329
0.087852
0.0869217
0.0865542
0.0868921
0.088414
0.092124
0.0999216
0.115489
0.14686
0.216198
0.44525
0.126399
0.116058
0.108218
0.10201
0.0970754
0.0932876
0.0905214
0.0885914
0.0873025
0.0865192
0.0862275
0.0866112
0.0881714
0.0919253
0.0997805
0.115426
0.146906
0.216407
0.445773
0.112964
0.10601
0.101152
0.0973083
0.0940905
0.0914556
0.089409
0.0879002
0.0868466
0.0861918
0.0859722
0.0864014
0.0879983
0.0917914
0.0996961
0.115409
0.146985
0.216627
0.446123
0.104716
0.0997044
0.0965529
0.0941046
0.0919489
0.0900664
0.0885164
0.0873168
0.0864478
0.0859019
0.0857482
0.0862217
0.0878552
0.0916865
0.0996388
0.115416
0.147085
0.216852
0.44631
0.0995046
0.0956643
0.0935124
0.0918922
0.0903925
0.0889987
0.08779
0.0868159
0.0860907
0.0856356
0.0855411
0.0860571
0.0877271
0.0915973
0.0995977
0.11544
0.1472
0.217081
0.446342
0.0961166
0.0930148
0.0914601
0.0903334
0.0892389
0.0881635
0.0871904
0.0863817
0.0857687
0.0853893
0.0853475
0.0859039
0.0876104
0.0915203
0.0995702
0.115479
0.14733
0.217311
0.446228
0.0938549
0.0912344
0.0900411
0.089208
0.0883641
0.0874977
0.0866893
0.0860035
0.0854792
0.085163
0.0851681
0.0857626
0.0875053
0.0914555
0.0995559
0.115532
0.147473
0.217543
0.44598
0.0923088
0.0900097
0.0890348
0.0883737
0.0876846
0.0869571
0.0862661
0.0856736
0.0852203
0.0849577
0.0850045
0.0856348
0.0874131
0.0914039
0.0995553
0.115599
0.147629
0.217774
0.44561
0.0912314
0.0891505
0.0883037
0.0877391
0.0871445
0.086511
0.0859059
0.0853858
0.0849905
0.0847738
0.0848581
0.085522
0.0873349
0.0913661
0.0995685
0.115679
0.147794
0.218002
0.445134
0.0904782
0.0885409
0.0877611
0.0872444
0.0867064
0.0861378
0.0855975
0.0851352
0.0847883
0.0846113
0.0847293
0.0854248
0.0872713
0.0913423
0.0995949
0.115771
0.147968
0.218226
0.444567
0.089937
0.088111
0.0873527
0.0868507
0.0863446
0.0858222
0.0853323
0.0849174
0.0846117
0.0844695
0.0846182
0.0853433
0.087222
0.0913317
0.0996334
0.115873
0.148147
0.218443
0.443923
0.0895221
0.0877915
0.0870341
0.0865298
0.0860419
0.0855534
0.0851039
0.084729
0.0844588
0.0843475
0.0845241
0.0852769
0.0871864
0.0913335
0.0996824
0.115982
0.148329
0.218651
0.443219
0.0891727
0.0875378
0.0867741
0.0862592
0.0857823
0.0853221
0.0849076
0.084567
0.0843277
0.0842439
0.0844459
0.0852246
0.0871634
0.0913462
0.0997403
0.116097
0.14851
0.218847
0.442468
0.0888471
0.0873181
0.0865507
0.0860245
0.0855561
0.0851205
0.0847372
0.0844277
0.0842166
0.0841576
0.0843828
0.0851858
0.0871524
0.0913691
0.0998059
0.116216
0.148689
0.21903
0.441683
0.0885205
0.087112
0.0863488
0.0858153
0.085356
0.0849435
0.084589
0.0843079
0.0841226
0.084087
0.0843345
0.0851606
0.0871538
0.091403
0.0998806
0.116342
0.148872
0.219212
0.440895
0.0881835
0.0869075
0.0861592
0.0856248
0.085177
0.0847872
0.0844596
0.0842048
0.0840434
0.0840296
0.0842985
0.0851477
0.0871685
0.0914522
0.0999733
0.11649
0.149085
0.219463
0.440405
0.0878382
0.0867002
0.085977
0.0854488
0.0850156
0.0846486
0.0843465
0.0841161
0.0839767
0.083983
0.0842719
0.0851436
0.0871915
0.0915093
0.100074
0.116646
0.149311
0.219732
0.440002
0.0874928
0.0864903
0.0858003
0.0852851
0.0848694
0.0845254
0.0842476
0.0840398
0.0839204
0.0839451
0.0842526
0.085145
0.0872184
0.0915686
0.100175
0.116801
0.14953
0.219987
0.439598
0.0871571
0.0862804
0.085629
0.0851324
0.0847367
0.0844156
0.0841608
0.0839738
0.0838728
0.0839142
0.0842383
0.0851495
0.0872461
0.0916256
0.100269
0.116943
0.14973
0.220209
0.439173
0.0868392
0.0860743
0.0854641
0.0849903
0.0846163
0.0843178
0.0840845
0.0839167
0.0838321
0.0838884
0.0842273
0.0851551
0.0872719
0.0916771
0.100353
0.117068
0.149901
0.220388
0.438734
0.0865441
0.0858754
0.085307
0.0848585
0.0845071
0.0842306
0.0840173
0.0838668
0.0837971
0.0838664
0.0842182
0.0851602
0.0872941
0.0917207
0.100424
0.117171
0.15004
0.220523
0.438288
0.0862741
0.0856864
0.0851588
0.084737
0.0844084
0.0841527
0.0839579
0.083823
0.0837664
0.0838471
0.0842098
0.0851636
0.0873115
0.0917551
0.100479
0.117252
0.150146
0.220614
0.437846
0.0860295
0.0855093
0.0850208
0.0846258
0.0843194
0.0840832
0.0839052
0.0837843
0.0837391
0.0838296
0.0842013
0.0851645
0.0873231
0.0917795
0.100519
0.117309
0.150218
0.220663
0.437415
0.0858099
0.0853456
0.0848935
0.0845247
0.0842394
0.0840213
0.0838584
0.0837497
0.0837144
0.0838131
0.0841921
0.0851625
0.0873287
0.0917937
0.100543
0.117343
0.150258
0.220672
0.437002
0.0856142
0.0851961
0.0847775
0.0844334
0.0841679
0.0839661
0.0838166
0.0837186
0.0836918
0.0837973
0.0841819
0.0851572
0.0873282
0.0917979
0.100551
0.117354
0.150267
0.220645
0.436613
0.0854409
0.0850612
0.0846728
0.0843518
0.0841043
0.0839171
0.0837793
0.0836906
0.0836709
0.0837818
0.0841704
0.0851488
0.0873218
0.0917926
0.100545
0.117345
0.150247
0.220584
0.436254
0.0852889
0.0849409
0.0845795
0.0842792
0.0840479
0.0838736
0.083746
0.0836652
0.0836515
0.0837666
0.0841578
0.0851373
0.08731
0.0917785
0.100526
0.117317
0.150202
0.220495
0.435929
0.0851564
0.0848345
0.0844967
0.084215
0.0839981
0.083835
0.0837162
0.0836422
0.0836333
0.0837515
0.0841442
0.0851232
0.0872933
0.0917565
0.100496
0.117272
0.150133
0.22038
0.435642
0.0850414
0.0847407
0.0844235
0.0841581
0.0839539
0.0838007
0.0836895
0.0836211
0.0836162
0.0837367
0.0841297
0.0851069
0.0872724
0.0917277
0.100455
0.117213
0.150046
0.220245
0.435396
0.0849402
0.0846568
0.0843575
0.0841066
0.0839137
0.0837693
0.0836649
0.0836015
0.0836
0.083722
0.0841145
0.0850887
0.087248
0.0916932
0.100405
0.117141
0.149942
0.220094
0.435191
0.0848468
0.0845776
0.0842944
0.0840572
0.0838751
0.0837391
0.0836411
0.0835824
0.0835839
0.0837071
0.0840986
0.0850689
0.0872209
0.0916544
0.100349
0.117061
0.149826
0.219932
0.435028
0.0847511
0.0844945
0.0842273
0.0840044
0.0838338
0.0837069
0.0836158
0.0835621
0.0835668
0.0836913
0.0840817
0.0850479
0.0871919
0.0916127
0.100289
0.116974
0.149704
0.219767
0.434904
0.0846387
0.0843954
0.084147
0.0839413
0.0837846
0.0836686
0.0835858
0.0835383
0.0835472
0.0836737
0.0840635
0.0850258
0.0871618
0.0915697
0.100227
0.116887
0.149582
0.219606
0.434812
0.0844942
0.0842689
0.0840449
0.0838614
0.0837227
0.0836205
0.0835484
0.0835089
0.0835234
0.0836531
0.0840434
0.0850028
0.0871318
0.0915279
0.100168
0.116803
0.149468
0.219463
0.434741
0.0843184
0.0841173
0.0839239
0.0837672
0.0836497
0.0835638
0.0835043
0.0834743
0.0834958
0.0836301
0.0840223
0.0849804
0.0871043
0.0914909
0.100116
0.116731
0.14937
0.219346
0.434677
0.0841589
0.0839829
0.0838172
0.083684
0.0835848
0.0835131
0.0834645
0.083443
0.0834709
0.0836098
0.0840045
0.0849628
0.0870842
0.091465
0.10008
0.116679
0.149294
0.219242
0.434602
)
;

boundaryField
{
    leftWall
    {
        Cmu             0.09;
        kappa           0.41;
        E               9.8;
        type            epsilonWallFunction;
        value           nonuniform List<scalar> 
50
(
0.253859
0.282381
0.33434
0.365174
0.385345
0.399391
0.409815
0.418192
0.426058
0.435277
0.443214
0.45044
0.457168
0.463453
0.469298
0.474687
0.479604
0.484043
0.488011
0.491523
0.494682
0.497841
0.501653
0.508446
0.528675
0.583081
0.639352
0.677606
0.65576
0.624742
0.61497
0.603847
0.591519
0.578478
0.565407
0.552842
0.541096
0.530311
0.520535
0.511761
0.503927
0.496947
0.490833
0.485947
0.483635
0.488556
0.51623
0.610934
0.885126
1.65442
)
;
    }
    rightWall
    {
        Cmu             0.09;
        kappa           0.41;
        E               9.8;
        type            epsilonWallFunction;
        value           nonuniform List<scalar> 
50
(
0.255934
0.272012
0.327519
0.362145
0.385569
0.401855
0.413284
0.421382
0.430483
0.436683
0.440172
0.44223
0.443573
0.444534
0.44525
0.445773
0.446123
0.44631
0.446342
0.446228
0.44598
0.44561
0.445134
0.444567
0.443923
0.443219
0.442468
0.441683
0.440895
0.440405
0.440002
0.439598
0.439173
0.438734
0.438288
0.437846
0.437415
0.437002
0.436613
0.436254
0.435929
0.435642
0.435396
0.435191
0.435028
0.434904
0.434812
0.434741
0.434677
0.434602
)
;
    }
    lowerWall
    {
        Cmu             0.09;
        kappa           0.41;
        E               9.8;
        type            epsilonWallFunction;
        value           nonuniform List<scalar> 
62
(
0.253859
0.434368
0.579899
0.686107
0.764372
0.828347
0.889483
0.958059
1.04412
1.15801
1.31003
1.49643
1.68585
1.81102
1.80556
1.6852
1.5506
1.45336
1.37478
1.2477
1.1131
0.918157
0.523462
0.523462
0.573256
0.746191
0.817941
0.839581
0.861025
0.917422
1.03476
1.4234
1.21751
1.01255
0.897426
0.246973
0.269014
0.329379
0.365266
0.399335
0.454351
0.562727
0.747186
0.246973
0.436919
0.54121
0.578769
0.583906
0.57552
0.566674
0.559626
0.552979
0.546875
0.541215
0.535786
0.530182
0.523561
0.51389
0.496077
0.458282
0.378487
0.255934
)
;
    }
    atmosphere
    {
        type            inletOutlet;
        inletValue      uniform 0.1;
        value           nonuniform List<scalar> 
46
(
0.1
0.1
0.1
0.1
0.1
0.1
0.1
0.1
0.1
0.1
0.1
0.1
0.1
0.1
0.1
0.1
0.1
0.1
0.1
0.1
0.1
0.0862949
0.0850345
0.0846448
0.0844815
0.0843707
0.0842851
0.0841589
0.0839829
0.0838172
0.083684
0.0835848
0.0835131
0.0834645
0.083443
0.0834709
0.0836098
0.0840045
0.0849628
0.0870842
0.091465
0.10008
0.116679
0.149294
0.219242
0.434602
)
;
    }
    defaultFaces
    {
        type            empty;
    }
}


// ************************************************************************* //
