/*--------------------------------*- C++ -*----------------------------------*\
| =========                 |                                                 |
| \\      /  F ield         | OpenFOAM: The Open Source CFD Toolbox           |
|  \\    /   O peration     | Version:  v1606+                                |
|   \\  /    A nd           | Web:      www.OpenFOAM.com                      |
|    \\/     M anipulation  |                                                 |
\*---------------------------------------------------------------------------*/
FoamFile
{
    version     2.0;
    format      ascii;
    class       volVectorField;
    location    "0.0025";
    object      U;
}
// * * * * * * * * * * * * * * * * * * * * * * * * * * * * * * * * * * * * * //

dimensions      [0 1 -1 0 0 0 0];

internalField   nonuniform List<vector> 
2450
(
(0.551432 0.390149 0)
(-0.445698 0.0803093 0)
(0.803924 0.148396 0)
(1.83491 0.226635 0)
(1.71869 0.169018 0)
(1.44062 0.12531 0)
(1.2587 0.0952046 0)
(1.10396 0.0723069 0)
(0.973796 0.05614 0)
(0.867641 0.0445122 0)
(0.780903 0.0359294 0)
(0.709517 0.0294696 0)
(0.649837 0.02452 0)
(0.599205 0.0206603 0)
(0.555715 0.0175984 0)
(0.517765 0.0151182 0)
(0.4842 0.0130907 0)
(0.454195 0.0114018 0)
(0.427013 0.00998785 0)
(0.40224 0.00878323 0)
(0.379438 0.00775443 0)
(0.358411 0.00686778 0)
(0.338953 0.00610045 0)
(0.320861 0.00543725 0)
(0.304042 0.00485603 0)
(0.288332 0.00434861 0)
(0.273691 0.00390786 0)
(0.260042 0.0035172 0)
(0.2472 0.00317653 0)
(0.23515 0.00287314 0)
(0.223815 0.00260626 0)
(0.213066 0.00237079 0)
(0.202865 0.00216026 0)
(0.193124 0.00197318 0)
(0.183805 0.0018077 0)
(0.174869 0.00165576 0)
(0.166241 0.0015209 0)
(0.157929 0.00139852 0)
(0.149877 0.001287 0)
(0.142091 0.00118875 0)
(0.134567 0.0010987 0)
(0.127291 0.00102049 0)
(0.120255 0.000946212 0)
(0.113473 0.000879758 0)
(0.106953 0.00082175 0)
(0.100664 0.000768959 0)
(0.0946342 0.000722674 0)
(0.0888352 0.000681118 0)
(0.0832921 0.000647869 0)
(0.0779941 0.000616717 0)
(0.0729178 0.000588117 0)
(0.0680668 0.000564469 0)
(0.0634024 0.000544249 0)
(0.0589429 0.000526898 0)
(0.0546755 0.000511936 0)
(0.0505555 0.000499179 0)
(0.0465776 0.000488294 0)
(0.0427162 0.000479319 0)
(0.0389821 0.00047206 0)
(0.0353518 0.000464091 0)
(0.0317865 0.000458738 0)
(0.0282923 0.00045427 0)
(0.0248545 0.000450227 0)
(0.0214614 0.000446631 0)
(0.0181044 0.000443456 0)
(0.0147755 0.000440826 0)
(0.011468 0.000438926 0)
(0.00817752 0.000438003 0)
(0.00491008 0.000441512 0)
(0.00164286 0.000435234 0)
(0.230797 -0.667777 0)
(-0.436451 -0.651504 0)
(0.959755 0.745525 0)
(1.7527 0.649415 0)
(1.59018 0.485277 0)
(1.36705 0.361123 0)
(1.20501 0.274465 0)
(1.06447 0.210439 0)
(0.945767 0.164473 0)
(0.847313 0.130603 0)
(0.765788 0.105704 0)
(0.69806 0.0869396 0)
(0.640997 0.072513 0)
(0.592263 0.0612189 0)
(0.55016 0.0522298 0)
(0.513248 0.0449309 0)
(0.480478 0.0389497 0)
(0.45109 0.0339537 0)
(0.424394 0.0297643 0)
(0.400007 0.0261891 0)
(0.377523 0.023133 0)
(0.356758 0.0204993 0)
(0.337524 0.0182155 0)
(0.319618 0.0162381 0)
(0.302956 0.0145084 0)
(0.287385 0.0129975 0)
(0.272861 0.0116847 0)
(0.259312 0.0105198 0)
(0.246557 0.0095026 0)
(0.23458 0.00860371 0)
(0.223314 0.00780787 0)
(0.212621 0.00710512 0)
(0.202469 0.00647419 0)
(0.192772 0.00591548 0)
(0.183488 0.00542046 0)
(0.174583 0.00496781 0)
(0.165985 0.00456503 0)
(0.157696 0.00419861 0)
(0.149668 0.00386489 0)
(0.141903 0.00357237 0)
(0.134399 0.00330246 0)
(0.127139 0.00306761 0)
(0.120115 0.00284614 0)
(0.113349 0.00265245 0)
(0.106843 0.0024763 0)
(0.100565 0.00231768 0)
(0.0945465 0.00217868 0)
(0.0887606 0.00205475 0)
(0.083228 0.00195198 0)
(0.0779346 0.00185778 0)
(0.0728658 0.00177135 0)
(0.0680231 0.00170031 0)
(0.063365 0.00163915 0)
(0.0589109 0.00158658 0)
(0.0546481 0.00154119 0)
(0.0505322 0.00150258 0)
(0.0465581 0.00146986 0)
(0.0427002 0.00144259 0)
(0.038967 0.00142029 0)
(0.0353385 0.0013982 0)
(0.0317768 0.00138196 0)
(0.0282839 0.00136841 0)
(0.0248466 0.00135657 0)
(0.021454 0.00134634 0)
(0.0180968 0.00133734 0)
(0.0147672 0.00132946 0)
(0.0114589 0.00132217 0)
(0.00817334 0.00131413 0)
(0.00490675 0.00131465 0)
(0.0016338 0.0013163 0)
(0.203382 0.814406 0)
(0.830689 0.931183 0)
(1.37162 1.3357 0)
(1.51439 1.00321 0)
(1.38041 0.719535 0)
(1.23521 0.547635 0)
(1.10751 0.420292 0)
(0.993475 0.326728 0)
(0.893814 0.258099 0)
(0.808829 0.207038 0)
(0.737224 0.168934 0)
(0.676314 0.139851 0)
(0.624108 0.117261 0)
(0.578917 0.0994129 0)
(0.539425 0.085099 0)
(0.504485 0.0734071 0)
(0.473223 0.0637842 0)
(0.445011 0.0557045 0)
(0.419251 0.0488999 0)
(0.39561 0.0430758 0)
(0.37375 0.0380879 0)
(0.353495 0.0337929 0)
(0.334693 0.0300538 0)
(0.317155 0.0268094 0)
(0.300802 0.0239706 0)
(0.285508 0.0214886 0)
(0.271213 0.0193276 0)
(0.257859 0.0174103 0)
(0.245283 0.0157299 0)
(0.233454 0.0142591 0)
(0.222316 0.0129458 0)
(0.211731 0.0117838 0)
(0.201675 0.0107423 0)
(0.192069 0.00981766 0)
(0.182857 0.00899767 0)
(0.174013 0.0082483 0)
(0.165472 0.00758023 0)
(0.157228 0.00697853 0)
(0.149251 0.00642718 0)
(0.141528 0.00594318 0)
(0.134063 0.00549569 0)
(0.126835 0.00510128 0)
(0.11984 0.0047354 0)
(0.113103 0.00441891 0)
(0.106619 0.0041253 0)
(0.100367 0.00386411 0)
(0.0943716 0.00363357 0)
(0.0886089 0.00342833 0)
(0.0830955 0.0032542 0)
(0.0778139 0.00309724 0)
(0.0727609 0.00295416 0)
(0.0679351 0.00283592 0)
(0.0632892 0.00273387 0)
(0.0588456 0.00264658 0)
(0.0545921 0.0025712 0)
(0.0504849 0.00250678 0)
(0.0465183 0.00245217 0)
(0.0426671 0.00240628 0)
(0.0389382 0.00236835 0)
(0.0353139 0.00233435 0)
(0.0317571 0.00230712 0)
(0.0282672 0.00228432 0)
(0.0248324 0.00226506 0)
(0.0214418 0.00224891 0)
(0.0180862 0.00223536 0)
(0.0147575 0.00222408 0)
(0.0114478 0.0022151 0)
(0.00816324 0.00220506 0)
(0.00490502 0.00219686 0)
(0.00163578 0.00219767 0)
(0.241493 1.85115 0)
(0.670358 1.75286 0)
(1.01837 1.49951 0)
(1.1465 1.13179 0)
(1.13001 0.859541 0)
(1.06211 0.665982 0)
(0.982152 0.521413 0)
(0.901676 0.413052 0)
(0.825984 0.331364 0)
(0.758128 0.269867 0)
(0.6986 0.222751 0)
(0.646386 0.186068 0)
(0.600557 0.157143 0)
(0.560098 0.133984 0)
(0.524152 0.115219 0)
(0.491932 0.0997526 0)
(0.462773 0.0869271 0)
(0.436203 0.0760983 0)
(0.411763 0.0669246 0)
(0.389193 0.0590529 0)
(0.368238 0.0522829 0)
(0.348722 0.0464473 0)
(0.330539 0.0413494 0)
(0.313533 0.0369162 0)
(0.297633 0.0330375 0)
(0.28274 0.0296378 0)
(0.268781 0.0266699 0)
(0.255712 0.0240402 0)
(0.243403 0.0217257 0)
(0.231794 0.019704 0)
(0.220836 0.0178934 0)
(0.210416 0.0162883 0)
(0.200501 0.0148631 0)
(0.191026 0.0135823 0)
(0.181917 0.0124465 0)
(0.173164 0.0114125 0)
(0.164714 0.0104868 0)
(0.156541 0.00965749 0)
(0.148631 0.00889631 0)
(0.14097 0.00822333 0)
(0.133557 0.00760513 0)
(0.126378 0.00705404 0)
(0.119432 0.00654901 0)
(0.112738 0.00610898 0)
(0.106288 0.00570305 0)
(0.100073 0.00534478 0)
(0.0941108 0.00502555 0)
(0.0883815 0.00474117 0)
(0.0828972 0.00449742 0)
(0.0776349 0.00427963 0)
(0.072605 0.00408607 0)
(0.0678034 0.00392136 0)
(0.0631764 0.00377922 0)
(0.0587489 0.00366016 0)
(0.054509 0.00355585 0)
(0.050414 0.00346657 0)
(0.0464584 0.00339096 0)
(0.042617 0.00332734 0)
(0.0388956 0.00327465 0)
(0.0352779 0.00322893 0)
(0.0317274 0.00319115 0)
(0.0282423 0.00315954 0)
(0.0248116 0.00313315 0)
(0.0214244 0.00311124 0)
(0.0180719 0.00309304 0)
(0.0147464 0.00307827 0)
(0.0114388 0.00306775 0)
(0.00815331 0.00305934 0)
(0.00489768 0.00305024 0)
(0.00163446 0.00304672 0)
(0.173816 1.71144 0)
(0.495192 1.57572 0)
(0.730306 1.3635 0)
(0.872874 1.11253 0)
(0.910094 0.892931 0)
(0.894049 0.717128 0)
(0.853533 0.578353 0)
(0.803135 0.469219 0)
(0.750572 0.384167 0)
(0.700209 0.31798 0)
(0.653426 0.265883 0)
(0.610708 0.224453 0)
(0.572025 0.191178 0)
(0.536993 0.164117 0)
(0.505194 0.141909 0)
(0.476192 0.123417 0)
(0.449568 0.107925 0)
(0.425007 0.0947701 0)
(0.402203 0.0835454 0)
(0.380967 0.0738972 0)
(0.361142 0.0655404 0)
(0.342559 0.0583071 0)
(0.32516 0.0519777 0)
(0.308841 0.0464569 0)
(0.293522 0.0416256 0)
(0.279138 0.0373754 0)
(0.265614 0.0336555 0)
(0.252913 0.0303738 0)
(0.240945 0.0274671 0)
(0.22962 0.0249169 0)
(0.218898 0.0226399 0)
(0.208699 0.0206151 0)
(0.198967 0.0188238 0)
(0.189651 0.0172028 0)
(0.180685 0.0157613 0)
(0.172051 0.0144653 0)
(0.163715 0.013291 0)
(0.155636 0.0122376 0)
(0.147815 0.011275 0)
(0.140236 0.0104182 0)
(0.132892 0.00963414 0)
(0.125778 0.008935 0)
(0.118894 0.00829772 0)
(0.112257 0.00773675 0)
(0.105854 0.00722434 0)
(0.0996886 0.00677048 0)
(0.0937675 0.00636579 0)
(0.0880806 0.00600748 0)
(0.082634 0.0056954 0)
(0.0774026 0.0054186 0)
(0.0724028 0.00518105 0)
(0.0676285 0.00497159 0)
(0.0630284 0.0047903 0)
(0.0586226 0.0046409 0)
(0.0543989 0.00450838 0)
(0.0503204 0.00439535 0)
(0.0463796 0.00429982 0)
(0.0425511 0.00421931 0)
(0.03884 0.00415341 0)
(0.0352307 0.00409604 0)
(0.031688 0.00404816 0)
(0.0282094 0.00400823 0)
(0.0247842 0.00397501 0)
(0.0214017 0.00394746 0)
(0.0180532 0.00392433 0)
(0.0147319 0.00390627 0)
(0.0114284 0.00389256 0)
(0.00814509 0.00388302 0)
(0.00489224 0.00387458 0)
(0.00163319 0.00387069 0)
(0.127177 1.42042 0)
(0.367522 1.34495 0)
(0.557942 1.21276 0)
(0.679379 1.03984 0)
(0.734391 0.872202 0)
(0.746794 0.725071 0)
(0.733888 0.601518 0)
(0.707378 0.500084 0)
(0.674704 0.418129 0)
(0.639832 0.351945 0)
(0.605069 0.29833 0)
(0.571683 0.254703 0)
(0.540223 0.218948 0)
(0.51083 0.18939 0)
(0.483453 0.164756 0)
(0.457948 0.144032 0)
(0.434127 0.126459 0)
(0.411824 0.111451 0)
(0.390889 0.0985287 0)
(0.371187 0.0873794 0)
(0.352647 0.0776622 0)
(0.335158 0.0692067 0)
(0.318688 0.0618109 0)
(0.30318 0.0553265 0)
(0.28855 0.0496385 0)
(0.274768 0.0446261 0)
(0.261777 0.0402198 0)
(0.249522 0.0363421 0)
(0.237945 0.0328943 0)
(0.226965 0.0298525 0)
(0.216533 0.0271493 0)
(0.206598 0.0247348 0)
(0.197087 0.0225886 0)
(0.187961 0.0206578 0)
(0.179178 0.0189262 0)
(0.170692 0.0173788 0)
(0.162485 0.0159678 0)
(0.154524 0.0146995 0)
(0.146811 0.0135523 0)
(0.139328 0.0125165 0)
(0.132073 0.0115791 0)
(0.125041 0.0107369 0)
(0.118232 0.00997678 0)
(0.111664 0.00929821 0)
(0.105321 0.00868312 0)
(0.0992141 0.00813559 0)
(0.0933472 0.00764944 0)
(0.0877107 0.00722301 0)
(0.0823081 0.00684702 0)
(0.0771204 0.00651534 0)
(0.072158 0.00623224 0)
(0.0674127 0.0059814 0)
(0.0628458 0.00576427 0)
(0.0584672 0.00558437 0)
(0.0542636 0.00542598 0)
(0.0502057 0.00529097 0)
(0.0462827 0.00517653 0)
(0.0424707 0.00507975 0)
(0.0387723 0.00500219 0)
(0.0351727 0.00493365 0)
(0.0316396 0.00487623 0)
(0.0281691 0.00482842 0)
(0.0247507 0.00478866 0)
(0.0213736 0.00475561 0)
(0.0180305 0.00472849 0)
(0.0147143 0.00470737 0)
(0.0114151 0.00469065 0)
(0.00813481 0.00467779 0)
(0.00488522 0.00466835 0)
(0.00163102 0.00466365 0)
(0.0973268 1.23197 0)
(0.280442 1.17863 0)
(0.429944 1.08076 0)
(0.534939 0.955416 0)
(0.595904 0.827042 0)
(0.623344 0.707574 0)
(0.62848 0.602209 0)
(0.619704 0.512321 0)
(0.602413 0.436704 0)
(0.580399 0.373569 0)
(0.55618 0.320991 0)
(0.531327 0.277179 0)
(0.506714 0.240518 0)
(0.482802 0.209694 0)
(0.459836 0.183597 0)
(0.437897 0.161392 0)
(0.416987 0.142334 0)
(0.397077 0.125928 0)
(0.378132 0.111686 0)
(0.3601 0.0993114 0)
(0.342969 0.0884951 0)
(0.326707 0.0790219 0)
(0.311279 0.0707206 0)
(0.296667 0.063412 0)
(0.28282 0.0569766 0)
(0.269719 0.0513054 0)
(0.257328 0.0462922 0)
(0.245586 0.0418677 0)
(0.234454 0.0379422 0)
(0.223873 0.0344569 0)
(0.213779 0.031362 0)
(0.204137 0.0285995 0)
(0.194888 0.0261229 0)
(0.185987 0.0239064 0)
(0.177405 0.0219115 0)
(0.169091 0.0201167 0)
(0.161034 0.0184921 0)
(0.153219 0.0170224 0)
(0.145631 0.0156995 0)
(0.138261 0.0144979 0)
(0.131111 0.0134188 0)
(0.124175 0.012436 0)
(0.117454 0.0115596 0)
(0.110962 0.010771 0)
(0.10469 0.0100582 0)
(0.0986542 0.00942715 0)
(0.0928543 0.00886445 0)
(0.0872777 0.00837108 0)
(0.081926 0.00793578 0)
(0.0767876 0.0075529 0)
(0.0718688 0.00722571 0)
(0.0671605 0.00693648 0)
(0.0626315 0.00668717 0)
(0.0582845 0.00647782 0)
(0.0541057 0.00629573 0)
(0.0500713 0.00614055 0)
(0.0461687 0.00600883 0)
(0.0423769 0.00589728 0)
(0.0386939 0.00580787 0)
(0.0351048 0.00572905 0)
(0.0315828 0.00566288 0)
(0.0281218 0.00560766 0)
(0.0247113 0.00556164 0)
(0.0213413 0.00552337 0)
(0.0180047 0.00549321 0)
(0.0146938 0.0054686 0)
(0.0113983 0.00544912 0)
(0.00812219 0.00543358 0)
(0.00487772 0.00542359 0)
(0.00162851 0.00541856 0)
(0.0743706 1.07275 0)
(0.216397 1.0332 0)
(0.336432 0.962275 0)
(0.426632 0.870557 0)
(0.486881 0.772157 0)
(0.522029 0.67657 0)
(0.538638 0.58901 0)
(0.541862 0.511198 0)
(0.535941 0.443412 0)
(0.524112 0.385074 0)
(0.508676 0.335183 0)
(0.491209 0.292632 0)
(0.472738 0.256298 0)
(0.453911 0.225201 0)
(0.435152 0.198485 0)
(0.416686 0.17544 0)
(0.398663 0.155467 0)
(0.381177 0.138093 0)
(0.364273 0.122915 0)
(0.347996 0.109613 0)
(0.332357 0.0979453 0)
(0.317383 0.087668 0)
(0.303077 0.0786147 0)
(0.289435 0.0706312 0)
(0.276442 0.0635699 0)
(0.264083 0.0573349 0)
(0.252338 0.0518111 0)
(0.241171 0.0469101 0)
(0.230533 0.0425647 0)
(0.220383 0.038697 0)
(0.210674 0.0352452 0)
(0.201357 0.0321687 0)
(0.192392 0.0294014 0)
(0.183748 0.0269179 0)
(0.175387 0.0246828 0)
(0.167271 0.0226646 0)
(0.159389 0.0208419 0)
(0.15173 0.0191916 0)
(0.144284 0.017695 0)
(0.137046 0.0163474 0)
(0.130009 0.0151255 0)
(0.12318 0.0140213 0)
(0.116566 0.0130308 0)
(0.110162 0.0121411 0)
(0.103976 0.011339 0)
(0.0980195 0.010632 0)
(0.0922905 0.0100003 0)
(0.0867816 0.0094432 0)
(0.0814896 0.00895241 0)
(0.0764101 0.00852296 0)
(0.0715416 0.00815552 0)
(0.0668742 0.00783061 0)
(0.0623874 0.0075519 0)
(0.058076 0.00731545 0)
(0.0539266 0.00711146 0)
(0.0499191 0.00693782 0)
(0.0460398 0.00679067 0)
(0.04227 0.00666617 0)
(0.0386042 0.00656446 0)
(0.0350278 0.0064763 0)
(0.0315182 0.00640218 0)
(0.0280678 0.00634004 0)
(0.0246663 0.0062886 0)
(0.021305 0.00624685 0)
(0.0179755 0.00621228 0)
(0.0146699 0.00618397 0)
(0.0113796 0.00616191 0)
(0.00810859 0.00614517 0)
(0.00486963 0.00613433 0)
(0.00162578 0.00612898 0)
(0.0581475 0.938104 0)
(0.170364 0.910011 0)
(0.26784 0.858104 0)
(0.345097 0.790419 0)
(0.402027 0.715221 0)
(0.44024 0.639557 0)
(0.463119 0.567418 0)
(0.474106 0.501035 0)
(0.476284 0.441396 0)
(0.472166 0.388608 0)
(0.463737 0.342339 0)
(0.452442 0.30199 0)
(0.439283 0.266857 0)
(0.42499 0.236271 0)
(0.410075 0.20961 0)
(0.394879 0.186293 0)
(0.379642 0.165885 0)
(0.364525 0.147948 0)
(0.349652 0.13217 0)
(0.335131 0.118246 0)
(0.321024 0.10595 0)
(0.307377 0.0950778 0)
(0.294242 0.0854486 0)
(0.281622 0.0769281 0)
(0.269523 0.0693712 0)
(0.257959 0.0626709 0)
(0.246902 0.0567276 0)
(0.236339 0.051438 0)
(0.226239 0.0467265 0)
(0.216552 0.04253 0)
(0.207249 0.0387755 0)
(0.198291 0.0354115 0)
(0.189636 0.0323895 0)
(0.181267 0.0296704 0)
(0.17315 0.0272164 0)
(0.165249 0.0250028 0)
(0.157559 0.0229961 0)
(0.150071 0.0211808 0)
(0.142785 0.0195317 0)
(0.13569 0.0180416 0)
(0.128783 0.0166947 0)
(0.122078 0.0154797 0)
(0.115573 0.0143844 0)
(0.109269 0.0133994 0)
(0.10318 0.0125203 0)
(0.0973146 0.0117406 0)
(0.091665 0.0110442 0)
(0.0862293 0.0104302 0)
(0.0810055 0.009891 0)
(0.0759905 0.00942034 0)
(0.0711765 0.0090133 0)
(0.0665571 0.00865562 0)
(0.0621166 0.00835029 0)
(0.0578444 0.00808981 0)
(0.0537284 0.00786644 0)
(0.0497509 0.0076764 0)
(0.0458975 0.00751551 0)
(0.042151 0.00737927 0)
(0.0385042 0.00726658 0)
(0.0349427 0.00717005 0)
(0.0314466 0.00708883 0)
(0.0280082 0.0070208 0)
(0.024618 0.00696513 0)
(0.0212648 0.00691893 0)
(0.0179415 0.0068799 0)
(0.014643 0.00684873 0)
(0.011359 0.00682456 0)
(0.00809385 0.00680654 0)
(0.00486083 0.00679472 0)
(0.00162283 0.00678901 0)
(0.0465013 0.827553 0)
(0.136532 0.80722 0)
(0.216925 0.768854 0)
(0.283806 0.718343 0)
(0.336061 0.660648 0)
(0.374248 0.600494 0)
(0.400125 0.541238 0)
(0.415841 0.485056 0)
(0.423512 0.433151 0)
(0.425054 0.386051 0)
(0.422058 0.343823 0)
(0.415727 0.306209 0)
(0.40702 0.272851 0)
(0.396665 0.243343 0)
(0.385175 0.217239 0)
(0.372961 0.194145 0)
(0.360319 0.17369 0)
(0.347462 0.155557 0)
(0.33457 0.13947 0)
(0.321777 0.125192 0)
(0.30919 0.112505 0)
(0.296881 0.101229 0)
(0.284927 0.0912038 0)
(0.273357 0.082286 0)
(0.262184 0.0743572 0)
(0.251438 0.0672988 0)
(0.241104 0.061013 0)
(0.231169 0.0554109 0)
(0.221623 0.0504033 0)
(0.212431 0.0459252 0)
(0.203554 0.0419175 0)
(0.19497 0.038312 0)
(0.186649 0.0350688 0)
(0.178574 0.032146 0)
(0.170717 0.0295003 0)
(0.163048 0.027106 0)
(0.155564 0.0249387 0)
(0.148263 0.0229731 0)
(0.141143 0.0211942 0)
(0.134207 0.0195756 0)
(0.127445 0.0181154 0)
(0.120869 0.0167948 0)
(0.114484 0.0156079 0)
(0.108296 0.0145381 0)
(0.102316 0.0135892 0)
(0.0965427 0.012744 0)
(0.0909796 0.0119872 0)
(0.0856279 0.0113229 0)
(0.0804796 0.0107415 0)
(0.0755324 0.0102323 0)
(0.070777 0.0097903 0)
(0.0662116 0.00940739 0)
(0.061822 0.0090777 0)
(0.0575927 0.00879592 0)
(0.0535137 0.00855511 0)
(0.0495688 0.00835048 0)
(0.0457432 0.00817756 0)
(0.0420215 0.00803088 0)
(0.0383953 0.00790876 0)
(0.0348503 0.00780491 0)
(0.0313692 0.00771776 0)
(0.0279442 0.00764448 0)
(0.0245644 0.0075841 0)
(0.0212196 0.00753275 0)
(0.0179051 0.00749107 0)
(0.0146142 0.00745773 0)
(0.0113368 0.00743164 0)
(0.00807793 0.00741226 0)
(0.00485132 0.00739952 0)
(0.00161967 0.00739345 0)
(0.0379305 0.736748 0)
(0.111709 0.721675 0)
(0.178983 0.69325 0)
(0.236898 0.654819 0)
(0.284189 0.609867 0)
(0.320839 0.561714 0)
(0.347685 0.512971 0)
(0.366019 0.465544 0)
(0.377279 0.420652 0)
(0.382838 0.378994 0)
(0.383896 0.340831 0)
(0.38147 0.30619 0)
(0.376418 0.274954 0)
(0.369379 0.246884 0)
(0.360877 0.221722 0)
(0.351331 0.199201 0)
(0.341055 0.179046 0)
(0.330306 0.161021 0)
(0.319288 0.144905 0)
(0.308166 0.130501 0)
(0.297061 0.117632 0)
(0.286076 0.106133 0)
(0.275299 0.0958669 0)
(0.264775 0.0866971 0)
(0.254535 0.0785102 0)
(0.244614 0.0711948 0)
(0.235013 0.0646543 0)
(0.225728 0.0588086 0)
(0.216752 0.0535747 0)
(0.208065 0.0488748 0)
(0.199634 0.0446534 0)
(0.191441 0.0408518 0)
(0.183467 0.0374228 0)
(0.175696 0.034323 0)
(0.168107 0.031513 0)
(0.160685 0.0289623 0)
(0.153424 0.0266531 0)
(0.146324 0.0245556 0)
(0.139385 0.0226569 0)
(0.132609 0.0209328 0)
(0.126001 0.0193702 0)
(0.119569 0.0179601 0)
(0.113315 0.0166903 0)
(0.107249 0.0155505 0)
(0.101385 0.0145336 0)
(0.0957119 0.0136293 0)
(0.0902434 0.0128248 0)
(0.0849833 0.0121171 0)
(0.0799149 0.0114967 0)
(0.0750395 0.0109534 0)
(0.0703519 0.0104825 0)
(0.065845 0.0100781 0)
(0.0615057 0.00972693 0)
(0.0573225 0.00942749 0)
(0.0532837 0.00917195 0)
(0.0493741 0.00895496 0)
(0.0455785 0.00877099 0)
(0.0418827 0.00861548 0)
(0.0382788 0.00848559 0)
(0.0347521 0.0083754 0)
(0.0312864 0.00828285 0)
(0.0278747 0.00820528 0)
(0.0245063 0.00813976 0)
(0.0211717 0.00808565 0)
(0.0178663 0.00804166 0)
(0.0145832 0.00800601 0)
(0.0113129 0.00797811 0)
(0.0080609 0.00795741 0)
(0.0048412 0.00794387 0)
(0.00161632 0.00793746 0)
(0.0315016 0.661538 0)
(0.0930498 0.650137 0)
(0.150068 0.628515 0)
(0.200419 0.598733 0)
(0.242955 0.563219 0)
(0.277353 0.524325 0)
(0.303955 0.484075 0)
(0.323521 0.444029 0)
(0.336962 0.405305 0)
(0.345234 0.36861 0)
(0.349255 0.334366 0)
(0.34985 0.302754 0)
(0.347714 0.27379 0)
(0.343433 0.247389 0)
(0.337493 0.223432 0)
(0.330285 0.20174 0)
(0.322139 0.182149 0)
(0.313322 0.164479 0)
(0.30405 0.14856 0)
(0.294504 0.134243 0)
(0.284822 0.121374 0)
(0.275116 0.109816 0)
(0.26549 0.0994521 0)
(0.256 0.0901534 0)
(0.246681 0.0818201 0)
(0.237581 0.074348 0)
(0.228717 0.0676448 0)
(0.220088 0.0616299 0)
(0.211688 0.0562272 0)
(0.203508 0.0513612 0)
(0.195529 0.0469735 0)
(0.187737 0.0430121 0)
(0.180118 0.0394304 0)
(0.172662 0.0361845 0)
(0.165354 0.0332386 0)
(0.158186 0.0305612 0)
(0.151156 0.0281293 0)
(0.144265 0.0259203 0)
(0.137519 0.0239167 0)
(0.130919 0.022098 0)
(0.124471 0.0204534 0)
(0.118187 0.018966 0)
(0.112074 0.0176243 0)
(0.106138 0.016424 0)
(0.100394 0.0153467 0)
(0.0948331 0.0143928 0)
(0.089467 0.013551 0)
(0.0842997 0.0128056 0)
(0.079316 0.0121516 0)
(0.0745185 0.0115801 0)
(0.0699022 0.0110861 0)
(0.0654566 0.0106605 0)
(0.061172 0.0102921 0)
(0.0570385 0.00997854 0)
(0.0530421 0.00971125 0)
(0.0491687 0.00948441 0)
(0.0454046 0.00929139 0)
(0.0417368 0.00912868 0)
(0.0381559 0.00899257 0)
(0.0346481 0.00887704 0)
(0.0311994 0.00877973 0)
(0.0278013 0.00869871 0)
(0.0244449 0.00862988 0)
(0.0211215 0.00857325 0)
(0.0178253 0.00852675 0)
(0.0145504 0.00848897 0)
(0.0112877 0.00845954 0)
(0.00804287 0.00843764 0)
(0.00483053 0.00842342 0)
(0.0016128 0.00841683 0)
(0.026577 0.597969 0)
(0.0786983 0.589174 0)
(0.127579 0.572376 0)
(0.171598 0.548937 0)
(0.209779 0.520512 0)
(0.241695 0.488805 0)
(0.267389 0.455379 0)
(0.28725 0.421463 0)
(0.301861 0.388043 0)
(0.311901 0.355818 0)
(0.31804 0.32524 0)
(0.320893 0.296561 0)
(0.321052 0.269908 0)
(0.319022 0.245306 0)
(0.315229 0.222717 0)
(0.310048 0.202053 0)
(0.303794 0.183223 0)
(0.296717 0.166101 0)
(0.289052 0.150569 0)
(0.28098 0.136512 0)
(0.272633 0.123805 0)
(0.264154 0.112338 0)
(0.255636 0.102007 0)
(0.247142 0.0926925 0)
(0.238729 0.0843123 0)
(0.230437 0.0767703 0)
(0.222294 0.0699833 0)
(0.214309 0.0638674 0)
(0.206482 0.0583522 0)
(0.19881 0.0533707 0)
(0.191283 0.0488655 0)
(0.183896 0.0447855 0)
(0.176638 0.0410864 0)
(0.169502 0.0377265 0)
(0.162482 0.0346719 0)
(0.155574 0.0318897 0)
(0.148782 0.0293596 0)
(0.14211 0.027059 0)
(0.135561 0.024969 0)
(0.129144 0.0230711 0)
(0.122867 0.0213537 0)
(0.116739 0.0198026 0)
(0.110772 0.0184025 0)
(0.104971 0.017149 0)
(0.0993532 0.0160267 0)
(0.0939157 0.0150345 0)
(0.088656 0.0141571 0)
(0.0835839 0.0133801 0)
(0.0786895 0.0127002 0)
(0.0739744 0.0121068 0)
(0.0694329 0.0115939 0)
(0.0650517 0.0111516 0)
(0.0608246 0.01077 0)
(0.0567426 0.0104461 0)
(0.0527906 0.0101693 0)
(0.0489554 0.00993425 0)
(0.0452238 0.00973493 0)
(0.0415848 0.0095666 0)
(0.0380279 0.00942579 0)
(0.0345399 0.0093059 0)
(0.0311086 0.00920524 0)
(0.0277252 0.00912093 0)
(0.0243811 0.00904994 0)
(0.0210687 0.00899089 0)
(0.017782 0.00894224 0)
(0.0145158 0.00890262 0)
(0.0112611 0.00887207 0)
(0.00802399 0.00884909 0)
(0.00481954 0.00883423 0)
(0.00160924 0.00882735 0)
(0.0227373 0.543387 0)
(0.0674659 0.536468 0)
(0.109833 0.523172 0)
(0.148553 0.504431 0)
(0.182822 0.481388 0)
(0.212221 0.455292 0)
(0.236613 0.427315 0)
(0.256187 0.398487 0)
(0.271318 0.369617 0)
(0.282431 0.341344 0)
(0.289999 0.314098 0)
(0.294518 0.28819 0)
(0.296459 0.263811 0)
(0.296242 0.241041 0)
(0.294241 0.21992 0)
(0.290792 0.200419 0)
(0.286188 0.182495 0)
(0.280668 0.166072 0)
(0.274461 0.151085 0)
(0.26774 0.137428 0)
(0.260647 0.12502 0)
(0.253318 0.113769 0)
(0.245845 0.103575 0)
(0.238304 0.0943509 0)
(0.230758 0.0860168 0)
(0.223251 0.0784837 0)
(0.215813 0.0716786 0)
(0.208455 0.065524 0)
(0.20119 0.0599539 0)
(0.194019 0.0549063 0)
(0.186942 0.0503276 0)
(0.179956 0.0461692 0)
(0.173057 0.0423867 0)
(0.166245 0.038943 0)
(0.159516 0.0358051 0)
(0.152872 0.0329433 0)
(0.146323 0.0303374 0)
(0.139873 0.0279634 0)
(0.133529 0.0258046 0)
(0.127302 0.0238441 0)
(0.121201 0.0220686 0)
(0.115235 0.0204652 0)
(0.109419 0.0190179 0)
(0.103762 0.0177241 0)
(0.098279 0.0165733 0)
(0.0929633 0.0155467 0)
(0.0878125 0.0146373 0)
(0.0828431 0.0138376 0)
(0.0780432 0.0131391 0)
(0.0734129 0.0125304 0)
(0.0689478 0.012003 0)
(0.0646337 0.0115475 0)
(0.0604676 0.0111564 0)
(0.056439 0.010826 0)
(0.0525315 0.0105427 0)
(0.0487356 0.0103018 0)
(0.0450381 0.0100979 0)
(0.0414287 0.00992521 0)
(0.0378962 0.00978123 0)
(0.0344284 0.00965867 0)
(0.0310151 0.00955545 0)
(0.0276466 0.00946859 0)
(0.0243152 0.00939556 0)
(0.021014 0.0093349 0)
(0.017737 0.00928479 0)
(0.01448 0.0092437 0)
(0.0112337 0.00921252 0)
(0.00800427 0.00918863 0)
(0.00480796 0.00917292 0)
(0.00160542 0.0091656 0)
(0.0196779 0.495734 0)
(0.0584886 0.490196 0)
(0.0955457 0.479488 0)
(0.129814 0.464258 0)
(0.16064 0.445352 0)
(0.187622 0.423674 0)
(0.210584 0.400104 0)
(0.229552 0.375496 0)
(0.244718 0.350499 0)
(0.256383 0.325667 0)
(0.264886 0.301439 0)
(0.270606 0.278122 0)
(0.273904 0.255924 0)
(0.275131 0.234982 0)
(0.274608 0.215365 0)
(0.272623 0.197104 0)
(0.269446 0.180184 0)
(0.265307 0.16458 0)
(0.260408 0.150245 0)
(0.254915 0.137107 0)
(0.248974 0.125108 0)
(0.242708 0.114169 0)
(0.236217 0.104212 0)
(0.229583 0.0951667 0)
(0.222861 0.0869568 0)
(0.216098 0.079507 0)
(0.209333 0.0727476 0)
(0.202583 0.0666114 0)
(0.195863 0.0610384 0)
(0.189182 0.0559714 0)
(0.182544 0.0513598 0)
(0.175953 0.0471582 0)
(0.16941 0.0433258 0)
(0.162919 0.0398281 0)
(0.156481 0.0366326 0)
(0.150104 0.0337172 0)
(0.1438 0.0310561 0)
(0.137575 0.0286293 0)
(0.13144 0.0264211 0)
(0.125407 0.0244143 0)
(0.119487 0.0225957 0)
(0.113687 0.0209539 0)
(0.10803 0.0194735 0)
(0.102526 0.0181507 0)
(0.0971755 0.016974 0)
(0.0919797 0.0159207 0)
(0.086947 0.014995 0)
(0.0820861 0.0141789 0)
(0.077383 0.0134669 0)
(0.0728391 0.0128468 0)
(0.068451 0.0123104 0)
(0.0642063 0.0118489 0)
(0.0601045 0.011451 0)
(0.0561303 0.0111138 0)
(0.0522679 0.0108273 0)
(0.048512 0.0105843 0)
(0.0448486 0.0103778 0)
(0.0412694 0.0102022 0)
(0.0377625 0.0100563 0)
(0.0343151 0.0099326 0)
(0.0309194 0.0098276 0)
(0.027566 0.00973908 0)
(0.0242479 0.00966471 0)
(0.0209582 0.00960309 0)
(0.0176909 0.00955233 0)
(0.0144434 0.00951032 0)
(0.0112057 0.00947726 0)
(0.00798367 0.00945277 0)
(0.00479569 0.00943667 0)
(0.0016014 0.0094292 0)
(0.0172108 0.453401 0)
(0.0512211 0.448909 0)
(0.0838977 0.440173 0)
(0.114417 0.427656 0)
(0.142238 0.411981 0)
(0.166972 0.393821 0)
(0.188435 0.373847 0)
(0.206582 0.352719 0)
(0.221489 0.331012 0)
(0.233371 0.3092 0)
(0.242454 0.287682 0)
(0.249004 0.26675 0)
(0.253318 0.246621 0)
(0.255682 0.227457 0)
(0.256363 0.209349 0)
(0.255611 0.19236 0)
(0.253664 0.176511 0)
(0.250729 0.161799 0)
(0.246988 0.148196 0)
(0.242602 0.135665 0)
(0.237709 0.124158 0)
(0.232422 0.113618 0)
(0.226842 0.103984 0)
(0.221048 0.0951899 0)
(0.215098 0.0871704 0)
(0.209041 0.0798659 0)
(0.202916 0.0732114 0)
(0.196745 0.0671468 0)
(0.190549 0.0616177 0)
(0.18434 0.0565729 0)
(0.178127 0.0519666 0)
(0.17192 0.0477564 0)
(0.165726 0.0439054 0)
(0.15955 0.0403825 0)
(0.153403 0.0371583 0)
(0.147294 0.0342109 0)
(0.141234 0.0315169 0)
(0.135236 0.029057 0)
(0.129313 0.0268154 0)
(0.123476 0.0247786 0)
(0.11774 0.0229326 0)
(0.112112 0.021266 0)
(0.106615 0.0197665 0)
(0.101262 0.0184227 0)
(0.0960489 0.0172263 0)
(0.0909844 0.0161619 0)
(0.086071 0.0152287 0)
(0.0813155 0.0144005 0)
(0.0767118 0.0136806 0)
(0.0722574 0.0130536 0)
(0.0679511 0.0125146 0)
(0.0637757 0.012052 0)
(0.0597341 0.0116498 0)
(0.0558169 0.0113098 0)
(0.0520037 0.0110221 0)
(0.0482877 0.0107797 0)
(0.0446575 0.0105729 0)
(0.0411087 0.0103965 0)
(0.0376279 0.0102488 0)
(0.0342009 0.0101248 0)
(0.0308226 0.0100196 0)
(0.0274844 0.00993072 0)
(0.0241798 0.00985566 0)
(0.020902 0.00979257 0)
(0.0176445 0.00974195 0)
(0.0144049 0.00969951 0)
(0.0111758 0.00966477 0)
(0.00796295 0.00963987 0)
(0.0047835 0.00962367 0)
(0.0015974 0.00961615 0)
(0.0151922 0.41531 0)
(0.045259 0.411612 0)
(0.0742931 0.404395 0)
(0.101623 0.393996 0)
(0.126805 0.380861 0)
(0.149487 0.365509 0)
(0.169481 0.348485 0)
(0.186717 0.330288 0)
(0.201199 0.311405 0)
(0.213053 0.292245 0)
(0.222436 0.273144 0)
(0.229545 0.254395 0)
(0.234611 0.236209 0)
(0.237859 0.21875 0)
(0.239511 0.202126 0)
(0.239785 0.186419 0)
(0.238885 0.17167 0)
(0.236992 0.157895 0)
(0.234274 0.145086 0)
(0.230877 0.133226 0)
(0.226927 0.122279 0)
(0.222533 0.112202 0)
(0.217788 0.102952 0)
(0.212769 0.0944691 0)
(0.207536 0.086701 0)
(0.202138 0.0795951 0)
(0.196613 0.0730936 0)
(0.190988 0.0671468 0)
(0.185288 0.0617045 0)
(0.17953 0.0567207 0)
(0.173727 0.0521548 0)
(0.167891 0.0479692 0)
(0.162035 0.0441296 0)
(0.15617 0.0406093 0)
(0.150308 0.0373823 0)
(0.144462 0.0344241 0)
(0.138645 0.0317163 0)
(0.132873 0.0292443 0)
(0.127161 0.0269878 0)
(0.121524 0.0249374 0)
(0.115974 0.023079 0)
(0.110521 0.0214005 0)
(0.105186 0.0198925 0)
(0.0999853 0.0185416 0)
(0.0949147 0.0173382 0)
(0.0899823 0.0162696 0)
(0.0851862 0.0153296 0)
(0.0805389 0.0145028 0)
(0.0760372 0.0137802 0)
(0.0716744 0.0131531 0)
(0.0674509 0.0126149 0)
(0.0633431 0.0121516 0)
(0.0593641 0.0117534 0)
(0.0555045 0.0114163 0)
(0.0517396 0.0111291 0)
(0.0480647 0.0108861 0)
(0.0444672 0.010681 0)
(0.040947 0.0105058 0)
(0.0374924 0.0103583 0)
(0.0340872 0.0102344 0)
(0.0307264 0.0101303 0)
(0.0274029 0.0100418 0)
(0.0241104 0.00996692 0)
(0.020845 0.00990317 0)
(0.0175982 0.00985111 0)
(0.0143663 0.00980861 0)
(0.0111458 0.00977432 0)
(0.00794183 0.00974923 0)
(0.00477106 0.00973276 0)
(0.00159336 0.00972513 0)
(0.0135168 0.380588 0)
(0.0403045 0.377511 0)
(0.0662831 0.371485 0)
(0.090885 0.362762 0)
(0.113751 0.351673 0)
(0.134596 0.338618 0)
(0.153213 0.324033 0)
(0.169501 0.308313 0)
(0.183446 0.291854 0)
(0.195111 0.275011 0)
(0.204604 0.258079 0)
(0.212068 0.241324 0)
(0.217673 0.224945 0)
(0.221599 0.209103 0)
(0.224032 0.193918 0)
(0.225155 0.179482 0)
(0.225139 0.165842 0)
(0.224145 0.153029 0)
(0.222319 0.141052 0)
(0.219794 0.129903 0)
(0.216685 0.119563 0)
(0.213094 0.110002 0)
(0.209108 0.101182 0)
(0.204797 0.0930603 0)
(0.200223 0.0855905 0)
(0.195433 0.0787272 0)
(0.190467 0.0724221 0)
(0.185355 0.0666326 0)
(0.180122 0.0613141 0)
(0.174789 0.0564265 0)
(0.169375 0.0519336 0)
(0.163894 0.0478027 0)
(0.158365 0.0440042 0)
(0.152802 0.0405121 0)
(0.147217 0.037303 0)
(0.141627 0.0343587 0)
(0.136053 0.03166 0)
(0.130507 0.0291927 0)
(0.125005 0.0269412 0)
(0.119566 0.0248943 0)
(0.114203 0.0230381 0)
(0.108925 0.0213608 0)
(0.103756 0.0198549 0)
(0.098708 0.018509 0)
(0.0937772 0.0173077 0)
(0.0889763 0.0162415 0)
(0.0843051 0.0153031 0)
(0.0797672 0.0144843 0)
(0.0753635 0.0137668 0)
(0.0710937 0.0131475 0)
(0.0669513 0.0126118 0)
(0.062916 0.0121513 0)
(0.0590008 0.0117631 0)
(0.0551946 0.0114287 0)
(0.0514755 0.0111451 0)
(0.0478417 0.010904 0)
(0.0442791 0.0107018 0)
(0.0407878 0.0105285 0)
(0.0373582 0.0103841 0)
(0.0339743 0.0102617 0)
(0.0306312 0.0101585 0)
(0.0273222 0.0100705 0)
(0.024042 0.00999649 0)