/*--------------------------------*- C++ -*----------------------------------*\
| =========                 |                                                 |
| \\      /  F ield         | OpenFOAM: The Open Source CFD Toolbox           |
|  \\    /   O peration     | Version:  v1606+                                |
|   \\  /    A nd           | Web:      www.OpenFOAM.com                      |
|    \\/     M anipulation  |                                                 |
\*---------------------------------------------------------------------------*/
FoamFile
{
    version     2.0;
    format      ascii;
    class       volScalarField;
    location    "1.39";
    object      Theta.particles;
}
// * * * * * * * * * * * * * * * * * * * * * * * * * * * * * * * * * * * * * //

dimensions      [0 2 -2 0 0 0 0];

internalField   nonuniform List<scalar> 
6000
(
0.000656231
0.00043503
0.000474059
0.000561001
0.000652878
0.00079835
0.000961808
0.000995503
0.00113484
0.00142546
0.00137218
0.00113012
0.00101482
0.000981115
0.000993018
0.00104805
0.00118475
0.00145246
0.0015163
0.00120061
0.00102985
0.000965262
0.000811067
0.000648696
0.000460478
0.000335146
0.000273765
0.000242151
0.000239306
0.000396073
0.00017267
0.000177254
0.000189296
0.00020882
0.00022789
0.000245569
0.000247825
0.000244156
0.000255306
0.000280961
0.000285633
0.000261114
0.00024288
0.00023715
0.000237468
0.000245027
0.000263346
0.000285655
0.000289872
0.000274546
0.000266602
0.000263471
0.000254348
0.000228967
0.000211078
0.000194758
0.000176059
0.00016773
0.000172482
0.000177291
0.00012544
0.000147358
0.000180587
0.000221562
0.000259558
0.000295228
0.000317736
0.00033319
0.00035746
0.000344804
0.000334852
0.000317309
0.000293822
0.000278715
0.000277655
0.000289035
0.000301297
0.000306646
0.000315935
0.000330896
0.000325021
0.000307009
0.000285896
0.000247625
0.00021728
0.000190745
0.000169929
0.000167221
0.000173454
0.000172696
0.000118138
0.00011566
0.000128764
0.000158933
0.000194889
0.000229385
0.000257157
0.000279009
0.000289245
0.000282898
0.000268008
0.000255195
0.000231637
0.000214962
0.000216811
0.000231833
0.000245236
0.000257615
0.000271421
0.000295913
0.00030124
0.000277307
0.000234615
0.000186191
0.000156479
0.000140447
0.000140876
0.000159553
0.000199009
0.000230455
0.000173775
0.000154327
0.000134796
0.000134589
0.00015154
0.000183927
0.000230616
0.000267585
0.000276099
0.000265842
0.000248484
0.000231623
0.000206928
0.000188474
0.000191817
0.000209207
0.000218382
0.000228411
0.000241407
0.000257438
0.000271319
0.000262587
0.000199737
0.000145447
0.000127543
0.0001377
0.000197728
0.000300796
0.000406788
0.000424732
0.000298415
0.000281086
0.00023083
0.000177521
0.000133167
0.000137485
0.000192042
0.000253353
0.00027094
0.00025596
0.000233873
0.000211542
0.000179388
0.000164741
0.000170058
0.000187137
0.000203243
0.000213426
0.000225242
0.000239633
0.000251195
0.00023514
0.000160427
0.000123447
0.000121958
0.000173953
0.00033717
0.000454744
0.000470029
0.000472758
0.00045532
0.000455136
0.000429556
0.000368513
0.000237664
0.000138152
0.000162295
0.000232014
0.000266105
0.000250803
0.000224382
0.000188105
0.000151553
0.000140887
0.000147971
0.000162701
0.000181696
0.000201893
0.000216741
0.000227263
0.000234494
0.00020135
0.000143708
0.00012738
0.000131726
0.000247687
0.000378039
0.000352151
0.000333455
0.000366618
0.000429308
0.000373959
0.000393675
0.000433306
0.000376034
0.000213121
0.000158492
0.000211336
0.000257403
0.000247212
0.000212442
0.000164139
0.000133698
0.000126743
0.000133462
0.000144821
0.000159734
0.000183812
0.000208389
0.000223305
0.000222993
0.000185867
0.000146811
0.000138977
0.000147521
0.000269526
0.000294849
0.000272056
0.000266753
0.000302966
0.000328558
0.000274962
0.000289826
0.00032531
0.00036746
0.000270754
0.000177015
0.000214457
0.000251259
0.00024339
0.000200319
0.000153917
0.000131213
0.000125907
0.000132403
0.000142732
0.000154839
0.000175828
0.000201563
0.000221895
0.000221453
0.000188953
0.000173151
0.000162169
0.000195196
0.000283887
0.000276776
0.000251968
0.000245802
0.000278531
0.000283683
0.00023605
0.000244311
0.000270366
0.000329528
0.000299299
0.000211298
0.000218734
0.000253024
0.00024067
0.00019466
0.00016857
0.00015969
0.000158901
0.000163572
0.00017065
0.000178304
0.000189598
0.000203538
0.00022167
0.000219513
0.000216085
0.000210232
0.000219395
0.000363205
0.000419011
0.00029305
0.000238121
0.000226768
0.000255179
0.000277199
0.000231195
0.000240694
0.00028048
0.000383363
0.000494017
0.000295915
0.000242637
0.000269369
0.000261825
0.000235139
0.000215045
0.000205635
0.000200946
0.000201334
0.000207343
0.000218209
0.0002324
0.000250474
0.00027332
0.000307959
0.000342784
0.00037264
0.00053
0.000722294
0.000618775
0.000370099
0.000243055
0.000213309
0.000247452
0.000292733
0.000234195
0.000250602
0.000326676
0.00048001
0.000728757
0.000623717
0.000389724
0.000389901
0.000423983
0.00044042
0.00044016
0.000434217
0.000415259
0.000399192
0.000388455
0.000389908
0.000430323
0.000515415
0.000739657
0.00103007
0.00107193
0.00100362
0.000820582
0.0007319
0.000622023
0.000454858
0.000276799
0.000200545
0.000266565
0.000308945
0.000218326
0.000248245
0.000351234
0.00052165
0.000710122
0.000822622
0.000917139
0.00102767
0.00105547
0.00099817
0.000917775
0.000877878
0.000897575
0.000947909
0.000982628
0.00100153
0.00105425
0.00116225
0.00113876
0.000887235
0.000633967
0.000521879
0.000539285
0.000640967
0.000622488
0.000372953
0.000266314
0.000169566
0.000277397
0.000298786
0.000175692
0.000201065
0.000278658
0.00042965
0.000790555
0.000810405
0.000774579
0.000740293
0.000632359
0.000497349
0.000404494
0.000372624
0.000391426
0.000457559
0.000572726
0.000696473
0.00073215
0.000710672
0.000564122
0.000404693
0.000321244
0.000325932
0.000419161
0.000506685
0.000510268
0.000352678
0.000180233
0.000121188
0.000261063
0.000275951
0.000127583
0.000135667
0.000173395
0.000391816
0.000757577
0.000751812
0.000662036
0.000516614
0.000400028
0.000299596
0.00022727
0.000188509
0.000197292
0.000248913
0.000360764
0.000483755
0.000519736
0.00050871
0.00044132
0.000318658
0.000252631
0.000269277
0.000364557
0.000454096
0.000447011
0.000363917
0.000139449
7.56712e-05
0.000228927
0.000255104
8.60745e-05
8.3943e-05
0.000134736
0.000412288
0.000699807
0.000736803
0.000661011
0.000508257
0.00036332
0.000252559
0.00017449
0.000154018
0.000168096
0.000214089
0.000347096
0.000479865
0.0005245
0.000509274
0.000415466
0.000281145
0.000191147
0.00021616
0.000302834
0.000402194
0.00040755
0.000344412
0.000130589
5.18439e-05
0.00017737
0.000229794
5.4864e-05
5.7161e-05
0.000131114
0.000460987
0.000670755
0.000718245
0.000644349
0.000479296
0.000327639
0.000220531
0.000143276
0.000134753
0.000156025
0.000212773
0.000359084
0.000492485
0.00053783
0.000509588
0.000395585
0.000247923
0.000167553
0.000157061
0.000238487
0.000347699
0.000372126
0.000314888
0.000127144
4.10163e-05
0.000131842
0.000198269
3.39869e-05
4.55945e-05
0.000144335
0.000450968
0.000645208
0.000678707
0.000588834
0.000429837
0.000290534
0.000190422
0.000128054
0.000125854
0.000152106
0.000218311
0.000373572
0.000500992
0.00054357
0.000507644
0.00037492
0.000195772
0.000139051
0.000129371
0.000179119
0.000288958
0.000323714
0.000275683
0.000131441
3.99282e-05
8.91701e-05
0.000161554
2.56239e-05
4.78588e-05
0.000155154
0.000410293
0.000582681
0.000610606
0.0005172
0.00037136
0.000249169
0.000159807
0.000118523
0.000122877
0.000151892
0.000226262
0.000393078
0.000512933
0.000548424
0.000498125
0.000346593
0.000170537
0.000114245
0.000112726
0.00015229
0.000233012
0.000265061
0.000230446
0.000141677
5.15885e-05
5.47737e-05
0.000138952
3.06725e-05
6.66146e-05
0.000160169
0.000359145
0.000501132
0.000525309
0.000439875
0.000311032
0.000209419
0.000130951
0.000114927
0.000124386
0.000156587
0.000237705
0.000413378
0.000527024
0.000552835
0.000473775
0.000304534
0.000147587
9.38172e-05
9.56191e-05
0.00013198
0.000168507
0.000195047
0.000195856
0.000154605
8.2054e-05
4.3684e-05
0.000144078
5.69821e-05
8.22082e-05
0.000148853
0.000303321
0.000413715
0.000434271
0.000362448
0.000257149
0.000170858
0.000121325
0.000115299
0.000127841
0.000163301
0.000251543
0.000436968
0.000542594
0.000544484
0.000444805
0.000235749
0.000114656
7.28587e-05
8.32019e-05
0.000112792
0.000139862
0.000165466
0.000182638
0.000167097
0.00012125
8.02202e-05
0.0001407
8.75746e-05
0.000122488
0.000149555
0.000230505
0.000317402
0.00034522
0.000291211
0.000207294
0.000136125
0.000116649
0.000116967
0.000130733
0.000171274
0.000282876
0.000460252
0.000554324
0.00053471
0.000401481
0.000177242
8.27857e-05
6.11022e-05
7.64306e-05
9.89881e-05
0.000119528
0.000143185
0.000165359
0.000166773
0.000139538
0.000134992
0.000100233
0.000100236
0.00014087
0.000166147
0.000172224
0.000222776
0.000263973
0.000226015
0.000152627
0.000124209
0.00011443
0.000118301
0.00013317
0.000177398
0.000301487
0.000482184
0.000561929
0.000519062
0.000327852
0.000132061
6.66268e-05
5.99854e-05
7.27961e-05
8.90403e-05
0.000103619
0.000121694
0.000142381
0.000154813
0.000140419
0.000127792
8.27349e-05
0.000108845
0.000139858
0.000156966
0.000160533
0.000154923
0.000170314
0.000157255
0.000133672
0.000118282
0.000113325
0.000116888
0.000132275
0.000179183
0.000309492
0.000493504
0.000561106
0.000489762
0.000241897
0.000102959
6.17038e-05
5.99173e-05
6.83225e-05
7.94815e-05
8.96872e-05
0.000102287
0.000117791
0.000132211
0.000132399
0.000124022
7.78141e-05
0.000112729
0.000137342
0.000143128
0.000135152
0.000130095
0.000136438
0.000130977
0.000122007
0.000113719
0.000109526
0.000111148
0.000129083
0.000177284
0.000298768
0.000492575
0.000544777
0.000433707
0.000195013
9.19853e-05
6.43148e-05
6.55487e-05
6.97932e-05
7.3265e-05
7.81781e-05
8.66183e-05
9.92887e-05
0.000113425
0.00012178
0.000122402
7.87554e-05
0.000111011
0.000128036
0.000120538
0.000108673
0.000110367
0.000126851
0.000122107
0.000112294
0.000104972
0.000102179
0.000105635
0.000123519
0.000171526
0.000293066
0.000478459
0.0005083
0.000336131
0.000159471
8.51997e-05
7.49074e-05
7.60299e-05
7.86863e-05
8.05729e-05
8.0896e-05
8.0611e-05
8.67959e-05
0.000100976
0.000112905
0.000118393
8.21417e-05
0.000103308
0.000111504
0.000101639
0.000101545
0.000117199
0.000131195
0.000126232
0.000110806
9.98939e-05
9.73026e-05
0.000102468
0.000118308
0.000165049
0.000279402
0.000436064
0.000436455
0.000283914
0.000142536
9.09742e-05
8.93601e-05
8.89849e-05
8.94597e-05
8.97254e-05
8.86417e-05
8.71147e-05
8.70253e-05
9.09959e-05
0.000105756
0.000116702
8.83764e-05
9.39746e-05
0.000102683
0.000112224
0.00012362
0.000140956
0.000153113
0.000149091
0.000133889
0.000118187
0.000104167
0.000105208
0.000118555
0.000160568
0.000261037
0.000370328
0.000355517
0.000244036
0.000139404
0.000110534
0.000108838
0.000106383
0.000103765
0.000102396
9.89064e-05
9.46787e-05
9.15101e-05
9.17081e-05
0.000100645
0.000120318
0.000100907
0.000100768
0.000113868
0.000132392
0.00014575
0.000159197
0.000161231
0.000156815
0.000148366
0.000139982
0.000131211
0.000120882
0.000124996
0.000163508
0.000246944
0.000338114
0.000321199
0.000230795
0.000151076
0.000139895
0.000131654
0.000126342
0.00012245
0.000125271
0.000117396
0.000105474
9.64226e-05
9.11489e-05
9.39337e-05
0.000118862
0.000107512
0.000107057
0.000132548
0.000171033
0.000189032
0.000170868
0.000165955
0.000160015
0.00015493
0.000150642
0.000148569
0.000147004
0.000146662
0.000176444
0.000248378
0.000293254
0.000285211
0.000230185
0.000184015
0.000161005
0.00014995
0.00014272
0.000143488
0.000168918
0.000157299
0.000125007
0.000104056
9.09075e-05
8.79785e-05
0.00011106
0.000112444
0.000123802
0.000192791
0.000392634
0.000953506
0.000419446
0.000225551
0.000193382
0.000177197
0.000161215
0.000155687
0.000157289
0.000167408
0.000183152
0.000233298
0.000294511
0.000268819
0.00022994
0.000191047
0.000161705
0.000147727
0.000155355
0.000266542
0.000890386
0.000433766
0.000155348
0.000116893
9.21155e-05
8.28095e-05
0.000102371
0.000116974
0.000144434
0.000321457
0.00158514
0.00184625
0.0019304
0.00139752
0.00104597
0.000829975
0.000467006
0.000193683
0.000155198
0.000160097
0.00017985
0.000268208
0.000956441
0.000673383
0.000357588
0.000263248
0.000248849
0.000344864
0.000897988
0.00220178
0.00211384
0.00143616
0.000360814
0.000135964
9.67385e-05
7.62539e-05
9.2169e-05
0.000108155
0.000128868
0.000842965
0.000796803
0.000827055
0.00124237
0.00161081
0.00177704
0.00196975
0.00215801
0.00153448
0.000687644
0.000319105
0.000406394
0.00170855
0.00210702
0.00229895
0.0019509
0.00175748
0.0019568
0.00244929
0.00235598
0.00155188
0.000864056
0.000862247
0.000863776
0.000126299
9.37345e-05
7.10123e-05
8.0953e-05
7.96551e-05
0.000125519
0.000383951
0.000296912
0.000581393
0.000834053
0.000895282
0.000931351
0.00095544
0.00110338
0.00141969
0.00182441
0.00160008
0.00181426
0.00112575
0.000851645
0.00126029
0.00161829
0.00171112
0.00161998
0.00127714
0.000789802
0.000659135
0.000646093
0.00059292
0.000623222
0.000316929
6.85289e-05
6.44226e-05
7.41029e-05
5.28547e-05
0.00010037
0.000137156
0.000218407
0.000479515
0.000770191
0.000822959
0.000783342
0.000735992
0.000623535
0.000520145
0.000455175
0.000430891
0.000353409
0.000303346
0.000458668
0.000579667
0.000620782
0.000622687
0.00060856
0.000601191
0.000608756
0.000620032
0.000610815
0.0005493
0.000510696
0.000602574
7.42614e-05
5.31815e-05
7.44558e-05
5.2755e-05
8.1749e-05
0.000130136
0.000188752
0.000421964
0.000696907
0.000769514
0.000754308
0.000707428
0.000597812
0.000485372
0.000373453
0.000259234
0.000193589
0.000234507
0.000374758
0.000501753
0.000554955
0.000569051
0.000578972
0.000593779
0.000607381
0.000609003
0.000589342
0.000533286
0.000438476
0.000394816
0.000318815
5.07347e-05
0.000150045
6.96139e-05
0.000150376
0.000126331
0.000170843
0.000381566
0.00060844
0.000687837
0.00068508
0.000631274
0.00055043
0.000467121
0.000372432
0.000252443
0.00018223
0.000209069
0.000333749
0.000465207
0.000527463
0.00055491
0.000570156
0.000583903
0.000592719
0.000589356
0.000565015
0.000513165
0.00043168
0.000299685
0.000457937
7.33291e-05
0.000276097
0.000149078
0.0001885
8.34932e-05
0.000162602
0.00035485
0.000538122
0.000619931
0.000634507
0.000573725
0.000505856
0.000437458
0.000353319
0.000245749
0.000185018
0.00020103
0.000303175
0.000425793
0.000499445
0.000532218
0.000552319
0.000565699
0.000570182
0.000564836
0.000543106
0.000496167
0.000423642
0.000263255
0.000129073
0.000147756
0.000251068
0.000278749
0.000103351
6.31779e-05
0.00015007
0.000326282
0.000485228
0.000556159
0.000570925
0.000523257
0.000463928
0.000411231
0.000334819
0.00024169
0.000187927
0.000199522
0.000291922
0.000395646
0.00046594
0.000502973
0.000524846
0.000541094
0.000545139
0.000537829
0.000516646
0.00047449
0.000407065
0.000255522
7.26825e-05
5.24005e-05
0.000224259
0.000274992
5.25511e-05
5.49656e-05
0.000131388
0.000277386
0.000408663
0.000470626
0.000482398
0.000463424
0.000419888
0.000374488
0.000306918
0.000232186
0.000186105
0.000202588
0.000288812
0.000378146
0.000435833
0.000470157
0.000491654
0.000507952
0.000514088
0.000506992
0.00048695
0.000449041
0.000385222
0.000233329
6.64052e-05
2.93767e-05
0.000182076
0.000141571
3.69301e-05
5.26192e-05
0.000116073
0.000237627
0.000333543
0.000388109
0.000408795
0.000397877
0.00037976
0.000346682
0.000292835
0.000229736
0.000172754
0.000201984
0.000282753
0.000359926
0.000412406
0.00044367
0.000462879
0.000473749
0.00047437
0.0004683
0.000450984
0.000416997
0.000358848
0.000217093
6.44696e-05
2.46076e-05
0.00013452
9.33505e-05
3.73683e-05
5.38178e-05
0.000107429
0.000200132
0.000282747
0.00032593
0.000347402
0.000351452
0.00034036
0.000316885
0.000273369
0.000217744
0.000173097
0.000206864
0.000280333
0.000341441
0.00038479
0.000413173
0.00043093
0.000439763
0.000437783
0.000427702
0.000408976
0.000379489
0.000327915
0.000197569
6.47339e-05
2.30624e-05
9.86069e-05
7.0754e-05
4.37619e-05
6.01267e-05
0.000103185
0.000155192
0.00023066
0.000268285
0.000291107
0.000302632
0.000300824
0.000288097
0.000256852
0.000196639
0.000170321
0.000208704
0.000273968
0.000323361
0.000359091
0.000383396
0.000398446
0.000404504
0.000399403
0.000385877
0.000365415
0.000338288
0.000292542
0.000177931
6.81028e-05
2.14236e-05
6.68905e-05
6.44566e-05
5.42009e-05
7.15003e-05
0.000104162
0.00014099
0.000167818
0.000210927
0.000237148
0.000255455
0.000263259
0.000258353
0.000228575
0.000173264
0.000167415
0.000209837
0.000264669
0.000304083
0.000333319
0.000353761
0.000365854
0.000369717
0.000361324
0.00034396
0.00032082
0.000294789
0.000254728
0.000156048
7.17017e-05
2.06825e-05
4.34679e-05
6.96653e-05
6.79653e-05
8.52298e-05
0.000108969
0.000131818
0.00014726
0.000158219
0.000172548
0.000201665
0.000218758
0.000218477
0.000177179
0.000163743
0.000163299
0.000207241
0.000252485
0.00028357
0.000307623
0.000324498
0.000333739
0.000335737
0.00032437
0.000303165
0.00027705
0.000249892
0.00021395
0.00014028
7.39679e-05
2.54472e-05
2.93495e-05
8.06316e-05
8.22594e-05
9.57389e-05
0.000110743
0.000123675
0.000132472
0.000140887
0.00015212
0.000162233
0.000170283
0.00016915
0.00015983
0.000152585
0.000156968
0.000195432
0.000234578
0.000260373
0.000279677
0.000293788
0.000300775
0.000301237
0.00028725
0.000261951
0.00023128
0.000200698
0.00016439
0.000119757
7.38062e-05
4.5259e-05
2.60836e-05
8.98498e-05
9.12572e-05
9.9939e-05
0.000107004
0.000114771
0.000122967
0.000132649
0.000140541
0.000146645
0.000152125
0.000152488
0.000144253
0.000137961
0.000147753
0.000169681
0.000206856
0.000229876
0.000246156
0.000257692
0.000262727
0.00026211
0.000245788
0.000215533
0.000175659
0.000144458
0.000127571
0.000105899
7.82332e-05
6.22775e-05
3.47186e-05
9.53035e-05
9.49209e-05
9.79294e-05
0.000102197
0.000108909
0.000118912
0.000136134
0.000153703
0.000146321
0.000125137
0.00011481
0.000116423
0.000126239
0.000136867
0.000154941
0.000168551
0.000186236
0.000202591
0.000212661
0.000216894
0.000213541
0.000191132
0.000162902
0.000140545
0.000123173
0.000111693
0.000100804
8.55407e-05
7.17419e-05
5.31986e-05
9.92166e-05
9.5124e-05
9.76172e-05
0.000105705
0.000116169
0.000138151
0.000150426
0.000146882
0.000139803
0.000122209
0.000104402
9.234e-05
0.000101769
0.000124918
0.00014476
0.000156674
0.000166506
0.0001723
0.000175617
0.000176443
0.000172828
0.000160782
0.000142961
0.000125207
0.000113343
0.000107874
0.000103562
9.11549e-05
7.83159e-05
7.13679e-05
0.000103129
0.000104941
0.000110956
0.000126444
0.000142134
0.000145027
0.000153391
0.000148397
0.000127056
0.000114829
0.000111762
0.000121633
0.0001048
0.000111163
0.000135717
0.000150919
0.00015853
0.000162369
0.000163204
0.000161717
0.000156728
0.000145905
0.000131815
0.000119385
0.000112153
0.000108846
0.000104818
9.74836e-05
8.93808e-05
8.73514e-05
0.000117574
0.000127948
0.00013338
0.000143599
0.000151026
0.000157851
0.000144134
0.00012903
0.000125514
0.000120915
0.000116419
0.000115918
0.000148073
0.000132336
0.000128778
0.000146746
0.000153622
0.00015532
0.000154333
0.000151325
0.000146052
0.000137704
0.000128236
0.000120218
0.000114476
0.000111255
0.000110801
0.000104871
9.92677e-05
0.000104406
0.000139217
0.000142393
0.000152128
0.000156949
0.000146887
0.000142364
0.000148441
0.000141072
0.000141147
0.000142057
0.000140591
0.000137674
0.000138362
0.000163347
0.000153487
0.000144237
0.0001516
0.000150849
0.000148776
0.000146187
0.000142591
0.000136943
0.000130282
0.000125237
0.000126198
0.000123662
0.000118613
0.000112775
0.000109605
0.000118151
0.00015574
0.000152661
0.000147433
0.000143339
0.000153474
0.000159543
0.000158904
0.000157941
0.000159264
0.000160887
0.000160915
0.000160037
0.000159928
0.000163993
0.000177065
0.000165325
0.000154389
0.0001534
0.00015141
0.000148986
0.000145533
0.000144183
0.000145293
0.000142397
0.000137769
0.000132335
0.000126373
0.000121001
0.000118781
0.000128351
0.000161001
0.000146765
0.000142671
0.000162367
0.000169831
0.000173047
0.000172828
0.000174119
0.000176604
0.000178354
0.000177469
0.000175327
0.00017482
0.000178563
0.000188032
0.000192593
0.000176281
0.000165103
0.000165509
0.000166465
0.000166075
0.000163365
0.000157778
0.000151777
0.000146038
0.000140381
0.000134715
0.000129765
0.000127696
0.000138371
0.000166077
0.000150366
0.000163391
0.000177171
0.000183033
0.000184349
0.000185367
0.000188129
0.000191679
0.000193055
0.000189689
0.000184243
0.000180887
0.000182773
0.000191334
0.000204087
0.000201306
0.000190835
0.000184163
0.000180036
0.000175231
0.000169641
0.000163863
0.000158179
0.000152942
0.000148006
0.000143093
0.000138777
0.000137505
0.000150451
0.000168067
0.000171859
0.000178706
0.000184953
0.00019236
0.000194322
0.00019135
0.000190565
0.000190484
0.000189433
0.000187822
0.000182821
0.000179007
0.00018016
0.000186964
0.000198472
0.000201371
0.000193732
0.000186707
0.000181825
0.00017733
0.00017263
0.000167714
0.000162918
0.00015857
0.000154691
0.000150867
0.000147412
0.000147061
0.000160706
0.000179961
0.000180592
0.000182957
0.000193152
0.000203557
0.000193418
0.000179909
0.000174039
0.000178153
0.000178413
0.000176297
0.000170771
0.000170197
0.000173476
0.000180824
0.000190584
0.000195174
0.000191275
0.000186098
0.000182028
0.000178271
0.00017441
0.000170421
0.000166529
0.000163055
0.000160178
0.000157557
0.000155065
0.00015534
0.000167167
0.0001742
0.000175143
0.000182993
0.000197694
0.000185066
0.000170735
0.000174278
0.000173465
0.00016288
0.000158654
0.000159505
0.00015836
0.000160562
0.00016651
0.000175375
0.000184288
0.000188758
0.000187583
0.000184554
0.000181596
0.000178692
0.000175666
0.00017251
0.000169405
0.000166652
0.000164547
0.000162982
0.000161484
0.000162314
0.00017182
0.000157442
0.000163787
0.000175636
0.000163307
0.000193006
0.000189688
0.000160851
0.000154192
0.000150076
0.000156711
0.000148105
0.000150104
0.000154446
0.000161828
0.000171004
0.000179153
0.000183546
0.000184088
0.000182799
0.000181001
0.000178966
0.000176711
0.000174276
0.000171822
0.000169623
0.000168038
0.000167222
0.000166625
0.000167803
0.000175466
0.000142118
0.00014573
0.000167344
0.000190726
0.000185362
0.000174563
0.000166507
0.000154102
0.000152315
0.000146827
0.000143614
0.000146079
0.00015161
0.000159454
0.000168089
0.000175315
0.000179678
0.000181306
0.000181321
0.000180528
0.00017928
0.000177677
0.000175891
0.000173974
0.000172195
0.000170931
0.000170536
0.000170716
0.000171887
0.000178352
0.000130138
0.000141559
0.000179787
0.000194708
0.000170506
0.000178424
0.000171319
0.00015532
0.000147935
0.000139194
0.000140918
0.000145004
0.000151271
0.00015881
0.000166472
0.000172815
0.000177106
0.000179429
0.000180326
0.000180331
0.000179743
0.000178751
0.000177404
0.000175985
0.000174543
0.000173481
0.000173257
0.000173947
0.000175447
0.000180898
0.000127718
0.000190351
0.00017431
0.000170751
0.000174347
0.000180393
0.000170801
0.000151518
0.000138268
0.000138194
0.000141363
0.000146226
0.000152441
0.000159321
0.000165999
0.000171602
0.000175767
0.000178464
0.000179937
0.000180491
0.000180418
0.000179935
0.000179053
0.000177908
0.000176776
0.000175858
0.000175658
0.000176554
0.000178584
0.000183291
0.000144654
0.00019205
0.000214539
0.000177376
0.000179873
0.000181037
0.000167494
0.000142811
0.000139498
0.000140591
0.000144137
0.000149045
0.000154731
0.000160751
0.000166551
0.000171619
0.000175606
0.000178432
0.000180182
0.000181082
0.000181343
0.000181136
0.000180659
0.000179854
0.000178938
0.000178162
0.000177923
0.00017883
0.000181207
0.000185846
0.000213681
0.000194113
0.000193906
0.000179716
0.000190791
0.000186023
0.000155974
0.000145291
0.000144223
0.000145334
0.000148446
0.00015273
0.000157702
0.000162976
0.000168104
0.000172711
0.000176499
0.000179288
0.000181117
0.000182135
0.000182542
0.000182504
0.000182176
0.000181714
0.000181055
0.000180419
0.000180139
0.000180967
0.000183713
0.000188839
0.000536406
0.0001809
0.000170792
0.000172944
0.000187755
0.000179052
0.000155471
0.000150607
0.000149753
0.000150667
0.000153192
0.000156808
0.000161147
0.000165872
0.00017061
0.000174956
0.000178532
0.000181131
0.000182773
0.00018365
0.000184002
0.000184019
0.000183814
0.000183457
0.000183048
0.00018262
0.000182423
0.000183047
0.000185966
0.0001915
0.000566215
0.000291637
0.000180764
0.000168639
0.000168749
0.00016937
0.000158459
0.0001557
0.000155188
0.000155933
0.000157907
0.000160949
0.000164849
0.000169333
0.000173999
0.000178309
0.00018171
0.000183928
0.000185105
0.000185573
0.000185664
0.000185572
0.00018539
0.000185135
0.000184815
0.000184516
0.000184457
0.000185075
0.000187864
0.000193016
0.000421832
0.000278374
0.000203639
0.000156391
0.000158109
0.00016571
0.000162839
0.000161284
0.000160648
0.000160874
0.000162234
0.000164832
0.000168579
0.000173239
0.000178304
0.000182934
0.000186182
0.000187684
0.000187983
0.00018772
0.000187364
0.000187074
0.000186835
0.000186525
0.000186153
0.000185853
0.000185798
0.000186615
0.000189272
0.000193389
0.000367823
0.000226772
0.000190135
0.000151522
0.000154019
0.000169728
0.000170057
0.000167928
0.000166046
0.000165178
0.000165785
0.00016808
0.000172035
0.000177469
0.000183694
0.000189269
0.000192286
0.00019223
0.000190992
0.000189669
0.000188755
0.000188278
0.000187935
0.000187519
0.000187112
0.000186825
0.000186683
0.000187217
0.000189481
0.000192571
0.000376615
0.000238008
0.000192583
0.000181757
0.000181004
0.000183829
0.000180121
0.000174892
0.000170615
0.000168255
0.000168063
0.000170242
0.000174867
0.000181878
0.000190567
0.00019814
0.000200078
0.000196444
0.000192711
0.000190278
0.000189138
0.000188785
0.000188502
0.000188149
0.000187842
0.000187506
0.000187185
0.000187146
0.000188339
0.000190297
0.00035055
0.000241875
0.000238676
0.000229976
0.000209572
0.00019886
0.000189049
0.000180059
0.000173268
0.000169274
0.00016844
0.000170727
0.000176417
0.000186193
0.000199337
0.000209619
0.000206202
0.00019634
0.000190239
0.000187613
0.000187252
0.00018786
0.000188325
0.000188472
0.000188362
0.000187912
0.000187232
0.000186577
0.000186544
0.000187227
0.000307327
0.000255746
0.000263117
0.000248596
0.000226123
0.000207491
0.0001933
0.000181343
0.000172712
0.000167742
0.000166406
0.000168807
0.000176056
0.000189321
0.000208734
0.000209517
0.000194415
0.000183764
0.000178467
0.000178817
0.000181749
0.000185111
0.000187673
0.000188973
0.000189141
0.00018839
0.000187032
0.000185496
0.00018436
0.000183903
0.000294084
0.000275286
0.000267045
0.000253117
0.000225073
0.000205732
0.00019091
0.000178203
0.000168713
0.000163195
0.0001613
0.000163743
0.000172787
0.00018914
0.0002065
0.000182163
0.000168985
0.000158827
0.000160061
0.000167847
0.000176778
0.000184251
0.000189158
0.000191501
0.000191466
0.000189621
0.000186901
0.000183967
0.000181549
0.000180164
0.000272953
0.000270619
0.000262976
0.000242198
0.000206243
0.000192722
0.000182152
0.000170918
0.000161713
0.000155907
0.000153507
0.000156313
0.000166092
0.000185961
0.000184735
0.000176553
0.000152182
0.000147646
0.000155454
0.000168976
0.000180873
0.000190336
0.000196813
0.000199538
0.000197833
0.000192582
0.000186911
0.000181707
0.000177718
0.000175565
0.000251858
0.000267453
0.000249725
0.000202271
0.000181379
0.000174648
0.000171569
0.00016229
0.000153216
0.000146949
0.000144162
0.000146893
0.000155468
0.00018937
0.000176781
0.00017221
0.000156111
0.00015299
0.000166044
0.000179896
0.000192438
0.000203963
0.000212118
0.000214273
0.000210071
0.000198431
0.000186848
0.000178205
0.000172221
0.000169421
0.000230398
0.000264558
0.000205743
0.000180044
0.00017039
0.000163513
0.000164832
0.000154876
0.000144393
0.00013736
0.000134891
0.000139148
0.000159417
0.000181862
0.000191195
0.000164455
0.000161275
0.000166905
0.000178341
0.000191684
0.000206158
0.000219014
0.000227407
0.00023009
0.000222334
0.00020325
0.00018503
0.00017333
0.000164358
0.000160706
0.000177163
0.000259303
0.000204877
0.000171009
0.000159811
0.000162972
0.000163874
0.000148418
0.000135104
0.000127165
0.000125772
0.000133296
0.000179441
0.000189292
0.000178747
0.000164558
0.000166735
0.000175844
0.000186401
0.00020014
0.000212875
0.000211937
0.000198145
0.000190077
0.000190519
0.000190756
0.000174151
0.000165538
0.000153911
0.000148164
0.000154295
0.000211698
0.00020546
0.00016252
0.000151136
0.000158833
0.000158268
0.00014002
0.000124903
0.00011697
0.000116983
0.000126036
0.000169747
0.000214778
0.000166008
0.000161893
0.000169203
0.000178533
0.000189873
0.000199022
0.000183673
0.000168097
0.000173613
0.000182325
0.000176286
0.000164833
0.000137581
0.000155688
0.00013937
0.000131836
0.000161838
0.000179546
0.000191093
0.000141911
0.000140805
0.000151088
0.000163815
0.000131693
0.000115452
0.000108759
0.000111455
0.000125332
0.000185086
0.000187037
0.000161672
0.000160995
0.000169114
0.000177808
0.000183402
0.000165063
0.000156788
0.000159336
0.00016226
0.000157069
0.000147899
0.000143686
0.000127672
0.000109916
0.000125789
0.000115357
0.000188898
0.000166867
0.000158138
0.000129732
0.000130701
0.000145738
0.000160784
0.000126954
0.000108745
0.000103527
0.000108531
0.000123404
0.000193903
0.000172923
0.000159001
0.000161144
0.000167786
0.00017047
0.000158359
0.000148246
0.000152169
0.000155842
0.00015246
0.000141766
0.000129937
0.000110833
0.000122159
0.000129154
0.000103564
0.000106126
0.000207748
0.000169228
0.000134152
0.000118924
0.000119759
0.000146779
0.000158146
0.000123888
0.000104811
9.98336e-05
0.000104799
0.000119079
0.000168386
0.000170838
0.000162136
0.000164115
0.00016274
0.000152977
0.000134681
0.000150112
0.00015208
0.000151435
0.000147116
0.000137831
0.000125016
0.000139907
0.000194125
0.000168344
9.96418e-05
8.50868e-05
0.000192024
0.000160388
0.000121719
0.000110556
0.000110852
0.000144561
0.00016059
0.000124442
0.00010313
9.67932e-05
0.00010094
0.00011291
0.000142101
0.0001767
0.0001676
0.000163065
0.000152247
0.000133103
0.000134833
0.000151593
0.000152348
0.00014986
0.000146429
0.000144958
0.000160394
0.000183063
0.000178837
0.000150048
0.000138672
0.000112985
0.000178445
0.000143007
0.000113963
0.000103805
0.000103511
0.000133496
0.000158451
0.000125211
0.000102047
9.46773e-05
9.82506e-05
0.000106346
0.000136889
0.000179293
0.000168667
0.000156848
0.000138737
0.000127459
0.000142791
0.000144552
0.000145058
0.000147247
0.000151926
0.00015888