/*--------------------------------*- C++ -*----------------------------------*\
| =========                 |                                                 |
| \\      /  F ield         | OpenFOAM: The Open Source CFD Toolbox           |
|  \\    /   O peration     | Version:  v1606+                                |
|   \\  /    A nd           | Web:      www.OpenFOAM.com                      |
|    \\/     M anipulation  |                                                 |
\*---------------------------------------------------------------------------*/
FoamFile
{
    version     2.0;
    format      ascii;
    class       volScalarField;
    location    "0.9";
    object      dgdt;
}
// * * * * * * * * * * * * * * * * * * * * * * * * * * * * * * * * * * * * * //

dimensions      [0 0 -1 0 0 0 0];

internalField   nonuniform List<scalar> 
6000
(
-18.3222
-19.5315
-19.7781
-19.8386
-19.8918
-19.8274
-19.6974
-19.541
-19.3319
-19.213
-19.1453
-19.3249
-19.4312
-19.4658
-19.4676
-19.4726
-19.4672
-19.4429
-19.3582
-19.1855
-19.2077
-19.3556
-19.4859
-19.6824
-19.8152
-19.9066
-19.9153
-19.8348
-19.586
-17.9447
-2.1356
-1.6622
-1.74691
-1.84228
-1.94868
-2.05226
-2.14966
-2.10558
-1.93406
-1.87062
-1.8962
-2.01752
-2.14804
-2.23014
-2.2697
-2.28694
-2.26719
-2.18656
-2.06104
-1.918
-1.88118
-1.93826
-2.07618
-2.19563
-2.10961
-1.99343
-1.88288
-1.7642
-1.66791
-2.38869
-0.0621297
-0.0372119
-0.0498226
-0.0660021
-0.098116
-0.145314
-0.180159
-0.262284
-0.240225
-0.223962
-0.243987
-0.259813
-0.244392
-0.23458
-0.233928
-0.245564
-0.264122
-0.270561
-0.279009
-0.271122
-0.235597
-0.244816
-0.26594
-0.205982
-0.166697
-0.113617
-0.0777444
-0.0547699
-0.0446547
-0.0963749
0.0403438
0.0427039
0.0403014
0.0337291
0.0284037
0.0225944
0.0182648
-0.015616
-0.0394257
-0.0370381
-0.0440757
-0.0457735
-0.0221315
0.000909786
0.0100998
0.00813271
-0.00323827
-0.0299583
-0.0573156
-0.0551424
-0.0430631
-0.0430711
-0.0208019
0.0154859
0.0210052
0.0273938
0.03285
0.0402924
0.0433225
0.0386857
0.0485716
0.0507461
0.0487407
0.0430847
0.0399906
0.0399377
0.0415507
0.0250275
0.0094375
0.0111981
0.00842023
0.0139032
0.0328874
0.0379297
0.0380258
0.0374998
0.036931
0.0312312
0.0129677
0.00249472
0.0113197
0.011148
0.0247874
0.0423229
0.0410021
0.040766
0.0434829
0.0499198
0.0528928
0.0494412
0.0522948
0.0544599
0.0530428
0.0474729
0.0418184
0.0414823
0.0419522
0.0288882
0.0256055
0.0311499
0.0328347
0.0366867
0.0380252
0.0376913
0.0372901
0.0367422
0.0361566
0.0355154
0.0339816
0.0310045
0.0342433
0.0276864
0.0270998
0.0430475
0.0430422
0.0423767
0.0478109
0.0553646
0.0576037
0.0536116
0.0530944
0.0545629
0.0546538
0.0517014
0.0452293
0.0411415
0.0400786
0.0341916
0.0359147
0.0371669
0.0354479
0.0367506
0.0386419
0.03908
0.038954
0.0381251
0.0366341
0.0350001
0.0352264
0.0323389
0.0349383
0.034183
0.0321158
0.0407369
0.0426676
0.0445714
0.0532277
0.0585407
0.0592026
0.0566985
0.0511389
0.0520076
0.0524429
0.052297
0.04913
0.0425765
0.03974
0.0394141
0.0417067
0.0409647
0.0378766
0.0388235
0.040095
0.0413662
0.041858
0.0407821
0.0382667
0.036261
0.0352635
0.0334132
0.0317626
0.0353331
0.0370034
0.0398069
0.0427294
0.0491869
0.0568994
0.0587059
0.0592338
0.0579858
0.0478488
0.0477742
0.047886
0.0481512
0.0486123
0.0445423
0.0410778
0.0429974
0.045377
0.0454948
0.0440459
0.0431161
0.044192
0.0455219
0.0461269
0.0447808
0.0409396
0.0368216
0.0357866
0.0340244
0.0324822
0.035294
0.0385265
0.040392
0.0452062
0.0535998
0.0566605
0.0577178
0.0586619
0.0584977
0.043764
0.0422255
0.041664
0.0416056
0.0430192
0.0423095
0.0410501
0.0454963
0.0494174
0.0512322
0.0504275
0.0498721
0.0523342
0.0539586
0.0519466
0.0493699
0.044178
0.0378583
0.0355241
0.0344198
0.0343588
0.0364883
0.0391661
0.0414828
0.0476525
0.0539588
0.05468
0.0558499
0.0573704
0.0583435
0.0391115
0.0353638
0.0338081
0.033008
0.03522
0.0362344
0.0382397
0.0458492
0.05103
0.0528137
0.0521686
0.051597
0.0528218
0.0550293
0.0573069
0.0569537
0.0488109
0.0396432
0.036354
0.0365473
0.0383266
0.0394237
0.039853
0.0407433
0.0457162
0.0507789
0.0515409
0.0523784
0.0544554
0.0568913
0.0366131
0.0282572
0.0256801
0.0226793
0.0255977
0.0286147
0.0337951
0.0416694
0.0444208
0.0427771
0.0377921
0.0324959
0.0310873
0.0320927
0.0357189
0.0460971
0.053554
0.0448173
0.0398127
0.0406592
0.0427286
0.0426472
0.039633
0.036255
0.0377702
0.0435527
0.0453312
0.0462769
0.049249
0.0541381
0.0344559
0.0256985
0.024973
0.0206598
0.018597
0.0212181
0.0267799
0.029321
0.0277746
0.0205458
0.0142152
0.00898424
0.0080895
0.0100821
0.0111431
0.0130921
0.0230626
0.0348272
0.0376087
0.039527
0.0412783
0.0401982
0.0348252
0.0274791
0.0247187
0.030536
0.0354851
0.0376501
0.041519
0.0518399
0.0324175
0.0257782
0.0245445
0.0216281
0.0177838
0.0192962
0.0193729
0.0155249
0.0111439
0.00855729
0.00739215
0.00513659
0.0032678
0.00128315
-0.00269323
-0.010128
-0.0233435
-0.0278858
-0.0136594
0.000435714
0.0104226
0.0168441
0.0179502
0.0137249
0.00994914
0.0167515
0.0253496
0.0307414
0.0329276
0.0447745
0.0280471
0.0244626
0.0211848
0.0185847
0.0160772
0.0165924
0.0122197
0.00995917
0.00886811
0.00791208
0.00645722
0.00394365
0.000480031
-0.00500846
-0.0139943
-0.0288338
-0.0538317
-0.0882642
-0.0950047
-0.0715999
-0.0459694
-0.025504
-0.0113018
-0.00270871
0.00243174
0.01032
0.0188643
0.0260101
0.0276774
0.0396599
0.0176156
0.0154131
0.0125042
0.00862419
0.000594743
-0.000526296
0.00534364
0.0074347
0.00816181
0.00751764
0.00550849
0.00273696
-0.00142046
-0.00877696
-0.0209996
-0.0402938
-0.0713793
-0.107075
-0.125312
-0.110385
-0.0828557
-0.0585046
-0.038356
-0.0199097
-0.00260159
0.00972241
0.0179476
0.0220268
0.0258741
0.0358605
-0.00424917
-0.0105441
-0.0146975
-0.0188592
-0.02141
-0.0114469
-0.000512206
0.00469572
0.00690689
0.00683963
0.00520166
0.00298365
-0.000998122
-0.00886675
-0.0217717
-0.0409911
-0.0664743
-0.0772291
-0.0899746
-0.0993888
-0.0849996
-0.0663932
-0.0487531
-0.0318937
-0.0123599
0.00765716
0.0191252
0.0193568
0.0225103
0.0312851
-0.0273669
-0.0365832
-0.0391845
-0.0392694
-0.0231126
-0.0112774
-0.00259911
0.00311645
0.00600563
0.00669905
0.00622094
0.00516848
0.00194713
-0.00531583
-0.0163774
-0.0288459
-0.0346792
-0.0387544
-0.0397862
-0.0527874
-0.0622229
-0.058587
-0.0497233
-0.0380781
-0.0235135
-0.00369806
0.00713268
0.0111167
0.0186622
0.0252134
-0.0346237
-0.0396587
-0.039465
-0.0393617
-0.0211554
-0.00957722
-0.00216961
0.00257755
0.00566739
0.00731852
0.00836988
0.00876667
0.00667001
0.000584186
-0.00785228
-0.0163232
-0.020111
-0.0233681
-0.0155943
-0.0159263
-0.0291076
-0.040206
-0.0436282
-0.0422427
-0.0371738
-0.0300514
-0.0243134
-0.00389551
0.0122778
0.0163632
-0.0300678
-0.0342549
-0.0326647
-0.0313641
-0.0180866
-0.00777431
-0.00208061
0.00229911
0.00556824
0.00840115
0.0111268
0.0130972
0.0122761
0.00708277
-0.000902494
-0.0118088
-0.0241253
-0.0173385
-0.00910068
-0.00868653
-0.0140287
-0.0252148
-0.0361071
-0.0443943
-0.0476487
-0.0487897
-0.0491244
-0.0293105
-0.00452596
0.00144233
-0.0247322
-0.0278749
-0.0251946
-0.0213293
-0.0148976
-0.00730563
-0.0025352
0.0015465
0.00526697
0.00926824
0.0135231
0.0171695
0.0177787
0.0127818
0.000732474
-0.0158623
-0.0330126
-0.0253346
-0.0218048
-0.0258833
-0.0254586
-0.0291952
-0.0373448
-0.0512784
-0.057803
-0.0590048
-0.0583951
-0.051053
-0.033199
-0.0236862
-0.0223526
-0.0242527
-0.0202975
-0.0201393
-0.0140928
-0.00744471
-0.00318207
0.000546815
0.00447437
0.00926766
0.0148376
0.0201403
0.0227023
0.0187523
0.00172711
-0.0166625
-0.0409673
-0.0333431
-0.0274141
-0.0435045
-0.0455923
-0.0453343
-0.0480063
-0.0673861
-0.0729117
-0.0690537
-0.0636086
-0.0587079
-0.0531059
-0.0515794
-0.0228576
-0.0231461
-0.0212318
-0.0208323
-0.0160983
-0.00938477
-0.00452529
-0.000894422
0.00301979
0.00832628
0.0148904
0.0222711
0.0286325
0.0235709
0.00372863
-0.00763218
-0.0215711
-0.0442845
-0.0323913
-0.0360635
-0.052877
-0.0556035
-0.0579765
-0.0829229
-0.0879545
-0.0773818
-0.0663117
-0.0595805
-0.057256
-0.0594175
-0.0229336
-0.02497
-0.0260006
-0.0261505
-0.0212458
-0.0140927
-0.00816275
-0.0038015
0.000542111
0.00635933
0.0138882
0.0231513
0.0349677
0.0295418
0.0147615
0.004101
-0.0020188
-0.0198925
-0.0475384
-0.0459556
-0.0570328
-0.0610523
-0.0620692
-0.0890913
-0.0921266
-0.0745277
-0.0644832
-0.0554241
-0.0516556
-0.0516333
-0.0305936
-0.0354501
-0.0351421
-0.0337568
-0.0281621
-0.0206058
-0.0135919
-0.00843775
-0.00376979
0.00272941
0.0108481
0.0207143
0.0340267
0.0375561
0.0268718
0.00590961
-0.0158044
-0.0227731
-0.0408014
-0.0701633
-0.0718461
-0.070405
-0.0616686
-0.0890291
-0.0817005
-0.0628834
-0.0570234
-0.0489387
-0.0431614
-0.0411027
-0.0449778
-0.0393875
-0.0424623
-0.0396789
-0.0328681
-0.025327
-0.0186624
-0.0142854
-0.0102378
-0.00277172
0.00612655
0.014957
0.0268617
0.0346295
0.028004
0.0030132
-0.0302623
-0.0574761
-0.0626116
-0.110583
-0.117751
-0.0905837
-0.0712344
-0.0939371
-0.0854054
-0.0576738
-0.0457845
-0.0400342
-0.0341779
-0.0312825
-0.0516983
-0.0510669
-0.0468705
-0.040559
-0.0325483
-0.0265825
-0.0219735
-0.0204049
-0.018391
-0.0099862
0.000211983
0.00831851
0.0167336
0.022765
0.0180469
0.000690321
-0.0392495
-0.0735392
-0.154904
-0.184557
-0.176303
-0.129005
-0.10127
-0.11322
-0.0961782
-0.0578472
-0.0340762
-0.029308
-0.0249991
-0.0226306
-0.0520445
-0.0623809
-0.0445361
-0.0397911
-0.0357568
-0.0325225
-0.0300874
-0.029873
-0.0259231
-0.0180174
-0.00666142
0.00120397
0.0058003
0.00891467
0.0058642
-0.0078124
-0.0421026
-0.0888318
-0.167997
-0.202369
-0.160908
-0.120362
-0.120361
-0.1309
-0.105288
-0.0589549
-0.0268803
-0.0203681
-0.0174692
-0.0161012
-0.0542745
-0.054206
-0.0488477
-0.0459832
-0.043812
-0.0410855
-0.037786
-0.0340338
-0.0307267
-0.0276593
-0.0146577
-0.00544911
-0.00375851
-0.00245246
-0.00553939
-0.0206408
-0.0471205
-0.0761528
-0.135861
-0.142761
-0.0959174
-0.0688387
-0.083375
-0.11898
-0.1077
-0.0678377
-0.0277631
-0.0157121
-0.0130917
-0.012605
-0.0586318
-0.058388
-0.0575117
-0.0559496
-0.0542481
-0.0525951
-0.0481442
-0.0409106
-0.0369034
-0.0317188
-0.0206986
-0.0113488
-0.0118094
-0.0119345
-0.0150491
-0.0264598
-0.0482591
-0.0661972
-0.0785546
-0.0663335
-0.0481851
-0.0376164
-0.0419522
-0.0750522
-0.0931562
-0.0731869
-0.03666
-0.0176736
-0.0140922
-0.0133563
-0.0606611
-0.0591179
-0.0610118
-0.0637218
-0.0655562
-0.0658738
-0.0614925
-0.0527328
-0.0426665
-0.0329233
-0.0252881
-0.0183824
-0.0178264
-0.0188083
-0.0209998
-0.0278538
-0.0430387
-0.0450858
-0.0345717
-0.0252685
-0.0232171
-0.0217511
-0.0211767
-0.034748
-0.0582941
-0.0615426
-0.0392458
-0.0151866
-0.0128126
-0.0162342
-0.0585586
-0.055021
-0.0587517
-0.0647167
-0.0684821
-0.0694188
-0.0662086
-0.0612935
-0.0485906
-0.0382667
-0.0284686
-0.0231413
-0.0212803
-0.0225045
-0.023628
-0.0268067
-0.0323186
-0.0280196
-0.0163014
-0.00988031
-0.0116994
-0.0124363
-0.0115877
-0.0143281
-0.0261243
-0.039313
-0.0348898
-0.0187237
-0.0187852
-0.0265656
-0.0534278
-0.0490259
-0.0535323
-0.059772
-0.063483
-0.0649558
-0.0635247
-0.0631812
-0.0546905
-0.0405542
-0.0290577
-0.0232825
-0.0217088
-0.0228673
-0.0242312
-0.0260086
-0.0266821
-0.0212063
-0.0091988
-0.00442442
-0.00674689
-0.00739968
-0.00703025
-0.00687116
-0.0112636
-0.0234659
-0.0324596
-0.0474281
-0.0290967
-0.0336522
-0.0493686
-0.0441715
-0.0481261
-0.0529686
-0.0557058
-0.0571253
-0.0546309
-0.0508103
-0.043698
-0.0347311
-0.0248007
-0.020627
-0.0197006
-0.0217645
-0.023798
-0.0252766
-0.0241199
-0.0190225
-0.00542042
-0.00267303
-0.00457135
-0.00492923
-0.00466555
-0.00436285
-0.00815421
-0.0243624
-0.0385623
-0.0282242
-0.00547955
-0.0270639
-0.0459314
-0.0404873
-0.0429469
-0.0461189
-0.0474948
-0.0438845
-0.0361583
-0.0261792
-0.020075
-0.0221933
-0.0185364
-0.0176309
-0.017894
-0.0201865
-0.0230931
-0.0246008
-0.0245936
-0.0180398
-0.00350469
-0.0022137
-0.00359931
-0.00384706
-0.00353508
-0.00357198
-0.00889697
-0.0250737
-0.0274537
-0.0153686
-0.0229288
-0.0152591
-0.0424065
-0.0363313
-0.0366993
-0.0366732
-0.0324095
-0.0237229
-0.0118939
-0.00574982
-0.00480934
-0.010263
-0.0141865
-0.0168409
-0.0172676
-0.0182766
-0.021932
-0.0225704
-0.0246135
-0.0141076
-0.00271312
-0.0021908
-0.00306565
-0.0034419
-0.00322376
-0.00337235
-0.00983681
-0.0236333
-0.0223853
-0.0183696
-0.0316884
-0.0150555
-0.0320486
-0.0283368
-0.0263584
-0.0225817
-0.015468
-0.00569288
-0.00188515
-0.00123613
-0.00221259
-0.00720282
-0.0125907
-0.0159526
-0.0172166
-0.0166883
-0.0200909
-0.019378
-0.0188423
-0.0110923
-0.00279705
-0.00216742
-0.00267807
-0.00325688
-0.00315932
-0.00335942
-0.0109552
-0.0217693
-0.0193228
-0.0199279
-0.0192151
-0.0187373
-0.0161574
-0.0176777
-0.0152292
-0.00661844
-0.00257319
-0.00105949
-0.000835733
-0.000971233
-0.00218736
-0.00719408
-0.0134545
-0.0170483
-0.0168936
-0.0177774
-0.0181182
-0.01783
-0.0169558
-0.0101531
-0.00347041
-0.0021487
-0.0023766
-0.00305022
-0.00308887
-0.00362304
-0.0102358
-0.016239
-0.0151065
-0.0185948
-0.019486
-0.0185316
-0.0047849
-0.00403846
-0.00236197
-0.00109436
-0.00076786
-0.000738365
-0.000784754
-0.00100568
-0.00273878
-0.0089342
-0.0155304
-0.0181521
-0.0164768
-0.0161946
-0.0169865
-0.0177817
-0.0151018
-0.00989956
-0.00490338
-0.00216332
-0.00217806
-0.00278959
-0.00298952
-0.00369763
-0.00776706
-0.0113673
-0.0130474
-0.0132419
-0.0186694
-0.0184471
-0.00176542
-0.00126289
-0.000862418
-0.000711816
-0.00068978
-0.000719275
-0.000778309
-0.00104924
-0.0033048
-0.0109021
-0.0176047
-0.0188435
-0.0164479
-0.0157132
-0.0166146
-0.0180594
-0.0115541
-0.0095842
-0.00717662
-0.00233048
-0.0020982
-0.00247373
-0.00282963
-0.0034244
-0.00574188
-0.00898101
-0.0107712
-0.00849136
-0.0127272
-0.0175139
-0.00123456
-0.000976651
-0.000772846
-0.000688255
-0.000682943
-0.000711733
-0.000780775
-0.00108564
-0.00382036
-0.0126402
-0.0184392
-0.0190081
-0.0172316
-0.0161149
-0.0164442
-0.0170343
-0.00761959
-0.00883104
-0.00935584
-0.00278039
-0.00202579
-0.00217865
-0.00257448
-0.00306737
-0.00457599
-0.00719305
-0.00822878
-0.00641319
-0.0100781
-0.0188373
-0.00105972
-0.000908772
-0.0007525
-0.000678608
-0.000673591
-0.000706848
-0.000790905
-0.00112302
-0.00429353
-0.0139432
-0.0182328
-0.0185917
-0.017742
-0.0163302
-0.0171171
-0.0183992
-0.00524635
-0.00794426
-0.0100555
-0.00387213
-0.00195104
-0.00201337
-0.00225847
-0.00271219
-0.00378243
-0.00571875
-0.00653474
-0.00559008
-0.0101926
-0.0194528
-0.00100166
-0.000885789
-0.000743773
-0.000676558
-0.000671735
-0.00071298
-0.000812508
-0.00115385
-0.00465236
-0.0149099
-0.0181676
-0.0173371
-0.0165384
-0.0160803
-0.016955
-0.0113878
-0.00403073
-0.00618367
-0.0098147
-0.00639259
-0.00207906
-0.00193921
-0.00200853
-0.00237747
-0.00309901
-0.00444086
-0.00543022
-0.00536563
-0.0122877
-0.0193689
-0.000978234
-0.000871446
-0.000733063
-0.00065665
-0.000677322
-0.000728981
-0.000840696
-0.00116817
-0.00481678
-0.0154388
-0.0180266
-0.0159518
-0.0149749
-0.0152927
-0.0160095
-0.00552175
-0.00340163
-0.00440908
-0.00844683
-0.00900558
-0.00288209
-0.0018791
-0.00190061
-0.00206861
-0.00253209
-0.0033476
-0.00438371
-0.00509796
-0.0153903
-0.0192655
-0.000961426
-0.000853341
-0.000722624
-0.000681436
-0.000673463
-0.000748757
-0.000874982
-0.0011612
-0.00450451
-0.0157392
-0.0174809
-0.0147238
-0.014411
-0.0159356
-0.0157253
-0.00447368
-0.00316514
-0.0032927
-0.00650813
-0.00952764
-0.00500188
-0.00190177
-0.00184785
-0.00187323
-0.00212896
-0.00254347
-0.00333789
-0.00455427
-0.0167928
-0.0189365
-0.000940674
-0.000832549
-0.000710493
-0.000656693
-0.000682773
-0.000774994
-0.000912427
-0.00113496
-0.00338764
-0.0145894
-0.016874
-0.0138019
-0.0146628
-0.0167151
-0.0124894
-0.00431175
-0.00307179
-0.00290088
-0.00459686
-0.0092833
-0.00753922
-0.00241903
-0.00181062
-0.00181217
-0.00192054
-0.00209489
-0.00251864
-0.00376497
-0.0165377
-0.0188428
-0.000913792
-0.000808501
-0.000697888
-0.000682579
-0.000694419
-0.000804114
-0.000952291
-0.00112302
-0.00239212
-0.0120394
-0.0167504
-0.0137883
-0.0147606
-0.0162436
-0.0102588
-0.00427973
-0.00305363
-0.00279569
-0.00311983
-0.00629933
-0.00812204
-0.00394217
-0.00181868
-0.00178625
-0.0018709
-0.00195589
-0.00207177
-0.00304793
-0.0152255
-0.0189259
-0.000882321
-0.000783564
-0.000687114
-0.000677132
-0.000711616
-0.000836001
-0.000993951
-0.00115793
-0.00181116
-0.00878145
-0.0171396
-0.0148558
-0.0146193
-0.0153956
-0.0101023
-0.00433635
-0.0031157
-0.00277603
-0.00267613
-0.00413451
-0.00796549
-0.00616555
-0.00230033
-0.00182402
-0.00192887
-0.00196961
-0.00196478
-0.00273488
-0.0139364
-0.0189244
-0.000848919
-0.00075952
-0.000680256
-0.000678927
-0.000732687
-0.00086868
-0.00103485
-0.00122022
-0.00159205
-0.00534882
-0.0160729
-0.016435
-0.0141105
-0.0148574
-0.0102299
-0.00444396
-0.0032544
-0.00286536
-0.00266762
-0.0029832
-0.00618207
-0.00748549
-0.00394419
-0.00241965
-0.00239286
-0.00226851
-0.00206628
-0.00276346
-0.0133762
-0.0188899
-0.000816061
-0.000738252
-0.000678653
-0.000676477
-0.000757577
-0.00090259
-0.00107526
-0.00129024
-0.00157943
-0.003388
-0.013341
-0.0168518
-0.014492
-0.0151943
-0.0108826
-0.00469509
-0.00348239
-0.00303581
-0.00269366
-0.00262553
-0.00413164
-0.0074744
-0.00659132
-0.00447538
-0.00407155
-0.00369595
-0.00274218
-0.00334563
-0.0137119
-0.0188081
-0.000785543
-0.000720465
-0.000678972
-0.000688688
-0.000787326
-0.000937203
-0.0011163
-0.00136459
-0.00177513
-0.00293009
-0.0110048
-0.0160683
-0.01511
-0.0156812
-0.0114787
-0.00507416
-0.00373686
-0.00325936
-0.00286684
-0.00263725
-0.0027502
-0.00654628
-0.00867363
-0.00781602
-0.00735748
-0.00700008
-0.00482682
-0.00547905
-0.014537
-0.0188159
-0.000758208
-0.000706188
-0.000679053
-0.000708016
-0.000818527
-0.000971576
-0.00115972
-0.00144646
-0.00194888
-0.00289646
-0.00963401
-0.0164883
-0.0157538
-0.0161717
-0.0119567
-0.00551811
-0.00402089
-0.00352866
-0.00312683
-0.00267435
-0.00250487
-0.00389509
-0.00877293
-0.00968816
-0.0100825
-0.0101614
-0.00799098
-0.00896428
-0.0158619
-0.019114
-0.000734877
-0.000695974
-0.000679929
-0.000729544
-0.000849411
-0.00100622
-0.00120739
-0.00153961
-0.00214602
-0.00314761
-0.00859765
-0.017301
-0.0167245
-0.0165945
-0.0127643
-0.00612523
-0.00439685
-0.00383435
-0.0034178
-0.00289408
-0.00255225
-0.00263783
-0.00531913
-0.00792578
-0.00893696
-0.00980411
-0.00959023
-0.0113031
-0.0169294
-0.0195073
-0.000715228
-0.000690291
-0.000685817
-0.00075273
-0.000879783
-0.00104271
-0.00126339
-0.00164964
-0.00237491
-0.00345173
-0.0075719
-0.0173326
-0.0173275
-0.0167911
-0.014002
-0.00699174
-0.00488838
-0.00418919
-0.00373698
-0.00324633
-0.00268808
-0.0023509
-0.00248994
-0.0037061
-0.00486219
-0.00601609
-0.00724273
-0.00977607
-0.0134529
-0.0139752
-0.000700233
-0.000688861
-0.000698662
-0.000777863
-0.000910526
-0.00108211
-0.00132936
-0.00178129
-0.00263127
-0.00384802
-0.00697009
-0.0165161
-0.017834
-0.0170744
-0.0150986
-0.00806625
-0.00544448
-0.0046111
-0.00406509
-0.00358149
-0.00297709
-0.0023095
-0.00177425
-0.00156228
-0.00178514
-0.00231953
-0.00344141
-0.0052282
-0.0057987
-0.00419386
-0.00068918
-0.000690481
-0.000715655
-0.000804224
-0.000942097
-0.00112575
-0.00140842
-0.00193943
-0.0029228
-0.00427632
-0.00691225
-0.015277
-0.0181241
-0.0175515
-0.0160094
-0.00916956
-0.00605678
-0.00508784
-0.00441467
-0.00386657
-0.00327589
-0.00251775
-0.00175993
-0.00115834
-0.000878109
-0.000885011
-0.0012264
-0.00168044
-0.0014772
-0.000979596
-0.000682443
-0.00069223
-0.000734626
-0.000830965
-0.000975917
-0.00117662
-0.00150298
-0.00212995
-0.00325248
-0.00469806
-0.00692512
-0.0142028
-0.0182092
-0.0179266
-0.0166709
-0.0101662
-0.00676942
-0.00559793
-0.00478763
-0.00412958
-0.00353003
-0.00282915
-0.00197866
-0.0012209
-0.000746573
-0.000563952
-0.00055362
-0.000579536
-0.000538897
-0.000521498
-0.000679169
-0.000697117
-0.000753815
-0.000857992
-0.00101296
-0.00123505
-0.00161561
-0.00235372
-0.00361061
-0.00516916
-0.00751961
-0.0138593
-0.0182882
-0.0182727
-0.0168378
-0.0111495
-0.00757273
-0.00615693
-0.00519068
-0.00439651
-0.00374184
-0.00310394
-0.0023027
-0.00142894
-0.000801648
-0.000524227
-0.000444927
-0.000427326
-0.000442714
-0.000491104
-0.000678841
-0.000706254
-0.000772818
-0.000885919
-0.00105418
-0.00130213
-0.00174606
-0.00261416
-0.0039987
-0.00567453
-0.00826989
-0.0137914
-0.0179734
-0.0186621
-0.0169972
-0.0122544
-0.00845435
-0.00677272
-0.00565791
-0.00469182
-0.00392636
-0.00331525
-0.00261934
-0.00172644
-0.000943476
-0.000550743
-0.00045136
-0.000440575
-0.000453444
-0.000502645
-0.000679538
-0.000717193
-0.000791736
-0.000915742
-0.00109951
-0.00137801
-0.00190004
-0.00290937
-0.00442668
-0.00622248
-0.00900825
-0.0140088
-0.0175471
-0.0185997
-0.0176356
-0.0135342
-0.00946073
-0.00744753
-0.00620671
-0.00505763
-0.00411071
-0.0034651
-0.00288918
-0.00206833
-0.0011641
-0.000620019
-0.000462373
-0.000453877
-0.000469172
-0.000518162
-0.000679557
-0.000727449
-0.000810831
-0.00094799
-0.00114795
-0.00146296
-0.00208105
-0.00323512
-0.00488754
-0.00685504
-0.00991688
-0.0148342
-0.0172577
-0.0181229
-0.0179857
-0.0149156
-0.0106269
-0.00822762
-0.00684043
-0.00554015
-0.00434655
-0.00356854
-0.00307409
-0.00242268
-0.00146446
-0.000737363
-0.000486571
-0.000466073
-0.00048508
-0.000535498
-0.000680124
-0.000736224
-0.000830739
-0.000982292
-0.00119813
-0.00155952
-0.00228914
-0.00360123
-0.00540231
-0.00756889
-0.010789
-0.0153434
-0.017154
-0.0177832
-0.0181333
-0.016066
-0.0119073
-0.00910723
-0.00757628
-0.00614448
-0.00469037
-0.00366556
-0.0031609
-0.00273112
-0.00185695
-0.000922893
-0.000534344
-0.000481992
-0.000506264
-0.000556772
-0.000675501
-0.000743645
-0.000852326
-0.00101726
-0.00124992
-0.00167043
-0.00252709
-0.00400733
-0.00598365
-0.00838562
-0.0118217
-0.015807
-0.0171638
-0.0175418
-0.0177925
-0.0166322
-0.0131967
-0.010095
-0.00837622
-0.00685454
-0.00515988
-0.00381432
-0.0031853
-0.00291833
-0.00232213
-0.00121808
-0.000627851
-0.000524254
-0.000549038
-0.00059361
-0.000684956
-0.000751009
-0.000876074
-0.00105111
-0.00130417
-0.00179625
-0.00279725
-0.00446298
-0.00664806
-0.00930305
-0.0129183
-0.0162191
-0.0171171
-0.0173589
-0.0175104
-0.0170401
-0.01445
-0.0112238
-0.00922278
-0.00760335
-0.00573947
-0.00405991
-0.00319548
-0.00297974
-0.00273844
-0.00166807
-0.000815256
-0.000628212
-0.000634596
-0.000660782
-0.000680979
-0.000759445
-0.000901339
-0.00108273
-0.00136106
-0.00193873
-0.00310158
-0.00498278
-0.00741858
-0.0103586
-0.014013
-0.0166025
-0.0170387
-0.0171911
-0.0174448
-0.0173881
-0.0156171
-0.0124777
-0.0101299
-0.00835416
-0.00637034
-0.00441617
-0.0032262
-0.00294287
-0.00294815
-0.0022371
-0.00117366
-0.000847079
-0.000800023
-0.000780011
-0.000678724
-0.000771108
-0.000926786
-0.00111147
-0.00142132
-0.00209655
-0.00344771
-0.00558757
-0.00832579
-0.0115475
-0.0150308
-0.0168474
-0.0170485
-0.0171669
-0.0173548
-0.0175169
-0.0165929
-0.0137766
-0.0111089
-0.0091231
-0.00701145
-0.00483847
-0.00332908
-0.00285866
-0.00298091
-0.00270823
-0.00174097
-0.00123656
-0.00109522
-0.000995306
-0.000678045
-0.000787284
-0.000950488
-0.00113692
-0.00148491
-0.00227257
-0.00384382
-0.00629327
-0.00938982
-0.0128712
-0.0159442
-0.0170957
-0.0170265
-0.0171589
-0.017249
-0.0175766
-0.0172647
-0.0150764
-0.0122395
-0.00992995
-0.00765861
-0.00528745
-0.00350072
-0.00277617
-0.00289423
-0.00289341
-0.00233206
-0.00176812
-0.00152374
-0.00136011
-0.000676167
-0.000808038
-0.000970462
-0.00115921
-0.00155123
-0.00247094
-0.00429602
-0.00714422
-0.0106598
-0.0142585
-0.0166635
-0.0173204
-0.0173076
-0.0169489
-0.0171831
-0.0176793
-0.0176748
-0.0162453
-0.0134542
-0.010835
-0.00830587
-0.00573145
-0.00370813
-0.00271154
-0.00268707
-0.00288231
-0.00266792
-0.00225544
-0.00198904
-0.00183664
-0.000677695
-0.000831186
-0.00098553
-0.0011781
-0.00162244
-0.00269188
-0.00482541
-0.00818163
-0.012122
-0.0155916
-0.0171954
-0.0174321
-0.0174397
-0.017233
-0.0174198
-0.0177344
-0.0179109
-0.0171606
-0.0147255
-0.011845
-0.00899074
-0.00615755
-0.0038925
-0.00266059
-0.00244389
-0.00273333
-0.00271705
-0.00250413
-0.00232695
-0.00225177
-0.000673286
-0.000853859
-0.000995792
-0.00119424
-0.00169748
-0.00294305
-0.00546219
-0.00939455
-0.0137081
-0.016657
-0.0174973
-0.0175475
-0.0174868
-0.0175232
-0.0176515
-0.0178426
-0.0180178
-0.0177884
-0.0159892
-0.0130063
-0.00969095
-0.00653132
-0.0040112
-0.00260723
-0.00222823
-0.00246445
-0.00261101
-0.00251309
-0.00244403
-0.00247057
-0.000667055
-0.000874857
-0.00100312
-0.00120783
-0.00177696
-0.00321969
-0.00620976
-0.0108106
-0.0152386
-0.0173259
-0.0176523
-0.0176906
-0.0176865
-0.0177148
-0.0177818
-0.0179411
-0.0180874
-0.0181012
-0.0170243
-0.014163
-0.0103942
-0.00679662
-0.00402652
-0.00253915
-0.00202697
-0.00214119
-0.00239413
-0.00239911
-0.0023974
-0.00250324
-0.000662974
-0.000890582
-0.00100752
-0.001219
-0.00185407
-0.003514
-0.00706679
-0.0123489
-0.0164922
-0.0176382
-0.0177583
-0.0178276
-0.0178889
-0.0179399
-0.0179729
-0.0180264
-0.0181036
-0.0181528
-0.0176566
-0.0151808
-0.0110143
-0.00690702
-0.00398801
-0.00244893
-0.00183942
-0.00180444
-0.00208752
-0.00223828
-0.00229156
-0.002454
-0.000661605
-0.000899791
-0.00101089
-0.00122745
-0.00192036
-0.00379191
-0.00796519
-0.0138498
-0.0172781
-0.0177783
-0.017914
-0.0180382
-0.0181346
-0.0181875
-0.0181923
-0.018151
-0.0181236
-0.0180758
-0.0178454
-0.0158786
-0.0112979
-0.00684164
-0.00387156
-0.00232306
-0.00167727
-0.00147597
-0.00177943
-0.0020366
-0.00219205
-0.00239101
-0.00065838
-0.000905211
-0.00101593
-0.00123446
-0.00196748
-0.00400883
-0.00870864
-0.0150356
-0.0176183
-0.0179006
-0.01813
-0.0183012
-0.0184053
-0.0184406
-0.0184131
-0.0183426
-0.0182396
-0.0180721
-0.0178181
-0.016139
-0.0111319
-0.00675385
-0.0036834
-0.00215951
-0.00153546
-0.00138216
-0.00153285
-0.00183164
-0.0021003
-0.00233502
-0.000667447
-0.000910281
-0.00102409
-0.00124126
-0.00199002
-0.00411859
-0.00905338
-0.0156243
-0.0176985
-0.0180272
-0.0183934
-0.018658
-0.0187929
-0.0188152
-0.0187631
-0.018666
-0.018512
-0.0183088
-0.0180828
-0.0167087
-0.0122555
-0.00671724
-0.00342793
-0.00195971
-0.0013707
-0.00131826
-0.00137774
-0.00165957
-0.00200314
-0.00229703
-0.000691086
-0.000921626
-0.0010405
-0.00125367
-0.00199093
-0.00414188
-0.00903018
-0.015641
-0.0175922
-0.0179808
-0.0185376
-0.0189097
-0.0190842
-0.0191437
-0.0191036
-0.01899
-0.0188605
-0.018739
-0.0188455
-0.0182008
-0.0131065
-0.00626276
-0.00306023
-0.00176474
-0.00146383
-0.00122198
-0.00129957
-0.00153951
-0.00191427
-0.00222282
-0.000729142
-0.000950585
-0.00107594
-0.00127987
-0.00198487
-0.00413556
-0.00884305
-0.0155061
-0.0174463
-0.0178763
-0.0185353
-0.0190974
-0.0193772
-0.0192597
-0.0193777
-0.0192705
-0.0191233
-0.0190901
-0.0192359
-0.0186072
-0.0116282
-0.00532739
-0.00258988
-0.00151283
-0.00114376
-0.00132874
-0.00125463
-0.00146245
-0.00184957
-0.00210524
-0.00077689
-0.00101316
-0.00115149
-0.00133373
-0.00198543
-0.00417669
-0.00858103
-0.01474
-0.0172969
-0.0177849
-0.0185591
-0.0195027
-0.019543
-0.0198724
-0.019194
-0.0200011
-0.0187053
-0.0195147
-0.0195508
-0.0176106
-0.00925378
-0.00421002
-0.00210385
-0.00134711
-0.00112596
-0.00117861
-0.00123694
-0.00141831
-0.00180479
-0.00207943
-0.000828997
-0.00112253
-0.0012994
-0.00143958
-0.00205225
-0.00465892
-0.00919093
-0.0143138
-0.0171115
-0.0171609
-0.017971
-0.0189487
-0.0189237
-0.018471
-0.0192055
-0.0189574
-0.0195107
-0.0195144
-0.0195774
-0.0149414
-0.00719336
-0.00319419
-0.00168906
-0.00123115
-0.00106004
-0.00114848
-0.00121562
-0.00139135
-0.0017697
-0.00213838
-0.00089749
-0.00130082
-0.00156728
-0.0016327
-0.00233283
-0.00589917
-0.0112812
-0.0146719
-0.016524
-0.017123
-0.0175822
-0.0182458
-0.0183713
-0.0180432
-0.0180568
-0.0186913
-0.0189973
-0.0189324
-0.0182814
-0.0129078
-0.00637345
-0.0024883
-0.00140106
-0.00117244
-0.00121011
-0.00107321
-0.00120237
-0.00137702
-0.00174511
-0.00220416
-0.00099895
-0.00157758
-0.00198414
-0.00197568
-0.00301638
-0.0076536
-0.0132195
-0.0158582
-0.0165363
-0.0168785
-0.0169896
-0.0177611
-0.0183542
-0.0181339
-0.0184462
-0.0184503
-0.0178037
-0.0178066
-0.0166592
-0.0128342
-0.00631832
-0.00212166
-0.00125528
-0.00117032
-0.00119361
-0.00119164
-0.00120454
-0.00137619
-0.00172785
-0.00210213
-0.00117351
-0.00198563
-0.002524
-0.00255425
-0.00419205
-0.00946422
-0.0148504
-0.0165528
-0.0167699
-0.0167715
-0.0172066
-0.0176124
-0.0179823
-0.017863
-0.0179731
-0.0178367
-0.0176327
-0.017602
-0.0168656
-0.0142267
-0.00664937
-0.00200855
-0.00122376
-0.00120011
-0.00120043
-0.00117584
-0.00122743
-0.00139339
-0.00171292
-0.00200163
-0.00151475
-0.00256699
-0.0031694
-0.00344197
-0.00567927
-0.0111507
-0.0158568
-0.0168052
-0.0169164
-0.0169833
-0.0171218
-0.017386
-0.0177058
-0.017718
-0.0178916
-0.0179021
-0.0181523
-0.0181711
-0.0180001
-0.0155127
-0.00671764
-0.00202733
-0.00128507
-0.00128255
-0.00132871
-0.00124851
-0.0012629
-0.00143812
-0.00170869
-0.00178334
-0.00215432
-0.00334194
-0.00396656
-0.00459675
-0.00721509
-0.0124809
-0.0163165
-0.0167959
-0.0167365
-0.0169047
-0.0170598
-0.017323
-0.0174723
-0.0174232
-0.0178752
-0.0180631
-0.0179443
-0.0180169
-0.0185154
-0.0157054
-0.00646926
-0.0022426
-0.00150205
-0.00148687
-0.00154508
-0.00137242
-0.00133045
-0.00152617
-0.00171637
-0.00167724
-0.00317144
-0.00435255
-0.00500929
-0.0059063
-0.00880223
-0.0137565
-0.016564
-0.0167555
-0.0166213
-0.0166949
-0.0168832
-0.0171276
-0.0173249
-0.017505
-0.017617
-0.01764
-0.0171637
-0.0183341
-0.0183768
-0.0153149
-0.0062916
-0.00277786
-0.00197397
-0.00189737
-0.0019216
-0.00162722
-0.00149349
-0.00167509
-0.00175324
-0.00166437
-0.00455854
-0.00571914
-0.00638655
-0.0073699
-0.0105153
-0.0152019
-0.0166592
-0.0165942
-0.016525
-0.0166051
-0.0168409
-0.017095
-0.0173151
-0.0174353
-0.0174446
-0.0173551
-0.0179219
-0.0170942
-0.0183465
-0.0148437
-0.00717691
-0.00366599
-0.0026899
-0.00252227
-0.00246135
-0.00207084
-0.00184971
-0.00194009
-0.00184965
-0.0017028
-0.00640245
-0.00755943
-0.00812227
-0.00904393
-0.0123387
-0.0161646
-0.0165785
-0.0163844
-0.0163585
-0.0164818
-0.0167369
-0.0170467
-0.0173237
-0.0174612
-0.0174245
-0.0173059
-0.0172379
-0.0175067
-0.0179093
-0.0155166
-0.00894616
-0.00483027
-0.00356941
-0.00328379
-0.0031452