/*--------------------------------*- C++ -*----------------------------------*\
| =========                 |                                                 |
| \\      /  F ield         | OpenFOAM: The Open Source CFD Toolbox           |
|  \\    /   O peration     | Version:  v1606+                                |
|   \\  /    A nd           | Web:      www.OpenFOAM.com                      |
|    \\/     M anipulation  |                                                 |
\*---------------------------------------------------------------------------*/
FoamFile
{
    version     2.0;
    format      ascii;
    class       volVectorField;
    location    "0.9";
    object      U.particlesMean;
}
// * * * * * * * * * * * * * * * * * * * * * * * * * * * * * * * * * * * * * //

dimensions      [0 1 -1 0 0 0 0];

internalField   nonuniform List<vector> 
6000
(
(-0.00633178 -0.348358 0)
(0.000958355 -0.374942 0)
(0.0102493 -0.372566 0)
(0.018275 -0.375301 0)
(0.0224941 -0.385794 0)
(0.0227535 -0.395705 0)
(0.0210964 -0.403222 0)
(0.018854 -0.409655 0)
(0.0165017 -0.411954 0)
(0.0136522 -0.419647 0)
(0.0100124 -0.430641 0)
(0.00763325 -0.438376 0)
(0.00558925 -0.442823 0)
(0.0037266 -0.44914 0)
(0.00204567 -0.451235 0)
(6.76145e-05 -0.451555 0)
(-0.00195307 -0.44965 0)
(-0.00441017 -0.443946 0)
(-0.00636163 -0.440564 0)
(-0.00958378 -0.430616 0)
(-0.0133324 -0.420459 0)
(-0.016241 -0.411448 0)
(-0.018613 -0.407613 0)
(-0.0205989 -0.40148 0)
(-0.0224087 -0.394462 0)
(-0.0220574 -0.3838 0)
(-0.0176663 -0.373755 0)
(-0.00956458 -0.372164 0)
(-0.000243462 -0.374305 0)
(0.00691643 -0.34985 0)
(0.0161691 0.0326549 0)
(0.00738911 0.0523564 0)
(0.0158665 0.0475048 0)
(0.0243601 0.0469343 0)
(0.0343738 0.0501042 0)
(0.0400987 0.0507213 0)
(0.0398287 0.0508174 0)
(0.0329799 0.0537215 0)
(0.0233491 0.0545587 0)
(0.0177472 0.0561309 0)
(0.0111809 0.0597325 0)
(0.00558039 0.0581153 0)
(0.00258171 0.051915 0)
(0.00130274 0.0493125 0)
(0.00197973 0.0463612 0)
(0.00270977 0.0465756 0)
(0.00174117 0.0499037 0)
(-0.000763389 0.0534754 0)
(-0.00471086 0.0595101 0)
(-0.0113993 0.0597121 0)
(-0.0179117 0.056644 0)
(-0.0237985 0.0545365 0)
(-0.0333255 0.0525695 0)
(-0.0396293 0.0504047 0)
(-0.0394579 0.0504229 0)
(-0.0334742 0.0495765 0)
(-0.0233701 0.0468717 0)
(-0.0148987 0.0481598 0)
(-0.00677862 0.0528962 0)
(-0.0157214 0.0321754 0)
(-0.00131156 -0.0393336 0)
(0.00215991 -0.0518547 0)
(0.0142947 -0.0568601 0)
(0.0215451 -0.057732 0)
(0.0326264 -0.0533943 0)
(0.0419735 -0.0423134 0)
(0.0453447 -0.0303187 0)
(0.0396355 -0.0222798 0)
(0.0303327 -0.02083 0)
(0.0205336 -0.0236506 0)
(0.0109234 -0.0286918 0)
(0.00537247 -0.0351377 0)
(0.00171059 -0.0417077 0)
(0.000381016 -0.0461011 0)
(0.00254501 -0.0476265 0)
(0.00449662 -0.0461753 0)
(0.00382706 -0.0433968 0)
(0.000538671 -0.0396721 0)
(-0.00419414 -0.032829 0)
(-0.0106638 -0.0274548 0)
(-0.0207364 -0.0240043 0)
(-0.0299697 -0.0210217 0)
(-0.0392086 -0.0228299 0)
(-0.0446274 -0.0313805 0)
(-0.0407624 -0.0432173 0)
(-0.0314236 -0.0541941 0)
(-0.0205354 -0.0583548 0)
(-0.0134221 -0.0573171 0)
(-0.00123843 -0.0516558 0)
(0.00196963 -0.0380384 0)
(0.00667277 -0.0379519 0)
(0.00447573 -0.0518848 0)
(0.00686989 -0.0552247 0)
(0.0104728 -0.056932 0)
(0.0200407 -0.0544668 0)
(0.0325356 -0.0452384 0)
(0.0442431 -0.0303777 0)
(0.0465472 -0.0192112 0)
(0.0411561 -0.0127929 0)
(0.0309345 -0.008486 0)
(0.01881 -0.00814125 0)
(0.00769175 -0.0111658 0)
(-0.000936427 -0.0166 0)
(-0.00253322 -0.0253056 0)
(0.00191081 -0.0313745 0)
(0.00692273 -0.0282228 0)
(0.0084039 -0.0205273 0)
(0.0034242 -0.01448 0)
(-0.00668726 -0.00970386 0)
(-0.0180012 -0.00796468 0)
(-0.0294695 -0.00907993 0)
(-0.0396457 -0.0135307 0)
(-0.0448474 -0.0200765 0)
(-0.0425301 -0.0318111 0)
(-0.0309445 -0.0462233 0)
(-0.0188064 -0.0549819 0)
(-0.00960768 -0.0570354 0)
(-0.00613975 -0.0549788 0)
(-0.00385912 -0.0507737 0)
(-0.00659764 -0.0364437 0)
(0.00560614 -0.052728 0)
(-0.00285417 -0.065282 0)
(-0.00455737 -0.0703646 0)
(-0.00354857 -0.0803151 0)
(0.00706757 -0.0829055 0)
(0.0209786 -0.074564 0)
(0.0363379 -0.0559397 0)
(0.0439514 -0.0369262 0)
(0.0415679 -0.0249821 0)
(0.0334473 -0.0175432 0)
(0.0224349 -0.01545 0)
(0.00915903 -0.0163091 0)
(-0.00131529 -0.0249046 0)
(-0.00367766 -0.0416929 0)
(0.00127425 -0.0516371 0)
(0.00764373 -0.0467325 0)
(0.00995222 -0.0318506 0)
(0.00421863 -0.019555 0)
(-0.00819076 -0.0145453 0)
(-0.0211892 -0.0160691 0)
(-0.030937 -0.0186792 0)
(-0.0390675 -0.0260504 0)
(-0.0415452 -0.037918 0)
(-0.0337807 -0.0567575 0)
(-0.0191761 -0.0750207 0)
(-0.0056423 -0.0829941 0)
(0.00474278 -0.0801326 0)
(0.00546507 -0.0698618 0)
(0.00312941 -0.0637718 0)
(-0.00593493 -0.0507829 0)
(0.00132279 -0.0532724 0)
(-0.0116645 -0.059904 0)
(-0.0175484 -0.0720036 0)
(-0.0158119 -0.0870669 0)
(-0.00648361 -0.0934743 0)
(0.00929105 -0.088552 0)
(0.0268227 -0.07011 0)
(0.0405578 -0.0458568 0)
(0.0406064 -0.0262455 0)
(0.0347016 -0.0177337 0)
(0.0261597 -0.0156964 0)
(0.0142872 -0.016544 0)
(0.00346849 -0.0278785 0)
(-0.00117159 -0.0472435 0)
(0.000220573 -0.0592375 0)
(0.00499471 -0.0545192 0)
(0.00597943 -0.0367815 0)
(-0.000967499 -0.0204439 0)
(-0.0129763 -0.013487 0)
(-0.0243597 -0.0162143 0)
(-0.0319376 -0.0190096 0)
(-0.0377196 -0.0277312 0)
(-0.0373811 -0.0461872 0)
(-0.0242075 -0.0703996 0)
(-0.00707691 -0.0883244 0)
(0.00828701 -0.0929625 0)
(0.0170884 -0.0860408 0)
(0.0177967 -0.0708015 0)
(0.0115165 -0.0578119 0)
(-0.00254568 -0.0514949 0)
(-0.00514613 -0.0412789 0)
(-0.0176011 -0.0572912 0)
(-0.0241523 -0.0736745 0)
(-0.0239026 -0.090212 0)
(-0.0163913 -0.100081 0)
(-0.000788727 -0.0982149 0)
(0.0172121 -0.0825212 0)
(0.0368414 -0.0559909 0)
(0.0417225 -0.0264084 0)
(0.0365439 -0.0125061 0)
(0.03009 -0.0106838 0)
(0.0195031 -0.012684 0)
(0.00948474 -0.0253056 0)
(0.00324487 -0.047833 0)
(0.000109678 -0.0614291 0)
(0.00143293 -0.0568698 0)
(-0.00100751 -0.0377049 0)
(-0.00770491 -0.0186885 0)
(-0.0180519 -0.00949582 0)
(-0.0273411 -0.0109552 0)
(-0.0344252 -0.0139207 0)
(-0.0376329 -0.0276399 0)
(-0.0330755 -0.0558898 0)
(-0.0144693 -0.0823076 0)
(0.00319325 -0.0979567 0)
(0.0181951 -0.0986805 0)
(0.024702 -0.0880893 0)
(0.024002 -0.0715405 0)
(0.0170795 -0.0545924 0)
(0.00400394 -0.0397425 0)
(-0.00578696 -0.0316203 0)
(-0.0174054 -0.0482152 0)
(-0.022644 -0.0667427 0)
(-0.0218056 -0.0853182 0)
(-0.0175182 -0.0992254 0)
(-0.00659659 -0.101017 0)
(0.00936089 -0.0880784 0)
(0.0279949 -0.0625963 0)
(0.0413682 -0.027203 0)
(0.0393902 -0.00358709 0)
(0.0299267 -0.003296 0)
(0.0234573 -0.00884793 0)
(0.0160833 -0.021463 0)
(0.00825969 -0.0463396 0)
(0.000665265 -0.060913 0)
(-0.00541004 -0.0567723 0)
(-0.0100024 -0.0388716 0)
(-0.0151564 -0.0159702 0)
(-0.0217701 -0.00713351 0)
(-0.0283806 -0.00401287 0)
(-0.0346036 -0.00628467 0)
(-0.0354347 -0.0262505 0)
(-0.0236806 -0.0615842 0)
(-0.0059681 -0.0877311 0)
(0.00927331 -0.100008 0)
(0.0192325 -0.0967608 0)
(0.0221695 -0.082642 0)
(0.0223031 -0.0644248 0)
(0.0170608 -0.0458377 0)
(0.0045593 -0.02899 0)
(-0.0067399 -0.0266706 0)
(-0.0124317 -0.0385316 0)
(-0.0158859 -0.0587454 0)
(-0.0158159 -0.0805444 0)
(-0.015569 -0.0970541 0)
(-0.00764651 -0.104434 0)
(0.00353992 -0.0939816 0)
(0.0203331 -0.0673272 0)
(0.0403086 -0.0298549 0)
(0.0476239 -5.92128e-05 0)
(0.0316504 0.0130709 0)
(0.0217901 0.00527691 0)
(0.0193917 -0.013209 0)
(0.0117571 -0.0396367 0)
(0.000736133 -0.0542662 0)
(-0.0125224 -0.0507832 0)
(-0.0184838 -0.033436 0)
(-0.0228125 -0.00686087 0)
(-0.0224811 0.00191925 0)
(-0.0254242 0.00942255 0)
(-0.0355473 0.00380937 0)
(-0.0331076 -0.0273944 0)
(-0.0140168 -0.0655511 0)
(0.00125739 -0.0932505 0)
(0.0105819 -0.101478 0)
(0.0164341 -0.0929664 0)
(0.0162901 -0.0768277 0)
(0.0157028 -0.055833 0)
(0.0121197 -0.035931 0)
(0.00649743 -0.0250874 0)
(-0.00304733 -0.0170067 0)
(-0.00567036 -0.0261826 0)
(-0.00687944 -0.0480049 0)
(-0.007205 -0.0731663 0)
(-0.00904791 -0.0929881 0)
(-0.00424253 -0.102821 0)
(0.0018605 -0.0964019 0)
(0.0181045 -0.0738941 0)
(0.0358049 -0.0321095 0)
(0.0485983 0.0035969 0)
(0.04006 0.0195271 0)
(0.0310127 0.019372 0)
(0.0264349 0.000735251 0)
(0.0119174 -0.0260991 0)
(-0.00107043 -0.0447619 0)
(-0.0179583 -0.0435737 0)
(-0.0238698 -0.0267684 0)
(-0.0279916 0.000362191 0)
(-0.0177446 0.0135753 0)
(-0.0228423 0.0207671 0)
(-0.034939 0.0081043 0)
(-0.0245526 -0.0265613 0)
(-0.00812916 -0.0695953 0)
(0.00483588 -0.0925425 0)
(0.00861543 -0.0971241 0)
(0.0114482 -0.0872859 0)
(0.00865526 -0.0690384 0)
(0.00765875 -0.0443426 0)
(0.00593432 -0.0228989 0)
(0.00392767 -0.0145758 0)
(-0.00149008 -0.0102635 0)
(-0.00163172 -0.0203469 0)
(0.000398717 -0.0426724 0)
(0.00243744 -0.0712527 0)
(-0.000138895 -0.092182 0)
(0.000178821 -0.102148 0)
(0.00177712 -0.0998197 0)
(0.0154585 -0.0791079 0)
(0.0262316 -0.0381411 0)
(0.0401756 0.0070135 0)
(0.0367874 0.0257307 0)
(0.0251999 0.0279124 0)
(0.0289317 0.00867301 0)
(0.0195637 -0.0149309 0)
(0.00139424 -0.0308096 0)
(-0.0209382 -0.0349825 0)
(-0.0251121 -0.0225179 0)
(-0.0240324 0.000525655 0)
(-0.00842856 0.0240759 0)
(-0.020878 0.023777 0)
(-0.0265642 0.0118905 0)
(-0.0155918 -0.0289821 0)
(-0.00359442 -0.0695443 0)
(0.00693715 -0.0908068 0)
(0.00543036 -0.0937646 0)
(0.00407348 -0.0841265 0)
(-0.00023481 -0.0658098 0)
(0.000637169 -0.0377755 0)
(0.00145639 -0.0163263 0)
(0.00183924 -0.00760875 0)
(0.00113096 -0.00660862 0)
(-0.000636753 -0.018959 0)
(0.00433133 -0.0403583 0)
(0.010257 -0.0703986 0)
(0.00912763 -0.0932285 0)
(0.00767415 -0.10399 0)
(0.00267547 -0.100879 0)
(0.00782121 -0.0814568 0)
(0.0163096 -0.0438055 0)
(0.0279485 0.00360446 0)
(0.0307662 0.0279044 0)
(0.0184735 0.0318075 0)
(0.0225891 0.0127681 0)
(0.019008 -0.00913671 0)
(0.00710178 -0.0217089 0)
(-0.0140459 -0.0243489 0)
(-0.0217018 -0.0168268 0)
(-0.0151368 -0.000483321 0)
(0.00232066 0.0254181 0)
(-0.0108263 0.0269709 0)
(-0.0150415 0.0126377 0)
(-0.00652584 -0.0292512 0)
(0.00174467 -0.0690842 0)
(0.0046654 -0.0873824 0)
(-0.00114344 -0.0913669 0)
(-0.00511625 -0.0829671 0)
(-0.00885459 -0.0625657 0)
(-0.00457857 -0.0338879 0)
(-0.000332244 -0.0147736 0)
(-0.000922859 -0.00451282 0)
(0.00343161 -0.00578257 0)
(0.00043998 -0.0184658 0)
(0.00765092 -0.0402084 0)
(0.0135782 -0.0709779 0)
(0.0147206 -0.093813 0)
(0.00984711 -0.106974 0)
(0.00358848 -0.101176 0)
(0.00242213 -0.081278 0)
(0.00474305 -0.0488096 0)
(0.0177144 0.00020623 0)
(0.0219613 0.0295187 0)
(0.0127457 0.0360442 0)
(0.017025 0.0186685 0)
(0.0199056 -0.00209669 0)
(0.00843393 -0.0131129 0)
(-0.00906823 -0.0177754 0)
(-0.011254 -0.0177374 0)
(0.00247731 -0.00539607 0)
(0.0164642 0.0265169 0)
(0.00359409 0.0322676 0)
(-0.00254901 0.0168282 0)
(0.00484993 -0.0284332 0)
(0.0051375 -0.0659702 0)
(0.000897564 -0.0849317 0)
(-0.00513947 -0.0891149 0)
(-0.0136584 -0.0808068 0)
(-0.0156743 -0.0599319 0)
(-0.00963235 -0.0334122 0)
(-0.00217935 -0.0157089 0)
(-0.00279252 -0.00407341 0)
(0.00504768 -0.00495239 0)
(0.00253566 -0.0170285 0)
(0.0120355 -0.036897 0)
(0.0166137 -0.0665077 0)
(0.0161436 -0.0923485 0)
(0.0102197 -0.10573 0)
(0.00175263 -0.101315 0)
(-0.000795695 -0.0817862 0)
(-0.00275479 -0.0511124 0)
(0.00516183 -0.0038931 0)
(0.0127656 0.0259207 0)
(0.0109473 0.0361487 0)
(0.0127821 0.0152597 0)
(0.0243766 0.000516495 0)
(0.0149403 -0.00873769 0)
(-0.00296275 -0.0144299 0)
(-0.00483903 -0.0209079 0)
(0.0143045 -0.0156755 0)
(0.0255917 0.0225636 0)
(0.0165742 0.035011 0)
(0.0108131 0.0202474 0)
(0.0128644 -0.0239542 0)
(0.0102265 -0.0626944 0)
(0.000957174 -0.0819989 0)
(-0.00868164 -0.085345 0)
(-0.0196292 -0.0769469 0)
(-0.0209242 -0.0560215 0)
(-0.0145534 -0.032378 0)
(-0.00366812 -0.0153887 0)
(-0.00434164 -0.00315134 0)
(0.00706457 -0.00487286 0)
(0.00503204 -0.0172109 0)
(0.0174626 -0.0338561 0)
(0.0215634 -0.0611134 0)
(0.017029 -0.0871166 0)
(0.00826249 -0.0979499 0)
(-0.00330733 -0.097429 0)
(-0.00991979 -0.080365 0)
(-0.0139108 -0.050062 0)
(-0.00886752 -0.00751027 0)
(0.00119009 0.0197243 0)
(0.0131955 0.030948 0)
(0.0179207 0.00966734 0)
(0.0313262 0.000345966 0)
(0.0262774 -0.00825783 0)
(0.0159924 -0.0163139 0)
(0.0105709 -0.0232791 0)
(0.0217207 -0.0307852 0)
(0.0284531 0.0201384 0)
(0.0302711 0.0392984 0)
(0.0224827 0.0259199 0)
(0.0213866 -0.01681 0)
(0.0158533 -0.0607613 0)
(0.00253546 -0.0785483 0)
(-0.00846265 -0.0816841 0)
(-0.0195403 -0.0740135 0)
(-0.0233323 -0.0538213 0)
(-0.0169699 -0.0299949 0)
(-0.00410646 -0.014853 0)
(-0.00590822 -0.0022149 0)
(0.00872917 -0.00515244 0)
(0.00627618 -0.0180939 0)
(0.0201308 -0.0332458 0)
(0.0251317 -0.0587307 0)
(0.0227074 -0.0836114 0)
(0.0090404 -0.0898061 0)
(-0.0115968 -0.0901303 0)
(-0.0259656 -0.0765355 0)
(-0.0273366 -0.0477293 0)
(-0.0201337 -0.0128453 0)
(-0.00799247 0.00844171 0)
(0.00736294 0.0155226 0)
(0.0162078 0.00874346 0)
(0.029944 -0.0113714 0)
(0.044472 -0.0162568 0)
(0.0412705 -0.0243335 0)
(0.0421238 -0.0365405 0)
(0.0368898 -0.0423976 0)
(0.0348517 0.0116655 0)
(0.041787 0.0406106 0)
(0.0313191 0.0295318 0)
(0.0316124 -0.00950674 0)
(0.0216726 -0.0559232 0)
(0.00375963 -0.0764919 0)
(-0.00687026 -0.0809626 0)
(-0.0166228 -0.0709232 0)
(-0.021583 -0.0498488 0)
(-0.0157634 -0.0279662 0)
(-0.00270335 -0.0141099 0)
(-0.00655571 -0.000929511 0)
(0.00980236 -0.00875453 0)
(0.00836915 -0.0190467 0)
(0.0223111 -0.0322125 0)
(0.0278775 -0.0523648 0)
(0.0193217 -0.0799987 0)
(0.00682777 -0.0868378 0)
(-0.0134957 -0.0881823 0)
(-0.0373193 -0.0757976 0)
(-0.0414762 -0.0415366 0)
(-0.0303298 -0.0133862 0)
(-0.0159156 0.00155636 0)
(0.00096103 0.00742003 0)
(0.0196952 -0.00364203 0)
(0.0307238 -0.00480682 0)
(0.0521229 -0.0153831 0)
(0.0577239 -0.029273 0)
(0.0655914 -0.0420057 0)
(0.0461104 -0.050309 0)
(0.0386461 0.00580334 0)
(0.046802 0.0418365 0)
(0.0402691 0.0367404 0)
(0.0408707 -0.00219561 0)
(0.0270308 -0.048757 0)
(0.00888235 -0.0717256 0)
(-0.00561648 -0.0776435 0)
(-0.0162574 -0.0666573 0)
(-0.0274565 -0.0412634 0)
(-0.0210141 -0.0258911 0)
(-0.00698446 -0.0148623 0)
(-0.00872978 -0.000805903 0)
(0.00836849 -0.0217882 0)
(0.0125299 -0.0272771 0)
(0.0293027 -0.0292354 0)
(0.0365301 -0.0446863 0)
(0.0226304 -0.0767502 0)
(0.00389101 -0.09449 0)
(-0.0220938 -0.0918703 0)
(-0.0404281 -0.0781281 0)
(-0.0492666 -0.0385706 0)
(-0.0388022 -0.0135806 0)
(-0.0211724 -0.00861925 0)
(-0.000478584 -0.00647876 0)
(0.0220068 -0.022659 0)
(0.0364595 -0.0161516 0)
(0.0597855 -0.0231074 0)
(0.0666683 -0.0310502 0)
(0.0755333 -0.0435198 0)
(0.0553499 -0.055936 0)
(0.0372573 0.00658136 0)
(0.0497989 0.0414704 0)
(0.0466098 0.0414747 0)
(0.0477927 0.00591685 0)
(0.037351 -0.041269 0)
(0.0160692 -0.0681707 0)
(-0.00780913 -0.0746283 0)
(-0.0266078 -0.0581618 0)
(-0.041081 -0.0307407 0)
(-0.0317869 -0.0210454 0)
(-0.0147068 -0.0159073 0)
(-0.0122342 -0.00392783 0)
(0.00684627 -0.0234645 0)
(0.0150176 -0.0479598 0)
(0.0280746 -0.0460328 0)
(0.0422593 -0.0465704 0)
(0.0276713 -0.0728011 0)
(0.00731912 -0.0946215 0)
(-0.0208608 -0.10312 0)
(-0.043318 -0.0892644 0)
(-0.0502092 -0.05044 0)
(-0.0405668 -0.0321829 0)
(-0.0198456 -0.0308022 0)
(0.00612875 -0.033321 0)
(0.0273754 -0.0517412 0)
(0.0462096 -0.050648 0)
(0.0640647 -0.045403 0)
(0.0707605 -0.0469438 0)
(0.073958 -0.0567445 0)
(0.0602497 -0.0563839 0)
(0.0327971 -0.00169068 0)
(0.0489834 0.03712 0)
(0.0491051 0.0410826 0)
(0.059009 0.0136945 0)
(0.0486911 -0.0388231 0)
(0.0151923 -0.0749317 0)
(-0.0195103 -0.0662388 0)
(-0.0365131 -0.0474992 0)
(-0.0487708 -0.0318807 0)
(-0.0369828 -0.0305761 0)
(-0.0220012 -0.0238237 0)
(-0.0159035 -0.00937071 0)
(0.00476315 -0.0123659 0)
(0.0148604 -0.0447855 0)
(0.0241561 -0.0737462 0)
(0.0278044 -0.0789002 0)
(0.014607 -0.0873664 0)
(-0.00535485 -0.104914 0)
(-0.0245623 -0.113982 0)
(-0.0400604 -0.118882 0)
(-0.0440503 -0.0906205 0)
(-0.0332172 -0.0730355 0)
(-0.0117219 -0.0759381 0)
(0.0104014 -0.0780628 0)
(0.0336426 -0.100361 0)
(0.0483351 -0.0928202 0)
(0.0634302 -0.0779577 0)
(0.0710536 -0.0718999 0)
(0.0718815 -0.0693677 0)
(0.0569241 -0.0612353 0)
(0.0318448 -0.0083418 0)
(0.0459886 0.0284195 0)
(0.0497529 0.0322698 0)
(0.0632404 0.00462787 0)
(0.0443957 -0.0502775 0)
(0.011933 -0.0741221 0)
(-0.0130455 -0.068122 0)
(-0.0328678 -0.053467 0)
(-0.0418771 -0.0522327 0)
(-0.0384158 -0.0571165 0)
(-0.0280131 -0.0387216 0)
(-0.0188575 -0.0216543 0)
(0.00525565 -0.0183905 0)
(0.0121725 -0.0514588 0)
(0.0122956 -0.0880062 0)
(0.00387258 -0.0989749 0)
(-0.00739543 -0.101074 0)
(-0.0218252 -0.101281 0)
(-0.0375903 -0.109125 0)
(-0.041657 -0.13148 0)
(-0.0361967 -0.130529 0)
(-0.0291795 -0.113839 0)
(-0.0121506 -0.103862 0)
(0.00992136 -0.110607 0)
(0.0291316 -0.129108 0)
(0.0406813 -0.12678 0)
(0.0545729 -0.110596 0)
(0.0605683 -0.0960376 0)
(0.0614462 -0.0765128 0)
(0.0491115 -0.0538353 0)
(0.02886 -0.020529 0)
(0.0390041 0.0155971 0)
(0.0548271 0.00454239 0)
(0.045364 -0.0249793 0)
(0.040598 -0.0447656 0)
(0.01818 -0.0649348 0)
(-0.00392874 -0.0684365 0)
(-0.0208506 -0.0768943 0)
(-0.0298087 -0.084821 0)
(-0.0356707 -0.0885634 0)
(-0.0331376 -0.0717025 0)
(-0.0195671 -0.0551621 0)
(0.00972895 -0.0664474 0)
(0.0120132 -0.0863526 0)
(-0.0021595 -0.091706 0)
(-0.0115867 -0.0876538 0)
(-0.0212592 -0.0862319 0)
(-0.0278755 -0.0857771 0)
(-0.031136 -0.104687 0)
(-0.0351739 -0.133365 0)
(-0.039382 -0.142388 0)
(-0.0284864 -0.133392 0)
(-0.0158101 -0.120216 0)
(0.00322072 -0.120007 0)
(0.0243821 -0.138994 0)
(0.0359337 -0.14134 0)
(0.0501817 -0.126227 0)
(0.0527215 -0.109024 0)
(0.0488561 -0.0822959 0)
(0.0400263 -0.0445349 0)
(0.0314094 -0.0234822 0)
(0.039285 -0.00492019 0)
(0.0421287 -0.0144676 0)
(0.0344169 -0.0281381 0)
(0.0316885 -0.0405824 0)
(0.0145138 -0.0629526 0)
(0.00279952 -0.0739372 0)
(-0.00546968 -0.0831821 0)
(-0.011255 -0.0951893 0)
(-0.0162073 -0.108553 0)
(-0.0210111 -0.119296 0)
(-0.01486 -0.108301 0)
(0.00798815 -0.086548 0)
(0.00324801 -0.0911523 0)
(-0.00268044 -0.0821066 0)
(-0.0114302 -0.0769692 0)
(-0.0187115 -0.0779221 0)
(-0.0191223 -0.0834534 0)
(-0.0190765 -0.10461 0)
(-0.0196109 -0.130624 0)
(-0.0268473 -0.143388 0)
(-0.0351109 -0.140386 0)
(-0.0207424 -0.124375 0)
(-0.00238992 -0.122191 0)
(0.0191836 -0.140133 0)
(0.0311461 -0.139409 0)
(0.0451811 -0.125998 0)
(0.0465974 -0.104641 0)
(0.0379638 -0.0791171 0)
(0.0356754 -0.0396256 0)
(0.0368248 -0.0260422 0)
(0.0350985 -0.0273221 0)
(0.0319291 -0.0255109 0)
(0.0260862 -0.0326771 0)
(0.0222668 -0.0412621 0)
(0.0111401 -0.0648875 0)
(0.00245538 -0.0816451 0)
(0.00221859 -0.0834174 0)
(-0.00157665 -0.092868 0)
(-0.00490241 -0.109059 0)
(-0.00541848 -0.128589 0)
(-0.00696746 -0.128736 0)
(0.00307327 -0.0816081 0)
(-0.00276365 -0.0833184 0)
(-0.00638302 -0.0726784 0)
(-0.0120994 -0.0683893 0)
(-0.00973783 -0.0746874 0)
(-0.00208024 -0.0896859 0)
(0.000226383 -0.108596 0)
(-0.00154621 -0.131334 0)
(-0.00967687 -0.142354 0)
(-0.0244582 -0.143425 0)
(-0.028849 -0.130023 0)
(-0.00714529 -0.122353 0)
(0.0105952 -0.136432 0)
(0.0215946 -0.13234 0)
(0.0334756 -0.120015 0)
(0.0322297 -0.093683 0)
(0.0253912 -0.0680077 0)
(0.0338131 -0.0433851 0)
(0.0454543 -0.0302753 0)
(0.0380462 -0.0392727 0)
(0.026513 -0.0344514 0)
(0.0175025 -0.038777 0)
(0.0123148 -0.0436209 0)
(0.00520479 -0.0691539 0)
(-0.00445709 -0.0887083 0)
(0.000617334 -0.0825895 0)
(0.00375719 -0.0860915 0)
(0.00102511 -0.10156 0)
(-2.34855e-05 -0.121147 0)
(-0.000868125 -0.124963 0)
(0.00316161 -0.0714546 0)
(0.000986667 -0.0744581 0)
(-0.00729039 -0.0640023 0)
(-0.00571437 -0.0660919 0)
(0.00536167 -0.0799507 0)
(0.0139457 -0.0973608 0)
(0.0164271 -0.114314 0)
(0.0136714 -0.135112 0)
(0.00465127 -0.139287 0)
(-0.0102358 -0.139114 0)
(-0.0257114 -0.137367 0)
(-0.0214114 -0.130694 0)
(-0.00461306 -0.132362 0)
(0.00773358 -0.123714 0)
(0.0182054 -0.107424 0)
(0.0145064 -0.0810026 0)
(0.0129341 -0.0553481 0)
(0.0287617 -0.0411283 0)
(0.0453071 -0.0349469 0)
(0.0429761 -0.0422721 0)
(0.0260304 -0.0407956 0)
(0.012506 -0.0413478 0)
(0.00650693 -0.0477857 0)
(0.000509112 -0.0671752 0)
(-0.00559565 -0.0871649 0)
(-0.00911228 -0.0879861 0)
(0.00105486 -0.083682 0)
(0.00470834 -0.0931123 0)
(-0.000618127 -0.112953 0)
(0.00198842 -0.116644 0)
(-0.000279072 -0.0652976 0)
(-0.000310935 -0.0612642 0)
(-0.00130765 -0.0581423 0)
(0.0123981 -0.0707858 0)
(0.0252175 -0.0896497 0)
(0.0288359 -0.103507 0)
(0.0297957 -0.120083 0)
(0.0266709 -0.137853 0)
(0.0156786 -0.141207 0)
(-0.00017958 -0.137874 0)
(-0.0144439 -0.132278 0)
(-0.0242205 -0.128626 0)
(-0.0175949 -0.130613 0)
(-0.00364491 -0.118604 0)
(0.00201303 -0.0928405 0)
(-0.000202111 -0.0699922 0)
(0.00711566 -0.0479964 0)
(0.0221779 -0.0395262 0)
(0.0424236 -0.0373363 0)
(0.0465905 -0.0447467 0)
(0.0332649 -0.0469022 0)
(0.0133591 -0.0468753 0)
(0.00719832 -0.0498484 0)
(-0.00271645 -0.0623487 0)
(-0.00514047 -0.0751036 0)
(-0.0179205 -0.0905542 0)
(-0.0108597 -0.086845 0)
(0.00367871 -0.086653 0)
(0.00429927 -0.0970236 0)
(0.00572143 -0.103823 0)
(-0.0122949 -0.0569999 0)
(0.00397772 -0.0543589 0)
(0.0158662 -0.0662112 0)
(0.0351827 -0.0836803 0)
(0.041725 -0.0962119 0)
(0.0424665 -0.108179 0)
(0.0415986 -0.124346 0)
(0.0363431 -0.139829 0)
(0.0237773 -0.14073 0)
(0.00827773 -0.138938 0)
(-0.00774721 -0.131112 0)
(-0.0180984 -0.123999 0)
(-0.0208909 -0.124123 0)
(-0.0157889 -0.114195 0)
(-0.00746889 -0.0902018 0)
(-0.00417596 -0.0720305 0)
(0.00441491 -0.04476 0)
(0.0206068 -0.0385119 0)
(0.0406064 -0.0396344 0)
(0.0454057 -0.0461185 0)
(0.0408149 -0.0505547 0)
(0.0251798 -0.0462658 0)
(0.0120274 -0.0501181 0)
(-0.00845378 -0.0585486 0)
(-0.00639452 -0.0630132 0)
(-0.0122059 -0.0785657 0)
(-0.0221375 -0.0937181 0)
(-0.00826041 -0.0910424 0)
(0.00187067 -0.0859103 0)
(0.0103602 -0.0879154 0)
(-0.011613 -0.0386015 0)
(0.00253 -0.0565707 0)
(0.0243413 -0.0780053 0)
(0.03945 -0.0863185 0)
(0.0443129 -0.0923164 0)
(0.0434116 -0.10349 0)
(0.0449509 -0.120998 0)
(0.0418326 -0.138282 0)
(0.0299175 -0.140481 0)
(0.0141257 -0.136788 0)
(-0.00324622 -0.129817 0)
(-0.016066 -0.121168 0)
(-0.0193442 -0.116552 0)
(-0.0220639 -0.114721 0)
(-0.0119851 -0.0908128 0)
(-0.0103415 -0.0774938 0)
(0.0047529 -0.0438486 0)
(0.0213277 -0.0412961 0)
(0.0384883 -0.0457324 0)
(0.0447938 -0.0460881 0)
(0.0413329 -0.0475091 0)
(0.0370727 -0.0448064 0)
(0.0212669 -0.045373 0)
(-0.0101409 -0.0486996 0)
(-0.00727703 -0.0536028 0)
(-0.00866852 -0.0653819 0)
(-0.0200324 -0.0871976 0)
(-0.0175956 -0.0955181 0)
(-0.0042018 -0.086386 0)
(0.0091233 -0.0692076 0)
(0.00151731 -0.0286135 0)
(0.0114369 -0.0650754 0)
(0.0255652 -0.0810469 0)
(0.0346379 -0.085661 0)
(0.036905 -0.0845226 0)
(0.0345232 -0.0954651 0)
(0.0369182 -0.114843 0)
(0.0394916 -0.132625 0)
(0.0315727 -0.140869 0)
(0.0176425 -0.137075 0)
(-0.000167563 -0.127332 0)
(-0.0144833 -0.119776 0)
(-0.0185689 -0.111528 0)
(-0.0225786 -0.113621 0)
(-0.0165435 -0.0872464 0)
(-0.00821293 -0.0790327 0)
(0.00581877 -0.045511 0)
(0.0218742 -0.047466 0)
(0.0351772 -0.050163 0)
(0.0406693 -0.0467393 0)
(0.0377382 -0.0431072 0)
(0.0364061 -0.0398967 0)
(0.031276 -0.0400428 0)
(-0.00186501 -0.0413407 0)
(-0.00677097 -0.048316 0)
(-0.00772365 -0.0575987 0)
(-0.0175563 -0.0796956 0)
(-0.0180207 -0.096804 0)
(-0.0113639 -0.0961127 0)
(-0.00439748 -0.0612524 0)
(0.00979845 -0.0358328 0)
(0.0156563 -0.0712055 0)
(0.0260778 -0.0801563 0)
(0.0322587 -0.0771659 0)
(0.0330235 -0.0749447 0)
(0.0321994 -0.0874477 0)
(0.0326832 -0.1079 0)
(0.0332415 -0.124978 0)
(0.0299065 -0.137639 0)
(0.0178619 -0.139854 0)
(0.00100278 -0.12808 0)
(-0.013993 -0.117633 0)
(-0.0202173 -0.11027 0)
(-0.0221978 -0.112701 0)
(-0.0209209 -0.0933034 0)
(-0.00445149 -0.0791001 0)
(0.00557646 -0.05243 0)
(0.0199449 -0.0547527 0)
(0.0297892 -0.0554414 0)
(0.0327427 -0.0483456 0)
(0.0333443 -0.0387116 0)
(0.0309287 -0.0362081 0)
(0.0343083 -0.0359316 0)
(0.00364073 -0.0384033 0)
(-0.00464725 -0.0446362 0)
(-0.00746464 -0.0532509 0)
(-0.0143457 -0.0728963 0)
(-0.0194051 -0.0979768 0)
(-0.0151146 -0.104531 0)
(-0.0139466 -0.0785867 0)
(0.0150302 -0.0473154 0)
(0.0183727 -0.0814304 0)
(0.0253628 -0.084286 0)
(0.0317134 -0.0771867 0)
(0.0345733 -0.0744654 0)
(0.0355258 -0.0848161 0)
(0.0352928 -0.0986131 0)
(0.0291439 -0.121037 0)
(0.0249731 -0.136206 0)
(0.0177083 -0.142557 0)
(0.00187728 -0.139911 0)
(-0.0148856 -0.118986 0)
(-0.0217833 -0.109839 0)
(-0.0239451 -0.11424 0)
(-0.0243282 -0.10434 0)
(-0.0108189 -0.0792304 0)
(0.00102003 -0.0577738 0)
(0.0134099 -0.063593 0)
(0.0212265 -0.0593291 0)
(0.0216824 -0.0519128 0)
(0.0231139 -0.053232 0)
(0.0234248 -0.0385783 0)
(0.0281246 -0.0309366 0)
(0.00946191 -0.0306913 0)
(-0.00437798 -0.0420524 0)
(-0.00957508 -0.052081 0)
(-0.0164692 -0.0738632 0)
(-0.0218893 -0.102717 0)
(-0.016788 -0.114792 0)
(-0.016491 -0.091931 0)
(0.0175955 -0.0683789 0)
(0.0199966 -0.0945805 0)
(0.0263477 -0.0907715 0)
(0.0335298 -0.0809822 0)
(0.0349126 -0.076847 0)
(0.0372 -0.0856199 0)
(0.035572 -0.0991326 0)
(0.0286911 -0.118481 0)
(0.0219934 -0.136368 0)
(0.0139897 -0.143833 0)
(0.00497473 -0.148988 0)
(-0.0133747 -0.140005 0)
(-0.0249708 -0.113024 0)
(-0.0264777 -0.114963 0)
(-0.0279673 -0.108961 0)
(-0.0229328 -0.0877106 0)
(-0.00588927 -0.0713341 0)
(0.00812687 -0.0759997 0)
(0.0158703 -0.0757981 0)
(0.0124066 -0.0807132 0)
(0.0117088 -0.0599152 0)
(0.0164202 -0.0368461 0)
(0.0234553 -0.0226664 0)
(0.0231672 -0.0185007 0)
(0.00235782 -0.0304784 0)
(-0.0088896 -0.0475793 0)
(-0.0177658 -0.0731843 0)
(-0.0202401 -0.104369 0)
(-0.0155876 -0.122935 0)
(-0.0171799 -0.106596 0)
(0.0185539 -0.0875196 0)
(0.0213129 -0.102925 0)
(0.0279095 -0.0959218 0)
(0.0348015 -0.0842013 0)
(0.0356819 -0.0808174 0)
(0.0383056 -0.0875427 0)
(0.034239 -0.099449 0)
(0.0281321 -0.116867 0)
(0.0181684 -0.134236 0)
(0.0124591 -0.144231 0)
(0.00594134 -0.149526 0)
(-0.00818876 -0.147881 0)
(-0.0257144 -0.133368 0)
(-0.0299428 -0.115325 0)
(-0.0300302 -0.108152 0)
(-0.025001 -0.094305 0)
(-0.0139082 -0.0893712 0)
(0.00355344 -0.104043 0)
(0.00444311 -0.117633 0)
(-0.00296534 -0.0929425 0)
(0.00202412 -0.0590104 0)
(0.00928951 -0.0303613 0)
(0.0177824 -0.0113672 0)
(0.0262063 -0.0047396 0)
(0.0219739 -0.0122709 0)
(-0.00110454 -0.0346928 0)
(-0.0151084 -0.0687282 0)
(-0.0170935 -0.104557 0)
(-0.0138713 -0.127528 0)
(-0.0158266 -0.11874 0)
(0.0189837 -0.104495 0)
(0.0221191 -0.111584 0)
(0.0290122 -0.101782 0)
(0.0343572 -0.0884471 0)
(0.0336714 -0.0856721 0)
(0.035949 -0.0895336 0)
(0.0346176 -0.0968386 0)
(0.0265533 -0.112766 0)
(0.0183467 -0.132603 0)
(0.01177 -0.142536 0)
(0.00619622 -0.146842 0)
(-0.00597988 -0.143213 0)
(-0.0230495 -0.132975 0)
(-0.0326379 -0.118692 0)
(-0.031907 -0.107848 0)
(-0.025307 -0.0969533 0)
(-0.0139984 -0.106629 0)
(-0.0131298 -0.175956 0)
(-0.0206431 -0.145907 0)
(-0.0177547 -0.0982483 0)
(-0.010506 -0.0573605 0)
(0.000620792 -0.0236749 0)
(0.0113459 -0.00116308 0)
(0.0244445 0.00862255 0)
(0.0314341 0.00338818 0)
(0.0208107 -0.0149204 0)
(-0.00491127 -0.0596363 0)
(-0.0161202 -0.107258 0)
(-0.0133325 -0.131172 0)
(-0.0146358 -0.128411 0)
(0.0194989 -0.12187 0)
(0.0218286 -0.121689 0)
(0.0300766 -0.10918 0)
(0.035767 -0.0945261 0)
(0.0318998 -0.0899442 0)
(0.0323623 -0.0960412 0)
(0.0340405 -0.101757 0)
(0.0305001 -0.118381 0)
(0.0182451 -0.132635 0)
(0.0112413 -0.142105 0)
(0.00598631 -0.141405 0)
(-0.00591292 -0.136183 0)
(-0.0223349 -0.127755 0)
(-0.0324696 -0.116679 0)
(-0.0340094 -0.108777 0)
(-0.0274935 -0.10345 0)
(-0.0186771 -0.138187 0)
(-0.027379 -0.196444 0)
(-0.042025 -0.157514 0)
(-0.0349787 -0.106875 0)
(-0.0246479 -0.0568667 0)
(-0.0110202 -0.0171524 0)
(0.00165377 0.0102603 0)
(0.0215778 0.0239263 0)
(0.0325577 0.02116 0)
(0.0295844 -0.00108775 0)
(0.0175035 -0.0433886 0)
(-0.0136618 -0.100008 0)
(-0.0144628 -0.126525 0)
(-0.0138738 -0.13579 0)
(0.0177175 -0.137924 0)
(0.0209909 -0.131685 0)
(0.0294402 -0.116516 0)
(0.0350446 -0.0967521 0)
(0.0298579 -0.0901518 0)
(0.0426008 -0.0971905 0)
(0.045924 -0.123944 0)
(0.0429236 -0.159979 0)
(0.0195323 -0.173987 0)
(0.00984528 -0.15939 0)
(0.00352792 -0.141284 0)
(-0.00540539 -0.13008 0)
(-0.0206515 -0.122684 0)
(-0.0311577 -0.113691 0)
(-0.0342834 -0.108155 0)
(-0.0294412 -0.108024 0)
(-0.0214692 -0.159716 0)
(-0.0381348 -0.212966 0)
(-0.0554802 -0.162301 0)
(-0.0469836 -0.124875 0)
(-0.0373112 -0.0633402 0)
(-0.0223049 -0.019286 0)
(-0.00750983 0.0121237 0)
(0.0156444 0.0332612 0)
(0.0322634 0.0371589 0)
(0.0272389 0.0107725 0)
(0.00189915 -0.0519947 0)
(-0.0167764 -0.0968772 0)
(-0.0137626 -0.122613 0)
(-0.0127515 -0.136965 0)
(0.0143658 -0.151139 0)
(0.0176109 -0.140506 0)
(0.0245076 -0.119734 0)
(0.0286474 -0.0986694 0)
(0.032517 -0.093202 0)
(0.0475361 -0.110992 0)
(0.0479616 -0.140296 0)
(0.0520158 -0.184922 0)
(0.0373988 -0.214191 0)
(0.0148876 -0.194959 0)
(0.000272732 -0.154022 0)
(-0.0034117 -0.123264 0)
(-0.0175782 -0.116523 0)
(-0.0283042 -0.110007 0)
(-0.0322688 -0.107221 0)
(-0.0302642 -0.112286 0)
(-0.0239325 -0.169612 0)
(-0.0461551 -0.215568 0)
(-0.0630759 -0.157923 0)
(-0.0565813 -0.123563 0)
(-0.0483745 -0.0643318 0)
(-0.0304263 -0.0196398 0)
(-0.0158488 0.0129273 0)
(0.00894324 0.0378877 0)
(0.0275197 0.0437979 0)
(0.0164057 0.00625946 0)
(-0.0169546 -0.0587186 0)
(-0.018857 -0.0939327 0)
(-0.0147187 -0.127465 0)
(-0.0132066 -0.144857 0)
(0.00943509 -0.159938 0)
(0.0131642 -0.147382 0)
(0.0159673 -0.121618 0)
(0.0224518 -0.112593 0)
(0.0382523 -0.115493 0)
(0.0498355 -0.151869 0)
(0.0562428 -0.192745 0)
(0.0616088 -0.241859 0)
(0.0579038 -0.265808 0)
(0.0369685 -0.23385 0)
(0.00864965 -0.16509 0)
(0.0010626 -0.116302 0)
(-0.0124376 -0.109779 0)
(-0.0240697 -0.1056 0)
(-0.0282353 -0.10535 0)
(-0.0291897 -0.112433 0)
(-0.0248546 -0.176598 0)
(-0.0498853 -0.208671 0)
(-0.0687032 -0.150889 0)
(-0.0684723 -0.117807 0)
(-0.059646 -0.0691509 0)
(-0.037345 -0.0207241 0)
(-0.0222643 0.0107034 0)
(0.00181275 0.0366155 0)
(0.0260741 0.0488353 0)
(0.0219412 0.0211058 0)
(-0.0123023 -0.0412001 0)
(-0.0145389 -0.0876613 0)
(-0.0120395 -0.131951 0)
(-0.00967753 -0.156363 0)
(0.00162302 -0.165381 0)
(0.00665598 -0.153117 0)
(0.00972083 -0.135815 0)
(0.0218533 -0.132794 0)
(0.0370132 -0.148905 0)
(0.0423808 -0.199936 0)
(0.0450837 -0.232351 0)
(0.0574949 -0.254554 0)
(0.067999 -0.271837 0)
(0.0664269 -0.278067 0)
(0.0333466 -0.224449 0)
(0.005708 -0.118067 0)
(-0.00497702 -0.103749 0)