/*--------------------------------*- C++ -*----------------------------------*\
| =========                 |                                                 |
| \\      /  F ield         | OpenFOAM: The Open Source CFD Toolbox           |
|  \\    /   O peration     | Version:  v1606+                                |
|   \\  /    A nd           | Web:      www.OpenFOAM.com                      |
|    \\/     M anipulation  |                                                 |
\*---------------------------------------------------------------------------*/
FoamFile
{
    version     2.0;
    format      ascii;
    class       surfaceScalarField;
    location    "0.0043";
    object      phi;
}
// * * * * * * * * * * * * * * * * * * * * * * * * * * * * * * * * * * * * * //

dimensions      [1 0 -1 0 0 0 0];

internalField   nonuniform List<scalar> 
4795
(
-5.01618e-09
-4.85958e-09
-1.40746e-08
-6.65414e-10
-3.19566e-08
8.49245e-09
-4.59591e-08
4.95135e-09
-6.41746e-08
9.14152e-09
-8.54963e-08
2.49495e-08
1.64591e-07
-4.46405e-08
1.58177e-06
2.53176e-07
2.33988e-06
1.85265e-07
2.50813e-06
2.16607e-07
2.51246e-06
2.39728e-07
2.40589e-06
2.11565e-07
2.24731e-06
1.78863e-07
2.09155e-06
1.49203e-07
1.94961e-06
1.2561e-07
1.8248e-06
1.06907e-07
1.71752e-06
9.2188e-08
1.62431e-06
8.00804e-08
1.54241e-06
7.00041e-08
1.46957e-06
6.15244e-08
1.40403e-06
5.43139e-08
1.34439e-06
4.81242e-08
1.28961e-06
4.27652e-08
1.23888e-06
3.80909e-08
1.19157e-06
3.39882e-08
1.14724e-06
3.0368e-08
1.10552e-06
2.71598e-08
1.06613e-06
2.43051e-08
1.02883e-06
2.17565e-08
9.93397e-07
1.94746e-08
9.59645e-07
1.7425e-08
9.27385e-07
1.55787e-08
8.96441e-07
1.39105e-08
8.66646e-07
1.23982e-08
8.37847e-07
1.10229e-08
8.09905e-07
9.76759e-09
7.82695e-07
8.61808e-09
7.56112e-07
7.56184e-09
7.30067e-07
6.58709e-09
7.04485e-07
5.68633e-09
6.79309e-07
4.85112e-09
6.54488e-07
4.07544e-09
6.29988e-07
3.34827e-09
6.05779e-07
2.67108e-09
5.81834e-07
2.03449e-09
5.58131e-07
1.43592e-09
5.34643e-07
8.76617e-10
5.11351e-07
3.45347e-10
4.88225e-07
-1.50661e-10
4.65244e-07
-6.26231e-10
4.42374e-07
-1.07059e-09
4.19589e-07
-1.49643e-09
3.96856e-07
-1.89723e-09
3.74141e-07
-2.27491e-09
3.51415e-07
-2.63349e-09
3.28648e-07
-2.96993e-09
3.05813e-07
-3.28658e-09
2.82891e-07
-3.58547e-09
2.59865e-07
-3.86748e-09
2.3672e-07
-4.12541e-09
2.13449e-07
-4.36562e-09
1.90049e-07
-4.58285e-09
1.66526e-07
-4.783e-09
1.42886e-07
-4.95764e-09
1.19148e-07
-5.11298e-09
9.53366e-08
-5.24658e-09
7.14869e-08
-5.36203e-09
4.76432e-08
-5.46232e-09
2.3813e-08
-5.52126e-09
-5.55282e-09
6.51144e-10
-1.57472e-08
-2.92692e-09
-7.09438e-09
-1.44761e-08
1.05361e-08
-2.54117e-08
7.0411e-09
-4.1006e-08
1.65385e-08
-4.09783e-08
2.41515e-08
3.17421e-07
-9.02977e-08
1.56935e-06
2.88841e-07
2.32293e-06
4.61061e-07
2.52031e-06
4.85621e-07
2.50235e-06
4.53409e-07
2.37839e-06
3.99235e-07
2.21797e-06
3.40509e-07
2.06709e-06
2.88969e-07
1.93115e-06
2.46156e-07
1.80976e-06
2.10484e-07
1.70518e-06
1.81731e-07
1.61407e-06
1.5809e-07
1.53381e-06
1.38365e-07
1.46227e-06
1.21728e-07
1.39777e-06
1.07553e-07
1.33899e-06
9.53631e-08
1.28491e-06
8.47934e-08
1.23475e-06
7.55624e-08
1.18794e-06
6.74512e-08
1.14402e-06
6.02872e-08
1.10266e-06
5.39331e-08
1.06358e-06
4.82756e-08
1.02654e-06
4.32216e-08
9.91347e-07
3.86944e-08
9.578e-07
3.46265e-08
9.25719e-07
3.09608e-08
8.94931e-07
2.76474e-08
8.65274e-07
2.46427e-08
8.36596e-07
2.19095e-08
8.08759e-07
1.94141e-08
7.81643e-07
1.71283e-08
7.55142e-07
1.50281e-08
7.2917e-07
1.30896e-08
7.03653e-07
1.12975e-08
6.78534e-07
9.63483e-09
6.53766e-07
8.08967e-09
6.29313e-07
6.64534e-09
6.05146e-07
5.29516e-09
5.8124e-07
4.02875e-09
5.57571e-07
2.83795e-09
5.34118e-07
1.72092e-09
5.10858e-07
6.63742e-10
4.87755e-07
-3.1756e-10
4.64804e-07
-1.27243e-09
4.41953e-07
-2.14762e-09
4.19193e-07
-3.00243e-09
3.96481e-07
-3.79813e-09
3.73787e-07
-4.5504e-09
3.51081e-07
-5.26359e-09
3.28333e-07
-5.93185e-09
3.05514e-07
-6.55978e-09
2.82615e-07
-7.16219e-09
2.59608e-07
-7.71796e-09
2.36482e-07
-8.23132e-09
2.13231e-07
-8.70855e-09
1.89849e-07
-9.1396e-09
1.66343e-07
-9.53585e-09
1.42719e-07
-9.88194e-09
1.18995e-07
-1.01876e-08
9.51978e-08
-1.04483e-08
7.13643e-08
-1.06669e-08
4.75425e-08
-1.08548e-08
2.37721e-08
-1.09876e-08
-1.10565e-08
1.30346e-10
-2.6817e-08
-5.53224e-10
-1.70134e-08
-1.12337e-08
1.13663e-08
-2.94593e-08
1.65501e-08
-8.99492e-08
6.97174e-08
-6.66672e-08
3.58375e-08
4.72009e-07
5.93407e-08
1.76447e-06
6.75717e-07
2.38592e-06
7.45214e-07
2.51636e-06
7.36385e-07
2.45555e-06
6.69493e-07
2.32171e-06
5.77867e-07
2.16648e-06
4.91321e-07
2.02315e-06
4.18447e-07
1.89483e-06
3.58305e-07
1.78031e-06
3.07489e-07
1.68095e-06
2.66234e-07
1.5939e-06
2.32151e-07
1.51682e-06
2.03585e-07
1.44782e-06
1.79398e-07
1.38535e-06
1.58722e-07
1.32823e-06
1.4089e-07
1.27551e-06
1.2539e-07
1.2265e-06
1.11826e-07
1.18065e-06
9.98867e-08
1.13756e-06
8.9326e-08
1.0969e-06
7.9947e-08
1.05844e-06
7.1587e-08
1.02194e-06
6.4112e-08
9.87207e-07
5.74104e-08
9.54067e-07
5.13844e-08
9.22344e-07
4.595e-08
8.9187e-07
4.10344e-08
8.62487e-07
3.65745e-08
8.3405e-07
3.25153e-08
8.06427e-07
2.88072e-08
7.79498e-07
2.54093e-08
7.53163e-07
2.22854e-08
7.27338e-07
1.94024e-08
7.01952e-07
1.67349e-08
6.76951e-07
1.42597e-08
6.5229e-07
1.19579e-08
6.27931e-07
9.80961e-09
6.0385e-07
7.79915e-09
5.80023e-07
5.91012e-09
5.56427e-07
4.13862e-09
5.33037e-07
2.47599e-09
5.09832e-07
9.0325e-10
4.86799e-07
-5.73411e-10
4.63891e-07
-1.9795e-09
4.411e-07
-3.29899e-09
4.18381e-07
-4.55931e-09
3.95711e-07
-5.74812e-09
3.73059e-07
-6.87073e-09
3.50393e-07
-7.93397e-09
3.27679e-07
-8.92396e-09
3.04912e-07
-9.87692e-09
2.82051e-07
-1.07647e-08
2.59084e-07
-1.15912e-08
2.36e-07
-1.23591e-08
2.12789e-07
-1.30676e-08
1.89447e-07
-1.37076e-08
1.65982e-07
-1.42969e-08
1.42399e-07
-1.48112e-08
1.18716e-07
-1.52621e-08
9.49592e-08
-1.56449e-08
7.11703e-08
-1.59614e-08
4.74e-08
-1.62154e-08
2.37012e-08
-1.64014e-08
-1.64891e-08
8.09168e-09
-4.70834e-08
1.566e-08
-3.6257e-08
8.56482e-09
7.87968e-09
-6.27906e-09
2.26733e-08
-4.49579e-08
1.23898e-07
4.52614e-08
1.04915e-07
1.07407e-06
6.44818e-07
1.88573e-06
1.02363e-06
2.35141e-06
1.04328e-06
2.43771e-06
9.69717e-07
2.36706e-06
8.54767e-07
2.23706e-06
7.32989e-07
2.09347e-06
6.24113e-07
1.96267e-06
5.32932e-07
1.84304e-06
4.57597e-07
1.7382e-06
3.95238e-07
1.64616e-06
3.43682e-07
1.56482e-06
3.00645e-07
1.49224e-06
2.64352e-07
1.42683e-06
2.33458e-07
1.36727e-06
2.06928e-07
1.31253e-06
1.83959e-07
1.26179e-06
1.63929e-07
1.21443e-06
1.46351e-07
1.16998e-06
1.30843e-07
1.12809e-06
1.17099e-07
1.08847e-06
1.04871e-07
1.0509e-06
9.39561e-08
1.01518e-06
8.41842e-08
9.81132e-07
7.54127e-08
9.48591e-07
6.7517e-08
9.17392e-07
6.03896e-08
8.87377e-07
5.39377e-08
8.58398e-07
4.80786e-08
8.30316e-07
4.27416e-08
8.03005e-07
3.78636e-08
7.76351e-07
3.3391e-08
7.50261e-07
2.92763e-08
7.24652e-07
2.54782e-08
6.99459e-07
2.19618e-08
6.74631e-07
1.86988e-08
6.50125e-07
1.56617e-08
6.25909e-07
1.28269e-08
6.01955e-07
1.01773e-08
5.78243e-07
7.68316e-09
5.54752e-07
5.34695e-09
5.31459e-07
3.15257e-09
5.08345e-07
1.07775e-09
4.85391e-07
-8.76892e-10
4.62562e-07
-2.72664e-09
4.39841e-07
-4.47525e-09
4.1719e-07
-6.13287e-09
3.94583e-07
-7.70122e-09
3.71991e-07
-9.18438e-09
3.49382e-07
-1.05855e-08
3.2674e-07
-1.1907e-08
3.04026e-07
-1.31559e-08
2.81222e-07
-1.43266e-08
2.58315e-07
-1.54191e-08
2.35291e-07
-1.6432e-08
2.1214e-07
-1.73649e-08
1.88866e-07
-1.82152e-08
1.65463e-07
-1.89848e-08
1.41946e-07
-1.96632e-08
1.18328e-07
-2.02533e-08
9.4641e-08
-2.07569e-08
7.0919e-08
-2.11601e-08
4.72224e-08
-2.1477e-08
2.36042e-08
-2.1704e-08
-2.18153e-08
2.30359e-09
-6.36562e-08
2.1432e-09
-4.95339e-08
2.22188e-09
-4.14999e-09
-6.61969e-09
5.58247e-08
3.56704e-08
1.9167e-07
4.42506e-07
4.44859e-07
1.47816e-06
1.16895e-06
2.01812e-06
1.31284e-06
2.32057e-06
1.2893e-06
2.33376e-06
1.15485e-06
2.24575e-06
9.97563e-07
2.12747e-06
8.57823e-07
2.00063e-06
7.32888e-07
1.88563e-06
6.31159e-07
1.77948e-06
5.44165e-07
1.68567e-06
4.72475e-07
1.60237e-06
4.1272e-07
1.52794e-06
3.62394e-07
1.4609e-06
3.19651e-07
1.39994e-06
2.83042e-07
1.34402e-06
2.51433e-07
1.29227e-06
2.23941e-07
1.24403e-06
1.99871e-07
1.19877e-06
1.78678e-07
1.15611e-06
1.59926e-07
1.11576e-06
1.43266e-07
1.07747e-06
1.28412e-07
1.04105e-06
1.15129e-07
1.00634e-06
1.03218e-07
9.73184e-07
9.25108e-08
9.41418e-07
8.28599e-08
9.109e-07
7.41378e-08
8.81484e-07
6.62337e-08
8.53032e-07
5.90485e-08
8.25413e-07
5.24975e-08
7.98509e-07
4.65058e-08
7.72217e-07
4.10073e-08
7.46446e-07
3.59453e-08
7.2112e-07
3.12714e-08
6.96182e-07
2.69412e-08
6.7158e-07
2.29222e-08
6.47277e-07
1.91808e-08
6.23246e-07
1.56843e-08
5.99461e-07
1.24184e-08
5.759e-07
9.34604e-09
5.52547e-07
6.46552e-09
5.29383e-07
3.75756e-09
5.06386e-07
1.20162e-09
4.83537e-07
-1.211e-09
4.60811e-07
-3.49135e-09
4.38181e-07
-5.64904e-09
4.1562e-07
-7.6918e-09
3.93099e-07
-9.62619e-09
3.70588e-07
-1.14553e-08
3.4806e-07
-1.31826e-08
3.25491e-07
-1.48172e-08
3.02855e-07
-1.63559e-08
2.8013e-07
-1.77987e-08
2.57302e-07
-1.91472e-08
2.34358e-07
-2.03946e-08
2.1129e-07
-2.15446e-08
1.88098e-07
-2.2593e-08
1.64783e-07
-2.35395e-08
1.41355e-07
-2.43752e-08
1.17829e-07
-2.50989e-08
9.42303e-08
-2.57123e-08
7.06066e-08
-2.62058e-08
4.70119e-08
-2.65842e-08
2.34981e-08
-2.6845e-08
-2.69767e-08
1.07824e-09
-5.05688e-08
2.37912e-08
-4.58162e-08
3.08316e-08
5.17337e-08
3.03764e-08
2.28212e-07
3.5643e-07
5.22443e-07
1.04269e-06
1.04358e-06
1.65516e-06
1.4446e-06
2.0509e-06
1.54893e-06
2.20858e-06
1.45648e-06
2.18779e-06
1.28209e-06
2.10718e-06
1.10903e-06
2.00144e-06
9.53184e-07
1.89754e-06
8.2043e-07
1.79729e-06
7.09293e-07
1.70655e-06
6.16155e-07
1.62485e-06
5.38181e-07
1.55124e-06
4.72436e-07
1.48457e-06
4.16574e-07
1.42379e-06
3.68748e-07
1.36794e-06
3.27497e-07
1.31621e-06
2.91663e-07
1.26795e-06
2.60331e-07
1.22262e-06
2.32776e-07
1.17984e-06
2.08419e-07
1.13931e-06
1.86795e-07
1.10078e-06
1.67529e-07
1.06408e-06
1.5031e-07
1.02906e-06
1.34878e-07
9.95564e-07
1.21014e-07
9.63471e-07
1.0853e-07
9.32643e-07
9.72598e-08
9.02949e-07
8.70601e-08
8.74259e-07
7.78048e-08
8.46445e-07
6.9382e-08
8.19389e-07
6.16938e-08
7.92983e-07
5.46551e-08
7.6713e-07
4.81908e-08
7.4175e-07
4.22346e-08
7.16772e-07
3.67328e-08
6.92145e-07
3.16311e-08
6.67822e-07
2.6896e-08
6.43768e-07
2.24882e-08
6.19964e-07
1.83609e-08
5.96384e-07
1.45102e-08
5.73011e-07
1.08864e-08
5.4983e-07
7.48784e-09
5.26823e-07
4.29238e-09
5.03968e-07
1.28e-09
4.81253e-07
-1.56976e-09
4.58649e-07
-4.25887e-09
4.36135e-07
-6.80664e-09
4.13684e-07
-9.2163e-09
3.91267e-07
-1.14996e-08
3.68859e-07
-1.36583e-08
3.46424e-07
-1.56909e-08
3.23952e-07
-1.76268e-08
3.01411e-07
-1.94418e-08
2.78784e-07
-2.11439e-08
2.56052e-07
-2.27326e-08
2.33207e-07
-2.42059e-08
2.10242e-07
-2.55616e-08
1.87155e-07
-2.67979e-08
1.6395e-07
-2.79149e-08
1.40631e-07
-2.88956e-08
1.17218e-07
-2.97473e-08
9.37349e-08
-3.0465e-08
7.02291e-08
-3.10439e-08
4.67577e-08
-3.14829e-08
2.33703e-08
-3.17794e-08
-3.19289e-08
-3.3599e-08
1.92039e-07
-2.04234e-10
2.25084e-07
1.44294e-07
4.12343e-07
5.04492e-07
9.38589e-07
9.85171e-07
1.29212e-06
1.48073e-06
1.65115e-06
1.78929e-06
1.7335e-06
1.98908e-06
1.69457e-06
2.04257e-06
1.53526e-06
2.01916e-06
1.35318e-06
1.95168e-06
1.17627e-06
1.86711e-06
1.01792e-06
1.7842e-06
8.84642e-07
1.70262e-06
7.69989e-07
1.62732e-06
6.73618e-07
1.55811e-06
5.92021e-07
1.49458e-06
5.22443e-07
1.43611e-06
4.62746e-07
1.38203e-06
4.11194e-07
1.33169e-06
3.6639e-07
1.28454e-06
3.2721e-07
1.24011e-06
2.92754e-07
1.19804e-06
2.62299e-07
1.15803e-06
2.35263e-07
1.11988e-06
2.11173e-07
1.08343e-06
1.8964e-07
1.04854e-06
1.70342e-07
1.0151e-06
1.53006e-07
9.82997e-07
1.37397e-07
9.52129e-07
1.23314e-07
9.22382e-07
1.10578e-07
8.9364e-07
9.90343e-08
8.65789e-07
8.85431e-08
8.38716e-07
7.89829e-08
8.12314e-07
7.02463e-08
7.86485e-07
6.22382e-08
7.61145e-07
5.48772e-08
7.36219e-07
4.80892e-08
7.1165e-07
4.1812e-08
6.87387e-07
3.59907e-08
6.63391e-07
3.05846e-08
6.39628e-07
2.55563e-08
6.16093e-07
2.08319e-08
5.92755e-07
1.64329e-08
5.69602e-07
1.22919e-08
5.46622e-07
8.40622e-09
5.23799e-07
4.75346e-09
5.01117e-07
1.30788e-09
4.78557e-07
-1.94814e-09
4.56098e-07
-5.02231e-09
4.33722e-07
-7.93764e-09
4.11398e-07
-1.06917e-08
3.89105e-07
-1.33035e-08
3.66816e-07
-1.57727e-08
3.44495e-07
-1.80903e-08
3.22137e-07
-2.03108e-08
2.99709e-07
-2.23847e-08
2.77194e-07
-2.43302e-08
2.54578e-07
-2.61459e-08
2.31851e-07
-2.78301e-08
2.09007e-07
-2.93799e-08
1.86045e-07
-3.07941e-08
1.62964e-07
-3.20648e-08
1.39778e-07
-3.3187e-08
1.16498e-07
-3.41566e-08
9.3155e-08
-3.4974e-08
6.97902e-08
-3.56326e-08
4.64629e-08
-3.61296e-08
2.32226e-08
-3.64622e-08
-3.66286e-08
6.9036e-08
1.49153e-06
3.28614e-07
1.56956e-06
8.16605e-07
1.79051e-06
9.6714e-07
1.84564e-06
1.29678e-06
1.94349e-06
1.53685e-06
1.98664e-06
1.75755e-06
1.92062e-06
1.83859e-06
1.74695e-06
1.86417e-06
1.56596e-06
1.84361e-06
1.38248e-06
1.79253e-06
1.20882e-06
1.73245e-06
1.05801e-06
1.66812e-06
9.26284e-07
1.60495e-06
8.13555e-07
1.54458e-06
7.17082e-07
1.48762e-06
6.34231e-07
1.43415e-06
5.6276e-07
1.38396e-06
5.00802e-07
1.33673e-06
4.46805e-07
1.29211e-06
3.99495e-07
1.24975e-06
3.5783e-07
1.20938e-06
3.20962e-07
1.17077e-06
2.88201e-07
1.13374e-06
2.58984e-07
1.09818e-06
2.32847e-07
1.06399e-06
2.09404e-07
1.03108e-06
1.88331e-07
9.99385e-07
1.69349e-07
9.68825e-07
1.52219e-07
9.39316e-07
1.36731e-07
9.1077e-07
1.22697e-07
8.8309e-07
1.09954e-07
8.56177e-07
9.83537e-08
8.29933e-07
8.77671e-08
8.04264e-07
7.80789e-08
7.79087e-07
6.91882e-08
7.54324e-07
6.10075e-08
7.29914e-07
5.34554e-08
7.05804e-07
4.64658e-08
6.81953e-07
3.99811e-08
6.58329e-07
3.39549e-08
6.349e-07
2.8355e-08
6.11669e-07
2.30748e-08
5.88608e-07
1.81682e-08
5.65705e-07
1.35506e-08
5.42956e-07
9.21057e-09
5.20343e-07
5.13404e-09
4.97856e-07
1.28675e-09
4.75475e-07
-2.34573e-09
4.53181e-07
-5.77509e-09
4.30962e-07
-9.03518e-09
4.08785e-07
-1.21057e-08
3.86632e-07
-1.50232e-08
3.64475e-07
-1.7778e-08
3.42294e-07
-2.03704e-08
3.20062e-07
-2.28439e-08
2.97763e-07
-2.51599e-08
2.75377e-07
-2.73315e-08
2.52893e-07
-2.9358e-08
2.30301e-07
-3.12375e-08
2.07594e-07
-3.29667e-08
1.84775e-07
-3.4546e-08
1.61841e-07
-3.59598e-08
1.38804e-07
-3.72108e-08
1.1568e-07
-3.82918e-08
9.24968e-08
-3.92024e-08
6.92939e-08
-3.99349e-08
4.61306e-08
-4.04843e-08
2.30553e-08
-4.08521e-08
-4.10358e-08
1.71228e-07
2.19623e-06
4.9486e-07
2.26037e-06
7.63799e-07
2.23981e-06
1.05301e-06
2.22097e-06
1.27626e-06
2.1435e-06
1.45537e-06
2.04597e-06
1.58583e-06
1.90275e-06
1.6635e-06
1.73504e-06
1.68241e-06
1.55356e-06
1.66964e-06
1.37708e-06
1.64085e-06
1.21838e-06
1.59957e-06
1.07528e-06
1.55422e-06
9.50565e-07
1.5074e-06
8.42028e-07
1.46081e-06
7.47659e-07
1.41538e-06
6.65496e-07
1.37154e-06
5.93765e-07
1.32942e-06
5.30914e-07
1.28896e-06
4.75619e-07
1.25006e-06
4.26765e-07
1.21256e-06
3.83424e-07
1.17635e-06
3.44827e-07
1.14132e-06
3.10339e-07
1.10741e-06
2.79434e-07
1.07457e-06
2.51671e-07
1.04277e-06
2.26679e-07
1.01198e-06
2.04142e-07
9.82148e-07
1.83785e-07
9.53242e-07
1.65367e-07
9.25201e-07
1.48675e-07
8.97955e-07
1.3352e-07
8.71427e-07
1.1973e-07
8.45534e-07
1.07156e-07
8.20195e-07
9.56619e-08
7.95329e-07
8.51273e-08
7.70865e-07
7.54471e-08
7.46736e-07
6.65307e-08
7.22894e-07
5.82882e-08
6.99291e-07
5.06554e-08
6.75895e-07
4.3569e-08
6.52673e-07
3.69871e-08
6.29636e-07
3.08385e-08
6.06737e-07
2.50757e-08
5.8398e-07
1.97047e-08
5.61354e-07
1.46516e-08
5.38863e-07
9.89137e-09
5.16486e-07
5.43002e-09
4.94215e-07
1.21609e-09
4.72029e-07
-2.75518e-09
4.49929e-07
-6.52201e-09
4.27882e-07
-1.00874e-08
4.05869e-07
-1.34489e-08
3.83873e-07
-1.66454e-08
3.61866e-07
-1.96609e-08
3.39833e-07
-2.25058e-08
3.17746e-07
-2.52092e-08
2.9559e-07
-2.77456e-08
2.7335e-07
-3.01238e-08
2.51013e-07
-3.23427e-08
2.28571e-07
-3.44003e-08
2.06018e-07
-3.62933e-08
1.83358e-07
-3.80237e-08
1.60589e-07
-3.95678e-08
1.37721e-07
-4.0937e-08
1.14773e-07
-4.21209e-08
9.17649e-08
-4.31127e-08
6.87434e-08
-4.39122e-08
4.57627e-08
-4.45128e-08
2.28707e-08
-4.49133e-08
-4.51131e-08
2.61755e-07
2.32739e-06
4.95348e-07
2.32104e-06
7.39934e-07
2.28923e-06
9.71498e-07
2.22954e-06
1.15862e-06
2.1206e-06
1.30257e-06
1.99244e-06
1.41444e-06
1.84593e-06
1.48109e-06
1.67991e-06
1.50643e-06
1.51112e-06
1.51103e-06
1.35352e-06
1.49733e-06
1.2073e-06
1.47405e-06
1.07644e-06
1.44486e-06
9.60227e-07
1.41225e-06
8.57458e-07
1.37793e-06
7.66772e-07
1.34302e-06
6.86759e-07
1.30814e-06
6.16065e-07
1.27365e-06
5.53457e-07
1.2397e-06
4.97849e-07
1.20636e-06
4.48303e-07
1.17366e-06
4.0402e-07
1.1416e-06
3.64327e-07
1.11019e-06
3.28659e-07
1.07946e-06
2.96537e-07
1.04942e-06
2.67559e-07
1.02009e-06
2.41375e-07
9.91493e-07
2.17685e-07
9.63621e-07
1.96223e-07
9.36455e-07
1.76754e-07
9.09961e-07
1.59066e-07
8.84092e-07
1.4297e-07
8.58787e-07
1.28295e-07
8.33981e-07
1.14887e-07
8.09608e-07
1.02609e-07
7.85602e-07
9.13384e-08
7.61904e-07
8.09664e-08
7.38459e-07
7.14039e-08
7.15227e-07
6.25506e-08
6.92175e-07
5.43459e-08
6.69275e-07
4.67228e-08
6.46498e-07
3.96496e-08
6.23862e-07
3.30103e-08
6.01336e-07
2.68085e-08
5.78905e-07
2.10345e-08
5.56597e-07
1.55708e-08
5.34384e-07
1.04474e-08
5.12263e-07
5.63985e-09
4.9023e-07
1.09442e-09
4.68258e-07
-3.17415e-09
4.46363e-07
-7.2504e-09
4.24507e-07
-1.10883e-08
4.02678e-07
-1.47143e-08
3.80852e-07
-1.81565e-08
3.5901e-07
-2.14069e-08
3.37137e-07
-2.44771e-08
3.15209e-07
-2.73879e-08
2.93211e-07
-3.01218e-08
2.7113e-07
-3.26849e-08
2.48955e-07
-3.50765e-08
2.26679e-07
-3.72946e-08
2.04298e-07
-3.93355e-08
1.81808e-07
-4.11947e-08
1.59218e-07
-4.28597e-08
1.36537e-07
-4.43349e-08
1.13777e-07
-4.56087e-08
9.09645e-08
-4.66764e-08
6.81425e-08
-4.75368e-08
4.5362e-08
-4.81821e-08
2.267e-08
-4.8612e-08
-4.88263e-08
2.4467e-07
2.29604e-06
4.78615e-07
2.27293e-06
6.88046e-07
2.21347e-06
8.71665e-07
2.13074e-06
1.03106e-06
2.02e-06
1.15605e-06
1.88968e-06
1.24937e-06
1.74711e-06
1.31315e-06
1.60016e-06
1.3498e-06
1.45392e-06
1.36498e-06
1.31333e-06
1.36622e-06
1.18335e-06
1.35739e-06
1.06489e-06
1.34157e-06
9.57913e-07
1.32102e-06
8.61858e-07
1.29739e-06
7.75898e-07
1.27183e-06
6.99073e-07
1.24508e-06
6.30401e-07
1.21764e-06
5.68941e-07
1.1898e-06
5.13835e-07
1.16177e-06
4.64324e-07
1.13369e-06
4.19744e-07
1.10569e-06
3.79526e-07
1.07786e-06
3.4318e-07
1.05029e-06
3.10287e-07
1.02307e-06
2.80484e-07
9.9626e-07
2.53452e-07
9.69908e-07
2.28912e-07
9.44043e-07
2.06612e-07
9.18671e-07
1.86326e-07
8.9378e-07
1.67849e-07
8.69341e-07
1.50995e-07
8.45312e-07
1.35595e-07
8.21643e-07
1.21497e-07
7.98284e-07
1.08563e-07
7.75182e-07
9.66709e-08
7.52291e-07
8.57109e-08
7.29571e-07
7.5591e-08
7.06989e-07
6.62124e-08
6.84519e-07
5.75131e-08
6.62147e-07
4.94228e-08
6.39851e-07
4.19177e-08
6.17644e-07
3.4856e-08
5.95508e-07
2.827e-08
5.7345e-07
2.21264e-08
5.51467e-07
1.63182e-08
5.29554e-07
1.08736e-08
5.07708e-07
5.76375e-09
4.85921e-07
9.34369e-10
4.64208e-07
-3.62557e-09
4.42524e-07
-7.94346e-09
4.20872e-07
-1.2028e-08
3.99236e-07
-1.58867e-08
3.77595e-07
-1.95453e-08
3.55932e-07
-2.30014e-08
3.34232e-07
-2.62686e-08
3.12475e-07
-2.9362e-08
2.90648e-07
-3.22688e-08
2.68738e-07
-3.49939e-08
2.46737e-07
-3.7537e-08
2.24639e-07
-3.98957e-08
2.02441e-07
-4.20659e-08
1.8014e-07
-4.4038e-08
1.57744e-07
-4.58088e-08
1.35261e-07
-4.7376e-08
1.12708e-07
-4.87314e-08
9.0107e-08
-4.98645e-08
6.74973e-08
-5.07765e-08
4.49318e-08
-5.14616e-08
2.24543e-08
-5.19179e-08
-5.21451e-08
2.1258e-07
2.14452e-06
4.18805e-07
2.11626e-06
6.01652e-07
2.05444e-06
7.61768e-07
1.97402e-06
9.013e-07
1.87712e-06
1.01481e-06
1.76525e-06
1.10388e-06
1.64239e-06
1.16805e-06
1.51483e-06
1.20989e-06
1.38722e-06
1.23535e-06
1.26497e-06
1.2478e-06
1.15006e-06
1.25025e-06
1.04361e-06
1.24523e-06
9.46e-07
1.23471e-06
8.57094e-07
1.2202e-06
7.76466e-07
1.20279e-06
7.03517e-07
1.18327e-06
6.37571e-07
1.16221e-06
5.77947e-07
1.13999e-06
5.23995e-07
1.11692e-06
4.75122e-07
1.09324e-06
4.30799e-07
1.06913e-06
3.90557e-07
1.04478e-06
3.53987e-07
1.02032e-06
3.20729e-07
9.9589e-07
2.90464e-07
9.71587e-07
2.6291e-07
9.47489e-07
2.37809e-07
9.23652e-07
2.14929e-07
9.001e-07
1.94056e-07
8.76843e-07
1.74994e-07
8.53866e-07
1.57563e-07
8.31146e-07
1.416e-07
8.08649e-07
1.26956e-07
7.86337e-07
1.13495e-07
7.64172e-07
1.01096e-07
7.42122e-07
8.96514e-08
7.20156e-07
7.907e-08
6.98253e-07
6.92524e-08
6.76396e-07
6.01377e-08
6.54574e-07
5.16564e-08
6.32794e-07
4.37697e-08
6.11039e-07
3.63653e-08
5.89318e-07
2.94496e-08
5.67647e-07
2.29835e-08
5.4601e-07
1.68893e-08
5.24418e-07
1.1168e-08
5.0287e-07
5.79608e-09
4.81353e-07
7.31376e-10
4.59886e-07
-4.07685e-09
4.38438e-07
-8.60526e-09
4.17006e-07
-1.28996e-08
3.95576e-07
-1.69556e-08
3.74132e-07
-2.07991e-08
3.5266e-07
-2.44315e-08
3.31143e-07
-2.7865e-08
3.09568e-07
-3.11145e-08
2.87922e-07
-3.41686e-08
2.66195e-07
-3.70317e-08
2.4438e-07
-3.97046e-08
2.22473e-07
-4.2184e-08
2.00468e-07
-4.44611e-08
1.78366e-07
-4.65294e-08
1.56178e-07
-4.83921e-08
1.3391e-07
-5.00393e-08
1.11572e-07
-5.14584e-08
8.91943e-08
-5.26496e-08
6.68119e-08
-5.36072e-08
4.44753e-08
-5.43258e-08
2.22258e-08
-5.4804e-08
-5.50425e-08
1.81159e-07
1.96287e-06
3.55067e-07
1.93609e-06
5.20042e-07
1.88801e-06
6.65644e-07
1.82195e-06
7.9146e-07
1.73856e-06
8.94216e-07
1.64172e-06
9.78003e-07
1.53627e-06
1.04165e-06
1.42679e-06
1.08847e-06
1.31761e-06
1.12096e-06
1.21144e-06
1.14158e-06
1.11019e-06
1.15266e-06
1.01501e-06
1.15621e-06
9.26504e-07
1.15389e-06
8.44809e-07
1.14701e-06
7.6979e-07
1.13658e-06
7.01119e-07
1.12339e-06
6.38373e-07
1.108e-06
5.81085e-07
1.09087e-06
5.2879e-07
1.07237e-06
4.81044e-07
1.05279e-06
4.37439e-07
1.03237e-06
3.97606e-07
1.01135e-06
3.61212e-07
9.89903e-07
3.27955e-07
9.68197e-07
2.97563e-07
9.46361e-07
2.69789e-07
9.24497e-07
2.44399e-07
9.02677e-07
2.21183e-07
8.80948e-07
1.99942e-07
8.59331e-07
1.80491e-07
8.3783e-07
1.62661e-07
8.16435e-07
1.46293e-07
7.95128e-07
1.31245e-07
7.73884e-07
1.17385e-07
7.52679e-07
1.04596e-07
7.3149e-07
9.27728e-08
7.10303e-07
8.18235e-08
6.89102e-07
7.16564e-08
6.67881e-07
6.22058e-08
6.46638e-07
5.34064e-08
6.25377e-07
4.52158e-08
6.04103e-07
3.75238e-08
5.82822e-07
3.03375e-08
5.61544e-07
2.36149e-08
5.40275e-07
1.72793e-08
5.19017e-07
1.1333e-08
4.97781e-07
5.74265e-09
4.76556e-07
4.80447e-10
4.55349e-07
-4.52196e-09
4.34143e-07
-9.22317e-09
4.12943e-07
-1.36939e-08
3.91731e-07
-1.79111e-08
3.70494e-07
-2.19062e-08
3.4922e-07
-2.56825e-08
3.27898e-07
-2.92527e-08
3.06514e-07
-3.26298e-08
2.85059e-07
-3.58047e-08
2.63524e-07
-3.87809e-08
2.41904e-07
-4.15601e-08
2.20193e-07
-4.4136e-08
1.98392e-07
-4.65018e-08
1.76504e-07
-4.86528e-08
1.54532e-07
-5.05872e-08
1.32485e-07
-5.22977e-08
1.10379e-07
-5.3774e-08
8.8237e-08
-5.50111e-08
6.60933e-08
-5.60052e-08
4.39967e-08
-5.67512e-08
2.19863e-08
-5.72476e-08
-5.74948e-08
1.55425e-07
1.7946e-06
3.0804e-07
1.7729e-06
4.54875e-07
1.73032e-06
5.83754e-07
1.67545e-06
6.96258e-07
1.60462e-06
7.90921e-07
1.52239e-06
8.70021e-07
1.43341e-06
9.33644e-07
1.34067e-06
9.83169e-07
1.24705e-06
1.02027e-06
1.15487e-06
1.04672e-06
1.06581e-06
1.06428e-06
9.80981e-07
1.07452e-06
9.01075e-07
1.07879e-06
8.26406e-07
1.0782e-06
7.57031e-07
1.07367e-06
6.92829e-07
1.06591e-06
6.33568e-07
1.05551e-06
5.78961e-07
1.04294e-06
5.28695e-07
1.02858e-06
4.82459e-07
1.01278e-06
4.39953e-07
9.95816e-07
4.00895e-07
9.77942e-07
3.65023e-07
9.59375e-07
3.32093e-07
9.40296e-07
3.01875e-07
9.20858e-07
2.74155e-07
9.01177e-07
2.4873e-07
8.81342e-07
2.25407e-07
8.61411e-07
2.04005e-07
8.41422e-07
1.84354e-07
8.21392e-07
1.66293e-07
8.01323e-07
1.49674e-07
7.8121e-07
1.3436e-07
7.61041e-07
1.20227e-07
7.40807e-07
1.07163e-07
7.20494e-07
9.50668e-08
7.00099e-07
8.38462e-08
6.79616e-07
7.34173e-08
6.59047e-07
6.37124e-08
6.38403e-07
5.46652e-08
6.17669e-07
4.62598e-08
5.96894e-07
3.83278e-08
5.76066e-07
3.09368e-08
5.55204e-07
2.4013e-08
5.34314e-07
1.74929e-08
5.13406e-07
1.13705e-08
4.92491e-07
5.61112e-09
4.71563e-07
1.96486e-10
4.50634e-07
-4.96073e-09
4.29677e-07
-9.78524e-09
4.08719e-07
-1.44033e-08
3.87733e-07
-1.87433e-08
3.66711e-07
-2.28541e-08
3.45645e-07
-2.67425e-08
3.24525e-07
-3.04185e-08
3.0334e-07
-3.38939e-08
2.82083e-07
-3.71627e-08
2.60747e-07
-4.0226e-08
2.39332e-07
-4.30899e-08
2.17827e-07
-4.57364e-08
1.96239e-07
-4.81725e-08
1.74569e-07
-5.03854e-08
1.52824e-07
-5.23783e-08
1.31012e-07
-5.41389e-08
1.09143e-07
-5.56542e-08
8.72429e-08
-5.69279e-08
6.53472e-08
-5.79509e-08
4.35e-08
-5.87182e-08
2.17373e-08
-5.92284e-08
-5.94828e-08
1.35127e-07
1.63993e-06
2.66791e-07
1.62382e-06
4.00671e-07
1.59234e-06
5.14536e-07
1.54172e-06
6.15499e-07
1.48082e-06
7.0347e-07
1.4115e-06
7.78586e-07
1.33621e-06
8.41109e-07
1.25725e-06
8.91795e-07
1.17681e-06
9.31759e-07
1.09673e-06
9.62263e-07
1.01843e-06
9.84587e-07
9.42965e-07
9.99943e-07
8.71036e-07
1.00942e-06
8.0305e-07
1.01394e-06
7.39192e-07
1.01431e-06
6.79488e-07
1.01118e-06
6.23858e-07
1.0051e-06
5.72151e-07
9.96556e-07
5.24183e-07
9.85931e-07
4.7975e-07
9.73579e-07
4.38647e-07
9.59808e-07
4.0067e-07
9.44883e-07
3.65617e-07
9.29036e-07
3.33296e-07
9.12464e-07
3.03519e-07
8.95329e-07
2.76103e-07
8.77759e-07
2.50871e-07
8.59853e-07
2.27653e-07
8.4168e-07
2.06285e-07
8.23288e-07
1.86609e-07
8.04705e-07
1.68479e-07
7.85948e-07
1.51755e-07
7.67021e-07
1.36311e-07
7.47926e-07
1.22028e-07
7.28661e-07
1.08802e-07
7.0923e-07
9.6534e-08
6.89632e-07
8.51395e-08
6.69873e-07
7.4538e-08
6.49965e-07
6.46603e-08
6.29914e-07
5.54508e-08
6.09761e-07
4.68621e-08
5.8948e-07
3.87954e-08
5.69113e-07
3.12537e-08
5.48677e-07
2.41839e-08
5.28177e-07
1.75354e-08
5.07629e-07
1.12872e-08
4.87039e-07
5.41246e-09
4.66422e-07
-1.19367e-10
4.45771e-07
-5.37748e-09
4.25088e-07
-1.02983e-08
4.04373e-07
-1.50125e-08
3.8362e-07
-1.94409e-08
3.62817e-07
-2.36301e-08
3.41965e-07
-2.76008e-08
3.21053e-07
-3.1351e-08
3.00073e-07
-3.48945e-08
2.79022e-07
-3.82317e-08
2.57896e-07
-4.13579e-08
2.36684e-07
-4.42731e-08
2.15396e-07
-4.6976e-08
1.94025e-07
-4.94566e-08
1.72582e-07
-5.17164e-08
1.51068e-07
-5.37475e-08
1.29492e-07
-5.55407e-08
1.07868e-07
-5.70852e-08
8.62199e-08
-5.83877e-08
6.45792e-08
-5.943e-08
4.29893e-08
-6.02108e-08
2.14817e-08
-6.0731e-08
-6.099e-08
1.18654e-07
1.49748e-06
2.35849e-07
1.48434e-06
3.51283e-07
1.45793e-06
4.5482e-07
1.4171e-06
5.47463e-07
1.36632e-06
6.29432e-07
1.30802e-06
7.00747e-07
1.24427e-06
7.61583e-07
1.1769e-06
8.12422e-07
1.10763e-06
8.53995e-07
1.03797e-06
8.87178e-07
9.69129e-07
9.12905e-07
9.02053e-07
9.32098e-07
8.37422e-07
9.45617e-07
7.75686e-07
9.54235e-07
7.17114e-07
9.58631e-07
6.61834e-07
9.59395e-07
6.09873e-07
9.57042e-07
5.61192e-07
9.52017e-07
5.15704e-07
9.44716e-07
4.73295e-07
9.35488e-07
4.33836e-07
9.24643e-07
3.97188e-07
9.12453e-07
3.63204e-07
8.99155e-07
3.31737e-07
8.8495e-07
3.02634e-07
8.70006e-07
2.75743e-07
8.54455e-07
2.50913e-07
8.38404e-07
2.27992e-07
8.2193e-07
2.06835e-07
8.05089e-07
1.873e-07
7.87918e-07
1.69251e-07
7.70445e-07
1.52563e-07
7.52685e-07
1.37116e-07
7.3465e-07
1.22802e-07
7.16347e-07
1.09525e-07
6.97792e-07
9.71845e-08
6.78991e-07
8.57122e-08
6.59963e-07
7.50216e-08
6.40721e-07
6.50542e-08
6.21284e-07
5.57544e-08
6.01679e-07
4.70689e-08
5.81915e-07
3.89189e-08
5.62021e-07
3.12904e-08
5.42015e-07
2.4137e-08
5.21914e-07
1.74128e-08
5.01731e-07
1.1092e-08
4.81483e-07
5.14698e-09
4.61173e-07
-4.47743e-10
4.40807e-07
-5.76411e-09
4.20407e-07
-1.07583e-08
3.99939e-07
-1.55097e-08
3.7942e-07
-1.99907e-08
3.58849e-07
-2.42326e-08
3.38212e-07
-2.82437e-08
3.17511e-07
-3.20378e-08
2.96741e-07
-3.56238e-08
2.75899e-07
-3.89985e-08
2.5498e-07
-4.21595e-08
2.33981e-07
-4.51028e-08
2.12908e-07
-4.78379e-08
1.91763e-07
-5.03477e-08
1.70546e-07
-5.26286e-08
1.49272e-07
-5.46872e-08
1.27942e-07
-5.6498e-08
1.06575e-07
-5.80629e-08
8.51811e-08
-5.93742e-08
6.37994e-08
-6.04279e-08
4.24689e-08
-6.12181e-08
2.12213e-08
-6.17429e-08
-6.20048e-08
1.05803e-07
1.36897e-06
2.10112e-07
1.35786e-06
3.11315e-07
1.33556e-06
4.04996e-07
1.30228e-06
4.90207e-07
1.2602e-06
5.66663e-07
1.21129e-06
6.34269e-07
1.15727e-06
6.93082e-07
1.09967e-06
7.43384e-07
1.03991e-06
7.85646e-07
9.79225e-07
8.20469e-07
9.18655e-07
8.48533e-07
8.59042e-07
8.70532e-07
8.01027e-07
8.87142e-07
7.45074e-07
8.98995e-07
6.91498e-07
9.06667e-07
6.40498e-07
9.10678e-07
5.92177e-07
9.11495e-07
5.46576e-07
9.09535e-07
5.03684e-07
9.05174e-07
4.63458e-07
8.98751e-07
4.25829e-07
8.90569e-07
3.90712e-07
8.80896e-07
3.58006e-07
8.69964e-07
3.27599e-07
8.57975e-07
2.99372e-07
8.45094e-07
2.732e-07
8.31458e-07
2.48955e-07
8.17175e-07
2.26505e-07
8.02327e-07
2.05722e-07
7.86977e-07
1.86478e-07
7.71171e-07
1.68653e-07
7.54943e-07
1.52131e-07
7.3832e-07
1.36804e-07
7.2132e-07
1.22573e-07
7.03968e-07
1.09346e-07
6.86276e-07
9.70364e-08
6.68267e-07
8.55768e-08
6.49963e-07
7.48835e-08
6.31388e-07
6.4905e-08
6.12562e-07
5.55899e-08
5.9351e-07
4.68868e-08
5.74264e-07
3.87102e-08
5.54846e-07
3.10576e-08
5.35278e-07
2.388e-08
5.15578e-07
1.71359e-08
4.95767e-07
1.07928e-08
4.75857e-07
4.8309e-09
4.5587e-07
-7.9152e-10
4.35799e-07
-6.11614e-09
4.15663e-07
-1.11343e-08
3.95453e-07
-1.58941e-08
3.75176e-07
-2.03892e-08
3.54832e-07
-2.46448e-08
3.34416e-07
-2.86659e-08
3.13929e-07
-3.24727e-08
2.93371e-07
-3.60699e-08
2.72738e-07
-3.94543e-08
2.52029e-07
-4.2622e-08
2.31252e-07
-4.55789e-08
2.10395e-07
-4.83126e-08
1.89474e-07
-5.08319e-08
1.68498e-07
-5.31253e-08
1.47461e-07
-5.51846e-08
1.26377e-07
-5.70001e-08
1.0526e-07
-5.85693e-08
8.41269e-08
-5.98845e-08
6.30088e-08
-6.09397e-08
4.19431e-08
-6.17316e-08
2.09574e-08
-6.22574e-08
-6.25203e-08
9.49145e-08
1.2526e-06
1.88356e-07
1.2432e-06
2.78701e-07
1.22447e-06
3.63659e-07
1.19695e-06
4.42083e-07
1.16192e-06
5.13415e-07
1.12078e-06
5.77394e-07
1.07489e-06
6.33959e-07
1.02552e-06
6.83237e-07
9.73829e-07
7.25516e-07
9.20858e-07
7.61201e-07
8.67501e-07
7.90776e-07
8.145e-07
8.14761e-07
7.62452e-07
8.33686e-07
7.11813e-07
8.48061e-07
6.62924e-07
8.58373e-07
6.16022e-07
8.65072e-07
5.71265e-07
8.68574e-07
5.28749e-07
8.69262e-07
4.8852e-07
8.67487e-07
4.50587e-07
8.63568e-07
4.1493e-07
8.57792e-07
3.81502e-07
8.50416e-07
3.50242e-07
8.41664e-07
3.21069e-07
8.31731e-07
2.93891e-07
8.20778e-07
2.68607e-07
8.08941e-07