/*--------------------------------*- C++ -*----------------------------------*\
| =========                 |                                                 |
| \\      /  F ield         | OpenFOAM: The Open Source CFD Toolbox           |
|  \\    /   O peration     | Version:  v1606+                                |
|   \\  /    A nd           | Web:      www.OpenFOAM.com                      |
|    \\/     M anipulation  |                                                 |
\*---------------------------------------------------------------------------*/
FoamFile
{
    version     2.0;
    format      ascii;
    class       volVectorField;
    location    "0.0043";
    object      U;
}
// * * * * * * * * * * * * * * * * * * * * * * * * * * * * * * * * * * * * * //

dimensions      [0 1 -1 0 0 0 0];

internalField   nonuniform List<vector> 
2450
(
(0.0380008 -0.00345842 0)
(-0.104912 0.0109058 0)
(-0.0445236 0.0484131 0)
(-0.301089 0.0428039 0)
(-0.329902 0.0733254 0)
(-0.311344 0.160623 0)
(-0.840626 0.0260802 0)
(1.36851 0.30017 0)
(2.30784 0.102348 0)
(2.11754 0.0890145 0)
(1.92403 0.0916393 0)
(1.7915 0.0776952 0)
(1.65445 0.0642142 0)
(1.52813 0.052996 0)
(1.41914 0.0442863 0)
(1.32445 0.0378188 0)
(1.24285 0.032594 0)
(1.17273 0.0282978 0)
(1.1115 0.0247254 0)
(1.05735 0.0217217 0)
(1.0089 0.0191696 0)
(0.965049 0.0169803 0)
(0.92496 0.0150859 0)
(0.887976 0.0134346 0)
(0.853603 0.0119858 0)
(0.821468 0.010708 0)
(0.791285 0.00957594 0)
(0.762834 0.00856899 0)
(0.735925 0.00767023 0)
(0.710402 0.00686572 0)
(0.686123 0.00614323 0)
(0.662954 0.00549257 0)
(0.640768 0.00490473 0)
(0.619444 0.00437197 0)
(0.598873 0.00388751 0)
(0.578951 0.00344535 0)
(0.559584 0.00304053 0)
(0.540694 0.0026685 0)
(0.522211 0.00232556 0)
(0.504079 0.00200828 0)
(0.486252 0.00171373 0)
(0.468691 0.00143974 0)
(0.451366 0.00118428 0)
(0.434255 0.000945277 0)
(0.41734 0.000721126 0)
(0.4006 0.000510613 0)
(0.384021 0.000312477 0)
(0.367586 0.000126385 0)
(0.351277 -4.83457e-05 0)
(0.335077 -0.00021483 0)
(0.318966 -0.000370959 0)
(0.302924 -0.000520369 0)
(0.286929 -0.000661125 0)
(0.270959 -0.000794294 0)
(0.254991 -0.000919971 0)
(0.239004 -0.00103855 0)
(0.222978 -0.00115055 0)
(0.206897 -0.00125665 0)
(0.19075 -0.00135431 0)
(0.174524 -0.00144534 0)
(0.158211 -0.00152931 0)
(0.141809 -0.00160642 0)
(0.125311 -0.00167652 0)
(0.108731 -0.00173857 0)
(0.092088 -0.0017941 0)
(0.0753823 -0.00184152 0)
(0.0586217 -0.00188105 0)
(0.0418399 -0.0019141 0)
(0.0250998 -0.0019325 0)
(0.00837905 -0.00195518 0)
(0.0488171 -0.0589898 0)
(-0.0477655 -0.0345572 0)
(0.0286586 0.0316643 0)
(-0.195699 -0.00650542 0)
(-0.151767 0.000461402 0)
(-0.225472 0.0465207 0)
(-0.306638 -0.494989 0)
(1.45329 0.392364 0)
(2.16618 0.311907 0)
(2.08471 0.285054 0)
(1.90944 0.2627 0)
(1.76405 0.222611 0)
(1.62963 0.185952 0)
(1.50808 0.155797 0)
(1.40392 0.131545 0)
(1.31273 0.112391 0)
(1.23331 0.0969263 0)
(1.16485 0.084222 0)
(1.10491 0.0736443 0)
(1.05179 0.0647386 0)
(1.00415 0.0571626 0)
(0.960961 0.0506567 0)
(0.921411 0.045022 0)
(0.884873 0.0401062 0)
(0.850874 0.0357906 0)
(0.819056 0.0319818 0)
(0.789144 0.028606 0)
(0.760926 0.025602 0)
(0.734219 0.0229197 0)
(0.708872 0.0205181 0)
(0.684747 0.0183608 0)
(0.661712 0.0164175 0)
(0.639644 0.0146614 0)
(0.618424 0.0130695 0)
(0.597943 0.0116216 0)
(0.578101 0.0103 0)
(0.558805 0.00908959 0)
(0.539976 0.00797725 0)
(0.521548 0.00695141 0)
(0.503465 0.0060026 0)
(0.485681 0.00512189 0)
(0.468159 0.00430247 0)
(0.450869 0.00353854 0)
(0.43379 0.00282394 0)
(0.416903 0.00215378 0)
(0.40019 0.0015247 0)
(0.383635 0.000932692 0)
(0.367223 0.000374501 0)
(0.350934 -0.000153184 0)
(0.334753 -0.000648828 0)
(0.318659 -0.00111925 0)
(0.302633 -0.00156211 0)
(0.286654 -0.00198233 0)
(0.270699 -0.00238067 0)
(0.254746 -0.00275742 0)
(0.238773 -0.0031131 0)
(0.222759 -0.00345046 0)
(0.206693 -0.00376409 0)
(0.19056 -0.00405625 0)
(0.174348 -0.00432832 0)
(0.15805 -0.004579 0)
(0.141661 -0.00480877 0)
(0.125177 -0.00501763 0)
(0.108609 -0.00520212 0)
(0.0919771 -0.00536673 0)
(0.0752802 -0.00550902 0)
(0.058525 -0.00563084 0)
(0.0417612 -0.00573964 0)
(0.0250447 -0.00580944 0)
(0.00834492 -0.00584186 0)
(0.0349625 -0.105136 0)
(-0.0436212 -0.0424425 0)
(0.0473306 0.111998 0)
(-0.173193 0.113282 0)
(-0.194555 0.220169 0)
(-0.737331 0.226938 0)
(-0.0193378 -0.380821 0)
(1.76219 0.655683 0)
(2.15045 0.568486 0)
(2.02604 0.493345 0)
(1.85158 0.417307 0)
(1.71504 0.352615 0)
(1.58749 0.296669 0)
(1.47356 0.251282 0)
(1.37569 0.214311 0)
(1.28981 0.183404 0)
(1.21468 0.158483 0)
(1.14944 0.137976 0)
(1.09201 0.120843 0)
(1.04086 0.106373 0)
(0.994805 0.0940302 0)
(0.9529 0.0834061 0)
(0.9144 0.0741862 0)
(0.878735 0.0661288 0)
(0.845469 0.059045 0)
(0.814273 0.0527855 0)
(0.784895 0.0472315 0)
(0.757136 0.0422847 0)
(0.73083 0.0378645 0)
(0.705831 0.033904 0)
(0.68201 0.0303446 0)
(0.659242 0.0271362 0)
(0.637407 0.0242353 0)
(0.616392 0.0216043 0)
(0.596091 0.0192105 0)
(0.576406 0.0170244 0)
(0.55725 0.0150214 0)
(0.538544 0.0131801 0)
(0.520225 0.0114816 0)
(0.502239 0.00991042 0)
(0.484541 0.00845193 0)
(0.467097 0.0070946 0)
(0.449877 0.00582833 0)
(0.432861 0.00464504 0)
(0.416031 0.00353548 0)
(0.39937 0.00249362 0)
(0.382863 0.00151322 0)
(0.366492 0.000588426 0)
(0.350246 -0.000285531 0)
(0.334104 -0.00110812 0)
(0.318046 -0.00188841 0)
(0.302055 -0.00262319 0)
(0.286105 -0.00332012 0)
(0.270178 -0.00398059 0)
(0.254254 -0.0046061 0)
(0.238307 -0.00519808 0)
(0.222323 -0.00575287 0)
(0.206288 -0.00627142 0)
(0.190182 -0.00675682 0)
(0.173998 -0.00720763 0)
(0.157728 -0.00762317 0)
(0.141367 -0.00800388 0)
(0.124914 -0.00834706 0)
(0.108376 -0.00865016 0)
(0.0917718 -0.00891727 0)
(0.0751033 -0.00914595 0)
(0.058369 -0.00933533 0)
(0.0416333 -0.00949504 0)
(0.0249683 -0.00961486 0)
(0.0083218 -0.00966808 0)
(0.0458644 -0.224147 0)
(0.0421504 -0.156616 0)
(0.127586 0.0562094 0)
(-0.0432244 0.0325644 0)
(0.0154249 0.593865 0)
(-0.693408 0.22005 0)
(0.725141 0.717268 0)
(1.88621 1.02361 0)
(1.96594 0.807823 0)
(1.89592 0.660602 0)
(1.76733 0.55902 0)
(1.64293 0.470392 0)
(1.52786 0.396982 0)
(1.42554 0.337476 0)
(1.33602 0.289051 0)
(1.25688 0.248638 0)
(1.18788 0.215655 0)
(1.1272 0.188285 0)
(1.0733 0.165289 0)
(1.02496 0.145775 0)
(0.981167 0.129063 0)
(0.941101 0.114628 0)
(0.904117 0.102065 0)
(0.869715 0.0910595 0)
(0.837514 0.0813639 0)
(0.807225 0.0727815 0)
(0.778626 0.0651548 0)
(0.751541 0.0583532 0)
(0.72582 0.0522688 0)
(0.701334 0.0468117 0)
(0.677961 0.0419027 0)
(0.655585 0.037474 0)
(0.634094 0.0334671 0)
(0.613382 0.0298303 0)
(0.593346 0.0265191 0)
(0.573894 0.0234938 0)
(0.554943 0.0207206 0)
(0.53642 0.0181703 0)
(0.518263 0.015817 0)
(0.500419 0.0136391 0)
(0.48285 0.0116174 0)
(0.465521 0.00973572 0)
(0.448405 0.00797882 0)
(0.431484 0.00633697 0)
(0.414738 0.00479843 0)
(0.398155 0.00335296 0)
(0.381718 0.00199274 0)
(0.365413 0.000711453 0)
(0.349227 -0.00049717 0)
(0.33314 -0.0016413 0)
(0.317135 -0.00272247 0)
(0.301193 -0.00374687 0)
(0.285289 -0.00471596 0)
(0.269405 -0.00563287 0)
(0.253521 -0.00650023 0)
(0.23762 -0.00732001 0)
(0.22168 -0.0080885 0)
(0.205683 -0.00881127 0)
(0.189619 -0.00948631 0)
(0.173477 -0.0101123 0)
(0.157249 -0.0106892 0)
(0.140933 -0.0112161 0)
(0.124527 -0.0116912 0)
(0.108035 -0.0121107 0)
(0.0914764 -0.0124768 0)
(0.0748564 -0.0127873 0)
(0.0581691 -0.0130401 0)
(0.0414739 -0.0132379 0)
(0.0248646 -0.0133855 0)
(0.00828985 -0.0134579 0)
(0.0142538 -0.42321 0)
(0.0303415 -0.345696 0)
(-0.0350202 -0.048878 0)
(0.0722426 0.242821 0)
(-0.122765 0.701957 0)
(0.20906 0.554888 0)
(1.38213 1.30058 0)
(1.78526 1.12106 0)
(1.79872 0.957046 0)
(1.76112 0.799221 0)
(1.65823 0.672085 0)
(1.55201 0.568094 0)
(1.45395 0.481895 0)
(1.36549 0.412417 0)
(1.28686 0.35443 0)
(1.21641 0.306793 0)
(1.15433 0.267307 0)
(1.09907 0.23421 0)
(1.04949 0.206209 0)
(1.00463 0.182309 0)
(0.963649 0.161737 0)
(0.925892 0.143892 0)
(0.890821 0.128304 0)
(0.858022 0.114607 0)
(0.827179 0.102507 0)
(0.798051 0.0917736 0)
(0.770454 0.0822162 0)
(0.744237 0.073679 0)
(0.719275 0.0660309 0)
(0.695451 0.0591618 0)
(0.672659 0.0529753 0)
(0.650793 0.0473881 0)
(0.62975 0.0423284 0)
(0.609431 0.0377317 0)
(0.589742 0.0335429 0)
(0.570595 0.0297135 0)
(0.551914 0.0262009 0)
(0.533629 0.0229686 0)
(0.515682 0.0199845 0)
(0.498028 0.0172219 0)
(0.480627 0.0146572 0)
(0.463448 0.0122696 0)
(0.446469 0.0100399 0)
(0.429671 0.00795466 0)
(0.413038 0.0060003 0)
(0.396556 0.00416444 0)
(0.380213 0.0024372 0)
(0.363995 0.000809835 0)
(0.347886 -0.000726382 0)
(0.331872 -0.00217937 0)
(0.315935 -0.00355357 0)
(0.300056 -0.00485528 0)
(0.284214 -0.00608719 0)
(0.268389 -0.00725213 0)
(0.252562 -0.00835283 0)
(0.236714 -0.00939241 0)
(0.220828 -0.0103726 0)
(0.204886 -0.0112916 0)
(0.188877 -0.0121489 0)
(0.172792 -0.0129448 0)
(0.156621 -0.0136772 0)
(0.140362 -0.0143445 0)
(0.124017 -0.0149483 0)
(0.107588 -0.0154809 0)
(0.0910931 -0.0159431 0)
(0.0745382 -0.0163339 0)
(0.0579172 -0.0166505 0)
(0.0412874 -0.0168929 0)
(0.0247495 -0.0170616 0)
(0.00825268 -0.0171464 0)
(-0.00950211 -0.258581 0)
(0.0586662 -0.235584 0)
(0.178097 0.0435339 0)
(0.173255 0.296057 0)
(0.22381 0.739213 0)
(1.06443 1.2219 0)
(1.49933 1.3833 0)
(1.60403 1.21158 0)
(1.64604 1.05727 0)
(1.6142 0.89337 0)
(1.53541 0.755919 0)
(1.4518 0.644073 0)
(1.37169 0.550512 0)
(1.29801 0.474333 0)
(1.23037 0.41024 0)
(1.16977 0.357156 0)
(1.11531 0.312679 0)
(1.06611 0.275067 0)
(1.0214 0.243005 0)
(0.980487 0.215457 0)
(0.942747 0.191606 0)
(0.907664 0.170812 0)
(0.874827 0.152572 0)
(0.843912 0.136484 0)
(0.814674 0.122229 0)
(0.786927 0.109549 0)
(0.760524 0.0982321 0)
(0.735348 0.0881029 0)
(0.711296 0.0790128 0)
(0.68827 0.0708352 0)
(0.66618 0.0634598 0)
(0.64493 0.0567904 0)
(0.62443 0.050743 0)
(0.604589 0.0452431 0)
(0.58532 0.0402262 0)
(0.566545 0.0356358 0)
(0.548191 0.0314215 0)
(0.530197 0.0275407 0)
(0.512509 0.0239558 0)
(0.495085 0.0206358 0)
(0.477891 0.0175523 0)
(0.460897 0.0146808 0)
(0.444085 0.0119986 0)
(0.427439 0.00948965 0)
(0.410943 0.00713718 0)
(0.394587 0.00492744 0)
(0.37836 0.00284824 0)
(0.362246 0.000888369 0)
(0.346234 -0.000961056 0)
(0.33031 -0.00270957 0)
(0.314457 -0.00436407 0)
(0.298657 -0.00593038 0)
(0.28289 -0.00741344 0)
(0.267138 -0.00881633 0)
(0.251379 -0.010142 0)
(0.235598 -0.0113945 0)
(0.21978 -0.0125736 0)
(0.203906 -0.0136794 0)
(0.187964 -0.0147113 0)
(0.171948 -0.0156689 0)
(0.155848 -0.0165499 0)
(0.139661 -0.0173532 0)
(0.12339 -0.0180792 0)
(0.107039 -0.018718 0)
(0.090623 -0.0192721 0)
(0.074149 -0.0197402 0)
(0.057611 -0.0201181 0)
(0.0410647 -0.0204061 0)
(0.0246139 -0.020602 0)
(0.00820755 -0.0207008 0)
(-0.135159 -0.39487 0)
(-0.0970241 -0.371418 0)
(0.0928379 0.120606 0)
(0.643149 0.889931 0)
(1.06924 1.30261 0)
(1.29114 1.48017 0)
(1.42326 1.38667 0)
(1.47315 1.26061 0)
(1.48947 1.10886 0)
(1.46097 0.949445 0)
(1.40803 0.813821 0)
(1.34583 0.698773 0)
(1.28401 0.603337 0)
(1.22521 0.522878 0)
(1.1697 0.455686 0)
(1.11887 0.399183 0)
(1.07226 0.35128 0)
(1.02941 0.310388 0)
(0.989891 0.275236 0)
(0.95323 0.244809 0)
(0.919007 0.218295 0)
(0.886858 0.195052 0)
(0.856491 0.174563 0)
(0.827677 0.156418 0)
(0.800241 0.140283 0)
(0.774051 0.125887 0)
(0.749004 0.113005 0)
(0.725014 0.101448 0)
(0.702003 0.091055 0)
(0.679894 0.0816884 0)
(0.65861 0.0732266 0)
(0.638072 0.0655633 0)
(0.618199 0.0586048 0)
(0.59891 0.0522684 0)
(0.58013 0.0464817 0)
(0.561786 0.0411811 0)
(0.543814 0.0363106 0)
(0.526159 0.0318217 0)
(0.508773 0.0276726 0)
(0.49162 0.0238276 0)
(0.474668 0.0202547 0)
(0.457891 0.0169258 0)
(0.441274 0.0138161 0)
(0.424807 0.0109068 0)
(0.408473 0.00817903 0)
(0.392265 0.0056159 0)
(0.376172 0.00320381 0)
(0.360184 0.000929926 0)
(0.344287 -0.0012156 0)
(0.328468 -0.00324388 0)
(0.312713 -0.00516348 0)
(0.297006 -0.00698031 0)
(0.281328 -0.00870105 0)
(0.265661 -0.0103295 0)
(0.249984 -0.0118699 0)
(0.234283 -0.0133212 0)
(0.218543 -0.0146882 0)
(0.202749 -0.0159708 0)
(0.186888 -0.017168 0)
(0.170953 -0.0182783 0)
(0.154937 -0.0192999 0)
(0.138833 -0.0202316 0)
(0.122652 -0.0210714 0)
(0.106395 -0.0218109 0)
(0.0900713 -0.0224512 0)
(0.0736929 -0.0229915 0)
(0.057253 -0.0234276 0)
(0.0408064 -0.0237582 0)
(0.0244576 -0.023981 0)
(0.00815528 -0.0240926 0)
(0.00283374 1.43044 0)
(0.348135 1.46641 0)
(0.869966 1.62527 0)
(1.02435 1.72648 0)
(1.08392 1.66167 0)
(1.19801 1.57272 0)
(1.27939 1.42312 0)
(1.33011 1.27384 0)
(1.33468 1.12044 0)
(1.31843 0.97492 0)
(1.28388 0.845203 0)
(1.24091 0.734116 0)
(1.19573 0.639883 0)
(1.15033 0.55925 0)
(1.1067 0.491032 0)
(1.06539 0.432872 0)
(1.02653 0.382996 0)
(0.990075 0.339988 0)
(0.95583 0.302683 0)
(0.923553 0.270136 0)
(0.892994 0.241578 0)
(0.863935 0.216391 0)
(0.836195 0.194074 0)
(0.809632 0.17422 0)
(0.784143 0.156498 0)
(0.759647 0.140632 0)
(0.736083 0.126393 0)
(0.713396 0.113586 0)
(0.691534 0.102044 0)
(0.670439 0.0916198 0)
(0.650052 0.0821851 0)
(0.630305 0.0736262 0)
(0.611132 0.0658421 0)
(0.592462 0.0587439 0)
(0.574229 0.0522531 0)
(0.55637 0.0463005 0)
(0.538828 0.0408254 0)
(0.521555 0.0357746 0)
(0.504512 0.0311028 0)
(0.487664 0.0267701 0)
(0.470986 0.0227409 0)
(0.454456 0.0189826 0)
(0.438063 0.0154781 0)
(0.421799 0.0121973 0)
(0.40565 0.00911909 0)
(0.389611 0.00622574 0)
(0.373672 0.00350321 0)
(0.357826 0.000936764 0)
(0.34206 -0.00148606 0)
(0.326362 -0.0037779 0)
(0.31072 -0.00594403 0)
(0.295119 -0.00799495 0)
(0.279541 -0.00993702 0)
(0.26397 -0.0117753 0)
(0.248389 -0.0135145 0)
(0.232781 -0.0151528 0)
(0.217131 -0.0166959 0)
(0.201427 -0.0181435 0)
(0.185658 -0.0194947 0)
(0.169816 -0.0207478 0)
(0.153895 -0.0219011 0)
(0.137889 -0.0229531 0)
(0.121811 -0.023897 0)
(0.10566 -0.0247313 0)
(0.0894429 -0.0254525 0)
(0.0731739 -0.0260609 0)
(0.0568466 -0.026551 0)
(0.0405147 -0.0269207 0)
(0.0242821 -0.027169 0)
(0.0080967 -0.0272928 0)
(0.0739854 2.16532 0)
(0.319224 2.17854 0)
(0.590578 2.06089 0)
(0.787418 1.84037 0)
(0.935324 1.6965 0)
(1.04442 1.55392 0)
(1.11963 1.40988 0)
(1.16918 1.25434 0)
(1.18979 1.11108 0)
(1.1852 0.97721 0)
(1.16688 0.857527 0)
(1.14043 0.753154 0)
(1.10913 0.662404 0)
(1.07637 0.584243 0)
(1.04334 0.516852 0)
(1.01085 0.458568 0)
(0.979384 0.407985 0)
(0.949109 0.363902 0)
(0.920047 0.325305 0)
(0.892131 0.291349 0)
(0.865267 0.261339 0)
(0.839357 0.234704 0)
(0.814323 0.210973 0)
(0.790102 0.189761 0)
(0.766653 0.170748 0)
(0.743947 0.153667 0)
(0.721958 0.13829 0)
(0.700664 0.124421 0)
(0.680035 0.11189 0)
(0.660033 0.100548 0)
(0.640614 0.0902622 0)
(0.621726 0.0809131 0)
(0.603313 0.0723959 0)
(0.585318 0.064617 0)
(0.567683 0.0574935 0)
(0.550355 0.0509523 0)
(0.533285 0.0449291 0)
(0.516433 0.0393676 0)
(0.499766 0.0342187 0)
(0.483255 0.0294401 0)
(0.466878 0.0249945 0)
(0.450625 0.0208459 0)
(0.434487 0.0169747 0)
(0.418446 0.0133503 0)
(0.4025 0.00994678 0)
(0.386648 0.00675126 0)
(0.370883 0.00374343 0)
(0.355194 0.000907446 0)
(0.339572 -0.00176961 0)
(0.32401 -0.00430325 0)
(0.308497 -0.00669734 0)
(0.293014 -0.00896444 0)
(0.277548 -0.0111097 0)
(0.262084 -0.0131403 0)
(0.246608 -0.0150603 0)
(0.231103 -0.0168726 0)
(0.215554 -0.0185783 0)
(0.199951 -0.020178 0)
(0.184285 -0.0216709 0)
(0.168548 -0.0230551 0)
(0.152733 -0.0243293 0)
(0.136838 -0.0254928 0)
(0.120874 -0.0265326 0)
(0.10484 -0.0274538 0)
(0.0887425 -0.0282503 0)
(0.072596 -0.0289201 0)
(0.056396 -0.0294597 0)
(0.0401923 -0.029866 0)
(0.024088 -0.0301385 0)
(0.00803187 -0.0302744 0)
(0.103292 1.9344 0)
(0.303754 1.93057 0)
(0.49001 1.83705 0)
(0.653831 1.72667 0)
(0.795152 1.6057 0)
(0.900712 1.47708 0)
(0.977812 1.34551 0)
(1.03076 1.2131 0)
(1.05732 1.0836 0)
(1.06477 0.963665 0)
(1.05978 0.855505 0)
(1.04578 0.758782 0)
(1.02682 0.673841 0)
(1.00479 0.599357 0)
(0.981038 0.534088 0)
(0.956532 0.476869 0)
(0.931876 0.426609 0)
(0.907404 0.382335 0)
(0.883285 0.343197 0)
(0.859593 0.308475 0)
(0.836353 0.277558 0)
(0.813572 0.249939 0)
(0.791254 0.225193 0)
(0.769409 0.202965 0)
(0.748049 0.182956 0)
(0.727188 0.164913 0)
(0.706836 0.148617 0)
(0.686996 0.133877 0)
(0.66766 0.120524 0)
(0.648809 0.108409 0)
(0.630414 0.0973978 0)
(0.612436 0.0873693 0)
(0.594833 0.0782162 0)
(0.577557 0.0698423 0)
(0.560562 0.062162 0)
(0.543803 0.0550994 0)
(0.527241 0.0485881 0)
(0.510842 0.0425701 0)
(0.494581 0.0369941 0)
(0.478437 0.0318147 0)
(0.46239 0.0269936 0)
(0.446434 0.0224969 0)
(0.430566 0.0182911 0)
(0.41477 0.0143518 0)
(0.39905 0.0106578 0)
(0.383406 0.0071889 0)
(0.367828 0.00392215 0)
(0.352313 0.000841177 0)
(0.33685 -0.0020703 0)
(0.321435 -0.00481628 0)
(0.30606 -0.00741673 0)
(0.290708 -0.00987892 0)
(0.275367 -0.0122091 0)
(0.260021 -0.0144145 0)
(0.244658 -0.0164995 0)
(0.229265 -0.018468 0)
(0.213827 -0.0203207 0)
(0.198336 -0.0220581 0)
(0.182782 -0.0236792 0)
(0.167159 -0.0251823 0)
(0.151459 -0.0265662 0)
(0.135687 -0.0278283 0)
(0.119851 -0.0289564 0)
(0.103943 -0.0299563 0)
(0.0879777 -0.0308207 0)
(0.0719663 -0.0315458 0)
(0.0559038 -0.0321303 0)
(0.0398401 -0.0325707 0)
(0.0238765 -0.0328653 0)
(0.00796127 -0.0330121 0)
(0.0919201 1.73336 0)
(0.270867 1.70659 0)
(0.431542 1.6598 0)
(0.568551 1.58927 0)
(0.686523 1.49386 0)
(0.783274 1.38575 0)
(0.855704 1.27321 0)
(0.907368 1.15794 0)
(0.940353 1.04513 0)
(0.957159 0.939628 0)
(0.962023 0.842277 0)
(0.958775 0.754556 0)
(0.949723 0.67603 0)
(0.93663 0.606018 0)
(0.920861 0.543778 0)
(0.903386 0.488495 0)
(0.88486 0.439357 0)
(0.865705 0.395607 0)
(0.846193 0.356564 0)
(0.826497 0.321631 0)
(0.806735 0.290294 0)
(0.786995 0.262116 0)
(0.76735 0.236725 0)
(0.747867 0.213804 0)
(0.728602 0.193083 0)
(0.709608 0.174326 0)
(0.690921 0.157328 0)
(0.67257 0.141906 0)
(0.654566 0.127897 0)
(0.636904 0.115155 0)
(0.619572 0.103547 0)
(0.602542 0.0929524 0)
(0.585784 0.0832636 0)
(0.569261 0.0743835 0)
(0.552937 0.0662255 0)
(0.536778 0.0587127 0)
(0.520753 0.0517772 0)
(0.504836 0.0453602 0)
(0.489007 0.039409 0)
(0.473252 0.0338763 0)
(0.457558 0.0287208 0)
(0.441921 0.0239144 0)
(0.42634 0.0194168 0)
(0.410811 0.0152014 0)
(0.395336 0.0112514 0)
(0.379912 0.00753684 0)
(0.364535 0.00403912 0)
(0.349202 0.000742357 0)
(0.333915 -0.00237393 0)
(0.318665 -0.00531353 0)
(0.303436 -0.00809688 0)
(0.288223 -0.0107317 0)
(0.273015 -0.0132267 0)
(0.257796 -0.0155877 0)
(0.242556 -0.0178195 0)
(0.227284 -0.0199262 0)
(0.211966 -0.0219091 0)
(0.196595 -0.0237684 0)
(0.181162 -0.0255034 0)
(0.165663 -0.0271127 0)
(0.150088 -0.028594 0)
(0.134449 -0.0299406 0)
(0.118747 -0.0311484 0)
(0.102977 -0.0322182 0)
(0.0871544 -0.0331429 0)
(0.0712886 -0.0339184 0)
(0.0553747 -0.034542 0)
(0.0394619 -0.0350121 0)
(0.0236496 -0.0353266 0)
(0.00788555 -0.0354831 0)
(0.0774265 1.60625 0)
(0.228863 1.57916 0)
(0.367536 1.52816 0)
(0.488287 1.46068 0)
(0.592876 1.38111 0)
(0.680886 1.29061 0)
(0.75048 1.19431 0)
(0.802871 1.0966 0)
(0.839074 0.999959 0)
(0.861953 0.907549 0)
(0.874734 0.821573 0)
(0.879556 0.742598 0)
(0.878305 0.670678 0)
(0.872555 0.605604 0)
(0.863526 0.546958 0)
(0.852121 0.494208 0)
(0.838996 0.44678 0)
(0.824617 0.404112 0)
(0.809314 0.365676 0)
(0.793327 0.331 0)
(0.776842 0.299665 0)
(0.760006 0.271306 0)
(0.742945 0.245607 0)
(0.725769 0.222294 0)
(0.708572 0.201126 0)
(0.691433 0.181891 0)
(0.674416 0.1644 0)
(0.657565 0.148481 0)
(0.640908 0.133981 0)
(0.624457 0.120757 0)
(0.608209 0.10868 0)
(0.59215 0.0976333 0)
(0.576261 0.08751 0)
(0.560516 0.0782141 0)
(0.544888 0.0696595 0)
(0.529351 0.0617696 0)
(0.513885 0.0544763 0)
(0.498471 0.0477204 0)
(0.483095 0.0414486 0)
(0.467747 0.0356139 0)
(0.452425 0.0301749 0)
(0.437128 0.0250982 0)
(0.421851 0.0203483 0)
(0.406603 0.0158976 0)
(0.391385 0.0117203 0)
(0.376194 0.00779247 0)
(0.361034 0.00409444 0)
(0.3459 0.000609693 0)
(0.330795 -0.00267799 0)
(0.315713 -0.00578875 0)
(0.300643 -0.00873193 0)
(0.28558 -0.0115172 0)
(0.270513 -0.0141541 0)
(0.25543 -0.0166496 0)
(0.240322 -0.0190085 0)
(0.225178 -0.0212348 0)
(0.209987 -0.0233302 0)
(0.194744 -0.025295 0)
(0.17944 -0.027129 0)
(0.164071 -0.0288303 0)
(0.148633 -0.0303944 0)
(0.133134 -0.0318142 0)
(0.117574 -0.0330916 0)
(0.10195 -0.0342219 0)
(0.0862791 -0.0351978 0)
(0.0705696 -0.0360166 0)
(0.054814 -0.0366746 0)
(0.0390606 -0.0371706 0)
(0.0234088 -0.0375024 0)
(0.00780524 -0.0376675 0)
(0.0648673 1.45739 0)
(0.191764 1.43493 0)
(0.311978 1.39316 0)
(0.421569 1.3382 0)
(0.516887 1.27282 0)
(0.596903 1.19823 0)
(0.661938 1.11765 0)
(0.713148 1.03432 0)
(0.751386 0.951264 0)
(0.778812 0.871238 0)
(0.797101 0.795473 0)
(0.807901 0.724718 0)
(0.812743 0.659334 0)
(0.812921 0.599355 0)
(0.809474 0.544601 0)
(0.803216 0.494757 0)
(0.79477 0.449447 0)
(0.784607 0.408274 0)
(0.773086 0.37085 0)
(0.76049 0.336813 0)
(0.747044 0.305836 0)
(0.73294 0.277624 0)
(0.71834 0.251918 0)
(0.703387 0.228484 0)
(0.6882 0.207115 0)
(0.672881 0.187623 0)
(0.657512 0.169837 0)
(0.642151 0.1536 0)
(0.62684 0.138765 0)
(0.611602 0.1252 0)
(0.596446 0.112781 0)
(0.581369 0.101395 0)
(0.566362 0.0909381 0)
(0.551408 0.081317 0)
(0.53649 0.0724476 0)
(0.521592 0.0642543 0)
(0.506701 0.0566703 0)
(0.491805 0.0496367 0)
(0.476898 0.0431006 0)
(0.461976 0.0370162 0)
(0.44704 0.0313439 0)
(0.432092 0.0260392 0)
(0.417138 0.0210766 0)
(0.402182 0.0164267 0)
(0.38723 0.0120606 0)
(0.372286 0.00795579 0)
(0.357352 0.00409111 0)
(0.34243 0.000447294 0)
(0.327518 -0.00298982 0)
(0.312613 -0.00623924 0)
(0.297709 -0.00931614 0)
(0.282803 -0.0122272 0)
(0.267885 -0.0149828 0)
(0.252944 -0.0175905 0)
(0.237974 -0.0200558 0)
(0.222965 -0.0223823 0)
(0.207909 -0.0245718 0)
(0.192799 -0.0266247 0)
(0.17763 -0.0285421 0)
(0.162399 -0.0303195 0)
(0.147106 -0.0319523 0)
(0.131754 -0.033435 0)
(0.116341 -0.0347701 0)
(0.100872 -0.0359507 0)
(0.0853615 -0.036969 0)
(0.0698145 -0.0378239 0)
(0.0542249 -0.0385114 0)
(0.0386396 -0.0390291 0)
(0.0231563 -0.0393751 0)
(0.00772097 -0.0395473 0)
(0.0551414 1.32177 0)
(0.164537 1.3044 0)
(0.270672 1.27204 0)
(0.36804 1.2288 0)
(0.453034 1.17433 0)
(0.525817 1.11133 0)
(0.58665 1.04334 0)
(0.636564 0.972561 0)
(0.67604 0.901647 0)
(0.706191 0.832245 0)
(0.728237 0.765559 0)
(0.743433 0.702418 0)
(0.752954 0.643287 0)
(0.757832 0.588347 0)
(0.758935 0.537581 0)
(0.756974 0.490844 0)
(0.752518 0.447912 0)
(0.746024 0.408526 0)
(0.737857 0.372418 0)
(0.728317 0.339325 0)
(0.717656 0.309001 0)
(0.70609 0.281217 0)
(0.693806 0.255765 0)
(0.680967 0.232454 0)
(0.667712 0.211107 0)
(0.654155 0.191562 0)
(0.640392 0.173666 0)
(0.626492 0.157276 0)
(0.612508 0.142258 0)
(0.598471 0.128487 0)
(0.584402 0.115848 0)
(0.570305 0.104232 0)
(0.556181 0.0935408 0)
(0.542023 0.0836842 0)
(0.527822 0.0745812 0)
(0.513572 0.0661585 0)
(0.499265 0.0583517 0)
(0.484899 0.0511021 0)
(0.470472 0.0443581 0)
(0.455988 0.0380739 0)
(0.441447 0.0322076 0)
(0.426859 0.0267292 0)
(0.412238 0.0215992 0)
(0.397586 0.0167893 0)
(0.382914 0.0122739 0)
(0.368225 0.00802823 0)
(0.353526 0.00403035 0)
(0.33882 0.000259494 0)
(0.32411 -0.00329905 0)
(0.309389 -0.00666272 0)
(0.294658 -0.00984365 0)
(0.279917 -0.0128543 0)
(0.265153 -0.0157043 0)
(0.25036 -0.0184019 0)
(0.235533 -0.0209521 0)
(0.220665 -0.0233584 0)
(0.205748 -0.0256229 0)
(0.190777 -0.0277465 0)
(0.175748 -0.0297312 0)
(0.160663 -0.0315672 0)
(0.145519 -0.0332558 0)
(0.130318 -0.0347897 0)
(0.11506 -0.0361705 0)
(0.0997527 -0.0373911 0)
(0.084408 -0.038443 0)
(0.0690303 -0.0393269 0)
(0.0536134 -0.0400376 0)
(0.0382028 -0.0405728 0)
(0.0228944 -0.0409303 0)
(0.00763362 -0.0411081 0)
(0.0475741 1.20527 0)
(0.142008 1.19205 0)
(0.236368 1.16617 0)
(0.323894 1.12903 0)
(0.39944 1.08301 0)
(0.465946 1.03001 0)
(0.523225 0.972725 0)
(0.571487 0.91279 0)
(0.611094 0.851976 0)
(0.642743 0.791703 0)
(0.66729 0.733073 0)
(0.685641 0.676867 0)
(0.698681 0.623581 0)
(0.707223 0.57348 0)
(0.711977 0.526662 0)
(0.713552 0.483099 0)
(0.712457 0.44269 0)
(0.709117 0.405286 0)
(0.703889 0.370717 0)
(0.697076 0.338804 0)
(0.688938 0.309372 0)
(0.679706 0.282251 0)
(0.669579 0.257279 0)
(0.65873 0.234304 0)
(0.647309 0.213179 0)
(0.63544 0.193765 0)
(0.623225 0.175928 0)
(0.610742 0.15954 0)
(0.598051 0.14448 0)
(0.585191 0.130632 0)
(0.572189 0.117889 0)
(0.55906 0.106149 0)
(0.545812 0.0953198 0)
(0.532446 0.0853155 0)
(0.518962 0.076059 0)
(0.50536 0.0674805 0)
(0.491642 0.0595179 0)
(0.47781 0.0521147 0)
(0.463868 0.0452212 0)
(0.449824 0.0387928 0)
(0.435694 0.0327878 0)
(0.421483 0.0271775 0)
(0.407197 0.021922 0)
(0.392857 0.0169934 0)
(0.37847 0.0123654 0)
(0.364043 0.00801293 0)
(0.349585 0.00391453 0)
(0.335102 4.95726e-05 0)
(0.320598 -0.00359889 0)
(0.306071 -0.00704995 0)
(0.29152 -0.0103065 0)
(0.276946 -0.0133912 0)
(0.26234 -0.0163127 0)
(0.2477 -0.0190762 0)
(0.233021 -0.0216889 0)
(0.218298 -0.0241549 0)
(0.203524 -0.0264754 0)
(0.188694 -0.0286518 0)
(0.173812 -0.0306841 0)
(0.158878 -0.0325649 0)
(0.143886 -0.0342936 0)
(0.128841 -0.0358662 0)
(0.113742 -0.037281 0)
(0.0986018 -0.0385314 0)
(0.0834281 -0.0396095 0)
(0.0682232 -0.0405145 0)
(0.0529839 -0.0412415 0)
(0.0377533 -0.0417886 0)
(0.022625 -0.0421545 0)
(0.00754375 -0.0423364 0)
(0.0419454 1.10042 0)
(0.125406 1.09021 0)
(0.207653 1.07008 0)
(0.284919 1.03809 0)
(0.35405 0.999185 0)
(0.415547 0.954713 0)
(0.469441 0.906243 0)
(0.51583 0.855169 0)
(0.554966 0.802849 0)
(0.5873 0.750451 0)
(0.613412 0.698915 0)
(0.633949 0.648947 0)
(0.649574 0.601037 0)
(0.660918 0.555495 0)
(0.668559 0.512489 0)
(0.673007 0.47208 0)
(0.674709 0.434254 0)
(0.674054 0.398948 0)
(0.671377 0.366073 0)
(0.666974 0.335518 0)
(0.661105 0.307168 0)
(0.653999 0.280903 0)
(0.645861 0.256604 0)
(0.636868 0.23415 0)
(0.627173 0.213422 0)
(0.616904 0.194304 0)
(0.606167 0.17668 0)
(0.595044 0.160436 0)
(0.5836 0.145465 0)
(0.57188 0.13166 0)
(0.559917 0.118923 0)
(0.547734 0.10716 0)
(0.535346 0.096285 0)
(0.52276 0.0862176 0)
(0.509986 0.0768854 0)
(0.497029 0.0682234 0)
(0.483897 0.0601722 0)
(0.4706 0.0526779 0)
(0.457149 0.0456932 0)
(0.443553 0.039176 0)
(0.42983 0.0330883 0)
(0.415993 0.0273867 0)
(0.402054 0.0220472 0)
(0.38803 0.0170402 0)
(0.373934 0.0123378 0)
(0.359775 0.00791544 0)
(0.345564 0.00375139 0)
(0.331309 -0.000175335 0)
(0.317013 -0.00388095 0)
(0.302684 -0.00738402 0)
(0.28832 -0.0106949 0)
(0.273914 -0.0138291 0)
(0.259472 -0.0167968 0)
(0.244988 -0.0196038 0)
(0.230459 -0.0222575 0)
(0.215882 -0.0247625 0)
(0.201255 -0.0271207 0)
(0.186572 -0.0293312 0)
(0.171839 -0.0313909 0)
(0.157057 -0.0333031 0)
(0.142221 -0.0350587 0)
(0.127334 -0.0366581 0)
(0.112397 -0.0380933 0)
(0.0974264 -0.0393602 0)
(0.0824274 -0.0404554 0)
(0.0674017 -0.0413735 0)
(0.0523445 -0.0421112 0)
(0.0372963 -0.0426662 0)
(0.0223506 -0.0430373 0)
(0.00745225 -0.043222 0)
(0.0373764 1.00534 0)
(0.111666 0.99689 0)
(0.184267 0.979992 0)
(0.253018 0.954183 0)
(0.316064 0.921842 0)
(0.373007 0.884481 0)
(0.423686 0.843395 0)
(0.468099 0.799754 0)
(0.506383 0.75465 0)
(0.538817 0.709038 0)
(0.565792 0.663716 0)
(0.587768 0.619311 0)
(0.605235 0.576292 0)
(0.618679 0.534987 0)
(0.628566 0.495605 0)
(0.63532 0.458266 0)
(0.639329 0.423022 0)
(0.640939 0.389876 0)
(0.640461 0.358795 0)
(0.638173 0.329729 0)
(0.634326 0.30261 0)
(0.629144 0.277359 0)
(0.622827 0.253892 0)
(0.61555 0.232117 0)
(0.607464 0.21194 0)
(0.598698 0.193263 0)
(0.589358 0.175989 0)
(0.579527 0.160019 0)
(0.569274 0.145256 0)
(0.558649 0.131605 0)
(0.547689 0.118977 0)
(0.536421 0.107287 0)
(0.524868 0.0964537 0)
(0.513045 0.086405 0)
(0.500967 0.0770728 0)
(0.488646 0.068397 0)
(0.476096 0.060322 0)
(0.46333 0.0527977 0)
(0.450365 0.0457782 0)
(0.437218 0.0392232 0)
(0.423904 0.0330964 0)
(0.410442 0.0273552 0)
(0.396851 0.0219776 0)
(0.383148 0.0169338 0)
(0.369346 0.0121965 0)
(0.355458 0.00774148 0)
(0.341496 0.0035466 0)
(0.327473 -0.000408531 0)
(0.313392 -0.00414063 0)
(0.29926 -0.0076665 0)
(0.285079 -0.0110043 0)
(0.270848 -0.0141618 0)
(0.25657 -0.01715 0)
(0.242244 -0.0199778 0)
(0.227867 -0.0226507 0)
(0.213439 -0.0251738 0)
(0.19896 -0.0275498 0)
(0.184428 -0.0297754 0)
(0.169844 -0.0318504 0)
(0.155213 -0.0337753 0)
(0.140535 -0.0355431 0)
(0.125809 -0.0371529 0)
(0.111042 -0.0385976 0)
(0.0962421 -0.0398712 0)
(0.0814175 -0.040973 0)
(0.066571 -0.0418971 0)
(0.0516964 -0.0426402 0)
(0.0368335 -0.0431995 0)
(0.0220729 -0.0435728 0)
(0.00735952 -0.0437589 0)
(0.0335085 0.919639 0)
(0.100059 0.912487 0)
(0.164954 0.898246 0)
(0.226775 0.877075 0)
(0.284349 0.850196 0)
(0.3371 0.818785 0)
(0.384716 0.783909 0)
(0.427088 0.746541 0)
(0.464254 0.707572 0)
(0.49637 0.667798 0)
(0.523688 0.627898 0)
(0.546529 0.588431 0)
(0.565254 0.549832 0)
(0.580235 0.512429 0)
(0.591842 0.476457 0)
(0.600427 0.442071 0)
(0.606321 0.409368 0)
(0.60983 0.378397 0)
(0.611234 0.349175 0)
(0.610791 0.321691 0)
(0.608737 0.295915 0)
(0.605283 0.271804 0)
(0.60062 0.2493 0)
(0.594918 0.228337 0)
(0.588321 0.208841 0)
(0.580955 0.190733 0)
(0.572923 0.173931 0)
(0.564311 0.158349 0)
(0.555186 0.143903 0)
(0.545601 0.130508 0)
(0.535599 0.118085 0)
(0.525211 0.106556 0)
(0.514463 0.095849 0)
(0.503379 0.0858969 0)
(0.491977 0.0766382 0)
(0.480277 0.0680165 0)
(0.468298 0.0599805 0)
(0.456056 0.0524844 0)
(0.443574 0.0454854 0)
(0.430871 0.0389431 0)
(0.417963 0.0328196 0)
(0.404875 0.027092 0)
(0.391633 0.0217224 0)
(0.37825 0.016683 0)
(0.364743 0.011949 0)
(0.351127 0.00749806 0)
(0.337417 0.00330731 0)
(0.323625 -0.000643009 0)
(0.309758 -0.00437305 0)
(0.295824 -0.00789735 0)
(0.281829 -0.0112314 0)
(0.267773 -0.0143858 0)
(0.25366 -0.0173711 0)
(0.239492 -0.0201953 0)
(0.225268 -0.0228657 0)
(0.210988 -0.0253879 0)
(0.196659 -0.0277581 0)
(0.182276 -0.0299814 0)
(0.167843 -0.032057 0)
(0.153368 -0.0339759 0)
(0.138847 -0.0357401 0)
(0.124282 -0.0373459 0)
(0.109682 -0.0387895 0)
(0.0950536 -0.0400622 0)
(0.0804044 -0.0411628 0)
(0.0657382 -0.0420857 0)
(0.0510471 -0.0428274 0)
(0.0363695 -0.0433856 0)
(0.0217945 -0.0437585 0)
(0.00726662 -0.0439441 0)
(0.0302324 0.841835 0)
(0.0902738 0.835786 0)
(0.148865 0.823807 0)
(0.204974 0.806205 0)
(0.257776 0.783727 0)
(0.306721 0.75722 0)
(0.351442 0.727524 0)
(0.391763 0.695428 0)
(0.427642 0.661669 0)
(0.459146 0.626912 0)
(0.486428 0.591738 0)
(0.509704 0.556641 0)