/*--------------------------------*- C++ -*----------------------------------*\
| =========                 |                                                 |
| \\      /  F ield         | OpenFOAM: The Open Source CFD Toolbox           |
|  \\    /   O peration     | Version:  v1606+                                |
|   \\  /    A nd           | Web:      www.OpenFOAM.com                      |
|    \\/     M anipulation  |                                                 |
\*---------------------------------------------------------------------------*/
FoamFile
{
    version     2.0;
    format      ascii;
    class       volScalarField;
    location    "1.31";
    object      epsilon.air;
}
// * * * * * * * * * * * * * * * * * * * * * * * * * * * * * * * * * * * * * //

dimensions      [0 2 -3 0 0 0 0];

internalField   nonuniform List<scalar> 
6000
(
133.518
16.6531
10.7608
9.96671
9.75509
9.70951
9.72008
9.71541
9.71458
9.71923
9.72918
9.77106
9.83223
9.87152
9.88362
9.87993
9.8674
9.86408
9.8729
9.89394
9.95809
9.96347
9.86371
9.73865
9.70072
9.77308
9.97552
10.7072
16.5883
134.082
82.9688
23.2811
14.2354
11.7442
10.95
10.7016
10.6168
10.5263
10.4666
10.4439
10.4874
10.6907
11.0341
11.3322
11.4253
11.3554
11.2468
11.1587
11.1097
11.1671
11.3652
11.5087
11.282
10.9562
10.8276
10.9682
11.5885
13.8889
23.1207
83.7742
57.3033
21.7779
14.1704
11.6962
10.8149
10.5258
10.2573
10.0882
10.0269
10.0264
10.0822
10.2295
10.4262
10.5838
10.6382
10.6061
10.551
10.5175
10.5321
10.6329
10.8255
11.012
11.1027
11.2273
11.4384
11.7338
12.4979
14.8433
22.3476
54.2921
42.6915
19.9106
14.1738
11.985
10.8151
10.3433
10.0943
9.91204
9.86136
9.91644
10.0591
10.2439
10.381
10.4238
10.4349
10.4524
10.4843
10.5049
10.519
10.5801
10.823
11.2055
11.7822
12.6874
13.4714
13.6838
14.0054
15.4804
20.5358
38.2688
31.8033
17.5625
13.7531
12.0753
11.1227
10.6873
10.4485
10.1891
10.0981
10.1519
10.2966
10.4075
10.4088
10.3302
10.2777
10.3003
10.3857
10.5072
10.6575
10.9093
11.4176
12.223
13.6421
16.0407
16.9226
16.0484
15.4275
15.6189
17.9108
27.8808
24.8092
15.2885
13.1725
12.2468
11.7394
11.6949
11.4285
11.0791
10.9141
10.8683
10.9048
11.0021
10.976
10.8533
10.7658
10.7758
10.8918
11.1211
11.4936
12.0463
12.9501
14.3328
16.7091
19.6682
19.2707
17.6734
16.2174
15.2741
15.3013
21.0594
19.3497
13.3857
12.8755
12.897
12.8164
13.6053
13.4356
12.9427
12.6744
12.5912
12.445
12.2133
11.9043
11.5817
11.3445
11.2832
11.4257
11.8013
12.4771
13.4996
14.8227
16.5461
18.8399
19.9927
19.6074
18.2885
16.3282
14.5338
13.7448
18.6644
16.6005
12.3572
12.9748
14.1056
14.5379
15.7751
16.8621
16.5418
15.7249
14.726
13.7584
13.0884
12.5052
11.89
11.4444
11.2986
11.4467
11.9026
12.7338
14.0865
15.9111
17.7674
19.3583
19.5591
19.3763
18.0422
16.0154
14.2088
13.4826
19.3371
16.9405
12.5441
13.6006
15.4058
16.5815
18.0712
20.4313
20.5518
18.3807
15.8426
14.2052
13.1486
12.3125
11.695
11.2353
11.0796
11.2476
11.7547
12.651
14.0128
15.8246
18.04
19.9039
19.6711
19.2417
17.9579
15.9179
14.4496
14.1867
22.4634
20.2202
13.9956
14.9241
16.6769
18.3417
19.7088
21.4106
21.1093
18.3658
15.6664
13.8864
12.7963
11.9867
11.3841
10.9879
10.8755
11.0821
11.6292
12.5185
13.7694
15.4092
17.4989
19.3061
19.3181
19.35
18.7378
16.3787
15.1271
15.5024
26.6272
26.4508
16.5254
16.6734
18.115
20.2167
20.6703
20.641
19.8312
17.6156
15.2874
13.6043
12.5514
11.7925
11.2191
10.8441
10.7494
10.9741
11.5047
12.3332
13.4711
14.9645
16.8174
18.3517
18.6448
19.1901
19.7095
17.2126
15.9467
16.7973
30.6079
32.7686
18.9505
18.4141
19.9553
22.6494
21.5499
19.8481
18.5873
16.8511
14.9516
13.3912
12.3211
11.5999
11.1225
10.831
10.7404
10.9504
11.4019
12.1459
13.1821
14.5547
16.1151
17.5378
17.9861
18.7211
19.9448
18.0133
16.7162
17.9404
34.1618
38.5718
21.0029
19.9785
21.8246
24.6441
22.1971
19.4878
17.8921
16.3818
14.6979
13.2216
12.1953
11.532
11.1126
10.872
10.8087
10.9592
11.3199
11.9682
12.9109
14.0919
15.2763
16.6573
17.349
18.1076
19.5822
18.594
17.3978
18.9676
37.2471
43.4803
22.6954
21.2799
23.3292
25.8819
22.5212
19.3721
17.6692
16.215
14.5958
13.1779
12.2154
11.5964
11.2263
11.0371
10.9659
10.9822
11.2534
11.7992
12.6538
13.4619
14.4283
15.7538
16.7559
17.4156
18.7656
18.7489
17.8922
19.7208
39.3829
47.2381
24.0859
22.2714
24.25
26.2393
22.4327
19.3824
17.7211
16.2166
14.6099
13.2582
12.3533
11.7826
11.4733
11.3383
11.2285
11.0881
11.2318
11.7307
12.3199
12.8714
13.7044
14.8531
15.9861
16.7213
17.7005
18.5036
18.1767
20.145
40.4629
49.5434
25.0496
22.9281
24.5734
25.6877
22.0066
19.5103
18.0294
16.4123
14.7238
13.4614
12.6091
12.068
11.8015
11.7066
11.5239
11.2495
11.3245
11.7116
12.0317
12.4783
13.1832
14.0634
15.0927
15.9845
16.6948
17.752
18.2913
20.3974
40.9865
50.9046
25.7305
23.4266
24.6588
24.8444
21.7555
20.0038
18.5109
16.5618
14.9468
13.8064
13.0038
12.4764
12.2148
12.108
11.8348
11.5066
11.5549
11.7301
11.9103
12.3277
12.8989
13.5223
14.2965
15.2065
15.964
16.7387
17.919
20.3133
40.5303
50.8913
25.9516
23.8493
24.7604
23.9438
21.9244
20.447
18.4993
16.6421
15.2994
14.3222
13.5783
13.0574
12.7804
12.6276
12.2723
11.9535
11.8951
11.8767
12.0426
12.4411
12.9047
13.351
13.8753
14.5964
15.4232
16.1457
17.2143
20.3038
42.3087
51.5686
26.1529
24.2707
24.5301
23.4059
21.9233
20.1254
18.2161
16.8234
15.8545
15.0733
14.4099
13.9064
13.6201
13.4217
13.0183
12.6807
12.4463
12.3478
12.5254
12.8666
13.2232
13.5761
13.9781
14.5024
15.1268
15.8238
16.8057
19.9683
41.8196
49.0884
25.8013
24.0208
23.6363
22.6645
21.2622
19.4697
18.1586
17.3464
16.7788
16.2266
15.6663
15.1858
14.8936
14.6671
14.2388
13.7835
13.4002
13.2746
13.3957
13.6404
13.9281
14.2348
14.5797
14.994
15.427
15.8248
16.4864
19.0692
39.0294
45.3962
24.4056
22.6172
21.9505
21.2561
20.2937
19.2933
18.6551
18.4189
18.2589
17.9824
17.5503
17.0778
16.7448
16.4948
16.0048
15.3526
14.8299
14.5912
14.581
14.7274
14.9996
15.3673
15.8067
16.2486
16.525
16.5472
16.6319
18.0888
32.8077
40.2508
22.5605
20.9683
20.4889
20.3163
20.1135
19.8665
19.912
20.2121
20.4991
20.5268
20.2003
19.6851
19.2441
18.9081
18.2655
17.3706
16.6541
16.2435
16.094
16.1693
16.4665
16.996
17.7197
18.445
18.7001
18.371
17.8718
18.7116
30.7657
36.1365
22.8545
20.9879
20.6053
20.6892
20.9724
21.457
22.1804
23.0459
23.8059
24.1313
23.7833
23.0707
22.3588
21.7546
20.8593
19.7066
18.7712
18.2176
17.9778
18.01
18.3117
18.9532
19.9505
21.076
21.8349
21.5534
20.5862
21.0076
32.8231
40.2753
26.5201
24.003
22.3119
22.4138
23.1399
24.3148
25.6907
27.0238
28.1977
28.808
28.3774
27.1553
25.9578
24.845
23.5862
22.1795
21.0957
20.3879
20.0962
20.1304
20.4283
21.0983
22.1789
23.5058
24.6304
24.8644
24.169
24.7172
38.8309
44.1675
31.783
27.3769
25.2521
25.2027
26.0222
27.6127
29.6482
31.5669
33.0902
33.5898
32.9468
31.4269
29.5308
27.8208
26.1558
24.498
23.2067
22.3713
21.9259
21.752
21.7115
21.8788
22.3769
23.425
24.9646
26.2242
26.2845
27.7892
43.6119
47.0398
33.3638
29.232
26.3808
25.9484
26.7902
28.7386
31.4157
34.1893
36.1359
36.705
36.0302
34.4087
32.3045
30.1371
28.001
26.2014
24.6438
23.4169
22.5372
21.9296
21.5254
21.3919
21.6705
22.4269
23.556
24.8511
25.456
28.2211
46.4569
50.8792
31.4162
28.4599
26.2894
25.7093
26.3377
28.1033
30.945
34.117
36.2534
37.2396
37.1828
35.6676
33.5826
31.283
29.0704
26.9764
25.0081
23.4404
22.3237
21.5595
21.0384
20.7799
20.8744
21.4402
22.3586
23.4858
24.3853
27.3672
49.9584
54.5796
29.9427
26.6703
25.0961
24.9908
25.8098
27.6398
30.5658
33.8076
36.1299
38.1374
39.0478
36.9913
34.145
31.6681
29.5267
27.2176
25.0683
23.3496
22.0726
21.1726
20.5456
20.206
20.2508
20.7799
21.7675
23.131
24.0434
26.9968
53.6249
57.3741
29.3515
25.6883
24.2722
24.3554
25.4476
27.5429
30.6117
33.7274
36.1536
39.4452
41.3644
38.6364
34.8424
32.0084
29.7292
27.2961
25.0052
23.1562
21.7607
20.7498
20.0579
19.7092
19.7708
20.3249
21.4418
23.0845
24.0884
26.8908
55.3779
60.074
29.3514
25.2305
24.0565
24.1582
25.4371
27.7431
30.9261
33.8825
36.3752
40.4688
42.6912
39.5357
35.239
32.1628
29.7236
27.1345
24.7797
22.8791
21.425
20.3536
19.6337
19.2966
19.382
19.9569
21.1365
22.9003
23.9726
26.5821
54.9955
62.104
29.5431
25.0714
24.1027
24.2878
25.6626
28.0898
31.2712
34.074
36.6345
40.8523
42.6714
39.3922
35.0434
31.9206
29.4041
26.765
24.4206
22.5301
21.0674
19.9776
19.2512
18.9223
19.0119
19.5732
20.7284
22.4401
23.4966
25.859
52.8783
63.4884
29.7526
24.9788
24.1511
24.518
25.953
28.3819
31.3923
33.99
36.5521
40.4254
41.6235
38.336
34.2198
31.2233
28.763
26.2079
23.9445
22.1088
20.6734
19.5933
18.8702
18.538
18.6055
19.1132
20.1633
21.7217
22.7399
25.0648
50.573
64.7569
30.0217
24.9719
24.1734
24.7006
26.1718
28.5166
31.216
33.5472
35.9611
39.0847
39.5585
36.5084
32.8715
30.1551
27.8576
25.486
23.362
21.6172
20.2352
19.1814
18.4645
18.1165
18.1415
18.5696
19.4785
20.8426
21.8226
24.4543
49.2387
66.5261
30.48
25.0675
24.1302
24.778
26.3153
28.4753
30.7154
32.6504
34.7271
36.9906
36.9197
34.2611
31.1884
28.8444
26.7674
24.6378
22.6886
21.0591
19.7483
18.7318
18.0229
17.6514
17.6237
17.9649
18.729
19.8942
20.8544
24.0501
49.3218
69.6111
31.2327
25.2876
24.0774
24.8035
26.3974
28.2774
29.9324
31.3936
33.0388
34.4877
34.0658
31.8693
29.3207
27.3331
25.5161
23.6801
21.9295
20.4329
19.2083
18.2393
17.5427
17.148
17.0698
17.3413
18.0104
18.9749
19.8918
23.6139
49.7458
72.9063
31.8395
25.3338
23.9208
24.6853
26.344
27.8368
28.8408
29.8393
31.0543
31.823
31.2291
29.4809
27.3988
25.7156
24.1977
22.6239
21.0799
19.7302
18.6079
17.6987
17.0218
16.6096
16.4875
16.6812
17.2613
18.0842
18.9875
22.8974
49.3444
72.7819
31.4586
24.9417
23.5195
24.095
25.689
26.875
27.4485
28.141
28.9769
29.2016
28.5434
27.1795
25.5008
24.097
22.8345
21.4808
20.1351
18.9435
17.9389
17.1028
16.4558
16.0325
15.8673
16.0062
16.4901
17.081
18.0983
22.0777
47.8083
68.4903
30.1683
24.1488
22.8951
23.3513
24.6415
25.5403
25.9502
26.4753
26.9272
26.7891
26.1421
25.0879
23.743
22.5395
21.4161
20.2333
19.0997
18.0783
17.1983
16.4457
15.8413
15.4218
15.2363
15.3291
15.6235
16.1295
17.313
21.3701
46.4728
61.846
28.4039
23.1896
22.206
22.6787
23.622
24.1865
24.5902
24.8282
24.8469
24.5248
23.9842
23.2338
22.1795
21.0715
20.0197
18.9819
17.9956
17.1221
16.3726
15.7234
15.1959
14.812
14.6265
14.6212
14.7989
15.3139
16.6532
20.7879
45.3767
57.561
26.6879
22.1244
21.4326
21.9593
22.5269
22.8767
23.1523
23.1144
22.8535
22.5015
22.0944
21.5618
20.7667
19.7407
18.6917
17.7533
16.9296
16.1826
15.5417
14.9977
14.556
14.2375
14.0212
13.9499
14.0906
14.6333
16.0532
20.1922
44.1573
53.8886
25.0404
20.9414
20.4233
20.8571
21.2
21.3699
21.383
21.1826
20.9139
20.6547
20.392
20.0392
19.4145
18.4806
17.4663
16.5933
15.8767
15.2619
14.7376
14.3026
13.9514
13.6706
13.4478
13.3531
13.4836
14.0154
15.4001
19.4376
42.8517
49.5113
23.29
19.6145
19.1448
19.4522
19.7252
19.7557
19.5714
19.3371
19.1731
19.0283
18.8645
18.5906
18.0476
17.2155
16.2956
15.4997
14.8616
14.3415
13.913
13.5676
13.2972
13.076
12.8827
12.7855
12.8964
13.36
14.5989
18.3762
40.8222
44.3715
21.4051
18.1778
17.7126
17.9257
18.1842
18.2258
18.0494
17.8379
17.7101
17.6003
17.451
17.1783
16.6737
15.9496
15.1611
14.463
13.8989
13.4519
13.0968
12.8165
12.5983
12.4199
12.2639
12.172
12.2383
12.5933
13.6445
17.0547
37.7592
38.8973
19.4861
16.7357
16.3249
16.5137
16.7813
16.8873
16.7923
16.6271
16.5013
16.3794
16.1992
15.8912
15.4016
14.7668
14.0984
13.497
13.0031
12.6152
12.3139
12.077
11.8844
11.7177
11.5678
11.4586
11.4628
11.7111
12.5939
15.633
34.257
34.18
17.8213
15.4571
15.1342
15.3214
15.5948
15.7476
15.7272
15.6105
15.4774
15.318
15.0867
14.7398
14.266
13.709
13.1405
12.6222
12.1872
11.8394
11.5661
11.3458
11.1542
10.9729
10.7974
10.6512
10.6001
10.7725
11.5188
14.2153
30.8869
30.7109
16.4907
14.4308
14.193
14.4108
14.6763
14.8338
14.8418
14.7388
14.5747
14.3616
14.0786
13.7076
13.2544
12.7557
12.2601
11.8072
11.4168
11.0931
10.8266
10.5997
10.3911
10.1846
9.97999
9.80396
9.71782
9.83884
10.4748
12.8552
27.7464
28.8849
15.6125
13.7316
13.5945
13.854
14.0759
14.1026
14.0004
13.8592
13.6741
13.4362
13.133
12.7607
12.3347
11.8837
11.4404
11.0305
10.6678
10.3543
10.083
9.84047
9.61118
9.38416
9.16206
8.97048
8.86395
8.94728
9.49157
11.5862
24.8537
28.8074
15.2794
13.46
13.3907
13.6678
13.6549
13.3766
13.1381
12.9538
12.7551
12.5161
12.2254
11.874
11.4801
11.0699
10.6665
10.2872
9.94181
9.63193
9.35287
9.0957
8.85033
8.61036
8.38002
8.18178
8.0631
8.11608
8.5814
10.4196
22.1763
29.5052
15.4222
13.5354
13.4839
13.5215
13.1107
12.6283
12.3275
12.1155
11.9006
11.6553
11.3728
11.0459
10.6841
10.3081
9.93641
9.58105
9.24882
8.94173
8.65733
8.39027
8.13475
7.88783
7.65458
7.4542
7.328
7.35522
7.74985
9.35615
19.6765
31.8271
16.0543
13.8932
13.6065
13.0619
12.4227
11.9157
11.5935
11.3692
11.1417
10.8864
10.6035
10.2907
9.9524
9.60309
9.2561
8.92005
8.59973
8.29705
8.01121
7.73957
7.47932
7.22998
6.99709
6.79711
6.66612
6.67233
7.00522
8.40437
17.4202
35.7018
17.4105
14.6401
13.4402
12.3764
11.7252
11.2602
10.9338
10.705
10.4747
10.2117
9.92391
9.61652
9.29263
8.96209
8.63396
8.31376
8.00467
7.70819
7.42453
7.15284
6.89226
6.64395
6.41367
6.21584
6.08215
6.07295
6.35922
7.61391
15.5887
41.0379
19.9779
15.6204
13.0901
11.8285
11.154
10.6971
10.3597
10.1199
9.89238
9.62622
9.33198
9.0242
8.7085
8.39084
8.07713
7.7702
7.47171
7.18276
6.90397
6.63551
6.37787
6.13311
5.90709
5.71275
5.57828
5.55847
5.80935
6.95027
14.1074
47.5735
23.5974
16.5606
12.9831
11.4913
10.7375
10.243
9.88463
9.61781
9.38387
9.12006
8.82177
8.51136
8.20036
7.89237
7.59028
7.29479
7.00635
6.72561
6.45335
6.19033
5.93781
5.69838
5.47784
5.28807
5.15454
5.12787
5.35162
6.39868
12.9223
52.2636
25.6834
17.459
13.0673
11.2853
10.427
9.87237
9.4875
9.18459
8.93031
8.67291
8.37814
8.06986
7.76498
7.46662
7.17531
6.89028
6.61137
6.33906
6.07423
5.81797
5.57192
5.33899
5.12481
4.9405
4.80944
4.77902
4.98269
5.95485
12.0088
54.0737
25.6935
18.0092
13.3091
11.1901
10.1956
9.54695
9.11481
8.77877
8.5067
8.25359
7.9745
7.68221
7.39285
7.10896
6.83038
6.55628
6.28688
6.02314
5.76619
5.5174
5.27863
5.05291
4.84575
4.66764
4.5404
4.50899
4.69905
5.61489
11.3442
53.5802
25.041
17.8242
13.8065
11.2518
10.0704
9.32865
8.83704
8.43842
8.12366
7.85617
7.58924
7.32476
7.0651
6.80651
6.54728
6.28773
6.0297
5.77545
5.52699
5.28622
5.05528
4.83727
4.63761
4.46635
4.34418
4.31433
4.49704
5.37502
10.9043
51.4533
23.7867
17.1616
14.3741
11.5185
10.05
9.25284
8.70597
8.24523
7.86562
7.55208
7.26805
7.00856
6.77119
6.54306
6.31199
6.07448
5.83276
5.59086
5.35252
5.12076
4.89832
4.68855
4.49686
4.33306
4.2171
4.19128
4.37282
5.23285
10.6848
45.3661
21.6922
16.4203
14.0571
11.801
10.0953
9.25432
8.63268
8.13527
7.72332
7.37437
7.06513
6.79018
6.55226
6.33782
6.12784
5.91218
5.68954
5.46313
5.23738
5.01637
4.8036
4.60286
4.4197
4.26395
4.15519
4.13568
4.32153
5.17997
10.6532
37.5757
19.1744
15.3155
13.1723
11.6588
10.0973
9.20656
8.58816
8.10076
7.67811
7.29998
6.96206
6.66942
6.42284
6.20785
6.00585
5.80418
5.59795
5.3876
5.17628
4.96802
4.76676
4.57643
4.40274
4.25542
4.1535
4.13915
4.32866
5.18812
10.7023
31.9808
16.8334
13.9607
12.3099
11.2705
10.028
9.14449
8.58097
8.13302
7.70912
7.30897
6.94571
6.63217
6.36981
6.14559
5.94349
5.74957
5.55632
5.36128
5.16516
4.97013
4.77986
4.59923
4.43417
4.29462
4.19993
4.19269
4.38911
5.25899
10.8952
26.942
14.7785
12.4475
11.3975
10.7884
9.82415
9.0429
8.59648
8.21882
7.80228
7.37934
6.99111
6.65774
6.37919
6.14379
5.93692
5.74597
5.56112
5.37792
5.19558
5.01566
4.84106
4.67503
4.52328
4.39598
4.31278
4.31722
4.52893
5.43121
11.2856
23.4678
13.2461
11.174
10.6213
10.4106
9.65823
8.90781
8.60639
8.31495
7.93211
7.50475
7.09573
6.73694
6.43594
6.18565
5.97294
5.78368
5.60802
5.43998
5.27598
5.11503
4.95783
4.80757
4.67003
4.55549
4.48423
4.50142
4.73128
5.6746
11.7752
23.2203
12.2311
10.36
10.2896
10.0372
9.26703
8.79002
8.59906
8.38671
8.06922
7.65581
7.23762
6.86121
6.54297
6.27999
6.06159
5.87476
5.70861
5.5545
5.40726
5.26425
5.12506
4.99182
4.86969
4.76898
4.71063
4.74167
4.99146
5.9818
12.3686
23.7549
11.249
9.95971
9.9803
9.46266
8.96284
8.70573
8.58175
8.44961
8.20594
7.82119
7.40095
7.01492
6.68766
6.41921
6.19995
6.01772
5.86124
5.72125
5.59131
5.46708
5.34676
5.23137
5.12541
5.03913
4.99418
5.03965
5.31126
6.35581
13.0738
24.3175
11.1075
9.82268
9.5026
9.11489
8.81001
8.6495
8.59989
8.53816
8.32062
7.969
7.56413
7.18711
6.86562
6.6017
6.38841
6.21544
6.07199
5.94866
5.83728
5.73264
5.63168
5.53434
5.44447
5.37221
5.34005
5.39953
5.69402
6.80027
13.9061
24.5936
11.3882
9.87196
9.32951
8.95975
8.7308
8.66038
8.69388
8.63291
8.39279
8.04766
7.69107
7.36105
7.07173
6.82946
6.63361
6.47795
6.35344
6.25027
6.16025
6.07654
5.99529
5.91556
5.84058
5.78046
5.75869
5.82983
6.14641
7.32076
14.8823
24.4434
11.7839
9.87636
9.20267
8.84928
8.71135
8.74425
8.85705
8.75367
8.4283
8.10215
7.80878
7.54815
7.3138
7.11193
6.9486
6.82202
6.72514
6.64889
6.58438
6.52428
6.46356
6.40054
6.33798
6.28603
6.26953
6.34689
6.6817
7.92947
16.0254
23.3613
11.7284
9.70572
9.01294
8.75218
8.73415
8.87607
8.99665
8.8082
8.50225
8.22422
7.99148
7.79545
7.62265
7.47553
7.36051
7.27748
7.2205
7.18079
7.14906
7.11718
7.07905
7.03195
6.9781
6.92776
6.90732
6.98022
7.32383
8.64683
17.3766
20.8269
11.4305
9.33363
8.77353
8.66841
8.78174
9.02684
9.12117
8.87915
8.66146
8.45449
8.28404
8.15191
8.04702
7.9681
7.91783
7.8952
7.89386
7.90443
7.91679
7.92117
7.90998
7.87911
7.82956
7.77144
7.73288
7.78381
8.11916
9.51645
19.0336
18.5029
10.7533
8.92873
8.56678
8.63246
8.88712
9.18328
9.20481
9.04885
8.92352
8.81408
8.72991
8.67878
8.65678
8.66248
8.69575
8.75396
8.82867
8.90898
8.98255
9.03707
9.06201
9.05056
9.00207
8.92527
8.85023
8.85473
9.15625
10.6265
21.195
16.846
10.1204
8.62999
8.4795
8.69741
9.09902
9.44219
9.43372
9.37143
9.3635
9.38073
9.41297
9.46734
9.54927
9.661
9.80177
9.96613
10.1437
10.3209
10.482
10.6102
10.6898
10.7089
10.6632
10.5596
10.4294
10.3591
10.5966
12.1466
24.2221
15.6901
9.70785
8.52437
8.5592
8.94504
9.48873
9.88341
9.94905
10.0122
10.1323
10.2968
10.4691
10.65
10.8579
11.1006
11.3768
11.6788
11.994
12.3061
12.5947
12.836
13.0053
13.0818
13.0542
12.9274
12.7322
12.5661
12.7184
14.3892
28.7626
14.8188
9.51698
8.63985
8.89955
9.50961
10.1824
10.6102
10.8505
11.1086
11.4183
11.755
12.0763
12.3956
12.7506
13.1506
13.593
14.0682
14.5637
15.0616
15.5368
15.9545
16.2753
16.463
16.4964
16.3774
16.1371
15.886
15.9687
17.8746
35.8836
14.2839
9.54505
9.1171
9.73848
10.6409
11.4514
11.9656
12.4455
12.9571
13.4811
13.9735
14.4192
14.8924
15.4216
16.0061
16.6437
17.3267
18.0477
18.7937
19.5353
20.2244
20.7976
21.1889
21.3687
21.3393
21.1447
20.9098
21.0417
23.4154
46.7102
14.5219
9.92943
10.2549
11.486
12.8059
13.8115
14.5525
15.2734
15.9984
16.6723
17.274
17.8314
18.4378
19.1347
19.9113
20.7556
21.6623
22.6419
23.695
24.7896
25.868
26.8352
27.5661
28.0251
28.2372
28.2944
28.3834
29.0135
32.6572
64.7963
15.832
11.1775
12.6361
14.8738
16.8734
18.2372
19.1821
20.0184
20.7949
21.5471
22.2598
22.9153
23.5882
24.3754
25.2668
26.2476
27.3364
28.5738
29.9559
31.4562
33.0262
34.5083
35.7492
36.6422
37.2768
37.9003
38.8738
41.0473
48.0207
95.8279
19.7668
14.3107
17.3116
21.0203
24.1834
26.1396
27.0105
27.5405
28.2276
29.0457
29.8756
30.5825
31.2035
31.8662
32.6387
33.5442
34.6867
36.1326
37.7663
39.6419
41.7793
43.8854
45.813
47.2087
48.3262
49.754
52.1471
56.9404
69.712
148.969
29.0375
20.8879
25.3706
31.1386
36.3504
39.412
39.5073
39.029
39.5536
40.3727
41.1905
41.7966
42.1434
42.3357
42.6102
43.1097
44.129
45.5944
47.0798
49.0943
52.0826
55.3745
57.933
59.4037
60.5683
62.4777
66.0384
73.0706
92.1748
215.499
46.9197
31.6663
36.9207
45.5049
55.1311
57.8057
55.8501
55.7983
56.2046
56.5493
57.0344
57.2211
56.957
56.373
55.6539
55.1185
55.231
55.6244
56.425
58.9485
63.3979
67.7414
70.1159
70.5545
71.018
72.8155
76.9343
85.0842
106.186
244.516
68.6975
43.9246
49.2186
60.9202
72.7341
77.1301
76.5128
76.4569
75.9296
75.4329
75.5384
74.9059
73.2314
71.0928
68.8146
66.8326
65.3081
64.2256
64.4207
67.2718
73.0059
77.4204
78.8971
78.1254
77.6112
79.6257
85.0151
94.122
115.874
256.402
79.6755
52.3629
57.1858
68.318
83.3818
88.6925
86.6302
85.5193
85.9359
87.0337
87.405
86.0965
83.1182
79.4573
75.985
72.9829
70.3031
68.2771
68.1331
70.3708
74.6113
79.0691
81.4949
81.1552
80.6014
82.9876
89.6797
101.101
126.878
283.786
78.1852
54.6221
58.0272
66.7031
79.9905
91.3288
92.243
88.4381
84.0949
81.3929
79.6629
78.0295
76.113
74.1722
72.5155
70.9708
69.3098
68.1897
69.044
72.0723
75.6672
78.5948
80.733
81.3861
81.6381
84.2168
91.1489
104.103
134.746
312.977
78.7766
55.9942
57.962
64.8523
76.067
88.266
93.0595
89.0195
82.2596
76.741
72.7622
70.0482
68.241
67.137
66.5983
66.3441
66.2937
67.0777
69.9804
75.0307
79.2693
80.703
81.1315
81.6099
82.1806
84.5046
90.8626
104.078
137.317
325.682
88.2325
61.487
62.7312
68.4228
78.2965
86.9133
93.0004
89.4538
81.1741
73.8049
68.378
64.7416
62.5444
61.4631
61.2596
61.6741
62.8871
65.5406
70.5732
77.7179
83.6774
84.8699
83.3646
82.5558
82.8126
84.5968
90.1002
102.941
136.687
324.71
117.212
71.6742
69.1912
78.1828
83.6914
87.993
91.1489
88.6648
80.4409
72.0449
65.6181
61.2248
58.5573
57.2787
57.1583
57.9695
60.0769
64.0684
70.6068
79.4293
87.3713
89.6156
86.7463
84.0543
83.5122
84.6429
89.1942
101.041
134.188
316.62
145.482
79.3137
77.5214
81.3609
86.5651
86.4303
86.2388
85.2028
79.1604
71.1054
64.2677
59.2977
56.141
54.549
54.3387
55.3214
57.908
62.6381
70.0279
79.7553
89.3424
93.5123
90.3773
85.7324
84.0694
84.5593
88.201
98.7622
129.579
298.79
154.513
85.0912
80.9099
79.8997
84.6319
81.6839
79.355
79.6974
77.2533
71.049
64.4078
58.9865
55.2557
53.1861
52.6785
53.594
56.2714
61.2125
68.7896
78.8114
89.2722
95.645
93.6132
87.38
84.3221
84.2189
87.1316
96.3306
124.115
276.684
156.985
86.5411
79.8948
76.8561
81.9548
77.7901
73.2171
73.7076
74.7346
71.7002
65.9657
60.1832
55.7734
53.068
52.0382
52.6457
55.0817
59.8174
67.0747
76.7283
87.4176
95.3742
95.6019
88.8481
84.2545
83.568
86.0247
93.9061
118.178
253.56
157.409
86.675
76.1989
73.2823
77.7381
74.6856
68.8766
68.4399
71.5444
72.3842
68.7156
62.8034
57.5349
53.9492
52.2302
52.3255
54.2607
58.4652
65.033
73.8195
83.88
92.6906
95.3969
89.9601
84.0627
82.6358
84.8525
91.6519
112.612
230.617
158.545
84.2676
70.9439
69.0015
71.9456
70.7459
65.3741
64.2269
68.0265
72.3639
71.8606
66.5079
60.3429
55.7274
53.0757
52.4433
53.7211
57.1462
62.7737
70.3778
79.2552
87.7804
92.73
90.1898
83.8699
81.3347
83.17
89.1873
107.217
208.606
159.541
78.1873
65.017
63.8951
65.2276
65.0358
61.8453
60.7699
64.6282
71.0765
74.7044
70.7589
63.8071
58.0733
54.4068
52.8583
53.3529
55.8498
60.4018
66.6879
74.1309
81.6727
87.5063
88.5361
83.8126
80.124
80.5913
86.0641
102.024
184.374
155.184
70.8623
58.9759
58.0126
58.459
58.356
57.718
57.5462
61.5042
68.8251
76.1034
74.9036
67.5891
60.7103
55.9675
53.4512
53.0581
54.59
58.0253
63.0097
69.0191
75.3174
80.9469
84.3578
83.3314
79.6422
78.0585
82.1187
96.3772
158.98
139.909
63.088
52.8001
51.9544
52.1189
52.0436
53.0637
54.2808
58.5485
66.25
75.8942
78.2808
71.2357
63.3715
57.5696
54.0805
52.7685
53.3952
55.7512
59.5376
64.2419
69.308
74.1863
78.2656
80.3647
78.7584
76.0388
77.1164
88.3989
133.112
122.546
55.691
46.8116
45.9332
46.0796
46.5282
48.4264
50.9115
55.5539
63.4735
74.3037
80.4019
74.378
65.8005
59.038
54.6358
52.4637
52.2586
53.655
56.3807
59.9438
63.8873
67.8384
71.5418
74.5333
75.5223
73.4072
71.4294
77.261
109.37
104.7
49.0505
41.3182
40.2806
40.607
41.8355
44.3332
47.5537
52.5692
60.729
72.133
80.7688
76.525
67.6429
60.1496
54.99
52.0923
51.1512
51.7617
53.5667
56.1601
59.1249
62.1713
65.147
67.84
69.4742
68.7888
66.0024
66.4484
92.5513
87.5339
43.1512
36.6329
35.5171
36.1022
37.9536
40.9971
44.6421
49.8623
58.1352
69.6443
79.4694
77.038
68.4394
60.626
54.9869
51.5712
50.0474
50.0207
51.069
52.8567
54.9935
57.2395
59.4757
61.5499
62.9294
62.7375
60.6994
59.3763
86.3709
73.2921
38.1173
32.8481
31.8424
32.7727
34.9695
38.2542
42.2283
47.6607
55.8776
67.0236
76.9879
75.7299
67.9343
60.3214
54.5751
50.8428
48.9018
48.365
48.8285
49.9512
51.4046
52.976
54.5707
56.0643
57.0497
56.9513
55.8445
55.9444
89.6737
62.7919
34.1383
29.9057
29.2132
30.4031
32.7754
36.1448
40.3375
45.9665
53.9741
64.5725
74.1637
73.1975
66.359
59.2945
53.689
49.869
47.6696
46.7529
46.76
47.3435
48.2432
49.2672
50.3427
51.3796
52.0695
52.0966
51.9633
54.7908
98.1985
54.8805
31.2599
27.6785
27.4331
28.8759
31.3741
34.7464
38.997
44.6996
52.3515
62.4011
71.2643
70.0057
64.0779
57.6972
52.4254
48.6652
46.3288
45.1414
44.7861
44.9516
45.4037
45.9956
46.675
47.3821
47.8922
48.1038
48.8282
54.0827
105.763
51.1054
29.7077
26.3449
26.3654
27.9983
30.601
33.9628
38.1829
43.8203
50.9823
60.1776
67.8737
66.5141
61.4493
55.7753
50.897
47.2718
44.8783
43.5003
42.863
42.6988
42.8039
43.0677
43.4612
43.95
44.3687
44.7736
46.1718
53.1376
109.578
56.3847
30.0589
25.8686
25.8149
27.4823
30.1674
33.5615
37.7675
43.237
50.0033
58.1286
64.199
63.0813
58.7564
53.7045
49.2052
45.7426
43.3375
41.8217
40.9617
40.536
40.3831
40.4139
40.6164
40.9778
41.364
41.9314
43.7891
51.6805
108.955
66.4559
30.9124
25.7127
25.4744
27.0618
29.7397
33.2004
37.475
42.7462
49.2066
56.5289
61.1858
60.1147
56.2483
51.6382
47.4479
44.1409
41.745
40.122
39.0795
38.4465
38.1025
37.9783
38.0701
38.3679
38.7591
39.4492
41.5865
49.891
106.509
61.195
28.8681
24.9577
24.9962
26.4655
29.1155
32.6475
37.0554
42.2272
48.4834
55.2747
59.0529
57.7584
54.0344
49.6646
45.6961
42.5256
40.1507
38.4414
37.2456
36.4451
35.9575
35.7291
35.7598
36.0337
36.4494
37.2245
39.4978
47.8022
101.683
52.9566
26.3725
23.5431
24.093
25.7684
28.376
31.9471
36.4399
41.6045
47.9107
54.5448
57.5591
55.8721
52.0722
47.7932
43.9792
40.9348
38.6019
36.8361
35.5204
34.5865
33.986
33.6781
33.6597
33.9156
34.351
35.1738
37.4789
45.5209
95.9678
44.7199
23.7929
21.8599
22.9445
24.9459
27.6398
31.1631
35.6155
40.808
47.3667
54.0442
56.2516
54.1364
50.1927
45.9576
42.2799
39.3775
37.1286
35.3602
33.977
32.9517
32.2663
31.8922
31.813
32.0139
32.4301
33.2548
35.5126
43.1278
89.939
36.3332
21.6176
20.5189
21.8782
24.0879
26.92
30.3927
34.6721
39.7809
46.3567
52.9599
54.402
52.0522
48.143
44.0551
40.5613
37.8429
35.7381
34.0443
32.6692
31.6106
30.8789
30.4623
30.3206
30.4095
30.7238
31.4859
33.6329
40.658
83.5729
33.294
20.8458
19.9857
21.3126
23.5105
26.3363
29.7828
33.9197
38.7273
44.8859
51.0834
51.8543
49.4988
45.8664
42.0669
38.8197
36.3241
34.4186
32.8824
31.6031
30.5788
29.8497
29.4311
29.2576
29.2168
29.3224
29.9026
31.8933
38.4013
77.1079
32.5735
21.1075
20.1485
21.2653
23.3227
26.0273
29.3824
33.4335
37.8936
43.3949
48.793
49.0699
46.8527
43.5612
40.0809
37.0931
34.8255
33.1456
31.8315
30.7306
29.8103
29.1332
28.7467
28.5756
28.4376
28.2967
28.5539
30.2437
36.3409
70.7384
37.5749
22.9917
21.0224
21.7747
23.5343
26.0032
29.1722
33.0285
37.4962
42.6238
46.8345
46.7583
44.5349
41.4319
38.1928
35.4262
33.3574
31.8907
30.8239
29.9636
29.2139
28.6326
28.291
28.1304
27.9393
27.5967
27.4776
28.6886
34.1651
64.5351
45.5455
25.0061
22.3656
22.7311
24.1282
26.2811
29.1764
32.8105
37.2779
42.2978
45.8673
45.1088
42.592
39.515
36.4403
33.8526
31.9411
30.6426
29.8012
29.2074
28.6877
28.25
27.9545
27.7653
27.5072
27.0414
26.6239
27.2826
31.8456
59.2083
50.3117
26.7579
24.0378
24.0858
25.0885
26.8678
29.4546
32.8623
37.0232
41.9624
45.1811
43.7773
40.8906
37.7785
34.8335
32.3998
30.6116
29.4215
28.7437
28.3962
28.1419
27.8977
27.6647
27.4078
27.0313
26.4724
25.9109
26.166
29.6164
54.8747
58.0906
29.6758
26.084
25.8885
26.4622
27.8187
30.0279
33.1678
37.0178
41.8358
44.5816
42.6479
39.4242
36.2413
33.3931
31.0909
29.4046
28.2696
27.675
27.5087
27.5168
27.5107
27.3894
27.0801
26.5528
25.863
25.2205
25.3066
28.1727
54.0047
70.586
33.7707
28.4743
27.8927
28.2351
29.0571
30.8809
33.7543
37.4285
42.0981
44.1591
41.7546
38.244
34.9486
32.1425
29.9365
28.3365
27.2275
26.642
26.5609
26.7848
27.0508
27.126
26.8414
26.1822
25.3265
24.5785
24.6006
27.4767
55.1176
76.0135
36.346
30.4338
29.4229
29.7964
30.5184
32.0281
34.6744
38.3794
42.7987
44.1458
41.2234
37.3932
33.9298
31.0948
28.9346
27.3996
26.3113
25.689
25.5976
25.9465
26.4831
26.8733
26.7545
26.0549
25.0072
24.095
24.077
27.2916
57.9919
77.7338
37.5705
31.8518
30.8418
31.1672
32.0652
33.4591
35.9816
39.7453
43.6626
44.4654
41.0039
36.8257
33.1615
30.2393
28.0731
26.5708
25.5087
24.8374
24.6728
25.0353
25.7711
26.5451
26.8023
26.2122
25.0449
23.9012
23.7766
27.4126
61.8705
81.2254
39.1585
33.4928
32.6066
32.9115
33.7533
35.1406
37.559
41.2548
44.851
45.0254
40.9143
36.4067
32.561
29.5379
27.3295
25.8226
24.7849
24.0791
23.8255
24.112
24.9143
26.0176
26.8337
26.6507
25.4453
24.0572
23.8008
27.7417
65.5444
83.347
40.8521
35.367
34.6606
35.0823
35.8533
37.2097
39.4065
42.9216
46.2812
45.5397
40.7494
35.9854
32.0269
28.934
26.6726
25.1333
24.104
23.3864
23.0626
23.2391
23.9904
25.2549
26.6604
27.306
26.4294
24.6864
24.0774
28.2321
68.7866
84.0346
42.7247
37.8104
37.2164
37.7972
38.5546
39.7827
41.584
44.5825
47.4859
45.6788
40.3465
35.4494
31.484
28.3699
26.0693
24.4867
23.4434
22.7302
22.3652
22.4438
23.0965
24.3695
26.1733
27.8287
28.0246
26.163
24.8546
28.9275
71.9847
88.5127
45.4769
41.0564
40.5278
41.2738
42.0314
42.9202
44.1626
45.9205
48.4301
45.4634
39.6956
34.7709
30.884
27.8068
25.4946
23.872
22.7964
22.0869
21.707
21.7193
22.2852
23.5058
25.4624
27.9743
29.8122
28.7713
26.5031
29.9635
75.1401
98.6994
49.8839
45.4084
44.8813
45.8075
46.672
47.1099
47.5759
48.1255
49.1397
44.8382
38.9057
34.018
30.2423
27.2436
24.9434
23.2895
22.1722
21.4489
21.0657
21.0455
21.5559
22.7369
24.7509
27.7363
31.0865
32.2183
29.5064
31.7512
79.122
111.216
56.1682
51.1096
50.7863
51.9589
52.9976
53.1246
52.4737
51.7196
50.0568
44.336
38.1775
33.3023
29.6191
26.7099
24.4318
22.7542
21.5926
20.8343
20.4378
20.4034
20.8837
22.0444
24.0787
27.232
31.5762
35.3548
34.1436
34.5177
83.4579
123.59
64.1324
58.556
58.7598
60.4165
61.6615
61.4871
59.6304
57.1084
51.8306
44.2498
37.7123
32.7771
29.106
26.2523
23.9941
22.2964
21.0902
20.2835
19.8496
19.7896
20.2451
21.3938
23.4423
26.661
31.3793
37.2073
39.8355
38.8926
89.3871
133.808
73.4589
68.0968
69.2419
71.6459
73.3773
73.0578
69.875
64.3852
54.5696
44.7946
37.7223
32.6171
28.8337
25.95
23.6841
21.9568
20.703
19.8401
19.3472
19.2362
19.6428
20.7647
22.8177
26.0709
30.929
37.8485
44.5759
45.037
94.8851
147.089