/*--------------------------------*- C++ -*----------------------------------*\
| =========                 |                                                 |
| \\      /  F ield         | OpenFOAM: The Open Source CFD Toolbox           |
|  \\    /   O peration     | Version:  v1606+                                |
|   \\  /    A nd           | Web:      www.OpenFOAM.com                      |
|    \\/     M anipulation  |                                                 |
\*---------------------------------------------------------------------------*/
FoamFile
{
    version     2.0;
    format      ascii;
    class       volScalarField;
    location    "1.31";
    object      k.air;
}
// * * * * * * * * * * * * * * * * * * * * * * * * * * * * * * * * * * * * * //

dimensions      [0 2 -2 0 0 0 0];

internalField   nonuniform List<scalar> 
6000
(
0.885227
0.951453
0.965319
0.967187
0.969017
0.972005
0.974509
0.975476
0.976374
0.97749
0.978823
0.981519
0.985027
0.987327
0.988216
0.988202
0.987605
0.987282
0.987378
0.987949
0.990876
0.990857
0.984283
0.975266
0.970326
0.969272
0.967782
0.963275
0.95082
0.887715
0.644431
0.913788
0.981971
1.00407
1.0155
1.0258
1.03277
1.03438
1.03521
1.03674
1.04113
1.05359
1.07305
1.08973
1.09538
1.09214
1.08648
1.0813
1.0777
1.07942
1.08779
1.0925
1.07565
1.05067
1.03125
1.01607
0.996773
0.96642
0.902507
0.6488
0.503831
0.814296
0.916113
0.955163
0.979767
0.999545
1.0061
1.00944
1.01423
1.01977
1.02655
1.03657
1.0479
1.0563
1.05943
1.05827
1.05568
1.05348
1.05282
1.05572
1.06206
1.06554
1.06146
1.05459
1.04375
1.02165
0.982796
0.922168
0.797956
0.486025
0.414285
0.731143
0.867365
0.931445
0.955298
0.977036
0.994077
1.0044
1.01527
1.02738
1.04139
1.0556
1.06535
1.06911
1.07042
1.07137
1.0724
1.07196
1.06958
1.06775
1.073
1.08344
1.09958
1.12304
1.12791
1.08096
0.997596
0.882113
0.700611
0.385104
0.340465
0.643862
0.808172
0.899868
0.950874
0.986247
1.01347
1.02719
1.04237
1.06124
1.08223
1.09765
1.10347
1.10233
1.1009
1.10221
1.10513
1.10752
1.10902
1.11203
1.12589
1.15118
1.19901
1.27967
1.27058
1.15847
1.01819
0.852093
0.625815
0.311947
0.288557
0.573297
0.761234
0.87847
0.959063
1.02945
1.06933
1.09012
1.11142
1.13428
1.16009
1.18687
1.19824
1.19639
1.19249
1.19196
1.19489
1.20045
1.20826
1.21801
1.23954
1.28041
1.35959
1.4478
1.36683
1.21258
1.0344
0.826921
0.567592
0.258698
0.244494
0.519236
0.736326
0.887904
0.993214
1.12382
1.18497
1.2115
1.24143
1.27817
1.3017
1.30791
1.2999
1.28447
1.27002
1.26297
1.26497
1.27655
1.29939
1.33229
1.36902
1.41605
1.47893
1.48526
1.39839
1.25074
1.0527
0.823802
0.553808
0.238357
0.22047
0.502453
0.745393
0.935553
1.07925
1.24792
1.38235
1.42935
1.44264
1.4322
1.40374
1.37853
1.35153
1.31777
1.28988
1.27652
1.27736
1.29198
1.32195
1.37211
1.43524
1.48736
1.52157
1.48619
1.4175
1.27521
1.07516
0.84473
0.574016
0.243865
0.223271
0.528174
0.799225
1.02898
1.21571
1.39806
1.58425
1.64885
1.59578
1.50303
1.43619
1.38801
1.34483
1.31025
1.2811
1.26678
1.26826
1.28497
1.31761
1.36781
1.43176
1.50482
1.55673
1.50929
1.44266
1.31221
1.11381
0.891593
0.626111
0.269315
0.250937
0.604388
0.895806
1.14022
1.34944
1.51191
1.6524
1.68815
1.60121
1.49611
1.42043
1.37065
1.32973
1.29578
1.27021
1.25839
1.26197
1.28049
1.31221
1.35634
1.41309
1.48391
1.53707
1.50629
1.46912
1.3771
1.16934
0.950189
0.687394
0.301768
0.300295
0.701654
1.00212
1.25168
1.47056
1.57628
1.62809
1.63463
1.56751
1.47865
1.40737
1.36033
1.3229
1.29083
1.26646
1.2554
1.25968
1.27696
1.30537
1.34445
1.39576
1.45895
1.50316
1.48912
1.47285
1.43445
1.22905
1.00773
0.745831
0.33125
0.346572
0.794647
1.10156
1.36149
1.59237
1.62513
1.60243
1.58473
1.53431
1.46338
1.3981
1.35088
1.3167
1.29103
1.27142
1.26013
1.26305
1.27569
1.2997
1.33425
1.38156
1.43346
1.47377
1.46643
1.45978
1.45281
1.27774
1.05659
0.795317
0.356504
0.386519
0.874491
1.18423
1.45566
1.68107
1.65769
1.59261
1.55763
1.51369
1.45123
1.39105
1.34806
1.31871
1.29747
1.28195
1.27229
1.27045
1.27688
1.29598
1.32703
1.36682
1.40194
1.44054
1.44208
1.43655
1.44006
1.30898
1.09423
0.832466
0.377717
0.418742
0.936906
1.2476
1.52352
1.73104
1.67241
1.58977
1.54868
1.50616
1.44742
1.39201
1.35451
1.32991
1.31369
1.3021
1.29163
1.28057
1.28142
1.2955
1.32392
1.34558
1.36968
1.40491
1.41857
1.4079
1.40685
1.31694
1.1172
0.85662
0.392097
0.442656
0.979855
1.2912
1.56199
1.7435
1.66747
1.58946
1.55049
1.50692
1.45093
1.40167
1.37012
1.35031
1.339
1.33142
1.31878
1.29811
1.29095
1.30336
1.31894
1.32754
1.34419
1.36926
1.38679
1.37827
1.36212
1.30434
1.12843
0.869868
0.399283
0.456971
1.00669
1.31686
1.57331
1.72034
1.64747
1.59318
1.56417
1.51835
1.46169
1.42053
1.39431
1.37801
1.37048
1.36607
1.34917
1.32067
1.31076
1.3175
1.31836
1.3213
1.33054
1.34042
1.35046
1.3465
1.31914
1.27049
1.13007
0.876493
0.402724
0.465323
1.02381
1.33308
1.57297
1.68506
1.6351
1.61232
1.58564
1.52885
1.48115
1.45046
1.42945
1.41527
1.40863
1.40376
1.38164
1.35072
1.34027
1.335
1.32749
1.32896
1.33125
1.32658
1.32107
1.31393
1.28584
1.22576
1.11306
0.875518
0.399722
0.4651
1.02532
1.34345
1.57043
1.64665
1.63934
1.62897
1.58703
1.54088
1.5129
1.49463
1.4786
1.46538
1.45782
1.45011
1.42335
1.394
1.37801
1.36217
1.35456
1.35466
1.34947
1.33448
1.31379
1.29145
1.25918
1.19314
1.07757
0.867168
0.411442
0.469185
1.01678
1.34232
1.55047
1.61944
1.63551
1.61565
1.58275
1.56672
1.56315
1.55743
1.54639
1.5341
1.52569
1.51519
1.48595
1.45644
1.43105
1.41258
1.40734
1.40391
1.39178
1.36818
1.33591
1.29725
1.24478
1.16652
1.04418
0.846658
0.408353
0.454359
1.00241
1.31698
1.50013
1.58154
1.6069
1.59928
1.60219
1.62278
1.64213
1.64859
1.64239
1.63068
1.62155
1.60953
1.57954
1.5443
1.5118
1.49309
1.48416
1.47391
1.45647
1.42888
1.38981
1.33733
1.26491
1.15925
1.01074
0.800064
0.390232
0.431885
0.960005
1.25097
1.42329
1.52583
1.58288
1.61984
1.66508
1.71672
1.75715
1.77726
1.77672
1.76427
1.75217
1.73902
1.70694
1.66239
1.62389
1.59865
1.58013
1.56245
1.54168
1.51403
1.47509
1.41754
1.32695
1.1927
1.00919
0.759393
0.347617
0.39878
0.910084
1.18825
1.36778
1.50366
1.60449
1.68819
1.7718
1.85138
1.91444
1.94876
1.95177
1.93581
1.91747
1.89994
1.86163
1.80626
1.75823
1.72269
1.69446
1.67016
1.64793
1.62491
1.59507
1.5426
1.43808
1.275
1.05214
0.760905
0.332346
0.370191
0.882794
1.1797
1.38111
1.54134
1.67974
1.80625
1.92627
2.03745
2.1251
2.17267
2.1712
2.14295
2.11027
2.07946
2.03051
1.9644
1.90589
1.8627
1.82802
1.79788
1.77096
1.74756
1.72426
1.68275
1.59075
1.41265
1.147
0.807606
0.346611
0.397562
0.921767
1.25803
1.44461
1.63241
1.80643
1.97494
2.13404
2.27317
2.38256
2.44342
2.43521
2.37749
2.31952
2.26492
2.2007
2.12502
2.06122
2.00951
1.96987
1.93546
1.90266
1.87339
1.84475
1.80301
1.72267
1.55383
1.27452
0.892998
0.387469
0.42329
0.986946
1.32632
1.5418
1.75005
1.94975
2.15275
2.35156
2.52082
2.64729
2.70494
2.68613
2.61269
2.51823
2.43716
2.35652
2.27186
2.20026
2.14139
2.08983
2.03836
1.97944
1.91552
1.85071
1.79141
1.72479
1.60639
1.35198
0.966036
0.418763
0.441312
1.03564
1.36976
1.57517
1.78294
1.99614
2.22085
2.4487
2.65378
2.7982
2.86178
2.84946
2.77265
2.66903
2.56937
2.46678
2.38107
2.29181
2.2057
2.125
2.04598
1.96456
1.88239
1.80536
1.73224
1.65283
1.54688
1.33643
0.999827
0.436687
0.46498
1.05095
1.38225
1.59011
1.78255
1.98303
2.19819
2.43041
2.65043
2.80174
2.88338
2.90015
2.83717
2.73941
2.63386
2.53298
2.42491
2.30892
2.2022
2.10723
2.0191
1.93139
1.84369
1.7599
1.68207
1.59963
1.49643
1.32109
1.02222
0.458821
0.487291
1.0716
1.38389
1.58724
1.7818
1.97872
2.18767
2.4177
2.63604
2.79227
2.91393
2.96935
2.88946
2.76768
2.65676
2.55482
2.43162
2.30553
2.19008
2.08663
1.99187
1.89994
1.81006
1.72691
1.65148
1.57675
1.48828
1.32548
1.04784
0.481359
0.503825
1.09337
1.40056
1.60031
1.79021
1.9867
2.19698
2.42568
2.63305
2.7891
2.9597
3.05386
2.95006
2.79405
2.66969
2.55847
2.42885
2.29545
2.1732
2.06378
1.96401
1.87034
1.78261
1.70357
1.63294
1.56718
1.4926
1.33744
1.06254
0.49209
0.519529
1.11708
1.42424
1.63076
1.81455
2.00999
2.22128
2.44689
2.64033
2.79389
2.99263
3.09724
2.97873
2.8041
2.66982
2.55129
2.41381
2.27687
2.15239
2.04054
1.93874
1.84543
1.76102
1.68626
1.61989
1.55997
1.49271
1.34215
1.06383
0.490089
0.531188
1.13744
1.44889
1.66616
1.8499
2.04188
2.2497
2.46742
2.64764
2.79864
2.99884
3.08741
2.96432
2.78767
2.65103
2.52806
2.38819
2.25194
2.12822
2.01675
1.9154
1.82375
1.74249
1.67104
1.60743
1.54994
1.48388
1.33395
1.04997
0.477463
0.539086
1.15641
1.47159
1.69754
1.88467
2.07169
2.2725
2.47606
2.64182
2.78878
2.97199
3.03414
2.91045
2.74248
2.61014
2.48947
2.35327
2.22093
2.10037
1.9913
1.89203
1.80273
1.72412
1.65485
1.59248
1.53447
1.46577
1.31534
1.02936
0.463322
0.5463
1.17803
1.49497
1.723
1.91196
2.09376
2.28448
2.4683
2.6174
2.75369
2.90454
2.93867
2.82303
2.67321
2.55162
2.43758
2.30962
2.1841
2.06866
1.96345
1.86727
1.78061
1.70417
1.63633
1.57442
1.51499
1.44254
1.29085
1.00914
0.454976
0.556318
1.20579
1.51889
1.73925
1.92802
2.10699
2.28402
2.44311
2.57094
2.69013
2.80513
2.81676
2.7152
2.58717
2.48064
2.37586
2.25889
2.14197
2.03298
1.93268
1.84026
1.75643
1.6819
1.61515
1.5536
1.4928
1.41742
1.26643
0.996485
0.455209
0.573486
1.23635
1.53955
1.74606
1.93371
2.11065
2.2716
2.40109
2.50536
2.6045
2.6852
2.68177
2.59769
2.49012
2.39826
2.30462
2.20138
2.09441
1.99289
1.89837
1.81035
1.72966
1.65713
1.59164
1.53131
1.47139
1.39286
1.24267
0.991451
0.457606
0.591467
1.25005
1.53974
1.737
1.92492
2.10199
2.24273
2.3406
2.42238
2.50198
2.55396
2.54261
2.47614
2.38736
2.30806
2.22788
2.1371
2.04066
1.94747
1.8597
1.77681
1.69974
1.62946
1.56551
1.50578
1.44687
1.36689
1.21793
0.976888
0.455527
0.590875
1.22664
1.50946
1.7064
1.88833
2.06154
2.18579
2.26238
2.32896
2.39149
2.42001
2.40525
2.35432
2.28197
2.21457
2.14614
2.06602
1.97992
1.89584
1.81575
1.73879
1.6659
1.59815
1.53561
1.47744
1.41886
1.3324
1.18914
0.955285
0.446114
0.567479
1.17577
1.45968
1.66312
1.84239
2.00169
2.10938
2.17598
2.23378
2.2787
2.29109
2.27646
2.2385
2.18018
2.12128
2.05895
1.98708
1.91214
1.83788
1.76589
1.69543
1.62742
1.56292
1.50293
1.44656
1.38294
1.2952
1.15998
0.933878
0.437776
0.530229
1.12044
1.40734
1.61693
1.79567
1.9386
2.02854
2.09206
2.13584
2.16078
2.16473
2.15483
2.13065
2.08559
2.03048
1.97087
1.90594
1.83862
1.77284
1.70914
1.64617
1.58479
1.52523
1.46874
1.41078
1.34447
1.2589
1.13151
0.913963
0.430925
0.505437
1.0687
1.35357
1.56638
1.74249
1.86613
1.94464
2.00091
2.03102
2.0435
2.04644
2.04281
2.02907
1.99655
1.94482
1.88444
1.82421
1.76557
1.707
1.65021
1.59453
1.53993
1.48665
1.43145
1.37278
1.30652
1.2234
1.1015
0.892438
0.42327
0.483708
1.01763
1.29499
1.50357
1.66852
1.77887
1.84861
1.89161
1.91402
1.92675
1.93468
1.93826
1.93333
1.90904
1.86129
1.80193
1.74469
1.69178
1.64081
1.59125
1.54286
1.49488
1.44561
1.39217
1.3341
1.26837
1.18572
1.06613
0.865485
0.415001
0.457176
0.960934
1.22775
1.42578
1.57795
1.68311
1.74689
1.78119
1.80214
1.82022
1.83399
1.84235
1.84083
1.81978
1.77641
1.72141
1.66794
1.61923
1.57373
1.5301
1.48764
1.44534
1.40061
1.34998
1.2927
1.22649
1.14209
1.02257
0.829912
0.40199
0.424993
0.89784
1.15289
1.33879
1.48178
1.5865
1.65337
1.69027
1.71296
1.73228
1.74683
1.75459
1.75148
1.73066
1.69168
1.64307
1.59461
1.54985
1.50852
1.46938
1.43119
1.3925
1.35072
1.30243
1.24557
1.17742
1.0902
0.970475
0.784954
0.381766
0.389269
0.832128
1.07808
1.25687
1.39646
1.50244
1.57487
1.61842
1.64494
1.66425
1.67686
1.68092
1.67323
1.65045
1.61418
1.57089
1.52707
1.48585
1.44771
1.41166
1.37609
1.33901
1.29779
1.24938
1.19112
1.12012
1.03082
0.912446
0.734767
0.357827
0.357088
0.771787
1.01397
1.19037
1.32829
1.43496
1.51116
1.56014
1.59012
1.60874
1.61786
1.61697
1.60443
1.57992
1.54607
1.50713
1.4671
1.42856
1.39218
1.35728
1.32224
1.28472
1.24199
1.19131
1.13043
1.05726
0.967639
0.852202
0.683386
0.33397
0.332426
0.726593
0.966879
1.14223
1.28069
1.38683
1.46311
1.51327
1.5435
1.55926
1.56387
1.55804
1.5418
1.51624
1.48388
1.44785
1.4108
1.3742
1.33857
1.30336
1.26711
1.22769
1.1826
1.12955
1.06692
0.993113
0.904596
0.792908
0.633059
0.310941
0.319014
0.702429
0.940313
1.11764
1.25671
1.35809
1.42423
1.46568
1.49214
1.50551
1.50795
1.49996
1.4822
1.4566
1.42551
1.39134
1.35591
1.32023
1.28449
1.24819
1.21013
1.16859
1.12156
1.06717
1.00407
0.930803
0.844197
0.736565
0.585263
0.288944
0.318383
0.700265
0.938795
1.11746
1.25256
1.33581
1.38124
1.41228
1.43422
1.44565
1.44764
1.44024
1.42332
1.39882
1.36921
1.3365
1.30208
1.26672
1.2305
1.19299
1.15328
1.11005
1.06174
1.00683
0.944059
0.87201
0.787727
0.684196
0.5408
0.267811
0.323442
0.714615
0.953413
1.1298
1.24613
1.30345
1.33439
1.35962
1.37824
1.38751
1.38831
1.38092
1.36535
1.34255
1.31457
1.28322
1.24967
1.21452
1.17788
1.13945
1.09853
1.05415
1.00513
0.950207
0.888208
0.8177
0.735888
0.636297
0.499966
0.247285
0.340045
0.747926
0.979488
1.13887
1.2208
1.26249
1.28873
1.31051
1.32685
1.33432
1.33359
1.32542
1.31028
1.28873
1.26219
1.2321
1.1994
1.16458
1.1278
1.08884
1.04722
1.00223
0.952953
0.898357
0.837358
0.768523
0.689181
0.593276
0.463213
0.227971
0.366996
0.794445
1.01079
1.12907
1.18266
1.21983
1.24547
1.26482
1.27957
1.28597
1.28397
1.27478
1.25943
1.23849
1.213
1.18399
1.15215
1.11784
1.08121
1.04213
1.00029
0.955128
0.905961
0.851938
0.792063
0.724933
0.647991
0.555501
0.430732
0.211661
0.402522
0.858748
1.04024
1.10669
1.14885
1.18249
1.20638
1.22329
1.2362
1.24194
1.23908
1.22893
1.2131
1.19244
1.16772
1.13968
1.10873
1.0751
1.03889
1.00005
0.958345
0.913385
0.864618
0.811343
0.752653
0.687204
0.612544
0.523205
0.403186
0.197998
0.444175
0.93166
1.05719
1.08838
1.12222
1.15153
1.17204
1.1865
1.19658
1.20121
1.19803
1.18729
1.17108
1.15071
1.12677
1.09971
1.06974
1.03695
1.00141
0.963074
0.921807
0.877318
0.829168
0.776761
0.719276
0.65544
0.582904
0.496431
0.38067
0.186715
0.47306
0.959882
1.06687
1.07538
1.09901
1.12364
1.14019
1.15231
1.15909
1.16176
1.15886
1.14839
1.13253
1.11295
1.09014
1.06432
1.03551
1.00375
0.969072
0.931479
0.890879
0.847061
0.799678
0.748214
0.691922
0.6296
0.558998
0.475078
0.363049
0.177774
0.484142
0.948993
1.06403
1.06606
1.0771
1.09628
1.1075
1.11583
1.11988
1.12126
1.11875
1.10976
1.09574
1.07816
1.05732
1.03328
1.006
0.975539
0.941967
0.905327
0.865583
0.822592
0.776077
0.725593
0.670455
0.609524
0.540639
0.45893
0.350078
0.171116
0.48138
0.916608
1.03784
1.06176
1.05734
1.07071
1.07817
1.08207
1.08194
1.08063
1.07728
1.06953
1.0585
1.04448
1.02695
1.00569
0.980668
0.952011
0.9199
0.884471
0.845777
0.803748
0.758178
0.708686
0.654642
0.59496
0.527556
0.447694
0.341428
0.166624
0.468993
0.872836
0.990844
1.05948
1.04567
1.04825
1.05505
1.05725
1.05482
1.04974
1.04316
1.03405
1.02348
1.01187
0.997988
0.980445
0.958631
0.932539
0.902425
0.868573
0.83117
0.790256
0.745705
0.697206
0.644181
0.585597
0.519426
0.441039
0.336772
0.164333
0.43215
0.815146
0.949341
1.02628
1.03502
1.02819
1.03512
1.03634
1.03412
1.02856
1.02048
1.01004
0.998351
0.986716
0.974288
0.959234
0.940286
0.91693
0.889167
0.857236
0.82139
0.781766
0.738325
0.690822
0.638737
0.581082
0.515898
0.438626
0.335799
0.163981
0.381141
0.748211
0.897554
0.968298
1.00645
1.00539
1.01167
1.01702
1.01835
1.01437
1.00596
0.994706
0.982599
0.970761
0.958486
0.944327
0.927007
0.905723
0.880127
0.850207
0.816092
0.777919
0.735697
0.689211
0.637978
0.581015
0.516355
0.439512
0.337042
0.164463
0.342108
0.68425
0.840223
0.918935
0.970811
0.981667
0.988376
1.00006
1.00753
1.0062
0.998353
0.986961
0.974659
0.96239
0.949708
0.935674
0.919173
0.899297
0.875464
0.84742
0.815056
0.778314
0.737195
0.691572
0.640995
0.584531
0.520242
0.443599
0.341162
0.166376
0.305259
0.623737
0.781771
0.872931
0.935493
0.952188
0.963223
0.984823
1.00056
1.00305
0.9967
0.985767
0.973299
0.960433
0.947125
0.932838
0.916679
0.897743
0.875277
0.848694
0.817827
0.782585
0.742854
0.698343
0.648576
0.592616
0.528499
0.45166
0.348545
0.170287
0.278128
0.584253
0.7358
0.835464
0.90468
0.92425
0.937285
0.971122
0.99561
1.00325
0.999094
0.989
0.976473
0.963159
0.949411
0.934905
0.918912
0.900601
0.879219
0.854219
0.825107
0.791504
0.753086
0.709556
0.660403
0.604653
0.540315
0.462757
0.358156
0.17514
0.275801
0.567602
0.703176
0.810236
0.867962
0.885673
0.918875
0.96151
0.992128
1.00598
1.005
0.996432
0.984094
0.970469
0.956406
0.941842
0.926169
0.908633
0.888454
0.864869
0.837197
0.804949
0.767697
0.725011
0.676291
0.620502
0.55559
0.476798
0.369923
0.180938
0.279492
0.537304
0.676904
0.779234
0.823693
0.862669
0.910073
0.956007
0.991883
1.01124
1.01365
1.00668
0.995116
0.981989
0.968326
0.954203
0.939151
0.92246
0.903316
0.880924
0.854522
0.823464
0.787181
0.745113
0.696553
0.640384
0.574458
0.49386
0.383904
0.187713
0.283541
0.51758
0.654283
0.743552
0.800934
0.854126
0.907071
0.956926
0.996546
1.01668
1.02201
1.01758
1.00827
0.996995
0.984789
0.971885
0.957982
0.942452
0.924547
0.90336
0.87811
0.84804
0.812459
0.770677
0.721876
0.664839
0.597319
0.51422
0.400301
0.195558
0.286019
0.51607
0.643144
0.727229
0.791916
0.852292
0.910403
0.965384
1.00334
1.02109
1.02649
1.0263
1.02223
1.01513
1.00605
0.995545
0.983625
0.969845
0.953456
0.933645
0.909506
0.880233
0.845034
0.803102
0.753502
0.694911
0.624986
0.538452
0.419466
0.204569
0.285062
0.511151
0.630238
0.715428
0.787524
0.855217
0.920909
0.979445
1.01317
1.02403
1.031
1.03619
1.03887
1.03776
1.03337
1.02657
1.01768
1.0064
0.992082
0.973903
0.950964
0.922359
0.887208
0.844599
0.793472
0.732396
0.65893
0.567624
0.441985
0.214884
0.276933
0.491783
0.610251
0.704581
0.786948
0.863211
0.935418
0.991775
1.01829
1.03176
1.04347
1.05459
1.06346
1.06842
1.06955
1.06758
1.06277
1.05489
1.04333
1.02725
1.00573
0.977771
0.942373
0.898502
0.844956
0.780159
0.701558
0.603551
0.468963
0.226777
0.256762
0.458605
0.59015
0.696862
0.789688
0.87464
0.951024
1.00477
1.02642
1.04871
1.06792
1.08527
1.10018
1.11141
1.11875
1.12251
1.12279
1.11932
1.11138
1.09807
1.07838
1.05117
1.01532
0.969587
0.912582
0.842529
0.75672
0.649368
0.502529
0.240962
0.237224
0.435916
0.578672
0.696174
0.797936
0.890346
0.966886
1.01489
1.04455
1.07622
1.10522
1.13093
1.15326
1.17167
1.18606
1.19654
1.20302
1.20502
1.20175
1.19215
1.17496
1.14888
1.11251
1.06438
1.00281
0.925765
0.83026
0.710173
0.546481
0.258875
0.22276
0.425362
0.577527
0.702928
0.814267
0.913133
0.991981
1.03658
1.07668
1.12009
1.16089
1.19699
1.22822
1.25493
1.27741
1.29576
1.30969
1.31851
1.32121
1.31656
1.30303
1.27885
1.24228
1.19141
1.12426
1.03839
0.930377
0.793448
0.606839
0.282986
0.21233
0.41938
0.583551
0.720496
0.84165
0.947821
1.03044
1.08235
1.13532
1.19028
1.24348
1.29079
1.33163
1.36753
1.39924
1.42678
1.4496
1.46681
1.47722
1.47927
1.47111
1.45038
1.41456
1.36118
1.28772
1.1913
1.0678
0.909326
0.692217
0.317344
0.204253
0.418097
0.600987
0.753496
0.886663
1.00083
1.08611
1.1547
1.22456
1.29472
1.36102
1.41899
1.46943
1.51546
1.55775
1.59595
1.62923
1.65659
1.6768
1.68807
1.68784
1.67316
1.64016
1.58549
1.50588
1.39772
1.25594
1.07077
0.813694
0.367773
0.199228
0.426416
0.637802
0.811894
0.961081
1.08456
1.17819
1.26742
1.35644
1.44172
1.51838
1.58431
1.64536
1.70355
1.75823
1.80868
1.85385
1.89302
1.9253
1.94878
1.96026
1.9554
1.92881
1.87552
1.7915
1.67216
1.51095
1.29436
0.985118
0.438435
0.201504
0.458571
0.708433
0.911877
1.08308
1.22008
1.33355
1.44128
1.54479
1.63941
1.72285
1.79683
1.86817
1.93891
2.00702
2.07052
2.12802
2.17974
2.22565
2.26375
2.29077
2.30085
2.28527
2.23781
2.15289
2.02581
1.84839
1.60094
1.22843
0.544993
0.213771
0.534957
0.833476
1.07734
1.28116
1.44215
1.57492
1.6947
1.80311
1.90306
1.99465
2.07846
2.15854
2.23923
2.3176
2.39074
2.45815
2.52149
2.58012
2.6324
2.67643
2.70404
2.70507
2.6684
2.5866
2.45694
2.27105
2.00286
1.56861
0.707008
0.248422
0.678675
1.03506
1.33511
1.58993
1.78685
1.92966
2.04415
2.1541
2.26191
2.36514
2.45909
2.54513
2.62786
2.70723
2.7812
2.85318
2.92561
2.99111
3.05224
3.11201
3.15752
3.18082
3.15591
3.07656
2.94543
2.75382
2.46982
1.99172
0.948378
0.321354
0.893923
1.32194
1.70279
2.04003
2.29019
2.4217
2.51038
2.62568
2.74357
2.85642
2.95738
3.04379
3.11763
3.18583
3.25067
3.32348
3.39818
3.45144
3.50708
3.58883
3.66957
3.71126
3.68252
3.58764
3.44044
3.22877
2.91048
2.38118
1.21436
0.441635
1.15514
1.67225
2.16963
2.65675
2.90132
2.98463
3.10787
3.23659
3.35202
3.46657
3.56731
3.64711
3.70712
3.7526
3.79177
3.83876
3.87342
3.89553
3.96035
4.07882
4.19257
4.21663
4.14238
4.00753
3.83423
3.59896
3.24062
2.62445
1.32273
0.568248
1.38888
2.01113
2.64078
3.18496
3.50699
3.64416
3.77152
3.87316
3.97864
4.10071
4.19376
4.24667
4.27325
4.28066
4.28344
4.28204
4.26967
4.27438
4.34865
4.50417
4.59822
4.57236
4.44513
4.26833
4.09081
3.86811
3.49035
2.80745
1.36484
0.626995
1.51083
2.22714
2.87478
3.49435
3.82883
3.93546
4.05274
4.20344
4.36836
4.50707
4.58366
4.60118
4.58617
4.55959
4.52971
4.48799
4.44451
4.44353
4.50232
4.60228
4.68754
4.68406
4.56827
4.38667
4.21815
4.02308
3.67515
2.99621
1.45939
0.619139
1.52533
2.25806
2.87069
3.45976
3.92073
4.10297
4.13514
4.15935
4.21305
4.28185
4.34072
4.3814
4.41206
4.43989
4.45635
4.45047
4.44278
4.48111
4.57058
4.65017
4.68622
4.67299
4.58357
4.42539
4.26156
4.07236
3.74938
3.10937
1.55801
0.621163
1.53837
2.28113
2.86817
3.41819
3.90141
4.17609
4.18696
4.13558
4.09324
4.08249
4.09639
4.13077
4.17945
4.23749
4.29353
4.34132
4.40232
4.51531
4.66969
4.76762
4.75168
4.68192
4.58004
4.43029
4.25644
4.05315
3.73514
3.12169
1.60054
0.669304
1.6766
2.46745
3.011
3.52927
3.93518
4.24502
4.26562
4.15952
4.04731
3.97688
3.94993
3.95938
3.99743
4.05846
4.13367
4.22363
4.34741
4.52942
4.7495
4.89587
4.86615
4.72963
4.58265
4.41973
4.22693
3.99917
3.67458
3.082
1.59763
0.809438
2.00087
2.68114
3.3187
3.72706
4.03879
4.28004
4.33584
4.21484
4.0575
3.93995
3.87325
3.8543
3.8735
3.9266
4.00995
4.12636
4.2915
4.51984
4.78778
4.98883
4.98238
4.79853
4.58713
4.3939
4.17668
3.92157
3.57795
2.99072
1.57143
0.936826
2.17767
2.92247
3.44447
3.86239
4.07429
4.23889
4.34216
4.26954
4.10859
3.9617
3.8604
3.80991
3.80691
3.84412
3.92452
4.05023
4.23334
4.48273
4.77396
5.01758
5.06102
4.86224
4.5843
4.34989
4.10752
3.82702
3.46213
2.8709
1.51247
0.976213
2.25212
3.00707
3.43268
3.85885
4.01199
4.12874
4.2796
4.30778
4.19499
4.03968
3.90731
3.82368
3.7916
3.8075
3.87225
3.99174
4.17255
4.41931
4.71241
4.97857
5.07817
4.90432
4.57065
4.28531
4.01837
3.71789
3.33427
2.73743
1.43711
0.986773
2.25678
2.97861
3.36892
3.81478
3.94649
4.00861
4.17662
4.31743
4.29663
4.16646
4.01096
3.88911
3.8208
3.80879
3.84881
3.94834
4.11126
4.33742
4.61003
4.87547
5.02033
4.90232
4.54613
4.20351
3.91031
3.59638
3.199
2.59791
1.35606
0.989093
2.22482
2.88336
3.27961
3.71496
3.88018
3.91055
4.06382
4.28104
4.39035
4.32253
4.15865
3.99935
3.88907
3.83828
3.84859
3.91769
4.05109
4.24382
4.48053
4.72097
4.88359
4.83524
4.50897
4.1166
3.78782
3.46248
3.05613
2.44997
1.27309
0.994516
2.17455
2.75751
3.16954
3.56168
3.77392
3.81558
3.95458
4.20681
4.4366
4.4794
4.33328
4.13869
3.98445
3.89153
3.86291
3.89677
3.99201
4.14329
4.33432
4.53343
4.68459
4.69202
4.44678
4.03565
3.65917
3.31216
2.89826
2.29338
1.1908
0.998953
2.1122
2.62533
3.0347
3.37202
3.60282
3.705
3.84643
4.11255
4.42338
4.60896
4.51335
4.29208
4.09383
3.95696
3.88664
3.8812
3.93391
4.03999
4.18171
4.33246
4.45279
4.48419
4.33452
3.9682
3.54779
3.14932
2.71722
2.10887
1.09665
0.979727
2.0075
2.48553
2.87131
3.16866
3.3908
3.56433
3.72944
4.00762
4.35932
4.67341
4.67668
4.44582
4.2059
4.02549
3.91286
3.86588
3.87749
3.93775
4.03169
4.13476
4.21723
4.2432
4.1603
3.89742
3.47838
3.01082
2.52942
1.90741
0.993356
0.913722
1.88054
2.33082
2.69116
2.96591
3.17929
3.39784
3.60186
3.89416
4.26932
4.67287
4.80254
4.58351
4.31059
4.08965
3.93652
3.84971
3.8218
3.84069
3.89077
3.95076
3.99622
4.00265
3.94274
3.76586
3.41649
2.92156
2.36437
1.70137
0.882396
0.835943
1.73786
2.16408
2.49942
2.76289
2.98561
3.22656
3.46717
3.7703
4.16216
4.6175
4.87488
4.69494
4.39943
4.14315
3.95351
3.831
3.76769
3.75043
3.76237
3.78492
3.79709
3.78046
3.71702
3.57681
3.3064
2.85823
2.25775
1.53417
0.77414
0.752102
1.58953
1.9958
2.30897
2.57033
2.81415
3.06993
3.33046
3.6434
4.04979
4.53432
4.881
4.76405
4.46066
4.17818
3.95904
3.80743
3.71463
3.66667
3.64701
3.63803
3.62182
3.58314
3.5076
3.37554
3.14843
2.77267
2.21258
1.46977
0.692918
0.667189
1.44437
1.84009
2.13872
2.40304
2.66488
2.93697
3.20925
3.52702
3.94112
4.43576
4.82711
4.77228
4.47916
4.1855
3.9488
3.77612
3.66053
3.58806
3.54275
3.50808
3.46831
3.41041
3.32288
3.19024
2.98335
2.66085
2.18108
1.49635
0.662343
0.592932
1.31165
1.70529
1.99881
2.2715
2.54306
2.82201
3.10556
3.43159
3.84635
4.33249
4.73216
4.71588
4.44907
4.16175
3.91919
3.73448
3.60309
3.51207
3.44658
3.39139
3.33254
3.25896
3.16145
3.0274
2.83357
2.54903
2.14317
1.55933
0.679455
0.535037
1.20313
1.5948
1.89229
2.17242
2.4487
2.7297
3.02193
3.35752
3.76604
4.23521
4.62519
4.61585
4.37821
4.108
3.86997
3.68162
3.54066
3.43628
3.35524
3.28382
3.20984
3.12398
3.01888
2.88443
2.70157
2.44701
2.09886
1.60312
0.722188
0.489361
1.12502
1.51203
1.8187
2.10718
2.38704
2.66729
2.96161
3.3012
3.6962
4.14721
4.51442
4.49135
4.28173
4.03319
3.80559
3.61859
3.4725
3.35879
3.26593
3.18181
3.096
3.00086
2.8906
2.75696
2.58383
2.35299
2.04662
1.60973
0.75861
0.46718
1.08742
1.46997
1.78113
2.07412
2.35587
2.63435
2.92596
3.26173
3.63605
4.05536
4.38309
4.35391
4.17119
3.94516
3.73004
3.54707
3.39869
3.27848
3.17658
3.0826
2.98786
2.88614
2.77291
2.64119
2.47657
2.2639
1.98713
1.59306
0.776543
0.499405
1.11107
1.47015
1.77435
2.06297
2.3435
2.62099
2.90989
3.23573
3.59182
3.97018
4.23797
4.21592
4.05659
3.8503
3.64718
3.46921
3.32013
3.1952
3.08616
2.98448
2.88326
2.77737
2.66316
2.53431
2.37706
2.17788
1.92108
1.55285
0.773516
0.557138
1.16848
1.50061
1.78699
2.06152
2.33518
2.6119
2.90092
3.21437
3.55343
3.9004
4.11446
4.09247
3.94695
3.75418
3.56063
3.38751
3.23852
3.10989
2.99492
2.88711
2.78122
2.67299
2.55923
2.43383
2.28303
2.09388
1.85051
1.49815
0.7618
0.52641
1.16939
1.52108
1.79888
2.0541
2.31841
2.5941
2.88602
3.19142
3.51665
3.8399
4.02034
3.98882
3.84603
3.65978
3.47294
3.30427
3.15603
3.02454
2.90458
2.79174
2.6823
2.57265
2.45975
2.3376
2.19235
2.01095
1.77727
1.43732
0.738499
0.478196
1.09627
1.48007
1.77771
2.03567
2.29206
2.56623
2.85971
3.16149
3.48362
3.79741
3.9478
3.90002
3.75206
3.56719
3.38505
3.22096
3.07475
2.94187
2.81829
2.70152
2.58916
2.47807
2.36516
2.2447
2.10336
1.92788
1.70194
1.37327
0.710531
0.427109
0.993136
1.39188
1.71769
1.99562
2.25726
2.52805
2.81897
3.12019
3.44967
3.76256
3.88016
3.81409
3.6585
3.47371
3.29617
3.13791
2.99605
2.86448
2.73974
2.62081
2.50636
2.39364
2.27906
2.1571
2.01644
1.84436
1.62478
1.30722
0.680442
0.37191
0.893894
1.30491
1.64296
1.93645
2.21136
2.48269
2.76637
3.06427
3.39532
3.70518
3.79085
3.71272
3.55607
3.37561
3.20501
3.05482
2.92035
2.79387
2.67166
2.55333
2.43851
2.32491
2.20781
2.08076
1.93556
1.76254
1.54681
1.2395
0.647927
0.350749
0.837889
1.24576
1.58146
1.88008
2.16249
2.43846
2.71851
3.00406
3.32103
3.61778
3.67437
3.59216
3.44345
3.27286
3.11188
2.97166
2.84727
2.72988
2.61445
2.50014
2.38746
2.27498
2.15664
2.02323
1.86801
1.68727
1.47043
1.16916
0.614012
0.345516
0.815711
1.21819
1.54472
1.83902
2.1209
2.39995
2.68136
2.95303
3.24539
3.51362
3.54781
3.46736
3.32918
3.16967
3.01887
2.88892
2.77588
2.6706
2.56593
2.4592
2.35146
2.2423
2.12488
1.98707
1.8205
1.62599
1.39987
1.09797
0.579687
0.380093
0.852779
1.21829
1.53282
1.81731
2.09168
2.36715
2.64536
2.92072
3.20279
3.41955
3.43813
3.3548
3.22162
3.07026
2.92815
2.80721
2.70493
2.61289
2.52189
2.42609
2.32595
2.22167
2.1068
1.96784
1.79344
1.5845
1.34325
1.03314
0.545281
0.432029
0.913565
1.2508
1.54322
1.81234
2.07545
2.34291
2.61538
2.89633
3.1759
3.36284
3.35324
3.25625
3.12218
2.97632
2.84135
2.7276
2.63389
2.55392
2.47767
2.39567
2.30585
2.20763
2.0953
1.95684
1.78053
1.56358
1.30834
0.985447
0.514911
0.461688
0.981949
1.30665
1.5721
1.82106
2.07094
2.32951
2.59673
2.86673
3.14482
3.31607
3.27983
3.16654
3.02972
2.88844
2.75984
2.65179
2.56373
2.4926
2.42989
2.36323
2.28636
2.19585
2.08599
1.94821
1.77407
1.55869
1.30037
0.969754
0.489605
0.508659
1.06434
1.37358
1.61799
1.84344
2.0801
2.32701
2.58683
2.84682
3.12097
3.27222
3.21389
3.08608
2.94552
2.80784
2.68485
2.58158
2.49648
2.42991
2.37724
2.32549
2.2636
2.18354
2.07794
1.9411
1.7695
1.55978
1.30595
0.978238
0.4847
0.579004
1.14956
1.44746
1.67973
1.88697
2.10163
2.33563
2.58673
2.84342
3.11275
3.23507
3.15748
3.01766
2.87198
2.7358
2.61697
2.5178
2.43409
2.36807
2.32037
2.28073
2.23494
2.16931
2.0718
1.93769
1.76818
1.56315
1.31784
1.00078
0.491392
0.607225
1.19526
1.50115
1.72626
1.93032
2.13858
2.3593
2.60191
2.86387
3.11917
3.21256
3.1156
2.96328
2.81061
2.67302
2.55617
2.46005
2.37734
2.30936
2.26141
2.22881
2.19815
2.15144
2.06841
1.94024
1.77196
1.56969
1.3311
1.02835
0.508403
0.616209
1.22817
1.54402
1.77288
1.97514
2.18347
2.39779
2.63573
2.90094
3.12775
3.20175
3.08567
2.92062
2.76023
2.61896
2.5018
2.40715
2.32558
2.25498
2.20307
2.17139
2.15137
2.12544
2.06527
1.94997
1.78399
1.58113
1.3448
1.05204
0.530808
0.634593
1.27551
1.59841
1.83571
2.03765
2.23501
2.44669
2.67968
2.93988
3.14873
3.19967
3.06037
2.8838
2.71694
2.57175
2.45269
2.35766
2.27705
2.20454
2.1474
2.11167
2.09507
2.08576
2.05505
1.96657
1.80896
1.602
1.36176
1.0712
0.551588
0.645342
1.31562
1.65757
1.91034
2.11728
2.30428
2.51002
2.73199
2.98247
3.17974
3.19588
3.03195
2.84662
2.67623
2.5287
2.40731
2.3105
2.22997
2.1566
2.09488
2.05283
2.03348
2.03145
2.02818
1.9803
1.8485
1.63826
1.38673
1.08889
0.569615
0.648965
1.35067
1.73066
2.00086
2.21551
2.39825
2.59161
2.7945
3.02127
3.20242
3.17843
2.99401
2.80457
2.63508
2.48726
2.36417
2.26498
2.18329
2.10972
2.04478
1.99658
1.97138
1.96842
1.98072
1.97775
1.89733
1.69676
1.42607
1.11049
0.587154
0.672504
1.40601
1.82515
2.11317
2.33806
2.5185
2.6916
2.86918
3.04194
3.2162
3.14805
2.94696
2.75708
2.5917
2.44596
2.32232
2.22079
2.13687
2.06279
1.99592
1.94288
1.91148
1.90404
1.92152
1.9512
1.93592
1.77823
1.48722
1.14068
0.604229
0.723494
1.49363
1.9458
2.25377
2.49328
2.67691
2.82714
2.97371
3.09922
3.21806
3.1017
2.89545
2.70765
2.5474
2.40528
2.28193
2.17827
2.09143
2.01565
1.94745
1.8909
1.854
1.84157