/*--------------------------------*- C++ -*----------------------------------*\
| =========                 |                                                 |
| \\      /  F ield         | OpenFOAM: The Open Source CFD Toolbox           |
|  \\    /   O peration     | Version:  v1606+                                |
|   \\  /    A nd           | Web:      www.OpenFOAM.com                      |
|    \\/     M anipulation  |                                                 |
\*---------------------------------------------------------------------------*/
FoamFile
{
    version     2.0;
    format      ascii;
    class       volVectorField;
    location    "1.31";
    object      Ur;
}
// * * * * * * * * * * * * * * * * * * * * * * * * * * * * * * * * * * * * * //

dimensions      [0 1 -1 0 0 0 0];

internalField   nonuniform List<vector> 
6000
(
(0.0144355 -0.649018 0)
(0.0197705 -0.635054 0)
(0.0314927 -0.628358 0)
(0.0139209 -0.603156 0)
(-0.0191596 -0.586742 0)
(-0.0297866 -0.588655 0)
(-0.0290007 -0.672101 0)
(-0.0283875 -0.688931 0)
(-0.0262479 -0.682279 0)
(-0.0203091 -0.655584 0)
(-0.0128449 -0.608803 0)
(-0.0080096 -0.600062 0)
(-0.00600904 -0.602006 0)
(-0.00843004 -0.597336 0)
(-0.0143401 -0.589631 0)
(-0.0169902 -0.588498 0)
(-0.0144146 -0.586242 0)
(-0.0060092 -0.598913 0)
(0.0129232 -0.625048 0)
(0.033527 -0.64564 0)
(0.0532133 -0.66389 0)
(0.0735646 -0.616455 0)
(0.0807044 -0.590377 0)
(0.0473461 -0.58139 0)
(-0.0183678 -0.582165 0)
(-0.0736645 -0.596211 0)
(-0.101354 -0.609356 0)
(-0.0999438 -0.618681 0)
(-0.0798671 -0.624689 0)
(-0.0428402 -0.651886 0)
(0.0342813 -1.09168 0)
(0.0785629 -1.02039 0)
(0.111 -0.99176 0)
(0.124917 -0.901784 0)
(0.0992698 -0.857729 0)
(0.0570007 -0.85831 0)
(0.0178762 -0.899357 0)
(-0.00501697 -0.901802 0)
(-0.0171897 -0.894045 0)
(-0.0260156 -0.878558 0)
(-0.0356116 -0.860038 0)
(-0.0467261 -0.859223 0)
(-0.0527567 -0.872117 0)
(-0.0477816 -0.878164 0)
(-0.036587 -0.878404 0)
(-0.0240536 -0.87962 0)
(-0.00927981 -0.877274 0)
(0.00737744 -0.882376 0)
(0.0195913 -0.893741 0)
(0.0279474 -0.912186 0)
(0.0332527 -0.936056 0)
(0.0363598 -0.9133 0)
(0.0246779 -0.865351 0)
(-0.019804 -0.826531 0)
(-0.0808278 -0.846561 0)
(-0.12293 -0.918771 0)
(-0.131662 -0.977082 0)
(-0.115086 -1.01652 0)
(-0.0909348 -1.03888 0)
(-0.0413075 -1.12407 0)
(0.0461041 -1.084 0)
(0.114088 -0.992899 0)
(0.17171 -0.969768 0)
(0.209716 -0.838194 0)
(0.189567 -0.730355 0)
(0.097683 -0.646243 0)
(0.0200839 -0.696639 0)
(-0.0040652 -0.714029 0)
(-0.015719 -0.718271 0)
(-0.0230206 -0.713612 0)
(-0.0306549 -0.706442 0)
(-0.0396428 -0.703973 0)
(-0.0427658 -0.718306 0)
(-0.0370303 -0.725638 0)
(-0.029605 -0.72791 0)
(-0.0216713 -0.734324 0)
(-0.0116839 -0.741486 0)
(0.000541118 -0.748941 0)
(0.00982024 -0.749356 0)
(0.0154936 -0.7539 0)
(0.0221775 -0.760396 0)
(0.00601895 -0.730922 0)
(-0.0415346 -0.691446 0)
(-0.0967029 -0.683443 0)
(-0.150055 -0.756341 0)
(-0.162185 -0.870915 0)
(-0.131378 -0.939531 0)
(-0.0865187 -0.991261 0)
(-0.0355472 -1.0227 0)
(-0.00586854 -1.10597 0)
(0.00490762 -1.16675 0)
(0.0370877 -1.12253 0)
(0.0979677 -1.11222 0)
(0.190159 -0.989101 0)
(0.242235 -0.82001 0)
(0.169369 -0.649684 0)
(0.0661218 -0.690769 0)
(0.00453088 -0.716059 0)
(-0.0308667 -0.724783 0)
(-0.0546841 -0.733307 0)
(-0.0670979 -0.747174 0)
(-0.0680226 -0.76895 0)
(-0.0605085 -0.813321 0)
(-0.0484879 -0.848282 0)
(-0.036818 -0.866443 0)
(-0.0259023 -0.877155 0)
(-0.0117032 -0.878636 0)
(0.00818242 -0.869137 0)
(0.0299414 -0.849661 0)
(0.0368567 -0.825903 0)
(0.0156566 -0.812111 0)
(-0.0330557 -0.785647 0)
(-0.0967272 -0.786172 0)
(-0.151785 -0.819484 0)
(-0.129051 -0.903102 0)
(-0.0478278 -1.00279 0)
(0.0195678 -1.03194 0)
(0.0562727 -1.06021 0)
(0.0665529 -1.05624 0)
(0.0339783 -1.05425 0)
(-0.0201541 -1.05917 0)
(-0.0384835 -1.0647 0)
(-0.0264054 -1.10194 0)
(0.0514367 -1.09188 0)
(0.164317 -0.881659 0)
(0.16337 -0.627973 0)
(0.075026 -0.654702 0)
(0.001159 -0.682885 0)
(-0.0513884 -0.707654 0)
(-0.0977406 -0.754642 0)
(-0.132483 -0.835875 0)
(-0.145907 -0.930693 0)
(-0.128821 -1.02493 0)
(-0.0879124 -1.07417 0)
(-0.0538165 -1.08871 0)
(-0.0280572 -1.09826 0)
(0.00353457 -1.0951 0)
(0.0434377 -1.0734 0)
(0.082363 -1.0244 0)
(0.0805628 -0.941463 0)
(0.0313146 -0.887152 0)
(-0.0373077 -0.853371 0)
(-0.117111 -0.877755 0)
(-0.0754076 -0.964444 0)
(0.112094 -1.07549 0)
(0.229932 -1.04982 0)
(0.22961 -1.00039 0)
(0.176715 -0.950841 0)
(0.110189 -0.926311 0)
(0.041283 -0.911396 0)
(-0.0248109 -0.961111 0)
(-0.0658228 -0.976815 0)
(-0.096826 -1.01532 0)
(-0.108306 -1.06991 0)
(-0.0438193 -0.976959 0)
(0.0361155 -0.665021 0)
(0.028161 -0.668122 0)
(-0.0393767 -0.70649 0)
(-0.11298 -0.771179 0)
(-0.200794 -0.875466 0)
(-0.269516 -1.01351 0)
(-0.252153 -1.1203 0)
(-0.172806 -1.19343 0)
(-0.0996117 -1.21263 0)
(-0.0547523 -1.20144 0)
(-0.0204935 -1.20707 0)
(0.0193176 -1.21107 0)
(0.0669506 -1.20115 0)
(0.122295 -1.15108 0)
(0.151068 -1.04125 0)
(0.101374 -0.970571 0)
(-0.00336678 -0.922202 0)
(-0.0160551 -0.991316 0)
(0.22627 -1.24164 0)
(0.486622 -1.21384 0)
(0.479274 -0.984384 0)
(0.363976 -0.855181 0)
(0.235341 -0.798465 0)
(0.136143 -0.795736 0)
(0.04868 -0.771363 0)
(-0.0379449 -0.846162 0)
(-0.106327 -0.876604 0)
(-0.171577 -0.916421 0)
(-0.251914 -0.977141 0)
(-0.298333 -0.986134 0)
(-0.186993 -0.835139 0)
(-0.0673869 -0.772067 0)
(-0.109473 -0.794457 0)
(-0.231226 -0.884017 0)
(-0.283209 -0.97278 0)
(-0.252496 -1.07348 0)
(-0.196369 -1.23434 0)
(-0.144874 -1.34716 0)
(-0.109355 -1.36097 0)
(-0.0637496 -1.34419 0)
(-0.0155157 -1.34812 0)
(0.0335268 -1.3568 0)
(0.0810808 -1.35037 0)
(0.125802 -1.28856 0)
(0.160449 -1.11181 0)
(0.174394 -0.968106 0)
(0.18647 -0.958827 0)
(0.288153 -1.19361 0)
(0.545428 -1.48687 0)
(0.638799 -1.21456 0)
(0.53347 -0.831286 0)
(0.372212 -0.674132 0)
(0.230345 -0.636673 0)
(0.131077 -0.654582 0)
(0.0446443 -0.62245 0)
(-0.0420252 -0.706608 0)
(-0.126826 -0.738617 0)
(-0.225264 -0.767108 0)
(-0.362525 -0.81975 0)
(-0.499105 -0.94103 0)
(-0.45917 -1.04378 0)
(-0.249343 -0.935524 0)
(-0.15985 -0.843033 0)
(-0.162911 -0.898594 0)
(-0.120634 -1.08573 0)
(-0.0359909 -1.22953 0)
(0.00766336 -1.28302 0)
(-0.00751331 -1.20336 0)
(-0.0279688 -1.19476 0)
(-0.0215581 -1.18077 0)
(0.00554057 -1.179 0)
(0.0368571 -1.19398 0)
(0.0712704 -1.21121 0)
(0.113235 -1.20748 0)
(0.191218 -1.13501 0)
(0.340639 -1.12528 0)
(0.453505 -1.14103 0)
(0.514569 -1.35378 0)
(0.552153 -1.54365 0)
(0.52201 -1.12802 0)
(0.440691 -0.652278 0)
(0.306008 -0.518489 0)
(0.193792 -0.520727 0)
(0.110273 -0.547142 0)
(0.0351958 -0.518729 0)
(-0.0373208 -0.592752 0)
(-0.119118 -0.614229 0)
(-0.227162 -0.619143 0)
(-0.383164 -0.650137 0)
(-0.56317 -0.82843 0)
(-0.614725 -1.14509 0)
(-0.426652 -1.17731 0)
(-0.201807 -1.03227 0)
(-0.00218918 -1.12061 0)
(0.174966 -1.0981 0)
(0.196326 -1.03318 0)
(0.127831 -1.00005 0)
(0.069965 -1.00208 0)
(0.0267532 -1.03106 0)
(0.00287351 -1.05927 0)
(0.00944547 -1.07336 0)
(0.0332652 -1.09619 0)
(0.0748987 -1.1037 0)
(0.121287 -1.10282 0)
(0.195859 -1.0758 0)
(0.311592 -1.05279 0)
(0.362362 -1.0483 0)
(0.346088 -1.20864 0)
(0.277754 -1.35312 0)
(0.310657 -1.08342 0)
(0.319544 -0.527196 0)
(0.247562 -0.402645 0)
(0.162633 -0.433394 0)
(0.0923925 -0.458948 0)
(0.0285336 -0.43793 0)
(-0.0342422 -0.504512 0)
(-0.111125 -0.513151 0)
(-0.213436 -0.494653 0)
(-0.356458 -0.49366 0)
(-0.481528 -0.68008 0)
(-0.533363 -1.17508 0)
(-0.322708 -1.32579 0)
(-0.082911 -1.20143 0)
(0.136979 -1.14007 0)
(0.243447 -1.0061 0)
(0.221698 -0.901461 0)
(0.171216 -0.937308 0)
(0.0945811 -0.953461 0)
(0.0347876 -0.930549 0)
(0.012936 -0.993719 0)
(0.00845783 -1.03377 0)
(0.0213264 -1.08098 0)
(0.067108 -1.09738 0)
(0.124847 -1.09386 0)
(0.191744 -1.07837 0)
(0.237431 -1.03886 0)
(0.213009 -0.972127 0)
(0.165978 -1.09945 0)
(0.0869158 -1.21774 0)
(0.149382 -1.13286 0)
(0.216571 -0.483963 0)
(0.196173 -0.315244 0)
(0.129189 -0.360288 0)
(0.0724697 -0.38043 0)
(0.0221349 -0.368556 0)
(-0.0307544 -0.421822 0)
(-0.0992368 -0.419622 0)
(-0.184449 -0.385852 0)
(-0.292845 -0.351964 0)
(-0.349579 -0.595354 0)
(-0.272756 -1.14764 0)
(-0.0903128 -1.34437 0)
(0.0340949 -1.26807 0)
(0.162175 -1.16554 0)
(0.218627 -0.964405 0)
(0.221071 -0.866384 0)
(0.160538 -0.801694 0)
(0.0781972 -0.818875 0)
(0.023858 -0.879915 0)
(-0.00529397 -0.979154 0)
(-0.00494877 -0.973924 0)
(0.0189911 -1.05357 0)
(0.0665203 -1.08652 0)
(0.13046 -1.0807 0)
(0.195276 -1.04943 0)
(0.210395 -0.966931 0)
(0.142196 -0.913948 0)
(0.0370762 -1.04481 0)
(-0.0166495 -1.09136 0)
(0.0272295 -1.12961 0)
(0.119727 -0.528036 0)
(0.130639 -0.251864 0)
(0.0841927 -0.296526 0)
(0.0453232 -0.318201 0)
(0.0144296 -0.312368 0)
(-0.0231481 -0.346805 0)
(-0.0733485 -0.337502 0)
(-0.1322 -0.296374 0)
(-0.203334 -0.238194 0)
(-0.243233 -0.615942 0)
(-0.0996122 -1.2182 0)
(0.0391008 -1.33429 0)
(0.103539 -1.27787 0)
(0.169109 -1.15027 0)
(0.192369 -0.89619 0)
(0.175364 -0.753616 0)
(0.106443 -0.682619 0)
(0.0571009 -0.716139 0)
(0.0220797 -0.777323 0)
(-0.0180323 -0.886684 0)
(-0.0254502 -0.98227 0)
(0.0232242 -1.0309 0)
(0.0891214 -1.08932 0)
(0.158749 -1.07449 0)
(0.214208 -0.987525 0)
(0.174169 -0.888875 0)
(0.0578965 -0.751102 0)
(-0.0545967 -0.905553 0)
(-0.0897635 -1.01059 0)
(-0.0589448 -1.09151 0)
(0.0141855 -0.601162 0)
(0.0485557 -0.223763 0)
(0.0306872 -0.245829 0)
(0.0140914 -0.278704 0)
(0.00572111 -0.273014 0)
(-0.0127315 -0.285198 0)
(-0.0378982 -0.275232 0)
(-0.0651272 -0.233292 0)
(-0.102652 -0.162193 0)
(-0.146772 -0.6594 0)
(-0.0337612 -1.2426 0)
(0.0924341 -1.31141 0)
(0.1694 -1.24751 0)
(0.187965 -1.05567 0)
(0.136418 -0.84386 0)
(0.0736539 -0.64232 0)
(0.0345643 -0.598288 0)
(0.0173517 -0.646739 0)
(0.007703 -0.708495 0)
(-0.00602339 -0.813342 0)
(-0.00907365 -0.937948 0)
(0.0451497 -1.09502 0)
(0.119442 -1.08366 0)
(0.186045 -1.03956 0)
(0.192586 -0.960447 0)
(0.0800435 -0.713124 0)
(-0.010788 -0.60713 0)
(-0.0785775 -0.773867 0)
(-0.129247 -1.02056 0)
(-0.118159 -1.0493 0)
(-0.0734528 -0.646778 0)
(-0.0277112 -0.243694 0)
(-0.0218365 -0.2181 0)
(-0.0150415 -0.260544 0)
(-0.00257087 -0.252078 0)
(-0.00275469 -0.237874 0)
(-0.00367268 -0.233159 0)
(-0.00381124 -0.193559 0)
(-0.0249868 -0.135309 0)
(-0.0673761 -0.666859 0)
(-0.0176225 -1.24743 0)
(0.131844 -1.31185 0)
(0.1935 -1.18295 0)
(0.124702 -0.936988 0)
(0.0444133 -0.7316 0)
(5.32646e-05 -0.56552 0)
(-0.00775431 -0.537694 0)
(-0.0112031 -0.590533 0)
(-0.00858616 -0.659761 0)
(-0.0019045 -0.767098 0)
(0.0250199 -0.922139 0)
(0.0801462 -1.08545 0)
(0.142409 -1.05838 0)
(0.177848 -1.04808 0)
(0.108147 -0.819324 0)
(0.0161666 -0.572038 0)
(-0.0270834 -0.500339 0)
(-0.0620912 -0.643051 0)
(-0.126366 -0.89768 0)
(-0.172672 -0.969488 0)
(-0.146938 -0.692851 0)
(-0.0922116 -0.30581 0)
(-0.0648468 -0.22125 0)
(-0.0381493 -0.257178 0)
(-0.0101307 -0.249138 0)
(0.00491971 -0.20794 0)
(0.0225609 -0.207303 0)
(0.0430015 -0.172605 0)
(0.0314347 -0.140188 0)
(0.00740287 -0.681207 0)
(0.0210941 -1.2493 0)
(0.135867 -1.30797 0)
(0.128657 -1.08683 0)
(0.0452376 -0.860051 0)
(-0.0247073 -0.621066 0)
(-0.0482977 -0.503667 0)
(-0.0408077 -0.493673 0)
(-0.0311731 -0.546941 0)
(-0.0162328 -0.62644 0)
(0.0076999 -0.745777 0)
(0.0564996 -0.927092 0)
(0.114351 -1.07727 0)
(0.152725 -1.07934 0)
(0.122338 -0.932361 0)
(0.0278098 -0.675173 0)
(-0.024376 -0.477306 0)
(-0.032941 -0.43346 0)
(-0.0459774 -0.538124 0)
(-0.112768 -0.745853 0)
(-0.202677 -0.872158 0)
(-0.210076 -0.715819 0)
(-0.150913 -0.407367 0)
(-0.0903898 -0.261956 0)
(-0.0517595 -0.268807 0)
(-0.015723 -0.262101 0)
(0.0112805 -0.201068 0)
(0.040989 -0.201791 0)
(0.0770152 -0.17325 0)
(0.0747783 -0.17078 0)
(0.0704633 -0.697865 0)
(0.0943581 -1.19717 0)
(0.128581 -1.23654 0)
(0.0708417 -1.01911 0)
(-0.0253667 -0.702151 0)
(-0.0770477 -0.518228 0)
(-0.0801965 -0.451622 0)
(-0.0626694 -0.459063 0)
(-0.0427715 -0.511511 0)
(-0.0195892 -0.601188 0)
(0.018765 -0.737548 0)
(0.0792054 -0.935204 0)
(0.130923 -1.05081 0)
(0.122936 -0.99288 0)
(0.046902 -0.791042 0)
(-0.0308431 -0.557721 0)
(-0.0540795 -0.419411 0)
(-0.0409441 -0.395571 0)
(-0.0365018 -0.463617 0)
(-0.0893986 -0.604015 0)
(-0.192239 -0.740033 0)
(-0.246152 -0.70527 0)
(-0.198574 -0.510988 0)
(-0.112616 -0.35066 0)
(-0.054732 -0.297117 0)
(-0.0172524 -0.283504 0)
(0.0155638 -0.216033 0)
(0.0558919 -0.221421 0)
(0.105928 -0.197884 0)
(0.129526 -0.258772 0)
(0.156863 -0.736807 0)
(0.191663 -1.1981 0)
(0.130237 -1.16346 0)
(0.00431871 -0.832054 0)
(-0.0824138 -0.567534 0)
(-0.105854 -0.448519 0)
(-0.0939433 -0.420474 0)
(-0.0676047 -0.439627 0)
(-0.0392875 -0.489204 0)
(-0.0103754 -0.582475 0)
(0.0306785 -0.733735 0)
(0.0857937 -0.934702 0)
(0.114234 -1.00287 0)
(0.0684368 -0.878339 0)
(-0.0188813 -0.657297 0)
(-0.0747865 -0.476145 0)
(-0.0780866 -0.397048 0)
(-0.051484 -0.390339 0)
(-0.0319289 -0.428691 0)
(-0.057708 -0.50353 0)
(-0.14468 -0.600222 0)
(-0.233145 -0.642493 0)
(-0.232466 -0.583064 0)
(-0.145433 -0.471625 0)
(-0.0527138 -0.369328 0)
(-0.0111436 -0.326403 0)
(0.0141389 -0.254295 0)
(0.0643918 -0.29552 0)
(0.127465 -0.267158 0)
(0.20434 -0.418079 0)
(0.270722 -0.791549 0)
(0.249222 -1.07564 0)
(0.0965352 -0.94566 0)
(-0.0479985 -0.659913 0)
(-0.105628 -0.481594 0)
(-0.11002 -0.414359 0)
(-0.0879773 -0.409028 0)
(-0.0555381 -0.4311 0)
(-0.0226378 -0.477425 0)
(0.00658985 -0.565908 0)
(0.0410562 -0.728371 0)
(0.0793976 -0.916651 0)
(0.0724553 -0.92212 0)
(-0.000796621 -0.754627 0)
(-0.0797846 -0.559455 0)
(-0.113471 -0.449785 0)
(-0.0994767 -0.418131 0)
(-0.0622025 -0.421001 0)
(-0.0305752 -0.439801 0)
(-0.0281321 -0.469671 0)
(-0.0758901 -0.505381 0)
(-0.159247 -0.536438 0)
(-0.212403 -0.571078 0)
(-0.177224 -0.551494 0)
(-0.0931896 -0.506592 0)
(-0.0230311 -0.415937 0)
(0.0159686 -0.343472 0)
(0.0835517 -0.467684 0)
(0.167305 -0.417903 0)
(0.279538 -0.586425 0)
(0.323756 -0.792901 0)
(0.222747 -0.910106 0)
(0.0478383 -0.752626 0)
(-0.0729856 -0.567064 0)
(-0.10749 -0.467428 0)
(-0.0924728 -0.429277 0)
(-0.0600536 -0.421622 0)
(-0.028749 -0.431869 0)
(-0.000851447 -0.471436 0)
(0.0210471 -0.552546 0)
(0.0452527 -0.721474 0)
(0.0587937 -0.877002 0)
(0.0133062 -0.824146 0)
(-0.0732716 -0.656823 0)
(-0.136293 -0.525706 0)
(-0.1454 -0.475693 0)
(-0.114445 -0.465379 0)
(-0.0726834 -0.468678 0)
(-0.0365145 -0.477105 0)
(-0.0131283 -0.485251 0)
(-0.010884 -0.483489 0)
(-0.0444694 -0.46618 0)
(-0.113104 -0.483885 0)
(-0.157392 -0.533034 0)
(-0.117052 -0.569247 0)
(-0.0372908 -0.549776 0)
(0.0141282 -0.463621 0)
(0.0818533 -0.604016 0)
(0.198641 -0.605243 0)
(0.289106 -0.673658 0)
(0.265534 -0.726122 0)
(0.12542 -0.756132 0)
(-0.0226138 -0.656568 0)
(-0.0986745 -0.564163 0)
(-0.099247 -0.512069 0)
(-0.0621668 -0.480366 0)
(-0.0217573 -0.46054 0)
(0.00718423 -0.451713 0)
(0.0234531 -0.473007 0)
(0.0305893 -0.544336 0)
(0.038938 -0.713746 0)
(0.0226482 -0.819255 0)
(-0.0507744 -0.738432 0)
(-0.134134 -0.609183 0)
(-0.170673 -0.540682 0)
(-0.155863 -0.518861 0)
(-0.120416 -0.513379 0)
(-0.082043 -0.516074 0)
(-0.0435331 -0.520181 0)
(-0.00727107 -0.521463 0)
(0.0227427 -0.510115 0)
(0.0369582 -0.472531 0)
(0.0172461 -0.436425 0)
(-0.0446363 -0.455464 0)
(-0.0908609 -0.537067 0)
(-0.0468467 -0.602224 0)
(0.00712605 -0.50761 0)
(0.0560565 -0.63416 0)
(0.138288 -0.693469 0)
(0.170767 -0.684181 0)
(0.121602 -0.656217 0)
(0.0204088 -0.674358 0)
(-0.0696608 -0.634656 0)
(-0.0974287 -0.594431 0)
(-0.0753336 -0.56608 0)
(-0.0325428 -0.537096 0)
(0.00888362 -0.509329 0)
(0.0376277 -0.483937 0)
(0.0482577 -0.481272 0)
(0.0399839 -0.5344 0)
(0.0214109 -0.691189 0)
(-0.0238121 -0.751303 0)
(-0.104187 -0.675304 0)
(-0.164998 -0.596223 0)
(-0.174688 -0.567503 0)
(-0.153232 -0.556213 0)
(-0.125219 -0.552505 0)
(-0.093392 -0.55752 0)
(-0.0538652 -0.566144 0)
(-0.00452996 -0.574724 0)
(0.0515127 -0.568736 0)
(0.0896634 -0.515956 0)
(0.0950474 -0.456291 0)
(0.0684363 -0.422059 0)
(0.00108024 -0.470355 0)
(-0.0240985 -0.595168 0)
(0.00107181 -0.501227 0)
(0.0182853 -0.608069 0)
(0.0434182 -0.72628 0)
(0.0353393 -0.688292 0)
(0.00779483 -0.637262 0)
(-0.0298988 -0.643865 0)
(-0.0727009 -0.62647 0)
(-0.08468 -0.613604 0)
(-0.058464 -0.610089 0)
(-0.00753421 -0.593132 0)
(0.0420811 -0.560046 0)
(0.067797 -0.515283 0)
(0.0656374 -0.488458 0)
(0.0419407 -0.512903 0)
(-0.00369488 -0.639246 0)
(-0.0680292 -0.679734 0)
(-0.134323 -0.631475 0)
(-0.172611 -0.592517 0)
(-0.170951 -0.587237 0)
(-0.151198 -0.582881 0)
(-0.132887 -0.579 0)
(-0.11376 -0.584142 0)
(-0.0817197 -0.602206 0)
(-0.0209009 -0.628549 0)
(0.0815798 -0.63934 0)
(0.157834 -0.579615 0)
(0.160338 -0.497252 0)
(0.130362 -0.428669 0)
(0.0783992 -0.428282 0)
(0.0236383 -0.546801 0)
(-0.044271 -0.579393 0)
(-0.049316 -0.742869 0)
(-0.00355087 -0.824216 0)
(0.00143692 -0.689326 0)
(-0.00725339 -0.633641 0)
(-0.0326875 -0.619276 0)
(-0.068764 -0.611188 0)
(-0.0891996 -0.616536 0)
(-0.0646013 -0.645344 0)
(0.00518121 -0.652461 0)
(0.0845083 -0.621631 0)
(0.117575 -0.549353 0)
(0.0900174 -0.489963 0)
(0.0390216 -0.48127 0)
(-0.0288088 -0.564663 0)
(-0.101114 -0.607903 0)
(-0.152401 -0.595297 0)
(-0.179653 -0.585427 0)
(-0.175259 -0.595934 0)
(-0.149114 -0.601499 0)
(-0.127961 -0.6068 0)
(-0.114421 -0.62929 0)
(-0.0883268 -0.677677 0)
(-0.0245876 -0.734778 0)
(0.0843584 -0.770039 0)
(0.195029 -0.712113 0)
(0.241723 -0.529443 0)
(0.189273 -0.428877 0)
(0.104133 -0.395359 0)
(0.0343412 -0.486275 0)
(-0.0699627 -0.692109 0)
(-0.141728 -1.00303 0)
(-0.0498484 -1.06558 0)
(0.0184422 -0.766891 0)
(-0.00237791 -0.657155 0)
(-0.0315205 -0.619039 0)
(-0.0706037 -0.622832 0)
(-0.0966923 -0.665499 0)
(-0.0784615 -0.723657 0)
(-0.000606865 -0.748489 0)
(0.110708 -0.7313 0)
(0.181946 -0.584959 0)
(0.144082 -0.478689 0)
(0.0423187 -0.440897 0)
(-0.0518039 -0.483419 0)
(-0.126408 -0.533529 0)
(-0.173827 -0.557089 0)
(-0.184747 -0.604771 0)
(-0.164725 -0.656209 0)
(-0.13065 -0.67911 0)
(-0.115707 -0.716105 0)
(-0.117348 -0.807738 0)
(-0.0824558 -0.997615 0)
(0.0265759 -1.21232 0)
(0.189611 -1.2711 0)
(0.332026 -1.02734 0)
(0.325364 -0.598919 0)
(0.250683 -0.394903 0)
(0.121877 -0.338447 0)
(0.0265619 -0.40619 0)
(-0.0969982 -0.712335 0)
(-0.284423 -1.16487 0)
(-0.284336 -1.46505 0)
(-0.148493 -1.15641 0)
(-0.110212 -0.879798 0)
(-0.121227 -0.76126 0)
(-0.177238 -0.758037 0)
(-0.217379 -0.881623 0)
(-0.17726 -1.02142 0)
(-0.0326442 -1.08266 0)
(0.159717 -1.03472 0)
(0.2267 -0.674807 0)
(0.177667 -0.449076 0)
(0.0590878 -0.373776 0)
(-0.0731078 -0.3974 0)
(-0.146385 -0.450217 0)
(-0.18549 -0.586459 0)
(-0.214507 -0.720012 0)
(-0.233577 -0.947578 0)
(-0.204952 -1.155 0)
(-0.121527 -1.26678 0)
(-0.0131828 -1.40543 0)
(0.120809 -1.53283 0)
(0.244709 -1.61521 0)
(0.337197 -1.61973 0)
(0.480688 -1.4634 0)
(0.581432 -0.978972 0)
(0.344468 -0.368513 0)
(0.144541 -0.259598 0)
(0.027331 -0.315749 0)
(-0.0674019 -0.516161 0)
(-0.248863 -0.873512 0)
(-0.474818 -1.35915 0)
(-0.505437 -1.35422 0)
(-0.470939 -1.29915 0)
(-0.459587 -1.22229 0)
(-0.48866 -1.21709 0)
(-0.495106 -1.33431 0)
(-0.376478 -1.51753 0)
(-0.135362 -1.61464 0)
(0.132155 -1.5611 0)
(0.312864 -1.18083 0)
(0.209889 -0.5084 0)
(0.0316926 -0.314164 0)
(-0.0701161 -0.301555 0)
(-0.163808 -0.43572 0)
(-0.302883 -0.933508 0)
(-0.276294 -1.24748 0)
(-0.167985 -1.39907 0)
(-0.0614069 -1.4419 0)
(0.0559209 -1.42805 0)
(0.177925 -1.42131 0)
(0.277551 -1.44495 0)
(0.33399 -1.47669 0)
(0.348933 -1.46766 0)
(0.361087 -1.34089 0)
(0.527329 -1.06225 0)
(0.375284 -0.473733 0)
(0.162461 -0.184511 0)
(0.0282272 -0.235936 0)
(-0.0390307 -0.37076 0)
(-0.143953 -0.627766 0)
(-0.340971 -1.06777 0)
(-0.463035 -1.12302 0)
(-0.523221 -1.15193 0)
(-0.539082 -1.12581 0)
(-0.535282 -1.11985 0)
(-0.522777 -1.24849 0)
(-0.431403 -1.51516 0)
(-0.219586 -1.67507 0)
(-0.0189707 -1.61366 0)
(0.122209 -1.28121 0)
(0.100033 -0.867454 0)
(-0.0519498 -0.4314 0)
(-0.184711 -0.331209 0)
(-0.326114 -0.888071 0)
(-0.255898 -1.14405 0)
(-0.128893 -1.2483 0)
(-0.0426734 -1.30598 0)
(0.0243323 -1.35287 0)
(0.0997206 -1.37474 0)
(0.183445 -1.40202 0)
(0.255745 -1.43459 0)
(0.296888 -1.44555 0)
(0.288155 -1.39712 0)
(0.246141 -1.26943 0)
(0.284538 -0.998535 0)
(0.290455 -0.557785 0)
(0.116444 -0.141099 0)
(0.0154642 -0.163624 0)
(-0.0238148 -0.296803 0)
(-0.0831242 -0.488702 0)
(-0.212309 -0.860633 0)
(-0.306791 -0.975553 0)
(-0.362983 -1.02757 0)
(-0.399702 -1.02696 0)
(-0.408041 -1.03255 0)
(-0.413488 -1.20374 0)
(-0.36609 -1.56073 0)
(-0.215514 -1.76542 0)
(-0.090574 -1.66712 0)
(-0.0690606 -1.22404 0)
(-0.119814 -0.790879 0)
(-0.197807 -0.6858 0)
(-0.293786 -0.727195 0)
(-0.280893 -0.899341 0)
(-0.144979 -1.08748 0)
(-0.0681568 -1.22261 0)
(-0.0135115 -1.30378 0)
(0.0330824 -1.37125 0)
(0.0916337 -1.41166 0)
(0.15629 -1.43685 0)
(0.208061 -1.44258 0)
(0.225941 -1.40889 0)
(0.204344 -1.32347 0)
(0.164654 -1.18775 0)
(0.159077 -0.9404 0)
(0.140654 -0.526183 0)
(0.041404 -0.107867 0)
(0.00336601 -0.10519 0)
(-0.0146118 -0.253185 0)
(-0.0502799 -0.399298 0)
(-0.135989 -0.703043 0)
(-0.228446 -0.92512 0)
(-0.250771 -0.93945 0)
(-0.271102 -0.975653 0)
(-0.261156 -1.003 0)
(-0.269335 -1.18649 0)
(-0.259408 -1.5989 0)
(-0.172151 -1.85071 0)
(-0.112327 -1.70679 0)
(-0.137042 -1.19243 0)
(-0.177198 -0.731624 0)
(-0.216929 -0.625975 0)
(-0.227963 -0.676525 0)
(-0.183472 -0.912081 0)
(-0.0979052 -1.12147 0)
(-0.0415699 -1.24293 0)
(0.004526 -1.31712 0)
(0.0407831 -1.37363 0)
(0.0811144 -1.4163 0)
(0.12228 -1.43392 0)
(0.151828 -1.41658 0)
(0.158981 -1.35235 0)
(0.148688 -1.24977 0)
(0.128866 -1.10857 0)
(0.115836 -0.874134 0)
(0.0670012 -0.467054 0)
(0.000911691 -0.0748589 0)
(-0.00651174 -0.0652624 0)
(-0.0116302 -0.224963 0)
(-0.0351719 -0.342063 0)
(-0.0854039 -0.577996 0)
(-0.172542 -0.799212 0)
(-0.190251 -0.868202 0)
(-0.174338 -0.940665 0)
(-0.155796 -0.994313 0)
(-0.142891 -1.17322 0)
(-0.149231 -1.58977 0)
(-0.12896 -1.85358 0)
(-0.12339 -1.6855 0)
(-0.159134 -1.15009 0)
(-0.164717 -0.710685 0)
(-0.163165 -0.600489 0)
(-0.158278 -0.669213 0)
(-0.126489 -0.938484 0)
(-0.0671502 -1.1323 0)
(-0.0258941 -1.24427 0)
(0.00921059 -1.30978 0)
(0.0378896 -1.3651 0)
(0.0661216 -1.40486 0)
(0.0906566 -1.41617 0)
(0.107436 -1.38447 0)
(0.112952 -1.30604 0)
(0.110854 -1.19376 0)
(0.107147 -1.04815 0)
(0.107701 -0.803303 0)
(0.0544457 -0.406319 0)
(-0.00552508 -0.0505268 0)
(-0.00851575 -0.0379461 0)
(-0.0080246 -0.207394 0)
(-0.0280712 -0.295905 0)
(-0.0680826 -0.47443 0)
(-0.135266 -0.681821 0)
(-0.156109 -0.869564 0)
(-0.114383 -0.915882 0)
(-0.0813209 -0.993283 0)
(-0.0510882 -1.17882 0)
(-0.0540295 -1.57076 0)
(-0.0794207 -1.8136 0)
(-0.120362 -1.64237 0)
(-0.159279 -1.12149 0)
(-0.1593 -0.763751 0)
(-0.137062 -0.596387 0)
(-0.122182 -0.682874 0)
(-0.0813828 -0.945952 0)
(-0.045062 -1.13062 0)
(-0.0156518 -1.23457 0)
(0.0103201 -1.2959 0)
(0.0322314 -1.34584 0)
(0.0521838 -1.3803 0)
(0.0684578 -1.38547 0)
(0.0804886 -1.34525 0)
(0.0883713 -1.2595 0)
(0.0957981 -1.14412 0)
(0.103481 -0.991697 0)
(0.1109 -0.741665 0)
(0.07537 -0.353447 0)
(0.0105336 -0.0367092 0)
(-0.00623356 -0.0209517 0)
(-0.0076608 -0.194261 0)
(-0.0284588 -0.254304 0)
(-0.0597809 -0.389057 0)
(-0.0967397 -0.581168 0)
(-0.111054 -0.81543 0)
(-0.0756731 -0.891676 0)
(-0.0349104 -0.993372 0)
(0.00468228 -1.18253 0)
(0.00674447 -1.53131 0)
(-0.0424573 -1.7354 0)
(-0.106128 -1.57645 0)
(-0.13638 -1.08254 0)
(-0.131698 -0.767648 0)
(-0.102054 -0.604459 0)
(-0.0845885 -0.684114 0)
(-0.0602236 -0.93799 0)
(-0.0348796 -1.11426 0)
(-0.0120792 -1.21325 0)
(0.00587115 -1.27156 0)
(0.0221385 -1.31839 0)
(0.0372338 -1.34861 0)
(0.0503314 -1.34918 0)
(0.0617607 -1.30463 0)
(0.0720927 -1.21643 0)
(0.0836852 -1.10004 0)
(0.096472 -0.944284 0)
(0.113639 -0.69255 0)
(0.0974011 -0.313205 0)
(0.0320883 -0.0392437 0)
(0.000454408 -0.0179354 0)
(-0.00718776 -0.187483 0)
(-0.0288996 -0.216401 0)
(-0.0510274 -0.330097 0)
(-0.0593679 -0.520686 0)
(-0.0660529 -0.774633 0)
(-0.0428709 -0.869615 0)
(-0.00789387 -0.996506 0)
(0.0241914 -1.18849 0)
(0.0347639 -1.49121 0)
(-0.0190023 -1.64638 0)
(-0.0873343 -1.49854 0)
(-0.11702 -1.03572 0)
(-0.112834 -0.764501 0)
(-0.0859604 -0.614971 0)
(-0.0627129 -0.687434 0)
(-0.0407153 -0.921653 0)
(-0.0264437 -1.0892 0)
(-0.0113403 -1.18465 0)
(-0.000148928 -1.23958 0)
(0.010945 -1.28433 0)
(0.0225059 -1.31216 0)
(0.0335526 -1.30947 0)
(0.0447557 -1.26238 0)
(0.0560569 -1.17319 0)
(0.0689498 -1.05595 0)
(0.0794152 -0.894759 0)
(0.104043 -0.645103 0)
(0.103723 -0.280511 0)
(0.0477009 -0.0585252 0)
(0.00859042 -0.0354175 0)
(-0.00594015 -0.187648 0)
(-0.0214181 -0.192315 0)
(-0.027643 -0.295412 0)
(-0.0154517 -0.476004 0)
(-0.02285 -0.672585 0)
(-0.0303003 -0.812805 0)
(-0.015452 -0.9919 0)
(0.028094 -1.20444 0)
(0.0365046 -1.44781 0)
(-0.00711454 -1.55579 0)
(-0.0798701 -1.41057 0)
(-0.114247 -0.995981 0)
(-0.106878 -0.764771 0)
(-0.0807247 -0.621581 0)
(-0.0490956 -0.684389 0)
(-0.0236178 -0.894951 0)
(-0.0216498 -1.05597 0)
(-0.0137455 -1.14771 0)
(-0.00821397 -1.2012 0)
(-0.00113652 -1.24482 0)
(0.00692342 -1.27121 0)
(0.0157527 -1.26646 0)
(0.0260267 -1.21832 0)
(0.0378091 -1.12905 0)
(0.052114 -1.01142 0)
(0.067811 -0.847221 0)
(0.0879316 -0.635952 0)
(0.0739082 -0.246055 0)
(0.0428322 -0.0932755 0)
(0.0115227 -0.0779697 0)
(-0.00131641 -0.203243 0)
(0.00102612 -0.203586 0)
(0.0237912 -0.295779 0)
(0.0540283 -0.434315 0)
(0.0215206 -0.598269 0)
(-0.0492048 -0.721087 0)
(-0.0553819 -0.968814 0)
(-0.0149016 -1.19437 0)
(0.0108707 -1.39028 0)
(-0.0181389 -1.46761 0)
(-0.0855079 -1.31435 0)
(-0.123678 -0.953675 0)
(-0.107982 -0.760193 0)
(-0.079019 -0.625118 0)
(-0.0512458 -0.726304 0)
(-0.0251987 -0.864537 0)
(-0.0270251 -1.0151 0)
(-0.0226187 -1.10435 0)
(-0.0194047 -1.15741 0)
(-0.015446 -1.20004 0)
(-0.0107382 -1.22532 0)
(-0.00487305 -1.21935 0)
(0.00299211 -1.17114 0)
(0.0130017 -1.08295 0)
(0.0256575 -0.965248 0)
(0.0566092 -0.794217 0)
(0.0562386 -0.554439 0)
(0.0186334 -0.208865 0)
(0.00837488 -0.117952 0)
(0.00292992 -0.123929 0)
(0.00439061 -0.248524 0)
(0.0315939 -0.257176 0)
(0.08943 -0.333361 0)
(0.133099 -0.396343 0)
(0.0846433 -0.455054 0)
(-0.0400922 -0.605256 0)
(-0.0937165 -0.935374 0)
(-0.0393575 -1.18209 0)
(-0.000865973 -1.32473 0)
(-0.049721 -1.33553 0)
(-0.117009 -1.20033 0)
(-0.138421 -0.900867 0)
(-0.115394 -0.745447 0)
(-0.0794569 -0.618583 0)
(-0.0607001 -0.710565 0)
(-0.0458054 -0.830291 0)
(-0.0410049 -0.971451 0)
(-0.0369633 -1.06077 0)
(-0.0338091 -1.11046 0)
(-0.0327321 -1.1509 0)
(-0.0314057 -1.17428 0)
(-0.0291152 -1.16722 0)
(-0.0249119 -1.11934 0)
(-0.0171844 -1.03227 0)
(0.00884104 -0.913822 0)
(0.040928 -0.787454 0)
(0.0159312 -0.471971 0)
(-0.0201757 -0.184217 0)
(-0.0234249 -0.119592 0)
(-0.00848503 -0.133195 0)
(0.019583 -0.30647 0)
(0.0710373 -0.318171 0)
(0.134542 -0.364737 0)
(0.169025 -0.362197 0)
(0.132307 -0.341398 0)
(0.0344499 -0.510405 0)
(-0.0551373 -0.900254 0)
(-0.0245796 -1.18636 0)
(-0.00657747 -1.25589 0)
(-0.0667434 -1.22168 0)
(-0.138595 -1.10474 0)
(-0.143461 -0.877875 0)
(-0.108593 -0.735673 0)
(-0.0799771 -0.600115 0)
(-0.0829126 -0.666066 0)
(-0.0723891 -0.782166 0)
(-0.0568092 -0.916214 0)
(-0.0503939 -1.01158 0)
(-0.0490089 -1.05867 0)
(-0.0517266 -1.09789 0)
(-0.0544289 -1.11902 0)
(-0.0565689 -1.11004 0)
(-0.0555051 -1.06306 0)
(-0.0317357 -0.97919 0)
(0.00249972 -0.917237 0)
(-0.000465735 -0.701295 0)
(-0.0302315 -0.406251 0)
(-0.045094 -0.180902 0)
(-0.0384566 -0.127295 0)
(-0.0139576 -0.135375 0)
(0.031372 -0.350935 0)
(0.0883702 -0.354738 0)
(0.130247 -0.365073 0)
(0.147349 -0.328163 0)
(0.147613 -0.299927 0)
(0.133176 -0.461084 0)
(0.0793766 -0.915371 0)
(0.0224686 -1.13225 0)
(0.0150252 -1.1877 0)
(-0.0593649 -1.10539 0)
(-0.134648 -1.01507 0)
(-0.125746 -0.852391 0)
(-0.081237 -0.721721 0)
(-0.0647026 -0.578359 0)
(-0.0779134 -0.616086 0)
(-0.0876608 -0.782766 0)
(-0.0751761 -0.855045 0)
(-0.0616042 -0.944184 0)
(-0.0571073 -0.987887 0)
(-0.0689224 -1.03019 0)
(-0.0750013 -1.05515 0)
(-0.0827741 -1.0465 0)
(-0.070171 -1.00479 0)
(-0.0408429 -0.986154 0)
(-0.0386249 -0.83236 0)
(-0.0657842 -0.617234 0)
(-0.0755604 -0.372156 0)
(-0.0697374 -0.200442 0)
(-0.0509585 -0.159013 0)
(-0.0180827 -0.16294 0)
(0.02705 -0.388628 0)
(0.0767335 -0.382353 0)
(0.114598 -0.371132 0)
(0.143015 -0.324035 0)
(0.173432 -0.301898 0)
(0.213681 -0.460781 0)
(0.20487 -0.815761 0)
(0.111275 -0.996371 0)
(0.0577499 -1.03367 0)
(-0.0228823 -0.95057 0)
(-0.0896605 -0.896258 0)
(-0.107619 -0.856557 0)
(-0.0856086 -0.694415 0)
(-0.066974 -0.558837 0)
(-0.0573566 -0.571717 0)
(-0.0652622 -0.71868 0)
(-0.0734075 -0.842675 0)
(-0.0767848 -0.934051 0)
(-0.0767073 -0.908484 0)
(-0.0822208 -0.942967 0)
(-0.0869294 -0.966835 0)
(-0.0839999 -0.964733 0)
(-0.0786912 -0.999498 0)
(-0.082058 -0.900206 0)
(-0.11003 -0.740836 0)
(-0.127982 -0.552495 0)
(-0.120504 -0.363577 0)
(-0.0978983 -0.238605 0)
(-0.0637443 -0.210877 0)
(-0.0210321 -0.208214 0)
(0.0250754 -0.429189 0)
(0.0688331 -0.410295 0)
(0.105824 -0.390214 0)
(0.149487 -0.357474 0)
(0.213386 -0.367024 0)
(0.28451 -0.498409 0)
(0.292999 -0.720206 0)
(0.209187 -0.881425 0)
(0.0983618 -0.914988 0)
(0.00720639 -0.852284 0)
(-0.0513341 -0.822119 0)
(-0.0917886 -0.772141 0)
(-0.0999029 -0.655917 0)
(-0.0715909 -0.549686 0)
(-0.0358104 -0.548374 0)
(-0.0208423 -0.656468 0)
(-0.0317995 -0.755865 0)
(-0.0608989 -0.835606 0)
(-0.0797078 -0.877881 0)
(-0.083806 -0.913977 0)
(-0.0926941 -0.936586 0)
(-0.0966303 -0.9326 0)
(-0.113246 -0.897266 0)
(-0.147928 -0.802843 0)
(-0.173017 -0.663793 0)
(-0.178471 -0.51215 0)
(-0.159809 -0.377705 0)
(-0.123909 -0.291678 0)
(-0.0742626 -0.276167 0)
(-0.022362 -0.262282 0)
(0.0255626 -0.470555 0)
(0.0669912 -0.43776 0)
(0.10433 -0.423261 0)
(0.161091 -0.422398 0)
(0.244313 -0.461121 0)
(0.312013 -0.550956 0)
(0.306703 -0.658216 0)
(0.221626 -0.731123 0)
(0.111638 -0.752804 0)
(0.0297085 -0.71972 0)
(-0.0238723 -0.707232 0)
(-0.0684109 -0.686254 0)
(-0.0834985 -0.61753 0)
(-0.0569078 -0.546652 0)
(-0.0121581 -0.541541 0)
(0.0149214 -0.61072 0)
(0.010413 -0.681657 0)
(-0.0136521 -0.741654 0)
(-0.0394467 -0.782346 0)
(-0.0594661 -0.814027 0)
(-0.0819473 -0.833357 0)
(-0.109599 -0.829528 0)
(-0.147453 -0.794258 0)
(-0.187064 -0.71859 0)
(-0.209353 -0.610782 0)
(-0.208932 -0.49841 0)
(-0.18451 -0.409266 0)