/*--------------------------------*- C++ -*----------------------------------*\
| =========                 |                                                 |
| \\      /  F ield         | OpenFOAM: The Open Source CFD Toolbox           |
|  \\    /   O peration     | Version:  v1606+                                |
|   \\  /    A nd           | Web:      www.OpenFOAM.com                      |
|    \\/     M anipulation  |                                                 |
\*---------------------------------------------------------------------------*/
FoamFile
{
    version     2.0;
    format      ascii;
    class       surfaceScalarField;
    location    "0.19";
    object      phi;
}
// * * * * * * * * * * * * * * * * * * * * * * * * * * * * * * * * * * * * * //

dimensions      [0 3 -1 0 0 0 0];

internalField   nonuniform List<scalar> 
11770
(
-2.11902e-06
4.95721e-05
-2.21189e-06
4.75983e-05
-3.23293e-06
4.85735e-05
-3.67821e-06
4.79724e-05
-4.08522e-06
4.79338e-05
-4.44122e-06
4.78832e-05
-4.5802e-06
4.76177e-05
-4.53499e-06
4.73504e-05
-4.41615e-06
4.72236e-05
-4.10689e-06
4.6987e-05
-3.5391e-06
4.66948e-05
-2.78023e-06
4.64732e-05
-1.88134e-06
4.63061e-05
-8.91341e-07
4.6198e-05
1.57304e-08
4.62647e-05
9.70995e-07
4.62239e-05
1.94534e-06
4.62143e-05
2.86232e-06
4.62917e-05
3.60228e-06
4.64943e-05
4.11078e-06
4.67576e-05
4.42329e-06
4.69943e-05
4.55274e-06
4.72243e-05
4.63071e-06
4.73231e-05
4.45166e-06
4.76633e-05
4.13966e-06
4.78394e-05
3.79954e-06
4.78669e-05
3.3902e-06
4.79377e-05
2.39588e-06
4.85482e-05
2.1189e-06
4.77923e-05
4.95884e-05
-2.18397e-06
5.42195e-05
-2.66971e-06
5.04141e-05
-3.87755e-06
5.21177e-05
-4.82808e-06
5.12191e-05
-5.39792e-06
5.0796e-05
-5.64787e-06
5.04273e-05
-5.71886e-06
4.9965e-05
-5.63529e-06
4.95397e-05
-5.30525e-06
4.91834e-05
-4.81471e-06
4.87907e-05
-4.11683e-06
4.82904e-05
-3.23467e-06
4.78862e-05
-2.23971e-06
4.76085e-05
-1.16405e-06
4.74242e-05
5.064e-08
4.73608e-05
1.24243e-06
4.73413e-05
2.33606e-06
4.74207e-05
3.3351e-06
4.75865e-05
4.22581e-06
4.78963e-05
4.93547e-06
4.83405e-05
5.41037e-06
4.881e-05
5.69097e-06
4.92279e-05
5.71777e-06
4.95595e-05
5.70351e-06
4.99544e-05
5.45257e-06
5.038e-05
4.9397e-06
5.06682e-05
4.06064e-06
5.11107e-05
2.9204e-06
5.20221e-05
2.38054e-06
5.06687e-05
5.44255e-05
-2.13904e-06
5.64157e-05
-1.9202e-06
5.0259e-05
-4.56494e-06
5.48609e-05
-5.50545e-06
5.22663e-05
-6.23077e-06
5.16338e-05
-6.07549e-06
5.03878e-05
-5.44245e-06
4.94495e-05
-5.11542e-06
4.9332e-05
-4.90529e-06
4.90946e-05
-4.55747e-06
4.85648e-05
-3.96057e-06
4.78149e-05
-3.15349e-06
4.72001e-05
-2.1762e-06
4.67524e-05
-1.10246e-06
4.64719e-05
4.5452e-08
4.6335e-05
1.17782e-06
4.63309e-05
2.26218e-06
4.64577e-05
3.22816e-06
4.67412e-05
4.03001e-06
4.72154e-05
4.64121e-06
4.78509e-05
4.9771e-06
4.85962e-05
5.20408e-06
4.91225e-05
5.54332e-06
4.93391e-05
6.24348e-06
4.93718e-05
6.38373e-06
5.03549e-05
5.63785e-06
5.15258e-05
4.70431e-06
5.21503e-05
2.0538e-06
5.47705e-05
2.20289e-06
5.05841e-05
5.6688e-05
-2.75019e-07
5.66797e-05
-1.36782e-06
5.13369e-05
-3.49636e-06
5.69783e-05
-3.78579e-06
5.25455e-05
-4.09862e-06
5.19382e-05
-4.35143e-06
5.06336e-05
-4.9628e-06
5.00534e-05
-4.85102e-06
4.92136e-05
-5.02419e-06
4.92624e-05
-5.02181e-06
4.85574e-05
-4.52085e-06
4.73086e-05
-3.61189e-06
4.62856e-05
-2.47615e-06
4.56109e-05
-1.26083e-06
4.52509e-05
6.01455e-08
4.50083e-05
1.35048e-06
4.50349e-05
2.58161e-06
4.52209e-05
3.69942e-06
4.56178e-05
4.58136e-06
4.6328e-05
5.05426e-06
4.7373e-05
5.02213e-06
4.86237e-05
4.9273e-06
4.92127e-05
5.03154e-06
4.92285e-05
4.34569e-06
5.00504e-05
4.19635e-06
5.04971e-05
3.9144e-06
5.17991e-05
3.63065e-06
5.24236e-05
1.5163e-06
5.68735e-05
3.20974e-07
5.17645e-05
5.69984e-05
-3.39259e-06
6.00302e-05
-7.04767e-06
5.49483e-05
-6.72482e-06
5.66121e-05
-5.60637e-06
5.1384e-05
-3.82963e-06
5.012e-05
-2.76356e-06
4.95282e-05
-2.03042e-06
4.92828e-05
-2.31208e-07
4.73804e-05
-1.06914e-06
5.00707e-05
-1.19691e-06
4.86584e-05
-1.04023e-06
4.71277e-05
-8.59716e-07
4.60827e-05
-6.28393e-07
4.53585e-05
-3.44271e-07
4.49464e-05
2.99585e-08
4.4614e-05
3.9067e-07
4.46542e-05
6.78769e-07
4.49124e-05
8.95695e-07
4.53798e-05
1.06302e-06
4.61383e-05
1.20296e-06
4.72087e-05
1.06929e-06
4.87309e-05
3.63743e-07
4.989e-05
2.18157e-06
4.73769e-05
2.87299e-06
4.93214e-05
3.97061e-06
4.936e-05
5.89001e-06
4.9838e-05
7.17331e-06
5.1097e-05
7.56047e-06
5.64428e-05
3.77529e-06
5.55059e-05
6.07314e-05
-7.55064e-06
6.75238e-05
-1.18501e-05
5.91907e-05
-8.75736e-06
5.34625e-05
-4.76849e-06
4.73382e-05
-5.41156e-07
4.5836e-05
2.41059e-06
4.65204e-05
4.38867e-06
4.72497e-05
4.83742e-06
4.68772e-05
4.28582e-06
5.05701e-05
3.56165e-06
4.93311e-05
2.70288e-06
4.79369e-05
1.8064e-06
4.69315e-05
1.05659e-06
4.60617e-05
4.65461e-07
4.54922e-05
-5.50916e-09
4.50398e-05
-4.6567e-07
4.50695e-05
-1.07723e-06
4.54783e-05
-1.84408e-06
4.61003e-05
-2.74394e-06
4.69902e-05
-3.59506e-06
4.80106e-05
-4.26609e-06
4.9351e-05
-4.70216e-06
5.02732e-05
-4.19765e-06
4.68182e-05
-2.1688e-06
4.72372e-05
5.72681e-07
4.65625e-05
4.99288e-06
4.53612e-05
9.26356e-06
4.67693e-05
1.25235e-05
5.3126e-05
8.18533e-06
5.97869e-05
6.88595e-05
-7.10674e-06
7.45716e-05
-1.10095e-05
6.30343e-05
-8.63293e-06
5.10271e-05
-4.64063e-06
4.32869e-05
-3.26299e-07
4.14626e-05
3.60832e-06
4.25264e-05
5.7006e-06
4.5098e-05
5.73795e-06
4.67815e-05
7.43691e-06
4.88119e-05
7.7345e-06
4.89753e-05
6.93841e-06
4.8675e-05
5.55325e-06
4.8259e-05
3.8116e-06
4.77456e-05
1.94489e-06
4.73005e-05
-6.1785e-08
4.69891e-05
-2.0453e-06
4.69948e-05
-3.92673e-06
4.73023e-05
-5.63511e-06
4.77504e-05
-6.96962e-06
4.82659e-05
-7.66307e-06
4.86457e-05
-7.27835e-06
4.89081e-05
-5.61519e-06
4.85515e-05
-5.45352e-06
4.65974e-05
-3.21243e-06
4.49373e-05
1.31355e-07
4.31595e-05
4.64681e-06
4.07868e-05
8.90458e-06
4.24527e-05
1.13992e-05
5.05725e-05
7.42095e-06
6.37061e-05
7.62215e-05
-7.00219e-06
8.15151e-05
-9.8088e-06
6.5782e-05
-7.19882e-06
4.83582e-05
-4.65259e-06
4.0682e-05
-1.46107e-06
3.82123e-05
3.57914e-06
3.74268e-05
6.17548e-06
4.24422e-05
7.11766e-06
4.57792e-05
7.72356e-06
4.81467e-05
7.49823e-06
4.91416e-05
6.65486e-06
4.94591e-05
5.41067e-06
4.94435e-05
3.80162e-06
4.92957e-05
1.95256e-06
4.90903e-05
-6.54744e-08
4.89483e-05
-2.0788e-06
4.89487e-05
-3.91985e-06
4.90844e-05
-5.50814e-06
4.92794e-05
-6.71328e-06
4.94126e-05
-7.50614e-06
4.9379e-05
-7.64731e-06
4.89902e-05
-6.93057e-06
4.77757e-05
-5.6243e-06
4.52321e-05
-2.44153e-06
4.16951e-05
4.97078e-07
4.01619e-05
4.309e-06
3.69162e-05
7.23517e-06
3.9468e-05
9.95523e-06
4.77937e-05
7.11558e-06
6.64868e-05
8.32785e-05
-7.11047e-06
8.85675e-05
-8.61252e-06
6.72255e-05
-8.80028e-06
4.8488e-05
-5.50987e-06
3.73341e-05
-8.66538e-07
3.35112e-05
3.09543e-06
3.34064e-05
5.01678e-06
4.04619e-05
7.24145e-06
4.3495e-05
8.21281e-06
4.71157e-05
7.80528e-06
4.94897e-05
6.70085e-06
5.0504e-05
5.31793e-06
5.07669e-05
3.66672e-06
5.08869e-05
1.84629e-06
5.08522e-05
-6.83378e-08
5.08029e-05
-1.98245e-06
5.08042e-05
-3.79732e-06
5.08393e-05
-5.44489e-06
5.08684e-05
-6.81329e-06
5.07216e-05
-7.91642e-06
5.04232e-05
-8.30648e-06
4.93209e-05
-7.33222e-06
4.67418e-05
-5.04408e-06
4.28846e-05
-3.00859e-06
3.96007e-05
1.15872e-06
3.59364e-05
5.73432e-06
3.22829e-05
8.95499e-06
3.61899e-05
8.65711e-06
4.80337e-05
7.12804e-06
6.79573e-05
9.03485e-05
-7.53938e-06
9.60494e-05
-9.2445e-06
6.88726e-05
-1.02788e-05
4.94657e-05
-5.46565e-06
3.2465e-05
-1.89705e-07
2.81791e-05
2.72394e-06
3.04359e-05
5.17708e-06
3.79509e-05
6.05808e-06
4.25553e-05
7.7626e-06
4.53519e-05
7.64635e-06
4.95466e-05
6.83823e-06
5.12524e-05
5.47297e-06
5.20725e-05
3.72408e-06
5.25762e-05
1.85551e-06
5.26613e-05
-7.49293e-08
5.26736e-05
-1.99962e-06
5.26695e-05
-3.87418e-06
5.26542e-05
-5.62647e-06
5.25609e-05
-7.00248e-06
5.20386e-05
-7.82803e-06
5.11893e-05
-7.98792e-06
4.94214e-05
-6.41251e-06
4.51073e-05
-5.81432e-06
4.22279e-05
-3.85776e-06
3.75865e-05
1.22389e-06
3.0798e-05
6.0045e-06
2.74463e-05
1.04522e-05
3.16864e-05
9.17082e-06
4.92584e-05
7.45534e-06
6.96148e-05
9.77463e-05
-7.27397e-06
0.000103267
-8.67136e-06
7.02127e-05
-7.52359e-06
4.82625e-05
-4.43613e-06
2.93234e-05
-1.33313e-06
2.50219e-05
1.55421e-06
2.74936e-05
5.13281e-06
3.43162e-05
6.187e-06
4.14438e-05
6.48208e-06
4.49986e-05
5.56526e-06
5.04046e-05
5.86171e-06
5.08967e-05
5.30241e-06
5.25719e-05
3.80765e-06
5.40116e-05
1.91848e-06
5.44904e-05
-7.7422e-08
5.46102e-05
-2.07525e-06
5.46074e-05
-3.96356e-06
5.44832e-05
-5.46744e-06
5.40048e-05
-6.03094e-06
5.25425e-05
-5.74662e-06
5.08456e-05
-6.68799e-06
5.03041e-05
-6.45727e-06
4.48184e-05
-5.48174e-06
4.11951e-05
-1.95677e-06
3.40055e-05
1.53805e-06
2.72485e-05
4.53803e-06
2.43923e-05
7.44169e-06
2.87287e-05
8.41372e-06
4.82311e-05
7.09347e-06
7.08778e-05
0.000104783
-5.08477e-06
0.000108295
-5.23204e-06
7.03035e-05
-3.73197e-06
4.67084e-05
-2.26805e-06
2.78071e-05
-1.11086e-06
2.38129e-05
5.38451e-08
2.62763e-05
2.09805e-06
3.2218e-05
4.46536e-06
3.90211e-05
4.74128e-06
4.46659e-05
4.74195e-06
5.03462e-05
3.8107e-06
5.17693e-05
4.17558e-06
5.21479e-05
3.34802e-06
5.47796e-05
1.76247e-06
5.60164e-05
-8.04529e-08
5.63934e-05
-1.92169e-06
5.63891e-05
-3.50614e-06
5.60079e-05
-4.33365e-06
5.4773e-05
-3.9783e-06
5.2128e-05
-4.92902e-06
5.17378e-05
-4.95124e-06
5.02686e-05
-4.69619e-06
4.45067e-05
-2.34111e-06
3.87847e-05
-2.84879e-07
3.18955e-05
1.03685e-06
2.58744e-05
2.13047e-06
2.3247e-05
3.4377e-06
2.73693e-05
4.82501e-06
4.67897e-05
4.85783e-06
7.07885e-05
0.000109584
2.73136e-07
0.000107965
-3.86646e-07
7.09079e-05
1.35186e-06
4.49171e-05
1.28422e-06
2.78244e-05
6.13856e-07
2.44338e-05
-2.07294e-07
2.70475e-05
-3.24036e-07
3.22835e-05
4.39609e-07
3.82044e-05
1.63147e-06
4.34192e-05
3.64045e-06
4.82811e-05
3.45186e-06
5.19006e-05
3.06081e-06
5.24807e-05
2.39124e-06
5.53904e-05
1.26468e-06
5.70839e-05
-8.06e-08
5.76794e-05
-1.42306e-06
5.76723e-05
-2.54235e-06
5.70682e-05
-3.20582e-06
5.53777e-05
-3.6034e-06
5.24674e-05
-3.7971e-06
5.18743e-05
-1.78736e-06
4.82029e-05
-5.89e-07
4.32536e-05
1.8075e-07
3.7962e-05
6.04166e-08
3.19646e-05
-7.63334e-07
2.66483e-05
-1.5301e-06
2.39644e-05
-1.74652e-06
2.75353e-05
-6.23402e-08
4.50526e-05
-6.79582e-07
7.13502e-05
0.000108848
5.24384e-06
0.000102666
6.52054e-06
6.95775e-05
7.73027e-06
4.36559e-05
6.0063e-06
2.94999e-05
3.5546e-06
2.68384e-05
9.5882e-07
2.9596e-05
-8.83351e-07
3.40772e-05
-1.53733e-06
3.88082e-05
-1.1251e-06
4.2955e-05
3.00483e-07
4.68019e-05
1.85547e-06
5.02904e-05
1.33516e-06
5.29445e-05
9.67165e-07
5.5701e-05
5.0239e-07
5.74907e-05
-7.23525e-08
5.8196e-05
-6.38546e-07
5.81804e-05
-1.08331e-06
5.74551e-05
-1.42842e-06
5.56655e-05
-1.92975e-06
5.29123e-05
-3.58457e-07
5.02478e-05
1.07695e-06
4.67139e-05
1.48748e-06
4.27911e-05
8.19518e-07
3.85798e-05
-1.0591e-06
3.37948e-05
-3.72294e-06
2.92649e-05
-6.29595e-06
2.64903e-05
-8.14203e-06
2.93328e-05
-6.93982e-06
4.37988e-05
-5.68914e-06
7.00454e-05
0.000103104
6.9219e-06
9.56921e-05
1.32345e-05
6.32136e-05
1.3676e-05
4.31655e-05
1.05615e-05
3.2568e-05
6.60214e-06
3.07526e-05
2.72283e-06
3.34304e-05
-2.7955e-07
3.70341e-05
-2.02753e-06
4.05096e-05
-2.6812e-06
4.35607e-05
-2.46871e-06
4.65398e-05
-1.81379e-06
4.95843e-05
-1.42357e-06
5.25015e-05
-9.42632e-07
5.51662e-05
-4.60634e-07
5.69542e-05
-2.46737e-08
5.77052e-05
4.15864e-07
5.76849e-05
9.11118e-07
5.69052e-05
1.40707e-06
5.51157e-05
1.80924e-06
5.24573e-05
2.4763e-06
4.95295e-05
2.68808e-06
4.64525e-05
2.01372e-06
4.34175e-05
2.31351e-07
4.03157e-05
-2.82405e-06
3.68048e-05
-6.78596e-06
3.31819e-05
-1.08581e-05
3.05174e-05
-1.40397e-05
3.24679e-05
-1.35425e-05
4.32525e-05
-7.0846e-06
6.3536e-05
9.59667e-05
9.65751e-06
8.59871e-05
1.70667e-05
5.57574e-05
1.72326e-05
4.29544e-05
1.36658e-05
3.60912e-05
8.77861e-06
3.55973e-05
4.13248e-06
3.80348e-05
4.48854e-07
4.06766e-05
-2.04761e-06
4.29649e-05
-3.51478e-06
4.49859e-05
-4.15944e-06
4.71411e-05
-4.10894e-06
4.94889e-05
-3.57991e-06
5.19261e-05
-2.60803e-06
5.41467e-05
-1.3761e-06
5.56737e-05
-3.28805e-08
5.6313e-05
1.31118e-06
5.62919e-05
2.55243e-06
5.56155e-05
3.53973e-06
5.40807e-05
4.08866e-06
5.1862e-05
4.16452e-06
4.94088e-05
3.53478e-06
4.7039e-05
2.06085e-06
4.48496e-05
-4.59982e-07
4.27954e-05
-4.19615e-06
4.04998e-05
-8.92519e-06
3.78692e-05
-1.39132e-05
3.54628e-05
-1.75016e-05
3.60126e-05
-1.72677e-05
4.29733e-05
-9.70327e-06
5.59243e-05
8.62156e-05
1.14979e-05
7.44493e-05
1.76394e-05
4.95751e-05
1.7717e-05
4.2837e-05
1.40653e-05
3.97037e-05
9.24631e-06
4.03784e-05
4.94472e-06
4.23002e-05
1.51565e-06
4.4071e-05
-1.05198e-06
4.54986e-05
-2.81892e-06
4.67188e-05
-3.87266e-06
4.816e-05
-4.20726e-06
4.97874e-05
-3.87316e-06
5.15545e-05
-2.93438e-06
5.31691e-05
-1.58441e-06
5.42839e-05
-6.51931e-08
5.47535e-05
1.45556e-06
5.47309e-05
2.81023e-06
5.4221e-05
3.76223e-06
5.30899e-05
4.11825e-06
5.14685e-05
3.81442e-06
4.96766e-05
2.80045e-06
4.80181e-05
1.06633e-06
4.65497e-05
-1.48228e-06
4.53101e-05
-4.9289e-06
4.39118e-05
-9.29138e-06
4.21955e-05
-1.41867e-05
4.03201e-05
-1.78812e-05
3.9668e-05
-1.77669e-05
4.28189e-05
-1.15353e-05
4.96519e-05
7.46403e-05
1.08736e-05
6.35456e-05
1.54372e-05
4.49782e-05
1.56026e-05
4.26382e-05
1.23641e-05
4.29098e-05
8.57554e-06
4.41363e-05
5.04976e-06
4.5797e-05
2.10425e-06
4.69885e-05
-1.76192e-07
4.77517e-05
-1.75628e-06
4.82718e-05
-2.71939e-06
4.9096e-05
-3.08897e-06
5.01295e-05
-2.89159e-06
5.13289e-05
-2.20519e-06
5.24538e-05
-1.2027e-06
5.32519e-05
-8.64447e-08
5.36073e-05
1.02737e-06
5.35871e-05
2.02535e-06
5.31935e-05
2.71631e-06
5.237e-05
2.93388e-06
5.12228e-05
2.59819e-06
4.99848e-05
1.68246e-06
4.89067e-05
1.50164e-07
4.80548e-05
-2.08091e-06
4.75137e-05
-5.00737e-06
4.68102e-05
-8.56542e-06
4.57247e-05
-1.23865e-05
4.41106e-05
-1.56725e-05
4.29216e-05
-1.55241e-05
4.26371e-05
-1.09322e-05
4.50267e-05
6.3678e-05
1.01088e-05
5.3414e-05
1.28678e-05
4.21918e-05
1.27326e-05
4.27468e-05
1.05204e-05
4.50969e-05
7.69548e-06
4.69374e-05
4.25031e-06
4.92193e-05
1.5147e-06
4.97007e-05
-4.99663e-07
4.97427e-05
-1.63597e-06
4.93848e-05
-2.14743e-06
4.95845e-05
-2.22216e-06
5.01817e-05
-1.95482e-06
5.10394e-05
-1.43203e-06
5.1909e-05
-7.71903e-07
5.25698e-05
-8.63869e-08
5.28998e-05
5.95412e-07
5.28834e-05
1.24598e-06
5.2521e-05
1.76289e-06
5.18312e-05
2.03383e-06
5.09297e-05
1.9718e-06
5.00243e-05
1.49119e-06
4.93643e-05
4.17224e-07
4.91054e-05
-1.5023e-06
4.94098e-05
-4.16939e-06
4.9454e-05
-7.6715e-06
4.92039e-05
-1.05179e-05
4.69333e-05
-1.2775e-05
4.51538e-05
-1.29566e-05
4.27923e-05
-1.01981e-05
4.22409e-05
5.34571e-05
8.85647e-06
4.45368e-05
1.10185e-05
4.0006e-05
1.10127e-05
4.27308e-05
9.41384e-06
4.66757e-05
6.61599e-06
4.97149e-05
2.15573e-06
5.36594e-05
-2.84642e-07
5.21195e-05
-1.51013e-06
5.0946e-05
-1.83952e-06
4.9692e-05
-1.74759e-06
4.94711e-05
-1.51834e-06
4.99319e-05
-1.22059e-06
5.07222e-05
-8.63375e-07
5.15332e-05
-4.7048e-07
5.21589e-05
-7.58814e-08
5.24875e-05
3.14031e-07
5.24758e-05
6.93442e-07
5.21236e-05
1.03262e-06
5.14734e-05
1.31103e-06
5.06318e-05
1.52328e-06
4.97915e-05
1.61901e-06
4.92471e-05
1.35161e-06
4.93506e-05
2.71246e-07
5.04679e-05
-2.01927e-06
5.17228e-05
-6.54177e-06
5.37061e-05
-9.38573e-06
4.9757e-05
-1.10273e-05
4.67754e-05
-1.10858e-05
4.28292e-05
-8.92496e-06
4.00565e-05
4.45115e-05
7.41587e-06
3.7099e-05
9.37437e-06
3.80252e-05
9.40713e-06
4.26776e-05
7.48824e-06
4.85758e-05
4.21112e-06
5.29722e-05
-5.64396e-07
5.84138e-05
-2.50964e-06
5.40425e-05
-2.18408e-06
5.05977e-05
-1.41641e-06
4.89018e-05
-7.90653e-07
4.88238e-05
-4.26217e-07
4.95474e-05
-2.40045e-07
5.05173e-05
-1.43773e-07
5.14195e-05
-9.00606e-08
5.20887e-05
-5.75763e-08
5.24391e-05
-2.95499e-08
5.24318e-05
1.0884e-08
5.20667e-05
8.5158e-08
5.13818e-05
2.39144e-07
5.04592e-05
5.58308e-07
4.94523e-05
1.13287e-06
4.86511e-05
1.88631e-06
4.85746e-05
2.33254e-06
4.99987e-05
5.76209e-07
5.34566e-05
-3.87819e-06
5.81387e-05
-7.3691e-06
5.32281e-05
-9.36479e-06
4.87524e-05
-9.38247e-06
4.28267e-05
-7.43356e-06
3.80855e-05
3.70562e-05
5.74017e-06
3.13345e-05
7.32169e-06
3.64204e-05
7.03558e-06
4.29426e-05
3.67678e-06
5.19141e-05
-1.62414e-06
5.82514e-05
-3.90634e-06
6.06732e-05
-3.22141e-06
5.33331e-05
-1.18756e-06
4.85395e-05
1.78324e-07
4.75129e-05
7.97672e-07
4.81833e-05
9.39538e-07
4.93861e-05
8.27313e-07
5.06118e-05
5.89276e-07
5.16411e-05
2.90489e-07
5.2372e-05
-3.45394e-08
5.27491e-05
-3.62823e-07
5.27451e-05
-6.71643e-07
5.23601e-05
-9.27546e-07
5.16213e-05
-1.06885e-06
5.05829e-05
-9.7587e-07
4.93401e-05
-4.37798e-07
4.80919e-05
8.16296e-07
4.72975e-05
2.78451e-06
4.80061e-05
3.70342e-06
5.25129e-05
2.08859e-06
5.97306e-05
-3.41935e-06
5.87143e-05
-6.91035e-06
5.2223e-05
-7.27378e-06
4.31691e-05
-5.71648e-06
3.65051e-05
3.13154e-05
3.41392e-06
2.78932e-05
4.32143e-06
3.54873e-05
2.47897e-06
4.47605e-05
-3.3321e-06
5.77005e-05
-7.88054e-06
6.27757e-05
-4.43747e-06
5.72056e-05
-5.50369e-07
4.942e-05
1.68362e-06
4.62807e-05
2.48329e-06
4.6691e-05
2.54218e-06
4.81045e-05
2.24204e-06
4.96684e-05
1.76742e-06
5.10701e-05
1.20712e-06
5.21863e-05
6.06082e-07
5.29588e-05
-1.12218e-08
5.33526e-05
-6.30388e-07
5.33504e-05
-1.23738e-06
5.29529e-05
-1.80845e-06
5.21774e-05
-2.30078e-06
5.1059e-05
-2.63171e-06
4.96532e-05
-2.63173e-06
4.80722e-05
-1.95114e-06
4.65949e-05
4.18521e-08
4.59884e-05
3.84325e-06
4.86854e-05
7.69464e-06
5.58546e-05
3.81062e-06
6.2574e-05
-2.13357e-06
5.81426e-05
-4.18171e-06
4.51927e-05
-3.37977e-06
3.56776e-05
2.79083e-05
1.67338e-06
2.61884e-05
-6.7743e-07
3.78088e-05
-5.7318e-06
4.97851e-05
-9.62244e-06
6.15634e-05
-7.58075e-06
6.07072e-05
-3.34919e-07
4.99331e-05
3.51179e-06
4.55474e-05
4.48938e-06
4.52803e-05
4.39482e-06
4.67655e-05
3.88797e-06
4.85935e-05
3.20134e-06
5.03389e-05
2.43395e-06
5.18228e-05
1.63252e-06
5.2974e-05
8.21273e-07
5.3757e-05
9.59439e-09
5.41516e-05
-8.02972e-07
5.41503e-05
-1.61698e-06
5.37539e-05
-2.4235e-06
5.29702e-05
-3.19919e-06
5.182e-05
-3.90016e-06
5.03382e-05
-4.43589e-06
4.85902e-05
-4.59778e-06
4.67369e-05
-3.80014e-06
4.51682e-05
-3.04362e-07
4.5164e-05
6.61877e-06
4.89047e-05
9.83325e-06
5.9333e-05
6.14003e-06
6.18081e-05
1.02473e-06
5.02781e-05
-1.60998e-06
3.82829e-05
2.62669e-05
-4.24846e-07
2.65784e-05
-6.56345e-06
4.39129e-05
-1.12496e-05
5.44396e-05
-9.39622e-06
5.96816e-05
-7.0403e-07
5.19867e-05
4.98942e-06
4.42128e-05
6.50246e-06
4.40116e-05
6.30166e-06
4.54615e-05
5.59755e-06
4.74522e-05
4.70738e-06
4.9468e-05
3.75315e-06
5.12788e-05
2.78834e-06
5.27743e-05
1.84136e-06
5.39085e-05
9.23719e-07
5.46626e-05
2.75165e-08
5.5036e-05
-8.68871e-07
5.5035e-05
-1.78714e-06
5.46602e-05
-2.73545e-06
5.39062e-05
-3.70264e-06
5.27741e-05
-4.66126e-06
5.12827e-05
-5.56038e-06
4.94738e-05
-6.28854e-06
4.74478e-05
-6.55683e-06
4.54171e-05
-5.25716e-06
4.38419e-05
-2.13437e-07
4.38344e-05
8.58223e-06
5.0509e-05
1.12327e-05
5.91291e-05
6.73778e-06
5.47414e-05
5.16856e-07
4.4469e-05
2.67487e-05
-4.49705e-06
3.10388e-05
-9.87754e-06
4.92603e-05
-9.94202e-06
5.44738e-05
-1.66681e-06
5.13774e-05
6.617e-06
4.36762e-05
8.20086e-06
4.26065e-05
8.06199e-06
4.41319e-05
7.23407e-06
4.6273e-05
6.19042e-06
4.8481e-05
5.05948e-06
5.05853e-05
3.91917e-06
5.24065e-05
2.82494e-06
5.38566e-05
1.81806e-06
5.49038e-05
9.02321e-07
5.5567e-05
4.32296e-08
5.58838e-05
-8.1559e-07
5.58825e-05
-1.73057e-06
5.55639e-05
-2.73647e-06
5.49006e-05
-3.82975e-06
5.38555e-05
-4.96933e-06
5.24097e-05
-6.10093e-06
5.05919e-05
-7.15083e-06
4.84829e-05
-8.00258e-06
4.62525e-05
-8.24543e-06
4.40663e-05
-6.85132e-06
4.24182e-05
5.94713e-07
4.30362e-05
9.26283e-06
5.04317e-05
9.87745e-06
5.40962e-05
4.79379e-06
4.95195e-05
3.15056e-05
-7.66818e-06
3.86722e-05
-9.14544e-06
5.07066e-05
-1.83098e-06
4.71305e-05
7.16096e-06
4.23594e-05
9.54943e-06
4.12669e-05
9.47689e-06
4.26621e-05
8.6572e-06
4.49368e-05
7.55691e-06
4.73597e-05
6.30181e-06
4.97236e-05
4.97976e-06
5.18958e-05
3.68209e-06
5.3693e-05
2.50713e-06
5.50206e-05
1.53159e-06
5.58683e-05
7.40803e-07
5.63467e-05
5.7482e-08
5.65559e-05
-6.25194e-07
5.6554e-05
-1.41416e-06
5.63417e-05
-2.38718e-06
5.58626e-05
-3.55942e-06
5.50169e-05
-4.85505e-06
5.36943e-05
-6.17661e-06
5.19019e-05
-7.43461e-06
4.97284e-05
-8.54443e-06
4.73487e-05
-9.39453e-06
4.49015e-05
-9.57187e-06
4.25786e-05
-7.57883e-06
4.10225e-05
9.55123e-07
4.18718e-05
8.57536e-06
4.6447e-05
7.7252e-06
5.03384e-05
3.91959e-05
-6.52536e-06
4.51669e-05
-3.594e-07
4.45123e-05
7.06919e-06
3.96773e-05
9.94608e-06
3.94635e-05
1.03176e-05
4.08804e-05
9.69329e-06
4.32734e-05
8.69989e-06
4.59182e-05
7.45748e-06
4.85911e-05
5.99052e-06
5.11804e-05
4.39998e-06
5.34767e-05
2.90862e-06
5.51746e-05
1.70489e-06
5.6214e-05
8.95502e-07
5.66668e-05
3.99083e-07
5.68316e-05
7.02928e-08
5.6873e-05
-2.57267e-07
5.68699e-05
-7.50207e-07
5.68233e-05
-1.55501e-06
5.66566e-05
-2.75366e-06
5.62053e-05
-4.24384e-06
5.51748e-05
-5.83629e-06
5.34848e-05
-7.30863e-06
5.11907e-05
-8.55969e-06
4.85887e-05
-9.56168e-06
4.58914e-05
-1.02217e-05
4.32254e-05
-9.99939e-06
4.07851e-05
-7.39958e-06
3.92532e-05
-2.99751e-07
3.93226e-05
6.03857e-06
4.39715e-05
4.52038e-05
7.52414e-07
4.43911e-05
6.91794e-06
3.83252e-05
9.42741e-06
3.71505e-05
1.03015e-05
3.85761e-05
1.01107e-05
4.10596e-05
9.45614e-06
4.39174e-05
8.44373e-06
4.69211e-05
7.00388e-06
5.00226e-05
5.19327e-06
5.29833e-05
3.09784e-06
5.55645e-05
1.38913e-06
5.68746e-05
2.91873e-07
5.73011e-05
-1.3625e-07
5.70835e-05
-1.30827e-07
5.6814e-05
7.93461e-08
5.66503e-05
2.91924e-07
5.66448e-05
3.04625e-07
5.67984e-05
-1.13588e-07
5.70635e-05
-1.19798e-06
5.72796e-05
-2.90566e-06
5.68738e-05
-5.00696e-06
5.55785e-05
-6.83022e-06
5.30062e-05
-8.28542e-06
5.00354e-05
-9.30999e-06
4.69062e-05
-9.97314e-06
4.38776e-05
-1.02082e-05
4.10082e-05
-9.45741e-06
3.84889e-05
-7.14353e-06
3.69916e-05
-1.23593e-06
3.80427e-05
4.39447e-05
4.94972e-06
3.94263e-05
8.0772e-06
3.51832e-05
9.41214e-06
3.5803e-05
9.75771e-06
3.82193e-05
9.628e-06
4.1179e-05
9.08307e-06
4.44533e-05
7.98549e-06
4.80112e-05
6.16722e-06
5.18345e-05
3.7519e-06
5.53926e-05
7.21547e-07
5.85883e-05
-1.04943e-06
5.86368e-05
-1.69739e-06
5.79383e-05
-1.43936e-06
5.68131e-05
-7.55679e-07
5.6117e-05
7.99907e-08
5.58009e-05
9.19745e-07
5.57913e-05
1.61678e-06
5.60881e-05
1.89682e-06
5.6771e-05
1.27939e-06
5.78863e-05
-4.88864e-07
5.86333e-05
-3.51731e-06
5.86003e-05
-5.96411e-06
5.54469e-05
-7.81541e-06
5.18803e-05
-8.93045e-06
4.80136e-05
-9.48413e-06
4.4422e-05
-9.61753e-06
4.1131e-05
-9.29863e-06
3.81585e-05
-8.03961e-06
3.57199e-05
-5.01383e-06
3.50025e-05
3.89159e-05
5.30582e-06
3.4109e-05
7.56072e-06
3.29158e-05
8.54624e-06
3.48054e-05
9.03928e-06
3.7715e-05
9.13946e-06
4.10691e-05
8.63483e-06
4.495e-05
7.22728e-06
4.94123e-05
4.60556e-06
5.44502e-05
1.16215e-06
5.8829e-05
-2.88677e-06
6.26292e-05
-4.2361e-06
5.99756e-05
-3.81125e-06
5.75007e-05
-2.60784e-06
5.55955e-05
-1.25666e-06
5.47511e-05
6.96875e-08
5.44596e-05
1.40035e-06
5.44457e-05
2.76706e-06
5.47066e-05
4.00645e-06
5.55175e-05
4.48364e-06
5.73963e-05
3.15443e-06
5.99518e-05
-8.26914e-07
6.25734e-05
-4.34237e-06
5.89551e-05
-7.04295e-06
5.45746e-05
-8.48136e-06
4.94452e-05
-8.99769e-06
4.493e-05
-8.90158e-06
4.10247e-05
-8.40291e-06
3.76483e-05
-7.42676e-06
3.47314e-05
-5.21763e-06
3.27807e-05
3.36866e-05
4.49567e-06
2.96001e-05
6.44697e-06
3.09504e-05
7.56932e-06
3.36694e-05
8.37903e-06
3.68931e-05
8.59043e-06
4.08475e-05
7.77552e-06
4.57566e-05
5.2549e-06
5.19247e-05
1.1701e-06
5.8525e-05
-3.51413e-06
6.35012e-05
-6.96882e-06
6.60712e-05
-7.00342e-06
5.99959e-05
-5.05517e-06
5.55365e-05
-3.0837e-06
5.36076e-05
-1.41617e-06
5.30671e-05
5.19641e-08
5.29751e-05
1.52086e-06
5.29604e-05
3.19368e-06
5.30173e-05
5.18979e-06
5.35049e-05
7.2026e-06
5.53674e-05
7.31454e-06
5.98254e-05
4.02416e-06
6.58509e-05
-8.01882e-07
6.37689e-05
-5.00483e-06
5.87671e-05
-7.5931e-06
5.2025e-05
-8.44202e-06
4.57703e-05
-8.24496e-06
4.08171e-05
-7.43348e-06
3.68242e-05
-6.29851e-06
3.35825e-05
-4.35474e-06
3.08224e-05
2.93181e-05
3.35628e-06
2.62267e-05
5.31871e-06
2.89711e-05
6.74779e-06
3.22245e-05
7.68179e-06
3.59452e-05
7.62408e-06
4.08933e-05
5.20354e-06
4.81655e-05
4.60762e-07
5.66532e-05
-5.25254e-06
6.42216e-05
-1.03184e-05
6.85502e-05
-9.97346e-06
6.57085e-05
-7.41774e-06
5.74211e-05
-4.6139e-06
5.27136e-05
-2.61711e-06
5.15923e-05
-1.16773e-06
5.16e-05
3.60871e-08
5.1754e-05
1.23461e-06
5.17447e-05
2.66823e-06
5.1566e-05
4.64218e-06
5.15124e-05
7.45308e-06
5.25374e-05
1.01789e-05
5.70805e-05
1.07839e-05
6.52281e-05
5.81601e-06
6.87197e-05
-6.47656e-08
6.46311e-05
-4.90012e-06
5.68455e-05
-7.41614e-06
4.82742e-05
-7.53749e-06
4.09262e-05
-6.62718e-06
3.58996e-05
-5.19895e-06
3.2138e-05
-3.25336e-06
2.88596e-05
2.60472e-05
2.52628e-06
2.36793e-05
4.43892e-06
2.70383e-05
6.0161e-06
3.06287e-05
6.58253e-06
3.53621e-05
4.77799e-06
4.26814e-05
-1.04098e-06
5.39651e-05
-8.25899e-06
6.38501e-05
-1.35461e-05
6.94887e-05
-1.41348e-05
6.91187e-05
-8.9361e-06
6.04889e-05
-5.05442e-06
5.35172e-05
-2.77752e-06
5.04156e-05
-1.48766e-06
5.0283e-05
-6.43642e-07
5.07377e-05
3.12458e-08
5.10615e-05
6.98563e-07
5.10597e-05
1.5176e-06
5.07287e-05
2.76086e-06
5.02498e-05
4.98486e-06
5.02924e-05
8.91185e-06
5.31313e-05
1.42089e-05
5.991e-05
1.40553e-05
6.88532e-05
8.99774e-06
6.96686e-05
1.63915e-06
6.41831e-05
-4.41431e-06
5.43081e-05
-6.40407e-06
4.28991e-05
-5.90791e-06
3.53865e-05
-4.36131e-06
3.05725e-05
-2.46851e-06
2.69463e-05
2.35572e-05
1.99285e-06
2.16617e-05
3.77523e-06
2.52325e-05
4.85221e-06
2.95299e-05
3.54328e-06
3.66496e-05
-2.93999e-06
4.91407e-05
-1.08714e-05
6.18705e-05
-1.59759e-05
6.89309e-05
-1.67064e-05
7.01973e-05
-1.14896e-05
6.38797e-05
-4.92769e-06
5.39038e-05
-1.64413e-06
5.02108e-05
-5.83505e-07
4.93341e-05
-2.10581e-07
4.98909e-05
-5.21103e-08
5.05613e-05
3.87411e-08
5.09533e-05
1.23401e-07
5.09578e-05
2.61187e-07
5.05731e-05
5.91212e-07
4.99007e-05
1.56079e-06
4.93021e-05
4.67074e-06
4.99987e-05
1.11327e-05
5.34247e-05
1.68795e-05
6.30843e-05
1.65942e-05
6.99321e-05
1.16106e-05
6.91432e-05
3.53903e-06
6.23538e-05
-3.22052e-06
4.96346e-05
-4.74602e-06
3.68904e-05
-3.72454e-06
2.95289e-05
-1.95959e-06
2.51577e-05
2.15727e-05
1.63358e-06
2.00004e-05
2.8554e-06
2.39841e-05
2.29326e-06
3.00655e-05
-4.53162e-06
4.34466e-05
-1.33424e-05
5.79227e-05
-1.76415e-05
6.61441e-05
-1.77856e-05
6.90512e-05
-1.33001e-05
6.56883e-05
-4.69678e-06
5.52523e-05
-2.04672e-07
4.93882e-05
1.16543e-06
4.88195e-05
1.16851e-06
4.93117e-05
8.48905e-07
5.01925e-05
4.58306e-07
5.09349e-05
5.53331e-08
5.13397e-05
-3.52105e-07
5.13487e-05
-7.56985e-07
5.0961e-05
-1.10424e-06
5.02302e-05
-1.16226e-06
4.9341e-05
3.59485e-08
4.87795e-05
4.17352e-06
4.92638e-05
1.2849e-05
5.43848e-05
1.80426e-05
6.4715e-05
1.80518e-05
6.91103e-05
1.3952e-05
6.64283e-05
5.12634e-06
5.84318e-05
-2.08145e-06
4.40702e-05
-2.7899e-06
3.02108e-05
-1.61231e-06
2.39534e-05
1.99324e-05
9.81998e-07
1.89879e-05
6.59002e-07
2.4277e-05
-4.7898e-06
3.54827e-05
-1.43985e-05
5.30241e-05
-1.88674e-05
6.23643e-05
-1.89433e-05
6.61951e-05
-1.40792e-05
6.41626e-05
-4.42108e-06
5.60051e-05
1.82179e-06
4.89856e-05
3.04771e-06
4.81412e-05
2.96522e-06
4.88834e-05
2.33344e-06
4.99261e-05
1.58003e-06
5.09295e-05
8.23209e-07
5.16758e-05
7.74354e-08
5.20699e-05
-6.72536e-07
5.20831e-05
-1.44157e-06
5.17142e-05
-2.21642e-06
5.09887e-05
-2.88821e-06
4.99956e-05
-3.06983e-06
4.89428e-05
-1.99753e-06
4.81709e-05
3.62433e-06
4.87394e-05
1.3398e-05
5.49163e-05
1.89859e-05
6.34978e-05
1.90991e-05
6.62901e-05
1.4932e-05
6.25717e-05
5.34581e-06
5.36253e-05
-5.32831e-07
3.60576e-05
-9.46165e-07
2.43364e-05
1.89556e-05
-5.59089e-07
1.95141e-05
-5.57783e-06
2.92635e-05
-1.35921e-05
4.34638e-05
-1.86271e-05
5.80303e-05
-1.89391e-05
6.26502e-05
-1.36488e-05
6.08793e-05
-3.42176e-06
5.39099e-05
3.88323e-06
4.86767e-05
5.1528e-06
4.76961e-05
4.79604e-06
4.84806e-05
3.96582e-06
4.96974e-05
2.97726e-06
5.08991e-05
1.98259e-06
5.1909e-05
1.02861e-06
5.26149e-05
1.03351e-07
5.29805e-05
-8.26637e-07
5.29984e-05
-1.79417e-06
5.2667e-05
-2.81058e-06
5.19901e-05
-3.82951e-06
5.09991e-05
-4.70718e-06
4.98044e-05
-5.13632e-06
4.85829e-05
-4.10592e-06
4.76895e-05
2.41975e-06
4.83676e-05
1.28116e-05
5.30802e-05
1.88045e-05
6.02717e-05
1.87093e-05
6.26409e-05
1.41515e-05
5.81543e-05
6.17547e-06
4.40004e-05
6.56685e-07
2.98228e-05
1.95793e-05
-2.60733e-06
2.20869e-05
-1.18405e-05
3.84631e-05
-1.6705e-05
4.82989e-05
-1.73716e-05
5.86706e-05
-1.14163e-05
5.66688e-05
-1.26018e-06
5.06974e-05
5.41562e-06
4.72117e-05
6.9355e-06
4.71389e-05
6.49039e-06
4.81259e-05
5.48935e-06
4.94673e-05
4.32972e-06
5.08429e-05
3.15718e-06
5.20575e-05
2.06688e-06
5.29852e-05
1.07189e-06
5.35958e-05
1.33017e-07
5.39053e-05
-8.10769e-07
5.39281e-05
-1.82112e-06
5.36633e-05
-2.9374e-06
5.30923e-05
-4.14623e-06
5.2194e-05
-5.34764e-06
5.09919e-05
-6.3933e-06
4.96143e-05
-6.95327e-06
4.82344e-05
-5.72361e-06
4.71204e-05
2.9669e-07
4.70379e-05
1.05344e-05
5.00081e-05
1.70884e-05
5.60606e-05
1.67224e-05
5.84941e-05
1.21343e-05
4.85591e-05
2.73169e-06
3.9192e-05
2.22763e-05
-6.48185e-06
2.85351e-05
-1.35608e-05
4.55115e-05
-1.45058e-05
4.92166e-05
-8.22075e-06
5.23597e-05
1.33231e-06
4.70904e-05
6.75973e-06
4.52488e-05
8.0762e-06
4.58793e-05
7.74656e-06
4.74555e-05
6.72958e-06
4.91307e-05
5.45088e-06
5.07336e-05
4.11381e-06
5.21673e-05
2.87693e-06
5.32813e-05
1.8275e-06
5.40211e-05
9.48686e-07
5.44609e-05
1.66142e-07
5.46739e-05
-6.19175e-07
5.46996e-05
-1.51061e-06
5.4541e-05
-2.58893e-06
5.41572e-05
-3.87685e-06
5.34689e-05
-5.27198e-06
5.23745e-05
-6.6107e-06
5.0941e-05
-7.6976e-06
4.93092e-05
-8.16802e-06
4.7578e-05
-7.04508e-06
4.58995e-05
-2.16395e-06
4.51063e-05
7.34674e-06
4.65247e-05
1.40824e-05
5.17324e-05
1.35763e-05
4.90379e-05
6.81358e-06
4.59242e-05
2.90563e-05
-9.54419e-06
3.8048e-05
-1.00856e-05
4.60253e-05
-5.20509e-06
4.43098e-05
3.40646e-06
4.37238e-05
7.71299e-06
4.27642e-05
8.88942e-06
4.40581e-05
8.54911e-06
4.62084e-05
7.60177e-06
4.83928e-05
6.27965e-06
5.04427e-05
4.74489e-06
5.22577e-05
3.26975e-06
5.36307e-05
2.07563e-06
5.44628e-05
1.22434e-06
5.4859e-05
6.37911e-07
5.50334e-05
1.93371e-07
5.51043e-05
-2.44944e-07
5.51237e-05
-8.24347e-07
5.51065e-05
-1.68647e-06
5.50059e-05
-2.94056e-06
5.47104e-05
-4.50009e-06
5.39225e-05