/*--------------------------------*- C++ -*----------------------------------*\
| =========                 |                                                 |
| \\      /  F ield         | OpenFOAM: The Open Source CFD Toolbox           |
|  \\    /   O peration     | Version:  v1606+                                |
|   \\  /    A nd           | Web:      www.OpenFOAM.com                      |
|    \\/     M anipulation  |                                                 |
\*---------------------------------------------------------------------------*/
FoamFile
{
    version     2.0;
    format      ascii;
    class       volVectorField;
    location    "0.19";
    object      Ur;
}
// * * * * * * * * * * * * * * * * * * * * * * * * * * * * * * * * * * * * * //

dimensions      [0 1 -1 0 0 0 0];

internalField   nonuniform List<vector> 
6000
(
(0.00719731 -0.603809 0)
(0.00281583 -0.596383 0)
(0.0125832 -0.600758 0)
(0.0236788 -0.597574 0)
(0.0313312 -0.595936 0)
(0.0404813 -0.594834 0)
(0.0477367 -0.594967 0)
(0.051597 -0.600083 0)
(0.0536547 -0.60541 0)
(0.0537937 -0.608386 0)
(0.0500734 -0.610002 0)
(0.0425076 -0.611999 0)
(0.0321273 -0.61373 0)
(0.0195825 -0.615092 0)
(0.00654394 -0.616433 0)
(-0.00650222 -0.616012 0)
(-0.0198493 -0.61468 0)
(-0.0323798 -0.613122 0)
(-0.0427266 -0.611502 0)
(-0.0496576 -0.609707 0)
(-0.0531758 -0.608119 0)
(-0.0537082 -0.605135 0)
(-0.052378 -0.599073 0)
(-0.0483785 -0.594968 0)
(-0.0409144 -0.59465 0)
(-0.0322694 -0.595459 0)
(-0.0248342 -0.597445 0)
(-0.0138681 -0.600658 0)
(-0.00274676 -0.597629 0)
(-0.00630159 -0.604026 0)
(0.00769744 -0.972021 0)
(0.0148393 -0.955661 0)
(0.0266106 -0.96288 0)
(0.0434397 -0.948292 0)
(0.0552139 -0.943881 0)
(0.0646522 -0.937672 0)
(0.0697456 -0.929831 0)
(0.0725889 -0.924932 0)
(0.0728797 -0.922458 0)
(0.0699272 -0.918432 0)
(0.0636425 -0.914118 0)
(0.05366 -0.910365 0)
(0.0406413 -0.906758 0)
(0.0255737 -0.904817 0)
(0.00852123 -0.903891 0)
(-0.00942247 -0.904131 0)
(-0.0262664 -0.90473 0)
(-0.0413561 -0.907161 0)
(-0.054351 -0.910229 0)
(-0.0644519 -0.914038 0)
(-0.0707299 -0.919066 0)
(-0.0734765 -0.923136 0)
(-0.0727594 -0.925131 0)
(-0.0700998 -0.930892 0)
(-0.0654584 -0.937528 0)
(-0.0563095 -0.943859 0)
(-0.0448317 -0.948934 0)
(-0.0283443 -0.963418 0)
(-0.0167166 -0.958599 0)
(-0.00853552 -0.974496 0)
(0.00913116 -0.992629 0)
(0.0158155 -0.996011 0)
(0.0365689 -1.02531 0)
(0.0635534 -0.999054 0)
(0.0756832 -0.986254 0)
(0.082263 -0.96029 0)
(0.076198 -0.931449 0)
(0.0702723 -0.908617 0)
(0.0689221 -0.888708 0)
(0.0671664 -0.86877 0)
(0.0617694 -0.849693 0)
(0.0522151 -0.833771 0)
(0.0392768 -0.822362 0)
(0.0242173 -0.815695 0)
(0.00786528 -0.812591 0)
(-0.0088662 -0.812786 0)
(-0.0249826 -0.815912 0)
(-0.0399339 -0.822933 0)
(-0.0527757 -0.834446 0)
(-0.0624583 -0.85056 0)
(-0.0677072 -0.869764 0)
(-0.0693502 -0.889422 0)
(-0.0710961 -0.909696 0)
(-0.0778979 -0.933312 0)
(-0.0845756 -0.961768 0)
(-0.0777167 -0.988051 0)
(-0.0650501 -1.00125 0)
(-0.0378061 -1.0269 0)
(-0.0167985 -0.99891 0)
(-0.00947754 -0.994338 0)
(0.00349098 -1.10492 0)
(0.0112113 -1.10245 0)
(0.0374723 -1.16616 0)
(0.0644358 -1.12627 0)
(0.0777527 -1.1205 0)
(0.089912 -1.09787 0)
(0.101477 -1.07882 0)
(0.105939 -1.06922 0)
(0.10299 -1.06032 0)
(0.100125 -1.04353 0)
(0.0906743 -1.0222 0)
(0.0738897 -1.00295 0)
(0.0530839 -0.988824 0)
(0.0316399 -0.980318 0)
(0.0101149 -0.976297 0)
(-0.0115144 -0.976593 0)
(-0.0328301 -0.980464 0)
(-0.0543289 -0.989432 0)
(-0.0750231 -1.00401 0)
(-0.0916507 -1.0235 0)
(-0.100513 -1.04469 0)
(-0.103582 -1.06047 0)
(-0.107189 -1.0698 0)
(-0.101912 -1.07913 0)
(-0.090443 -1.09791 0)
(-0.0792424 -1.12072 0)
(-0.0660231 -1.12702 0)
(-0.0393016 -1.16604 0)
(-0.0127676 -1.10491 0)
(-0.00398498 -1.10554 0)
(0.0215046 -1.21569 0)
(0.0648405 -1.2116 0)
(0.0928215 -1.28996 0)
(0.0950662 -1.23891 0)
(0.0904002 -1.2212 0)
(0.0839458 -1.19244 0)
(0.0844376 -1.1659 0)
(0.0709234 -1.1162 0)
(0.0673157 -1.09405 0)
(0.0761268 -1.0692 0)
(0.0706139 -1.04682 0)
(0.0580693 -1.03151 0)
(0.0423043 -1.02133 0)
(0.0256127 -1.01632 0)
(0.00830862 -1.01263 0)
(-0.0094109 -1.01319 0)
(-0.0266595 -1.01608 0)
(-0.0433751 -1.02168 0)
(-0.0590026 -1.03227 0)
(-0.0713156 -1.04785 0)
(-0.0762489 -1.07065 0)
(-0.0682848 -1.09429 0)
(-0.0731798 -1.11794 0)
(-0.0860568 -1.16882 0)
(-0.0852429 -1.19249 0)
(-0.0927953 -1.22172 0)
(-0.0995761 -1.23995 0)
(-0.0989752 -1.29092 0)
(-0.0707193 -1.21785 0)
(-0.0241058 -1.21809 0)
(0.0446044 -1.17149 0)
(0.114711 -1.10744 0)
(0.128664 -1.10153 0)
(0.0968805 -1.06045 0)
(0.0628149 -1.05733 0)
(0.0315757 -1.06998 0)
(0.0109699 -1.08701 0)
(0.00113907 -1.09183 0)
(0.00502747 -1.19157 0)
(0.0120478 -1.17835 0)
(0.0170998 -1.15715 0)
(0.0196917 -1.14194 0)
(0.0187108 -1.12534 0)
(0.0134027 -1.11425 0)
(0.0047447 -1.10583 0)
(-0.00515199 -1.10635 0)
(-0.0137827 -1.11423 0)
(-0.0188351 -1.12611 0)
(-0.0196635 -1.14315 0)
(-0.0169902 -1.15845 0)
(-0.0120925 -1.17891 0)
(-0.00623853 -1.18581 0)
(-0.00358068 -1.09046 0)
(-0.0141875 -1.0859 0)
(-0.0333989 -1.06802 0)
(-0.0641562 -1.05238 0)
(-0.101728 -1.05509 0)
(-0.136222 -1.09735 0)
(-0.123201 -1.11071 0)
(-0.0494394 -1.18127 0)
(0.0452722 -1.12401 0)
(0.11301 -1.04583 0)
(0.126473 -0.975882 0)
(0.0974401 -0.918841 0)
(0.0603249 -0.904944 0)
(0.0199304 -0.911786 0)
(-0.00985498 -0.923652 0)
(-0.0138105 -0.93117 0)
(-0.0218064 -0.955355 0)
(-0.0385125 -0.962362 0)
(-0.0394933 -0.969006 0)
(-0.0324712 -0.974939 0)
(-0.0224238 -0.979487 0)
(-0.012858 -0.981843 0)
(-0.00399972 -0.982131 0)
(0.00492047 -0.982172 0)
(0.0137565 -0.981393 0)
(0.0233337 -0.979078 0)
(0.0329388 -0.974297 0)
(0.0392507 -0.968126 0)
(0.0362146 -0.961028 0)
(0.0198749 -0.952229 0)
(0.0122002 -0.929685 0)
(0.00450398 -0.923609 0)
(-0.0213339 -0.916945 0)
(-0.0584315 -0.900216 0)
(-0.099871 -0.912491 0)
(-0.131371 -0.971994 0)
(-0.118185 -1.05096 0)
(-0.0482584 -1.13836 0)
(0.0481995 -1.15482 0)
(0.111055 -1.04747 0)
(0.113606 -0.922751 0)
(0.0936565 -0.839587 0)
(0.0727323 -0.817906 0)
(0.0292474 -0.828663 0)
(-0.0132399 -0.863173 0)
(-0.0268669 -0.882543 0)
(-0.0338758 -0.899521 0)
(-0.0387155 -0.905658 0)
(-0.0365378 -0.906265 0)
(-0.0313854 -0.904129 0)
(-0.0241095 -0.902152 0)
(-0.015054 -0.900365 0)
(-0.004839 -0.899172 0)
(0.00605341 -0.899097 0)
(0.0162077 -0.900326 0)
(0.0251247 -0.90188 0)
(0.0320102 -0.903898 0)
(0.0367585 -0.905518 0)
(0.0377995 -0.904233 0)
(0.0322293 -0.895674 0)
(0.0231225 -0.87823 0)
(-0.000142892 -0.857312 0)
(-0.0307192 -0.83205 0)
(-0.0627211 -0.807212 0)
(-0.093514 -0.829274 0)
(-0.11603 -0.917499 0)
(-0.113906 -1.05348 0)
(-0.0495651 -1.16799 0)
(0.0564673 -1.17721 0)
(0.109905 -1.02601 0)
(0.122836 -0.852872 0)
(0.12374 -0.816504 0)
(0.0759766 -0.778497 0)
(0.0250902 -0.726497 0)
(-0.00307224 -0.784281 0)
(-0.0232176 -0.827429 0)
(-0.0427828 -0.857201 0)
(-0.0471019 -0.872629 0)
(-0.0411034 -0.878348 0)
(-0.0330272 -0.882794 0)
(-0.0241317 -0.884919 0)
(-0.0144054 -0.885509 0)
(-0.00441949 -0.885228 0)
(0.00574973 -0.885249 0)
(0.0157021 -0.885274 0)
(0.0253967 -0.88469 0)
(0.0341738 -0.88218 0)
(0.0422061 -0.877126 0)
(0.0479624 -0.87043 0)
(0.0437227 -0.852689 0)
(0.0236887 -0.820164 0)
(0.00319032 -0.775907 0)
(-0.0294633 -0.799355 0)
(-0.0796397 -0.764578 0)
(-0.127504 -0.802684 0)
(-0.125392 -0.84716 0)
(-0.111668 -1.03192 0)
(-0.05739 -1.19291 0)
(0.0665224 -1.20549 0)
(0.12303 -1.00346 0)
(0.157607 -0.875331 0)
(0.141104 -0.706798 0)
(0.0741809 -0.656807 0)
(0.0251475 -0.677871 0)
(-0.00517676 -0.758557 0)
(-0.02105 -0.75402 0)
(-0.0358405 -0.798487 0)
(-0.0481273 -0.834139 0)
(-0.0444655 -0.847112 0)
(-0.037767 -0.850647 0)
(-0.0272877 -0.855419 0)
(-0.0158081 -0.857989 0)
(-0.00474455 -0.85902 0)
(0.00622501 -0.858934 0)
(0.0172856 -0.857834 0)
(0.0288417 -0.855107 0)
(0.0394235 -0.850077 0)
(0.0462989 -0.846146 0)
(0.0502088 -0.832321 0)
(0.0389581 -0.794808 0)
(0.0260585 -0.748706 0)
(0.0188657 -0.750434 0)
(-0.0255896 -0.680024 0)
(-0.0881131 -0.645236 0)
(-0.146809 -0.696449 0)
(-0.159931 -0.871836 0)
(-0.123332 -1.00993 0)
(-0.0669617 -1.22085 0)
(0.0714126 -1.2377 0)
(0.134855 -0.982457 0)
(0.150826 -0.813251 0)
(0.126823 -0.614515 0)
(0.0860076 -0.558738 0)
(0.0453234 -0.577981 0)
(0.000450853 -0.656394 0)
(-0.0306069 -0.735051 0)
(-0.0348118 -0.728819 0)
(-0.0306936 -0.778805 0)
(-0.0290635 -0.804841 0)
(-0.0351532 -0.818941 0)
(-0.0299489 -0.827596 0)
(-0.0182501 -0.830736 0)
(-0.00554109 -0.83205 0)
(0.00716647 -0.831998 0)
(0.0198747 -0.830577 0)
(0.0316465 -0.827341 0)
(0.0369336 -0.81843 0)
(0.0308906 -0.803996 0)
(0.0326987 -0.777527 0)
(0.0372294 -0.726632 0)
(0.0338951 -0.732073 0)
(0.00464566 -0.653479 0)
(-0.0453263 -0.579357 0)
(-0.0905227 -0.552426 0)
(-0.128961 -0.607776 0)
(-0.150679 -0.812281 0)
(-0.133462 -0.988248 0)
(-0.0713778 -1.25164 0)
(0.0631148 -1.26193 0)
(0.114639 -0.952894 0)
(0.119894 -0.754581 0)
(0.10466 -0.540564 0)
(0.0843907 -0.484602 0)
(0.0613239 -0.502638 0)
(0.0335679 -0.569053 0)
(-0.00193177 -0.647124 0)
(-0.0198676 -0.713896 0)
(-0.0215913 -0.778764 0)
(-0.0158233 -0.747009 0)
(-0.0178005 -0.771182 0)
(-0.0238329 -0.796035 0)
(-0.0166327 -0.806647 0)
(-0.00522816 -0.810051 0)
(0.0068892 -0.809983 0)
(0.0182474 -0.806473 0)
(0.0253866 -0.795792 0)
(0.0193243 -0.770764 0)
(0.0173614 -0.74637 0)
(0.0233453 -0.777537 0)
(0.0218236 -0.712 0)
(0.0041012 -0.644704 0)
(-0.0312944 -0.56602 0)
(-0.0607839 -0.499728 0)
(-0.0852174 -0.47857 0)
(-0.104294 -0.535489 0)
(-0.117323 -0.755303 0)
(-0.111548 -0.958167 0)
(-0.0636837 -1.27462 0)
(0.0263238 -1.25473 0)
(0.0613804 -0.897116 0)
(0.0758965 -0.690221 0)
(0.0699258 -0.482629 0)
(0.0709467 -0.432375 0)
(0.0694467 -0.45043 0)
(0.0640019 -0.506268 0)
(0.0500382 -0.57372 0)
(0.0313682 -0.634216 0)
(0.00420976 -0.696026 0)
(-0.0125896 -0.740283 0)
(-0.0111896 -0.70753 0)
(-0.0120844 -0.737278 0)
(-0.00897724 -0.753323 0)
(-0.00276401 -0.759123 0)
(0.0042273 -0.759035 0)
(0.0103521 -0.753148 0)
(0.0133504 -0.737081 0)
(0.0124656 -0.707278 0)
(0.0141214 -0.739914 0)
(-0.00247201 -0.695243 0)
(-0.0294752 -0.632586 0)
(-0.0482231 -0.57132 0)
(-0.0624534 -0.50295 0)
(-0.0685448 -0.446229 0)
(-0.0702295 -0.427174 0)
(-0.0679376 -0.47929 0)
(-0.0724402 -0.691892 0)
(-0.0569898 -0.899364 0)
(-0.0240173 -1.26558 0)
(-0.00734906 -1.19637 0)
(-0.00756472 -0.910773 0)
(0.00634385 -0.628868 0)
(0.0229027 -0.447376 0)
(0.048049 -0.406241 0)
(0.0705305 -0.424465 0)
(0.086984 -0.46887 0)
(0.0916868 -0.520672 0)
(0.0832448 -0.567739 0)
(0.0616374 -0.613991 0)
(0.0303857 -0.654609 0)
(0.0154952 -0.68669 0)
(0.0138548 -0.720645 0)
(0.00803147 -0.742576 0)
(0.00298115 -0.750633 0)
(-0.00150964 -0.750576 0)
(-0.00658236 -0.742313 0)
(-0.0123844 -0.720422 0)
(-0.0138841 -0.686493 0)
(-0.0285779 -0.654323 0)
(-0.0597343 -0.613134 0)
(-0.0813989 -0.565916 0)
(-0.090111 -0.518007 0)
(-0.0857126 -0.465478 0)
(-0.0694945 -0.420693 0)
(-0.0465726 -0.40217 0)
(-0.020106 -0.445522 0)
(-0.00274816 -0.631019 0)
(0.0121177 -0.916406 0)
(0.0112918 -1.20201 0)
(-0.0112979 -1.08002 0)
(-0.0574883 -0.813813 0)
(-0.0661858 -0.581784 0)
(-0.0253891 -0.437749 0)
(0.0225669 -0.405449 0)
(0.0673748 -0.419652 0)
(0.100004 -0.445892 0)
(0.114837 -0.476087 0)
(0.112817 -0.505778 0)
(0.0988382 -0.538803 0)
(0.0779739 -0.573466 0)
(0.0592212 -0.604796 0)
(0.0437193 -0.635955 0)
(0.0265856 -0.657347 0)
(0.00942099 -0.666529 0)
(-0.00784695 -0.666263 0)
(-0.0250509 -0.656841 0)
(-0.0422134 -0.635463 0)
(-0.0576731 -0.604387 0)
(-0.0763801 -0.572968 0)
(-0.0972176 -0.537855 0)
(-0.111185 -0.503939 0)
(-0.113325 -0.47337 0)
(-0.0987028 -0.442599 0)
(-0.0660998 -0.41615 0)
(-0.0206834 -0.402421 0)
(0.0282119 -0.436848 0)
(0.0693461 -0.583805 0)
(0.0597182 -0.818267 0)
(0.0122472 -1.08212 0)
(-0.031338 -1.01665 0)
(-0.0962668 -0.707987 0)
(-0.109245 -0.552902 0)
(-0.058928 -0.447212 0)
(0.00181662 -0.41963 0)
(0.055533 -0.419909 0)
(0.0898234 -0.4279 0)
(0.105785 -0.441242 0)
(0.107782 -0.459274 0)
(0.101 -0.48409 0)
(0.0883947 -0.513498 0)
(0.0725982 -0.544376 0)
(0.0545482 -0.573334 0)
(0.0339324 -0.59268 0)
(0.011859 -0.601496 0)
(-0.0106829 -0.601234 0)
(-0.0327673 -0.592153 0)
(-0.0534231 -0.572828 0)
(-0.0714783 -0.544069 0)
(-0.0872946 -0.51322 0)
(-0.0998844 -0.483591 0)
(-0.106468 -0.458184 0)
(-0.104219 -0.4392 0)
(-0.0881361 -0.425 0)
(-0.0538082 -0.41669 0)
(0.000227216 -0.417167 0)
(0.0612553 -0.446447 0)
(0.111208 -0.554019 0)
(0.0968597 -0.710587 0)
(0.0310128 -1.02015 0)
(-0.0454795 -0.872075 0)
(-0.111796 -0.625815 0)
(-0.11824 -0.540507 0)
(-0.0705762 -0.466456 0)
(-0.015937 -0.436704 0)
(0.0288789 -0.426036 0)
(0.0583687 -0.426088 0)
(0.076419 -0.432903 0)
(0.0852452 -0.445487 0)
(0.0870299 -0.464444 0)
(0.0821663 -0.486336 0)
(0.0711491 -0.509638 0)
(0.0548894 -0.53089 0)
(0.0344801 -0.545493 0)
(0.0118859 -0.551242 0)
(-0.0112425 -0.55112 0)
(-0.0338361 -0.54506 0)
(-0.0542589 -0.530558 0)
(-0.0705585 -0.509608 0)
(-0.0816423 -0.486463 0)
(-0.0865533 -0.464572 0)
(-0.084556 -0.445322 0)
(-0.0752667 -0.431837 0)
(-0.0567838 -0.424124 0)
(-0.027018 -0.423617 0)
(0.0178833 -0.434611 0)
(0.0723127 -0.465439 0)
(0.119292 -0.540471 0)
(0.111814 -0.627381 0)
(0.045185 -0.875235 0)
(-0.0405829 -0.782514 0)
(-0.0951404 -0.591736 0)
(-0.100819 -0.544705 0)
(-0.069551 -0.495263 0)
(-0.03406 -0.466294 0)
(-0.00113639 -0.456534 0)
(0.0290352 -0.453368 0)
(0.0532064 -0.455887 0)
(0.0693684 -0.463425 0)
(0.0771715 -0.477626 0)
(0.0767975 -0.49418 0)
(0.0687809 -0.511075 0)
(0.054068 -0.525287 0)
(0.0342061 -0.534307 0)
(0.0116971 -0.537761 0)
(-0.011436 -0.537642 0)
(-0.0339211 -0.534015 0)
(-0.0537825 -0.525117 0)
(-0.0685476 -0.511226 0)
(-0.0765572 -0.494515 0)
(-0.0768498 -0.477942 0)
(-0.0689102 -0.463429 0)
(-0.052633 -0.455045 0)
(-0.028346 -0.45207 0)
(0.00228425 -0.455416 0)
(0.0355741 -0.465135 0)
(0.0710594 -0.494528 0)
(0.101842 -0.544221 0)
(0.0952757 -0.592896 0)
(0.0404438 -0.785608 0)
(-0.0341759 -0.739017 0)
(-0.0761077 -0.592818 0)
(-0.0841412 -0.560252 0)
(-0.0739912 -0.531715 0)
(-0.0496604 -0.510591 0)
(-0.0127903 -0.506775 0)
(0.0230427 -0.493396 0)
(0.0478491 -0.486779 0)
(0.0640692 -0.486227 0)
(0.0716754 -0.49636 0)
(0.0720219 -0.510674 0)
(0.0654864 -0.525477 0)
(0.0521698 -0.53754 0)
(0.0332906 -0.545117 0)
(0.0113809 -0.548043 0)
(-0.011288 -0.547982 0)
(-0.0331155 -0.544965 0)
(-0.0518872 -0.537488 0)
(-0.0651211 -0.525668 0)
(-0.0715086 -0.511006 0)
(-0.0709847 -0.496587 0)
(-0.0634358 -0.485945 0)
(-0.0475799 -0.485346 0)
(-0.023327 -0.491773 0)
(0.0128004 -0.506686 0)
(0.05045 -0.510351 0)
(0.0752594 -0.531906 0)
(0.0855859 -0.560485 0)
(0.077049 -0.594344 0)
(0.0344571 -0.74213 0)
(-0.0279023 -0.713444 0)
(-0.0669873 -0.594781 0)
(-0.0804175 -0.572747 0)
(-0.0727039 -0.563888 0)
(-0.0473035 -0.551526 0)
(-0.00234893 -0.557564 0)
(0.0376775 -0.520774 0)
(0.0543843 -0.503554 0)
(0.0615292 -0.494912 0)
(0.0624748 -0.500688 0)
(0.0595391 -0.512978 0)
(0.0528093 -0.527116 0)
(0.0416689 -0.539359 0)
(0.0265639 -0.547827 0)
(0.00908569 -0.55212 0)
(-0.00907889 -0.552117 0)
(-0.0264395 -0.547842 0)
(-0.0413631 -0.539499 0)
(-0.052307 -0.527476 0)
(-0.0587725 -0.513462 0)
(-0.0613618 -0.500912 0)
(-0.0602771 -0.494371 0)
(-0.0535909 -0.501348 0)
(-0.0382389 -0.518191 0)
(0.00118033 -0.557838 0)
(0.0468561 -0.551614 0)
(0.0730749 -0.564948 0)
(0.0816439 -0.573995 0)
(0.0683512 -0.596681 0)
(0.0284378 -0.716218 0)
(-0.0270032 -0.673712 0)
(-0.066097 -0.581233 0)
(-0.0797635 -0.575187 0)
(-0.0635035 -0.585252 0)
(-0.0234912 -0.578796 0)
(0.024917 -0.591643 0)
(0.0563025 -0.531154 0)
(0.0611172 -0.50356 0)
(0.0557484 -0.491079 0)
(0.0489404 -0.49518 0)
(0.0426805 -0.506705 0)
(0.0360115 -0.519772 0)
(0.0276061 -0.531056 0)
(0.0173215 -0.539103 0)
(0.00583787 -0.543337 0)
(-0.00603523 -0.543369 0)
(-0.0174149 -0.539299 0)
(-0.0275161 -0.531456 0)
(-0.0356695 -0.520444 0)
(-0.0419448 -0.507568 0)
(-0.0475596 -0.495788 0)
(-0.0536817 -0.490631 0)
(-0.0590661 -0.500796 0)
(-0.0546433 -0.528203 0)
(-0.0267614 -0.59026 0)
(0.0199408 -0.580204 0)
(0.0624782 -0.586946 0)
(0.0800966 -0.577309 0)
(0.0669399 -0.583172 0)
(0.0274589 -0.675568 0)
(-0.0283891 -0.618345 0)
(-0.0686604 -0.56667 0)
(-0.0746545 -0.573748 0)
(-0.0365934 -0.606751 0)
(0.0264988 -0.598339 0)
(0.0592142 -0.586428 0)
(0.0612692 -0.5285 0)
(0.0536944 -0.4903 0)
(0.0389449 -0.481013 0)
(0.0286411 -0.489208 0)
(0.0232249 -0.502684 0)
(0.0193272 -0.515389 0)
(0.0148485 -0.525478 0)
(0.00931698 -0.532426 0)
(0.00302469 -0.535928 0)
(-0.00351304 -0.536051 0)
(-0.00973725 -0.532733 0)
(-0.0151424 -0.526049 0)
(-0.0194242 -0.516302 0)
(-0.0229483 -0.503947 0)
(-0.0275846 -0.490544 0)
(-0.0366858 -0.481379 0)
(-0.0506408 -0.487611 0)
(-0.0573603 -0.525868 0)
(-0.0592833 -0.579922 0)
(-0.0312432 -0.602425 0)
(0.0337348 -0.609038 0)
(0.0739649 -0.57663 0)
(0.0690515 -0.568734 0)
(0.0286708 -0.619365 0)
(-0.026813 -0.563202 0)
(-0.0605316 -0.5559 0)
(-0.0431068 -0.580015 0)
(0.0182017 -0.633716 0)
(0.0734804 -0.61078 0)
(0.0743789 -0.558081 0)
(0.0469684 -0.511752 0)
(0.0250296 -0.475435 0)
(0.00874274 -0.476179 0)
(0.00376766 -0.489917 0)
(0.00413374 -0.504433 0)
(0.00499512 -0.516167 0)
(0.00472709 -0.524756 0)
(0.00323872 -0.530439 0)
(0.000920966 -0.533396 0)
(-0.00169136 -0.533527 0)
(-0.0039827 -0.530776 0)
(-0.00542345 -0.525372 0)
(-0.00562164 -0.517146 0)
(-0.00459984 -0.505867 0)
(-0.00373015 -0.491719 0)
(-0.00736513 -0.477614 0)
(-0.0214522 -0.47433 0)
(-0.0432257 -0.50911 0)
(-0.0725349 -0.552175 0)
(-0.0760459 -0.612838 0)
(-0.0231313 -0.636495 0)
(0.0405689 -0.583817 0)
(0.0602795 -0.558485 0)
(0.0271621 -0.563965 0)
(-0.024671 -0.517562 0)
(-0.0283931 -0.559338 0)
(0.0262264 -0.598011 0)
(0.0732457 -0.647908 0)
(0.0836159 -0.605193 0)
(0.05633 -0.529284 0)
(0.0111665 -0.492666 0)
(-0.0166099 -0.47314 0)
(-0.0224746 -0.482606 0)
(-0.0170238 -0.497655 0)
(-0.0102098 -0.510673 0)
(-0.00508088 -0.520152 0)
(-0.00204139 -0.526659 0)
(-0.000688422 -0.530773 0)
(-0.000434877 -0.532729 0)
(-0.000570784 -0.532807 0)
(-0.000321923 -0.531097 0)
(0.00101834 -0.527243 0)
(0.00402545 -0.521069 0)
(0.00911361 -0.512036 0)
(0.0160121 -0.499521 0)
(0.022146 -0.484584 0)
(0.0186861 -0.47404 0)
(-0.00774186 -0.490859 0)
(-0.051343 -0.5258 0)
(-0.0821943 -0.59944 0)
(-0.0768372 -0.650038 0)
(-0.0292197 -0.601528 0)
(0.0267642 -0.564181 0)
(0.0248003 -0.51843 0)
(-0.00162761 -0.485104 0)
(0.029235 -0.608009 0)
(0.073035 -0.608672 0)
(0.0859733 -0.632521 0)
(0.0552975 -0.576712 0)
(-8.76721e-06 -0.505693 0)
(-0.0398609 -0.485595 0)
(-0.0528811 -0.484048 0)
(-0.0430288 -0.495947 0)
(-0.0298426 -0.508857 0)
(-0.0185984 -0.518716 0)
(-0.0105156 -0.525255 0)
(-0.00531114 -0.529321 0)
(-0.0024016 -0.531623 0)
(-0.00102213 -0.53267 0)
(-0.000190077 -0.532763 0)
(0.00116517 -0.531914 0)
(0.00402546 -0.529842 0)
(0.00914569 -0.526061 0)
(0.0170863 -0.519903 0)
(0.0281549 -0.510525 0)
(0.0413589 -0.497922 0)
(0.0520924 -0.485667 0)
(0.0422105 -0.485469 0)
(0.00483332 -0.5037 0)
(-0.0514958 -0.569268 0)
(-0.084174 -0.63308 0)
(-0.0741985 -0.610265 0)
(-0.0320478 -0.614813 0)
(0.000479747 -0.48623 0)
(0.016856 -0.484675 0)
(0.0680082 -0.64217 0)
(0.0879939 -0.613012 0)
(0.0564297 -0.607755 0)
(-0.00530373 -0.547203 0)
(-0.0655254 -0.499802 0)
(-0.0823113 -0.49562 0)
(-0.0714022 -0.501383 0)
(-0.0529377 -0.512148 0)
(-0.0356923 -0.521704 0)
(-0.021911 -0.52773 0)
(-0.0118807 -0.530683 0)
(-0.00542531 -0.531593 0)
(-0.00209765 -0.531514 0)
(-0.00091038 -0.531279 0)
(-0.000489744 -0.531357 0)
(0.000658824 -0.531757 0)
(0.00391331 -0.53203 0)
(0.0102613 -0.531356 0)
(0.0201245 -0.528706 0)
(0.03367 -0.52305 0)
(0.0507095 -0.513821 0)
(0.0692813 -0.502932 0)
(0.0817752 -0.496175 0)
(0.0679751 -0.4995 0)
(0.0121039 -0.540697 0)
(-0.051086 -0.605712 0)
(-0.0869906 -0.613663 0)
(-0.0688144 -0.645337 0)
(-0.0178733 -0.487137 0)
(0.0230927 -0.525588 0)
(0.0714148 -0.64613 0)
(0.0673163 -0.60762 0)
(-0.0043362 -0.581159 0)
(-0.0794876 -0.533069 0)
(-0.108882 -0.513818 0)
(-0.0987592 -0.513744 0)
(-0.078079 -0.521113 0)
(-0.0561857 -0.529534 0)
(-0.0362301 -0.535492 0)
(-0.0200497 -0.537271 0)
(-0.00838062 -0.535667 0)
(-0.00164022 -0.532222 0)
(0.000660421 -0.528913 0)
(3.72755e-05 -0.526895 0)
(-0.00160694 -0.52696 0)
(-0.0022828 -0.529089 0)
(-7.64525e-05 -0.532549 0)
(0.00654421 -0.536185 0)
(0.0180739 -0.538032 0)
(0.0340716 -0.536536 0)
(0.0538227 -0.530849 0)
(0.0756852 -0.522465 0)
(0.0966695 -0.51475 0)
(0.108607 -0.51387 0)
(0.0846648 -0.529978 0)
(0.0120751 -0.578142 0)
(-0.0639146 -0.606498 0)
(-0.0710198 -0.647105 0)
(-0.0232668 -0.52905 0)
(0.0313808 -0.592292 0)
(0.0510487 -0.639342 0)
(-0.00400319 -0.59168 0)
(-0.0824736 -0.564074 0)
(-0.1234 -0.539458 0)
(-0.120532 -0.530929 0)
(-0.101972 -0.533765 0)
(-0.0789765 -0.541061 0)
(-0.0547214 -0.547817 0)
(-0.031362 -0.550686 0)
(-0.0116962 -0.547122 0)
(0.00140752 -0.539297 0)
(0.00698204 -0.53002 0)
(0.00629757 -0.522815 0)
(0.00194309 -0.5191 0)
(-0.00364131 -0.519117 0)
(-0.0080684 -0.522899 0)
(-0.00888014 -0.5302 0)
(-0.00345991 -0.539615 0)
(0.00951835 -0.547672 0)
(0.0290936 -0.551498 0)
(0.0523487 -0.548883 0)
(0.0765259 -0.542213 0)
(0.0997236 -0.534719 0)
(0.118854 -0.53135 0)
(0.124275 -0.538634 0)
(0.0882126 -0.562677 0)
(0.0112224 -0.590107 0)
(-0.0474254 -0.638889 0)
(-0.0306012 -0.595615 0)
(0.0200002 -0.654256 0)
(-0.00839351 -0.629103 0)
(-0.085673 -0.584632 0)
(-0.12504 -0.562083 0)
(-0.131714 -0.548279 0)
(-0.120367 -0.54654 0)
(-0.101508 -0.552124 0)
(-0.0772546 -0.561076 0)
(-0.0492884 -0.567949 0)
(-0.0193668 -0.569009 0)
(0.00546567 -0.556787 0)
(0.0184754 -0.540194 0)
(0.0202792 -0.52378 0)
(0.0142924 -0.512724 0)
(0.00456029 -0.507429 0)
(-0.00629395 -0.507401 0)
(-0.0161276 -0.512681 0)
(-0.0222987 -0.523755 0)
(-0.020742 -0.540218 0)
(-0.00790638 -0.557085 0)
(0.0168938 -0.569571 0)
(0.0468585 -0.568843 0)
(0.0749327 -0.562103 0)
(0.0993499 -0.552863 0)
(0.118601 -0.546989 0)
(0.130642 -0.548174 0)
(0.126442 -0.56154 0)
(0.0905409 -0.58408 0)
(0.0136255 -0.628397 0)
(-0.0181929 -0.657603 0)
(-0.0156951 -0.695795 0)
(-0.0666969 -0.619855 0)
(-0.115518 -0.578752 0)
(-0.130767 -0.560299 0)
(-0.129447 -0.55476 0)
(-0.119452 -0.55819 0)
(-0.101355 -0.568468 0)
(-0.0737711 -0.582042 0)
(-0.0383581 -0.589897 0)
(0.00252209 -0.59128 0)
(0.0329695 -0.562717 0)
(0.0415281 -0.535177 0)
(0.0358292 -0.5118 0)
(0.0226213 -0.498304 0)
(0.0071482 -0.492203 0)
(-0.0087714 -0.492147 0)
(-0.0243665 -0.498108 0)
(-0.0378303 -0.5115 0)
(-0.043923 -0.534739 0)
(-0.0356292 -0.562644 0)
(-0.00536353 -0.59133 0)
(0.0355885 -0.59063 0)
(0.0714681 -0.583029 0)
(0.099415 -0.569138 0)
(0.117725 -0.558427 0)
(0.127938 -0.554783 0)
(0.129952 -0.560022 0)
(0.11618 -0.578113 0)
(0.06959 -0.619214 0)
(0.0177309 -0.695979 0)
(-0.0322699 -0.688295 0)
(-0.0859463 -0.598152 0)
(-0.115486 -0.565829 0)
(-0.126013 -0.555884 0)
(-0.127872 -0.556021 0)
(-0.120445 -0.565899 0)
(-0.0998622 -0.583465 0)
(-0.0623368 -0.603333 0)
(-0.0142414 -0.609417 0)
(0.0366557 -0.609201 0)
(0.0664917 -0.557108 0)
(0.0644146 -0.519552 0)
(0.0481242 -0.492422 0)
(0.0279718 -0.479598 0)
(0.00863459 -0.474697 0)
(-0.0100124 -0.474598 0)
(-0.0294398 -0.479257 0)
(-0.0498469 -0.491808 0)
(-0.0665561 -0.518543 0)
(-0.0689475 -0.556474 0)
(-0.0400793 -0.607564 0)
(0.0103939 -0.609888 0)
(0.0595302 -0.604448 0)
(0.0978828 -0.58402 0)
(0.118787 -0.566019 0)
(0.126355 -0.55587 0)
(0.124645 -0.55522 0)
(0.114426 -0.565061 0)
(0.0858452 -0.596766 0)
(0.0326193 -0.684806 0)
(-0.0344882 -0.63793 0)
(-0.0840903 -0.572156 0)
(-0.108349 -0.550405 0)
(-0.122656 -0.545975 0)
(-0.128245 -0.552437 0)
(-0.118216 -0.571431 0)
(-0.0829895 -0.599082 0)
(-0.0246141 -0.618414 0)
(0.035194 -0.610915 0)
(0.0763826 -0.600317 0)
(0.0889927 -0.536739 0)
(0.0749029 -0.491588 0)
(0.049772 -0.467018 0)
(0.0271112 -0.459004 0)
(0.00816857 -0.457191 0)
(-0.00926119 -0.457099 0)
(-0.028208 -0.458648 0)
(-0.0509049 -0.466193 0)
(-0.0760731 -0.490157 0)
(-0.0905767 -0.535518 0)
(-0.0799883 -0.596887 0)
(-0.0403183 -0.611226 0)
(0.0204888 -0.619216 0)
(0.0800321 -0.599481 0)
(0.11609 -0.57145 0)
(0.126591 -0.552123 0)
(0.121226 -0.545189 0)
(0.106928 -0.549424 0)
(0.0827441 -0.570365 0)
(0.0338763 -0.633351 0)
(-0.0289343 -0.582514 0)
(-0.0733945 -0.542745 0)
(-0.101705 -0.530772 0)
(-0.120749 -0.530459 0)
(-0.123916 -0.545861 0)
(-0.0944648 -0.581574 0)
(-0.025032 -0.61229 0)
(0.0499009 -0.613995 0)
(0.0915996 -0.593217 0)
(0.0941998 -0.561088 0)
(0.0821705 -0.505286 0)
(0.0636627 -0.457153 0)
(0.0379231 -0.442433 0)
(0.0190683 -0.441819 0)
(0.00543788 -0.443575 0)
(-0.0064153 -0.443566 0)
(-0.0198923 -0.441703 0)
(-0.0384452 -0.441925 0)
(-0.0639308 -0.455874 0)
(-0.0833552 -0.503325 0)
(-0.096467 -0.557498 0)
(-0.094899 -0.593606 0)
(-0.0548086 -0.614555 0)
(0.0198871 -0.611818 0)
(0.0905641 -0.581782 0)
(0.121528 -0.545861 0)
(0.119239 -0.52966 0)
(0.100424 -0.529543 0)
(0.0721761 -0.540774 0)
(0.0283538 -0.578626 0)
(-0.0239708 -0.530275 0)
(-0.0650694 -0.509878 0)
(-0.0972826 -0.505871 0)
(-0.114144 -0.512664 0)
(-0.0952825 -0.547038 0)
(-0.0237684 -0.601396 0)
(0.0644208 -0.615443 0)
(0.106653 -0.597928 0)
(0.113297 -0.573499 0)
(0.0892193 -0.516037 0)
(0.0561819 -0.470798 0)
(0.034 -0.431189 0)
(0.0164018 -0.427425 0)
(0.00683135 -0.432608 0)
(0.0014734 -0.436475 0)
(-0.00270309 -0.43656 0)
(-0.00785394 -0.432875 0)
(-0.0169673 -0.42763 0)
(-0.0341588 -0.430651 0)
(-0.0568763 -0.468397 0)
(-0.0898517 -0.513404 0)
(-0.114488 -0.57249 0)
(-0.110032 -0.598595 0)
(-0.0699364 -0.61403 0)
(0.017552 -0.601902 0)
(0.0910937 -0.548517 0)
(0.112062 -0.512509 0)
(0.0962019 -0.504652 0)
(0.0643687 -0.508035 0)
(0.0236225 -0.527272 0)
(-0.0207119 -0.48354 0)
(-0.0613781 -0.476894 0)
(-0.0887891 -0.477938 0)
(-0.080527 -0.507474 0)
(-0.0125634 -0.571591 0)
(0.0752803 -0.621652 0)
(0.112312 -0.610505 0)
(0.119679 -0.591963 0)
(0.103569 -0.541256 0)
(0.0628454 -0.479937 0)
(0.0235082 -0.445452 0)
(0.000750911 -0.421822 0)
(-0.00539726 -0.425093 0)
(-0.00452913 -0.432154 0)
(-0.0021692 -0.436489 0)
(0.000413098 -0.436699 0)
(0.0029165 -0.432694 0)
(0.0041858 -0.42586 0)
(-0.000998951 -0.422139 0)
(-0.0232353 -0.443372 0)
(-0.0617289 -0.478166 0)
(-0.103361 -0.538436 0)
(-0.123267 -0.590489 0)
(-0.116776 -0.61013 0)
(-0.0801753 -0.621846 0)
(0.00692701 -0.574707 0)
(0.0769309 -0.509479 0)
(0.087549 -0.47709 0)
(0.0609559 -0.475086 0)
(0.0205913 -0.481022 0)
(-0.0207867 -0.443116 0)
(-0.0533557 -0.443289 0)
(-0.0575684 -0.461527 0)
(-0.00320394 -0.536169 0)
(0.082649 -0.602532 0)
(0.118882 -0.607096 0)
(0.117193 -0.600061 0)
(0.106333 -0.57311 0)
(0.0682957 -0.503956 0)
(0.0189406 -0.45172 0)
(-0.0137856 -0.433223 0)
(-0.0253747 -0.426379 0)
(-0.0198407 -0.431864 0)
(-0.0119248 -0.437841 0)
(-0.00461486 -0.4412 0)
(0.00227035 -0.441428 0)
(0.00964459 -0.438465 0)
(0.0177728 -0.43285 0)
(0.0240338 -0.427318 0)
(0.0146324 -0.432807 0)
(-0.0167662 -0.450933 0)
(-0.067029 -0.50081 0)
(-0.108014 -0.568976 0)
(-0.12136 -0.601763 0)
(-0.122347 -0.608748 0)
(-0.0876271 -0.604283 0)
(-0.00175801 -0.540715 0)
(0.0554362 -0.462379 0)
(0.0529474 -0.441757 0)
(0.0208567 -0.441114 0)
(-0.0142044 -0.406407 0)
(-0.0248479 -0.421499 0)
(0.00688051 -0.483427 0)
(0.0763932 -0.579063 0)
(0.118617 -0.596349 0)
(0.122927 -0.593565 0)
(0.112145 -0.584304 0)
(0.0720952 -0.539066 0)
(0.0121602 -0.471077 0)
(-0.031737 -0.439829 0)
(-0.044904 -0.436806 0)
(-0.0385718 -0.437818 0)
(-0.026542 -0.442358 0)
(-0.0153903 -0.446056 0)
(-0.00587269 -0.44785 0)
(0.0030002 -0.448021 0)
(0.0125524 -0.446651 0)
(0.0238192 -0.443341 0)
(0.0362435 -0.439001 0)
(0.0440317 -0.437624 0)
(0.0331185 -0.440951 0)
(-0.00922226 -0.468349 0)
(-0.0705237 -0.533425 0)
(-0.113273 -0.585164 0)
(-0.125385 -0.59651 0)
(-0.121427 -0.597829 0)
(-0.0808459 -0.582915 0)
(-0.0107082 -0.485908 0)
(0.0235716 -0.421053 0)
(0.0139252 -0.404771 0)
(-0.0014725 -0.383651 0)
(0.0238727 -0.447767 0)
(0.0760417 -0.521928 0)
(0.107977 -0.590142 0)
(0.119283 -0.593404 0)
(0.113736 -0.585212 0)
(0.0799962 -0.553518 0)
(0.00904018 -0.501977 0)
(-0.0519049 -0.459423 0)
(-0.0671345 -0.449561 0)
(-0.0572369 -0.449474 0)
(-0.0419439 -0.451266 0)
(-0.0275662 -0.45327 0)
(-0.0158445 -0.454341 0)
(-0.00615932 -0.454804 0)
(0.00283179 -0.454988 0)
(0.0125472 -0.454903 0)
(0.0243479 -0.454225 0)
(0.0389412 -0.45255 0)
(0.0548199 -0.450839 0)
(0.0659713 -0.451113 0)
(0.0541359 -0.459119 0)
(-0.00362635 -0.496902 0)
(-0.0775129 -0.551643 0)
(-0.114496 -0.58687 0)
(-0.120421 -0.595795 0)
(-0.109565 -0.592116 0)
(-0.0787016 -0.523365 0)
(-0.0263593 -0.450772 0)
(0.000723096 -0.382829 0)
(0.0123776 -0.391749 0)
(0.0710708 -0.522975 0)
(0.105974 -0.532857 0)
(0.10655 -0.603711 0)
(0.107398 -0.594684 0)
(0.0783361 -0.563206 0)
(0.00614036 -0.518823 0)
(-0.0650545 -0.489451 0)
(-0.0866078 -0.472383 0)
(-0.0749703 -0.466741 0)
(-0.0564848 -0.465459 0)
(-0.038886 -0.464347 0)
(-0.0246246 -0.462635 0)
(-0.0139667 -0.46086 0)
(-0.00564494 -0.459848 0)
(0.00190083 -0.460011 0)
(0.0102299 -0.461382 0)
(0.0209498 -0.463577 0)
(0.0354317 -0.46571 0)
(0.0534935 -0.467096 0)
(0.0725461 -0.468483 0)
(0.0859808 -0.473042 0)
(0.0695761 -0.487847 0)
(0.00135488 -0.515846 0)
(-0.0757463 -0.561401 0)
(-0.108149 -0.595486 0)
(-0.106416 -0.606457 0)
(-0.108002 -0.536355 0)
(-0.0738777 -0.52848 0)
(-0.0127653 -0.392253 0)
(0.025393 -0.434247 0)
(0.0873848 -0.581638 0)
(0.107971 -0.558388 0)
(0.0989138 -0.612479 0)
(0.0721273 -0.574521 0)
(-0.00660965 -0.532924 0)
(-0.0771837 -0.511992 0)
(-0.098516 -0.499657 0)
(-0.0888528 -0.49089 0)
(-0.0692589 -0.485587 0)
(-0.0480445 -0.48089 0)
(-0.0303081 -0.475055 0)
(-0.0178165 -0.468838 0)
(-0.00971091 -0.463915 0)
(-0.00427499 -0.461213 0)
(0.000228979 -0.461305 0)
(0.0055609 -0.464286 0)
(0.0135977 -0.469679 0)
(0.0262809 -0.476552 0)
(0.0445418 -0.48288 0)
(0.0666914 -0.487788 0)
(0.0874726 -0.492346 0)
(0.0996031 -0.499436 0)
(0.0827382 -0.510882 0)
(0.0142721 -0.530193 0)
(-0.0691947 -0.571399 0)
(-0.100441 -0.613722 0)
(-0.108247 -0.564295 0)
(-0.0877223 -0.586728 0)
(-0.0261828 -0.437087 0)
(0.0344473 -0.511395 0)
(0.0827389 -0.610333 0)
(0.0949104 -0.575425 0)