/*--------------------------------*- C++ -*----------------------------------*\
| =========                 |                                                 |
| \\      /  F ield         | OpenFOAM: The Open Source CFD Toolbox           |
|  \\    /   O peration     | Version:  v1606+                                |
|   \\  /    A nd           | Web:      www.OpenFOAM.com                      |
|    \\/     M anipulation  |                                                 |
\*---------------------------------------------------------------------------*/
FoamFile
{
    version     2.0;
    format      ascii;
    class       surfaceScalarField;
    location    "0.69";
    object      phi.particles;
}
// * * * * * * * * * * * * * * * * * * * * * * * * * * * * * * * * * * * * * //

dimensions      [0 3 -1 0 0 0 0];

internalField   nonuniform List<scalar> 
11770
(
3.28058e-07
-2.54818e-05
1.73889e-06
-2.55546e-05
3.25653e-06
-2.5887e-05
4.47596e-06
-2.59536e-05
4.79264e-06
-2.59511e-05
4.13561e-06
-2.64993e-05
2.96329e-06
-2.70806e-05
2.01047e-06
-2.66185e-05
1.76091e-06
-2.51305e-05
2.08869e-06
-2.33232e-05
2.5701e-06
-2.29428e-05
2.60825e-06
-2.42754e-05
1.97204e-06
-2.62544e-05
1.2507e-06
-2.67122e-05
6.5609e-07
-2.68385e-05
-8.68158e-08
-2.68729e-05
-1.14936e-06
-2.69007e-05
-1.93094e-06
-2.61598e-05
-1.9822e-06
-2.41071e-05
-1.68897e-06
-2.30535e-05
-1.56979e-06
-2.35834e-05
-2.12563e-06
-2.54308e-05
-3.29266e-06
-2.67008e-05
-4.53131e-06
-2.70053e-05
-5.13111e-06
-2.62898e-05
-4.65861e-06
-2.58406e-05
-3.32182e-06
-2.58067e-05
-1.75375e-06
-2.57849e-05
-2.96653e-07
-2.5442e-05
-2.557e-05
1.64573e-06
-9.56252e-06
2.17111e-06
-1.01801e-05
4.74516e-06
-1.16521e-05
7.7584e-06
-1.23551e-05
1.02931e-05
-1.12909e-05
1.11372e-05
-9.17725e-06
1.03038e-05
-7.5023e-06
8.46211e-06
-5.65812e-06
6.18877e-06
-3.09825e-06
4.03485e-06
-6.66886e-07
2.03018e-06
-8.96036e-09
5.34692e-07
-1.11693e-06
-1.96364e-07
-4.1522e-06
4.76042e-08
-5.47171e-06
1.00186e-06
-6.2312e-06
1.60872e-06
-6.02445e-06
1.16269e-06
-5.25653e-06
-1.10826e-07
-3.49552e-06
-1.97707e-06
-3.35604e-07
-4.17863e-06
3.28417e-07
-6.48226e-06
-6.56304e-07
-8.89822e-06
-3.45294e-06
-1.07338e-05
-5.9542e-06
-1.14784e-05
-7.71258e-06
-1.04513e-05
-9.40601e-06
-7.78072e-06
-1.15576e-05
-4.74512e-06
-1.24531e-05
-2.17827e-06
-1.16114e-05
-1.62086e-06
-1.02917e-05
-9.60882e-06
-4.63741e-07
-8.16627e-06
1.69501e-06
-1.08763e-05
4.94217e-06
-1.26584e-05
7.99869e-06
-1.33934e-05
1.12182e-05
-1.28709e-05
1.3643e-05
-1.10769e-05
1.42426e-05
-8.92022e-06
1.28663e-05
-7.24907e-06
9.54017e-06
-5.67276e-06
5.27512e-06
-4.36408e-06
1.76193e-06
-4.92207e-06
-5.19923e-07
-7.43869e-06
-1.5488e-06
-1.07017e-05
-7.52097e-07
-1.35567e-05
1.3238e-06
-1.52614e-05
2.86146e-06
-1.45281e-05
2.70698e-06
-1.2155e-05
9.63268e-07
-9.50505e-06
-1.82249e-06
-6.17466e-06
-5.73077e-06
-4.10506e-06
-1.01768e-05
-4.06968e-06
-1.34008e-05
-5.62371e-06
-1.45856e-05
-7.25133e-06
-1.37667e-05
-9.00267e-06
-1.12075e-05
-1.12183e-05
-7.97828e-06
-1.29289e-05
-4.90305e-06
-1.34066e-05
-1.6045e-06
-1.26235e-05
5.79896e-07
-1.08664e-05
-8.052e-06
6.60512e-07
-1.52726e-06
1.42109e-06
-4.59338e-06
3.32617e-06
-7.14643e-06
5.48011e-06
-8.63192e-06
8.55508e-06
-8.51595e-06
1.21202e-05
-6.58451e-06
1.4349e-05
-4.08764e-06
1.45094e-05
-2.76017e-06
1.25466e-05
-1.88008e-06
7.70424e-06
-1.29598e-06
1.70926e-06
-2.71797e-06
-2.64664e-06
-6.28762e-06
-3.97412e-06
-9.99837e-06
-2.02111e-06
-1.42091e-05
1.71959e-06
-1.7153e-05
4.70011e-06
-1.5769e-05
5.25886e-06
-1.17171e-05
2.91378e-06
-8.31301e-06
-2.10758e-06
-4.68942e-06
-8.36683e-06
-1.74034e-06
-1.30441e-05
-8.22263e-07
-1.47959e-05
-1.66317e-06
-1.44493e-05
-2.61824e-06
-1.20312e-05
-4.08811e-06
-8.45812e-06
-6.61739e-06
-5.4784e-06
-8.43344e-06
-3.34681e-06
-8.50885e-06
-1.3924e-06
-7.01518e-06
-5.50186e-07
-4.36491e-06
-1.10419e-06
9.28317e-07
1.39747e-06
-1.25853e-06
7.48145e-07
-7.60153e-07
-2.70203e-06
1.09158e-06
-5.21696e-06
4.24064e-06
-5.92645e-06
8.11527e-06
-4.12223e-06
1.12992e-05
-4.35246e-08
1.23607e-05
2.87541e-06
1.09371e-05
3.50611e-06
5.78301e-06
3.56495e-06
-1.79149e-06
1.24158e-06
-6.80168e-06
-3.41522e-06
-6.81443e-06
-8.53873e-06
-3.06185e-06
-1.46696e-05
2.27088e-06
-1.85765e-05
6.89429e-06
-1.67841e-05
8.91386e-06
-1.10318e-05
7.12302e-06
-5.96275e-06
9.0478e-07
-1.27539e-06
-6.80088e-06
2.61878e-06
-1.14094e-05
4.30735e-06
-1.25405e-05
3.94391e-06
-1.12598e-05
3.09516e-06
-7.92014e-06
-7.86832e-08
-4.10881e-06
-4.05301e-06
-1.10509e-06
-5.71318e-06
6.33924e-07
-4.96998e-06
1.13169e-06
-2.49636e-06
-8.00916e-07
1.0789e-06
2.06207e-06
3.79623e-07
2.09404e-06
-3.56355e-06
4.08147e-06
-4.56674e-06
1.70727e-06
-3.30761e-06
-1.27684e-06
-6.39135e-07
-3.06555e-06
3.15067e-06
-2.21349e-06
6.7677e-06
2.30515e-06
8.32792e-06
8.03797e-06
6.89992e-06
1.03506e-05
1.62847e-06
9.97096e-06
-5.30763e-06
7.04286e-06
-9.20271e-06
1.62285e-06
-8.16959e-06
-4.7271e-06
-3.4744e-06
-1.36293e-05
2.71425e-06
-1.82609e-05
8.25143e-06
-1.60524e-05
1.09954e-05
-8.24876e-06
9.81081e-06
-1.32489e-06
4.42857e-06
4.12717e-06
-2.83093e-06
8.84471e-06
-7.53466e-06
1.09578e-05
-8.46579e-06
1.08957e-05
-6.58181e-06
8.12892e-06
-2.86407e-06
2.26416e-06
7.83601e-07
-2.03694e-06
3.26424e-06
-2.72761e-06
4.42071e-06
-9.65729e-07
3.48978e-06
1.98099e-06
-4.8353e-07
4.50428e-06
2.68559e-06
-1.34216e-06
2.94678e-06
-3.3785e-06
4.97146e-06
-4.90328e-06
3.51977e-06
-5.10189e-06
6.52015e-07
-3.49201e-06
-1.40656e-06
-5.19712e-07
-1.05829e-06
2.96239e-06
3.29298e-06
4.26926e-06
1.12712e-05
2.27855e-06
1.76198e-05
-2.32389e-06
1.78811e-05
-7.8477e-06
1.44653e-05
-1.04117e-05
8.34651e-06
-8.23414e-06
1.17623e-08
-3.15471e-06
-1.22415e-05
2.82344e-06
-1.72145e-05
8.43256e-06
-1.45448e-05
1.18508e-05
-4.98194e-06
1.1519e-05
5.21732e-06
7.14363e-06
1.1491e-05
1.12778e-06
1.6557e-05
-3.03974e-06
1.89765e-05
-4.39937e-06
1.79104e-05
-2.72734e-06
1.11088e-05
7.50398e-07
3.16254e-06
3.55005e-06
-8.58829e-07
4.98005e-06
-1.05706e-06
4.77224e-06
9.50737e-07
3.34696e-06
3.84847e-06
1.31242e-06
5.42131e-06
3.38354e-06
-2.3711e-06
3.54703e-06
-4.39517e-06
5.32323e-06
-5.43789e-06
3.1209e-06
-5.33443e-06
5.16207e-07
-4.16006e-06
-1.27769e-06
-2.03237e-06
-9.07514e-07
7.23677e-07
3.40952e-06
2.12743e-06
1.25499e-05
-2.65286e-08
2.33034e-05
-4.89231e-06
2.69675e-05
-9.59167e-06
2.41119e-05
-1.07841e-05
1.77955e-05
-7.89058e-06
5.21065e-06
-2.85157e-06
-1.03646e-05
2.81264e-06
-1.63776e-05
8.24145e-06
-1.29622e-05
1.17862e-05
-1.02017e-06
1.1787e-05
1.48548e-05
8.34359e-06
2.19722e-05
3.30847e-06
2.63192e-05
-8.33243e-07
2.79308e-05
-2.20281e-06
2.29643e-05
-5.08564e-07
1.20574e-05
2.17029e-06
3.24149e-06
4.20446e-06
-6.51909e-07
5.27282e-06
-9.88118e-07
5.31729e-06
6.59092e-07
4.2817e-06
3.42058e-06
2.31411e-06
5.66309e-06
3.84284e-06
-3.30646e-06
-5.52211e-07
-4.63878e-06
2.97207e-06
-5.17065e-06
1.01739e-06
-5.11634e-06
-1.26868e-06
-4.10379e-06
-2.7821e-06
-2.13003e-06
-1.56596e-06
5.15331e-07
3.34786e-06
1.65306e-06
1.31254e-05
-6.86324e-07
2.67027e-05
-5.27694e-06
3.62823e-05
-9.01994e-06
3.59817e-05
-9.52664e-06
2.90058e-05
-6.82086e-06
9.02723e-06
-2.45033e-06
-8.9291e-06
2.3782e-06
-1.58485e-05
7.22369e-06
-1.1831e-05
9.52927e-06
2.32719e-06
9.42249e-06
2.39685e-05
7.68545e-06
3.49901e-05
3.82607e-06
3.82375e-05
-9.54905e-08
3.67926e-05
-1.68845e-06
2.58806e-05
-1.0208e-07
1.24399e-05
2.41427e-06
3.12932e-06
4.20353e-06
-1.40712e-06
4.98746e-06
-2.79678e-06
4.94952e-06
-1.43902e-06
4.48421e-06
5.71228e-07
3.23857e-06
1.61518e-06
-2.45699e-06
-3.22474e-06
-1.96855e-05
-3.16234e-06
-1.68371e-05
-3.99853e-06
-1.05909e-05
-4.40842e-06
-7.04029e-06
-3.78758e-06
-5.87544e-06
-2.68793e-06
-3.78354e-06
-1.09498e-06
2.88299e-06
-5.1004e-07
1.36245e-05
-2.80143e-06
2.91146e-05
-6.01104e-06
4.37026e-05
-6.44086e-06
4.57041e-05
-6.20345e-06
3.51869e-05
-4.76913e-06
1.04659e-05
-1.34698e-06
-9.05725e-06
1.36751e-06
-1.7285e-05
4.15485e-06
-1.25877e-05
5.25527e-06
3.42803e-06
5.05116e-06
2.80371e-05
5.93923e-06
4.40752e-05
5.36962e-06
4.79005e-05
2.37222e-06
4.37053e-05
6.835e-07
2.8159e-05
1.52276e-06
1.28277e-05
2.9051e-06
2.23267e-06
3.73921e-06
-3.89407e-06
3.97829e-06
-6.67996e-06
3.25469e-06
-8.9873e-06
2.46235e-06
-1.4309e-05
2.435e-06
-1.90952e-05
-2.23328e-05
2.28533e-06
-3.40594e-05
2.82646e-06
-3.48007e-05
8.55611e-07
-2.86735e-05
-1.84875e-06
-2.32261e-05
-2.84825e-06
-1.40083e-05
-3.31553e-06
-8.42887e-06
-4.23991e-06
3.07609e-07
-5.75411e-06
1.23645e-05
-7.42199e-06
2.95203e-05
-7.06176e-06
4.54705e-05
-2.98878e-06
4.71946e-05
-1.61384e-07
3.3094e-05
-2.42192e-07
6.61388e-06
-7.97063e-09
-1.44263e-05
3.79628e-07
-2.37642e-05
3.0771e-07
-1.84393e-05
-5.39104e-07
-1.38083e-06
-3.16136e-08
2.41416e-05
3.90381e-06
4.29475e-05
7.42428e-06
4.89406e-05
7.56284e-06
4.49409e-05
5.94249e-06
2.80722e-05
4.23729e-06
1.08136e-05
3.24078e-06
-1.16062e-06
2.39872e-06
-1.01361e-05
5.53259e-07
-1.71395e-05
-2.69454e-06
-2.5055e-05
-4.06772e-06
-3.18969e-05
-2.70999e-06
-3.57082e-05
-3.49667e-05
3.13206e-06
-3.26273e-05
5.57798e-06
-3.38696e-05
7.60336e-06
-3.4224e-05
5.7937e-06
-3.36807e-05
9.14138e-07
-2.68455e-05
-2.37967e-06
-1.91097e-05
-5.98392e-06
-9.21791e-06
-8.52111e-06
2.34124e-07
-8.73813e-06
1.56333e-05
-6.03619e-06
3.16365e-05
-9.47907e-07
3.06748e-05
2.79032e-06
1.40752e-05
2.25007e-06
-1.34905e-05
6.56034e-07
-2.90195e-05
1.2605e-07
-3.63038e-05
-1.1551e-06
-3.21196e-05
-2.13876e-06
-1.93437e-05
-1.59096e-06
1.64146e-06
2.03498e-06
2.29407e-05
6.61658e-06
3.13411e-05
8.71536e-06
2.96955e-05
8.03774e-06
1.23413e-05
4.88806e-06
-2.81239e-06
6.3179e-07
-1.18802e-05
-3.72449e-06
-2.20705e-05
-7.99239e-06
-2.85773e-05
-8.4779e-06
-3.30477e-05
-6.23716e-06
-3.39122e-05
-3.50868e-06
-3.40145e-05
-3.30824e-05
3.20431e-06
-2.96597e-05
6.01894e-06
-3.08223e-05
8.48704e-06
-3.09397e-05
9.9265e-06
-3.0877e-05
8.03861e-06
-3.13748e-05
2.05926e-06
-3.01536e-05
-2.52097e-06
-2.61515e-05
-3.84601e-06
-2.10071e-05
-4.35913e-06
-8.01642e-06
-3.63732e-06
4.35622e-06
-3.28707e-06
1.96103e-06
-3.35269e-06
-1.43278e-05
-1.2013e-06
-3.6239e-05
8.64913e-07
-4.45899e-05
7.31196e-07
-4.77721e-05
2.15618e-07
-4.60705e-05
2.99279e-06
-4.00719e-05
4.46278e-06
-2.62152e-05
3.32269e-06
-6.40161e-06
3.82302e-06
2.02252e-06
4.26641e-06
1.72358e-06
3.50644e-06
-1.15107e-05
1.54323e-06
-2.31519e-05
-4.50432e-06
-2.74628e-05
-1.00965e-05
-3.03857e-05
-1.03272e-05
-2.97894e-05
-8.73147e-06
-2.95263e-05
-6.35908e-06
-2.98919e-05
-3.43527e-06
-3.01801e-05
-2.94883e-05
3.56763e-06
-2.65001e-05
6.23506e-06
-2.73828e-05
8.22381e-06
-2.72277e-05
8.98702e-06
-2.71239e-05
7.45374e-06
-2.80274e-05
3.07692e-06
-3.10801e-05
-5.74017e-07
-3.31336e-05
-2.04966e-06
-2.87756e-05
-2.97328e-06
-1.83786e-05
-4.2702e-06
-1.31696e-05
-6.50933e-06
-1.52855e-05
-5.63382e-06
-2.79616e-05
-1.31433e-06
-4.25863e-05
1.68415e-06
-4.95351e-05
1.4218e-06
-5.08467e-05
1.19562e-06
-4.97833e-05
4.81054e-06
-4.63216e-05
8.32602e-06
-3.57762e-05
7.12809e-06
-2.14725e-05
4.47203e-06
-1.47891e-05
3.89152e-06
-1.46608e-05
3.93227e-06
-2.01252e-05
2.38227e-06
-2.93003e-05
-2.2909e-06
-3.30111e-05
-6.74577e-06
-2.99447e-05
-7.74033e-06
-2.7008e-05
-6.90468e-06
-2.55922e-05
-5.29214e-06
-2.52293e-05
-3.10323e-06
-2.52941e-05
-2.4952e-05
3.5834e-06
-2.31317e-05
6.06439e-06
-2.37356e-05
7.51623e-06
-2.36104e-05
7.59802e-06
-2.37544e-05
5.21109e-06
-2.47911e-05
-1.15131e-07
-2.73322e-05
-4.44361e-06
-2.94594e-05
-5.24613e-06
-2.48962e-05
-5.27186e-06
-1.6336e-05
-6.19312e-06
-1.46962e-05
-6.6006e-06
-1.74799e-05
-3.51504e-06
-2.85848e-05
1.15205e-06
-4.11422e-05
3.06515e-06
-4.7705e-05
1.2184e-06
-4.88316e-05
-4.78103e-07
-4.74715e-05
2.07197e-06
-4.36159e-05
6.64889e-06
-3.3293e-05
8.07555e-06
-2.22243e-05
6.65411e-06
-1.59833e-05
6.37004e-06
-1.4978e-05
7.23226e-06
-1.71538e-05
6.81793e-06
-2.58327e-05
3.53513e-06
-3.03397e-05
-6.33863e-07
-2.83507e-05
-2.86672e-06
-2.45249e-05
-3.18275e-06
-2.16195e-05
-2.72805e-06
-2.00295e-05
-1.67522e-06
-1.93171e-05
-1.89901e-05
2.92453e-06
-1.92576e-05
4.86001e-06
-1.95005e-05
5.88693e-06
-1.96877e-05
6.0907e-06
-2.04405e-05
4.29176e-06
-2.17516e-05
-1.05561e-06
-2.35146e-05
-6.64182e-06
-2.54468e-05
-7.24925e-06
-2.10001e-05
-6.19945e-06
-1.25562e-05
-6.96342e-06
-1.16581e-05
-6.42501e-06
-1.48954e-05
-1.86336e-06
-2.52582e-05
2.69538e-06
-3.77744e-05
3.53823e-06
-4.48568e-05
1.60411e-06
-4.58821e-05
-7.34381e-07
-4.45004e-05
-2.44723e-09
-3.94891e-05
4.55832e-06
-2.82249e-05
7.98026e-06
-1.73857e-05
7.4295e-06
-1.20163e-05
7.16368e-06
-1.0543e-05
8.82038e-06
-1.31953e-05
9.54081e-06
-2.25155e-05
8.12489e-06
-2.65588e-05
5.71698e-06
-2.50973e-05
3.27125e-06
-2.10575e-05
1.80346e-06
-1.68554e-05
1.0676e-06
-1.40772e-05
7.2896e-07
-1.2673e-05
-1.19349e-05
1.38419e-06
-1.42345e-05
1.95483e-06
-1.45278e-05
1.72947e-06
-1.52266e-05
7.73469e-07
-1.6667e-05
-9.11719e-07
-1.8619e-05
-3.37625e-06
-2.02684e-05
-7.67552e-06
-2.12755e-05
-9.66297e-06
-1.79272e-05
-7.99941e-06
-9.12852e-06
-6.97363e-06
-7.8026e-06
-4.80708e-06
-1.16943e-05
3.79802e-07
-2.17066e-05
4.2491e-06
-3.48923e-05
4.99949e-06
-4.1611e-05
2.83404e-06
-4.19174e-05
-6.56012e-07
-4.03132e-05
-1.67607e-06
-3.51917e-05
1.52835e-06
-2.41569e-05
5.18522e-06
-1.15312e-05
6.25442e-06
-6.48016e-06
7.57707e-06
-5.35774e-06
1.01957e-05
-1.03183e-05
1.2524e-05
-1.94193e-05
1.29383e-05
-2.23762e-05
1.09017e-05
-2.06944e-05
7.28562e-06
-1.50377e-05
4.14639e-06
-1.03695e-05
1.84748e-06
-7.93903e-06
7.94538e-07
-6.98442e-06
-6.29685e-06
-1.01958e-06
-7.99786e-06
-1.5864e-06
-8.84659e-06
-2.68901e-06
-9.93622e-06
-3.94025e-06
-1.22102e-05
-5.64591e-06
-1.51389e-05
-7.41425e-06
-1.63949e-05
-9.56211e-06
-1.71659e-05
-1.09072e-05
-1.50308e-05
-8.75017e-06
-6.90423e-06
-5.55357e-06
-3.50503e-06
-2.38829e-06
-7.08631e-06
1.99459e-06
-1.78408e-05
5.47795e-06
-3.16249e-05
6.99652e-06
-3.79285e-05
4.40139e-06
-3.74204e-05
-1.11853e-07
-3.53727e-05
-2.52096e-06
-3.01212e-05
-1.18024e-06
-1.92833e-05
2.5648e-06
-5.82136e-06
4.84834e-06
1.84676e-07
6.9494e-06
-2.46072e-07
1.19438e-05
-8.74449e-06
1.57401e-05
-1.74811e-05
1.53349e-05
-1.84851e-05
1.21357e-05
-1.49102e-05
6.70628e-06
-8.47912e-06
2.61852e-06
-4.96442e-06
6.98513e-07
-3.76852e-06
2.83159e-07
-3.55102e-06
-3.0936e-06
-2.26389e-06
-3.40035e-06
-3.69009e-06
-4.45093e-06
-6.17724e-06
-5.33331e-06
-8.68101e-06
-7.29262e-06
-1.10895e-05
-9.96024e-06
-1.2155e-05
-1.15738e-05
-1.13876e-05
-1.26564e-05
-1.09213e-05
-1.12107e-05
-9.12867e-06
-5.2335e-06
-4.8446e-06
4.43265e-07
2.57458e-07
-1.75709e-06
4.3368e-06
-1.25756e-05
6.76807e-06
-2.7434e-05
8.04268e-06
-3.36192e-05
5.32407e-06
-3.23882e-05
-3.12439e-07
-2.97629e-05
-4.72509e-06
-2.37031e-05
-4.8694e-06
-1.18247e-05
-1.21387e-06
1.15471e-06
2.30657e-06
6.27429e-06
8.44879e-06
2.78581e-06
1.50852e-05
-8.96305e-06
1.68628e-05
-1.56006e-05
1.30256e-05
-1.29685e-05
6.75109e-06
-6.60268e-06
2.95029e-06
-2.95783e-06
1.0545e-06
-1.65678e-06
1.30731e-07
-1.46254e-06
-6.56023e-08
-1.68405e-06
-1.4267e-06
-1.02863e-06
-1.49658e-06
-1.8989e-06
-2.3782e-06
-3.28509e-06
-2.83875e-06
-6.41587e-06
-3.61551e-06
-1.32699e-05
-5.21396e-06
-1.83641e-05
-8.15591e-06
-1.72999e-05
-9.21374e-06
-1.39986e-05
-8.32525e-06
-9.97066e-06
-2.79054e-06
-3.76332e-06
2.73391e-06
2.29843e-06
2.52219e-06
5.77939e-06
-7.89108e-06
8.21049e-06
-2.33647e-05
9.71456e-06
-2.90081e-05
6.76196e-06
-2.67068e-05
-3.18859e-07
-2.29611e-05
-6.7096e-06
-1.65263e-05
-8.11056e-06
-4.34262e-06
-3.80137e-06
8.1501e-06
1.36318e-06
1.17609e-05
1.00785e-05
2.15719e-06
1.61103e-05
-9.04321e-06
1.49289e-05
-9.35438e-06
1.11725e-05
-3.21316e-06
5.33246e-06
1.88365e-06
1.51531e-06
2.14746e-06
-1.74298e-07
1.37134e-06
-6.91224e-07
3.73443e-07
-5.20614e-07
-4.84376e-07
-7.02192e-07
-4.00797e-07
-5.98533e-07
-1.01509e-06
-1.03948e-06
-1.87991e-06
-1.12768e-06
-3.13907e-06
-1.22901e-06
-5.58671e-06
-1.79399e-06
-1.49606e-05
-3.70141e-06
-2.22114e-05
-5.89009e-06
-1.68542e-05
-7.52204e-06
-9.83182e-06
-1.83665e-06
-3.79941e-06
4.68794e-06
3.23111e-06
5.94643e-06
7.26825e-06
-3.63643e-06
9.29929e-06
-1.91498e-05
1.05432e-05
-2.37706e-05
7.09649e-06
-2.06147e-05
-1.31504e-06
-1.51623e-05
-8.95962e-06
-8.14117e-06
-1.03988e-05
4.06431e-06
-5.35914e-06
1.44378e-05
6.39647e-06
1.55765e-05
1.4477e-05
1.13353e-06
1.47618e-05
-3.7994e-06
1.22362e-05
1.09391e-06
6.31915e-06
6.83531e-06
1.94826e-06
7.50647e-06
-1.28521e-07
5.78685e-06
-1.01249e-06
3.74585e-06
-1.1176e-06
1.8949e-06
-7.36208e-07
4.54528e-07
-2.92256e-07
-2.68277e-07
-2.10679e-07
-8.52971e-07
-2.02105e-07
-1.70632e-06
4.23462e-08
-2.91673e-06
3.05391e-07
-5.01681e-06
4.06108e-07
-8.37957e-06
7.48792e-08
-1.35677e-05
-2.0173e-06
-1.86582e-05
-4.91959e-06
-1.30865e-05
-7.95917e-07
-2.73587e-06
5.35788e-06
3.42043e-06
9.45966e-06
8.43388e-06
5.3222e-07
1.05387e-05
-1.46697e-05
1.06713e-05
-1.70559e-05
6.26342e-06
-1.36495e-05
-3.46804e-06
-6.04948e-06
-1.16626e-05
1.75715e-06
-1.26785e-05
1.28799e-05
-3.64305e-06
2.0445e-05
8.34112e-06
1.36411e-05
1.35425e-05
3.61944e-06
1.16917e-05
5.99164e-06
6.24477e-06
1.19099e-05
2.2129e-06
1.28811e-05
7.72545e-07
1.04698e-05
-5.9693e-08
7.72559e-06
-5.54796e-07
5.20067e-06
-7.33828e-07
3.0542e-06
-5.86965e-07
1.30305e-06
9.09094e-08
-4.47143e-07
4.59991e-08
-1.2188e-06
4.56651e-07
-2.26503e-06
9.12339e-07
-3.5645e-06
1.22902e-06
-5.14505e-06
1.25185e-06
-6.5805e-06
7.73097e-07
-7.72754e-06
-3.6719e-07
-1.20182e-05
-1.8511e-06
-1.53528e-05
-4.07952e-07
-7.9562e-06
1.07912e-06
2.67945e-06
1.15605e-05
8.54769e-06
6.614e-06
1.10683e-05
-7.66863e-06
9.66756e-06
-9.2584e-06
3.59548e-06
-5.02864e-06
-6.84992e-06
5.12174e-06
-1.35698e-05
1.25897e-05
-1.03628e-05
1.97069e-05
1.42214e-07
2.22888e-05
1.02791e-05
1.09033e-05
1.30216e-05
1.04805e-05
9.03929e-06
1.7133e-05
4.91719e-06
1.94503e-05
3.42007e-06
1.63774e-05
2.47715e-06
1.25598e-05
1.59072e-06
9.23537e-06
7.9321e-07
6.46012e-06
1.80954e-07
4.13329e-06
-1.36253e-07
2.17505e-06
5.61388e-07
-5.83665e-07
3.64186e-07
-1.47266e-06
1.20489e-06
-2.56349e-06
1.89086e-06
-3.82751e-06
2.25186e-06
-5.27047e-06
2.17451e-06
-6.61634e-06
1.59988e-06
-7.48337e-06
7.5948e-07
-9.02858e-06
-2.51335e-07
-1.22274e-05
-2.20712e-06
-1.11792e-05
-2.16463e-06
-4.06338e-07
2.87917e-06
8.73148e-06
4.45244e-06
8.63065e-06
2.40168e-07
5.08115e-06
-9.42002e-07
-1.61275e-06
5.85773e-06
-1.00616e-05
1.7286e-05
-1.40589e-05
2.2689e-05
-7.98762e-06
2.58408e-05
5.78087e-06
1.8774e-05
1.47014e-05
1.45255e-05
1.41354e-05
2.02297e-05
1.13282e-05
2.48879e-05
9.58218e-06
2.30093e-05
8.00562e-06
1.86433e-05
6.08558e-06
1.43056e-05
4.0405e-06
1.07655e-05
2.22754e-06
7.80992e-06
9.88522e-07
5.21556e-06
2.75034e-07
3.01995e-06
1.01653e-06
-4.69772e-07
6.85757e-07
-1.24632e-06
1.89104e-06
-2.27942e-06
2.81819e-06
-3.59639e-06
3.39786e-06
-5.21515e-06
3.51337e-06
-7.04066e-06
2.9077e-06
-9.01057e-06
1.51992e-06
-1.06089e-05
3.94906e-07
-1.18919e-05
-7.324e-07
-1.43446e-05
-2.67727e-06
-1.0838e-05
-5.1988e-06
-1.88166e-06
-3.7844e-06
1.14811e-06
-3.0851e-07
-2.03992e-06
4.63669e-06
-6.85298e-06
1.73142e-05
-1.17954e-05
2.79631e-05
-1.03684e-05
3.14852e-05
1.52058e-06
2.67726e-05
1.4418e-05
1.81071e-05
1.96813e-05
2.08303e-05
2.028e-05
2.65907e-05
1.92761e-05
2.72426e-05
1.75407e-05
2.46953e-05
1.49749e-05
2.07615e-05
1.131e-05
1.78306e-05
7.08296e-06
1.4625e-05
3.50924e-06
1.08671e-05
1.40451e-06
6.64475e-06
4.30537e-07
3.86827e-06
1.49789e-06
-2.11556e-07
1.00193e-06
-5.80798e-07
2.59817e-06
-1.21093e-06
3.82055e-06
-2.54391e-06
4.79827e-06
-4.77436e-06
5.67417e-06
-7.97357e-06
5.46212e-06
-1.13864e-05
3.54389e-06
-1.28502e-05
1.01508e-06
-1.41386e-05
-7.87034e-07
-1.45975e-05
-2.22134e-06
-1.4531e-05
-4.2624e-06
-1.12749e-05
-5.8441e-06
-5.73975e-06
-4.89524e-06
-5.757e-06
4.41584e-06
-8.80553e-06
2.08969e-05
-9.09594e-06
3.30871e-05
-2.66029e-06
3.59206e-05
1.11237e-05
2.4331e-05
2.18548e-05
2.14897e-05
2.66362e-05
2.46909e-05
2.79061e-05
2.78773e-05
2.74256e-05
2.78961e-05
2.62392e-05
2.6131e-05
2.31292e-05
2.36117e-05
1.67944e-05
2.18512e-05
1.01018e-05
1.94103e-05
5.44923e-06
1.53156e-05
2.15855e-06
9.60675e-06
4.83576e-07
4.84174e-06
2.16964e-06
9.2852e-08
1.39617e-06
1.13917e-07
3.24878e-06
-2.05438e-07
4.9897e-06
-2.05997e-06
7.61846e-06
-5.33278e-06
1.06821e-05
-9.61776e-06
1.1394e-05
-1.33514e-05
9.63054e-06
-1.56176e-05
2.79103e-06
-1.57789e-05
-6.32831e-07
-1.59704e-05
-2.65054e-06
-1.54157e-05
-4.3602e-06
-1.39035e-05
-6.14754e-06
-1.09085e-05
-6.10026e-06
-8.66574e-06
6.66666e-07
-8.05432e-06
1.65017e-05
-4.06856e-06
2.86361e-05
6.74895e-06
3.20123e-05
1.892e-05
2.34695e-05
2.65692e-05
2.31477e-05
3.05244e-05
2.55985e-05
3.21412e-05
2.7716e-05
3.26048e-05
2.77499e-05
3.1444e-05
2.65824e-05
2.79173e-05
2.51334e-05
2.24751e-05
2.42592e-05
1.45013e-05
2.37806e-05
6.6351e-06
2.09273e-05
1.96756e-06
1.38368e-05
8.31378e-07
6.959e-06
2.86972e-06
1.98336e-07
1.81228e-06
4.77713e-07
3.78827e-06
8.4345e-08
6.67741e-06
-2.06137e-06
1.18291e-05
-8.26684e-06
1.80291e-05
-1.50299e-05
1.91529e-05
-1.85494e-05
1.64911e-05
-1.86061e-05
7.38195e-06
-1.76552e-05
-1.50524e-06
-1.69375e-05
-2.98069e-06
-1.6439e-05
-5.00839e-06
-1.53404e-05
-6.61147e-06
-1.40225e-05
-7.11033e-06
-1.08296e-05
-4.16704e-06
-6.30699e-06
1.07183e-05
1.42091e-06
1.89449e-05
1.29796e-05
2.42961e-05
2.18644e-05
2.17098e-05
2.72471e-05
2.28847e-05
3.04354e-05
2.49989e-05
3.23474e-05
2.67579e-05
3.26679e-05
2.64473e-05
3.0891e-05
2.57309e-05
2.92184e-05
2.57915e-05
2.72835e-05
2.74881e-05
2.11795e-05
3.04744e-05
1.11039e-05
2.98813e-05
2.77287e-06
2.23234e-05
4.93195e-07
1.24586e-05
4.57281e-06
2.08995e-07
2.49574e-06
8.17813e-07
5.57775e-06
-3.98032e-07
1.10887e-05
-5.85956e-06
2.00358e-05
-1.4544e-05
2.80134e-05
-2.10088e-05
2.85163e-05
-2.25431e-05
2.36755e-05
-2.15401e-05
1.38188e-05
-1.96736e-05
-5.11755e-07
-1.79999e-05
-3.74976e-06
-1.70388e-05
-5.49491e-06
-1.60503e-05
-7.21936e-06
-1.46017e-05
-8.48443e-06
-1.11921e-05
-8.25688e-06
-1.90544e-06
1.3089e-06
7.95898e-06
9.38019e-06
1.56601e-05
1.78552e-05
2.16283e-05
1.95788e-05
2.5553e-05
2.16114e-05
2.84234e-05
2.358e-05
2.99493e-05
2.51659e-05
2.92427e-05
2.63573e-05
2.79467e-05
2.76024e-05
2.78506e-05
2.90112e-05
2.7515e-05
3.21949e-05
2.41123e-05
3.81238e-05
1.70756e-05
3.8957e-05
7.18028e-06
3.32341e-05
2.67271e-07
1.97267e-05
7.04225e-06
5.2547e-09
3.83322e-06
-1.4396e-06
9.52339e-06
-5.99224e-06
1.87117e-05
-1.15962e-05
3.04879e-05
-1.68217e-05
3.64513e-05
-1.99708e-05
3.67661e-05
-2.02544e-05
3.1853e-05
-2.1093e-05
2.17311e-05
-2.08773e-05
3.55838e-06
-1.86777e-05
-3.77826e-06
-1.73009e-05
-5.98764e-06
-1.62856e-05
-8.00698e-06
-1.48192e-05
-9.74601e-06
-1.29754e-05
-1.15437e-05
-1.42907e-06
-9.01634e-06
1.09157e-05
1.41112e-06
1.5901e-05
1.34832e-05
1.97303e-05
1.75516e-05
2.27445e-05
1.99369e-05
2.49765e-05
2.18751e-05
2.58528e-05
2.40664e-05
2.48536e-05
2.75431e-05
2.33785e-05
3.04371e-05
2.21064e-05
3.24992e-05
2.18618e-05
3.60165e-05
2.11103e-05
4.28506e-05
1.76995e-05
4.36266e-05
1.1744e-05
3.84138e-05
5.24629e-06
2.4432e-05
9.24172e-06
-4.83525e-06
4.93589e-06
-1.0273e-05
8.50623e-06
-1.41889e-05
2.13087e-05
-1.43299e-05
3.38238e-05
-1.34983e-05
3.83213e-05
-1.22703e-05
3.84266e-05
-1.14551e-05
3.37283e-05
-1.42974e-05
2.29969e-05
-1.7916e-05
4.91254e-06
-1.79168e-05
-3.3647e-06
-1.6934e-05
-6.26352e-06
-1.58324e-05
-8.8072e-06
-1.46363e-05
-1.11239e-05
-1.28637e-05
-1.37535e-05
-5.44787e-06
-1.42898e-05
6.75987e-06
-6.35308e-06
1.3998e-05
1.08007e-05
1.76579e-05
1.55436e-05
2.05682e-05
1.8443e-05
2.22825e-05
2.02144e-05
2.24349e-05
2.22975e-05
2.08154e-05
2.33385e-05
1.83979e-05
2.6094e-05
1.58059e-05
2.9585e-05
1.48468e-05
3.17148e-05
1.64591e-05
3.75213e-05
1.87808e-05
3.7718e-05
1.7745e-05
3.18077e-05
1.12847e-05
1.87768e-05
4.74343e-06
-1.03561e-05
-3.10743e-05
-1.81393e-05
-2.40984e-05
-1.9705e-05
7.57124e-07
-1.45766e-05
1.85984e-05
-9.59628e-06
2.51345e-05
-4.30412e-06
2.29709e-05
-1.65091e-06
1.58052e-05
-5.03494e-06
-2.3483e-06
-1.30352e-05
-2.69347e-05
-1.63766e-05
-2.32346e-05
-1.61189e-05
-7.24935e-06
-1.49327e-05
-9.7929e-06
-1.41218e-05
-1.28276e-05
-1.24571e-05
-1.48333e-05
-1.02962e-05
-1.58988e-05
3.11139e-07
-1.3206e-05
1.19024e-05
4.83785e-06
1.75901e-05
1.01054e-05
2.07094e-05
1.51876e-05
2.17802e-05
8.59153e-06
2.08748e-05
-6.79667e-06
1.71381e-05
-1.28603e-05
1.33501e-05
-8.34668e-06
1.03893e-05
1.14183e-07
9.92145e-06
-7.75683e-07
1.27868e-05
5.67987e-06
1.71243e-05
4.36746e-06
1.80434e-05
-3.25914e-06
1.24543e-05
-1.91124e-05
-3.09789e-05
-4.33335e-06
-7.51084e-05
-1.15403e-05
-6.38563e-05
-1.60676e-05
-4.28927e-05
-1.29334e-05
-2.59683e-05
-6.74141e-06
-1.82147e-05
-7.02693e-07
-2.32772e-05
1.57135e-06
-3.29764e-05
3.31468e-08
-5.39906e-05
-6.71631e-06
-7.33358e-05
-1.37189e-05
-6.4196e-05
-1.55246e-05
-2.58254e-05
-1.43036e-05
-1.2393e-05
-1.36123e-05
-1.5199e-05
-1.21959e-05
-1.6186e-05
-1.01767e-05
-1.67963e-05
-5.06555e-06
-1.62997e-05
4.89075e-06
-9.08527e-06
1.76163e-05
-3.54154e-05
2.34345e-05
-2.67777e-05
1.66203e-05
-4.22898e-05
7.29675e-06
-6.35002e-05
4.00197e-06
-6.74254e-05
4.53563e-06
-6.2077e-05
4.62082e-06
-5.31773e-05
4.95532e-06
-5.26069e-05
7.03684e-06
-4.60642e-05
9.15392e-06
-4.63637e-05
7.91033e-06
-5.10817e-05
4.31338e-06
-6.2505e-05
-7.22463e-05
-3.02898e-06
-8.0159e-05
-4.54626e-06
-7.32047e-05
-6.41464e-06
-6.74411e-05
-6.95523e-06
-6.28814e-05
-5.27461e-06
-6.06944e-05
-2.98068e-06
-6.56956e-05
-1.10228e-06
-7.32292e-05
1.18945e-06
-8.41495e-05
6.50478e-07
-8.94283e-05
-9.13582e-06
-8.69431e-05
-1.54661e-05
-4.899e-05
-1.48573e-05
-1.80106e-05
-1.37381e-05
-1.80973e-05
-1.248e-05
-1.80734e-05
-1.01842e-05
-1.81364e-05
-5.35475e-06
-1.77709e-05
-2.93588e-06
-3.337e-05
-3.46706e-06
-8.65072e-05
-4.08344e-06
-8.21162e-05
-6.84222e-06
-8.94297e-05
-6.73746e-06
-9.27698e-05
-4.36382e-06
-9.03076e-05
-1.57629e-06
-8.65541e-05
7.5024e-07
-8.15942e-05
2.41234e-06
-7.72227e-05
3.50292e-06
-7.25904e-05
3.85442e-06
-7.03277e-05
3.31594e-06
-6.97e-05
2.6272e-06
-7.41118e-05
-8.07808e-05
-4.1564e-06
-7.64219e-05
-5.03173e-06
-7.09206e-05
-5.1618e-06
-6.61784e-05
-5.14495e-06
-6.74976e-05
-4.35203e-06
-7.02902e-05
-2.51954e-06
-7.47947e-05
3.08683e-07
-8.03966e-05
3.67933e-06
-8.57862e-05
4.93651e-06
-9.00783e-05
-4.45765e-06
-9.08976e-05
-1.47638e-05
-5.76567e-05
-1.72928e-05
-2.24595e-05
-1.49942e-05
-2.07912e-05
-1.35356e-05
-2.02098e-05
-1.1192e-05
-1.95774e-05
-1.00416e-05
-1.93804e-05
-1.09044e-05
-6.98342e-05
-1.28663e-05
-9.83262e-05
-1.19844e-05
-9.65466e-05
-1.02464e-05
-9.52751e-05
-8.55559e-06
-9.33056e-05
-6.1283e-06
-9.06079e-05
-3.18273e-06
-8.70759e-05
-3.79877e-07
-8.23415e-05
1.91884e-06
-7.69404e-05
3.50783e-06
-7.2137e-05
4.23817e-06
-6.9024e-05
4.37658e-06
-6.75237e-05
3.62307e-06
-7.23343e-05
-7.71114e-05
-4.21539e-06
-7.19386e-05
-5.25333e-06
-6.83573e-05
-5.43482e-06
-6.35626e-05
-4.95919e-06
-6.43645e-05
-3.37957e-06
-6.76333e-05
-8.60691e-07
-7.33078e-05
1.99174e-06
-7.97997e-05
4.99543e-06
-8.54953e-05
6.79993e-06
-8.96605e-05
-1.94677e-06
-9.19167e-05
-1.44112e-05
-6.32119e-05
-1.91194e-05
-2.53657e-05
-1.66074e-05
-2.30792e-05
-1.48976e-05
-2.26104e-05
-1.23956e-05
-2.13948e-05
-1.162e-05
-2.16801e-05
-1.26639e-05
-9.58238e-05
-1.45353e-05
-0.000100234
-1.35189e-05
-9.5202e-05
-1.13355e-05
-9.37594e-05
-9.39206e-06
-9.24373e-05
-6.93566e-06
-8.99514e-05
-3.9445e-06
-8.68155e-05
-9.9713e-07
-8.2132e-05
1.6625e-06
-7.63925e-05
3.55794e-06
-7.06354e-05
4.55061e-06
-6.67606e-05
4.88483e-06
-6.54242e-05
3.91092e-06
-6.9989e-05
-7.26398e-05
-4.66118e-06
-6.68219e-05
-6.21494e-06
-6.51778e-05
-5.61011e-06
-6.10005e-05
-4.47875e-06
-6.20742e-05
-2.36894e-06
-6.62592e-05
5.29449e-07
-7.26464e-05
3.74048e-06
-7.9517e-05
6.7924e-06
-8.52374e-05
8.92277e-06
-8.90773e-05
9.76838e-07
-9.16045e-05
-1.39027e-05
-6.80521e-05
-2.0962e-05
-2.85341e-05
-1.835e-05
-2.55611e-05
-1.63388e-05
-2.54686e-05
-1.29593e-05
-2.50163e-05
-1.18915e-05
-2.56075e-05
-1.42265e-05
-0.000100398
-1.61192e-05
-9.86465e-05
-1.4343e-05
-9.39487e-05
-1.25281e-05
-9.25976e-05
-1.06078e-05
-9.13519e-05
-8.12884e-06
-8.93101e-05
-5.07565e-06
-8.64831e-05
-1.92666e-06
-8.20704e-05
1.02452e-06
-7.62886e-05
3.47906e-06
-6.98865e-05
4.89304e-06
-6.48293e-05
5.49872e-06
-6.30813e-05
4.25242e-06
-6.69718e-05
-6.79455e-05
-5.30173e-06
-6.23283e-05
-6.51634e-06
-6.18288e-05
-5.69768e-06
-5.86435e-05
-4.04614e-06
-6.02427e-05
-1.43489e-06
-6.52827e-05
1.80884e-06
-7.21785e-05
5.12558e-06
-7.91307e-05
8.16808e-06
-8.46292e-05
1.02011e-05
-8.81571e-05
3.19312e-06
-9.02956e-05
-1.38184e-05
-7.56946e-05
-2.29561e-05
-3.37094e-05
-1.98183e-05
-2.80993e-05
-1.77726e-05
-2.86011e-05
-1.43082e-05
-3.01044e-05
-1.08598e-05
-3.08545e-05
-1.23803e-05
-9.73211e-05
-1.64022e-05
-9.66646e-05
-1.50476e-05
-9.24615e-05
-1.33631e-05
-9.12003e-05
-1.15977e-05
-9.01454e-05
-9.25097e-06
-8.84638e-05
-6.21697e-06
-8.59565e-05
-2.96109e-06
-8.19638e-05
3.71596e-07
-7.6387e-05
3.31066e-06
-6.95442e-05
5.35142e-06
-6.33904e-05
6.39436e-06
-6.08583e-05
4.87285e-06
-6.36037e-05
-6.31992e-05
-5.21124e-06
-5.82347e-05
-6.66873e-06
-5.86716e-05
-5.53937e-06
-5.63804e-05
-3.38753e-06
-5.88958e-05
-2.71385e-07
-6.45311e-05
3.38277e-06
-7.179e-05
6.7947e-06
-7.86095e-05
9.52837e-06
-8.36872e-05
1.12134e-05
-8.68303e-05
7.71372e-06
-8.85685e-05
-1.07276e-05
-8.44977e-05
-2.37687e-05
-4.8756e-05
-2.03822e-05
-3.05138e-05
-1.82913e-05
-3.13019e-05
-1.48796e-05
-3.47002e-05
-1.02558e-05
-3.57913e-05
-1.08018e-05
-9.0972e-05
-1.66098e-05
-9.46089e-05
-1.56731e-05
-9.07224e-05
-1.38286e-05
-8.94574e-05
-1.22612e-05
-8.8827e-05
-1.02278e-05
-8.72357e-05
-7.38319e-06
-8.51799e-05
-4.1422e-06
-8.16123e-05
-5.41654e-07
-7.63391e-05
2.83166e-06
-6.93066e-05
5.41059e-06
-6.24593e-05
6.65764e-06
-5.86979e-05
5.07502e-06
-6.01321e-05
-5.88852e-05
-5.18564e-06
-5.41524e-05
-6.58109e-06
-5.55714e-05
-5.20037e-06
-5.42321e-05
-2.54e-06
-5.76688e-05
9.25161e-07
-6.39722e-05
4.77446e-06
-7.14991e-05
8.14301e-06
-7.8153e-05
1.06152e-05
-8.27139e-05
1.21093e-05
-8.53781e-05
1.21886e-05
-8.66435e-05
1.59465e-08
-8.70579e-05
-1.63541e-05
-6.53648e-05
-2.01571e-05
-3.20402e-05
-1.81896e-05
-3.29306e-05
-1.57621e-05
-3.79473e-05
-1.20063e-05
-4.27572e-05