/*--------------------------------*- C++ -*----------------------------------*\
| =========                 |                                                 |
| \\      /  F ield         | OpenFOAM: The Open Source CFD Toolbox           |
|  \\    /   O peration     | Version:  v1606+                                |
|   \\  /    A nd           | Web:      www.OpenFOAM.com                      |
|    \\/     M anipulation  |                                                 |
\*---------------------------------------------------------------------------*/
FoamFile
{
    version     2.0;
    format      ascii;
    class       surfaceScalarField;
    location    "0.1";
    object      phi;
}
// * * * * * * * * * * * * * * * * * * * * * * * * * * * * * * * * * * * * * //

dimensions      [0 3 -1 0 0 0 0];

internalField   nonuniform List<scalar> 
1460
(
-9.26604e-07
1.6884e-06
-5.03281e-07
2.17105e-06
7.66255e-08
2.58022e-06
7.63094e-07
2.80803e-06
1.5377e-06
2.79723e-06
2.30964e-06
2.42663e-06
2.81879e-06
1.47391e-06
2.80384e-06
4.55742e-08
2.26588e-06
-1.40081e-06
1.47637e-06
-2.44666e-06
7.12652e-07
-2.92239e-06
-2.92208e-06
9.76044e-08
-7.34351e-07
1.30155e-06
-3.39446e-07
1.77615e-06
1.30926e-07
2.10984e-06
6.60221e-07
2.27874e-06
1.23996e-06
2.21749e-06
1.80334e-06
1.86324e-06
2.15599e-06
1.12127e-06
2.14829e-06
5.32686e-08
1.80273e-06
-1.05526e-06
1.26284e-06
-1.90677e-06
6.94425e-07
-2.35398e-06
-2.42406e-06
1.96406e-07
-5.97613e-07
8.42274e-07
-2.13856e-07
1.39239e-06
1.76218e-07
1.71977e-06
5.99127e-07
1.85583e-06
1.03338e-06
1.78324e-06
1.43244e-06
1.46419e-06
1.69004e-06
8.63662e-07
1.70727e-06
3.60449e-08
1.48028e-06
-8.28268e-07
1.08569e-06
-1.51218e-06
6.40612e-07
-1.9089e-06
-2.01695e-06
2.33501e-07
-4.70141e-07
3.67542e-07
-1.14105e-07
1.03636e-06
2.08326e-07
1.39734e-06
5.51261e-07
1.51289e-06
8.92214e-07
1.44228e-06
1.19156e-06
1.16484e-06
1.38203e-06
6.73194e-07
1.39765e-06
2.04243e-08
1.23032e-06
-6.60936e-07
9.32782e-07
-1.21464e-06
5.84731e-07
-1.56085e-06
2.52253e-07
-1.68447e-06
-3.59432e-07
-2.64353e-06
-6.75929e-07
-2.23973e-06
-8.79493e-07
-1.80736e-06
-1.01065e-06
-1.39603e-06
-1.10139e-06
-1.01556e-06
-1.16966e-06
-6.63912e-07
-1.22459e-06
-3.2323e-07
-1.26924e-06
2.10116e-08
-1.30674e-06
3.83314e-07
-1.3365e-06
7.71467e-07
-1.35116e-06
1.16741e-06
1.45314e-06
-1.24513e-06
-1.96046e-07
-2.25108e-06
-4.82635e-07
-1.95314e-06
-6.85298e-07
-1.60469e-06
-8.26959e-07
-1.25437e-06
-9.2692e-07
-9.15602e-07
-9.99328e-07
-5.91504e-07
-1.05287e-06
-2.69691e-07
-1.09203e-06
6.01777e-08
-1.12594e-06
4.17221e-07
-1.16227e-06
8.07801e-07
-1.20032e-06
1.20546e-06
1.372e-06
-1.11918e-06
-9.95627e-08
-1.91802e-06
-3.56968e-07
-1.69574e-06
-5.47621e-07
-1.41404e-06
-6.84828e-07
-1.11716e-06
-7.82883e-07
-8.17547e-07
-8.52909e-07
-5.21478e-07
-9.00257e-07
-2.22344e-07
-9.31141e-07
9.10619e-08
-9.5901e-07
4.4509e-07
-1.0078e-06
8.56589e-07
-1.07956e-06
1.27722e-06
1.34755e-06
-1.05512e-06
-3.04321e-08
-1.63533e-06
-2.62207e-07
-1.46396e-06
-4.38133e-07
-1.23811e-06
-5.68448e-07
-9.86843e-07
-6.62236e-07
-7.23759e-07
-7.27901e-07
-4.55813e-07
-7.69023e-07
-1.81222e-07
-7.88441e-07
1.1048e-07
-8.01838e-07
4.58486e-07
-8.61346e-07
9.16098e-07
-9.48594e-07
1.36447e-06
-9.42586e-07
1.34154e-06
-9.3068e-07
1.68326e-06
-5.04501e-07
2.16942e-06
7.61027e-08
2.57975e-06
7.62618e-07
2.80793e-06
1.53729e-06
2.79744e-06
2.30943e-06
2.42726e-06
2.81911e-06
1.47493e-06
2.80485e-06
4.65215e-08
2.26727e-06
-1.40043e-06
1.47759e-06
-2.44699e-06
7.13363e-07
-2.9232e-06
-2.92307e-06
9.78038e-08
-7.34869e-07
1.29895e-06
-3.40151e-07
1.77471e-06
1.30527e-07
2.10908e-06
6.59943e-07
2.27852e-06
1.23979e-06
2.2176e-06
1.80338e-06
1.86368e-06
2.15639e-06
1.12191e-06
2.14901e-06
5.39086e-08
1.80352e-06
-1.05494e-06
1.26345e-06
-1.90691e-06
6.94775e-07
-2.35452e-06
-2.42481e-06
1.96523e-07
-5.97264e-07
8.41094e-07
-2.14044e-07
1.39149e-06
1.7591e-07
1.71912e-06
5.9886e-07
1.85557e-06
1.03318e-06
1.78328e-06
1.43237e-06
1.46448e-06
1.69018e-06
8.64107e-07
1.70758e-06
3.65045e-08
1.48067e-06
-8.28038e-07
1.08604e-06
-1.51228e-06
6.40849e-07
-1.90933e-06
-2.01754e-06
2.33576e-07
-4.69467e-07
3.67975e-07
-1.14045e-07
1.03606e-06
2.0815e-07
1.39693e-06
5.50998e-07
1.51272e-06
8.9199e-07
1.44228e-06
1.19143e-06
1.16505e-06
1.38203e-06
6.73503e-07
1.3978e-06
2.07355e-08
1.23056e-06
-6.60799e-07
9.33032e-07
-1.21475e-06
5.84893e-07
-1.56119e-06
2.52294e-07
-1.68494e-06
-3.59581e-07
-2.64452e-06
-6.7627e-07
-2.24062e-06
-8.79925e-07
-1.80808e-06
-1.01113e-06
-1.39655e-06
-1.10189e-06
-1.01593e-06
-1.17016e-06
-6.64134e-07
-1.22507e-06
-3.23329e-07
-1.26969e-06
2.10267e-08
-1.30716e-06
3.83441e-07
-1.33694e-06
7.71683e-07
-1.35168e-06
1.16763e-06
1.45318e-06
-1.96114e-07
-2.25188e-06
-4.82848e-07
-1.95388e-06
-6.85607e-07
-1.60532e-06
-8.27338e-07
-1.25482e-06
-9.27343e-07
-9.15929e-07
-9.99779e-07
-5.91699e-07
-1.05334e-06
-2.69765e-07
-1.09253e-06
6.02146e-08
-1.12647e-06
4.1738e-07
-1.16286e-06
8.08077e-07
-1.20102e-06
1.20578e-06
1.3722e-06
-9.96393e-08
-1.91867e-06
-3.57167e-07
-1.69635e-06
-5.47909e-07
-1.41458e-06
-6.85174e-07
-1.11756e-06
-7.83268e-07
-8.17836e-07
-8.53319e-07
-5.21647e-07
-9.00688e-07
-2.22396e-07
-9.31606e-07
9.11326e-08
-9.59519e-07
4.45293e-07
-1.00838e-06
8.56936e-07
-1.08032e-06
1.27772e-06
1.34808e-06
-3.05114e-08
-1.63586e-06
-2.6239e-07
-1.46448e-06
-4.38399e-07
-1.23857e-06
-5.68751e-07
-9.87203e-07
-6.62577e-07
-7.24009e-07
-7.28273e-07
-4.55951e-07
-7.69415e-07
-1.81254e-07
-7.88856e-07
1.10574e-07
-8.0228e-07
4.58716e-07
-8.61879e-07
9.16535e-07
-9.49375e-07
1.36522e-06
1.34272e-06
-1.12842e-07
4.80384e-07
4.38388e-09
9.19132e-07
2.3911e-07
1.16261e-06
5.09125e-07
1.24288e-06
7.78239e-07
1.17317e-06
1.00891e-06
9.34166e-07
1.15135e-06
5.30754e-07
1.16226e-06
9.51508e-09
1.03597e-06
-5.34639e-07
8.07725e-07
-9.86402e-07
5.31064e-07
-1.28419e-06
-1.40912e-06
2.55713e-07
-4.27558e-08
5.2314e-07
6.54434e-08
8.10933e-07
2.56494e-07
9.71561e-07
4.70977e-07
1.02839e-06
6.85423e-07
9.58725e-07
8.65896e-07
7.53693e-07
9.74649e-07
4.22001e-07
9.82676e-07
1.48754e-09
8.84839e-07
-4.36801e-07
7.0541e-07
-8.06973e-07
4.81907e-07
-1.06069e-06
-1.1792e-06
2.51988e-07
5.78565e-09
5.17354e-07
1.05873e-07
7.10845e-07
2.60699e-07
8.16735e-07
4.37046e-07
8.52048e-07
6.10394e-07
7.85376e-07
7.53732e-07
6.10356e-07
8.38696e-07
3.37037e-07
8.44414e-07
-4.23045e-09
7.66207e-07
-3.58595e-07
6.22047e-07
-6.62812e-07
4.38481e-07
-8.77124e-07
-9.85109e-07
2.44385e-07
3.36088e-08
4.83745e-07
1.28035e-07
6.1642e-07
2.58797e-07
6.85973e-07
4.06191e-07
7.04654e-07
5.49065e-07
6.42502e-07
6.65117e-07
4.94304e-07
7.32821e-07
2.69333e-07
7.36498e-07
-7.90767e-09
6.72752e-07
-2.94848e-07
5.5426e-07
-5.44321e-07
4.00898e-07
-7.23762e-07
-8.19227e-07
2.35017e-07
4.90943e-08
4.34651e-07
1.3888e-07
5.26634e-07
2.53186e-07
5.71667e-07
3.78765e-07
5.79074e-07
4.98887e-07
5.2238e-07
5.94642e-07
3.98549e-07
6.49678e-07
2.14297e-07
6.51844e-07
-1.0073e-08
5.98619e-07
-2.41624e-07
4.99187e-07
-4.4489e-07
3.68807e-07
-5.93382e-07
-6.75583e-07
2.25164e-07
5.758e-08
3.77071e-07
1.43404e-07
4.4081e-07
2.45615e-07
4.69456e-07
3.54928e-07
4.69761e-07
4.57694e-07
4.19614e-07
5.3839e-07
3.17854e-07
5.8407e-07
1.68616e-07
5.85149e-07
-1.11515e-08
5.39713e-07
-1.96188e-07
4.54503e-07
-3.5968e-07
3.4172e-07
-4.80599e-07
-5.49414e-07
2.15551e-07
6.21713e-08
3.149e-07
1.44332e-07
3.58649e-07
2.37213e-07
3.76575e-07
3.34318e-07
3.72656e-07
4.23848e-07
3.30084e-07
4.93447e-07
2.48254e-07
5.32205e-07
1.29858e-07
5.32517e-07
-1.14641e-08
4.92883e-07
-1.56554e-07
4.18413e-07
-2.85209e-07
3.19086e-07
-3.81272e-07
-4.36906e-07
2.06578e-07
6.43886e-08
2.50511e-07
1.43033e-07
2.80005e-07
2.29018e-07
2.9059e-07
3.16714e-07
2.84959e-07
3.9626e-07
2.50538e-07
4.57597e-07
1.86916e-07
4.91272e-07
9.61837e-08
4.91066e-07
-1.12581e-08
4.55762e-07
-1.21249e-07
3.89455e-07
-2.18902e-07
3.00366e-07
-2.92184e-07
-3.34996e-07
1.98457e-07
6.50292e-08
1.85482e-07
1.40698e-07
2.04336e-07
2.21013e-07
2.10275e-07
3.0172e-07
2.04253e-07
3.73931e-07
1.78327e-07
4.29164e-07
1.31683e-07
4.59167e-07
6.61804e-08
4.58638e-07
-1.07288e-08
4.26598e-07
-8.92092e-08
3.66425e-07
-1.5873e-07
2.85102e-07
-2.10861e-07
-2.41237e-07
1.91342e-07
6.4707e-08
1.20775e-07
1.37534e-07
1.3151e-07
2.13718e-07
1.3409e-07
2.89052e-07
1.28919e-07
3.55962e-07
1.11417e-07
4.06755e-07
8.08903e-08
4.34147e-07
3.87882e-08
4.33437e-07
-1.00183e-08
4.03862e-07
-5.96348e-08
3.48298e-07
-1.03165e-07
2.72833e-07
-1.35396e-07
-1.53675e-07
1.85271e-07
6.36219e-08
5.71531e-08
1.33844e-07
6.12878e-08
2.06379e-07
6.15546e-08
2.77255e-07
5.80433e-08
3.39765e-07
4.89076e-08
3.86734e-07
3.39208e-08
4.1163e-07
1.38922e-08
4.10188e-07
-8.5763e-09
3.81937e-07
-3.13832e-08
3.29367e-07
-5.05961e-08
2.58033e-07
-6.40613e-08
-7.08256e-08
1.75184e-07
5.71531e-08
1.18441e-07
1.79996e-07
2.38039e-07
2.86946e-07
3.20867e-07
3.34759e-07
3.26183e-07
2.948e-07
2.44204e-07
1.80143e-07
1.09317e-07
9.78779e-09
-1.38941e-06
-1.92812e-07
-1.26136e-06
-3.52436e-07
-1.07849e-06
-4.73758e-07
-8.65521e-07
-5.61761e-07
-6.35756e-07
-6.21705e-07
-3.9587e-07
-6.55943e-07
-1.46984e-07
-6.64354e-07
1.18891e-07
-6.36603e-07
4.30736e-07
-5.66086e-07
8.45581e-07
-4.48091e-07
1.24647e-06
8.93454e-07
4.01774e-08
-1.17759e-06
-1.38444e-07
-1.08274e-06
-2.83957e-07
-9.32976e-07
-3.96484e-07
-7.52994e-07
-4.78403e-07
-5.53836e-07
-5.32451e-07
-3.41822e-07
-5.5974e-07
-1.19695e-07
-5.58508e-07
1.17659e-07
-5.12179e-07
3.84407e-07
-3.74236e-07
7.07638e-07
-1.47316e-07
1.01955e-06
7.46138e-07
6.0835e-08
-9.94045e-07
-9.82893e-08
-9.23617e-07
-2.30089e-07
-8.01176e-07
-3.3372e-07
-6.49362e-07
-4.09374e-07
-4.78182e-07
-4.58118e-07
-2.93078e-07
-4.80065e-07
-9.77487e-08
-4.72301e-07
1.09896e-07
-4.23193e-07
3.35298e-07
-2.99413e-07
5.83858e-07
-9.08911e-08
8.11033e-07
6.55247e-07
7.45698e-08
-8.33598e-07
-6.82337e-08
-7.80814e-07
-1.87644e-07
-6.81766e-07
-2.82838e-07
-5.54169e-07
-3.52829e-07
-4.08191e-07
-3.96978e-07
-2.48929e-07
-4.15009e-07
-7.97179e-08
-4.03512e-07
9.83982e-08
-3.55489e-07
2.87275e-07
-2.53318e-07
4.81687e-07
-9.08703e-08
6.48585e-07
5.64376e-07
8.35213e-08
-6.91955e-07
-4.50772e-08
-6.52215e-07
-1.54437e-07
-5.72407e-07
-2.42106e-07
-4.66499e-07
-3.06735e-07
-3.43562e-07
-3.47043e-07
-2.08621e-07
-3.6214e-07
-6.46202e-08
-3.49262e-07
8.55199e-08
-3.03602e-07
2.41615e-07
-2.1671e-07
3.94795e-07
-8.78198e-08
5.19695e-07
4.76557e-07
8.91437e-08
-5.65548e-07
-2.70592e-08
-5.36012e-07
-1.28347e-07
-4.71119e-07
-2.09706e-07
-3.85141e-07
-2.69724e-07
-2.83544e-07
-3.06657e-07
-1.71688e-07
-3.1962e-07
-5.16573e-08
-3.06429e-07
7.23285e-08
-2.63925e-07
1.99112e-07
-1.88514e-07
3.19384e-07
-8.24686e-08
4.13649e-07
3.94088e-07
9.23448e-08
-4.51315e-07
-1.35448e-08
-4.30123e-07
-1.07882e-07
-3.76782e-07
-1.83854e-07
-3.09168e-07
-2.39706e-07
-2.27693e-07
-2.74277e-07
-1.37117e-07
-2.85638e-07
-4.02968e-08
-2.72801e-07
5.94922e-08
-2.33499e-07
1.59809e-07
-1.6699e-07
2.52875e-07
-7.7063e-08
3.23722e-07
3.17025e-07
9.37167e-08
-3.46575e-07
-5.72505e-09
-3.30681e-07
-9.20495e-08
-2.90457e-07
-1.63632e-07
-2.37586e-07
-2.16191e-07
-1.75133e-07
-2.48534e-07
-1.04774e-07
-2.58976e-07
-2.98551e-08
-2.46622e-07
4.71386e-08
-2.10242e-07
1.23429e-07
-1.50606e-07
1.9324e-07
-7.21588e-08
2.45274e-07
2.44866e-07
9.40693e-08
-2.49302e-07
9.23566e-10
-2.37535e-07
-8.10145e-08
-2.08519e-07
-1.47858e-07
-1.70743e-07
-1.97938e-07
-1.25053e-07
-2.28611e-07
-7.41008e-08
-2.38359e-07
-2.01072e-08
-2.26533e-07
3.53126e-08
-1.92654e-07
8.95498e-08
-1.38244e-07
1.38829e-07
-6.79475e-08
1.74978e-07
1.76919e-07
9.37594e-08
-1.5779e-07
5.60005e-09
-1.49376e-07
-7.19852e-08
-1.30934e-07
-1.36625e-07
-1.06103e-07
-1.84579e-07
-7.70985e-08
-2.13584e-07
-4.50961e-08
-2.22847e-07
-1.0844e-08
-2.11454e-07
2.3919e-08
-1.796e-07
5.76964e-08
-1.29059e-07
8.82876e-08
-6.44853e-08
1.10405e-07
1.12433e-07
8.84537e-08
-7.10602e-08
4.79671e-09
-6.5719e-08
-6.89599e-08
-5.71772e-08
-1.29937e-07
-4.51261e-08
-1.75335e-07
-3.17004e-08
-2.0272e-07
-1.77113e-08
-2.10904e-07
-2.66005e-09
-1.99565e-07
1.25799e-08
-1.69248e-07
2.73798e-08
-1.21671e-07
4.07109e-08
-6.137e-08
5.01034e-08
5.10633e-08
3.82569e-08
-2.74622e-08
-8.46394e-08
-1.29765e-07
-1.61466e-07
-1.79177e-07
-1.81837e-07
-1.69257e-07
-1.41878e-07
-1.01167e-07
-5.10633e-08
-1.12659e-07
4.80634e-07
4.42616e-09
9.18978e-07
2.39e-07
1.16235e-06
5.08979e-07
1.24274e-06
7.78084e-07
1.17318e-06
1.00882e-06
9.34309e-07
1.15136e-06
5.30967e-07
1.16238e-06
9.71771e-09
1.03615e-06
-5.34567e-07
8.07899e-07
-9.86502e-07
5.31171e-07
-1.28447e-06
-1.4095e-06
2.55729e-07
-4.26511e-08
5.23285e-07
6.5476e-08
8.10851e-07
2.56451e-07
9.71377e-07
4.70884e-07
1.02831e-06
6.85319e-07
9.58745e-07
8.65849e-07
7.53778e-07
9.74661e-07
4.22155e-07
9.8276e-07
1.61885e-09
8.84963e-07
-4.36771e-07
7.05526e-07
-8.07065e-07
4.81972e-07
-1.06091e-06
-1.17951e-06
2.51983e-07
5.83796e-09
5.17447e-07
1.05898e-07
7.10791e-07
2.60656e-07
8.1662e-07
4.36981e-07
8.51981e-07
6.10338e-07
7.85388e-07
7.53695e-07
6.10421e-07
8.38707e-07
3.37143e-07
8.44472e-07
-4.14642e-09
7.66293e-07
-3.58592e-07
6.22122e-07
-6.62894e-07
4.38517e-07
-8.77308e-07
-9.85361e-07
2.44366e-07
3.36478e-08
4.83799e-07
1.28052e-07
6.16386e-07
2.58771e-07
6.85901e-07
4.06147e-07
7.04605e-07
5.49012e-07
6.42523e-07
6.65092e-07
4.94341e-07
7.3283e-07
2.69405e-07
7.3654e-07
-7.8566e-09
6.72807e-07
-2.94858e-07
5.54306e-07
-5.44392e-07
4.00912e-07
-7.23915e-07
-8.19435e-07
2.34987e-07
4.91127e-08
4.34687e-07
1.38893e-07
5.26606e-07
2.5317e-07
5.71624e-07
3.78728e-07
5.79047e-07
4.98864e-07
5.22387e-07
5.94625e-07
3.98581e-07
6.49684e-07
2.14345e-07
6.51872e-07
-1.00441e-08
5.98655e-07
-2.41642e-07
4.99212e-07
-4.44949e-07
3.68807e-07
-5.93509e-07
-6.75755e-07
2.25126e-07
5.75928e-08
3.77094e-07
1.4341e-07
4.40789e-07
2.45605e-07
4.69429e-07
3.54905e-07
4.69747e-07
4.57675e-07
4.19617e-07
5.38376e-07
3.17879e-07
5.84074e-07
1.68647e-07
5.85166e-07
-1.11363e-08
5.39731e-07
-1.96207e-07
4.54516e-07
-3.59734e-07
3.41709e-07
-4.80702e-07
-5.49554e-07
2.15507e-07
6.21768e-08
3.14917e-07
1.44325e-07
3.58641e-07
2.37191e-07
3.76563e-07
3.34298e-07
3.72639e-07
4.2383e-07
3.30085e-07
4.93437e-07
2.48273e-07
5.32206e-07
1.29878e-07
5.32527e-07
-1.14576e-08
4.92893e-07
-1.56573e-07
4.18415e-07
-2.85256e-07
3.19067e-07
-3.81354e-07
-4.37017e-07
2.06531e-07
6.43932e-08
2.50524e-07
1.43038e-07
2.79996e-07
2.29013e-07
2.90588e-07
3.16677e-07
2.84976e-07
3.96246e-07
2.50515e-07
4.57589e-07
1.8693e-07
4.91271e-07
9.61956e-08
4.91071e-07
-1.12568e-08
4.55764e-07
-1.21266e-07
3.89448e-07
-2.1894e-07
3.00341e-07
-2.92247e-07
-3.35082e-07
1.98406e-07
6.50277e-08
1.85496e-07
1.40683e-07
2.0434e-07
2.21008e-07
2.10263e-07
3.01712e-07
2.04272e-07
3.7392e-07
1.78307e-07
4.29157e-07
1.31692e-07
4.59166e-07
6.61873e-08
4.58639e-07
-1.073e-08
4.26596e-07
-8.92229e-08
3.66414e-07
-1.58758e-07
2.85074e-07
-2.10907e-07
-2.41299e-07
1.9129e-07
6.47076e-08
1.20788e-07
1.37537e-07
1.3151e-07
2.1372e-07
1.3408e-07
2.89054e-07
1.28939e-07
3.55953e-07
1.11408e-07
4.0675e-07
8.08957e-08
4.34145e-07
3.87919e-08
4.33435e-07
-1.00203e-08
4.03857e-07
-5.96447e-08
3.48283e-07
-1.03185e-07
2.72802e-07
-1.35426e-07
-1.53715e-07
1.85218e-07
6.36257e-08
5.71627e-08
1.33851e-07
6.12847e-08
2.06375e-07
6.15564e-08
2.77255e-07
5.80584e-08
3.3976e-07
4.89037e-08
3.86732e-07
3.39235e-08
4.1163e-07
1.38937e-08
4.10188e-07
-8.57797e-09
3.81932e-07
-3.13888e-08
3.29353e-07
-5.06061e-08
2.58003e-07
-6.40758e-08
-7.08453e-08
1.75133e-07
5.71627e-08
1.18447e-07
1.80004e-07
2.38062e-07
2.86966e-07
3.20889e-07
3.34783e-07
3.26205e-07
2.94816e-07
2.4421e-07
1.80134e-07
1.09289e-07
9.70887e-09
-1.38984e-06
-1.92978e-07
-1.26179e-06
-3.52664e-07
-1.07889e-06
-4.74039e-07
-8.65828e-07
-5.62086e-07
-6.35962e-07
-6.22043e-07
-3.95995e-07
-6.56295e-07
-1.47002e-07
-6.64717e-07
1.18995e-07
-6.36984e-07
4.30983e-07
-5.66497e-07
8.46048e-07
-4.48478e-07
1.2472e-06
8.94241e-07
4.00956e-08
-1.17795e-06
-1.38607e-07
-1.08309e-06
-2.84146e-07
-9.33347e-07
-3.96738e-07
-7.53236e-07
-4.78683e-07
-5.54017e-07
-5.32758e-07
-3.4192e-07
-5.60058e-07
-1.19702e-07
-5.58831e-07
1.17768e-07
-5.12498e-07
3.84651e-07
-3.74519e-07
7.08068e-07
-1.47498e-07
1.02018e-06
7.46743e-07
6.07556e-08
-9.94342e-07
-9.83984e-08
-9.23932e-07
-2.30325e-07
-8.01421e-07
-3.33937e-07
-6.49623e-07
-4.09631e-07
-4.78324e-07
-4.58398e-07
-2.93153e-07
-4.80351e-07
-9.77487e-08
-4.7258e-07
1.09997e-07
-4.23465e-07
3.35536e-07
-2.99626e-07
5.84229e-07
-9.09962e-08
8.11547e-07
6.55747e-07
7.44899e-08
-8.33845e-07
-6.83654e-08
-7.81077e-07
-1.87816e-07
-6.8197e-07
-2.83081e-07
-5.54358e-07
-3.53067e-07
-4.08338e-07
-3.97232e-07
-2.48987e-07
-4.15268e-07
-7.97128e-08
-4.03767e-07
9.84964e-08
-3.55715e-07
2.87484e-07
-2.5349e-07
4.82004e-07
-9.0951e-08
6.49008e-07
5.64796e-07
8.34415e-08
-6.9216e-07
-4.52041e-08
-6.52431e-07
-1.54593e-07
-5.72582e-07
-2.42277e-07
-4.66674e-07
-3.06949e-07
-3.43665e-07
-3.47275e-07
-2.08662e-07
-3.62375e-07
-6.46132e-08
-3.49489e-07
8.56107e-08
-3.038e-07
2.41795e-07
-2.16857e-07
3.9506e-07
-8.78904e-08
5.20042e-07
4.76906e-07
8.90645e-08
-5.65717e-07
-2.7163e-08
-5.36204e-07
-1.28496e-07
-4.71249e-07
-2.09887e-07
-3.85283e-07
-2.69918e-07
-2.83634e-07
-3.06862e-07
-1.71718e-07
-3.19835e-07
-5.16399e-08
-3.06631e-07
7.24068e-08
-2.64101e-07
1.99265e-07
-1.88643e-07
3.19602e-07
-8.25318e-08
4.1393e-07
3.94374e-07
9.22641e-08
-4.51451e-07
-1.3669e-08
-4.30271e-07
-1.08006e-07
-3.76912e-07
-1.84024e-07
-3.09264e-07
-2.3989e-07
-2.27768e-07
-2.74472e-07
-1.37137e-07
-2.85835e-07
-4.02768e-08
-2.72986e-07
5.95581e-08
-2.33658e-07
1.59936e-07
-1.67105e-07
2.5305e-07
-7.71204e-08
3.23946e-07
3.17253e-07
9.3636e-08
-3.46681e-07
-5.83532e-09
-3.30799e-07
-9.21922e-08
-2.90555e-07
-1.63795e-07
-2.37661e-07
-2.16364e-07
-1.752e-07
-2.48724e-07
-1.04777e-07
-2.59159e-07
-2.98412e-08
-2.46794e-07
4.71926e-08
-2.10387e-07
1.23529e-07
-1.50711e-07
1.93374e-07
-7.22114e-08
2.45446e-07
2.45042e-07
9.39887e-08
-2.49379e-07
8.10217e-10
-2.37621e-07
-8.11564e-08
-2.08589e-07
-1.48013e-07
-1.70805e-07
-1.98139e-07
-1.25074e-07
-2.28795e-07
-7.41208e-08
-2.38531e-07
-2.01048e-08
-2.26695e-07
3.53564e-08
-1.92789e-07
8.96232e-08
-1.38341e-07
1.38925e-07
-6.79963e-08
1.75102e-07
1.77046e-07
9.36796e-08
-1.5784e-07
5.48962e-09
-1.49431e-07
-7.21195e-08
-1.30979e-07
-1.36792e-07
-1.06132e-07
-1.84735e-07
-7.71303e-08
-2.13758e-07
-4.50982e-08
-2.23019e-07
-1.08443e-08
-2.11607e-07
2.39451e-08
-1.79727e-07
5.77427e-08
-1.2915e-07
8.83489e-08
-6.45317e-08
1.10483e-07
1.12514e-07
8.8377e-08
-7.10842e-08
4.69165e-09
-6.57455e-08
-6.90894e-08
-5.71984e-08
-1.3008e-07
-4.51422e-08
-1.75504e-07
-3.17055e-08
-2.02891e-07
-1.77117e-08
-2.11058e-07
-2.67737e-09
-1.99709e-07
1.25966e-08
-1.69368e-07
2.74015e-08
-1.21758e-07
4.07387e-08
-6.14139e-08
5.01389e-08
5.11001e-08
3.82049e-08
-2.75406e-08
-8.4739e-08
-1.29881e-07
-1.61587e-07
-1.79298e-07
-1.81976e-07
-1.69379e-07
-1.41978e-07
-1.01239e-07
-5.11001e-08
)
;

boundaryField
{
    rotor
    {
        type            calculated;
        value           nonuniform 0();
    }
    stator
    {
        type            calculated;
        value           nonuniform List<scalar> 
96
(
-6.34697e-35
0
4.81482e-35
0
0
4.81482e-35
0
0
-9.0278e-36
0
-5.56026e-35
1.87344e-35
1.65732e-34
0
-4.21985e-35
3.00927e-36
0
-6.29361e-36
6.01853e-35
-1.23121e-35
9.60214e-35
0
9.62965e-35
4.78732e-35
4.81482e-35
7.19473e-35
2.40741e-35
1.20371e-35
0
-1.20371e-35
0
0
0
0
0
0
5.22024e-54
0
-6.77085e-36
-3.14681e-36
0
-1.20371e-35
0
2.40741e-35
-2.40741e-35
0
-1.20371e-34
0
0
-3.00927e-36
6.01853e-36
0
3.00927e-36
-6.01853e-36
0
1.20371e-35
0
0
0
0
0
3.00927e-36
-6.01853e-36
3.00927e-36
0
3.00927e-36
-3.00927e-36
0
0
0
0
0
0
-3.00927e-36
6.01853e-36
-3.00927e-36
0
0
3.00927e-36
0
0
0
0
6.01853e-36
0
3.00927e-36
-6.01853e-36
3.00927e-36
0
0
-3.00927e-36
0
0
0
0
-6.01853e-36
)
;
    }
    AMI1
    {
        type            cyclicAMI;
        value           nonuniform 0();
    }
    AMI2
    {
        type            cyclicAMI;
        value           nonuniform List<scalar> 
48
(
-1.99265e-06
-2.59438e-06
-3.16012e-06
-3.4945e-06
-3.57184e-06
-3.19857e-06
-1.98306e-06
-3.06259e-08
1.93877e-06
3.23617e-06
3.68611e-06
3.53713e-06
3.10057e-06
2.55623e-06
2.01092e-06
1.52718e-06
1.10631e-06
7.32182e-07
3.7816e-07
2.36393e-08
-3.45815e-07
-7.41709e-07
-1.15276e-06
-1.55916e-06
-1.99771e-06
-2.5956e-06
-3.16036e-06
-3.49445e-06
-3.57211e-06
-3.19941e-06
-1.98461e-06
-3.22651e-08
1.93802e-06
3.23666e-06
3.68743e-06
3.53863e-06
3.1019e-06
2.5573e-06
2.01174e-06
1.52776e-06
1.1067e-06
7.32399e-07
3.7824e-07
2.35904e-08
-3.45969e-07
-7.41901e-07
-1.15288e-06
-1.55912e-06
)
;
    }
    front
    {
        type            empty;
        value           nonuniform 0();
    }
    back
    {
        type            empty;
        value           nonuniform 0();
    }
    procBoundary0to1
    {
        type            processor;
        value           nonuniform List<scalar> 8(1.24739e-06 1.1212e-06 1.05689e-06 9.44873e-07 -1.24574e-06 -1.12005e-06 -1.05619e-06 -9.44017e-07);
    }
}


// ************************************************************************* //
