/*--------------------------------*- C++ -*----------------------------------*\
| =========                 |                                                 |
| \\      /  F ield         | OpenFOAM: The Open Source CFD Toolbox           |
|  \\    /   O peration     | Version:  v1606+                                |
|   \\  /    A nd           | Web:      www.OpenFOAM.com                      |
|    \\/     M anipulation  |                                                 |
\*---------------------------------------------------------------------------*/
FoamFile
{
    version     2.0;
    format      ascii;
    class       surfaceScalarField;
    location    "0.9";
    object      phi;
}
// * * * * * * * * * * * * * * * * * * * * * * * * * * * * * * * * * * * * * //

dimensions      [0 3 -1 0 0 0 0];

internalField   nonuniform List<scalar> 
4432
(
8.76672e-08
-8.76672e-08
-1.99199e-06
2.07966e-06
-6.5007e-06
4.50871e-06
-1.13748e-05
4.87407e-06
-1.29658e-05
1.59103e-06
-1.09322e-05
-2.03362e-06
-8.14386e-06
-2.78831e-06
-6.44481e-06
-1.69905e-06
-5.88932e-06
-5.55491e-07
-6.3079e-06
4.18586e-07
-7.64267e-06
1.33476e-06
-9.68741e-06
2.04474e-06
-1.17486e-05
2.0612e-06
-1.27146e-05
9.65981e-07
-1.29042e-05
1.89606e-07
-1.59389e-05
3.0347e-06
-2.30013e-05
7.06241e-06
-2.84733e-05
5.47198e-06
-2.65547e-05
-1.9186e-06
-1.97118e-05
-6.84286e-06
-1.24543e-05
-7.25749e-06
-5.19031e-06
-7.26403e-06
-5.19031e-06
-4.88128e-06
4.79361e-06
-1.0408e-05
7.60642e-06
-1.51332e-05
9.23386e-06
-1.69609e-05
6.70179e-06
-1.53082e-05
-6.16975e-08
-1.19018e-05
-5.44e-06
-8.73923e-06
-5.95089e-06
-6.71376e-06
-3.72452e-06
-5.91784e-06
-1.35141e-06
-6.05157e-06
5.52324e-07
-7.01979e-06
2.30298e-06
-8.78762e-06
3.81257e-06
-1.13745e-05
4.6481e-06
-1.50012e-05
4.5927e-06
-1.97612e-05
4.9496e-06
-2.47631e-05
8.03655e-06
-2.72591e-05
9.55846e-06
-2.42536e-05
2.46645e-06
-1.7718e-05
-8.45425e-06
-1.16912e-05
-1.28696e-05
-7.10192e-06
-1.18468e-05
-2.64533e-06
-1.17206e-05
-7.83564e-06
-6.42839e-06
1.1222e-05
-1.22412e-05
1.34192e-05
-1.6184e-05
1.31766e-05
-1.75582e-05
8.07607e-06
-1.61332e-05
-1.48676e-06
-1.29191e-05
-8.65408e-06
-9.63355e-06
-9.23642e-06
-7.45134e-06
-5.90672e-06
-6.40717e-06
-2.39558e-06
-6.23304e-06
3.78196e-07
-6.68622e-06
2.75615e-06
-7.58124e-06
4.70759e-06
-9.051e-06
6.11785e-06
-1.16991e-05
7.24077e-06
-1.56564e-05
8.9069e-06
-1.85722e-05
1.09524e-05
-1.75192e-05
8.50546e-06
-1.28873e-05
-2.16548e-06
-7.97041e-06
-1.33711e-05
-4.56818e-06
-1.62718e-05
-2.57258e-06
-1.38424e-05
-4.87396e-07
-1.38058e-05
-8.32303e-06
-5.71907e-06
1.69411e-05
-1.08878e-05
1.85879e-05
-1.46762e-05
1.69651e-05
-1.65138e-05
9.91371e-06
-1.5564e-05
-2.43655e-06
-1.27252e-05
-1.1493e-05
-1.00917e-05
-1.18699e-05
-8.27657e-06
-7.72187e-06
-7.24623e-06
-3.42592e-06
-6.98776e-06
1.1973e-07
-7.41952e-06
3.18791e-06
-8.18903e-06
5.4771e-06
-8.99837e-06
6.92719e-06
-9.82167e-06
8.06407e-06
-1.05583e-05
9.64348e-06
-1.00873e-05
1.04815e-05
-7.55603e-06
5.97416e-06
-4.90293e-06
-4.81859e-06
-3.52417e-06
-1.47499e-05
-2.40045e-06
-1.73956e-05
-1.53894e-06
-1.47039e-05
1.47778e-07
-1.54925e-05
-8.17526e-06
-4.0807e-06
2.10218e-05
-8.35959e-06
2.28668e-05
-1.17941e-05
2.03995e-05
-1.35648e-05
1.16845e-05
-1.29311e-05
-3.07026e-06
-1.10353e-05
-1.33887e-05
-9.73706e-06
-1.31681e-05
-8.71534e-06
-8.74359e-06
-7.85188e-06
-4.28938e-06
-7.52142e-06
-2.10734e-07
-8.00118e-06
3.66768e-06
-8.93236e-06
6.40827e-06
-9.79716e-06
7.79198e-06
-1.00984e-05
8.36532e-06
-9.27984e-06
8.82491e-06
-7.09857e-06
8.30024e-06
-4.6485e-06
3.52409e-06
-3.7014e-06
-5.76568e-06
-3.82278e-06
-1.46285e-05
-2.65949e-06
-1.85588e-05
-1.15599e-06
-1.62074e-05
5.90045e-07
-1.72386e-05
-7.58521e-06
-1.99412e-06
2.30159e-05
-5.10364e-06
2.59763e-05
-7.77277e-06
2.30687e-05
-9.16486e-06
1.30766e-05
-8.86955e-06
-3.36557e-06
-8.36194e-06
-1.38964e-05
-8.5299e-06
-1.30001e-05
-7.82009e-06
-9.4534e-06
-6.82446e-06
-5.28501e-06
-6.47496e-06
-5.60239e-07
-7.28079e-06
4.47352e-06
-8.72933e-06
7.85681e-06
-1.00673e-05
9.12999e-06
-1.07533e-05
9.05129e-06
-1.02245e-05
8.29615e-06
-8.52433e-06
6.60003e-06
-6.85286e-06
1.85262e-06
-5.99611e-06
-6.62243e-06
-4.45648e-06
-1.61681e-05
-2.10963e-06
-2.09057e-05
6.31773e-07
-1.89488e-05
2.03801e-06
-1.86448e-05
-5.5472e-06
3.15255e-07
2.27006e-05
-1.52756e-06
2.78191e-05
-3.50931e-06
2.50504e-05
-4.28253e-06
1.38498e-05
-3.96029e-06
-3.68781e-06
-5.23304e-06
-1.26236e-05
-6.22521e-06
-1.20079e-05
-4.9031e-06
-1.07755e-05
-3.83188e-06
-6.35623e-06
-3.59333e-06
-7.98785e-07
-4.62471e-06
5.50489e-06
-6.60732e-06
9.83943e-06
-8.71056e-06
1.12332e-05
-1.02419e-05
1.05826e-05
-1.06389e-05
8.69316e-06
-9.95504e-06
5.91615e-06
-8.79013e-06
6.8771e-07
-7.0213e-06
-8.39126e-06
-4.33068e-06
-1.88587e-05
-2.49827e-06
-2.27381e-05
1.76521e-06
-2.32123e-05
4.24495e-06
-2.11245e-05
-1.30225e-06
3.23334e-06
1.94673e-05
2.2693e-06
2.87832e-05
1.56863e-06
2.57511e-05
2.91541e-06
1.2503e-05
1.84986e-06
-2.62226e-06
-2.86517e-06
-7.90856e-06
-4.21783e-06
-1.06553e-05
-3.84975e-06
-1.11436e-05
-4.94298e-06
-5.26299e-06
-4.96536e-06
-7.76405e-07
-4.7014e-06
5.24093e-06
-5.21454e-06
1.03526e-05
-6.72115e-06
1.27398e-05
-8.45774e-06
1.23192e-05
-9.56867e-06
9.80409e-06
-9.87218e-06
6.21965e-06
-9.26108e-06
7.66116e-08
-7.78799e-06
-9.86435e-06
-6.60723e-06
-2.00395e-05
-4.4805e-06
-2.48648e-05
1.93782e-06
-2.96306e-05
5.50561e-06
-2.46923e-05
4.20336e-06
-6.35894e-06
6.35894e-06
-2.55822e-05
1.92233e-05
-2.63456e-05
7.63328e-07
-5.49891e-06
-2.08467e-05
1.80352e-05
-2.35341e-05
2.58958e-05
-7.86061e-06
1.2142e-05
1.37538e-05
-1.134e-05
2.3482e-05
-1.70168e-05
5.67681e-06
-1.00257e-05
-6.99111e-06
-1.63271e-06
-8.39297e-06
1.1708e-05
-1.33407e-05
1.76422e-05
-5.93426e-06
6.65153e-06
1.09907e-05
-1.32635e-05
1.9915e-05
-2.66678e-05
1.34043e-05
-2.61456e-05
-5.22167e-07
-1.76668e-05
-8.47882e-06
-1.76668e-05
-1.69474e-05
2.33063e-05
-2.80444e-05
3.03203e-05
-2.33149e-05
-3.96615e-06
-7.83923e-06
-3.63223e-05
8.99551e-06
-4.03688e-05
1.13131e-05
-1.01782e-05
-4.82818e-06
2.98951e-05
-1.98919e-05
3.85457e-05
-2.71716e-05
1.29565e-05
-3.04255e-05
-3.73725e-06
-2.25012e-05
-1.63173e-05
-6.73124e-06
-2.91106e-05
7.11209e-06
-1.97776e-05
8.60469e-06
9.4981e-06
-3.58149e-06
3.21012e-05
-1.92548e-05
2.90776e-05
-2.09693e-05
1.19233e-06
-1.0947e-05
-1.85012e-05
-2.86138e-05
-1.68194e-05
4.01257e-05
-2.22845e-05
3.57854e-05
-1.86616e-05
-7.589e-06
-1.04783e-05
-4.45057e-05
-6.42947e-06
-4.44176e-05
-1.09845e-05
-5.62315e-06
-2.52753e-05
4.41859e-05
-4.51414e-05
5.84117e-05
-6.2328e-05
3.01431e-05
-6.94911e-05
3.42589e-06
-6.21648e-05
-2.36436e-05
-4.36561e-05
-4.76193e-05
-2.07952e-05
-4.26385e-05
-4.18945e-06
-7.10767e-06
-2.67535e-07
2.81793e-05
-3.92489e-06
3.27349e-05
-5.3182e-06
2.58563e-06
1.33049e-06
-2.51498e-05
-2.72833e-05
-1.23115e-05
5.24372e-05
-1.58755e-05
3.93495e-05
-1.24309e-05
-1.10337e-05
-7.60187e-06
-4.93347e-05
-1.05696e-05
-4.14499e-05
-2.37764e-05
7.5837e-06
-6.18099e-05
8.22194e-05
-9.59143e-05
9.25161e-05
-0.00011061
4.48391e-05
-0.000107217
3.26656e-08
-9.35025e-05
-3.73581e-05
-7.30808e-05
-6.8041e-05
-5.06025e-05
-6.51168e-05
-2.83164e-05
-2.93938e-05
-1.22771e-05
1.214e-05
-1.19695e-06
2.16548e-05
3.57388e-06
-2.1852e-06
6.50189e-06
-2.80779e-05
-2.07814e-05
-5.9516e-06
5.83888e-05
-7.9127e-06
4.13106e-05
-3.43339e-06
-1.5513e-05
-1.12288e-06
-5.16452e-05
-1.17261e-05
-3.08467e-05
-4.31618e-05
3.90194e-05
-0.000105583
0.000144641
-0.000126142
0.000113075
-0.00012051
3.92078e-05
-0.00010669
-1.37881e-05
-9.16879e-05
-5.23598e-05
-8.01742e-05
-7.95546e-05
-6.91232e-05
-7.61678e-05
-5.3008e-05
-4.5509e-05
-3.16603e-05
-9.20776e-06
-1.31507e-05
3.1452e-06
-3.39584e-06
-1.194e-05
3.19702e-06
-3.46707e-05
-1.75843e-05
7.40488e-07
5.76483e-05
2.91327e-06
3.91378e-05
7.03599e-06
-1.96357e-05
5.14052e-06
-4.97497e-05
-8.39331e-06
-1.73129e-05
-4.34573e-05
7.40833e-05
-0.000112933
0.000214116
-0.00012131
0.000121452
-0.000100173
1.80706e-05
-7.97685e-05
-3.41921e-05
-7.84214e-05
-5.37069e-05
-7.98302e-05
-7.81458e-05
-7.75679e-05
-7.84301e-05
-6.95473e-05
-5.35296e-05
-5.44734e-05
-2.42817e-05
-3.435e-05
-1.69783e-05
-1.42232e-05
-3.20668e-05
-3.34712e-06
-4.55468e-05
-2.09315e-05
7.92131e-06
4.9727e-05
1.3947e-05
3.31121e-05
1.76303e-05
-2.3319e-05
1.10115e-05
-4.31309e-05
-3.34731e-06
-2.95404e-06
-2.43106e-05
9.50466e-05
-7.50901e-05
0.000264896
-7.63114e-05
0.000122673
-6.86631e-05
1.04223e-05
-6.63563e-05
-3.6499e-05
-7.99546e-05
-4.01086e-05
-9.332e-05
-6.47804e-05
-9.63754e-05
-7.53747e-05
-8.48371e-05
-6.50679e-05
-6.72499e-05
-4.18689e-05
-4.50527e-05
-3.91755e-05
-2.11067e-05
-5.60128e-05
-7.3828e-06
-5.92707e-05
-2.83143e-05
1.33063e-05
3.64207e-05
2.22836e-05
2.41348e-05
2.47478e-05
-2.57833e-05
1.451e-05
-3.28931e-05
-1.57655e-06
1.31325e-05
-1.14458e-05
0.000104916
-2.35746e-05
0.000277025
-1.36315e-05
0.00011273
-5.27173e-06
2.06246e-06
-4.01099e-05
-1.6608e-06
-8.12852e-05
1.06676e-06
-0.00011739
-2.86758e-05
-0.000143379
-4.93852e-05
-0.000130395
-7.80525e-05
-9.84985e-05
-7.37651e-05
-6.56988e-05
-7.19751e-05
-3.42518e-05
-8.74598e-05
-1.0031e-05
-8.34914e-05
-3.83453e-05
2.21788e-05
-2.71147e-06
2.36958e-05
2.72661e-05
2.14667e-05
2.79803e-05
1.19534e-05
2.20163e-05
-5.71879e-06
1.50499e-05
-1.96361e-05
6.00873e-06
-2.38538e-05
-6.43754e-06
-2.88361e-05
-6.16134e-06
-3.71447e-05
3.04567e-06
-3.91214e-05
1.20023e-06
-3.58063e-05
1.92588e-06
-3.0035e-05
4.58122e-06
-2.67741e-05
9.47894e-06
-2.64048e-05
1.19499e-05
-2.58894e-05
9.2887e-06
-2.49463e-05
5.27656e-06
-2.62874e-05
1.41768e-06
-3.13417e-05
-4.81002e-06
-2.81934e-05
-2.31878e-05
-7.09386e-06
-4.59644e-05
7.46182e-06
-4.41863e-05
8.27481e-06
-2.55053e-05
7.35162e-06
5.12655e-06
3.17533e-05
-3.44648e-05
3.15476e-05
2.74718e-05
2.55373e-05
3.39906e-05
7.44373e-06
4.01098e-05
-2.52095e-05
4.77031e-05
-6.13255e-05
4.21247e-05
-6.89031e-05
1.14011e-06
-3.78609e-05
-3.72036e-05
-2.50617e-05
-9.75354e-06
-4.07124e-05
1.68509e-05
-5.8736e-05
1.99495e-05
-6.32215e-05
9.06671e-06
-5.54982e-05
1.75563e-06
-4.85577e-05
5.00945e-06
-4.6313e-05
7.04399e-06
-5.3822e-05
1.27855e-05
-6.89858e-05
1.65815e-05
-7.11199e-05
-2.67591e-06
-3.71528e-05
-5.71549e-05
-5.86922e-06
-7.72479e-05
-5.41467e-06
-4.46408e-05
-2.06812e-05
-1.02388e-05
-1.26582e-06
-1.20638e-05
5.78505e-06
-4.02498e-05
1.81023e-06
3.14466e-05
-3.29741e-05
6.87749e-05
-7.94897e-05
8.66255e-05
-0.000128718
9.6931e-05
-0.000166668
8.00747e-05
-0.000173646
8.11829e-06
-0.000165268
-4.5581e-05
-0.000131334
-4.36876e-05
-9.11997e-05
-2.32836e-05
-7.84576e-05
7.2074e-06
-0.000124142
5.47507e-05
-0.000170223
4.78368e-05
-0.000166686
1.47258e-06
-0.000149932
-9.70985e-06
-0.000145938
8.79139e-06
-0.00014978
2.04238e-05
-0.000137915
-1.45415e-05
-9.3563e-05
-0.000101507
-7.61671e-05
-9.46438e-05
-8.85802e-05
-3.22277e-05
-9.35136e-05
-5.30541e-06
-1.77476e-05
-7.70317e-05
-5.08047e-05
1.05549e-05
-0.000100126
8.07674e-05
-0.000155006
0.000123655
-0.000215876
0.000147496
-0.000299488
0.000180543
-0.000359489
0.000140075
-0.000345621
-5.74949e-06
-0.000309626
-8.15769e-05
-0.000267145
-8.61678e-05
-0.000223705
-6.67239e-05
-0.000178219
-3.82785e-05
-0.000146939
2.34702e-05
-0.000157827
5.87247e-05
-0.000208568
5.22143e-05
-0.000240937
2.26592e-05
-0.000241208
9.06187e-06
-0.000216616
-4.16858e-06
-0.000161753
-6.9404e-05
-0.000132342
-0.000130918
-0.000140745
-8.62412e-05
-0.000147515
-2.54577e-05
-0.00014263
-1.01904e-05
-3.60881e-05
-0.000124289
-0.000100556
0.000111111
-0.000178067
0.000158279
-0.000240571
0.000186159
-0.000306899
0.000213824
-0.000361455
0.000235099
-0.000365889
0.00014451
-0.000370228
-1.41089e-06
-0.000345233
-0.000106572
-0.000312599
-0.000118801
-0.00027743
-0.000101893
-0.00023851
-7.71988e-05
-0.000186134
-2.8906e-05
-0.000147564
2.01549e-05
-0.000146484
5.11343e-05
-0.000177736
5.39115e-05
-0.000186002
1.73272e-05
-0.000176013
-1.41571e-05
-0.00016667
-7.87474e-05
-0.000190908
-0.00010668
-0.000201629
-7.55196e-05
-0.00019557
-3.15165e-05
-0.000175455
-3.03061e-05
-6.4921e-05
-0.000146622
-9.78123e-05
0.000208923
-0.000170444
0.00023091
-0.000271041
0.000286756
-0.000336425
0.000279208
-0.000355701
0.000254375
-0.00034229
0.000131099
-0.000342823
-8.78303e-07
-0.000345527
-0.000103868
-0.000332685
-0.000131643
-0.00030367
-0.000130907
-0.000268585
-0.000112285
-0.000229833
-6.7658e-05
-0.000185209
-2.4469e-05
-0.000143233
9.15855e-06
-0.000120355
3.10335e-05
-0.000130544
2.75165e-05
-0.000185577
4.08757e-05
-0.00026393
-3.94337e-07
-0.000296548
-7.40623e-05
-0.000297486
-7.45815e-05
-0.000278728
-5.02743e-05
-0.000238265
-7.07691e-05
-0.000118081
-0.000185106
-5.45474e-05
0.000263471
-0.000134899
0.000311262
-0.000235972
0.000387828
-0.000295249
0.000338486
-0.000311254
0.000270379
-0.000319829
0.000139675
-0.000340027
1.93192e-05
-0.000371635
-7.22592e-05
-0.000368147
-0.000135132
-0.000335371
-0.000163682
-0.00030387
-0.000143786
-0.000261157
-0.000110371
-0.000221299
-6.43269e-05
-0.000184625
-2.75152e-05
-0.000157418
3.8267e-06
-0.000164646
3.47438e-05
-0.0002316
0.000107829
-0.000292424
6.043e-05
-0.000313629
-5.28567e-05
-0.000301612
-8.6599e-05
-0.000257686
-9.42007e-05
-0.000212062
-0.000116393
-0.000146818
-0.000183325
-5.43208e-05
0.000317792
-0.000124467
0.000381409
-0.000196323
0.000459684
-0.000237483
0.000379646
-0.000252283
0.000285179
-0.000277624
0.000165016
-0.000319959
6.16545e-05
-0.000361924
-3.02943e-05
-0.000393422
-0.000103634
-0.000401048
-0.000156056
-0.000369589
-0.000175245
-0.000326685
-0.000153275
-0.0002852
-0.000105811
-0.000248801
-6.39141e-05
-0.000232866
-1.21092e-05
-0.000251896
5.37742e-05
-0.000274175
0.000130109
-0.000280723
6.69779e-05
-0.000285957
-4.76233e-05
-0.000251917
-0.000120639
-0.00020297
-0.000143148
-0.000173329
-0.000146033
-0.000144304
-0.000175843
-5.30988e-05
0.00037089
-0.000123246
0.000451556
-0.000166673
0.00050311
-0.00018511
0.000398083
-0.000187454
0.000287523
-0.000198081
0.000175644
-0.000218662
8.22355e-05
-0.000259316
1.03595e-05
-0.000320255
-4.2695e-05
-0.000387108
-8.92031e-05
-0.000433648
-0.000128705
-0.000443959
-0.000142964
-0.000421165
-0.000128606
-0.000395076
-9.00031e-05
-0.000378611
-2.85738e-05
-0.000371394
4.65575e-05
-0.000331644
9.03583e-05
-0.000289623
2.49569e-05
-0.000268718
-6.85281e-05
-0.000247941
-0.000141416
-0.00020006
-0.00019103
-0.000171824
-0.000174268
-0.000154993
-0.000161136
-4.97693e-05
0.00042066
-0.000107538
0.000509325
-0.000128247
0.000523819
-0.000132689
0.000402525
-0.000124067
0.000278902
-0.000117611
0.000169187
-0.000116229
8.08536e-05
-0.000131465
2.55962e-05
-0.000174259
9.92077e-08
-0.000240019
-2.34435e-05
-0.000320343
-4.83811e-05
-0.000389326
-7.39805e-05
-0.000428435
-8.94976e-05
-0.000438193
-8.02452e-05
-0.000426716
-4.00513e-05
-0.000387946
7.7879e-06
-0.000315265
1.76775e-05
-0.000255513
-3.47949e-05
-0.000225502
-9.85394e-05
-0.000210444
-0.000156474
-0.000212666
-0.000188807
-0.000186522
-0.000200412
-0.000185381
-0.000156134
-3.53963e-05
0.000456056
-9.06763e-05
0.000564605
-9.42297e-05
0.000527372
-8.49772e-05
0.000393272
-7.21216e-05
0.000266046
-6.61786e-05
0.000163244
-7.25182e-05
8.7193e-05
-8.97034e-05
4.27813e-05
-0.000106259
1.6655e-05
-0.00012851
-1.19288e-06
-0.000162598
-1.42932e-05
-0.000211746
-2.48319e-05
-0.00026334
-3.79039e-05
-0.000296487
-4.70977e-05
-0.000296162
-4.03772e-05
-0.000260999
-2.73747e-05
-0.000211046
-3.22756e-05
-0.00018029
-6.55505e-05
-0.000168226
-0.000110604
-0.000170962
-0.000153738
-0.00017272
-0.000187049
-0.000171757
-0.000201375
-0.000189127
-0.000168011
-1.82217e-05
0.000474278
-6.79117e-05
0.000614295
-6.29279e-05
0.000522389
-4.83258e-05
0.00037867
-4.55324e-05
0.000263253
-5.84057e-05
0.000176118
-8.32784e-05
0.000112066
-0.000103995
6.34978e-05
-0.000111891
2.4551e-05
-0.000110737
-2.34727e-06
-0.000107879
-1.71515e-05
-0.000109498
-2.32124e-05
-0.000120191
-2.72107e-05
-0.000137111
-3.01783e-05
-0.000146722
-3.07658e-05
-0.000138504
-3.55925e-05
-0.000120482
-5.02977e-05
-0.000110436
-7.55974e-05
-0.000113316
-0.000107724
-0.000123158
-0.000143896
-0.00013913
-0.000171077
-0.000158237
-0.000182268
-0.000180108
-0.000167257
1.03247e-05
0.000463953
-5.36574e-06
0.000629985
-2.71614e-05
0.000544184
-2.77436e-05
0.000379252
-5.14338e-05
0.000286943
-9.18408e-05
0.000216525
-0.000131174
0.000151398
-0.000150754
8.30781e-05
-0.000148425
2.22226e-05
-0.000130546
-2.0227e-05
-0.000105583
-4.21147e-05
-8.00598e-05
-4.87352e-05
-5.96774e-05
-4.75932e-05
-4.71651e-05
-4.26906e-05
-3.93518e-05
-3.8579e-05
-3.23491e-05
-4.25952e-05
-2.78191e-05
-5.48277e-05
-2.89925e-05
-7.44241e-05
-3.76821e-05
-9.90341e-05
-5.49383e-05
-0.00012664
-7.72851e-05
-0.000148731
-9.70881e-05
-0.000162465
-0.000163673
-0.000113523
-1.72355e-05
0.000481188
1.48988e-05
0.000597851
-4.31835e-06
0.000563402
-2.85532e-05
0.000403487
-8.0356e-05
0.000338746
-0.000140725
0.000276893
-0.000185813
0.000196487
-0.000202691
9.99556e-05
-0.000192557
1.20881e-05
-0.00016276
-5.00239e-05
-0.000124614
-8.02608e-05
-8.69082e-05
-8.64407e-05
-5.33069e-05
-8.11945e-05
-2.36531e-05
-7.23443e-05
1.71626e-06
-6.39483e-05
1.882e-05
-5.96991e-05
2.61569e-05
-6.21648e-05
2.48816e-05
-7.31488e-05
1.7228e-05
-9.13805e-05
1.8849e-06
-0.000111297
-1.87804e-05
-0.000128065
-4.06976e-05
-0.000140548
-0.000145428
-5.8942e-05
-7.04588e-06
0.000488234
1.33366e-05
0.000577469
7.43141e-06
0.000569307
-3.84998e-05
0.000449418
-0.00010905
0.000409296
-0.000179013
0.000346856
-0.000228339
0.000245813
-0.000246331
0.000117948
-0.000230251
-3.99241e-06
-0.000188852
-9.14228e-05
-0.000137667
-0.000131446
-9.01073e-05
-0.000134
-5.09337e-05
-0.000120368
-1.8704e-05
-0.000104574
9.28808e-06
-9.19404e-05
3.31757e-05
-8.35868e-05
5.05229e-05
-7.9512e-05
5.74567e-05
-8.00826e-05
5.24178e-05
-8.63417e-05
3.92976e-05
-9.81764e-05
2.23681e-05
-0.000111136
3.34527e-06
-0.000121525
-0.000124619
-1.74641e-05
1.73328e-05
0.000470902
1.06219e-05
0.000584179
1.05957e-05
0.000569333
-3.87178e-05
0.000498732
-0.000113376
0.000483954
-0.00018609
0.00041957
-0.000241366
0.000301089
-0.000265311
0.000141893
-0.000247756
-2.15476e-05
-0.000199259
-0.00013992
-0.000137417
-0.000193288
-8.14153e-05
-0.000190002
-3.87492e-05
-0.000163034
-7.77954e-06
-0.000135544
1.63315e-05
-0.000116052
3.59431e-05
-0.000103198
5.23507e-05
-9.59197e-05
6.47225e-05
-9.24544e-05
6.99826e-05
-9.16017e-05
6.53233e-05
-9.3517e-05
5.25837e-05
-9.83964e-05
3.57014e-05
-0.000104643
-0.000109473
2.05557e-05
8.68697e-05
0.000384032
6.53333e-05
0.000605716
3.50428e-05
0.000599624
-1.61432e-05
0.000549918
-7.71805e-05
0.000544992
-0.000142533
0.000484923
-0.00019858
0.000357136
-0.000225743
0.000169056
-0.000214133
-3.31574e-05
-0.000169348
-0.000184705
-0.000108966
-0.00025367
-5.40822e-05
-0.000244886
-1.3967e-05
-0.000203149
1.36674e-05
-0.000163178
3.19339e-05
-0.000134318
4.51149e-05
-0.00011638
5.52066e-05
-0.000106011
6.31e-05
-0.000100348
6.88261e-05
-9.73277e-05
7.11518e-05
-9.58426e-05
6.82149e-05
-9.54595e-05
6.01265e-05
-9.65542e-05
-9.85743e-05
4.92274e-05
0.000147742
0.00023629
0.000189045
0.000564412
0.000138565
0.000650104
6.47977e-05
0.000623685
1.05486e-05
0.000599241
-3.58843e-05
0.000531356
-7.17693e-05
0.000393021
-8.54381e-05
0.000182725
-8.48904e-05
-3.37051e-05
-6.80731e-05
-0.000201522
-3.55826e-05
-0.000286161
1.4309e-07
-0.000280611
2.70862e-05
-0.000230092
4.35492e-05
-0.000179641
5.36252e-05
-0.000144394
5.9954e-05
-0.000122708
6.38089e-05
-0.000109866
6.58864e-05
-0.000102425
6.67202e-05
-9.81616e-05
6.65155e-05
-9.56379e-05
6.50267e-05
-9.39707e-05
6.14918e-05
-9.30195e-05
-9.24713e-05
5.53888e-05
0.000134426
0.000101865
0.000283357
0.00041548
0.000310141
0.000623321
0.000250607
0.000683219
0.000189129
0.000660719
0.000147685
0.000572799
0.000124661
0.000416045
0.000111751
0.000195634
9.97735e-05
-2.17274e-05
8.78266e-05
-0.000189575
7.87512e-05
-0.000277085
7.7501e-05
-0.000279361
7.85194e-05
-0.000231111
7.8664e-05
-0.000179786
7.80287e-05
-0.000143759
7.68493e-05
-0.000121529
7.49749e-05
-0.000107992
7.22551e-05
-9.97055e-05
6.8768e-05
-9.46745e-05
6.47487e-05
-9.16187e-05
6.03804e-05
-8.96025e-05
5.54356e-05
-8.80747e-05
-8.64921e-05
4.94564e-05
8.53846e-05
1.64802e-05
0.000284965
0.0002159
0.000425533
0.000482753
0.000458423
0.00065033
0.000432384
0.000686758
0.000395532
0.000609651
0.000365577
0.000446001
0.000333325
0.000227886
0.000291323
2.02741e-05
0.00024692
-0.000145172
0.000199306
-0.000229471
0.000159472
-0.000239528
0.000131609
-0.000203247
0.000113526
-0.000161702
0.000101534
-0.000131766
9.28484e-05
-0.000112843
8.57416e-05
-0.000100885
7.92216e-05
-9.31856e-05
7.27834e-05
-8.82364e-05
6.62562e-05
-8.50915e-05
5.96745e-05
-8.30208e-05
5.30084e-05
-8.14086e-05
-7.95954e-05
4.61116e-05
5.44077e-05
-3.79274e-05
0.000213075
5.72329e-05
0.000405016
0.000290811
0.000537551
0.000517795
0.000592808
0.0006315
0.000594909
0.00060755
0.000566663
0.000474247
0.000515126
0.000279423
0.000449389
8.60115e-05
0.000368281
-6.40633e-05
0.000289526
-0.000150716
0.000222108
-0.00017211
0.000173324
-0.000154463
0.000141372
-0.00012975
0.000120423
-0.000110818
0.00010569
-9.81105e-05
9.4376e-05
-8.95705e-05
8.49648e-05
-8.37744e-05
7.65852e-05
-7.98568e-05
6.87325e-05
-7.72388e-05
6.11681e-05
-7.54565e-05
5.38369e-05
-7.40774e-05
-7.25222e-05
4.67636e-05
3.53396e-05
-7.3267e-05
0.000123892
-3.13197e-05
0.000282352
0.000132352
0.000445971
0.000354175
0.000561633
0.000515839
0.000615704
0.000553479
0.000616563
0.000473388
0.000573998
0.000321988
0.000500984
0.000159025
0.000413107
2.38141e-05
0.000325435
-6.30444e-05
0.000250041
-9.67157e-05
0.000194807
-9.92293e-05
0.000157512
-9.24548e-05
0.000132177
-8.54834e-05
0.000113974
-7.99073e-05
0.000100046
-7.5643e-05
8.87832e-05
-7.25111e-05
7.92118e-05
-7.02854e-05
7.07053e-05
-6.87324e-05
6.28657e-05
-6.7617e-05
5.55014e-05
-6.67131e-05
-6.56597e-05
4.86388e-05
2.20069e-06
-7.54677e-05
2.66439e-05
-5.57629e-05
0.00012084
3.81562e-05
0.000258066
0.000216949
0.000387024
0.00038688
0.000475276
0.000465227
0.000511338
0.000437326
0.000498152
0.000335174
0.000449858
0.000207319
0.000382268
9.14042e-05
0.000309478
9.74569e-06
0.000245299
-3.25373e-05
0.000196554
-5.04837e-05
0.000161636
-5.75372e-05
0.000136373
-6.02198e-05
0.000117399
-6.09332e-05
0.000102577
-6.08216e-05
9.05617e-05
-6.04955e-05
8.04669e-05
-6.01907e-05
7.16944e-05
-5.99599e-05
6.38394e-05
-5.97621e-05
5.66706e-05
-5.95444e-05
-5.91076e-05
5.01185e-05
-2.48904e-05
-5.05772e-05
-4.23199e-05
-3.83334e-05
-1.71118e-05
1.29481e-05
6.64363e-05
0.000133401
0.000174551
0.000278765
0.000271878
0.0003679
0.000334785
0.000374418
0.000357625
0.000312334
0.000346393
0.000218552
0.000311594
0.000126203
0.000265451
5.58885e-05
0.000221402
1.15124e-05
0.000185078
-1.416e-05
0.00015658
-2.90394e-05
0.000134261
-3.79003e-05
0.000116552
-4.32246e-05
0.000102238
-4.65073e-05
9.04039e-05
-4.86616e-05
8.03774e-05
-5.01642e-05
7.16713e-05
-5.12538e-05
6.39485e-05
-5.20393e-05
5.69895e-05
-5.25853e-05
-5.28187e-05
5.07005e-05
-3.68636e-05
-1.37137e-05
-7.79189e-05
2.7219e-06
-9.39987e-05
2.9028e-05
-6.25474e-05
0.00010195
1.49847e-05
0.000201233
0.000103181
0.000279704
0.000178944
0.000298655
0.000226948
0.000264331
0.000245123
0.000200376
0.000238685
0.00013264
0.000217521
7.70532e-05
0.000191794
3.72391e-05
0.0001673
1.03338e-05
0.000145963
-7.7023e-06
0.000127773
-1.97103e-05
0.000112442
-2.78932e-05
9.95225e-05
-3.35881e-05
8.85202e-05
-3.76593e-05
7.9012e-05
-4.06561e-05
7.06678e-05
-4.29096e-05
6.32421e-05
-4.46136e-05
5.65622e-05
-4.59054e-05
-4.67905e-05
5.05341e-05
-3.23388e-05
1.86251e-05
-7.33687e-05
4.37518e-05
-0.000101088
5.67469e-05
-9.65918e-05
9.74543e-05
-5.28474e-05
0.000157489
1.68147e-05
0.000210042
8.77408e-05
0.000227729
0.000142449
0.000209622
0.000173177
0.000169648
0.000181881
0.000123936
0.000176053
8.28807e-05
0.000163126
5.01667e-05
0.000147886
2.55734e-05
0.000132674
7.51011e-06
0.000118691
-5.72743e-06
0.000106114
-1.53165e-05
9.50006e-05
-2.24745e-05
8.51976e-05
-2.78563e-05
7.65132e-05
-3.19717e-05
6.8766e-05
-3.51624e-05
6.18043e-05
-3.76519e-05
5.55125e-05
-3.96136e-05
-4.10956e-05
4.98175e-05
-2.1933e-05
4.05582e-05
-4.99745e-05
7.17932e-05
-7.04282e-05
7.72006e-05
-7.10534e-05
9.80796e-05
-4.51559e-05
0.000131591
2.47295e-06
0.000162413
5.58181e-05
0.000174384
0.000100275
0.000165165
0.000128787
0.000141137
0.000141718
0.000111005
0.000143244
8.13541e-05
0.000137894
5.5517e-05
0.000129045
3.44224e-05
0.000118812
1.77429e-05
0.000108362
4.723e-06
9.84682e-05
-5.42274e-06
8.92484e-05
-1.32546e-05
8.07965e-05
-1.94045e-05
7.31011e-05
-2.42763e-05
6.60991e-05
-2.81604e-05
5.9724e-05
-3.12768e-05
5.39088e-05
-3.37985e-05
-3.57921e-05
4.86052e-05
-1.3504e-05
5.40622e-05
-2.82782e-05
8.65674e-05
-3.79548e-05
8.68772e-05
-3.58415e-05
9.59663e-05
-1.83563e-05
0.000114106
1.22736e-05
0.000131783
4.75193e-05
0.000139138
7.86508e-05
0.000134033
0.000100842
0.000118946
0.000113341
9.85058e-05
0.000117809
7.68862e-05
0.00011662
5.67059e-05
0.000111926
3.9116e-05
0.000105328
2.43414e-05
9.78765e-05
1.21743e-05
9.02069e-05
2.2469e-06
8.27704e-05
-5.81811e-06
7.5679e-05
-1.23131e-05
6.90265e-05
-1.76238e-05
6.28421e-05
-2.1976e-05
5.71191e-05
-2.55538e-05
5.18335e-05
-2.85128e-05
-3.09221e-05
4.69635e-05
-8.30416e-06
6.23663e-05
-1.42631e-05
9.25263e-05
-1.65661e-05
8.91803e-05
-1.2074e-05
9.14742e-05
5.56992e-07
0.000101475
2.06093e-05
0.000111731
4.36601e-05
0.000116088
6.5131e-05
0.000112563
8.18628e-05
0.000102214
9.26988e-05
8.76698e-05
9.80252e-05
7.15599e-05
9.89937e-05
5.57373e-05
9.68994e-05
4.12104e-05
9.28481e-05
2.83927e-05
8.76653e-05
1.73572e-05
8.19124e-05
7.99979e-06
7.60059e-05
8.83472e-08
7.01746e-05
-6.48175e-06
6.45346e-05
-1.19838e-05
5.91678e-05
-1.66092e-05
5.41123e-05
-2.04983e-05
4.93774e-05
-2.37779e-05
-2.65119e-05
4.49672e-05
-4.98293e-06
6.73492e-05
-6.07391e-06
9.36173e-05
-4.48628e-06
8.75927e-05
6.39125e-07
8.63487e-05
1.03835e-05
9.17307e-05
2.42208e-05
9.78933e-05
4.00869e-05
0.000100221
5.54464e-05
9.72031e-05
6.81892e-05
8.94716e-05
7.72313e-05
7.86278e-05
8.24823e-05
6.63089e-05
8.44676e-05
5.3752e-05
8.39352e-05
4.17428e-05
8.1612e-05
3.07159e-05
7.81047e-05
2.08646e-05
7.38815e-05
1.22231e-05
6.9246e-05
4.72374e-06
6.45271e-05
-1.76281e-06
5.98179e-05
-7.27455e-06
5.52262e-05
-1.20175e-05
5.08206e-05
-1.60927e-05
4.66366e-05
-1.9594e-05
-2.25742e-05
4.2699e-05
-2.62017e-06
6.99695e-05
-1.1518e-06
9.2149e-05
2.10155e-06
8.43394e-05
7.32983e-06
8.11204e-05
1.50164e-05
8.40442e-05
2.51302e-05
8.77795e-05
3.66587e-05
8.8693e-05
4.80551e-05
8.58068e-05
5.78905e-05
7.96362e-05
6.53134e-05
7.12049e-05
7.01024e-05
6.15198e-05
7.24696e-05
5.13848e-05
7.283e-05
4.13824e-05
7.16442e-05
3.19017e-05
6.93387e-05
2.31701e-05
6.62732e-05
1.52886e-05
6.27281e-05
8.26883e-06
5.8901e-05
2.06423e-06
5.50296e-05
-3.40312e-06
5.11459e-05
-8.1338e-06
4.73561e-05
-1.23028e-05
4.37093e-05
-1.59473e-05
-1.91155e-05
4.02506e-05
-8.34786e-07
7.08043e-05
1.98752e-06
8.93267e-05
5.98441e-06
8.03425e-05
1.08279e-05
7.62769e-05
1.70062e-05
7.78658e-05
2.47306e-05
8.00552e-05
3.34446e-05
7.9979e-05
4.21323e-05
7.7119e-05
4.98171e-05
7.19513e-05
5.58754e-05
6.51465e-05
6.00796e-05
5.73156e-05
6.24891e-05
4.89752e-05
6.33222e-05
4.05494e-05
6.28621e-05
3.23619e-05
6.14003e-05
2.46318e-05
5.92046e-05
1.74842e-05
5.65019e-05
1.09714e-05
5.34696e-05
5.09652e-06
5.02906e-05
-2.24171e-07
4.70469e-05
-4.89011e-06
4.3823e-05
-9.07896e-06
4.06928e-05
-1.2817e-05
-1.61306e-05
3.77079e-05
3.22907e-07
7.04814e-05
3.87585e-06
8.57737e-05
8.06882e-06
7.61496e-05
1.24337e-05
7.1912e-05
1.75151e-05
7.27845e-05
2.36221e-05
7.39481e-05
3.0411e-05
7.31901e-05
3.71801e-05
7.03499e-05
4.32583e-05
6.5873e-05
4.82044e-05
6.02003e-05
5.18234e-05
5.36966e-05
5.41045e-05
4.66941e-05
5.51533e-05
3.95007e-05
5.51395e-05
3.23757e-05
5.42593e-05
2.5512e-05
5.27088e-05
1.90347e-05
5.06677e-05
1.30125e-05
4.82937e-05
7.47044e-06
4.56729e-05
2.39664e-06
4.30062e-05
-2.22338e-06
4.03038e-05
-6.3765e-06
3.76497e-05
-1.0163e-05
-1.35839e-05
3.51032e-05
1.12205e-06
6.93593e-05
4.93119e-06
8.19646e-05
8.99546e-06
7.20853e-05
1.28744e-05
6.80331e-05
1.71402e-05
6.85187e-05
2.21068e-05
6.89816e-05
2.75283e-05
6.77686e-05
3.29028e-05
6.49753e-05
3.77693e-05
6.10064e-05
4.18217e-05
5.61479e-05
4.49056e-05
5.06127e-05
4.69816e-05
4.46181e-05
4.80936e-05
3.83887e-05
4.8341e-05
3.21283e-05
4.78545e-05
2.59985e-05
4.67754e-05
2.01137e-05
4.52415e-05
1.45463e-05
4.33775e-05
9.33445e-06
4.12836e-05
4.49055e-06
3.90669e-05
-6.68191e-09
3.68074e-05
-4.11686e-06
3.45538e-05
-7.90937e-06
-1.13927e-05
3.23626e-05
1.65296e-06
6.77063e-05
5.43274e-06
7.81849e-05
9.1941e-06
6.83241e-05
1.26112e-05
6.46161e-05
1.62486e-05
6.48814e-05
2.03753e-05
6.48549e-05
2.47898e-05
6.3354e-05
2.91245e-05
6.06405e-05
3.3064e-05
5.70668e-05
3.63994e-05
5.28125e-05
3.90126e-05
4.79995e-05
4.08567e-05
4.2774e-05
4.19432e-05
3.73022e-05
4.23287e-05
3.17427e-05
4.20995e-05
2.62277e-05
4.13558e-05
2.08573e-05
4.02008e-05
1.57013e-05
3.87318e-05
1.08035e-05
3.70361e-05
6.18629e-06
3.51754e-05
1.85409e-06
3.32509e-05
-2.19232e-06
3.12846e-05
-5.94305e-06
-9.4368e-06
2.93287e-05
1.99845e-06
6.57079e-05
5.58295e-06
7.46006e-05
8.95452e-06
6.49526e-05
1.19396e-05
6.16311e-05
1.50708e-05
6.17502e-05
1.8549e-05
6.13767e-05
2.21931e-05
5.97099e-05
2.573e-05
5.71035e-05
2.89459e-05
5.38509e-05
3.16998e-05
5.00586e-05
3.3903e-05
4.57963e-05
3.551e-05
4.11668e-05
3.65164e-05
3.62957e-05
3.69526e-05
3.13065e-05
3.68736e-05
2.63066e-05
3.63487e-05
2.13823e-05
3.54518e-05
1.65983e-05
3.42551e-05
1.20003e-05
3.28245e-05
7.61698e-06
3.12146e-05
3.464e-06
2.94966e-05
-4.7434e-07
2.76982e-05
-4.14467e-06
-7.60248e-06
2.58639e-05
2.20883e-06
6.34991e-05
5.51775e-06
7.12918e-05
8.46493e-06
6.20055e-05
1.10444e-05
5.90517e-05
1.37464e-05
5.90481e-05
1.66979e-05
5.84252e-05
1.97276e-05
5.66801e-05
2.26311e-05
5.42e-05
2.52652e-05
5.12167e-05
2.75357e-05
4.7788e-05
2.93759e-05
4.3956e-05
3.07448e-05
3.97978e-05
3.16303e-05
3.54103e-05
3.20459e-05
3.08909e-05
3.20251e-05
2.63275e-05
3.16131e-05
2.17943e-05
3.0861e-05
1.73504e-05
2.98206e-05