/*--------------------------------*- C++ -*----------------------------------*\
| =========                 |                                                 |
| \\      /  F ield         | OpenFOAM: The Open Source CFD Toolbox           |
|  \\    /   O peration     | Version:  v1606+                                |
|   \\  /    A nd           | Web:      www.OpenFOAM.com                      |
|    \\/     M anipulation  |                                                 |
\*---------------------------------------------------------------------------*/
FoamFile
{
    version     2.0;
    format      ascii;
    class       volScalarField;
    location    "1.15";
    object      nut.particles;
}
// * * * * * * * * * * * * * * * * * * * * * * * * * * * * * * * * * * * * * //

dimensions      [0 2 -1 0 0 0 0];

internalField   nonuniform List<scalar> 
6000
(
1.24892e-05
1.01969e-05
1.04427e-05
1.08671e-05
1.13674e-05
1.10944e-05
1.01757e-05
9.74799e-06
8.89445e-06
8.8467e-06
9.05103e-06
8.87292e-06
8.51483e-06
7.8804e-06
7.23124e-06
6.895e-06
6.76144e-06
7.23309e-06
7.84971e-06
7.90324e-06
8.49074e-06
9.22547e-06
1.01867e-05
1.12943e-05
1.10345e-05
1.03797e-05
1.00281e-05
9.59098e-06
9.59326e-06
1.14838e-05
9.64446e-06
8.68707e-06
7.46308e-06
6.34465e-06
5.1856e-06
4.14231e-06
4.2216e-06
4.17614e-06
4.0806e-06
4.05426e-06
4.05032e-06
4.05512e-06
4.03137e-06
3.96707e-06
3.88799e-06
3.82476e-06
3.79968e-06
3.874e-06
3.98989e-06
4.08245e-06
4.14154e-06
4.15196e-06
4.08328e-06
4.27964e-06
5.43629e-06
6.7107e-06
8.2499e-06
9.13939e-06
9.46136e-06
9.63976e-06
1.70648e-05
1.98483e-05
1.85389e-05
1.61389e-05
1.15937e-05
6.7401e-06
4.78153e-06
4.35255e-06
4.43722e-06
4.30758e-06
4.15011e-06
4.05795e-06
4.01835e-06
4.09532e-06
4.28131e-06
4.44376e-06
4.51756e-06
4.37655e-06
4.37299e-06
4.37718e-06
4.31312e-06
4.51725e-06
5.4375e-06
8.53581e-06
1.46113e-05
1.80852e-05
1.94223e-05
1.91725e-05
1.69439e-05
1.66106e-05
7.82092e-06
8.54471e-06
1.30789e-05
1.74198e-05
1.54949e-05
1.16894e-05
6.56103e-06
5.16798e-06
5.35126e-06
5.62211e-06
5.45232e-06
5.5311e-06
6.19577e-06
7.18266e-06
8.03925e-06
8.24406e-06
7.81513e-06
7.02631e-06
6.29201e-06
5.77911e-06
5.6501e-06
6.49294e-06
9.6714e-06
1.78676e-05
2.3447e-05
1.85592e-05
1.21682e-05
8.40931e-06
7.13591e-06
7.39168e-06
3.41398e-06
3.32928e-06
4.46989e-06
9.06974e-06
1.87859e-05
1.63222e-05
1.17135e-05
8.56938e-06
8.76934e-06
9.89887e-06
1.03143e-05
1.14309e-05
1.5028e-05
0.000164269
0.000306929
0.000307846
0.000305228
0.000123716
1.49653e-05
1.21407e-05
1.12795e-05
1.35191e-05
0.000237702
0.000106557
1.52504e-05
6.9249e-06
4.35104e-06
3.47808e-06
3.17441e-06
3.38358e-06
3.01081e-06
2.90993e-06
3.00029e-06
3.31595e-06
5.84034e-06
1.50684e-05
1.92879e-05
2.93171e-05
4.23336e-05
0.000141373
0.000279121
0.000312964
0.000312349
0.00031598
0.000318868
0.00032084
0.000319426
0.000316327
0.000311046
0.000306905
0.000303612
0.000301951
0.000303756
1.39815e-05
4.8368e-06
3.32611e-06
3.02947e-06
2.88936e-06
2.8e-06
2.92996e-06
2.76794e-06
2.69872e-06
2.77895e-06
2.92833e-06
3.07768e-06
5.23282e-06
1.3257e-05
0.000311243
0.000314636
0.000314488
0.000318412
0.000320341
0.000328171
0.000328168
0.000327837
0.000325743
0.000325154
0.000324197
0.00032368
0.000317638
0.000310833
0.000306131
2.57609e-05
5.5465e-06
3.62051e-06
3.20633e-06
2.94901e-06
2.83965e-06
2.68714e-06
2.92585e-06
2.89406e-06
2.73206e-06
2.75934e-06
2.87393e-06
2.99149e-06
3.33775e-06
6.66588e-06
0.000314471
0.000315196
0.000322913
0.000326604
0.000335782
3.51003e-05
1.51391e-05
9.03559e-06
6.14129e-06
6.08398e-06
7.91709e-06
1.25647e-05
2.18656e-05
0.000316436
0.000311038
9.5233e-06
4.55885e-06
4.22348e-06
4.17633e-06
3.90371e-06
3.71487e-06
3.40855e-06
3.89035e-06
4.12695e-06
3.632e-06
3.76018e-06
3.72868e-06
3.49052e-06
3.7554e-06
5.70833e-06
0.000107819
0.000325772
0.000329175
2.16882e-05
8.56311e-06
3.62537e-06
2.67685e-06
2.21271e-06
1.99668e-06
1.91545e-06
1.88938e-06
1.95964e-06
2.52505e-06
4.94787e-06
8.72265e-06
5.04749e-06
4.09011e-06
4.98301e-06
6.34317e-06
6.27048e-06
5.64581e-06
5.09675e-06
5.92792e-06
6.31916e-06
5.37063e-06
5.91379e-06
5.91746e-06
5.11239e-06
4.81498e-06
6.42064e-06
1.71276e-05
6.95016e-05
8.2356e-06
2.77929e-06
1.96597e-06
1.71341e-06
1.93333e-06
2.15656e-06
1.99615e-06
1.81023e-06
1.55003e-06
1.217e-06
1.06096e-06
1.12552e-06
1.95295e-06
2.5149e-06
3.05126e-06
4.70566e-06
7.49341e-06
8.00523e-06
7.34409e-06
6.74697e-06
7.78862e-06
8.15936e-06
6.85413e-06
7.46434e-06
7.63166e-06
6.50192e-06
5.55235e-06
6.17463e-06
7.25582e-06
4.77265e-06
1.58439e-06
1.48694e-06
1.63437e-06
1.92341e-06
2.34698e-06
2.75845e-06
2.44562e-06
2.12565e-06
1.66415e-06
1.17676e-06
9.03579e-07
8.58866e-07
1.19312e-06
1.61697e-06
2.02209e-06
3.39847e-06
5.87649e-06
7.50521e-06
7.54673e-06
7.35203e-06
8.75726e-06
8.91568e-06
7.28725e-06
7.15431e-06
6.70158e-06
5.67762e-06
4.9588e-06
4.35582e-06
2.79389e-06
1.50009e-06
1.04362e-06
1.34935e-06
2.11555e-06
2.7987e-06
3.08971e-06
3.27557e-06
3.00095e-06
2.67976e-06
1.99455e-06
1.15393e-06
8.23835e-07
8.65026e-07
1.04577e-06
1.2664e-06
1.44802e-06
2.43726e-06
4.12445e-06
5.41756e-06
6.11905e-06
6.80942e-06
8.93801e-06
8.9059e-06
6.8252e-06
5.85996e-06
4.99449e-06
4.42491e-06
3.9578e-06
2.84884e-06
1.69602e-06
1.15593e-06
1.06261e-06
1.32301e-06
2.9719e-06
4.31598e-06
4.06672e-06
4.34254e-06
4.29344e-06
4.00133e-06
2.71176e-06
1.15522e-06
7.48989e-07
8.4016e-07
9.43521e-07
1.06212e-06
1.22143e-06
2.18955e-06
3.49459e-06
3.85391e-06
4.6433e-06
5.78503e-06
8.71429e-06
8.95603e-06
6.18311e-06
4.84848e-06
4.06988e-06
3.93332e-06
3.35343e-06
1.96857e-06
1.30709e-06
1.13107e-06
1.0615e-06
1.24164e-06
3.17709e-06
6.49399e-06
6.08247e-06
6.48645e-06
7.10856e-06
7.11775e-06
4.33986e-06
1.41548e-06
7.27364e-07
7.84153e-07
8.59174e-07
9.43492e-07
1.09122e-06
2.2296e-06
3.7064e-06
4.01681e-06
4.60722e-06
5.29993e-06
8.67476e-06
9.6327e-06
6.5075e-06
5.3547e-06
4.93972e-06
4.65919e-06
3.19455e-06
1.51509e-06
1.10889e-06
1.06063e-06
1.02529e-06
1.04687e-06
2.06622e-06
8.05895e-06
3.92545e-05
0.000110101
0.000501029
0.000434424
8.64474e-06
2.93615e-06
9.45381e-07
7.95537e-07
8.568e-07
8.95443e-07
1.07679e-06
2.94048e-06
5.71296e-06
6.21184e-06
6.48875e-06
6.44621e-06
1.29896e-05
0.000112599
9.84043e-06
1.00013e-05
1.04338e-05
7.57464e-06
4.26414e-06
1.40489e-06
9.70523e-07
9.67509e-07
9.66732e-07
9.58068e-07
1.50363e-06
6.21768e-06
0.000801491
0.00143998
0.00143901
0.0014428
0.00143586
1.36553e-05
2.55859e-06
1.2456e-06
1.16088e-06
1.10546e-06
1.63811e-06
5.49646e-06
2.6784e-05
0.000190752
0.000200751
9.29704e-05
0.000357234
0.000505915
0.000913851
0.00172058
0.00170929
0.000527362
7.63554e-06
1.89497e-06
1.0106e-06
1.03354e-06
1.04709e-06
1.07255e-06
1.45082e-06
4.14309e-06
0.000261802
0.00144185
0.00144609
0.000818314
2.49688e-05
1.89099e-05
9.89568e-06
3.98594e-06
3.04401e-06
2.70573e-06
4.65547e-06
2.10793e-05
0.00142855
0.00143097
0.00142932
0.00142753
0.000628836
0.000631616
0.00173436
0.00173792
0.00173524
0.00173098
0.000785959
5.30861e-06
1.98941e-06
1.75783e-06
1.73734e-06
1.74534e-06
2.23477e-06
3.91354e-06
4.61657e-06
1.88818e-05
1.26745e-05
2.98163e-06
3.05327e-06
3.89191e-06
7.16905e-06
8.01211e-06
6.93577e-06
8.07778e-06
1.34208e-05
2.39535e-05
0.000109205
0.00143643
0.0014307
0.00142877
0.000278428
1.92892e-05
0.00173052
0.000213665
1.22228e-05
1.78746e-05
2.1578e-05
1.69629e-05
7.37064e-06
4.64658e-06
4.49896e-06
4.31004e-06
4.89816e-06
4.00713e-06
1.30902e-06
1.88393e-06
2.9893e-06
1.18841e-06
9.25268e-07
1.06078e-06
1.70724e-06
2.90985e-06
3.21704e-06
4.53351e-06
5.45384e-06
3.82042e-06
3.37924e-06
4.22814e-06
1.35484e-05
0.0014224
0.000277309
8.51014e-06
1.75544e-05
2.49515e-06
9.98618e-07
1.41318e-06
2.1862e-06
5.44682e-06
6.08044e-06
4.69376e-06
4.60298e-06
4.88637e-06
4.25387e-06
1.48927e-06
7.40478e-07
1.0311e-06
2.30119e-06
1.25305e-06
8.11881e-07
8.25173e-07
8.92544e-07
1.07822e-06
1.18115e-06
1.28519e-06
1.11607e-06
8.33043e-07
7.60981e-07
7.85277e-07
1.73298e-06
9.08056e-06
0.000370792
1.24027e-05
3.27717e-06
6.78454e-07
5.75908e-07
5.75056e-07
6.21614e-07
8.05892e-07
1.21006e-06
1.46133e-06
1.45466e-06
1.51276e-06
1.16724e-06
7.30897e-07
6.54003e-07
9.66286e-07
2.4399e-06
1.56885e-06
8.69834e-07
8.01258e-07
7.93825e-07
7.75644e-07
7.91977e-07
7.73782e-07
7.29593e-07
6.77746e-07
6.74793e-07
7.59783e-07
1.06456e-06
2.91161e-06
2.40461e-05
8.78468e-06
1.53492e-06
7.36609e-07
6.02066e-07
5.78375e-07
5.97905e-07
5.3101e-07
5.4999e-07
6.07635e-07
6.29671e-07
6.33639e-07
6.25523e-07
6.15238e-07
6.19485e-07
9.96594e-07
2.60427e-06
2.00587e-06
1.06801e-06
9.01414e-07
8.30013e-07
7.80618e-07
7.56751e-07
7.36284e-07
7.18047e-07
7.25509e-07
8.21307e-07
1.12871e-06
1.74247e-06
3.13019e-06
5.93419e-06
5.28571e-06
2.32632e-06
1.17935e-06
8.47558e-07
7.78501e-07
7.41601e-07
5.77799e-07
5.16593e-07
5.26229e-07
5.50481e-07
5.55856e-07
5.73562e-07
5.83228e-07
7.27829e-07
1.52956e-06
3.13217e-06
1.93927e-06
1.35273e-06
1.09243e-06
9.58576e-07
9.17234e-07
8.7069e-07
8.47514e-07
8.655e-07
9.74082e-07
1.38778e-06
2.21474e-06
3.61871e-06
5.47395e-06
6.49981e-06
6.95414e-06
4.89801e-06
2.76596e-06
1.81708e-06
1.40416e-06
1.05998e-06
7.40256e-07
5.65695e-07
5.45439e-07
5.43638e-07
5.46974e-07
5.78691e-07
7.124e-07
1.05197e-06
2.0327e-06
3.396e-06
2.50759e-06
1.87859e-06
1.57081e-06
1.38706e-06
1.26265e-06
1.19106e-06
1.18404e-06
1.31532e-06
1.74059e-06
2.70035e-06
4.55671e-06
7.34457e-06
9.56849e-06
9.06541e-06
1.10259e-05
1.06442e-05
7.11899e-06
4.6743e-06
3.32464e-06
2.34739e-06
1.45046e-06
8.52736e-07
6.4025e-07
5.94463e-07
6.15029e-07
7.17896e-07
1.00891e-06
1.78195e-06
3.27488e-06
4.58928e-06
3.86167e-06
3.09616e-06
2.6789e-06
2.38986e-06
2.19063e-06
2.10091e-06
2.16945e-06
2.58195e-06
3.69149e-06
5.93896e-06
9.43688e-06
1.46978e-05
9.06431e-05
4.11866e-05
9.57072e-05
0.000254494
2.16161e-05
1.18302e-05
8.96591e-06
6.50346e-06
4.05094e-06
2.07106e-06
1.12478e-06
8.9762e-07
9.15625e-07
1.18558e-06
2.06182e-06
3.74808e-06
6.10193e-06
7.35162e-06
6.82406e-06
5.97944e-06
5.38778e-06
4.90805e-06
4.59183e-06
4.49073e-06
4.82019e-06
6.01036e-06
8.59147e-06
1.24052e-05
7.87918e-05
0.000282232
0.000460142
0.000308043
0.000400303
0.00132466
0.000971913
0.000528666
0.000186261
2.3524e-05
1.231e-05
7.11315e-06
3.77941e-06
2.52904e-06
2.41004e-06
3.30951e-06
5.59607e-06
9.17375e-06
1.22061e-05
1.30908e-05
1.29347e-05
1.22836e-05
1.16062e-05
1.09344e-05
1.04937e-05
1.0439e-05
1.1313e-05
1.35712e-05
4.50089e-05
0.000312201
0.000651899
0.000834743
0.00091459
0.000614303
0.000765722
0.00349981
0.00472871
0.00561741
0.00642531
0.00606434
0.00335403
0.000319864
1.56977e-05
1.08674e-05
9.64853e-06
1.17303e-05
1.62623e-05
0.000315101
0.000938524
0.00112074
0.00107249
0.000813562
0.000558183
0.000362807
0.000247849
0.00021148
0.000293034
0.000535862
0.000892615
0.00124209
0.00149342
0.00154801
0.0014091
0.000858929
0.00159512
0.00866755
0.0149638
0.0208603
0.0286118
0.0352987
0.0372827
0.0308634
0.0139153
0.00463338
0.00247124
0.00370677
0.00664369
0.00797394
0.00758794
0.00671004
0.00571764
0.0046593
0.00370944
0.00294971
0.00240624
0.00209189
0.00198444
0.00203772
0.00219409
0.00239422
0.00252454
0.00241361
0.00196746
0.00108042
0.00429279
0.0205996
0.0357802
0.0452277
0.0522942
0.0516307
0.0407417
0.0364737
0.0363922
0.0361887
0.0360461
0.0327661
0.0264972
0.0217845
0.0176938
0.0144092
0.0116525
0.00942491
0.00762102
0.00619936
0.00513257
0.00438538
0.00392612
0.00371931
0.00370215
0.00377229
0.00375803
0.0034257
0.00259714
0.00130395
0.0132015
0.0411929
0.0578235
0.0578209
0.0522499
0.0311848
0.0157178
0.012479
0.0175776
0.0278044
0.0329913
0.0311152
0.0298138
0.0286652
0.0255814
0.0216844
0.0178415
0.014599
0.0119614
0.00985124
0.00820475
0.00698482
0.00615773
0.0056813
0.00547156
0.00538151
0.00518528
0.00458158
0.00330976
0.00155068
0.0327335
0.0589771
0.0591053
0.0529109
0.0188977
0.00217951
0.000354186
0.000240479
0.00084685
0.00490821
0.0138699
0.0219918
0.0270025
0.0288135
0.0291884
0.0272524
0.0237415
0.0200532
0.0167706
0.0140118
0.0117716
0.0100337
0.00877732
0.00796352
0.00749945
0.0072056
0.00679863
0.00589011
0.00412492
0.00184829
0.0538684
0.0595445
0.056187
0.0142574
0.000259251
1.6121e-05
1.4637e-05
1.45612e-05
1.64624e-05
0.000140529
0.00278357
0.011069
0.0206173
0.026783
0.0293342
0.0299908
0.0282498
0.0250822
0.0216303
0.0184376
0.0156894
0.0134488
0.0117382
0.0105446
0.0097817
0.00924734
0.00860137
0.00735861
0.00506166
0.00223363
0.0646367
0.059074
0.0157429
5.83075e-05
1.0927e-05
9.46194e-06
1.06992e-05
1.16527e-05
1.23746e-05
1.43979e-05
0.000296134
0.0043615
0.013773
0.0228294
0.0282436
0.0304144
0.0307664
0.0290083
0.0260618
0.0228244
0.0197713
0.0171259
0.0149958
0.0134182
0.0123305
0.0115214
0.0106023
0.00899549
0.00614797
0.00275147
0.0572998
0.017308
0.000218334
8.14738e-06
7.65757e-06
7.87318e-06
8.61077e-06
1.0128e-05
1.13949e-05
1.25016e-05
2.31194e-05
0.00154782
0.00882003
0.0186859
0.0261168
0.0300428
0.0316304
0.03156
0.0297205
0.0269188
0.0238584
0.0209784
0.0185164
0.0165842
0.0151626
0.0140483
0.0128176
0.0108166
0.00741936
0.00346136
0.018792
0.000404464
9.1206e-06
7.00457e-06
7.25903e-06
7.34778e-06
7.53846e-06
8.7671e-06
1.03231e-05
1.23586e-05
1.38405e-05
0.000510022
0.00568148
0.0152943
0.023789
0.0290808
0.0317358
0.0328716
0.0324181
0.0305103
0.0277976
0.0249125
0.0222566
0.0200372
0.0182959
0.0168557
0.0152765
0.0128541
0.00892574
0.00444467
0.00147437
9.24203e-06
7.22176e-06
6.61179e-06
6.75003e-06
6.88588e-06
7.27521e-06
7.84597e-06
9.07803e-06
1.09894e-05
1.31784e-05
0.000195044
0.00381068
0.0127701
0.0217702
0.027874
0.0313866
0.0333596
0.0341582
0.0334493
0.0314444
0.0288274
0.0261626
0.0237661
0.0217501
0.0199819
0.0180269
0.0151649
0.0107426
0.0058157
0.000203105
7.51833e-06
7.42653e-06
6.24482e-06
6.60704e-06
6.80865e-06
7.30596e-06
7.73714e-06
8.88264e-06
9.11631e-06
1.2495e-05
8.59469e-05
0.00263541
0.0110195
0.0202734
0.0268116
0.0307162
0.0332571
0.0351064
0.0356737
0.0346844
0.032626
0.0301766
0.027756
0.025549
0.0234787
0.0211407
0.0178392
0.0129832
0.00773538
0.000805786
9.78093e-06
8.09329e-06
6.90151e-06
7.65943e-06
8.47009e-06
9.54656e-06
1.03041e-05
1.22083e-05
1.19477e-05
1.21294e-05
3.30136e-05
0.00167047
0.00975576
0.0192682
0.0261112
0.0300493
0.0328375
0.0354335
0.0372191
0.0374483
0.036227
0.0342425
0.0319922
0.0297225
0.0274163
0.0247218
0.0210111
0.0158141
0.0104297
0.00310899
2.18024e-05
1.65378e-05
1.31743e-05
1.11909e-05
1.11619e-05
1.57541e-05
0.000216957
0.00122221
0.00170077
1.86471e-05
1.9062e-05
0.000906622
0.00849841
0.0184757
0.0257198
0.0295305
0.0321605
0.0352384
0.0382401
0.0397096
0.0395703
0.0383126
0.0364637
0.0343103
0.0318886
0.0289161
0.0248735
0.0194775
0.0142184
0.00311451
0.000399806
0.000120549
0.000339284
0.000386415
0.000658669
0.00522138
0.0133113
0.0132551
0.00801454
0.00146387
5.67927e-05
0.000695786
0.00728261
0.0178966
0.0255488
0.0291412
0.0313505
0.034662
0.0387065
0.041557
0.0426303
0.0423542
0.0411688
0.0393665
0.037021
0.0339244
0.0297004
0.0243263
0.0195542
0.00304032
0.00408233
0.0046836
0.0124469
0.0192752
0.0275743
0.0273859
0.0173896
0.0104553
0.00495322
0.00540503
5.91019e-05
0.00087457
0.00657741
0.017976
0.0256964
0.028843
0.0304241
0.0336795
0.0386569
0.0429943
0.0454526
0.0463601
0.0461208
0.0449634
0.042976
0.0400201
0.0358843
0.0308766
0.0270824
0.00261341
0.0177961
0.034469
0.0514523
0.0497023
0.0360455
0.0269633
0.0137943
0.00729751
0.00491667
0.0057882
6.41126e-05
0.000843812
0.0059241
0.0186626
0.0263233
0.0285022
0.0292983
0.0322844
0.0382541
0.0440609
0.0480642
0.0503868
0.0513562
0.0511958
0.0499728
0.0476052
0.044046
0.0399618
0.0377553
0.00364553
0.0574341
0.0760445
0.0640648
0.0378924
0.0266912
0.0207981
0.014558
0.00840813
0.00503732
0.00584424
7.3564e-05
0.000319305
0.00439822
0.0196385
0.0271749
0.0280404
0.027806
0.0303618
0.0373509
0.0447926
0.0505321
0.0545029
0.0569967
0.0582571
0.0584331
0.0574701
0.05544
0.0532693
0.0532991
0.0234572
0.0762913
0.0761104
0.0286643
0.00820497
0.00999334
0.0160952
0.0186168
0.0130082
0.00685649
0.0057776
0.000112547
4.59801e-05
0.00298672
0.0205634
0.0271878
0.0273785
0.0256564
0.0277021
0.035899
0.0452199
0.0529816
0.058911
0.0633671
0.0668739
0.0696442
0.0715971
0.0728716
0.0744661
0.0754849
0.0763651
0.076212
0.0198222
0.00028151
5.65568e-05
0.000512476
0.00750485
0.0198365
0.0218226
0.0115568
0.00428676
0.000114126
2.0849e-05
0.00270637
0.0219942
0.0270116
0.0264309
0.0223824
0.02404
0.033821
0.045416
0.0556588
0.0641211
0.0716076
0.075717
0.0771861
0.0785429
0.0798706
0.0813869
0.0829645
0.0762571
0.0154604
1.50166e-05
9.55646e-06
1.14692e-05
1.54388e-05
0.00157091
0.0174838
0.0321108
0.0204356
0.00316066
7.45303e-05
1.90549e-05
0.00315831
0.0242311
0.0268658
0.0249478
0.0176033
0.0192615
0.0310837
0.0455825
0.0590468
0.0710635
0.0765901
0.0790522
0.0814383
0.0837924
0.0862701
0.0891316
0.0917412
0.026624
1.13422e-05
6.79341e-06
6.77145e-06
7.84898e-06
1.09395e-05
0.000161731
0.0128569
0.0416076
0.0314443
0.00128075
2.11751e-05
1.73635e-05
0.00441374
0.0262011
0.0267203
0.0214599
0.0114532
0.0137406
0.0278751
0.0461274
0.0638222
0.0761177
0.0795696
0.0829428
0.0863009
0.0897226
0.0933258
0.0973857
0.100315
0.000759947
6.74182e-06
6.98549e-06
6.30211e-06
7.99385e-06
1.00925e-05
1.70366e-05
0.00880033
0.0496731
0.0382415
0.000160746
1.45258e-05
1.63344e-05
0.00599146
0.0262889
0.0265496
0.0161009
0.00482231
0.00838911
0.0248263
0.0479388
0.0711628
0.0787483
0.0830498
0.0874139
0.0917635
0.0961578
0.100185
0.103879
0.105193
5.68207e-05
6.65965e-06
7.0187e-06
7.4677e-06
1.04553e-05
1.05303e-05
1.3621e-05
0.00577997
0.05603
0.0502106
6.2552e-05
1.29048e-05
1.54879e-05
0.00688802
0.0260862
0.0262613
0.00943866
0.000349522
0.00417449
0.0230252
0.0524476
0.0764859
0.0819211
0.0871368
0.0924915
0.0974979
0.101466
0.10456
0.105178
0.10522
7.26815e-05
7.31852e-06
8.76299e-06
1.14071e-05
1.46837e-05
1.27143e-05
1.28333e-05
0.00314779
0.0602572
0.0701078
0.000343988
1.22708e-05
1.29038e-05
0.00679241
0.0260936
0.0247288
0.00327343
1.21741e-05
0.00160426
0.0231602
0.0612569
0.0796707
0.0856292
0.0917583
0.0977725
0.101523
0.101578
0.101599
0.0991652
0.104997
7.73836e-05
9.81262e-06
1.52086e-05
0.00034354
1.67417e-05
1.45649e-05
1.39111e-05
0.00169557
0.0567343
0.0724919
0.00606343
1.19951e-05
1.1424e-05
0.00748
0.0261417
0.0207708
0.000532171
1.18852e-05
0.000516448
0.0251482
0.0751311
0.0833972
0.0897142
0.0964532
0.10147
0.101517
0.0972875
0.0788664
0.0247131
0.0360681
7.74285e-05
1.34555e-05
0.00135656
0.00183022
1.95705e-05
1.51652e-05
1.66213e-05
0.00129819
0.0460538
0.0715481
0.0340983
1.55184e-05
1.12608e-05
0.00886221
0.0261783
0.0123468
2.08204e-05
1.12022e-05
0.000366278
0.0302269
0.0796285
0.0874814
0.0937084
0.0998746
0.101465
0.0963761
0.0373689
0.00457492
3.96334e-05
3.72517e-05
7.4113e-05
1.6671e-05
0.00198983
0.00183789
1.81575e-05
1.43666e-05
1.9008e-05
0.00177441
0.0356271
0.0734544
0.0705599
0.00310225
1.39286e-05
0.00789072
0.0260855
0.00410173
1.42575e-05
1.0794e-05
0.000481353
0.0401655
0.084602
0.0912409
0.0962907
0.0998839
0.0976698
0.0332374
8.80729e-05
1.24915e-05
7.21629e-06
1.31333e-05
2.50521e-05
1.84844e-05
0.00198532
0.00190638
1.67225e-05
1.02795e-05
1.5075e-05
0.0014556
0.0234824
0.0718007
0.071291
0.0298601
0.00273819
0.0139825
0.0258441
1.47789e-05
0.000169253
1.36923e-05
0.00102055
0.0561319
0.0892406
0.0938257
0.0967604
0.0967836
0.0658031
0.000234853
1.23802e-05
3.47387e-06
1.47699e-06
3.26469e-06
2.40769e-05
6.32242e-05
0.00199761
0.00198632
1.51941e-05
5.89764e-06
6.54856e-06
2.71401e-05
0.0103981
0.0506155
0.0633897
0.0464424
0.0260461
0.0311985
0.0165719
1.07072e-05
0.000187587
0.000759502
0.00443897
0.0760702
0.0929198
0.0954601
0.0962299
0.0859391
0.00765022
1.45754e-05
5.14684e-06
1.60802e-06
1.30118e-06
3.36673e-06
1.17266e-05
2.01058e-05
0.000826163
0.000104364
1.02642e-05
3.26694e-06
3.85903e-06
1.16893e-05
3.59571e-05
0.0141623
0.0334126
0.0373896
0.0348573
0.0344617
0.0214029
1.11683e-05
9.62934e-06
7.67382e-05
0.00306413
0.0776694
0.0944852
0.0954025
0.0923782
0.0562929
0.000572254
9.648e-06
3.11769e-06
1.4001e-06
1.88047e-06
3.86056e-06
2.92927e-06
4.77753e-06
9.8738e-06
9.01415e-06
4.80574e-06
3.1873e-06
4.14227e-06
3.86871e-06
2.78392e-06
2.1295e-05
0.00163823
0.0122274
0.0289732
0.0344358
0.032912
2.14191e-05
2.8785e-06
8.87875e-06
6.55699e-05
0.061019
0.0948047
0.0952616
0.0864446
0.0199294
6.34979e-05
5.59881e-06
2.43539e-06
1.60218e-06
2.63537e-06
3.53065e-06
2.28031e-06
2.28595e-06
2.35768e-06
2.76577e-06
3.18938e-06
3.58612e-06
3.58637e-06
2.04521e-06
1.23039e-06
3.20077e-06
4.01909e-05
0.00016569
0.00240294
0.0217765
0.0126973
1.95234e-05
1.93618e-06
2.22613e-06
1.03834e-05
0.0354215
0.0962223
0.0947654
0.0779628
0.00280212
9.75548e-06
4.65479e-06
2.13687e-06
2.02167e-06
2.81822e-06
3.55469e-06
3.58133e-06
3.30689e-06
3.09651e-06
2.86185e-06
2.80618e-06
2.5912e-06
1.734e-06
1.11789e-06
8.75497e-07
1.01054e-06
4.837e-06
4.17239e-05
0.00059679
0.00658195
6.16576e-05
4.99834e-06
1.26197e-06
1.29435e-06
7.22269e-06
0.0355046
0.0995125
0.0948756
0.0549413
0.000578122
7.81589e-06
4.2269e-06
1.71798e-06
2.08218e-06
2.90193e-06
3.87324e-06
3.72035e-06
3.35669e-06
3.0693e-06
2.79651e-06
2.40174e-06
1.76872e-06
1.19095e-06
9.29207e-07
7.9987e-07
6.8508e-07
7.419e-07
2.16952e-06
6.46985e-06
1.00987e-05
6.7452e-06
1.59534e-06
1.07194e-06
1.25683e-06
1.03035e-05
0.0886081
0.0995885
0.0955285
0.0297346
0.00020895
7.74227e-06
2.46772e-06
1.76997e-06
1.968e-06
2.87748e-06
3.98643e-06
3.55426e-06
3.3243e-06
3.14276e-06
2.8432e-06
2.27102e-06
1.49411e-06
9.90336e-07
7.87114e-07
6.98857e-07
6.61614e-07
6.16693e-07
6.1213e-07
8.3128e-07
1.58676e-06
1.89721e-06
1.62599e-06
1.49302e-06
2.59399e-06
0.00278612
0.0993045
0.0997077
0.0936111
0.00831484
1.21789e-05
5.96816e-06
1.59711e-06
1.52798e-06
1.9446e-06
2.86864e-06
3.99222e-06
3.43574e-06
3.35526e-06
3.22658e-06
2.77146e-06
1.91502e-06
1.088e-06
7.75929e-07
7.01523e-07
6.70054e-07
6.50554e-07
6.34027e-07
6.30146e-07
6.85312e-07
1.16048e-06
2.21433e-06
2.14814e-06
2.09484e-06
5.82236e-06
0.0242796
0.0995351
0.0996169
0.0834088
0.00268894
1.34356e-05
2.61451e-06
1.36068e-06
1.43278e-06
1.95721e-06
2.91623e-06
4.00653e-06
3.40642e-06
3.43316e-06
3.20111e-06
2.43919e-06
1.34347e-06
8.32258e-07
7.13573e-07
7.05995e-07
6.952e-07
6.83762e-07
6.79484e-07
7.13517e-07
8.43422e-07
1.26187e-06
2.50948e-06
2.82011e-06
3.15834e-06
3.86356e-05
0.0750465
0.0995452
0.0994948
0.0519305
0.000435967
8.62912e-06
1.46695e-06
1.25879e-06
1.3972e-06
1.98359e-06
2.9805e-06
4.04087e-06
3.4529e-06
3.48477e-06
2.97147e-06
1.76827e-06
9.5436e-07
7.57236e-07
7.42907e-07
7.61038e-07
7.57755e-07
7.50202e-07
7.65127e-07
8.47171e-07
1.01858e-06
1.24336e-06
2.68341e-06
3.67682e-06
5.00587e-06
0.0027524
0.0886668
0.099511
0.0928082
0.00946535
2.26012e-05
2.60909e-06
1.28144e-06
1.23541e-06
1.38954e-06
1.98899e-06
2.99743e-06
4.0579e-06
3.52865e-06
3.40061e-06
2.36278e-06
1.16e-06
8.27726e-07
8.00107e-07
8.17292e-07
8.33783e-07
8.33748e-07
8.36645e-07
8.81749e-07
1.01724e-06
1.11764e-06
1.0904e-06
2.9497e-06
4.80162e-06
7.34844e-06
0.0130989
0.0926927
0.0993865
0.0761835
0.000397661
6.74901e-06
1.24761e-06
1.27685e-06
1.26226e-06
1.39019e-06
1.96868e-06
2.98599e-06
4.05773e-06
3.51513e-06
3.00629e-06
1.52158e-06
9.37791e-07
8.69243e-07
8.89354e-07
9.03214e-07
9.14578e-07
9.0847e-07
9.24797e-07
9.81511e-07
1.07317e-06
1.05252e-06
9.24664e-07
2.6659e-06
6.75633e-06
2.83082e-05
0.0310677
0.0936431
0.0951278
0.0190662
1.82769e-05
2.36193e-06
1.10441e-06
1.29521e-06
1.30933e-06
1.40366e-06
1.92639e-06
2.94126e-06
4.03574e-06
3.25817e-06
2.2291e-06
1.11542e-06
9.59565e-07
9.71684e-07
9.86848e-07
9.89145e-07
9.8305e-07
9.59134e-07
9.6305e-07
9.81206e-07
9.52958e-07
8.75443e-07
7.92636e-07
1.64944e-06
8.02222e-06
0.00017027
0.0489705
0.0916039
0.0836482
0.00305585
8.88997e-06
1.41454e-06
1.11243e-06
1.297e-06
1.33009e-06
1.42649e-06
1.88234e-06
2.86825e-06
3.97931e-06
2.66247e-06
1.46532e-06
1.06863e-06
1.06859e-06
1.07367e-06
1.05038e-06
1.02531e-06
9.61837e-07
9.14767e-07
9.01444e-07
8.78589e-07
8.16787e-07
7.89612e-07
7.32235e-07
1.01103e-06
8.44905e-06
0.000101136
0.0602574
0.0875512
0.066463
0.000722965
6.17317e-06
1.1963e-06
1.15239e-06
1.28678e-06
1.34062e-06
1.44286e-06
1.84598e-06
2.78224e-06
3.89399e-06
1.92756e-06
1.26263e-06
1.16866e-06
1.16306e-06
1.11253e-06
1.05249e-06
9.60879e-07
8.81466e-07
8.45614e-07
8.314e-07
8.03268e-07
7.71347e-07
7.58658e-07
7.20935e-07
8.15566e-07
1.11618e-05
3.83188e-05
0.0697313
0.0836834
0.0310424
7.67534e-05
4.89785e-06
1.09823e-06
1.1925e-06
1.28329e-06
1.35699e-06
1.46242e-06
1.83553e-06
2.69882e-06
3.79201e-06
1.64069e-06
1.36175e-06
1.24085e-06
1.15729e-06
1.05284e-06
9.46172e-07
8.70596e-07
8.24992e-07
8.05008e-07
7.92683e-07
7.70833e-07
7.58387e-07
7.49178e-07
7.35508e-07
7.64827e-07
7.49246e-06
2.87212e-05
0.0774993
0.0786401
0.00882076
1.78598e-05
2.79517e-06
1.11598e-06
1.20935e-06
1.29618e-06
1.3792e-06
1.49647e-06
1.84739e-06
2.62833e-06
3.67316e-06
1.81452e-06
1.46262e-06
1.20341e-06
1.04902e-06
9.32854e-07
8.5481e-07
8.10222e-07
7.87502e-07
7.76472e-07
7.6708e-07
7.58092e-07
7.53419e-07
7.57658e-07
7.67696e-07
7.61102e-07
2.17622e-06
2.78594e-05
0.0767756
0.0688938
0.00314565
1.37905e-05
1.44561e-06
1.13703e-06
1.21668e-06
1.3071e-06
1.40137e-06
1.54172e-06
1.88408e-06
2.57684e-06
3.52734e-06
2.12516e-06
1.43942e-06
1.05511e-06
9.35794e-07
8.58092e-07
8.02432e-07
7.7317e-07
7.58377e-07
7.57177e-07
7.57693e-07
7.62774e-07
7.74203e-07
7.92831e-07
8.01248e-07
7.81335e-07
1.04477e-06
3.54767e-05
0.0663977
0.0366404
0.000149718
5.26365e-06
1.12869e-06
1.13284e-06
1.24074e-06
1.32609e-06
1.4248e-06
1.59539e-06
1.94046e-06
2.54607e-06
3.35241e-06
2.34207e-06
1.2717e-06
9.5115e-07
8.84924e-07
8.22525e-07
7.74056e-07
7.60213e-07
7.54471e-07
7.5822e-07
7.65372e-07
7.81774e-07
8.05577e-07
8.21896e-07
8.18165e-07
8.02754e-07
8.59963e-07
1.07686e-05
0.011952
0.00424953
2.02712e-05
1.66182e-06
9.141e-07
1.13195e-06
1.27969e-06
1.36749e-06
1.45839e-06
1.64732e-06
2.00019e-06
2.52963e-06
3.17853e-06
2.31027e-06
1.14385e-06
9.04981e-07
8.55164e-07
7.96198e-07
7.55826e-07
7.48685e-07
7.53621e-07
7.61334e-07
7.73092e-07
8.02518e-07
8.28086e-07
8.28036e-07
8.11661e-07
8.07377e-07
9.44866e-07
3.16821e-06
2.95358e-05
2.15556e-05
3.59948e-06
7.88061e-07
8.6179e-07
1.10895e-06
1.29489e-06
1.4291e-06
1.50893e-06
1.69101e-06
2.04205e-06
2.51552e-06
3.0231e-06
2.4132e-06
1.10935e-06
8.7203e-07
8.20496e-07
7.65466e-07
7.33978e-07
7.33605e-07
7.48805e-07
7.61503e-07
7.79395e-07
8.15596e-07
8.33361e-07
8.20326e-07
8.01347e-07
8.19053e-07
1.04073e-06
2.54063e-06
1.23761e-05
9.27863e-06
1.72158e-06
6.64181e-07
8.02886e-07
1.02288e-06
1.27735e-06
1.48462e-06
1.57559e-06
1.73192e-06
2.05816e-06
2.48652e-06
2.88585e-06
2.45122e-06
1.09313e-06
8.43436e-07
7.8868e-07
7.406e-07
7.17919e-07
7.26569e-07
7.4806e-07
7.62825e-07
7.8728e-07
8.22241e-07
8.29137e-07
8.12372e-07
7.95984e-07
8.30367e-07
1.18327e-06
3.30329e-06
9.91457e-06
7.34906e-06
1.36637e-06
5.90969e-07
6.97835e-07
8.91243e-07
1.20563e-06
1.49273e-06
1.65093e-06
1.78066e-06
2.06191e-06
2.43843e-06
2.75964e-06
2.45728e-06
1.08508e-06
8.24449e-07
7.66464e-07
7.25609e-07
7.10817e-07
7.2628e-07
7.50793e-07
7.66227e-07
7.95244e-07
8.27747e-07
8.26522e-07
8.11139e-07
8.01082e-07
8.71686e-07
1.3972e-06
4.18106e-06
1.14624e-05
6.25431e-06
1.00113e-06
5.60216e-07
6.15396e-07
7.70855e-07
1.07952e-06
1.47047e-06
1.71637e-06
1.83637e-06
2.0627e-06
2.38311e-06
2.63632e-06
2.44565e-06
1.08903e-06
8.08243e-07
7.4557e-07
7.12834e-07
7.06011e-07
7.26045e-07
7.54797e-07
7.72764e-07
8.04432e-07
8.34656e-07
8.31126e-07
8.14263e-07
8.2291e-07
9.4715e-07
1.65967e-06
5.19392e-06
1.23705e-05
4.76064e-06
8.13156e-07
5.48122e-07
5.66572e-07
6.76496e-07
9.39911e-07
1.39137e-06
1.73605e-06
1.89202e-06
2.06845e-06
2.32774e-06
2.50611e-06
2.42665e-06
1.08957e-06
7.89601e-07
7.24673e-07
7.00753e-07
7.04073e-07
7.32212e-07
7.64982e-07
7.84877e-07
8.18932e-07
8.43537e-07
8.37537e-07
8.25132e-07
8.61478e-07
1.0615e-06
2.06486e-06
5.95456e-06
1.06306e-05
3.04067e-06
7.11962e-07
5.79931e-07
5.70482e-07
6.11591e-07
8.12156e-07
1.2558e-06
1.72705e-06
1.94684e-06
2.08481e-06
2.27814e-06
2.38462e-06
2.40752e-06
1.07333e-06
7.6716e-07
7.11008e-07
6.95736e-07
7.09922e-07
7.49594e-07
7.83815e-07
8.03407e-07
8.35777e-07
8.5439e-07
8.43127e-07
8.46202e-07
9.26381e-07
1.26382e-06
2.6273e-06
6.82658e-06
8.20131e-06
1.78233e-06
6.57668e-07
6.25922e-07
6.28181e-07
6.08281e-07
7.14792e-07
1.10997e-06
1.68038e-06
1.98388e-06
2.11132e-06
2.24086e-06
2.29188e-06
2.35081e-06
1.03214e-06
7.49595e-07
7.06025e-07
6.98949e-07
7.25515e-07
7.76179e-07
8.07518e-07
8.27436e-07
8.55153e-07
8.6372e-07
8.57433e-07
8.81599e-07
1.04911e-06
1.6795e-06
3.31299e-06
6.38014e-06
4.49851e-06
1.15328e-06
6.44586e-07
6.64069e-07
7.04668e-07
6.79599e-07
6.59553e-07
9.7578e-07
1.58886e-06
1.99413e-06
2.14242e-06
2.22017e-06
2.24454e-06
2.25797e-06
9.8239e-07
7.38531e-07
7.05437e-07
7.07112e-07
7.48568e-07
8.0816e-07
8.3665e-07
8.53922e-07
8.79018e-07
8.80085e-07
8.81608e-07
9.61954e-07
1.28203e-06
2.32337e-06
3.97563e-06
5.09074e-06
2.31911e-06
8.51007e-07
6.57779e-07
7.05674e-07
7.72565e-07
7.82151e-07
6.78017e-07
8.55854e-07
1.45417e-06
1.98764e-06
2.17831e-06
2.21933e-06
2.25333e-06
2.16837e-06
9.41851e-07
7.28708e-07
7.03589e-07
7.16883e-07
7.73505e-07
8.40477e-07
8.6869e-07
8.8461e-07
9.07261e-07
9.09188e-07
9.32854e-07
1.0824e-06
1.75761e-06
3.14889e-06
4.39248e-06
3.86414e-06
1.28329e-06
7.39751e-07
6.86958e-07
7.37263e-07
8.33035e-07
8.54104e-07
7.78274e-07
7.69235e-07
1.30137e-06
1.9501e-06
2.20476e-06
2.23287e-06
2.30971e-06
2.11031e-06
9.04295e-07
7.16032e-07
6.9837e-07
7.2723e-07
8.02197e-07
8.73944e-07
9.00811e-07
9.19662e-07
9.41126e-07
9.48731e-07
1.00958e-06
1.38902e-06
2.50123e-06
4.00403e-06
4.72529e-06
2.19393e-06
8.92557e-07
7.53985e-07
7.20738e-07
7.44499e-07
8.68461e-07
9.19208e-07
9.03966e-07
7.55008e-07
1.14988e-06
1.88115e-06
2.21242e-06
2.25587e-06
2.41328e-06
2.07968e-06
8.71521e-07
7.03618e-07
6.97439e-07
7.46275e-07
8.39465e-07
9.10631e-07
9.31927e-07
9.49836e-07