/*--------------------------------*- C++ -*----------------------------------*\
| =========                 |                                                 |
| \\      /  F ield         | OpenFOAM: The Open Source CFD Toolbox           |
|  \\    /   O peration     | Version:  v1606+                                |
|   \\  /    A nd           | Web:      www.OpenFOAM.com                      |
|    \\/     M anipulation  |                                                 |
\*---------------------------------------------------------------------------*/
FoamFile
{
    version     2.0;
    format      ascii;
    class       volVectorField;
    location    "1.15";
    object      Ur;
}
// * * * * * * * * * * * * * * * * * * * * * * * * * * * * * * * * * * * * * //

dimensions      [0 1 -1 0 0 0 0];

internalField   nonuniform List<vector> 
6000
(
(0.011655 -0.572706 0)
(0.0144768 -0.572589 0)
(0.0159328 -0.570554 0)
(-0.00486097 -0.561993 0)
(-0.0329529 -0.557334 0)
(-0.0226409 -0.586283 0)
(0.0161443 -0.651053 0)
(0.0413217 -0.688188 0)
(0.0610628 -0.692608 0)
(0.0717829 -0.683076 0)
(0.0640638 -0.666427 0)
(0.0461512 -0.659633 0)
(0.0208908 -0.651375 0)
(-0.00819038 -0.644055 0)
(-0.0348106 -0.639879 0)
(-0.0572267 -0.636431 0)
(-0.071625 -0.637511 0)
(-0.0769827 -0.652072 0)
(-0.0805738 -0.683165 0)
(-0.0734857 -0.708687 0)
(-0.0528648 -0.707512 0)
(-0.0315727 -0.67029 0)
(-0.00948108 -0.606321 0)
(0.00588695 -0.563111 0)
(-0.00879502 -0.548621 0)
(-0.040327 -0.552795 0)
(-0.0647607 -0.55184 0)
(-0.0715487 -0.555473 0)
(-0.0463266 -0.563964 0)
(-0.0209148 -0.566803 0)
(0.0261426 -0.982187 0)
(0.0696922 -0.940196 0)
(0.096761 -0.892772 0)
(0.0949698 -0.842015 0)
(0.0683278 -0.835242 0)
(0.0551314 -0.910858 0)
(0.0710837 -0.956939 0)
(0.104134 -0.965297 0)
(0.118366 -0.932995 0)
(0.106284 -0.90739 0)
(0.0918835 -0.893953 0)
(0.0780867 -0.88508 0)
(0.0587116 -0.867909 0)
(0.0296195 -0.845298 0)
(-0.00923109 -0.826137 0)
(-0.0511385 -0.819125 0)
(-0.091763 -0.82666 0)
(-0.118487 -0.85486 0)
(-0.123216 -0.888439 0)
(-0.118352 -0.920821 0)
(-0.106522 -0.943354 0)
(-0.0871029 -0.935873 0)
(-0.0779693 -0.89964 0)
(-0.0944255 -0.850294 0)
(-0.126339 -0.813364 0)
(-0.143256 -0.849363 0)
(-0.130767 -0.885741 0)
(-0.109177 -0.931768 0)
(-0.0722777 -0.974643 0)
(-0.0240667 -0.987338 0)
(0.0470894 -1.04667 0)
(0.137201 -0.995562 0)
(0.189579 -0.897069 0)
(0.178548 -0.766295 0)
(0.138049 -0.689185 0)
(0.0899874 -0.726944 0)
(0.0783945 -0.802384 0)
(0.121058 -0.809485 0)
(0.141119 -0.749768 0)
(0.123721 -0.703464 0)
(0.102172 -0.692907 0)
(0.0882448 -0.683338 0)
(0.0695546 -0.653522 0)
(0.0368653 -0.618884 0)
(-0.00637948 -0.597265 0)
(-0.0518113 -0.601926 0)
(-0.0941146 -0.627626 0)
(-0.125245 -0.671903 0)
(-0.135935 -0.715078 0)
(-0.129589 -0.753787 0)
(-0.106087 -0.779544 0)
(-0.07544 -0.765175 0)
(-0.0765993 -0.710346 0)
(-0.128974 -0.654489 0)
(-0.189736 -0.68396 0)
(-0.218242 -0.81411 0)
(-0.199148 -0.911154 0)
(-0.142055 -0.986243 0)
(-0.0754183 -1.04223 0)
(-0.0212095 -1.0326 0)
(0.0333908 -1.22002 0)
(0.13218 -1.21153 0)
(0.245723 -1.09356 0)
(0.300045 -0.955387 0)
(0.276586 -0.836057 0)
(0.218334 -0.769285 0)
(0.182529 -0.812752 0)
(0.166147 -0.814511 0)
(0.152263 -0.729693 0)
(0.124286 -0.667808 0)
(0.0940166 -0.662711 0)
(0.0721078 -0.652704 0)
(0.0467308 -0.610026 0)
(0.0131213 -0.573897 0)
(-0.0196829 -0.560096 0)
(-0.0457702 -0.570465 0)
(-0.0668491 -0.594768 0)
(-0.0898352 -0.637697 0)
(-0.106955 -0.692327 0)
(-0.10968 -0.741679 0)
(-0.108218 -0.77506 0)
(-0.120597 -0.760769 0)
(-0.172988 -0.70566 0)
(-0.249916 -0.718286 0)
(-0.291465 -0.857579 0)
(-0.265384 -1.00943 0)
(-0.195106 -1.09804 0)
(-0.110993 -1.16328 0)
(-0.0477723 -1.19297 0)
(-0.0126205 -1.15886 0)
(0.00927536 -1.2712 0)
(0.0390799 -1.3113 0)
(0.118692 -1.23432 0)
(0.240222 -1.07178 0)
(0.329955 -0.947283 0)
(0.335572 -0.854522 0)
(0.268978 -0.771975 0)
(0.189975 -0.738705 0)
(0.125526 -0.668305 0)
(0.0880185 -0.621464 0)
(0.0557491 -0.625263 0)
(0.0203493 -0.626085 0)
(-0.00872568 -0.603944 0)
(-0.0237324 -0.597661 0)
(-0.0306371 -0.609703 0)
(-0.0336314 -0.628869 0)
(-0.0330136 -0.640522 0)
(-0.0346277 -0.65693 0)
(-0.0404986 -0.690362 0)
(-0.0567159 -0.721562 0)
(-0.0948876 -0.736335 0)
(-0.15854 -0.717562 0)
(-0.250711 -0.678529 0)
(-0.324775 -0.795937 0)
(-0.285194 -1.01711 0)
(-0.150758 -1.15352 0)
(-0.0383159 -1.20795 0)
(0.011551 -1.21091 0)
(0.016505 -1.19483 0)
(0.0069525 -1.14973 0)
(-0.0165058 -1.14227 0)
(-0.051811 -1.18018 0)
(-0.0646496 -1.20609 0)
(0.0203543 -1.22324 0)
(0.206128 -1.13957 0)
(0.318198 -0.945437 0)
(0.295943 -0.761543 0)
(0.187688 -0.654116 0)
(0.0871342 -0.625694 0)
(0.0396631 -0.618353 0)
(0.00926936 -0.645085 0)
(-0.0281417 -0.678057 0)
(-0.0611704 -0.709729 0)
(-0.0695568 -0.771531 0)
(-0.0637551 -0.83416 0)
(-0.0515866 -0.882043 0)
(-0.0288469 -0.888937 0)
(-0.00464513 -0.866595 0)
(0.0060977 -0.832901 0)
(-0.00924834 -0.791674 0)
(-0.0657179 -0.744624 0)
(-0.166915 -0.704887 0)
(-0.280516 -0.69398 0)
(-0.251333 -0.951081 0)
(-0.0446177 -1.22965 0)
(0.126723 -1.23318 0)
(0.163654 -1.14547 0)
(0.126383 -1.07846 0)
(0.0793012 -1.04188 0)
(0.0321241 -0.997613 0)
(-0.038758 -1.03375 0)
(-0.0929864 -1.07415 0)
(-0.126193 -1.10861 0)
(-0.149419 -1.1631 0)
(-0.0771987 -1.24548 0)
(0.13391 -1.11139 0)
(0.249801 -0.794039 0)
(0.181992 -0.577197 0)
(0.0609228 -0.605465 0)
(-0.00939404 -0.655925 0)
(-0.0486629 -0.735775 0)
(-0.0871716 -0.827188 0)
(-0.146345 -0.924547 0)
(-0.173376 -1.03602 0)
(-0.147896 -1.09086 0)
(-0.0877515 -1.12613 0)
(-0.0066425 -1.12287 0)
(0.0574054 -1.10305 0)
(0.0901061 -1.05825 0)
(0.0821575 -0.969058 0)
(0.0155892 -0.833334 0)
(-0.111565 -0.727088 0)
(-0.143392 -0.783122 0)
(0.064601 -1.23392 0)
(0.316481 -1.31747 0)
(0.338182 -1.15409 0)
(0.269038 -1.02935 0)
(0.182166 -0.959256 0)
(0.116956 -0.947066 0)
(0.0475054 -0.876174 0)
(-0.0513131 -0.892125 0)
(-0.124321 -0.969743 0)
(-0.178689 -1.00485 0)
(-0.240683 -1.09024 0)
(-0.251729 -1.21739 0)
(-0.121486 -1.25495 0)
(0.0639259 -0.919833 0)
(0.0855475 -0.529411 0)
(-0.0178333 -0.608733 0)
(-0.11602 -0.740578 0)
(-0.178583 -0.8987 0)
(-0.196345 -1.01786 0)
(-0.157322 -1.09872 0)
(-0.115077 -1.19193 0)
(-0.110965 -1.22146 0)
(-0.113368 -1.27496 0)
(-0.099291 -1.2697 0)
(-0.0663977 -1.23972 0)
(-0.000677599 -1.18214 0)
(0.083746 -1.07548 0)
(0.123596 -0.908655 0)
(0.0874843 -0.787342 0)
(0.184823 -1.04813 0)
(0.434336 -1.4307 0)
(0.515301 -1.28939 0)
(0.422703 -1.01593 0)
(0.295747 -0.87235 0)
(0.189844 -0.819794 0)
(0.115592 -0.829225 0)
(0.0417783 -0.736237 0)
(-0.0428571 -0.751107 0)
(-0.108998 -0.862685 0)
(-0.171019 -0.87246 0)
(-0.262125 -0.966023 0)
(-0.328182 -1.16997 0)
(-0.306252 -1.30243 0)
(-0.193651 -1.08522 0)
(-0.0977412 -0.604894 0)
(-0.175144 -0.667024 0)
(-0.250939 -0.863575 0)
(-0.166091 -1.04388 0)
(-0.0303956 -1.22735 0)
(0.0944159 -1.34929 0)
(0.151292 -1.26967 0)
(0.0561695 -1.16805 0)
(-0.0940157 -1.13764 0)
(-0.242511 -1.15674 0)
(-0.33606 -1.24108 0)
(-0.296957 -1.34432 0)
(-0.100479 -1.31 0)
(0.154638 -1.08694 0)
(0.349154 -0.933957 0)
(0.534298 -1.27602 0)
(0.614997 -1.48102 0)
(0.544469 -1.18913 0)
(0.399123 -0.854083 0)
(0.264268 -0.731665 0)
(0.169941 -0.715661 0)
(0.0990242 -0.734029 0)
(0.0316216 -0.640774 0)
(-0.0317807 -0.660807 0)
(-0.0893357 -0.785951 0)
(-0.144044 -0.779974 0)
(-0.221395 -0.851702 0)
(-0.32087 -1.06544 0)
(-0.406076 -1.27298 0)
(-0.430177 -1.18652 0)
(-0.348787 -0.816237 0)
(-0.28195 -0.746971 0)
(-0.152872 -1.04288 0)
(0.193331 -1.3896 0)
(0.455061 -1.39086 0)
(0.464283 -1.2388 0)
(0.335817 -0.997438 0)
(0.148556 -0.820752 0)
(-0.0355493 -0.796095 0)
(-0.206698 -0.829175 0)
(-0.354162 -0.961973 0)
(-0.407389 -1.21567 0)
(-0.255456 -1.34517 0)
(0.11314 -1.39123 0)
(0.494931 -1.28496 0)
(0.618166 -1.37501 0)
(0.590605 -1.38302 0)
(0.481884 -1.02891 0)
(0.353707 -0.718082 0)
(0.247923 -0.636211 0)
(0.165951 -0.640138 0)
(0.0955294 -0.652834 0)
(0.0293203 -0.568255 0)
(-0.029922 -0.587507 0)
(-0.0944344 -0.713563 0)
(-0.153038 -0.724163 0)
(-0.210772 -0.778892 0)
(-0.300001 -0.947138 0)
(-0.443285 -1.14878 0)
(-0.583783 -1.17609 0)
(-0.569998 -1.04032 0)
(-0.344393 -1.04834 0)
(0.123541 -1.42002 0)
(0.544883 -1.4999 0)
(0.615061 -1.21537 0)
(0.459801 -0.940551 0)
(0.277111 -0.730737 0)
(0.132968 -0.604536 0)
(0.0148676 -0.593014 0)
(-0.108747 -0.608595 0)
(-0.241774 -0.75068 0)
(-0.325738 -1.10812 0)
(-0.221867 -1.39521 0)
(0.0575273 -1.55792 0)
(0.316328 -1.39136 0)
(0.414017 -1.29458 0)
(0.452499 -1.26234 0)
(0.391671 -0.871557 0)
(0.304097 -0.601083 0)
(0.229408 -0.552667 0)
(0.163476 -0.569747 0)
(0.0976897 -0.570454 0)
(0.0311332 -0.492055 0)
(-0.032083 -0.507422 0)
(-0.105162 -0.623042 0)
(-0.173413 -0.661006 0)
(-0.22806 -0.711974 0)
(-0.306711 -0.820391 0)
(-0.445143 -0.961344 0)
(-0.577006 -1.08409 0)
(-0.55802 -1.24397 0)
(-0.242675 -1.44683 0)
(0.216589 -1.7151 0)
(0.495967 -1.52509 0)
(0.471456 -0.999174 0)
(0.316092 -0.676619 0)
(0.193388 -0.553809 0)
(0.117736 -0.47334 0)
(0.0546642 -0.445799 0)
(-0.0251627 -0.429217 0)
(-0.129457 -0.550963 0)
(-0.226983 -1.00531 0)
(-0.159771 -1.45291 0)
(0.0244752 -1.64927 0)
(0.165946 -1.52567 0)
(0.263148 -1.34705 0)
(0.344721 -1.21899 0)
(0.297773 -0.740113 0)
(0.233092 -0.489816 0)
(0.18735 -0.478843 0)
(0.144165 -0.501779 0)
(0.0902944 -0.490084 0)
(0.0303131 -0.412937 0)
(-0.0310663 -0.421205 0)
(-0.0998342 -0.520951 0)
(-0.166601 -0.572867 0)
(-0.225782 -0.61738 0)
(-0.305204 -0.666863 0)
(-0.411378 -0.77371 0)
(-0.467392 -1.02028 0)
(-0.373642 -1.33568 0)
(-0.171019 -1.70811 0)
(0.0515254 -1.84094 0)
(0.238191 -1.4759 0)
(0.292258 -0.855486 0)
(0.215769 -0.502227 0)
(0.146403 -0.434836 0)
(0.10441 -0.372439 0)
(0.0719501 -0.329789 0)
(0.0301553 -0.293936 0)
(-0.0303712 -0.371692 0)
(-0.138729 -0.857808 0)
(-0.140097 -1.41725 0)
(-0.019182 -1.65922 0)
(0.0765801 -1.60327 0)
(0.165293 -1.41842 0)
(0.231918 -1.11583 0)
(0.202489 -0.619567 0)
(0.147833 -0.390125 0)
(0.125387 -0.412086 0)
(0.0969938 -0.4302 0)
(0.0619645 -0.416403 0)
(0.0226359 -0.340119 0)
(-0.0225848 -0.341245 0)
(-0.0709501 -0.422206 0)
(-0.125795 -0.467126 0)
(-0.189993 -0.491088 0)
(-0.269132 -0.503525 0)
(-0.354946 -0.615996 0)
(-0.37314 -1.02083 0)
(-0.271011 -1.44741 0)
(-0.197621 -1.77964 0)
(-0.168318 -1.86452 0)
(-0.029583 -1.51655 0)
(0.145768 -0.824926 0)
(0.160086 -0.391291 0)
(0.113532 -0.336774 0)
(0.0848965 -0.293341 0)
(0.073526 -0.251469 0)
(0.0644386 -0.222313 0)
(0.0481263 -0.261093 0)
(-0.0344735 -0.66098 0)
(-0.141957 -1.2785 0)
(-0.0651663 -1.59765 0)
(0.0233684 -1.60905 0)
(0.0851634 -1.4507 0)
(0.146753 -1.0743 0)
(0.111645 -0.516282 0)
(0.0708044 -0.307983 0)
(0.0557074 -0.338188 0)
(0.0365179 -0.356056 0)
(0.0226311 -0.356288 0)
(0.00955866 -0.28411 0)
(-0.00963222 -0.283105 0)
(-0.0310175 -0.338611 0)
(-0.0637634 -0.358476 0)
(-0.114396 -0.356403 0)
(-0.180953 -0.351097 0)
(-0.251127 -0.463812 0)
(-0.29238 -0.978322 0)
(-0.254596 -1.46076 0)
(-0.262368 -1.70302 0)
(-0.326047 -1.74452 0)
(-0.278439 -1.51697 0)
(-0.0392429 -0.918569 0)
(0.0950482 -0.336644 0)
(0.0858753 -0.264608 0)
(0.0712866 -0.236961 0)
(0.066644 -0.210281 0)
(0.077248 -0.213434 0)
(0.103125 -0.249023 0)
(0.0644755 -0.47407 0)
(-0.0719724 -1.1027 0)
(-0.0604543 -1.49949 0)
(-0.0178416 -1.55767 0)
(0.0221885 -1.42931 0)
(0.0632029 -1.00393 0)
(0.0175633 -0.412351 0)
(-0.00498718 -0.252798 0)
(-0.000159009 -0.280115 0)
(-0.000290162 -0.295199 0)
(0.000320133 -0.30243 0)
(0.00079899 -0.249239 0)
(-0.0027763 -0.24949 0)
(-0.00910111 -0.274803 0)
(-0.0240269 -0.27699 0)
(-0.0456994 -0.273869 0)
(-0.0673066 -0.260051 0)
(-0.110378 -0.319741 0)
(-0.209636 -0.844898 0)
(-0.253153 -1.35074 0)
(-0.30261 -1.54302 0)
(-0.417894 -1.56399 0)
(-0.446744 -1.40185 0)
(-0.268102 -1.00935 0)
(-0.0325029 -0.394813 0)
(0.0589281 -0.238828 0)
(0.0714003 -0.217183 0)
(0.0539299 -0.221357 0)
(0.0491025 -0.277926 0)
(0.10649 -0.346098 0)
(0.143776 -0.490727 0)
(0.103769 -1.04215 0)
(0.0189736 -1.39962 0)
(-0.00188165 -1.48626 0)
(0.00630747 -1.38428 0)
(-0.0189329 -0.9782 0)
(-0.0747981 -0.371942 0)
(-0.0597738 -0.262217 0)
(-0.0226495 -0.26267 0)
(-0.00551307 -0.260182 0)
(-0.00136252 -0.259836 0)
(-0.00132089 -0.235735 0)
(-0.00308031 -0.233469 0)
(-0.0107967 -0.235188 0)
(-0.0235612 -0.244452 0)
(-0.0190396 -0.268691 0)
(0.0163091 -0.253294 0)
(0.0272908 -0.266582 0)
(-0.0705736 -0.699498 0)
(-0.197997 -1.18934 0)
(-0.283462 -1.35925 0)
(-0.427953 -1.3721 0)
(-0.516515 -1.26792 0)
(-0.480579 -1.01317 0)
(-0.211048 -0.586075 0)
(-0.00102958 -0.351691 0)
(0.0582322 -0.260452 0)
(-0.00171855 -0.282319 0)
(-0.0156286 -0.423217 0)
(0.0995361 -0.541533 0)
(0.287653 -0.770357 0)
(0.338436 -1.11949 0)
(0.21912 -1.43761 0)
(0.10078 -1.52826 0)
(0.0034875 -1.40545 0)
(-0.110489 -0.935669 0)
(-0.129042 -0.447239 0)
(-0.0669216 -0.341225 0)
(-0.0109123 -0.307521 0)
(0.00752943 -0.269591 0)
(0.00859215 -0.245662 0)
(0.00294882 -0.243378 0)
(-0.00582245 -0.240155 0)
(-0.024645 -0.230767 0)
(-0.0565546 -0.2728 0)
(-0.0271175 -0.353821 0)
(0.0577673 -0.315328 0)
(0.120693 -0.329813 0)
(0.0973049 -0.632615 0)
(-0.0575568 -1.09945 0)
(-0.192766 -1.27319 0)
(-0.337373 -1.2656 0)
(-0.469256 -1.1934 0)
(-0.555106 -1.00309 0)
(-0.441452 -0.772312 0)
(-0.147209 -0.763521 0)
(0.0531221 -0.378843 0)
(-0.00186218 -0.353817 0)
(-0.0121387 -0.714517 0)
(0.15638 -0.942922 0)
(0.380056 -1.12908 0)
(0.479321 -1.34929 0)
(0.34739 -1.51982 0)
(0.145763 -1.62007 0)
(-0.0439919 -1.43065 0)
(-0.201699 -1.03605 0)
(-0.169917 -0.66863 0)
(-0.0464679 -0.50947 0)
(0.0327582 -0.433604 0)
(0.0594025 -0.317855 0)
(0.0361228 -0.24866 0)
(0.010053 -0.253411 0)
(-0.0192431 -0.249786 0)
(-0.06455 -0.229568 0)
(-0.0809767 -0.380843 0)
(-0.0260671 -0.560627 0)
(0.0673978 -0.473962 0)
(0.170393 -0.526325 0)
(0.212996 -0.732474 0)
(0.0994931 -1.04751 0)
(-0.0437968 -1.22289 0)
(-0.155736 -1.18931 0)
(-0.278581 -1.09959 0)
(-0.411674 -0.993429 0)
(-0.417945 -1.02174 0)
(-0.165799 -1.17381 0)
(0.110362 -0.744854 0)
(0.113109 -0.448277 0)
(0.0591782 -0.759905 0)
(0.0909618 -1.04275 0)
(0.210322 -1.27346 0)
(0.298986 -1.50383 0)
(0.230109 -1.58003 0)
(0.0679838 -1.68506 0)
(-0.13459 -1.50355 0)
(-0.264453 -1.19834 0)
(-0.225348 -1.001 0)
(-0.0619409 -0.853993 0)
(0.079416 -0.679951 0)
(0.0983799 -0.392361 0)
(0.0657205 -0.230373 0)
(0.0218328 -0.217821 0)
(-0.0301061 -0.210354 0)
(-0.114718 -0.238663 0)
(-0.171225 -0.674687 0)
(-0.0151425 -0.980745 0)
(0.10281 -0.897762 0)
(0.217323 -0.947428 0)
(0.241567 -0.976278 0)
(0.18262 -1.19175 0)
(0.0686081 -1.34517 0)
(-0.0373225 -1.32024 0)
(-0.111419 -1.19751 0)
(-0.16024 -1.13424 0)
(-0.0876528 -1.35421 0)
(0.0797044 -1.34084 0)
(0.191709 -0.817764 0)
(0.147315 -0.402546 0)
(0.0732601 -0.627878 0)
(0.0183475 -0.944534 0)
(0.0183225 -1.13979 0)
(0.00476345 -1.29943 0)
(-0.0253985 -1.39429 0)
(-0.101172 -1.47825 0)
(-0.201431 -1.38652 0)
(-0.228326 -1.23688 0)
(-0.158107 -1.10996 0)
(-0.0426547 -0.973901 0)
(0.0426201 -0.847098 0)
(0.112797 -0.58958 0)
(0.0754496 -0.235461 0)
(0.0220023 -0.163953 0)
(-0.0245911 -0.14858 0)
(-0.0604889 -0.32185 0)
(-0.0425142 -0.740488 0)
(0.0292987 -0.894675 0)
(0.0520896 -0.888183 0)
(0.0544725 -0.929629 0)
(0.0634626 -1.07816 0)
(0.0817706 -1.29484 0)
(0.0682923 -1.38275 0)
(0.0606949 -1.39078 0)
(0.0958256 -1.32934 0)
(0.205175 -1.35728 0)
(0.323828 -1.45692 0)
(0.287696 -1.26195 0)
(0.197689 -0.766376 0)
(0.118509 -0.346914 0)
(0.0587385 -0.520894 0)
(0.00132975 -0.844634 0)
(-0.0391712 -1.03269 0)
(-0.0876466 -1.14522 0)
(-0.127689 -1.2107 0)
(-0.167147 -1.24058 0)
(-0.186856 -1.18393 0)
(-0.148613 -1.0778 0)
(-0.0809185 -0.983459 0)
(-0.0416833 -0.849363 0)
(-0.0488834 -0.707253 0)
(-0.0405668 -0.572799 0)
(-0.00659221 -0.309163 0)
(0.000463022 -0.169741 0)
(0.00613374 -0.155022 0)
(0.0531818 -0.389098 0)
(0.107242 -0.652856 0)
(0.0899139 -0.766621 0)
(0.080232 -0.746776 0)
(0.0269397 -0.746826 0)
(-0.0204665 -0.896223 0)
(-0.0299774 -1.15121 0)
(0.0213118 -1.33995 0)
(0.136875 -1.38746 0)
(0.271715 -1.39239 0)
(0.435438 -1.36285 0)
(0.434588 -1.31266 0)
(0.267797 -1.05863 0)
(0.12697 -0.639922 0)
(0.0652176 -0.307898 0)
(0.0427362 -0.461115 0)
(0.0114132 -0.790474 0)
(-0.0310202 -0.919158 0)
(-0.0660304 -1.02475 0)
(-0.103476 -1.0798 0)
(-0.139619 -1.11122 0)
(-0.139615 -1.08777 0)
(-0.106519 -1.02471 0)
(-0.0663108 -0.93394 0)
(-0.054825 -0.762806 0)
(-0.0920605 -0.631873 0)
(-0.128767 -0.477768 0)
(-0.109016 -0.333517 0)
(-0.0391909 -0.235863 0)
(0.0534236 -0.237124 0)
(0.138831 -0.39603 0)
(0.1681 -0.619019 0)
(0.147803 -0.732668 0)
(0.121743 -0.656358 0)
(0.10259 -0.655281 0)
(0.0600581 -0.785639 0)
(0.00476279 -1.0053 0)
(0.0231221 -1.201 0)
(0.123066 -1.30147 0)
(0.278803 -1.31231 0)
(0.371288 -1.27782 0)
(0.284373 -1.1361 0)
(0.128718 -0.828444 0)
(0.018534 -0.503506 0)
(-0.0178688 -0.292032 0)
(0.0202788 -0.461606 0)
(0.0350075 -0.714198 0)
(0.00582305 -0.874978 0)
(-0.024456 -0.982342 0)
(-0.0551748 -0.971877 0)
(-0.0782937 -1.01186 0)
(-0.081023 -1.01294 0)
(-0.0671602 -0.957958 0)
(-0.0788539 -0.908685 0)
(-0.107073 -0.704149 0)
(-0.132375 -0.533239 0)
(-0.144939 -0.421674 0)
(-0.121458 -0.342333 0)
(-0.0496882 -0.305367 0)
(0.0677973 -0.34661 0)
(0.158976 -0.424153 0)
(0.183291 -0.554128 0)
(0.165321 -0.629178 0)
(0.153278 -0.617198 0)
(0.165304 -0.628331 0)
(0.156569 -0.692389 0)
(0.110733 -0.924386 0)
(0.0632499 -1.17329 0)
(0.0889949 -1.2763 0)
(0.177173 -1.28556 0)
(0.192769 -1.1913 0)
(0.0610732 -0.949204 0)
(-0.0538011 -0.714284 0)
(-0.0869063 -0.449439 0)
(-0.0478859 -0.325916 0)
(0.0109203 -0.458112 0)
(0.0458199 -0.641493 0)
(0.034869 -0.762753 0)
(-0.00197185 -0.854665 0)
(-0.0346114 -0.917081 0)
(-0.0526069 -0.972265 0)
(-0.0713049 -0.986739 0)
(-0.0864992 -0.922051 0)
(-0.125327 -0.784543 0)
(-0.163127 -0.614674 0)
(-0.167995 -0.491337 0)
(-0.150665 -0.415761 0)
(-0.112006 -0.372013 0)
(-0.0438654 -0.371061 0)
(0.0638852 -0.464543 0)
(0.152096 -0.480447 0)
(0.183974 -0.561671 0)
(0.188143 -0.607255 0)
(0.197595 -0.592395 0)
(0.217843 -0.576859 0)
(0.216413 -0.644483 0)
(0.160447 -0.806058 0)
(0.0961439 -1.08398 0)
(0.0676434 -1.23274 0)
(0.0348586 -1.23605 0)
(-0.0284004 -1.07639 0)
(-0.115018 -0.853776 0)
(-0.16357 -0.604039 0)
(-0.147896 -0.436071 0)
(-0.0778064 -0.377324 0)
(-0.000757168 -0.474999 0)
(0.0420782 -0.60033 0)
(0.0449909 -0.686939 0)
(0.0244144 -0.754305 0)
(-0.00388246 -0.806162 0)
(-0.0353664 -0.854133 0)
(-0.0754014 -0.866097 0)
(-0.120991 -0.806424 0)
(-0.165595 -0.693746 0)
(-0.189933 -0.575765 0)
(-0.185171 -0.492933 0)
(-0.153333 -0.445506 0)
(-0.099896 -0.418067 0)
(-0.0348893 -0.427488 0)
(0.0510246 -0.573419 0)
(0.135475 -0.557481 0)
(0.184457 -0.611435 0)
(0.201912 -0.645537 0)
(0.215008 -0.637664 0)
(0.239552 -0.614866 0)
(0.252599 -0.62757 0)
(0.230707 -0.761591 0)
(0.150877 -1.01688 0)
(0.0356882 -1.09628 0)
(-0.0535459 -1.10024 0)
(-0.145641 -0.996021 0)
(-0.20843 -0.741496 0)
(-0.219945 -0.564774 0)
(-0.175309 -0.46992 0)
(-0.0911835 -0.44716 0)
(-0.0095121 -0.508329 0)
(0.0324975 -0.586932 0)
(0.039288 -0.644376 0)
(0.0262084 -0.69434 0)
(0.00073363 -0.738065 0)
(-0.0352778 -0.774288 0)
(-0.0833121 -0.782514 0)
(-0.137448 -0.738171 0)
(-0.181289 -0.658931 0)
(-0.198271 -0.581334 0)
(-0.183445 -0.525424 0)
(-0.142625 -0.491278 0)
(-0.0879649 -0.470714 0)
(-0.0295814 -0.479542 0)
(0.040337 -0.663898 0)
(0.111271 -0.630227 0)
(0.162818 -0.666778 0)
(0.194265 -0.701302 0)
(0.218548 -0.713319 0)
(0.251018 -0.71131 0)
(0.280073 -0.717617 0)
(0.271175 -0.774833 0)
(0.189169 -0.908995 0)
(0.0520422 -1.01165 0)
(-0.0735405 -1.01528 0)
(-0.180157 -0.88476 0)
(-0.234263 -0.715612 0)
(-0.22494 -0.603081 0)
(-0.169967 -0.542667 0)
(-0.0887323 -0.530053 0)
(-0.017485 -0.55975 0)
(0.0193219 -0.605607 0)
(0.0277279 -0.644103 0)
(0.0187541 -0.680746 0)
(-0.00422052 -0.714989 0)
(-0.0411004 -0.744244 0)
(-0.091006 -0.748952 0)
(-0.143728 -0.717355 0)
(-0.17811 -0.661233 0)
(-0.182002 -0.605417 0)
(-0.15912 -0.561177 0)
(-0.121177 -0.533078 0)
(-0.0760304 -0.51778 0)
(-0.0261241 -0.526828 0)
(0.0292278 -0.728211 0)
(0.0789125 -0.6823 0)
(0.116034 -0.707667 0)
(0.146818 -0.745245 0)
(0.178734 -0.779134 0)
(0.220411 -0.809804 0)
(0.268537 -0.845019 0)
(0.285196 -0.901069 0)
(0.225797 -0.973027 0)
(0.0967361 -1.00738 0)
(-0.0518639 -0.990725 0)
(-0.168003 -0.898543 0)
(-0.214297 -0.779695 0)
(-0.195427 -0.687841 0)
(-0.138889 -0.632099 0)
(-0.0747631 -0.612106 0)
(-0.0237206 -0.618792 0)
(0.00545782 -0.642294 0)
(0.0144792 -0.668465 0)
(0.00802791 -0.69503 0)
(-0.0122144 -0.719946 0)
(-0.0461608 -0.739002 0)
(-0.0897703 -0.737962 0)
(-0.129075 -0.711297 0)
(-0.148459 -0.66832 0)
(-0.145063 -0.623742 0)
(-0.126077 -0.587853 0)
(-0.0982176 -0.565279 0)
(-0.0637932 -0.555363 0)
(-0.0225398 -0.567604 0)
(0.0142774 -0.766047 0)
(0.0388979 -0.715702 0)
(0.0587426 -0.73724 0)
(0.0790277 -0.779248 0)
(0.106302 -0.82808 0)
(0.146959 -0.883702 0)
(0.202255 -0.946084 0)
(0.249733 -1.0153 0)
(0.238017 -1.0804 0)
(0.142649 -1.09873 0)
(0.00299936 -1.06073 0)
(-0.105642 -0.963606 0)
(-0.141766 -0.850375 0)
(-0.124399 -0.75912 0)
(-0.0867539 -0.700394 0)
(-0.0490784 -0.670787 0)
(-0.0193831 -0.662669 0)
(-0.00107011 -0.670097 0)
(0.00465893 -0.684403 0)
(-0.00120474 -0.701964 0)
(-0.0178665 -0.717554 0)
(-0.0439145 -0.725887 0)
(-0.0738543 -0.720514 0)
(-0.0981648 -0.698328 0)
(-0.11003 -0.666001 0)
(-0.108734 -0.632897 0)
(-0.0970385 -0.605872 0)
(-0.077814 -0.588871 0)
(-0.05217 -0.584222 0)
(-0.0189079 -0.601343 0)
(-0.00246839 -0.776641 0)
(-0.00373757 -0.732322 0)
(0.000390848 -0.75486 0)
(0.00977794 -0.80278 0)
(0.0301514 -0.864652 0)
(0.0702502 -0.939353 0)
(0.129921 -1.01743 0)
(0.189965 -1.08097 0)
(0.212759 -1.12187 0)
(0.170497 -1.12024 0)
(0.0839311 -1.06699 0)
(0.00798745 -0.970792 0)
(-0.0281718 -0.86889 0)
(-0.0342299 -0.786876 0)
(-0.0260943 -0.731226 0)
(-0.0137364 -0.698316 0)
(-0.00255608 -0.68305 0)
(0.00399855 -0.680652 0)
(0.00396252 -0.685985 0)
(-0.00311398 -0.694411 0)
(-0.0167442 -0.701766 0)
(-0.0352489 -0.704594 0)
(-0.055033 -0.698573 0)
(-0.0712163 -0.682811 0)
(-0.0801531 -0.660817 0)
(-0.0807524 -0.637605 0)
(-0.0738158 -0.617887 0)
(-0.0606817 -0.605847 0)
(-0.0418652 -0.60593 0)
(-0.0155382 -0.628111 0)
(-0.0168433 -0.759986 0)
(-0.0413429 -0.730858 0)
(-0.0529634 -0.756938 0)
(-0.0579001 -0.813408 0)
(-0.0455549 -0.890519 0)
(0.00243567 -0.986978 0)
(0.0792267 -1.07205 0)
(0.158399 -1.12093 0)
(0.210224 -1.12094 0)
(0.211164 -1.07642 0)
(0.167538 -1.0073 0)
(0.11126 -0.925359 0)
(0.0667226 -0.845316 0)
(0.0403757 -0.779652 0)
(0.0276126 -0.733044 0)
(0.0218813 -0.703261 0)
(0.0189147 -0.687106 0)
(0.0156507 -0.680844 0)
(0.0100887 -0.681056 0)
(0.00125298 -0.683682 0)
(-0.0108285 -0.686831 0)
(-0.0250975 -0.687149 0)
(-0.0394428 -0.682217 0)
(-0.0511952 -0.671496 0)
(-0.0582036 -0.656461 0)
(-0.0595639 -0.640056 0)
(-0.0554801 -0.625873 0)
(-0.0465899 -0.617976 0)
(-0.0330137 -0.621961 0)
(-0.012531 -0.648491 0)
(-0.0264529 -0.72013 0)
(-0.0697956 -0.708964 0)
(-0.103329 -0.741557 0)
(-0.121519 -0.805545 0)
(-0.0960594 -0.904501 0)
(-0.0145568 -1.01309 0)
(0.0857375 -1.0735 0)
(0.167868 -1.09821 0)
(0.229862 -1.07607 0)
(0.257707 -1.01062 0)
(0.237793 -0.931774 0)
(0.186857 -0.861343 0)
(0.134183 -0.800281 0)
(0.0942293 -0.751908 0)
(0.0677711 -0.716763 0)
(0.0506288 -0.693641 0)
(0.0384387 -0.680416 0)
(0.0283771 -0.674295 0)
(0.0186752 -0.672588 0)
(0.00826213 -0.673617 0)
(-0.00317549 -0.674713 0)
(-0.0151672 -0.674182 0)
(-0.0265394 -0.67055 0)
(-0.0357654 -0.663199 0)
(-0.0415506 -0.65278 0)
(-0.0432805 -0.641178 0)
(-0.041017 -0.631195 0)
(-0.0351045 -0.626629 0)
(-0.0254792 -0.633637 0)
(-0.0098639 -0.663348 0)
(-0.0324351 -0.662192 0)
(-0.0947858 -0.667869 0)
(-0.14333 -0.702331 0)
(-0.142148 -0.788898 0)
(-0.0580494 -0.910282 0)
(0.0676991 -1.00816 0)
(0.15396 -1.0079 0)
(0.189597 -0.997652 0)
(0.215837 -0.972717 0)
(0.252743 -0.922019 0)
(0.261599 -0.844204 0)
(0.224421 -0.784189 0)
(0.172224 -0.741485 0)
(0.126688 -0.710911 0)
(0.0928939 -0.689239 0)
(0.0692864 -0.674779 0)
(0.0522261 -0.666569 0)
(0.0385475 -0.662922 0)
(0.026564 -0.662179 0)
(0.0152952 -0.662877 0)
(0.00430108 -0.663715 0)
(-0.00629966 -0.663499 0)
(-0.0158985 -0.661259 0)
(-0.0236197 -0.656487 0)
(-0.0286752 -0.649464 0)
(-0.0306669 -0.641465 0)
(-0.0296319 -0.634743 0)
(-0.025799 -0.632815 0)
(-0.0190941 -0.642054 0)
(-0.00750719 -0.673352 0)
(-0.0397858 -0.590171 0)
(-0.108304 -0.606449 0)
(-0.140375 -0.651403 0)
(-0.0662875 -0.799098 0)
(0.0781267 -0.927721 0)
(0.168115 -0.996178 0)
(0.196375 -0.950991 0)
(0.188741 -0.905791 0)
(0.170609 -0.868044 0)
(0.188557 -0.828981 0)
(0.220225 -0.761429 0)
(0.215081 -0.705948 0)
(0.177436 -0.677966 0)
(0.135971 -0.663793 0)
(0.102066 -0.655776 0)
(0.0768884 -0.651135 0)
(0.058461 -0.648964 0)
(0.0440707 -0.648881 0)
(0.0317684 -0.65011 0)
(0.0206707 -0.651862 0)
(0.0103885 -0.653424 0)
(0.000912625 -0.654116 0)
(-0.00744321 -0.653339 0)
(-0.0141631 -0.650718 0)
(-0.018745 -0.646372 0)
(-0.0209198 -0.641207 0)
(-0.0207163 -0.63709 0)
(-0.0183134 -0.637268 0)
(-0.0137187 -0.648038 0)
(-0.00544302 -0.679965 0)
(-0.0404774 -0.506289 0)
(-0.0921522 -0.542248 0)
(-0.0563111 -0.629433 0)
(0.0725147 -0.861059 0)
(0.17264 -0.928261 0)
(0.188415 -0.95005 0)
(0.184713 -0.920498 0)
(0.168417 -0.860004 0)
(0.135313 -0.806866 0)
(0.117713 -0.756399 0)
(0.142779 -0.704947 0)
(0.166862 -0.644665 0)
(0.152871 -0.621207 0)
(0.123395 -0.618917 0)
(0.0956464 -0.622299 0)
(0.0736275 -0.626742 0)
(0.0570094 -0.630785 0)
(0.0441636 -0.634467 0)
(0.0333108 -0.638005 0)
(0.0234787 -0.641244 0)
(0.0144053 -0.643944 0)
(0.006124 -0.645783 0)
(-0.00114482 -0.646428 0)
(-0.00705157 -0.645636 0)
(-0.0112369 -0.643468 0)
(-0.01349 -0.640604 0)
(-0.0138194 -0.63862 0)
(-0.012372 -0.640495 0)
(-0.00926683 -0.652205 0)
(-0.00366859 -0.683068 0)
(-0.0317576 -0.422559 0)
(-0.0414939 -0.511221 0)
(0.0467894 -0.647854 0)
(0.142247 -0.846417 0)
(0.171797 -0.871433 0)
(0.174757 -0.884747 0)
(0.158783 -0.87136 0)
(0.130216 -0.818543 0)
(0.0936814 -0.767395 0)
(0.0616747 -0.716563 0)
(0.0691433 -0.670403 0)
(0.101 -0.608504 0)
(0.108495 -0.579573 0)
(0.094141 -0.582869 0)
(0.0763649 -0.594016 0)
(0.0609369 -0.605263 0)
(0.0487587 -0.614568 0)
(0.0392096 -0.621621 0)
(0.0310886 -0.627182 0)
(0.0234569 -0.631775 0)
(0.0161189 -0.635581 0)
(0.00923996 -0.63852 0)
(0.00308646 -0.640426 0)
(-0.00202677 -0.641165 0)
(-0.00578738 -0.640785 0)
(-0.00799156 -0.639821 0)
(-0.00861168 -0.63962 0)
(-0.00776495 -0.642875 0)
(-0.00568079 -0.655015 0)
(-0.00218749 -0.68327 0)
(-0.0154828 -0.35527 0)
(0.0128685 -0.52092 0)
(0.0774804 -0.643788 0)
(0.123564 -0.780162 0)
(0.153414 -0.80145 0)
(0.164115 -0.820626 0)
(0.140216 -0.805514 0)
(0.0934603 -0.762752 0)
(0.0396902 -0.712546 0)
(-0.000476349 -0.698233 0)
(0.00154129 -0.647935 0)
(0.0293778 -0.592917 0)
(0.0522121 -0.55643 0)
(0.0540104 -0.55944 0)
(0.0481845 -0.574248 0)
(0.0413142 -0.589454 0)
(0.035276 -0.602174 0)
(0.0302696 -0.61169 0)
(0.0256796 -0.618633 0)
(0.0208459 -0.62408 0)
(0.0156442 -0.628648 0)
(0.0103686 -0.632433 0)
(0.00541017 -0.635347 0)
(0.00113513 -0.63732 0)
(-0.00212812 -0.638399 0)
(-0.00414946 -0.639014 0)
(-0.00485516 -0.640315 0)
(-0.00433489 -0.64468 0)
(-0.00291234 -0.656816 0)
(-0.00101918 -0.682068 0)
(-0.00058753 -0.317929 0)
(0.0233769 -0.528552 0)
(0.046545 -0.612402 0)
(0.0833193 -0.721528 0)
(0.123149 -0.752758 0)
(0.139145 -0.770657 0)
(0.124771 -0.741847 0)
(0.0735017 -0.696899 0)
(-0.00876465 -0.640525 0)
(-0.0807262 -0.662429 0)
(-0.0891328 -0.652362 0)
(-0.0505355 -0.598313 0)
(-0.0103212 -0.554617 0)
(0.00859271 -0.550625 0)
(0.0154047 -0.564622 0)
(0.0178683 -0.580697 0)
(0.0186399 -0.594749 0)
(0.0187174 -0.60542 0)
(0.0180257 -0.61289 0)
(0.0162295 -0.618517 0)
(0.0133318 -0.623332 0)
(0.00975697 -0.627589 0)
(0.00603619 -0.631208 0)
(0.00263774 -0.634126 0)
(-5.55692e-05 -0.636383 0)
(-0.00177002 -0.638314 0)
(-0.00238546 -0.640884 0)
(-0.00197087 -0.646126 0)
(-0.000930346 -0.657892 0)
(-0.00016624 -0.679392 0)
(0.0101929 -0.373413 0)
(0.00773862 -0.56 0)
(0.00912127 -0.614746 0)
(0.0398071 -0.702731 0)
(0.0654374 -0.74257 0)
(0.097481 -0.77017 0)
(0.0994296 -0.714743 0)
(0.0525315 -0.656746 0)
(-0.0243958 -0.605491 0)
(-0.137971 -0.611303 0)
(-0.194304 -0.68016 0)
(-0.140215 -0.641784 0)
(-0.0758286 -0.579403 0)
(-0.0370918 -0.557609 0)
(-0.0176264 -0.565796 0)
(-0.00614948 -0.579359 0)
(0.00112403 -0.592585 0)
(0.00610707 -0.603029 0)
(0.00922873 -0.610119 0)
(0.0103528 -0.615214 0)
(0.0096585 -0.61971 0)
(0.00772155 -0.624022 0)
(0.00519075 -0.628033 0)
(0.00265659 -0.631637 0)
(0.000575724 -0.634834 0)
(-0.000730446 -0.637866 0)
(-0.00110457 -0.641508 0)
(-0.000607668 -0.647413 0)
(0.000285856 -0.658501 0)
(0.000369866 -0.67598 0)
(0.0442165 -0.58166 0)
(0.0510168 -0.715469 0)
(0.0182993 -0.721677 0)
(0.0127031 -0.755628 0)
(-0.000108301 -0.77125 0)
(0.0355183 -0.794747 0)
(0.0570958 -0.733542 0)
(0.0220671 -0.695352 0)
(-0.0230583 -0.670716 0)
(-0.0987312 -0.66434 0)
(-0.204833 -0.715965 0)
(-0.205815 -0.731679 0)
(-0.130868 -0.632777 0)
(-0.0769962 -0.580849 0)
(-0.0463462 -0.576355 0)
(-0.0276404 -0.584212 0)
(-0.0151111 -0.594918 0)
(-0.00605577 -0.604057 0)
(0.000307704 -0.609994 0)
(0.00395372 -0.613884 0)
(0.00513938 -0.61757 0)
(0.00457732 -0.621564 0)
(0.0030742 -0.625704 0)
(0.0013174 -0.629799 0)
(-0.000155897 -0.633775 0)
(-0.000981675 -0.637761 0)
(-0.000982008 -0.642326 0)
(-0.000227525 -0.648719 0)
(0.000744875 -0.658904 0)
(0.000591689 -0.672407 0)
(0.0689807 -0.829816 0)
(0.107397 -0.906034 0)
(0.078548 -0.897913 0)
(0.0632026 -0.876593 0)
(0.016321 -0.86675 0)
(-0.0335247 -0.853984 0)
(-0.0534517 -0.799759 0)
(-0.0466661 -0.780969 0)
(-0.0325236 -0.768213 0)
(-0.0146327 -0.762581 0)
(-0.0890684 -0.767241 0)
(-0.176772 -0.83704 0)
(-0.145413 -0.697202 0)
(-0.102079 -0.615606 0)
(-0.0662853 -0.59321 0)
(-0.0441279 -0.593282 0)
(-0.0284715 -0.600352 0)
(-0.0166448 -0.607624 0)
(-0.00789763 -0.611917 0)
(-0.00235511 -0.614091 0)
(0.000194692 -0.616555 0)
(0.00059446 -0.619962 0)
(-0.000180107 -0.624056 0)
(-0.00133105 -0.628539 0)