/*--------------------------------*- C++ -*----------------------------------*\
| =========                 |                                                 |
| \\      /  F ield         | OpenFOAM: The Open Source CFD Toolbox           |
|  \\    /   O peration     | Version:  v1606+                                |
|   \\  /    A nd           | Web:      www.OpenFOAM.com                      |
|    \\/     M anipulation  |                                                 |
\*---------------------------------------------------------------------------*/
FoamFile
{
    version     2.0;
    format      ascii;
    class       volScalarField;
    location    "0.76";
    object      alpha.particlesMean;
}
// * * * * * * * * * * * * * * * * * * * * * * * * * * * * * * * * * * * * * //

dimensions      [0 0 0 0 0 0 0];

internalField   nonuniform List<scalar> 
6000
(
0.407609
0.412431
0.411669
0.411579
0.410777
0.409833
0.408638
0.407807
0.407011
0.406387
0.405702
0.404272
0.401936
0.400912
0.399787
0.400284
0.400928
0.402597
0.404377
0.405724
0.40669
0.407469
0.408138
0.408987
0.409934
0.410973
0.41191
0.411906
0.412696
0.406936
0.390001
0.392591
0.391124
0.390486
0.38933
0.388828
0.388969
0.389482
0.389625
0.389371
0.388774
0.388289
0.387982
0.387962
0.388063
0.388078
0.387897
0.387968
0.38835
0.38884
0.389372
0.389621
0.389489
0.389013
0.388926
0.389521
0.390585
0.391172
0.392519
0.389825
0.387783
0.398518
0.396706
0.396329
0.394108
0.39281
0.392223
0.393587
0.395789
0.397146
0.397092
0.396251
0.395225
0.395216
0.395351
0.395082
0.394897
0.395082
0.396531
0.397173
0.396892
0.395411
0.393371
0.392218
0.392859
0.394236
0.396391
0.396702
0.398215
0.387637
0.377847
0.3876
0.385763
0.385575
0.383354
0.381485
0.380336
0.381902
0.385681
0.390567
0.392202
0.392592
0.391993
0.391367
0.390866
0.390658
0.390949
0.391762
0.392659
0.392154
0.390095
0.385229
0.381637
0.380294
0.381435
0.383396
0.385585
0.385678
0.387221
0.37744
0.372116
0.378784
0.376182
0.376212
0.372782
0.369199
0.366078
0.365127
0.367843
0.375312
0.38033
0.381519
0.382575
0.382368
0.382048
0.38173
0.381952
0.382268
0.381362
0.380333
0.374876
0.367551
0.36501
0.366234
0.369501
0.373219
0.376453
0.376096
0.378285
0.371559
0.369899
0.376137
0.375814
0.374536
0.369565
0.364654
0.360102
0.355673
0.353119
0.357163
0.36497
0.3655
0.367125
0.370308
0.371388
0.370397
0.369055
0.366574
0.365635
0.365276
0.35697
0.353074
0.355883
0.360542
0.365234
0.37023
0.374843
0.375449
0.375584
0.369226
0.370984
0.381589
0.38429
0.382669
0.377239
0.370604
0.363701
0.357149
0.350115
0.347175
0.351536
0.350152
0.35115
0.360799
0.365586
0.363453
0.356949
0.349753
0.351126
0.352592
0.347527
0.350418
0.357591
0.364264
0.371255
0.377847
0.382931
0.384086
0.38127
0.370032
0.376538
0.38719
0.391687
0.393522
0.391651
0.3848
0.373318
0.363352
0.354045
0.345661
0.340771
0.336771
0.338798
0.353462
0.364377
0.360779
0.346915
0.335898
0.337947
0.342963
0.346674
0.35456
0.363846
0.374151
0.385362
0.391944
0.393692
0.39174
0.387188
0.375805
0.381164
0.386066
0.393673
0.402117
0.406297
0.401555
0.387153
0.371837
0.359739
0.348925
0.334635
0.325264
0.329374
0.344427
0.362472
0.356395
0.335988
0.32521
0.32542
0.336709
0.350285
0.360342
0.372567
0.3881
0.401869
0.405988
0.401745
0.393295
0.385825
0.381322
0.377133
0.381681
0.391952
0.406586
0.416048
0.413904
0.399657
0.382405
0.36629
0.352991
0.335287
0.318081
0.322317
0.335602
0.356088
0.346555
0.327378
0.31728
0.31769
0.336952
0.354045
0.366735
0.382958
0.400169
0.413748
0.415286
0.405654
0.391143
0.381301
0.377719
0.369318
0.375249
0.388227
0.408089
0.422026
0.42337
0.410038
0.392774
0.373628
0.355798
0.339191
0.316643
0.318076
0.32983
0.350452
0.339635
0.323192
0.314106
0.316172
0.340537
0.355985
0.373171
0.392576
0.410663
0.42315
0.420957
0.406794
0.387129
0.374995
0.370157
0.360309
0.367555
0.382623
0.407146
0.42508
0.431213
0.421582
0.402759
0.379999
0.35786
0.342547
0.320292
0.31627
0.328699
0.348889
0.338606
0.322482
0.314238
0.320656
0.343749
0.356951
0.377957
0.402808
0.422601
0.430819
0.42387
0.405571
0.381345
0.367473
0.361242
0.351399
0.359629
0.375908
0.404355
0.425982
0.435714
0.430721
0.41131
0.383972
0.358412
0.345603
0.326252
0.315856
0.330985
0.351967
0.342202
0.323107
0.316458
0.328434
0.346535
0.357019
0.38088
0.412086
0.432422
0.435654
0.42504
0.40281
0.374956
0.359754
0.352404
0.342794
0.35192
0.369117
0.400297
0.425455
0.437322
0.435993
0.416696
0.386251
0.359294
0.346541
0.331722
0.317403
0.335243
0.357425
0.349062
0.32606
0.321754
0.335158
0.347257
0.357874
0.383032
0.417298
0.437777
0.438529
0.425664
0.399522
0.36933
0.352973
0.344608
0.336417
0.345331
0.363453
0.39588
0.425134
0.439677
0.439734
0.41869
0.38703
0.360793
0.346947
0.337823
0.324235
0.337534
0.361214
0.356844
0.33432
0.330532
0.341818
0.34776
0.359728
0.384903
0.418829
0.439586
0.439758
0.424744
0.395787
0.365582
0.348795
0.341225
0.336411
0.343596
0.35973
0.388899
0.420619
0.442232
0.443425
0.41862
0.387009
0.362308
0.347889
0.344205
0.337608
0.341709
0.355394
0.360699
0.346807
0.341975
0.346969
0.349376
0.362406
0.387669
0.420662
0.440742
0.436684
0.419624
0.390847
0.364242
0.35029
0.345094
0.340688
0.346667
0.359949
0.382167
0.410589
0.430765
0.439334
0.418499
0.388796
0.365103
0.349133
0.345882
0.351277
0.350256
0.358921
0.362012
0.355839
0.352072
0.347524
0.351207
0.367222
0.393456
0.423723
0.439104
0.430261
0.412983
0.386887
0.366007
0.354766
0.3511
0.346834
0.354051
0.364679
0.379845
0.398616
0.413199
0.42576
0.417293
0.393043
0.368815
0.349333
0.344111
0.356161
0.360298
0.36701
0.370493
0.36571
0.356264
0.345458
0.353016
0.373917
0.4004
0.424117
0.431551
0.424331
0.408692
0.387896
0.371539
0.36158
0.355673
0.355386
0.364209
0.374296
0.385121
0.393959
0.403366
0.409844
0.412166
0.396636
0.373093
0.350165
0.339688
0.352342
0.365773
0.371177
0.37549
0.370813
0.351138
0.341656
0.356107
0.380651
0.405396
0.419599
0.419558
0.416889
0.404548
0.390571
0.379202
0.369613
0.360634
0.364579
0.372604
0.382368
0.390735
0.395939
0.396528
0.394506
0.392922
0.392411
0.378589
0.354559
0.33757
0.345435
0.365455
0.371386
0.375641
0.367565
0.341845
0.33869
0.360547
0.386005
0.401414
0.403931
0.404175
0.401686
0.399685
0.391074
0.382555
0.374155
0.364704
0.369491
0.373955
0.376517
0.378776
0.385063
0.387837
0.387925
0.383385
0.382172
0.375712
0.357938
0.341679
0.345462
0.36345
0.370138
0.372621
0.361349
0.338501
0.341147
0.362454
0.383453
0.395009
0.394709
0.392105
0.387493
0.38483
0.377509
0.372739
0.370032
0.362591
0.357257
0.361241
0.360168
0.362251
0.371531
0.381625
0.391393
0.392521
0.388375
0.381651
0.366835
0.353228
0.354422
0.364422
0.369703
0.369943
0.357426
0.343042
0.350408
0.37161
0.391867
0.398456
0.393519
0.386755
0.380023
0.370136
0.360434
0.355493
0.354645
0.348799
0.339027
0.343439
0.347562
0.356692
0.369697
0.382847
0.395666
0.405692
0.407288
0.398922
0.383552
0.370555
0.367274
0.370065
0.371038
0.368655
0.357787
0.351706
0.364149
0.386615
0.402901
0.402507
0.393118
0.384435
0.376327
0.364593
0.352113
0.343046
0.338648
0.334324
0.332019
0.336384
0.343769
0.355487
0.367961
0.382003
0.396249
0.413118
0.425467
0.423199
0.407861
0.391862
0.381762
0.379191
0.374456
0.36893
0.36103
0.362035
0.379702
0.400385
0.409682
0.403335
0.390947
0.382228
0.373509
0.361417
0.349451
0.338161
0.331034
0.329644
0.330862
0.331279
0.341817
0.353617
0.366119
0.379833
0.393017
0.410122
0.431622
0.442574
0.433654
0.414199
0.39719
0.389599
0.378344
0.369261
0.365791
0.373539
0.393457
0.409796
0.412458
0.400944
0.386768
0.378346
0.369766
0.357619
0.346585
0.3364
0.326272
0.328014
0.327781
0.327744
0.340144
0.351136
0.364328
0.376754
0.388232
0.403599
0.42636
0.446762
0.449385
0.432432
0.412222
0.400528
0.382747
0.369417
0.371529
0.385482
0.404186
0.415622
0.410916
0.395493
0.380442
0.372339
0.364871
0.35371
0.342661
0.334316
0.323904
0.325416
0.323504
0.325937
0.338033
0.347661
0.35733
0.367278
0.378996
0.396114
0.418873
0.441968
0.454672
0.445232
0.42549
0.410002
0.385038
0.369636
0.378019
0.396362
0.412849
0.419054
0.407803
0.388964
0.373068
0.368117
0.36323
0.353757
0.342437
0.331835
0.32054
0.321423
0.321959
0.326524
0.338001
0.345174
0.351044
0.356631
0.36648
0.384925
0.410414
0.435984
0.455111
0.453286
0.436429
0.415878
0.385314
0.369579
0.385081
0.405923
0.420592
0.422358
0.404787
0.382303
0.367265
0.366416
0.360817
0.353432
0.34426
0.333395
0.31967
0.317182
0.322063
0.329139
0.337338
0.344258
0.35047
0.353087
0.358883
0.374056
0.399362
0.427713
0.453145
0.457933
0.443867
0.419975
0.388368
0.372458
0.394539
0.415237
0.428273
0.424344
0.400188
0.376851
0.362928
0.362876
0.358489
0.352257
0.344611
0.335243
0.323802
0.314356
0.321424
0.330596
0.336877
0.343055
0.34854
0.350339
0.356532
0.368279
0.389155
0.415589
0.446518
0.460947
0.449789
0.425851
0.39721
0.382997
0.403747
0.424451
0.435895
0.423542
0.394338
0.371453
0.359092
0.357758
0.355183
0.35012
0.343381
0.33619
0.327119
0.312794
0.319568
0.329785
0.335784
0.341926
0.346337
0.349422
0.355031
0.365358
0.380748
0.401759
0.431883
0.459626
0.454939
0.431833
0.408021
0.39708
0.413569
0.435044
0.441742
0.416302
0.383581
0.364765
0.354672
0.352768
0.352004
0.34792
0.341929
0.336212
0.32856
0.314114
0.316899
0.327776
0.334032
0.339826
0.344045
0.347593
0.352774
0.360017
0.371263
0.390419
0.417801
0.446814
0.455385
0.436556
0.418378
0.410688
0.42462
0.445691
0.439327
0.401967
0.373168
0.357451
0.348405
0.346509
0.347359
0.345321
0.34051
0.33568
0.328653
0.3168
0.315462
0.326529
0.332471
0.3373
0.340732
0.343383
0.347483
0.35191
0.362497
0.38235
0.409865
0.436764
0.448453
0.440194
0.426581
0.421992
0.434025
0.446509
0.427976
0.394019
0.36824
0.352275
0.342155
0.339008
0.340176
0.341438
0.338976
0.334656
0.328882
0.318414
0.315364
0.324841
0.330411
0.333503
0.334742
0.336452
0.339022
0.344447
0.35729
0.378642
0.407095
0.434906
0.446895
0.444871
0.433303
0.428294
0.434026
0.432022
0.420427
0.391853
0.367421
0.350872
0.338781
0.332905
0.332604
0.335273
0.335732
0.332942
0.329054
0.319861
0.315359
0.322361
0.326388
0.326956
0.32618
0.326449
0.32975
0.338139
0.355608
0.378875
0.408105
0.437337
0.450324
0.451327
0.440451
0.433966
0.430415
0.420233
0.415914
0.391683
0.368603
0.352318
0.338565
0.329658
0.326354
0.328298
0.330339
0.330216
0.328032
0.321267
0.315301
0.319174
0.319422
0.317939
0.315305
0.316377
0.321698
0.333555
0.354784
0.380923
0.410598
0.44022
0.454047
0.458201
0.447837
0.436676
0.425881
0.4151
0.411119
0.39181
0.370216
0.35471
0.340286
0.329267
0.323058
0.321957
0.324798
0.326623
0.326016
0.322011
0.314633
0.313694
0.311782
0.308065
0.305681
0.308303
0.316466
0.330345
0.351985
0.381513
0.413305
0.442354
0.457545
0.464919
0.456527
0.439785
0.425426
0.414545
0.408935
0.391457
0.372138
0.357393
0.343231
0.330743
0.32163
0.317885
0.319467
0.322596
0.321985
0.321377
0.314771
0.310829
0.307148
0.301908
0.302371
0.308748
0.320315
0.334409
0.350062
0.373806
0.412917
0.443623
0.460864
0.471266
0.465234
0.449184
0.431641
0.418188
0.409438
0.391027
0.374064
0.360522
0.347364
0.334157
0.322478
0.315765
0.314388
0.318153
0.318519
0.319837
0.318275
0.311834
0.306489
0.302151
0.306922
0.315752
0.328785
0.342809
0.356128
0.370644
0.399172
0.441231
0.46255
0.477133
0.473096
0.461936
0.442928
0.424632
0.41061
0.390642
0.375731
0.363472
0.351216
0.338123
0.325456
0.316414
0.310623
0.313692
0.31598
0.319767
0.322002
0.312034
0.310046
0.307823
0.314508
0.324608
0.33851
0.351698
0.363734
0.375558
0.391354
0.423111
0.459814
0.481617
0.479986
0.47377
0.456599
0.431224
0.410745
0.392314
0.378062
0.366645
0.35538
0.34313
0.329553
0.318903
0.311576
0.313023
0.313759
0.321785
0.324801
0.315104
0.316528
0.316688
0.323988
0.333709
0.347544
0.359602
0.37042
0.38088
0.392665
0.410189
0.447176
0.482486
0.48642
0.482998
0.470338
0.437396
0.411782
0.395381
0.382159
0.371116
0.360467
0.349076
0.335587
0.325179
0.317531
0.317208
0.315448
0.324267
0.326647
0.320359
0.323061
0.324775
0.332074
0.341504
0.354464
0.365778
0.375583
0.384994
0.395332
0.40815
0.43401
0.480132
0.490988
0.489804
0.481553
0.442075
0.413126
0.397947
0.386068
0.375893
0.365982
0.355214
0.342566
0.332814
0.325184
0.323392
0.320732
0.326125
0.330438
0.327589
0.330378
0.331565
0.338621
0.348368
0.360085
0.370357
0.379012
0.387445
0.397473
0.410392
0.431209
0.472973
0.493831
0.495179
0.489554
0.443678
0.414817
0.400042
0.388562
0.37931
0.370472
0.360681
0.349434
0.339545
0.332016
0.330412
0.327636
0.329978
0.337598
0.336355
0.337871
0.338821
0.345682
0.35535
0.36532
0.373736
0.381019
0.389188
0.399708
0.413655
0.433459
0.466324
0.495733
0.499557
0.494145
0.442882
0.417341
0.402669
0.39073
0.381491
0.373695
0.365613
0.356269
0.346751
0.33919
0.33769
0.33599
0.337134
0.345084
0.344551
0.34571
0.348004
0.354375
0.362898
0.370503
0.376664
0.383212
0.392391
0.403515
0.418114
0.437264
0.464336
0.494231
0.502878
0.489803
0.443736
0.421429
0.406965
0.394813
0.384116
0.376587
0.370419
0.363307
0.355202
0.348311
0.345429
0.344205
0.344581
0.351333
0.352766
0.354246
0.357482
0.363139
0.369488
0.374862
0.380182
0.387372
0.3977
0.409321
0.423673
0.44087
0.463542
0.493331
0.505886
0.484702
0.446235
0.4267
0.412933
0.400836
0.388781
0.380409
0.374654
0.369612
0.363552
0.357731
0.354181
0.352434
0.350864
0.35719
0.361528
0.362779
0.365499
0.369759
0.374277
0.378833
0.385096
0.393727
0.404341
0.415989
0.429212
0.444303
0.465096
0.493991
0.507239
0.484921
0.450566
0.4322
0.419617
0.4079
0.395591
0.385529
0.378607
0.374209
0.370099
0.365845
0.362785
0.361378
0.35676
0.363686
0.369882
0.369684
0.371307
0.374491
0.37815
0.383353
0.391523
0.401078
0.411193
0.422725
0.434765
0.44835
0.467501
0.496024
0.509377
0.487971
0.455096
0.437725
0.426374
0.415049
0.403397
0.392189
0.383158
0.378023
0.374812
0.371681
0.369808
0.369661
0.363411
0.370132
0.375473
0.374881
0.375858
0.378454
0.382504
0.3897
0.399
0.408171
0.417837
0.429171
0.440265
0.452535
0.470301
0.497919
0.512474
0.491626
0.459809
0.443343
0.432956
0.422075
0.411074
0.399977
0.389424
0.382154
0.378792
0.376225
0.374825
0.374867
0.369654
0.375296
0.379634
0.379634
0.380117
0.382682
0.388628
0.396851
0.40624
0.414544
0.424173
0.435315
0.445784
0.457063
0.473452
0.499304
0.514663
0.494949
0.464684
0.448929
0.439378
0.429086
0.418897
0.408331
0.396676
0.387954
0.382886
0.380581
0.379275
0.378519
0.374439
0.380014
0.383404
0.384372
0.38459
0.388987
0.395309
0.403822
0.413203
0.421115
0.430327
0.441335
0.451337
0.46184
0.477328
0.500451
0.514475
0.498405
0.470051
0.454586
0.445851
0.436577
0.427335
0.417253
0.404757
0.39492
0.388832
0.385066
0.384135
0.382025
0.378997
0.383994
0.386832
0.388936
0.38979
0.395832
0.401755
0.411012
0.421145
0.428624
0.436733
0.447595
0.45716
0.467102
0.481669
0.501794
0.513004
0.501029
0.475671
0.460553
0.452612
0.444848
0.436541
0.426466
0.414215
0.402433
0.394906
0.390323
0.388778
0.385274
0.382609
0.38716
0.389453
0.392624
0.395261
0.401003
0.408892
0.419002
0.428969
0.436642
0.444115
0.454375
0.463435
0.47277
0.486074
0.50321
0.512075
0.502967
0.481317
0.466972
0.459762
0.453734
0.446882
0.436972
0.425235
0.412067
0.402486
0.395792
0.393867
0.387338
0.385224
0.389779
0.390903
0.394976
0.399152
0.407779
0.417558
0.428149
0.437287
0.445188
0.452475
0.46183
0.470155
0.478834
0.49095
0.505142
0.511388
0.504388
0.486951
0.473763
0.467093
0.462168
0.456669
0.448923
0.438191
0.424034
0.412975
0.401654
0.399428
0.389332
0.386699
0.392344
0.390399
0.398476
0.406901
0.417769
0.427424
0.437815
0.445785
0.453374
0.461172
0.46967
0.47722
0.485195
0.495996
0.507456
0.511753
0.50603
0.492324
0.480766
0.474479
0.469869
0.464728
0.458949
0.451372
0.439697
0.426003
0.4118
0.404528
0.392234
0.388766
0.395254
0.390715
0.407286
0.416892
0.429138
0.438651
0.446918
0.452945
0.461454
0.469808
0.477621
0.484478
0.491854
0.501532
0.510349
0.512545
0.50798
0.497646
0.48784
0.481933
0.477264
0.471657
0.465658
0.46036
0.453042
0.442019
0.426134
0.414287
0.39702
0.392084
0.396864
0.398859
0.417754
0.429292
0.440775
0.447816
0.453345
0.460049
0.469755
0.478378
0.485539
0.491827
0.49867
0.507089
0.513598
0.514468
0.510443
0.502696
0.494861
0.489379
0.484695
0.47863
0.470788
0.465561
0.460543
0.453647
0.442266
0.428049
0.409524
0.398415
0.401896
0.412704
0.430548
0.439906
0.447259
0.452168
0.45841
0.468127
0.478307
0.486833
0.493338
0.499132
0.505437
0.5128
0.517199
0.516824
0.51338
0.507763
0.501722
0.496841
0.492129
0.485671
0.47675
0.469578
0.464366
0.45954
0.453034
0.442572
0.425042
0.409572
0.413838
0.429034
0.439112
0.444629
0.449495
0.455238
0.465066
0.477045
0.487122
0.494933
0.500804
0.506163
0.51197
0.518168
0.520895
0.519977
0.516818
0.512758
0.5083
0.504089
0.499431
0.492423
0.483247
0.473292
0.467007
0.462942
0.458413
0.452497
0.441469
0.422974
0.428483
0.437852
0.442655
0.445458
0.451283
0.462198
0.474368
0.486335
0.495698
0.502448
0.507735
0.512706
0.518028
0.523285
0.524653
0.523283
0.520562
0.517838
0.514595
0.510951
0.506395
0.498873
0.488782
0.476747
0.468641
0.464803
0.46177
0.458075
0.45142
0.437038
0.43745
0.440135
0.44397
0.443581
0.457824
0.471664
0.484733
0.495524
0.503422
0.509144
0.513927
0.518558
0.523411
0.527707
0.528219
0.526868
0.524691
0.522825
0.52048
0.517341
0.512767
0.504928
0.492893
0.479218
0.46934
0.464582
0.463261
0.461636
0.456853
0.448354
0.440479
0.440312
0.439208
0.449151
0.468212
0.483216
0.495216
0.503762
0.509998
0.514905
0.519255
0.523582
0.528009
0.531489
0.531585
0.53037
0.528782
0.527532
0.525826
0.523071
0.518449
0.510265
0.496661
0.481522
0.468661
0.463598
0.461836
0.463682
0.460407
0.455986
0.442063
0.433854
0.44661
0.460989
0.481645
0.495118
0.504111
0.510535
0.515555
0.519792
0.523729
0.527828
0.531983
0.534659
0.534649
0.533629
0.532624
0.531855
0.530574
0.528091
0.523518
0.515466
0.502751
0.487502
0.471369
0.461099
0.460666
0.462857
0.462365
0.460735
0.439993
0.442491
0.460155
0.477956
0.49484
0.50459
0.51119
0.516259
0.520398
0.523979
0.527635
0.531708
0.535497
0.537442
0.537463
0.536603
0.536153
0.535854
0.534946
0.532673
0.528334
0.521167
0.510838
0.497922
0.480701
0.465698
0.457462
0.462149
0.460083
0.464165
0.440425
0.45495
0.477777
0.493836
0.504792
0.511874
0.517201
0.52135
0.524607
0.527708
0.531467
0.535473
0.538631
0.539949
0.539869
0.539299
0.53935
0.539471
0.539
0.537183
0.533196
0.527043
0.51954
0.509504
0.494124
0.477867
0.46112
0.460955
0.461135
0.465742
0.451173
0.473657
0.49316
0.504398
0.512245
0.518097
0.522452
0.5256
0.527978
0.53133
0.535269
0.538949
0.541341
0.542061
0.541854
0.541823
0.542159
0.542586
0.542471
0.541112
0.537823
0.532447
0.526879
0.518949
0.506585
0.491401
0.473661
0.463228
0.461704
0.468384
0.466135
0.490872
0.503739
0.511994
0.518628
0.523224
0.526458
0.528617
0.530786
0.534835
0.538747
0.541983
0.543654
0.544026
0.54399
0.544174
0.544572
0.545107
0.545141
0.544062
0.541231
0.536465
0.531911
0.52567
0.515561
0.503028
0.487306
0.473491
0.465358
0.472094
0.481533
0.501908
0.511436
0.518545
0.523651
0.526718
0.528553
0.5301
0.532822
0.537728
0.541694
0.544481
0.545685
0.545987
0.546105
0.546354
0.546749
0.547176
0.547113
0.546037
0.543167
0.538509
0.534392
0.529994
0.522338
0.511747
0.498826
0.485936
0.473902
0.477038
0.494955
0.510121
0.51811
0.523804
0.526999
0.528503
0.529193
0.531114
0.534594
0.539762
0.543814
0.546382
0.547442
0.547848
0.548091
0.548397
0.548724
0.548904
0.548568
0.547242
0.544068
0.539381
0.535693
0.532074
0.526899
0.51873
0.507725
0.496734
0.484326
0.484366
0.505128
0.517495
0.523723
0.52714
0.528656
0.528769
0.529128
0.532322
0.536043
0.540641
0.54464
0.547346
0.54859
0.549253
0.549682
0.55002
0.550217
0.550108
0.54933
0.54746
0.543748
0.5394
0.536251
0.532755
0.529463
0.524297
0.514748
0.505453
0.496393
0.493794
0.513269
0.523605
0.527385
0.528955
0.529102
0.52821
0.529444
0.533249
0.536341
0.539775
0.543375
0.54673
0.548531
0.549725
0.550331
0.550717
0.550729
0.550297
0.548899
0.54613
0.54144
0.53868
0.535736
0.532615
0.530461
0.527824
0.521509
0.51344
0.506897
0.50302
0.519846
0.527056
0.529905
0.530146
0.528896
0.528004
0.530194
0.53325
0.535692
0.536931
0.539728
0.544154
0.547423
0.549298
0.550083
0.550442
0.550241
0.549166
0.546986
0.54289
0.537618
0.537106
0.535027
0.532209
0.530015
0.529013
0.526245
0.520815
0.514585
0.509575
0.524669
0.529693
0.531943
0.530485
0.528139
0.528108
0.529884
0.532785
0.534133
0.533932
0.535326
0.540912
0.545968
0.548344
0.549284
0.549505
0.549259
0.547565
0.544297
0.538639
0.534596
0.535255
0.534209
0.531654
0.529381
0.528165
0.527364
0.525624
0.520285
0.513881
0.528461
0.532489
0.533423
0.529712
0.527866
0.527842
0.529565
0.531096
0.531473
0.531362
0.532754
0.538557
0.54448
0.547171
0.548092
0.548228
0.547957
0.546082
0.542033
0.53549
0.532686
0.533319
0.533043
0.531165
0.529573
0.528438
0.526913
0.527239
0.523652
0.517559
0.531171
0.533405
0.53402
0.529749
0.528743
0.526668
0.528013
0.528131
0.529222
0.530224
0.532597
0.537639
0.543322
0.546136
0.546982
0.547135
0.5468
0.544738
0.540421
0.534485
0.532911
0.532004
0.531354
0.530593
0.52964
0.529884
0.529195
0.530157
0.523858
0.519825
0.532743
0.533373
0.537859
0.532156
0.530062
0.526712
0.524938
0.526043
0.528925
0.531395
0.533965
0.537571
0.542713
0.545546
0.546323
0.546512
0.546066
0.543905
0.539452
0.534408
0.533149
0.530994
0.52991
0.529483
0.528952
0.530831
0.532385
0.534825
0.526503
0.521026
0.533225
0.536756
0.543102
0.536266
0.530332
0.525558
0.523879
0.525153
0.528613
0.53233
0.535537
0.538282
0.542608
0.545218
0.545926
0.546085
0.545647
0.543492
0.538863
0.534743
0.532989
0.529542
0.527724
0.527881
0.527863
0.53118
0.534396
0.539797
0.531739
0.522457
0.535854
0.540796
0.54649
0.540131
0.532218
0.524245
0.522345
0.523361
0.527663
0.533068
0.536893
0.539428
0.542836
0.545111
0.545681
0.545799
0.545371
0.543329
0.538852
0.535581
0.532726
0.528124
0.524983
0.525286
0.526526
0.531306
0.536549
0.544356
0.536911
0.527732
0.539732
0.544029
0.54845
0.542791
0.533528
0.523849
0.520947
0.521832
0.527536
0.533835
0.53806
0.540578
0.543557
0.545444
0.545728
0.545748
0.545353
0.543455
0.539507
0.536735
0.532684
0.526477
0.521591
0.521409
0.523843
0.530907
0.538959
0.548029
0.540555
0.53291
0.541956
0.546466
0.548556
0.539714
0.52902
0.522139
0.519778
0.521297
0.52784
0.534568
0.539291
0.542201
0.544757
0.546134
0.546119
0.546001
0.545635
0.543897
0.540709
0.537903
0.53277
0.52516
0.518181
0.516645
0.519422
0.527758
0.540351
0.550613
0.544425
0.536935
0.543369
0.54777
0.545334
0.5332
0.524948
0.519075
0.517803
0.522267
0.52949
0.535458
0.54026
0.54346
0.545583
0.546526
0.546375
0.546135
0.545801
0.544283
0.541851
0.538807
0.532965
0.524672
0.516276
0.512442
0.514145
0.524174
0.53959
0.549703
0.547372
0.540075
0.544159
0.545339
0.53846
0.528089
0.521954
0.518041
0.517933
0.52415
0.531668
0.536476
0.540497
0.543678
0.545687
0.54642
0.546279
0.545959
0.545633
0.544283
0.54218
0.538844
0.532679
0.524594
0.515628
0.510127
0.511465
0.522048
0.536167
0.545846
0.54713
0.541872
0.543181
0.538061
0.533816
0.525273
0.521622
0.519445
0.51984
0.525162
0.532144
0.536977
0.540225
0.542986
0.545113
0.545851
0.545778
0.545439
0.545038
0.543727
0.541468
0.537927
0.531857
0.524528
0.51579
0.509496
0.512174
0.521966
0.531752
0.541887
0.543634
0.542062
0.539117
0.532937
0.530828
0.524906
0.523759
0.522487
0.522634
0.526619
0.532103
0.536596
0.539418
0.541611
0.543954
0.54486
0.544841
0.544507
0.543947
0.542586
0.540005
0.536361
0.530801
0.524595
0.516655
0.510758
0.514615
0.521974
0.529469
0.538482
0.54056
0.540377
0.532734
0.529467
0.530192
0.52704
0.526832
0.525455
0.525551
0.527983
0.532171
0.536247
0.538598
0.540129
0.542357
0.543385
0.543416
0.543085
0.5424
0.540961
0.53827
0.534668
0.529883
0.524683
0.51783
0.51322
0.51683
0.522739
0.52963
0.537433
0.538464
0.538084
0.528184
0.52783
0.531442
0.530347
0.529115
0.527972
0.528167
0.529461
0.5324
0.535911
0.537863
0.538621
0.540341
0.541291
0.541356
0.541018
0.5403
0.53885
0.53637
0.533036
0.529018
0.524648
0.518734
0.515279
0.518807
0.523441
0.530838
0.537897
0.537271
0.536526
0.52516
0.529269
0.533529
0.532828
0.53089
0.529808
0.529669
0.530246
0.532168
0.534933
0.536433
0.536754
0.537804
0.538569
0.538759
0.538371
0.537629
0.536165
0.534033
0.531175
0.527801
0.524178
0.518977
0.516815
0.520846
0.524067
0.531297
0.538535
0.537936
0.534776
0.524785
0.531471
0.534973
0.533889
0.531764
0.530303
0.529238
0.529458
0.53079
0.532964
0.534052
0.53438
0.534951
0.535498
0.535714
0.535263
0.534548
0.532974
0.531069
0.528694
0.525733
0.522705
0.518404
0.517751
0.522082
0.524476
0.530667
0.538129
0.538711
0.534823
0.525933
0.532491
0.535785
0.533814
0.53115
0.528344
0.526862
0.527132
0.528307
0.530139
0.530961
0.531459
0.532005
0.532451
0.532548
0.532103
0.531387
0.529627
0.527752
0.525743
0.522818
0.52008
0.516897
0.517765
0.521506
0.524219
0.529241
0.537059
0.538351
0.536027
0.526295
0.532755
0.536039
0.532156
0.527953
0.524314
0.523463
0.523982
0.525182
0.526601
0.527585
0.528536
0.529416
0.530068
0.52994
0.529558
0.528741
0.526735
0.524686
0.52262
0.519261
0.517089
0.51473
0.516569
0.51905
0.522026
0.527302
0.535675
0.53716
0.536177
0.526069
0.532665
0.535031
0.527406
0.522989
0.519501
0.519654
0.520481
0.521908
0.523211
0.524802
0.526234
0.527534
0.52836
0.528217
0.527808
0.526887
0.524772
0.522436
0.519863
0.516415
0.514188
0.512235
0.514122
0.515472
0.518459
0.522689
0.533758
0.535242
0.535202
0.525983
0.530912
0.530589
0.524488
0.518544
0.515423
0.515807
0.517183
0.519143
0.520899
0.522867
0.524602
0.526194
0.527053
0.526898
0.526465
0.525529
0.523387
0.520851
0.518057
0.514494
0.511835
0.509867
0.51097
0.51227
0.516093
0.520964
0.528201
0.532019
0.533511
0.52647
0.525089
0.526777
0.522903
0.517051
0.512969
0.513067
0.514516
0.51717
0.519577
0.5217
0.523408
0.525067
0.525844
0.52571
0.525268
0.524318
0.522247
0.519739
0.51689
0.513049
0.510126
0.507622
0.508531
0.510803
0.516166
0.520449
0.524599
0.524967
0.531
0.525132
0.521561
0.524312
0.521329
0.517883
0.513686
0.512542
0.512767
0.515771
0.51854
0.520959
0.522502
0.52399
0.524629
0.52459
0.524126
0.523153
0.521253
0.518751
0.515831
0.511719
0.508657
0.505427
0.507663
0.5119
0.51677
0.51857
0.522257
0.520672
0.526485
0.522358
0.519985
0.523461
0.520005
0.517598
0.514316
0.513506
0.512979
0.515011
0.517603
0.520269
0.521847
0.523159
0.523551
0.52349
0.523039
0.522044
0.520324
0.517769
0.51476
0.510683
0.507101
0.504743
0.508269
0.512561
0.515668
0.516866
0.520461
0.518142
0.521028
0.519921
0.519557
0.523432
0.519267
0.517623
0.514208
0.513352
0.513874
0.514837
0.516806
0.519499
0.521349
0.522661
0.522903
0.522657
0.522124
0.521089
0.519474
0.516904
0.513991
0.509909
0.505801
0.504683
0.50865
0.511947
0.514555
0.515429
0.519222
0.516462
0.517164
0.518354
0.518981
0.523727
0.519721
0.518468
0.514709
0.513356
0.513804
0.514572
0.516185
0.51878
0.520919
0.522329
0.522607
0.522354
0.52176
0.520696
0.519136
0.516604
0.513866
0.509229
0.505379
0.505118
0.508401
0.51207
0.513968
0.514859
0.518927
0.515585
0.514755
0.51574
0.519301
0.525217
0.521794
0.520755
0.516476
0.513846
0.51302
0.514108
0.515587
0.51799
0.520405
0.521938
0.522361
0.522231
0.521712
0.520727
0.519257
0.516644
0.513739
0.508349
0.505323
0.5058
0.509164
0.513248
0.514706
0.516372
0.520833
0.516636
0.512597
0.513172
0.520165
0.52579
0.523848
0.522444
0.518718
0.513917
0.511752
0.512272
0.513756
0.516158
0.51864
0.520261
0.520873
0.5209
0.520535
0.51966
0.518304
0.51558
0.512501
0.506813
0.504343
0.506529
0.510842
0.513818
0.51655
0.518454
0.522059
0.518616
0.511307
0.504421
0.513769
0.518785
0.517582
0.51611
0.511955
0.50697
0.503146
0.502519
0.50392
0.506311
0.508717
0.510393
0.511144
0.51129
0.5111
0.510346
0.509129
0.506378
0.503186
0.497884
0.496459
0.500821
0.504296
0.506875
0.510727
0.512791
0.515141
0.512991
0.503741
0.472695
0.483279
0.489198
0.488911
0.487424
0.482917
0.478773
0.475144
0.473427
0.473955
0.476303
0.47861
0.480379
0.481222
0.481471
0.481357
0.480663
0.479519
0.476775
0.473613
0.469325
0.469562
0.473996
0.476247
0.478755
0.482661
0.484592
0.485697
0.482683
0.472745
0.455191
0.464737
0.471816
0.472082
0.47031
0.466184
0.463278
0.461135
0.459655
0.459386
0.461186
0.463417
0.465332
0.46627
0.466608
0.466495
0.46577
0.464566
0.461707
0.458978
0.456003
0.456819
0.459768
0.461692
0.46332
0.466543
0.468234
0.46867
0.463224
0.454688
0.444291
0.452724
0.459742
0.459442
0.457281
0.45417
0.452936
0.451732
0.451504
0.451216
0.452222
0.454086
0.455989
0.457012
0.457398
0.457275
0.456485
0.455125
0.452332
0.450342
0.448332
0.448592
0.450666
0.452204
0.452621
0.454923
0.456343
0.457017
0.449983
0.44281
0.434367
0.441116
0.447967
0.446843
0.445423
0.443712
0.443837
0.443492
0.444086
0.444559
0.44499
0.446206
0.447994
0.449048
0.449468
0.449308
0.448472
0.446943
0.4446
0.443362
0.441516
0.441283
0.442794
0.443817
0.44325
0.444415
0.444732
0.445483
0.438086
0.431643
0.423432
0.427953
0.434922
0.434465
0.434724
0.434493
0.435383
0.435913
0.43677
0.438054
0.43841
0.439049
0.440547
0.441556
0.441996
0.441789
0.440913
0.439354
0.437551
0.436894
0.43469
0.434354
0.435525
0.436012
0.434961
0.434756
0.433265
0.432571
0.425304
0.419578
0.409497
0.413197
0.420901
0.422691
0.425088
0.425837
0.427404
0.428668
0.429667
0.431262
0.431903
0.432251
0.433363
0.434296
0.434703
0.434451
0.433553
0.43209
0.430877
0.430298
0.42786
0.427574
0.428561
0.428387
0.426867
0.425805
0.422262
0.41853
0.411076
0.405917
0.393198
0.397558
0.407059
0.412277
0.415943
0.417325
0.419459
0.421302
0.422558
0.424142
0.425176
0.425463
0.426209
0.427054
0.427382
0.427098
0.426178
0.424897
0.424344
0.423336
0.420948
0.420753
0.421343
0.420528
0.418522
0.416828
0.411979
0.404791
0.395928
0.390789
0.376564
0.38126
0.395168
0.402402
0.406728
0.408413
0.411057
0.413517
0.415249
0.416748
0.418033
0.418507
0.418855
0.419558
0.419834
0.41951
0.418589
0.41759
0.417543
0.416072
0.413885
0.413704
0.413513
0.412126
0.409702
0.407445
0.401768
0.392917
0.380774
0.375237
0.360453
0.368223
0.384171
0.392427
0.397052
0.399165
0.402179
0.405147
0.407473
0.408974
0.410459
0.411204
0.411141
0.411578
0.411825
0.411466
0.410569
0.409976
0.410147
0.408492
0.406516
0.405934
0.40488
0.403141
0.400365
0.397206
0.391253
0.38214
0.368754
0.360198
0.347186
0.357432
0.373112
0.381412
0.386591