/*--------------------------------*- C++ -*----------------------------------*\
| =========                 |                                                 |
| \\      /  F ield         | OpenFOAM: The Open Source CFD Toolbox           |
|  \\    /   O peration     | Version:  v1606+                                |
|   \\  /    A nd           | Web:      www.OpenFOAM.com                      |
|    \\/     M anipulation  |                                                 |
\*---------------------------------------------------------------------------*/
FoamFile
{
    version     2.0;
    format      ascii;
    class       surfaceScalarField;
    location    "0.5";
    object      alphaPhi;
}
// * * * * * * * * * * * * * * * * * * * * * * * * * * * * * * * * * * * * * //

dimensions      [0 3 -1 0 0 0 0];

internalField   nonuniform List<scalar> 
5952
(
1.41516e-23
-1.71636e-22
8.52807e-22
-4.72734e-21
3.14175e-21
-1.27035e-20
4.47027e-21
-1.07186e-20
1.13765e-21
-7.61827e-22
5.88878e-22
1.30503e-22
5.97048e-21
6.08423e-21
-6.90481e-20
1.66937e-19
-3.15407e-19
3.38805e-19
-6.48715e-19
4.27253e-19
-5.8665e-18
5.30846e-18
2.7775e-18
-2.23785e-17
1.65075e-22
-1.96069e-21
7.31314e-21
-3.85669e-20
2.93842e-20
-1.11226e-19
3.67223e-20
-9.53857e-20
9.42115e-20
1.49523e-19
-2.08095e-18
1.61006e-18
-1.57491e-17
6.04297e-18
-5.3473e-17
2.04306e-17
-8.84345e-12
3.14437e-12
-2.02669e-11
1.25868e-11
1.48805e-13
8.75613e-12
1.48804e-13
-1.31227e-17
7.11994e-22
-9.38926e-21
1.47609e-20
-1.28226e-19
2.58244e-20
-2.01014e-19
-5.5682e-19
2.31837e-19
-4.45422e-18
1.99262e-18
-2.11637e-17
8.40906e-18
-7.65967e-17
2.82529e-17
-1.52979e-15
1.42218e-15
-8.53105e-12
5.45851e-12
6.90692e-13
1.5381e-11
1.29848e-10
-8.32422e-11
9.61495e-08
-3.33006e-07
2.17687e-22
-2.0747e-20
-7.22541e-20
-1.75771e-19
-6.06951e-19
3.41553e-20
-2.94223e-18
1.22652e-18
-1.30652e-17
5.44464e-18
-4.67173e-17
2.04642e-17
-1.17956e-16
6.10875e-17
-3.92897e-12
4.08052e-13
3.64256e-12
1.9704e-13
1.90232e-11
1.62313e-16
-2.86309e-07
7.63458e-09
6.06784e-07
-1.84936e-06
-3.43897e-20
-2.31117e-20
-4.03974e-19
-9.04135e-20
-1.67739e-18
6.07783e-19
-5.37815e-18
3.22527e-18
-1.99974e-17
1.02134e-17
-6.88498e-17
3.47686e-17
-3.0934e-14
1.04797e-16
-8.00768e-13
1.94228e-13
-1.23696e-15
1.72256e-14
-1.39771e-16
1.53206e-16
7.63458e-09
9.72052e-17
4.48496e-08
-1.66402e-06
-9.67875e-20
-1.172e-20
-8.62447e-19
1.11499e-19
-3.05405e-18
1.6623e-18
-8.69012e-18
6.49282e-18
-3.18411e-17
1.93927e-17
-7.8889e-17
7.02543e-17
-6.96704e-14
2.23816e-14
-1.71311e-14
1.18793e-16
-7.48017e-17
1.36304e-16
-1.20351e-16
8.32762e-17
-8.27493e-17
1.07097e-16
4.13777e-09
-1.02743e-07
-1.84185e-19
1.6217e-20
-1.40153e-18
3.97504e-19
-4.45009e-18
2.85969e-18
-8.13504e-18
9.91714e-18
-1.01834e-17
2.17115e-17
-1.31009e-17
7.39745e-17
-4.35507e-17
2.24134e-14
-3.96254e-17
1.20241e-16
-2.54718e-17
8.57752e-17
-2.92656e-17
8.28326e-17
-3.58722e-17
1.17941e-16
4.13777e-09
-9.30569e-17
-3.20629e-19
8.03893e-20
-2.02067e-18
7.43089e-19
-6.13481e-18
3.60305e-18
-1.42863e-17
1.20732e-17
-4.47775e-17
4.16577e-17
-1.95878e-09
1.88065e-09
-3.54697e-17
2.55674e-08
-1.94914e-17
9.40876e-17
-2.00963e-09
2.00963e-09
-1.45698e-07
2.36408e-07
-3.34209e-07
1.79679e-06
2.46724e-06
-7.00187e-07
-5.34269e-19
3.8785e-19
-2.61094e-18
1.13826e-18
-6.53733e-18
3.50737e-18
-1.17079e-17
8.98855e-18
-9.83132e-18
2.94855e-17
2.03542e-11
3.19302e-12
7.21419e-09
2.60986e-08
5.40116e-10
6.67408e-09
7.83937e-08
1.43477e-06
6.86665e-08
2.97185e-06
-1.71658e-08
2.94086e-06
2.59588e-06
-2.85439e-08
-7.93721e-19
1.47974e-18
-2.79572e-18
1.50424e-18
-5.65536e-18
2.7076e-18
-7.10212e-18
4.43891e-18
-9.83317e-19
1.19377e-17
3.19279e-12
3.5719e-17
2.60043e-08
1.26973e-11
9.52557e-07
7.32025e-07
1.51702e-06
3.40276e-06
1.22549e-06
3.40781e-06
1.08706e-06
3.07929e-06
2.59579e-06
1.08715e-06
-9.5969e-19
8.52876e-18
-1.77554e-18
1.70165e-18
-2.64433e-18
1.56179e-18
-2.44459e-18
1.189e-18
1.89245e-18
3.55081e-18
1.43796e-17
1.11601e-17
1.26973e-11
8.58844e-18
1.46913e-06
4.39316e-07
2.30579e-06
2.9726e-06
2.10898e-06
3.60462e-06
2.02986e-06
3.15841e-06
2.54346e-06
2.08219e-06
8.56463e-19
7.6723e-18
1.06116e-18
1.49695e-18
1.05539e-18
1.56756e-18
1.13894e-18
1.10545e-18
4.54372e-18
1.09314e-18
1.27983e-17
3.69135e-18
1.66585e-17
4.72764e-18
4.79175e-07
1.94191e-08
2.20559e-06
1.02014e-06
2.58986e-06
3.22035e-06
2.69859e-06
3.04967e-06
2.86702e-06
2.37503e-06
-2.83084e-17
6.83849e-18
-4.5124e-17
1.68156e-17
-4.94542e-17
1.0733e-16
-1.81691e-16
1.32237e-16
-2.98615e-16
8.76735e-17
-3.66961e-16
2.77941e-17
-3.80022e-16
-3.70381e-17
-3.32429e-16
-9.99724e-17
-2.21718e-16
-1.80509e-16
-1.86066e-12
1.8604e-12
-1.02706e-21
6.72821e-13
-1.02706e-21
-3.91462e-09
3.91462e-09
-1.03938e-07
9.05441e-08
-4.62313e-07
5.96812e-08
-8.34599e-07
-3.28462e-08
-1.03237e-06
-1.1673e-07
-8.27253e-07
-2.8147e-07
-4.64049e-07
-4.31694e-07
-1.63222e-07
-5.27752e-07
-1.56627e-08
-2.00778e-07
-3.04462e-10
-4.64812e-08
-2.57058e-21
-3.03789e-10
-3.59766e-21
-1.87242e-06
5.60382e-07
-2.31015e-06
5.2708e-07
-2.49246e-06
2.392e-07
-2.51309e-06
-1.31316e-08
-2.42182e-06
-2.07405e-07
-2.27074e-06
-4.33461e-07
-2.05115e-06
-6.50695e-07
-1.44963e-06
-1.13042e-06
-1.0143e-06
-9.1584e-07
-2.87405e-07
-9.73083e-07
-2.29174e-17
-4.58651e-07
-2.2921e-17
-2.19441e-06
9.02565e-07
-2.35328e-06
6.82775e-07
-2.42719e-06
2.87e-07
-2.41338e-06
-3.00086e-08
-2.43792e-06
-1.3367e-07
-1.90793e-06
-9.37083e-08
-1.41959e-06
-7.10363e-11
-1.44409e-06
-9.48845e-08
-1.25098e-06
-8.71757e-07
-7.47378e-07
-1.47323e-06
-1.54383e-08
-9.37658e-07
-1.54383e-08
-2.03049e-06
1.02704e-06
-2.21381e-06
8.37711e-07
-2.09283e-06
1.81436e-07
-7.87645e-07
-7.05916e-18
-5.99446e-08
-4.05934e-17
-3.21313e-12
-1.03642e-10
-2.69491e-16
-7.42501e-11
-9.42686e-08
-6.15893e-10
-9.22355e-08
-4.37718e-08
-4.15289e-07
-1.61987e-07
-9.93192e-08
-1.00621e-06
-4.21061e-07
-4.37631e-07
1.10505e-07
-2.82923e-07
9.86668e-08
-1.7151e-16
8.21294e-09
-1.72245e-16
-7.95527e-18
-1.65401e-16
-4.58063e-17
-1.03642e-10
-1.09495e-16
-5.4515e-10
-1.01235e-09
-1.46709e-10
-1.75067e-08
-1.92191e-16
-4.39185e-08
-4.3116e-08
-1.18871e-07
-1.44891e-07
-1.26773e-07
-1.01212e-06
-2.55052e-16
1.10505e-07
-2.03248e-16
9.86668e-08
-1.67721e-16
8.21294e-09
-1.51995e-16
-1.33085e-17
-9.76666e-17
-4.68918e-17
1.10515e-11
-1.10517e-11
3.97903e-09
-3.68561e-10
-1.50853e-08
-4.18505e-08
-1.00673e-07
-4.63033e-07
1.92694e-08
-8.93169e-07
-1.2534e-07
-1.96002e-07
-1.12319e-06
-8.01454e-07
2.07932e-06
-7.33298e-07
1.33899e-06
-1.57668e-07
3.25336e-07
-7.37746e-09
-2.56807e-08
-9.70482e-12
-7.36775e-09
2.37372e-12
-5.30832e-13
-3.66187e-10
-1.56169e-16
-9.73568e-09
-8.58007e-17
-1.46701e-08
-8.26923e-07
-8.02898e-09
-8.30584e-07
-1.40131e-07
-3.41525e-07
-2.9838e-07
-2.16104e-08
2.07238e-06
-1.16003e-07
1.43338e-06
-2.56856e-07
6.285e-07
-4.17206e-08
-1.97427e-07
-8.48831e-13
-1.81709e-07
1.10938e-16
-4.89536e-13
3.40564e-17
-1.03516e-16
2.54024e-17
-1.05162e-16
1.9998e-07
-1.04596e-16
8.34715e-08
-7.87767e-07
-5.00699e-10
-8.1922e-07
-2.98881e-07
1.13481e-06
2.02472e-06
1.07894e-06
1.48925e-06
9.16602e-07
7.90839e-07
5.77942e-07
-4.43822e-07
4.89565e-13
-2.30417e-07
9.61971e-17
-1.807e-16
7.08451e-17
-1.90214e-16
6.31218e-17
-1.7399e-16
5.34687e-17
-1.30431e-16
1.95591e-07
-7.37192e-17
1.46709e-07
-4.64448e-07
-1.55302e-07
2.21064e-06
1.89627e-06
2.33588e-06
1.364e-06
2.50159e-06
6.25138e-07
1.07165e-06
-4.98383e-07
-1.83424e-08
-1.13645e-07
2.26029e-16
-1.83424e-08
2.0722e-16
-1.17548e-08
1.69481e-16
-2.52518e-16
1.12633e-16
-1.34125e-16
5.54295e-17
-7.0076e-17
3.73525e-07
-7.16775e-18
-7.83486e-08
3.08356e-06
1.67973e-06
3.37682e-06
1.07074e-06
2.77622e-06
1.04451e-07
-2.06607e-09
-1.10337e-07
3.48212e-09
-1.21409e-07
1.70315e-07
-2.00627e-07
1.98733e-07
-3.17651e-07
8.1257e-09
-1.51685e-07
5.66886e-18
-3.19139e-09
9.69542e-17
-6.2058e-17
9.17623e-18
-5.35232e-18
2.49055e-07
4.52092e-32
-1.57583e-30
1.18146e-29
-2.05576e-28
7.00821e-29
-1.26075e-27
1.66514e-28
-2.24598e-27
7.0131e-30
1.34881e-30
1.81505e-29
2.11515e-29
-2.16401e-25
2.19431e-26
-5.94177e-24
6.26333e-25
-4.97586e-23
5.96754e-24
-2.39766e-22
3.10312e-23
-8.1309e-22
1.06658e-22
2.74603e-22
-2.16796e-21
1.03691e-30
-5.69269e-29
2.08365e-28
-5.74933e-27
1.4803e-27
-6.41321e-26
-8.53822e-26
1.08186e-26
-8.17521e-24
1.00514e-24
-9.44477e-23
1.55671e-23
-5.43616e-22
1.07144e-22
-2.06507e-21
4.44708e-22
-5.92672e-21
1.29898e-21
-1.3887e-20
2.91401e-21
-2.78943e-20
5.32265e-21
8.11918e-21
-4.94663e-20
7.73318e-30
-1.2366e-27
-2.97539e-26
-5.31596e-26
-2.09175e-24
9.01865e-26
-3.26491e-23
4.44043e-24
-2.5101e-22
5.18637e-23
-1.22452e-21
3.13153e-22
-4.33514e-21
1.2355e-21
-1.21114e-20
3.58705e-21
-2.82498e-20
8.225e-21
-5.72646e-20
1.55917e-20
-1.03901e-19
2.50958e-20
3.49168e-20
-1.72732e-19
-1.64693e-26
-3.50976e-27
-1.23523e-24
2.05878e-26
-2.14383e-23
2.66747e-24
-1.80235e-22
3.99095e-23
-9.57317e-22
2.84162e-22
-3.67789e-21
1.28333e-21
-1.10916e-20
4.19571e-21
-2.77359e-20
1.07089e-20
-5.97785e-20
2.23868e-20
-1.1416e-19
3.95605e-20
-1.9671e-19
6.00391e-20
7.71387e-20
-3.08195e-19
-9.42484e-26
-1.20607e-27
-3.99067e-24
3.3823e-25
-5.10877e-23
1.04708e-23
-3.49977e-22
1.09788e-22
-1.61109e-21
6.46932e-22
-5.59411e-21
2.59559e-21
-1.5703e-20
7.83696e-21
-3.73184e-20
1.89105e-20
-7.75984e-20
3.79411e-20
-1.44631e-19
6.49833e-20
-2.46134e-19
9.63496e-20
1.23265e-19
-3.88744e-19
-1.53861e-25
3.66865e-27
-5.33085e-24
7.80656e-25
-6.04303e-23
1.75443e-23
-3.77957e-22
1.60516e-22
-1.6239e-21
8.78151e-22
-5.34732e-21
3.36225e-21
-1.44009e-20
9.82294e-21
-3.30985e-20
2.30889e-20
-6.69489e-20
4.52737e-20
-1.21993e-19
7.59015e-20
-2.04003e-19
1.10302e-19
1.38754e-19
-3.17972e-19
-1.51952e-25
8.17607e-27
-4.3976e-24
8.91969e-25
-4.54246e-23
1.75404e-23
-2.65886e-22
1.52541e-22
-1.08784e-21
8.21746e-22
-3.44382e-21
3.13e-21
-8.95982e-21
9.10378e-21
-1.99088e-20
2.12056e-20
-3.88502e-20
4.09273e-20
-6.80633e-20
6.70053e-20
-1.09215e-19
9.4346e-20
1.14247e-19
-1.6395e-19
-1.28414e-25
1.08859e-26
-2.79662e-24
6.93244e-25
-2.44182e-23
1.20083e-23
-1.26728e-22
1.02012e-22
-4.75489e-22
5.62268e-22
-1.40786e-21
2.20538e-21
-3.46215e-21
6.56038e-21
-7.28103e-21
1.54192e-20
-1.33459e-20
2.95506e-20
-2.15677e-20
4.71382e-20
-3.09663e-20
6.31653e-20
7.04301e-20
-3.98441e-20
-1.0789e-25
1.35726e-26
-1.59449e-24
4.34227e-25
-1.01286e-23
5.95573e-24
-3.7813e-23
4.86857e-23
-9.63989e-23
2.83114e-22
-1.74243e-22
1.18814e-21
-2.09483e-22
3.73914e-21
-6.97598e-23
9.09976e-21
2.70742e-22
1.77266e-20
1.0926e-21
2.79338e-20
2.73991e-21
3.57367e-20
3.62609e-20
5.39369e-21
-8.23485e-26
1.58223e-26
-7.88464e-25
2.25502e-25
-3.19083e-24
2.09592e-24
-3.64128e-24
1.59716e-23
1.03845e-23
1.11061e-22
8.95763e-23
5.32564e-22
3.93129e-22
1.82564e-21
1.20293e-21
4.66689e-21
2.86401e-21
9.24226e-21
5.58382e-21
1.43657e-20
9.11016e-21
1.74766e-20
1.59791e-20
1.24484e-20
-3.57348e-26
1.16772e-26
-2.02551e-25
7.16289e-26
-3.73611e-25
4.34906e-25
8.8087e-25
3.86917e-24
1.35065e-23
3.44372e-23
8.91414e-23
1.94197e-22
3.73063e-22
7.4421e-22
1.12225e-21
2.03231e-21
2.60958e-21
4.13411e-21
4.87933e-21
6.3597e-21
7.42929e-21
7.35767e-21
6.04404e-21
9.12283e-21
1.19193e-30
1.1676e-26
1.84877e-30
7.16282e-26
2.60132e-30
4.34905e-25
7.36911e-25
6.91559e-25
7.75397e-24
8.09969e-24
4.97531e-23
5.58279e-23
2.15207e-22
2.46509e-22
6.66027e-22
7.35137e-22
1.55895e-21
1.55834e-21
2.85631e-21
2.38444e-21
4.13835e-21
2.62212e-21
4.6803e-21
1.92269e-21
-4.84754e-21
5.53017e-22
-9.35329e-21
7.90813e-22
-1.61191e-20
7.75298e-22
-2.55173e-20
1.93703e-22
-3.16917e-20
-8.16025e-21
-3.08012e-20
-1.93641e-20
-2.39115e-20
-2.70908e-20
-1.33829e-20
-3.02598e-20
-4.33169e-21
-2.50941e-20
-4.17877e-22
-1.32113e-20
-2.02416e-25
-2.71269e-21
-6.35126e-24
-7.87349e-20
9.91401e-21
-1.16154e-19
1.00889e-20
-1.60563e-19
6.48149e-21
-2.04356e-19
-7.16107e-21
-2.28899e-19
-4.79163e-20
-2.21881e-19
-1.02153e-19
-1.77455e-19
-1.56042e-19
-1.09517e-19
-1.82795e-19
-4.38924e-20
-1.64443e-19
-6.99276e-21
-1.00738e-19
-1.50537e-23
-2.91191e-20
-2.3294e-22
-2.6599e-19
4.10713e-20
-3.78188e-19
3.6993e-20
-4.9859e-19
1.63418e-20
-5.97012e-19
-4.71788e-20
-6.44219e-19
-1.64707e-19
-6.24994e-19
-3.0579e-19
-5.22058e-19
-4.5534e-19
-3.53773e-19
-5.48495e-19
-1.68068e-19
-5.30882e-19
-3.84784e-20
-3.69356e-19
-2.8641e-22
-1.38193e-19
-2.94719e-21
-4.47961e-19
8.43071e-20
-6.13281e-19
7.18913e-20
-7.94161e-19
2.72286e-20
-9.67086e-19
-8.51411e-20
-1.1017e-18
-2.82718e-19
-1.13112e-18
-5.69133e-19
-1.01421e-18
-8.96865e-19
-7.53747e-19
-1.14878e-18
-4.12876e-19
-1.19956e-18
-1.24092e-19
-9.32999e-19
-2.45465e-21
-4.28932e-19
-1.94896e-20
-5.72559e-19
1.32948e-19
-7.88689e-19
1.08529e-19
-1.02022e-18
3.14925e-20
-1.25156e-18
-1.29855e-19
-1.44595e-18
-4.16638e-19
-1.53996e-18
-8.62242e-19
-1.46161e-18
-1.42073e-18
-1.1788e-18
-1.92026e-18
-7.28731e-19
-2.14692e-18
-2.72761e-19
-1.83688e-18
-1.17008e-20
-1.00445e-18
-8.17468e-20
-4.66983e-19
1.47128e-19
-6.50834e-19
1.16265e-19
-8.63783e-19
2.28039e-20
-1.12228e-18
-1.42673e-19
-1.39041e-18
-4.8467e-19
-1.58012e-18
-1.09595e-18
-1.59138e-18
-1.9331e-18
-1.38471e-18
-2.74084e-18
-9.53947e-19
-3.24242e-18
-4.32868e-19
-2.9993e-18
-3.41321e-20
-1.90421e-18
-2.44357e-19
-2.35893e-19
1.16042e-19
-3.33927e-19
8.64673e-20
-4.71338e-19
4.87938e-21
-6.87147e-19
-1.16781e-19
-9.41178e-19
-4.91866e-19
-1.14673e-18
-1.27151e-18
-1.21406e-18
-2.40122e-18
-1.13281e-18
-3.51093e-18
-8.70153e-19
-4.30691e-18
-4.83087e-19
-4.21723e-18
-6.36435e-20
-3.0405e-18
-5.64415e-19
-4.75384e-20
6.28221e-20
-6.01796e-20
3.82553e-20
-1.05092e-19
-2.56664e-21
-1.77611e-19
-1.09552e-19
-2.41923e-19
-5.60023e-19
-2.69359e-19
-1.52545e-18
-2.56524e-19
-2.90557e-18
-2.58572e-19
-4.21802e-18
-2.66065e-19
-5.18782e-18
-2.50261e-19
-5.21979e-18
-6.44263e-20
-4.1657e-18
-1.0621e-18
8.59462e-21
2.68904e-20
1.06816e-20
1.05427e-20
2.1511e-20
-7.64115e-21
1.08871e-19
-1.74948e-19
3.39427e-19
-8.20217e-19
7.00269e-19
-2.08071e-18
1.06989e-18
-3.72012e-18
1.23526e-18
-5.0899e-18
1.09919e-18
-5.98146e-18
6.03904e-19
-5.80954e-18
1.25941e-19
-4.81846e-18
-1.58937e-18
1.37093e-20
9.72164e-21
1.28067e-20
2.70279e-21
6.70945e-20
-3.26971e-20
3.81229e-19
-4.13387e-19
1.1054e-18
-1.51403e-18
2.12634e-18
-3.26604e-18
3.08457e-18
-5.13318e-18
3.55006e-18
-6.29782e-18
3.32925e-18
-6.73595e-18
2.30098e-18
-5.92919e-18
9.28579e-19
-4.70071e-18
-1.5774e-18
8.74013e-21
3.04754e-21
1.57271e-20
9.38059e-22
2.59709e-19
-1.81586e-19
1.20127e-18
-1.18755e-18
2.90741e-18
-3.15421e-18
4.93095e-18
-5.51207e-18
6.54089e-18
-7.31628e-18
7.19731e-18
-7.82087e-18
6.69403e-18
-7.30249e-18
4.9885e-18
-5.43908e-18
2.47002e-18
-3.52567e-18
-2.60914e-19
4.83128e-21
9.18982e-22
1.34021e-19
-2.85348e-20
1.25842e-18
-9.92814e-19
3.86076e-18
-3.46171e-18
7.26109e-18
-6.52981e-18
1.0352e-17
-9.03491e-18
1.21504e-17
-9.94576e-18
1.24288e-17
-9.18166e-18
1.12427e-17
-7.32336e-18
8.82666e-18
-4.3078e-18
5.07208e-18
-1.17144e-18
3.40774e-18
4.78625e-35
-2.41073e-33
3.21933e-32
-7.57835e-31
3.92877e-31
-9.10895e-30
1.12692e-30
-1.77418e-29
4.25229e-32
8.10671e-33
4.34286e-32
5.00379e-32
-3.58919e-27
2.56065e-28
-1.29618e-25
1.0497e-26
-1.34518e-24
1.30492e-25
-7.68521e-24
8.3994e-25
-2.97779e-23
3.43029e-24
1.01386e-23
-8.79917e-23
1.6039e-33
-1.31997e-31
7.75396e-31
-2.9207e-29
1.08496e-29
-5.91238e-28
-1.12476e-27
8.34184e-29
-1.60483e-25
1.40663e-26
-2.39431e-24
3.07166e-25
-1.66401e-23
2.72051e-24
-7.24902e-23
1.36126e-23
-2.29516e-22
4.55335e-23
-5.77131e-22
1.12535e-22
-1.22075e-21
2.20816e-22
3.5253e-22
-2.24742e-21
1.84617e-32
-4.46244e-30
-2.59207e-28
-3.5329e-28
-2.90939e-26
8.11333e-28
-6.32193e-25
6.23855e-26
-6.19723e-24
1.00932e-24
-3.60723e-23
7.75028e-24
-1.45024e-22
3.64177e-23
-4.4379e-22
1.1989e-22
-1.10482e-21
3.00724e-22
-2.34749e-21
6.07763e-22
-4.40901e-21
1.023e-21
1.47814e-21
-7.53276e-21
-1.04155e-28
-1.26929e-29
-1.26848e-26
1.23278e-28
-3.20677e-25
2.76236e-26
-3.59003e-24
6.0161e-25
-2.35868e-23
5.6905e-24
-1.05665e-22
3.17131e-23
-3.55046e-22
1.20635e-22
-9.56261e-22
3.42363e-22
-2.16612e-21
7.69426e-22
-4.27301e-21
1.42656e-21
-7.51513e-21
2.23124e-21
2.9108e-21
-1.19137e-20
-5.56408e-28
-4.03054e-30
-3.75008e-26
2.00382e-27
-6.94782e-25
9.95935e-26
-6.32737e-24
1.5099e-24
-3.59653e-23
1.17927e-23
-1.45001e-22
5.82265e-23
-4.5004e-22
2.03474e-22
-1.13914e-21
5.41266e-22
-2.45397e-21
1.15356e-21
-4.64631e-21
2.04185e-21
-7.9322e-21
3.06737e-21
3.92324e-21
-1.25035e-20
-7.26277e-28
9.24938e-30
-4.07869e-26
3.74902e-27
-6.83252e-25
1.37125e-25
-5.78688e-24
1.84978e-24
-3.1104e-23
1.36364e-23
-1.19644e-22
6.4958e-23
-3.55596e-22
2.2053e-22
-8.61635e-22
5.69438e-22
-1.77196e-21
1.17253e-21
-3.19127e-21
1.99179e-21
-5.16824e-21
2.85156e-21
3.4613e-21
-7.72256e-21
-5.25095e-28
1.57979e-29
-2.53198e-26
3.18092e-27
-3.99939e-25
1.04892e-25
-3.27527e-24
1.39014e-24
-1.72101e-23
1.03863e-23
-6.47615e-23
5.03039e-23
-1.87262e-22
1.72282e-22
-4.36738e-22
4.42463e-22
-8.51251e-22
8.9061e-22
-1.42356e-21
1.449e-21
-2.0871e-21
1.93918e-21
2.13602e-21
-2.75042e-21
-3.08434e-28
1.49036e-29
-1.13534e-26
1.72917e-27
-1.56936e-25
5.17884e-26
-1.18942e-24
6.98548e-25
-5.97305e-24
5.55234e-24
-2.17427e-23
2.85947e-23
-6.07827e-23
1.02497e-22
-1.35517e-22
2.69137e-22
-2.47269e-22
5.39527e-22
-3.74206e-22
8.48394e-22
-4.70039e-22
1.05716e-21
1.02479e-21
-4.8117e-22
-1.75942e-28
1.28472e-29
-4.35319e-27
7.27108e-28
-4.42602e-26
1.75389e-26
-2.47883e-25
2.3778e-25
-8.84031e-25
2.09197e-24
-2.12418e-24
1.20247e-23
-3.42825e-24
4.71143e-23
-2.89061e-24
1.3096e-22
1.59054e-24
2.68993e-22
1.17188e-23
4.18887e-22
3.15871e-23
4.92914e-22
4.22876e-22
5.7246e-23
-8.9458e-29
1.01607e-29
-1.40706e-27
2.45746e-28
-8.85059e-27
3.9966e-27
-8.39919e-27
5.24996e-26
6.11505e-26
5.9699e-25
6.78597e-25
4.10441e-24
3.73057e-24
1.81258e-23
1.32326e-23
5.40558e-23
3.37068e-23
1.1411e-22
6.55741e-23
1.75237e-22
9.87636e-23
1.94282e-22
1.47211e-22
1.13806e-22
-2.50533e-29
4.89954e-30
-2.30995e-28
4.84175e-29
-6.09161e-28
5.03104e-28
2.09997e-27
8.46057e-27
5.11918e-26
1.314e-25
4.95999e-25
1.12151e-24
2.73561e-24
5.71784e-24
9.78715e-24
1.85442e-23
2.46295e-23
4.05238e-23
4.58861e-23
6.14071e-23
6.38652e-23
6.40925e-23
4.29222e-23
6.51368e-23
1.20657e-31
5.02676e-31
2.36096e-30
3.77414e-30
4.20792e-29
3.85896e-29
1.01503e-27
9.92133e-28
1.95996e-26
2.15144e-26
1.99522e-25
2.37627e-25
1.1848e-24
1.44066e-24
4.45119e-24
5.17526e-24
1.13672e-23
1.18241e-23
2.06773e-23
1.76884e-23
2.70956e-23
1.73117e-23
2.50922e-23
1.01523e-23
-2.12226e-22
2.23103e-23
-4.33969e-22
3.42448e-23
-7.82849e-22
3.53644e-23
-1.28585e-21
8.6987e-24
-1.65239e-21
-4.15836e-22
-1.66775e-21
-1.01509e-21
-1.35405e-21
-1.47171e-21
-7.9632e-22
-1.73064e-21
-2.69767e-22
-1.52491e-21
-2.59906e-23
-8.5354e-22
-9.62124e-27
-1.81863e-22
-3.51096e-25
-3.68892e-21
4.49001e-22
-5.57855e-21
4.69691e-22
-7.87011e-21
3.05734e-22
-1.02145e-20
-3.47624e-22
-1.18002e-20
-2.26426e-21
-1.19601e-20
-4.98378e-21
-1.01052e-20
-8.07169e-21
-6.63661e-21
-1.01677e-20
-2.82951e-21
-9.91213e-21
-4.6776e-22
-6.56621e-21
-8.28971e-25
-2.01753e-21
-1.44385e-23
-1.18268e-20
1.77259e-21
-1.70786e-20
1.6177e-21
-2.28288e-20
7.05355e-22
-2.79512e-20
-1.95226e-21
-3.13954e-20
-6.89456e-21
-3.22213e-20
-1.35242e-20
-2.89756e-20
-2.18035e-20
-2.12849e-20
-2.90892e-20
-1.09379e-20
-3.13102e-20
-2.66214e-21
-2.40023e-20
-1.77224e-23
-9.68139e-21
-1.97937e-22
-1.75032e-20
3.22999e-21
-2.42198e-20
2.76861e-21
-3.17798e-20
1.01725e-21
-3.99401e-20
-2.85522e-21
-4.82051e-20
-9.76785e-21
-5.3922e-20
-2.13651e-20
-5.36252e-20
-3.82545e-20
-4.43694e-20
-5.68446e-20
-2.67893e-20
-6.85341e-20
-8.68205e-21
-6.01216e-20
-1.64646e-22
-3.01408e-20
-1.37427e-21
-1.8356e-20
4.20419e-21
-2.53509e-20
3.38997e-21
-3.32832e-20
9.11257e-22
-4.29036e-20
-3.14047e-21
-5.42161e-20
-1.07638e-20
-6.55232e-20
-2.57165e-20
-7.2159e-20
-5.17075e-20
-6.72157e-20
-8.6912e-20
-4.68751e-20
-1.18049e-19
-1.91351e-20
-1.17203e-19
-8.23745e-22
-7.0727e-20
-5.91383e-21
-1.0908e-20
3.50094e-21
-1.4948e-20
2.62753e-21
-2.03237e-20
4.24165e-22
-2.8749e-20
-2.04667e-21
-4.13072e-20
-8.01462e-21
-5.73349e-20
-2.36536e-20
-7.18296e-20
-5.77052e-20
-7.59394e-20
-1.12115e-19
-6.07087e-20
-1.71513e-19
-3.04027e-20
-1.89878e-19
-2.46328e-21
-1.34635e-19
-1.7898e-20
-3.4089e-21
1.8929e-21
-4.38195e-21
1.19411e-21
-6.58517e-21
8.57737e-24
-1.12687e-20
-6.63882e-22
-2.02209e-20
-4.23539e-21
-3.41023e-20
-1.89973e-20
-4.94572e-20
-5.9577e-20
-5.96371e-20
-1.32092e-19
-5.4814e-20
-2.21963e-19
-3.39934e-20
-2.66842e-19
-4.64205e-21
-2.16819e-19
-4.1644e-20
-3.85268e-22
7.21516e-22
-2.72398e-22
2.87354e-22
-5.89525e-22
-4.04485e-24
-1.53216e-21
-2.69595e-22
-3.62384e-21
-3.48516e-21
-6.64484e-21
-2.03149e-20
-9.49943e-21
-6.94777e-20
-1.29442e-20
-1.57717e-19
-1.64066e-20
-2.6997e-19
-1.75437e-20
-3.35579e-19
-4.70645e-21
-3.02025e-19
-7.90405e-20
7.19868e-23
2.33937e-22
5.31596e-23
5.06604e-23
2.4118e-23
-7.10039e-24
2.55747e-22
-4.22326e-22
2.06913e-21
-5.34121e-21
9.23825e-21
-2.98945e-20
2.55403e-20
-9.72376e-20
4.63637e-20
-2.09126e-19
5.76409e-20
-3.39767e-19
3.93213e-20
-4.01069e-19
9.30927e-21
-3.6562e-19
-1.20536e-19
9.32638e-23
6.50905e-23
4.59419e-23
8.68029e-24
5.31982e-23
-2.08701e-23
8.83399e-22
-1.06417e-21
7.06586e-21
-1.13088e-20
3.02049e-20
-5.57944e-20
8.03118e-20
-1.61952e-19
1.45683e-19
-3.13641e-19
1.89541e-19
-4.57269e-19
1.59333e-19
-4.74713e-19
7.04568e-20
-3.93615e-19
-1.25724e-19
4.59911e-23
1.54842e-23
2.24268e-23
9.62547e-25
1.49074e-22
-1.02116e-22
2.97315e-21
-3.47224e-21
2.13238e-20
-2.93237e-20
8.31546e-20
-1.22833e-19
2.05427e-19
-3.08766e-19
3.572e-19
-5.26041e-19
4.5501e-19
-6.61333e-19
3.99848e-19
-5.6036e-19
2.06623e-19
-3.51791e-19
-2.52981e-20
1.60596e-23
2.86727e-24
1.39155e-23
-2.81066e-24
6.53086e-22
-5.7144e-22
1.08759e-20
-1.28173e-20
6.63046e-20
-8.50947e-20
2.27513e-19
-2.97174e-19
5.10426e-19
-6.41079e-19
8.32028e-19
-9.56135e-19
1.02066e-18
-1.02379e-18
9.10936e-19
-6.63412e-19
5.088e-19
-1.61652e-19
3.1779e-19
4.91414e-09
-4.91414e-09
-1.41794e-08
1.90935e-08
-6.06001e-08
4.64207e-08
-1.36948e-07
7.63481e-08
-2.42986e-07
1.06038e-07
-3.75519e-07
1.32533e-07
-5.26979e-07
1.5146e-07
-6.85306e-07
1.58327e-07
-8.36994e-07
1.51689e-07
-9.73008e-07
1.36014e-07
-1.09045e-06
1.1744e-07
9.0262e-08
-1.18071e-06
-4.00121e-08
3.50979e-08
-1.43794e-07
1.22876e-07
-3.12885e-07
2.15511e-07
-5.43577e-07
3.07041e-07
-8.2945e-07
3.91911e-07
-1.15587e-06
4.58956e-07
-1.49644e-06
4.92022e-07
-1.81584e-06
4.77735e-07
-2.08057e-06
4.16418e-07
-2.27919e-06
3.34626e-07
-2.42495e-06
2.63206e-07
1.75149e-07
-2.50984e-06
-7.72518e-08
1.1235e-07
-2.68488e-07
3.14112e-07
-5.49784e-07
4.96807e-07
-9.08234e-07
6.6549e-07
-1.32979e-06
8.1347e-07
-1.78862e-06
9.17781e-07
-2.24098e-06
9.44387e-07
-2.62931e-06
8.66058e-07
-2.89633e-06
6.83441e-07
-3.0182e-06
4.56499e-07
-3.09481e-06
3.3981e-07
1.61617e-07
-3.07375e-06
-1.05692e-07
2.18041e-07
-3.52866e-07
5.61287e-07
-7.07103e-07
8.51044e-07
-1.15038e-06
1.10876e-06
-1.66497e-06
1.32806e-06
-2.21812e-06
1.47094e-06
-2.75058e-06
1.47685e-06
-3.1812e-06
1.29668e-06
-3.36565e-06
8.67892e-07
-2.78161e-06
3.60832e-07
-1.17747e-06
2.32386e-08
5.9869e-09
-6.31615e-07
-1.11886e-07
3.29927e-07
-3.73385e-07
8.22785e-07
-7.48863e-07
1.22652e-06
-1.21785e-06
1.57775e-06
-1.7556e-06
1.86581e-06
-2.3059e-06
2.02124e-06
-2.75104e-06
1.92199e-06
-2.10538e-06
1.13801e-06
-5.24201e-07
1.62921e-07
-7.14468e-08
1.14794e-16
-5.9869e-09
8.65116e-17
1.79387e-17
-1.12343e-16
-9.46057e-08
4.24533e-07
-3.23405e-07
1.05158e-06
-6.62609e-07
1.56573e-06
-1.09638e-06
2.01152e-06
-1.60555e-06
2.37499e-06
-2.13326e-06
2.54894e-06
-1.89322e-06
2.02113e-06
-1.62921e-07
2.60146e-07
-2.18402e-16
7.56166e-17
-1.52422e-16
6.72139e-17
-8.97811e-17
3.45048e-17
1.36107e-17
-8.06888e-17
-6.18919e-08
4.86425e-07
-2.1758e-07
1.20727e-06
-4.66971e-07
1.81512e-06
-8.07296e-07
2.35184e-06
-1.23769e-06
2.80537e-06
-1.72072e-06
3.03198e-06
-2.60146e-07
1.34649e-06
-1.08087e-16
1.08514e-16
-1.15365e-16
5.81511e-17
-9.62686e-17
4.81569e-17
-1.00277e-16
3.1616e-17
2.30025e-17
-1.26754e-16
-2.81439e-08
5.14569e-07
-8.16683e-08
1.2608e-06
-1.87957e-07
1.92141e-06
-3.54688e-07
2.51857e-06
-5.89694e-07
3.04038e-06
-7.54186e-07
3.28996e-06
-8.49549e-17
1.38423e-06
-5.91536e-17
8.57455e-17
-6.09174e-17
5.89985e-17
-5.45936e-17
4.22146e-17
-6.20952e-17
3.06357e-17
2.46979e-17
-7.69807e-17
-1.42757e-08
5.28845e-07
4.06141e-08
1.20591e-06
1.05134e-07
1.85689e-06
1.51048e-07
2.47266e-06
1.50194e-07
3.04123e-06
7.78927e-08
3.36226e-06
-4.37777e-19
2.24243e-06
-6.44749e-18
9.15532e-17
-9.67487e-18
5.83373e-17
-5.57375e-18
3.90032e-17
-3.38004e-18
2.32557e-17
1.60484e-17
7.44762e-19
-3.65918e-08
5.65436e-07
1.16442e-07
1.05287e-06
3.53751e-07
1.61958e-06
6.11329e-07
2.21508e-06
8.45796e-07
2.80677e-06
9.98051e-07
3.21001e-06
5.92443e-07
2.987e-06
6.17514e-08
8.22125e-07
3.53904e-17
6.17514e-08
3.01509e-17
4.46542e-17
3.23318e-17
2.06633e-17
1.23796e-17
3.64122e-17
-6.4479e-08
6.29915e-07
1.88876e-07
7.99519e-07
5.70247e-07
1.23821e-06
9.89438e-07
1.79589e-06
1.41284e-06
2.38337e-06
1.76903e-06
2.85382e-06
1.85183e-06
2.90419e-06
9.3395e-07
2.16478e-06
2.77068e-07
1.15702e-06
2.66333e-07
4.40571e-07
4.64635e-07
3.17841e-07
4.15208e-08
7.74228e-07
2.96087e-07
3.33828e-07
5.5626e-07
5.39346e-07
9.48244e-07
8.46222e-07
1.37924e-06
1.36489e-06
1.86573e-06
1.89688e-06
2.32861e-06
2.39093e-06
2.59499e-06
2.63781e-06
2.59655e-06
2.16323e-06
2.32967e-06
1.55468e-06
2.10391e-06
9.97606e-07
2.21645e-06
5.04605e-07
2.59811e-06
-2.2036e-07
-1.23145e-06
5.07432e-08
-1.24055e-06
9.09667e-09
-1.19432e-06
-4.62283e-08
-1.09322e-06
-1.01103e-07
-9.52562e-07
-1.40658e-07
-7.86296e-07
-1.66265e-07
-6.04119e-07
-1.82178e-07
-4.18535e-07
-1.85584e-07
-2.45955e-07
-1.7258e-07
-1.06759e-07
-1.39196e-07
-2.20545e-08
-8.47045e-08
-2.20545e-08
-2.51474e-06
5.56437e-08
-2.43442e-06
-7.12217e-08
-2.28814e-06
-1.9251e-07
-2.07173e-06
-3.17509e-07
-1.807e-06
-4.0539e-07
-1.51285e-06
-4.60415e-07
-1.19483e-06
-5.00194e-07
-8.65029e-07
-5.15388e-07
-5.43136e-07
-4.94473e-07
-2.61008e-07
-4.21324e-07
-6.67399e-08
-2.78972e-07
-8.87944e-08
-2.83386e-06
6.56619e-09
-2.69158e-06
-9.2279e-08
-2.67155e-06
-1.79487e-07
-2.56649e-06
-4.42819e-07
-2.28221e-06
-7.08585e-07
-1.96929e-06
-7.73342e-07
-1.61881e-06
-8.50669e-07
-1.23258e-06
-9.01623e-07
-8.24471e-07
-9.0258e-07
-4.26312e-07
-8.19483e-07
-1.21534e-07
-5.83751e-07
-2.10328e-07
-4.56227e-07
9.80583e-17
-3.77211e-07
-7.1993e-18
-4.96891e-07
-2.67788e-17
-1.19368e-06
-1.7378e-16
-2.18973e-06
-1.74401e-07
-2.42886e-06
-8.26901e-07
-2.08074e-06
-1.19879e-06
-1.65422e-06
-1.32814e-06
-1.17621e-06
-1.38059e-06
-6.51218e-07
-1.34447e-06
-2.00873e-07
-1.0341e-06
-4.11201e-07
-1.18293e-17
3.32422e-18
-1.19955e-17
-7.03153e-18
-1.19343e-17
-2.68416e-17
-1.27003e-16
-5.87106e-17
-1.74401e-07
-1.03597e-16
-2.09268e-06
-1.56314e-07
-2.49783e-06
-1.29078e-06
-2.06199e-06
-1.76398e-06
-1.5569e-06
-1.88568e-06
-9.3055e-07
-1.97083e-06
-3.18475e-07
-1.64617e-06
-7.29676e-07
-1.16538e-16
5.45225e-18
-1.71849e-16
-6.72779e-18
-2.32062e-16
-3.63355e-17
-3.00559e-16
-7.71963e-17
-3.78847e-16
-1.34282e-16
-1.56314e-07
-2.18657e-16
-2.20872e-06
-3.58363e-07
-2.23962e-06
-1.98384e-06
-1.76763e-06
-2.33834e-06
-1.1485e-06
-2.48744e-06
-4.57111e-07
-2.27195e-06
-1.18679e-06
-1.60975e-16
1.46168e-17
-1.90682e-16
-2.41527e-18
-2.22133e-16
-3.2436e-17
-2.6617e-16
-7.36608e-17
-3.33704e-16
-1.28907e-16
-4.16994e-16
-2.11021e-16
-4.47227e-07
-1.79025e-08
-1.68676e-06
-8.83027e-07
-1.50915e-06
-2.59453e-06
-1.09022e-06
-2.92174e-06
-5.06855e-07
-2.90313e-06
-1.69364e-06
-8.86454e-17
1.44499e-17
-9.51814e-17
-3.81213e-18
-1.06223e-16
-2.89686e-17
-1.24186e-16
-6.76455e-17
-1.58572e-16
-1.20613e-16
-2.11892e-16
-2.05735e-16
-1.79025e-08
-3.37725e-16
-5.8577e-07
-4.89566e-08
-8.3558e-07
-1.98344e-06
-7.30585e-07
-3.22983e-06
-4.07851e-07
-3.41463e-06
-2.08172e-06
8.89594e-18
4.68887e-18
1.96765e-17
-1.3703e-17
2.84769e-17
-3.99702e-17
3.47013e-17
-8.16868e-17
2.84092e-17
-1.2793e-16
-5.10599e-19
-1.89717e-16
-5.28258e-17
-3.08529e-16
-3.30731e-08
-1.58835e-08
1.21866e-07
-1.08126e-06
6.16895e-08
-2.99032e-06
-5.52256e-08
-3.29771e-06
-2.03982e-06
7.48344e-17
-4.3869e-17
1.17602e-16
-8.91449e-17
1.57284e-16
-1.24612e-16
2.02106e-16
-1.76199e-16
7.01195e-10
-7.01195e-10
2.77714e-08
2.50236e-08
1.8859e-07
-3.58944e-07
2.86662e-07
-1.28477e-06
7.65168e-07
-1.6553e-06
1.07535e-06
-2.51085e-06
4.83926e-07
-2.70558e-06
-1.5559e-06
8.67813e-07
-4.22451e-07
5.26922e-07
-6.37581e-07
3.13027e-07
-6.9563e-07
3.83256e-07
-6.22795e-07
6.153e-07
-7.23315e-07
1.60309e-06
-8.62098e-07
2.84233e-06
-9.88796e-07
2.83714e-06
-1.86635e-06
2.34363e-06
-2.47489e-06
2.06517e-06
-2.1882e-06
1.45265e-06
-1.77403e-06
-2.16683e-07
3.01449e-06
-8.38835e-07
3.29507e-06
-9.18159e-07
3.46561e-06
-9.26695e-07
3.2285e-06
-1.29273e-06
3.36266e-06
-1.44659e-06
3.49889e-06
-1.68855e-06
4.45708e-06
-1.66339e-06
5.41576e-06
-1.64994e-06
4.87256e-06
-2.10241e-06
3.96015e-06
-1.64922e-06
2.58634e-06
-4.74713e-07
2.36965e-06
3.69408e-06
1.82913e-06
-5.53944e-06
2.16125e-06
1.62567e-06
9.36655e-07
1.12031e-06
1.24308e-07
3.61765e-07
4.5572e-17
1.24308e-07
1.80448e-17
3.12179e-17
1.74577e-17
5.31549e-18
1.94191e-08
2.22216e-17
7.28938e-07
1.05012e-08
2.63059e-06
5.11334e-07
3.17554e-06
1.88217e-06
1.52542e-06
3.43319e-06
6.63725e-06
2.26261e-06
-7.07074e-06
6.01792e-06
2.24501e-06
5.26788e-06
1.83952e-06
4.11815e-06
1.44545e-06
2.58199e-06
1.30672e-06
4.39319e-07
9.09624e-07
1.28217e-08
2.40559e-07
5.71099e-17
1.28217e-08
1.05012e-08
7.50992e-17
2.58278e-07
4.25088e-08
9.09766e-07
1.41709e-07
6.57522e-08
9.08547e-07
7.31515e-06
2.43283e-06
-7.48536e-06
7.00378e-06
2.55637e-06
6.55694e-06
2.28636e-06
5.98982e-06
2.01257e-06
5.41375e-06
1.88279e-06
4.6353e-06
1.60633e-06
2.75976e-06
1.39757e-06
3.26697e-07
1.24901e-06
1.46619e-16
3.26697e-07
1.5533e-16
4.25088e-08
2.17617e-16
1.41709e-07
6.37379e-08
2.01425e-09
7.25667e-06
-7.30116e-06
2.47732e-06
7.17856e-06
2.63447e-06
7.00418e-06
2.46074e-06
6.7094e-06
2.30735e-06
6.2629e-06