/*--------------------------------*- C++ -*----------------------------------*\
| =========                 |                                                 |
| \\      /  F ield         | OpenFOAM: The Open Source CFD Toolbox           |
|  \\    /   O peration     | Version:  v1606+                                |
|   \\  /    A nd           | Web:      www.OpenFOAM.com                      |
|    \\/     M anipulation  |                                                 |
\*---------------------------------------------------------------------------*/
FoamFile
{
    version     2.0;
    format      ascii;
    class       surfaceScalarField;
    location    "5.2";
    object      alphaPhi;
}
// * * * * * * * * * * * * * * * * * * * * * * * * * * * * * * * * * * * * * //

dimensions      [0 3 -1 0 0 0 0];

internalField   nonuniform List<scalar> 
33146
(
4.04690507704e-06
2.21456643599e-06
-6.26147147761e-06
7.83973441848e-06
2.25458640018e-06
-6.04741574189e-06
1.14009586809e-05
2.10822270295e-06
-5.66944684778e-06
1.46922283877e-05
2.02181778949e-06
-5.35095550788e-06
1.76489585693e-05
1.95700507768e-06
-5.30718593587e-06
2.00599363454e-05
1.93701343879e-06
-5.36292951429e-06
2.18510278779e-05
1.8239860306e-06
-4.89669446225e-06
2.29756435563e-05
1.72670940939e-06
-3.93253688129e-06
2.3510423922e-05
1.39376139198e-06
-2.63871722677e-06
2.34637962914e-05
9.78664429239e-07
-1.27123965571e-06
2.29508796436e-05
5.38721440899e-07
6.0259591082e-09
2.19669595311e-05
4.89501499454e-08
1.33781120115e-06
2.05388395837e-05
-4.14747769942e-07
2.61672386011e-06
1.86964185818e-05
-8.46220195232e-07
3.69044660651e-06
1.64637033776e-05
-1.27091273396e-06
4.33131387224e-06
1.38547266656e-05
-1.6121993468e-06
4.54786482761e-06
1.09321048735e-05
-1.91952163917e-06
4.87446140702e-06
7.67130206424e-06
-2.16018862483e-06
5.42099182525e-06
4.03176270131e-06
-2.26705960814e-06
5.90658643431e-06
-2.15075890228e-06
6.18252151157e-06
3.84640398949e-06
4.59628858694e-06
-6.22812615806e-06
7.50481329737e-06
4.56988898909e-06
-5.97367691432e-06
1.10189275708e-05
4.31218855469e-06
-6.08104328147e-06
1.43406926219e-05
4.15444295633e-06
-7.41455629481e-06
1.72848989823e-05
3.99555438518e-06
-9.60925651986e-06
1.96876556011e-05
3.8394680404e-06
-1.09881231474e-05
2.14270018871e-05
3.62123849524e-06
-1.0412215493e-05
2.24755617126e-05
3.44923928267e-06
-8.22001503207e-06
2.29517537713e-05
2.83576880525e-06
-5.39868854727e-06
2.28988104801e-05
2.01407235945e-06
-2.49450628477e-06
2.24147407484e-05
1.02828898949e-06
4.50913267648e-07
2.15740455951e-05
6.05920040725e-09
3.3084643945e-06
2.03405495507e-05
-8.99466290042e-07
6.11154609418e-06
1.86407576728e-05
-1.71314411332e-06
8.42887431701e-06
1.63928036376e-05
-2.53147737562e-06
9.33417706214e-06
1.36858392415e-05
-3.24599850523e-06
8.38653048574e-06
1.0670495812e-05
-3.79460394785e-06
6.59673142976e-06
7.41067110473e-06
-4.1390396528e-06
5.55665753037e-06
3.85383162813e-06
-4.35894005802e-06
5.64878196226e-06
-4.28651098713e-06
5.98955574429e-06
3.66057658105e-06
6.81839233596e-06
-5.882680878e-06
7.25129797516e-06
6.65273225636e-06
-6.09095805984e-06
1.08057892546e-05
6.30526408238e-06
-8.72013921406e-06
1.4285327815e-05
5.82003107542e-06
-1.42148313126e-05
1.73240218771e-05
5.43639344864e-06
-1.96393716089e-05
1.97776225937e-05
5.14281359096e-06
-2.19623091374e-05
2.13822419627e-05
5.06810961178e-06
-2.02169442204e-05
2.22577494894e-05
5.07779022185e-06
-1.56659985588e-05
2.25287725796e-05
4.4976990631e-06
-1.01478337398e-05
2.24540331443e-05
3.24872066124e-06
-4.42773124741e-06
2.20867356835e-05
1.68561531085e-06
1.3892044254e-06
2.14941161835e-05
1.7236508596e-07
7.05260106555e-06
2.05791767195e-05
-1.03291888402e-06
1.26217409448e-05
1.91051955222e-05
-1.99251967298e-06
1.73776884806e-05
1.69071390693e-05
-3.15135442761e-06
1.96510304363e-05
1.39798920652e-05
-4.37395338371e-06
1.81351684159e-05
1.06266989199e-05
-5.43922667317e-06
1.33673001691e-05
7.19270547958e-06
-6.04338555138e-06
8.21831431423e-06
3.71067129178e-06
-6.29552951889e-06
5.79101478756e-06
-6.34941355651e-06
5.77357412477e-06
3.4676570311e-06
8.68292796181e-06
-5.39007324669e-06
7.01287893749e-06
8.41397164439e-06
-7.75819356468e-06
1.07884987001e-05
7.74316476535e-06
-1.54463475426e-05
1.44359871121e-05
6.87741268733e-06
-2.58495699538e-05
1.75983867753e-05
6.18545987682e-06
-3.35830385444e-05
2.00634229075e-05
5.86730139769e-06
-3.57429016031e-05
2.14996111896e-05
6.26490977521e-06
-3.20045319612e-05
2.20365193057e-05
6.90058861187e-06
-2.44824709316e-05
2.20017593777e-05
6.6482724251e-06
-1.57279463382e-05
2.18070956341e-05
5.08326380924e-06
-6.74137799315e-06
2.15032692011e-05
2.98221078185e-06
2.41636415292e-06
2.13967623799e-05
6.21933013933e-07
1.15767035818e-05
2.10215527395e-05
-6.62548200056e-07
2.04352351453e-05
1.98848970254e-05
-1.39186959836e-06
2.8258878389e-05
1.77418008168e-05
-2.61395964999e-06
3.26565954255e-05
1.47034559326e-05
-4.47856548953e-06
3.15548144138e-05
1.10926193198e-05
-6.42929714365e-06
2.48117770448e-05
7.23402798276e-06
-7.60694756628e-06
1.51042070412e-05
3.6094616755e-06
-8.04291409365e-06
7.64293679779e-06
-8.14427430131e-06
5.45665168034e-06
3.1881033998e-06
1.01511640543e-05
-5.35085388157e-06
6.7653058243e-06
9.75600689093e-06
-1.15149086531e-05
1.06462372047e-05
8.69442792735e-06
-2.46799036663e-05
1.43354421206e-05
7.5663207411e-06
-3.88326400133e-05
1.76129487181e-05
6.73652278393e-06
-4.80104717168e-05
2.02403211662e-05
6.5799090853e-06
-4.93713750198e-05
2.13963425142e-05
8.09530585865e-06
-4.33572041479e-05
2.12364655323e-05
1.02240359042e-05
-3.31895512932e-05
2.04909921262e-05
1.04998657477e-05
-2.13938418337e-05
2.0245120389e-05
7.9663772638e-06
-9.18670483916e-06
2.06437020359e-05
4.53872950788e-06
3.23369359422e-06
2.11269254048e-05
1.51680848808e-06
1.55489525592e-05
2.14456671248e-05
1.31921141222e-07
2.75520975434e-05
2.07213803464e-05
-2.70551233168e-07
3.86418746168e-05
1.87918459126e-05
-1.43031551033e-06
4.55381186374e-05
1.5679683589e-05
-3.70384753457e-06
4.54313882811e-05
1.17773599902e-05
-6.58130536618e-06
3.76374495861e-05
7.66535612734e-06
-8.66688679176e-06
2.44202820176e-05
3.68329817727e-06
-9.43753094562e-06
1.16884586239e-05
-9.58392168196e-06
5.76098269719e-06
2.85130201478e-06
1.12634788471e-05
-5.87111747756e-06
6.33578713842e-06
1.07348262859e-05
-1.57957458771e-05
1.01128527254e-05
9.53127025869e-06
-3.3128359836e-05
1.37671843915e-05
8.41350856353e-06
-4.9847021714e-05
1.71162639265e-05
7.62661835862e-06
-5.95532905878e-05
2.0235817252e-05
7.48759128346e-06
-5.97579671268e-05
2.14982291802e-05
1.01142710212e-05
-5.10829398436e-05
2.06531929367e-05
1.39896794994e-05
-3.80772038389e-05
1.88290415822e-05
1.47256133806e-05
-2.36569722541e-05
1.80459032386e-05
1.07039539817e-05
-9.30859389037e-06
1.84143694132e-05
5.52222589244e-06
5.19510107141e-06
1.94084977682e-05
1.38233718347e-06
1.95886293856e-05
2.04443462964e-05
-3.67399029683e-07
3.38129678105e-05
2.07490669366e-05
-5.48571348014e-07
4.6973736133e-05
1.93883038386e-05
-7.83494362121e-07
5.56779245753e-05
1.64077661798e-05
-2.87540145927e-06
5.67717506706e-05
1.23995404639e-05
-6.30118627688e-06
4.84883934599e-05
8.03463394273e-06
-9.16164847326e-06
3.29274290069e-05
3.83565947776e-06
-1.0339552039e-05
1.61716867018e-05
-1.05416473217e-05
6.62625070707e-06
2.51972237128e-06
1.19770059005e-05
-6.04698793001e-06
5.7575041319e-06
1.14811431613e-05
-1.83483597615e-05
9.34818600037e-06
1.05859637704e-05
-3.81338343644e-05
1.28678829428e-05
9.93288396823e-06
-5.63260144917e-05
1.60338413682e-05
9.66072961222e-06
-6.63036641098e-05
1.94017874257e-05
9.6845225484e-06
-6.59955139425e-05
2.07110145304e-05
1.33348100586e-05
-5.55879549738e-05
1.69253671106e-05
2.05810141851e-05
-4.00314595069e-05
1.38253390076e-05
2.0048141921e-05
-2.46300605761e-05
1.33502726539e-05
1.35183371632e-05
-9.92866138066e-06
1.54005710141e-05
6.64564087693e-06
4.05524161263e-06
1.85537784973e-05
2.16567783803e-06
1.81105159477e-05
2.20776184209e-05
-3.10081007954e-07
3.32841486081e-05
2.21046011971e-05
5.34693445832e-08
5.00701392672e-05
2.04006784991e-05
6.80554114363e-07
6.03486116412e-05
1.71324841605e-05
-1.91255098609e-06
6.31525524288e-05
1.29771251379e-05
-5.89313301817e-06
5.48300663675e-05
8.38052239257e-06
-9.23944885641e-06
3.79819754586e-05
4.01769494283e-06
-1.07046011728e-05
1.89578630198e-05
-1.08923828276e-05
7.13497810713e-06
2.17242303101e-06
1.22331310156e-05
-5.50312507467e-06
5.01560469279e-06
1.18600339644e-05
-1.84136239361e-05
8.16594939443e-06
1.14029982657e-05
-3.87511681962e-05
1.12802859551e-05
1.14081173039e-05
-5.73808289687e-05
1.42844685213e-05
1.1494354319e-05
-6.73576055589e-05
1.85895849114e-05
1.12463394627e-05
-6.73720820781e-05
2.17312176066e-05
1.37628782615e-05
-5.52823849978e-05
1.57400234813e-05
1.85228843814e-05
-2.95384702393e-05
1.21142855786e-05
1.72725510215e-05
-1.61979856326e-05
1.21020985447e-05
1.27146880489e-05
-6.79497497032e-06
1.34783192531e-05
8.38383039814e-06
4.26317674437e-06
1.46843339674e-05
5.46705533298e-06
1.7858736097e-05
1.64146069349e-05
3.3597285538e-06
3.19545247954e-05
1.71315773524e-05
1.69719278004e-06
4.91361079637e-05
1.82229329079e-05
5.97696282645e-07
6.03581823367e-05
1.61085271361e-05
-1.66584161829e-06
6.43425276344e-05
1.25469076982e-05
-5.73917547718e-06
5.61919557746e-05
8.26573415203e-06
-9.18909869927e-06
3.89818423564e-05
3.97613953145e-06
-1.06878202513e-05
1.94118252206e-05
-1.08221205028e-05
6.95617394257e-06
1.86735564543e-06
1.20129150119e-05
-4.72136226494e-06
4.2531580824e-06
1.17228302291e-05
-1.74401975963e-05
6.96526843031e-06
1.15290192977e-05
-3.76218633054e-05
9.68812440059e-06
1.20385115455e-05
-5.61445058889e-05
1.24100501419e-05
1.23372071672e-05
-6.6084573975e-05
1.64969225808e-05
1.20528053881e-05
-6.6398430272e-05
1.97905911305e-05
1.35417123325e-05
-5.47851826074e-05
1.313697688e-05
1.59474434544e-05
-2.83587427095e-05
8.98071422045e-06
1.39450927519e-05
-1.51155613077e-05
8.59811163266e-06
1.12204068456e-05
-5.73400899544e-06
1.02162216188e-05
8.91787084779e-06
5.22549508508e-06
1.24475999351e-05
7.59222978051e-06
1.80095946876e-05
1.56950023973e-05
6.18949669866e-06
3.12774344705e-05
1.67872036744e-05
4.24664801174e-06
4.78551783213e-05
1.79243721911e-05
2.05233509048e-06
5.87748899296e-05
1.58672477847e-05
-5.46041992753e-07
6.34124845151e-05
1.24179442135e-05
-4.98387395241e-06
5.54784397883e-05
8.28700968376e-06
-8.6949398231e-06
3.83878580029e-05
4.02151426093e-06
-1.02416966867e-05
1.8958398155e-05
-1.02857713573e-05
6.53546187135e-06
1.55434291461e-06
1.14918873836e-05
-4.10778645518e-06
3.46900604167e-06
1.12176821176e-05
-1.6601096495e-05
5.74092978515e-06
1.11703824315e-05
-3.66970180423e-05
8.17805063047e-06
1.18008743241e-05
-5.4990742845e-05
1.07170456763e-05
1.21444700548e-05
-6.48660557115e-05
1.44330515951e-05
1.15665585888e-05
-6.47348585426e-05
1.73945624963e-05
1.11860829615e-05
-5.23185566137e-05
1.18959152953e-05
9.74534418502e-06
-2.58870428553e-05
7.94021609244e-06
7.85139626121e-06
-1.25499195409e-05
7.59143741541e-06
7.79061731983e-06
-3.83226460044e-06
8.69762494405e-06
8.89687309214e-06
6.29245734296e-06
1.02820659421e-05
1.02520374738e-05
1.81218610573e-05
1.33805570563e-05
9.60293860921e-06
3.08426712084e-05
1.55042041878e-05
7.02639841964e-06
4.65934442024e-05
1.68669388033e-05
4.32224347604e-06
5.77340475749e-05
1.50991572447e-05
1.02738124538e-06
6.26695432063e-05
1.20204747883e-05
-3.89947137813e-06
5.47784338393e-05
8.08856921415e-06
-7.87668052906e-06
3.78646082611e-05
3.98329472169e-06
-9.51211557811e-06
1.85149163229e-05
-9.47490830844e-06
6.22272745728e-06
1.16088837843e-06
1.09280303786e-05
-3.671463697e-06
2.5941318679e-06
1.05497763877e-05
-1.59569118124e-05
4.42100979639e-06
1.03971924326e-05
-3.5837427086e-05
6.49639471476e-06
1.09752283073e-05
-5.40410029579e-05
8.51352654199e-06
1.13459498033e-05
-6.37382370322e-05
1.13557825301e-05
1.06193008588e-05
-6.34001235051e-05
1.30755276834e-05
9.41233039599e-06
-5.165850257e-05
9.50767719e-06
3.43721234588e-06
-2.77117732542e-05
7.49459889934e-06
2.56698241939e-06
-1.5301865214e-05
7.96609049247e-06
5.54415178724e-06
-5.83585947499e-06
8.84806683889e-06
9.62270024659e-06
5.76984348686e-06
9.97649829176e-06
1.25271817768e-05
1.89625527224e-05
1.2230298131e-05
1.27977203103e-05
3.19060444744e-05
1.42363450724e-05
9.5397598171e-06
4.69774144935e-05
1.54695156849e-05
6.60289426984e-06
5.78528703104e-05
1.41043447997e-05
2.44922436988e-06
6.2418511031e-05
1.14426140838e-05
-2.84644986723e-06
5.43928692655e-05
7.88023268964e-06
-7.00553256137e-06
3.74422286326e-05
4.02588458748e-06
-8.64367297853e-06
1.81251344093e-05
-8.38518543071e-06
5.98645545865e-06
7.5241914545e-07
1.04554613061e-05
-3.06892869393e-06
1.64940732465e-06
9.95457329122e-06
-1.45841039116e-05
3.06786024543e-06
9.66582195874e-06
-3.4032386939e-05
4.95452324204e-06
1.00690578209e-05
-5.20780123838e-05
6.79412194804e-06
1.05421343602e-05
-6.19341409692e-05
8.47345151706e-06
1.03114056713e-05
-6.16164212636e-05
9.13896867715e-06
1.02102844595e-05
-5.23781080373e-05
8.07362627051e-06
8.56725614256e-06
-4.11723202573e-05
7.78882771454e-06
8.88852331834e-06
-2.83262889942e-05
7.77975499365e-06
1.05758333193e-05
-1.24938923558e-05
7.92481998963e-06
1.20828923528e-05
4.74166969242e-06
9.26190862351e-06
1.23486723371e-05
2.10065695384e-05
1.11863037066e-05
1.15764884047e-05
3.62801704946e-05
1.28821753923e-05
9.69255225708e-06
4.89806787028e-05
1.37659922282e-05
6.72066413865e-06
5.92750235207e-05
1.28404912016e-05
2.43335932805e-06
6.19829453069e-05
1.06292393772e-05
-2.58531941268e-06
5.32144359373e-05
7.49778899689e-06
-6.40281139943e-06
3.59753976438e-05
3.9098232125e-06
-7.73056516367e-06
1.69855372126e-05
-7.21257465133e-06
5.52843044944e-06
3.78626060866e-07
1.00064105499e-05
-1.77839086532e-06
7.21523328298e-07
9.53958641339e-06
-1.10489522897e-05
1.64150392349e-06
9.28805886274e-06
-2.8664465505e-05
3.23929130559e-06
9.64252075085e-06
-4.59812291667e-05
4.96922243922e-06
1.02992998819e-05
-5.61911215165e-05
6.16436605622e-06
1.06863910591e-05
-5.66973475578e-05
6.90349213552e-06
1.07733250931e-05
-4.85511349777e-05
6.78504673899e-06
1.03401542533e-05
-3.62883240258e-05
6.96600859714e-06
1.06035648325e-05
-2.26285305301e-05
7.40027949781e-06
1.14275555119e-05
-8.11730247105e-06
8.38027840461e-06
1.14250436942e-05
6.74776358401e-06
9.82413862838e-06
1.07709596164e-05
2.11049872625e-05
1.14158222472e-05
9.73432132576e-06
3.51228366702e-05
1.232176186e-05
8.31989803297e-06
4.80018778074e-05
1.25934541125e-05
5.45834921105e-06
5.65265692834e-05
1.16002999045e-05
1.30041391415e-06
5.73293109302e-05
9.60029346332e-06
-2.99630001743e-06
4.76898595434e-05
6.88770019835e-06
-5.97696612215e-06
3.07364314841e-05
3.74494517173e-06
-6.76431459017e-06
1.34559885099e-05
-5.95113743343e-06
4.37485143535e-06
1.92683328398e-07
9.41086998897e-06
-2.41320876249e-07
1.22224951712e-07
9.03204109764e-06
-5.77370790836e-06
5.87870056286e-07
8.86525003028e-06
-1.93625990523e-05
1.84414945933e-06
9.14181120917e-06
-3.44330062348e-05
3.59688765041e-06
9.66703158049e-06
-4.43583480208e-05
5.23779625407e-06
1.00200238492e-05
-4.59912011978e-05
6.17540930643e-06
1.00385552957e-05
-3.955418867e-05
6.2916021958e-06
9.7960340511e-06
-2.85861420637e-05
6.42605751526e-06
9.49851644578e-06
-1.63052753951e-05
6.86357789819e-06
9.16406250339e-06
-3.71171620645e-06
7.60420969122e-06
8.59172384095e-06
8.29325813132e-06
8.49180285956e-06
7.68492299444e-06
2.01372712292e-05
9.61721295139e-06
6.68857701088e-06
3.15974210076e-05
1.05626788799e-05
5.29380290702e-06
4.21270281804e-05
1.06139977703e-05
2.79805360987e-06
4.83890303536e-05
9.74607124094e-06
-5.05944230637e-07
4.66844583944e-05
8.08675716304e-06
-3.53891797244e-06
3.65412383495e-05
5.88630642909e-06
-5.36100457879e-06
2.13507920064e-05
3.36993539144e-06
-5.58685662536e-06
7.89286504558e-06
-4.64773891643e-06
2.75479175145e-06
2.19968066769e-07
8.50388604849e-06
6.34131171324e-07
-4.4826055242e-08
8.1788967298e-06
-1.17341928502e-06
5.26474113142e-08
8.09940602242e-06
-9.0737499322e-06
8.81286715517e-07
8.29276846391e-06
-2.02995939965e-05
2.23611749811e-06
8.6847282083e-06
-2.89583664278e-05
3.66223506752e-06
8.92235462784e-06
-3.16361385096e-05
4.57679534823e-06
8.81627170965e-06
-2.7751791516e-05
5.0689649817e-06
8.39069978659e-06
-1.98859282512e-05
5.47167248662e-06
7.77970259889e-06
-1.09721609256e-05
5.91399099705e-06
7.06199097121e-06
-2.11794110678e-06
6.39878295589e-06
6.16315656743e-06
6.6768304741e-06
7.04783146927e-06
5.09508220204e-06
1.51843716151e-05
7.73653451521e-06
4.07247864823e-06
2.36817653234e-05
8.28406652727e-06
2.70675421233e-06
3.10661776825e-05
8.16339858336e-06
8.01807315998e-07
3.43943021305e-05
7.39950807624e-06
-1.4883567384e-06
3.12222103634e-05
6.11582780122e-06
-3.34214950133e-06
2.21069815096e-05
4.59824377061e-06
-4.31658903689e-06
1.0639911413e-05
2.97040481703e-06
-4.41920272149e-06
2.89143716917e-06
-3.50186267043e-06
1.88184623534e-06
3.19176958519e-07
7.27007939893e-06
9.14700648686e-07
7.44412807864e-08
6.94804894983e-06
1.09884260718e-06
-5.88523335062e-08
6.84962441803e-06
-1.52476951637e-06
3.29240182817e-07
6.95551454194e-06
-7.49239989064e-06
1.22555518116e-06
7.16915225999e-06
-1.35957052805e-05
2.27188386549e-06
7.27315592137e-06
-1.64354626996e-05
3.06080958831e-06
7.07236792112e-06
-1.49353527173e-05
3.4925693323e-06
6.63447634261e-06
-1.053639544e-05
3.76175468281e-06
6.02000945762e-06
-5.42368532003e-06
4.0580129163e-06
5.23978464458e-06
-4.41029460275e-07
4.36448137482e-06
4.46837288214e-06
4.36834855537e-06
4.67729550575e-06
3.61176715608e-06
9.09775271032e-06
5.17286039301e-06
2.61658418431e-06
1.38345016321e-05
5.45228299592e-06
1.44559169362e-06
1.78767437815e-05
5.44171326382e-06
7.10463838295e-08
1.87297904517e-05
4.96315030572e-06
-1.27760303774e-06
1.52811057781e-05
4.22512205811e-06
-2.34358203658e-06
8.73047957331e-06
3.50991438326e-06
-3.01559631876e-06
2.55829587035e-06
2.56300550627e-06
-3.12104032207e-06
6.18067233402e-08
-2.27114101422e-06
1.33228481264e-06
3.096815413e-07
5.74655394582e-06
1.21380108719e-06
1.70105021028e-07
5.41257891969e-06
1.67504672451e-06
8.15590217118e-09
5.233913664e-06
1.45566433484e-06
1.120556068e-07
5.20641958122e-06
-8.30358033889e-08
5.54959311806e-07
5.28729627618e-06
-2.66162070853e-06
1.14018073762e-06
5.31707155869e-06
-4.55085969243e-06
1.63068480758e-06
5.14478233424e-06
-4.55333032679e-06
1.93989534161e-06
4.82104416766e-06
-3.02871395128e-06
2.17296235103e-06
4.37983823588e-06
-1.15718868818e-06
2.32827034365e-06
3.88413449413e-06
6.04462602604e-07
2.53364320874e-06
3.35121052939e-06
2.2844182174e-06
2.76818863203e-06
2.77030394456e-06
3.94756620831e-06
3.02681433776e-06
2.10814067277e-06
5.5594500469e-06
3.22886609281e-06
1.30051049168e-06
6.68860033036e-06
3.22719787854e-06
4.42925161407e-07
6.21339814875e-06
3.07480381516e-06
-4.15724677257e-07
3.85979464401e-06
2.92740208099e-06
-1.15251158916e-06
8.94817665949e-07
2.73114836884e-06
-1.62695316471e-06
-8.33732882749e-07
2.27443362092e-06
-1.75232310078e-06
-9.12036456854e-07
-1.00970150042e-06
1.01299503697e-06
2.26646307477e-07
3.97890850394e-06
1.54099935254e-06
1.30273946926e-07
3.65338208378e-06
1.8555691632e-06
1.38098438568e-08
3.44182853055e-06
1.90837062841e-06
1.88786966053e-08
3.30035779382e-06
1.86808150779e-06
1.84721824893e-07
3.279034069e-06
1.50904528138e-06
5.00389433081e-07
3.2169316959e-06
9.38882995091e-07
8.08086467482e-07
3.10859413373e-06
6.99442444983e-07
1.05866233126e-06
2.92438792013e-06
8.42466904094e-07
1.26518725581e-06
2.7068642386e-06
1.03363733739e-06
1.41583116921e-06
2.47575180283e-06
1.19608649858e-06
1.58668720712e-06
2.19464502979e-06
1.29434915397e-06
1.71351576657e-06
2.00380617144e-06
1.32072786461e-06
1.88076762702e-06
1.69788059509e-06
1.29428438434e-06
2.02968531321e-06
1.31869994418e-06
1.08740513832e-06
2.12899845921e-06
9.10943400278e-07
4.29313247364e-07
2.19331300252e-06
4.61151294294e-07
-5.54000532782e-07
2.2864312495e-06
4.71757360363e-08
-1.25551228642e-06
2.3335834214e-06
-2.61498415014e-07
-1.41260755112e-06
1.94641523117e-06
-3.48457977689e-07
-1.01669725563e-06
-3.26851448652e-09
9.39958997273e-07
1.45343525518e-07
2.04758163491e-06
1.78598361219e-06
6.37050416292e-08
1.77033456684e-06
1.96468627197e-06
-2.97787902593e-08
1.59239547118e-06
1.94291710026e-06
-4.46640787012e-09
1.40800629918e-06
1.86696219809e-06
1.03579653189e-07
1.37642058755e-06
1.79457395584e-06
3.38211436656e-07
1.26335768943e-06
1.71894158812e-06
6.10424194332e-07
1.19288177007e-06
1.64349966153e-06
8.83232325144e-07
1.13434037423e-06
1.51720445124e-06
1.13800469606e-06
1.02579190839e-06
1.42636281401e-06
1.3639126384e-06
9.74110677108e-07
1.27548630491e-06
1.51683765616e-06
9.97932714547e-07
1.04376679607e-06
1.65754832901e-06
1.03958180362e-06
8.23301902644e-07
1.78883728703e-06
1.05989426359e-06
5.07247031638e-07
1.90944092845e-06
1.06847888652e-06
1.29452874198e-07
2.0226779946e-06
1.05563007157e-06
-2.58179847409e-07
2.11676157027e-06
9.99749731253e-07
-6.32698232953e-07
2.18910949771e-06
8.82344345026e-07
-9.07497063863e-07
2.20356549741e-06
6.80960260501e-07
-9.56916116957e-07
1.79238377304e-06
5.01943452993e-07
-4.392197768e-07
4.82156506027e-07
1.30697300092e-06
1.4434741202e-07
1.90323435315e-06
1.08851806513e-07
1.80583233206e-06
2.68955148894e-08
1.67435098577e-06
-1.06551139336e-08
1.44562490606e-06
1.00655093322e-07
1.2650992346e-06
3.44428973991e-07
1.01958388197e-06
6.84838146372e-07
8.52387603648e-07
1.11837395982e-06
7.01038926781e-07
1.52095722639e-06
6.22922027184e-07
1.90494236216e-06
5.90023720555e-07
2.23278113617e-06
6.69841747459e-07
2.49316517974e-06
7.79649932813e-07
2.6954344406e-06
8.57903099946e-07
2.82731572673e-06
9.36940994466e-07
2.91681518322e-06
9.65663182469e-07
2.95841789967e-06
9.57874129495e-07
2.87197160683e-06
9.6883085067e-07
2.56673665014e-06
9.86193737833e-07
1.7881821804e-06
1.28049775209e-06
2.27033967491e-06
4.03615170567e-06
2.30473355086e-06
-1.26023570004e-05
7.89933470313e-06
2.39320391952e-06
-1.23038033039e-05
1.15543378692e-05
2.37681265215e-06
-1.17012625585e-05
1.49520846954e-05
2.31446868549e-06
-1.11263531665e-05
1.78742524877e-05
2.36521965836e-06
-1.0815562074e-05
2.01833157193e-05
2.29704608284e-06
-1.04177360926e-05
2.19063578462e-05
2.04097517789e-06
-9.24352263676e-06
2.30095532588e-05
1.73858081331e-06
-7.34036900864e-06
2.35327569085e-05
1.38194143114e-06
-5.0108386459e-06
2.35349309522e-05
9.15569701228e-07
-2.55687832907e-06
2.30338472837e-05
3.71577035756e-07
-1.33285666799e-07
2.20553129721e-05
-1.33593394192e-07
2.28020221451e-06
2.06351036757e-05
-6.13728134374e-07
4.58000623047e-06
1.8811539202e-05
-1.0885179903e-06
6.60212930002e-06
1.66022996448e-05
-1.49703520997e-06
8.0851681039e-06
1.39747678846e-05
-1.73357532321e-06
8.97487758198e-06
1.09698701348e-05
-1.91275202856e-06
9.83648051749e-06
7.63360751934e-06
-2.16553701067e-06
1.09227913739e-05
4.00782063729e-06
-2.31595312522e-06
1.18483254156e-05
-2.26009736043e-06
1.24504388938e-05
3.80495445362e-06
4.78701939942e-06
-1.25153904229e-05
7.64426124994e-06
4.80569067387e-06
-1.2225453778e-05
1.13343402096e-05
4.75480699632e-06
-1.23242800525e-05
1.46285631282e-05
4.62429444564e-06
-1.3648313472e-05
1.75098503825e-05
4.29105252993e-06
-1.56193567968e-05
1.97936287135e-05
3.87712005926e-06
-1.65095126407e-05
2.14250399062e-05
3.26571779611e-06
-1.51397167627e-05
2.24219588908e-05
2.66596131908e-06
-1.19024488693e-05
2.28551223871e-05
2.00256555851e-06
-7.89589721273e-06
2.2805377098e-05
1.08106363151e-06
-3.73894267192e-06
2.23461586923e-05
2.09821465342e-08
4.46760452247e-07
2.14737901217e-05
-9.97377623499e-07
4.54537457829e-06
2.02241452181e-05
-1.94057609806e-06
8.50352099148e-06
1.85210398399e-05
-2.86125412454e-06
1.18996105876e-05
1.63165790798e-05
-3.63431264983e-06
1.3713900942e-05
1.36671637999e-05
-4.02650643357e-06
1.33952800383e-05
1.06876633167e-05
-4.17122264064e-06
1.19391569122e-05
7.35120617871e-06
-4.27904360164e-06
1.1078395264e-05
3.77851543508e-06
-4.4825267789e-06
1.1388023173e-05
-4.47313436054e-06
1.19811077712e-05
3.71308385109e-06
7.09748734747e-06
-1.19062436479e-05
7.54315522523e-06
7.01491517099e-06
-1.23322837229e-05
1.1277346181e-05
6.81157161125e-06
-1.52960318324e-05
1.48470044762e-05
6.31862895379e-06
-2.1074284833e-05
1.79896392641e-05
5.59099507498e-06
-2.63442152031e-05
2.04265977268e-05
4.8113081663e-06
-2.803414613e-05
2.19397750828e-05
3.93000588937e-06
-2.53053419053e-05
2.2741112681e-05
3.13843182149e-06
-1.9632182222e-05
2.29624391935e-05
2.23230666639e-06
-1.27577760459e-05
2.28075443756e-05
8.32582963913e-07
-5.64972380373e-06
2.23841066353e-05
-7.90352322647e-07
1.53211182194e-06
2.16812794645e-05
-2.41105105965e-06
8.61075940528e-06
2.06757627957e-05
-3.78701394238e-06
1.5448842896e-05
1.90936540389e-05
-5.06449921028e-06
2.14147864074e-05
1.67864841517e-05
-6.13830820401e-06
2.47345644701e-05
1.38517597063e-05
-6.60530805268e-06
2.39371958576e-05
1.05212297667e-05
-6.67372657216e-06
1.94656591416e-05
7.06474903667e-06
-6.55126803498e-06
1.41451396437e-05
3.53361955113e-06
-6.52007661247e-06
1.14583308962e-05
-6.59182962972e-06
1.14258894071e-05
3.67927262615e-06
9.07867194194e-06
-1.11456136725e-05
7.60586593241e-06
8.84393758081e-06
-1.41285823005e-05
1.17487489922e-05
8.26274743019e-06
-2.25389630898e-05
1.57675800158e-05
7.42031601956e-06
-3.32743929735e-05
1.92236830457e-05
6.44022263559e-06
-4.07551203917e-05
2.18628051871e-05
5.41292672567e-06
-4.22026037003e-05
2.32940689519e-05
4.42838750508e-06
-3.73387570286e-05
2.38628699828e-05
3.59235948283e-06
-2.8617948434e-05
2.37925767282e-05
2.50399195335e-06
-1.83474251389e-05
2.34946924513e-05
3.87835073423e-07
-7.72217151077e-06
2.30565646548e-05
-1.85347237539e-06
2.88884596192e-06
2.26080915512e-05
-4.22628945706e-06
1.35063037033e-05
2.1871122674e-05
-5.9672246206e-06
2.3712963687e-05
2.04074554662e-05
-7.45816624903e-06
3.2801978514e-05
1.79696493572e-05
-8.70462292529e-06
3.83083394344e-05
1.46868718572e-05
-9.179109299e-06
3.80371255105e-05
1.09196308092e-05
-9.14368339427e-06
3.1639395966e-05
7.05868556472e-06
-8.77857428289e-06
2.16495545241e-05
3.42789646627e-06
-8.47372735291e-06
1.34838235286e-05
-8.42905954219e-06
1.07980522919e-05
3.5944814813e-06
1.05642255687e-05
-1.07704202986e-05
7.80601178439e-06
1.01089368312e-05
-1.80057706009e-05
1.23515499922e-05
9.24357445652e-06
-3.2136743647e-05
1.67466926277e-05
8.20740883016e-06
-4.65850754884e-05
2.05088271107e-05
7.20965513857e-06
-5.54871269663e-05
2.34943476269e-05
6.08598459631e-06
-5.61577428305e-05
2.47227804572e-05
5.56653132564e-06
-4.89342183834e-05
2.48087804669e-05
4.96490727572e-06
-3.75196040495e-05
2.4325386937e-05
3.49347301796e-06
-2.40378026377e-05
2.39835658736e-05
2.7541507398e-07
-1.01367006698e-05
2.38915782551e-05
-3.13346447067e-06
3.9350696532e-06
2.37909300474e-05
-6.0986710731e-06
1.75850116311e-05
2.35392854214e-05
-8.38969822947e-06
3.10228874054e-05
2.21785164373e-05
-9.74428781763e-06
4.34160624802e-05
1.96141528846e-05
-1.09779996879e-05
5.1434347225e-05
1.59543626272e-05
-1.14094039217e-05
5.23351572407e-05
1.17356833211e-05
-1.12560032699e-05
4.49352214055e-05
7.41798196245e-06
-1.06964074309e-05
3.14786090878e-05
3.44728587271e-06
-1.01235356826e-05
1.77909006359e-05
-9.90286958268e-06
1.09019574558e-05
3.58920286294e-06
1.15672060798e-05
-1.09541014342e-05
7.91573510934e-06
1.0972840866e-05
-2.22480338055e-05
1.2684722954e-05
9.94694283697e-06
-4.06246118632e-05
1.73519741925e-05
8.89183899154e-06
-5.76584900894e-05
2.15334703597e-05
7.9376876356e-06
-6.70789541699e-05
2.50336942073e-05
6.74704613978e-06
-6.64468394858e-05
2.64939747593e-05
6.69504561206e-06
-5.59825283557e-05
2.57868076615e-05
7.47504267803e-06
-4.17733259756e-05
2.4414062707e-05
5.90484031416e-06
-2.60252207346e-05
2.37834773928e-05
9.65573595555e-07
-1.01342695892e-05
2.37785359682e-05
-4.14042828884e-06
6.00447014289e-06
2.3977472785e-05
-8.07084597777e-06
2.17227799443e-05
2.4007752192e-05
-1.07193247614e-05
3.70368170934e-05
2.32618008525e-05
-1.22608422813e-05
5.15119435323e-05
2.10375185145e-05
-1.31322314089e-05
6.14104034756e-05
1.72141667665e-05
-1.32001491674e-05
6.37747741752e-05
1.26056487915e-05
-1.28284019426e-05
5.60274742524e-05
7.88315801227e-06
-1.20736808465e-05
4.02257944169e-05
3.56323788165e-06
-1.12955192002e-05
2.24654347662e-05
-1.08953266247e-05
1.15390452672e-05
3.38795459668e-06
1.21372079131e-05
-1.05010251588e-05
7.64388842602e-06
1.14878844938e-05
-2.43871377857e-05
1.23452734646e-05
1.05260928616e-05
-4.52843243264e-05
1.69113814096e-05
9.81331024378e-06
-6.39516386614e-05
2.07695508656e-05
9.33151705459e-06
-7.36911097264e-05
2.40846560904e-05
8.11671417816e-06
-7.24794278794e-05
2.56186777498e-05
7.78109427366e-06
-5.94337408848e-05
2.36184666007e-05
1.15046617197e-05
-4.27824795137e-05
2.15419332521e-05
8.39736727901e-06
-2.55035692612e-05
2.14238071294e-05
7.64290979044e-07
-9.80269948593e-06
2.20749367183e-05
-5.8893205076e-06
5.22360706788e-06
2.39245558354e-05
-1.24491114838e-05
2.09738511551e-05
2.60545743382e-05
-1.53576252087e-05
3.63912199397e-05
2.54346719625e-05
-1.3860025027e-05
5.33340210785e-05
2.27470222231e-05
-1.35874751925e-05
6.49846323351e-05
1.83872864608e-05
-1.37091919276e-05
6.97670082563e-05
1.33105332154e-05
-1.33839498568e-05
6.22082444981e-05
8.26025584381e-06
-1.2626696411e-05
4.51405874458e-05
3.7060650627e-06
-1.18079180506e-05
2.51010493076e-05
-1.12966531373e-05
1.16783154626e-05
3.05387211947e-06
1.22673702671e-05
-9.16317695884e-06
6.9646883315e-06
1.16903663762e-05
-2.37443331935e-05
1.13324963234e-05
1.08421099593e-05
-4.51810203354e-05
1.56874102999e-05
1.04531127152e-05
-6.43234281819e-05
1.95631895953e-05
1.02949115605e-05
-7.40932484372e-05
2.31738545718e-05
9.07912314944e-06
-7.34329114287e-05
2.66782003132e-05
7.00804955784e-06
-5.88140741763e-05
2.0515509493e-05
8.20714127688e-06
-2.0360600121e-05
1.76117964862e-05
5.07502870661e-06
-1.01395232356e-05
1.7280530702e-05
-6.40527462225e-07
-5.11172719132e-06