/*--------------------------------*- C++ -*----------------------------------*\
| =========                 |                                                 |
| \\      /  F ield         | OpenFOAM: The Open Source CFD Toolbox           |
|  \\    /   O peration     | Version:  v1606+                                |
|   \\  /    A nd           | Web:      www.OpenFOAM.com                      |
|    \\/     M anipulation  |                                                 |
\*---------------------------------------------------------------------------*/
FoamFile
{
    version     2.0;
    format      ascii;
    class       volScalarField;
    location    "1.8";
    object      alphat.air;
}
// * * * * * * * * * * * * * * * * * * * * * * * * * * * * * * * * * * * * * //

dimensions      [1 -1 -1 0 0 0 0];

internalField   nonuniform List<scalar> 
6000
(
0.00037709
0.00342707
0.0054644
0.00592933
0.00603902
0.0060926
0.00612316
0.00616664
0.00623557
0.00629886
0.00633808
0.00637127
0.00639421
0.00641753
0.00645344
0.00645882
0.00643737
0.00636742
0.00628494
0.00623627
0.00620784
0.00618655
0.00616825
0.00614598
0.00611034
0.00604634
0.00588104
0.00542033
0.00342504
0.00037517
0.000279212
0.0019689
0.00378964
0.00486209
0.00538685
0.00564069
0.00578233
0.00587417
0.00594172
0.00603023
0.00620091
0.0062606
0.00626173
0.00629503
0.00633241
0.00634795
0.00628916
0.00622094
0.00619431
0.00617152
0.00613576
0.00608541
0.00601805
0.00591748
0.00575579
0.00548515
0.00494813
0.00386965
0.00203334
0.000282415
0.000233659
0.00164511
0.00326809
0.00439111
0.00506987
0.00548052
0.00576298
0.00595093
0.00605487
0.0061196
0.00623586
0.00637813
0.00645387
0.00653244
0.00659873
0.00659709
0.00656642
0.00657204
0.00658486
0.00656015
0.00650679
0.00642559
0.00629696
0.00609163
0.0057804
0.0053201
0.00458823
0.00340848
0.00173273
0.000240467
0.000211407
0.00149406
0.0029076
0.00404133
0.00485754
0.00544911
0.00590828
0.00624793
0.0064366
0.00650638
0.00657478
0.00671853
0.00688028
0.00700295
0.00708601
0.00706941
0.00706815
0.00713824
0.00722114
0.00727624
0.00728659
0.00723432
0.00702908
0.00666448
0.00612721
0.00543983
0.00454518
0.00329345
0.00167575
0.000214838
0.000192304
0.0013764
0.00272037
0.00388158
0.00481825
0.00557807
0.00619584
0.00665637
0.00697406
0.00715623
0.00722919
0.00728299
0.00740396
0.00752893
0.00761923
0.00763777
0.00770488
0.00784867
0.00799939
0.00815036
0.00824854
0.00817353
0.0078624
0.00738293
0.00673964
0.00590443
0.00485611
0.00351699
0.00179638
0.000214621
0.00018162
0.00138518
0.00280087
0.00401253
0.00501518
0.00585763
0.00651842
0.00701282
0.00742994
0.00776029
0.00793949
0.00796148
0.00799826
0.00809911
0.00818651
0.00827234
0.00840248
0.00858484
0.00880444
0.00903676
0.00905316
0.0088017
0.00838218
0.00782539
0.00714152
0.00629357
0.00523215
0.00387121
0.00205601
0.000226392
0.000184089
0.00151899
0.00301872
0.00426938
0.0052856
0.00611297
0.00677479
0.00731087
0.00775822
0.008148
0.00843754
0.00859801
0.00861031
0.0086849
0.00877957
0.00889385
0.0090455
0.0092402
0.00949619
0.0096796
0.00948194
0.00911752
0.00863545
0.00804232
0.00731898
0.00643192
0.00535881
0.00401448
0.00218054
0.000237732
0.000193441
0.00168249
0.00319737
0.00443545
0.00545728
0.00629575
0.00698313
0.0075555
0.00803502
0.00843803
0.0087663
0.0090231
0.00912794
0.00918911
0.00930262
0.00942653
0.00958427
0.00976574
0.0100254
0.0100088
0.00974104
0.00934301
0.00883928
0.00822724
0.00745825
0.00650642
0.00536807
0.00400238
0.00218958
0.000242884
0.000193207
0.00170535
0.00327745
0.00456118
0.00560806
0.00647518
0.00719214
0.00779213
0.00829471
0.00871522
0.00905639
0.00932516
0.0095368
0.00960772
0.00972959
0.00986614
0.0100182
0.0101791
0.0103558
0.0102228
0.00996705
0.00957476
0.00908748
0.00846173
0.00765532
0.00664366
0.00539591
0.00391671
0.00211327
0.000242397
0.000188708
0.00170139
0.00335092
0.00470109
0.00581069
0.00670341
0.00743625
0.00804511
0.00855513
0.00898078
0.00932924
0.00960983
0.00984614
0.00997002
0.0100889
0.0102268
0.0103539
0.0104838
0.010564
0.0104218
0.0101789
0.00981483
0.00936168
0.00874239
0.00793069
0.00688557
0.00554409
0.00388159
0.00195719
0.000236131
0.000184225
0.00175581
0.0035194
0.00497203
0.00612571
0.00702696
0.0077421
0.00833433
0.008831
0.00924598
0.00958877
0.00987433
0.010112
0.0102813
0.01041
0.0105292
0.010613
0.0107153
0.0107336
0.0105949
0.0103647
0.0100426
0.0096276
0.00903396
0.00823312
0.0071803
0.00579656
0.00400072
0.00184032
0.000221436
0.000187606
0.00192817
0.00386501
0.0053606
0.00651919
0.00741919
0.00811932
0.0086844
0.00914839
0.00953361
0.00985988
0.0101384
0.0103832
0.010584
0.0107224
0.0108173
0.0108522
0.0109125
0.010893
0.0107555
0.0105435
0.0102584
0.00988312
0.00932453
0.00855035
0.0075049
0.00611076
0.0042729
0.00187878
0.000215681
0.000205171
0.00221598
0.00421699
0.00575969
0.00695338
0.0078774
0.00858568
0.00913149
0.00956223
0.00990874
0.0102002
0.0104594
0.0107085
0.0109298
0.0110692
0.0111314
0.0111314
0.0111185
0.0110731
0.0109514
0.0107565
0.0104988
0.0101621
0.00964858
0.00889976
0.00785843
0.00644885
0.00456326
0.00202609
0.000221278
0.000232873
0.00226011
0.00444534
0.00615432
0.00743459
0.00839452
0.0091309
0.00968279
0.0101031
0.0104319
0.0106863
0.0109116
0.0111448
0.0113586
0.0114819
0.0114937
0.0114501
0.0113835
0.0113271
0.0112218
0.0110473
0.0108095
0.0104995
0.0100456
0.00930606
0.00822865
0.00675885
0.00478986
0.00222576
0.000241815
0.000233032
0.00215729
0.00458824
0.00649674
0.00790162
0.00894435
0.00974198
0.0103321
0.0107638
0.011087
0.0113262
0.0115253
0.0117176
0.0118913
0.0119756
0.0119225
0.011823
0.0117412
0.0116911
0.0115904
0.011435
0.0112161
0.0109153
0.0104817
0.00972431
0.00860856
0.00704704
0.00493751
0.0023208
0.000257324
0.000229464
0.00215602
0.00467089
0.0066676
0.00817264
0.00932907
0.0102305
0.0109224
0.0114218
0.0117731
0.0120336
0.0122321
0.0123819
0.0125037
0.0125502
0.0124471
0.0122985
0.0122106
0.0121665
0.0120549
0.011892
0.0116672
0.0113352
0.0108375
0.0100262
0.00883835
0.00720905
0.00503798
0.00237418
0.000259804
0.000230678
0.00222759
0.00477703
0.00677755
0.00832437
0.00955082
0.0105336
0.0113112
0.0119092
0.0123562
0.0126918
0.0129304
0.0130781
0.013167
0.0131818
0.013078
0.0128773
0.0127704
0.0127161
0.0125844
0.0123805
0.0120929
0.0116771
0.0110643
0.0101649
0.00892577
0.00729782
0.00511625
0.0024136
0.000263596
0.000236577
0.002315
0.00485035
0.00687297
0.00847373
0.00976269
0.010804
0.0116381
0.0123103
0.0128526
0.0132812
0.0135941
0.0137893
0.0138759
0.0138523
0.0137651
0.0136092
0.013462
0.0133128
0.0131644
0.0129037
0.0125119
0.0119781
0.0112553
0.0102792
0.00900587
0.00736171
0.0052047
0.00254379
0.000273984
0.000243941
0.00234843
0.00487089
0.00695489
0.00863683
0.0100052
0.0111178
0.0120197
0.0127539
0.0133663
0.0138724
0.0142614
0.014524
0.0146399
0.0146272
0.0145206
0.0144284
0.0142509
0.0140065
0.0138055
0.0134943
0.0130035
0.0123461
0.0115214
0.0104748
0.00914658
0.0074655
0.00533816
0.00272632
0.000289715
0.000249691
0.00235436
0.00487836
0.00704633
0.00882457
0.0102874
0.0114926
0.0124768
0.013281
0.0139595
0.0145331
0.0149894
0.0153089
0.0154572
0.0154874
0.0154454
0.0153926
0.0151971
0.0148748
0.014523
0.014178
0.0136145
0.0128579
0.0119283
0.0107909
0.00939049
0.00766198
0.00553329
0.00288277
0.000304312
0.000256637
0.00238021
0.00493002
0.00718057
0.00905591
0.0106204
0.0119321
0.0130142
0.0139055
0.0146544
0.0152939
0.0158155
0.0161893
0.0163787
0.0164499
0.0165639
0.0165794
0.0163598
0.0159384
0.0154458
0.0149475
0.0143391
0.0135319
0.0125087
0.0112604
0.00976016
0.00796464
0.00579144
0.00304417
0.000316319
0.000269362
0.00249472
0.00509286
0.00740873
0.00936963
0.0110309
0.0124486
0.0136362
0.0146223
0.0154475
0.0161564
0.0167527
0.0172072
0.0174926
0.0176445
0.0178903
0.0180059
0.017761
0.017187
0.0165349
0.0158804
0.0152064
0.0143535
0.0132531
0.0118891
0.0102604
0.00834454
0.00606552
0.00318292
0.00032714
0.000289208
0.00271706
0.00541384
0.00777704
0.00980348
0.0115464
0.013058
0.0143433
0.0154207
0.0163293
0.0171096
0.017789
0.0183547
0.0187905
0.0190949
0.0193628
0.0194011
0.0190732
0.0184691
0.0177247
0.0169808
0.0162185
0.0153
0.0141237
0.01265
0.0108727
0.00877564
0.0063146
0.00327022
0.000336752
0.000311021
0.00299698
0.00586829
0.00828838
0.0103658
0.0121716
0.0137564
0.0151225
0.0162848
0.0172765
0.0181309
0.01889
0.0195678
0.0201624
0.0206082
0.020734
0.0204938
0.0200389
0.0195026
0.0188551
0.0181316
0.0173341
0.0163446
0.0150825
0.013498
0.0115633
0.00924408
0.0065445
0.00330393
0.000346588
0.000329792
0.00327122
0.00635402
0.00888183
0.0110198
0.0128769
0.0145164
0.0159473
0.0171818
0.0182436
0.019171
0.0199999
0.0207627
0.0214724
0.0218887
0.021789
0.0213688
0.0208552
0.0203367
0.01986
0.0192646
0.0185187
0.0174726
0.0161125
0.0144022
0.0123045
0.00975487
0.00680863
0.00337353
0.000356974
0.000345647
0.00345688
0.00676071
0.00945578
0.011695
0.0136118
0.0153023
0.0167896
0.0180801
0.0191925
0.020162
0.0210238
0.0218006
0.0224264
0.0226187
0.0224238
0.0220519
0.0215924
0.0211239
0.0207601
0.0203215
0.0197048
0.0187035
0.0172279
0.01535
0.0130738
0.0103085
0.00712627
0.00349241
0.000368551
0.000360056
0.00356427
0.00707139
0.00995086
0.0123231
0.014333
0.0160925
0.0176398
0.0189767
0.0201135
0.02107
0.0218721
0.0225075
0.0228999
0.0228706
0.0226973
0.0224757
0.0221679
0.0218074
0.0214616
0.0211177
0.0206432
0.0198013
0.0183467
0.0163316
0.0138478
0.0108849
0.00748517
0.0036386
0.000378548
0.000373446
0.00360421
0.00730815
0.0103691
0.0128886
0.0150207
0.0168795
0.0185032
0.0198968
0.0210511
0.0219377
0.0226051
0.0230306
0.0232176
0.0231256
0.0229931
0.0228396
0.0226075
0.0222884
0.0219242
0.021566
0.0211008
0.0203942
0.0191758
0.0172109
0.0145798
0.0114308
0.00783189
0.00375818
0.000384169
0.000393052
0.00363322
0.00749963
0.0107293
0.0133926
0.0156634
0.0176469
0.0193894
0.0209062
0.0220936
0.0228628
0.0233989
0.023645
0.0236234
0.0234892
0.0233424
0.0231815
0.0229484
0.0226299
0.0222522
0.0218273
0.0212805
0.0206041
0.0195611
0.0177721
0.0151632
0.0118715
0.00809762
0.00382416
0.000381054
0.000419029
0.00379472
0.00770369
0.0110358
0.0138182
0.0162354
0.018372
0.0202937
0.0219309
0.0230733
0.023719
0.0241616
0.0243223
0.0241584
0.0239532
0.0237733
0.0235695
0.0233011
0.0229638
0.0225527
0.0220476
0.0214442
0.0207273
0.0197148
0.0180606
0.0155234
0.0121532
0.00824733
0.00386445
0.000380835
0.00043028
0.00403542
0.00799671
0.0113576
0.0141885
0.0167243
0.019013
0.021073
0.0226757
0.0236482
0.0242451
0.0246349
0.0247698
0.0246578
0.0244493
0.0242288
0.0239782
0.0236609
0.0232724
0.0228015
0.0222304
0.0215861
0.0208299
0.0197999
0.0181852
0.0156995
0.0123115
0.00836089
0.0039957
0.00039158
0.000442869
0.00414912
0.00826907
0.0117133
0.0145967
0.01716
0.0195392
0.0216185
0.023112
0.0239277
0.0244824
0.0248588
0.0250156
0.0249757
0.0248203
0.0245982
0.02431
0.0239448
0.0234987
0.0229767
0.0223832
0.0217088
0.0209123
0.0198545
0.0182314
0.0157812
0.0124578
0.00851678
0.00409059
0.000400615
0.000469027
0.00431801
0.00858181
0.0121299
0.0150832
0.0176416
0.0200045
0.022016
0.0233799
0.0241237
0.0246485
0.0250179
0.0251885
0.0251841
0.0250585
0.0248324
0.0245186
0.0241197
0.0236451
0.0231054
0.0224959
0.0217951
0.0209627
0.0198833
0.0182576
0.0158137
0.0125634
0.00866998
0.0041908
0.000404627
0.000485218
0.00466303
0.00907682
0.0126558
0.0156272
0.0181681
0.0204248
0.022314
0.0235828
0.0243009
0.0248033
0.0251591
0.0253348
0.0253467
0.0252256
0.0249924
0.024658
0.0242379
0.0237454
0.0231869
0.0225543
0.0218253
0.0209606
0.019859
0.0182397
0.0158083
0.0126043
0.00874792
0.00426309
0.000405966
0.000489975
0.00491931
0.00953343
0.0132143
0.0161829
0.0186664
0.0207958
0.0225762
0.0238002
0.0244883
0.0249559
0.0252789
0.0254398
0.0254613
0.025344
0.0251105
0.0247641
0.0243268
0.0238141
0.0232283
0.0225633
0.0218005
0.0209033
0.0197711
0.0181467
0.0157373
0.0125797
0.00876094
0.00428934
0.000405071
0.00049693
0.00501064
0.00979191
0.0136286
0.0166598
0.0191072
0.0211335
0.022851
0.0240448
0.0246988
0.0251137
0.0253862
0.0255213
0.0255406
0.0254371
0.0251994
0.0248484
0.0244021
0.0238664
0.0232472
0.0225422
0.0217369
0.0207982
0.0196233
0.0179762
0.0155943
0.0124895
0.00871048
0.00427043
0.000401978
0.000500526
0.00507175
0.00994974
0.0138911
0.0170042
0.0194739
0.0214579
0.0231477
0.0243232
0.024942
0.0252916
0.0255084
0.0256147
0.0256297
0.0255372
0.0253103
0.0249521
0.0244816
0.0239172
0.0232623
0.0225116
0.021654
0.0206565
0.0194206
0.0177354
0.0153861
0.0123456
0.00861697
0.00422896
0.000396711
0.000495597
0.0051401
0.010085
0.0140865
0.0172529
0.0197659
0.021776
0.0234756
0.0246555
0.0252255
0.0255085
0.0256787
0.0257632
0.0257736
0.0256815
0.0254512
0.0250778
0.0245777
0.0239722
0.0232671
0.0224626
0.0215426
0.0204697
0.0191572
0.0174363
0.015136
0.0121713
0.00850041
0.00417158
0.000390443
0.000501128
0.00519208
0.0101933
0.0142521
0.0174632
0.0200151
0.0220796
0.023819
0.0250204
0.0255449
0.0257766
0.025922
0.0259981
0.0260016
0.0259006
0.0256476
0.0252265
0.0246659
0.0240011
0.0232401
0.0223713
0.021381
0.0202285
0.0188424
0.0171024
0.0148676
0.0119912
0.00837504
0.00410616
0.000383714
0.000510634
0.00518398
0.0102524
0.014398
0.0176646
0.0202563
0.0223745
0.0241432
0.0253612
0.0258795
0.0260928
0.0262476
0.0263281
0.0263166
0.0261884
0.0258929
0.025405
0.0247558
0.0240016
0.0231647
0.0222273
0.0211612
0.0199361
0.0184985
0.0167586
0.0145809
0.0117912
0.00825238
0.00404123
0.000377131
0.000517886
0.0052032
0.0103179
0.014551
0.017877
0.0204984
0.0226515
0.0244324
0.0256622
0.026208
0.0264374
0.0266449
0.0267409
0.0266998
0.0265185
0.0261565
0.0255804
0.0248243
0.0239554
0.0230252
0.0220159
0.0208878
0.0196104
0.0181445
0.0164114
0.0142731
0.0115621
0.00812123
0.00398037
0.000370816
0.000525221
0.00524618
0.0104457
0.0147605
0.018138
0.020746
0.0228814
0.0246713
0.0259303
0.0265121
0.0267837
0.0270707
0.0271907
0.0271005
0.0268287
0.026365
0.0256846
0.0248161
0.0238283
0.022801
0.0217354
0.020574
0.0192732
0.0177888
0.0160565
0.0139563
0.0113219
0.00797874
0.00391813
0.000363902
0.000533977
0.0053425
0.0106683
0.0150526
0.0184305
0.0210201
0.0231303
0.0248955
0.0261571
0.0267758
0.0270952
0.0274392
0.0275776
0.0274252
0.0270398
0.0264481
0.0256535
0.0246839
0.023605
0.0225059
0.0214028
0.0202317
0.0189378
0.0174566
0.015718
0.0136385
0.0110798
0.00783002
0.00384988
0.000357551
0.000541974
0.00545048
0.0109365
0.0153522
0.018723
0.0213236
0.0234266
0.0251427
0.026374
0.026987
0.0273332
0.0276684
0.0277997
0.0275965
0.0271074
0.0263883
0.025474
0.0244142
0.0232971
0.0221846
0.0210652
0.0198898
0.018615
0.0171599
0.0154285
0.0133601
0.010867
0.00770626
0.00378453
0.000352593
0.000545165
0.0055382
0.0111794
0.01564
0.0190308
0.0216612
0.023721
0.0253483
0.0265357
0.0271512
0.0274808
0.0277408
0.0278311
0.0276008
0.0270426
0.0261959
0.0251582
0.024085
0.0230021
0.0218931
0.0207484
0.0195726
0.0183384
0.0169204
0.0152035
0.0131486
0.0106846
0.00760026
0.0037622
0.000349924
0.000551723
0.0055239
0.0113223
0.0159232
0.0193541
0.0219356
0.0238821
0.0254219
0.026588
0.0272229
0.0275274
0.0276894
0.0277174
0.0274606
0.0268368
0.0259253
0.0248751
0.0237913
0.0226886
0.0215921
0.0204812
0.0193326
0.0181104
0.0167031
0.015016
0.0129848
0.0105292
0.00749172
0.00373199
0.000348692
0.000563026
0.00547622
0.0114274
0.0161869
0.0195652
0.0220091
0.0238607
0.0253529
0.0264991
0.0271478
0.0274406
0.027541
0.0275183
0.0272155
0.0265387
0.0256122
0.0245928
0.0235411
0.0224604
0.0213558
0.0202439
0.0191149
0.0178888
0.0164861
0.0148222
0.012815
0.0103678
0.00735134
0.00364192
0.000349528
0.000568658
0.00553575
0.0115283
0.016327
0.0195826
0.0219037
0.0237056
0.025157
0.0262658
0.0269222
0.0272139
0.0272745
0.0271571
0.0268053
0.0261374
0.0252509
0.0242948
0.0233109
0.0222787
0.021201
0.0200889
0.0189285
0.0176772
0.0162611
0.0146079
0.0126285
0.0102032
0.00720009
0.00353245
0.000348121
0.000569529
0.00560174
0.0114902
0.01621
0.0194236
0.0216949
0.0234492
0.0248437
0.0258846
0.02651
0.0267991
0.0268264
0.0266707
0.0263066
0.0256809
0.0248704
0.0239827
0.0230731
0.0221159
0.0210812
0.0199806
0.0188133
0.0175321
0.0160777
0.0143964
0.0124187
0.010024
0.00705827
0.00344572
0.000346106
0.000566625
0.00556375
0.0111926
0.0157855
0.0190981
0.0213999
0.023093
0.0244063
0.0253605
0.0259347
0.0261931
0.0262351
0.0260917
0.0257411
0.0251742
0.024452
0.0236478
0.0228097
0.0219227
0.0209589
0.019898
0.0187382
0.0174605
0.01599
0.0142632
0.0122368
0.00983436
0.00694187
0.00344763
0.00034423
0.000565041
0.00541374
0.0107686
0.0151714
0.0185502
0.0209429
0.0226251
0.0238497
0.0247132
0.0252498
0.0255167
0.0255859
0.0254571
0.0251306
0.0246173
0.0239779
0.0232617
0.0224989
0.0216895
0.0208001
0.0198017
0.0186916
0.017442
0.0159852
0.0142493
0.0121705
0.00969384
0.00680427
0.00342722
0.000338742
0.000555119
0.00527478
0.0104207
0.0146308
0.017881
0.0203183
0.0220437
0.0232143
0.0239928
0.0245023
0.0247863
0.0248875
0.0247821
0.0244837
0.0240227
0.0234567
0.0228215
0.0221329
0.0213962
0.0205812
0.0196793
0.0186576
0.0174679
0.0160404
0.0143228
0.0122351
0.0096951
0.00670881
0.00333482
0.000332247
0.000530143
0.0052971
0.010274
0.0142429
0.0173234
0.0196868
0.0213877
0.0225389
0.0232608
0.0237512
0.0240534
0.0241584
0.0240792
0.0238086
0.0233973
0.0228946
0.0223275
0.0217077
0.0210504
0.0203216
0.0195334
0.0186302
0.0175115
0.016131
0.0144491
0.0123754
0.0098041
0.00669895
0.00325476
0.0003292
0.000505067
0.00527102
0.0101409
0.0139237
0.0168461
0.0190966
0.0207699
0.0218546
0.0225421
0.0230162
0.0233133
0.023417
0.0233467
0.0231059
0.0227421
0.022295
0.0217871
0.0212358
0.020665
0.0200463
0.0193559
0.0185537
0.0175566
0.0162702
0.0146394
0.0125723
0.00995699
0.00675317
0.00324368
0.000333402
0.000489485
0.00510251
0.00989874
0.0136103
0.0164375
0.0186185
0.0202003
0.0211685
0.0218357
0.0222835
0.0225543
0.0226476
0.0225844
0.0223761
0.0220602
0.021667
0.0212194
0.0207398
0.0202474
0.0197173
0.0191207
0.0184193
0.0176366
0.0165266
0.0149598
0.0128507
0.0101557
0.00687313
0.00331749
0.000342149
0.000474044
0.00489984
0.00965132
0.0133388
0.0160505
0.0180981
0.0195756
0.0204835
0.0211239
0.0215434
0.0217827
0.0218651
0.02181
0.0216342
0.0213663
0.0210295
0.0206447
0.0202352
0.0198095
0.0193455
0.0188521
0.0183126
0.0176852
0.0167776
0.0153316
0.0132153
0.0104021
0.00703433
0.0034142
0.000354157
0.000445887
0.00457245
0.00940394
0.0131924
0.0157939
0.0175666
0.0188424
0.0197678
0.0204008
0.0207987
0.0210244
0.0211041
0.0210588
0.0209123
0.0206876
0.0204053
0.0200816
0.0197403
0.0193989
0.0190551
0.0187068
0.0181936
0.0174796
0.0166178
0.0153983
0.0134828
0.0106681
0.00722522
0.00352059
0.000367405
0.000456823
0.00424677
0.00902952
0.0129228
0.0154683
0.0171257
0.0182497
0.0191206
0.0197384
0.0201291
0.0203508
0.020438
0.0204057
0.0202814
0.0200938
0.019868
0.0196213
0.0193764
0.0191499
0.0188689
0.018446
0.0178517
0.01712
0.0162586
0.0151615
0.0134687
0.0108981
0.00748943
0.00371222
0.000372582
0.000467143
0.00424315
0.00874762
0.0124354
0.0148255
0.0163901
0.0175823
0.0185272
0.0192043
0.0196341
0.0198778
0.019978
0.0199578
0.0198523
0.0196995
0.0195255
0.0193417
0.0191368
0.0188747
0.018513
0.0180385
0.0174445
0.0167194
0.0158515
0.0147802
0.0132806
0.0109919
0.00781206
0.00394136
0.000367415
0.000463831
0.00423401
0.00854327
0.0119184
0.0140985
0.0155582
0.0167409
0.017715
0.01846
0.0189676
0.0192876
0.0194397
0.0194618
0.0193966
0.0192794
0.0191275
0.0189424
0.0187148
0.0184315
0.0180719
0.0176108
0.0170259
0.0163007
0.0154254
0.01437
0.013004
0.0109546
0.00790543
0.00385821
0.000365579
0.000457305
0.00419134
0.00834565
0.0114655
0.013444
0.0147843
0.0158903
0.0167963
0.0175106
0.0180304
0.0183911
0.0186002
0.0186855
0.0186903
0.0186386
0.0185409
0.0184
0.0182109
0.017959
0.0176217
0.0171753
0.0165969
0.015868
0.0149848
0.0139409
0.0126609
0.0107527
0.0077755
0.00366417
0.000358804
0.000449634
0.00413502
0.00814099
0.0110279
0.0128277
0.0140599
0.0150764
0.0159004
0.0165557
0.0170577
0.0174412
0.0176986
0.0178577
0.0179428
0.0179674
0.017936
0.0178483
0.0176997
0.0174776
0.0171626
0.0167312
0.0161582
0.0154238
0.0145308
0.0134877
0.0122587
0.0104409
0.00756047
0.00350286
0.000349036
0.000440861
0.00401928
0.00789567
0.0105864
0.012229
0.0133618
0.0142934
0.0150472
0.0156592
0.0161605
0.0165642
0.0168727
0.0170946
0.0172429
0.0173258
0.0173452
0.0173002
0.0171866
0.0169928
0.0166995
0.0162818
0.0157134
0.0149749
0.0140733
0.0130233
0.0118099
0.0100911
0.0073259
0.00343615
0.000343234
0.000427811
0.00392935
0.00765925
0.0101532
0.0116434
0.012685
0.0135412
0.0142419
0.0148356
0.0153471
0.0157848
0.0161378
0.0164042
0.0165948
0.0167183
0.0167759
0.0167657
0.0166824
0.0165134
0.0162385
0.0158321
0.0152687
0.0145308
0.0136278
0.0125786
0.0113731
0.00970906
0.00705995
0.00337452
0.000348305
0.000414942
0.00384267
0.00742353
0.00972464
0.0110722
0.0120324
0.0128276
0.0134959
0.0140923
0.0146318
0.0151068
0.0154925
0.0157866
0.0160023
0.0161528
0.0162381
0.0162548
0.0161953
0.0160457
0.0157847
0.0153872
0.0148297
0.0140983
0.0132029
0.0121684
0.0109909
0.00938846
0.00689383
0.00340794
0.000352564
0.00039664
0.0037679
0.00719728
0.00929948
0.0105161
0.0114108
0.0121653
0.0128261
0.0134458
0.0140235
0.0145314
0.0149306
0.0152387
0.0154667
0.0156337
0.0157378
0.0157732
0.0157306
0.0155942
0.0153424
0.0149513
0.0144008
0.0136806
0.0128006
0.0117928
0.010659
0.00913338
0.00674507
0.00340226
0.000351094
0.000368226
0.00366949
0.00694527
0.0088632
0.00997788
0.0108297
0.0115693
0.0122483
0.0129085
0.0135273
0.0140531
0.0144486
0.0147532
0.0149863
0.0151622
0.0152772
0.015324
0.0152912
0.0151619
0.014915
0.0145282
0.0139853
0.0132798
0.0124213
0.0114479
0.0103614
0.00890451
0.00659285
0.00335968
0.000349166
0.000341549
0.00349965
0.00661402
0.00840911
0.00946557
0.0103046
0.0110568
0.0117763
0.0124854
0.0131378
0.0136602
0.0140322
0.0143268
0.0145592
0.0147376
0.0148568
0.014908
0.0148784
0.0147508
0.0145047
0.0141205
0.0135857
0.012897
0.0120652
0.0111302
0.0100917
0.00869609
0.00645436
0.00331099
0.00034886
0.000322231
0.00332489
0.00623616
0.00795318
0.00899883
0.00985482
0.0106444
0.0114191
0.012172
0.0128369
0.0133302
0.013675
0.0139554
0.0141822
0.0143576
0.014475
0.0145245
0.0144923
0.0143614
0.0141127
0.0137293
0.0132028
0.0125322
0.0117303
0.0108358
0.00984814
0.00851973
0.00635058
0.00324983
0.000348267
0.000305445
0.00317835
0.00589172
0.00753733
0.00859945
0.00949778
0.0103433
0.0111742
0.011959
0.0125963
0.0130468
0.0133685
0.0136337
0.0138513
0.0140191
0.0141295
0.0141718
0.014132
0.0139934
0.0137391
0.0133549
0.0128358
0.0121838
0.0114132
0.0105601
0.00962526
0.00837235
0.00630357
0.00324903
0.000345385
0.000290883
0.00305165
0.0055905
0.00718225
0.00828316
0.00924413
0.0101556
0.0110342
0.011809
0.0123982
0.0128041
0.0131064
0.0133565
0.0135618
0.0137181
0.0138171
0.0138478
0.0137962
0.0136463
0.0133837
0.012997
0.0124836
0.0118494
0.0111083
0.0102953
0.00941169
0.00824375
0.0063034
0.00327683
0.000333302
0.000277634
0.00290784
0.00532494
0.00689334
0.00805938
0.00909972
0.0100737
0.0109624
0.0116964
0.0122307
0.0126009
0.0128844
0.0131184
0.0133089
0.0134504
0.0135347
0.0135504
0.0134837
0.0133197
0.013047
0.0126563
0.0121472
0.0115282
0.010813
0.0100335
0.00919365
0.00809434
0.0062656
0.00326381
0.000314246
0.000264076
0.00274619
0.00509652
0.00668217
0.00793447
0.00905456
0.010064
0.0109273
0.0116054
0.0120938
0.0124352
0.0126981
0.0129141
0.0130875
0.0132121
0.0132792
0.0132776
0.0131937
0.0130149
0.0127312
0.0123361
0.0118307
0.0112252
0.0105325
0.00977887
0.00896827
0.00790168
0.00610156
0.00311638
0.000299435
0.000255896
0.00254335
0.00489618
0.00655477
0.00789993
0.00907837
0.0100864
0.0109043
0.0115355
0.0119873
0.0123014
0.0125416
0.0127379
0.012893
0.0129997
0.0130485
0.0130285
0.012927
0.0127338
0.01244
0.0120416
0.0115413
0.01095
0.0102791
0.00954726
0.00875154
0.00768702
0.00586896
0.00296046
0.000287985
0.000253323
0.00245866
0.00481123
0.00653476
0.0079387
0.00913286
0.0101091
0.0108834
0.0114822
0.0119016
0.0121891
0.012407
0.0125839
0.0127211
0.0128101
0.0128407
0.0128028
0.0126847
0.0124788
0.0121772
0.0117781
0.0112858
0.010711
0.0100641
0.00935536
0.00856723
0.0074772
0.00563018
0.00277976
0.000275712
0.000252805
0.00252989
0.00485621
0.00660942
0.0080207
0.00918477
0.0101165
0.010859
0.0114346
0.011827
0.0120889
0.0122875
0.0124476
0.0125685
0.0126411
0.0126547
0.0126003
0.0124681
0.0122519
0.0119459
0.0115497
0.0110689
0.0105137
0.00989403
0.00921341
0.00843617
0.00732148
0.00544332
0.0026382
0.000273211
0.000250932
0.00257197
0.00493719
0.00671195
0.00810417
0.00922056
0.0101126
0.0108327
0.0113919
0.011759
0.0119971
0.0121796
0.0123264
0.0124332
0.0124911
0.0124896
0.0124208
0.0122773
0.012054
0.0117474
0.0113575
0.0108911
0.0103578
0.00976795
0.00911988
0.00836177
0.00724984
0.00538877
0.00270136
0.000272198
0.000245014
0.0025977
0.00499819
0.00679335
0.00816867
0.00924612
0.0101081
0.0108125
0.0113553
0.0116957
0.0119128
0.0120825
0.0122191
0.0123136
0.0123583
0.0123438
0.0122631
0.0121113
0.0118844
0.0115805
0.0112
0.0107495
0.0102383
0.00967815
0.00906448
0.00833085
0.00722295
0.00535675
0.00270112
0.000272829
0.000239585
0.00257595
0.0049932
0.00683389
0.00822252
0.00927666
0.0101142
0.0108004
0.011321
0.0116356
0.0118362
0.0119956
0.0121233
0.0122067
0.0122392
0.0122138
0.0121243
0.0119675
0.0117402
0.0114421
0.0110729
0.0106385
0.0101479
0.00961513
0.00903537
0.00832707
0.00722548
0.00533761
0.00268401
0.000272621
0.000236534
0.0024864
0.004921
0.00683889
0.00827282
0.00931908
0.010132
0.010791
0.0112836
0.0115755
0.0117653
0.0119165
0.0120345
0.0121068
0.0121283
0.0120944
0.0119995
0.0118412
0.0116169
0.0113272
0.0109707
0.0105517
0.010079
0.00956974
0.00902134
0.00833814
0.00724504
0.00534925
0.00269077
0.000272915
0.000232233
0.00242731
0.00485543
0.00683347
0.00831232
0.00935958
0.0101488
0.0107729
0.0112352
0.011511
0.0116959
0.0118388
0.0119452
0.0120063
0.0120188
0.011979
0.0118824
0.0117263
0.0115085
0.0112295
0.0108869
0.0104825
0.0100246
0.00953338
0.009011
0.00835104
0.00726302
0.0053788
0.00272676
0.000267256
0.000229631
0.0024147
0.00483874
0.00684673
0.00834
0.00938049
0.0101461
0.0107338
0.0111712
0.0114378
0.0116206
0.0117535
0.011847
0.0118978
0.0119036
0.0118612
0.0117665
0.0116163
0.0114081
0.0111421
0.0108146
0.0104242
0.00997874
0.00950016
0.00899571
0.0083488
0.00725399
0.00536677
0.00272671
0.000258966
0.000230357
0.00241551
0.00484708
0.00686576
0.0083513
0.00937371
0.0101108
0.0106635
0.0110836
0.0113476
0.0115283
0.0116506
0.0117327
0.0117755
0.0117779
0.0117361
0.0116465
0.0115051
0.0113089
0.0110577
0.0107462
0.01037
0.00993588
0.00946508
0.00897013
0.00832706
0.00721269
0.00530109
0.00268729
0.000253006
0.000232015
0.00242083
0.00486019
0.00686904
0.00832795
0.00932387
0.010032
0.0105553
0.0109632
0.0112294
0.0114088
0.0115232
0.011598
0.0116372
0.0116393
0.0116009
0.0115184
0.0113873
0.0112044
0.0109688
0.0106736
0.0103122
0.00988921
0.00942293
0.00893105
0.00828857
0.00715954
0.00522608
0.00264702
0.000254068
0.00023307
0.00243338
0.00487722
0.0068546
0.00826537
0.00922486
0.00990335
0.0104063
0.0108064
0.0110764
0.0112577
0.0113696
0.0114426
0.0114831
0.0114879
0.0114544
0.0113794
0.0112585
0.0110885
0.0108678
0.010588
0.0102416
0.00982998
0.0093657
0.00886961
0.00823374
0.00710901
0.00518076
0.00264865
0.000254797
0.000232149
0.0024408
0.00487868
0.00680186
0.00815363
0.00907657
0.00973614
0.0102293
0.0106176
0.0108907
0.0110775
0.0111936
0.0112701
0.0113149
0.0113244
0.0112961
0.0112275
0.011115
0.0109561
0.0107478
0.0104816
0.0101496
0.00975005
0.00928759
0.00878032
0.00814967
0.00705855
0.00515765
0.00262747
0.000255256
0.000230884
0.00243652
0.00485098
0.00670166
0.00799478
0.00888856
0.00954446
0.0100326
0.0104071
0.010684
0.0108777
0.0110022
0.0110843
0.0111347
0.0111492
0.0111252
0.0110609
0.0109542
0.0108034
0.0106042
0.0103489
0.0100296
0.00964311
0.00918396
0.00866178
0.00803301
0.00698861
0.00514962
0.00262419
0.000255274
0.000231289
0.00243064
0.00477912
0.00654432
0.00779261
0.00867763
0.00933723
0.00982543
0.0101907
0.01047
0.0106675
0.0108015
0.0108886
0.0109432
0.0109615
0.0109403
0.0108781
0.0107746
0.0106287
0.0104351
0.0101868
0.00987751
0.00950341
0.00905044
0.0085141
0.0078784
0.00687567
0.0051303
0.00262517
0.000255696
0.00023257
0.00238374
0.0046481
0.00634259
0.0075637
0.00845358
0.00912119
0.00961198
0.00997503
0.0102546
0.0104525
0.0105934
0.0106834
0.0107395
0.0107595
0.0107396
0.0106779
0.0105753
0.0104318
0.0102412
0.00999572
0.00969302
0.00932714
0.00888307
0.00833977
0.00768946
0.00672317
0.00509145
0.00262662
0.000254815
0.000232206
0.00231003
0.00447407
0.00610998
0.00731781
0.00821774
0.0088979
0.00939668
0.00975643
0.01003
0.0102289
0.010375
0.0104663
0.010521
0.0105404
0.0105211
0.0104599
0.0103566
0.010213
0.0100229
0.00977931
0.00947711
0.00911331
0.00867505
0.00813547
0.00747127
0.0065259
0.0050179
0.00261961
0.000253958
0.00022826
0.00221097
0.00426697
0.00585859
0.00706275
0.00797342
0.00866406
0.00916715
0.00952038
0.0097865
0.00999245
0.0101414
0.0102324
0.0102844
0.0103027
0.0102835
0.0102222
0.0101211
0.00997837
0.00978676
0.0095405
0.00923191
0.0088624
0.00842389
0.0078922
0.00721977
0.00629506
0.0048878
0.00260551
0.000254323
0.000218928
0.00209053
0.00406019
0.00562356
0.00682065
0.0077258
0.00841736
0.00892801
0.00927794
0.00952892
0.00973402
0.0098828
0.00997455
0.010027
0.0100458
0.0100287
0.00997043
0.0098735
0.00973124
0.00953699
0.00928184
0.00896022
0.00857325
0.00812233
0.00759188
0.00692466
0.00602681
0.00468551
0.00254233
0.000256278
0.000207401
0.0019945
0.0038998
0.00542359
0.00658777
0.00747007
0.0081547
0.00867591
0.00904713
0.00929293
0.0094578
0.00959053
0.00969137
0.00975104
0.0097743
0.00976049
0.00970737
0.00961445
0.00947477
0.00927905
0.00901487
0.00867697
0.00826534
0.00778469
0.0072297
0.00655581
0.00567661
0.00439027
0.0023994
0.000252962
0.000199649
0.00192704
0.00377485
0.00523629
0.00635334
0.0072147
0.00788097
0.00840483
0.00880097
0.0090753
0.00923211
0.00931952
0.00940187
0.00946778
0.00949289
0.00948468
0.00944005
0.00935381
0.00921724
0.00901989
0.00874913
0.00839899
0.0079678