/*--------------------------------*- C++ -*----------------------------------*\
| =========                 |                                                 |
| \\      /  F ield         | OpenFOAM: The Open Source CFD Toolbox           |
|  \\    /   O peration     | Version:  v1606+                                |
|   \\  /    A nd           | Web:      www.OpenFOAM.com                      |
|    \\/     M anipulation  |                                                 |
\*---------------------------------------------------------------------------*/
FoamFile
{
    version     2.0;
    format      ascii;
    class       surfaceScalarField;
    location    "1.8";
    object      phi.particles;
}
// * * * * * * * * * * * * * * * * * * * * * * * * * * * * * * * * * * * * * //

dimensions      [0 3 -1 0 0 0 0];

internalField   nonuniform List<scalar> 
11770
(
3.10593e-07
-1.5822e-05
-3.37846e-07
-1.96929e-05
-1.68809e-06
-1.95319e-05
-3.17811e-06
-1.80444e-05
-4.54631e-06
-1.45437e-05
-4.99507e-06
-1.21364e-05
-4.07216e-06
-1.15501e-05
-2.73208e-06
-1.24696e-05
-1.91181e-06
-1.36666e-05
-1.66966e-06
-1.40411e-05
-1.90357e-06
-1.51521e-05
-1.6469e-06
-1.62101e-05
-6.23682e-08
-1.75511e-05
1.74634e-06
-2.05068e-05
2.70202e-06
-2.3425e-05
3.13008e-06
-2.37961e-05
3.74569e-06
-2.24527e-05
4.71341e-06
-1.93014e-05
5.71084e-06
-1.5898e-05
6.76634e-06
-1.27518e-05
7.7102e-06
-9.86837e-06
8.48265e-06
-8.28467e-06
8.95133e-06
-6.93041e-06
8.81351e-06
-6.51017e-06
7.84096e-06
-6.59377e-06
5.96147e-06
-8.23759e-06
4.40838e-06
-1.01609e-05
3.60865e-06
-1.2861e-05
2.39178e-06
-1.65415e-05
-1.53459e-05
1.92918e-06
3.033e-06
-1.47702e-07
5.89429e-06
-9.64803e-07
4.73629e-06
-1.37814e-06
4.88485e-06
-2.06869e-06
5.81118e-06
-2.06647e-06
5.46618e-06
-1.01048e-06
4.35917e-06
9.15989e-07
3.95587e-06
2.24588e-06
5.7744e-06
1.0209e-06
9.48215e-06
-1.88081e-06
1.15344e-05
-3.04327e-06
9.10472e-06
-1.5767e-06
3.71996e-06
5.84679e-07
1.70341e-06
2.0877e-06
1.53884e-06
1.86868e-06
3.08712e-06
9.42192e-07
4.36813e-06
1.01839e-06
4.92849e-06
2.64032e-06
5.24382e-06
4.92455e-06
6.15608e-06
6.46038e-06
8.79883e-06
7.29526e-06
1.00058e-05
7.82516e-06
1.08877e-05
8.33064e-06
1.18283e-05
8.15391e-06
1.33369e-05
6.21991e-06
1.52456e-05
2.77894e-06
1.40078e-05
-1.17282e-07
1.27608e-05
-1.98954e-06
1.0777e-05
6.60922e-06
-1.16963e-06
2.78487e-06
-1.33699e-06
6.16109e-06
-9.08533e-07
4.65584e-06
6.32507e-07
3.76961e-06
2.27853e-06
3.60478e-06
2.97787e-06
2.36771e-06
2.41578e-06
-5.01441e-07
1.89784e-06
-2.38458e-06
2.47111e-06
-1.67238e-06
1.75152e-06
2.67264e-06
-6.31634e-07
9.34616e-06
-1.94514e-06
8.07307e-06
-1.57639e-06
1.88281e-06
-6.378e-07
-3.15337e-07
-1.70964e-07
4.93738e-07
-6.48993e-07
3.40207e-06
-1.16917e-06
4.88556e-06
7.20175e-08
2.09147e-06
2.46002e-06
1.00994e-06
3.38742e-06
3.76249e-06
2.59936e-06
5.70516e-06
1.40161e-06
2.57817e-06
6.0077e-07
6.05252e-07
6.50002e-07
1.98e-07
1.60736e-06
2.97104e-06
1.04583e-06
1.09062e-05
-1.21872e-06
1.24674e-05
-1.53185e-06
1.09041e-05
-3.55354e-07
9.47314e-06
7.06397e-06
-2.36148e-08
3.32239e-06
1.49219e-06
5.28411e-06
3.33633e-06
4.27499e-06
5.29254e-06
1.83996e-06
7.6791e-06
-4.91181e-08
1.0255e-05
-3.48439e-06
1.07731e-05
-7.55584e-06
8.62388e-06
-9.43497e-06
6.2949e-06
-8.24652e-06
4.19064e-06
-3.25584e-06
1.19903e-06
8.12678e-06
-1.33515e-06
1.13656e-05
-1.8769e-06
7.72708e-06
-2.0102e-06
5.57124e-06
-1.91526e-06
5.68745e-06
-1.18971e-06
6.98592e-06
-1.50585e-06
7.28486e-06
-1.81703e-06
3.98912e-06
-2.09145e-06
2.94085e-06
-4.30325e-06
4.44068e-06
-8.88671e-06
1.00682e-07
-1.34456e-05
-1.11776e-05
-1.54107e-05
-1.6361e-05
-1.46694e-05
-1.86475e-05
-1.02828e-05
-1.70391e-05
-5.06576e-06
-9.46563e-06
-2.37983e-06
-3.49502e-06
-8.74296e-07
-1.92755e-06
7.35466e-09
-1.45775e-06
-1.73042e-06
1.57177e-06
-2.9205e-06
3.99336e-06
-2.66506e-06
6.56721e-06
-5.19454e-06
9.04155e-06
-9.63947e-06
1.16247e-05
-1.27858e-05
1.41256e-05
-1.66915e-05
1.56122e-05
-1.9139e-05
1.56295e-05
-1.96691e-05
1.33898e-05
-1.82652e-05
9.38156e-06
-1.37412e-05
4.69771e-06
-1.93155e-06
7.0797e-07
8.13663e-06
1.15968e-09
8.85727e-06
1.26556e-06
7.89876e-06
1.46248e-06
8.78943e-06
6.13246e-07
9.08672e-06
5.46164e-08
7.40075e-06
2.56788e-08
4.39637e-06
-1.17954e-06
2.02263e-06
-7.14742e-06
-1.66539e-06
-1.73895e-05
-1.6438e-05
-2.23936e-05
-2.6952e-05
-2.06724e-05
-3.1588e-05
-1.73448e-05
-3.45676e-05
-1.31963e-05
-3.52671e-05
-6.95248e-06
-3.20595e-05
-1.0522e-06
-2.62655e-05
1.23428e-06
-2.15612e-05
9.40476e-07
-2.05781e-05
-2.02072e-05
1.78867e-06
-1.18982e-05
3.56196e-06
-1.30121e-05
5.3758e-06
-1.57506e-05
7.32928e-06
-1.86997e-05
9.37987e-06
-2.11886e-05
1.15396e-05
-2.36632e-05
1.42696e-05
-2.42552e-05
1.70951e-05
-2.40292e-05
1.82203e-05
-2.26038e-05
1.62927e-05
-1.91295e-05
1.15647e-05
-1.22645e-05
4.38863e-06
8.00056e-07
8.61491e-07
7.92877e-06
1.94075e-06
8.39789e-06
2.64489e-06
9.79137e-06
3.12526e-06
9.85816e-06
3.61609e-06
7.4593e-06
3.48581e-06
4.04748e-06
-8.54804e-07
-1.34598e-07
-1.52078e-05
-1.18063e-05
-2.52701e-05
-2.46085e-05
-2.40445e-05
-2.80824e-05
-2.05441e-05
-3.17333e-05
-1.63908e-05
-3.54601e-05
-1.22756e-05
-3.80201e-05
-7.90159e-06
-3.82178e-05
-3.07077e-06
-3.62211e-05
8.31033e-07
-2.9318e-05
1.48385e-06
-2.77252e-05
-2.79543e-05
6.64955e-07
-1.62817e-05
1.75109e-06
-1.71532e-05
3.25462e-06
-1.83277e-05
5.25325e-06
-2.02075e-05
7.46919e-06
-2.24391e-05
9.73703e-06
-2.31756e-05
1.26247e-05
-2.28224e-05
1.60113e-05
-2.24065e-05
1.8736e-05
-2.07796e-05
1.94848e-05
-1.81202e-05
1.81826e-05
-1.43856e-05
9.29978e-06
-5.05801e-06
2.26875e-06
5.27482e-06
3.37514e-06
7.62516e-06
4.82259e-06
8.73701e-06
6.1274e-06
9.20924e-06
7.5055e-06
6.93145e-06
6.869e-06
3.09411e-06
-9.3276e-06
-4.69608e-06
-2.46139e-05
-1.52909e-05
-2.33792e-05
-2.0108e-05
-2.08523e-05
-2.12396e-05
-1.80305e-05
-2.52451e-05
-1.44175e-05
-2.99867e-05
-1.12002e-05
-3.31343e-05
-7.80397e-06
-3.42354e-05
-4.76645e-06
-3.35889e-05
-1.29182e-06
-2.62235e-05
9.7406e-07
-2.10384e-05
-2.20761e-05
9.32034e-07
-1.22837e-05
1.5567e-06
-1.15743e-05
2.21865e-06
-1.32266e-05
3.30848e-06
-1.59712e-05
4.47276e-06
-1.80841e-05
6.20103e-06
-1.82385e-05
8.38951e-06
-1.80945e-05
1.18161e-05
-1.82085e-05
1.54076e-05
-1.67865e-05
1.78966e-05
-1.42203e-05
2.08676e-05
-1.10097e-05
1.61994e-05
-6.49176e-06
6.72701e-06
1.81856e-06
5.0748e-06
6.32889e-06
7.08207e-06
7.69042e-06
8.98229e-06
7.96503e-06
1.10516e-05
6.15436e-06
3.04229e-07
2.55986e-06
-1.83856e-05
-5.60199e-06
-2.33326e-05
-9.65188e-06
-2.06686e-05
-1.31426e-05
-1.78776e-05
-1.52696e-05
-1.47546e-05
-1.95012e-05
-1.1047e-05
-2.42139e-05
-8.20456e-06
-2.67339e-05
-6.17869e-06
-2.73642e-05
-4.97873e-06
-2.66564e-05
-3.39552e-06
-2.0623e-05
-1.14301e-06
-1.19188e-05
-1.18641e-05
1.55781e-06
-4.6137e-06
1.49935e-06
-1.84267e-06
1.61712e-06
-6.55971e-06
1.16561e-06
-9.08069e-06
8.0804e-07
-1.06967e-05
2.38314e-06
-1.1877e-05
5.17043e-06
-1.30879e-05
9.27684e-06
-1.43152e-05
1.32081e-05
-1.31128e-05
1.60947e-05
-1.04315e-05
1.98036e-05
-6.99449e-06
2.21789e-05
-4.11594e-06
1.53301e-05
1.39532e-06
8.44064e-06
5.88072e-06
8.87646e-06
7.60011e-06
1.123e-05
7.29613e-06
1.26084e-05
6.36076e-06
-2.98486e-06
3.70805e-06
-1.94696e-05
-7.87875e-07
-1.96278e-05
-3.4238e-06
-1.67113e-05
-6.13135e-06
-1.37273e-05
-9.36145e-06
-1.03719e-05
-1.36871e-05
-6.5464e-06
-1.90328e-05
-4.37994e-06
-2.14627e-05
-3.83197e-06
-2.1143e-05
-4.33088e-06
-1.92525e-05
-5.36361e-06
-1.43989e-05
-3.37594e-06
-4.53557e-06
-2.55508e-06
1.6658e-06
2.11972e-06
9.32351e-07
5.91925e-06
-7.06514e-07
1.81081e-07
-1.8835e-06
-1.55468e-06
-2.68981e-06
-3.25603e-06
-2.04109e-06
-5.34868e-06
2.58971e-07
-7.57434e-06
4.0682e-06
-9.87868e-06
9.38481e-06
-9.8283e-06
1.36426e-05
-6.11655e-06
1.68588e-05
-2.40835e-06
2.11512e-05
7.05926e-07
1.86261e-05
4.18799e-06
1.16602e-05
7.32326e-06
9.93414e-06
8.42908e-06
1.22683e-05
8.03478e-06
1.23201e-05
7.90244e-06
-3.60083e-06
6.92486e-06
-1.69101e-05
4.25163e-06
-1.47068e-05
2.68105e-06
-1.12151e-05
1.07518e-06
-8.24783e-06
-2.36563e-06
-5.49953e-06
-6.77452e-06
-2.44931e-06
-1.43146e-05
-2.29937e-07
-1.71989e-05
2.11235e-07
-1.55986e-05
-7.2247e-07
-1.28306e-05
-3.96631e-06
-8.43547e-06
-4.36539e-06
1.29529e-06
4.35364e-06
2.51231e-08
3.63396e-06
-1.61269e-06
7.46551e-06
-3.90633e-06
4.28109e-06
-5.42931e-06
2.6509e-06
-6.08234e-06
9.25816e-07
-5.82366e-06
-8.77166e-07
-4.38162e-06
-2.89975e-06
-9.78893e-07
-5.84076e-06
4.81748e-06
-7.81893e-06
9.49312e-06
-1.95662e-06
1.30244e-05
2.50442e-06
1.85958e-05
4.95083e-06
1.91886e-05
7.08987e-06
1.42353e-05
9.72196e-06
1.19531e-05
1.01412e-05
1.28354e-05
1.00619e-05
8.28299e-06
1.02484e-05
-6.7942e-06
1.13114e-05
-1.22975e-05
8.28829e-06
-6.64166e-06
7.4166e-06
-3.71237e-06
7.51046e-06
-1.84647e-06
4.41652e-06
3.86021e-07
-5.52657e-07
2.8942e-06
-1.08471e-05
4.06769e-06
-1.39305e-05
3.23842e-06
-1.22151e-05
1.70945e-06
-9.26851e-06
-8.73714e-07
-4.33755e-06
-2.78534e-06
4.467e-06
6.05386e-06
-2.59063e-06
-6.0723e-06
-4.70049e-06
1.19373e-06
-6.09661e-06
3.12163e-06
-6.87442e-06
2.75643e-06
-7.19174e-06
1.4271e-06
-7.19704e-06
2.52178e-07
-6.58065e-06
-1.10211e-06
-4.08192e-06
-3.59882e-06
2.83639e-07
-6.24373e-06
5.1133e-06
-7.0874e-07
9.94686e-06
5.28862e-06
1.66429e-05
7.31802e-06
1.95531e-05
9.21469e-06
1.63282e-05
1.19452e-05
1.44058e-05
1.21026e-05
1.36193e-05
1.28402e-05
1.88156e-06
1.40476e-05
-1.01674e-05
1.59712e-05
-7.90936e-06
1.14413e-05
-2.20255e-06
1.05316e-05
3.18114e-06
1.16916e-05
5.19427e-06
1.02993e-05
5.69578e-06
5.06212e-06
6.38146e-06
-9.27294e-06
6.0218e-06
-1.24142e-05
4.71925e-06
-1.12492e-05
1.90855e-06
-8.2034e-06
-2.60251e-06
-5.24167e-06
-3.75207e-06
-2.7528e-06
-3.45946e-06
-2.90464e-06
-2.48284e-05
-5.32862e-06
-1.78725e-05
-6.76026e-06
-1.04916e-05
-6.97739e-06
-6.31706e-06
-6.5349e-06
-3.48811e-06
-6.18121e-06
-1.94321e-06
-5.80973e-06
-1.65044e-06
-4.48907e-06
-3.38099e-06
-2.00666e-06
-6.06454e-06
2.84889e-06
-3.09222e-06
8.33146e-06
4.81103e-06
1.5134e-05
8.18365e-06
1.94742e-05
1.0222e-05
1.74967e-05
1.33838e-05
1.61285e-05
1.38741e-05
1.28307e-05
1.62697e-05
-1.88953e-06
2.02519e-05
-1.18811e-05
1.97784e-05
-7.79187e-06
1.48727e-05
-1.69368e-06
1.36233e-05
5.12301e-06
1.37527e-05
8.82874e-06
1.39074e-05
9.34934e-06
8.42702e-06
8.56559e-06
-1.04678e-05
7.08698e-06
-1.28617e-05
5.54023e-06
-1.28146e-05
1.43857e-06
-1.33407e-05
-4.34441e-06
-1.69209e-05
-3.63999e-06
-1.74298e-05
-1.82815e-05
6.70983e-07
-3.60915e-05
1.38521e-07
-3.40283e-05
-1.82979e-06
-3.00563e-05
-2.26707e-06
-2.62929e-05
-2.35652e-06
-2.01219e-05
-2.83513e-06
-1.45543e-05
-2.95032e-06
-1.06396e-05
-2.16127e-06
-8.56188e-06
-8.13906e-07
-9.37276e-06
2.3289e-06
-7.77404e-06
7.60299e-06
8.79323e-07
1.39e-05
5.90362e-06
1.8842e-05
8.97507e-06
1.86918e-05
1.27741e-05
1.68665e-05
1.5334e-05
1.06869e-05
2.07983e-05
-4.03428e-06
2.79298e-05
-1.27426e-05
2.38786e-05
-9.77337e-06
1.91681e-05
-3.76046e-06
1.67854e-05
3.23392e-06
1.44266e-05
8.48563e-06
1.42304e-05
8.22882e-06
7.13703e-06
5.85139e-06
-1.35667e-05
4.09445e-06
-1.74787e-05
3.17812e-07
-2.18209e-05
-4.92769e-06
-2.42926e-05
-6.19822e-06
-2.77877e-05
-1.93255e-06
-2.60837e-05
-2.64972e-05
1.30655e-06
-3.57064e-05
3.15233e-06
-3.39541e-05
4.23303e-06
-3.6002e-05
5.41687e-06
-3.78064e-05
5.83704e-06
-3.58963e-05
5.66306e-06
-3.19218e-05
5.46052e-06
-2.76146e-05
4.70076e-06
-2.2632e-05
4.27369e-06
-1.97359e-05
5.46827e-06
-1.50559e-05
9.42862e-06
-5.7855e-06
1.41826e-05
4.20924e-07
1.88337e-05
5.61961e-06
2.04642e-05
1.04545e-05
1.79981e-05
1.60845e-05
9.80543e-06
2.51981e-05
-6.09045e-06
3.57917e-05
-1.48388e-05
3.01628e-05
-1.18604e-05
2.26688e-05
-7.48708e-06
1.85755e-05
-1.8557e-06
1.43102e-05
4.63968e-06
1.17652e-05
4.87847e-06
2.90142e-06
5.78145e-08
-1.5034e-05
-6.35869e-06
-2.42582e-05
-9.57129e-06
-2.91411e-05
-8.46628e-06
-2.86069e-05
-6.00366e-06
-2.79313e-05
-1.22566e-06
-2.64114e-05
-2.69795e-05
1.0245e-06
-3.29871e-05
2.86639e-06
-3.05267e-05
4.46811e-06
-3.31267e-05
7.09056e-06
-3.60863e-05
9.90464e-06
-3.72023e-05
1.20283e-05
-3.64904e-05
1.4346e-05
-3.45806e-05
1.49207e-05
-3.15812e-05
1.26248e-05
-2.77374e-05
1.15139e-05
-2.05736e-05
1.36061e-05
-1.15197e-05
1.70335e-05
-4.72769e-06
2.00946e-05
1.83372e-06
2.18159e-05
8.24984e-06
2.05163e-05
1.54891e-05
1.29178e-05
2.83915e-05
-4.73017e-06
4.54636e-05
-1.60787e-05
4.18356e-05
-1.40338e-05
2.64807e-05
-1.18175e-05
1.88694e-05
-8.61046e-06
1.39003e-05
-3.59063e-06
8.73593e-06
-3.29153e-06
-1.07838e-06
-7.20138e-06
-1.39584e-05
-1.15369e-05
-2.27299e-05
-1.13159e-05
-2.58902e-05
-8.10979e-06
-2.55173e-05
-5.3812e-06
-2.45404e-05
-5.25886e-07
-2.3936e-05
-2.33349e-05
1.09962e-06
-3.03515e-05
3.59586e-06
-2.72896e-05
5.15395e-06
-2.98178e-05
7.65689e-06
-3.2645e-05
1.05901e-05
-3.37964e-05
1.32236e-05
-3.35e-05
1.69109e-05
-3.17139e-05
2.01835e-05
-2.99067e-05
1.98955e-05
-2.70212e-05
1.88688e-05
-2.05922e-05
1.98103e-05
-1.31623e-05
2.18583e-05
-6.85546e-06
2.32195e-05
-4.64907e-07
2.42679e-05
7.15779e-06
2.31733e-05
1.48694e-05
1.46916e-05
3.62325e-05
8.73105e-07
5.04807e-05
-1.06847e-05
5.01357e-05
-1.55318e-05
3.80891e-05
-1.681e-05
1.9765e-05
-1.62733e-05
1.35456e-05
-1.36666e-05
7.09001e-06
-1.18421e-05
-2.49947e-06
-1.03935e-05
-1.12025e-05
-1.10869e-05
-1.55766e-05
-1.11106e-05
-2.01249e-05
-7.61029e-06
-2.1413e-05
-4.36359e-06
-2.03429e-05
1.1317e-07
-2.02462e-05
-1.81136e-05
7.30789e-07
-2.71843e-05
3.68325e-06
-2.3873e-05
5.8029e-06
-2.66581e-05
8.37888e-06
-2.95631e-05
1.10744e-05
-3.08271e-05
1.40484e-05
-3.07345e-05
1.75713e-05
-2.88743e-05
2.15909e-05
-2.67279e-05
2.34133e-05
-2.41782e-05
2.37271e-05
-1.80682e-05
2.49427e-05
-1.1487e-05
2.65762e-05
-5.98106e-06
2.71724e-05
-3.78675e-07
2.79773e-05
7.26586e-06
1.79265e-05
1.70285e-05
3.90305e-06
4.63986e-05
8.32804e-07
5.13566e-05
-1.51324e-06
5.17321e-05
-1.22074e-05
4.88768e-05
-2.20274e-05
2.9024e-05
-2.3259e-05
1.37343e-05
-2.21559e-05
6.96513e-06
-1.88885e-05
-1.71583e-06
-1.41571e-05
-7.95604e-06
-1.14087e-05
-1.06287e-05
-1.09348e-05
-1.36607e-05
-7.45078e-06
-1.63824e-05
-2.74084e-06
-1.56954e-05
9.43007e-07
-1.50875e-05
-1.19828e-05
8.09378e-07
-2.38119e-05
5.02896e-06
-2.11889e-05
7.63042e-06
-2.38999e-05
1.00514e-05
-2.67452e-05
1.24052e-05
-2.81912e-05
1.52392e-05
-2.8074e-05
1.83473e-05
-2.65025e-05
2.26101e-05
-2.36867e-05
2.56893e-05
-2.12941e-05
2.65981e-05
-1.5296e-05
2.81451e-05
-8.72564e-06
2.98618e-05
-3.54166e-06
3.07582e-05
1.6167e-06
3.08213e-05
8.59994e-06
1.86061e-05
2.55632e-05
3.37394e-06
5.0433e-05
-5.88551e-07
5.24121e-05
-4.50848e-06
5.21638e-05
-1.28759e-05
5.04308e-05
-2.38073e-05
4.14431e-05
-2.89927e-05
1.73259e-05
-2.80943e-05
7.94313e-06
-2.40073e-05
1.77111e-07
-1.77162e-05
-5.3115e-06
-1.25256e-05
-7.75689e-06
-1.04055e-05
-8.08234e-06
-6.78331e-06
-1.1375e-05
-1.75492e-06
-1.10856e-05
1.39152e-06
-9.9904e-06
-6.15878e-06
5.1089e-07
-1.97707e-05
5.76138e-06
-1.87007e-05
8.96378e-06
-2.09527e-05
1.13844e-05
-2.36134e-05
1.35548e-05
-2.53069e-05
1.63038e-05
-2.56494e-05
1.92961e-05
-2.44206e-05
2.34228e-05
-2.14841e-05
2.69457e-05
-1.89872e-05
2.84505e-05
-1.31368e-05
3.00528e-05
-6.00268e-06
3.18478e-05
-6.78272e-07
3.35081e-05
4.44156e-06
2.89908e-05
1.11811e-05
1.51149e-05
3.80413e-05
5.30865e-06
5.11876e-05
-7.25961e-07
5.31557e-05
-6.40583e-06
5.22661e-05
-1.32076e-05
4.95452e-05
-2.48986e-05
4.40718e-05
-3.21422e-05
2.75595e-05
-3.11493e-05
1.05235e-05
-2.73606e-05
2.58168e-06
-2.16467e-05
-3.25713e-06
-1.5453e-05
-6.4288e-06
-1.0787e-05
-6.05667e-06
-6.35268e-06
-7.45602e-06
-1.63825e-06
-7.40799e-06
8.66594e-07
-5.83537e-06
-2.25338e-06
-1.76797e-07
-1.46065e-05
6.00846e-06
-1.6e-05
9.82118e-06
-1.80234e-05
1.25985e-05
-2.04918e-05
1.48818e-05
-2.24719e-05
1.74683e-05
-2.34e-05
2.05469e-05
-2.27164e-05
2.41778e-05
-2.02229e-05
2.76414e-05
-1.71641e-05
2.98027e-05
-1.18579e-05
3.13629e-05
-3.68294e-06
3.32911e-05
2.05106e-06
3.56267e-05
7.25763e-06
2.79151e-05
1.47425e-05
1.35275e-05
4.14157e-05
7.1948e-06
5.07943e-05
4.09517e-07
5.46539e-05
-6.89814e-06
5.33366e-05
-1.4013e-05
4.81357e-05
-1.9954e-05
4.2171e-05
-2.81922e-05
3.29551e-05
-3.14513e-05
1.51869e-05
-2.85927e-05
4.93719e-06
-2.43317e-05
-1.59605e-06
-1.85953e-05
-6.08009e-06
-1.22717e-05
-7.15525e-06
-6.31334e-06
-6.01138e-06
-1.71629e-06
-5.80879e-06
1.94294e-07
-3.74872e-06
-5.14574e-07
-1.32398e-06
-8.63248e-06
5.21241e-06
-1.29482e-05
9.72988e-06
-1.55359e-05
1.31958e-05
-1.76994e-05
1.57849e-05
-2.02633e-05
1.84642e-05
-2.18312e-05
2.14611e-05
-2.17555e-05
2.46023e-05
-1.97166e-05
2.82231e-05
-1.61752e-05
3.07958e-05
-1.14909e-05
3.21548e-05
-2.04928e-06
3.41089e-05
4.22753e-06
3.61947e-05
9.43304e-06
3.2497e-05
1.7048e-05
2.03738e-05
3.41229e-05
1.05418e-05
4.97217e-05
2.2494e-06
6.52138e-05
-6.67896e-06
6.61895e-05
-1.34933e-05
4.80271e-05
-1.93509e-05
3.96184e-05
-2.49634e-05
3.04631e-05
-2.79038e-05
1.7849e-05
-2.68308e-05
6.88676e-06
-2.42959e-05
-2.41597e-07
-2.04654e-05
-5.68144e-06
-1.4837e-05
-8.90245e-06
-7.74968e-06
-8.32686e-06
-2.48346e-06
-6.9465e-06
-5.5689e-07
-3.58508e-06
-2.39946e-07
-1.85471e-06
-3.98565e-06
3.07415e-06
-1.00959e-05
8.27979e-06
-1.39856e-05
1.28611e-05
-1.61768e-05
1.60151e-05
-1.91595e-05
1.87998e-05
-2.11776e-05
2.16932e-05
-2.16526e-05
2.47507e-05
-2.0074e-05
2.82432e-05
-1.64446e-05
3.0836e-05
-1.15274e-05
3.20981e-05
-2.38038e-06
3.33312e-05
5.00822e-06
3.43891e-05
1.02257e-05
3.4064e-05
1.70079e-05
2.65983e-05
2.66992e-05
1.63458e-05
4.86913e-05
7.07776e-06
8.43323e-05
-5.37839e-06
8.9347e-05
-1.48024e-05
6.05476e-05
-1.79169e-05
3.87621e-05
-2.11874e-05
2.83851e-05
-2.28834e-05
1.76348e-05
-2.25909e-05
8.0069e-06
-2.13468e-05
7.33902e-07
-1.93893e-05
-5.09965e-06
-1.59768e-05
-9.58771e-06
-9.98747e-06
-1.14306e-05
-4.34328e-06
-9.92655e-06
-1.36616e-06
-5.08768e-06
-1.02068e-06
-8.0263e-07
-2.1248e-06
1.03294e-06
-8.49066e-06
5.95592e-06
-1.32543e-05
1.11218e-05
-1.62582e-05
1.50157e-05
-1.94621e-05
1.79786e-05
-2.18246e-05
2.0877e-05
-2.26607e-05
2.39922e-05
-2.12397e-05
2.71594e-05
-1.75393e-05
3.0174e-05
-1.20259e-05
3.17854e-05
-4.03946e-06
3.20561e-05
3.4902e-06
3.19041e-05
8.99755e-06
2.94837e-05
1.30484e-05
2.19904e-05
1.65605e-05
1.38495e-05
4.57029e-05
1.03546e-05
9.54814e-05
3.078e-06
0.000101653
-8.60255e-06
7.94399e-05
-1.45166e-05
4.29003e-05
-1.58947e-05
2.81072e-05
-1.70611e-05
1.76121e-05
-1.75868e-05
8.39547e-06
-1.74608e-05
1.30052e-06
-1.66421e-05
-4.69757e-06
-1.48792e-05
-9.61011e-06
-1.15443e-05
-1.2826e-05
-6.55099e-06
-1.28927e-05
-1.68816e-06
-7.8078e-06
-2.40956e-06
4.50079e-08
-1.89257e-06
7.19997e-07
-8.03633e-06
3.69361e-06
-1.33667e-05
8.74227e-06
-1.72126e-05
1.32421e-05
-2.11069e-05
1.65202e-05
-2.37746e-05
1.94432e-05
-2.4181e-05
2.22945e-05
-2.2208e-05
2.50886e-05
-1.81768e-05
2.76839e-05
-1.23632e-05
2.9948e-05
-4.68403e-06
3.0866e-05
2.44233e-06
2.8481e-05
4.15204e-06
1.91474e-05
4.38213e-06
9.85612e-06
6.86247e-06
8.18592e-06
3.63065e-05
1.0703e-05
8.81864e-05
1.44103e-05
9.15842e-05
1.08676e-05
7.89731e-05
-8.48434e-07
4.81364e-05
-7.90975e-06
2.46242e-05
-1.09685e-05
1.80254e-05
-1.30324e-05
7.58849e-06
-1.4057e-05
1.01234e-06
-1.4034e-05
-4.91352e-06
-1.30417e-05
-9.85072e-06
-1.11665e-05
-1.366e-05
-6.80245e-06
-1.52239e-05
-1.12227e-06
-1.06394e-05
-3.57954e-06
1.54682e-06
-2.82192e-06
2.33035e-06
-8.51463e-06
3.72666e-06
-1.39312e-05
6.90877e-06
-1.8358e-05
1.12214e-05
-2.28756e-05
1.4753e-05
-2.57216e-05
1.74401e-05
-2.51792e-05
1.96311e-05
-2.23861e-05
2.15207e-05
-1.79779e-05
2.31578e-05
-1.19271e-05
2.43879e-05
-3.92125e-06
2.34928e-05
4.44905e-06
1.52299e-05
3.92825e-06
3.28962e-06
5.24236e-06
1.42159e-06
1.30124e-05
7.21205e-06
2.9827e-05
1.27772e-05
6.49971e-05
1.83152e-05
6.59218e-05
1.83365e-05
5.98634e-05
1.03385e-05
4.16681e-05
1.67102e-06
3.78578e-06
-5.5769e-06
-2.74886e-06
-1.02666e-05
-2.42821e-06
-1.16619e-05
2.05033e-07
-1.20181e-05
-6.10425e-06
-1.14399e-05
-1.10075e-05
-9.94215e-06
-1.47823e-05
-5.64937e-06
-1.71202e-05
-5.15227e-07
-1.33216e-05
-4.51472e-06
3.12181e-06
-4.61707e-06
4.51235e-06
-9.72654e-06
5.43283e-06
-1.50548e-05
7.18931e-06
-1.94298e-05
1.01504e-05
-2.41562e-05
1.31998e-05
-2.67244e-05
1.51288e-05
-2.55401e-05
1.61568e-05
-2.22801e-05
1.64629e-05
-1.75666e-05
1.63749e-05
-1.15287e-05
1.63039e-05
-2.86837e-06
1.41747e-05
7.04891e-06
2.19099e-08
1.40942e-05
-1.29437e-05
1.83534e-05
-5.95102e-06
2.9393e-05
5.89439e-06
3.24137e-05
1.16401e-05
4.39242e-05
1.29877e-05
4.36719e-05
1.00422e-05
3.95159e-05
7.87053e-06
2.60469e-05
4.6032e-06
-1.43212e-05
-2.6582e-06
-2.61e-05
-8.1866e-06
-2.46668e-05
-1.07267e-05
-1.76638e-05
-1.04822e-05
-8.13545e-06
-1.01207e-05
-1.3214e-05
-8.59882e-06
-1.62345e-05
-4.71941e-06
-1.84243e-05
-6.86771e-07
-1.54089e-05
-5.74466e-06
3.77912e-06
-7.89593e-06
6.28152e-06
-1.60452e-05
7.18389e-06
-1.7237e-05
8.46317e-06
-2.05536e-05
1.03681e-05
-2.50532e-05
1.234e-05
-2.7249e-05
1.35323e-05
-2.60377e-05
1.34141e-05
-2.28777e-05
1.12974e-05
-1.79938e-05
7.48526e-06
-1.19571e-05
4.20662e-06
-1.47119e-06
2.59058e-06
7.89824e-06
-1.16094e-05
1.36729e-05
-2.43174e-05
1.89132e-05
-1.65349e-05
3.01028e-05
-6.08571e-06
3.29168e-05
-4.28055e-07
3.55654e-05
1.92755e-06
3.29743e-05
4.42823e-06
2.34151e-05
5.02911e-06
7.0717e-06
1.66993e-06
-1.95944e-05
-7.75476e-07
-2.87798e-05
-3.96772e-06
-3.53125e-05
-8.03988e-06
-3.78785e-05
-9.60034e-06
-1.74865e-05
-8.94305e-06
-1.64761e-05
-7.79134e-06
-1.80321e-05
-5.4113e-06
-1.91743e-05
-2.63608e-06
-1.65173e-05
-8.15372e-06
2.50623e-06
-1.51038e-05
4.41318e-06
-2.55123e-05
7.39225e-06
-2.27016e-05
9.41372e-06
-2.40186e-05
1.09698e-05
-2.64869e-05
1.23198e-05
-2.8276e-05
1.3104e-05
-2.76329e-05
1.26299e-05
-2.49397e-05
9.16801e-06
-1.97946e-05
-1.37062e-06
-2.03372e-05
-1.03326e-05
-4.9662e-06
-1.66036e-05
2.06962e-07
-2.77547e-05
-8.0277e-06
-2.85617e-05
-2.86476e-07
-1.97694e-05
1.15958e-05
-1.37569e-05
2.01112e-05
-7.89575e-06
2.19571e-05
-1.94478e-06
1.70631e-05
2.96551e-06
3.35516e-06
2.58843e-06
-1.00874e-05
-1.56008e-07
-2.19187e-05
1.34378e-06
-2.65855e-05
2.04661e-06
-3.29306e-05
-5.7016e-06
-4.15243e-05
-1.16337e-05
-3.11958e-05
-8.85915e-06
-2.09892e-05
-7.84888e-06
-2.00391e-05
-6.83578e-06
-2.01377e-05
-5.20488e-06
-1.83642e-05
-1.9699e-05
2.35842e-07
-2.10301e-05
1.33891e-06
-2.92523e-05
4.42694e-06
-3.14477e-05
9.27603e-06
-3.42881e-05
1.14185e-05
-3.08394e-05
1.26201e-05
-3.04086e-05
1.3542e-05
-3.04895e-05
1.43601e-05
-2.84821e-05
1.11415e-05
-3.04368e-05
-5.20171e-06
-2.99835e-05
-2.16383e-05
-1.59542e-05
-2.75494e-05
-1.79593e-05
-3.14005e-05
-2.43131e-05
-2.87257e-05
-1.6379e-05
-2.23326e-05
-6.5835e-06
-1.62776e-05
1.1645e-06
-1.04367e-05
1.98915e-06
-5.7104e-06
-3.09374e-06
-3.12991e-06
-1.28901e-05
-2.14685e-06
-1.86068e-05
1.27839e-08
-2.1578e-05
3.78784e-06
-2.41252e-05
6.32197e-06
-3.02373e-05
2.21534e-06
-4.00161e-05
-7.23736e-06
-4.10693e-05
-8.94039e-06
-2.94686e-05
-7.75434e-06
-2.24415e-05
-7.64672e-06
-2.33513e-05
-6.42718e-06
-2.95974e-05
-3.42497e-05
-1.84593e-06
-1.92507e-05
2.05564e-06
-2.7291e-05
1.08402e-06
-3.39937e-05
4.79527e-06
-4.13158e-05
9.63901e-06
-4.03424e-05
1.20736e-05
-3.36176e-05
1.36944e-05
-3.40339e-05
1.52659e-05
-3.47552e-05
9.82294e-06
-4.02966e-05
-5.9268e-06
-2.50974e-05
-2.16734e-05
-1.73966e-05
-2.84467e-05
-2.44941e-05
-3.07579e-05
-2.47018e-05
-2.96229e-05
-2.09259e-05
-2.48207e-05
-1.61416e-05
-1.90869e-05
-1.24687e-05
-1.4144e-05
-1.31798e-05
-1.03527e-05
-1.63007e-05
-7.48541e-06
-2.00725e-05
-3.86191e-06
-2.1733e-05
9.96217e-07
-2.14837e-05
6.2191e-06
-2.31087e-05
9.51739e-06
-2.81588e-05
8.74199e-06
-3.73037e-05
2.12525e-06
-4.32176e-05
-5.07895e-06
-3.95177e-05
-5.35846e-06
-3.12495e-05
-2.21717e-06
-3.34951e-05
-1.00194e-07
-3.93232e-05
-3.80701e-05
-2.92384e-06
-1.25033e-05
2.46382e-06
-2.29535e-05
2.88981e-06
-3.12378e-05
3.56899e-06
-3.86972e-05
7.2795e-06
-4.62829e-05
1.16102e-05
-4.21746e-05
1.3837e-05
-3.78029e-05
1.07682e-05
-4.45943e-05
2.95269e-06
-4.0858e-05
-9.43103e-06
-1.26151e-05
-2.31671e-05
-1.16361e-05
-2.99084e-05
-1.97635e-05
-3.17443e-05
-2.06934e-05
-3.12382e-05
-1.98023e-05
-2.74642e-05
-1.8715e-05
-2.24137e-05
-1.87971e-05
-1.82027e-05
-2.05527e-05
-1.40793e-05
-2.23348e-05
-9.49101e-06
-2.37579e-05
-4.28576e-06
-2.4411e-05
1.84037e-06
-2.35335e-05
8.01935e-06
-2.39403e-05
1.20432e-05
-2.72516e-05
1.13192e-05
-3.48313e-05
7.81009e-06
-4.03099e-05
3.85804e-06
-4.14095e-05
2.06837e-06
-3.86836e-05
1.88072e-06
-3.89874e-05
8.24596e-07
-3.89194e-05
-3.69744e-05
-5.43341e-06
-7.5154e-06
1.1863e-06
-1.76231e-05
3.19547e-06
-2.79363e-05
4.15157e-06
-3.46705e-05
4.48282e-06
-4.36627e-05
8.52205e-06
-4.94645e-05
9.56122e-06
-4.50988e-05
3.78742e-06
-5.16668e-05
-2.62288e-06
-3.62614e-05
-1.44974e-05
-3.37929e-06
-2.76027e-05
-7.18625e-06
-3.33821e-05
-1.51694e-05
-3.48008e-05
-1.59818e-05
-3.35392e-05
-1.64109e-05
-2.94517e-05
-1.81895e-05
-2.4636e-05
-2.03327e-05
-2.04523e-05
-2.23728e-05
-1.56804e-05
-2.40983e-05
-1.02169e-05
-2.55096e-05
-4.5979e-06
-2.61197e-05
2.08911e-06
-2.57963e-05
9.05246e-06
-2.51421e-05
1.36732e-05
-2.72395e-05
1.30253e-05
-3.25559e-05
9.18565e-06
-3.69887e-05
6.42429e-06
-3.85049e-05
4.69596e-06
-3.77079e-05
3.26235e-06
-3.69903e-05
1.78268e-06
-3.70001e-05
-3.50243e-05
-1.98852e-06
-5.29805e-06
-1.20908e-06
-1.46413e-05
1.99054e-06
-2.32572e-05
5.169e-06
-3.14897e-05
5.35248e-06
-3.94731e-05
4.81182e-06
-4.83456e-05
4.32096e-06
-5.09302e-05
1.83878e-06
-5.12099e-05
-4.85575e-06
-2.9751e-05
-1.90634e-05
2.61807e-06
-3.13317e-05
-2.77442e-06
-3.53255e-05
-1.00824e-05
-3.60362e-05
-1.14092e-05
-3.43548e-05
-1.26874e-05
-3.01443e-05
-1.54327e-05
-2.53805e-05
-1.85689e-05
-2.11114e-05
-2.1031e-05
-1.62054e-05
-2.3532e-05
-1.05814e-05
-2.52354e-05
-4.91113e-06
-2.61223e-05
1.83658e-06
-2.65644e-05
9.26042e-06
-2.50738e-05
1.4089e-05
-2.62398e-05
1.37656e-05
-2.96035e-05
1.00769e-05
-3.3278e-05
7.1425e-06
-3.53571e-05
5.64069e-06
-3.5428e-05
4.34425e-06
-3.50759e-05
2.75008e-06
-3.48873e-05
-3.22971e-05
-1.17392e-06
-5.02107e-06
-1.38826e-06
-1.3841e-05
4.13861e-07
-2.15622e-05
3.94263e-06
-2.84888e-05
5.36072e-06
-3.58053e-05
4.30949e-06
-4.47279e-05
3.74088e-06
-4.9846e-05
2.05274e-06
-4.77512e-05
-6.67328e-06
-2.40382e-05
-2.20316e-05
8.90259e-06
-3.3312e-05
4.11404e-06
-3.64331e-05
-3.34615e-06
-3.67011e-05
-5.63938e-06
-3.44177e-05
-7.52826e-06
-3.0182e-05
-1.11107e-05
-2.60348e-05
-1.51861e-05
-2.20206e-05
-1.85476e-05
-1.70553e-05
-2.20236e-05
-1.14794e-05
-2.40731e-05
-5.9869e-06
-2.5317e-05
3.95721e-07
-2.59675e-05
8.38184e-06
-2.47216e-05
1.39048e-05
-2.45206e-05
1.37284e-05
-2.61952e-05
1.00926e-05
-2.95096e-05
7.38343e-06
-3.23268e-05
6.28367e-06
-3.31765e-05
5.06006e-06
-3.32638e-05
3.6101e-06
-3.28499e-05
-2.87862e-05
6.99594e-07
-5.85554e-06
6.57894e-07
-1.51963e-05
1.5102e-06
-2.17354e-05
3.19751e-06
-2.71672e-05
4.95082e-06
-3.29261e-05
4.73987e-06
-4.09347e-05
5.12851e-06
-4.66531e-05
3.46121e-06
-4.43951e-05
-6.11206e-06
-2.09072e-05
-2.18154e-05
1.60042e-05
-3.32573e-05
1.15413e-05
-3.6356e-05
3.31519e-06
-3.63923e-05
1.21399e-07
-3.40367e-05
-2.0751e-06
-3.02689e-05
-6.12004e-06
-2.66639e-05
-1.11772e-05
-2.27734e-05
-1.61754e-05
-1.80885e-05
-2.0025e-05
-1.29561e-05
-2.23134e-05
-7.66515e-06
-2.37073e-05
-1.844e-06
-2.44179e-05
5.6511e-06
-2.44132e-05
1.21663e-05
-2.28019e-05
1.29053e-05
-2.33288e-05
9.5862e-06
-2.60171e-05
7.28974e-06
-2.97617e-05
6.33975e-06
-3.11512e-05
5.19258e-06
-3.15058e-05
3.88614e-06
-3.0852e-05
-2.49202e-05
3.13456e-06
-1.01452e-05
3.19842e-06
-1.77023e-05
3.68228e-06
-2.2633e-05
4.48382e-06
-2.72318e-05
5.6904e-06
-3.18912e-05
6.1032e-06
-3.78432e-05
7.47344e-06
-4.3887e-05
6.49512e-06
-4.18198e-05
-4.15952e-06
-2.21071e-05
-2.10091e-05
2.22378e-05
-3.24555e-05
1.89547e-05
-3.5117e-05
1.01638e-05
-3.4833e-05
6.30191e-06
-3.29895e-05
3.66467e-06
-3.00806e-05
-8.92184e-07
-2.6899e-05
-6.84931e-06
-2.30736e-05
-1.17724e-05
-1.86272e-05
-1.60894e-05
-1.40866e-05
-1.90119e-05
-9.33223e-06
-2.07936e-05
-4.14545e-06
-2.20611e-05
2.13626e-06
-2.27536e-05
9.027e-06
-2.17942e-05
1.14266e-05
-2.17476e-05
8.97018e-06
-2.37115e-05
6.67733e-06
-2.76909e-05
5.58636e-06
-2.95685e-05
4.65101e-06
-2.99734e-05
3.39201e-06
-2.89671e-05
-2.1381e-05
4.2594e-06
-1.73075e-05
5.03059e-06
-2.008e-05
5.46986e-06
-2.39303e-05
6.14147e-06
-2.77214e-05
6.86578e-06
-3.19091e-05
7.68769e-06
-3.67205e-05
9.25089e-06
-4.1515e-05
9.37641e-06
-4.01029e-05
-1.41922e-07
-2.35186e-05
-1.77858e-05
2.70389e-05
-2.97256e-05
2.7876e-05
-3.28651e-05
1.77509e-05
-3.32495e-05
1.29196e-05
-3.18833e-05
9.90142e-06
-2.8749e-05
5.14787e-06
-2.56292e-05
-7.06014e-07
-2.22683e-05
-6.28203e-06
-1.83264e-05
-1.13095e-05
-1.43086e-05
-1.50069e-05
-1.01376e-05
-1.75258e-05
-5.49815e-06
-1.94118e-05
-5.45394e-07
-2.06074e-05
4.74461e-06
-2.13974e-05
7.86652e-06
-2.20509e-05
7.27507e-06
-2.33883e-05
5.41316e-06
-2.63418e-05
4.17182e-06
-2.85136e-05
3.49202e-06
-2.8913e-05
2.46061e-06
-2.74808e-05
-1.87124e-05
3.24383e-06
-2.06974e-05
5.82328e-06
-2.12797e-05
6.78803e-06
-2.53421e-05
7.60634e-06
-2.84967e-05
8.27996e-06
-3.22546e-05
9.04357e-06
-3.63884e-05
9.74754e-06
-3.97831e-05
9.28472e-06
-3.89803e-05
2.36239e-06
-2.09564e-05
-1.28877e-05
3.17957e-05
-2.59209e-05
3.70128e-05
-3.03088e-05
2.49765e-05
-3.07978e-05
1.87454e-05
-2.95649e-05
1.51855e-05
-2.69593e-05
1.08338e-05
-2.41611e-05
4.4735e-06
-2.10349e-05
-2.30584e-06
-1.7502e-05
-7.93313e-06
-1.37834e-05
-1.24663e-05
-9.96302e-06
-1.53202e-05
-6.0589e-06
-1.77466e-05
-2.01911e-06
-1.94457e-05
1.27395e-06
-2.11019e-05
3.74093e-06
-2.3082e-05
4.49984e-06
-2.46195e-05
3.2913e-06
-2.60373e-05
2.46023e-06
-2.79781e-05
2.07732e-06
-2.84264e-05
1.36241e-06
-2.6588e-05
-1.72172e-05
4.13336e-06
-2.09284e-05
6.8576e-06
-2.58648e-05
8.27465e-06
-2.7103e-05
9.01316e-06
-2.93934e-05
9.68774e-06
-3.2731e-05
1.02354e-05
-3.62023e-05
1.02827e-05
-3.87369e-05
7.03577e-06
-3.67898e-05
2.14364e-06
-1.7936e-05
-7.70629e-06
3.31002e-05
-2.07245e-05
4.59465e-05
-2.65363e-05
3.23092e-05
-2.7337e-05
2.31561e-05
-2.6382e-05
1.79183e-05
-2.39318e-05
1.29541e-05
-2.16457e-05
5.14656e-06
-1.96405e-05
-9.39802e-07
-1.66525e-05
-7.04385e-06
-1.29205e-05
-1.15921e-05