/*--------------------------------*- C++ -*----------------------------------*\
| =========                 |                                                 |
| \\      /  F ield         | OpenFOAM: The Open Source CFD Toolbox           |
|  \\    /   O peration     | Version:  v1606+                                |
|   \\  /    A nd           | Web:      www.OpenFOAM.com                      |
|    \\/     M anipulation  |                                                 |
\*---------------------------------------------------------------------------*/
FoamFile
{
    version     2.0;
    format      ascii;
    class       surfaceScalarField;
    location    "1";
    object      phi;
}
// * * * * * * * * * * * * * * * * * * * * * * * * * * * * * * * * * * * * * //

dimensions      [0 3 -1 0 0 0 0];

internalField   nonuniform List<scalar> 
1460
(
-2.61765e-07
-2.32126e-06
-5.165e-07
-1.45446e-06
-8.63538e-07
-1.01789e-06
-1.07471e-06
-7.65786e-07
-1.18602e-06
-4.1887e-07
-1.23287e-06
-2.29847e-08
-1.23938e-06
3.61863e-07
-1.22978e-06
7.05183e-07
-1.20734e-06
9.97183e-07
-1.1479e-06
1.24265e-06
-1.02397e-06
1.44632e-06
1.60297e-06
-8.04169e-07
-3.7968e-07
-2.47855e-06
-4.617e-07
-1.37244e-06
-7.30613e-07
-7.48975e-07
-9.29819e-07
-5.6658e-07
-1.02828e-06
-3.20409e-07
-1.05849e-06
7.22622e-09
-1.04247e-06
3.45838e-07
-9.99321e-07
6.62038e-07
-9.36427e-07
9.34289e-07
-8.50684e-07
1.1569e-06
-7.30522e-07
1.32616e-06
1.43393e-06
-5.61479e-07
-5.80215e-07
-2.56998e-06
-5.77405e-07
-1.37525e-06
-7.16362e-07
-6.10018e-07
-8.39124e-07
-4.43818e-07
-9.01905e-07
-2.57628e-07
-9.12145e-07
1.74663e-08
-8.78082e-07
3.11776e-07
-8.10971e-07
5.94927e-07
-7.20234e-07
8.43552e-07
-6.0937e-07
1.04604e-06
-4.76651e-07
1.19344e-06
1.27686e-06
-3.19588e-07
-6.40737e-07
-2.55413e-06
-6.97637e-07
-1.31835e-06
-7.29478e-07
-5.78177e-07
-7.7218e-07
-4.01116e-07
-8.02363e-07
-2.27445e-07
-7.98717e-07
1.38204e-08
-7.56597e-07
2.69655e-07
-6.79565e-07
5.17895e-07
-5.74949e-07
7.38936e-07
-4.49228e-07
9.20318e-07
-3.0636e-07
1.05057e-06
-1.49832e-07
1.12034e-06
-5.46996e-07
1.64504e-06
-3.18377e-07
1.55459e-06
-1.31291e-07
1.36771e-06
-3.09635e-09
1.09305e-06
3.71469e-08
7.40331e-07
-3.15264e-09
3.28301e-07
-1.03465e-07
-9.20949e-08
-2.2802e-07
-5.09869e-07
-3.45991e-07
-9.37826e-07
-4.66551e-07
-1.35866e-06
-5.32034e-07
-1.84267e-06
-2.33613e-06
-4.24423e-07
-3.65778e-07
1.44934e-06
-1.76034e-07
1.36485e-06
-8.82224e-09
1.2005e-06
1.18545e-07
9.65683e-07
1.95542e-07
6.63334e-07
2.0766e-07
3.16183e-07
1.69517e-07
-5.39522e-08
9.44683e-08
-4.3482e-07
-1.51153e-08
-8.28242e-07
-1.80699e-07
-1.19307e-06
-3.85541e-07
-1.63782e-06
-2.18661e-06
-5.35062e-07
-1.49719e-07
1.27947e-06
1.48394e-08
1.20029e-06
1.65824e-07
1.04952e-06
2.93369e-07
8.38138e-07
3.80829e-07
5.75874e-07
4.1718e-07
2.79832e-07
3.99339e-07
-3.6111e-08
3.23211e-07
-3.58692e-07
1.76312e-07
-6.81343e-07
-2.24574e-08
-9.94304e-07
-2.95824e-07
-1.36446e-06
-1.81311e-06
-6.69326e-07
1.08655e-08
1.11877e-06
1.64642e-07
1.04652e-06
3.04235e-07
9.09924e-07
4.20508e-07
7.21865e-07
5.01859e-07
4.94523e-07
5.3756e-07
2.44131e-07
5.1548e-07
-1.40307e-08
4.26755e-07
-2.69967e-07
2.74124e-07
-5.28711e-07
1.03414e-07
-8.23594e-07
-1.13273e-07
-1.14777e-06
-6.2241e-07
-1.30397e-06
-2.57396e-07
-2.32091e-06
-5.12805e-07
-1.45125e-06
-8.604e-07
-1.01288e-06
-1.0711e-06
-7.6087e-07
-1.182e-06
-4.14674e-07
-1.22871e-06
-1.9858e-08
-1.2354e-06
3.63952e-07
-1.2261e-06
7.06059e-07
-1.20404e-06
9.9679e-07
-1.14539e-06
1.24087e-06
-1.02306e-06
1.4429e-06
1.598e-06
-8.05868e-07
-3.76646e-07
-2.47933e-06
-4.57626e-07
-1.37027e-06
-7.27028e-07
-7.43482e-07
-9.26441e-07
-5.61457e-07
-1.0248e-06
-3.16312e-07
-1.05478e-06
1.0119e-08
-1.03885e-06
3.4802e-07
-9.95737e-07
6.62948e-07
-9.33106e-07
9.34159e-07
-8.47674e-07
1.15544e-06
-7.28142e-07
1.32337e-06
1.43004e-06
-5.60177e-07
-5.77144e-07
-2.57151e-06
-5.74018e-07
-1.37339e-06
-7.13342e-07
-6.04158e-07
-8.3626e-07
-4.3854e-07
-8.98846e-07
-2.53726e-07
-9.08857e-07
2.01301e-08
-8.7475e-07
3.13913e-07
-8.07618e-07
5.95817e-07
-7.16996e-07
8.43537e-07
-6.06372e-07
1.04481e-06
-4.74104e-07
1.1911e-06
1.27349e-06
-3.17556e-07
-6.39446e-07
-2.55448e-06
-6.96335e-07
-1.3165e-06
-7.27759e-07
-5.72734e-07
-7.69998e-07
-3.96301e-07
-7.99778e-07
-2.23945e-07
-7.95928e-07
1.628e-08
-7.5351e-07
2.71494e-07
-6.76433e-07
5.1874e-07
-5.71887e-07
7.38991e-07
-4.46372e-07
9.19298e-07
-3.03889e-07
1.04862e-06
-1.47832e-07
1.11743e-06
-5.51158e-07
1.63928e-06
-3.23966e-07
1.54905e-06
-1.3674e-07
1.36345e-06
-6.7843e-09
1.09056e-06
3.58449e-08
7.39233e-07
-1.9858e-09
3.27625e-07
-1.00112e-07
-9.42078e-08
-2.23741e-07
-5.12857e-07
-3.4216e-07
-9.40685e-07
-4.64396e-07
-1.35984e-06
-5.31886e-07
-1.84218e-06
-2.33418e-06
-3.65715e-07
1.44481e-06
-1.76913e-07
1.36025e-06
-9.85832e-09
1.1964e-06
1.18373e-07
9.62328e-07
1.96862e-07
6.60744e-07
2.11182e-07
3.13305e-07
1.73718e-07
-5.67443e-08
9.835e-08
-4.37489e-07
-1.28258e-08
-8.29509e-07
-1.80432e-07
-1.19223e-06
-3.86817e-07
-1.6358e-06
-2.18408e-06
-1.48244e-07
1.2755e-06
1.58667e-08
1.19614e-06
1.66911e-07
1.04535e-06
2.94866e-07
8.34372e-07
3.83081e-07
5.72529e-07
4.19818e-07
2.76569e-07
4.01849e-07
-3.87755e-08
3.24697e-07
-3.60338e-07
1.76496e-07
-6.81308e-07
-2.31827e-08
-9.92551e-07
-2.97885e-07
-1.36109e-06
-1.81029e-06
1.23362e-08
1.11534e-06
1.65749e-07
1.04273e-06
3.05108e-07
9.05994e-07
4.21307e-07
7.18173e-07
5.02684e-07
4.91152e-07
5.38198e-07
2.41055e-07
5.15743e-07
-1.63208e-08
4.26427e-07
-2.71021e-07
2.73342e-07
-5.28222e-07
1.02207e-07
-8.21417e-07
-1.14789e-07
-1.1441e-06
-1.30025e-06
-5.44784e-07
-2.00934e-06
-7.04704e-07
-1.15843e-06
-6.95442e-07
-5.87439e-07
-6.98624e-07
-3.97934e-07
-7.12443e-07
-2.13627e-07
-7.04243e-07
5.62041e-09
-6.64145e-07
2.29557e-07
-5.90738e-07
4.44488e-07
-4.88088e-07
6.36286e-07
-3.62205e-07
7.94434e-07
-2.19594e-07
9.07959e-07
9.68041e-07
-6.72981e-08
-4.40413e-07
-1.56893e-06
-5.98481e-07
-1.00036e-06
-6.0686e-07
-5.7906e-07
-6.18713e-07
-3.86081e-07
-6.30988e-07
-2.01352e-07
-6.23136e-07
-2.2308e-09
-5.87918e-07
1.94339e-07
-5.2338e-07
3.79949e-07
-4.31681e-07
5.44588e-07
-3.17022e-07
6.79776e-07
-1.85524e-07
7.76461e-07
8.2752e-07
-4.5004e-08
-3.3733e-07
-1.2316e-06
-4.86802e-07
-8.50886e-07
-5.19882e-07
-5.45979e-07
-5.44748e-07
-3.61215e-07
-5.59816e-07
-1.86284e-07
-5.53941e-07
-8.10655e-09
-5.2333e-07
1.63729e-07
-4.67155e-07
3.23774e-07
-3.87151e-07
4.64583e-07
-2.86605e-07
5.7923e-07
-1.70686e-07
6.60541e-07
7.03012e-07
-4.61777e-08
-2.55849e-07
-9.75752e-07
-3.92612e-07
-7.14124e-07
-4.45904e-07
-4.92687e-07
-4.80935e-07
-3.26183e-07
-4.99295e-07
-1.67925e-07
-4.95902e-07
-1.14993e-08
-4.69232e-07
1.37059e-07
-4.19713e-07
2.74255e-07
-3.4911e-07
3.93979e-07
-2.6054e-07
4.90661e-07
-1.58719e-07
5.58719e-07
5.93565e-07
-4.92715e-08
-2.00485e-07
-7.75268e-07
-3.23055e-07
-5.91553e-07
-3.86707e-07
-4.29035e-07
-4.27721e-07
-2.85169e-07
-4.48557e-07
-1.47089e-07
-4.474e-07
-1.26559e-08
-4.24459e-07
1.14118e-07
-3.80338e-07
2.30134e-07
-3.17146e-07
3.30788e-07
-2.37946e-07
4.11461e-07
-1.47115e-07
4.67888e-07
4.96201e-07
-4.97508e-08
-1.62978e-07
-6.1229e-07
-2.72918e-07
-4.81614e-07
-3.40365e-07
-3.61589e-07
-3.84164e-07
-2.41369e-07
-4.06563e-07
-1.24689e-07
-4.07486e-07
-1.17331e-08
-3.87588e-07
9.422e-08
-3.48019e-07
1.90565e-07
-2.90883e-07
2.73651e-07
-2.19206e-07
3.39784e-07
-1.36922e-07
3.85604e-07
4.08242e-07
-4.8963e-08
-1.3735e-07
-4.7494e-07
-2.36787e-07
-3.82176e-07
-3.04535e-07
-2.93841e-07
-3.4913e-07
-1.96774e-07
-3.7238e-07
-1.01439e-07
-3.74847e-07
-9.26692e-09
-3.57523e-07
7.6896e-08
-3.21718e-07
1.5476e-07
-2.69521e-07
2.21454e-07
-2.03908e-07
2.74171e-07
-1.28516e-07
3.10212e-07
3.2761e-07
-4.78841e-08
-1.1968e-07
-3.5526e-07
-2.10908e-07
-2.90948e-07
-2.77245e-07
-2.27505e-07
-3.21634e-07
-1.52385e-07
-3.45191e-07
-7.78824e-08
-3.48778e-07
-5.67998e-09
-3.33354e-07
6.14718e-08
-3.00528e-07
1.21934e-07
-2.52191e-07
1.73117e-07
-1.9134e-07
2.1332e-07
-1.21393e-07
2.40265e-07
2.52741e-07
-4.65236e-08
-1.07313e-07
-2.47947e-07
-1.92267e-07
-2.05994e-07
-2.56643e-07
-1.63128e-07
-3.003e-07
-1.08727e-07
-3.23895e-07
-5.42869e-08
-3.28143e-07
-1.43253e-09
-3.14101e-07
4.74303e-08
-2.83242e-07
9.1075e-08
-2.37716e-07
1.27591e-07
-1.803e-07
1.55904e-07
-1.14425e-07
1.7439e-07
1.82295e-07
-4.39784e-08
-9.80696e-08
-1.49878e-07
-1.77947e-07
-1.26116e-07
-2.40459e-07
-1.00616e-07
-2.8326e-07
-6.59274e-08
-3.06552e-07
-3.09947e-08
-3.10887e-07
2.90225e-09
-2.97488e-07
3.40319e-08
-2.67725e-07
6.13117e-08
-2.23873e-07
8.37391e-08
-1.68656e-07
1.00687e-07
-1.05535e-07
1.11269e-07
1.15053e-07
-3.82926e-08
-8.87036e-08
-6.1174e-08
-1.62949e-07
-5.18708e-08
-2.22358e-07
-4.12075e-08
-2.62878e-07
-2.54075e-08
-2.8431e-07
-9.56224e-09
-2.87177e-07
5.76919e-09
-2.72643e-07
1.94982e-08
-2.42426e-07
3.10942e-08
-1.98885e-07
4.01986e-08
-1.44869e-07
4.667e-08
-8.37631e-08
5.01629e-08
5.05699e-08
-1.92803e-08
-6.1174e-08
-1.13045e-07
-1.54252e-07
-1.7966e-07
-1.89222e-07
-1.83453e-07
-1.63955e-07
-1.3286e-07
-9.26619e-08
-4.59919e-08
4.17103e-09
5.47409e-08
8.51835e-08
9.66293e-07
2.27634e-07
9.04065e-07
3.53551e-07
7.84007e-07
4.54952e-07
6.20464e-07
5.25375e-07
4.241e-07
5.56066e-07
2.13439e-07
5.39284e-07
2.75151e-09
4.70869e-07
-2.01552e-07
3.60303e-07
-4.18145e-07
2.44175e-07
-7.07466e-07
1.45819e-07
-1.04941e-06
-1.15816e-06
9.45e-08
8.26789e-07
2.25511e-07
7.73054e-07
3.37553e-07
6.71965e-07
4.26622e-07
5.31395e-07
4.87373e-07
3.63349e-07
5.17619e-07
1.83193e-07
5.15565e-07
4.80534e-09
4.81137e-07
-1.67124e-07
4.16845e-07
-3.53853e-07
3.19349e-07
-6.09971e-07
1.68272e-07
-8.98337e-07
-9.89884e-07
7.86644e-08
7.01946e-07
1.95042e-07
6.56677e-07
2.95383e-07
5.71624e-07
3.74187e-07
4.5259e-07
4.28299e-07
3.09238e-07
4.5747e-07
1.54022e-07
4.63844e-07
-1.56866e-09
4.48912e-07
-1.52192e-07
4.08148e-07
-3.13089e-07
3.19412e-07
-5.21235e-07
1.6678e-07
-7.45705e-07
-8.23104e-07
6.09091e-08
5.91766e-07
1.63155e-07
5.54431e-07
2.52798e-07
4.81981e-07
3.23702e-07
3.81686e-07
3.72472e-07
2.60468e-07
3.98776e-07
1.27717e-07
4.04639e-07
-7.43074e-09
3.92925e-07
-1.40479e-07
3.57435e-07
-2.77599e-07
2.78455e-07
-4.42255e-07
1.45687e-07
-6.12937e-07
-6.77416e-07
4.78951e-08
4.9412e-07
1.40189e-07
4.62137e-07
2.20567e-07
4.01604e-07
2.84468e-07
3.17785e-07
3.28669e-07
2.16267e-07
3.52074e-07
1.04312e-07
3.55762e-07
-1.11191e-08
3.41198e-07
-1.25914e-07
3.05432e-07
-2.41833e-07
2.35935e-07
-3.72758e-07
1.24407e-07
-5.01409e-07
-5.5301e-07
3.89112e-08
4.06246e-07
1.2292e-07
3.78128e-07
1.95853e-07
3.2867e-07
2.5405e-07
2.59588e-07
2.94784e-07
1.75534e-07
3.16206e-07
8.28898e-08
3.18598e-07
-1.35108e-08
3.02452e-07
-1.09769e-07
2.66503e-07
-2.05884e-07
2.0332e-07
-3.09575e-07
1.07364e-07
-4.05453e-07
-4.45646e-07
3.32267e-08
3.25135e-07
1.09467e-07
3.01888e-07
1.76286e-07
2.61851e-07
2.30554e-07
2.05319e-07
2.68083e-07
1.38005e-07
2.88149e-07
6.28242e-08
2.89926e-07
-1.52877e-08
2.73444e-07
-9.32868e-08
2.3803e-07
-1.7047e-07
1.79265e-07
-2.5081e-07
9.46169e-08
-3.20805e-07
-3.51029e-07
2.88115e-08
2.498e-07
9.90832e-08
2.31616e-07
1.61823e-07
1.99111e-07
2.11892e-07
1.55251e-07
2.47367e-07
1.0253e-07
2.66144e-07
4.40477e-08
2.67484e-07
-1.66279e-08
2.51444e-07
-7.72474e-08
2.17048e-07
-1.36074e-07
1.61825e-07
-1.95587e-07
8.54855e-08
-2.44465e-07
-2.65543e-07
2.69045e-08
1.78917e-07
9.28908e-08
1.6563e-07
1.51956e-07
1.40046e-07
1.99008e-07
1.08199e-07
2.32493e-07
6.90442e-08
2.50153e-07
2.63876e-08
2.51189e-07
-1.76636e-08
2.35327e-07
-6.1385e-08
2.01998e-07
-1.02746e-07
1.49613e-07
-1.43202e-07
7.91414e-08
-1.73993e-07
-1.86402e-07
2.85146e-08
1.1211e-07
9.22908e-08
1.01854e-07
1.47578e-07
8.47587e-08
1.92484e-07
6.32926e-08
2.2374e-07
3.77887e-08
2.39962e-07
1.01653e-08
2.40113e-07
-1.78142e-08
2.24013e-07
-4.52857e-08
1.91238e-07
-6.99703e-08
1.40752e-07
-9.27159e-08
7.4314e-08
-1.07556e-07
-1.12088e-07
4.42781e-08
4.85514e-08
1.04236e-07
4.18959e-08
1.55465e-07
3.35297e-08
1.96216e-07
2.2541e-08
2.23506e-07
1.04985e-08
2.35864e-07
-2.19262e-09
2.32937e-07
-1.48869e-08
2.14232e-07
-2.65802e-08
1.80045e-07
-3.57839e-08
1.30236e-07
-4.29061e-08
6.78503e-08
-4.51703e-08
-4.42374e-08
1.03292e-07
1.45188e-07
1.78718e-07
2.01259e-07
2.11758e-07
2.09565e-07
1.94678e-07
1.68098e-07
1.32314e-07
8.94077e-08
4.42374e-08
-5.44876e-07
-2.0096e-06
-7.04864e-07
-1.15652e-06
-6.9467e-07
-5.82927e-07
-6.96971e-07
-3.94e-07
-7.10282e-07
-2.10634e-07
-7.01868e-07
7.86604e-09
-6.61378e-07
2.31005e-07
-5.87905e-07
4.45267e-07
-4.85292e-07
6.36377e-07
-3.59575e-07
7.93581e-07
-2.17227e-07
9.06269e-07
9.65588e-07
-6.53827e-08
-4.40816e-07
-1.56878e-06
-5.98889e-07
-9.98444e-07
-6.06305e-07
-5.75512e-07
-6.17349e-07
-3.82956e-07
-6.29153e-07
-1.9883e-07
-6.21032e-07
-2.55776e-10
-5.85519e-07
1.95493e-07
-5.2088e-07
3.80628e-07
-4.29183e-07
5.44681e-07
-3.14636e-07
6.79033e-07
-1.83365e-07
7.74998e-07
8.25428e-07
-4.32053e-08
-3.37648e-07
-1.23114e-06
-4.87008e-07
-8.49084e-07
-5.19299e-07
-5.43221e-07
-5.43553e-07
-3.58702e-07
-5.5821e-07
-1.84173e-07
-5.52016e-07
-6.44992e-09
-5.21268e-07
1.64745e-07
-4.6497e-07
3.2433e-07
-3.84916e-07
4.64627e-07
-2.84455e-07
5.78572e-07
-1.68776e-07
6.5932e-07
7.01227e-07
-4.4575e-08
-2.56002e-07
-9.75133e-07
-3.92594e-07
-7.12492e-07
-4.45296e-07
-4.90519e-07
-4.79855e-07
-3.24143e-07
-4.97864e-07
-1.66164e-07
-4.94185e-07
-1.01291e-08
-4.67368e-07
1.37928e-07
-4.17755e-07
2.74717e-07
-3.47112e-07
3.93984e-07
-2.58621e-07
4.9008e-07
-1.57008e-07
5.57707e-07
5.92045e-07
-4.78266e-08
-2.00529e-07
-7.74604e-07
-3.22894e-07
-5.90127e-07
-3.861e-07
-4.27313e-07
-4.26733e-07
-2.83509e-07
-4.47254e-07
-1.45644e-07
-4.45856e-07
-1.15266e-08
-4.22765e-07
1.14837e-07
-3.78563e-07
2.30515e-07
-3.15346e-07
3.30768e-07
-2.36245e-07
4.10978e-07
-1.45544e-07
4.67006e-07
4.94928e-07
-4.84269e-08
-1.62953e-07
-6.11651e-07
-2.72674e-07
-4.80406e-07
-3.39761e-07
-3.60226e-07
-3.8324e-07
-2.4003e-07
-4.05363e-07
-1.23521e-07
-4.06075e-07
-1.08146e-08
-3.86032e-07
9.47938e-08
-3.46396e-07
1.90878e-07
-2.89236e-07
2.73608e-07
-2.17651e-07
3.39394e-07
-1.35506e-07
3.84861e-07
4.07185e-07
-4.77625e-08
-1.3728e-07
-4.74371e-07
-2.36497e-07
-3.8119e-07
-3.03948e-07
-2.92775e-07
-3.48263e-07
-1.95715e-07
-3.71265e-07
-1.00518e-07
-3.73554e-07
-8.52588e-09
-3.5607e-07
7.73096e-08
-3.20237e-07
1.55046e-07
-2.67998e-07
2.21369e-07
-2.02482e-07
2.73878e-07
-1.27217e-07
3.09596e-07
3.26765e-07
-4.67974e-08
-1.19581e-07
-3.5479e-07
-2.10596e-07
-2.90175e-07
-2.76671e-07
-2.267e-07
-3.20798e-07
-1.51588e-07
-3.44142e-07
-7.71743e-08
-3.47541e-07
-5.12705e-09
-3.32032e-07
6.18012e-08
-2.99115e-07
1.22128e-07
-2.50799e-07
1.73053e-07
-1.89999e-07
2.13078e-07
-1.2018e-07
2.39777e-07
2.52092e-07
-4.55072e-08
-1.07199e-07
-2.47591e-07
-1.9194e-07
-2.05434e-07
-2.56081e-07
-1.62559e-07
-2.99504e-07
-1.08166e-07
-3.22894e-07
-5.37839e-08
-3.26972e-07
-1.04898e-09
-3.12833e-07
4.76619e-08
-2.81897e-07
9.11925e-08
-2.36374e-07
1.2753e-07
-1.79023e-07
1.55727e-07
-1.1328e-07
1.74034e-07
1.81826e-07
-4.3013e-08
-9.79471e-08
-1.49644e-07
-1.77614e-07
-1.25767e-07
-2.39905e-07
-1.00268e-07
-2.82484e-07
-6.55859e-08
-3.05578e-07
-3.069e-08
-3.09749e-07
3.12175e-09
-2.96254e-07
3.41674e-08
-2.66428e-07
6.13655e-08
-2.2259e-07
8.36922e-08
-1.67429e-07
1.00566e-07
-1.04431e-07
1.11035e-07
1.14753e-07
-3.73582e-08
-8.85807e-08
-6.10629e-08
-1.62627e-07
-5.17211e-08
-2.21828e-07
-4.10669e-08
-2.62141e-07
-2.52726e-08
-2.83379e-07
-9.45201e-09
-2.86105e-07
5.84724e-09
-2.71483e-07
1.95452e-08
-2.41218e-07
3.11012e-08
-1.97686e-07
4.01601e-08
-1.4372e-07
4.66002e-08
-8.27326e-08
5.00476e-08
5.04402e-08
-1.84201e-08
-6.10629e-08
-1.12784e-07
-1.53851e-07
-1.79124e-07
-1.88576e-07
-1.82728e-07
-1.63183e-07
-1.32082e-07
-9.19218e-08
-4.53216e-08
4.72602e-09
5.51662e-08
8.66197e-08
9.63333e-07
2.28726e-07
9.0062e-07
3.54049e-07
7.80671e-07
4.55054e-07
6.17168e-07
5.25174e-07
4.21032e-07
5.55535e-07
2.10694e-07
5.38559e-07
6.55248e-10
4.70049e-07
-2.02511e-07
3.5948e-07
-4.17653e-07
2.43285e-07
-7.05222e-07
1.45224e-07
-1.04604e-06
-1.15502e-06
9.60419e-08
8.24086e-07
2.2631e-07
7.70353e-07
3.3793e-07
6.69051e-07
4.26578e-07
5.2852e-07
4.86896e-07
3.60714e-07
5.168e-07
1.8079e-07
5.14534e-07
2.92109e-09
4.80037e-07
-1.68015e-07
4.15826e-07
-3.53441e-07
3.18456e-07
-6.07853e-07
1.67785e-07
-8.95365e-07
-9.8724e-07
7.96221e-08
6.99889e-07
1.9582e-07
6.54155e-07
2.95738e-07
5.69133e-07
3.74076e-07
4.50181e-07
4.27845e-07
3.06944e-07
4.5663e-07
1.52006e-07
4.62705e-07
-3.15371e-09
4.47618e-07
-1.52928e-07
4.06862e-07
-3.12686e-07
3.18461e-07
-5.19452e-07
1.66336e-07
-7.43239e-07
-8.20904e-07
6.20285e-08
5.90034e-07
1.63883e-07
5.523e-07
2.53144e-07
4.79872e-07
3.23665e-07
3.79661e-07
3.72083e-07
2.58526e-07
3.9802e-07
1.26068e-07
4.03565e-07
-8.6986e-09
3.91657e-07
-1.41019e-07
3.56219e-07
-2.77249e-07
2.77602e-07
-4.40835e-07
1.45307e-07
-6.10944e-07
-6.75597e-07
4.91696e-08
4.92438e-07
1.40824e-07
4.60646e-07
2.20876e-07
3.9982e-07
2.84455e-07
3.16082e-07
3.28328e-07
2.14652e-07
3.51427e-07
1.02969e-07
3.54844e-07
-1.2115e-08
3.40127e-07
-1.26302e-07
3.04411e-07
-2.41532e-07
2.35221e-07
-3.71645e-07
1.24085e-07
-4.99809e-07
-5.51512e-07
3.9837e-08
4.04838e-07
1.23539e-07
3.76944e-07
1.96213e-07
3.27146e-07
2.54021e-07
2.58274e-07
2.94479e-07
1.74194e-07
3.15644e-07
8.18038e-08
3.17803e-07
-1.42733e-08
3.01556e-07
-1.10056e-07
2.65654e-07
-2.0563e-07
2.0271e-07
-3.08702e-07
1.07079e-07
-4.04177e-07
-4.44433e-07
3.39073e-08
3.24133e-07
1.1011e-07
3.00742e-07
1.7658e-07
2.60675e-07
2.30524e-07
2.04331e-07
2.67819e-07
1.36899e-07
2.87653e-07
6.19701e-08
2.89204e-07
-1.58242e-08
2.72665e-07
-9.35163e-08
2.37296e-07
-1.70261e-07
1.78729e-07
-2.50135e-07
9.43599e-08
-3.19808e-07
-3.50073e-07
2.96105e-08
2.49016e-07
9.95864e-08
2.30766e-07
1.61979e-07
1.98282e-07
2.11981e-07
1.54329e-07
2.47104e-07
1.01776e-07
2.65669e-07
4.34047e-08
2.6687e-07
-1.70249e-08
2.50746e-07
-7.73925e-08
2.16396e-07
-1.35911e-07
1.61341e-07
-1.9508e-07
8.52509e-08
-2.43717e-07
-2.64822e-07
2.76754e-08
1.78327e-07
9.33755e-08
1.65066e-07
1.52147e-07
1.39511e-07
1.98974e-07
1.07502e-07
2.32269e-07
6.8481e-08
2.4972e-07
2.59538e-08
2.50619e-07
-1.79246e-08
2.34707e-07
-6.14801e-08
2.01407e-07
-1.02612e-07
1.49168e-07
-1.42841e-07
7.89198e-08
-1.73469e-07
-1.85902e-07
2.91741e-08
1.11795e-07
9.28263e-08
1.01413e-07
1.47836e-07
8.4501e-08
1.92512e-07
6.2826e-08
2.23525e-07
3.74677e-08
2.39562e-07
9.91678e-09
2.39588e-07
-1.79504e-08
2.2343e-07
-4.53217e-08
1.90694e-07
-6.98762e-08
1.40336e-07
-9.24824e-08
7.41053e-08
-1.07238e-07
-1.11797e-07
4.50049e-08
4.83701e-08
1.04678e-07
4.17405e-08
1.55821e-07
3.33573e-08
1.96203e-07
2.24447e-08
2.2329e-07
1.03799e-08
2.35477e-07
-2.2698e-09
2.32443e-07
-1.4916e-08
2.13691e-07
-2.65697e-08
1.79533e-07
-3.57183e-08
1.29857e-07
-4.28064e-08
6.7667e-08
-4.50485e-08
-4.41301e-08
1.03536e-07
1.45277e-07
1.78634e-07
2.01079e-07
2.11459e-07
2.09189e-07
1.94273e-07
1.67703e-07
1.31985e-07
8.91786e-08
4.41301e-08
)
;

boundaryField
{
    rotor
    {
        type            calculated;
        value           nonuniform 0();
    }
    stator
    {
        type            calculated;
        value           nonuniform List<scalar> 
96
(
-6.56205e-35
0
2.40741e-35
0
0
6.62038e-35
0
3.00927e-36
3.00927e-36
0
-5.97629e-36
1.61748e-35
1.12116e-34
0
-3.16395e-35
3.00927e-36
-3.00927e-36
-1.2206e-35
1.80556e-35
-6.18751e-36
4.79793e-35
0
4.81482e-35
2.39051e-35
2.40741e-35
3.59422e-35
1.20371e-35
3.61112e-35
-6.01853e-36
0
0
0
0
0
0
0
0
0
-1.05324e-35
-1.58912e-36
0
-3.00927e-36
0
-1.20371e-35
-1.80556e-35
0
-6.01853e-35
0
0
-6.01853e-36
0
0
6.01853e-36
-3.00927e-36
0
6.01853e-36
0
0
0
0
0
6.01853e-36
3.00927e-36
6.01853e-36
0
6.01853e-36
-6.01853e-36
0
0
0
0
0
0
-6.01853e-36
-3.00927e-36
-6.01853e-36
0
0
6.01853e-36
0
0
0
0
1.20371e-35
0
6.01853e-36
3.00927e-36
6.01853e-36
0
0
-6.01853e-36
0
0
0
0
-1.20371e-35
)
;
    }
    AMI1
    {
        type            cyclicAMI;
        value           nonuniform 0();
    }
    AMI2
    {
        type            cyclicAMI;
        value           nonuniform List<scalar> 
48
(
2.15526e-06
1.70919e-06
1.36493e-06
9.7696e-07
5.30174e-07
6.98379e-08
-3.55356e-07
-7.14777e-07
-1.01963e-06
-1.30208e-06
-1.57026e-06
-1.82277e-06
-1.90221e-06
-1.78321e-06
-1.5548e-06
-1.22124e-06
-7.80575e-07
-2.88001e-07
1.92407e-07
6.34424e-07
1.0558e-06
1.47922e-06
1.90815e-06
2.22852e-06
2.15389e-06
1.70666e-06
1.36048e-06
9.71566e-07
5.25575e-07
6.65715e-08
-3.57261e-07
-7.1536e-07
-1.01885e-06
-1.29953e-06
-1.56522e-06
-1.8152e-06
-1.89399e-06
-1.77624e-06
-1.55068e-06
-1.22051e-06
-7.81862e-07
-2.89794e-07
1.92334e-07
6.36487e-07
1.0591e-06
1.48207e-06
1.90967e-06
2.22899e-06
)
;
    }
    front
    {
        type            empty;
        value           nonuniform 0();
    }
    back
    {
        type            empty;
        value           nonuniform 0();
    }
    procBoundary0to1
    {
        type            processor;
        value           nonuniform List<scalar> 8(4.27747e-07 5.36972e-07 6.71644e-07 6.24889e-07 -4.26697e-07 -5.36916e-07 -6.71672e-07 -6.24833e-07);
    }
}


// ************************************************************************* //
