/*--------------------------------*- C++ -*----------------------------------*\
| =========                 |                                                 |
| \\      /  F ield         | OpenFOAM: The Open Source CFD Toolbox           |
|  \\    /   O peration     | Version:  v1606+                                |
|   \\  /    A nd           | Web:      www.OpenFOAM.com                      |
|    \\/     M anipulation  |                                                 |
\*---------------------------------------------------------------------------*/
FoamFile
{
    version     2.0;
    format      ascii;
    class       volScalarField;
    location    "1.1";
    object      p;
}
// * * * * * * * * * * * * * * * * * * * * * * * * * * * * * * * * * * * * * //

dimensions      [0 2 -2 0 0 0 0];

internalField   nonuniform List<scalar> 
3072
(
-0.0621966
-0.0622465
-0.0623167
-0.0624079
-0.062481
-0.0625504
-0.0625932
-0.0626013
-0.0625802
-0.0625385
-0.0624771
-0.0623714
-0.0583062
-0.05846
-0.0586489
-0.0588478
-0.0589749
-0.0589262
-0.0586965
-0.0583308
-0.0579151
-0.0575543
-0.0573086
-0.0571391
-0.056521
-0.0567137
-0.0571027
-0.0574352
-0.0575063
-0.0572623
-0.0567473
-0.0560586
-0.0553351
-0.0547053
-0.0542059
-0.0537721
-0.0532104
-0.0537808
-0.0545173
-0.0550809
-0.0552722
-0.0550182
-0.0543684
-0.053428
-0.0523423
-0.0512457
-0.0502012
-0.0492141
-0.0496788
-0.0505524
-0.0514597
-0.0521138
-0.0523366
-0.0520642
-0.0513295
-0.0502314
-0.0488956
-0.0474309
-0.0459396
-0.0445422
-0.0453338
-0.046314
-0.0472106
-0.0479228
-0.0482632
-0.0481227
-0.0474906
-0.0464279
-0.0450157
-0.0433491
-0.0415988
-0.0399942
-0.0401267
-0.0408197
-0.0416586
-0.0423579
-0.0428272
-0.0429308
-0.0425755
-0.0417351
-0.0404364
-0.0387865
-0.0370199
-0.0354241
-0.0342678
-0.0345245
-0.0349313
-0.0354338
-0.0359807
-0.0363819
-0.0364484
-0.0360558
-0.0351723
-0.0338883
-0.032429
-0.0310661
-0.0281313
-0.027735
-0.0275319
-0.027696
-0.02826
-0.0289717
-0.0295517
-0.0298004
-0.0296259
-0.0290475
-0.0281937
-0.0272559
-0.0219915
-0.0209659
-0.0202223
-0.0201502
-0.0208855
-0.0220401
-0.0232189
-0.0241706
-0.0247704
-0.0249732
-0.0247968
-0.0243258
-0.0159009
-0.014571
-0.0134618
-0.0134949
-0.0147271
-0.0165625
-0.0184572
-0.0201179
-0.0214138
-0.0222604
-0.0225904
-0.022399
-0.0107333
-0.00866928
-0.00738083
-0.00797871
-0.00999339
-0.0125845
-0.015201
-0.0175267
-0.0194136
-0.020747
-0.0213978
-0.0212826
-0.0621673
-0.0618002
-0.0612156
-0.0603877
-0.0593389
-0.0581192
-0.0567867
-0.0555479
-0.0546143
-0.0540691
-0.0538376
-0.0537789
-0.0569404
-0.0566044
-0.0560362
-0.0551567
-0.053942
-0.0525333
-0.0512646
-0.0503047
-0.0497723
-0.0497286
-0.0500614
-0.0504274
-0.0532978
-0.0526744
-0.051817
-0.0507052
-0.049407
-0.0480517
-0.0468192
-0.0459343
-0.045618
-0.0461128
-0.0472933
-0.0482625
-0.0482609
-0.0473047
-0.0463258
-0.0453357
-0.044351
-0.043406
-0.0425349
-0.0418571
-0.0415505
-0.0420213
-0.0436684
-0.0454181
-0.0433368
-0.0423552
-0.0415489
-0.040804
-0.040026
-0.0392108
-0.0384621
-0.037887
-0.0375411
-0.0375485
-0.038765
-0.0415837
-0.0386978
-0.0377266
-0.0369605
-0.0362239
-0.0354165
-0.034563
-0.0337592
-0.0331254
-0.0327432
-0.0326246
-0.0333366
-0.0366731
-0.0341722
-0.0332443
-0.0324826
-0.0317132
-0.0308378
-0.0298848
-0.0289188
-0.0280493
-0.0274192
-0.0272145
-0.0277335
-0.0307022
-0.0299667
-0.0291081
-0.0283279
-0.0275063
-0.0265825
-0.0255081
-0.0243148
-0.023092
-0.0219814
-0.0212723
-0.0212625
-0.0234858
-0.0263852
-0.0255991
-0.0248188
-0.0239404
-0.0228734
-0.0215825
-0.0200773
-0.0184173
-0.0167072
-0.0151868
-0.0141836
-0.0149857
-0.0236761
-0.0229048
-0.0220175
-0.0209593
-0.0196722
-0.018106
-0.0162394
-0.0140916
-0.0117091
-0.00928313
-0.0070488
-0.00603321
-0.0217931
-0.0208989
-0.0197999
-0.0185123
-0.0169841
-0.0151475
-0.0129429
-0.0103373
-0.00728739
-0.00385613
-8.25107e-05
0.00263578
-0.0206181
-0.0194945
-0.0181351
-0.0166041
-0.0148656
-0.0128302
-0.0104041
-0.0075167
-0.00407155
3.40747e-05
0.00532482
0.0105993
-0.0622514
-0.0622464
-0.0622706
-0.0623418
-0.0624279
-0.0624992
-0.0625388
-0.0625427
-0.0625199
-0.0624807
-0.0624257
-0.062328
-0.0583322
-0.0584558
-0.0586365
-0.0588357
-0.0589493
-0.058892
-0.0586527
-0.058279
-0.0578606
-0.0575029
-0.0572625
-0.0570959
-0.0565922
-0.0567631
-0.0571328
-0.057447
-0.0574999
-0.0572382
-0.0567078
-0.0560085
-0.0552809
-0.054652
-0.0541546
-0.0537208
-0.0532536
-0.0538182
-0.0545445
-0.0550954
-0.0552725
-0.0550024
-0.0543368
-0.0533843
-0.0522928
-0.0511955
-0.0501531
-0.0491689
-0.0497277
-0.0505935
-0.051493
-0.0521374
-0.0523485
-0.0520623
-0.0513131
-0.0502026
-0.0488581
-0.0473891
-0.0458989
-0.0445096
-0.0453902
-0.0463629
-0.0472591
-0.0479679
-0.0483004
-0.0481474
-0.0475
-0.0464222
-0.0449971
-0.0433224
-0.0415734
-0.0399816
-0.0401966
-0.0408921
-0.0417327
-0.0424341
-0.0428988
-0.0429898
-0.0426165
-0.0417559
-0.0404387
-0.0387772
-0.0370112
-0.0354295
-0.0343469
-0.0346081
-0.0350244
-0.0355355
-0.0360821
-0.0364722
-0.036519
-0.0361023
-0.0351951
-0.0338947
-0.0324328
-0.0310818
-0.0282138
-0.027823
-0.0276308
-0.027804
-0.0283673
-0.0290681
-0.0296304
-0.0298571
-0.0296602
-0.0290647
-0.0282051
-0.0272744
-0.0220731
-0.0210531
-0.0203189
-0.0202513
-0.0209781
-0.0221142
-0.0232716
-0.0242036
-0.0247872
-0.0249791
-0.0248006
-0.0243355
-0.0159779
-0.0146539
-0.0135535
-0.013588
-0.0148048
-0.0166128
-0.0184799
-0.0201198
-0.0214034
-0.022245
-0.0225781
-0.022393
-0.0107917
-0.00874191
-0.00746454
-0.00806572
-0.0100645
-0.0126237
-0.015209
-0.017514
-0.0193911
-0.0207236
-0.0213795
-0.0212574
-0.0621312
-0.0617692
-0.0611862
-0.0603567
-0.0593058
-0.0580798
-0.0567425
-0.0555035
-0.0545748
-0.0540383
-0.0538151
-0.05376
-0.0568971
-0.0565587
-0.0559857
-0.0550997
-0.0538762
-0.0524653
-0.0512005
-0.0502509
-0.0497341
-0.0497071
-0.0500506
-0.050419
-0.0532435
-0.0526152
-0.0517529
-0.0506394
-0.0493441
-0.0479973
-0.0467778
-0.0459067
-0.0456039
-0.0461118
-0.0473036
-0.0482761
-0.0482186
-0.0472667
-0.0462959
-0.0453167
-0.0443415
-0.0434046
-0.0425394
-0.0418676
-0.0415647
-0.0420327
-0.0436772
-0.0454331
-0.0433186
-0.0423545
-0.0415627
-0.040824
-0.0400452
-0.0392259
-0.0384749
-0.0379002
-0.037557
-0.0375619
-0.0387697
-0.0416
-0.0387059
-0.0377552
-0.0369998
-0.0362622
-0.0354492
-0.0345891
-0.0337796
-0.0331429
-0.0327616
-0.0326456
-0.0333554
-0.036697
-0.0341991
-0.03329
-0.0325367
-0.0317635
-0.0308852
-0.0299252
-0.0289522
-0.0280778
-0.0274457
-0.0272421
-0.0277624
-0.0307333
-0.0300026
-0.029162
-0.0283917
-0.0275738
-0.0266422
-0.0255595
-0.0243583
-0.0231294
-0.0220154
-0.0213052
-0.0212954
-0.0235201
-0.0264213
-0.0256525
-0.0248827
-0.0240086
-0.0229387
-0.0216411
-0.0201281
-0.0184607
-0.016745
-0.0152219
-0.0142185
-0.0150247
-0.0237029
-0.0229526
-0.0220808
-0.0210301
-0.019743
-0.0181717
-0.0162975
-0.014141
-0.0117498
-0.00931678
-0.00708046
-0.00607464
-0.0218118
-0.0209435
-0.0198615
-0.0185836
-0.0170582
-0.0152187
-0.0130074
-0.0103927
-0.0073317
-0.00388785
-0.000105968
0.00260626
-0.0206355
-0.0195351
-0.0181939
-0.0166746
-0.0149408
-0.0129041
-0.0104724
-0.00757627
-0.00411919
2.70166e-06
0.00530681
0.0105832
-0.0622021
-0.0622604
-0.0623377
-0.0624311
-0.0625062
-0.0625759
-0.0626201
-0.06263
-0.0626109
-0.062571
-0.0625111
-0.0624061
-0.0583185
-0.0584752
-0.0586657
-0.0588659
-0.0589928
-0.0589465
-0.0587197
-0.0583566
-0.0579432
-0.0575843
-0.0573397
-0.0571697
-0.0565274
-0.0567227
-0.0571134
-0.0574483
-0.0575209
-0.0572794
-0.0567671
-0.0560808
-0.0553594
-0.0547312
-0.0542324
-0.0537978
-0.0532215
-0.0537911
-0.0545278
-0.0550927
-0.0552856
-0.0550336
-0.054386
-0.0534476
-0.0523638
-0.0512687
-0.0502251
-0.0492373
-0.0496903
-0.050564
-0.0514723
-0.0521275
-0.0523516
-0.0520805
-0.0513469
-0.0502497
-0.0489147
-0.0474505
-0.0459593
-0.0445612
-0.0453468
-0.0463281
-0.0472269
-0.0479401
-0.0482812
-0.0481412
-0.0475091
-0.0464461
-0.0450334
-0.043366
-0.0416148
-0.0400096
-0.0401415
-0.0408387
-0.0416793
-0.0423796
-0.0428493
-0.0429526
-0.0425964
-0.0417544
-0.0404536
-0.0388015
-0.0370334
-0.0354371
-0.0342834
-0.034544
-0.0349542
-0.0354586
-0.0360061
-0.0364068
-0.0364717
-0.0360763
-0.0351892
-0.0339017
-0.0324403
-0.0310773
-0.028145
-0.0277531
-0.0275531
-0.0277187
-0.0282829
-0.0289942
-0.0295729
-0.029819
-0.0296409
-0.029059
-0.0282034
-0.0272659
-0.0220026
-0.020981
-0.0202387
-0.0201658
-0.0208996
-0.0220532
-0.0232312
-0.0241815
-0.0247794
-0.0249806
-0.0248041
-0.0243346
-0.0159094
-0.0145826
-0.0134728
-0.0135026
-0.0147318
-0.0165659
-0.0184605
-0.0201212
-0.0214169
-0.022264
-0.0225959
-0.022407
-0.0107377
-0.00867646
-0.00738701
-0.00798048
-0.00999178
-0.0125818
-0.0151994
-0.0175264
-0.0194146
-0.0207499
-0.0214037
-0.0212891
-0.0622015
-0.0618325
-0.0612445
-0.0604121
-0.0593584
-0.0581325
-0.0567943
-0.0555514
-0.0546158
-0.0540707
-0.0538406
-0.0537828
-0.0569688
-0.0566292
-0.056056
-0.0551706
-0.0539491
-0.052535
-0.0512625
-0.0503012
-0.04977
-0.0497293
-0.0500655
-0.0504332
-0.0533208
-0.0526932
-0.0518303
-0.050713
-0.0494102
-0.0480519
-0.0468179
-0.0459329
-0.045618
-0.046116
-0.0473007
-0.0482724
-0.0482819
-0.047322
-0.0463392
-0.0453459
-0.044359
-0.0434124
-0.04254
-0.0418616
-0.0415548
-0.0420257
-0.0436746
-0.0454284
-0.0433544
-0.042371
-0.0415629
-0.0408159
-0.0400357
-0.0392183
-0.0384679
-0.0378917
-0.0375453
-0.0375521
-0.0387687
-0.0415932
-0.0387127
-0.0377411
-0.0369742
-0.0362361
-0.0354268
-0.0345712
-0.0337654
-0.03313
-0.032747
-0.0326284
-0.033341
-0.0366813
-0.0341856
-0.0332584
-0.0324967
-0.031726
-0.0308496
-0.0298946
-0.0289262
-0.0280546
-0.0274227
-0.0272173
-0.0277366
-0.0307074
-0.0299792
-0.0291222
-0.0283429
-0.0275216
-0.0265956
-0.0255188
-0.0243229
-0.0230973
-0.0219841
-0.0212727
-0.0212618
-0.0234856
-0.0263971
-0.025613
-0.0248339
-0.0239554
-0.0228869
-0.0215938
-0.0200857
-0.0184223
-0.0167082
-0.0151837
-0.014177
-0.0149779
-0.0236877
-0.0229191
-0.0220334
-0.0209751
-0.0196866
-0.0181181
-0.0162486
-0.0140969
-0.011709
-0.00927613
-0.00703502
-0.00601581
-0.0218056
-0.0209144
-0.0198164
-0.0185284
-0.0169988
-0.0151602
-0.012953
-0.0103438
-0.00728765
-0.00384674
-6.21716e-05
0.00266204
-0.0206318
-0.0195105
-0.0181516
-0.0166198
-0.0148798
-0.0128427
-0.0104149
-0.00752494
-0.00407401
4.29047e-05
0.00534729
0.0106289
-0.0622108
-0.0622057
-0.0622299
-0.062301
-0.0623869
-0.0624581
-0.0624975
-0.0625013
-0.0624783
-0.0624393
-0.0623846
-0.0622873
-0.0582905
-0.0584131
-0.0585946
-0.0587939
-0.058907
-0.0588497
-0.0586106
-0.0582372
-0.0578193
-0.0574624
-0.0572229
-0.0570568
-0.0565519
-0.0567225
-0.05709
-0.0574031
-0.057456
-0.0571945
-0.0566645
-0.0559659
-0.0552393
-0.0546118
-0.0541156
-0.0536825
-0.0532134
-0.0537766
-0.0545015
-0.0550517
-0.0552286
-0.0549585
-0.0542931
-0.0533412
-0.0522507
-0.0511548
-0.0501138
-0.0491308
-0.0496887
-0.0505531
-0.0514517
-0.0520955
-0.0523063
-0.0520199
-0.0512708
-0.0501606
-0.0488167
-0.0473486
-0.0458597
-0.0444719
-0.0453532
-0.0463248
-0.0472208
-0.0479293
-0.0482617
-0.0481086
-0.047461
-0.0463831
-0.0449581
-0.0432838
-0.0415358
-0.0399457
-0.0401626
-0.0408587
-0.0416991
-0.0424005
-0.0428653
-0.042956
-0.0425823
-0.0417212
-0.0404034
-0.0387416
-0.0369762
-0.0353959
-0.0343155
-0.0345778
-0.034995
-0.0355065
-0.0360533
-0.0364435
-0.0364898
-0.0360721
-0.0351637
-0.0338622
-0.0324001
-0.03105
-0.0281836
-0.0277942
-0.0276028
-0.0277761
-0.0283392
-0.0290402
-0.0296026
-0.0298288
-0.0296307
-0.029034
-0.0281738
-0.0272435
-0.0220436
-0.0210244
-0.0202894
-0.0202201
-0.0209457
-0.0220817
-0.0232399
-0.0241727
-0.0247563
-0.0249479
-0.0247693
-0.0243048
-0.0159489
-0.0146248
-0.0135217
-0.0135524
-0.0147665
-0.0165744
-0.0184433
-0.0200853
-0.0213701
-0.0222125
-0.0225465
-0.0223624
-0.0107678
-0.00871373
-0.00743103
-0.00802592
-0.0100213
-0.0125811
-0.0151695
-0.0174778
-0.0193572
-0.020691
-0.021348
-0.0212273
-0.0620908
-0.061729
-0.0611461
-0.0603164
-0.0592655
-0.058039
-0.0567013
-0.0554617
-0.0545326
-0.0539959
-0.0537727
-0.0537178
-0.0568581
-0.0565194
-0.0559459
-0.0550592
-0.0538349
-0.0524234
-0.0511582
-0.0502084
-0.0496915
-0.0496646
-0.0500084
-0.050377
-0.0532054
-0.0525767
-0.0517136
-0.0505993
-0.0493036
-0.0479568
-0.0467374
-0.0458662
-0.0455629
-0.04607
-0.0472615
-0.0482338
-0.0481813
-0.0472297
-0.046259
-0.0452795
-0.0443038
-0.0433663
-0.0425005
-0.0418283
-0.0415245
-0.0419906
-0.0436328
-0.0453885
-0.0432826
-0.0423198
-0.0415284
-0.0407887
-0.0400083
-0.0391872
-0.0384346
-0.037859
-0.037515
-0.0375183
-0.038723
-0.0415527
-0.0386721
-0.0377229
-0.0369675
-0.0362284
-0.0354133
-0.0345509
-0.0337394
-0.0331011
-0.0327185
-0.032601
-0.0333082
-0.0366479
-0.0341675
-0.0332597
-0.0325061
-0.0317309
-0.0308507
-0.0298884
-0.0289131
-0.0280367
-0.0274027
-0.0271972
-0.0277149
-0.0306831
-0.0299723
-0.0291327
-0.028362
-0.0275431
-0.0266091
-0.025524
-0.0243204
-0.0230894
-0.0219733
-0.0212609
-0.0212483
-0.02347
-0.0263915
-0.0256234
-0.0248535
-0.0239784
-0.0229066
-0.0216067
-0.0200911
-0.0184216
-0.0167039
-0.0151792
-0.0141739
-0.0149784
-0.0236732
-0.022924
-0.0220524
-0.0210009
-0.0197118
-0.0181382
-0.0162615
-0.0141027
-0.0117098
-0.00927596
-0.00703973
-0.00603569
-0.0217826
-0.0209157
-0.0198341
-0.0185554
-0.0170282
-0.0151862
-0.0129724
-0.0103557
-0.00729342
-0.0038496
-7.02557e-05
0.00263717
-0.0206072
-0.0195081
-0.0181675
-0.0166475
-0.014912
-0.0128729
-0.010439
-0.0075412
-0.00408348
3.76795e-05
0.00533762
0.0106055
-0.00294908
-0.00197756
-0.00167795
-0.00379015
-0.00681948
-0.00998694
-0.0130775
-0.0158754
-0.0181942
-0.0198684
-0.0207238
-0.0206971
0.000888828
-0.00079168
-0.00110382
-0.002496
-0.0052137
-0.00849816
-0.0117836
-0.0147792
-0.0172923
-0.019119
-0.0200394
-0.0199508
0.00136246
-0.000829502
-0.00171973
-0.00289102
-0.0051934
-0.00814937
-0.0112192
-0.014107
-0.016556
-0.0183083
-0.0191232
-0.0189089
0.000862361
-0.000851487
-0.00201908
-0.00326661
-0.00530663
-0.00792412
-0.0106972
-0.0133293
-0.0155206
-0.0170429
-0.0176723
-0.0174245
-0.0198007
-0.0184403
-0.0168437
-0.015125
-0.0132592
-0.0111415
-0.00866313
-0.00574813
-0.0023535
0.00143901
0.00514468
0.00602898
-0.0189664
-0.0174567
-0.0157319
-0.0139369
-0.0120502
-0.00996856
-0.00759502
-0.004879
-0.00184304
0.00134797
0.00386851
0.00463124
-0.0178685
-0.0163611
-0.0146823
-0.0129523
-0.0111469
-0.00917946
-0.0069971
-0.00460292
-0.00201736
0.000641781
0.00266088
0.00325781
-0.0164921
-0.0151741
-0.0136987
-0.0121471
-0.0104943
-0.00866871
-0.00667672
-0.00461463
-0.00249082
-0.000200371
0.00159018
0.00177073
-0.00299293
-0.00202304
-0.00174
-0.00386878
-0.00688779
-0.0100251
-0.0130855
-0.0158646
-0.0181766
-0.0198538
-0.0207227
-0.0207307
0.000878902
-0.00081464
-0.00116166
-0.00256939
-0.00527312
-0.00853092
-0.0117932
-0.0147756
-0.0172856
-0.0191178
-0.0200502
-0.0199775
0.00135066
-0.000860031
-0.00176858
-0.00294581
-0.0052387
-0.00817632
-0.0112287
-0.0141076
-0.016557
-0.0183167
-0.0191431
-0.0189382
0.000831366
-0.000889626
-0.00205967
-0.00330468
-0.00533575
-0.0079399
-0.0107002
-0.0133272
-0.01552
-0.0170509
-0.0176916
-0.0174555
-0.0198241
-0.0184797
-0.0169009
-0.0151941
-0.0133337
-0.0112156
-0.00873258
-0.00580994
-0.00240375
0.00140694
0.00512669
0.00601729
-0.0189951
-0.0174985
-0.0157885
-0.014004
-0.0121223
-0.0100405
-0.00766313
-0.0049412
-0.00189589
0.00131203
0.0038487
0.00462036
-0.0179037
-0.0164057
-0.0147379
-0.0130165
-0.0112154
-0.00924783
-0.00706171
-0.00466293
-0.00207191
0.000600981
0.00263601
0.00324372
-0.0165304
-0.0152194
-0.0137518
-0.0122074
-0.0105586
-0.00873315
-0.00673697
-0.00466978
-0.0025415
-0.000238824
0.00156829
0.00176624
-0.0029544
-0.00197798
-0.00167743
-0.00378893
-0.00681622
-0.00998266
-0.0130743
-0.0158742
-0.0181952
-0.0198726
-0.0207332
-0.0207147
0.000887876
-0.000788775
-0.00110414
-0.00249599
-0.0052105
-0.00849338
-0.0117796
-0.0147772
-0.0172929
-0.019124
-0.0200506
-0.0199672
0.00135894
-0.000830444
-0.00172057
-0.00289029
-0.0051901
-0.00814443
-0.0112141
-0.0141035
-0.0165554
-0.0183132
-0.019135
-0.0189248
0.000856127
-0.00085489
-0.00202013
-0.0032651
-0.00530258
-0.00791819
-0.0106902
-0.0133237
-0.0155173
-0.0170457
-0.0176834
-0.0174411
-0.0198163
-0.0184564
-0.0168594
-0.0151394
-0.013272
-0.0111528
-0.00867382
-0.00575817
-0.00235957
0.00144407
0.00516293
0.00605187
-0.0189827
-0.0174725
-0.0157464
-0.0139493
-0.0120608
-0.0099778
-0.0076044
-0.0048899
-0.00185334
0.00134683
0.00388062
0.00465119
-0.0178848
-0.0163758
-0.0146949
-0.0129626
-0.011155
-0.00918621
-0.007004
-0.00461256
-0.00203031
0.000634771
0.00266578
0.00327262
-0.0165091
-0.0151885
-0.01371
-0.0121558
-0.0105005
-0.00867321
-0.00668089
-0.00462093
-0.00250109
-0.000205699
0.00159656
0.00179099
-0.00296962
-0.00199598
-0.00170545
-0.00382572
-0.0068412
-0.00998044
-0.0130451
-0.0158283
-0.018143
-0.0198219
-0.0206918
-0.0207011
0.000901319
-0.000786227
-0.00112365
-0.00252449
-0.00522669
-0.00848705
-0.0117534
-0.0147395
-0.0172521
-0.0190856
-0.020019
-0.0199477
0.00137594
-0.000827669
-0.00173058
-0.00290414
-0.00519605
-0.00813524
-0.0111906
-0.0140723
-0.0165235
-0.0182843
-0.0191118
-0.0189085
0.000868523
-0.000852568
-0.00202283
-0.00326751
-0.00529877
-0.007904
-0.0106661
-0.0132945
-0.0154885
-0.01702
-0.0176617
-0.0174271
-0.0197961
-0.0184533
-0.0168753
-0.015168
-0.0133061
-0.011186
-0.00870122
-0.00577751
-0.00237147
0.00143777
0.00515182
0.00603191
-0.0189671
-0.0174724
-0.0157634
-0.0139786
-0.0120958
-0.0100125
-0.00763398
-0.00491172
-0.00186727
0.00133813
0.00386937
0.00463182
-0.0178761
-0.0163799
-0.0147131
-0.0129917
-0.0111897
-0.00922124
-0.0070347
-0.00463636
-0.00204686
0.00062306
0.00265314
0.00325378
-0.0165038
-0.0151943
-0.0137275
-0.012183
-0.0105335
-0.00870756
-0.00671165
-0.00464573
-0.00251953
-0.000220009
0.00158296
0.00177619
-0.0158482
-0.0159512
-0.0154795
-0.0145632
-0.0134022
-0.0120862
-0.0106165
-0.0089562
-0.00710466
-0.00522474
-0.00357172
-0.0018428
-0.0145452
-0.0147522
-0.0144456
-0.0137227
-0.0127203
-0.0115361
-0.0101848
-0.00866369
-0.00699139
-0.00530931
-0.0039801
-0.00267808
-0.0135053
-0.0137824
-0.0135683
-0.0129875
-0.0121314
-0.0110779
-0.00985964
-0.00849891
-0.007036
-0.00557101
-0.00450632
-0.00375535
-0.0126437
-0.0129351
-0.0128083
-0.0123432
-0.0116159
-0.0106929
-0.00961799
-0.00842926
-0.00718816
-0.00598577
-0.00510151
-0.00506459
1.74137e-05
0.000818315
0.000494808
-0.000579467
-0.00171845
-0.00297091
-0.00464028
-0.00672991
-0.00901536
-0.0114345
-0.0134536
-0.0150018
-0.000669027
0.000144571
-3.77167e-05
-0.000837602
-0.00188711
-0.00312525
-0.00466791
-0.0065142
-0.00853282
-0.0105812
-0.0123616
-0.0137362
-0.00122813
-0.000224843
-0.000447203
-0.00111526
-0.00208581
-0.00326994
-0.00469671
-0.0063516
-0.00814961
-0.0099284
-0.0115036
-0.0127378
-0.00148772
-0.000382814
-0.000695873
-0.00138414
-0.00230537
-0.00342264
-0.0047394
-0.00623006
-0.00784655
-0.00941587
-0.0108197
-0.0119321
-0.0158609
-0.0159736
-0.0155096
-0.0146024
-0.0134493
-0.0121404
-0.0106756
-0.00901694
-0.00716382
-0.00527956
-0.00361387
-0.0018669
-0.0145557
-0.014776
-0.0144734
-0.0137593
-0.0127651
-0.0115873
-0.0102401
-0.00871989
-0.0070455
-0.00535733
-0.00401438
-0.00269541
-0.0135153
-0.0137984
-0.0135948
-0.013023
-0.0121743
-0.0111262
-0.00991103
-0.00855055
-0.00708543
-0.00561368
-0.00453481
-0.00376919
-0.0126565
-0.012954
-0.0128351
-0.012378
-0.0116568
-0.0107381
-0.00966548
-0.00847674
-0.00723351
-0.00602496
-0.00512901
-0.00507767
1.44322e-05
0.000824354
0.000513718
-0.000551064
-0.00168532
-0.00293801
-0.00461218
-0.00671008
-0.00900435
-0.0114306
-0.0134512
-0.0149975
-0.000668354
0.000154971
-2.17853e-05
-0.000813701
-0.00185943
-0.00309757
-0.00464373
-0.00649595
-0.00852119
-0.0105755
-0.012357
-0.01373
-0.0012286
-0.000215394
-0.0004351
-0.00109415
-0.00206176
-0.00324589
-0.00467515
-0.00633414
-0.00813744
-0.00992015
-0.0114965
-0.0127295
-0.00148483
-0.000371647
-0.000675021
-0.00136357
-0.00228336
-0.00340068
-0.00471921
-0.00621256
-0.0078338
-0.00940543
-0.0108102
-0.0119214
-0.0158534
-0.0159616
-0.0154906
-0.014575
-0.0134127
-0.0120944
-0.0106221
-0.00895962
-0.00710776
-0.00522984
-0.00357307
-0.00183266
-0.0145461
-0.0147599
-0.0144532
-0.0137318
-0.0127293
-0.0115432
-0.0101894
-0.00866589
-0.00699236
-0.00530994
-0.00397625
-0.00266463
-0.0135041
-0.0137835
-0.0135736
-0.0129949
-0.0121389
-0.0110837
-0.00986316
-0.00850021
-0.00703568
-0.00556885
-0.00449937
-0.00374281
-0.0126431
-0.0129367
-0.0128125
-0.0123494
-0.011622
-0.0106975
-0.00962063
-0.00842993
-0.0071871
-0.00598265
-0.00509462
-0.0050551
4.48157e-05
0.000849292
0.000529866
-0.000543195
-0.00168224
-0.00293544
-0.00460568
-0.0066964
-0.00898322
-0.0114037
-0.0134236
-0.0149722
-0.000640086
0.000178777
-3.21262e-06
-0.000802299
-0.00185213
-0.00309096
-0.00463442
-0.00648162
-0.00850125
-0.0105514
-0.0123323
-0.0137074
-0.00120359
-0.000192943
-0.000414141
-0.00108088
-0.00205176
-0.00323649
-0.00466396
-0.00631958
-0.00811858
-0.00989861
-0.0114745
-0.0127093
-0.00146408
-0.000351806
-0.000661961
-0.00135042
-0.00227198
-0.00338975
-0.00470711
-0.00619838
-0.00781589
-0.00938607
-0.0107906
-0.0119036
-0.0158321
-0.015946
-0.0154833
-0.0145772
-0.0134249
-0.0121159
-0.0106506
-0.00899139
-0.00713842
-0.00525554
-0.0035923
-0.00184809
-0.0145277
-0.0147492
-0.0144473
-0.013734
-0.0127403
-0.0115624
-0.0102149
-0.00869431
-0.00702019
-0.00533331
-0.00399268
-0.00267585
-0.0134875
-0.0137714
-0.0135685
-0.0129974
-0.012149
-0.0111009
-0.00988559
-0.00852499
-0.00706026
-0.00558956
-0.00451275
-0.00374893
-0.0126286
-0.0129267
-0.0128086
-0.012352
-0.0116312
-0.0107126
-0.00963991
-0.00845127
-0.00720849
-0.00600076
-0.00510675
-0.00505724
2.96515e-05
0.00083556
0.00052173
-0.000545402
-0.00168219
-0.00293769
-0.00461473
-0.00671497
-0.00901084
-0.0114387
-0.013458
-0.0149991
-0.000653054
0.000165833
-1.46105e-05
-0.000808353
-0.00185627
-0.0030968
-0.00464534
-0.00649941
-0.00852572
-0.0105838
-0.0123644
-0.0137342
-0.00121375
-0.000205228
-0.000429462
-0.00108894
-0.00205844
-0.00324458
-0.00467578
-0.00633626
-0.00814113
-0.0099263
-0.0115029
-0.012734
-0.00147114
-0.000361802
-0.000665722
-0.00135794
-0.00227976
-0.0033988
-0.0047189
-0.00621347
-0.00783639
-0.00940949
-0.0108147
-0.0119245
-0.0119137
-0.0122134
-0.0121526
-0.0117848
-0.0111721
-0.0103739
-0.00943879
-0.00841667
-0.00737089
-0.00643116
-0.00578317
-0.00610231
-0.0113062
-0.0116112
-0.0116014
-0.0113142
-0.0108007
-0.010114
-0.00930437
-0.00842588
-0.00754498
-0.00677683
-0.00621635
-0.00615112
-0.0108138
-0.0111207
-0.0111492
-0.0109267
-0.0104956
-0.00990411
-0.00920152
-0.00844246
-0.00769045
-0.0070408
-0.00656838
-0.00645204
-0.0104198
-0.0107262
-0.0107828
-0.0106113
-0.0102475
-0.00973499
-0.00912127
-0.00845931
-0.00780825
-0.00724666
-0.00683825
-0.00669101
-0.0101047
-0.0104094
-0.0104873
-0.0103561
-0.0100467
-0.00959897
-0.00905798
-0.00847424
-0.00790242
-0.00740877
-0.00704876
-0.00689224
-0.00985345
-0.0101561
-0.0102504
-0.010151
-0.00988536
-0.00949021
-0.00900812
-0.00848692
-0.00797727
-0.00753653
-0.00721377
-0.00705798
-0.00965493
-0.00995553
-0.0100626
-0.00998824
-0.00975742
-0.00940435
-0.00896929
-0.00849752
-0.00803629
-0.00763663
-0.00734259
-0.00719169
-0.00950099
-0.00979985
-0.00991665
-0.00986179
-0.00965817
-0.00933806
-0.00893977
-0.00850633
-0.00808221
-0.00771397
-0.00744178
-0.00729688
-0.00938533
-0.00968277
-0.00980697
-0.00976685
-0.00958386
-0.00928874
-0.00891826
-0.00851363
-0.00811712
-0.00777218
-0.00751612
-0.00737674
-0.00930298
-0.00959931
-0.00972902
-0.00969959
-0.00953149
-0.00925437
-0.00890383
-0.00851971
-0.00814267
-0.00781408
-0.00756922
-0.00743403
-0.00924974
-0.00954607
-0.00967904
-0.00965678
-0.0094986
-0.00923336
-0.00889582
-0.00852492
-0.00816023
-0.00784185
-0.00760379
-0.00747114
-0.00921772
-0.00951737
-0.00965325
-0.0096353
-0.00948274
-0.00922392
-0.0088931
-0.00852876
-0.00817009
-0.00785702
-0.00762297
-0.00749365
-0.00088052
-0.000540599
-0.000967827
-0.00164502
-0.00252197
-0.00357429
-0.0047923
-0.00614741
-0.00759134
-0.00899167
-0.0102484
-0.0112549
-0.000811679
-0.000805783
-0.00124665
-0.0018979
-0.00272812
-0.00371687
-0.00484687
-0.00608704
-0.00738692
-0.00864654
-0.00977863
-0.0106939
-0.00095813
-0.00108439
-0.00151586
-0.0021348
-0.00291891
-0.00384779
-0.00489983
-0.00604215
-0.00722806
-0.00837243
-0.00940227
-0.0102418
-0.00117767
-0.00135005
-0.00176203
-0.00234829
-0.00308949
-0.00396437
-0.00494902
-0.00600984
-0.00710358
-0.00815568
-0.0091032
-0.0098815
-0.00139989
-0.0015865
-0.00197818
-0.00253446
-0.00323747
-0.00406513
-0.00499257
-0.00598626
-0.00700472
-0.00798318
-0.00886501
-0.00959413
-0.00160088
-0.00178872
-0.00216206
-0.00269233
-0.0033624
-0.0041499
-0.00502962
-0.00596867
-0.00692574
-0.00784567
-0.00867547
-0.00936524
-0.00177213
-0.0019563
-0.00231399
-0.00282242
-0.00346492
-0.00421913
-0.00505983
-0.00595462
-0.00686354
-0.00773696
-0.00852589
-0.00918454
-0.00191162
-0.00209074
-0.00243547
-0.00292609
-0.00354621
-0.00427365
-0.00508325
-0.00594311
-0.00681521
-0.00765243
-0.00840976
-0.00904442
-0.00202012
-0.00219424
-0.00252845
-0.00300505
-0.00360765
-0.00431438
-0.00510021
-0.00593379
-0.00677817
-0.0075884
-0.00832211
-0.00893901
-0.0020994
-0.00226918
-0.00259503
-0.00306114
-0.00365072
-0.00434229
-0.00511098
-0.00592615
-0.00675069
-0.00754197
-0.00825906
-0.00886366
-0.0021519
-0.00231806
-0.00263737
-0.00309636
-0.00367693
-0.00435838
-0.0051159
-0.00591965
-0.00673133
-0.00751071
-0.00821743
-0.00881437
-0.00218358
-0.00234599
-0.00266384
-0.00311345
-0.00368872
-0.0043648
-0.00511694
-0.00591435
-0.0067197
-0.00749295
-0.00819418
-0.00878655
-0.0119291
-0.0122341
-0.0121798
-0.0118185
-0.011211
-0.0104163
-0.00948302
-0.0084608
-0.00741285
-0.00646755
-0.00581036
-0.00611833
-0.0113235
-0.0116331
-0.0116286
-0.0113468
-0.0108376
-0.010154
-0.00934592
-0.00846728
-0.00758429
-0.00681189
-0.00624544
-0.00617424
-0.0108326
-0.0111434
-0.0111763
-0.0109582
-0.010531
-0.00994217
-0.0092409
-0.00848171
-0.00772792
-0.00707492
-0.00659798
-0.00647711
-0.0104397
-0.0107495
-0.0108099
-0.0106422
-0.0102817
-0.0097715
-0.00915894
-0.0084969
-0.00784439
-0.00728016
-0.00686837
-0.00671804
-0.0101254
-0.0104332
-0.0105145
-0.0103865
-0.0100799
-0.00963427
-0.00909433
-0.00851056
-0.00793759
-0.00744186
-0.0070793
-0.00692061
-0.00987475
-0.0101801
-0.0102775
-0.010181
-0.00991787
-0.00952456
-0.00904345
-0.00852229
-0.00801172
-0.00756935
-0.00724465
-0.00708729
-0.00967665
-0.00997981
-0.0100896
-0.0100179
-0.00978936
-0.00943797
-0.00900383
-0.00853216
-0.00807022
-0.00766927
-0.00737372
-0.00722166
-0.00952302
-0.00982429
-0.00994359
-0.00989116
-0.00968968
-0.00937113
-0.00897372
-0.00854042
-0.00811576
-0.00774649
-0.0074731
-0.00732733
-0.00940762
-0.00970734
-0.00983386
-0.00979602
-0.00961503
-0.0093214
-0.00895178
-0.00854732
-0.00815039
-0.00780462
-0.00754759
-0.00740753
-0.00932547
-0.00962398
-0.00975588
-0.00972862
-0.00956241
-0.00928673
-0.00893704
-0.00855313
-0.00817576
-0.00784647
-0.0076008
-0.00746506
-0.00927233
-0.00957067
-0.00970587
-0.0096857
-0.00952935
-0.00926552
-0.00892882
-0.00855816
-0.00819321
-0.00787422
-0.00763546
-0.00750235
-0.00924047
-0.00954198
-0.00968005
-0.00966416
-0.0095134
-0.00925596
-0.008926
-0.00856192
-0.00820302
-0.00788939
-0.00765467
-0.00752492
-0.000872079
-0.000527797
-0.000949031
-0.00162527
-0.0025013
-0.00355371
-0.00477303
-0.0061307
-0.00757682
-0.0089793
-0.0102366
-0.011242
-0.000800208
-0.000791635
-0.00122888
-0.00187887
-0.00270836
-0.00369719
-0.00482813
-0.00606987
-0.00737197
-0.00863282
-0.00976513
-0.0106792
-0.000944857
-0.00106945
-0.00149857
-0.00211634
-0.0028998
-0.00382871
-0.00488143
-0.00602494
-0.00721241
-0.00835763
-0.00938747
-0.0102258
-0.00116328
-0.00133458
-0.00174495
-0.00233022
-0.00307085
-0.0039457
-0.00493085
-0.00599262
-0.00708731
-0.00814001
-0.00908733
-0.0098644
-0.00138479
-0.00157068
-0.00196118
-0.00251662
-0.00321917
-0.00404677
-0.00497456
-0.005969
-0.00698799
-0.00796683
-0.00884828
-0.00957621
-0.00158532
-0.00177264
-0.00214511
-0.00267465
-0.00334436
-0.00413177
-0.00501172
-0.00595126
-0.00690873
-0.00782882
-0.00865805
-0.0093467
-0.00175625
-0.00194004
-0.00229707
-0.0028049
-0.00344706
-0.00420116
-0.00504198
-0.00593706
-0.00684635
-0.00771973
-0.00850793
-0.00916552
-0.00189553
-0.00207435
-0.00241855
-0.00290869
-0.00352847
-0.00425578
-0.00506545
-0.00592549
-0.0067978
-0.00763486
-0.00839141
-0.00902503
-0.00200388
-0.00217775
-0.00251154
-0.00298773
-0.00359002
-0.0042966
-0.00508245
-0.00591614
-0.00676059
-0.00757056
-0.00830349
-0.00891936
-0.00208307
-0.00225263
-0.00257812
-0.00304385
-0.00363315
-0.00432457
-0.00509326
-0.00590847
-0.00673299
-0.00752391
-0.00824028
-0.00884384
-0.00213551
-0.00230148
-0.00262046
-0.00307909
-0.00365939
-0.0043407
-0.00509823
-0.00590192
-0.00671354
-0.00749255
-0.00819857
-0.00879443
-0.00216715
-0.00232938
-0.0026469
-0.00309619
-0.0036712
-0.00434714
-0.00509926
-0.00589661
-0.00670187
-0.00747475
-0.00817529
-0.00876655
-0.0119136
-0.012215
-0.0121562
-0.0117897
-0.0111769
-0.0103775
-0.00944073
-0.00841694
-0.00736953
-0.00642793
-0.00577681
-0.00609606
-0.0113064
-0.0116128
-0.0116043
-0.011318
-0.0108043
-0.0101167
-0.0093058
-0.00842589
-0.00754351
-0.00677381
-0.00621118
-0.00614543
-0.0108143
-0.0111222
-0.0111515
-0.0109295
-0.0104984
-0.00990623
-0.00920258
-0.00844229
-0.00768899
-0.007038
-0.00656405
-0.00644717
-0.0104205
-0.0107277
-0.0107848
-0.0106136
-0.0102497
-0.00973667
-0.00912205
-0.00845903
-0.00780683
-0.00724409
-0.00683455
-0.00668679
-0.0101056
-0.0104109
-0.0104892
-0.0103581
-0.0100486
-0.00960033
-0.00905856
-0.00847388
-0.00790106
-0.00740642
-0.00704551
-0.00688853
-0.00985444
-0.0101575
-0.0102521
-0.0101528
-0.00988696
-0.00949134
-0.00900854
-0.00848651
-0.00797597
-0.00753436
-0.00721087
-0.00705467
-0.00965597
-0.00995691
-0.0100641
-0.00998982
-0.00975882
-0.00940531
-0.00896961
-0.00849708
-0.00803505
-0.00763462