/*--------------------------------*- C++ -*----------------------------------*\
| =========                 |                                                 |
| \\      /  F ield         | OpenFOAM: The Open Source CFD Toolbox           |
|  \\    /   O peration     | Version:  v1606+                                |
|   \\  /    A nd           | Web:      www.OpenFOAM.com                      |
|    \\/     M anipulation  |                                                 |
\*---------------------------------------------------------------------------*/
FoamFile
{
    version     2.0;
    format      ascii;
    class       volScalarField;
    location    "2";
    object      nut.particles;
}
// * * * * * * * * * * * * * * * * * * * * * * * * * * * * * * * * * * * * * //

dimensions      [0 2 -1 0 0 0 0];

internalField   nonuniform List<scalar> 
6000
(
1.12754e-05
1.08477e-05
1.13033e-05
9.55398e-06
9.54202e-06
1.01163e-05
1.03002e-05
9.75411e-06
9.29485e-06
9.30097e-06
9.67365e-06
9.51784e-06
8.94681e-06
9.03138e-06
9.67219e-06
1.06239e-05
9.64908e-06
8.40733e-06
8.2204e-06
8.37251e-06
9.49949e-06
1.06555e-05
1.0682e-05
1.09187e-05
1.09442e-05
1.07208e-05
1.01615e-05
1.01766e-05
1.03926e-05
1.02121e-05
4.35691e-06
4.51925e-06
4.58266e-06
4.38645e-06
4.32165e-06
4.27197e-06
4.20951e-06
4.20839e-06
4.29101e-06
4.39343e-06
4.45336e-06
4.39118e-06
4.30198e-06
4.3111e-06
4.528e-06
4.70034e-06
4.65813e-06
4.50003e-06
4.31387e-06
4.27857e-06
4.23836e-06
4.25872e-06
4.52424e-06
4.66907e-06
4.73028e-06
4.75631e-06
4.87643e-06
4.86856e-06
5.08628e-06
5.26129e-06
6.55198e-06
6.74264e-06
6.62203e-06
7.06089e-06
7.57717e-06
7.89272e-06
7.98937e-06
7.45817e-06
6.37788e-06
5.24719e-06
4.73863e-06
4.78932e-06
5.14141e-06
5.1052e-06
4.83526e-06
4.60897e-06
4.78085e-06
5.002e-06
5.47524e-06
6.21173e-06
7.59827e-06
9.64655e-06
1.09705e-05
1.13978e-05
1.15223e-05
1.17827e-05
1.26276e-05
1.21805e-05
1.15343e-05
1.03849e-05
1.48421e-05
1.63754e-05
1.72081e-05
1.77996e-05
1.77183e-05
1.72647e-05
1.65144e-05
1.57137e-05
1.28713e-05
8.63455e-06
6.20638e-06
5.00057e-06
4.70085e-06
4.51547e-06
4.39209e-06
4.47393e-06
5.27555e-06
6.50248e-06
8.23063e-06
1.12714e-05
1.57208e-05
1.81135e-05
2.03492e-05
2.18052e-05
2.23028e-05
2.20957e-05
2.14118e-05
2.07215e-05
2.03184e-05
2.06474e-05
2.63294e-05
2.7962e-05
2.91215e-05
2.91711e-05
2.86256e-05
2.76625e-05
2.59067e-05
2.34409e-05
2.0281e-05
1.70682e-05
1.225e-05
8.42018e-06
6.60746e-06
6.00055e-06
5.80401e-06
5.83289e-06
7.65312e-06
1.10207e-05
1.53886e-05
1.83344e-05
2.31501e-05
2.69094e-05
2.85236e-05
2.90446e-05
2.89077e-05
2.68991e-05
2.34642e-05
2.05186e-05
2.00385e-05
1.95866e-05
1.33281e-05
1.09334e-05
1.01996e-05
1.14859e-05
1.38046e-05
1.76817e-05
2.52958e-05
2.85536e-05
2.83902e-05
2.51494e-05
1.93853e-05
1.58508e-05
1.13974e-05
9.92213e-06
9.82212e-06
1.01714e-05
1.28924e-05
1.63419e-05
1.99032e-05
2.51981e-05
2.79459e-05
1.82131e-05
1.06344e-05
7.18803e-06
5.47715e-06
4.87894e-06
4.75233e-06
4.70612e-06
4.67931e-06
5.23339e-06
2.48561e-06
2.00353e-06
1.93601e-06
2.06039e-06
2.32528e-06
2.84441e-06
3.8745e-06
6.92942e-06
1.28488e-05
2.51435e-05
2.57731e-05
2.00128e-05
1.64868e-05
1.55339e-05
1.56826e-05
1.60772e-05
1.7004e-05
2.11795e-05
2.41687e-05
1.73041e-05
5.87011e-06
2.94119e-06
2.07194e-06
1.71129e-06
1.56684e-06
1.59372e-06
1.76784e-06
1.92369e-06
1.94541e-06
2.39907e-06
1.41221e-06
1.21554e-06
1.22931e-06
1.25196e-06
1.34403e-06
1.47428e-06
1.62234e-06
1.89188e-06
2.52669e-06
4.27495e-06
1.19962e-05
2.3043e-05
1.88185e-05
1.72393e-05
1.74905e-05
1.85741e-05
2.24097e-05
2.54846e-05
1.53286e-05
3.76212e-06
1.99834e-06
1.59889e-06
1.50602e-06
1.44088e-06
1.39256e-06
1.36864e-06
1.59778e-06
1.82363e-06
1.91077e-06
2.36457e-06
2.02308e-06
1.63321e-06
1.57082e-06
1.57344e-06
1.61629e-06
1.64293e-06
1.63153e-06
1.6837e-06
1.80077e-06
1.96939e-06
3.0838e-06
1.10603e-05
2.15013e-05
2.10377e-05
2.24072e-05
2.51191e-05
2.70829e-05
1.31001e-05
4.84288e-06
2.88447e-06
2.1143e-06
1.70244e-06
1.54021e-06
1.46546e-06
1.43952e-06
1.56697e-06
2.02087e-06
2.59092e-06
2.72683e-06
3.15887e-06
3.95573e-06
2.88072e-06
2.73458e-06
2.62477e-06
2.55965e-06
2.40575e-06
2.13875e-06
1.94732e-06
1.92804e-06
2.04656e-06
2.26735e-06
3.71042e-06
1.42207e-05
2.52521e-05
1.8649e-05
1.17554e-05
5.80252e-06
3.13602e-06
2.92945e-06
3.32554e-06
2.98013e-06
2.35636e-06
2.00298e-06
1.86707e-06
1.90821e-06
2.2537e-06
3.02021e-06
3.95201e-06
3.64879e-06
4.46704e-06
8.45327e-06
4.96491e-06
5.04861e-06
4.78529e-06
4.55337e-06
4.10094e-06
3.41529e-06
2.84534e-06
2.53925e-06
2.29119e-06
2.06326e-06
2.27016e-06
3.43615e-06
4.27448e-06
2.27225e-06
1.67206e-06
1.36789e-06
1.40364e-06
1.98548e-06
3.70056e-06
4.55715e-06
3.83734e-06
3.20078e-06
2.95216e-06
3.11159e-06
3.7335e-06
4.68877e-06
5.68224e-06
5.02511e-06
6.18998e-06
0.000593334
1.25142e-05
9.28288e-06
8.26291e-06
7.51055e-06
6.76726e-06
5.75772e-06
4.75324e-06
3.73402e-06
2.4822e-06
1.78927e-06
1.5525e-06
1.30217e-06
1.00222e-06
8.17923e-07
8.31609e-07
8.61608e-07
9.73065e-07
1.49365e-06
3.18518e-06
5.82224e-06
5.89398e-06
5.11653e-06
4.85284e-06
5.33346e-06
6.3395e-06
7.17017e-06
7.70309e-06
6.60358e-06
8.26988e-06
0.00243063
0.00182751
0.000645741
0.000138402
1.42514e-05
9.48434e-06
8.76652e-06
7.64566e-06
4.85318e-06
2.18838e-06
1.3657e-06
1.13357e-06
9.40285e-07
8.06206e-07
7.77133e-07
7.7707e-07
7.78214e-07
8.16383e-07
1.13713e-06
2.36235e-06
5.35916e-06
7.34156e-06
7.29105e-06
7.4815e-06
8.49543e-06
9.5489e-06
9.83179e-06
9.9097e-06
8.80822e-06
1.29173e-05
0.00243478
0.00243211
0.00239889
0.00109771
0.000242478
4.44831e-05
1.63203e-05
9.91083e-06
5.26748e-06
1.77098e-06
1.06336e-06
9.64867e-07
8.80324e-07
8.22964e-07
7.98644e-07
7.83441e-07
7.37011e-07
7.47915e-07
9.74147e-07
1.84118e-06
4.33335e-06
7.33741e-06
8.81156e-06
9.966e-06
1.32336e-05
3.30226e-05
4.47274e-05
5.60264e-05
3.51559e-05
0.000380578
0.002436
0.00243504
0.00243189
0.00222205
0.000801189
0.000248071
9.65064e-05
0.000154198
6.28033e-06
1.61604e-06
9.24867e-07
9.06877e-07
8.60824e-07
8.15545e-07
7.88278e-07
7.62086e-07
7.46879e-07
8.00244e-07
1.01657e-06
1.95518e-06
4.29102e-06
7.26059e-06
9.58832e-06
2.91058e-05
0.000106671
0.000189659
0.000277506
0.00037826
0.000565762
0.00181372
0.00243969
0.00242653
0.00241929
0.00241736
0.00133783
0.000948525
0.000724235
0.000626803
9.3945e-06
2.04982e-06
9.48632e-07
8.95923e-07
8.62688e-07
8.28539e-07
7.7318e-07
7.656e-07
9.46115e-07
1.14187e-06
1.6386e-06
3.04907e-06
5.70303e-06
8.55525e-06
3.61964e-05
0.000194202
0.000430625
0.000689533
0.00101758
0.0014148
0.00221522
0.00431072
5.58441e-06
1.44278e-05
0.00235577
0.00240522
0.0015191
0.00200326
0.00200489
0.00200273
0.0001845
3.14582e-06
1.2284e-06
1.02665e-06
1.00809e-06
9.9152e-07
9.40237e-07
9.98816e-07
1.5973e-06
2.54975e-06
3.63951e-06
6.25127e-06
9.59885e-06
0.000143578
0.000512488
0.00108362
0.00173178
0.00245
0.00326747
0.00415455
0.00560233
0.00814835
1.70783e-06
2.59399e-06
7.59964e-06
0.0015594
0.00129219
0.00200477
0.00200476
0.000449504
1.63567e-05
4.13112e-06
1.97792e-06
1.62397e-06
1.63148e-06
1.67073e-06
1.73508e-06
1.93178e-06
3.19844e-06
6.30243e-06
8.92149e-06
8.13153e-05
0.000760616
0.00171283
0.00284886
0.00406127
0.00545411
0.00687148
0.00802452
0.00897557
0.0102917
0.0122359
1.57568e-06
1.62448e-06
2.52975e-06
6.95219e-06
0.000176398
0.00199829
5.72453e-05
4.2961e-06
3.7365e-06
4.85961e-06
3.66738e-06
2.79806e-06
2.77295e-06
3.03195e-06
3.37926e-06
3.65907e-06
4.44815e-06
1.26752e-05
0.000127382
0.000904967
0.00286613
0.00430221
0.00612828
0.00821158
0.0103553
0.0118606
0.0122431
0.0122596
0.0122727
0.0122813
2.25081e-06
2.32407e-06
2.98392e-06
3.95599e-06
6.05656e-06
5.6711e-05
4.18334e-06
1.09421e-06
1.11026e-06
2.18756e-06
3.20915e-06
2.9844e-06
2.93334e-06
3.1109e-06
3.13338e-06
3.14705e-06
3.16204e-06
7.54281e-06
0.000580679
0.00286827
0.00368063
0.00531559
0.00827057
0.0110235
0.0122475
0.0122569
0.012269
0.0122786
0.0122866
0.0122954
3.70594e-06
3.68279e-06
4.34415e-06
4.89619e-06
5.31854e-06
6.27064e-06
2.09676e-06
9.12657e-07
7.98493e-07
9.78409e-07
1.5167e-06
1.85963e-06
1.94613e-06
1.97068e-06
1.87812e-06
1.87832e-06
2.03067e-06
2.78322e-06
1.02844e-05
0.00016811
0.0056014
0.00569427
0.00953358
0.0107056
0.0114665
0.012223
0.0122493
0.0122641
0.0122945
0.0122968
5.38462e-06
4.89315e-06
5.498e-06
5.95578e-06
6.03392e-06
5.38331e-06
2.53738e-06
9.35943e-07
7.53678e-07
8.03728e-07
8.96181e-07
1.04287e-06
1.11138e-06
1.16792e-06
1.25257e-06
1.39849e-06
1.71059e-06
2.28372e-06
3.19015e-06
6.59752e-06
1.56371e-05
0.000281934
0.00580886
0.00278709
0.00181237
0.00233732
0.00285646
0.00260171
0.00827767
0.0123118
6.81545e-06
5.83306e-06
6.46063e-06
6.96492e-06
7.14165e-06
6.90926e-06
3.58143e-06
1.13661e-06
7.43071e-07
7.78583e-07
7.94988e-07
8.13599e-07
8.4134e-07
8.95085e-07
1.04633e-06
1.35676e-06
1.97205e-06
2.5598e-06
2.71754e-06
2.82966e-06
4.02032e-06
1.08189e-05
2.4184e-05
1.93374e-05
1.38415e-05
9.17492e-06
7.77602e-06
1.15588e-05
0.000545456
0.00597853
8.18585e-06
6.90912e-06
7.60271e-06
8.17156e-06
8.60543e-06
8.54355e-06
5.65606e-06
1.74599e-06
7.78976e-07
7.51817e-07
7.70943e-07
7.5997e-07
7.76734e-07
8.69284e-07
1.12166e-06
1.89507e-06
2.75412e-06
2.94168e-06
2.78072e-06
3.04164e-06
3.77196e-06
4.30895e-06
4.02364e-06
2.42431e-06
1.36394e-06
9.10369e-07
7.88727e-07
9.90818e-07
4.08439e-06
3.42369e-05
1.00422e-05
8.48465e-06
9.19442e-06
1.67395e-05
4.61013e-05
2.7077e-05
8.56787e-06
3.12607e-06
9.27735e-07
7.23276e-07
7.44224e-07
7.49045e-07
8.08378e-07
9.9811e-07
1.69405e-06
2.95333e-06
3.60132e-06
3.394e-06
3.29546e-06
3.89205e-06
4.27098e-06
2.71319e-06
1.25837e-06
7.81252e-07
6.57964e-07
6.01984e-07
5.72816e-07
5.69694e-07
6.29246e-07
4.2286e-06
0.000209066
4.16575e-05
0.000100557
0.000181564
0.0002282
0.000132621
9.48065e-05
5.90249e-06
1.34177e-06
7.53374e-07
7.39961e-07
7.94968e-07
9.56388e-07
1.39598e-06
2.65634e-06
4.13438e-06
4.22243e-06
3.9662e-06
4.56402e-06
5.44934e-06
3.91523e-06
1.53964e-06
7.91367e-07
6.70865e-07
6.48802e-07
6.23217e-07
6.02774e-07
5.86821e-07
5.56719e-07
1.29142e-06
0.00168833
0.000849028
0.000955853
0.00103791
0.000899309
0.000585119
0.000355552
1.01107e-05
2.48375e-06
9.31805e-07
8.08858e-07
9.32734e-07
1.20901e-06
2.14488e-06
3.94235e-06
5.02743e-06
4.85169e-06
5.14684e-06
6.73294e-06
5.89919e-06
2.14377e-06
8.92167e-07
6.60633e-07
6.47042e-07
6.43057e-07
6.29787e-07
6.20728e-07
5.98403e-07
5.74245e-07
1.19125e-06
0.0075832
0.00551692
0.0051102
0.00469508
0.00370011
0.00234212
0.00103912
0.000154391
5.2809e-06
1.41529e-06
1.00456e-06
1.15906e-06
1.80131e-06
3.33642e-06
5.49638e-06
5.86205e-06
5.82415e-06
7.04866e-06
7.87261e-06
3.55567e-06
1.15488e-06
6.86444e-07
6.19994e-07
6.31776e-07
6.34442e-07
6.33859e-07
6.27993e-07
6.08262e-07
5.8605e-07
1.0353e-06
0.022711
0.0195571
0.0180422
0.0165738
0.0138473
0.00951637
0.0044803
0.00139942
1.07165e-05
2.68769e-06
1.44243e-06
1.69485e-06
2.86181e-06
5.05706e-06
6.9591e-06
6.85224e-06
7.23716e-06
8.86481e-06
6.2714e-06
2.00396e-06
8.64676e-07
6.32609e-07
6.03442e-07
6.22939e-07
6.36113e-07
6.37037e-07
6.35224e-07
6.18137e-07
5.99664e-07
9.36729e-07
0.0423514
0.0398623
0.0387898
0.0373988
0.0328117
0.0262214
0.0165383
0.00676094
0.00020665
5.59073e-06
2.69768e-06
2.79792e-06
4.68374e-06
7.15283e-06
8.22086e-06
8.03489e-06
8.75821e-06
8.8451e-06
4.42452e-06
1.52005e-06
8.17993e-07
6.43563e-07
6.08989e-07
6.22762e-07
6.41473e-07
6.42706e-07
6.46489e-07
6.27066e-07
6.18311e-07
8.79202e-07
0.0457807
0.0457636
0.0457418
0.0456646
0.0359026
0.0285087
0.0259048
0.0195485
0.00478451
1.23065e-05
5.18412e-06
4.82296e-06
7.43e-06
9.13345e-06
9.44699e-06
9.38729e-06
9.78605e-06
7.83069e-06
3.53354e-06
1.4706e-06
8.57315e-07
6.84438e-07
6.30527e-07
6.32843e-07
6.57849e-07
6.5398e-07
6.47144e-07
6.36419e-07
6.39957e-07
8.43583e-07
0.0457955
0.0457544
0.0455822
0.0452754
0.0180246
0.00857406
0.0110647
0.0183518
0.0179371
0.000826083
9.29993e-06
8.04273e-06
1.0364e-05
1.08417e-05
1.08025e-05
1.06107e-05
9.93364e-06
6.97863e-06
3.37249e-06
1.59585e-06
9.38921e-07
7.35057e-07
6.61952e-07
6.51323e-07
6.66858e-07
6.70214e-07
6.60411e-07
6.45064e-07
6.64444e-07
8.19085e-07
0.0456268
0.0371166
0.0137353
0.00850726
0.00490516
0.00104424
0.000470783
0.00572996
0.0177841
0.00503077
1.59071e-05
1.11396e-05
1.25949e-05
1.23689e-05
1.20716e-05
1.18076e-05
1.00538e-05
6.9568e-06
3.5809e-06
1.76601e-06
1.03425e-06
7.79968e-07
6.94144e-07
6.74094e-07
6.7916e-07
6.85142e-07
6.78078e-07
6.60679e-07
6.86538e-07
7.74398e-07
0.0210116
0.000401655
1.623e-05
2.44376e-05
0.000735444
0.000263869
0.000262004
0.00165816
0.0127685
0.00393419
5.91517e-05
1.32832e-05
1.3773e-05
1.59397e-05
1.85516e-05
1.93065e-05
1.03982e-05
7.35694e-06
3.97682e-06
2.03377e-06
1.16577e-06
8.27414e-07
7.26606e-07
6.93927e-07
6.95343e-07
7.03909e-07
6.98031e-07
6.82982e-07
7.58427e-07
8.18117e-07
1.44757e-05
1.13189e-05
4.35861e-06
5.20643e-06
1.75243e-05
0.000157988
0.000351855
0.00266473
0.010082
0.00180298
3.56874e-05
1.6287e-05
1.77065e-05
2.28177e-05
2.24615e-05
2.15149e-05
1.19396e-05
8.76181e-06
5.36852e-06
2.86786e-06
1.54693e-06
9.55989e-07
7.74738e-07
7.28174e-07
7.24604e-07
7.35849e-07
7.47709e-07
7.90326e-07
9.48853e-07
1.04818e-06
6.14983e-06
6.13266e-06
2.48573e-06
1.45794e-06
3.00873e-06
1.43049e-05
0.000791769
0.00363268
0.00678069
0.0008227
2.16912e-05
2.06322e-05
1.75218e-05
2.14953e-05
2.23499e-05
1.84298e-05
1.28943e-05
1.07592e-05
8.93348e-06
6.02278e-06
3.27601e-06
1.69569e-06
1.01206e-06
8.08232e-07
7.7929e-07
8.01574e-07
8.32316e-07
9.55337e-07
1.26269e-06
1.45383e-06
4.83453e-06
7.01191e-06
2.30208e-06
9.53783e-07
9.00295e-07
2.20549e-06
1.18552e-05
0.000601842
0.00263638
0.000207089
2.05243e-05
1.81961e-05
1.72349e-05
1.97709e-05
2.74706e-05
3.52753e-05
4.59338e-05
5.37281e-05
3.79687e-05
1.16711e-05
8.27419e-06
4.68846e-06
2.34865e-06
1.24052e-06
9.10139e-07
8.89036e-07
9.52265e-07
1.06404e-06
1.45869e-06
1.98868e-06
4.00396e-06
6.42364e-06
2.38142e-06
8.64523e-07
7.89853e-07
8.18145e-07
1.55832e-06
6.7721e-06
1.74714e-05
2.93898e-05
2.60341e-05
2.37573e-05
3.75978e-05
7.56063e-05
0.000141997
0.000237768
0.000357997
0.000437294
0.000404753
0.000188854
2.64122e-05
1.01256e-05
5.81048e-06
2.89191e-06
1.4988e-06
1.06923e-06
1.09435e-06
1.2361e-06
1.63444e-06
2.69903e-06
3.72511e-06
6.13596e-06
1.8772e-06
8.4737e-07
7.59734e-07
7.16009e-07
8.39633e-07
1.69001e-06
6.41929e-06
1.24933e-05
4.82524e-05
8.05151e-05
0.000200713
0.000399588
0.000626899
0.000865219
0.00102084
0.0010236
0.000782225
0.000439581
0.000199252
4.92519e-05
1.13071e-05
6.38003e-06
3.20753e-06
1.88527e-06
1.5764e-06
1.65613e-06
1.98413e-06
3.78709e-06
4.92819e-06
7.80126e-06
1.41945e-06
7.90832e-07
7.26411e-07
6.9444e-07
8.47568e-07
1.71061e-06
4.734e-06
1.03112e-05
0.000111476
0.000295812
0.00063939
0.000975037
0.00125686
0.00144006
0.0014748
0.00132054
0.000986597
0.000635174
0.000386976
0.000212892
5.73052e-05
1.19403e-05
6.99572e-06
3.95583e-06
2.86982e-06
2.83542e-06
2.7347e-06
5.47286e-06
6.26719e-06
6.6092e-06
1.31595e-06
7.4373e-07
7.12656e-07
7.95069e-07
1.26867e-06
2.67905e-06
5.78725e-06
2.53616e-05
0.000277535
0.000671676
0.0011234
0.00145874
0.00169442
0.00178984
0.00173793
0.0015161
0.00116648
0.000819123
0.000557173
0.000365978
0.000207873
6.15725e-05
1.29636e-05
8.4144e-06
5.84987e-06
5.4896e-06
4.43296e-06
8.15266e-06
9.69568e-05
4.95438e-06
1.37291e-06
8.28185e-07
8.49271e-07
1.18714e-06
2.32737e-06
4.97075e-06
9.19552e-06
0.000207285
0.000698093
0.00122806
0.00165083
0.00193155
0.00209385
0.00211939
0.00200608
0.00174835
0.00139455
0.00104669
0.000775238
0.00058041
0.000439648
0.00031269
0.000129065
1.4955e-05
1.14773e-05
1.03483e-05
8.18533e-06
1.23406e-05
0.000229388
4.94636e-06
1.86017e-06
1.28126e-06
1.38618e-06
2.44306e-06
5.14923e-06
1.0129e-05
0.000331191
0.00108702
0.00171239
0.00216466
0.00242716
0.00257856
0.0026333
0.00258198
0.00241701
0.00213948
0.00178777
0.00145447
0.00120685
0.00104687
0.000944767
0.000838182
0.000640576
0.0003383
0.000114937
6.00925e-05
4.00169e-05
2.18168e-05
0.000150233
5.93187e-06
3.39492e-06
2.73654e-06
3.56793e-06
6.7457e-06
1.29787e-05
0.000975597
0.00247174
0.00312475
0.00343757
0.00352338
0.0035337
0.00353005
0.00350616
0.00344434
0.00331868
0.00307275
0.0027141
0.00237599
0.0021633
0.00206563
0.00199861
0.00185646
0.00158929
0.0012666
0.0010424
0.00120724
0.00317944
0.00170425
9.88111e-05
9.677e-06
7.04762e-06
7.22634e-06
1.10457e-05
0.000164521
0.0023594
0.00409928
0.00470558
0.00491805
0.00492493
0.00481058
0.00476984
0.00484297
0.00502192
0.00534966
0.0057315
0.00571082
0.0053098
0.00468858
0.00418448
0.00395267
0.00377091
0.00349604
0.00310256
0.00274093
0.00264222
0.0031909
0.0031748
0.0031483
9.52767e-05
3.83076e-05
1.42074e-05
6.2583e-05
0.00131445
0.00282042
0.00391532
0.00485099
0.00538965
0.00557911
0.00559761
0.00567524
0.00595924
0.00657869
0.00756592
0.00903205
0.0104571
0.0108434
0.0105441
0.00939516
0.00803551
0.00701445
0.00634723
0.00580522
0.00525785
0.00477997
0.00452559
0.00409725
0.00249862
0.000683796
7.5796e-05
0.0010211
0.001052
0.00223513
0.0020665
0.0023315
0.00398016
0.00591201
0.00695775
0.00699146
0.00672873
0.00676382
0.00733242
0.00845668
0.0101613
0.0120477
0.0121852
0.0122225
0.0122502
0.0122989
0.0123687
0.0110557
0.00985994
0.00892422
0.00815697
0.00749157
0.0068944
0.00525403
0.0014781
0.000150292
6.40508e-05
0.00416883
0.00595746
0.00226782
0.000789224
0.00172061
0.0053178
0.0100598
0.0118086
0.0104974
0.0089299
0.008342
0.00837602
0.00840826
0.00757186
0.00817017
0.00981217
0.010057
0.0107459
0.0109696
0.0129803
0.0138363
0.0137874
0.012928
0.0119188
0.0110517
0.0102578
0.00748516
0.00195778
6.81161e-05
9.88229e-05
0.00881306
0.00734817
0.000251189
0.000292673
0.00253345
0.0120743
0.0222313
0.0204064
0.0146808
0.0111102
0.00933528
0.00783243
0.0066899
0.00563147
0.00567406
0.00570037
0.00599857
0.00644018
0.00658787
0.0103918
0.0146502
0.0172655
0.0178184
0.0167458
0.0155335
0.0149102
0.0113322
0.00291748
2.77573e-05
0.000647015
0.00923667
0.0057382
0.000267712
0.000399278
0.00691952
0.0314181
0.0379592
0.0247758
0.0149238
0.0119364
0.010079
0.00830036
0.00663937
0.00593723
0.00649439
0.00687878
0.00742594
0.00754549
0.00694954
0.0116064
0.0171506
0.0223587
0.0246201
0.0231402
0.0207089
0.0202506
0.0167246
0.00440532
2.08008e-05
0.00301046
0.00922938
0.00108021
0.00025386
0.000868845
0.0229288
0.0475365
0.0452991
0.0206628
0.0126773
0.012572
0.0129481
0.0134673
0.0139948
0.0140723
0.016259
0.020268
0.0252038
0.0250158
0.0194408
0.023415
0.027236
0.0325298
0.0345143
0.0302162
0.0251717
0.0249079
0.022643
0.0069182
1.98267e-05
0.00709857
0.00921443
0.000270565
0.000269359
0.00566979
0.047572
0.0474915
0.0395539
0.00888723
0.00839449
0.0122815
0.0180638
0.0261187
0.0388425
0.0518658
0.0685254
0.0791046
0.0826597
0.0823438
0.0782282
0.0718633
0.0567924
0.0505409
0.0446749
0.0326941
0.0253002
0.024968
0.0247034
0.0114222
1.92457e-05
0.00833384
0.00661174
0.000273491
0.000611922
0.0301831
0.0474995
0.0478171
0.0132109
0.0017562
0.0052238
0.0131727
0.0278087
0.0463556
0.0726485
0.0821256
0.0884725
0.0921063
0.0927763
0.0927256
0.091865
0.0880616
0.0817837
0.0751306
0.050242
0.0270352
0.0180655
0.0247563
0.02496
0.0243997
0.000106542
0.00743857
0.0004372
0.000271793
0.00948737
0.0472109
0.0481691
0.0432195
0.00012574
0.00084666
0.00665208
0.0229994
0.0477833
0.0647185
0.0758213
0.083596
0.0914848
0.092826
0.0928013
0.0928722
0.0928159
0.0928352
0.0896934
0.0817428
0.0547648
0.0165984
0.00659314
0.0250124
0.0248
0.0248064
0.00177525
0.00147942
0.000507866
0.00245084
0.0431166
0.0481405
0.0473771
0.0119248
0.000111145
0.00151368
0.0164279
0.0482474
0.0548137
0.0550317
0.0583699
0.0802806
0.0891561
0.0925646
0.0919919
0.0926791
0.0928906
0.0928228
0.0928401
0.0882706
0.0699534
0.0109047
0.00189398
0.0206807
0.0250958
0.0246608
0.00824801
0.000464421
0.000386252
0.020497
0.0454909
0.0456208
0.0338819
0.00546085
0.000109293
0.00371107
0.0398989
0.0516779
0.0521621
0.01807
0.0279217
0.0635658
0.0588014
0.0141579
0.00118266
0.0473084
0.0924705
0.0928918
0.0928216
0.092768
0.0812627
0.00893164
0.000388857
0.0108972
0.015303
0.0202604
0.016891
0.000622184
0.000133197
0.0305638
0.0359564
0.0194085
0.00768951
0.00154606
0.000108599
0.0111858
0.050889
0.0514127
0.0102446
0.00230069
0.0148962
0.0319952
0.00354314
1.76233e-05
1.22567e-05
2.75102e-05
0.01146
0.0923323
0.0928903
0.0928054
0.0902184
0.0105413
3.64235e-05
0.00913654
0.0104521
0.00430314
0.0167878
0.000625514
1.84717e-05
0.0261143
0.014356
0.00605276
2.35152e-05
1.15819e-05
0.000223011
0.0348398
0.0508683
0.0141056
0.00010763
0.00138264
0.0149813
0.00592938
1.49044e-05
3.99641e-06
4.23819e-06
7.00221e-06
1.17098e-05
0.00343739
0.0924313
0.0928733
0.0925902
0.0173254
1.5283e-05
2.29618e-05
2.4521e-05
2.54543e-05
0.00929463
0.00017472
1.74526e-05
0.0135276
0.000630582
1.36687e-05
8.34601e-06
6.71597e-06
0.000361154
0.0363733
0.0373988
0.000288911
1.39763e-05
0.00395153
0.0128746
5.1284e-05
4.03738e-06
1.09234e-06
1.61787e-06
1.71864e-06
3.05873e-06
1.38208e-05
0.0616221
0.0926756
0.0926359
0.0223567
1.23869e-05
7.67513e-06
8.7559e-06
1.74768e-05
0.00207331
1.30203e-05
9.76375e-06
2.87425e-05
1.08713e-05
5.32865e-06
5.07056e-06
6.19038e-06
0.00238156
0.0362483
0.0180531
2.14703e-05
1.35165e-05
0.000774092
0.00020402
9.07551e-06
1.33685e-06
1.02066e-06
1.19176e-06
1.16829e-06
2.22102e-06
8.05879e-06
0.00564409
0.0927304
0.0925689
0.0397351
1.2853e-05
6.82138e-06
1.0566e-05
0.000115556
0.000114635
1.22775e-05
6.78712e-06
9.71281e-06
5.80151e-06
5.62547e-06
8.35534e-06
0.000290171
0.0338194
0.0361644
0.0115737
6.60414e-05
1.28138e-05
2.12774e-05
1.01682e-05
1.82097e-06
9.66415e-07
9.26235e-07
8.97065e-07
8.59223e-07
1.52805e-06
1.06953e-05
0.00309548
0.0867666
0.0926842
0.0905205
4.28343e-05
6.18032e-06
1.93025e-05
0.000104282
1.33648e-05
0.000333114
6.12277e-06
5.99676e-06
7.14352e-06
1.33547e-05
0.00291077
0.0183244
0.0195404
0.00873384
0.00715702
0.00104116
5.40184e-05
1.17021e-05
2.14202e-06
1.30257e-06
1.09735e-06
1.15264e-06
1.12578e-06
1.08479e-06
1.60771e-06
1.04246e-05
0.00468846
0.0316087
0.0923641
0.0924753
0.0209461
9.63434e-06
1.21508e-05
1.44394e-05
1.17067e-05
0.00426588
1.33517e-05
8.40098e-06
5.21575e-05
0.00983768
0.0179052
0.0183929
0.000684876
0.000507257
0.00237601
0.00239898
0.000255744
6.24602e-06
2.44759e-06
2.07082e-06
1.97244e-06
2.16584e-06
2.19298e-06
2.15658e-06
2.87996e-06
1.41294e-05
0.00529348
0.00545113
0.0624296
0.0921109
0.0906844
0.0108281
2.92276e-05
1.06911e-05
1.14029e-05
0.00040317
0.00629109
0.000770005
0.00893562
0.0172765
0.0174533
0.000216424
2.22716e-05
2.7936e-05
4.65774e-05
7.02798e-05
1.57597e-05
3.75322e-06
3.33367e-06
3.47318e-06
3.69174e-06
3.63959e-06
3.78707e-06
3.89833e-06
4.59716e-06
1.96888e-05
0.00525432
0.000579554
0.0057999
0.0612334
0.0841219
0.07211
0.00334089
1.11276e-05
1.30353e-05
0.000144668
0.00633154
0.00871264
0.0164969
0.0161745
2.6958e-05
7.13317e-06
8.62278e-06
8.35422e-06
7.10326e-06
4.07083e-06
1.57831e-06
1.6782e-06
2.00672e-06
2.25421e-06
2.53053e-06
2.28674e-06
2.35479e-06
2.42878e-06
2.36932e-06
3.73817e-06
2.37246e-05
4.76618e-05
0.000339534
0.00488335
0.0527264
0.071553
0.035978
0.000777598
1.97034e-05
0.000222882
0.00480906
0.0090345
0.0153447
4.81944e-05
3.03842e-06
1.0405e-06
1.32815e-06
1.2649e-06
1.18805e-06
1.02209e-06
9.4932e-07
9.53735e-07
9.87815e-07
1.0312e-06
1.07231e-06
1.03892e-06
1.03893e-06
1.03869e-06
9.99497e-07
9.58244e-07
1.2363e-06
3.10909e-06
6.72488e-06
3.21067e-05
0.00447052
0.0490883
0.0447634
0.0146916
3.28776e-05
4.53852e-05
3.20652e-05
4.28021e-05
6.22668e-05
9.87912e-06
9.63888e-07
8.73003e-07
9.71129e-07
9.88637e-07
9.93492e-07
9.72712e-07
9.35435e-07
9.02696e-07
8.8736e-07
8.84355e-07
8.82211e-07
8.76186e-07
8.67171e-07
8.56378e-07
8.43718e-07
8.28723e-07
8.21388e-07
8.58782e-07
9.5737e-07
2.35548e-06
1.84788e-05
0.00453354
0.0136422
0.00731015
1.49656e-05
1.27174e-05
3.99214e-06
3.6351e-06
4.52105e-06
1.76082e-06
7.62807e-07
8.92675e-07
9.70962e-07
9.98274e-07
1.00327e-06
9.79148e-07
9.36215e-07
8.97765e-07
8.7897e-07
8.71295e-07
8.62875e-07
8.52501e-07
8.39964e-07
8.2706e-07
8.16364e-07
8.08241e-07
8.04809e-07
8.04378e-07
8.0492e-07
8.3882e-07
1.79064e-06
1.40839e-05
4.90628e-05
1.4407e-05
6.34067e-06
7.12818e-06
9.85576e-07
1.02194e-06
1.76838e-06
1.51188e-06
7.61783e-07
8.98223e-07
9.69654e-07
9.98772e-07
1.0022e-06
9.76673e-07
9.34893e-07
8.96684e-07
8.76865e-07
8.6737e-07
8.56365e-07
8.42768e-07
8.27442e-07
8.11843e-07
7.99147e-07
7.91471e-07
7.91009e-07
7.99428e-07
8.02621e-07
7.92771e-07
7.74109e-07
1.66191e-06
4.56255e-06
2.06495e-06
5.22357e-06
7.85117e-06
8.39928e-07
1.18147e-06
1.82978e-06
1.49969e-06
7.87826e-07
8.81412e-07
9.57338e-07
9.88369e-07
9.92638e-07
9.65212e-07
9.2347e-07
8.92545e-07
8.75042e-07
8.64164e-07
8.4947e-07
8.30587e-07
8.10204e-07
7.8997e-07
7.74275e-07
7.66028e-07
7.68677e-07
7.78892e-07
7.96594e-07
7.92793e-07
7.86163e-07
7.72347e-07
1.20103e-06
1.59041e-06
6.01163e-06
8.74635e-06
7.64434e-07
1.49785e-06
2.04938e-06
9.84385e-07
8.02574e-07
8.72285e-07
9.45835e-07
9.73479e-07
9.76936e-07
9.53811e-07
9.2001e-07
8.91446e-07
8.70872e-07
8.57548e-07
8.41317e-07
8.18856e-07
7.94571e-07
7.7153e-07
7.53719e-07
7.44019e-07
7.47469e-07
7.6074e-07
7.80984e-07
7.85285e-07
7.83629e-07
7.31248e-07
1.05131e-06
1.79479e-06
7.16556e-06
9.48703e-06
6.68508e-07
1.87695e-06
2.60628e-06
7.15221e-07
7.99711e-07
8.70044e-07
9.27561e-07
9.52922e-07
9.57159e-07
9.3732e-07
9.11506e-07
8.90179e-07
8.69236e-07
8.53038e-07
8.33307e-07
8.07445e-07
7.79671e-07
7.52923e-07
7.30571e-07
7.17682e-07
7.20462e-07
7.31501e-07
7.57377e-07
7.72937e-07
7.55841e-07
7.19128e-07
8.61857e-07
1.96217e-06
8.09852e-06
9.47641e-06
7.4246e-07
2.37835e-06
1.35294e-06
6.75324e-07
7.89474e-07
8.68362e-07
9.13378e-07
9.37092e-07
9.42914e-07
9.26695e-07
9.03258e-07
8.84611e-07
8.63819e-07
8.47115e-07
8.2413e-07
7.94955e-07
7.63639e-07
7.3334e-07
7.07261e-07
6.92308e-07
6.93533e-07
7.02855e-07
7.27499e-07
7.56477e-07
7.37568e-07
7.13077e-07
7.34501e-07
2.23115e-06
9.12215e-06
1.00776e-05
1.07722e-06
3.21446e-06
7.77778e-07
6.66909e-07
7.87192e-07
8.58224e-07
8.96259e-07
9.17293e-07
9.22528e-07
9.12796e-07
8.96676e-07
8.81951e-07
8.61142e-07
8.42674e-07
8.16126e-07
7.84505e-07
7.50307e-07
7.16845e-07
6.87385e-07
6.69119e-07
6.66837e-07
6.73105e-07
6.96291e-07
7.33012e-07
7.23136e-07
7.08249e-07
7.4097e-07
2.61306e-06
9.9395e-06
1.0494e-05
2.19991e-06
4.08924e-06
6.28199e-07
6.65579e-07
7.80019e-07
8.45177e-07
8.81668e-07
9.03524e-07
9.10278e-07
9.02702e-07
8.85874e-07
8.73188e-07
8.55087e-07
8.35535e-07
8.06519e-07
7.72466e-07
7.35749e-07
6.99436e-07
6.67767e-07
6.47004e-07
6.41625e-07
6.47069e-07
6.69647e-07
7.11595e-07
7.15449e-07
7.06643e-07
7.38696e-07
2.22977e-06
1.01241e-05
1.05831e-05
5.17897e-06
2.60977e-06
5.79509e-07
6.6204e-07
7.61014e-07
8.34948e-07
8.71161e-07
8.93607e-07
9.0083e-07
8.9531e-07
8.8152e-07
8.69406e-07
8.53142e-07
8.31228e-07
7.99458e-07
7.63048e-07
7.23826e-07
6.85279e-07
6.52237e-07
6.29118e-07
6.21192e-07
6.26635e-07
6.47174e-07
6.90248e-07
7.14106e-07
7.06802e-07
7.34865e-07
1.97187e-06
1.00322e-05
1.2665e-05
1.04294e-05
1.47903e-06
5.16435e-07
6.48564e-07
7.43089e-07
8.26148e-07
8.68979e-07
8.91326e-07
8.98843e-07
8.93492e-07
8.77836e-07
8.65822e-07
8.52302e-07
8.2725e-07
7.92628e-07
7.53688e-07
7.12181e-07
6.71415e-07
6.36449e-07
6.11971e-07
6.03563e-07
6.10758e-07
6.30606e-07
6.75121e-07
7.14842e-07
7.09244e-07
7.26523e-07
1.7955e-06
9.85462e-06
1.91721e-05
1.21469e-05
1.2091e-06
4.9518e-07
6.21064e-07
7.25711e-07
8.17637e-07
8.69847e-07
8.92038e-07
8.99874e-07
8.94869e-07
8.78217e-07
8.65493e-07
8.51586e-07
8.22495e-07
7.84719e-07
7.43478e-07
7.00191e-07
6.58503e-07
6.23202e-07
5.99687e-07
5.92299e-07
5.99631e-07
6.19088e-07
6.66024e-07
7.18782e-07
7.16107e-07
7.19638e-07
1.62716e-06
9.48597e-06
2.48192e-05
1.20121e-05
9.29598e-07
5.14155e-07
5.86394e-07
7.06948e-07
8.06761e-07
8.71696e-07
8.96683e-07
9.05547e-07
9.00339e-07
8.80248e-07
8.65612e-07
8.51204e-07
8.20442e-07
7.80047e-07
7.35664e-07
6.91061e-07
6.47824e-07
6.11861e-07
5.89576e-07
5.83724e-07
5.92054e-07
6.11671e-07
6.62304e-07
7.2366e-07
7.23117e-07
7.29478e-07
1.57666e-06
7.4325e-06
2.95866e-05
6.14229e-06
1.07705e-06
5.52103e-07
5.60359e-07
6.8545e-07
7.93183e-07
8.72845e-07
9.04858e-07
9.15179e-07
9.10623e-07
8.8748e-07
8.68152e-07
8.50154e-07
8.17347e-07
7.73411e-07
7.25626e-07
6.79729e-07
6.36278e-07
6.00925e-07
5.81437e-07
5.78043e-07
5.86388e-07
6.06888e-07
6.59931e-07
7.25964e-07
7.25307e-07
7.43417e-07
1.58948e-06
5.98438e-06
3.08188e-05
3.6045e-06
1.68886e-06
6.11318e-07
5.53622e-07
6.58395e-07
7.7824e-07
8.73096e-07
9.15979e-07
9.27433e-07
9.24006e-07
8.98181e-07
8.70242e-07
8.4699e-07
8.14026e-07
7.68306e-07
7.17998e-07
6.7076e-07
6.2669e-07
5.91976e-07
5.74421e-07
5.74181e-07
5.82626e-07
6.04078e-07
6.57904e-07
7.25145e-07
7.25873e-07
7.5473e-07
1.68e-06
5.4807e-06
2.49997e-05
3.54441e-06
2.73091e-06
7.11388e-07
5.56162e-07
6.28993e-07
7.59891e-07
8.72078e-07
9.25502e-07
9.40502e-07
9.39006e-07
9.1129e-07
8.73178e-07
8.45348e-07
8.11041e-07
7.62469e-07
7.09557e-07
6.60341e-07
6.16057e-07
5.82932e-07
5.67892e-07
5.7e-07
5.79107e-07
6.02769e-07
6.55139e-07
7.17373e-07
7.23449e-07
7.47331e-07
1.70973e-06
5.33034e-06
3.37123e-05
6.92471e-06
3.92109e-06
8.15199e-07
5.62766e-07
6.14355e-07
7.48676e-07
8.68668e-07
9.28759e-07
9.48211e-07
9.48329e-07
9.23463e-07
8.76317e-07
8.42462e-07
8.0485e-07
7.55022e-07
7.00703e-07
6.49707e-07
6.05387e-07
5.7404e-07
5.61038e-07
5.65253e-07
5.7634e-07
5.99879e-07
6.48883e-07
7.03252e-07
7.15224e-07
6.93288e-07
1.49561e-06
5.70881e-06
0.000328035
0.000118965
4.88617e-06
8.47523e-07
5.85974e-07
6.12416e-07
7.43755e-07
8.66528e-07
9.28966e-07
9.49887e-07
9.50568e-07
9.28683e-07
8.79459e-07
8.39127e-07
7.97525e-07
7.46904e-07
6.91232e-07
6.38842e-07
5.94564e-07
5.65629e-07
5.54874e-07
5.61016e-07
5.73846e-07
5.96336e-07
6.40037e-07
6.8674e-07
6.96624e-07
6.58845e-07
1.16431e-06
6.01845e-06
0.000601199
0.0005898
4.08535e-06
7.95222e-07
6.2571e-07
6.11907e-07
7.44373e-07
8.64656e-07
9.25207e-07
9.48405e-07