/*--------------------------------*- C++ -*----------------------------------*\
| =========                 |                                                 |
| \\      /  F ield         | OpenFOAM: The Open Source CFD Toolbox           |
|  \\    /   O peration     | Version:  v1606+                                |
|   \\  /    A nd           | Web:      www.OpenFOAM.com                      |
|    \\/     M anipulation  |                                                 |
\*---------------------------------------------------------------------------*/
FoamFile
{
    version     2.0;
    format      ascii;
    class       volScalarField;
    location    "34";
    object      alpha.water;
}
// * * * * * * * * * * * * * * * * * * * * * * * * * * * * * * * * * * * * * //

dimensions      [0 0 0 0 0 0 0];

internalField   nonuniform List<scalar> 
5080
(
1
1
1
1
1
1
1
1
1
1
1
1
1
1
1
1
1
1
1
1
1
1
1
1
1
1
1
1
1
1
1
1
1
1
1
1
1
1
1
1
1
1
1
1
1
1
1
1
1
1
1
1
1
1
1
1
1
1
1
1
1
1
1
1
1
1
1
1
1
1
1
1
1
1
1
1
1
1
1
1
1
1
1
1
1
1
1
1
1
1
1
1
1
1
1
1
1
1
1
1
1
1
1
1
1
1
1
1
1
1
1
1
1
1
1
1
1
1
1
1
1
1
1
1
1
1
1
1
1
1
1
1
1
1
1
1
1
1
1
1
1
1
1
1
1
1
1
1
1
1
1
1
1
1
1
1
1
1
1
1
1
1
1
1
1
1
1
1
1
1
1
1
1
1
1
1
1
1
1
1
1
1
1
1
1
1
1
1
1
1
1
1
1
1
1
1
1
1
1
1
1
1
1
1
1
1
1
1
1
1
1
1
1
1
1
1
1
1
1
1
1
1
1
1
1
1
1
1
1
1
1
1
1
1
1
1
1
1
1
1
1
1
1
1
1
1
1
1
1
1
1
1
1
1
1
1
1
1
1
1
1
1
1
1
1
1
1
1
1
1
1
1
1
1
1
1
1
1
1
1
1
1
1
1
1
1
1
1
1
1
1
1
1
1
1
1
1
1
1
1
1
1
1
1
1
1
1
1
1
1
1
1
1
1
1
1
1
1
1
1
1
1
1
1
1
1
1
1
1
1
1
1
1
1
1
1
1
1
1
1
1
1
1
1
1
1
1
1
1
1
1
1
1
1
1
1
1
1
1
1
1
1
1
1
1
1
1
1
1
1
1
1
1
1
1
1
1
1
1
1
1
1
1
1
1
1
1
1
1
1
1
1
1
1
1
1
1
1
1
1
0.967921
0.980278
0.9846
0.984473
0.979369
0.973734
0.971391
0.957058
0.92539
0.886713
0.866886
0.853776
0.830485
0.832255
0.881259
0.884179
0.534116
0.504648
0.854414
1
1
0.999988
0.999987
0.999986
0.999986
0.995955
0.980021
0.979967
0.998398
1
0.999817
0.999574
0.99956
0.999555
0.999549
0.955243
0.871617
0.864085
0.867035
0.892443
0.984388
0.999492
0.999492
0.999492
0.99912
0.998481
0.998861
0.999697
0.999697
0.99969
0.999684
0.999685
0.999685
0.548101
0.0256662
0.0171683
0.0176416
0.445413
0.893608
0.993219
0.998325
0.967237
0.83211
0.76017
0.710264
0.701148
0.819776
0.704398
0.482639
0.483496
0.480785
0.484254
0.480754
0.484826
0.480847
0.498081
0.496671
0.496671
0.690645
0.9951
1
1
1
0.893407
0.709796
0.709734
0.761085
0.985663
1
1
0.999786
0.988103
0.952955
0.930288
0.930805
0.931095
0.899769
0.862461
0.948486
0.999324
0.999492
0.999492
0.992619
0.963275
0.948919
0.97826
0.999697
0.999697
0.999688
0.999686
0.999685
0.97735
0.533066
0.0277257
0.0171683
0.0171683
0.0192494
0.0171717
0.0171717
0.417808
0.989468
0.763359
0.555836
0.55613
0.561898
0.652261
0.88801
1
1
0.99861
0.990773
0.979732
0.978766
0.982778
0.994877
0.997451
0.993889
0.991174
0.994655
0.999351
1
1
0.789538
0.713896
0.710458
0.900548
0.999727
1
0.982771
0.856287
0.766282
0.623711
0.548201
0.546437
0.548067
0.54759
0.548807
0.574756
0.934027
0.999442
0.910013
0.52977
0.482385
0.481387
0.821658
0.995953
0.99579
0.997647
0.999686
0.884562
0.391712
0.295573
0.328609
0.58044
0.615561
0.394398
0.0443375
0.0171717
0.0171717
0.310364
0.648797
0.648878
0.854968
0.997077
0.997079
0.991849
0.992495
0.996588
1
1
1
0.999072
0.996617
0.998275
0.998853
0.999407
0.999982
1
1
1
1
0.978573
0.971275
0.973986
0.987708
0.999238
1
1
0.710762
0.560082
0.559151
0.613265
0.623182
0.601027
0.695487
0.917071
0.977037
0.976671
0.950739
0.565237
0.479905
0.4799
0.479905
0.774312
0.972318
0.995874
0.68375
0.140882
0.119005
0.11931
0.119057
0.273718
0.83445
1
1
0.775312
0.139773
0.0425046
0.281772
0.886255
0.504565
0.644531
0.868303
0.9172
0.91626
0.925832
0.975076
1
0.999982
0.999982
1
0.998665
0.983134
0.982675
0.984372
0.998838
1
1
1
0.999962
0.999826
0.999822
1
1
1
1
1
0.921923
0.865805
0.8857
0.938073
0.974089
0.97712
0.980617
0.991542
0.994991
0.99494
0.819516
0.691574
0.689171
0.848037
0.98877
0.999993
1
0.866068
0.563719
0.563885
0.669801
0.916276
0.998531
1
1
1
1
1
0.873949
0.70588
0.728117
0.870314
0.991269
0.778905
0.843481
0.891593
0.884688
0.94118
1
1
1
1
0.999549
0.998207
0.998217
0.999449
1
1
1
1
1
1
0.999999
1
1
1
1
1
0.999979
0.998441
0.9979
0.999653
1
1
1
1
1
1
0.995629
0.98029
0.980239
0.983529
0.990583
0.992367
0.992511
0.998402
1
1
1
1
1
1
1
1
1
1
0.999952
0.999625
0.99978
1
1
1
1
0.70076
0.929968
1
1
1
1
1
1
1
0.994201
0.978296
0.946238
0.918952
0.920079
0.931776
0.951935
0.971253
0.989762
1
1
1
1
1
1
1
1
1
1
1
1
1
1
1
1
0.999873
0.999818
0.999866
0.999986
1
1
1
1
1
1
1
1
1
1
1
1
1
1
0.995652
0.995264
0.999873
1
1
1
1
0.997951
0.957393
0.999992
0.99999
0.999978
0.999991
1
1
0.864629
0.663839
0.477676
0.324408
0.180841
0.169153
0.188237
0.236291
0.296709
0.348885
0.390447
0.432451
0.48531
0.548732
0.618706
0.686345
0.741247
0.775706
0.795228
0.813812
0.841791
0.881677
0.923555
0.952841
0.971056
0.989959
0.999996
1
1
1
1
1
1
1
1
1
1
1
1
0.998096
0.985998
0.955574
0.908058
0.85978
0.785397
0.564042
0.302674
0.288842
0.399327
0.697681
0.885159
0.886294
0.72508
1
0.999992
0.99997
0.999979
1
0.97401
0.570364
0.0782059
1.74942e-18
-1.28138e-18
-7.69729e-18
-1.76415e-17
-3.00882e-17
-4.24967e-17
-4.02613e-17
1.39671e-20
3.22882e-05
0.000530263
0.00270971
0.0082308
0.0187855
0.0358695
0.059674
0.087287
0.114549
0.142242
0.177551
0.231963
0.314044
0.408001
0.477373
0.512986
0.53865
0.57685
0.639177
0.698149
0.712577
0.712571
0.724823
0.772107
0.826703
0.834355
0.822796
0.770094
0.685046
0.63025
0.552741
0.32527
0.0517006
1.0943e-17
7.35734e-18
7.35974e-18
7.39722e-18
0.00152272
0.0142286
0.0703564
0.13973
0.139572
0.0962701
0.0195231
1
0.999982
0.999981
1
1
0.418555
5.56912e-18
7.20713e-34
-4.78538e-19
-5.94631e-18
-1.85331e-17
-3.94468e-17
-6.77841e-17
-9.92367e-17
-1.27119e-16
-1.40554e-16
-4.63135e-17
2.66295e-18
2.70076e-18
2.72625e-18
2.75699e-18
2.80955e-18
2.89228e-18
2.96482e-18
3.03945e-18
3.14144e-18
3.26521e-18
6.51731e-18
0.000239452
0.00287452
0.00886476
0.0180212
0.0307046
0.0465607
0.0638272
0.0880149
0.143824
0.234681
0.252645
0.224451
0.130521
0.0218604
1.09535e-17
7.24637e-18
7.24602e-18
7.24637e-18
7.24602e-18
7.24637e-18
7.24602e-18
7.29083e-18
7.35495e-18
7.39769e-18
7.40706e-18
1.00947e-17
1.1578e-17
1.20333e-17
1.22666e-17
1.23133e-17
1.03564e-17
7.44209e-18
1
1
0.999997
1
0.8293
0.0615348
3.93839e-18
4.94472e-18
1.6295e-18
-6.80864e-18
-2.48237e-17
-5.54995e-17
-9.80175e-17
-1.46717e-16
-1.92004e-16
-2.24017e-16
-2.36619e-16
-2.28388e-16
-2.02317e-16
-1.65962e-16
-1.26771e-16
-9.06356e-17
-6.06371e-17
-3.75875e-17
-2.09721e-17
-9.58817e-18
-2.03518e-18
2.72181e-18
5.54822e-18
8.44375e-18
9.76034e-18
1.0349e-17
1.07599e-17
1.10778e-17
1.12903e-17
1.14202e-17
1.15821e-17
1.0942e-17
7.3346e-18
7.3346e-18
7.3346e-18
7.3346e-18
7.37361e-18
7.45598e-18
7.55859e-18
7.66202e-18
7.75029e-18
7.82068e-18
7.90552e-18
8.03102e-18
8.18395e-18
8.33493e-18
8.4742e-18
8.61608e-18
8.77689e-18
8.94905e-18
9.10306e-18
9.22924e-18
9.35062e-18
9.53205e-18
1
0.999407
0.999919
1
0.443673
1.04793e-17
7.46662e-18
5.24089e-18
1.30612e-18
-9.28934e-18
-3.2914e-17
-7.334e-17
-1.28286e-16
-1.88984e-16
-2.42727e-16
-2.77637e-16
-2.86929e-16
-2.7053e-16
-2.34281e-16
-1.87389e-16
-1.39022e-16
-9.60295e-17
-6.16844e-17
-3.64358e-17
-1.91302e-17
-7.97105e-18
-1.15042e-18
2.8183e-18
5.0414e-18
6.29184e-18
7.05736e-18
7.57947e-18
7.95623e-18
8.22219e-18
8.38465e-18
8.4411e-18
8.40173e-18
8.3227e-18
8.23671e-18
8.15663e-18
8.0848e-18
8.04066e-18
8.05345e-18
8.13602e-18
8.28905e-18
8.46963e-18
8.62159e-18
8.73054e-18
8.87071e-18
9.09585e-18
9.35682e-18
9.56465e-18
9.67811e-18
9.71622e-18
9.71736e-18
9.72095e-18
9.76949e-18
9.91895e-18
1.02144e-17
1.0698e-17
0.987473
0.993513
0.99987
1
0.241016
9.01815e-18
5.80252e-18
3.64701e-18
-1.45734e-19
-1.13566e-17
-3.67087e-17
-7.84802e-17
-1.31184e-16
-1.83177e-16
-2.21669e-16
-2.3793e-16
-2.29965e-16
-2.01983e-16
-1.62259e-16
-1.20182e-16
-8.28652e-17
-5.30474e-17
-3.12891e-17
-1.6536e-17
-7.12353e-18
-1.42936e-18
1.8444e-18
3.63852e-18
4.60267e-18
5.17423e-18
5.59916e-18
5.97026e-18
6.28625e-18
6.53975e-18
6.72682e-18
6.85462e-18
6.94823e-18
7.04657e-18
7.17396e-18
7.33885e-18
7.56147e-18
7.86379e-18
8.30502e-18
8.96072e-18
9.77283e-18
1.05722e-17
1.12282e-17
1.17468e-17
1.22963e-17
1.29661e-17
1.36355e-17
1.41172e-17
1.43222e-17
1.42886e-17
1.41222e-17
1.39715e-17
1.40362e-17
1.45699e-17
1.57577e-17
1.77021e-17
0.824588
0.992856
1
0.979938
0.138145
7.33066e-18
4.14808e-18
2.50202e-18
-2.95871e-19
-9.01582e-18
-2.8336e-17
-5.74701e-17
-8.91e-17
-1.13677e-16
-1.2458e-16
-1.20512e-16
-1.04704e-16
-8.25189e-17
-5.93266e-17
-3.90375e-17
-2.35477e-17
-1.305e-17
-6.22684e-18
-1.94784e-18
6.48768e-19
2.18598e-18
3.08761e-18
3.64364e-18
4.04461e-18
4.37816e-18
4.67026e-18
4.93958e-18
5.20844e-18
5.48924e-18
5.78479e-18
6.11288e-18
6.50513e-18
6.99062e-18
7.56922e-18
8.26188e-18
9.14288e-18
1.03084e-17
1.18627e-17
1.38055e-17
1.59058e-17
1.79018e-17
1.96661e-17
2.1261e-17
2.28953e-17
2.46619e-17
2.64218e-17
2.79636e-17
2.918e-17
3.01113e-17
3.09059e-17
3.1827e-17
3.32971e-17
3.58949e-17
4.0073e-17
4.60514e-17
0.792604
0.994033
1
0.684125
0.067903
5.76544e-18
2.92038e-18
1.70429e-18
2.89356e-19
-3.83188e-18
-1.24292e-17
-2.34295e-17
-3.22614e-17
-3.56841e-17
-3.34616e-17
-2.74565e-17
-2.00222e-17
-1.29599e-17
-7.24162e-18
-3.1354e-18
-4.59554e-19
1.1542e-18
2.05462e-18
2.6014e-18
3.01746e-18
3.41288e-18
3.85331e-18
4.36372e-18
4.92201e-18
5.48198e-18
6.00736e-18
6.50593e-18
7.02387e-18
7.62323e-18
8.3742e-18
9.30924e-18
1.04125e-17
1.16496e-17
1.30348e-17
1.46288e-17
1.65657e-17
1.9001e-17
2.19642e-17
2.52421e-17
2.85693e-17
3.18667e-17
3.51458e-17
3.85062e-17
4.20997e-17
4.60144e-17
5.02199e-17
5.46337e-17
5.92161e-17
6.40137e-17
6.91494e-17
7.48212e-17
8.13985e-17
8.95472e-17
1.00029e-16
1.1344e-16
0.792604
0.998542
1
0.433355
0.0457638
4.72466e-18
2.01254e-18
1.11395e-18
5.92645e-19
-2.83586e-19
-1.79038e-18
-3.09142e-18
-3.29721e-18
-2.40723e-18
-9.72965e-19
4.89664e-19
1.71446e-18
2.63916e-18
3.3013e-18
3.76693e-18
4.10136e-18
4.36616e-18
4.62434e-18
4.94194e-18
5.37899e-18
5.98137e-18
6.75867e-18
7.68744e-18
8.72454e-18
9.82696e-18
1.09739e-17
1.21737e-17
1.34526e-17
1.48378e-17
1.63458e-17
1.79798e-17
1.97363e-17
2.16166e-17
2.36344e-17
2.58159e-17
2.8212e-17
3.0932e-17
3.39223e-17
3.70556e-17
4.04604e-17
4.42909e-17
4.86618e-17
5.36587e-17
5.93729e-17
6.59326e-17
7.3484e-17
8.2154e-17
9.20444e-17
1.03261e-16
1.1595e-16
1.30322e-16
1.46617e-16
1.65159e-16
1.86603e-16
2.11882e-16
0.792604
0.999985
1
0.428382
0.042707
3.96863e-18
1.37036e-18
7.34584e-19
5.50594e-19
6.98148e-19
1.05192e-18
1.52096e-18
2.0308e-18
2.53965e-18
3.03896e-18
3.53185e-18
4.02178e-18
4.51246e-18
5.00665e-18
5.50818e-18
6.02515e-18
6.57253e-18
7.17197e-18
7.8455e-18
8.60622e-18
9.45383e-18
1.03799e-17
1.13797e-17
1.24603e-17
1.36371e-17
1.49189e-17
1.62971e-17
1.77486e-17
1.92452e-17
2.07637e-17
2.22905e-17
2.38218e-17
2.53567e-17
2.68904e-17
2.84134e-17
2.99193e-17
3.14445e-17
3.31208e-17
3.51636e-17
3.78004e-17
4.12202e-17
4.55643e-17
5.09437e-17
5.7491e-17
6.54188e-17
7.50176e-17
8.66035e-17
1.00478e-16
1.16928e-16
1.36236e-16
1.58701e-16
1.84648e-16
2.14442e-16
2.48497e-16
2.87325e-16
0.804604
1
1
0.711498
0.0365276
3.35584e-18
9.52123e-19
5.44044e-19
4.54301e-19
7.32227e-19
1.19747e-18
1.71661e-18
2.19861e-18
2.62141e-18
3.01157e-18
3.40251e-18
3.81861e-18
4.2791e-18
4.79308e-18
5.36005e-18
5.9701e-18
6.6011e-18
7.22346e-18
7.80591e-18
8.3267e-18
8.78325e-18
9.1956e-18
9.60176e-18
1.00452e-17
1.05581e-17
1.11481e-17
1.17963e-17
1.24684e-17
1.31299e-17
1.37573e-17
1.43424e-17
1.48906e-17
1.54155e-17
1.59345e-17
1.647e-17
1.70553e-17
1.77533e-17
1.86751e-17
1.99676e-17
2.1785e-17
2.42731e-17
2.75701e-17
3.18187e-17
3.71927e-17
4.39296e-17
5.23357e-17
6.27631e-17
7.558e-17
9.11519e-17
1.0983e-16
1.31942e-16
1.57799e-16
1.87706e-16
2.22028e-16
2.61199e-16
0.985161
1
0.999695
0.781736
0.0274644
2.87296e-18
7.17874e-19
4.70823e-19
4.20044e-19
7.70639e-19
1.22933e-18
1.62366e-18
1.89155e-18
2.06118e-18
2.18579e-18
2.30805e-18
2.45432e-18
2.63836e-18
2.86072e-18
3.10837e-18
3.36075e-18
3.58701e-18
3.76161e-18
3.87036e-18
3.91617e-18
3.91592e-18
3.89363e-18
3.87343e-18
3.87345e-18
3.90231e-18
3.95858e-18
4.03363e-18
4.11679e-18
4.20009e-18
4.28107e-18
4.3632e-18
4.45469e-18
4.56681e-18
4.713e-18
4.90901e-18
5.17459e-18
5.53793e-18
6.04015e-18
6.73516e-18
7.68621e-18
8.96374e-18
1.06455e-17
1.28187e-17
1.55866e-17
1.90766e-17
2.34427e-17
2.8858e-17
3.55009e-17
4.35432e-17
5.314e-17
6.44244e-17
7.75108e-17
9.25087e-17
1.09546e-16
1.28738e-16
1
1
0.999909
0.650041
0.0277672
5.73556e-19
6.27265e-19
4.50776e-19
4.03065e-19
7.30447e-19
1.05545e-18
1.23805e-18
1.27459e-18
1.22669e-18
1.14993e-18
1.07401e-18
1.01358e-18
9.66872e-19
9.34422e-19
9.08671e-19
8.87277e-19
8.63288e-19
8.3143e-19
7.91462e-19
7.46685e-19
7.01357e-19
6.59257e-19
6.23193e-19
5.94687e-19
5.74083e-19
5.60869e-19
5.54129e-19
5.53007e-19
5.5708e-19
5.6655e-19
5.82285e-19
6.05801e-19
6.39261e-19
6.85555e-19
7.48457e-19
8.32907e-19
9.45559e-19
1.09539e-18
1.29385e-18
1.55455e-18
1.89265e-18
2.32427e-18
2.86584e-18
3.53407e-18
4.34602e-18
5.31839e-18
6.46538e-18
7.79595e-18
9.31178e-18
1.10067e-17
1.2868e-17
1.48791e-17
1.70236e-17
1.92854e-17
2.1634e-17
1
1
0.998194
0.508666
0.0408107
5.73556e-19
6.29154e-19
4.47935e-19
3.53746e-19
5.87184e-19
7.6393e-19
7.93193e-19
7.17561e-19
6.01167e-19
4.81605e-19
3.75841e-19
2.92165e-19
2.254e-19
1.71383e-19
1.28351e-19
9.59798e-20
7.59732e-20
6.1767e-20
5.13538e-20
4.36335e-20
3.7819e-20
3.34774e-20
3.0336e-20
2.81836e-20
2.68455e-20
2.61764e-20
2.60571e-20
2.64014e-20
2.71703e-20
2.83928e-20
3.0187e-20
3.27828e-20
3.65422e-20
4.19737e-20
4.97361e-20
6.06328e-20
7.56079e-20
9.57389e-20
1.22207e-19
1.5622e-19
1.98896e-19
2.51108e-19
3.1334e-19
3.85602e-19
4.67412e-19
5.57782e-19
6.55182e-19
7.57542e-19
8.62356e-19
9.66914e-19
1.06861e-18
1.16528e-18
1.2553e-18
1.33728e-18
1.40817e-18
1
1
0.996538
0.484327
0.0587213
5.73556e-19
6.36891e-19
4.50564e-19
2.83495e-19
4.20961e-19
4.98271e-19
4.68196e-19
3.85474e-19
2.93493e-19
2.09937e-19
1.42046e-19
9.31821e-20
5.8477e-20
3.46953e-20
1.9484e-20
1.02482e-20
4.88933e-21
2.04731e-21
8.88285e-22
5.3584e-22
3.89257e-22
3.0831e-22
2.57696e-22
2.23758e-22
1.998e-22
1.82256e-22
1.6961e-22
1.62746e-22
1.66084e-22
1.88915e-22
2.46367e-22
3.59546e-22
5.54547e-22
8.60255e-22
1.30518e-21
1.91394e-21
2.70435e-21
3.68561e-21
4.8572e-21
6.20769e-21
7.7134e-21
9.33775e-21
1.10322e-20
1.274e-20
1.44014e-20
1.59591e-20
1.73618e-20
1.85681e-20
1.95497e-20
2.0294e-20
2.08054e-20
2.11037e-20
2.12181e-20
2.11703e-20
2.09357e-20
0.998956
0.906548
0.996494
0.619588
0.0744865
5.73556e-19
6.48428e-19
4.64058e-19
2.18574e-19
2.80906e-19
3.08972e-19
2.72696e-19
2.16323e-19
1.6088e-19
1.11733e-19
7.1989e-20
4.43941e-20
2.54316e-20
1.32726e-20
6.3309e-21
2.69324e-21
9.70454e-22
2.86888e-22
6.2301e-23
7.86321e-24
5.22504e-26
6.77778e-27
3.60304e-27
2.49646e-27
1.85763e-27
1.46833e-27
1.22892e-27
5.01497e-26
2.87835e-25
9.49373e-25
2.32924e-24
4.71836e-24
8.33597e-24
1.32754e-23
1.94752e-23
2.67229e-23
3.46873e-23
4.29689e-23
5.11504e-23
5.88352e-23
6.56719e-23
7.13711e-23
7.57179e-23
7.85839e-23
7.99336e-23
7.98199e-23
7.8371e-23
7.57721e-23
7.22478e-23
6.80426e-23
6.34008e-23
5.85444e-23
5.36477e-23
4.87946e-23
4.39085e-23
0.984092
0.667014
0.998271
0.763498
0.0904378
5.73557e-19
6.62677e-19
4.92656e-19
1.72253e-19
1.79056e-19
1.85123e-19
1.56989e-19
1.24098e-19
9.33712e-20
6.53908e-20
4.19423e-20
2.58187e-20
1.44987e-20
7.24379e-21
3.26337e-21
1.28104e-21
4.13398e-22
1.0631e-22
1.91017e-23
1.83177e-24
5.4801e-27
5.48608e-29
3.5464e-29
4.33892e-29
5.51991e-29
7.20149e-29
9.25438e-29
1.17053e-28
1.49206e-28
5.29284e-28
1.65858e-27
3.69066e-27
6.44726e-27
9.51162e-27
1.23931e-26
1.46787e-26
1.61231e-26
1.66686e-26
1.64123e-26
1.55497e-26
1.43156e-26
1.29388e-26
1.16141e-26
1.04906e-26
9.67221e-27
9.22507e-27
9.18949e-27
9.59365e-27
1.0469e-26
1.18673e-26
1.38815e-26
1.66715e-26
2.0498e-26
2.57482e-26
3.29027e-26
0.96549
0.66683
0.999617
0.804107
0.109972
5.73557e-19
6.77933e-19
5.37568e-19
1.47579e-19
1.11356e-19
1.07226e-19
8.78674e-20
6.99611e-20
5.33519e-20
3.77329e-20
2.4376e-20
1.53178e-20
8.70367e-21
4.34586e-21
1.95591e-21
7.55015e-22
2.35777e-22
5.79868e-23
9.77754e-24
8.64287e-25
2.27172e-27
2.46788e-29
1.17208e-29
1.42934e-29
1.8306e-29
2.33482e-29
2.96432e-29
3.75695e-29
4.83197e-29
6.27236e-29
7.93713e-29
9.96509e-29
1.25692e-28
1.58202e-28
1.97107e-28
2.4383e-28
3.00674e-28
3.7005e-28
4.53811e-28
5.54606e-28
6.76041e-28
8.22517e-28
9.98898e-28
1.21093e-27
1.46579e-27
1.7728e-27
2.1446e-27
2.59938e-27
3.16483e-27
3.88492e-27
4.83166e-27
6.12541e-27
7.96987e-27
1.07068e-26
1.48777e-26
0.955702
0.673077
1
0.822894
0.134283
5.73557e-19
6.91752e-19
5.97602e-19
1.42861e-19
7.03395e-20
6.05192e-20
4.78794e-20
3.85248e-20
2.95735e-20
2.09478e-20
1.36227e-20
8.6893e-21
4.98412e-21
2.51292e-21
1.15254e-21
4.48786e-22
1.41474e-22
3.49046e-23
5.84507e-24
5.1045e-25
1.30719e-27
1.47129e-29
3.49712e-30
3.99844e-30
5.23767e-30
6.82093e-30
8.80681e-30
1.12866e-29
1.43641e-29
1.81752e-29
2.28791e-29
2.87344e-29
3.67334e-29
4.6701e-29
5.81216e-29
7.18817e-29
8.90581e-29
1.10294e-28
1.35503e-28
1.65556e-28
2.01756e-28
2.45586e-28
2.98196e-28
3.61191e-28
4.3688e-28
5.28556e-28
6.41015e-28
7.81887e-28
9.64162e-28
1.2108e-27
1.56381e-27
2.10325e-27
2.99009e-27
4.56371e-27
7.54354e-27
0.855768
0.941853
1
0.853027
0.164988
5.73557e-19
7.01625e-19
6.69811e-19
1.54799e-19
4.88263e-20
3.38822e-20
2.56598e-20
2.08758e-20
1.61353e-20
1.14539e-20
7.52471e-21
4.84509e-21
2.78578e-21
1.41035e-21
6.5216e-22
2.53456e-22
8.09929e-23
2.01541e-23
3.40638e-24
3.02147e-25
8.07397e-28
1.09425e-29
1.0874e-30
9.31602e-31
1.24795e-30
1.6745e-30
2.21821e-30
2.90424e-30
3.76131e-30
4.82486e-30
6.1379e-30
7.74696e-30
9.70646e-30
1.20799e-29
1.49424e-29
1.84157e-29
2.30291e-29
2.86103e-29
3.49646e-29
4.2494e-29
5.16614e-29
6.29175e-29
7.62285e-29
9.20644e-29
1.11238e-28
1.35032e-28
1.65315e-28
2.05449e-28
2.6189e-28
3.47281e-28
4.87705e-28
7.40226e-28
1.24278e-27
2.35668e-27
5.0251e-27
0.636112
1
1
0.89003
0.206276
5.73557e-19
7.05793e-19
7.50365e-19
1.80015e-19
4.11654e-20
1.9418e-20
1.36406e-20
1.1116e-20
8.63542e-21
6.13425e-21
4.07929e-21
2.64379e-21
1.52399e-21
7.76878e-22
3.61034e-22
1.40142e-22
4.52837e-23
1.12755e-23
1.91288e-24
1.70498e-25
4.94624e-28
8.71885e-30
4.77928e-31
1.89163e-31
2.45982e-31
3.3958e-31
4.64098e-31
6.25901e-31
8.32554e-31
1.09165e-30
1.4142e-30
1.81006e-30
2.29105e-30
2.87097e-30
3.56565e-30
4.39356e-30
5.3758e-30
6.53769e-30
7.90961e-30
9.53385e-30
1.16052e-29
1.41668e-29
1.70994e-29
2.06222e-29
2.50447e-29
3.09683e-29
3.91255e-29
5.10822e-29
7.01414e-29
1.0335e-28
1.67031e-28
3.00333e-28
6.12741e-28
1.4392e-27
3.77335e-27
0.626273
0.992535
1
0.929342
0.264628
5.73557e-19
7.04031e-19
8.36444e-19
2.15941e-19
4.34405e-20
1.21421e-20
7.29773e-21
5.83149e-21
4.53899e-21
3.2312e-21
2.18364e-21
1.42368e-21
8.21785e-22
4.2121e-22
1.95083e-22
7.52549e-23
2.4243e-23
6.01666e-24
1.03338e-24
9.3249e-26
3.13113e-28
7.11468e-30
3.12725e-31
4.23282e-32
4.42316e-32
6.06502e-32
8.33988e-32
1.14007e-31
1.54731e-31
2.0779e-31
2.75837e-31
3.61019e-31
4.65576e-31
5.9201e-31
7.43339e-31
9.22834e-31
1.13411e-30
1.38174e-30
1.6718e-30
2.01283e-30
2.41707e-30
2.90311e-30
3.50047e-30
4.26019e-30
5.29746e-30
6.9106e-30
9.34981e-30
1.33416e-29
2.04288e-29
3.42186e-29
6.40026e-29
1.31804e-28
3.05059e-28
8.06908e-28
2.34645e-27
0.634096
0.972666
1
0.963494
0.345927
5.73557e-19
6.97176e-19
9.29258e-19
2.61718e-19
5.316e-20
9.17608e-21
4.03218e-21
3.03942e-21
2.35134e-21
1.67532e-21
1.14997e-21
7.53438e-22
4.36914e-22
2.26552e-22
1.04893e-22
4.04506e-23
1.29049e-23
3.14594e-24
5.3264e-25
4.75816e-26
1.98733e-28
5.71992e-30
2.40489e-31
1.42071e-32
7.82064e-33
1.04408e-32
1.4356e-32
1.95329e-32
2.6336e-32
3.5271e-32
4.693e-32
6.20075e-32
8.11633e-32
1.05064e-31
1.34328e-31
1.69494e-31
2.11094e-31
2.59841e-31
3.16945e-31
3.84482e-31
4.65891e-31
5.67408e-31
7.00574e-31
8.87073e-31
1.16751e-30
1.61834e-30
2.38525e-30
3.75169e-30
6.29236e-30
1.15822e-29
2.37783e-29
5.14209e-29
1.21362e-28
3.19542e-28
9.1768e-28
0.679434
0.96623
1
0.986715
0.451788
5.73557e-19
6.82835e-19
1.03636e-18
3.18983e-19
6.89586e-20
9.00085e-21
2.40041e-21
1.59325e-21
1.20791e-21
8.60046e-22
5.99089e-22
3.93779e-22
2.28916e-22
1.19434e-22
5.48578e-23
2.11705e-23
6.73312e-24
1.63294e-24
2.73759e-25
2.42172e-26
1.32759e-28
4.531e-30
1.87594e-31
7.84898e-33
1.44462e-33
1.666e-33
2.3023e-33
3.17039e-33
4.3146e-33
5.80238e-33
7.70132e-33
1.01014e-32
1.31147e-32
1.68803e-32
2.15648e-32
2.73513e-32
3.44115e-32
4.29183e-32
5.31039e-32
6.53565e-32
8.0434e-32
9.9889e-32
1.2696e-31
1.68277e-31
2.36982e-31
3.59061e-31
5.86126e-31
1.02182e-30
1.87821e-30
3.60108e-30
7.15545e-30
1.46809e-29
3.10008e-29
6.7401e-29
1.53266e-28
0.682094
0.968211
1
0.997915
0.574064
2.34466e-18
6.51489e-19
1.16843e-18
3.9114e-19
9.03719e-20
1.09128e-20
1.63659e-21
8.52387e-22
6.19575e-22
4.38303e-22
3.09445e-22
2.0476e-22
1.2023e-22
6.33215e-23
2.88416e-23
1.10279e-23
3.4361e-24
8.14835e-25
1.33294e-25
1.17348e-26
9.21868e-29
3.59966e-30
1.48933e-31
5.66109e-33
3.84603e-34
2.61885e-34
3.50817e-34
4.79726e-34
6.51364e-34
8.77603e-34
1.17267e-33
1.55155e-33
2.02912e-33
2.62008e-33
3.33913e-33
4.20367e-33
5.23668e-33
6.47189e-33
7.9589e-33
9.7732e-33
1.20419e-32
1.49909e-32
1.9109e-32
2.54574e-32
3.62614e-32
5.60241e-32
9.36518e-32
1.66363e-31
3.0667e-31
5.74856e-31
1.07875e-30
1.99528e-30
3.55885e-30
5.90381e-30
8.28922e-30
0.642229
0.965791
1
1
0.688811
0.0280306
5.99533e-19
1.32723e-18
4.81164e-19
1.1776e-19
1.46503e-20
1.35575e-21
4.73684e-22
3.20646e-22
2.21557e-22
1.5728e-22
1.04727e-22
6.23502e-23
3.32348e-23
1.51956e-23
5.8176e-24
1.7864e-24
4.12355e-25
6.44795e-26
5.47619e-27
6.43368e-29
2.75325e-30
1.14948e-31
4.31415e-33
1.82538e-34
4.27527e-35
5.11562e-35
7.00057e-35
9.51993e-35
1.2797e-34
1.70109e-34
2.23657e-34
2.90919e-34
3.74528e-34
4.77375e-34
6.02492e-34
7.52771e-34
9.31047e-34
1.14041e-33
1.38538e-33
1.6749e-33
2.02714e-33
2.48125e-33
3.12003e-33
4.11731e-33
5.82718e-33
8.94981e-33
1.47849e-32
2.55603e-32
4.48057e-32
7.766e-32
1.30317e-31
2.06902e-31
3.0193e-31
3.78715e-31
0.626166
0.930982
1
1
0.785977
0.067982
5.99423e-19
1.50612e-18
5.85638e-19
1.51202e-19
2.01446e-20
1.37525e-21
2.77465e-22
1.70702e-22
1.12409e-22
7.94327e-23
5.33105e-23
3.2256e-23
1.73434e-23
7.96742e-24
3.0543e-24
9.28418e-25
2.09806e-25
3.15504e-26
2.57971e-27
4.6123e-29
2.08306e-30
8.69509e-32
3.23743e-33
1.20115e-34
9.51262e-36
7.15065e-36
9.56004e-36
1.29838e-35
1.74559e-35
2.32228e-35
3.056e-35
3.97732e-35
5.1169e-35
6.50431e-35
8.16681e-35
1.01303e-34
1.24246e-34
1.50915e-34
1.81943e-34
2.18199e-34
2.60917e-34
3.12043e-34
3.75178e-34
4.57742e-34
5.75459e-34
7.60345e-34
1.07358e-33
1.62067e-33
2.55854e-33
4.08475e-33
6.37917e-33
9.45811e-33
1.29972e-32
1.59686e-32
0.636712
0.871316
0.99828
1
0.868761
0.110859
5.99533e-19
1.69699e-18
6.99208e-19
1.89921e-19
2.73875e-20
1.60825e-21
1.70509e-22
9.39532e-23
5.71273e-23
3.95679e-23
2.68313e-23
1.65843e-23
9.04329e-24
4.20882e-24
1.62514e-24
4.9191e-25
1.08671e-25
1.56039e-26
1.21216e-27
3.25876e-29
1.53471e-30
6.46126e-32
2.40795e-33
8.64391e-35
3.89218e-36
1.03662e-36
1.23964e-36
1.67834e-36
2.2587e-36
3.00263e-36
3.94097e-36
5.10624e-36
6.5343e-36
8.26439e-36
1.03365e-35
1.27883e-35
1.56471e-35
1.89276e-35
2.26373e-35
2.67886e-35
3.14315e-35
3.67005e-35
4.28682e-35
5.04046e-35
6.00596e-35
7.30754e-35
9.16086e-35
1.19509e-34
1.62919e-34
2.30408e-34
3.30578e-34
4.64275e-34
6.1386e-34
7.50485e-34
0.853611
0.836327
0.994173
1
0.932798
0.153097
5.99423e-19
1.89115e-18
8.1958e-19
2.33397e-19
3.64568e-20
2.02356e-21
1.09214e-22
5.38817e-23
2.93856e-23
1.95383e-23
1.33475e-23
8.39821e-24
4.65311e-24
2.2066e-24
8.64412e-25
2.64072e-25
5.79642e-26
8.05685e-27
5.96395e-28
2.25812e-29
1.09299e-30
4.63934e-32
1.73606e-33
6.18631e-35
2.37035e-36
2.04726e-37
1.53455e-37
2.02243e-37
2.71365e-37
3.60455e-37
4.73399e-37
6.14235e-37
7.86582e-37
9.93453e-37
1.23697e-36
1.51867e-36
1.83968e-36
2.20148e-36
2.60607e-36
3.055e-36
3.54857e-36
4.08587e-36
4.66665e-36
5.29921e-36
6.01243e-36
6.86955e-36
7.98842e-36
9.5401e-36
1.17461e-35
1.48902e-35
1.92814e-35
2.49676e-35
3.14171e-35
3.73213e-35
0.865786
0.836386
0.99333
1
0.97688
0.186066
5.99533e-19
2.07621e-18
9.44587e-19
2.81136e-19
4.72629e-20
2.58469e-21
7.21587e-23
3.18616e-23
1.53502e-23
9.58566e-24
6.57693e-24
4.20669e-24
2.37652e-24
1.15229e-24
4.59756e-25
1.42727e-25
3.158e-26
4.33956e-27
3.12443e-28
1.52242e-29
7.51197e-31
3.20985e-32
1.20558e-33
4.28274e-35
1.57628e-36
7.62307e-38
1.95701e-38
2.26533e-38
3.02805e-38
4.01942e-38
5.26323e-38
6.80086e-38
8.67575e-38
1.09272e-37
1.35866e-37
1.66637e-37
2.0144e-37
2.39889e-37
2.81467e-37
3.25601e-37
3.7182e-37
4.19813e-37
4.69585e-37
5.21089e-37
5.74029e-37
6.2823e-37
6.85583e-37
7.51845e-37
8.3698e-37
9.56939e-37
1.12739e-36
1.35289e-36
1.61026e-36
1.86614e-36
0.811995
0.864646
0.998223
1
0.998756
0.201917
5.99423e-19
2.22739e-18
1.06874e-18
3.33321e-19
5.96075e-20
3.23564e-21
4.97986e-23
1.90903e-23
8.12724e-24
4.6589e-24
3.1894e-24
2.0733e-24
1.1978e-24
5.9543e-25
2.4356e-25
7.74043e-26
1.74578e-26
2.41638e-27
1.73101e-28
9.9324e-30
4.98177e-31
2.14728e-32
8.10246e-34
2.86843e-35
1.03552e-36
4.24091e-38
3.52902e-39
2.30107e-39
2.97659e-39
3.96714e-39
5.22549e-39
6.78409e-39
8.675e-39
1.09237e-38
1.35462e-38
1.65428e-38
1.98929e-38
2.35531e-38
2.74639e-38
3.15373e-38
3.56708e-38
3.97449e-38
4.36261e-38
4.71893e-38
5.0336e-38
5.30537e-38
5.54531e-38
5.76303e-38
5.97482e-38
6.2469e-38
6.67875e-38
7.35316e-38
8.26101e-38
9.30173e-38
0.338321
0.962505
1
1
1
0.188273
2.19744e-18
2.3237e-18
1.18039e-18
3.90365e-19
7.32581e-20
3.87661e-21
3.75241e-23
1.14396e-23
4.36074e-24
2.24647e-24
1.51807e-24
1.00109e-24
5.91978e-25
3.02411e-25
1.27696e-25
4.19257e-26
9.7515e-27
1.38375e-27
1.00397e-28
6.29543e-30
3.18787e-31
1.38117e-32
5.23617e-34
1.85625e-35
6.63124e-37
2.58719e-38
1.28941e-39
2.41101e-40
2.48995e-40
3.29554e-40
4.3577e-40
5.68382e-40
7.30564e-40
9.24996e-40
1.15285e-39
1.41342e-39
1.7034e-39
2.0162e-39
2.34285e-39
2.67166e-39
2.98996e-39
3.28673e-39
3.55316e-39
3.77881e-39
3.94888e-39
4.04326e-39
4.05386e-39
3.98873e-39
3.87698e-39
3.76942e-39
3.71848e-39
3.77971e-39
3.98418e-39
4.35768e-39
1
1
1
1
0.910486
0.143628
3.73564e-18
2.37437e-18
1.26457e-18
4.48179e-19
8.72535e-20
4.31574e-21
3.17126e-23
6.66146e-24
2.33724e-24
1.06903e-24
7.06643e-25
4.71966e-25
2.85642e-25
1.50125e-25
6.54989e-26
2.22789e-26
5.37828e-27
7.92564e-28
5.91594e-29
3.89798e-30
1.99429e-31
8.662e-33
3.28046e-34
1.15707e-35
4.08088e-37
1.54978e-38
6.81299e-40
4.48373e-41
1.67265e-41
2.02953e-41
2.71628e-41
3.59786e-41
4.68893e-41
6.00785e-41
7.56425e-41
9.35402e-41
1.13546e-40
1.35208e-40
1.5783e-40
1.80444e-40
2.0184e-40
2.20654e-40
2.35617e-40
2.45751e-40
2.50512e-40
2.49745e-40
2.43272e-40
2.30774e-40
2.1283e-40
1.92598e-40
1.74593e-40
1.63207e-40
1.61627e-40
1.71589e-40
1
1
1
1
1
1
1
1
1
1
1
1
1
1
1
1
1
1
1
1
1
1
1
1
1
1
1
1
1
1
1
1
1
1
1
1
1
1
1
1
1
1
1
1
1
1
1
1
1
1
1
1
1
1
1
1
1
1
1
1
1
1
1
1
1
1
1
1
1
1
1
1
1
1
1
1
1
1
1
1
1
1
1
1
1
1
1
1
1
1
1
1
1
1
1
1
1
1
1
1
1
1
1
1
1
1
1
1
1
1
1
1
1
1
1
1
1
1
1
1
1
1
1
1
1
1
1
1
1
1
1
1
1
1
1
1
1
1
1
1
1
1
1
1
1
1
1
1
1
1
1
1
1
1
1
1
1
1
1
1
1
1
1
1
1
1
1
1
1
1
1
1
1
1
1
1
1
1
1
1
1
1
1
1
1
1
1
1
1
1
1
1
1
1
1
1
1
1
1
1
1
1
1
1
1
1
1
1
1
1
1
1
1
1
1
1
1
1
1
1
0.999988
1
1
1
1
1
1
1
1
1
0.999662
0.998697
0.996189
0.991187
0.981811
0.966542
0.941772
0.906368
0.850731
0.785972
0.591991
0.599969
0.590915
0.591701
0.578586
0.571545
0.553162
0.537309
0.513037
0.486188
0.452892
0.415105
0.37182
0.323382
0.26987
0.213253
0.155052
0.100185
0.0472708
2.50177e-18
3.88986e-22
3.87735e-22
3.86484e-22
3.85238e-22
3.83992e-22
3.82751e-22
3.8151e-22
3.80274e-22
3.79038e-22
3.77807e-22
3.76576e-22
3.7535e-22
3.74124e-22
3.72903e-22
3.71682e-22
3.70466e-22
3.6925e-22
3.68039e-22
3.66828e-22
3.83009e-20
2.1255e-21
2.45372e-21
5.25864e-21
7.02812e-21
8.93659e-21
1.04797e-20
1.19151e-20
1.29524e-20
1.35625e-20
1.36127e-20
1.30674e-20
1.19719e-20
1.04266e-20
8.58006e-21
6.59703e-21
4.67335e-21
2.84377e-21
1.49834e-21
3.65622e-22
3.65349e-20
1.26744e-21
9.43097e-22
1.18976e-21
1.73271e-21
2.50773e-21
2.9869e-21
3.37013e-21
3.59472e-21
3.64192e-21
3.50283e-21
3.19437e-21
2.75734e-21
2.24807e-21
1.7273e-21
1.24599e-21
8.42859e-22
4.98171e-22
2.22546e-22
3.26131e-23
1.29581e-23
6.00545e-22
2.71541e-22
2.57887e-22
3.33746e-22
4.50248e-22
5.40457e-22
5.88625e-22
5.94602e-22
5.62017e-22
4.97923e-22
4.13666e-22
3.22247e-22
2.35308e-22
1.61211e-22
1.03979e-22
6.38939e-23
3.73019e-23
2.1306e-23
1.16744e-23
6.08773e-24
2.43318e-22
7.13421e-23
5.11993e-23
6.19224e-23
6.96597e-23
7.77655e-23
7.97714e-23
7.63804e-23
6.85695e-23
5.78925e-23
4.60062e-23
3.43997e-23
2.41704e-23
1.59131e-23
9.75879e-24
5.49037e-24
2.74038e-24
1.12589e-24
2.75918e-25
9.4959e-26
9.32225e-23
2.47063e-23
1.187e-23
1.29606e-23
1.26662e-23
1.2786e-23
1.20283e-23
1.0639e-23
8.83429e-24
6.91044e-24
5.09508e-24
3.5397e-24
2.31758e-24
1.43267e-24
8.40136e-25
4.7125e-25
2.55442e-25
1.34809e-25
7.00573e-26
3.43951e-26
2.12241e-23
4.57909e-24
2.27192e-24
2.45752e-24
2.12539e-24
1.99729e-24
1.75308e-24
1.46771e-24
1.16111e-24
8.69764e-25
6.16712e-25
4.13157e-25
2.6094e-25
1.5487e-25
8.59077e-26
4.41143e-26
2.06319e-26
8.61131e-27
3.05794e-27
9.82161e-28
3.04539e-24
1.02592e-24
4.93526e-25
4.16053e-25
3.34628e-25
2.88475e-25
2.35634e-25
1.85114e-25
1.37652e-25
9.7028e-26
6.47054e-26
4.0725e-26
2.41808e-26
1.35717e-26
7.2333e-27
3.68649e-27
1.81133e-27
8.62506e-28
3.99309e-28
1.78268e-28
2.85352e-25
1.20152e-25
6.17963e-26
5.29749e-26
3.93566e-26
3.24125e-26
2.52057e-26
1.9055e-26
1.36745e-26
9.31747e-27
6.00414e-27
3.64518e-27
2.07942e-27
1.11186e-27
5.55075e-28
2.56967e-28
1.0916e-28
4.20687e-29
1.46561e-29
4.71477e-30
1.62247e-26
1.00487e-26
5.87701e-27
4.79395e-27
3.38104e-27
2.64618e-27
1.95e-27
1.41073e-27
9.6474e-28
6.23721e-28
3.78195e-28