/*--------------------------------*- C++ -*----------------------------------*\
| =========                 |                                                 |
| \\      /  F ield         | OpenFOAM: The Open Source CFD Toolbox           |
|  \\    /   O peration     | Version:  v1606+                                |
|   \\  /    A nd           | Web:      www.OpenFOAM.com                      |
|    \\/     M anipulation  |                                                 |
\*---------------------------------------------------------------------------*/
FoamFile
{
    version     2.0;
    format      ascii;
    class       volScalarField;
    location    "34";
    object      p_rgh;
}
// * * * * * * * * * * * * * * * * * * * * * * * * * * * * * * * * * * * * * //

dimensions      [1 -1 -2 0 0 0 0];

internalField   nonuniform List<scalar> 
5080
(
428235
428250
428283
428333
428400
428483
428580
428686
428801
428921
429044
429166
429285
429397
429501
429591
429663
429718
429729
429728
428124
428143
428179
428233
428301
428385
428480
428587
428700
428820
428938
429059
429171
429281
429371
429465
429519
429592
429607
429658
427945
427962
427997
428050
428118
428201
428296
428401
428514
428632
428752
428871
428986
429095
429196
429287
429372
429432
429503
429551
427684
427701
427735
427786
427854
427936
428030
428135
428246
428363
428482
428599
428714
428822
428922
429007
429081
429135
429172
429229
427355
427372
427405
427456
427522
427602
427695
427798
427908
428022
428139
428255
428366
428471
428566
428653
428721
428802
428824
428897
426968
426985
427017
427066
427130
427208
427299
427399
427506
427618
427732
427844
427954
428058
428155
428235
428310
428344
428404
428402
426532
426548
426579
426626
426687
426762
426849
426945
427048
427156
427265
427374
427478
427576
427661
427743
427796
427887
427885
427992
426055
426070
426099
426143
426201
426272
426354
426444
426542
426643
426746
426848
426948
427040
427130
427197
427277
427269
427370
427295
425546
425560
425587
425627
425680
425745
425820
425903
425992
426084
426178
426271
426359
426441
426507
426578
426601
426715
426658
426846
425013
425025
425049
425085
425132
425189
425255
425328
425405
425486
425566
425645
425721
425789
425858
425901
425984
425918
426082
425898
424464
424474
424494
424524
424564
424611
424666
424726
424788
424852
424915
424974
425028
425076
425105
425146
425113
425251
425099
425420
423907
423915
423930
423954
423984
424020
424060
424103
424147
424189
424228
424261
424287
424306
424324
424318
424382
424229
424472
424111
423350
423355
423365
423380
423400
423422
423446
423468
423488
423503
423510
423508
423495
423470
423426
423390
423254
423386
423060
423592
422799
422801
422806
422812
422819
422825
422829
422828
422819
422800
422767
422719
422654
422571
422478
422365
422341
422056
422369
421678
422262
422261
422259
422255
422248
422237
422219
422191
422149
422089
422008
421902
421767
421603
421408
421197
420865
420868
420196
421061
421744
421740
421731
421716
421695
421666
421623
421565
421486
421380
421241
421064
420842
420571
420254
419897
419597
419075
419338
417974
421251
421243
421227
421202
421166
421117
421050
420960
420840
420683
420480
420221
419893
419489
418995
418412
417678
417164
415731
416894
420786
420775
420752
420717
420667
420598
420506
420384
420223
420012
419740
419389
418941
418374
417661
416795
415776
414565
414295
410980
420353
420339
420309
420264
420201
420114
419998
419845
419644
419381
419039
418595
418015
417270
416295
415050
413416
411380
408267
406968
419955
419937
419902
419848
419772
419669
419532
419351
419113
418802
418395
417862
417156
416224
414976
413290
411072
407624
405413
391290
209077
213848
212451
204214
187394
164411
139922
115765
94721.9
78387.2
66041.3
57096.6
50841.6
46654.8
44086.9
42294.5
39474.5
38275.7
40181.7
41722.2
42031.8
42069.3
41900.8
41505.2
41133.6
41552.3
42157
42847.8
42903
42558.3
42398
42315.2
42259.2
42385.6
42807.9
43058
42884.7
42890.2
43362.5
43432.8
43327.7
42520.4
41882.2
41744.3
41967.2
41766.8
40943.8
39606.6
38579
37436.9
35372.8
34690.1
34405.1
28507.9
26244.7
25872.7
24731.1
25485.3
27682.4
29121.6
207620
210395
208432
200517
184472
162416
138612
114018
92614.2
76907.5
64637
55548.9
49217.8
45055.5
41851.5
39328
38046.7
38435.5
39992.8
42117.1
42077.9
42194.6
42068.1
41007.7
39466.4
39885.7
40896
43146.6
43225.6
42751.2
42511.3
42314.1
42028.1
41965.8
42237.2
42743.3
42856.9
42699.5
43871.2
44250.8
43763.9
42633.1
41754.1
41337.2
41626.9
41758.4
41058.2
39669.4
38669.8
37829.9
35561.1
33671.8
29064.1
25043.4
25006.2
25877.8
25607
24453.5
23925.1
26982.9
206915
206025
203002
195519
180209
160126
138248
115799
96549.6
81122.6
69047.1
60059.9
53926
49869.6
47193
45187.2
43841.6
43533.5
43055.6
42354
42221.5
42391.9
39869.8
39050
39248.5
41895.8
43498.4
43685.6
43332.2
41356.7
40143.2
38512.9
37784.6
37950
38308.3
38877
39271.8
39661.6
44130.4
44455
42972.5
37628.9
36472.2
36318.9
40544.3
42295.3
41291.2
39669.4
38791
36733
29059.5
26774
27703.4
30879.3
31511.8
29744.2
25331.2
24091.4
23834.2
26833.4
201726
202959
204937
198356
181772
159628
134338
110536
91504.5
76898.6
65865.3
57835.8
52262.4
48577.3
45994.1
44090.4
43346.7
43093.4
42784.6
42359.9
42281.6
42065.2
42432.4
42961.6
43519.6
43600.6
43691.5
43945.2
38981.5
36539.4
36768
38214.7
38873.5
38758.2
40630.7
44795
46133
46081.9
45016.5
37669.3
36199.8
36528.3
36280.6
41023.3
43475.2
42814
36473.2
25910.2
25027.9
24689.9
24442.5
26590.3
36065.7
38375.7
38656
35819.6
25795.9
24375.7
28031.1
35990.1
198523
202409
202318
190970
172148
148714
124533
102156
84256.6
70932.9
61192.2
54329.4
49409.3
46367.6
44341.8
43217.3
42588.1
42427.2
42343
42188.9
42202
42444.9
42922.1
43387.8
43667
43689
43840
42363.1
41807.9
43073.4
44667.5
45831.9
46315.7
46762.8
47072.7
46941.3
46954.7
42914.4
39685.1
39932.2
43820
47132.9
47139.2
46029.5
41768.7
33892.9
33642
36387.5
41608.7
42907.7
42581.8
41731.9
40097
39333.8
39428.1
37702.5
36190
38026.1
39902.1
38995.6
205292
206882
198658
181871
161478
137123
111151
89283.1
73530.2
62146.1
54110
48977
46009.2
44116.3
42898.9
42098.8
41593.3
41590.5
41739.9
41851.5
42027.4
42327.6
42767.5
43222.1
43556.7
43717.7
43869.1
44314.8
45183.5
45949.1
46313.9
46596.2
46975.1
47324.5
47448
47270.4
46873.4
47216.7
47468.4
47885.6
47753
47336.8
47093.1
46325.4
45621
45307.4
45002.7
44714.3
43610
42742.1
42328.1
41756.2
40794.5
40113.4
39881
40573.2
42497.2
43412.6
42530.7
40167.7
200563
206108
195399
174708
148221
118891
91889.9
71001.9
58608.9
50094.4
43761.9
39351.1
37407.4
37165.2
37569.4
38367.3
39227.4
40131
40844.2
41234.2
41634.3
42046.7
42503.7
42983.3
43400.1
43688.9
43940.6
44341.4
45017.9
45741.4
46240.2
46607.1
46993
47360.9
47599.1
47709.6
47837.2
48084.3
48188.8
48249.4
48044.8
47649.1
47253.2
46635.9
46005.7
45522.8
45030.3
44378.7
43281.5
42586.5
42345.4
42046.3
41159.9
40323.5
40013.2
40081.1
41342.5
42274.2
42226
40885.4
203571
201300
186169
162467
131452
97531.3
68805.5
43948.2
29876.5
21046.4
14140.1
7868.81
7331.53
8146.1
10207
12812.5
15081.8
16926.4
18809.3
21198.8
24066.9
27219
30288.3
32864.8
34618
35725.3
36745.3
38186.4
40292.7
42615.7
44335.4
45454
46562.4
47345.2
47731.6
48016.9
48196.5
48385.9
48411.8
48385
48161.9
47766.8
47467
47048.2
46535.1
46055.7
45358.4
43909.8
41471.5
39135.4
37197.6
34184.2
24855.1
13593.7
12797
17319.7
29887.7
37944.4
38253.7
31370.4
193527
190409
175225
149541
113462
72898.5
30306.2
4010.37
109.159
58.6562
40.3421
28.2554
20.3033
12.7097
4.64085
-1.23469
-4.12735
18.0851
125.642
401.31
927.149
1770.49
2940.25
4304.87
5669.5
7060.4
8802.97
11450.6
15453.4
20087
23576.3
25436.2
26808.3
28803.5
31987
35018.1
35962.6
36238.3
36779
38811.1
40990.1
40897.6
40240
37694.6
33538.9
30793.7
26913.9
15804.9
2508.8
-14.564
-16.4181
-13.0142
-5.70278
81.8114
688.231
3317.82
6563.43
6572.1
4606.36
924.845
180023
178203
163410
135836
93801.1
27532.5
458.041
68.2813
62.9279
57.2081
40.0005
28.2053
20.0081
13.1061
6.66239
0.842394
-4.66915
-9.95874
-13.756
-13.3971
-9.76104
-7.07607
-6.7279
-5.96626
-2.81688
0.905017
1.76942
-1.50276
6.95362
148.587
481.262
992.71
1696.38
2574.09
3533.19
4871.22
7930.04
12884.9
13860.9
12289.4
7131.61
1189.09
-9.08646
-11.528
-11.5372
-13.996
-18.653
-24.7301
-1.43696
-0.330966
-10.6904
-16.7103
-22.1007
-25.8711
-26.1239
-37.4346
-46.3765
-46.8106
-37.3916
-33.7844
167385
166017
151943
122623
65600.5
4015.98
152.106
67.7157
61.7099
49.5762
33.0549
21.7224
14.2895
8.37534
3.02307
-1.72051
-5.66468
-8.76725
-10.8408
-11.6299
-10.8479
-9.58586
-8.68841
-7.98995
-7.16625
-6.26506
-5.6632
-6.4026
-10.0338
-14.0819
-13.3351
-9.70316
-7.45874
-6.67831
-5.77289
-5.29381
-7.8065
-12.0494
-13.6689
-15.8697
-14.1088
4.77749
8.69155
-1.20547
-5.89928
-8.32183
-10.5466
-12.4861
-7.51435
-7.70886
-11.7608
-15.545
-17.4008
-18.1092
-20.2663
-19.6556
-19.6741
-22.8574
-28.5044
-32.5032
155911
154418
141112
111623
31902.7
377.204
59.7025
66.2993
51.4792
35.4857
22.873
14.3628
8.64231
4.07482
-0.04123
-3.73538
-6.79516
-9.31339
-11.1896
-11.9195
-11.5096
-10.5535
-9.5972
-8.65445
-7.45021
-6.13474
-5.35115
-5.85235
-8.14607
-10.4155
-10.7509
-10.0006
-9.05315
-8.50012
-8.15004
-7.85065
-7.9209
-8.34403
-8.96189
-9.67773
-10.0619
-3.39699
-1.17321
-3.668
-6.25959
-8.61324
-11.0282
-12.5186
-10.0888
-9.63548
-12.1779
-14.908
-16.9721
-18.8408
-21.5228
-24.706
-27.7754
-29.9999
-28.9594
-29.9493
145720
144282
131527
102341
17784.8
139.585
55.7235
44.964
33.3862
21.3793
13.0467
7.45382
3.45944
0.16193
-2.86834
-5.66136
-8.03043
-9.96883
-11.4277
-12.1889
-12.0767
-11.3732
-10.4621
-9.40869
-8.10389
-6.75199
-5.89521
-6.14213
-7.84425
-10.0256
-11.0128
-10.4627
-9.70419
-9.02893
-8.4668
-8.09101
-8.26972
-9.39013
-9.90086
-10.5054
-9.69944
-5.40759
-3.01426
-4.27286
-6.34682
-8.58554
-10.8972
-12.1876
-10.9572
-10.7243
-12.523
-14.8584
-17.0345
-19.1029
-21.4199
-23.8415
-25.8012
-26.8916
-27.3029
-27.4068
127580
137376
124148
93092.7
11110.3
67.6065
38.2898
26.6153
18.0442
10.3041
5.08717
1.58402
-1.05398
-3.32875
-5.48993
-7.54591
-9.33088
-10.7735
-11.8751
-12.536
-12.5743
-12.0715
-11.2514
-10.2126
-8.96685
-7.70144
-6.82087
-6.81296
-7.97025
-9.68978
-10.7581
-10.7268
-10.2094
-9.56947
-8.95417
-8.54233
-8.65115
-9.24432
-9.7746
-10.2219
-9.35136
-6.36393
-4.38369
-4.88617
-6.44475
-8.37954
-10.4066
-11.6306
-11.3517
-11.4991
-12.917
-14.9184
-16.9472
-18.9078
-20.9134
-22.8575
-24.445
-25.4987
-25.6769
-25.2948
121796
133761
119504
65645.2
5942.93
38.4283
24.4128
12.9399
6.83727
2.15647
-0.932466
-3.02848
-4.68958
-6.21557
-7.73115
-9.22339
-10.5525
-11.6285
-12.4509
-12.9616
-13.0302
-12.6443
-11.9143
-10.9324
-9.7638
-8.58157
-7.70423
-7.51753
-8.25092
-9.54089
-10.5516
-10.8254
-10.5689
-10.0688
-9.51143
-9.09296
-9.04566
-9.33227
-9.66472
-9.89363
-9.14338
-7.09255
-5.56916
-5.63575
-6.72936
-8.32361
-10.0628
-11.2653
-11.5713
-12.0216
-13.2437
-14.9607
-16.7942
-18.6137
-20.4112
-22.0891
-23.4271
-24.2331
-24.2143
-23.5294
120711
133307
118465
44301.2
4295.1
29.9612
15.5628
4.013
-0.800499
-3.56775
-5.2246
-6.36404
-7.35466
-8.3754
-9.45545
-10.5596
-11.572
-12.3996
-13.021
-13.3971
-13.4403
-13.1091
-12.4502
-11.5344
-10.4453
-9.34561
-8.49537
-8.1956
-8.62658
-9.56374
-10.4379
-10.8402
-10.7794
-10.4301
-9.96568
-9.56842
-9.41767
-9.51087
-9.66662
-9.72025
-9.0882
-7.65415
-6.49403
-6.37342
-7.13631
-8.42816
-9.90818
-11.0654
-11.6871
-12.3456
-13.4734
-14.9837
-16.6395
-18.3072
-19.9177
-21.3626
-22.4546
-23.0176
-22.8897
-22.035
121382
134703
121602
45700
4276.59
29.4989
10.509
-0.62939
-5.12125
-7.07956
-7.96493
-8.53109
-9.10702
-9.81395
-10.628
-11.4933
-12.3097
-12.9841
-13.4782
-13.7603
-13.7698
-13.4654
-12.865
-12.0204
-11.0179
-10.0063
-9.19974
-8.83271
-9.04416
-9.69615
-10.4012
-10.8237
-10.8825
-10.6613
-10.2948
-9.93931
-9.73634
-9.70029
-9.7202
-9.64591
-9.10824
-8.07488
-7.20316
-7.0344
-7.58055
-8.62183
-9.87463
-10.9639
-11.7473
-12.5381
-13.6188
-14.9798
-16.4748
-17.9816
-19.4068
-20.6377
-21.5209
-21.9068
-21.7009
-20.771
124559
137112
126244
76894.3
3908.07
24.9926
7.04514
-2.80266
-7.05725
-8.80455
-9.41957
-9.7329
-10.0978
-10.6292
-11.2939
-12.0243
-12.7326
-13.3242
-13.7517
-13.9845
-13.9764
-13.6959
-13.1528
-12.3859
-11.4773
-10.5588
-9.80645
-9.403
-9.45539
-9.88097
-10.4169
-10.8004
-10.9183
-10.7928
-10.5156
-10.2097
-9.98564
-9.86625
-9.78725
-9.62994
-9.16945
-8.41082
-7.76353
-7.60746
-8.0144
-8.85711
-9.91889
-10.93
-11.7848
-12.6476
-13.694
-14.9381
-16.287
-17.6363
-18.8891
-19.9368
-20.653
-20.9105
-20.6482
-19.7053
147049
140734
130937
89130.4
3122.02
16.7512
4.35702
-3.92987
-7.73636
-9.33134
-9.94916
-10.2229
-10.5152
-10.9627
-11.5472
-12.2005
-12.8526
-13.4054
-13.8076
-14.0281
-14.0266
-13.7804
-13.3019
-12.6205
-11.8123
-10.9914
-10.3011
-9.88464
-9.82538
-10.0758
-10.459
-10.7756
-10.9103
-10.8486
-10.6445
-10.3879
-10.1624
-9.99525
-9.85216
-9.64941
-9.25522
-8.69044
-8.21635
-8.09673
-8.41657
-9.10775
-10.0139
-10.9435
-11.8129
-12.7012
-13.7105
-14.8554
-16.0735
-17.2778
-18.3773
-19.272
-19.855
-20.0195
-19.7215
-18.8026
153662
145439
135927
78734.8
3344.1
13.2188
1.92359
-4.68917
-7.7872
-9.35092
-9.95051
-10.2629
-10.5556
-10.9719
-11.5053
-12.1018
-12.718
-13.2501
-13.6464
-13.8781
-13.904
-13.7056
-13.3027
-12.7154
-12.0136
-11.2947
-10.6734
-10.2629
-10.1299
-10.2495
-10.5037
-10.7451
-10.8702
-10.8455
-10.6966
-10.4845
-10.271
-10.0832
-9.90608
-9.68647
-9.3515
-8.92771
-8.58622
-8.50994
-8.77734
-9.35557
-10.1365
-10.9852
-11.834
-12.7138
-13.6784
-14.7344
-15.8358
-16.9103
-17.8761
-18.6437
-19.122
-19.2217
-18.9052
-18.0315
159755
151179
141240
65843.2
5177.86
10.1996
-0.157069
-5.50886
-7.72135
-9.08595
-9.69988
-10.0736
-10.3957
-10.8033
-11.292
-11.825
-12.3996
-12.9061
-13.296
-13.5476
-13.6133
-13.4718
-13.1544
-12.6683
-12.0775
-11.4642
-10.9182
-10.5298
-10.3537
-10.3798
-10.5312
-10.7009
-10.8025
-10.7954
-10.6859
-10.5124
-10.319
-10.1304
-9.94299
-9.72698
-9.44621
-9.12845
-8.88879
-8.85473
-9.09163
-9.5864
-10.2665
-11.0378
-11.8455
-12.6938
-13.6058
-14.579
-15.5758
-16.5354
-17.386
-18.0492
-18.4468
-18.5037
-18.1829
-17.3659
166261
158053
147803
66872.1
7876.35
3.28667
-2.78344
-6.58733
-7.7707
-8.8356
-9.41446
-9.82784
-10.1772
-10.5765
-11.0137
-11.4651
-11.9785
-12.4403
-12.8086
-13.0735
-13.1779
-13.0962
-12.8695
-12.4881
-12.0089
-11.5031
-11.0369
-10.6837
-10.4891
-10.453
-10.5271
-10.6354
-10.7087
-10.7067
-10.6246
-10.4839
-10.3153
-10.1392
-9.9586
-9.76002
-9.5296
-9.29431
-9.13368
-9.13721
-9.35667
-9.78939
-10.3878
-11.0869
-11.8424
-12.6448
-13.4981
-14.3925
-15.2946
-16.1532
-16.9058
-17.4842
-17.8212
-17.8524
-17.5386
-16.784
172993
152598
155649
89885.6
10560.6
-3.04608
-5.71597
-7.96033
-8.08359
-8.78369
-9.2449
-9.64358
-9.99437
-10.3701
-10.7466
-11.1071
-11.5394
-11.934
-12.2586
-12.5168
-12.6444
-12.6162
-12.4749
-12.193
-11.8251
-11.4236
-11.0391
-10.7305
-10.5363
-10.4634
-10.4831
-10.5429
-10.5891
-10.5858
-10.5228
-10.4101
-10.2677
-10.1121
-9.9498
-9.77739
-9.59403
-9.42486
-9.3263
-9.36167
-9.57092
-9.95665
-10.4884
-11.121
-11.8194
-12.5675
-13.3584
-14.1772
-14.9936
-15.7635
-16.4331
-16.9434
-17.236
-17.2546
-16.9566
-16.267
178526
124534
164053
116202
13517.8
-5.54297
-7.71491
-9.40654
-8.61945
-8.97351
-9.24048
-9.5587
-9.86884
-10.2005
-10.5185
-10.808
-11.1584
-11.4751
-11.7391
-11.9619
-12.0842
-12.0941
-12.0155
-11.8187
-11.5503
-11.2453
-10.9399
-10.6813
-10.5019
-10.4124
-10.3975
-10.4219
-10.4451
-10.4381
-10.3887
-10.2996
-10.1832
-10.0523
-9.91477
-9.77324
-9.63366
-9.51866
-9.46931
-9.53081
-9.73366
-10.0829
-10.5593
-11.1316
-11.7719
-12.4619
-13.189
-13.9356
-14.6739
-15.3657
-15.9651
-16.4208
-16.6818
-16.6977
-16.4225
-15.7989
184068
130041
172345
128856
17282.8
-6.30443
-8.40287
-10.7056
-9.21977
-9.33017
-9.36501
-9.55239
-9.77726
-10.0477
-10.3128
-10.5532
-10.8403
-11.0929
-11.3046
-11.484
-11.5838
-11.6084
-11.5567
-11.4193
-11.2257
-10.9979
-10.7614
-10.5522
-10.3963
-10.3053
-10.2716
-10.2724
-10.279
-10.2687
-10.2295
-10.1602
-10.0683
-9.96331
-9.85336
-9.74407
-9.64448
-9.57432
-9.56415
-9.64662
-9.84494
-10.165
-10.5949
-11.1128
-11.6964
-12.3277
-12.9917
-13.6696
-14.3365
-14.9592
-15.4984
-15.91
-16.1491
-16.1696
-15.9229
-15.3654
190849
136375
180215
138720
22155.4
-6.79266
-7.99289
-11.7261
-9.71786
-9.73924
-9.55946
-9.60632
-9.72294
-9.92055
-10.122
-10.3043
-10.5386
-10.7425
-10.9251
-11.0758
-11.1625
-11.192
-11.1551
-11.0549
-10.9076
-10.7302
-10.5417
-10.3703
-10.2365
-10.1506
-10.1086
-10.0956
-10.092
-10.0803
-10.05
-9.9982
-9.92901
-9.84955
-9.76704
-9.68876
-9.62471
-9.59159
-9.61247
-9.71131
-9.90584
-10.2018
-10.5921
-11.0613
-11.5911
-12.1652
-12.768
-13.3812
-13.9824
-14.543
-15.0298
-15.405
-15.6289
-15.6592
-15.4456
-14.9539
181077
187389
187942
150906
28540.7
-7.04173
-6.6321
-12.4338
-10.0067
-10.0952
-9.76245
-9.69198
-9.69773
-9.8122
-9.94599
-10.0729
-10.2585
-10.4169
-10.5715
-10.6935
-10.7785
-10.8146
-10.7977
-10.7284
-10.6193
-10.4783
-10.3235
-10.1783
-10.058
-9.97398
-9.92388
-9.89935
-9.88748
-9.87497
-9.85239
-9.81621
-9.76807
-9.71286
-9.65693
-9.60742
-9.57448
-9.57168
-9.61687
-9.72798
-9.91873
-10.1943
-10.5503
-10.9755
-11.4553
-11.9749
-12.5196
-13.0719
-13.6123
-14.1163
-14.5564
-14.9002
-15.113
-15.1562
-14.9794
-14.5533
146200
204380
195382
164698
37356.3
-7.17503
-4.49246
-12.9294
-10.0684
-10.3118
-9.9039
-9.75138
-9.66707
-9.70521
-9.78212
-9.86327
-10.0027
-10.1226
-10.2482
-10.3478
-10.4265
-10.4609
-10.4605
-10.4157
-10.3369
-10.2283
-10.1068
-9.98685
-9.88203
-9.80142
-9.74457
-9.70879
-9.68594
-9.66757
-9.6465
-9.6199
-9.58813
-9.55387
-9.52188
-9.49837
-9.49236
-9.5149
-9.57944
-9.69981
-9.88665
-10.1446
-10.4703
-10.856
-11.2898
-11.7584
-12.2483
-12.7437
-13.2274
-13.6791
-14.0759
-14.3908
-14.5939
-14.6508
-14.5141
-14.154
144675
208242
202130
179264
50087.9
-9.70293
-1.76202
-13.3254
-9.94685
-10.3256
-9.93468
-9.74451
-9.60897
-9.58756
-9.61958
-9.65872
-9.75652
-9.84622
-9.94659
-10.0294
-10.0985
-10.1339
-10.1428
-10.1138
-10.058
-9.97519
-9.88002
-9.78176
-9.69436
-9.62191
-9.56779
-9.52905
-9.50076
-9.4773
-9.45439
-9.4308
-9.40683
-9.38476
-9.36851
-9.36381
-9.37831
-9.42049
-9.50009
-9.6274
-9.81062
-10.053
-10.3526
-10.7034
-11.0954
-11.5173
-11.9564
-12.3987
-12.8296
-13.2321
-13.5873
-13.8733
-14.0652
-14.1343
-14.0409
-13.7493
144333
207552
207682
193112
68328.8
-18.7754
1.62772
-13.2771
-9.63331
-10.072
-9.81319
-9.6454
-9.49772
-9.4369
-9.44111
-9.45418
-9.51999
-9.58707
-9.66501
-9.73259
-9.79115
-9.82373
-9.83498
-9.81938
-9.78039
-9.71943
-9.64672
-9.5685
-9.49628
-9.43238
-9.38155
-9.34243
-9.3133
-9.29068
-9.27167
-9.25418
-9.23773
-9.22393
-9.21696
-9.22245
-9.24739
-9.29927
-9.38554
-9.51413
-9.69148
-9.91944
-10.196
-10.516
-10.871
-11.2508
-11.644
-12.038
-12.4201
-12.7761
-13.0906
-13.3458
-13.522
-13.5984
-13.5517
-13.3323
149384
207130
211714
204676
93042
-36.6634
5.0505
-11.7995
-8.99512
-9.50364
-9.49529
-9.43288
-9.31911
-9.24917
-9.24303
-9.24174
-9.28218
-9.33373
-9.39284
-9.44975
-9.49874
-9.52958
-9.54221
-9.53447
-9.50508
-9.46039
-9.40399
-9.3441
-9.28584
-9.23314
-9.18793
-9.15152
-9.12328
-9.10179
-9.0855
-9.07318
-9.0641
-9.05994
-9.06385
-9.07965
-9.11281
-9.16946
-9.25603
-9.3794
-9.54486
-9.75432
-10.0059
-10.2952
-10.6153
-10.9566
-11.3084
-11.6592
-11.9975
-12.3106
-12.5854
-12.8077
-12.9623
-13.0361
-13.0285
-12.8722
142823
205666
213864
212891
123317
17.5588
8.40192
-8.68716
-8.02412
-8.67789
-9.00251
-9.10314
-9.0686
-9.02004
-9.02137
-9.02066
-9.04747
-9.08831
-9.13093
-9.17746
-9.21452
-9.24224
-9.25552
-9.25372
-9.23437
-9.20292
-9.15984
-9.11395
-9.06578
-9.02174
-8.98255
-8.9509
-8.92669
-8.90939
-8.89709
-8.88916
-8.88565
-8.88795
-8.89901
-8.92238
-8.96214
-9.02324
-9.11117
-9.23053
-9.38499
-9.57591
-9.80166
-10.059
-10.3421
-10.6434
-10.9535
-11.2627
-11.5602
-11.834
-12.0715
-12.2607
-12.3893
-12.4458
-12.4284
-12.2743
125447
200766
214027
217864
153805
6317.61
12.5253
-6.09457
-7.35552
-7.9414
-8.48503
-8.70914
-8.7669
-8.75638
-8.7774
-8.78468
-8.80671
-8.84106
-8.87405
-8.91314
-8.94127
-8.9648
-8.97616
-8.9762
-8.9643
-8.94252
-8.91285
-8.87857
-8.84132
-8.80466
-8.77077
-8.74281
-8.72174
-8.70778
-8.69987
-8.69713
-8.69965
-8.70849
-8.7256
-8.75377
-8.79691
-8.85938
-8.94558
-9.05962
-9.2042
-9.37957
-9.58446
-9.81518
-10.066
-10.3303
-10.6001
-10.8671
-11.1225
-11.3561
-11.5569
-11.7144
-11.8178
-11.8559
-11.8328
-11.6761
108547
185903
212705
221224
181555
15838.5
1.16605
-4.80937
-7.67402
-7.52475
-8.09763
-8.33328
-8.45787
-8.48104
-8.52287
-8.53957
-8.56248
-8.59024
-8.61711
-8.6488
-8.67137
-8.69167
-8.70301
-8.70547
-8.6994
-8.68403
-8.66337
-8.63682
-8.60841
-8.57886
-8.55188
-8.52937
-8.51276
-8.50212
-8.49692
-8.49707
-8.50306
-8.51606
-8.53787
-8.57068
-8.61734
-8.68123
-8.76557
-8.87329
-9.00655
-9.16597
-9.35032
-9.55668
-9.78017
-10.0143
-10.2518
-10.4846
-10.7042
-10.9018
-11.0684
-11.1965
-11.2791
-11.3078
-11.2993
-11.191
99392.1
164138
211042
223418
207060
26799.4
-15.2593
-5.25508
-8.21478
-7.41429
-7.86688
-8.03042
-8.17309
-8.21265
-8.26513
-8.28896
-8.31448
-8.33772
-8.3621
-8.38521
-8.40418
-8.42081
-8.43173
-8.43647
-8.43528
-8.42696
-8.41349
-8.39423
-8.37175
-8.34774
-8.32585
-8.30776
-8.29542
-8.28851
-8.28692
-8.2905
-8.29971
-8.31572
-8.34011
-8.37486
-8.42245
-8.48573
-8.56728
-8.66937
-8.79346
-8.93955
-9.10616
-9.29036
-9.48787
-9.69358
-9.90166
-10.1054
-10.2974
-10.4694
-10.6132
-10.7223
-10.7917
-10.814
-10.8166
-10.7371
138896
145367
209648
224525
228764
38424.4
-25.8006
-6.39994
-8.79066
-7.48192
-7.76277
-7.81773
-7.92788
-7.9614
-8.007
-8.03375
-8.05908
-8.07904
-8.10185
-8.11957
-8.13848
-8.15288
-8.16399
-8.17098
-8.1725
-8.1693
-8.1604
-8.14709
-8.1302
-8.11221
-8.09543
-8.08198
-8.07291
-8.06871
-8.06928
-8.07492
-8.08632
-8.10462
-8.13123
-8.16773
-8.21602
-8.27818
-8.35621
-8.45181
-8.56605
-8.69889
-8.84905
-9.01396
-9.18991
-9.37213
-9.55512
-9.73289
-9.89915
-10.0477
-10.1725
-10.2684
-10.3308
-10.3537
-10.3591
-10.2966
132689
132695
210804
226549
245996
48471
-28.7138
-7.38032
-9.16805
-7.5775
-7.71966
-7.67202
-7.71655
-7.73044
-7.75535
-7.77905
-7.80056
-7.81859
-7.8382
-7.8534
-7.87062
-7.88461
-7.89753
-7.90719
-7.91196
-7.91238
-7.90679
-7.89707
-7.88407
-7.87082
-7.85865
-7.84969
-7.8441
-7.84258
-7.84513
-7.85241
-7.8653
-7.88493
-7.91259
-7.9495
-7.99719
-8.05737
-8.13162
-8.22122
-8.3269
-8.44827
-8.58385
-8.73123
-8.88709
-9.04753
-9.20818
-9.36405
-9.50979
-9.63971
-9.74867
-9.83251
-9.88846
-9.91123
-9.92174
-9.87267
113152
126175
214937
233443
258321
54543.8
-22.7877
-7.00208
-9.5677
-7.65683
-7.69324
-7.55842
-7.51633
-7.50528
-7.50703
-7.5224
-7.53832
-7.55513
-7.57103
-7.58701
-7.60317
-7.61832
-7.63225
-7.64327
-7.6509
-7.65323
-7.65062
-7.64378
-7.63464
-7.62533
-7.61752
-7.61203
-7.60953
-7.60999
-7.61407
-7.62236
-7.63603
-7.65626
-7.68426
-7.72113
-7.76798
-7.82601
-7.89637
-7.97988
-8.07692
-8.18712
-8.30924
-8.44119
-8.58006
-8.72224
-8.86369
-9.00004
-9.12687
-9.23997
-9.33539
-9.40981
-9.46072
-9.48333
-9.49522
-9.456
3779.24
159771
222024
245837
267829
52602.9
-22.9668
-5.20106
-10.0867
-7.83492
-7.63724
-7.41967
-7.30443
-7.27112
-7.25649
-7.26279
-7.27327
-7.28806
-7.30251
-7.31962
-7.33583
-7.35254
-7.36777
-7.38048
-7.38935
-7.39279
-7.39192
-7.38734
-7.38152
-7.37569
-7.37148
-7.36896
-7.36869
-7.37088
-7.37621
-7.38556
-7.39992
-7.4205
-7.44824
-7.48408
-7.529
-7.58404
-7.65013
-7.72785
-7.81731
-7.91789
-8.02822
-8.14629
-8.26947
-8.39476
-8.51893
-8.63847
-8.74972
-8.84899
-8.93286
-8.99859
-9.04452
-9.06628
-9.07931
-9.0478
181553
203639
236229
261298
254221
41519.2
-56.6095
-6.65941
-9.8124
-7.99621
-7.40936
-7.17219
-7.04937
-7.01555
-6.99342
-6.99438
-7.00307
-7.01691
-7.03305
-7.05118
-7.06965
-7.08817
-7.10455
-7.11795
-7.12659
-7.13055
-7.13006
-7.12732
-7.12398
-7.12157
-7.12042
-7.12074
-7.12233
-7.12584
-7.13193
-7.14174
-7.15636
-7.17679
-7.20393
-7.23858
-7.28155
-7.33366
-7.39557
-7.46761
-7.54964
-7.64095
-7.74024
-7.84571
-7.95511
-8.06587
-8.17509
-8.27981
-8.37697
-8.46374
-8.53753
-8.59602
-8.63775
-8.65847
-8.67142
-8.64565
419591
419571
419530
419469
419383
419266
419110
418906
418637
418286
417824
417216
416405
415297
413844
411588
409106
402713
398146
376879
419257
419234
419189
419122
419027
418899
418729
418505
418214
417829
417334
416656
415811
414502
413105
410077
407886
399845
393315
373681
418950
418920
418874
418802
418703
418563
418386
418142
417847
417424
416944
416173
415415
413881
412709
409404
407082
400356
392519
384353
418672
418628
418591
418509
418415
418256
418091
417814
417547
417066
416654
415788
415152
413559
412415
409641
406786
402780
395903
392678
418418
418364
418339
418242
418164
417978
417842
417522
417308
416768
416422
415535
414909
413527
412188
410192
407348
405294
400198
396939
418194
418127
418120
418003
417948
417732
417630
417276
417090
416550
416185
415408
414668
413616
412217
410946
408511
406956
403231
399765
418003
417922
417930
417797
417753
417531
417420
417091
416855
416408
415947
415359
414563
413822
412504
411560
409569
407919
405225
402275
417831
417761
417749
417636
417556
417381
417208
416967
416665
416329
415824
415409
414613
414044
412890
411965
410383
408752
406716
404365
417677
417646
417594
417521
417409
417282
417076
416905
416567
416337
415822
415479
414754
414186
413215
412258
410999
409556
407903
405987
417564
417567
417499
417452
417323
417238
417019
416886
416554
416338
415870
415503
414887
414275
413476
412563
411509
410287
408912
407322
417484
417526
417430
417418
417272
417214
416994
416867
416563
416326
415924
415525
415003
414405
413698
412872
411929
410847
409632
408275
417435
417503
417402
417400
417260
417194
416992
416841
416575
416309
415820
415034
413551
410991
406586
399729
388958
373844
350496
323464
249471
252824
249008
249332
243807
240833
233089
226402
216174
204854
190820
174892
156646
136229
113676
89814.2
65287.9
42162.1
19874.5
12.2452
-2.36195
-0.279289
-0.0670016
-0.149702
-0.208596
-0.3672
-0.464197
-0.655657
-0.831678
-1.04293
-1.27535
-1.56956
-1.94385
-2.36419
-2.79876
-3.23404
-3.72743
-3.23923
-0.635596
2.72818
0.308145
0.0933039
0.196732
0.191359
0.225926
0.248125
0.270483
0.297486
0.328367
0.365618
0.406465
0.446388
0.473299
0.473353
0.406712
0.334134
-0.335687
-0.126813
-2.64661
-1.30582
-0.477991
-0.19651
-0.154978
-0.0936645
-0.105731
-0.135751
-0.178969
-0.236066
-0.30011
-0.370256
-0.447141
-0.533113
-0.62777
-0.721568
-0.803969
-0.837466
-0.851688
-0.598317
-0.7445
0.0712768
0.0217965
-0.0296246
0.0576296
0.0178624
0.0363739
0.0229223
0.0179536
0.0082031
-0.00461418
-0.0211488
-0.0434264
-0.0746346
-0.119399
-0.181698
-0.272653
-0.35904
-0.562145
-0.591258
-0.851841
-0.36422
-0.185054
-0.14234
-0.126815
-0.102117
-0.103977
-0.110967
-0.128657
-0.152947
-0.183362
-0.21915
-0.26
-0.305403
-0.353533
-0.40127
-0.441861
-0.474058
-0.500942
-0.515463
-0.587668
-0.402463
-0.0847597
-0.0881943
-0.0575719
-0.065805
-0.0614978
-0.0707465
-0.0806239
-0.0935411
-0.109533
-0.128734
-0.151767
-0.179545
-0.213022
-0.252793
-0.299623
-0.35274
-0.422995
-0.490243
-0.607951
-0.490467
-0.14134
-0.130005
-0.13468
-0.127945
-0.132269
-0.1375
-0.14927
-0.165253
-0.18569
-0.210543
-0.239498
-0.271975
-0.306744
-0.34198
-0.375492
-0.407112
-0.437764
-0.466438
-0.526733
-0.515133
-0.110979
-0.113983
-0.102861
-0.110419
-0.112976
-0.12208
-0.131848
-0.144003
-0.158247
-0.175063
-0.194905
-0.218259
-0.245514
-0.276953
-0.312926
-0.354058
-0.400837
-0.452913
-0.508952
-0.528663
-0.132858
-0.141617
-0.146869
-0.15046
-0.155828
-0.163096
-0.173283
-0.186625
-0.203327
-0.223464
-0.246942
-0.273321
-0.301806
-0.331367
-0.361113
-0.390743
-0.420986
-0.451491
-0.489028
-0.523924
-0.105875
-0.117983
-0.116727
-0.129939
-0.136378
-0.14688
-0.15659
-0.167545
-0.179654
-0.193368
-0.20911
-0.227245
-0.248095
-0.272008
-0.299451
-0.331188
-0.367774
-0.40987
-0.455798
-0.502871
-0.130189
-0.169705
-0.174279
-0.182675
-0.188183
-0.195855
-0.206346
-0.220189
-0.237915
-0.259614
-0.285216
-0.314404
-0.346533
-0.380688
-0.415827
-0.45072
-0.484512
-0.514535
-0.540872
-0.556167
342128
337133
325082
328164
334055
342815
350941
358812
358441
364775
359691
354627
341861
324466
288754
339209
327116
330721
328320
332593
340125
348587
355768
356596
358564
358403
350870
343323
328070
313192
364734
353881
345766
340355
340747
345871
351677
356644
358521
359037
357504
352800
346018
336993
327216
381557
370902
362885
357959
356172
356941
359082
361032
361799
361032
358955
355206
350053
343870
337346
390179
382262
375828
371137
368081
366628
366271
366197
365549
364061
361620
358320
354149
349561
344998
395224
389747
384648
380358
377000
374560
372803
371343
369676
367552
364869
361678
358060
354287
310637
398863
394863
390744
386928
383594
380767
378285
376006
373635
371065
368163
364985
328455
217287
38598.7
401633
398457
395059
391731
388564
385628
382821
380140
377361
374504
337912
230985
55204.4
-21.8477
-13.4551
403719
401067
398231
395300
392394
389536
386586
381399
338854
227436
53877.9
-14.6146
-11.9707
11.1618
0.0974719
405447
403176
400693
397953
395327
378766
323381
199120
35165.7
-17.8295
-8.99545
10.0992
-0.0061214
-3.65742
-3.43364
406696
401479
380822
335169
248937
121426
4039.82
-29.9598
-3.12345
9.64208
0.474235
-2.3262
-2.60861
-1.74806
-1.97773
268496
187623
91071.7
6037.84
-16.8477
-16.3741
7.15044
5.3735
-0.370693
-2.60305
-2.61907
-1.68001
-1.85261
-1.99502
-2.11954
-18.9831
-19.6767
-11.0418
4.10936
6.04123
1.36041
-0.129576
-2.29251
-1.84103
-1.10444
-1.6406
-1.75341
-1.81254
-1.88676
-2.0142
3.25482
2.77257
0.507537
-0.893351
-1.5525
-1.83606
-0.946916
-0.885615
-1.46327
-1.5056
-1.52715
-1.61024
-1.73274
-1.84585
-1.96004
-1.33359
-1.8124
-1.50271
-0.595491
-0.438431
-1.0498
-1.26225
-1.02317
-1.16176
-1.29229
-1.45559
-1.57454
-1.6791
-1.78398
-1.89229
-0.357028
-0.163563
-0.784814
-0.906963
-0.642091
-0.751285
-0.953937
-1.08009
-1.1983
-1.34368
-1.4254
-1.5169
-1.61821
-1.72235
-1.82803
-0.541279
-0.490279
-0.597566
-0.740305
-0.767232
-0.827851
-1.02063
-1.10155
-1.14452
-1.24541
-1.35757
-1.4608
-1.56179
-1.66442
-1.76931
-0.496759