/*--------------------------------*- C++ -*----------------------------------*\
| =========                 |                                                 |
| \\      /  F ield         | OpenFOAM: The Open Source CFD Toolbox           |
|  \\    /   O peration     | Version:  v1606+                                |
|   \\  /    A nd           | Web:      www.OpenFOAM.com                      |
|    \\/     M anipulation  |                                                 |
\*---------------------------------------------------------------------------*/
FoamFile
{
    version     2.0;
    format      ascii;
    class       surfaceScalarField;
    location    "2.6";
    object      alphaPhi;
}
// * * * * * * * * * * * * * * * * * * * * * * * * * * * * * * * * * * * * * //

dimensions      [0 3 -1 0 0 0 0];

internalField   nonuniform List<scalar> 
33146
(
-9.50720341485e-06
-8.81328116533e-06
1.83214058627e-05
-1.89563687385e-05
-8.66890663559e-06
1.81143204601e-05
-2.79869783578e-05
-8.59737206609e-06
1.76364282529e-05
-3.62675239746e-05
-8.3686266018e-06
1.67368862914e-05
-4.34799009816e-05
-7.79444443906e-06
1.60146112584e-05
-4.94149052825e-05
-6.69724971971e-06
1.53125986298e-05
-5.39126921719e-05
-5.64959319229e-06
1.37756856982e-05
-5.69486511388e-05
-4.91486460371e-06
1.13679878167e-05
-5.83739089064e-05
-4.44298399463e-06
8.66180959689e-06
-5.83110381793e-05
-3.8298478053e-06
5.92178982317e-06
-5.68002023903e-05
-3.09088731783e-06
3.09982969612e-06
-5.40393957644e-05
-2.23618961634e-06
3.5817632278e-07
-5.01555763072e-05
-1.36961293213e-06
-2.2666310136e-06
-4.52503406577e-05
-6.64397093965e-07
-4.51874723343e-06
-3.93174538663e-05
-5.22934813919e-07
-5.8555701475e-06
-3.24252448452e-05
-8.11886073564e-07
-6.28763314762e-06
-2.47913578704e-05
-9.42039702455e-07
-6.71789629442e-06
-1.66659952287e-05
-7.14807877099e-07
-7.41059822316e-06
-8.32644783922e-06
-4.45911202437e-07
-7.89360494552e-06
-1.62984033452e-07
-8.16346707186e-06
-9.64127363227e-06
-1.71038755496e-05
1.79265398787e-05
-1.91176668823e-05
-1.69893827457e-05
1.78038033036e-05
-2.80985825882e-05
-1.64852908854e-05
1.77047013325e-05
-3.61341409322e-05
-1.4850036816e-05
1.91636197652e-05
-4.32328683698e-05
-1.1668181728e-05
2.18199593656e-05
-4.91711133203e-05
-8.24544811268e-06
2.3205991243e-05
-5.368543359e-05
-5.79376567816e-06
2.14154274572e-05
-5.66866452383e-05
-4.4783933733e-06
1.7076621209e-05
-5.81200158364e-05
-3.80341818922e-06
1.19299418571e-05
-5.80718705086e-05
-2.84826385091e-06
6.73914476282e-06
-5.6632611399e-05
-1.61352082547e-06
1.48043127783e-06
-5.39476311926e-05
-1.83948369127e-07
-3.71055452843e-06
-5.01753821443e-05
1.32006949414e-06
-8.80560039269e-06
-4.53094134733e-05
2.55444110953e-06
-1.31101929143e-05
-3.92817693172e-05
2.61995517566e-06
-1.48119654774e-05
-3.23073965618e-05
1.44833049474e-06
-1.31455793504e-05
-2.47095821191e-05
-1.97330403189e-07
-9.91851812734e-06
-1.66839822833e-05
-1.1064259408e-06
-7.93961676822e-06
-8.38811958695e-06
-9.65499215501e-07
-7.77626956692e-06
-5.31044538401e-07
-8.02005300443e-06
-9.52964132284e-06
-2.49118903178e-05
1.73474814835e-05
-1.89959606205e-05
-2.44374621114e-05
1.78458451388e-05
-2.78963938494e-05
-2.21519204367e-05
2.14551354769e-05
-3.61540509393e-05
-1.71988334479e-05
2.95929273888e-05
-4.34657555415e-05
-1.07722688439e-05
3.76359860627e-05
-4.96457845032e-05
-4.83783792657e-06
4.04727431787e-05
-5.42357973733e-05
-1.21756575267e-06
3.66057871675e-05
-5.72267999847e-05
2.97633446556e-07
2.81056407271e-05
-5.86270043479e-05
7.31609515497e-07
1.82926295262e-05
-5.85282873471e-05
1.56672045291e-06
8.44013516334e-06
-5.70788400999e-05
2.82593423177e-06
-1.40382825568e-06
-5.44736022873e-05
4.41920184116e-06
-1.11948167435e-05
-5.0857117248e-05
6.15681537875e-06
-2.09101053233e-05
-4.61312930772e-05
7.656029069e-06
-2.93658417785e-05
-3.9968940759e-05
7.59637941472e-06
-3.33527023536e-05
-3.2639580903e-05
5.78029306171e-06
-3.03870010364e-05
-2.46231492771e-05
2.8045208524e-06
-2.17318783654e-05
-1.64782829007e-05
-1.01795893266e-07
-1.25315487396e-05
-8.25661630537e-06
-1.44151723771e-06
-8.14442810893e-06
-1.25740353011e-06
-7.53027454021e-06
-9.39572718445e-06
-3.20088609183e-05
1.66138939744e-05
-1.88631782164e-05
-3.02860866771e-05
2.03807036158e-05
-2.80048745804e-05
-2.49883015861e-05
3.21569531803e-05
-3.65586132e-05
-1.63629670097e-05
4.84707563452e-05
-4.4241286134e-05
-6.55251246919e-06
6.03321910266e-05
-5.06231666504e-05
1.68352991036e-06
6.26742494942e-05
-5.54625694525e-05
6.0698629989e-06
5.53366711711e-05
-5.83719684216e-05
7.28868151925e-06
4.13876933181e-05
-5.96502148472e-05
7.0515980923e-06
2.58500616118e-05
-5.94132332836e-05
7.40860821593e-06
1.02430102859e-05
-5.78447743073e-05
8.29277836951e-06
-5.28608933225e-06
-5.52228454057e-05
9.73095143499e-06
-2.07582146744e-05
-5.17458778355e-05
1.12531120547e-05
-3.59707347436e-05
-4.72456467042e-05
1.26554169208e-05
-4.94791664899e-05
-4.10209648923e-05
1.22701973769e-05
-5.69884211359e-05
-3.33837187884e-05
1.00591793483e-05
-5.43972746154e-05
-2.48933935275e-05
6.33463939955e-06
-4.1899703109e-05
-1.62267417641e-05
1.95123637413e-06
-2.44342262323e-05
-8.05712105124e-06
-1.32897287107e-06
-1.12181736138e-05
-2.27863057814e-06
-7.09621029271e-06
-9.2567588457e-06
-3.79433534641e-05
1.66578342293e-05
-1.89143409722e-05
-3.44900568438e-05
2.64255505046e-05
-2.83076275935e-05
-2.61798744986e-05
4.74189961409e-05
-3.730811375e-05
-1.40526426675e-05
6.9983100943e-05
-4.54793822443e-05
-1.22518259e-06
8.38808369603e-05
-5.23836043195e-05
8.55184971182e-06
8.47222179984e-05
-5.7253893531e-05
1.29843952413e-05
7.3031274546e-05
-5.98501572813e-05
1.38428711751e-05
5.33728666017e-05
-6.06365384712e-05
1.31477170428e-05
3.19223905469e-05
-5.98163902961e-05
1.31153951966e-05
1.06031798878e-05
-5.8008328889e-05
1.39328208384e-05
-1.04186948493e-05
-5.53698299948e-05
1.51535684984e-05
-3.11323073309e-05
-5.21771730004e-05
1.61647915961e-05
-5.127614608e-05
-4.7930889644e-05
1.65458939207e-05
-6.90811321314e-05
-4.17251141449e-05
1.54165689579e-05
-8.02548654724e-05
-3.39592686496e-05
1.29546874929e-05
-7.90858813921e-05
-2.51420908208e-05
8.87076035047e-06
-6.44061490744e-05
-1.61737625544e-05
3.67547854556e-06
-4.05637497303e-05
-7.78510906714e-06
-1.03860291684e-06
-1.80205588252e-05
-3.35417965679e-06
-7.50467842172e-06
-9.11444527628e-06
-4.28571970779e-05
1.75787501387e-05
-1.88003913756e-05
-3.78285274852e-05
3.34882447651e-05
-2.85480664711e-05
-2.70811900261e-05
6.15393826522e-05
-3.78781635355e-05
-1.24253306252e-05
8.8373972957e-05
-4.65719006529e-05
2.51869859382e-06
0.00010321102633
-5.38978558379e-05
1.30467657644e-05
0.000101804029579
-5.90607455468e-05
1.69142153904e-05
8.63222085339e-05
-6.07329904486e-05
1.67486266775e-05
6.20462240723e-05
-6.04296377976e-05
1.61261084663e-05
3.61920450279e-05
-5.89121137101e-05
1.64181333641e-05
1.0847934034e-05
-5.66869773671e-05
1.78416845944e-05
-1.42715315294e-05
-5.43210680373e-05
1.97461627436e-05
-3.89016612954e-05
-5.18349714874e-05
2.05801768593e-05
-6.26500814118e-05
-4.77386737703e-05
1.90168979452e-05
-8.38741619251e-05
-4.16728188119e-05
1.71267011091e-05
-9.84945704944e-05
-3.39978690603e-05
1.4350075029e-05
-9.9157447266e-05
-2.51875656217e-05
9.95494862827e-06
-8.34679216986e-05
-1.60833651855e-05
4.22431871869e-06
-5.539590756e-05
-7.54807497992e-06
-1.42152319558e-06
-2.58045880425e-05
-4.68961360689e-06
-8.98904255306e-06
-8.8020815061e-06
-4.70097022118e-05
1.78567491415e-05
-1.83857785364e-05
-4.12131437737e-05
3.78456655589e-05
-2.80590676088e-05
-2.93260010247e-05
6.99527983573e-05
-3.77002137096e-05
-1.31706214936e-05
9.92674225393e-05
-4.67065804828e-05
3.1390389261e-06
0.000114262764947
-5.42910297507e-05
1.45250487683e-05
0.000110667205336
-6.08512382575e-05
1.93679622824e-05
9.23043352988e-05
-6.00534926089e-05
1.85545238992e-05
6.17576422715e-05
-5.87205806559e-05
2.12105607003e-05
3.2567414082e-05
-5.67473314844e-05
2.4882311487e-05
3.17075332535e-06
-5.42362241996e-05
2.9328207107e-05
-2.57656701258e-05
-5.13744551946e-05
3.25339382311e-05
-5.27941510778e-05
-4.86180834464e-05
3.22808805857e-05
-7.697839869e-05
-4.62646240371e-05
2.43777986122e-05
-9.3825514775e-05
-4.10482642594e-05
1.93117107492e-05
-0.000109410134869
-3.36938922271e-05
1.47211547536e-05
-0.000110843562442
-2.48580109197e-05
9.38819888234e-06
-9.46679604946e-05
-1.57132508269e-05
3.13456996082e-06
-6.4184595015e-05
-7.2281594932e-06
-2.97408689396e-06
-3.07194567397e-05
-6.56953145712e-06
-9.90556320934e-06
-8.16017322644e-06
-5.03387496742e-05
1.66697016819e-05
-1.71954125082e-05
-4.43707299072e-05
3.8042054722e-05
-2.66998427704e-05
-3.20824292753e-05
7.16945251182e-05
-3.61401012848e-05
-1.5344113997e-05
0.000102018661758
-4.4847625211e-05
1.58514657918e-06
0.000117364594251
-5.17768026323e-05
1.35628463549e-05
0.000113219379677
-5.89288930624e-05
1.96208036961e-05
9.53661726135e-05
-5.25842636178e-05
2.05453657915e-05
5.59174829914e-05
-4.7797702816e-05
2.26752202545e-05
3.23320815468e-05
-4.39970559407e-05
2.48304078031e-05
9.16639698336e-06
-4.37147348221e-05
2.73085113861e-05
-1.10157064799e-05
-4.96178256735e-05
2.99645164864e-05
-2.9948802834e-05
-5.9703033674e-05
2.91414981623e-05
-5.08649645373e-05
-5.15236581474e-05
2.14435680218e-05
-9.35680512322e-05
-4.26005481621e-05
1.69480044333e-05
-0.00011180600278
-3.38610042032e-05
1.26793589852e-05
-0.000113803452192
-2.45097037143e-05
7.17771532149e-06
-9.75428953819e-05
-1.52505170841e-05
7.54647913693e-07
-6.62957271948e-05
-6.9201957446e-06
-5.44819723894e-06
-3.16633889423e-05
-8.9687715019e-06
-9.7012909549e-06
-7.36492269261e-06
-5.26088614792e-05
1.48385361013e-05
-1.57794510277e-05
-4.65331165869e-05
3.64143902515e-05
-2.46994251514e-05
-3.40341176395e-05
7.03116593452e-05
-3.37735358617e-05
-1.69147104703e-05
0.000101029794426
-4.2244276897e-05
5.01490584487e-07
0.000116675181467
-4.89108718544e-05
1.29609873853e-05
0.000112589383202
-5.57257329917e-05
1.95895608855e-05
9.53162177328e-05
-4.78520095807e-05
2.16947906274e-05
5.52297624725e-05
-4.2789487228e-05
2.29403977023e-05
3.32556240094e-05
-4.01260737958e-05
2.39434163601e-05
1.11387096608e-05
-4.15051999336e-05
2.48633219348e-05
-8.92876206381e-06
-4.79901673915e-05
2.52976778571e-05
-2.72695141192e-05
-5.86266937221e-05
2.41165610185e-05
-4.84280770513e-05
-5.10759301447e-05
1.86471242196e-05
-9.30772988858e-05
-4.18784283636e-05
1.42751236629e-05
-0.000111771197065
-3.29844964877e-05
9.96582756302e-06
-0.000113286112944
-2.36132646292e-05
4.46578764751e-06
-9.70615132097e-05
-1.45241010293e-05
-1.98224929333e-06
-6.57686702402e-05
-6.52583545485e-06
-8.14626303486e-06
-3.11072374605e-05
-1.1552467425e-05
-9.12279163746e-06
-6.55220526153e-06
-5.36764661614e-05
1.28121295278e-05
-1.42225127972e-05
-4.75762001362e-05
3.45691859875e-05
-2.25615376503e-05
-3.50190666162e-05
6.87564125675e-05
-3.10378479151e-05
-1.77553109831e-05
9.9720537342e-05
-3.89256457635e-05
-1.55338840572e-07
0.000115652237052
-4.50523646174e-05
1.24384605717e-05
0.000111971688617
-5.13732044922e-05
1.9604005532e-05
9.47790526139e-05
-4.35692704842e-05
2.16375842646e-05
5.65047883792e-05
-3.88911159852e-05
2.2152049355e-05
3.46936110013e-05
-3.69674121963e-05
2.25181858199e-05
1.24166320672e-05
-3.92649988232e-05
2.2290964265e-05
-7.88313589146e-06
-4.69927873916e-05
2.11627840401e-05
-2.65586431289e-05
-5.82893785063e-05
1.94010160385e-05
-4.80774016536e-05
-5.04125293609e-05
1.56734518565e-05
-9.32260609051e-05
-4.13057543286e-05
1.16006975362e-05
-0.000111678924082
-3.23913957352e-05
7.07656754285e-06
-0.000113130838121
-2.30477832873e-05
1.52362508151e-06
-9.68035802703e-05
-1.40379490015e-05
-4.92884184204e-06
-6.54797753326e-05
-6.19480309652e-06
-1.09753780076e-05
-3.08210810441e-05
-1.42447600676e-05
-8.6830512643e-06
-5.72947461579e-06
-5.33443202669e-05
1.06167394957e-05
-1.27186621264e-05
-4.73777740093e-05
3.2631793517e-05
-2.0402132453e-05
-3.4934120104e-05
6.70442366257e-05
-2.80911149329e-05
-1.78927123435e-05
9.82105269762e-05
-3.5020769115e-05
-5.00861788213e-07
0.000114387699763
-4.04238319456e-05
1.22768039956e-05
0.000110893510854
-4.57259175027e-05
2.03502727138e-05
9.30259682626e-05
-3.99211803173e-05
2.47594430373e-05
5.53249505434e-05
-3.66350017017e-05
2.45631789327e-05
3.28859994525e-05
-3.59740714685e-05
2.31825041162e-05
1.15898610005e-05
-3.91671575209e-05
2.06710992471e-05
-7.94011492411e-06
-4.64953975192e-05
1.68807089e-05
-2.68110359046e-05
-5.57808546202e-05
1.36571435612e-05
-4.90602099802e-05
-4.91799713248e-05
1.25271906066e-05
-9.17775415925e-05
-4.05778774097e-05
8.76111713419e-06
-0.000111008904603
-3.17737607404e-05
4.03003339756e-06
-0.000112863303629
-2.24433433605e-05
-1.48539854535e-06
-9.67235022801e-05
-1.34196272634e-05
-7.88537121562e-06
-6.5483783232e-05
-5.7207308642e-06
-1.36942731918e-05
-3.07870358164e-05
-1.66565038793e-05
-8.48951184868e-06
-4.93594796381e-06
-5.17844560198e-05
7.94702667547e-06
-1.12658901108e-05
-4.65014381791e-05
2.93061727533e-05
-1.83068641312e-05
-3.51296577329e-05
6.33823353707e-05
-2.52860742167e-05
-1.92842933005e-05
9.47644506869e-05
-3.1227688774e-05
-3.05585285199e-06
0.000111622731777
-3.53037181607e-05
9.05680495556e-06
0.00010937818519
-3.69430416851e-05
1.53292209944e-05
9.2913342579e-05
-3.66080472342e-05
1.67480490741e-05
7.03664006017e-05
-3.66997600586e-05
1.60070823109e-05
4.59611827956e-05
-3.84440516645e-05
1.41745331333e-05
2.26891482324e-05
-4.21242750956e-05
1.1414655691e-05
-5.02964389352e-07
-4.76600662939e-05
8.29696960227e-06
-2.46965573322e-05
-5.28191314297e-05
6.34804606712e-06
-5.1724453451e-05
-4.81290714464e-05
6.01377226232e-06
-8.62130551841e-05
-4.03421602855e-05
3.59784340195e-06
-0.000107091582266
-3.14430995763e-05
-2.89940034332e-07
-0.000110427246297
-2.19138897148e-05
-5.35657879294e-06
-9.45423870825e-05
-1.28805070019e-05
-1.12607249485e-05
-6.36565934293e-05
-5.27616467834e-06
-1.64978535406e-05
-2.96581202744e-05
-1.87465887813e-05
-8.06806820774e-06
-4.07673533883e-06
-4.90524871581e-05
4.16512879936e-06
-9.63483841655e-06
-4.53427569957e-05
2.20788565759e-05
-1.59272626035e-05
-3.63492652274e-05
5.32955915375e-05
-2.20917502778e-05
-2.32026651855e-05
8.36742270559e-05
-2.74274649833e-05
-9.12872556423e-06
0.000101527957108
-3.13245875198e-05
2.14995804572e-06
0.000101612433835
-3.35547785847e-05
8.38466644406e-06
8.66454873123e-05
-3.46901923674e-05
9.93729113135e-06
6.389350804e-05
-3.59889914429e-05
9.33601925397e-06
4.01115856247e-05
-3.8466248833e-05
7.57595471572e-06
1.74119306584e-05
-4.17162107428e-05
5.04377162403e-06
-5.8484935646e-06
-4.52312823752e-05
2.68843765305e-06
-3.0151614833e-05
-4.73591575715e-05
1.4083441135e-06
-5.60131136674e-05
-4.44329340944e-05
8.94900110962e-07
-8.27085084649e-05
-3.8118302294e-05
-1.17736502e-06
-0.000100376014487
-2.98426617439e-05
-4.88981940517e-06
-0.00010187109887
-2.06868203252e-05
-9.68954540137e-06
-8.54376164244e-05
-1.18867274604e-05
-1.50314614369e-05
-5.58858973713e-05
-4.64811795657e-06
-1.9228045454e-05
-2.49248293727e-05
-2.02685451022e-05
-6.67485107487e-06
-3.1570266005e-06
-4.49973295179e-05
-1.03281547294e-07
-7.7230193339e-06
-4.30255343822e-05
1.16257924023e-05
-1.30994983855e-05
-3.71532285921e-05
3.60966389368e-05
-1.85009719459e-05
-2.76062716446e-05
6.29142328871e-05
-2.32834409871e-05
-1.67169726247e-05
8.08786649295e-05
-2.68852659061e-05
-7.43273965305e-06
8.42281640596e-05
-2.91017032121e-05
-2.07048512375e-06
7.38292594734e-05
-3.09061275345e-05
-6.13436163683e-07
5.57727001422e-05
-3.30124799384e-05
-8.59421117958e-07
3.5618752707e-05
-3.5686931211e-05
-1.77294064973e-06
1.52396961879e-05
-3.87617525374e-05
-2.98181747975e-06
-5.78381822087e-06
-4.15395918866e-05
-3.95589162552e-06
-2.75626980725e-05
-4.26465200795e-05
-4.35567803853e-06
-5.02145404196e-05
-4.01510449248e-05
-4.62016843319e-06
-7.18231694109e-05
-3.46342721206e-05
-6.2428485198e-06
-8.49635933966e-05
-2.72139141338e-05
-9.48229949799e-06
-8.37326323072e-05
-1.88161437574e-05
-1.38796012652e-05
-6.743227304e-05
-1.07126579763e-05
-1.82889212861e-05
-4.16115698999e-05
-4.0549851893e-06
-2.09903207015e-05
-1.7434714724e-05
-2.06805192521e-05
-5.10047337647e-06
-2.36505839165e-06
-3.94199795747e-05
-3.14723028448e-06
-5.77916817672e-06
-3.87456717245e-05
2.07651867918e-06
-1.00465326833e-05
-3.59748438789e-05
1.68472187606e-05
-1.45032651784e-05
-3.02878608558e-05
3.7089445592e-05
-1.87013396558e-05
-2.30092667241e-05
5.30861100788e-05
-2.20400103478e-05
-1.63722516245e-05
5.85410225924e-05
-2.44956160827e-05
-1.21730127826e-05
5.27729811462e-05
-2.67572487673e-05
-1.06910054736e-05
3.9998017669e-05
-2.92791404572e-05
-1.03179991765e-05
2.50665400654e-05
-3.20570138766e-05
-1.0301569365e-05
9.81979875564e-06
-3.47768391868e-05
-1.03804239494e-05
-5.94106804811e-06
-3.68719383648e-05
-1.03118715373e-05
-2.21812408029e-05
-3.75435809011e-05
-9.98044667083e-06
-3.89086774718e-05
-3.55815430282e-05
-9.89399203503e-06
-5.42300998188e-05
-3.09417747779e-05
-1.10350545663e-05
-6.24519372688e-05
-2.44051201446e-05
-1.36686199407e-05
-5.9088258967e-05
-1.69556827738e-05
-1.7081313078e-05
-4.49011533914e-05
-9.69438040794e-06
-1.99616231028e-05
-2.57206613945e-05
-3.62866077598e-06
-2.08305036297e-05
-1.12717700267e-05
-1.94711569517e-05
-4.96396279753e-06
-1.80812600663e-06
-3.27738928099e-05
-4.84378254994e-06
-4.26764238647e-06
-3.25623917328e-05
-3.31422797312e-06
-7.37075230291e-06
-3.16889667553e-05
2.2181562135e-06
-1.08734577449e-05
-2.93609798022e-05
1.33406714592e-05
-1.42924595003e-05
-2.5520055792e-05
2.47481764121e-05
-1.7359207716e-05
-2.15241889665e-05
3.05756537541e-05
-1.99347043444e-05
-1.86585191294e-05
2.8787303534e-05
-2.2486448717e-05
-1.72692649948e-05
2.17920922669e-05
-2.52054150365e-05
-1.65323529606e-05
1.31249263591e-05
-2.80042658255e-05
-1.59342380579e-05
4.15264044924e-06
-3.05249906766e-05
-1.53795436325e-05
-5.22951875191e-06
-3.22906322368e-05
-1.47859145899e-05
-1.49801927531e-05
-3.2768138762e-05
-1.41274596777e-05
-2.50658207209e-05
-3.1204696891e-05
-1.37369093097e-05
-3.41109124801e-05
-2.73903780415e-05
-1.43387498456e-05
-3.80611631534e-05
-2.19083988099e-05
-1.59758312738e-05
-3.42760539517e-05
-1.55269766811e-05
-1.78611329227e-05
-2.4533717115e-05
-9.10831742165e-06
-1.87748520581e-05
-1.4467520368e-05
-3.40400830332e-06
-1.8332153485e-05
-9.13658155674e-06
-1.68631119671e-05
-6.01205507334e-06
-1.43429206585e-06
-2.53068526863e-05
-6.02822405583e-06
-3.39836664805e-06
-2.52962013897e-05
-5.30430824952e-06
-5.60920754982e-06
-2.49765413979e-05
-4.19222846199e-06
-8.17333515613e-06
-2.42803344087e-05
-9.24654655428e-07
-1.09256810366e-05
-2.30432872172e-05
4.22558682144e-06
-1.36587991453e-05
-2.13038516156e-05
8.22201504185e-06
-1.62585791329e-05
-1.97374337438e-05
8.79558074456e-06
-1.8925326027e-05
-1.86703994879e-05
6.51136221401e-06
-2.1697391027e-05
-1.79137311837e-05
3.22659433472e-06
-2.44120099284e-05
-1.71580177826e-05
-3.58850301499e-07
-2.67612990871e-05
-1.64408433445e-05
-4.25702099708e-06
-2.8360330453e-05
-1.56863521127e-05
-8.53846666315e-06
-2.8820407192e-05
-1.49717212969e-05
-1.31039537013e-05
-2.76154596559e-05
-1.44147434184e-05
-1.71940394378e-05
-2.45760518153e-05
-1.43679020401e-05
-1.86483829601e-05
-2.01056610318e-05
-1.46950061022e-05
-1.65635908703e-05
-1.47362729409e-05
-1.48725961869e-05
-1.29831667799e-05
-8.96539030488e-06
-1.46304945335e-05
-1.07560156048e-05
-3.32203788487e-06
-1.41425156618e-05
-9.83299253217e-06
-1.30246483466e-05
-7.16050256487e-06
-1.21506761777e-06
-1.72031742666e-05
-6.89141830054e-06
-2.86448682309e-06
-1.74046486768e-05
-6.23992043872e-06
-4.7418387104e-06
-1.73247996164e-05
-5.7746989153e-06
-6.69627331883e-06
-1.69888398787e-05
-5.31060370589e-06
-8.96443852923e-06
-1.64204804038e-05
-4.14268388453e-06
-1.13776596579e-05
-1.58288309047e-05
-2.60330488806e-06
-1.38961217114e-05
-1.51692295235e-05
-1.75235989922e-06
-1.64968838186e-05
-1.45222159161e-05
-1.7734898326e-06
-1.9257655005e-05
-1.38729516258e-05
-2.14128375692e-06
-2.18559781539e-05
-1.32342669978e-05
-2.82192972904e-06
-2.4074675399e-05
-1.25579318631e-05
-3.79598231558e-06
-2.55598824961e-05
-1.18394934264e-05
-5.12865013962e-06
-2.60172487418e-05
-1.11400236263e-05
-6.77656488977e-06
-2.51054128687e-05
-1.04592272297e-05
-8.47038069373e-06
-2.27258978482e-05
-9.88388169216e-06
-9.53732857911e-06
-1.90702383022e-05
-9.48825128945e-06
-9.8632872019e-06
-1.44113145552e-05
-9.28924551029e-06
-1.03339482906e-05
-8.94727813357e-06
-9.1376095961e-06
-1.09569216936e-05
-3.42606914223e-06
-8.99937065589e-06
-1.06643547441e-05
-8.43424498762e-06
-8.01647116005e-06
-1.06738229096e-06
-8.72088009859e-06
-7.41635391375e-06
-2.50282563119e-06
-9.02778216414e-06
-6.94141719673e-06
-4.19281733712e-06
-9.06464826156e-06
-6.57014824162e-06
-6.06215409913e-06
-8.93535201841e-06
-6.18414282308e-06
-8.07106836563e-06
-8.73389019387e-06
-5.67767051206e-06
-1.03245614012e-05
-8.47623522368e-06
-5.09909262458e-06
-1.27688486914e-05
-8.12903619375e-06
-4.5958955809e-06
-1.5342734579e-05
-7.76318911877e-06
-4.18513487353e-06
-1.79389844203e-05
-7.40526298569e-06
-3.87142390727e-06
-2.03948915804e-05
-6.96182516611e-06
-3.81653370553e-06
-2.24553447933e-05
-6.46225867215e-06
-4.03524102438e-06
-2.38332546562e-05
-5.89948823222e-06
-4.56209856181e-06
-2.42629502033e-05
-5.29972206679e-06
-5.41060315747e-06
-2.35193269402e-05
-4.67057933003e-06
-6.53227355445e-06
-2.15122248161e-05
-4.10096245609e-06
-7.79002393157e-06
-1.82741384452e-05
-3.68997735158e-06
-9.03636218057e-06
-1.39765073433e-05
-3.4854729153e-06
-1.01014047846e-05
-8.86848199096e-06
-3.52853195052e-06
-1.07171030864e-05
-3.6753596753e-06
-3.74208887034e-06
-1.04504020927e-05
-3.82465997931e-06
-8.28494479257e-06
-9.36392323886e-07
-7.78561734382e-06
-2.22363273342e-06
-7.74053330836e-06
-3.82094069795e-06
-7.46732862528e-06
-5.61092166685e-06
-7.14535934451e-06
-7.56658767159e-06
-6.77818401293e-06
-9.77557652925e-06
-6.26728820997e-06
-1.21065940472e-05
-5.79800504139e-06
-1.45014365451e-05
-5.36822298165e-06
-1.69458246072e-05
-4.96097419856e-06
-1.9151031473e-05
-4.75664523527e-06
-2.09480386199e-05
-4.66526278753e-06
-2.21406144338e-05
-4.70691473332e-06
-2.24520602391e-05
-4.98827786847e-06
-2.17216029396e-05
-5.40104027823e-06
-1.98473584876e-05
-5.97520918109e-06
-1.68417460444e-05
-6.69559116444e-06
-1.28875901843e-05
-7.43962942264e-06
-8.31189928086e-06
-8.10422043748e-06
-3.73075238349e-06
-8.32323359082e-06
-7.55541387722e-06
-9.66950691912e-06
-8.93609435214e-06
3.69273760851e-05
-1.92468481175e-05
-8.72805691978e-06
3.64227315834e-05
-2.84266905216e-05
-8.44523240266e-06
3.52535545948e-05
-3.67967999673e-05
-8.08044770622e-06
3.34027261025e-05
-4.41086224665e-05
-7.03589673233e-06
3.15815923395e-05
-5.00878323149e-05
-5.1020014536e-06
2.94015684377e-05
-5.46573554139e-05
-3.40899833529e-06
2.60304880544e-05
-5.7731630805e-05
-2.53207508968e-06
2.15419164346e-05
-5.91909132827e-05
-2.11594357925e-06
1.66298671225e-05
-5.90720543011e-05
-1.5888855122e-06
1.16169024617e-05
-5.75355239717e-05
-8.82910888574e-07
6.50237161778e-06
-5.47211238945e-05
-9.38882134472e-08
1.52312570801e-06
-5.07596343812e-05
7.53974727584e-07
-3.26623466355e-06
-4.5830689744e-05
1.33419934673e-06
-7.47903748126e-06
-3.9925662929e-05
9.19018765326e-07
-1.04763889792e-05
-3.30349714241e-05
-2.40512964765e-07
-1.21599326704e-05
-2.53238755277e-05
-9.05851599712e-07
-1.34933229336e-05
-1.70671016024e-05
-7.32644800482e-07
-1.49346982216e-05
-8.54874306867e-06
-4.53257968729e-07
-1.59587095179e-05
-2.30492199522e-07
-1.64817183332e-05
-9.89300120749e-06
-1.7294347816e-05
3.61767600892e-05
-1.93817045967e-05
-1.70327056192e-05
3.55939010316e-05
-2.83542229963e-05
-1.59976711594e-05
3.50952400702e-05
-3.65204359599e-05
-1.28435389975e-05
3.60728408884e-05
-4.37926482766e-05
-7.44713777921e-06
3.7919941464e-05
-4.98647125501e-05
-1.83230137381e-06
3.79464587143e-05
-5.44344242674e-05
2.11198370624e-06
3.4257763283e-05
-5.73730762413e-05
3.85770545623e-06
2.76183713218e-05
-5.87223983475e-05
4.61835678835e-06
1.99993797308e-05
-5.85648943378e-05
5.65982686643e-06
1.22484376933e-05
-5.70071984763e-05
6.96748239472e-06
4.44897171102e-06
-5.42135435789e-05
8.47910703996e-06
-3.23947243457e-06
-5.03562407461e-05
1.01040894306e-05
-1.07140930896e-05
-4.54737791849e-05
1.11686810407e-05
-1.71822839691e-05
-3.95128718403e-05
9.97733502934e-06
-2.06622454908e-05
-3.26506652784e-05
6.30545737445e-06
-2.01397514045e-05
-2.51306319348e-05
1.98036103466e-06
-1.7464724521e-05
-1.70080284038e-05
-6.2643188982e-07
-1.56915617178e-05
-8.56615796135e-06
-9.18024866335e-07
-1.57533711428e-05
-5.80320723221e-07
-1.62363798368e-05
-9.75919730559e-06
-2.5177372789e-05
3.49867941269e-05
-1.91020734247e-05
-2.42205301797e-05
3.52905681478e-05
-2.8193395739e-05
-2.00939583594e-05
3.91958834265e-05
-3.69292645204e-05
-1.18208972706e-05
4.74216189797e-05
-4.4845273759e-05
-1.70195578792e-06
5.47419554858e-05
-5.13325147264e-05
7.43417221599e-06
5.60344930156e-05
-5.5970047319e-05
1.33769460824e-05
5.00376892218e-05
-5.87257863196e-05
1.58130949404e-05
3.89379190307e-05
-5.98759950098e-05
1.68197644101e-05
2.63598906854e-05
-5.95444124394e-05
1.83047853638e-05
1.36686014721e-05
-5.7862639304e-05
2.01784357236e-05
9.94970282206e-07
-5.5021609203e-05
2.2359737863e-05
-1.15382727059e-05
-5.12288589066e-05
2.46782998864e-05
-2.38124101702e-05
-4.63946541788e-05
2.62182819368e-05
-3.45693872883e-05
-4.02223074604e-05
2.4315454824e-05
-4.04874140785e-05
-3.29385282649e-05
1.82698130625e-05
-3.88147733788e-05
-2.49369414314e-05
1.00932377472e-05
-3.06063553688e-05
-1.67263154918e-05
2.74769827993e-06
-2.10267955085e-05
-8.43643812251e-06
-8.86037419969e-07
-1.60353937456e-05
-1.245783675e-06
-1.53012413836e-05
-9.47468054004e-06
-3.22854136283e-05
3.34709427998e-05
-1.89601452645e-05
-2.91475349321e-05
3.77579970144e-05
-2.88268580741e-05
-2.04273413625e-05
5.06071956824e-05
-3.84171179606e-05
-7.38553628139e-06
6.71044818356e-05
-4.70657136755e-05
6.70963605841e-06
7.81631142387e-05
-5.41788247164e-05
1.85512078155e-05
7.8868093282e-05
-5.89879432358e-05
2.58298938026e-05
6.90942463141e-05
-6.14501223394e-05
2.84670690158e-05
5.22821159199e-05
-6.22544123152e-05
2.97772472852e-05
3.35938675696e-05
-6.1614646584e-05
3.17615939473e-05
1.48539752758e-05
-5.96843519602e-05
3.42486330106e-05
-3.76838509095e-06
-5.67124293831e-05
3.7077803623e-05
-2.21194736323e-05
-5.29235992747e-05
4.0055791646e-05
-3.99977499989e-05
-4.8167117416e-05
4.20574058813e-05
-5.57033006704e-05
-4.17816075003e-05
3.97030540487e-05
-6.51963761094e-05
-3.40414338121e-05
3.18939580819e-05
-6.40240356274e-05
-2.54332096083e-05
2.04953393744e-05
-5.20395296963e-05
-1.66037546659e-05
8.81148001536e-06
-3.40218971835e-05
-8.17028095142e-06
6.56515486926e-07
-1.95166471865e-05
-2.08302988085e-06
-1.44540284088e-05
-9.24839292359e-06
-3.79375175693e-05
3.2763463209e-05
-1.92311571323e-05
-3.20970159092e-05
4.38790132919e-05
-2.99020338062e-05
-1.93794465054e-05
6.6335231234e-05
-4.03850469946e-05
-2.6587748788e-06
8.91432782166e-05
-4.99789034885e-05
1.41864152577e-05
0.000102159255932
-5.77325007147e-05
2.74888328674e-05
0.000100951570387
-6.28488187081e-05
3.50083943367e-05
8.65978421681e-05
-6.46712506953e-05
3.71031878746e-05
6.35286679823e-05
-6.4839616088e-05
3.89456972093e-05
3.86355944563e-05
-6.36398917904e-05
4.17180742036e-05
1.39042393805e-05
-6.13535741982e-05
4.52327189973e-05
-1.04880149301e-05
-5.8192649344e-05
4.89585021734e-05
-3.42289663035e-05
-5.44651485785e-05
5.24948787133e-05
-5.67539202333e-05
-4.99478101792e-05
5.47443759989e-05
-7.61776075159e-05
-4.34556847765e-05
5.22011666925e-05
-8.92204077481e-05
-3.53864207358e-05
4.35377488016e-05
-8.95315120197e-05
-2.6244049051e-05
2.99505883982e-05
-7.54705224948e-05
-1.68081431729e-05
1.4957084635e-05
-5.10894293683e-05
-7.95619838265e-06
2.94026264611e-06
-2.68066382249e-05
-2.65234636797e-06
-1.45760734863e-05
-9.0824881089e-06
-4.26446967583e-05
3.28634258216e-05
-1.94660192859e-05
-3.463258517e-05
5.08303070257e-05
-3.0774095743e-05
-1.92835188026e-05
8.06048291725e-05
-4.20823809088e-05
-1.87324768132e-07
0.000107682946856
-5.24384410997e-05
1.81780474094e-05
0.000121358964064
-6.08758000795e-05
3.15481439715e-05
0.000117596575522
-6.64698998526e-05
3.77578810525e-05
9.93359783488e-05
-6.69279402315e-05
3.72565929817e-05
7.13605803073e-05
-6.5871657019e-05
4.02719900528e-05
4.18551850083e-05
-6.38478872953e-05
4.49645669519e-05
1.2658489274e-05
-6.11599155744e-05
5.03918703217e-05
-1.60026517571e-05
-5.83579988261e-05
5.61258027213e-05
-4.37197933742e-05
-5.55453397648e-05
6.06106110102e-05
-6.93922422465e-05
-5.10020362868e-05
6.12540700959e-05
-9.10168518878e-05
-4.45188149662e-05
5.92320229938e-05
-0.000107588507241
-3.6358070964e-05
5.06833790341e-05
-0.000109907424578
-2.68635656845e-05
3.59316501759e-05
-9.50178769303e-05
-1.70338634267e-05
1.8860919797e-05
-6.63856430805e-05
-7.87630698341e-06
4.31511357163e-06
-3.49261734066e-05
-3.49133984904e-06
-1.58337158092e-05
-8.81207865568e-06
-4.6820217253e-05
3.18677378115e-05
-1.9242246501e-05
-3.78745488985e-05
5.43858152214e-05
-3.08939984454e-05
-2.13988749395e-05
8.83987887841e-05
-4.28257325436e-05
-1.10123174911e-06
0.000118063173475
-5.39557419161e-05
1.82960284177e-05
0.000131551619118
-6.36057719323e-05
3.25530536078e-05
0.000124546210186
-7.12933316481e-05
3.94162370395e-05
0.000101677702217
-6.78765750308e-05
3.77105594792e-05
5.99513884211e-05
-6.45035733789e-05
4.53509611537e-05
2.57277736261e-05
-6.16287459207e-05
5.41627248468e-05
-7.74202092074e-06
-5.8820901303e-05
6.26606894771e-05
-4.01343175616e-05
-5.5231238729e-05
6.99696143824e-05
-6.99717254753e-05
-5.08434348143e-05
7.30214616763e-05
-9.39732860628e-05
-4.93050885618e-05
6.68800570206e-05
-0.00010161341971
-4.43096134533e-05
6.27092899649e-05
-0.000118659562463
-3.65922846703e-05
5.28899646402e-05
-0.000121624184405
-2.70388105066e-05
3.708984402e-05
-0.000106254451886
-1.70082604869e-05
1.89979781591e-05