/*--------------------------------*- C++ -*----------------------------------*\
| =========                 |                                                 |
| \\      /  F ield         | OpenFOAM: The Open Source CFD Toolbox           |
|  \\    /   O peration     | Version:  v1606+                                |
|   \\  /    A nd           | Web:      www.OpenFOAM.com                      |
|    \\/     M anipulation  |                                                 |
\*---------------------------------------------------------------------------*/
FoamFile
{
    version     2.0;
    format      ascii;
    class       volScalarField;
    location    "2.6";
    object      epsilon;
}
// * * * * * * * * * * * * * * * * * * * * * * * * * * * * * * * * * * * * * //

dimensions      [0 2 -3 0 0 0 0];

internalField   nonuniform List<scalar> 
11640
(
0.000874132810429
0.00106650804108
0.00119501005546
0.00126497758497
0.00129766316899
0.00130750673358
0.00130261830658
0.00129038662001
0.00127690203153
0.00126207318913
0.00124666733115
0.00123290707938
0.001229909329
0.00123306830013
0.00123764590967
0.00123520636792
0.00121104295295
0.00114811676145
0.00102836380152
0.000849642464515
0.00106843108845
0.00212762547368
0.00278691280453
0.00316532686857
0.00336823973068
0.0034526311479
0.00345534902407
0.00341150939207
0.00335928609841
0.00330910609724
0.00326227755444
0.00325931909445
0.00328880415785
0.00331619311413
0.00331020487446
0.00323488487995
0.0030526087498
0.0026959430926
0.0020552171686
0.00102781529655
0.00119846208372
0.0027936461052
0.00384231957948
0.00449850305893
0.00486124291303
0.0049843251135
0.00493700273983
0.00480891855938
0.00467711348864
0.00455903092771
0.00447839035612
0.00452305136109
0.00459958306612
0.00468258849764
0.00471667432037
0.00461940725546
0.00430706933145
0.00370438419651
0.00269843195678
0.00114495389879
0.00127010444789
0.00318541467444
0.00452560855901
0.00539028339877
0.00583094565004
0.00590588270208
0.00572892286489
0.00545104328094
0.00519860406009
0.00498789706186
0.00488995591904
0.00498453248757
0.00513504851133
0.00532219945482
0.00545987787203
0.00541862491053
0.00507629403693
0.0043243944087
0.00306536227919
0.00120656883914
0.00130884950985
0.00341404634788
0.00494721426061
0.00591635844146
0.00632964026343
0.00624480018165
0.00583389847724
0.00534611168446
0.00496534929618
0.00467723829398
0.00459893622256
0.00473865889413
0.00497741083303
0.00532811512471
0.0056517285512
0.00575011250507
0.00546411480613
0.00466842309144
0.00327176539474
0.00123713570947
0.00133062116991
0.00352718805246
0.00514822459611
0.00611776400099
0.00639602788917
0.00603615631609
0.00527841152076
0.00452683454849
0.00404901764957
0.00373035749146
0.00365923912931
0.00381156741499
0.00414325629908
0.0047592654047
0.00539381186823
0.00572703363236
0.00557027786167
0.00481077242872
0.00337152441636
0.00125725795438
0.00133579800465
0.00354747205192
0.00516610058203
0.00605931992312
0.00613216854424
0.00541167167485
0.00417682145404
0.00311622020628
0.00261723465609
0.00236513573494
0.00238395788081
0.00251122447716
0.00287508596055
0.00377900531107
0.0048310683674
0.00547157886388
0.00549378462387
0.00481652795355
0.00339632821047
0.00126923880482
0.00132721376413
0.00351166253091
0.00508904470127
0.00589201516163
0.0057904796377
0.00478579627446
0.00317985091138
0.00207794334041
0.00166835263486
0.00151176568299
0.00148158835675
0.00155583445285
0.00187623377798
0.00286216997031
0.00425221424315
0.00516953906246
0.00535415802935
0.00476073242757
0.00337917673547
0.00127368504306
0.00131439187937
0.00347109702094
0.00501468647162
0.00576068346281
0.00556719800243
0.00444598246411
0.00275589410509
0.00168880747314
0.0013119834232
0.00119174523337
0.00116704644561
0.00122754845821
0.00152567875377
0.00246652375757
0.00395925668124
0.00499386828165
0.00526571712443
0.00471994837491
0.00336332838834
0.00127653729043
0.0013035807733
0.00345246309514
0.00499391384199
0.00573702705699
0.00553669239672
0.00440042819669
0.00269508256017
0.00162447783205
0.00125866139421
0.00114758556971
0.00112497912587
0.00118778013524
0.00149152769666
0.00244396458852
0.00396400769213
0.0050142318931
0.00528660397242
0.00473411461989
0.00336998843232
0.00128103733919
0.00129667676262
0.0034617749196
0.00503709301174
0.00583623097523
0.00571672708744
0.0046687996879
0.00299959192597
0.0018564979556
0.00147208444997
0.00134529499524
0.00132393266971
0.00140430874911
0.00174106405745
0.00277876894043
0.00427652779487
0.00524198927317
0.00543421910882
0.00481797449754
0.00340647349021
0.00128875930017
0.00128999281984
0.00348129820747
0.00510967845752
0.006014182758
0.0060830673035
0.00532319090057
0.00398301195835
0.00285477726453
0.00239589786947
0.00219566244157
0.00209932704906
0.0022795634943
0.00273880930326
0.00380012821122
0.00499223510225
0.0056900893436
0.00569289560099
0.00495321219151
0.00346180040026
0.00129595398838
0.00128014949307
0.00347999929395
0.0051438184801
0.00615675287197
0.00644842452574
0.00605052323992
0.00519055373031
0.00435473573779
0.00388367705157
0.0036303787299
0.00360719291723
0.00388713393407
0.00436342603163
0.00512953384063
0.00587260803605
0.00621122353664
0.00597729158685
0.00508887917308
0.00350987743169
0.0012972983473
0.00126903668736
0.00344823939307
0.00509819520675
0.00618223650679
0.0066758306566
0.00662141234393
0.00619371344987
0.00569351607962
0.00533675151307
0.00511283404709
0.00510608047079
0.00538853553716
0.00576600837134
0.00622728688424
0.00658629987036
0.00662124926765
0.00617807276634
0.00516417948886
0.00353177181846
0.00129366974156
0.0012625865256
0.00339464714771
0.00496112139913
0.00603609049461
0.00664186560828
0.00682086968108
0.0066922306515
0.00644256794305
0.00622645329196
0.00608036322668
0.00610952942231
0.00632469672466
0.00657647503053
0.00682373622796
0.00694062576353
0.0067708816113
0.00619608172326
0.00513327954402
0.00351563286332
0.00128909840088
0.00124893617198
0.00330566092279
0.00473882185161
0.00570775440536
0.00631464939639
0.00660426509809
0.00665336358508
0.00657932161705
0.00648944040285
0.00643163404432
0.00648126638618
0.0066180278373
0.00676260838603
0.00687165909396
0.00684609166638
0.00657680610959
0.00597626520623
0.00496790783601
0.0034361565364
0.00127643874379
0.00121476470159
0.00310786123896
0.00439527409982
0.00519838052905
0.00570489233856
0.00598677881198
0.0061022938951
0.00612259026661
0.00611638324228
0.00611709055736
0.00617195302322
0.00624447038109
0.00631468699108
0.00634717831231
0.00627114226922
0.00600823746156
0.00548618527433
0.00460917559577
0.00323215413338
0.00124211304125
0.00114605992055
0.00272072513203
0.00377157256776
0.00441935192871
0.00479514403636
0.00499670191269
0.00509526763039
0.00513949287364
0.00516307908778
0.00518519963139
0.00521263628669
0.00524845472318
0.00528293939968
0.00529035732708
0.00522597522669
0.00503023913631
0.0046341375778
0.00394109526377
0.00282108463737
0.00116958959193
0.0010242692051
0.00205838585077
0.00272628212998
0.00312666362087
0.00335455630435
0.00347403912022
0.00353214556362
0.00355809512843
0.00356967806921
0.00357961921585
0.00359262546281
0.00361101036857
0.00363012623241
0.00363568564328
0.00360257269007
0.0034934392656
0.0032567315351
0.00282820782206
0.00211835210703
0.00104033480083
0.000845455520374
0.00102589776117
0.00114814055902
0.00121788253692
0.00125509632856
0.00127283914016
0.00128133518061
0.00128683111061
0.00129103918508
0.00129560791803
0.00130047830043
0.00130515877953
0.00130963844689
0.00131065456334
0.00130597514448
0.00128887018014
0.00124932011543
0.00117367875934
0.0010426410784
0.000853446739274
0.00117241327464
0.00170252228965
0.00206779856909
0.0022730000365
0.00236935617653
0.00240157897917
0.0024060256451
0.00240313841765
0.00240235838152
0.00240315743072
0.00240208273971
0.00239550465506
0.00238933885219
0.00238642129591
0.00237634787682
0.00234287886095
0.002250010374
0.00204591808747
0.00168345576393
0.00116436665483
0.00170618926455
0.00219938481627
0.0026507588015
0.00291857295579
0.00305030368986
0.00309541831481
0.00309430176927
0.00307198432925
0.00304762403031
0.00302846259757
0.00301582856539
0.0030158447144
0.00302918132846
0.00304305386732
0.00304010928788
0.00299170563054
0.00286085051398
0.00259919452143
0.00216039958683
0.00169016630148
0.00207709640227
0.00265422301169
0.00322307900916
0.00358369358604
0.003770365985
0.00382893823997
0.00379906414324
0.00373385468314
0.00367099698973
0.00362164216734
0.00359296333659
0.00360631163145
0.0036421978248
0.00368476665215
0.00370540363114
0.00365858877408
0.00349140449498
0.00315174434484
0.00260789605124
0.00205730414609
0.00228195434807
0.0029298848453
0.00360011265199
0.00404036944212
0.00425799210414
0.00428322807318
0.00418798189073
0.00405240568561
0.00393368848527
0.00384667133102
0.00380908628315
0.00384306404328
0.00391739403313
0.00401180360977
0.00408305318332
0.0040660078002
0.00389307502415
0.00350623202053
0.00288131150663
0.0022607442573
0.00237163586674
0.0030735769602
0.00381825603501
0.00430254555306
0.00450132337648
0.00444976610978
0.00424599270366
0.00401354872035
0.00383043977375
0.00371050212483
0.00367524872908
0.00373363582317
0.00386239833312
0.00403964009911
0.00419896776563
0.00424625752729
0.00409988251899
0.00369883869065
0.0030259130527
0.0023488299376
0.00239139368791
0.0031277101946
0.00390951981438
0.00439283536292
0.00452455240309
0.00434104453513
0.00397364667357
0.00361590514727
0.00336710148329
0.00322920133377
0.00320004635609
0.0032797070351
0.00348432604783
0.00379127945791
0.00409477224842
0.00424920957825
0.00416148986481
0.00377597981574
0.00308533995927
0.00237033882721
0.00237802157189
0.00312491826445
0.00390642812026
0.00435140682575
0.00438089978968
0.00401571841757
0.00340367139798
0.00285262801879
0.00253169860908
0.00241901049306
0.00241972105087
0.00251840667701
0.00283872995982
0.00331361611163
0.00383109869888
0.00413299364409
0.00412839851517
0.00377930847547
0.00309385030439
0.00236243886446
0.00235654212666
0.00309628447181
0.00385808695616
0.00425513682898
0.00419178754212
0.00366778682885
0.00280770804719
0.00208848335545
0.00174254096855
0.00166996668028
0.00167416893844
0.0017502522572
0.00212735011108
0.00281291593428
0.0035335844241
0.00397910297715
0.00405722919287
0.00374918934554
0.00307953639243
0.00234784985193
0.00234030795457
0.00306976906308
0.00381446404914
0.00417930565208
0.00405864476512
0.00344093396372
0.0024486512307
0.00166596838074
0.00132209417028
0.00125970168439
0.00125620883351
0.00131068441721
0.00166098409233
0.00243764161276
0.00332579172331
0.00387179400663
0.00400572419559
0.00372516671563
0.0030670771061
0.00233911008666
0.00233532233352
0.00306094477409
0.00380418898342
0.0041668374602
0.00404057492477
0.00341079967721
0.0023996364258
0.00160378079963
0.00126009587674
0.00119701278402
0.00119153506711
0.00123951139205
0.00158927742782
0.00238989607784
0.00330909359919
0.00387260301686
0.00401306854872
0.00373193074657
0.00307008738618
0.00233920931719
0.00234536995503
0.0030736064916
0.00383339995697
0.00422721909398
0.00415049158421
0.00359495109461
0.00268105162356
0.00190682136949
0.00155321107172
0.00148449743467
0.00148434889848
0.00154510265872
0.00192439861185
0.00270427579511
0.00350812234554
0.00399887108701
0.00409197504788
0.00377806035094
0.00309361542026
0.00235170539208
0.00236915763808
0.00310140870574
0.00388781802919
0.00433892861292
0.00436231364892
0.00396443539758
0.00327960616621
0.00264095550926
0.00230434029639
0.00221307584106
0.0022120141356
0.00231629380168
0.00268436410761
0.00328174798732
0.00388406663666
0.00423188171758
0.00423035461982
0.00385546349289
0.00313340469624
0.00237690539083
0.0024034648036
0.00313041233139
0.00393585628744
0.00444744546135
0.00459115163904
0.00438447994315
0.00395591663051
0.00354375441524
0.00328735967174
0.00318590646388
0.00319768085029
0.0033368204304
0.00360829944818
0.00397819075834
0.00433620927806
0.00450445146225
0.00438521681956
0.00393746029635
0.0031756772926
0.00241073942093
0.00243498902333
0.00314672066608
0.00394966686156
0.00450187130776
0.00475471746096
0.00472567752362
0.0045138833155
0.00427286510047
0.00409873883946
0.00401161049402
0.00402553504496
0.00414468796303
0.00432618201654
0.00454021122661
0.00471048364444
0.00472450279214
0.00449911804951
0.00398873737762
0.00320208144411
0.00244272721309
0.00244314175342
0.00313496654129
0.00390982339793
0.00446396368512
0.00478026757281
0.0048758292194
0.00481550995124
0.00469857999586
0.00459871132387
0.00454503166929
0.00456539036806
0.00465099916793
0.00476043573711
0.00486567576578
0.00490940538416
0.00481448698907
0.00451657703236
0.00397644631923
0.00319181677041
0.00245239319919
0.00240175379617
0.00307268354055
0.00380008314411
0.00431566937674
0.00463780872622
0.00479319483722
0.0048248829515
0.00479417830232
0.00475548306722
0.00473731213297
0.00476034510643
0.00481247051698
0.00486852868391
0.00490319575351
0.0048714032976
0.00471968694729
0.0044000790356
0.00387218096409
0.0031201403278
0.00241178068674
0.00228615684407
0.00291968080958
0.00359014740401
0.00404388425117
0.00432692252994
0.00448248340485
0.00454705153016
0.00456074463992
0.00455970919092
0.00456388718654
0.00458420849761
0.00461117831834
0.00463447397923
0.00463396301031
0.00457572797232
0.00441949209413
0.00412365233837
0.0036437591836
0.0029533878866
0.00229181620597
0.0020622854168
0.00263154190625
0.00321666714254
0.00360458003721
0.0038364853877
0.00396234703592
0.00402233941355
0.0040470377521
0.00405802709959
0.0040668970721
0.00407765889075
0.00409015465283
0.0040981777826
0.00408714426865
0.00403238399469
0.00390139601863
0.00365496372748
0.00324808583177
0.00264951387899
0.00205979749662
0.00168845258571
0.00217353869268
0.00264163633527
0.00294266343362
0.00311824623405
0.00321181114546
0.00325665089702
0.00327564788393
0.00328316761066
0.00328750805508
0.0032919243901
0.00329724475529
0.00329947536361
0.00328879705
0.00324812183891
0.00315222152707
0.00296734486864
0.00265341434237
0.00217596316689
0.00167734223839
0.00116267250868
0.00169661846203
0.00207954627815
0.00231423217105
0.00244875056442
0.00252100029095
0.00255664390003
0.00257239093255
0.00257751152502
0.00257809158323
0.00257772087623
0.00257556372708
0.00257120761153
0.00255698154734
0.00252215650508
0.00244761977007
0.00230770496011
0.00206685733848
0.00168094421064
0.00115518080518
0.00141203847344
0.00226412293236
0.00286636774216
0.00321449685597
0.00338555132113
0.0034476086422
0.00345634073822
0.00344667601574
0.00343641660145
0.00343103528528
0.00342877883476
0.00342908712627
0.00343587390178
0.00344142236064
0.0034234385549
0.00335373393264
0.00318389831739
0.00283577153181
0.0022370234574
0.00139596877954
0.0022678933072
0.00257674549937
0.00302548398001
0.00330728326752
0.00344952411964
0.0035006537858
0.00350430510879
0.00348743521016
0.00346876524127
0.0034570483615
0.00345460831442
0.00346128822572
0.00347812016824
0.00349394496419
0.0034887434008
0.00343159864773
0.00328295749556
0.00299880739106
0.00255731996829
0.00224757062933
0.00287740750054
0.00302691694338
0.00348351310883
0.00378607579896
0.00394085344913
0.00399103348338
0.0039743828552
0.00393382120362
0.00389501210605
0.00386969830224
0.00386251946459
0.00387797273513
0.00391277178886
0.00395132593272
0.00396729674175
0.00391983468464
0.0037625355636
0.00345679754147
0.00301059677297
0.00285858991774
0.0032259096935
0.00331208945382
0.00379377519777
0.00411886063857
0.00427682737904
0.00429844917214
0.00424111537125
0.00416034866451
0.0040885025815
0.00404383975127
0.0040332527571
0.0040667139995
0.00413415875476
0.00421317076473
0.00426938512049
0.00424894126836
0.00409657343895
0.00377458243335
0.0033053501807
0.00321120693314
0.00338809001288
0.00345735261953
0.00396096167521
0.00429473934913
0.00442975677139
0.00440106424188
0.00427972740777
0.00414362199139
0.00402300470842
0.00395407883312
0.00394351276535
0.00400043728375
0.00411846349836
0.00425590528506
0.00437651957119
0.00440596535342
0.00427763227862
0.00395315155027
0.00346472382059
0.00337831861366
0.00343291576208
0.00350667942011
0.00401918165465
0.00434084526108
0.00442860769289
0.00431992899689
0.00410719388167
0.00390857179063
0.00370186125483
0.00360234814463
0.00359474572087
0.00368615129068
0.00390026022461
0.00410055750899
0.00431451746627
0.00442064488588
0.00433725898362
0.00402711844247
0.00353041196801
0.00342998721145
0.00341941317922
0.00350108235473
0.00400747739564
0.00429943624042
0.00432259293785
0.0041118974069
0.00378602125131
0.00352921022176
0.00308898384958
0.00300509519893
0.00305881123313
0.00323931532045
0.00378542593209
0.00381181679589
0.00413397450274
0.00433821106938
0.0043156488406
0.00403345402158
0.00354057123327
0.00342465374168
0.00338974043422
0.00347493476944
0.00396729429573
0.00422548741433
0.00418942132022
0.00389880738693
0.00349158695659
0.0036941229715
0.00270809529238
0.00259115383564
0.00258859774568
0.00273190459351
0.00393715284795
0.00374254135845
0.00394254250414
0.00422363950169
0.00426097105954
0.00401010343316
0.00352750332052
0.00340239413965
0.00336609799784
0.00345327625042
0.00393480057701
0.00416886740234
0.00408372190507
0.00368171640735
0.00295748668147
0.00248243853467
0.00156130154384
0.00141096838949
0.00139930805595
0.00151546179868
0.00251705890631
0.00316401730717
0.00373833746677
0.00413272979843
0.00422093634727
0.00399260182217
0.00351716908414
0.00338805928245
0.00336341400436
0.00345017656345
0.00393168494104
0.00416495461529
0.0040759737239
0.00366337288051
0.00291291276493
0.00239162863777
0.0014859253975
0.00133254198583
0.00131044272402
0.00141113830968
0.00239711294102
0.00312027654386
0.00373441566097
0.00414322863071
0.00423567865018
0.004005213856
0.0035246297301
0.00339164241478
0.00338601380138
0.00346977750443
0.00396349593647
0.00422142659283
0.00417781814097
0.00386660494376
0.00339204731884
0.00324521326537
0.00226419402198
0.00213067671305
0.00213617489803
0.00224945534281
0.00337218914638
0.00370522705206
0.00397047645345
0.00427435567877
0.0043171068469
0.00405588375919
0.00355519152595
0.00341812427562
0.00343177437075
0.00350810238437
0.00402162554949
0.0043204740155
0.00434202796691
0.0041176679016
0.00376747137545
0.00342048961175
0.00291395489225
0.00282470865541
0.00286202109745
0.00302349588599
0.00364819260875
0.00392237482871
0.00425634679413
0.0044762417254
0.00444631269754
0.00413500839803
0.00360416380372
0.00346631557817
0.00348983391432
0.00355400193324
0.00408703414727
0.00443279989155
0.0045348206355
0.00442288786924
0.00419575944547
0.00398922224437
0.0037657155037
0.00369771817267
0.00373502405976
0.00388334840557
0.00416340878339
0.00437656842989
0.00460369803275
0.00470516927841
0.00458610864228
0.00421727140413
0.00365612910466
0.00352481648834
0.00353808516127
0.00358877328
0.00413367260925
0.00451838957882
0.00469698882899
0.00469516884526
0.00458644982303
0.00446206890928
0.00435469620434
0.00431861583889
0.00435733119403
0.00446552113914
0.00462589128449
0.00477915833048
0.00489485767491
0.00488662014074
0.00468646353877
0.00426893106655
0.00368925699965
0.00357180031138
0.00354252355995
0.00358646450381
0.00413165975136
0.00453597149203
0.00476710992123
0.0048479784916
0.00483089051002
0.00477940836885
0.00473451384659
0.00472506440858
0.00476325770777
0.00483977214323
0.00493544126257
0.0050183476167
0.00504524842826
0.00495535657075
0.00469898783458
0.00425729399889
0.00367739421323
0.0035718937112
0.00346300287115
0.0035170485255
0.00405094075065
0.00445174102675
0.00470202278389
0.00482806235068
0.00486888491473
0.00486806747689
0.00486062766481
0.00486829695342
0.00490121535533
0.00495060145572
0.0050023503429
0.00503183805455
0.00500125734855
0.00486669356121
0.00459133794798
0.00415466829802
0.00359204899753
0.00348412348983
0.00325908354464
0.00334509571664
0.00385853836492
0.00423947992725
0.00448032114663
0.00461500615956
0.00467769054319
0.0047010911634
0.00471209163127
0.00472710556599
0.0047505745272
0.00477923890796
0.00480335640678
0.0048034909918
0.00474978792684
0.00460774828127
0.00434438427229
0.0039343043671
0.00340017125811
0.00326433535928
0.00287780686887
0.00303506199054
0.00352122353425
0.00387353178631
0.0040940217948
0.00421822565582
0.00428073159434
0.0043095240122
0.00432445442335
0.00433707861353
0.00435166425536
0.00436725508015
0.00437685110796
0.00436558627695
0.00431011101583
0.00418060055005
0.0039438122592
0.00356940875442
0.00306631726995
0.00286343136511
0.00225563422596
0.00257444269232
0.00304941136909
0.00337547529387
0.00357406766761
0.00368450755477
0.00374036313993
0.00376633677541
0.00377859829121
0.00378657788699
0.00379440899114
0.00380193905496
0.00380417656355
0.00378934532559
0.00373835232779
0.00362415341184
0.00341306480022
0.00306930239503
0.00258014194042
0.00222734024776
0.0013978371608
0.00226623814505
0.00290558224014
0.0033067968281
0.00354458768212
0.00367605096713
0.00374252155861
0.00377268113614
0.00378427829801
0.00378783118298
0.00378828171225
0.0037854697971
0.00377562022606
0.00374634364507
0.00367741744911
0.00353781205671
0.00328717510272
0.00287283666016
0.00223180271053
0.00138763475754
0.00154565597084
0.00264860159787
0.0034432276529
0.00391265299767
0.0041509822511
0.00424023999737
0.00425006393413
0.00422911831659
0.00420550973547
0.00419060100135
0.0041865724337
0.0041933146182
0.00421505948946
0.00423246358439
0.00421076542565
0.00410958555377
0.00387090513273
0.00340174169583
0.00261193217246
0.00152177745843
0.00265224722857
0.00290242426461
0.00338155728518
0.00369391795606
0.00385711897491
0.00391857861919
0.00392405739636
0.00390530158323
0.00388377346282
0.003871007415
0.00387081674496
0.00388207733303
0.00390302664071
0.0039214415058
0.00391378001492
0.00384582891065
0.00367542966033
0.00335911299466
0.00288697983804
0.00262635632499
0.00345522416717
0.00338150493984
0.00379991216738
0.00409217751244
0.0042458092218
0.00429857210818
0.00428784524969
0.00425273601796
0.00421716191819
0.00419565853251
0.00419362957926
0.00421075709908
0.00424529630715
0.0042807576375
0.00429188814391
0.00423968352999
0.00408029373271
0.00378184194506
0.00337372489828
0.00343596598183
0.00392540022761
0.00369500431948
0.00409624477021
0.00438350879985
0.00452737407339
0.00455422756714
0.00451289454771
0.00444921395045
0.0043865458386
0.00434977542997
0.00434641450427
0.00437911167815
0.00444274041731
0.00450945149519
0.00455308424423
0.00452690821646
0.00438191516875
0.00409041270736
0.00370095825142
0.003917333677
0.00415446823052
0.00385851871188
0.0042567935416
0.00453736259558
0.00465750964607
0.00464710210022
0.00456538690617
0.00447161646234
0.00436013910151
0.0042988459428
0.00429419927541
0.00435308808603
0.00446816496905
0.00456923571993
0.00465761166779
0.00467134764733
0.00455072104651
0.00426781408767
0.00388164759546
0.00415818479246
0.00422729609147
0.00391681229759
0.00431255513082
0.00457736808542
0.00466129557063
0.00460260426091
0.00449437983389
0.00444987495433
0.00420062861999
0.00409440989552
0.0040901819421
0.00419533704953
0.00444623307972
0.00450304883395
0.00462913213116
0.00469500713586
0.00461059079324
0.00434366921056
0.0039583776536
0.00424299723754
0.00421733846359
0.00391498121433
0.00430336458546
0.0045442590777
0.00458804606332
0.00451030254142
0.0046666618487
0.00680773153418
0.00541174430929
0.00509066179469
0.00505037744944
0.00526422002581
0.00653320945959
0.00448855202082
0.00452462696896
0.00463806418586
0.00459761153103
0.00435410805725
0.00397335731607
0.00424544053108
0.00418115929185
0.0038904004418
0.00426799493805
0.0044828584969
0.00449489959725
0.00450771841122
0.00682802180664
0.00663359481816
0.00447657024869
0.00455666243521
0.00455556834014
0.00433680798503
0.00396324293424
0.00422105393635
0.00415401483665
0.00387042373985
0.00424015474752
0.0044344054885
0.00439751182244
0.00423950663795
0.00522793534831
0.00506628806076
0.00425662353331
0.0044779758563
0.00452536764704
0.00432578411372
0.0039564389533
0.00420612838694
0.00415432709065
0.00387052536866
0.00424087340085
0.00443537748917
0.00439589115185
0.00422327706484
0.00513700137117
0.00501089377535
0.00426949141889
0.0045010063546
0.00454976960098
0.00434616386127
0.00397032908825
0.00421743167709
0.00418891805202
0.00389559070347
0.00427579839487
0.00449273321518
0.00450004990605
0.00447215312666
0.00640515748609
0.00645694394604
0.00456800889935
0.00464604463749
0.00464019970057
0.00440577860116
0.00401075008205
0.0042615526734
0.00425407210602
0.00394141535811
0.00433683931489
0.00458603384807
0.00463254608571
0.00454874676628
0.00466928137452
0.00662673984262
0.00535037156083
0.00519448583354
0.00526718514162
0.00561901200127
0.00734051931898
0.00488534631654
0.00473707038413
0.00483090968101
0.00477155160389
0.00449332668542
0.00407194424368
0.00433465108026
0.00433152630305
0.00399545903654
0.00440761021416
0.00469570683933
0.00479898018718
0.00475658383597
0.00468492489173
0.00475267761101
0.00447751807613
0.00439967997123
0.00444889494737
0.00461731716571
0.00496369498995
0.00489911477754
0.00499225072843
0.00503660795922
0.00491036115457
0.00458317055251
0.00413566724836
0.0044160762369
0.00439075581678
0.00403515732813
0.00446114823612
0.00478492859311
0.00494732799245
0.00497322675436
0.00492734886478
0.00487601151601
0.0047854134908
0.00475842858871
0.00480211609714
0.00490819373892
0.00506176663032
0.00515931543662
0.00523089297837
0.00520207803277
0.00501085665664
0.00464095866014
0.00417592388136
0.00447350937973
0.00438537249342
0.00403010588959
0.00446392446982
0.00481158592998
0.00501912831758
0.00510551968964
0.00511495647044
0.0050948880641
0.00506901300826
0.00507141390668
0.00511333610834
0.00518715016516
0.00527657930412
0.00534382730198
0.00535698381688
0.00526483947368
0.00502576110249
0.00463176708361
0.00416116948865
0.00445891279118
0.00426723871609
0.00394556095128
0.00438304319268
0.00473858480814
0.0049687427022
0.00509217897538
0.00514316628805
0.00515754446928
0.00516282492726
0.00517988327147
0.00521607167575
0.00526627234272
0.00531733203827
0.00534384136457
0.00531161711731
0.00518163020153
0.00492274784327
0.00452597879675
0.0040587766074
0.00432190637631
0.00398290278441
0.00374745931624
0.00418624813378
0.00453990381404
0.00477269539332
0.00490735674168
0.00497585968723
0.00500764305471
0.00502640191526
0.00504671603229
0.00507443317854
0.00510697062825
0.00513388643232
0.00513502149133
0.00508151854969
0.0049410033598
0.00468475013813
0.00429825002495
0.0038341959898
0.00400804758621
0.00346789616461
0.00340244839412
0.00385345031393
0.00420259308411
0.00443011142657
0.00456351399317
0.00463453939098
0.00467039157739
0.00469099526398
0.0047086629768
0.0047283581709
0.00474872350587
0.00476149590563
0.00475037001128
0.004691102789
0.00455386674452
0.00430772435291
0.00393040784689
0.00345481011677
0.00345744816694
0.00264375030345
0.00290965142546
0.0034205734693
0.0037849817383
0.00401425994263
0.00414648247415
0.00421658756368
0.00425161199459
0.00426997138076
0.00428297386377
0.00429548313745
0.00430698779638
0.00431075242343
0.00429251531774
0.00423003324029
0.00409323995038
0.00384685840103
0.00345701794293
0.00292355268048
0.00260760369558
0.00152532736703
0.00265591529161
0.00350578417997
0.00405021604331
0.00437982265685
0.00456674539142
0.00466430370497
0.00471027707439
0.00473026879634
0.00473918727216
0.00474353317678
0.00474310886209
0.00473043013048
0.00468792640656
0.0045866978695
0.00438576347979
0.00403379672619
0.00346672592875
0.00261170566563
0.00151594016865
0.00163531598485
0.00292634659826
0.00387156479804
0.004439213679
0.0047326480356
0.00484324041428
0.00485188112281
0.00481691937915
0.00478004143521
0.00475462075719
0.00474790634451
0.00476053027282
0.00479600886465
0.0048263977101
0.00480421128599
0.00467863482963
0.00438307722476
0.00381674356268
0.00287995397571
0.00160404292604
0.00292894252718
0.00315418078982
0.00366968854445
0.00401366261134
0.00419772784906
0.00426878296451
0.0042746038416
0.00425183629551
0.00422538432692
0.00420963793331
0.00421007475744
0.00422594464597
0.00425189244312
0.00427432467428
0.00426567001784
0.00418821032948
0.00399715179677
0.00364889678468
0.00314073967478
0.00289762668973
0.00388306604744
0.00366843634142
0.00407691378023
0.00437387474361
0.00453430138893
0.00459168835356
0.00458376158521
0.00454821585724
0.00451028715864
0.00448765651445
0.00448721596312
0.0045074153044
0.00454424654053
0.00457950954108
0.00458782398862
0.00453061447896
0.00436489190121
0.00406252492387
0.00366660783845
0.00386318587205
0.00445188796639
0.00401242650448
0.00437629817585
0.00465178922524
0.00479488984894
0.00482790817167
0.00479386339835
0.00473420852827
0.00466977571057
0.00463207465332
0.0046314751522
0.00466663741251
0.00473168885541
0.00479272346895
0.0048285583689
0.00479728240533
0.00465342523207
0.00437509260057
0.00402790678089
0.00445074683846
0.00473603966375
0.00419651623335
0.00454262905264
0.00480330543318
0.00492303093646
0.00492588606154
0.00486383058073
0.00478427063958
0.00466496602198
0.00459865096287
0.00459724948839
0.00466239840338
0.00478412284773
0.00486775080033
0.00493592632093
0.00493829705941
0.00481990905133
0.00455890688647
0.00423170287605
0.00475417148182
0.00483284438009
0.00426623672331
0.00460404668082
0.00484800151662
0.00493855609449
0.0049113447272
0.00485458650575
0.00485207131484
0.00455093558594
0.00441956021441
0.00441675300135
0.00454492264436
0.00484179696032
0.00485727596996
0.00493299582004
0.00497204389901
0.00488442867574
0.00464130441106
0.00432196516388
0.00486909411546
0.0048272918342
0.00426942297755
0.00459995134214
0.00482430365659
0.00488920938071
0.00488061795476
0.00517262413782
0.00734068322945
0.00566099708193
0.00529743213676
0.00527652558372
0.00557803825973
0.00710412749633
0.00495314749399
0.0048765905194
0.0049353664057
0.00488102062397
0.00465845829013
0.00434427414425
0.00488074714417
0.00478581210656
0.00424622846793
0.0045681687735
0.00477111727595
0.00481712262795
0.00493383305837
0.0075509803903
0.00737931827108