/*--------------------------------*- C++ -*----------------------------------*\
| =========                 |                                                 |
| \\      /  F ield         | OpenFOAM: The Open Source CFD Toolbox           |
|  \\    /   O peration     | Version:  2.4.0                                 |
|   \\  /    A nd           | Web:      www.OpenFOAM.org                      |
|    \\/     M anipulation  |                                                 |
\*---------------------------------------------------------------------------*/
FoamFile
{
    version     2.0;
    format      ascii;
    class       volScalarField;
    location    "5.75";
    object      alpha.water;
}
// * * * * * * * * * * * * * * * * * * * * * * * * * * * * * * * * * * * * * //

dimensions      [0 0 0 0 0 0 0];

internalField   nonuniform List<scalar> 
4608
(
2.70639e-06
1.84351e-05
1.2517e-05
0.000430563
0.00159519
0.00250654
2.88879e-10
0.000845088
0.00205225
0.00019666
9.07837e-10
9.55795e-10
1.3151e-05
1.25175e-05
4.90144e-05
0.0013961
0.001811
5.10412e-06
1.3666e-06
0.00408507
0.00758896
0.00758897
0.00744964
0.000855345
1.26939e-05
1.25174e-05
0.000237416
0.00250132
0.00172099
2.04586e-10
2.35071e-10
0.00201088
0.00758897
0.00758896
0.0020869
2.74803e-10
2.16151e-06
1.29146e-05
0.000332455
0.00315403
0.002361
2.05249e-10
2.32948e-10
0.000336037
0.00259677
0.00289188
0.00052199
0.000623628
5.51376e-09
2.70179e-05
0.000719647
0.0074624
0.0041984
2.04592e-10
2.2893e-07
4.63465e-09
2.78913e-10
2.51991e-10
0.000657759
0.0120023
5.50985e-09
1.67671e-05
0.0024565
0.00854889
0.00751902
2.05256e-10
3.75672e-08
2.3448e-10
1.55711e-08
2.45774e-10
0.00113005
0.0137517
5.50853e-09
0.000236483
0.00537842
0.00855504
0.00653876
2.0431e-10
2.04328e-10
2.0431e-10
2.04328e-10
2.24412e-10
1.6518e-05
0.00149787
5.50927e-09
0.000877729
0.00368832
0.00366655
0.000330932
0.00595467
0.0315057
0.0391158
0.0139563
2.0612e-10
2.05827e-10
2.12428e-10
4.55942e-05
0.000560321
0.000114325
5.96981e-10
5.88654e-10
0.00440369
0.0653121
0.0842405
0.0842923
0.0824388
0.0561331
0.0223772
4.58588e-06
8.18792e-06
5.81488e-10
5.73089e-10
5.73325e-10
0.000192113
0.0136698
0.0450617
0.0513746
0.0437473
0.0360432
0.022991
1.62953e-05
5.78661e-10
5.67741e-10
2.38093e-05
5.0592e-06
4.44783e-10
4.26355e-10
9.47727e-05
0.000430778
7.92905e-05
0.000105215
0.000234093
5.94499e-10
5.92044e-10
5.25598e-05
0.000103951
0.000105298
2.50922e-05
4.10218e-10
4.1155e-10
4.11883e-10
3.21121e-10
3.19654e-10
3.07075e-10
0.00242367
0.00486416
0.00316446
2.70106e-10
3.12568e-10
4.6147e-05
0.000211687
0.000189464
4.35566e-09
0.00159789
0.0199568
0.0280223
2.77965e-10
2.28491e-05
3.01155e-10
1.60555e-09
1.02793e-08
9.23235e-09
0.00162031
0.00551316
0.00545193
0.000666869
4.90388e-10
4.54096e-10
2.7198e-10
2.71984e-10
3.00938e-10
3.27139e-10
2.13692e-07
7.40781e-07
7.24583e-07
0.00731495
0.0370007
0.0402616
0.014923
9.81537e-05
0.00448401
0.00545648
0.00159116
0.000131111
1.77738e-10
3.03654e-06
2.96574e-06
6.30737e-10
0.0234391
0.0592376
0.0591059
0.00581114
0.0150313
0.0150315
0.0150313
0.00548994
1.72128e-10
1.64349e-10
1.90397e-10
2.06327e-10
6.16363e-10
0.0109762
0.0798285
0.0179015
0.0150315
0.0150324
0.0150315
0.0149603
0.00164505
1.65012e-10
2.83503e-07
1.08493e-06
4.50783e-07
2.25628e-10
0.124001
0.247725
0.00834521
0.0150331
0.0150324
0.0123487
1.65318e-10
1.86468e-10
4.24604e-07
7.24725e-06
1.74974e-10
2.00091e-10
0.129719
0.298164
2.43869e-10
0.000755099
0.00186604
0.00235804
1.86861e-10
1.75482e-06
0.000109588
1.41953e-05
1.75254e-10
1.8493e-10
0.0265128
0.298164
0.0143416
0.0209708
0.0209762
0.011756
0.000357776
0.000203372
0.000204086
2.98287e-05
1.80366e-10
1.66876e-10
0.0036065
0.224736
0.00985882
0.0061677
0.00520612
0.00427474
0.00231251
0.000713475
0.000133659
1.80834e-10
1.64155e-10
1.51151e-10
1.18778e-10
0.0420196
5.54377e-05
2.66519e-10
2.60798e-10
2.60871e-10
0.00135318
0.00187347
0.000622358
1.90108e-10
1.7226e-10
1.33924e-10
1.18937e-10
0.029423
2.93127e-10
2.79575e-10
2.85419e-10
2.61252e-10
0.0048502
0.00600362
0.005465
0.000834617
1.86146e-10
0.00282385
1.27842e-10
0.00085982
4.46122e-07
5.4121e-08
4.83067e-08
0.00109059
0.0120231
0.0105041
1.13136e-10
1.13136e-10
1.43019e-10
0.00558644
0.0176821
0.0120345
1.30495e-05
5.2231e-08
0.00201363
0.00598652
0.00120172
0.000890453
0.00065212
0.0251986
0.0334964
0.00362067
0.00343752
0.000384459
1.44558e-05
5.22285e-08
0.00293283
0.00597299
1.86151e-10
2.19067e-10
0.0247975
0.0647371
0.0647371
0.055448
0.00162803
2.55025e-10
1.92136e-05
4.79387e-05
0.00253156
0.00486308
1.82067e-10
0.000123738
0.0379599
0.0647371
0.0647371
0.064627
0.00733794
2.53996e-10
1.92598e-05
0.000866739
0.00676173
0.00169414
1.8137e-10
2.03812e-10
0.00721981
0.0537346
0.0647371
0.0343287
2.24555e-10
2.53471e-10
1.93064e-05
0.00193585
0.00696017
0.00216244
1.81603e-10
1.70765e-05
7.36727e-05
0.00581103
0.0149674
0.00432853
2.19731e-10
2.63404e-10
4.27481e-05
0.00326636
0.00696521
0.00181287
1.82364e-10
1.97467e-05
7.64394e-05
2.8249e-10
2.62529e-10
2.41667e-10
2.19731e-10
2.19731e-10
0.000227471
0.00564999
0.00696017
6.11018e-05
1.82355e-10
2.04169e-10
8.70495e-05
0.000978628
0.00124701
0.0012196
0.000476843
0.000178029
0.000643673
0.00416547
0.00306096
1.65177e-10
8.39067e-08
4.02572e-06
2.66673e-05
0.000637725
0.0012349
0.00137831
0.00144956
0.00144783
0.000522468
0.00030309
1.4947e-10
1.62881e-10
8.10672e-08
3.2068e-06
6.60676e-06
1.81533e-05
6.41674e-05
8.51684e-05
0.000177296
0.000388217
4.74087e-05
1.42938e-10
1.29816e-10
1.90694e-10
2.96975e-09
1.2684e-09
1.51297e-09
1.49925e-05
2.06569e-05
2.48423e-05
1.294e-05
1.37337e-06
1.30654e-10
1.30206e-10
1.23157e-10
1.29484e-10
1.17662e-10
0.000141833
0.000925258
0.000942029
0.000835791
0.000229053
0.000114728
2.46703e-05
2.87663e-10
2.76102e-06
7.79863e-06
2.57348e-06
3.45583e-06
2.57345e-06
2.57344e-06
2.57344e-06
3.81281e-06
2.47527e-05
3.39666e-05
5.97095e-06
2.87649e-10
3.1897e-10
0.000694792
0.00951642
0.0157371
0.0110427
0.00395786
0.00127339
3.80947e-06
5.32227e-05
8.64581e-05
2.24537e-05
2.96332e-10
2.93064e-10
0.0155352
0.0291329
0.0290685
0.0291329
0.0290685
0.011977
0.0015019
5.29503e-05
5.24967e-05
0.000170237
2.54447e-10
2.54951e-10
2.85535e-10
0.00238822
0.0142048
0.0235054
0.022701
0.0127338
0.00968648
0.0177658
0.0134321
0.000170006
5.07916e-06
3.28129e-05
2.79136e-05
1.97495e-07
7.18858e-10
1.97487e-07
7.18172e-10
1.97498e-07
0.00503333
0.0401747
0.0402821
0.00096174
2.43447e-10
4.60446e-05
0.000181964
0.000230215
0.000265949
0.00053351
0.000552529
0.000355022
0.00036022
0.00940721
0.0401747
0.00754627
2.14914e-10
8.34876e-07
1.29498e-05
0.00013259
0.000279737
0.000674584
0.00110896
0.00110251
0.000861773
0.00239333
0.0261657
0.0100159
1.90451e-10
1.78582e-10
1.78458e-10
1.78141e-10
1.90279e-10
1.78129e-10
2.00899e-10
6.35337e-06
9.7934e-05
1.32598e-10
1.32672e-10
0.0275022
0.00138592
0.000454264
1.98674e-10
2.22422e-08
5.71153e-09
1.06089e-08
3.055e-07
1.40877e-10
1.37071e-10
6.39955e-10
1.30802e-10
0.0661707
0.000591082
0.000590711
0.000202973
2.37157e-08
5.89031e-08
2.06303e-10
1.57511e-06
2.081e-06
1.22392e-06
1.12768e-07
1.30802e-10
0.104706
1.64796e-10
1.68152e-07
1.31524e-05
1.44898e-05
4.79338e-06
2.05751e-10
1.89363e-10
1.09129e-06
1.49591e-06
4.50874e-07
1.30802e-10
0.14465
1.63552e-10
1.47531e-10
1.47355e-10
1.71427e-08
1.29475e-07
9.013e-08
1.89387e-10
1.7525e-10
1.61095e-10
1.46829e-10
1.30802e-10
0.110701
5.33993e-08
4.71176e-07
3.53154e-11
5.06935e-11
0.000881263
0.00604438
0.0247744
0.0417887
0.0128026
9.65265e-10
0.0259831
0.063095
1.38755e-06
8.36338e-10
0.00111229
0.00551942
0.0126505
0.0160552
0.0160865
0.00496771
0.0026745
0.00684358
0.0133487
0.0331017
1.18047e-07
8.00422e-10
0.0138306
0.0373427
0.0017634
0.00182374
0.00184936
0.000410673
0.00205134
0.0133688
0.0232754
0.022106
8.75601e-10
7.67687e-10
0.0166682
0.0673308
0.00381973
4.42696e-10
4.76467e-10
0.000399436
0.000707653
0.0035455
0.021123
0.0226611
7.11319e-10
7.4093e-10
0.0317034
0.0672135
0.0122725
4.31091e-10
1.76164e-05
0.000102532
3.05169e-08
0.000293871
0.00522915
0.00752084
7.29891e-10
0.000755412
0.0390126
0.0673428
0.00948361
4.31013e-10
4.3294e-10
4.64536e-10
2.91824e-08
4.65663e-10
4.51916e-10
4.64394e-10
7.47989e-10
0.0024293
0.0237944
0.0326162
0.000998973
9.80104e-05
0.000544209
4.51413e-10
4.51109e-10
5.23835e-08
5.90712e-09
4.01698e-10
0.000126476
0.00162856
0.000609392
7.04671e-06
6.51216e-08
3.84719e-05
0.00319215
0.00423317
0.000751353
1.30964e-09
1.43962e-09
3.74368e-10
4.37983e-05
3.52398e-05
3.91603e-10
5.30497e-09
6.28815e-08
6.51045e-08
0.00156524
0.00556593
0.00554159
0.00256962
3.83096e-10
3.69876e-10
3.94919e-10
3.77362e-10
3.74499e-10
3.74564e-10
1.69683e-07
2.14096e-07
3.54339e-10
0.00166693
0.00501479
0.00499519
0.00292117
1.10252e-05
3.87453e-10
0.000430093
0.00359479
7.51236e-05
3.37245e-10
3.35364e-10
3.35521e-10
3.54637e-10
0.000449535
0.002511
0.00291354
0.00142948
3.6832e-10
0.00308853
0.00788132
0.0115306
0.00400099
0.00136691
3.37093e-10
3.3761e-10
3.53027e-10
3.70338e-10
0.000325837
0.00121723
0.063095
0.063095
0.063093
0.0289292
2.26644e-10
2.4029e-10
2.75213e-10
0.00411454
0.0300359
0.0438403
0.0230163
0.0159273
0.023788
0.000684333
2.95318e-10
2.86413e-10
2.86494e-10
2.58219e-10
2.94199e-10
0.00382666
0.0247348
0.0439052
0.0566436
0.0602307
0.000928473
2.54992e-10
4.5764e-09
8.66125e-09
8.77186e-10
2.87652e-10
8.99791e-05
0.00887055
0.0144167
6.00929e-10
5.76411e-10
5.70363e-10
0.000588656
2.48862e-10
1.89145e-09
4.36715e-07
7.79321e-07
1.8551e-07
2.27631e-05
0.0139803
0.0251696
0.0244186
0.00196814
6.06081e-10
0.000663358
2.52213e-10
1.47612e-09
8.04152e-07
1.33158e-06
1.0271e-06
1.44635e-09
1.46732e-09
0.0181803
0.0704209
0.062173
0.0391629
1.56692e-05
7.73165e-07
6.69589e-08
1.76389e-07
6.53894e-07
1.48191e-09
1.46305e-09
1.48143e-09
0.00710927
0.0972501
0.121981
0.0856631
3.89862e-10
3.12192e-07
1.94634e-07
1.55298e-07
7.74708e-06
4.95325e-05
4.481e-05
1.48048e-09
0.00720096
0.0845651
0.121089
0.0101923
3.72546e-10
3.75338e-10
1.45491e-07
1.5721e-07
3.19822e-08
0.000457473
0.00191569
0.000952735
0.000107151
0.0135048
0.121981
0.00473746
2.94313e-06
4.87274e-06
1.53987e-07
3.19637e-08
3.23965e-08
0.00049521
0.00250597
0.00248056
9.88279e-05
0.00053642
0.038263
0.0794176
2.66686e-06
8.44553e-06
1.46379e-07
0.000190889
0.000492896
0.000478978
0.00104241
0.000421135
9.11911e-05
5.12586e-10
2.56107e-05
0.121132
9.78434e-05
8.70082e-06
0.00041555
0.00338901
0.0034152
0.0024293
0.00142161
5.49676e-10
5.30958e-10
5.30726e-10
5.25852e-10
0.0821361
0.00140159
0.00126908
0.000424805
0.000237128
0.000460365
1.65206e-11
0.00215369
0.211523
0.469649
0.401177
0.118707
0.0233573
0.215746
0.201693
0.196447
0.0692576
0.021252
0.00518642
2.08876e-09
0.000185403
0.000309596
4.24851e-10
4.24851e-10
4.24854e-10
0.0212072
0.00637937
0.0207675
0.00816106
0.00138975
0.000500272
0.000111352
0.000115778
0.000120109
0.000151991
2.50714e-05
0.000116908
0.00327985
0.00637774
0.00170501
4.50174e-10
4.82025e-10
4.79267e-10
0.000581888
0.00401606
0.00254764
1.94488e-09
9.26464e-07
4.06243e-05
0.000384287
0.00637937
0.000407902
4.24221e-10
2.35937e-07
4.5198e-10
0.00138947
0.00490613
0.00452246
4.37319e-10
4.42903e-08
9.54739e-07
0.000405929
0.00496883
0.000515841
4.24238e-10
2.33363e-08
4.24729e-10
0.00023866
0.00380273
0.00468536
0.000729176
4.25549e-10
4.08379e-10
0.000151412
0.000562014
0.000262689
0.000339607
3.98788e-10
3.98238e-10
4.1186e-10
0.00021298
0.00124957
0.00183821
0.00205802
0.000878811
2.60875e-09
1.73805e-09
3.37146e-06
0.0175556
0.0359836
0.000538513
3.78468e-10
3.90534e-10
3.91191e-10
0.000577119
0.00221248
0.00222387
5.77456e-08
7.22811e-08
4.28407e-06
0.0241747
0.0462816
0.0413041
0.00266492
3.69704e-10
3.70096e-10
9.20297e-08
0.000459411
0.00123077
3.81812e-07
5.20032e-06
3.01844e-06
0.00950148
0.0451431
0.0454667
0.0114971
7.81979e-05
3.83869e-10
4.52971e-06
7.24806e-05
0.000154397
1.97229e-10
4.81464e-06
9.91799e-06
4.55849e-05
0.00474794
0.0113451
0.00469909
0.000410921
3.43903e-05
2.89665e-05
7.91107e-06
2.20018e-10
0.0078164
4.83065e-06
0.000114961
2.15221e-10
2.15676e-10
2.21334e-10
0.000184069
1.04052e-05
1.09685e-05
4.57206e-06
2.15306e-10
2.0937e-10
0.0864794
0.0743512
0.0368712
0.030555
0.0382205
0.051755
0.0538576
0.0439166
0.00205915
1.38108e-10
0.00166584
0.00672635
4.47991e-10
2.90872e-05
6.15869e-05
3.34841e-10
0.0246474
0.128535
0.166508
0.166334
0.167833
0.167833
0.167833
0.167833
0.00230795
0.00271784
0.00235024
2.79693e-10
2.77988e-10
2.76449e-10
2.74168e-10
0.0229468
0.0922284
0.135588
0.141813
0.142455
9.27157e-05
4.31638e-05
3.86272e-10
3.95315e-10
5.24009e-10
4.15136e-10
2.44795e-10
1.98931e-10
0.000100173
0.0081236
0.00210573
1.05938e-09
4.30452e-10
4.85647e-10
2.04278e-08
4.54871e-10
6.90589e-10
3.70951e-10
2.38114e-10
1.98343e-10
0.00829254
0.0668554
0.0775348
0.0129025
3.89514e-10
1.21599e-09
2.2087e-08
2.91117e-07
1.29914e-09
2.30001e-10
1.99596e-10
1.71885e-10
0.000157329
0.0600112
0.127463
0.128446
1.80984e-10
1.84117e-10
2.00077e-10
4.06845e-05
0.000873114
0.00129128
0.000386289
1.48289e-10
1.31557e-10
1.40019e-10
0.0622301
0.163427
0.00187708
8.41501e-06
2.1824e-10
6.08106e-05
0.00193691
0.00249786
0.00249401
0.000369988
1.33311e-10
1.19994e-10
1.26117e-10
0.0234318
0.0010834
0.00020117
1.63112e-05
3.15821e-10
0.000430414
0.00217209
0.00249776
0.00245252
0.000115761
1.35269e-10
6.31247e-09
9.73754e-11
0.000407749
0.000321527
7.85508e-05
3.03925e-10
1.52067e-06
4.01288e-07
0.000697496
0.000624386
0.000570009
1.58399e-05
5.426e-07
7.74758e-07
0.000100845
0.00145315
0.00178541
0.001787
0.00122308
2.56009e-05
2.62037e-12
1.10714e-13
0.000118641
2.88847e-06
2.73909e-06
2.15999e-06
2.09902e-10
2.17848e-10
0.000174689
0.00114336
0.00098056
0.000108661
1.43072e-11
2.66716e-14
0.00055658
0.00428093
7.81195e-07
7.8119e-07
0.00497401
0.00956607
0.00719054
0.000756954
3.95493e-11
2.4516e-11
3.63981e-11
1.92561e-11
2.14033e-18
0.061855
0.190022
0.0105637
0.279108
0.0150953
2.88275e-08
5.60625e-09
6.56276e-07
3.74297e-06
0.00447343
0.0354102
0.0569202
0.0610627
0.0641667
0.094103
0.91017
0.415873
0.0117963
0.00571819
0.0157132
0.0162703
0.00656804
0.000803971
2.01083e-12
0.279257
0.846116
0.958315
0.967375
0.931941
0.408737
0.00995454
0.000182531
0.000155332
0.000134024
4.87938e-05
3.12108e-14
0.151808
0.915979
1
0.967362
0.967394
0.9217
0.371017
0.00465944
2.38829e-11
6.34645e-16
1.92081e-14
5.93786e-16
0.100784
0.874176
1
0.967795
0.967399
0.96802
0.854513
0.194282
2.71327e-11
4.10424e-11
2.60207e-11
1.91268e-14
0.0585837
0.824965
1
0.967866
0.967956
0.967839
0.96795
0.5189
0.00464779
6.41972e-11
4.28939e-11
3.30041e-14
0.0239243
0.743447
1
0.967866
0.967808
0.967946
0.967831
0.665873
0.0251415
8.55185e-11
7.08563e-11
1.91272e-14
1.39368e-11
0.512559
0.993189
0.953651
0.967802
0.967803
0.96783
0.797822
0.074074
1.13183e-10
1.19953e-10
7.34455e-11
4.76525e-11
0.136259
0.792669
0.753261
0.967831
0.967804
0.967483
0.862969
0.119033
1.34409e-10
2.1015e-09
1.48741e-09
1.21223e-10
3.64251e-11
0.107706
0.111108
0.509135
0.712871
0.663251
0.576581
0.154127
2.19805e-10
1.21236e-08
2.20597e-11
2.08718e-11
1.91852e-11
3.13781e-11
0.000592917
0.00322136
0.0045713
0.0523584
0.183803
0.22059
0.080821
1.4985e-08
2.60536e-05
6.60638e-05
4.6846e-05
5.80505e-11
0.00661477
0.00926373
0.00312564
0.0010172
0.00294366
0.0908952
0.0876813
0.00556323
8.66009e-11
1.13968e-05
1.04096e-05
5.51509e-11
0.0458752
0.0163987
0.00502051
0.0011435
0.000647528
0.00410673
0.0150899
0.0455529
0.0792409
0.108176
0.0591979
1.32449e-10
0.847217
0.649243
0.542154
0.475782
0.449691
0.484692
0.528852
0.61629
0.723289
0.773616
0.756947
0.343793
1
1
1
1
1
1
1
1
1
1
1
0.904298
0.999966
0.999942
0.999954
0.999985
1
1
1
1
1
1
1
1
0.999995
0.999999
1
0.999518
0.998828
0.998868
0.99969
0.999997
1
0.999996
0.999975
0.999996
1
1
1
0.999838
0.996391
0.996315
0.996846
0.99985
1
1
1
0.999805
1
1
1
1
0.999354
0.998223
0.998966
0.999923
1
1
1
0.999981
1
1
1
1
1
1
0.998827
0.969109
0.89937
0.928663
0.999902
1
0.691279
0.981739
0.998079
0.989821
0.985217
0.975901
0.969884
0.879604
0.519259
0.215246
0.210901
0.693795
0.113497
0.355942
0.566957
0.50384
0.474981
0.466556
0.483096
0.379094
0.142717
0.00985988
0.00847928
0.217777
0.00341802
0.0306387
0.0686297
0.0853694
0.0703036
0.0381882
0.0298456
0.0284914
0.0242003
0.00847928
0.00850021
0.029518
5.71474e-11
0.0999167
0.177617
0.179308
0.146302
0.187723
0.100261
0.028267
0.0332349
0.187263
0.187863
0.119431
1.17661e-10
1.17661e-10
1.17661e-10
1.17661e-10
1.17661e-10
1.1779e-10
1.18231e-10
1.52922e-10
1.80983e-10
2.05209e-10
2.3113e-10
2.19512e-10
0.172499
0.186552
0.143754
0.0847301
0.0987055
0.156419
0.291527
0.380628
0.234769
0.120673
0.153383
0.216418
0.869738
0.8931
0.875959
0.800778
0.812743
0.863497
0.930059
0.984485
0.981952
0.897046
0.90623
0.952323
1
1
1
1
1
1
1
0.994141
0.994563
0.999978
1
1
0.999989
0.99998
0.999929
0.999895
0.999894
0.999992
1
1
0.938088
0.821621
0.838669
0.931685
0.999596
0.9996
0.999787
0.999989
0.999986
0.999987
0.999999
1
1
0.795921
0.118453
0.0257605
0.999761
0.999653
0.999813
0.999997
1
1
1
1
1
0.927819
0.152124
2.36404e-10
1
0.999996
0.999995
0.999999
1
1
1
1
1
0.900995
0.127252
2.37369e-10
0.978116
1
1
1
0.998423
0.999748
1
1
1
0.881851
0.105572
2.34926e-10
0.376881
0.577875
0.678288
0.653568
0.499712
0.522321
0.884987
0.999911
1
0.891214
0.112568
2.35782e-10
0.028789
0.0285616
0.0390024
0.0317242
0.0154583
0.0145222
0.308689
0.969973
1
0.928578
0.170957
2.4022e-10
0.139682
0.0962223
0.0169139
0.0172723
0.0350879
0.0246895
0.346007
0.965994
1
0.754221
0.06352
2.21669e-10
1.91785e-10
1.7411e-10
1.7177e-10
1.95509e-10
2.20283e-10
2.20337e-10
0.000410647
0.00847309
0.0357059
0.0731414
0.055998
0.0684081
0.226002
0.11664
0.0217832
0.0180405
0.0340577
0.0782567
0.177455
0.381795
0.610081
0.691132
0.709822
0.448498
0.980828
0.850845
0.496461
0.387425
0.442895
0.599671
0.856668
0.986277
0.99998
1
1
0.973471
1
1
0.995729
0.930254
0.930102
0.95131
0.980895
0.99915
1
1
1
1
0.996174
1
1
1
1
0.99813
0.995232
0.996525
0.999633
1
1
0.999999
0.382186
0.939521
1
1
1
1
0.98948
0.986608
0.988544
0.999634
1
1
2.15034e-10
0.249526
0.917484
1
1
1
0.987992
0.987465
0.998676
1
1
1
2.14668e-10
2.16427e-10
0.449559
0.985174
1
1
0.978358
0.973926
0.989972
0.999979
0.999885
0.999635
2.16187e-10
2.13981e-10
0.116213
0.822436
1
1
0.979635
0.973926
0.973926
0.973926
0.993293
0.999636
2.168e-10
2.13877e-10
2.34005e-10
0.429561
0.886332
0.995822
0.996913
0.993418
0.983114
0.982527
0.99077
0.999621
2.1638e-10
2.1835e-10
2.21511e-10
0.0148561
0.153255
0.565629
0.960932
0.99984
0.999716
0.999308
0.998949
0.999323
2.13442e-10
2.13442e-10
0.00907932
0.0620648
0.334676
0.26031
0.216225
0.27313
0.880349
1
1
0.999955
0.0549119
0.0716714
0.0582126
0.0351436
0.100961
0.248494
0.1844
0.0134033
3.83853e-10
3.76078e-10
3.94036e-10
0.000260014
0.231331
0.0732126
0.0669885
0.0462017
0.0461885
0.474208
0.624443
0.245055
0.00195936
3.99886e-10
3.92941e-10
0.000211314
0.879897
0.614792
0.528324
0.441089
0.186118
0.412118
0.689003
0.574323
0.0732823
4.21077e-10
0.000158069
0.000404863
1
0.994962
0.994493
1
0.860484
0.524846
0.674131
0.698985
0.53639
0.0683858
0.000101575
0.000100916
0.999999
1
1
1
0.999053
0.682101
0.62485
0.697611
0.698985
0.604136
0.107828
0.000101575
0.999999
0.999999
1
1
1
1
0.850436
0.43797
0.342933
0.264388
0.111139
0.0159618
1
1
1
0.999999
0.999999
1
0.988646
0.63823
0.2033
0.0765074
0.0451461
0.0125371
0.999624
0.999937
1
0.999999
1
1
1
0.851672
0.829485
0.877177
0.905352
0.702342
0.999474
0.999185
0.999639
0.999995
1
1
1
1
1
1
1
1
0.99959
0.999168
0.999167
0.999877
1
0.999793
0.999761
0.999817
0.999995
1
1
1
0.999779
0.999639
0.999707
0.9999
0.999977
0.999921
0.999902
1
1
0.998052
1
0.981886
0.999988
1
1
1
1
0.997274
0.999903
0.988678
0.826256
0.575802
0.706404
0.578013
0.00139724
0.00125736
0.000259137
3.96446e-11
1.41205e-11
1.51197e-11
1.29904e-11
0.450318
0.999928
1
0.993546
0.439278
0.000464052
0.000377137
0.000156702
9.53436e-07
3.58809e-11
3.75962e-11
1.29901e-11
0.274915
0.959865
1
1
1
0.000406086
0.000157419
5.99318e-07
7.68985e-11
7.74596e-11
6.54979e-07
1.29907e-11
0.0895725
0.842944
1
1
1
0.000101312
0.000100043
9.32434e-05
0.000125429
0.000109675
1.33227e-05
1.30129e-11
4.04534e-11
0.655784
1
1
1
0.000100597
7.7349e-05
0.000401646
0.000415928
0.000358287
2.44177e-05
3.46378e-11
1.30455e-11
0.366565
0.978817
1
1
0.00677042
1.70255e-05
1.87349e-05
1.47192e-06
9.14334e-11
1.05135e-09
1.67074e-09
1.30648e-11
0.104501
0.836309
1
1
0.00147308
0.00148068
0.00102261
1.28919e-05
4.92692e-06
2.83517e-06
5.12561e-11
1.88984e-11
1.4226e-11
0.439807
0.980596
1
0.105793
8.19101e-06
6.52033e-06
3.30834e-07
2.84069e-05
0.000146831
2.77161e-05
3.69576e-11
3.488e-11
0.0426017
0.648065
0.996432
0.850761
0.203098
7.90767e-11
4.76088e-11
5.13836e-11
5.45303e-05
0.00253806
0.00271711
0.000232621
4.12114e-05
0.0496091
0.607999
1
0.797626
0.118543
7.30915e-11
1.5718e-07
5.08079e-11
0.00126897
0.037118
0.0424458
0.0139125
0.00431185
0.0184177
1
0.963323
0.336309
0.00428184
8.10543e-09
5.12725e-11
3.28484e-11
0.0362668
0.061206
0.0645097
0.0139842
0.000955624
0.427712
0.407253
0.324783
0.14433
5.4742e-11
4.16086e-11
3.42392e-11
4.30455e-11
0.0448248
0.0920442
0.0500924
0.0205794
0.0436355
0.0185856
0.0170072
0.0941532
0.0994446
0.100775
0.0220443
1.73725e-10
1.32794e-10
1.57151e-10
1.30022e-10
0.00340919
0.803534
0.239351
0.0509787
0.0366431
0.0717792
0.0964303
0.0818542
0.00620774
2.97189e-06
2.70342e-05
1.16133e-06
8.26278e-11
1
1
0.823134
0.195708
0.00896981
0.000926156
0.000955855
0.00117911
0.00140129
0.00124031
8.30062e-05
8.28882e-11
1
1
1
1
0.754002
0.213649
0.00571979
0.00122611
0.00133115
0.00100383
8.04186e-05
3.59588e-07
1
1
1
1
1
1
0.654776
0.0587995
0.000396779
0.000346737
0.000757061
0.000741699
1
1
1
1
1
1
1
0.661148
0.0434938
1.37042e-10
1.16053e-10
1.12203e-05
1
1
1
1
1
1
1
0.973449
0.345966
1.51536e-10
1.25344e-10
1.25968e-10
1
1
1
1
1
1
1
1
0.722679
0.0491545
1.43099e-10
1.19405e-09
0.970579
0.975528
0.942705
0.93091
0.939831
0.946546
0.905068
0.810436
0.666161
0.171036
1.61075e-10
1.39516e-10
0.242219
0.383915
0.34588
0.310398
0.259032
0.273039
0.221392
0.123846
0.0346319
0.0650971
0.0885235
0.0420541
0.000991505
0.000988832
0.000878624
0.000125326
2.14606e-10
2.00745e-10
0.0069867
0.0496473
0.0343806
0.0413301
0.114255
0.115253
0.0268999
0.0483928
0.0479387
0.0200026
0.0259512
0.05477
0.146263
0.15778
0.108172
0.0152556
0.0453247
0.11465
0.0948466
0.0993385
0.085208
0.0304176
0.00276554
5.65255e-11
2.06342e-10
1.30551e-10
1.40081e-11
6.01838e-13
0.446571
0.479838
0.0452345
0.099316
0.0993385
0.099316
0.0564319
8.23175e-05
4.10138e-10
6.22938e-11
3.29696e-11
9.98373e-16
0.194891
0.896699
0.00425327
0.03083
0.0274009
0.0175536
0.0111159
0.00495524
4.75349e-10
1.47197e-08
7.22861e-09
8.21049e-18
0.156091
0.900513
8.30577e-11
6.02603e-11
3.26014e-11
7.00688e-12
5.37965e-12
5.99184e-12
3.49797e-08
6.13513e-08
3.03452e-08
1.0039e-15
0.132431
0.878612
0.000256647
8.38463e-11
2.93005e-05
0.00029701
1.31287e-05
2.42611e-11
2.47793e-11
2.66031e-12
8.17926e-14
9.00026e-19
0.0810835
0.82661
1.01335e-05
1.66499e-06
1.84439e-07
0.00416994
0.0135394
0.0108418
0.0003934
2.40081e-11
1.40762e-11
9.94523e-16
0.0264703
0.745251
3.11774e-06
6.13185e-06
3.2969e-06
2.81205e-08
0.0151753
0.126982
0.119666
0.0216555
2.78883e-11
1.00345e-18
1.85211e-11
0.622126
2.52578e-07
7.45751e-07
4.43052e-07
6.86467e-08
1.08434e-10
0.121319
0.218219
0.162639
0.0143025
2.38325e-11
1.98691e-11
0.394529
1.29452e-10
1.32251e-10
1.0954e-10
1.36843e-10
1.0822e-10
0.0686989
0.218219
0.218219
0.114351
0.000638144
2.88218e-12
0.121091
0.000904359
1.18761e-10
1.08169e-10
4.35179e-05
1.0917e-10
0.0201818
0.193101
0.218219
0.15299
0.00632772
3.07724e-11
5.07246e-11
0.086075
0.0117113
0.00512172
0.00878496
0.00617124
0.00297397
0.00258339
0.045062
0.0903091
0.0919567
0.0668445
0.00245866
0.115244
0.113297
0.0198451
0.00867915
0.0134861
0.00849874
0.00204559
0.00203735
0.00904459
0.0833845
0.0608604
0.00153199
0.158547
0.0216913
1.80422e-10
0.00383217
0.0226849
0.0279163
0.0120491
6.9261e-11
7.38545e-11
8.64414e-11
1.06991e-10
0.119238
0.171958
0.0411093
1.72177e-10
0.00144573
0.00452956
0.00688577
0.00589879
6.32244e-05
4.99446e-11
6.82439e-11
4.46027e-05
0.011008
0.0107059
0.0156647
0.00132746
2.28251e-10
2.26637e-10
2.2732e-10
2.35305e-10
2.6802e-05
1.13064e-06
7.07966e-11
2.63359e-07
3.03859e-10
1.34733e-10
0.000180723
0.000300421
0.00030624
2.59015e-05
2.31577e-10
3.97248e-06
2.13888e-05
2.11586e-05
1.11039e-05
2.82059e-10
4.08605e-10
0.000544985
0.00123152
0.00123562
0.000676086
2.50335e-10
6.77957e-08
8.99941e-06
1.48439e-05
1.07943e-05
1.47112e-06
2.72171e-07
3.11626e-07
0.000418938
0.000741922
0.000695669
0.000168975
2.50549e-10
2.84431e-07
1.87713e-06
1.86617e-06
1.01e-09
1.01901e-09
1.74664e-08
6.25898e-09
6.48657e-06
7.50107e-06
2.78552e-07
2.78547e-07
2.80128e-07
2.77162e-07
9.59671e-08
2.48589e-09
2.4775e-09
3.03302e-09
3.68614e-09
3.86617e-09
6.19854e-06
4.07027e-06
2.78547e-07
2.7858e-07
7.59033e-07
2.8009e-06
2.46661e-06
2.38494e-07
1.09982e-09
3.32527e-09
1.08925e-08
7.46418e-09
5.85406e-06
3.97058e-06
4.03559e-06
1.76224e-06
7.06486e-07
3.44875e-06
3.68259e-06
3.10936e-06
1.14036e-09
2.80564e-09
7.15759e-08
2.64026e-07
1.26089e-05
3.01965e-09
2.94026e-07
5.67003e-07
7.4227e-07
2.88142e-06
3.68783e-06
1.84778e-06
1.20797e-08
3.33011e-08
9.47761e-07
1.4786e-06
8.09257e-06
2.96869e-09
3.03473e-09
2.48308e-08
3.02836e-07
6.16214e-07
8.67696e-07
4.9596e-07
1.75108e-07
5.72877e-07
1.55731e-06
1.55432e-06
5.26501e-07
5.24452e-07
1.19847e-07
8.38137e-09
1.97404e-07
2.78698e-07
2.46525e-07
2.49441e-07
4.38192e-07
1.20788e-06
1.55433e-06
6.75981e-07
0.500824
0.498286
0.468648
0.00882663
0.158219
0.469359
0.469657
0.270496
0.00139181
0.0336962
0.04324
0.251755
0.0831167
0.275062
0.325857
0.00572626
0.0121911
0.237184
0.469359
0.250693
0.0012481
0.00406979
0.0288513
0.0280699
0.00201142
0.0341719
0.116071
0.00467668
4.91566e-05
0.0258387
0.112517
0.0968569
0.0110145
0.000632271
0.00198345
7.66293e-05
9.07951e-11
9.0731e-11
1.12887e-10
1.12862e-10
4.59448e-07
4.34692e-10
4.35872e-10
4.5776e-10
0.0016304
0.000682128
0.00265918
0.00284904
3.52743e-07
2.54548e-07
6.70443e-10
1.1566e-06
5.05582e-06
5.01405e-06
1.4349e-06
4.70884e-10
2.21398e-05
0.000444375
0.000715696
0.000620706
1.11684e-07
3.85219e-07
5.11619e-07
5.06583e-07
7.70825e-07
2.21086e-06
3.94938e-06
1.03237e-05
1.44665e-05
1.5265e-05
3.43519e-10
3.25748e-10
3.92452e-09
3.32653e-08
1.80579e-07
1.17064e-07
3.42582e-08
6.29316e-08
1.36008e-06
2.97979e-06
3.48066e-06
2.83392e-07
1.75361e-08
3.30205e-10
3.99111e-09
1.69102e-08
4.53163e-08
5.4501e-08
5.60553e-08
2.66578e-08
5.42212e-10
5.27504e-10
5.42155e-10
5.50842e-10
1.5938e-09
4.50756e-10
1.01819e-07
5.41523e-09
6.30631e-09
1.05373e-08
1.61546e-08
1.05662e-08
1.41471e-09
5.11834e-10
6.46218e-10
5.55178e-10
3.85797e-10
2.36717e-10
7.16238e-07
5.37812e-09
5.3325e-09
7.57265e-09
1.03379e-09
7.49267e-10
1.14692e-09
9.16678e-10
7.46541e-10
5.98448e-10
4.06193e-10
2.25274e-10
1.38904e-06
3.08642e-07
2.8048e-09
2.73558e-09
2.04385e-09
7.13128e-10
6.60562e-10
6.86426e-10
5.942e-10
4.49802e-10
3.16991e-10
1.83844e-10
3.00593e-07
1.92981e-06
2.16934e-07
1.59395e-09
1.58924e-09
1.30426e-09
5.98257e-10
4.91369e-10
4.15245e-10
3.16267e-10
2.30256e-10
1.56751e-10
0.523393
0.647748
0.649008
0.597116
0.495785
0.546209
0.56383
0.633643
0.512583
0.179148
0.0967778
0.202746
0.00606879
0.167841
0.16783
0.0295399
0.000233003
0.0309962
0.148617
0.374458
0.602935
0.778169
0.849637
0.856783
9.40025e-05
3.61359e-10
3.4118e-10
3.20721e-10
3.03352e-10
3.03004e-10
3.2016e-10
0.0442367
0.201448
0.302899
0.500979
0.567124
0.00251157
4.52162e-05
3.42074e-10
3.28626e-06
3.91449e-05
5.8187e-05
2.02442e-05
3.19459e-10
3.18896e-10
0.000122422
0.0089814
0.0231989
0.000281873
0.000528106
0.000130154
7.53014e-06
0.00027351
0.000282221
0.000245782
1.43766e-05
2.9637e-10
7.14857e-10
3.12616e-10
3.14413e-10
3.3525e-10
2.44628e-05
6.97893e-06
2.4366e-05
0.000117282
0.000199193
0.000234587
0.000155643
2.96368e-10
2.96367e-10
2.96389e-10
2.96366e-10
1.88867e-09
5.03558e-10
5.26544e-10
9.85281e-08
3.67679e-10
3.68509e-10
1.64352e-05
4.81914e-05
4.41297e-05
2.33248e-05
2.88107e-05
2.83589e-05
8.63438e-10
4.41944e-09
7.25644e-09
7.12866e-09
3.29957e-09
3.56012e-10
3.63145e-10
8.66449e-07
9.32181e-06
1.67573e-05
2.31677e-05
1.86707e-05
1.92065e-10
2.39835e-10
3.17375e-10
3.33015e-10
3.43461e-10
5.14017e-10
5.52739e-10
1.90422e-10
1.74484e-10
3.30881e-07
9.65986e-07
5.21858e-07
1.27979e-10
1.11319e-10
1.01782e-10
9.69907e-11
1.04304e-10
1.35967e-10
1.71484e-10
1.90031e-10
1.5464e-10
8.86538e-11
7.29143e-11
5.7692e-11
9.91032e-11
7.06785e-11
5.4064e-11
4.31424e-11
3.51963e-11
3.43298e-11
4.42256e-11
7.21785e-11
9.11749e-11
7.8463e-11
5.85477e-11
4.25903e-11
1.05271e-10
7.34679e-11
5.39795e-11
3.76643e-11
2.53993e-11
1.67967e-11
1.38533e-11
2.07075e-11
3.50182e-11
4.22348e-11
3.6472e-11
2.47613e-11
0.697127
0.928561
0.938643
1
0.999973
0.983302
0.914409
0.960615
0.999998
1
1
1
0.857354
0.842406
0.872125
0.923844
0.998617
0.99829
0.98058
0.820956
0.778874
0.921373
0.797404
0.75659
0.340627
0.101415
0.160056
0.357263
0.639432
0.787274
0.297341
0.14446
0.147417
0.248716
0.0728792
0.0735371
2.43658e-10
2.19741e-10
2.21673e-10
0.00079684
0.0660105
0.18462
0.149518
0.157532
0.102575
2.24632e-10
2.29881e-10
2.41322e-10
3.76804e-10
1.00181e-09
3.20036e-09
1.8485e-10
1.85038e-10
2.08135e-10
0.262612
0.65814
0.537245
2.07342e-10
2.09124e-10
2.26057e-10
2.96905e-10
2.63364e-08
4.36934e-08
2.18301e-08
1.66708e-10
1.89991e-10
0.124528
0.695538
0.751519
2.16494e-10
2.10011e-10
0.0255945
7.98702e-06
5.07552e-09
4.94707e-09
2.29665e-09
2.46507e-10
1.91327e-10
0.0133002
0.358756
0.930772
0.6691
0.578391
0.71651
5.81896e-06
2.80172e-06
2.67492e-10
2.66599e-10
2.36765e-10
1.7251e-10
1.13178e-10
0.228799
0.962266
1
1
1
4.66757e-08
3.44538e-07
1.93056e-08
1.09613e-10
1.1572e-10
1.16354e-10
9.319e-11
0.127869
0.95157
1
1
1
9.23494e-11
4.92488e-11
1.24967e-10
1.20675e-10
6.42814e-11
6.51969e-11
7.51961e-11
0.0823634
0.900113
1
1
1