/*--------------------------------*- C++ -*----------------------------------*\
| =========                 |                                                 |
| \\      /  F ield         | OpenFOAM: The Open Source CFD Toolbox           |
|  \\    /   O peration     | Version:  v1606+                                |
|   \\  /    A nd           | Web:      www.OpenFOAM.com                      |
|    \\/     M anipulation  |                                                 |
\*---------------------------------------------------------------------------*/
FoamFile
{
    version     2.0;
    format      ascii;
    class       surfaceScalarField;
    location    "1.77";
    object      phi.particles;
}
// * * * * * * * * * * * * * * * * * * * * * * * * * * * * * * * * * * * * * //

dimensions      [0 3 -1 0 0 0 0];

internalField   nonuniform List<scalar> 
11770
(
3.67708e-07
-1.23292e-05
2.83577e-07
-1.48242e-05
-1.02198e-07
-1.51143e-05
-4.38589e-07
-1.46418e-05
-9.58045e-07
-1.39149e-05
-6.39782e-07
-1.38604e-05
6.44553e-07
-1.53375e-05
1.37503e-06
-1.69556e-05
1.00829e-06
-1.77532e-05
-1.18772e-07
-1.73001e-05
-1.24538e-06
-1.71186e-05
-1.06828e-06
-1.60966e-05
3.59179e-07
-1.67273e-05
1.73985e-06
-1.84342e-05
2.50457e-06
-1.9929e-05
2.55189e-06
-1.90113e-05
2.04981e-06
-1.71974e-05
1.29356e-06
-1.56932e-05
9.96278e-07
-1.44587e-05
1.73216e-06
-1.21865e-05
2.79852e-06
-1.05981e-05
3.87899e-06
-9.65691e-06
5.02052e-06
-8.21204e-06
5.80417e-06
-7.18543e-06
5.67462e-06
-6.17634e-06
4.2137e-06
-6.319e-06
2.40585e-06
-8.68909e-06
1.671e-06
-1.1365e-05
1.40642e-06
-1.35218e-05
-1.27294e-05
1.22749e-06
5.73854e-06
-8.92507e-07
9.40567e-06
-1.34702e-06
7.46628e-06
-1.07391e-06
6.55095e-06
-6.37106e-07
4.87695e-06
6.25576e-07
6.93845e-07
2.88391e-06
-3.72477e-06
5.6933e-06
-4.31659e-06
6.82373e-06
-1.22843e-06
4.73494e-06
3.07268e-06
1.64297e-06
6.54735e-06
5.38798e-07
7.09454e-06
1.15015e-06
4.56556e-06
1.64039e-06
4.66404e-06
1.20654e-06
5.44727e-06
-1.06015e-06
7.96014e-06
-3.71892e-06
9.67332e-06
-4.88296e-06
8.08212e-06
-4.10064e-06
5.34155e-06
-2.0287e-06
3.23704e-06
-2.98937e-08
2.44359e-06
1.83691e-06
1.53632e-06
3.74805e-06
1.13063e-06
5.57275e-06
2.21021e-06
5.92104e-06
4.82841e-06
4.035e-06
9.64663e-06
8.90422e-07
1.05769e-05
-1.41031e-06
9.58055e-06
-2.6203e-06
9.21392e-06
4.93482e-06
-2.38682e-06
2.09353e-06
-2.9934e-06
5.28669e-06
-2.4158e-06
3.11019e-06
-9.47039e-07
9.91596e-07
5.3307e-07
-8.05757e-07
2.10654e-06
-4.71759e-06
4.10075e-06
-1.02263e-05
6.75868e-06
-1.28922e-05
8.96562e-06
-1.14943e-05
8.09064e-06
-6.21748e-06
5.55824e-06
4.39103e-07
3.69177e-06
1.98884e-06
2.22918e-06
6.86174e-07
6.5522e-07
1.35005e-06
-1.10273e-06
3.47381e-06
-3.38889e-06
6.47083e-06
-5.84455e-06
7.70143e-06
-6.74058e-06
3.71292e-06
-5.82734e-06
-2.21834e-06
-4.97678e-06
-6.04995e-06
-4.66309e-06
-8.99015e-06
-3.84459e-06
-1.33927e-05
-2.08531e-06
-1.62245e-05
-3.93022e-07
-1.69446e-05
3.76565e-07
-1.50619e-05
-7.44192e-07
-7.87524e-06
-3.17479e-06
-2.47403e-06
-3.13792e-06
-3.27779e-06
-1.04675e-06
-2.45762e-06
-3.72519e-06
-2.54319e-07
-1.66969e-06
9.31527e-07
-4.34473e-07
1.84975e-06
-2.15633e-06
2.13418e-06
-4.91248e-06
2.99631e-06
-6.74591e-06
5.55898e-06
-1.04168e-05
8.45784e-06
-1.50555e-05
1.06365e-05
-1.70046e-05
1.22998e-05
-1.58126e-05
1.27084e-05
-1.02388e-05
1.10203e-05
-2.28845e-06
8.01457e-06
1.94303e-06
4.36969e-06
3.13925e-06
5.47795e-07
4.7082e-06
-2.08742e-06
6.99326e-06
-4.28227e-06
9.06766e-06
-7.49926e-06
9.64271e-06
-1.06741e-05
3.47722e-06
-1.36963e-05
-6.12789e-06
-1.72148e-05
-1.17517e-05
-1.93597e-05
-1.69899e-05
-1.9531e-05
-2.32778e-05
-1.79058e-05
-2.71066e-05
-1.46961e-05
-2.90907e-05
-9.50569e-06
-2.83789e-05
-4.062e-06
-2.47592e-05
-1.5759e-06
-1.96089e-05
-5.10491e-07
-1.77745e-05
-1.11683e-07
-1.57506e-05
-1.51554e-05
1.24515e-06
-1.00266e-05
2.76442e-06
-1.04764e-05
4.21421e-06
-1.29974e-05
5.51519e-06
-1.62653e-05
7.56692e-06
-1.70834e-05
1.10378e-05
-1.86046e-05
1.4122e-05
-2.01082e-05
1.57104e-05
-2.01046e-05
1.61628e-05
-1.82597e-05
1.73832e-05
-1.36579e-05
1.80249e-05
-5.93709e-06
1.53229e-05
-2.28928e-08
9.91011e-06
3.19352e-06
3.69073e-06
6.18927e-06
-1.21689e-06
9.29008e-06
-4.82398e-06
1.09086e-05
-9.23641e-06
9.33625e-06
-1.44453e-05
-1.05497e-06
-2.01669e-05
-1.16642e-05
-2.45339e-05
-1.61947e-05
-2.59522e-05
-2.15051e-05
-2.58524e-05
-2.64564e-05
-2.37318e-05
-2.97914e-05
-1.98191e-05
-3.23188e-05
-1.43725e-05
-3.30122e-05
-6.76517e-06
-3.17515e-05
-3.82855e-07
-2.77936e-05
1.78226e-06
-2.49388e-05
9.65064e-07
-2.48497e-05
-2.47398e-05
9.09251e-07
-1.5305e-05
1.96095e-06
-1.59409e-05
4.15142e-06
-1.76756e-05
6.73768e-06
-1.88152e-05
9.97693e-06
-1.91272e-05
1.37962e-05
-2.06111e-05
1.68719e-05
-2.08642e-05
1.89454e-05
-1.99973e-05
1.97249e-05
-1.74262e-05
2.07234e-05
-1.28264e-05
2.26057e-05
-6.79246e-06
2.12857e-05
-1.06967e-07
1.51805e-05
4.07633e-06
7.68509e-06
7.668e-06
8.09558e-07
1.1479e-05
-5.59524e-06
1.30032e-05
-1.28474e-05
9.48746e-06
-2.03767e-05
-2.00346e-06
-2.66246e-05
-1.00107e-05
-2.96914e-05
-1.3461e-05
-3.00064e-05
-1.76608e-05
-2.93097e-05
-2.17872e-05
-2.66276e-05
-2.57952e-05
-2.20655e-05
-2.92349e-05
-1.69654e-05
-3.14348e-05
-1.13591e-05
-3.13773e-05
-4.8223e-06
-2.80693e-05
-1.08206e-08
-2.2181e-05
1.05915e-06
-2.17989e-05
-2.27303e-05
9.09611e-07
-1.32135e-05
2.92374e-06
-1.35763e-05
5.54947e-06
-1.4235e-05
8.60286e-06
-1.50745e-05
1.16247e-05
-1.65296e-05
1.43105e-05
-1.81431e-05
1.72531e-05
-1.81134e-05
1.94456e-05
-1.69155e-05
2.06818e-05
-1.41003e-05
2.20808e-05
-1.00532e-05
2.48647e-05
-4.7723e-06
2.54793e-05
1.29628e-06
2.02625e-05
6.02273e-06
1.20995e-05
1.00212e-05
3.23619e-06
1.4056e-05
-5.95741e-06
1.54739e-05
-1.39035e-05
1.1346e-05
-1.95863e-05
2.4708e-06
-2.47286e-05
-3.02569e-06
-2.7657e-05
-6.49689e-06
-2.68394e-05
-1.0293e-05
-2.55947e-05
-1.43215e-05
-2.40239e-05
-1.8282e-05
-2.09067e-05
-2.2607e-05
-1.72545e-05
-2.64637e-05
-1.28696e-05
-2.77274e-05
-7.23377e-06
-2.62677e-05
-2.14706e-06
-1.76781e-05
3.23836e-07
-1.26376e-05
-1.38605e-05
2.23323e-06
-6.85495e-06
4.55619e-06
-6.17479e-06
6.17781e-06
-7.13771e-06
8.32556e-06
-9.88693e-06
1.00445e-05
-1.20979e-05
1.11996e-05
-1.2677e-05
1.2843e-05
-1.2633e-05
1.53247e-05
-1.19554e-05
1.77449e-05
-9.57018e-06
2.03338e-05
-6.00832e-06
2.4158e-05
-1.21057e-06
2.62301e-05
4.03837e-06
2.29692e-05
9.10181e-06
1.51856e-05
1.33347e-05
4.8019e-06
1.67815e-05
-6.29044e-06
1.78532e-05
-1.43285e-05
1.44472e-05
-1.78703e-05
8.28519e-06
-2.15579e-05
4.2439e-06
-2.43608e-05
1.10535e-06
-2.3049e-05
-2.89529e-06
-2.10768e-05
-7.08449e-06
-1.94728e-05
-1.06686e-05
-1.76195e-05
-1.53272e-05
-1.53863e-05
-1.98305e-05
-1.23025e-05
-2.17469e-05
-8.88001e-06
-2.17776e-05
-5.39774e-06
-1.37816e-05
-2.18575e-06
-4.42279e-06
-4.49953e-06
3.10645e-06
-1.35416e-06
5.05271e-06
1.79888e-06
5.95267e-06
-1.21444e-06
5.5718e-06
-4.83259e-06
5.2018e-06
-6.7987e-06
6.37278e-06
-7.456e-06
8.54162e-06
-8.24832e-06
1.16489e-05
-8.39018e-06
1.40907e-05
-5.60854e-06
1.70995e-05
-2.40299e-06
2.21024e-05
2.11954e-06
2.60679e-05
7.17533e-06
2.55135e-05
1.19346e-05
1.84806e-05
1.60596e-05
6.36273e-06
1.90011e-05
-6.72923e-06
1.95353e-05
-1.53868e-05
1.79745e-05
-1.82764e-05
1.37997e-05
-1.92381e-05
1.05552e-05
-1.95749e-05
7.7779e-06
-1.80173e-05
4.12333e-06
-1.58157e-05
-2.68398e-07
-1.38145e-05
-4.71045e-06
-1.13067e-05
-1.01916e-05
-9.22123e-06
-1.4914e-05
-7.76634e-06
-1.65972e-05
-7.93617e-06
-1.65722e-05
-8.4778e-06
-1.0164e-05
-5.26087e-06
1.11427e-06
2.06833e-06
3.51127e-06
-5.29066e-06
4.89985e-06
-5.5456e-07
4.36405e-06
-1.45571e-06
2.60817e-06
-2.52133e-06
1.17014e-06
-3.85067e-06
1.23928e-06
-4.86853e-06
3.12348e-06
-6.06972e-06
6.44945e-06
-6.69209e-06
1.01088e-05
-3.74983e-06
1.35406e-05
4.07775e-07
1.84661e-05
5.0237e-06
2.378e-05
9.53846e-06
2.49445e-05
1.30996e-05
2.00597e-05
1.72267e-05
8.19283e-06
2.0414e-05
-6.08663e-06
2.1099e-05
-1.49485e-05
2.14128e-05
-1.75048e-05
1.82958e-05
-1.67842e-05
1.54767e-05
-1.47177e-05
1.29391e-05
-1.17791e-05
1.03998e-05
-9.2552e-06
5.9159e-06
-7.84581e-06
4.11904e-07
-6.2983e-06
-7.32366e-06
-4.98106e-06
-1.2585e-05
-4.62746e-06
-1.40598e-05
-5.82866e-06
-1.34773e-05
-8.72172e-06
-8.44772e-06
-6.97979e-06
1.69042e-06
2.62177e-06
2.72118e-06
-2.09073e-05
2.34645e-06
-1.75938e-05
4.14458e-07
-1.23805e-05
-8.08717e-07
-6.31683e-06
-1.45096e-06
-4.65019e-06
-1.45439e-06
-4.92458e-06
-4.22073e-07
-5.91595e-06
2.13705e-06
-6.98642e-06
6.33432e-06
-4.98256e-06
9.5472e-06
9.79852e-07
1.45286e-05
6.02487e-06
2.11436e-05
9.27608e-06
2.3516e-05
1.2618e-05
2.00449e-05
1.6649e-05
1.02254e-05
2.15668e-05
-2.06764e-06
2.44224e-05
-1.09133e-05
2.5195e-05
-1.41684e-05
2.18684e-05
-1.19151e-05
1.86577e-05
-6.94697e-06
1.58378e-05
-3.59104e-06
1.43715e-05
-2.56693e-06
9.98355e-06
-2.27999e-06
2.99823e-06
-1.43448e-06
-6.53868e-06
-5.47173e-07
-1.22422e-05
-1.16477e-06
-1.40874e-05
-3.64339e-06
-1.44051e-05
-7.84374e-06
-1.40553e-05
-6.35649e-06
-7.87101e-06
-6.04946e-06
1.4768e-06
-3.45674e-05
1.71198e-06
-3.35331e-05
-3.00319e-07
-3.00537e-05
-1.99851e-06
-2.34116e-05
-2.96432e-06
-1.45351e-05
-2.89161e-06
-8.48077e-06
-1.80154e-06
-7.37082e-06
1.51267e-07
-8.97828e-06
3.43331e-06
-7.91318e-06
7.38016e-06
-2.44282e-06
1.28827e-05
3.0092e-06
1.97522e-05
6.98607e-06
2.31449e-05
1.09674e-05
1.97893e-05
1.50017e-05
1.21151e-05
2.26436e-05
3.0268e-06
2.92411e-05
-4.57419e-06
2.98804e-05
-7.39969e-06
2.56143e-05
-6.85023e-06
1.9994e-05
-4.50934e-06
1.67694e-05
-2.34804e-07
1.4891e-05
1.92354e-06
1.17874e-05
2.18248e-06
3.58668e-06
2.99771e-06
-8.14046e-06
3.33275e-06
-1.41853e-05
2.58841e-06
-1.63838e-05
-1.19897e-06
-2.20297e-05
-6.09803e-06
-2.44256e-05
-3.40178e-06
-2.05624e-05
-1.83059e-05
8.25549e-07
-3.81282e-05
2.70086e-06
-3.73881e-05
4.2621e-06
-3.85425e-05
3.66673e-06
-3.81265e-05
5.67973e-07
-3.11579e-05
-1.18294e-06
-2.32367e-05
-9.59097e-07
-1.38615e-05
2.57206e-07
-1.33874e-05
3.62076e-06
-1.3153e-05
9.28914e-06
-7.29975e-06
1.43157e-05
-2.07027e-06
2.00128e-05
3.81163e-06
2.44261e-05
8.32907e-06
2.17456e-05
1.40515e-05
1.42921e-05
2.42396e-05
6.55561e-06
3.46474e-05
8.7742e-07
3.53833e-05
-4.93909e-06
2.91117e-05
-9.5392e-06
2.02762e-05
-9.35574e-06
1.69887e-05
-4.23328e-06
1.42185e-05
5.24377e-07
1.14947e-05
3.86561e-06
3.49764e-06
5.36068e-06
-1.10999e-05
4.43161e-06
-2.00525e-05
8.05758e-07
-2.42621e-05
-4.40591e-06
-2.91345e-05
-5.3048e-06
-2.81798e-05
-1.16005e-06
-2.555e-05
-2.49706e-05
7.88174e-07
-3.63192e-05
3.04435e-06
-3.52138e-05
5.37963e-06
-3.68884e-05
8.16702e-06
-3.76862e-05
1.03e-05
-3.72158e-05
8.35819e-06
-3.48749e-05
4.97221e-06
-2.67574e-05
5.03073e-06
-2.20911e-05
7.68642e-06
-1.97941e-05
1.24575e-05
-1.13697e-05
1.68598e-05
-5.84678e-06
2.09152e-05
2.49339e-07
2.57051e-05
6.25491e-06
2.49625e-05
1.39079e-05
1.70396e-05
2.57514e-05
9.33424e-06
4.02708e-05
2.4066e-06
4.22243e-05
-7.98708e-06
3.33924e-05
-1.37586e-05
2.1851e-05
-1.27932e-05
1.74184e-05
-1.11122e-05
1.41011e-05
-6.75548e-06
1.04213e-05
-1.96249e-06
3.53403e-06
-1.23069e-06
-1.35461e-05
-4.69774e-06
-2.73181e-05
-8.43248e-06
-2.97701e-05
-8.19971e-06
-2.80643e-05
-5.37894e-06
-2.65451e-05
-6.4818e-07
-2.51805e-05
-2.47787e-05
7.34077e-07
-3.29697e-05
2.93501e-06
-3.14053e-05
4.96161e-06
-3.34263e-05
8.04667e-06
-3.42534e-05
1.15049e-05
-3.41138e-05
1.44221e-05
-3.33065e-05
1.61646e-05
-3.19518e-05
1.44043e-05
-2.80188e-05
1.28256e-05
-2.26738e-05
1.57486e-05
-1.32447e-05
2.01418e-05
-7.60385e-06
2.32323e-05
-2.06218e-06
2.76625e-05
5.2287e-06
2.93966e-05
1.37232e-05
2.20203e-05
2.67672e-05
1.28003e-05
4.58986e-05
4.66397e-06
5.11168e-05
-7.25846e-06
4.15989e-05
-1.38359e-05
2.6177e-05
-1.36754e-05
1.83762e-05
-1.36052e-05
1.42785e-05
-1.13854e-05
9.8826e-06
-7.9946e-06
4.23818e-06
-9.47856e-06
-9.8865e-06
-1.25718e-05
-2.60674e-05
-1.12902e-05
-2.72324e-05
-8.04507e-06
-2.45922e-05
-5.22573e-06
-2.38532e-05
-6.61359e-07
-2.20829e-05
-2.12745e-05
1.39443e-07
-2.87114e-05
2.07274e-06
-2.70525e-05
4.43794e-06
-2.99099e-05
7.71981e-06
-3.11132e-05
1.11467e-05
-3.09093e-05
1.45083e-05
-2.99443e-05
1.85422e-05
-2.82259e-05
1.92214e-05
-2.59895e-05
1.71364e-05
-2.04429e-05
1.88382e-05
-1.23328e-05
2.27586e-05
-7.51981e-06
2.58116e-05
-2.55858e-06
2.95024e-05
4.52924e-06
3.20079e-05
1.37752e-05
2.58009e-05
2.79102e-05
1.55459e-05
5.27997e-05
9.45303e-06
6.25341e-05
-2.13576e-06
5.25974e-05
-1.26626e-05
3.28961e-05
-1.43433e-05
2.11688e-05
-1.46775e-05
1.48784e-05
-1.3889e-05
9.74296e-06
-1.06178e-05
4.27378e-06
-9.33436e-06
-3.68545e-06
-1.27684e-05
-1.69381e-05
-1.21808e-05
-2.36208e-05
-8.18525e-06
-2.10777e-05
-5.01027e-06
-2.03863e-05
8.20489e-09
-1.85743e-05
-1.67714e-05
4.67386e-07
-2.49697e-05
3.13608e-06
-2.36543e-05
5.3593e-06
-2.67553e-05
8.34899e-06
-2.81185e-05
1.1484e-05
-2.79064e-05
1.45458e-05
-2.67331e-05
1.85259e-05
-2.50921e-05
1.9707e-05
-2.27512e-05
1.89357e-05
-1.72871e-05
2.1123e-05
-1.02151e-05
2.43636e-05
-6.43262e-06
2.71854e-05
-1.95258e-06
3.05109e-05
4.52271e-06
3.21661e-05
1.41989e-05
2.61309e-05
2.86266e-05
1.63741e-05
6.21226e-05
9.83703e-06
7.59547e-05
-1.03352e-06
6.61755e-05
-1.24247e-05
4.1447e-05
-1.5608e-05
2.59395e-05
-1.54116e-05
1.65984e-05
-1.47415e-05
9.87984e-06
-1.29851e-05
3.93509e-06
-9.26562e-06
-1.78037e-06
-1.09974e-05
-8.55955e-06
-1.24265e-05
-1.82422e-05
-7.94779e-06
-1.81115e-05
-4.31731e-06
-1.69624e-05
8.92814e-07
-1.53591e-05
-1.13679e-05
3.90751e-07
-2.15152e-05
3.41163e-06
-2.05898e-05
5.69792e-06
-2.37766e-05
8.43741e-06
-2.54374e-05
1.13984e-05
-2.55612e-05
1.4605e-05
-2.47215e-05
1.87083e-05
-2.30619e-05
2.05069e-05
-2.10365e-05
2.02498e-05
-1.54279e-05
2.17907e-05
-8.49703e-06
2.39496e-05
-5.25105e-06
2.61835e-05
-1.16004e-06
2.89279e-05
4.94113e-06
3.00429e-05
1.4555e-05
2.35591e-05
2.95263e-05
1.62035e-05
7.28286e-05
1.27926e-05
8.66683e-05
2.02375e-06
7.97396e-05
-1.04986e-05
5.3219e-05
-1.43244e-05
3.01604e-05
-1.39999e-05
1.84884e-05
-1.31644e-05
1.02678e-05
-1.21773e-05
4.06678e-06
-1.01692e-05
-1.2028e-06
-1.00875e-05
-4.81835e-06
-1.09214e-05
-1.11912e-05
-7.50282e-06
-1.57853e-05
-2.8391e-06
-1.43299e-05
1.82898e-06
-1.19678e-05
-6.57376e-06
5.15719e-07
-1.79674e-05
4.07287e-06
-1.79979e-05
6.35295e-06
-2.14016e-05
8.89264e-06
-2.35554e-05
1.15977e-05
-2.39958e-05
1.46226e-05
-2.33614e-05
1.83346e-05
-2.19009e-05
2.09224e-05
-2.00142e-05
2.08518e-05
-1.5559e-05
2.09515e-05
-7.73417e-06
2.21374e-05
-4.56148e-06
2.30898e-05
-9.14952e-07
2.40961e-05
4.70713e-06
2.4544e-05
1.43881e-05
1.87707e-05
3.10012e-05
1.61288e-05
7.84865e-05
1.87498e-05
9.02264e-05
1.14192e-05
8.57573e-05
-1.28512e-06
6.56147e-05
-7.38548e-06
3.4814e-05
-8.91557e-06
1.99204e-05
-9.73841e-06
1.0362e-05
-9.98892e-06
3.66128e-06
-9.10944e-06
-1.29103e-06
-7.17633e-06
-4.8959e-06
-7.52627e-06
-6.37566e-06
-6.27624e-06
-1.44491e-05
-1.367e-06
-1.29562e-05
9.73641e-07
-9.82261e-06
-3.95555e-06
2.78984e-07
-1.41693e-05
4.50268e-06
-1.58136e-05
6.85424e-06
-1.92276e-05
9.12324e-06
-2.18329e-05
1.15186e-05
-2.27051e-05
1.4282e-05
-2.24479e-05
1.74197e-05
-2.12885e-05
2.08973e-05
-1.93994e-05
2.13471e-05
-1.65436e-05
2.01531e-05
-9.42422e-06
2.05679e-05
-4.61158e-06
2.02329e-05
-1.82874e-06
1.88905e-05
2.11509e-06
1.76901e-05
9.09501e-06
1.47202e-05
2.39449e-05
1.66744e-05
7.01785e-05
2.19361e-05
8.3791e-05
2.36105e-05
8.08297e-05
1.67874e-05
6.78296e-05
4.45708e-06
3.97461e-05
-3.08026e-06
1.98553e-05
-6.54541e-06
8.53032e-06
-8.41835e-06
1.74816e-06
-8.83995e-06
-2.84399e-06
-7.85341e-06
-5.99465e-06
-7.4561e-06
-6.59811e-06
-4.84465e-06
-1.45364e-05
-7.85298e-07
-1.29967e-05
5.26605e-07
-9.10932e-06
-3.34359e-06
-6.5582e-07
-9.71138e-06
4.42454e-06
-1.36238e-05
7.04134e-06
-1.72304e-05
9.13773e-06
-2.03679e-05
1.11847e-05
-2.16856e-05
1.34872e-05
-2.18668e-05
1.60982e-05
-2.10427e-05
1.88947e-05
-1.93097e-05
2.10454e-05
-1.68589e-05
2.07907e-05
-1.24897e-05
2.00232e-05
-6.80038e-06
1.94983e-05
-3.89688e-06
1.72767e-05
-3.38904e-06
1.45741e-05
-5.72591e-06
1.48721e-05
6.82765e-06
1.89712e-05
4.57237e-05
2.42372e-05
6.14327e-05
2.69259e-05
5.98121e-05
2.54634e-05
5.16175e-05
1.41019e-05
3.41434e-05
1.00319e-07
1.06751e-05
-6.03689e-06
-1.56875e-07
-8.13931e-06
-1.81835e-06
-9.30971e-06
-5.97388e-06
-9.21964e-06
-8.17057e-06
-7.90282e-06
-9.74945e-06
-4.2204e-06
-1.59846e-05
-1.30907e-06
-1.39361e-05
-2.04643e-07
-9.54711e-06
-3.70387e-06
-2.20666e-06
-5.99614e-06
3.41968e-06
-1.21513e-05
6.64568e-06
-1.59669e-05
8.83119e-06
-1.9405e-05
1.06201e-05
-2.12154e-05
1.25821e-05
-2.18575e-05
1.46978e-05
-2.11801e-05
1.68155e-05
-1.93181e-05
1.88728e-05
-1.66047e-05
1.99703e-05
-1.32772e-05
2.01097e-05
-9.21976e-06
1.87143e-05
-7.60927e-06
1.14606e-05
-1.09265e-05
6.2017e-06
-1.47307e-05
1.17746e-05
-4.05636e-06
2.05017e-05
2.06701e-05
2.48554e-05
3.34873e-05
2.58498e-05
3.2338e-05
2.31339e-05
2.79266e-05
1.14948e-05
2.02152e-05
-4.29665e-06
5.543e-06
-1.09332e-05
-9.27952e-06
-9.48847e-06
-8.4879e-06
-1.00754e-05
-9.70458e-06
-1.01802e-05
-1.1297e-05
-8.66025e-06
-1.38746e-05
-5.11093e-06
-1.82177e-05
-2.52488e-06
-1.53781e-05
-1.05367e-06
-1.07512e-05
-4.38768e-06
-1.06982e-06
-4.2464e-06
1.34259e-06
-1.15659e-05
5.37417e-06
-1.58258e-05
8.1832e-06
-1.94707e-05
9.95251e-06
-2.1639e-05
1.16946e-05
-2.22063e-05
1.33155e-05
-2.11903e-05
1.46934e-05
-1.9006e-05
1.58613e-05
-1.60396e-05
1.66398e-05
-1.22757e-05
1.65417e-05
-8.37621e-06
1.24838e-05
-7.53742e-06
4.26471e-06
-1.18368e-05
-3.54993e-07
-1.16382e-05
5.97145e-06
-1.52287e-06
1.63362e-05
9.39673e-06
2.06402e-05
1.71195e-05
2.03338e-05
1.72331e-05
1.76028e-05
1.64003e-05
1.08189e-05
1.696e-05
2.67866e-07
1.2667e-05
-9.44904e-06
-1.517e-06
-1.30387e-05
-1.55185e-05
-1.09745e-05
-1.23626e-05
-1.05836e-05
-1.42202e-05
-9.13023e-06
-1.78555e-05
-6.07588e-06
-2.02752e-05
-3.68373e-06
-1.72357e-05
-1.69935e-06
-1.26993e-05
-5.59579e-06
-3.79282e-07
-4.27824e-06
5.19209e-07
-1.14988e-05
3.65868e-06
-1.64609e-05
7.04877e-06
-2.0185e-05
9.01318e-06
-2.24902e-05
1.03543e-05
-2.23747e-05
1.12555e-05
-2.08269e-05
1.17947e-05
-1.83919e-05
1.21243e-05
-1.52499e-05
1.22768e-05
-1.11764e-05
1.14896e-05
-6.15036e-06
7.75202e-06
-2.55168e-06
-8.27722e-07
-5.19149e-06
-8.97969e-06
-3.34647e-06
-2.6418e-06
7.31081e-06
9.93434e-06
1.36355e-05
1.40676e-05
1.81914e-05
1.44024e-05
2.10424e-05
1.18835e-05
2.41513e-05
4.91271e-06
2.59835e-05
3.99898e-06
1.82888e-05
4.36203e-07
2.96948e-06
-9.04984e-06
-2.38024e-05
-1.04276e-05
-1.47368e-05
-1.02432e-05
-1.74537e-05
-9.32368e-06
-2.13944e-05
-6.89477e-06
-2.19996e-05
-4.54632e-06
-1.91517e-05
-2.01242e-06
-1.4771e-05
-6.84946e-06
1.14762e-06
-5.7484e-06
1.81655e-06
-1.24487e-05
3.48869e-06
-1.72472e-05
6.0673e-06
-2.09287e-05
8.12419e-06
-2.30192e-05
9.0727e-06
-2.23793e-05
9.32833e-06
-2.04548e-05
8.92378e-06
-1.77394e-05
7.96343e-06
-1.45053e-05
7.14084e-06
-1.02856e-05
6.47301e-06
-4.23099e-06
3.55397e-06
1.90005e-06
-6.1026e-06
3.93714e-06
-1.66376e-05
7.49537e-06
-9.86915e-06
2.25702e-05
3.2505e-06
3.28864e-05
6.23291e-06
3.4462e-05
4.97079e-06
3.67446e-05
1.12025e-06
3.74908e-05
-1.3447e-06
3.26964e-05
7.15062e-06
9.26309e-06
1.27606e-05
-1.23158e-05
1.66362e-06
-3.2376e-05
-8.59347e-06
-2.87458e-05
-1.06217e-05
-2.76478e-05
-9.72085e-06
-2.43797e-05
-7.81403e-06
-2.33873e-05
-5.98768e-06
-2.09689e-05
-3.7275e-06
-1.68343e-05
-9.73995e-06
2.90012e-06
-8.72322e-06
3.51755e-06
-1.37177e-05
4.5357e-06
-1.79843e-05
6.1817e-06
-2.15193e-05
7.77656e-06
-2.3328e-05
8.56307e-06
-2.26559e-05
8.36307e-06
-2.06375e-05
6.82877e-06
-1.74784e-05
3.75875e-06
-1.38994e-05
5.16165e-07
-9.64735e-06
-1.2431e-06
-2.27967e-06
-2.44809e-06
5.11919e-06
-1.10593e-05
1.10896e-05
-2.53196e-05
1.63726e-05
-2.30876e-05
3.92713e-05
-1.15069e-05
4.77926e-05
-7.50196e-06
4.67865e-05
-5.54373e-06
4.66675e-05
-2.84566e-06
4.21025e-05
3.84774e-06
3.17618e-05
9.6696e-06
-6.68448e-06
7.61119e-06
-2.5426e-05
3.63481e-06
-3.40309e-05
-2.08043e-06
-3.81502e-05
-9.39977e-06
-3.78945e-05
-1.0556e-05
-2.736e-05
-8.62352e-06
-2.44428e-05
-7.7432e-06
-2.32158e-05
-6.86229e-06
-2.0846e-05
-2.18086e-05
3.75928e-06
-1.22556e-05
4.88101e-06
-1.48426e-05
5.58896e-06
-1.88308e-05
6.66702e-06
-2.19855e-05
7.8506e-06
-2.38121e-05
8.62166e-06
-2.35664e-05
8.25335e-06
-2.20272e-05
6.28396e-06
-1.84901e-05
5.09412e-07
-1.52307e-05
-7.80062e-06
-1.5938e-05
-1.26606e-05
-9.04823e-07
-1.64544e-05
4.8518e-06
-2.98509e-05
1.79402e-06
-3.83929e-05
1.66398e-05
-2.95888e-05
3.96682e-05
-1.94e-05
4.43679e-05
-1.34307e-05
4.54746e-05
-7.55979e-06
4.52327e-05
-7.36758e-07
3.65934e-05
5.05607e-06
2.00906e-05
5.50539e-06
-1.4712e-05
2.35474e-06
-2.65509e-05
2.40437e-06
-3.17015e-05
3.78249e-06
-3.62114e-05
-2.56725e-06
-3.94507e-05
-9.04846e-06
-3.44741e-05
-7.98992e-06
-2.68231e-05
-7.12277e-06
-2.68205e-05
-4.44652e-06
-3.02531e-05
-3.29825e-05
4.55396e-06
-1.77222e-05
5.73836e-06
-2.03914e-05
6.39415e-06
-2.01592e-05
7.10878e-06
-2.26532e-05
8.07623e-06
-2.47645e-05
8.98276e-06
-2.54336e-05
9.86841e-06
-2.48212e-05
7.75588e-06
-2.67896e-05
3.59223e-07
-2.92462e-05
-1.3577e-05
-2.63801e-05
-2.54567e-05
-1.1961e-05
-3.42774e-05
-1.05954e-05
-4.16093e-05
-1.63903e-05
-4.04826e-05
-1.69314e-09
-3.15451e-05
1.71917e-05
-2.16068e-05
2.43862e-05
-1.43058e-05
3.01321e-05
-6.67414e-06
3.07911e-05
6.90627e-07
1.95622e-05
2.97894e-06
2.33268e-06
9.81492e-07
-1.70245e-05
6.38834e-07
-2.45049e-05
3.37845e-06
-2.9721e-05
6.2882e-06
-3.47699e-05
6.09705e-06
-3.73978e-05
-3.94462e-07
-3.84857e-05
-4.04212e-06
-3.32567e-05
-1.12761e-06
-3.33765e-05
1.45344e-07
-3.62351e-05
-3.41167e-05
5.26212e-07
-2.13706e-05
3.51837e-06
-2.68072e-05
6.25504e-06
-2.4858e-05
7.17188e-06
-2.44579e-05
7.94151e-06
-2.64486e-05
9.43037e-06
-2.79941e-05
1.28713e-05
-2.87607e-05
1.05157e-05
-3.5151e-05
5.31128e-06
-3.84708e-05
-3.65543e-06
-2.55489e-05
-1.84966e-05
-2.00224e-05
-2.81106e-05
-2.24479e-05
-3.18292e-05
-2.30455e-05
-3.2014e-05
-1.75748e-05
-2.73742e-05
-7.71317e-06
-2.07897e-05
1.17271e-06
-1.43979e-05
8.42754e-06
-7.35673e-06
9.32747e-06
-1.72213e-06
9.849e-07
-6.16277e-07
-9.16187e-06
-6.94053e-07
-1.78645e-05
1.83766e-06
-2.24416e-05
5.27239e-06
-2.80749e-05
7.85155e-06
-3.28443e-05
8.33345e-06
-3.51255e-05
6.30506e-06
-3.59382e-05
3.56353e-06
-3.61798e-05
1.69309e-06
-3.57681e-05
5.40698e-07
-3.50262e-05
-3.32151e-05
-2.70159e-06
-1.88184e-05
-7.12994e-07
-2.68542e-05
2.42631e-06
-3.08393e-05
6.148e-06
-3.13376e-05
7.1944e-06
-2.91821e-05
9.03615e-06
-3.08282e-05
1.16368e-05
-3.2309e-05
7.02029e-06
-3.80981e-05
3.10785e-06
-3.67856e-05
-5.62995e-07
-1.83537e-05
-1.15358e-05
-1.35659e-05
-2.01547e-05
-1.80452e-05
-2.30138e-05
-2.20437e-05
-2.35994e-05
-2.20459e-05
-2.19051e-05
-1.82624e-05
-1.78175e-05
-1.14234e-05
-1.31443e-05
-5.98671e-06
-8.93846e-06
-5.15639e-06
-5.33584e-06
-8.92417e-06
-2.56211e-06
-1.32757e-05
1.06918e-06
-1.67892e-05
4.76448e-06
-2.02743e-05
7.38617e-06
-2.61049e-05
9.31564e-06
-3.07395e-05
9.48685e-06
-3.27254e-05
7.69659e-06
-3.33044e-05
4.82149e-06
-3.34476e-05
2.38414e-06
-3.3435e-05
8.61836e-07
-3.32243e-05
-3.1838e-05
-3.29799e-06
-1.2841e-05
-1.23848e-06
-2.22221e-05
-2.84254e-06
-3.00691e-05
7.30077e-07
-3.55197e-05
4.68795e-06
-3.54149e-05
7.07553e-06
-3.32991e-05
7.80067e-06
-3.61389e-05
3.11488e-06
-4.22284e-05
1.90648e-06
-3.34913e-05
-1.02681e-06
-1.26912e-05
-1.02025e-05
-6.28968e-06
-1.76649e-05
-1.12123e-05
-2.06759e-05
-1.90811e-05
-2.19201e-05
-2.12594e-05
-2.1714e-05
-1.9768e-05
-1.85976e-05
-1.51477e-05
-1.38254e-05
-1.15929e-05
-9.21945e-06
-1.1021e-05
-4.92965e-06
-1.18547e-05
-3.54242e-07
-1.30233e-05
4.19912e-06
-1.42984e-05
7.73806e-06
-1.74648e-05
9.86796e-06
-2.35223e-05
1.08002e-05
-2.8122e-05
1.04659e-05
-2.99944e-05
8.5378e-06
-3.03727e-05
5.62301e-06
-3.06005e-05
3.03033e-06
-3.08732e-05
1.20613e-06
-3.10915e-05
-3.01273e-05
-3.86199e-06
-7.41189e-06
-7.35352e-07
-1.61336e-05
-1.86092e-06
-2.47167e-05
-2.36405e-06
-3.29188e-05
-3.1136e-07
-3.80326e-05
2.14234e-06
-3.63741e-05
-1.03227e-06
-4.12194e-05
-2.34201e-06
-4.36714e-05
4.63593e-07
-3.03746e-05
-4.65818e-07
-5.8513e-06
-8.04847e-06
1.25721e-06
-1.63969e-05
-4.51937e-06
-2.07094e-05
-1.49513e-05
-2.3265e-05
-1.6994e-05
-2.3451e-05
-1.58219e-05
-1.96674e-05
-1.32059e-05
-1.42464e-05
-1.21406e-05
-9.22716e-06
-1.24366e-05
-4.14716e-06
-1.24351e-05
1.61884e-06
-1.27119e-05
7.33691e-06
-1.25566e-05
1.12415e-05
-1.47192e-05
1.26768e-05
-1.99997e-05
1.23206e-05
-2.48048e-05
1.11726e-05
-2.69009e-05
8.97921e-06
-2.719e-05
6.19053e-06
-2.74356e-05
3.57751e-06
-2.80123e-05
1.51604e-06
-2.86933e-05
-2.81584e-05
-1.78639e-06
-4.67501e-06
-9.04568e-07
-1.17291e-05
-6.64369e-07
-1.97074e-05
-8.94491e-07
-2.86492e-05
-1.10757e-06
-3.57085e-05
-1.98621e-06
-3.88165e-05
-3.29619e-06
-4.26747e-05
-2.65635e-06
-4.14762e-05
-3.90096e-07
-2.84354e-05
-1.74896e-06
2.53563e-06
-9.46799e-06
9.11337e-06
-1.75168e-05
2.65158e-07
-2.34136e-05
-1.06606e-05
-2.67864e-05
-1.18634e-05
-2.59472e-05
-1.12988e-05
-2.1736e-05
-1.11279e-05
-1.6041e-05
-1.2284e-05
-1.01941e-05
-1.306e-05
-4.37989e-06
-1.35877e-05
1.80597e-06
-1.38731e-05
8.61704e-06
-1.26353e-05
1.39153e-05
-1.35018e-05
1.5097e-05
-1.69344e-05
1.32964e-05
-2.08932e-05
1.12248e-05
-2.34098e-05
9.02889e-06
-2.38766e-05
6.51465e-06
-2.41733e-05
4.03807e-06
-2.4952e-05
1.85057e-06
-2.606e-05
-2.5916e-05
-1.03742e-06
-3.84391e-06
-1.02725e-06
-1.03626e-05
-5.10457e-08
-1.64544e-05
1.40635e-07
-2.38723e-05
-7.2317e-07
-3.28686e-05
-1.55351e-06
-3.81927e-05
-2.21778e-06
-4.07473e-05
-2.07147e-06
-3.98466e-05
-1.32596e-06
-2.65938e-05
-3.65525e-06
9.19372e-06
-1.20856e-05
1.64476e-05
-2.14386e-05
3.74973e-06
-2.68e-05
-6.16236e-06
-2.85852e-05
-7.68695e-06
-2.70053e-05
-8.13557e-06
-2.22629e-05
-9.65286e-06
-1.64045e-05
-1.14693e-05
-1.06646e-05
-1.25753e-05
-4.65729e-06
-1.33996e-05
1.76966e-06
-1.36158e-05
9.23896e-06
-1.26028e-05
1.4924e-05
-1.18232e-05
1.6143e-05
-1.37081e-05
1.36398e-05
-1.63493e-05
1.06065e-05
-1.97197e-05
8.57302e-06
-2.06967e-05
6.49629e-06
-2.12692e-05
4.41334e-06
-2.20394e-05
2.2572e-06
-2.3264e-05
-2.32789e-05
-3.43031e-07
-4.00715e-06
-3.13999e-07
-1.05129e-05
3.39792e-07
-1.59992e-05
1.12985e-06
-2.12818e-05
7.69036e-07
-2.91988e-05
-3.1879e-07
-3.57273e-05
-1.06469e-06
-3.85303e-05
-1.55843e-06
-3.77108e-05
-2.46435e-06
-2.30883e-05
-5.26048e-06
1.44042e-05
-1.42288e-05
2.34441e-05
-2.41118e-05
8.96655e-06
-2.80906e-05
-9.381e-08
-2.88975e-05
-2.41911e-06
-2.67506e-05
-3.74583e-06
-2.16784e-05
-6.74688e-06
-1.61622e-05
-8.7592e-06
-1.0812e-05
-1.0562e-05
-5.00692e-06
-1.17263e-05
1.00393e-06
-1.20918e-05
8.37826e-06
-1.17119e-05
1.49697e-05
-9.25049e-06
1.64191e-05
-9.57525e-06
1.30666e-05
-1.14408e-05
9.53227e-06
-1.62449e-05
7.77362e-06
-1.80074e-05
6.36352e-06
-1.89569e-05
4.8257e-06
-1.97198e-05
2.86742e-06
-2.06253e-05
-2.00339e-05
7.98667e-07
-4.72236e-06
7.88267e-07
-1.16698e-05
1.17889e-06
-1.64183e-05
1.64323e-06
-2.07984e-05
1.57824e-06
-2.65679e-05
7.60328e-07
-3.29365e-05
-3.56481e-09
-3.57414e-05
-1.38046e-06
-3.4591e-05
-3.09743e-06
-1.6241e-05
-5.66052e-06
1.99009e-05
-1.44405e-05
2.95875e-05
-2.36721e-05
1.52703e-05
-2.71104e-05
5.97729e-06
-2.79622e-05
2.91388e-06
-2.58761e-05
1.03223e-06
-2.1509e-05
-1.91439e-06
-1.68687e-05
-4.73132e-06
-1.22462e-05
-7.57212e-06
-7.06969e-06
-9.38259e-06
-1.54328e-06
-1.01623e-05
5.4373e-06
-1.00699e-05
1.29606e-05
-7.89116e-06
1.56904e-05
-6.12359e-06
1.26045e-05
-7.46706e-06
8.8769e-06
-1.27838e-05
7.09813e-06
-1.58505e-05
5.98015e-06
-1.71358e-05
4.81306e-06
-1.79739e-05
3.35575e-06
-1.84433e-05
-1.63384e-05
1.83662e-06
-7.4291e-06
1.90145e-06
-1.33049e-05
2.25703e-06
-1.70986e-05
2.4562e-06
-2.09035e-05
2.20215e-06
-2.54207e-05
1.73044e-06
-3.05804e-05
1.03048e-06
-3.28811e-05
-2.04524e-06
-3.09917e-05
-4.70296e-06
-6.25784e-06
-6.10546e-06
2.60994e-05
-1.38351e-05
3.51904e-05
-2.23522e-05
2.23199e-05
-2.52371e-05
1.22907e-05
-2.5619e-05
8.81847e-06
-2.39983e-05
6.83124e-06
-2.13202e-05
3.56666e-06
-1.84864e-05
6.41496e-08
-1.49176e-05
-3.23813e-06
-1.04144e-05
-5.97685e-06
-5.49803e-06
-7.41048e-06
4.29619e-07
-8.06119e-06
7.95185e-06
-7.5159e-06
1.31514e-05
-5.55898e-06
1.22491e-05
-6.00455e-06
8.64831e-06
-9.59972e-06
6.27734e-06
-1.39576e-05
5.06568e-06
-1.57427e-05
4.00421e-06
-1.66226e-05
2.84102e-06
-1.6732e-05
-1.31192e-05
1.91379e-06
-9.99432e-06
2.63934e-06
-1.44978e-05
3.11081e-06
-1.78828e-05
3.37258e-06
-2.11128e-05
3.0341e-06
-2.49392e-05
2.74024e-06
-2.9192e-05
2.17945e-06
-3.07827e-05
-3.70215e-06
-2.84081e-05
-6.77363e-06
1.22705e-06
-4.91732e-06
3.30145e-05
-1.05297e-05
4.11272e-05
-1.81535e-05
3.11551e-05
-2.20836e-05
1.9275e-05
-2.37758e-05
1.53431e-05
-2.26928e-05
1.34697e-05
-2.02604e-05
9.94469e-06
-1.77773e-05
5.45307e-06
-1.49511e-05
9.8953e-07
-1.16773e-05
-2.38586e-06
-8.09272e-06
-4.68593e-06
-3.82014e-06
-6.30087e-06
1.44744e-06
-7.20284e-06
6.80471e-06
-7.23917e-06
9.03589e-06
-7.45586e-06
7.35396e-06
-8.7298e-06
4.96265e-06
-1.21902e-05
3.62478e-06
-1.46774e-05
2.78194e-06
-1.56958e-05
1.85938e-06
-1.54868e-05
-1.09783e-05
1.97382e-06
-9.97468e-06
3.22367e-06
-1.51761e-05
3.75092e-06
-1.88188e-05
4.194e-06
-2.14101e-05
3.99472e-06
-2.4753e-05
3.62655e-06
-2.86184e-05
3.1242e-06
-2.95321e-05
-3.58149e-06
-2.50772e-05
-7.3691e-06
1.14214e-06
-3.38701e-06
3.7582e-05
-6.25161e-06
4.65096e-05
-1.37316e-05
3.95227e-05
-1.88907e-05
2.52971e-05
-2.10947e-05
2.02521e-05
-2.02505e-05
1.83431e-05
-1.82425e-05
1.41586e-05
-1.60521e-05
8.77176e-06
-1.37228e-05
3.74744e-06
-1.13184e-05
-5.43883e-08
-8.73904e-06
-2.95116e-06
-5.92317e-06
-5.11971e-06
-2.76489e-06
-6.89062e-06
5.72801e-07
-8.453e-06
3.54647e-06
-9.78448e-06
4.4686e-06
-1.03779e-05
3.17953e-06
-1.15078e-05
2.05863e-06
-1.38952e-05
1.53358e-06
-1.5173e-05
9.92079e-07
-1.46934e-05
-9.73408e-06
2.21662e-06
-8.80882e-06
3.55403e-06
-1.7799e-05
4.14233e-06
-2.00483e-05
4.85831e-06
-2.20839e-05
5.08267e-06
-2.5387e-05
4.07598e-06
-3.08933e-05
2.47524e-06
-2.90895e-05
-2.67836e-06
-2.05468e-05
-6.167e-06
-1.94346e-06
-2.85981e-06
3.83075e-05
-3.07087e-06
5.17109e-05
-8.77427e-06
4.65215e-05
-1.35738e-05
3.09992e-05
-1.59362e-05
2.34866e-05
-1.56354e-05
1.99432e-05
-1.41149e-05
1.46442e-05