/*--------------------------------*- C++ -*----------------------------------*\
| =========                 |                                                 |
| \\      /  F ield         | OpenFOAM: The Open Source CFD Toolbox           |
|  \\    /   O peration     | Version:  v1606+                                |
|   \\  /    A nd           | Web:      www.OpenFOAM.com                      |
|    \\/     M anipulation  |                                                 |
\*---------------------------------------------------------------------------*/
FoamFile
{
    version     2.0;
    format      ascii;
    class       volScalarField;
    location    "1.77";
    object      pMean;
}
// * * * * * * * * * * * * * * * * * * * * * * * * * * * * * * * * * * * * * //

dimensions      [1 -1 -2 0 0 0 0];

internalField   nonuniform List<scalar> 
6000
(
107507
107507
107507
107507
107507
107507
107507
107507
107507
107508
107508
107508
107508
107508
107508
107508
107508
107508
107508
107507
107507
107506
107505
107505
107505
107505
107506
107506
107506
107506
107435
107435
107435
107434
107434
107434
107434
107434
107434
107435
107435
107435
107435
107435
107435
107435
107435
107435
107435
107434
107433
107432
107432
107431
107432
107432
107433
107434
107435
107434
107388
107388
107388
107388
107388
107388
107388
107389
107389
107390
107390
107390
107390
107390
107390
107390
107390
107390
107390
107389
107387
107386
107385
107385
107385
107385
107386
107386
107387
107386
107334
107334
107333
107333
107333
107334
107334
107335
107336
107336
107337
107337
107337
107337
107338
107337
107337
107337
107336
107335
107333
107332
107331
107331
107331
107331
107331
107331
107332
107332
107283
107282
107282
107282
107282
107282
107282
107282
107283
107284
107285
107285
107285
107286
107286
107286
107285
107284
107283
107282
107280
107279
107279
107279
107279
107279
107279
107279
107280
107280
107233
107232
107232
107232
107232
107232
107231
107231
107231
107231
107233
107233
107233
107234
107234
107234
107233
107232
107231
107230
107228
107228
107227
107227
107227
107228
107229
107229
107230
107230
107183
107182
107181
107181
107181
107181
107181
107180
107179
107179
107180
107180
107180
107181
107182
107182
107181
107180
107179
107178
107177
107176
107175
107174
107175
107177
107178
107179
107179
107180
107131
107129
107128
107128
107128
107128
107128
107128
107128
107128
107128
107128
107128
107128
107129
107129
107128
107127
107126
107126
107125
107124
107122
107121
107122
107124
107125
107126
107128
107129
107077
107075
107074
107074
107074
107074
107075
107076
107077
107077
107077
107077
107076
107077
107077
107077
107076
107075
107074
107074
107073
107071
107069
107067
107067
107069
107070
107072
107074
107077
107021
107019
107019
107019
107019
107020
107022
107024
107025
107026
107027
107027
107027
107027
107027
107027
107026
107025
107024
107023
107022
107020
107017
107014
107012
107013
107014
107017
107019
107022
106965
106963
106963
106963
106964
106966
106969
106973
106974
106974
106976
106978
106979
106979
106980
106979
106979
106977
106975
106974
106972
106970
106967
106963
106960
106958
106959
106961
106964
106967
106910
106909
106908
106907
106908
106912
106916
106920
106922
106923
106925
106927
106929
106930
106932
106932
106932
106930
106928
106926
106923
106921
106918
106914
106909
106905
106904
106906
106909
106912
106856
106854
106853
106852
106854
106858
106863
106867
106870
106871
106873
106875
106877
106880
106882
106883
106883
106883
106882
106879
106875
106872
106869
106865
106859
106855
106852
106853
106855
106858
106803
106801
106800
106800
106802
106807
106812
106816
106818
106820
106821
106823
106825
106829
106831
106832
106833
106835
106835
106832
106828
106825
106821
106817
106811
106806
106803
106802
106803
106805
106752
106750
106750
106750
106752
106756
106761
106765
106767
106770
106772
106773
106775
106778
106780
106782
106782
106784
106785
106783
106780
106776
106773
106768
106763
106759
106755
106753
106754
106754
106702
106701
106701
106702
106704
106706
106709
106714
106717
106721
106723
106725
106727
106728
106730
106731
106731
106732
106732
106731
106729
106726
106722
106719
106715
106711
106707
106705
106705
106705
106653
106653
106653
106654
106655
106655
106658
106663
106667
106672
106675
106677
106678
106679
106680
106680
106679
106678
106678
106677
106676
106673
106669
106666
106664
106661
106659
106657
106656
106655
106604
106604
106604
106605
106605
106605
106607
106612
106617
106623
106626
106628
106629
106629
106628
106628
106626
106625
106624
106623
106621
106618
106614
106611
106609
106607
106606
106605
106604
106603
106554
106554
106553
106553
106554
106554
106556
106560
106566
106572
106576
106577
106577
106576
106575
106573
106572
106571
106571
106570
106566
106561
106557
106553
106551
106549
106549
106549
106549
106548
106502
106502
106501
106500
106501
106503
106506
106510
106515
106520
106524
106524
106523
106521
106519
106518
106517
106517
106519
106517
106512
106506
106500
106495
106491
106490
106489
106489
106489
106488
106449
106448
106447
106448
106450
106454
106458
106462
106465
106468
106471
106471
106469
106466
106463
106462
106462
106464
106465
106464
106458
106451
106443
106437
106432
106429
106427
106427
106427
106427
106391
106392
106393
106396
106399
106404
106409
106413
106416
106419
106421
106420
106418
106413
106409
106408
106409
106410
106410
106408
106402
106394
106385
106377
106371
106367
106365
106364
106364
106364
106331
106333
106336
106341
106346
106351
106356
106360
106364
106368
106369
106369
106365
106360
106356
106354
106354
106354
106353
106349
106342
106332
106323
106314
106308
106304
106302
106301
106301
106302
106268
106270
106274
106279
106285
106290
106295
106300
106306
106311
106314
106314
106310
106305
106301
106299
106297
106296
106293
106287
106278
106268
106258
106249
106242
106239
106238
106238
106238
106239
106204
106205
106209
106213
106219
106224
106229
106234
106241
106249
106254
106255
106251
106247
106243
106241
106238
106235
106231
106222
106211
106200
106190
106182
106176
106173
106173
106174
106175
106176
106138
106138
106141
106145
106150
106154
106159
106165
106172
106181
106188
106191
106190
106187
106183
106180
106176
106172
106165
106155
106143
106132
106123
106116
106112
106109
106110
106111
106112
106113
106072
106072
106074
106077
106080
106084
106089
106095
106101
106109
106118
106123
106125
106123
106121
106117
106113
106107
106098
106085
106073
106062
106056
106052
106049
106048
106048
106050
106051
106052
106007
106008
106008
106009
106011
106015
106019
106025
106031
106038
106046
106054
106058
106058
106056
106052
106048
106040
106028
106014
106002
105993
105989
105987
105986
105986
105987
105989
105991
105991
105943
105944
105943
105942
105943
105946
105950
105955
105960
105966
105974
105983
105989
105992
105991
105987
105981
105971
105956
105941
105930
105923
105920
105921
105922
105924
105926
105928
105931
105931
105879
105879
105877
105875
105875
105877
105880
105884
105889
105894
105902
105911
105920
105924
105924
105920
105912
105899
105883
105869
105859
105853
105851
105852
105855
105859
105862
105866
105868
105870
105812
105811
105809
105807
105805
105806
105808
105812
105817
105823
105831
105840
105849
105855
105856
105851
105841
105828
105812
105799
105791
105786
105784
105784
105788
105793
105798
105802
105805
105807
105743
105742
105740
105737
105734
105733
105736
105740
105746
105752
105761
105770
105779
105785
105786
105781
105771
105758
105744
105733
105726
105723
105720
105720
105723
105728
105733
105738
105742
105744
105674
105673
105671
105667
105663
105663
105666
105671
105677
105684
105692
105702
105710
105715
105715
105710
105701
105690
105680
105672
105667
105664
105662
105660
105661
105665
105670
105676
105680
105682
105605
105603
105600
105597
105595
105595
105599
105606
105613
105619
105626
105635
105642
105646
105645
105640
105633
105625
105618
105613
105610
105608
105606
105604
105603
105605
105609
105614
105618
105620
105535
105533
105529
105527
105528
105531
105537
105544
105552
105558
105563
105570
105576
105579
105577
105572
105567
105562
105558
105556
105555
105554
105552
105549
105547
105547
105550
105554
105557
105559
105466
105462
105459
105459
105462
105468
105476
105485
105493
105499
105502
105506
105510
105513
105512
105508
105505
105502
105500
105500
105500
105499
105497
105495
105493
105491
105493
105495
105498
105500
105399
105396
105394
105395
105400
105409
105418
105427
105435
105441
105443
105444
105447
105449
105449
105448
105446
105445
105444
105444
105445
105444
105443
105442
105439
105437
105436
105438
105440
105441
105340
105338
105338
105340
105345
105352
105362
105372
105379
105384
105384
105383
105385
105388
105389
105390
105389
105389
105389
105389
105390
105389
105389
105388
105386
105384
105382
105382
105383
105384
105289
105289
105291
105292
105294
105299
105307
105316
105323
105327
105326
105325
105326
105328
105331
105333
105334
105334
105334
105334
105334
105334
105334
105334
105333
105331
105329
105327
105327
105328
105242
105243
105245
105245
105245
105247
105253
105260
105266
105269
105270
105268
105268
105271
105275
105278
105279
105280
105280
105280
105280
105279
105279
105279
105278
105277
105275
105274
105273
105273
105194
105195
105196
105195
105193
105193
105197
105202
105207
105211
105213
105213
105213
105216
105221
105224
105226
105227
105226
105226
105225
105224
105223
105223
105222
105222
105221
105219
105218
105218
105144
105146
105144
105140
105138
105136
105138
105142
105147
105152
105155
105157
105159
105162
105167
105171
105173
105173
105173
105172
105170
105169
105168
105167
105165
105165
105164
105164
105163
105163
105093
105093
105088
105083
105080
105077
105077
105080
105085
105091
105097
105101
105104
105108
105113
105118
105120
105120
105119
105118
105116
105113
105111
105109
105107
105107
105107
105107
105107
105108
105040
105037
105031
105025
105020
105017
105016
105018
105024
105031
105038
105044
105049
105053
105059
105063
105065
105065
105064
105063
105061
105057
105053
105050
105049
105049
105050
105051
105052
105052
104983
104979
104973
104967
104961
104957
104956
104959
104965
104972
104981
104988
104993
104998
105004
105009
105010
105010
105009
105008
105005
105000
104996
104992
104991
104991
104992
104995
104997
104998
104926
104922
104916
104909
104903
104900
104900
104904
104909
104917
104925
104932
104938
104944
104949
104954
104955
104955
104955
104954
104950
104946
104941
104938
104936
104935
104936
104939
104942
104943
104871
104867
104861
104855
104850
104849
104850
104854
104859
104866
104873
104879
104885
104891
104896
104901
104902
104902
104903
104901
104898
104894
104889
104885
104882
104881
104881
104884
104887
104889
104819
104815
104810
104806
104803
104803
104805
104808
104813
104818
104824
104829
104835
104840
104845
104849
104851
104852
104852
104851
104848
104843
104839
104834
104831
104829
104829
104831
104833
104835
104770
104767
104764
104761
104759
104760
104762
104765
104768
104773
104778
104781
104786
104791
104795
104799
104801
104802
104803
104801
104798
104794
104789
104784
104780
104778
104778
104779
104781
104782
104725
104723
104721
104719
104718
104718
104720
104722
104725
104728
104732
104736
104739
104743
104747
104750
104752
104753
104754
104752
104748
104744
104739
104735
104731
104728
104727
104728
104729
104730
104683
104681
104680
104678
104677
104678
104679
104681
104682
104685
104687
104690
104692
104695
104699
104702
104703
104704
104704
104702
104699
104695
104690
104686
104683
104679
104678
104677
104678
104679
104641
104640
104639
104638
104638
104638
104639
104639
104640
104641
104643
104645
104646
104649
104651
104653
104654
104655
104655
104653
104649
104645
104642
104638
104634
104631
104628
104627
104627
104627
104598
104598
104598
104598
104598
104598
104597
104597
104597
104597
104598
104599
104600
104602
104604
104605
104605
104605
104605
104602
104599
104595
104592
104589
104586
104582
104579
104578
104576
104576
104555
104555
104556
104557
104557
104556
104554
104553
104552
104552
104552
104553
104554
104555
104556
104556
104555
104555
104554
104551
104547
104544
104542
104539
104536
104533
104531
104528
104526
104525
104511
104511
104513
104513
104513
104511
104509
104507
104506
104506
104506
104506
104506
104507
104507
104506
104505
104505
104502
104499
104495
104491
104489
104487
104485
104483
104481
104479
104476
104475
104465
104466
104467
104466
104465
104463
104461
104459
104458
104458
104458
104457
104458
104458
104457
104456
104454
104452
104449
104445
104441
104437
104434
104432
104431
104430
104430
104429
104426
104425
104418
104418
104418
104417
104414
104412
104411
104410
104409
104409
104408
104408
104408
104407
104406
104404
104401
104399
104395
104391
104387
104382
104378
104375
104374
104374
104376
104376
104375
104374
104370
104370
104368
104365
104362
104361
104360
104360
104359
104359
104358
104357
104357
104356
104354
104351
104348
104345
104341
104336
104332
104326
104321
104317
104315
104315
104318
104320
104321
104321
104320
104318
104315
104312
104310
104310
104311
104311
104310
104308
104307
104305
104305
104304
104301
104298
104294
104290
104285
104281
104276
104270
104264
104259
104256
104256
104258
104261
104263
104265
104268
104265
104262
104260
104261
104261
104261
104260
104258
104256
104253
104252
104251
104249
104247
104243
104239
104234
104229
104224
104219
104213
104206
104200
104196
104196
104198
104201
104204
104206
104214
104212
104210
104211
104212
104213
104211
104208
104205
104202
104198
104196
104194
104193
104190
104187
104183
104177
104172
104167
104162
104155
104149
104143
104138
104136
104138
104141
104144
104146
104162
104161
104162
104164
104164
104163
104159
104155
104150
104146
104142
104139
104137
104135
104132
104129
104125
104119
104114
104109
104104
104098
104092
104087
104082
104079
104079
104081
104083
104085
104110
104111
104115
104116
104115
104111
104105
104099
104093
104089
104085
104081
104078
104076
104073
104069
104065
104059
104055
104050
104046
104041
104037
104032
104028
104024
104022
104022
104024
104026
104060
104062
104066
104066
104062
104055
104048
104041
104035
104030
104026
104022
104019
104016
104012
104009
104004
103998
103994
103990
103987
103983
103980
103977
103974
103970
103967
103966
103966
103967
104009
104012
104012
104009
104003
103995
103988
103981
103975
103970
103966
103962
103959
103955
103951
103947
103941
103937
103933
103929
103926
103923
103921
103920
103918
103916
103913
103911
103910
103910
103955
103956
103953
103948
103941
103933
103926
103919
103913
103909
103905
103902
103898
103893
103889
103884
103878
103874
103870
103867
103864
103862
103860
103860
103860
103860
103859
103857
103855
103854
103896
103894
103889
103883
103876
103869
103862
103855
103851
103847
103843
103839
103835
103831
103826
103820
103815
103810
103807
103803
103801
103799
103798
103798
103799
103801
103802
103801
103799
103799
103831
103827
103822
103815
103808
103802
103795
103790
103786
103783
103780
103776
103771
103766
103761
103756
103750
103746
103742
103739
103736
103734
103733
103734
103737
103740
103742
103743
103742
103742
103762
103758
103752
103745
103739
103733
103727
103724
103721
103718
103714
103710
103706
103701
103696
103691
103685
103681
103677
103674
103671
103669
103669
103670
103673
103676
103679
103681
103682
103682
103690
103687
103681
103675
103669
103664
103659
103657
103654
103651
103647
103643
103639
103635
103630
103625
103619
103615
103612
103609
103606
103604
103603
103604
103607
103611
103615
103618
103620
103620
103619
103616
103611
103606
103600
103595
103592
103590
103587
103583
103579
103575
103572
103568
103564
103559
103554
103550
103547
103543
103540
103538
103537
103538
103541
103545
103549
103552
103555
103556
103550
103547
103543
103538
103533
103528
103525
103523
103520
103516
103512
103508
103505
103501
103498
103493
103490
103486
103482
103478
103475
103473
103472
103472
103474
103478
103482
103486
103488
103489
103483
103481
103477
103471
103466
103461
103458
103455
103452
103449
103445
103442
103439
103436
103433
103429
103426
103423
103419
103415
103411
103408
103406
103406
103408
103411
103414
103418
103420
103421
103417
103415
103411
103405
103399
103394
103391
103388
103385
103383
103380
103377
103375
103372
103369
103366
103364
103361
103356
103352
103348
103343
103341
103340
103341
103344
103347
103350
103352
103353
103352
103350
103345
103339
103333
103328
103323
103321
103319
103317
103316
103314
103312
103309
103307
103304
103301
103298
103294
103289
103283
103278
103274
103273
103274
103277
103280
103283
103285
103286
103287
103284
103280
103274
103267
103261
103256
103253
103253
103252
103252
103251
103249
103247
103244
103241
103238
103234
103230
103224
103218
103212
103208
103207
103208
103211
103214
103218
103219
103221
103222
103219
103215
103209
103201
103195
103190
103188
103187
103188
103188
103187
103186
103184
103181
103177
103173
103169
103165
103159
103152
103147
103144
103143
103145
103148
103151
103154
103156
103157
103157
103155
103150
103143
103136
103131
103127
103125
103125
103125
103125
103124
103123
103120
103117
103113
103108
103103
103099
103093
103087
103083
103082
103082
103084
103087
103091
103094
103095
103096
103094
103090
103085
103079
103074
103071
103068
103066
103065
103064
103063
103062
103059
103056
103052
103048
103043
103038
103032
103028
103024
103022
103021
103022
103025
103028
103032
103034
103035
103036
103031
103028
103023
103018
103015
103012
103010
103008
103006
103004
103002
102999
102996
102992
102988
102983
102977
102972
102967
102964
102962
102962
102962
102963
102965
102969
102972
102975
102976
102976
102969
102967
102963
102959
102957
102955
102954
102951
102948
102944
102941
102937
102932
102928
102923
102917
102912
102907
102904
102902
102901
102901
102902
102904
102906
102909
102912
102914
102916
102916
102909
102908
102905
102903
102901
102899
102897
102894
102889
102884
102878
102873
102868
102863
102858
102852
102846
102842
102840
102840
102840
102841
102842
102844
102846
102848
102851
102853
102854
102855
102851
102850
102849
102847
102845
102843
102839
102834
102828
102822
102815
102809
102804
102798
102792
102786
102781
102779
102777
102777
102778
102780
102781
102783
102785
102787
102788
102791
102793
102794
102793
102793
102792
102790
102788
102784
102778
102772
102765
102758
102751
102744
102739
102733
102727
102721
102717
102715
102715
102715
102716
102718
102720
102721
102723
102724
102726
102728
102730
102732
102733
102734
102734
102731
102727
102721
102714
102708
102700
102693
102686
102679
102673
102667
102661
102656
102653
102652
102652
102653
102654
102656
102658
102659
102660
102662
102663
102666
102668
102669
102671
102672
102671
102667
102662
102655
102648
102641
102634
102627
102620
102613
102607
102601
102596
102592
102589
102588
102589
102590
102591
102594
102596
102598
102599
102600
102602
102603
102605
102606
102607
102607
102604
102599
102593
102587
102580
102573
102567
102561
102554
102547
102542
102536
102531
102528
102526
102525
102525
102527
102529
102531
102534
102536
102538
102540
102541
102542
102543
102544
102541
102539
102535
102530
102524
102517
102512
102506
102500
102495
102489
102483
102477
102472
102468
102465
102463
102463
102463
102464
102466
102469
102472
102475
102477
102479
102480
102481
102482
102483
102475
102471
102467
102461
102454
102449
102444
102440
102435
102430
102425
102420
102415
102409
102406
102403
102402
102401
102400
102401
102403
102406
102409
102412
102415
102417
102419
102420
102421
102422
102408
102405
102400
102393
102387
102383
102380
102377
102373
102369
102364
102359
102354
102349
102345
102343
102341
102339
102339
102339
102341
102343
102346
102349
102352
102354
102357
102359
102361
102361
102343
102339
102334
102329
102325
102322
102320
102317
102314
102310
102305
102299
102294
102289
102286
102283
102281
102279
102278
102278
102278
102280
102283
102285
102288
102292
102295
102297
102299
102300
102280
102277
102273
102271
102268
102265
102263
102261
102258
102253
102248
102242
102235
102231
102227
102224
102221
102219
102217
102216
102216
102217
102219
102222
102225
102229
102232
102235
102237
102239
102221
102219
102217
102216
102214
102212
102209
102206
102203
102198
102192
102185
102178
102173
102169
102166
102162
102159
102157
102155
102155
102155
102156
102158
102162
102166
102169
102172
102175
102176
102166
102165
102165
102164
102163
102160
102157
102154
102150
102144
102137
102130
102122
102117
102112
102108
102104
102101
102098
102096
102095
102095
102095
102097
102099
102102
102106
102109
102112
102113
102114
102114
102115
102114
102112
102110
102106
102102
102097
102091
102083
102075
102067
102061
102056
102051
102047
102043
102041
102040
102039
102038
102038
102038
102039
102041
102044
102047
102049
102051
102065
102065
102065
102064
102062
102059
102055
102050
102045
102038
102029
102020
102012
102006
102000
101995
101991
101989
101988
101987
101986
101986
101985
101984
101983
101983
101985
101987
101990
101992
102015
102016
102016
102015
102012
102008
102003
101998
101992
101984
101975
101966
101958
101951
101945
101941
101938
101937
101936
101936
101936
101935
101934
101933
101932
101931
101930
101932
101933
101934
101965
101966
101966
101964
101961
101956
101950
101944
101937
101929
101920
101911
101904
101896
101891
101887
101885
101885
101886
101886
101886
101885
101884
101883
101882
101881
101880
101879
101879
101879
101912
101913
101912
101910
101906
101901
101895
101888
101881
101873
101864
101856
101849
101842
101837
101835
101834
101834
101835
101836
101836
101836
101836
101835
101834
101833
101831
101829
101827
101827
101856
101856
101854
101851
101847
101843
101838
101832
101825
101817
101809
101801
101794
101789
101785
101784
101783
101784
101785
101786
101787
101787
101788
101787
101786
101785
101783
101780
101778
101776
101797
101795
101792
101789
101787
101784
101781
101776
101769
101761
101754
101746
101741
101737
101735
101734
101734
101735
101736
101738
101739
101739
101740
101739
101738
101737
101735
101732
101730
101728
101736
101734
101731
101729
101728
101726
101724
101719
101712
101704
101697
101692
101688
101686
101685
101685
101686
101687
101688
101689
101690
101691
101691
101690
101689
101688
101686
101684
101682
101681
101678
101676
101674
101672
101672
101671
101668
101662
101655
101649
101643
101639
101637
101636
101636
101637
101638
101639
101640
101640
101641
101641
101641
101641
101640
101639
101638
101636
101635
101634
101624
101622
101621
101620
101619
101617
101614
101608
101602
101597
101593
101590
101588
101588
101588
101589
101590
101591
101591
101592
101592
101592
101592
101591
101590
101589
101588
101588
101588
101587
101573
101573
101573
101571
101569
101566
101562
101556
101551
101547
101544
101542
101541
101541
101541
101542
101543
101543
101544
101544
101544
101544
101543
101542
101541
101540
101539
101539
101539
101540
101525
101525
101525
101523
101520
101516
101511
101506
101501
101498
101496
101495
101494
101494
101495
101495
101495
101496
101497
101497
101497
101497
101497
101495
101494
101493
101492
101491
101491
101492
101476
101477
101477
101474
101471
101466
101461
101457
101453
101451
101449
101448
101448
101448
101448
101449
101449
101450
101451
101452
101452
101452
101451
101450
101449
101447
101446
101445
101444
101445
101427
101428
101427
101424
101421
101416
101412
101408
101405
101404
101403
101402
101402
101402
101403
101403
101404
101405
101406
101407
101407
101407
101407
101406
101405
101403
101402
101400
101399
101399
101378
101377
101376
101374
101371
101367
101363
101360
101358
101357
101356
101356
101357
101357
101358
101358
101359
101360
101361
101362
101363
101363
101363
101362
101361
101360
101358
101356
101355
101355
101328
101327
101326
101324
101322
101319
101316
101313
101311
101311
101311
101311
101312
101313
101314
101314
101315
101316
101317
101318
101318
101318
101318
101318
101317
101316
101315
101313
101312
101312
101279
101278
101277
101276
101274
101272
101269
101267
101266
101265
101266
101267
101268
101269
101270
101271
101271
101272
101273
101274
101274
101274
101274
101274
101274
101273
101272
101271
101270
101270
101230
101230
101229
101229
101228
101226
101224
101222
101221
101222
101223
101224
101225
101227
101227
101228
101228
101229
101230
101230
101230
101231
101231
101231
101231
101231
101230
101230
101229
101229
101183
101182
101182
101182
101182
101182
101180
101179
101179
101180
101182
101183
101184
101185
101186
101186
101186
101186
101187
101187
101187
101188
101188
101188
101189
101190
101190
101190
101190
101190
101137
101136
101136
101137
101138
101138
101138
101138
101139
101141
101142
101143
101144
101144
101144
101145
101145
101145
101145
101145
101145
101146
101146
101147
101148
101149
101150
101151
101151
101151
101093
101092
101092
101093
101095
101096
101098
101099
101101
101102
101103
101103
101104
101104
101104
101104
101104
101104
101103
101103
101104
101104
101105
101106
101108
101109
101111
101112
101113
101114
101052
101051
101051
101052
101054
101056
101059
101061
101063
101064
101064
101064
101064
101064
101064
101064
101064
101064
101063
101063
101063
101063
101064
101065
101068
101070
101073
101075
101076
101077
101013
101012
101012
101013
101015
101019
101022
101025
101025
101025
101025
101025
101025
101025
101025
101025
101025
101025
101024
101023
101022
101023
101024
101026
101028
101031
101034
101037
101039
101040
100976
100975
100975
100976
100979
100983
100986
100988
100989
100988
100986
100986
100986
100987
100987
100987
100987
100987
100985
100984
100983
100984
100985
100986
100989
100992
100996
101000
101002
101004
100941
100940
100940
100941
100944
100948
100951
100953
100952
100950
100949
100948
100948
100949
100950
100950
100950
100949
100948
100947
100946
100946
100947
100949
100951
100955
100959
100963
100966
100968
100906
100906
100906
100908
100910
100913
100916
100917
100915
100913
100912
100911
100912
100912
100913
100914
100914
100913
100912
100911
100910
100910
100911
100913
100915
100918
100922
100927
100930
100932
100872
100872
100873
100875
100877
100879
100881
100882
100879
100877
100876
100875
100876
100877
100878
100879
100879
100878
100877
100877
100876
100876
100877
100878
100881
100884
100887
100891
100895
100896
100841
100840
100841
100843
100845
100846
100847
100846
100843
100841
100840
100840
100842
100843
100845
100845
100846
100845
100845
100845
100845
100845
100845
100846
100848
100850
100853
100857
100860
100862
100809
100809
100810
100811
100812
100812
100811
100810
100807
100806
100806
100807
100809
100811
100812
100813
100814
100814
100814
100814
100815
100815
100815
100815
100816
100818
100820
100824
100827
100828
100779
100779
100779
100780
100779
100777
100775
100773
100772
100772
100773
100775
100777
100780
100781
100782
100783
100783
100784
100785
100785
100786
100786
100786
100786
100787
100789
100792
100795
100797
100748
100748
100748
100746
100744
100739
100738
100737
100738
100740
100742
100745
100747
100749
100750
100752
100753
100753
100754
100755
100756
100757
100757
100757
100757
100758
100759
100762
100765
100766
100715
100715
100713
100710
100706
100702
100701
100703
100705
100708
100712
100715
100717
100719
100721
100722
100723
100724
100725
100727
100728
100728
100729
100729
100729
100729
100730
100733
100735
100737
100681
100681
100677
100673
100669
100667
100668
100670
100674
100678
100682
100685
100688
100690
100691
100693
100694
100695
100697
100698
100699
100700
100701
100702
100702
100702
100703
100705
100707
100708
100647
100646
100642
100638
100636
100635
100637
100640
100643
100647
100651
100656
100659
100661
100663
100665
100666
100668
100669
100671
100672
100673
100674
100674
100675
100675
100676
100678
100680
100681
100616
100614
100610
100607
100606
100606
100608
100611
100614
100618
100622
100627
100631
100634
100636
100637
100639
100641
100643
100644
100646
100647
100647
100648
100649
100649
100650
100651
100653
100654
100586
100585
100582
100579
100578
100579
100581
100583
100586
100590
100594
100599
100603
100606
100609
100611
100613
100615
100617
100619
100620
100621
100622
100623
100623
100624
100625
100626
100627
100628
100559
100559
100556
100553
100552
100554
100555
100557
100561
100564
100568
100572
100576
100580
100583
100586
100588
100590
100592
100594
100596
100597
100597
100598
100599
100600
100600
100602
100603
100603
100534
100534
100532
100530
100529
100531
100532
100535
100538
100541
100544
100547
100550
100555
100558
100562
100564
100566
100569
100570
100572
100573
100574
100575
100576
100576
100577
100578
100579
100579
100512
100512
100510
100509
100508
100510
100512
100514
100517
100519
100521
100523
100526
100530
100534
100538
100540
100543
100545
100547
100548
100549
100551
100552
100553
100553
100554
100555
100556
100556
100489
100490
100489
100488
100489
100490
100492
100495
100497
100499
100500
100502
100504
100507
100510
100514
100517
100520
100522
100524
100525
100527
100528
100529
100530
100531
100532
100533
100533
100533
100468
100468
100469
100469
100470
100471
100474
100476
100478
100480
100481
100482
100483
100485
100487
100491
100494
100497
100500
100501
100503
100505
100506
100508
100508
100509
100510
100510
100511
100511
100447
100447
100449
100450
100451
100453
100455
100457
100459
100461
100462
100463
100463
100464
100465
100468
100472
100475
100478
100480
100482
100484
100485
100486
100487
100488
100488
100489
100489
100489
100428
100428
100430
100431
100433
100435
100437
100439
100441
100442
100443
100444
100444
100444
100445
100447
100450
100454
100456
100459
100461
100463
100465
100466
100467
100467
100467
100468
100468
100468
100409
100410
100411
100413
100415
100417
100419
100421
100422
100424
100425
100425
100425
100425
100425
100426
100429
100432
100435
100438
100441
100443
100445
100446
100447
100447
100447
100448
100448
100448
100392
100392
100394
100395
100397
100399
100401
100403
100404
100405
100406
100407
100407
100406
100406
100407
100408
100411
100415
100418
100420
100423