/*--------------------------------*- C++ -*----------------------------------*\
| =========                 |                                                 |
| \\      /  F ield         | OpenFOAM: The Open Source CFD Toolbox           |
|  \\    /   O peration     | Version:  v1606+                                |
|   \\  /    A nd           | Web:      www.OpenFOAM.com                      |
|    \\/     M anipulation  |                                                 |
\*---------------------------------------------------------------------------*/
FoamFile
{
    version     2.0;
    format      ascii;
    class       volVectorField;
    location    "1.77";
    object      U.particlesMean;
}
// * * * * * * * * * * * * * * * * * * * * * * * * * * * * * * * * * * * * * //

dimensions      [0 1 -1 0 0 0 0];

internalField   nonuniform List<vector> 
6000
(
(-0.0073814 -0.340963 0)
(-0.000667428 -0.374961 0)
(0.00950131 -0.375922 0)
(0.0161879 -0.384257 0)
(0.0185849 -0.397359 0)
(0.0182571 -0.411822 0)
(0.0174327 -0.427302 0)
(0.0140256 -0.439573 0)
(0.009813 -0.445004 0)
(0.00584478 -0.451911 0)
(0.00207131 -0.453539 0)
(-0.000777461 -0.455519 0)
(-0.00318318 -0.459733 0)
(-0.00627261 -0.463142 0)
(-0.0095015 -0.464317 0)
(-0.0126102 -0.463566 0)
(-0.0154229 -0.461667 0)
(-0.017619 -0.459526 0)
(-0.0200479 -0.460873 0)
(-0.0233789 -0.452417 0)
(-0.0282215 -0.440441 0)
(-0.0332074 -0.422283 0)
(-0.0357204 -0.405827 0)
(-0.0357561 -0.39324 0)
(-0.0343626 -0.379561 0)
(-0.029759 -0.366635 0)
(-0.0225766 -0.357951 0)
(-0.0134597 -0.359295 0)
(-0.00156105 -0.364011 0)
(0.00605101 -0.335562 0)
(0.0202086 0.0310192 0)
(0.0136552 0.0553421 0)
(0.0237238 0.0565147 0)
(0.0352286 0.0612579 0)
(0.0422846 0.0675437 0)
(0.0430253 0.0703549 0)
(0.036143 0.0690046 0)
(0.0256168 0.068548 0)
(0.0167442 0.0690904 0)
(0.00912313 0.0688016 0)
(0.00154908 0.0672327 0)
(-0.0031163 0.0662153 0)
(-0.0062982 0.0624068 0)
(-0.0102831 0.0589117 0)
(-0.013487 0.0559532 0)
(-0.0161109 0.0565883 0)
(-0.0199622 0.0601804 0)
(-0.025176 0.0634229 0)
(-0.0325871 0.0681097 0)
(-0.0411815 0.0710198 0)
(-0.0493074 0.0684665 0)
(-0.0551559 0.0683442 0)
(-0.061755 0.067281 0)
(-0.0650997 0.0623285 0)
(-0.0621052 0.0542663 0)
(-0.0523191 0.0486292 0)
(-0.0369252 0.0435228 0)
(-0.0214959 0.0447257 0)
(-0.0100124 0.0506552 0)
(-0.0186794 0.0328541 0)
(0.00436794 -0.0515392 0)
(0.00670872 -0.0569238 0)
(0.0174648 -0.0643188 0)
(0.0278269 -0.0603827 0)
(0.0371428 -0.0476484 0)
(0.042577 -0.0332807 0)
(0.0405921 -0.0239706 0)
(0.0338742 -0.0203476 0)
(0.0275771 -0.0241525 0)
(0.019282 -0.0263047 0)
(0.0102486 -0.030028 0)
(0.00241287 -0.0341525 0)
(-0.00457181 -0.033992 0)
(-0.0116753 -0.0332055 0)
(-0.0165255 -0.034052 0)
(-0.0209313 -0.0334757 0)
(-0.0260893 -0.0314459 0)
(-0.0326218 -0.0296644 0)
(-0.0414409 -0.0262174 0)
(-0.0508004 -0.0248138 0)
(-0.0605505 -0.0246724 0)
(-0.066357 -0.0267229 0)
(-0.0679628 -0.0302048 0)
(-0.067903 -0.0397439 0)
(-0.0623136 -0.0555708 0)
(-0.0481044 -0.0693284 0)
(-0.0317479 -0.0736973 0)
(-0.018031 -0.0723222 0)
(-0.00542176 -0.0575846 0)
(-0.00677964 -0.0482318 0)
(0.00728275 -0.0547005 0)
(0.00959769 -0.0584335 0)
(0.0138946 -0.059744 0)
(0.0190092 -0.0541019 0)
(0.0312586 -0.0420728 0)
(0.0410471 -0.0297989 0)
(0.0481963 -0.0183154 0)
(0.047851 -0.0104006 0)
(0.0432135 -0.00491205 0)
(0.0324608 -0.00170886 0)
(0.0200323 -0.00292908 0)
(0.00720716 -0.00364031 0)
(-0.00522616 -0.00542705 0)
(-0.0129999 -0.0121461 0)
(-0.0163901 -0.0176448 0)
(-0.0192776 -0.0164231 0)
(-0.0237647 -0.00954514 0)
(-0.032344 -0.00293649 0)
(-0.0464725 0.0010872 0)
(-0.0614171 -0.000802957 0)
(-0.0736367 -0.00635896 0)
(-0.0790849 -0.0145715 0)
(-0.0783814 -0.0237472 0)
(-0.0734591 -0.0373301 0)
(-0.0600501 -0.0567208 0)
(-0.0410945 -0.0702324 0)
(-0.0249889 -0.0737656 0)
(-0.0165685 -0.0705616 0)
(-0.0103128 -0.0625284 0)
(-0.00922565 -0.0562902 0)
(0.00120114 -0.0716392 0)
(0.00496111 -0.077805 0)
(0.00912246 -0.0816734 0)
(0.0143836 -0.0812756 0)
(0.0256016 -0.0708833 0)
(0.0399367 -0.0578728 0)
(0.0515348 -0.0400499 0)
(0.0573538 -0.0254712 0)
(0.0558736 -0.0128802 0)
(0.0453074 -0.0049127 0)
(0.0317781 -0.00353395 0)
(0.0137046 -0.00518114 0)
(-0.000767915 -0.0110448 0)
(-0.00876442 -0.0239626 0)
(-0.0110442 -0.0321521 0)
(-0.0125307 -0.0300376 0)
(-0.0160365 -0.0193242 0)
(-0.0246616 -0.00698717 0)
(-0.0392512 0.000139557 0)
(-0.0568033 -0.00413637 0)
(-0.0696059 -0.0135695 0)
(-0.0747627 -0.0248368 0)
(-0.0770809 -0.0399513 0)
(-0.0733855 -0.0606946 0)
(-0.0592219 -0.0854865 0)
(-0.0414903 -0.0986117 0)
(-0.0237274 -0.0989838 0)
(-0.0139686 -0.0895021 0)
(-0.00795451 -0.0795609 0)
(-0.00397056 -0.0728427 0)
(0.000107959 -0.0716973 0)
(0.00228057 -0.0780926 0)
(0.00712641 -0.0849533 0)
(0.0168341 -0.0881105 0)
(0.0259545 -0.0800819 0)
(0.0417573 -0.0681283 0)
(0.0521005 -0.0505596 0)
(0.0605377 -0.0310473 0)
(0.0601595 -0.0123951 0)
(0.0521163 -0.00184011 0)
(0.0391215 0.000836516 0)
(0.0203403 -0.00298381 0)
(0.00413627 -0.0152452 0)
(-0.00279595 -0.0305494 0)
(-0.00475367 -0.0394481 0)
(-0.0045656 -0.0364795 0)
(-0.00623602 -0.0242881 0)
(-0.0123586 -0.0113204 0)
(-0.0208867 -0.00237935 0)
(-0.0370849 -0.000125966 0)
(-0.0516448 -0.00495147 0)
(-0.0622526 -0.0176566 0)
(-0.0700723 -0.0387112 0)
(-0.0708129 -0.0679839 0)
(-0.0598852 -0.096282 0)
(-0.0432554 -0.110222 0)
(-0.0269271 -0.10746 0)
(-0.0132996 -0.0930672 0)
(-0.00672492 -0.0797231 0)
(-0.00131129 -0.0735591 0)
(-0.000184324 -0.0641646 0)
(0.00293438 -0.0775753 0)
(0.0110107 -0.0895544 0)
(0.0211456 -0.0943546 0)
(0.032892 -0.0912064 0)
(0.0458726 -0.0770623 0)
(0.0509454 -0.0564094 0)
(0.0576959 -0.0351743 0)
(0.0572134 -0.0108761 0)
(0.0486399 0.00124753 0)
(0.0384308 0.00324608 0)
(0.025903 0.000455372 0)
(0.014228 -0.0121132 0)
(0.00680169 -0.030087 0)
(0.0030355 -0.0421712 0)
(0.00272642 -0.0405964 0)
(0.0025257 -0.0282414 0)
(-0.000624765 -0.0127411 0)
(-0.00796072 0.000324983 0)
(-0.0190266 0.00558213 0)
(-0.0329732 0.00442242 0)
(-0.0448177 -0.0088154 0)
(-0.0557288 -0.0354248 0)
(-0.0608726 -0.0717822 0)
(-0.0565682 -0.104717 0)
(-0.0438132 -0.120145 0)
(-0.0297554 -0.11816 0)
(-0.0153266 -0.101274 0)
(-0.00626713 -0.0818772 0)
(0.00167437 -0.0674119 0)
(0.00107025 -0.0577491 0)
(0.0074624 -0.0742221 0)
(0.0143693 -0.0878935 0)
(0.0264582 -0.0994577 0)
(0.0390779 -0.100694 0)
(0.0463876 -0.0859189 0)
(0.0432656 -0.0577966 0)
(0.0432327 -0.0341103 0)
(0.0441527 -0.00723609 0)
(0.0387701 0.00873937 0)
(0.0300393 0.0106629 0)
(0.0238456 0.00517197 0)
(0.0198598 -0.00815311 0)
(0.0156209 -0.0281564 0)
(0.0113939 -0.0417609 0)
(0.00936352 -0.0418175 0)
(0.00942563 -0.0310685 0)
(0.00764245 -0.0127651 0)
(0.00336332 0.00188737 0)
(-0.00439338 0.0136564 0)
(-0.0165731 0.0162743 0)
(-0.0278534 0.000391263 0)
(-0.0383067 -0.0290544 0)
(-0.0466242 -0.0666426 0)
(-0.048011 -0.1039 0)
(-0.0422798 -0.121948 0)
(-0.0350532 -0.12215 0)
(-0.0213803 -0.106582 0)
(-0.0102361 -0.0831317 0)
(0.000868068 -0.0625987 0)
(0.00217279 -0.0578053 0)
(0.0117055 -0.0705236 0)
(0.0172939 -0.0875616 0)
(0.0277146 -0.103895 0)
(0.0360557 -0.104036 0)
(0.0395822 -0.0881584 0)
(0.0306958 -0.0535132 0)
(0.0251555 -0.0265527 0)
(0.0289983 -0.00290295 0)
(0.0295345 0.0149082 0)
(0.0207767 0.0227971 0)
(0.0175746 0.013953 0)
(0.0202846 -0.00426458 0)
(0.0208713 -0.0242264 0)
(0.0182043 -0.0376625 0)
(0.0147628 -0.0392368 0)
(0.0144934 -0.0291154 0)
(0.0125639 -0.00752557 0)
(0.0100068 0.00907301 0)
(0.00589703 0.0264263 0)
(-0.00282272 0.0315171 0)
(-0.0141745 0.0113431 0)
(-0.0176152 -0.0204118 0)
(-0.0224604 -0.0594799 0)
(-0.029702 -0.09789 0)
(-0.0357449 -0.11942 0)
(-0.0351775 -0.122045 0)
(-0.0270797 -0.108956 0)
(-0.0172471 -0.0846991 0)
(-0.000285617 -0.0654486 0)
(0.00485425 -0.0621184 0)
(0.0161769 -0.0717169 0)
(0.0216419 -0.0878084 0)
(0.0285503 -0.103122 0)
(0.0303845 -0.100286 0)
(0.0252777 -0.0773397 0)
(0.0156121 -0.0416765 0)
(0.00966709 -0.0176849 0)
(0.0129085 0.00370894 0)
(0.0191473 0.0214183 0)
(0.0159255 0.0270153 0)
(0.0187839 0.0195064 0)
(0.0212285 0.000893523 0)
(0.0214294 -0.0199589 0)
(0.020721 -0.035286 0)
(0.017288 -0.0367002 0)
(0.0172276 -0.0247581 0)
(0.0150296 -0.00188413 0)
(0.0185192 0.0187257 0)
(0.0143274 0.0381098 0)
(0.00657285 0.039432 0)
(0.00325085 0.0197019 0)
(0.00131822 -0.0155326 0)
(0.00121209 -0.0539467 0)
(-0.00537606 -0.0890277 0)
(-0.0212002 -0.113614 0)
(-0.0295425 -0.119269 0)
(-0.0271102 -0.108058 0)
(-0.0218677 -0.0864599 0)
(-0.00347271 -0.0674853 0)
(0.00419485 -0.0719104 0)
(0.0163985 -0.0809493 0)
(0.0240566 -0.0950887 0)
(0.0310714 -0.104516 0)
(0.0214386 -0.0971556 0)
(0.0113383 -0.069202 0)
(0.00177004 -0.0349557 0)
(-0.0005597 -0.0110952 0)
(-0.000294712 0.00789372 0)
(0.00758137 0.0281296 0)
(0.00855993 0.0321053 0)
(0.01255 0.0221302 0)
(0.0196875 -0.00042682 0)
(0.0258789 -0.0197911 0)
(0.0235062 -0.0313995 0)
(0.0179036 -0.032895 0)
(0.0184194 -0.02051 0)
(0.0190022 0.00141869 0)
(0.0266694 0.0270408 0)
(0.0199844 0.0400708 0)
(0.0180008 0.0415383 0)
(0.0210587 0.022243 0)
(0.0181452 -0.00727406 0)
(0.0203629 -0.0436841 0)
(0.0144363 -0.07972 0)
(-0.00372527 -0.106879 0)
(-0.0200267 -0.117946 0)
(-0.021303 -0.109108 0)
(-0.0201737 -0.0925979 0)
(-0.00497578 -0.0713552 0)
(0.00290621 -0.0791313 0)
(0.0138488 -0.090661 0)
(0.0221032 -0.101512 0)
(0.0272003 -0.108095 0)
(0.0148804 -0.0978877 0)
(-0.00342248 -0.0689892 0)
(-0.0115111 -0.032514 0)
(-0.0133119 -0.00794713 0)
(-0.0101807 0.00800528 0)
(-0.00308132 0.0253511 0)
(0.00343545 0.028614 0)
(0.00626023 0.0172686 0)
(0.0150878 -0.00608139 0)
(0.0225702 -0.0219518 0)
(0.023473 -0.030083 0)
(0.0197342 -0.0275613 0)
(0.0194723 -0.0144948 0)
(0.0220112 0.00421424 0)
(0.0318279 0.0282777 0)
(0.0264393 0.0418334 0)
(0.0239179 0.0423047 0)
(0.0283197 0.0229239 0)
(0.0280632 -0.00598033 0)
(0.0286624 -0.0394159 0)
(0.0261399 -0.0737624 0)
(0.00991552 -0.101146 0)
(-0.00878304 -0.114742 0)
(-0.0118418 -0.110142 0)
(-0.0115955 -0.098807 0)
(-0.00206003 -0.0757823 0)
(0.00133735 -0.0807778 0)
(0.0106907 -0.0943692 0)
(0.0170345 -0.104757 0)
(0.0187098 -0.108962 0)
(0.00229008 -0.0869248 0)
(-0.0171589 -0.0565694 0)
(-0.0211913 -0.0260762 0)
(-0.020324 -0.00363421 0)
(-0.0186864 0.00999977 0)
(-0.011033 0.0258954 0)
(-0.00401428 0.0279748 0)
(-0.00167709 0.0127047 0)
(0.00885058 -0.00794309 0)
(0.0188918 -0.0220466 0)
(0.0202654 -0.0275379 0)
(0.0178821 -0.0254186 0)
(0.0205708 -0.0157613 0)
(0.0295975 0.000739052 0)
(0.0355533 0.029447 0)
(0.0291602 0.045917 0)
(0.0287201 0.0453758 0)
(0.0360208 0.0242714 0)
(0.0360196 -0.00374176 0)
(0.0372679 -0.0393397 0)
(0.0359332 -0.0717263 0)
(0.0171434 -0.0937984 0)
(0.000403472 -0.108123 0)
(-0.00512032 -0.107386 0)
(-0.00452173 -0.0983437 0)
(0.00213158 -0.0775071 0)
(6.03143e-05 -0.0795365 0)
(0.00610989 -0.0934028 0)
(0.00950161 -0.100907 0)
(0.00727004 -0.100673 0)
(-0.00955418 -0.0712737 0)
(-0.0235369 -0.0474979 0)
(-0.0220975 -0.0256407 0)
(-0.021248 -0.00493448 0)
(-0.0219159 0.00770953 0)
(-0.0153957 0.0222051 0)
(-0.00506595 0.0234055 0)
(-0.000302884 0.00761351 0)
(0.00687833 -0.0140876 0)
(0.0195407 -0.024737 0)
(0.0194406 -0.0280347 0)
(0.014892 -0.0248132 0)
(0.0163334 -0.0171871 0)
(0.0265092 -0.00419969 0)
(0.0298948 0.0280534 0)
(0.0301876 0.0483375 0)
(0.0322441 0.0466576 0)
(0.0383803 0.0245433 0)
(0.0401835 -0.00502438 0)
(0.0428791 -0.0380896 0)
(0.0382387 -0.0681648 0)
(0.0225262 -0.0881576 0)
(0.00745445 -0.0980319 0)
(0.000974255 -0.101564 0)
(-0.000876384 -0.0945964 0)
(0.00365696 -0.0749997 0)
(0.000216027 -0.0752498 0)
(0.00402893 -0.0893968 0)
(0.00562303 -0.0939439 0)
(-0.000194144 -0.0929409 0)
(-0.0242778 -0.0580993 0)
(-0.0273467 -0.0396739 0)
(-0.0242496 -0.0228679 0)
(-0.0231599 -0.00609583 0)
(-0.0220893 0.00821149 0)
(-0.0166622 0.0207213 0)
(-0.00690861 0.0188787 0)
(0.00243989 -1.67853e-05 0)
(0.00999839 -0.0209356 0)
(0.0223313 -0.0283243 0)
(0.021956 -0.0307003 0)
(0.0175631 -0.0259407 0)
(0.0151149 -0.0189302 0)
(0.0214705 -0.00951121 0)
(0.0220796 0.0305 0)
(0.0280406 0.0526302 0)
(0.0313172 0.051068 0)
(0.0352685 0.0276268 0)
(0.0402312 -0.00619432 0)
(0.0400405 -0.0363861 0)
(0.0380038 -0.0631599 0)
(0.0268622 -0.0814537 0)
(0.0153956 -0.0901907 0)
(0.00823235 -0.091449 0)
(0.00420331 -0.0891062 0)
(0.00326553 -0.0706633 0)
(-0.000734699 -0.0700349 0)
(0.00176364 -0.0845717 0)
(0.00296403 -0.0893888 0)
(-0.000690632 -0.0829987 0)
(-0.0223401 -0.0518069 0)
(-0.0252725 -0.0345084 0)
(-0.0296523 -0.018654 0)
(-0.027305 -0.00382616 0)
(-0.0222448 0.0109317 0)
(-0.0145529 0.0187514 0)
(-0.0045598 0.0137454 0)
(0.00595061 -0.00788146 0)
(0.00933358 -0.0307689 0)
(0.0204752 -0.0379782 0)
(0.0272035 -0.0350207 0)
(0.0238582 -0.0291064 0)
(0.0228549 -0.0222726 0)
(0.0196296 -0.0130331 0)
(0.0166011 0.0254021 0)
(0.0252986 0.0503994 0)
(0.0283814 0.0520083 0)
(0.0328487 0.0290741 0)
(0.0356245 -0.00535228 0)
(0.0283718 -0.0334612 0)
(0.0322001 -0.0606254 0)
(0.0266026 -0.0751757 0)
(0.0200517 -0.0774762 0)
(0.0112137 -0.0827112 0)
(0.00656832 -0.0794045 0)
(0.00358118 -0.0628021 0)
(-0.0016649 -0.0639915 0)
(0.000401032 -0.0790146 0)
(0.000734698 -0.0854183 0)
(-0.00251145 -0.0786661 0)
(-0.0151068 -0.0546935 0)
(-0.0206573 -0.0347061 0)
(-0.0263578 -0.0203871 0)
(-0.0312503 -0.00245775 0)
(-0.0227083 0.0157515 0)
(-0.0115659 0.0202196 0)
(-0.000620866 0.0142603 0)
(0.00902192 -0.00481409 0)
(0.0216077 -0.0360457 0)
(0.0196089 -0.0384576 0)
(0.0274317 -0.0330096 0)
(0.027376 -0.0292314 0)
(0.030597 -0.0229744 0)
(0.0201921 -0.0179561 0)
(0.01504 0.0179248 0)
(0.0204455 0.0501632 0)
(0.0276494 0.0525035 0)
(0.0347961 0.0274872 0)
(0.0337167 -0.00461309 0)
(0.0264051 -0.0340285 0)
(0.0268983 -0.0637912 0)
(0.0196584 -0.0725361 0)
(0.0143507 -0.0670437 0)
(0.00906108 -0.0687769 0)
(0.00389313 -0.0698508 0)
(0.00139058 -0.0528735 0)
(-0.000988961 -0.0624219 0)
(0.00270602 -0.0788708 0)
(0.00324681 -0.0805583 0)
(-0.00090456 -0.0712636 0)
(-0.0138833 -0.056248 0)
(-0.0229473 -0.0404341 0)
(-0.0286691 -0.0234744 0)
(-0.0293521 -0.00517037 0)
(-0.0212899 0.0182358 0)
(-0.00951963 0.0195604 0)
(0.0035606 0.011557 0)
(0.0134623 -0.00595915 0)
(0.0254414 -0.0321 0)
(0.0277669 -0.0421438 0)
(0.0297147 -0.0379283 0)
(0.0303113 -0.0282306 0)
(0.0365232 -0.0228542 0)
(0.0254273 -0.0195211 0)
(0.0120879 0.0178674 0)
(0.0180001 0.0434975 0)
(0.0268521 0.0473437 0)
(0.0369057 0.0256991 0)
(0.0346999 -0.00519961 0)
(0.0280978 -0.0393491 0)
(0.0197043 -0.0638496 0)
(0.00933358 -0.0640515 0)
(0.00206812 -0.0557113 0)
(0.00134635 -0.0583401 0)
(-0.00110355 -0.0627866 0)
(-0.00290222 -0.0458116 0)
(0.000127882 -0.0568956 0)
(0.00465506 -0.0857625 0)
(0.00109904 -0.082558 0)
(-0.000208472 -0.0680198 0)
(-0.0101545 -0.0581278 0)
(-0.0211088 -0.0444422 0)
(-0.0283993 -0.0346688 0)
(-0.0289671 -0.0130344 0)
(-0.0199065 0.0086532 0)
(-0.0077208 0.00701615 0)
(0.00619042 -0.000588007 0)
(0.0176796 -0.0165696 0)
(0.024947 -0.0420936 0)
(0.0333782 -0.0544993 0)
(0.0354876 -0.0517934 0)
(0.032609 -0.0360602 0)
(0.0348862 -0.029894 0)
(0.0268494 -0.0157454 0)
(0.0112664 0.0155643 0)
(0.0216926 0.0342742 0)
(0.0276496 0.0344782 0)
(0.0409828 0.0180832 0)
(0.0359499 -0.0221859 0)
(0.0247608 -0.0550633 0)
(0.00926012 -0.0647138 0)
(-0.00110926 -0.0566722 0)
(-0.00767266 -0.0539066 0)
(-0.00449496 -0.0603576 0)
(-0.00622949 -0.0596796 0)
(-0.00701508 -0.0423347 0)
(0.00123876 -0.0485625 0)
(0.00643968 -0.0803256 0)
(-0.00111481 -0.0906525 0)
(-0.00768767 -0.0800857 0)
(-0.0166024 -0.0718663 0)
(-0.0248294 -0.0610543 0)
(-0.0340101 -0.0502111 0)
(-0.0315017 -0.0326673 0)
(-0.0166797 -0.0152477 0)
(-0.0024106 -0.0214165 0)
(0.0115606 -0.0299405 0)
(0.0195479 -0.0433062 0)
(0.0273316 -0.0690713 0)
(0.0311345 -0.0779003 0)
(0.0345365 -0.0686565 0)
(0.0321343 -0.0491694 0)
(0.0291017 -0.0330363 0)
(0.0224681 -0.0147627 0)
(0.0142854 0.0116255 0)
(0.0258718 0.0286647 0)
(0.0300828 0.0285432 0)
(0.0420803 0.00435281 0)
(0.0323289 -0.0477201 0)
(0.020367 -0.069549 0)
(0.00658942 -0.0718629 0)
(-0.00357306 -0.0659983 0)
(-0.00868696 -0.0672226 0)
(-0.00863044 -0.0736788 0)
(-0.0124379 -0.0665148 0)
(-0.0128756 -0.0490428 0)
(0.00384308 -0.0527373 0)
(0.00500034 -0.0831612 0)
(-0.00692875 -0.100935 0)
(-0.0161775 -0.0978324 0)
(-0.0220655 -0.0921759 0)
(-0.0255756 -0.0735676 0)
(-0.0302583 -0.0604216 0)
(-0.0292627 -0.0599673 0)
(-0.0140152 -0.0471786 0)
(0.00214219 -0.0491892 0)
(0.0129152 -0.0545359 0)
(0.0225153 -0.0701972 0)
(0.0230238 -0.091778 0)
(0.0218195 -0.0986773 0)
(0.0243393 -0.0832711 0)
(0.0231162 -0.0616844 0)
(0.018764 -0.0331165 0)
(0.0148977 -0.0133501 0)
(0.011565 0.00370474 0)
(0.0204307 0.0213301 0)
(0.0319595 0.0133536 0)
(0.0307529 -0.0141088 0)
(0.0263457 -0.0502765 0)
(0.0149743 -0.0678308 0)
(0.00456802 -0.0739072 0)
(-0.0018526 -0.082847 0)
(-0.00361235 -0.0917264 0)
(-0.00653445 -0.0950528 0)
(-0.0136868 -0.0863308 0)
(-0.0140865 -0.0706811 0)
(0.00700855 -0.0893883 0)
(0.000626925 -0.110227 0)
(-0.0157609 -0.106735 0)
(-0.0237841 -0.0903182 0)
(-0.0259642 -0.0833871 0)
(-0.0262417 -0.0720124 0)
(-0.0206825 -0.0629188 0)
(-0.0198818 -0.0727109 0)
(-0.0152241 -0.0737472 0)
(-0.000606456 -0.065626 0)
(0.0098193 -0.0663169 0)
(0.0191844 -0.0768181 0)
(0.0192092 -0.0996681 0)
(0.0174547 -0.104643 0)
(0.0199107 -0.0886766 0)
(0.0159753 -0.0662422 0)
(0.00928464 -0.029846 0)
(0.00720117 -0.00688225 0)
(0.00835904 0.00472768 0)
(0.0155966 0.0142981 0)
(0.0218464 0.00442356 0)
(0.0203642 -0.0182957 0)
(0.015464 -0.0493168 0)
(0.00668425 -0.0676273 0)
(0.00327565 -0.0777376 0)
(0.00214992 -0.087313 0)
(0.00189329 -0.0981576 0)
(0.000491284 -0.108351 0)
(-0.00386234 -0.115757 0)
(-0.00873835 -0.10814 0)
(0.00160498 -0.107775 0)
(-0.0059823 -0.115489 0)
(-0.0128351 -0.102962 0)
(-0.0166826 -0.0876704 0)
(-0.0190949 -0.0793001 0)
(-0.0179134 -0.0751874 0)
(-0.0129287 -0.0674914 0)
(-0.00980336 -0.0732338 0)
(-0.010448 -0.0771798 0)
(-0.00992666 -0.0804332 0)
(0.00547203 -0.0770576 0)
(0.0166518 -0.0804981 0)
(0.019644 -0.0980749 0)
(0.0174389 -0.0997824 0)
(0.0156784 -0.0839947 0)
(0.00754763 -0.0542822 0)
(0.00130919 -0.0249728 0)
(0.00205863 -0.000759402 0)
(0.00737982 0.00599988 0)
(0.0103606 0.00520444 0)
(0.0140459 -0.000596647 0)
(0.0133947 -0.0197641 0)
(0.00889832 -0.0477277 0)
(0.0036387 -0.0676841 0)
(0.000200432 -0.0823197 0)
(0.0012178 -0.0890333 0)
(0.00146359 -0.0992581 0)
(0.0018045 -0.11117 0)
(0.00187526 -0.122479 0)
(-0.00342555 -0.124502 0)
(-0.00141584 -0.107856 0)
(-0.00796335 -0.111239 0)
(-0.0108883 -0.0993656 0)
(-0.0136179 -0.085247 0)
(-0.0113034 -0.0797064 0)
(-0.00771829 -0.0793894 0)
(-0.00493711 -0.0766996 0)
(0.00119744 -0.0748834 0)
(-0.000566376 -0.0756315 0)
(-0.0037224 -0.0791385 0)
(0.00178626 -0.0773174 0)
(0.0144361 -0.0790094 0)
(0.0161621 -0.0924625 0)
(0.0122938 -0.0925107 0)
(0.00740054 -0.0748326 0)
(0.00222905 -0.0366786 0)
(-0.00566291 -0.0130359 0)
(-0.000233851 0.00251983 0)
(0.00944002 0.0076511 0)
(0.00877306 0.000864192 0)
(0.00762486 -0.00705841 0)
(0.00709512 -0.0248926 0)
(0.00459003 -0.048821 0)
(-0.00104818 -0.0707935 0)
(-0.00765297 -0.0868278 0)
(-0.00374968 -0.0892445 0)
(0.000741093 -0.0966958 0)
(0.00139406 -0.109257 0)
(0.00170346 -0.119395 0)
(-0.000184 -0.122708 0)
(-0.000123568 -0.10139 0)
(-0.00490326 -0.105465 0)
(-0.00937114 -0.0949226 0)
(-0.00758912 -0.0845513 0)
(-0.00073878 -0.0822994 0)
(0.00485606 -0.0844685 0)
(0.00781588 -0.0850321 0)
(0.00632943 -0.0803023 0)
(0.00788692 -0.0750702 0)
(0.00606366 -0.0770862 0)
(0.00268776 -0.0809907 0)
(0.00403149 -0.0828085 0)
(0.00704801 -0.0876442 0)
(0.00624502 -0.0825019 0)
(0.00127755 -0.0598168 0)
(-0.00577418 -0.0236706 0)
(-0.0113887 -0.00214032 0)
(-0.00185036 0.00629921 0)
(0.0102306 0.00620076 0)
(0.0122864 -0.00162446 0)
(0.00757994 -0.0153824 0)
(0.00492059 -0.0310469 0)
(9.35976e-05 -0.049783 0)
(-0.00368445 -0.0677538 0)
(-0.00787479 -0.0858976 0)
(-0.00917533 -0.0916835 0)
(-0.0023536 -0.0946642 0)
(0.00100783 -0.104549 0)
(-0.00182783 -0.114709 0)
(0.000663486 -0.116189 0)
(-0.00162623 -0.0988602 0)
(-0.00518402 -0.096677 0)
(-0.00553737 -0.0897005 0)
(0.0033455 -0.0876784 0)
(0.0119642 -0.0884353 0)
(0.0153188 -0.0877432 0)
(0.0178173 -0.089077 0)
(0.0162411 -0.085161 0)
(0.0175235 -0.0777892 0)
(0.0120202 -0.0752316 0)
(0.00837889 -0.0749759 0)
(0.00206503 -0.0795152 0)
(-0.000114763 -0.0842025 0)
(0.000520065 -0.0759322 0)
(-0.00427368 -0.0440276 0)
(-0.0103279 -0.0146449 0)
(-0.0116645 0.0048917 0)
(-0.00153359 0.00781815 0)
(0.0114849 0.00334067 0)
(0.0170105 -0.00634299 0)
(0.0138761 -0.0232754 0)
(0.00286359 -0.0360667 0)
(-0.000255946 -0.0473945 0)
(-0.00330769 -0.0616264 0)
(-0.00560347 -0.077572 0)
(-0.0124108 -0.0907961 0)
(-0.00810405 -0.0925107 0)
(0.000154716 -0.0978377 0)
(-0.000875929 -0.104311 0)
(0.000728679 -0.10728 0)
(-0.00750489 -0.0927117 0)
(-0.000732413 -0.0904845 0)
(0.00359965 -0.0921372 0)
(0.0173588 -0.0941358 0)
(0.0235154 -0.0923872 0)
(0.0263148 -0.0905313 0)
(0.0255766 -0.0926236 0)
(0.0251158 -0.0846131 0)
(0.0234388 -0.0779411 0)
(0.0183113 -0.0777151 0)
(0.0120184 -0.0739456 0)
(0.00482811 -0.0768921 0)
(-0.00252872 -0.0805438 0)
(-0.00504597 -0.0691701 0)
(-0.00562698 -0.039548 0)
(-0.00826207 -0.0143233 0)
(-0.00682693 0.00811391 0)
(0.002861 0.00702838 0)
(0.0165693 -0.000468395 0)
(0.0195297 -0.0100979 0)
(0.016269 -0.0253475 0)
(0.00808892 -0.0318743 0)
(0.00351544 -0.0409078 0)
(-0.00458101 -0.0528756 0)
(-0.0023601 -0.0635978 0)
(-0.00678134 -0.0817027 0)
(-0.0121325 -0.0927362 0)
(-0.00471759 -0.096487 0)
(-0.00247355 -0.0949451 0)
(0.00394591 -0.0962345 0)
(-0.0103989 -0.0817557 0)
(-0.00223701 -0.0851729 0)
(0.00767056 -0.0958182 0)
(0.0207522 -0.0960306 0)
(0.0268403 -0.0920003 0)
(0.028535 -0.088853 0)
(0.0289031 -0.0908226 0)
(0.0307201 -0.0829078 0)
(0.0252264 -0.0696992 0)
(0.02182 -0.0755336 0)
(0.0147276 -0.0724894 0)
(0.00632064 -0.0739559 0)
(0.000280333 -0.0745305 0)
(-0.00436772 -0.0668368 0)
(-0.00385999 -0.0395033 0)
(-0.00593803 -0.0179157 0)
(0.00168369 0.0089223 0)
(0.0111572 0.00660296 0)
(0.0185263 -0.00343152 0)
(0.0176908 -0.0124282 0)
(0.0155764 -0.0212844 0)
(0.0149827 -0.0264208 0)
(0.00830317 -0.0342934 0)
(-0.00536168 -0.0447026 0)
(-0.0020044 -0.0549275 0)
(-0.00274558 -0.0692599 0)
(-0.00831848 -0.085656 0)
(-0.00720563 -0.0952112 0)
(-0.00484947 -0.0911103 0)
(0.00378846 -0.0833177 0)
(-0.00452912 -0.068087 0)
(0.00103009 -0.0856131 0)
(0.00810202 -0.093435 0)
(0.0177788 -0.0957046 0)
(0.022803 -0.0888598 0)
(0.0240128 -0.0848475 0)
(0.0259177 -0.0870219 0)
(0.0255551 -0.0845802 0)
(0.023493 -0.0668323 0)
(0.0253181 -0.0700718 0)
(0.0150164 -0.0688894 0)
(0.00675694 -0.0712867 0)
(0.0018506 -0.0692629 0)
(-0.00170667 -0.0636231 0)
(-0.002712 -0.0385385 0)
(0.00290467 -0.0192074 0)
(0.0107156 0.0116394 0)
(0.0174323 0.00718574 0)
(0.0175555 -0.0062958 0)
(0.0164922 -0.0107647 0)
(0.0134526 -0.0151681 0)
(0.0142072 -0.0202805 0)
(0.0133023 -0.0291238 0)
(-0.0016083 -0.0385493 0)
(-0.00171611 -0.0502735 0)
(-0.00138512 -0.0629849 0)
(-0.00593718 -0.0818035 0)
(-0.00594858 -0.0945077 0)
(-0.00736003 -0.0941242 0)
(-0.00247742 -0.0770121 0)
(0.0010837 -0.0672202 0)
(0.00379892 -0.084336 0)
(0.00733346 -0.0909587 0)
(0.0140617 -0.091166 0)
(0.0189106 -0.0844763 0)
(0.0206669 -0.0811944 0)
(0.0214068 -0.082206 0)
(0.0195521 -0.0810848 0)
(0.0179215 -0.0636575 0)
(0.0227364 -0.0627387 0)
(0.0143454 -0.063949 0)
(0.00504605 -0.0657722 0)
(0.00101355 -0.0645908 0)
(3.25596e-05 -0.0605667 0)
(0.00061955 -0.0392049 0)
(0.00836905 -0.0154833 0)
(0.0149072 0.0125988 0)
(0.0222067 0.0108454 0)
(0.0191944 -0.00361122 0)
(0.0143952 -0.00811281 0)
(0.0123029 -0.0100731 0)
(0.0113179 -0.0144918 0)
(0.0142733 -0.0239662 0)
(0.000596018 -0.0363681 0)
(-0.00146014 -0.0478744 0)
(-0.00116529 -0.0605988 0)
(-0.00408837 -0.0782606 0)
(-0.00592997 -0.0962603 0)
(-0.00804933 -0.0999841 0)
(-0.00659796 -0.0853488 0)
(0.00455071 -0.0692459 0)
(0.00663059 -0.0863213 0)
(0.00711554 -0.0915508 0)
(0.0110955 -0.0893614 0)
(0.0166593 -0.0830213 0)
(0.0195378 -0.0787457 0)
(0.019506 -0.0761811 0)
(0.0141862 -0.077606 0)
(0.0116286 -0.0660609 0)
(0.0158915 -0.0599697 0)
(0.0121522 -0.0654993 0)
(0.000110785 -0.0621973 0)
(-0.00324159 -0.0620506 0)
(-0.00162765 -0.0593848 0)
(-0.00264486 -0.0436512 0)
(0.00247038 -0.0140622 0)
(0.0119671 0.0118646 0)
(0.0210232 0.012254 0)
(0.0231515 0.00394845 0)
(0.0140593 -0.00654871 0)
(0.00965923 -0.013436 0)
(0.00826329 -0.0111986 0)
(0.00952401 -0.0180976 0)
(0.00231839 -0.0306284 0)
(-0.00170515 -0.0459588 0)
(-0.00249259 -0.0599991 0)
(-0.00512679 -0.0797208 0)
(-0.00809749 -0.0997076 0)
(-0.0080189 -0.107574 0)
(-0.00785988 -0.0931534 0)
(0.00683224 -0.0773505 0)
(0.00829927 -0.0898608 0)
(0.00824579 -0.0906993 0)
(0.0119367 -0.0864732 0)
(0.0148318 -0.0813468 0)
(0.0179546 -0.0765577 0)
(0.0157538 -0.0738632 0)
(0.0108743 -0.0727225 0)
(0.0075019 -0.06785 0)
(0.00737659 -0.0572513 0)
(0.0101982 -0.0654088 0)
(-0.00384743 -0.06826 0)
(-0.00758062 -0.0607694 0)
(-0.00530246 -0.0590184 0)
(-0.00891532 -0.0498112 0)
(-0.00692584 -0.0226708 0)
(0.010081 0.00605069 0)
(0.0232744 0.0109554 0)
(0.0288566 0.00643195 0)
(0.0183913 -0.0136469 0)
(0.00843205 -0.0088594 0)
(0.00767371 -0.00243265 0)
(0.00723982 -0.00917556 0)
(0.00822559 -0.0230534 0)
(0.00114721 -0.0401725 0)
(-0.0026097 -0.0580457 0)
(-0.00611255 -0.0798535 0)
(-0.00868944 -0.102287 0)
(-0.00810832 -0.113236 0)
(-0.00771192 -0.103042 0)
(0.00745652 -0.0841082 0)
(0.00841304 -0.0905869 0)
(0.00843296 -0.0879044 0)
(0.011044 -0.0833785 0)
(0.0132397 -0.0789446 0)
(0.0160221 -0.0728422 0)
(0.0124987 -0.0669127 0)
(0.00582604 -0.065799 0)
(0.000167262 -0.0644068 0)
(-0.000408081 -0.0525217 0)
(0.00382488 -0.0613617 0)
(-0.00522781 -0.0684033 0)
(-0.0121357 -0.0691113 0)
(-0.0128003 -0.0593937 0)
(-0.0149232 -0.050436 0)
(-0.0109439 -0.0300889 0)
(0.00319167 -0.00726097 0)
(0.0227333 -0.00239994 0)
(0.0276549 -0.0108868 0)
(0.0216747 -0.00598744 0)
(0.0126253 0.00207626 0)
(0.00915149 0.00939416 0)
(0.00777234 0.00424818 0)
(0.0104072 -0.0126906 0)
(0.0110368 -0.0312811 0)
(0.00129468 -0.0512974 0)
(-0.00590545 -0.0784834 0)
(-0.00750489 -0.103758 0)
(-0.00771311 -0.118173 0)
(-0.00706028 -0.111244 0)
(0.00775765 -0.0888803 0)
(0.00878459 -0.0916327 0)
(0.00852602 -0.0875364 0)
(0.00937989 -0.080735 0)
(0.00879883 -0.0764849 0)
(0.00922896 -0.066476 0)
(0.00612274 -0.0569553 0)
(-0.000112358 -0.0565124 0)
(-0.00487088 -0.0595931 0)
(-0.0073234 -0.0467083 0)
(0.00147418 -0.0559986 0)
(-0.00708426 -0.0625233 0)
(-0.0168057 -0.0686013 0)
(-0.0187066 -0.0611419 0)
(-0.0207924 -0.0517791 0)
(-0.0123361 -0.0369434 0)
(0.00263889 -0.0262266 0)
(0.0155362 -0.0463458 0)
(0.0186827 -0.0284441 0)
(0.021371 -0.00354313 0)
(0.0173176 0.0133243 0)
(0.0138753 0.0227852 0)
(0.00946215 0.0162121 0)
(0.0133398 -0.000679139 0)
(0.0163907 -0.02272 0)
(0.0119138 -0.0415 0)
(-0.00106856 -0.0737735 0)
(-0.00744059 -0.105478 0)
(-0.0075921 -0.121063 0)
(-0.00559643 -0.117921 0)
(0.00954779 -0.0954 0)
(0.00885966 -0.0962204 0)
(0.0091287 -0.0880969 0)
(0.0100091 -0.0778655 0)
(0.00272033 -0.0723883 0)
(-0.00169667 -0.0629058 0)
(-0.00274794 -0.0544167 0)
(-0.00376079 -0.0560872 0)
(-0.0123715 -0.0630592 0)
(-0.0147989 -0.0456523 0)
(-0.00360807 -0.053062 0)
(-0.00683057 -0.0572554 0)
(-0.0195699 -0.0635279 0)
(-0.0227677 -0.0620768 0)
(-0.0247636 -0.054232 0)
(-0.0134557 -0.0432795 0)
(-0.000491924 -0.0469295 0)
(0.00804141 -0.0652959 0)
(0.00920612 -0.0403322 0)
(0.01631 -0.00838729 0)
(0.0164184 0.0189663 0)
(0.0168125 0.0338664 0)
(0.0131393 0.0288667 0)
(0.0174507 0.00950667 0)
(0.018902 -0.0110989 0)
(0.0164259 -0.0356686 0)
(0.0102707 -0.0653423 0)
(-0.00686857 -0.10115 0)
(-0.00825447 -0.119287 0)
(-0.00447063 -0.122294 0)
(0.008174 -0.104406 0)
(0.00844654 -0.100911 0)
(0.00889468 -0.0880221 0)
(0.00680609 -0.0711113 0)
(-0.00581096 -0.0645469 0)
(-0.00667047 -0.05907 0)
(-0.00581734 -0.066974 0)
(-0.00643429 -0.0860181 0)
(-0.0166192 -0.0947098 0)
(-0.021599 -0.066769 0)
(-0.0120079 -0.0568011 0)
(-0.00722395 -0.0531152 0)
(-0.019122 -0.0618632 0)
(-0.0252249 -0.062634 0)
(-0.0261251 -0.054134 0)
(-0.0156564 -0.04589 0)
(-0.0038065 -0.0597661 0)
(-0.0019992 -0.0802758 0)
(-0.00169305 -0.0462765 0)
(0.00840901 -0.0192239 0)
(0.0116616 0.0169332 0)
(0.0156463 0.0350912 0)
(0.0168581 0.0326122 0)
(0.0233929 0.0196917 0)
(0.0226974 0.00088114 0)
(0.0169127 -0.028306 0)
(0.00303078 -0.0689316 0)
(-0.00880586 -0.0986984 0)
(-0.00803727 -0.116518 0)
(-0.0033529 -0.121529 0)
(0.00125404 -0.116084 0)
(0.00812331 -0.104723 0)
(0.00559978 -0.0863377 0)
(0.00117672 -0.0645281 0)
(-0.00603428 -0.0615301 0)
(-0.00429814 -0.0730574 0)
(-0.0135424 -0.0887185 0)
(-0.00787804 -0.115926 0)
(-0.00985886 -0.123836 0)
(-0.0195219 -0.0937168 0)
(-0.0125832 -0.066732 0)
(-0.00658344 -0.0552476 0)
(-0.0170106 -0.0608485 0)
(-0.0276425 -0.0620185 0)
(-0.0268097 -0.0520745 0)
(-0.0194217 -0.0459601 0)
(-0.00886022 -0.0645222 0)
(-0.0129811 -0.0885434 0)
(-0.010942 -0.0471983 0)
(0.000212356 -0.0227647 0)
(0.00657237 0.013329 0)
(0.0148817 0.0329022 0)
(0.0170032 0.0331722 0)
(0.0254197 0.0226039 0)
(0.0240622 0.00402056 0)
(0.0129021 -0.0293169 0)
(-0.00598351 -0.0719805 0)
(-0.00895732 -0.0959799 0)
(-0.00863386 -0.11739 0)
(-0.00336459 -0.122453 0)
(-0.00721766 -0.120902 0)
(0.00235953 -0.107917 0)
(-0.00339246 -0.0808913 0)
(-0.011282 -0.0698557 0)
(-0.0107833 -0.0831266 0)
(-0.00741455 -0.106702 0)
(-0.00690145 -0.134103 0)
(-0.00285676 -0.157268 0)
(-0.00091783 -0.157946 0)
(-0.00564189 -0.117912 0)
(-0.00753465 -0.0730465 0)
(-0.0058925 -0.0578545 0)
(-0.0158968 -0.0625119 0)
(-0.025753 -0.0581037 0)
(-0.0258368 -0.0484707 0)
(-0.0224971 -0.043766 0)
(-0.0113437 -0.0695303 0)
(-0.0223149 -0.0937951 0)
(-0.0232349 -0.0514964 0)
(-0.0124535 -0.0280957 0)
(1.89822e-05 0.00397589 0)
(0.0120333 0.0297729 0)
(0.015581 0.0325129 0)
(0.0241535 0.020729 0)
(0.0271457 0.00753969 0)
(0.0194849 -0.0215337 0)
(-0.00115913 -0.0639735 0)
(-0.00562502 -0.0925727 0)
(-0.00707315 -0.117084 0)
(-0.00258612 -0.12573 0)
(-0.0124921 -0.117123 0)