/*--------------------------------*- C++ -*----------------------------------*\
| =========                 |                                                 |
| \\      /  F ield         | OpenFOAM: The Open Source CFD Toolbox           |
|  \\    /   O peration     | Version:  v1606+                                |
|   \\  /    A nd           | Web:      www.OpenFOAM.com                      |
|    \\/     M anipulation  |                                                 |
\*---------------------------------------------------------------------------*/
FoamFile
{
    version     2.0;
    format      ascii;
    class       volVectorField;
    location    "1.88";
    object      U;
}
// * * * * * * * * * * * * * * * * * * * * * * * * * * * * * * * * * * * * * //

dimensions      [0 1 -1 0 0 0 0];

internalField   nonuniform List<vector> 
6000
(
(-0.0222054 -0.0235107 0)
(-0.0113607 -0.116148 0)
(0.00357969 -0.112554 0)
(0.0225118 -0.0970953 0)
(0.041602 -0.0810902 0)
(0.0417604 -0.0755928 0)
(0.00124505 -0.0440942 0)
(-0.0379575 -0.0523134 0)
(-0.0522708 -0.0724514 0)
(-0.0567384 -0.0863896 0)
(-0.0489124 -0.0985143 0)
(-0.0363408 -0.105269 0)
(-0.0260682 -0.100856 0)
(-0.0189771 -0.11002 0)
(-0.0109119 -0.120912 0)
(-0.00268639 -0.124714 0)
(-0.00155437 -0.108854 0)
(-0.0112711 -0.0843563 0)
(-0.0272763 -0.064973 0)
(-0.036425 -0.0390012 0)
(-0.0362824 -0.0320593 0)
(-0.0372551 -0.0345497 0)
(-0.0397643 -0.0416082 0)
(-0.0473517 -0.0445864 0)
(-0.0586666 -0.0660812 0)
(-0.0724169 -0.0640133 0)
(-0.0845034 -0.0552465 0)
(-0.062416 -0.0685429 0)
(-0.0199813 -0.101268 0)
(0.0181383 -0.0193229 0)
(0.0225381 0.598908 0)
(0.000590135 0.650954 0)
(-0.0176836 0.651815 0)
(-0.0206445 0.639705 0)
(-0.0295655 0.632153 0)
(-0.0373269 0.689139 0)
(-0.027574 0.715049 0)
(0.0066462 0.661473 0)
(0.0262074 0.65274 0)
(0.0343653 0.644456 0)
(0.0192348 0.633743 0)
(-0.00661899 0.633665 0)
(-0.0119934 0.648399 0)
(-0.0137013 0.653684 0)
(-0.0147192 0.655603 0)
(-0.0161604 0.665953 0)
(-0.0403777 0.676517 0)
(-0.0819749 0.687616 0)
(-0.128855 0.663165 0)
(-0.165607 0.626389 0)
(-0.18878 0.617109 0)
(-0.193922 0.624732 0)
(-0.169756 0.633252 0)
(-0.118312 0.630728 0)
(-0.0642517 0.642214 0)
(-0.032264 0.650885 0)
(-0.0147134 0.609271 0)
(0.00113096 0.566011 0)
(0.0027813 0.564715 0)
(-0.0238314 0.562147 0)
(-0.0207735 0.504228 0)
(-0.0335081 0.456441 0)
(-0.0487001 0.431102 0)
(-0.055476 0.435615 0)
(-0.0650211 0.451044 0)
(-0.0561554 0.482464 0)
(-0.00615147 0.449537 0)
(0.0540261 0.42944 0)
(0.0954398 0.441436 0)
(0.12911 0.45942 0)
(0.125806 0.466283 0)
(0.0910764 0.448513 0)
(0.0433579 0.416017 0)
(-0.0138804 0.418335 0)
(-0.0443419 0.411393 0)
(-0.0508772 0.432209 0)
(-0.0936349 0.485235 0)
(-0.167974 0.538785 0)
(-0.247737 0.541812 0)
(-0.320425 0.53151 0)
(-0.358277 0.497833 0)
(-0.345568 0.453667 0)
(-0.292705 0.418073 0)
(-0.219394 0.395734 0)
(-0.139012 0.403195 0)
(-0.0478161 0.444054 0)
(-0.00444684 0.47667 0)
(0.0111874 0.416863 0)
(0.00481622 0.416407 0)
(-0.00150885 0.508282 0)
(-0.00973129 0.566326 0)
(-0.0322281 0.542564 0)
(-0.0692608 0.530586 0)
(-0.0880755 0.517384 0)
(-0.0775679 0.501425 0)
(-0.0314041 0.482937 0)
(0.0557706 0.452574 0)
(0.129386 0.44231 0)
(0.187071 0.461063 0)
(0.230813 0.495879 0)
(0.254609 0.551798 0)
(0.219584 0.58847 0)
(0.126116 0.604492 0)
(0.00844327 0.60505 0)
(-0.0741683 0.507042 0)
(-0.134868 0.551892 0)
(-0.225782 0.66732 0)
(-0.318331 0.731038 0)
(-0.394926 0.711637 0)
(-0.455762 0.642116 0)
(-0.458744 0.543371 0)
(-0.422058 0.452845 0)
(-0.362553 0.390458 0)
(-0.288444 0.354715 0)
(-0.210242 0.365862 0)
(-0.120989 0.399364 0)
(-0.0345256 0.440803 0)
(0.012988 0.458515 0)
(0.0123504 0.460092 0)
(-0.0114027 0.494251 0)
(-0.0140952 0.566188 0)
(-0.0413211 0.5581 0)
(-0.070901 0.535979 0)
(-0.0675092 0.508388 0)
(-0.031096 0.452657 0)
(0.0434268 0.406536 0)
(0.101888 0.36568 0)
(0.153728 0.352838 0)
(0.202542 0.382033 0)
(0.247413 0.439194 0)
(0.279797 0.529319 0)
(0.267578 0.645693 0)
(0.173035 0.72387 0)
(0.0591738 0.724187 0)
(-0.0616873 0.626823 0)
(-0.194414 0.665958 0)
(-0.296807 0.750249 0)
(-0.344402 0.753326 0)
(-0.387267 0.74277 0)
(-0.401161 0.627553 0)
(-0.359785 0.491552 0)
(-0.296245 0.379984 0)
(-0.235644 0.313175 0)
(-0.187088 0.274888 0)
(-0.151011 0.276663 0)
(-0.112405 0.312881 0)
(-0.0608703 0.374685 0)
(-0.00287577 0.408443 0)
(0.0330015 0.484939 0)
(0.00227553 0.507943 0)
(-0.0185327 0.627796 0)
(-0.0431743 0.615253 0)
(-0.0406256 0.569948 0)
(0.00339722 0.47824 0)
(0.0480551 0.393333 0)
(0.0715638 0.349202 0)
(0.0770676 0.327208 0)
(0.0844978 0.318602 0)
(0.105752 0.339409 0)
(0.145145 0.394566 0)
(0.190871 0.504631 0)
(0.209332 0.687475 0)
(0.140064 0.828806 0)
(0.0431704 0.805738 0)
(-0.0638043 0.768768 0)
(-0.181451 0.773443 0)
(-0.25982 0.791728 0)
(-0.297518 0.787326 0)
(-0.317448 0.762763 0)
(-0.275446 0.594393 0)
(-0.189771 0.41768 0)
(-0.119023 0.310666 0)
(-0.0808414 0.268583 0)
(-0.0644092 0.25318 0)
(-0.05666 0.259776 0)
(-0.0462941 0.284822 0)
(-0.0446743 0.34293 0)
(-0.0156695 0.359547 0)
(0.00966654 0.464445 0)
(0.00850268 0.575795 0)
(-0.0100785 0.653562 0)
(-0.0069165 0.596135 0)
(0.0405648 0.496655 0)
(0.068463 0.419401 0)
(0.0643286 0.378956 0)
(0.0426939 0.354143 0)
(0.0258629 0.332765 0)
(0.0134 0.31949 0)
(0.00771995 0.323958 0)
(0.019539 0.352404 0)
(0.0592407 0.450838 0)
(0.0977709 0.696067 0)
(0.0739766 0.906432 0)
(-0.00376541 0.886735 0)
(-0.0787492 0.853051 0)
(-0.145363 0.845092 0)
(-0.205042 0.838146 0)
(-0.235664 0.813836 0)
(-0.207514 0.720636 0)
(-0.103254 0.499533 0)
(-0.0182928 0.341936 0)
(0.011515 0.278365 0)
(0.011931 0.259954 0)
(0.00586217 0.251944 0)
(0.00143487 0.256 0)
(0.00351587 0.278423 0)
(0.0116704 0.328472 0)
(0.0210575 0.358741 0)
(0.0115313 0.417787 0)
(-0.0488114 0.55525 0)
(0.00240006 0.632554 0)
(0.0435511 0.533928 0)
(0.0672266 0.461038 0)
(0.0551162 0.420703 0)
(0.0300417 0.395173 0)
(0.0012538 0.375808 0)
(-0.0242828 0.353778 0)
(-0.0449162 0.337564 0)
(-0.0625812 0.33321 0)
(-0.0726673 0.344016 0)
(-0.0617088 0.41111 0)
(-0.0305455 0.661092 0)
(-0.0174157 0.967304 0)
(-0.0641054 0.954023 0)
(-0.118303 0.91032 0)
(-0.139593 0.886549 0)
(-0.158883 0.875737 0)
(-0.140483 0.820063 0)
(-0.0461023 0.61038 0)
(0.0563233 0.402562 0)
(0.0962716 0.311499 0)
(0.0855702 0.282894 0)
(0.0642271 0.27419 0)
(0.0430353 0.264715 0)
(0.0304824 0.261124 0)
(0.030369 0.273506 0)
(0.0438425 0.314373 0)
(0.0522349 0.367784 0)
(0.0334848 0.442304 0)
(0.00823812 0.485215 0)
(0.00590641 0.558597 0)
(0.0413928 0.459092 0)
(0.0648155 0.46421 0)
(0.0354622 0.46796 0)
(-0.0228301 0.448324 0)
(-0.0691894 0.415918 0)
(-0.0892999 0.375492 0)
(-0.102213 0.358569 0)
(-0.123415 0.354547 0)
(-0.144663 0.360383 0)
(-0.16005 0.406957 0)
(-0.161416 0.619418 0)
(-0.140754 0.981619 0)
(-0.146846 1.02354 0)
(-0.172314 0.939154 0)
(-0.148263 0.888197 0)
(-0.0905088 0.857668 0)
(0.0116756 0.745971 0)
(0.117004 0.491092 0)
(0.175157 0.353916 0)
(0.171224 0.316144 0)
(0.142059 0.313396 0)
(0.10069 0.307527 0)
(0.062901 0.289728 0)
(0.042318 0.270907 0)
(0.0445134 0.266853 0)
(0.0678911 0.295062 0)
(0.0896816 0.364561 0)
(0.0809024 0.497111 0)
(0.0827378 0.60566 0)
(0.0232382 0.571962 0)
(0.0586249 0.425173 0)
(0.0774607 0.438663 0)
(0.0452084 0.460774 0)
(-0.0177475 0.443167 0)
(-0.0893031 0.421296 0)
(-0.131376 0.396953 0)
(-0.148176 0.380014 0)
(-0.166664 0.377051 0)
(-0.192764 0.392204 0)
(-0.227897 0.434573 0)
(-0.262347 0.609428 0)
(-0.272041 0.958742 0)
(-0.227951 1.05416 0)
(-0.196103 0.92288 0)
(-0.112807 0.805671 0)
(0.0136996 0.745008 0)
(0.159803 0.61978 0)
(0.229763 0.411174 0)
(0.256942 0.340523 0)
(0.235348 0.35003 0)
(0.192385 0.359942 0)
(0.127374 0.363437 0)
(0.0628517 0.329572 0)
(0.0323108 0.282469 0)
(0.0391311 0.248179 0)
(0.0667375 0.267295 0)
(0.104822 0.381795 0)
(0.0902563 0.441167 0)
(0.0549961 0.609301 0)
(0.0405595 0.587205 0)
(0.0870993 0.444015 0)
(0.164935 0.531143 0)
(0.188674 0.624528 0)
(0.147759 0.651102 0)
(0.0585895 0.5428 0)
(-0.0373299 0.385118 0)
(-0.114175 0.375171 0)
(-0.152128 0.41181 0)
(-0.191994 0.44971 0)
(-0.250136 0.499997 0)
(-0.313255 0.637807 0)
(-0.323239 0.911033 0)
(-0.25057 0.988006 0)
(-0.161617 0.831284 0)
(-0.0400619 0.650536 0)
(0.0887639 0.590704 0)
(0.240915 0.496519 0)
(0.311297 0.34932 0)
(0.315517 0.355248 0)
(0.29273 0.385109 0)
(0.25547 0.404958 0)
(0.151055 0.444439 0)
(0.0312618 0.380207 0)
(-0.0132926 0.293885 0)
(-0.0100162 0.233762 0)
(0.0114307 0.277241 0)
(-0.00333895 0.264657 0)
(0.0262418 0.594071 0)
(0.00756411 0.811813 0)
(0.031684 0.511269 0)
(0.0564391 0.314222 0)
(0.141138 0.400491 0)
(0.22386 0.547066 0)
(0.271153 0.632332 0)
(0.281074 0.642971 0)
(0.231979 0.613082 0)
(0.118298 0.491808 0)
(0.0119215 0.407802 0)
(-0.0875218 0.444773 0)
(-0.173714 0.536663 0)
(-0.248311 0.647068 0)
(-0.274448 0.832257 0)
(-0.208762 0.874799 0)
(-0.117436 0.725277 0)
(-0.00386185 0.511803 0)
(0.107802 0.458508 0)
(0.266242 0.362576 0)
(0.32345 0.314987 0)
(0.340628 0.357818 0)
(0.341275 0.403658 0)
(0.323623 0.469719 0)
(0.12881 0.612295 0)
(-0.0734077 0.493748 0)
(-0.15281 0.34305 0)
(-0.182902 0.248104 0)
(-0.270096 0.236268 0)
(-0.26443 0.351913 0)
(-0.209347 0.50042 0)
(-0.0816613 0.721516 0)
(0.0364328 0.497848 0)
(0.037948 0.259034 0)
(0.0489102 0.322657 0)
(0.111298 0.464854 0)
(0.190277 0.56714 0)
(0.246546 0.586274 0)
(0.297779 0.592926 0)
(0.321905 0.616264 0)
(0.279557 0.638512 0)
(0.174768 0.68286 0)
(0.0568559 0.712298 0)
(-0.0557305 0.719901 0)
(-0.0911385 0.750109 0)
(-0.0905814 0.759821 0)
(-0.0494291 0.622082 0)
(-0.00410485 0.406683 0)
(0.103133 0.340587 0)
(0.237766 0.243508 0)
(0.305999 0.277871 0)
(0.331395 0.34951 0)
(0.339481 0.428314 0)
(0.221348 0.562059 0)
(-0.119288 0.960753 0)
(-0.390833 0.663924 0)
(-0.458411 0.310517 0)
(-0.437532 0.235442 0)
(-0.377432 0.265582 0)
(-0.299185 0.261037 0)
(-0.227864 0.341231 0)
(-0.118487 0.523463 0)
(0.048732 0.441101 0)
(0.0373474 0.279376 0)
(0.000892484 0.323445 0)
(-0.0267258 0.408245 0)
(0.0166469 0.491488 0)
(0.0723193 0.517778 0)
(0.131205 0.515378 0)
(0.20922 0.531858 0)
(0.285899 0.603837 0)
(0.308313 0.695199 0)
(0.279533 0.829877 0)
(0.207605 0.936943 0)
(0.128372 0.97276 0)
(0.0871487 0.858209 0)
(0.0581631 0.631842 0)
(0.0412954 0.342598 0)
(0.0951354 0.229264 0)
(0.205077 0.13725 0)
(0.26752 0.228944 0)
(0.295293 0.356046 0)
(0.184973 0.486827 0)
(-0.049265 0.963417 0)
(-0.301424 1.27563 0)
(-0.406065 0.916666 0)
(-0.390861 0.348465 0)
(-0.297409 0.159938 0)
(-0.205046 0.168164 0)
(-0.14745 0.197303 0)
(-0.111148 0.262584 0)
(-0.0682211 0.366694 0)
(0.0508328 0.382481 0)
(0.0233631 0.321991 0)
(-0.0232331 0.369113 0)
(-0.0691038 0.429033 0)
(-0.108555 0.471267 0)
(-0.0937248 0.472189 0)
(-0.0634848 0.443861 0)
(-0.0103228 0.426201 0)
(0.0900924 0.493006 0)
(0.224606 0.66407 0)
(0.287677 0.801003 0)
(0.30129 0.890362 0)
(0.269552 0.932607 0)
(0.254789 0.938583 0)
(0.210005 0.804702 0)
(0.158038 0.430345 0)
(0.184645 0.159467 0)
(0.22416 0.0531859 0)
(0.229291 0.194452 0)
(0.191005 0.448408 0)
(-0.0499096 0.796476 0)
(-0.225862 1.12031 0)
(-0.234391 1.22875 0)
(-0.206965 0.904329 0)
(-0.142549 0.265577 0)
(-0.086677 0.0808852 0)
(-0.0598619 0.122496 0)
(-0.052807 0.183725 0)
(-0.0504296 0.239577 0)
(-0.0256303 0.301243 0)
(0.0182706 0.345127 0)
(-0.00675671 0.370525 0)
(-0.0572284 0.415288 0)
(-0.101835 0.457186 0)
(-0.138207 0.498719 0)
(-0.178395 0.482067 0)
(-0.183852 0.428028 0)
(-0.171839 0.373091 0)
(-0.127295 0.367132 0)
(-0.0081713 0.475963 0)
(0.174776 0.742079 0)
(0.266551 0.909591 0)
(0.244038 0.926586 0)
(0.250361 0.880943 0)
(0.287705 0.729652 0)
(0.322415 0.431831 0)
(0.335595 0.133949 0)
(0.299768 0.0536829 0)
(0.198314 0.239016 0)
(0.060625 0.742673 0)
(-0.142973 0.936544 0)
(-0.166885 1.09166 0)
(-0.071166 1.16583 0)
(0.0518334 0.847195 0)
(0.0650913 0.237369 0)
(0.0617869 0.0634462 0)
(0.0485768 0.126684 0)
(0.0195272 0.202517 0)
(-0.00749357 0.25965 0)
(-0.0072968 0.285847 0)
(-0.00014158 0.352204 0)
(-0.0295653 0.41997 0)
(-0.0796759 0.475124 0)
(-0.132402 0.50737 0)
(-0.167116 0.512661 0)
(-0.191944 0.504223 0)
(-0.222255 0.446694 0)
(-0.241 0.372847 0)
(-0.239433 0.32126 0)
(-0.195488 0.336919 0)
(-0.0656362 0.52296 0)
(0.119069 0.878566 0)
(0.170448 0.938724 0)
(0.184206 0.851457 0)
(0.273237 0.697721 0)
(0.349983 0.37468 0)
(0.332943 0.151144 0)
(0.248332 0.142401 0)
(0.153796 0.477555 0)
(-0.0345214 0.861301 0)
(-0.0949709 0.957967 0)
(-0.0204856 1.02123 0)
(0.145641 1.03494 0)
(0.320641 0.791533 0)
(0.279613 0.270645 0)
(0.192867 0.11079 0)
(0.146068 0.165002 0)
(0.0870307 0.24624 0)
(0.0284241 0.30019 0)
(0.00235117 0.301105 0)
(-0.00442668 0.363888 0)
(-0.031396 0.463501 0)
(-0.0851372 0.529386 0)
(-0.134677 0.554607 0)
(-0.176245 0.553488 0)
(-0.209495 0.527078 0)
(-0.232 0.4629 0)
(-0.250578 0.388414 0)
(-0.266714 0.324391 0)
(-0.266021 0.295132 0)
(-0.226372 0.376681 0)
(-0.115849 0.689967 0)
(0.0201129 0.928383 0)
(0.0898099 0.832636 0)
(0.190738 0.574312 0)
(0.246037 0.343828 0)
(0.211633 0.195135 0)
(0.129882 0.217401 0)
(0.060358 0.658974 0)
(-0.0438569 0.922772 0)
(-0.00897362 0.896542 0)
(0.167056 0.891427 0)
(0.382039 0.851509 0)
(0.508488 0.687753 0)
(0.428298 0.352629 0)
(0.300474 0.204221 0)
(0.176054 0.216471 0)
(0.0724026 0.28334 0)
(-0.0140456 0.293465 0)
(-0.0201165 0.230548 0)
(0.00770505 0.357344 0)
(-0.0130451 0.525214 0)
(-0.0855897 0.606282 0)
(-0.12354 0.609099 0)
(-0.165463 0.58938 0)
(-0.204724 0.556769 0)
(-0.238084 0.492184 0)
(-0.268578 0.41645 0)
(-0.288954 0.340825 0)
(-0.295002 0.297416 0)
(-0.291247 0.340308 0)
(-0.269162 0.562832 0)
(-0.150488 0.796574 0)
(-0.0189573 0.706855 0)
(0.0631026 0.467979 0)
(0.092849 0.332996 0)
(0.0721865 0.247208 0)
(0.0122561 0.311216 0)
(-0.019578 0.710577 0)
(0.00407766 0.90355 0)
(0.111213 0.772623 0)
(0.301916 0.600744 0)
(0.465098 0.646082 0)
(0.522939 0.614423 0)
(0.414545 0.402187 0)
(0.279605 0.300603 0)
(0.13453 0.359733 0)
(-0.00424713 0.477716 0)
(-0.0969041 0.468221 0)
(-0.048824 0.256811 0)
(-0.0282959 0.352442 0)
(0.0352513 0.552177 0)
(-0.0416468 0.554 0)
(-0.0853725 0.594823 0)
(-0.127089 0.631735 0)
(-0.160083 0.618959 0)
(-0.209613 0.548062 0)
(-0.276193 0.455601 0)
(-0.312521 0.358728 0)
(-0.315715 0.307999 0)
(-0.313784 0.339731 0)
(-0.307022 0.501496 0)
(-0.223394 0.667124 0)
(-0.10189 0.590641 0)
(-0.0548652 0.420557 0)
(-0.0462124 0.335147 0)
(-0.0711455 0.287808 0)
(-0.114825 0.363744 0)
(-0.0813402 0.625501 0)
(0.078723 0.812674 0)
(0.251547 0.595821 0)
(0.311869 0.421519 0)
(0.433705 0.552737 0)
(0.439356 0.613758 0)
(0.418127 0.666945 0)
(0.281127 0.610416 0)
(0.105246 0.576111 0)
(-0.0210971 0.5739 0)
(-0.085609 0.418452 0)
(-0.0450239 0.124155 0)
(-0.00624813 0.21555 0)
(0.0384574 0.727255 0)
(0.0017407 0.795904 0)
(-0.0404089 0.756647 0)
(-0.0793537 0.665694 0)
(-0.116514 0.584804 0)
(-0.189243 0.528707 0)
(-0.285713 0.492547 0)
(-0.335686 0.370416 0)
(-0.336043 0.30408 0)
(-0.313921 0.336125 0)
(-0.286493 0.458941 0)
(-0.220733 0.557069 0)
(-0.142705 0.509265 0)
(-0.112218 0.412715 0)
(-0.119858 0.351442 0)
(-0.146043 0.32012 0)
(-0.168814 0.355609 0)
(-0.120757 0.471458 0)
(0.0667616 0.590108 0)
(0.273782 0.469489 0)
(0.292958 0.355156 0)
(0.351777 0.569599 0)
(0.358611 0.79195 0)
(0.263458 0.733486 0)
(0.177095 0.648291 0)
(0.0859447 0.632806 0)
(0.00191147 0.621184 0)
(-0.0500995 0.470468 0)
(-0.0171585 0.0446547 0)
(-0.0283474 0.357941 0)
(0.00363347 0.622575 0)
(0.0560391 0.68732 0)
(0.0498318 0.733555 0)
(0.0058876 0.778109 0)
(-0.0869898 0.815587 0)
(-0.236727 0.853981 0)
(-0.337854 0.620892 0)
(-0.35024 0.344343 0)
(-0.359732 0.264461 0)
(-0.305377 0.307658 0)
(-0.25847 0.427112 0)
(-0.213113 0.494758 0)
(-0.167443 0.469959 0)
(-0.146784 0.41337 0)
(-0.149469 0.366735 0)
(-0.163009 0.340709 0)
(-0.169098 0.345667 0)
(-0.137413 0.373594 0)
(-0.0297079 0.405112 0)
(0.125937 0.345465 0)
(0.150629 0.326524 0)
(0.202671 0.648329 0)
(0.180605 0.761863 0)
(0.160669 0.73402 0)
(0.120452 0.714352 0)
(0.0602082 0.713506 0)
(-0.00343275 0.694745 0)
(-0.00481191 0.450374 0)
(0.00790308 0.0295446 0)
(0.0317913 0.270091 0)
(0.0958058 0.544084 0)
(0.117592 0.685074 0)
(0.0877279 0.734914 0)
(0.0430426 0.779615 0)
(-0.0310086 0.814088 0)
(-0.11307 0.845073 0)
(-0.230238 0.779348 0)
(-0.317699 0.478461 0)
(-0.291336 0.194415 0)
(-0.300999 0.253064 0)
(-0.232695 0.386143 0)
(-0.210245 0.464711 0)
(-0.178777 0.444624 0)
(-0.157674 0.404693 0)
(-0.151764 0.372639 0)
(-0.156052 0.352244 0)
(-0.159182 0.344328 0)
(-0.147906 0.340013 0)
(-0.112814 0.325961 0)
(-0.0561262 0.279218 0)
(-0.0441134 0.334087 0)
(-0.0036021 0.604127 0)
(0.0862174 0.737861 0)
(0.108764 0.73951 0)
(0.096299 0.762347 0)
(0.0494302 0.772855 0)
(0.0196776 0.71406 0)
(0.0357105 0.412533 0)
(0.0224675 0.0593979 0)
(0.0350999 0.17367 0)
(0.13358 0.511176 0)
(0.176905 0.708667 0)
(0.145215 0.785029 0)
(0.104712 0.856734 0)
(0.0458146 0.905797 0)
(-0.0103742 0.891063 0)
(-0.0340155 0.783022 0)
(-0.113568 0.556969 0)
(-0.108856 0.218004 0)
(-0.24721 0.217993 0)
(-0.21218 0.365576 0)
(-0.190954 0.441707 0)
(-0.162179 0.416895 0)
(-0.141117 0.391304 0)
(-0.134563 0.37299 0)
(-0.139379 0.359905 0)
(-0.149703 0.349993 0)
(-0.159834 0.337196 0)
(-0.167103 0.312413 0)
(-0.181079 0.282691 0)
(-0.190094 0.321555 0)
(-0.170468 0.469956 0)
(0.00402419 0.692644 0)
(0.0916256 0.739688 0)
(0.102152 0.779812 0)
(0.0719156 0.790218 0)
(0.0688976 0.744495 0)
(0.0777104 0.400621 0)
(0.0332379 0.113167 0)
(0.00713025 0.11432 0)
(0.0766019 0.383044 0)
(0.203635 0.724434 0)
(0.211065 0.799 0)
(0.181091 0.893248 0)
(0.141615 0.937471 0)
(0.118681 0.946705 0)
(0.135466 0.771606 0)
(0.0793408 0.616827 0)
(0.0304642 0.324714 0)
(-0.152312 0.274228 0)
(-0.187383 0.358209 0)
(-0.145664 0.418108 0)
(-0.116861 0.391629 0)
(-0.102697 0.380999 0)
(-0.102653 0.376204 0)
(-0.115504 0.372968 0)
(-0.139217 0.36859 0)
(-0.169131 0.357212 0)
(-0.199181 0.334024 0)
(-0.229539 0.30939 0)
(-0.253272 0.31252 0)
(-0.254056 0.357188 0)
(-0.155461 0.488259 0)
(0.0150518 0.67907 0)
(0.116336 0.817775 0)
(0.131796 0.833668 0)
(0.136708 0.709211 0)
(0.119351 0.425613 0)
(0.0445872 0.191324 0)
(-0.00435485 0.10611 0)
(-0.000476362 0.272668 0)
(0.132905 0.591483 0)
(0.230118 0.813186 0)
(0.245363 0.947692 0)
(0.243885 0.979397 0)
(0.25558 0.914399 0)
(0.244862 0.77435 0)
(0.172201 0.689328 0)
(0.094325 0.453328 0)
(-0.0852906 0.373205 0)
(-0.100744 0.379343 0)
(-0.0678899 0.382768 0)
(-0.0533769 0.373841 0)
(-0.0490758 0.379111 0)
(-0.0599857 0.387773 0)
(-0.0844196 0.392662 0)
(-0.124441 0.398342 0)
(-0.17629 0.3924 0)
(-0.222488 0.36964 0)
(-0.258166 0.344601 0)
(-0.276557 0.323648 0)
(-0.278799 0.328073 0)
(-0.254331 0.362129 0)
(-0.158585 0.483662 0)
(0.0172575 0.674352 0)
(0.146118 0.790316 0)
(0.17864 0.707589 0)
(0.139905 0.482593 0)
(0.0561116 0.289564 0)
(-0.0176633 0.137607 0)
(-0.0259797 0.219239 0)
(0.040536 0.452626 0)
(0.165204 0.710571 0)
(0.252998 0.878039 0)
(0.305499 0.931407 0)
(0.317005 0.908044 0)
(0.250793 0.840972 0)
(0.159072 0.776443 0)
(0.0744552 0.596941 0)
(-0.0411666 0.435947 0)
(-0.00313262 0.367115 0)
(0.00667001 0.361525 0)
(0.0118154 0.368671 0)
(0.00726541 0.381968 0)
(-0.0195175 0.409122 0)
(-0.0636068 0.418485 0)
(-0.102554 0.441093 0)
(-0.18315 0.445515 0)
(-0.249065 0.403872 0)
(-0.282466 0.3683 0)
(-0.300596 0.342277 0)
(-0.300382 0.3184 0)
(-0.286375 0.324264 0)
(-0.240857 0.368732 0)
(-0.137389 0.486405 0)
(0.0421774 0.660822 0)
(0.14301 0.709461 0)
(0.143307 0.538962 0)
(0.0604917 0.403819 0)
(-0.0157115 0.17226 0)
(-0.0413918 0.210134 0)
(-0.0115896 0.358224 0)
(0.0910655 0.598176 0)
(0.216002 0.780365 0)
(0.296442 0.895821 0)
(0.267607 0.955173 0)
(0.158619 0.955009 0)
(0.0624298 0.874667 0)
(0.0200815 0.685766 0)
(0.0450728 0.410824 0)
(0.0712113 0.354728 0)
(0.0703963 0.358504 0)
(0.068104 0.367179 0)
(0.0430905 0.405805 0)
(-0.0179705 0.479715 0)
(-0.0642076 0.471611 0)
(-0.106595 0.512993 0)
(-0.200799 0.576123 0)
(-0.271027 0.471482 0)
(-0.302617 0.38776 0)
(-0.313985 0.34554 0)
(-0.310979 0.318218 0)
(-0.294835 0.300445 0)
(-0.265225 0.31666 0)
(-0.205134 0.373128 0)
(-0.100169 0.491227 0)
(0.0358804 0.621516 0)
(0.107646 0.550408 0)
(0.0559127 0.518112 0)
(-0.0124205 0.20354 0)
(-0.0421005 0.225545 0)
(-0.0467256 0.30286 0)
(0.0200577 0.486658 0)
(0.144291 0.665896 0)
(0.213529 0.892164 0)
(0.146936 1.05473 0)
(0.0187255 1.08864 0)
(-0.0047402 0.917459 0)
(0.0607198 0.591986 0)
(0.129367 0.378736 0)
(0.127201 0.358027 0)
(0.118911 0.360265 0)
(0.103781 0.377321 0)
(0.0596614 0.485142 0)
(-0.0359664 0.560977 0)
(-0.0519582 0.497831 0)
(-0.157103 0.558775 0)
(-0.234297 0.668697 0)
(-0.296118 0.543313 0)
(-0.321014 0.417234 0)
(-0.312446 0.343243 0)
(-0.304278 0.302114 0)
(-0.284133 0.284921 0)
(-0.258267 0.285176 0)
(-0.219748 0.31703 0)
(-0.159972 0.392066 0)
(-0.0614819 0.487667 0)
(0.0462675 0.492583 0)
(0.0246436 0.597096 0)
(-0.0114711 0.23053 0)
(-0.044009 0.256051 0)
(-0.0653879 0.289364 0)
(-0.0332511 0.39736 0)
(0.0583823 0.570556 0)
(0.0955895 0.910083 0)
(-0.00042931 1.17685 0)
(-0.0601118 1.15167 0)
(0.0319307 0.82139 0)
(0.143277 0.476168 0)
(0.17646 0.375986 0)
(0.163679 0.370824 0)
(0.144759 0.37167 0)
(0.111457 0.416771 0)
(0.0290394 0.593918 0)
(-0.038493 0.606103 0)
(-0.0707754 0.54942 0)
(-0.205992 0.638187 0)
(-0.25716 0.70395 0)
(-0.264934 0.582649 0)
(-0.310192 0.427519 0)
(-0.287504 0.343173 0)
(-0.280728 0.281833 0)
(-0.260858 0.261466 0)
(-0.235367 0.259189 0)
(-0.20514 0.281315 0)
(-0.160948 0.333763 0)
(-0.085249 0.398372 0)
(-0.0130216 0.446302 0)
(-0.00419143 0.606716 0)
(-0.0106861 0.257937 0)
(-0.0466908 0.293083 0)
(-0.0769612 0.297768 0)
(-0.0660556 0.346605 0)
(-0.0200233 0.508743 0)
(-0.0202314 0.965274 0)
(-0.110129 1.25457 0)
(-0.0384867 1.08128 0)
(0.123362 0.649598 0)
(0.208506 0.422987 0)
(0.206028 0.391575 0)
(0.180224 0.391126 0)
(0.14088 0.406418 0)
(0.0750727 0.506112 0)
(-0.0413098 0.656932 0)
(-0.058518 0.652252 0)
(-0.0828638 0.59642 0)
(-0.240303 0.722199 0)
(-0.245706 0.721213 0)
(-0.187591 0.599946 0)
(-0.229151 0.44967 0)
(-0.237871 0.347919 0)
(-0.239623 0.263994 0)
(-0.228043 0.238016 0)
(-0.207678 0.234133 0)
(-0.181944 0.248102 0)
(-0.144179 0.284951 0)
(-0.0862838 0.336889 0)
(-0.0381488 0.410419 0)
(-0.019804 0.596299 0)
(-0.00503539 0.279161 0)
(-0.0465728 0.343157 0)
(-0.0879139 0.312818 0)
(-0.0831314 0.330005 0)
(-0.082956 0.497059 0)
(-0.143161 1.03185 0)
(-0.136032 1.23426 0)
(0.0481717 0.883449 0)
(0.206258 0.514291 0)
(0.235881 0.416838 0)
(0.217812 0.415108 0)
(0.181467 0.428822 0)
(0.125228 0.4756 0)
(0.0307321 0.622669 0)
(-0.0208118 0.725229 0)
(-0.0738805 0.739975 0)
(-0.127423 0.742688 0)
(-0.19552 0.833744 0)
(-0.155908 0.728198 0)
(-0.189891 0.540545 0)
(-0.155033 0.489682 0)
(-0.184491 0.375467 0)
(-0.196114 0.25889 0)
(-0.195055 0.222081 0)
(-0.180927 0.213073 0)
(-0.159297 0.219197 0)
(-0.127599 0.243598 0)
(-0.0846603 0.287782 0)
(-0.051268 0.376725 0)
(-0.024381 0.569485 0)
(0.0018373 0.286906 0)
(-0.0385499 0.421179 0)
(-0.0931991 0.324956 0)
(-0.0882455 0.333649 0)
(-0.127638 0.544448 0)
(-0.218887 1.05054 0)
(-0.0854463 1.08463 0)
(0.149551 0.657586 0)
(0.241615 0.457882 0)
(0.242151 0.432564 0)
(0.213539 0.448426 0)
(0.168538 0.485431 0)
(0.108124 0.575333 0)
(0.0302882 0.701593 0)
(-0.00760927 0.72963 0)
(-0.0374905 0.743908 0)
(-0.0830034 0.730084 0)
(-0.117018 0.761108 0)
(-0.1546 0.696071 0)
(-0.176439 0.551773 0)
(-0.170671 0.483688 0)
(-0.161888 0.390389 0)
(-0.165449 0.264417 0)
(-0.170835 0.211894 0)
(-0.159615 0.19531 0)
(-0.140853 0.194717 0)
(-0.114411 0.210483 0)
(-0.0815792 0.249805 0)
(-0.0565168 0.347112 0)
(-0.020896 0.535328 0)
(0.00189425 0.282118 0)
(0.00677872 0.476868 0)
(-0.0706409 0.346765 0)
(-0.0926502 0.364216 0)
(-0.184341 0.650774 0)
(-0.217832 1.01081 0)
(0.0306745 0.821937 0)
(0.213303 0.514986 0)
(0.248145 0.448155 0)
(0.23341 0.457797 0)
(0.198691 0.48992 0)
(0.148577 0.54498 0)
(0.0905233 0.629004 0)
(0.0362762 0.715937 0)
(-0.00180864 0.749846 0)
(-0.0438883 0.779461 0)
(-0.0866654 0.784583 0)
(-0.10874 0.775555 0)
(-0.117103 0.713226 0)
(-0.144191 0.584663 0)
(-0.164044 0.479045 0)
(-0.15795 0.388332 0)
(-0.148039 0.27287 0)
(-0.154689 0.204497 0)
(-0.144322 0.179513 0)
(-0.127537 0.173508 0)
(-0.105225 0.182642 0)
(-0.0779986 0.217504 0)
(-0.0539687 0.322123 0)
(-0.0124002 0.499513 0)
(-0.0302586 0.276709 0)
(0.010816 0.478411 0)
(-0.00806358 0.404272 0)
(-0.0885251 0.408312 0)
(-0.200174 0.715623 0)
(-0.090209 0.859858 0)
(0.149128 0.56622 0)
(0.240673 0.457745 0)
(0.248481 0.45779 0)
(0.228397 0.486567 0)
(0.195041 0.530777 0)
(0.15076 0.597296 0)
(0.095185 0.690019 0)
(0.0314251 0.771986 0)
(-0.0322705 0.812728 0)
(-0.0882247 0.835278 0)
(-0.127907 0.830994 0)
(-0.145579 0.794444 0)
(-0.143798 0.713654 0)
(-0.141285 0.604481 0)
(-0.14503 0.481246 0)
(-0.14067 0.382541 0)
(-0.135162 0.283805 0)
(-0.141625 0.199233 0)
(-0.132239 0.165981 0)
(-0.118017 0.155707 0)
(-0.0996853 0.158774 0)
(-0.0758533 0.18707 0)
(-0.048474 0.293885 0)
(-0.00591069 0.468686 0)
(-0.0205515 0.310951 0)
(-0.0136879 0.437714 0)
(0.00796112 0.497945 0)
(-0.0619998 0.542471 0)
(-0.10309 0.724984 0)
(0.0858289 0.603189 0)
(0.223747 0.450986 0)
(0.257868 0.442461 0)
(0.254834 0.472235 0)
(0.238167 0.513553 0)
(0.214893 0.566964 0)
(0.182675 0.644579 0)
(0.111442 0.757355 0)
(-0.00118108 0.8403 0)
(-0.0995983 0.876274 0)
(-0.157367 0.880701 0)
(-0.180769 0.852489 0)
(-0.183209 0.79356 0)
(-0.166434 0.699209 0)
(-0.143608 0.588148 0)
(-0.126615 0.472121 0)
(-0.115982 0.372981 0)
(-0.118332 0.297741 0)
(-0.129953 0.196039 0)
(-0.122346 0.155571 0)
(-0.111154 0.14228 0)
(-0.0971376 0.139335 0)
(-0.0763647 0.158828 0)
(-0.0484916 0.259258 0)
(-0.00327856 0.44533 0)
(-0.0222496 0.34742 0)
(-0.0285233 0.384335 0)
(0.0130115 0.511067 0)
(0.010209 0.583573 0)
(0.0820971 0.618014 0)
(0.20521 0.438106 0)
(0.261767 0.410626 0)
(0.271905 0.442818 0)
(0.26805 0.48503 0)
(0.257115 0.529937 0)
(0.251235 0.577534 0)
(0.240909 0.662157 0)
(0.132593 0.875978 0)
(-0.106352 0.995079 0)
(-0.249884 0.978215 0)
(-0.283508 0.923064 0)
(-0.272046 0.861817 0)
(-0.234467 0.768916 0)
(-0.177606 0.653146 0)
(-0.128956 0.550781 0)
(-0.107858 0.460802 0)
(-0.109978 0.382098 0)
(-0.127175 0.342164 0)
(-0.120345 0.194301 0)
(-0.117092 0.147123 0)
(-0.108965 0.132642 0)
(-0.0976352 0.123687 0)
(-0.0794147 0.133583 0)
(-0.0537612 0.219656 0)
(-0.00698408 0.421402 0)
(-0.00736347 0.385134 0)
(-0.0171479 0.346276 0)
(0.0226105 0.468611 0)
(0.101185 0.566065 0)
(0.184994 0.453935 0)
(0.257629 0.378366 0)
(0.278597 0.401541 0)
(0.284551 0.44428 0)
(0.28018 0.491544 0)
(0.272251 0.535695 0)
(0.280226 0.567399 0)
(0.272896 0.730374 0)
(-0.167863 1.16315 0)
(-0.573841 1.20966 0)
(-0.763161 0.985717 0)
(-0.708241 0.887377 0)
(-0.532475 0.878622 0)
(-0.351271 0.806464 0)
(-0.218742 0.704394 0)
(-0.166817 0.614951 0)
(-0.134072 0.535788 0)
(-0.139603 0.427254 0)
(-0.183648 0.293219 0)
(-0.125446 0.176877 0)
(-0.121055 0.138425 0)
(-0.113929 0.123603 0)
(-0.101547 0.10944 0)
(-0.0837429 0.110673 0)
(-0.0601106 0.180226 0)
(-0.0166619 0.391823 0)
(0.0165664 0.388654 0)
(0.0109212 0.333649 0)
(0.0513793 0.398313 0)
(0.138337 0.446504 0)
(0.224448 0.366251 0)
(0.264568 0.35707 0)
(0.283331 0.392317 0)
(0.291724 0.440247 0)
(0.282715 0.501943 0)
(0.271481 0.545952 0)
(0.285279 0.564233 0)
(0.0412633 1.08656 0)
(-0.646125 1.88621 0)
(-1.10871 1.74446 0)
(-1.36914 1.21315 0)
(-1.34281 0.719933 0)
(-1.16159 0.461446 0)
(-0.932103 0.367498 0)
(-0.722549 0.338609 0)
(-0.552377 0.30598 0)
(-0.40189 0.29715 0)
(-0.311567 0.347896 0)
(-0.200353 0.249591 0)
(-0.140246 0.151325 0)
(-0.127822 0.133323 0)
(-0.120584 0.113022 0)
(-0.106243 0.0942004 0)
(-0.0870557 0.0887643 0)
(-0.0644299 0.143044 0)
(-0.0278052 0.353399 0)
(0.0250985 0.3575 0)
(0.0435562 0.322742 0)
(0.0712544 0.353481 0)
(0.147138 0.339233 0)
(0.214611 0.318839 0)
(0.253763 0.334272 0)
(0.281714 0.372832 0)
(0.294146 0.434806 0)
(0.28088 0.527237 0)
(0.301276 0.560968 0)
(0.155746 0.748693 0)
(-0.609202 1.85405 0)
(-1.18258 2.3188 0)
(-1.44534 1.98319 0)
(-1.54474 1.3323 0)
(-1.44361 0.728687 0)
(-1.2597 0.408881 0)
(-1.02483 0.264367 0)
(-0.791026 0.234361 0)
(-0.581332 0.247837 0)
(-0.432224 0.268865 0)
(-0.322518 0.296856 0)
(-0.181921 0.14098 0)
(-0.143219 0.127769 0)
(-0.132853 0.132105 0)
(-0.124515 0.100556 0)
(-0.107858 0.0764599 0)
(-0.087245 0.067122 0)
(-0.0651484 0.108737 0)
(-0.0350025 0.309805 0)
(0.0313453 0.308571 0)
(0.049882 0.314627 0)
(0.0826246 0.294791 0)
(0.141358 0.274075 0)
(0.195555 0.275064 0)
(0.240823 0.297867 0)
(0.276844 0.343636 0)
(0.293527 0.427936 0)
(0.310167 0.55264 0)
(0.19859 0.672042 0)
(-0.415303 1.42762 0)
(-1.18452 2.44987 0)
(-1.4493 2.50858 0)
(-1.4707 1.99952 0)
(-1.27785 1.17389 0)
(-1.01526 0.484674 0)
(-0.797009 0.144805 0)
(-0.648316 0.0184793 0)
(-0.537842 0.0227548 0)
(-0.438633 0.0854188 0)
(-0.366405 0.155916 0)
(-0.249643 0.131376 0)
(-0.175258 0.0799958 0)
(-0.155891 0.112519 0)
(-0.137848 0.130843 0)
(-0.124535 0.0835673 0)
(-0.106084 0.0560563 0)
(-0.0846431 0.0460868 0)
(-0.0632191 0.0774317 0)
(-0.03701 0.26518 0)
(0.0310629 0.269649 0)
(0.0485344 0.308135 0)
(0.0852774 0.248812 0)
(0.128976 0.221646 0)
(0.177893 0.226965 0)
(0.226356 0.252202 0)
(0.265788 0.305314 0)
(0.292385 0.412828 0)
(0.210759 0.654385 0)
(-0.226969 1.19229 0)
(-1.01464 2.22862 0)
(-1.46746 2.80444 0)
(-1.46942 2.56814 0)
(-1.24623 1.79012 0)
(-0.85497 0.839769 0)
(-0.605082 0.242401 0)
(-0.484147 0.00763852 0)
(-0.448223 -0.0573348 0)
(-0.423201 -0.0342288 0)
(-0.38539 0.0238785 0)
(-0.31669 0.0843777 0)
(-0.239048 0.0389479 0)
(-0.198946 0.0496861 0)
(-0.179564 0.0960149 0)
(-0.140267 0.115606 0)
(-0.120794 0.0633915 0)
(-0.103049 0.0341959 0)
(-0.0813094 0.0254734 0)
(-0.0607438 0.0490763 0)
(-0.0357588 0.222665 0)
(0.029756 0.231311 0)
(0.0477539 0.287699 0)
(0.0791085 0.212574 0)
(0.109234 0.178197 0)
(0.154338 0.176642 0)
(0.205762 0.19849 0)
(0.253798 0.255432 0)
(0.254211 0.465227 0)
(-0.0783857 1.09241 0)
(-0.663738 1.94259 0)
(-1.18821 2.68678 0)
(-1.37197 2.86565 0)
(-1.2137 2.34769 0)
(-0.869622 1.36918 0)