/*--------------------------------*- C++ -*----------------------------------*\
| =========                 |                                                 |
| \\      /  F ield         | OpenFOAM: The Open Source CFD Toolbox           |
|  \\    /   O peration     | Version:  v1606+                                |
|   \\  /    A nd           | Web:      www.OpenFOAM.com                      |
|    \\/     M anipulation  |                                                 |
\*---------------------------------------------------------------------------*/
FoamFile
{
    version     2.0;
    format      ascii;
    class       volVectorField;
    location    "1.88";
    object      Ur;
}
// * * * * * * * * * * * * * * * * * * * * * * * * * * * * * * * * * * * * * //

dimensions      [0 1 -1 0 0 0 0];

internalField   nonuniform List<vector> 
6000
(
(-0.0128623 -0.671878 0)
(-0.0492022 -0.66355 0)
(-0.0737082 -0.649525 0)
(-0.102095 -0.637171 0)
(-0.129804 -0.625192 0)
(-0.127455 -0.627888 0)
(-0.0717218 -0.673385 0)
(-0.00443796 -0.665235 0)
(0.0333381 -0.680576 0)
(0.0580369 -0.686063 0)
(0.0644449 -0.690611 0)
(0.0525963 -0.696944 0)
(0.0361554 -0.700962 0)
(0.0232757 -0.707989 0)
(0.0110534 -0.710493 0)
(0.00266641 -0.713769 0)
(0.000341681 -0.718705 0)
(0.0152324 -0.724394 0)
(0.040748 -0.715683 0)
(0.0600588 -0.693804 0)
(0.0783132 -0.671279 0)
(0.103124 -0.656247 0)
(0.132992 -0.657875 0)
(0.159241 -0.682446 0)
(0.167009 -0.682999 0)
(0.181096 -0.677563 0)
(0.197432 -0.677931 0)
(0.167259 -0.663264 0)
(0.0918622 -0.670592 0)
(0.0167543 -0.692073 0)
(0.00786333 -1.03078 0)
(0.000715879 -0.963439 0)
(-0.0336599 -0.936043 0)
(-0.063611 -0.931724 0)
(-0.0769021 -0.941925 0)
(-0.0637825 -1.02473 0)
(-0.0529674 -1.07715 0)
(-0.0548282 -1.04518 0)
(-0.0387307 -1.03884 0)
(-0.0105013 -1.00194 0)
(0.0104121 -0.977272 0)
(0.0211486 -0.970297 0)
(0.0227039 -0.983034 0)
(0.0180405 -0.995226 0)
(0.00956292 -0.982833 0)
(-0.00610462 -0.98483 0)
(-0.00521576 -1.01303 0)
(0.0361973 -1.05147 0)
(0.101858 -1.05177 0)
(0.166566 -1.04116 0)
(0.220636 -1.02851 0)
(0.255495 -1.02608 0)
(0.266683 -1.02451 0)
(0.246083 -1.01507 0)
(0.215442 -1.02386 0)
(0.193208 -1.04063 0)
(0.177114 -0.987162 0)
(0.137631 -0.90786 0)
(0.0587343 -0.90715 0)
(0.0062136 -1.02616 0)
(0.0164109 -0.894489 0)
(0.0237461 -0.794941 0)
(0.00789942 -0.785874 0)
(0.00218896 -0.80425 0)
(0.00825065 -0.821499 0)
(-0.00291107 -0.86669 0)
(-0.0492955 -0.867747 0)
(-0.0987282 -0.85536 0)
(-0.127072 -0.876674 0)
(-0.126757 -0.889298 0)
(-0.10078 -0.871377 0)
(-0.0628426 -0.865425 0)
(-0.0236185 -0.880201 0)
(0.0177573 -0.898417 0)
(0.0224265 -0.861632 0)
(-0.00375392 -0.860029 0)
(0.0225308 -0.932244 0)
(0.115517 -1.01104 0)
(0.232661 -1.00961 0)
(0.335735 -0.976779 0)
(0.393346 -0.917692 0)
(0.391609 -0.852433 0)
(0.342492 -0.796505 0)
(0.270806 -0.763855 0)
(0.209788 -0.763742 0)
(0.167819 -0.777131 0)
(0.128741 -0.787498 0)
(0.0920201 -0.713154 0)
(0.0533819 -0.702575 0)
(0.0158801 -0.848618 0)
(0.00324894 -0.888119 0)
(0.022289 -0.844887 0)
(0.0516725 -0.836854 0)
(0.0736482 -0.815727 0)
(0.0727374 -0.785655 0)
(0.0326617 -0.767357 0)
(-0.0257464 -0.742928 0)
(-0.101336 -0.729723 0)
(-0.186666 -0.76116 0)
(-0.247164 -0.824393 0)
(-0.260626 -0.889224 0)
(-0.220922 -0.940282 0)
(-0.131868 -0.981694 0)
(-0.0297723 -1.00622 0)
(0.0361229 -0.89953 0)
(0.0900385 -0.934275 0)
(0.184956 -1.0575 0)
(0.295153 -1.12747 0)
(0.402915 -1.09703 0)
(0.482901 -1.00301 0)
(0.494825 -0.876273 0)
(0.45408 -0.762268 0)
(0.381155 -0.689171 0)
(0.29285 -0.648467 0)
(0.210992 -0.651707 0)
(0.146366 -0.669527 0)
(0.0984924 -0.694218 0)
(0.0647238 -0.672547 0)
(0.0531374 -0.68528 0)
(0.0265628 -0.739081 0)
(0.0163 -0.82769 0)
(0.0561732 -0.796425 0)
(0.0964548 -0.761707 0)
(0.11331 -0.724526 0)
(0.0962053 -0.680507 0)
(0.05226 -0.631902 0)
(-0.0172046 -0.587712 0)
(-0.100085 -0.571899 0)
(-0.190916 -0.61474 0)
(-0.271011 -0.704432 0)
(-0.313167 -0.815464 0)
(-0.292267 -0.945154 0)
(-0.189486 -1.05164 0)
(-0.0661388 -1.07583 0)
(0.0551182 -0.971899 0)
(0.18821 -1.00783 0)
(0.298643 -1.10425 0)
(0.371028 -1.11985 0)
(0.450644 -1.09605 0)
(0.488243 -0.951573 0)
(0.457584 -0.768413 0)
(0.382741 -0.617779 0)
(0.300041 -0.537483 0)
(0.228067 -0.507816 0)
(0.166118 -0.525989 0)
(0.11327 -0.563989 0)
(0.0889365 -0.608304 0)
(0.0637892 -0.574369 0)
(0.0184605 -0.591865 0)
(-0.00397228 -0.651686 0)
(0.0299825 -0.808244 0)
(0.0786176 -0.772037 0)
(0.0987838 -0.718161 0)
(0.0869806 -0.658102 0)
(0.054932 -0.593508 0)
(0.0129434 -0.540242 0)
(-0.0321127 -0.502182 0)
(-0.0719566 -0.479971 0)
(-0.11806 -0.502883 0)
(-0.184084 -0.580227 0)
(-0.254358 -0.732202 0)
(-0.263951 -0.948816 0)
(-0.168683 -1.12115 0)
(-0.0448336 -1.11618 0)
(0.0745114 -1.06695 0)
(0.200982 -1.07383 0)
(0.291403 -1.10755 0)
(0.369879 -1.11703 0)
(0.434547 -1.07949 0)
(0.39918 -0.864162 0)
(0.307023 -0.623714 0)
(0.218485 -0.476619 0)
(0.159583 -0.433417 0)
(0.128826 -0.436383 0)
(0.112891 -0.468911 0)
(0.0958176 -0.510604 0)
(0.0871687 -0.563318 0)
(0.0854154 -0.527458 0)
(0.0333771 -0.50391 0)
(-0.0100383 -0.619376 0)
(0.0220072 -0.807905 0)
(0.0414047 -0.755095 0)
(0.029593 -0.708321 0)
(0.00862006 -0.650139 0)
(-0.00928997 -0.588684 0)
(-0.0208326 -0.539039 0)
(-0.0240588 -0.496708 0)
(-0.0199109 -0.458413 0)
(-0.022914 -0.444131 0)
(-0.0531081 -0.473 0)
(-0.12173 -0.611141 0)
(-0.187866 -0.921349 0)
(-0.13448 -1.17591 0)
(-0.00543981 -1.17161 0)
(0.104227 -1.1285 0)
(0.195869 -1.10892 0)
(0.273689 -1.11338 0)
(0.361234 -1.10834 0)
(0.366086 -0.992416 0)
(0.238551 -0.698896 0)
(0.124993 -0.471539 0)
(0.0711539 -0.390329 0)
(0.0591337 -0.395665 0)
(0.0661694 -0.417726 0)
(0.0745084 -0.45099 0)
(0.0761517 -0.495476 0)
(0.0730706 -0.553999 0)
(0.0802472 -0.549947 0)
(0.0510651 -0.542072 0)
(0.00605564 -0.687007 0)
(0.0111935 -0.928234 0)
(-0.00010376 -0.836617 0)
(-0.0254951 -0.792477 0)
(-0.0171577 -0.735416 0)
(-0.00098319 -0.660598 0)
(0.00861376 -0.594637 0)
(0.0182413 -0.528994 0)
(0.0324786 -0.478055 0)
(0.0511141 -0.443019 0)
(0.0573991 -0.429546 0)
(0.0212996 -0.5101 0)
(-0.0637947 -0.845621 0)
(-0.0819126 -1.20655 0)
(0.0359147 -1.21865 0)
(0.147371 -1.1663 0)
(0.216437 -1.12185 0)
(0.272092 -1.10372 0)
(0.320893 -1.06924 0)
(0.22402 -0.823234 0)
(0.0607829 -0.522649 0)
(-0.0176131 -0.393732 0)
(-0.0219458 -0.385314 0)
(0.00646107 -0.410027 0)
(0.0342862 -0.428828 0)
(0.0491998 -0.449221 0)
(0.0465569 -0.482701 0)
(0.0217569 -0.538165 0)
(-0.000106969 -0.585301 0)
(0.0105534 -0.667111 0)
(0.0123797 -0.811755 0)
(0.00749139 -1.09359 0)
(-0.00860232 -0.954959 0)
(-0.0230923 -0.922695 0)
(0.01145 -0.874861 0)
(0.0603645 -0.78238 0)
(0.0901895 -0.675431 0)
(0.0892576 -0.566689 0)
(0.0863142 -0.511149 0)
(0.103826 -0.472964 0)
(0.135795 -0.446325 0)
(0.143498 -0.477963 0)
(0.0873878 -0.760339 0)
(0.0267817 -1.19196 0)
(0.0982695 -1.26868 0)
(0.20165 -1.18858 0)
(0.235819 -1.10593 0)
(0.239822 -1.0627 0)
(0.194641 -0.955275 0)
(0.0391286 -0.634968 0)
(-0.0840475 -0.435205 0)
(-0.108456 -0.406204 0)
(-0.0687565 -0.433447 0)
(-0.0166813 -0.4611 0)
(0.0224952 -0.461701 0)
(0.0346147 -0.453488 0)
(0.0134762 -0.457157 0)
(-0.0379425 -0.493196 0)
(-0.0889868 -0.567781 0)
(-0.0852756 -0.758154 0)
(-0.0313194 -0.934559 0)
(-0.00827668 -1.15963 0)
(-0.0508968 -0.981955 0)
(-0.0942287 -1.0172 0)
(-0.0724622 -1.03779 0)
(0.0141001 -0.953149 0)
(0.0965418 -0.781715 0)
(0.128994 -0.638066 0)
(0.130571 -0.560694 0)
(0.135875 -0.516785 0)
(0.177895 -0.502782 0)
(0.229515 -0.525677 0)
(0.222885 -0.726424 0)
(0.167223 -1.13379 0)
(0.175613 -1.2822 0)
(0.221344 -1.18031 0)
(0.199758 -1.03044 0)
(0.132232 -0.964308 0)
(0.0266008 -0.81796 0)
(-0.114827 -0.529324 0)
(-0.184618 -0.442702 0)
(-0.163135 -0.468157 0)
(-0.104635 -0.513737 0)
(-0.0262208 -0.563681 0)
(0.0428052 -0.531037 0)
(0.0583999 -0.470331 0)
(0.0139668 -0.417808 0)
(-0.0501291 -0.426566 0)
(-0.134756 -0.578826 0)
(-0.163929 -0.882409 0)
(-0.0609504 -1.07656 0)
(-0.0221713 -1.05157 0)
(-0.120546 -0.880612 0)
(-0.246302 -0.977186 0)
(-0.288798 -1.10463 0)
(-0.23098 -1.15595 0)
(-0.103429 -1.06388 0)
(0.0240968 -0.845236 0)
(0.0898668 -0.661428 0)
(0.117586 -0.611972 0)
(0.162721 -0.607558 0)
(0.242236 -0.649127 0)
(0.294738 -0.797717 0)
(0.271758 -1.10255 0)
(0.210376 -1.22385 0)
(0.180254 -1.11679 0)
(0.120592 -0.922779 0)
(0.0270679 -0.873542 0)
(-0.0875519 -0.717283 0)
(-0.200469 -0.515495 0)
(-0.243944 -0.491961 0)
(-0.215922 -0.533759 0)
(-0.163792 -0.589354 0)
(-0.0347869 -0.708713 0)
(0.114845 -0.62357 0)
(0.153888 -0.496448 0)
(0.108034 -0.402558 0)
(0.0185943 -0.460913 0)
(-0.0748778 -0.724292 0)
(-0.109915 -1.0429 0)
(-0.0517325 -1.22326 0)
(-0.000813569 -0.857991 0)
(-0.0887806 -0.618624 0)
(-0.250004 -0.729124 0)
(-0.364616 -0.913895 0)
(-0.415592 -1.03227 0)
(-0.414564 -1.07398 0)
(-0.332306 -1.07693 0)
(-0.167512 -0.990493 0)
(-0.022067 -0.881862 0)
(0.0839689 -0.784759 0)
(0.204122 -0.80851 0)
(0.319846 -0.956472 0)
(0.319808 -1.1436 0)
(0.2269 -1.20089 0)
(0.157253 -1.08284 0)
(0.0886567 -0.873584 0)
(0.00500705 -0.831039 0)
(-0.11618 -0.637185 0)
(-0.23441 -0.512118 0)
(-0.272126 -0.518605 0)
(-0.255464 -0.553367 0)
(-0.202973 -0.643139 0)
(-0.00828751 -0.884975 0)
(0.261233 -0.775621 0)
(0.351594 -0.615549 0)
(0.330123 -0.545449 0)
(0.299961 -0.65665 0)
(0.2862 -0.729576 0)
(0.190207 -0.834231 0)
(0.0427857 -1.02752 0)
(0.00258613 -0.779454 0)
(-0.0389083 -0.465044 0)
(-0.141886 -0.545779 0)
(-0.265548 -0.746378 0)
(-0.356535 -0.89407 0)
(-0.413298 -0.940906 0)
(-0.455789 -0.97448 0)
(-0.46117 -1.03197 0)
(-0.374561 -1.09699 0)
(-0.201615 -1.16595 0)
(0.022343 -1.16854 0)
(0.189232 -1.18125 0)
(0.255358 -1.20552 0)
(0.2426 -1.21961 0)
(0.207069 -1.09775 0)
(0.145204 -0.857179 0)
(0.0464241 -0.769135 0)
(-0.106893 -0.53404 0)
(-0.239297 -0.475362 0)
(-0.27013 -0.498316 0)
(-0.233272 -0.559069 0)
(-0.124071 -0.773006 0)
(0.17976 -1.28627 0)
(0.576816 -1.14959 0)
(0.689389 -0.832775 0)
(0.640391 -0.692407 0)
(0.548732 -0.651802 0)
(0.425596 -0.571836 0)
(0.265412 -0.604223 0)
(0.0893138 -0.792129 0)
(-0.0113647 -0.6986 0)
(-0.0108398 -0.427477 0)
(-0.0219582 -0.458765 0)
(-0.0936009 -0.596295 0)
(-0.178377 -0.750355 0)
(-0.234305 -0.812698 0)
(-0.292365 -0.834437 0)
(-0.368187 -0.878146 0)
(-0.430849 -0.986382 0)
(-0.404027 -1.07958 0)
(-0.297335 -1.18335 0)
(-0.141375 -1.29824 0)
(0.00232801 -1.38273 0)
(0.091836 -1.30569 0)
(0.151155 -1.11679 0)
(0.162902 -0.816962 0)
(0.0670956 -0.652302 0)
(-0.114116 -0.412095 0)
(-0.237867 -0.414089 0)
(-0.233947 -0.5064 0)
(-0.1473 -0.722061 0)
(0.0878982 -1.21831 0)
(0.37845 -1.51294 0)
(0.629364 -1.27071 0)
(0.641969 -0.795249 0)
(0.523929 -0.52679 0)
(0.398377 -0.48067 0)
(0.294715 -0.477226 0)
(0.200426 -0.52508 0)
(0.075006 -0.648133 0)
(-0.019874 -0.659631 0)
(-0.00257602 -0.482759 0)
(0.0519572 -0.493084 0)
(0.0470209 -0.552989 0)
(-0.00810478 -0.653798 0)
(-0.0483216 -0.712396 0)
(-0.0763939 -0.712461 0)
(-0.133403 -0.718684 0)
(-0.243029 -0.818729 0)
(-0.369542 -1.00706 0)
(-0.382418 -1.11368 0)
(-0.278409 -1.18412 0)
(-0.204906 -1.24274 0)
(-0.126017 -1.24638 0)
(-0.030802 -1.1881 0)
(0.0281983 -0.83801 0)
(-0.0372411 -0.529231 0)
(-0.179798 -0.336258 0)
(-0.277205 -0.399523 0)
(-0.227114 -0.737426 0)
(0.0501358 -1.04234 0)
(0.272407 -1.31454 0)
(0.367604 -1.41902 0)
(0.451706 -1.18455 0)
(0.35518 -0.59907 0)
(0.257281 -0.325322 0)
(0.201834 -0.372023 0)
(0.169428 -0.449204 0)
(0.140233 -0.527523 0)
(0.0609665 -0.615796 0)
(-0.0155337 -0.65217 0)
(0.00758743 -0.575103 0)
(0.0836691 -0.579873 0)
(0.12978 -0.606668 0)
(0.114483 -0.647942 0)
(0.0757889 -0.673382 0)
(0.0640012 -0.655571 0)
(0.0527561 -0.619945 0)
(-0.00193132 -0.637429 0)
(-0.137645 -0.779797 0)
(-0.309837 -1.05288 0)
(-0.304031 -1.14761 0)
(-0.224231 -1.18047 0)
(-0.160727 -1.13543 0)
(-0.138698 -1.02539 0)
(-0.173822 -0.750678 0)
(-0.235569 -0.417881 0)
(-0.316813 -0.331188 0)
(-0.32694 -0.546091 0)
(-0.0965099 -0.968556 0)
(0.15989 -1.15525 0)
(0.223096 -1.27949 0)
(0.23485 -1.32146 0)
(0.221041 -1.07125 0)
(0.0959519 -0.471607 0)
(0.0568208 -0.256241 0)
(0.0598292 -0.364423 0)
(0.0664818 -0.471438 0)
(0.0690832 -0.55198 0)
(0.0341743 -0.604253 0)
(-0.00374735 -0.664067 0)
(0.0161546 -0.656733 0)
(0.0774061 -0.670822 0)
(0.142919 -0.688164 0)
(0.171848 -0.702729 0)
(0.16462 -0.704419 0)
(0.151265 -0.66444 0)
(0.151227 -0.605537 0)
(0.147319 -0.568363 0)
(0.0937631 -0.601872 0)
(-0.0560545 -0.8058 0)
(-0.213008 -1.10222 0)
(-0.181925 -1.14954 0)
(-0.104363 -1.09086 0)
(-0.143978 -0.957269 0)
(-0.253667 -0.610947 0)
(-0.32285 -0.334994 0)
(-0.372652 -0.344722 0)
(-0.308062 -0.742631 0)
(0.0159991 -1.05502 0)
(0.112661 -1.15354 0)
(0.094155 -1.19828 0)
(0.0339942 -1.19515 0)
(-0.0546244 -1.01989 0)
(-0.11534 -0.48546 0)
(-0.10567 -0.331106 0)
(-0.0702236 -0.438758 0)
(-0.0312235 -0.551898 0)
(0.0143562 -0.641638 0)
(0.0187007 -0.653389 0)
(-0.0145688 -0.681821 0)
(-0.00529061 -0.734981 0)
(0.0583012 -0.754916 0)
(0.129602 -0.761815 0)
(0.182519 -0.76856 0)
(0.209282 -0.762128 0)
(0.218835 -0.712847 0)
(0.233024 -0.644919 0)
(0.248738 -0.579898 0)
(0.24076 -0.552334 0)
(0.173332 -0.640955 0)
(0.0384167 -0.936263 0)
(-0.0171898 -1.15849 0)
(-0.00759154 -1.03748 0)
(-0.135767 -0.750566 0)
(-0.266394 -0.483431 0)
(-0.29717 -0.314291 0)
(-0.282779 -0.370429 0)
(-0.202684 -0.846899 0)
(0.00232781 -1.12103 0)
(0.0253036 -1.09329 0)
(-0.0801754 -1.10488 0)
(-0.236939 -1.07959 0)
(-0.343984 -0.966386 0)
(-0.324689 -0.676197 0)
(-0.224218 -0.531766 0)
(-0.126415 -0.566437 0)
(-0.0489896 -0.660619 0)
(0.0274523 -0.772974 0)
(0.030203 -0.737834 0)
(-0.0615742 -0.663733 0)
(-0.0534306 -0.8523 0)
(0.050388 -0.87304 0)
(0.118354 -0.843322 0)
(0.18268 -0.821065 0)
(0.240641 -0.806742 0)
(0.282639 -0.765138 0)
(0.310861 -0.704504 0)
(0.333318 -0.622253 0)
(0.344082 -0.571909 0)
(0.322993 -0.612169 0)
(0.254284 -0.826473 0)
(0.159323 -0.992975 0)
(0.0281879 -0.846883 0)
(-0.119863 -0.56989 0)
(-0.206294 -0.415919 0)
(-0.201024 -0.3232 0)
(-0.131341 -0.417868 0)
(-0.0773182 -0.858808 0)
(-0.0618464 -1.06962 0)
(-0.126542 -1.0305 0)
(-0.286312 -0.898302 0)
(-0.461975 -1.01056 0)
(-0.569942 -1.05703 0)
(-0.548913 -0.928046 0)
(-0.392111 -0.812672 0)
(-0.218458 -0.899664 0)
(-0.0299099 -1.01875 0)
(0.107444 -1.02802 0)
(0.0652858 -0.815725 0)
(-0.0785716 -0.674134 0)
(-0.0836528 -1.00762 0)
(0.0545933 -1.03406 0)
(0.127296 -0.963319 0)
(0.178895 -0.904733 0)
(0.22946 -0.891684 0)
(0.300982 -0.876083 0)
(0.381764 -0.799553 0)
(0.414418 -0.675237 0)
(0.410195 -0.602537 0)
(0.398698 -0.635294 0)
(0.347075 -0.781991 0)
(0.209355 -0.834754 0)
(0.0278248 -0.706889 0)
(-0.0819668 -0.509524 0)
(-0.101047 -0.40367 0)
(-0.0596529 -0.348682 0)
(0.00663808 -0.452828 0)
(-0.0086709 -0.759307 0)
(-0.131659 -0.961506 0)
(-0.288688 -0.844338 0)
(-0.495277 -0.815873 0)
(-0.647113 -1.06254 0)
(-0.670146 -1.17186 0)
(-0.614034 -1.18953 0)
(-0.395891 -1.0605 0)
(-0.169866 -1.01121 0)
(0.00186407 -0.999284 0)
(0.105523 -0.867301 0)
(0.0602334 -0.589285 0)
(-0.0240973 -0.819631 0)
(-0.0296278 -1.34369 0)
(0.0526094 -1.41979 0)
(0.140405 -1.37381 0)
(0.215943 -1.2628 0)
(0.285548 -1.16881 0)
(0.390716 -1.0947 0)
(0.476332 -0.933026 0)
(0.50323 -0.748322 0)
(0.466726 -0.619879 0)
(0.408793 -0.637158 0)
(0.341276 -0.737253 0)
(0.198896 -0.740028 0)
(0.0409341 -0.648663 0)
(-0.0206024 -0.516076 0)
(0.00310266 -0.431242 0)
(0.0549196 -0.39755 0)
(0.0893614 -0.467596 0)
(0.0299767 -0.622356 0)
(-0.149514 -0.751317 0)
(-0.363139 -0.66685 0)
(-0.571407 -0.776489 0)
(-0.665351 -1.07373 0)
(-0.588304 -1.27506 0)
(-0.42842 -1.14566 0)
(-0.290632 -1.0394 0)
(-0.144969 -1.00654 0)
(-0.0130196 -0.998419 0)
(0.072114 -0.890013 0)
(0.0340988 -0.444536 0)
(0.0218273 -0.875395 0)
(0.00343432 -1.12728 0)
(-0.0150031 -1.20706 0)
(0.0321257 -1.25135 0)
(0.121525 -1.29089 0)
(0.260934 -1.33601 0)
(0.47483 -1.42778 0)
(0.665488 -1.25138 0)
(0.662399 -0.857521 0)
(0.543227 -0.600272 0)
(0.404644 -0.581291 0)
(0.299935 -0.659629 0)
(0.19224 -0.666884 0)
(0.0962359 -0.606695 0)
(0.0569546 -0.521983 0)
(0.0704186 -0.463932 0)
(0.104246 -0.444533 0)
(0.118009 -0.478093 0)
(0.0646507 -0.537043 0)
(-0.0789243 -0.579112 0)
(-0.258175 -0.49827 0)
(-0.413255 -0.666722 0)
(-0.503548 -1.05062 0)
(-0.386898 -1.16367 0)
(-0.309053 -1.11561 0)
(-0.23739 -1.0776 0)
(-0.117663 -1.05207 0)
(0.00193706 -1.03177 0)
(0.02751 -0.816696 0)
(-0.00063941 -0.372983 0)
(-0.0452209 -0.714983 0)
(-0.112555 -0.999074 0)
(-0.0895086 -1.15055 0)
(-0.0124666 -1.2032 0)
(0.0852433 -1.24406 0)
(0.210581 -1.27822 0)
(0.34307 -1.31763 0)
(0.538272 -1.30433 0)
(0.719165 -1.0218 0)
(0.594247 -0.601994 0)
(0.401258 -0.489111 0)
(0.262406 -0.567219 0)
(0.191648 -0.590649 0)
(0.135558 -0.549519 0)
(0.101887 -0.504377 0)
(0.0974897 -0.475141 0)
(0.112195 -0.46689 0)
(0.122596 -0.479587 0)
(0.102213 -0.49007 0)
(0.0380834 -0.466577 0)
(-0.0391808 -0.380169 0)
(-0.108872 -0.529767 0)
(-0.252412 -0.894366 0)
(-0.301045 -1.06934 0)
(-0.265077 -1.09832 0)
(-0.197196 -1.09141 0)
(-0.11417 -1.08261 0)
(-0.0211951 -1.01701 0)
(-0.0190605 -0.726056 0)
(-0.0207878 -0.354936 0)
(-0.0514337 -0.556923 0)
(-0.17195 -0.942272 0)
(-0.167828 -1.12893 0)
(-0.0813482 -1.21268 0)
(0.0159896 -1.28041 0)
(0.132408 -1.32792 0)
(0.23876 -1.33218 0)
(0.337239 -1.26622 0)
(0.465344 -1.04082 0)
(0.501276 -0.668374 0)
(0.331061 -0.434031 0)
(0.215755 -0.480715 0)
(0.176268 -0.516096 0)
(0.13592 -0.485563 0)
(0.104095 -0.471849 0)
(0.094522 -0.46962 0)
(0.10335 -0.474878 0)
(0.121207 -0.48326 0)
(0.138049 -0.4782 0)
(0.151194 -0.437324 0)
(0.167964 -0.368281 0)
(0.155879 -0.43111 0)
(0.00893757 -0.679751 0)
(-0.195837 -0.944926 0)
(-0.260049 -1.00926 0)
(-0.211968 -1.07909 0)
(-0.128025 -1.07518 0)
(-0.0853641 -1.03489 0)
(-0.0746848 -0.666745 0)
(-0.0345851 -0.372014 0)
(-0.0220319 -0.418677 0)
(-0.120896 -0.749726 0)
(-0.216268 -1.13394 0)
(-0.166936 -1.19457 0)
(-0.0753697 -1.28704 0)
(0.0290774 -1.33375 0)
(0.111129 -1.38957 0)
(0.143601 -1.23935 0)
(0.222569 -1.07896 0)
(0.313938 -0.749034 0)
(0.239451 -0.456034 0)
(0.168052 -0.407976 0)
(0.139047 -0.435458 0)
(0.100921 -0.425718 0)
(0.0750046 -0.441435 0)
(0.0713549 -0.465064 0)
(0.0857723 -0.488036 0)
(0.116104 -0.507222 0)
(0.158624 -0.50741 0)
(0.210589 -0.476015 0)
(0.265248 -0.435622 0)
(0.264964 -0.440526 0)
(0.178029 -0.521536 0)
(0.000352876 -0.704293 0)
(-0.163006 -0.910582 0)
(-0.219419 -1.06746 0)
(-0.198498 -1.12034 0)
(-0.171807 -0.985139 0)
(-0.135397 -0.66372 0)
(-0.0503565 -0.426726 0)
(0.00841472 -0.361648 0)
(-0.0287273 -0.57659 0)
(-0.153452 -0.965286 0)
(-0.204669 -1.21093 0)
(-0.162339 -1.34569 0)
(-0.0939911 -1.38856 0)
(-0.0477233 -1.34792 0)
(-0.0115432 -1.22845 0)
(0.0789058 -1.13709 0)
(0.189244 -0.851113 0)
(0.148364 -0.463477 0)
(0.0975057 -0.346292 0)
(0.0708076 -0.369166 0)
(0.0412845 -0.38845 0)
(0.0298781 -0.430236 0)
(0.037563 -0.474723 0)
(0.0622479 -0.506469 0)
(0.099688 -0.543069 0)
(0.164241 -0.562919 0)
(0.237198 -0.540886 0)
(0.293621 -0.513714 0)
(0.320016 -0.503729 0)
(0.277377 -0.511788 0)
(0.164919 -0.577388 0)
(0.0170286 -0.725056 0)
(-0.120649 -0.900912 0)
(-0.212697 -1.01743 0)
(-0.233146 -0.970084 0)
(-0.176093 -0.705325 0)
(-0.0661006 -0.514121 0)
(0.0278342 -0.360296 0)
(0.0356136 -0.474293 0)
(-0.0520601 -0.78311 0)
(-0.154491 -1.0966 0)
(-0.19213 -1.27594 0)
(-0.190382 -1.34878 0)
(-0.150593 -1.35165 0)
(-0.0655116 -1.28495 0)
(0.0496645 -1.19739 0)
(0.125564 -0.896453 0)
(0.0547803 -0.4099 0)
(0.00248397 -0.314748 0)
(-0.00717844 -0.341196 0)
(-0.016516 -0.38093 0)
(-0.00904371 -0.434063 0)
(0.0334501 -0.500954 0)
(0.0680924 -0.505715 0)
(0.0813768 -0.551234 0)
(0.145589 -0.615515 0)
(0.243597 -0.593437 0)
(0.310536 -0.559949 0)
(0.339589 -0.544811 0)
(0.329909 -0.545142 0)
(0.267397 -0.569206 0)
(0.155117 -0.644439 0)
(0.0157103 -0.765378 0)
(-0.123085 -0.883293 0)
(-0.199997 -0.918748 0)
(-0.177659 -0.738833 0)
(-0.0757638 -0.617856 0)
(0.0308508 -0.386401 0)
(0.0648178 -0.438599 0)
(0.0212936 -0.6469 0)
(-0.0848707 -0.956245 0)
(-0.178488 -1.17426 0)
(-0.207449 -1.32292 0)
(-0.152841 -1.38582 0)
(-0.0169539 -1.36757 0)
(0.0920515 -1.20545 0)
(0.0411698 -0.796717 0)
(-0.0443466 -0.365623 0)
(-0.0750917 -0.317126 0)
(-0.0655942 -0.345027 0)
(-0.0540702 -0.38409 0)
(0.000507237 -0.467913 0)
(0.102439 -0.533735 0)
(0.126291 -0.457445 0)
(0.0678201 -0.503994 0)
(0.0896612 -0.65449 0)
(0.212621 -0.623613 0)
(0.306534 -0.572966 0)
(0.342654 -0.551461 0)
(0.33612 -0.550188 0)
(0.300534 -0.572689 0)
(0.231698 -0.625797 0)
(0.127931 -0.70806 0)
(0.00484978 -0.794101 0)
(-0.0962981 -0.857268 0)
(-0.131013 -0.746843 0)
(-0.0674965 -0.719515 0)
(0.0294063 -0.429429 0)
(0.078352 -0.452826 0)
(0.074248 -0.56906 0)
(-0.00642461 -0.815477 0)
(-0.117611 -1.04095 0)
(-0.160218 -1.28134 0)
(-0.0731205 -1.44482 0)
(0.0738834 -1.42804 0)
(0.115431 -1.14371 0)
(-0.0397968 -0.642044 0)
(-0.133767 -0.366511 0)
(-0.122989 -0.345506 0)
(-0.091858 -0.364516 0)
(-0.0456701 -0.401526 0)
(0.0816134 -0.556524 0)
(0.208035 -0.553759 0)
(0.176898 -0.403926 0)
(0.0571213 -0.461839 0)
(0.0288039 -0.717945 0)
(0.132642 -0.663667 0)
(0.251619 -0.565293 0)
(0.313404 -0.531036 0)
(0.315319 -0.525088 0)
(0.283383 -0.549749 0)
(0.23769 -0.601939 0)
(0.171763 -0.677669 0)
(0.0892774 -0.764071 0)
(-0.000856362 -0.820213 0)
(-0.0623998 -0.756197 0)
(-0.0399862 -0.806039 0)
(0.0253293 -0.476522 0)
(0.0793971 -0.497299 0)
(0.108356 -0.549474 0)
(0.0653308 -0.706508 0)
(-0.0288055 -0.910614 0)
(-0.0540422 -1.26253 0)
(0.0484673 -1.51681 0)
(0.148494 -1.43939 0)
(0.0486975 -0.990873 0)
(-0.126308 -0.538271 0)
(-0.179156 -0.402983 0)
(-0.134681 -0.391866 0)
(-0.0718348 -0.395026 0)
(0.0323718 -0.468963 0)
(0.188077 -0.645448 0)
(0.269678 -0.577653 0)
(0.19345 -0.394683 0)
(0.0719152 -0.481897 0)
(0.034706 -0.739776 0)
(0.0717346 -0.696198 0)
(0.136322 -0.563105 0)
(0.227601 -0.518545 0)
(0.264466 -0.488455 0)
(0.241795 -0.517506 0)
(0.204735 -0.565442 0)
(0.159717 -0.63791 0)
(0.103862 -0.727313 0)
(0.0344583 -0.780103 0)
(-0.0225066 -0.759159 0)
(-0.0202784 -0.876405 0)
(0.0184342 -0.524802 0)
(0.0718325 -0.556977 0)
(0.121024 -0.564594 0)
(0.113184 -0.644488 0)
(0.0612589 -0.82509 0)
(0.0788908 -1.30213 0)
(0.16581 -1.55784 0)
(0.134837 -1.33764 0)
(-0.07255 -0.809857 0)
(-0.198477 -0.52297 0)
(-0.185906 -0.459705 0)
(-0.110174 -0.450095 0)
(-0.00118782 -0.464779 0)
(0.154923 -0.588344 0)
(0.265376 -0.667891 0)
(0.304074 -0.578241 0)
(0.223387 -0.381503 0)
(0.111061 -0.491322 0)
(0.0515138 -0.675062 0)
(0.00204687 -0.625879 0)
(0.00162587 -0.583615 0)
(0.112444 -0.548949 0)
(0.180693 -0.4761 0)
(0.182653 -0.492614 0)
(0.160992 -0.534473 0)
(0.128294 -0.595698 0)
(0.0834703 -0.672214 0)
(0.0260408 -0.722607 0)
(-0.020877 -0.746133 0)
(-0.0182166 -0.922568 0)
(0.00577008 -0.567865 0)
(0.0636263 -0.64062 0)
(0.127472 -0.594597 0)
(0.1381 -0.626285 0)
(0.14353 -0.834861 0)
(0.197535 -1.35535 0)
(0.219574 -1.53088 0)
(0.0376669 -1.14047 0)
(-0.173611 -0.709241 0)
(-0.228712 -0.557994 0)
(-0.167251 -0.530305 0)
(-0.0585327 -0.528926 0)
(0.0960416 -0.578925 0)
(0.2673 -0.693561 0)
(0.341183 -0.678052 0)
(0.300791 -0.567591 0)
(0.222412 -0.408272 0)
(0.124151 -0.478348 0)
(0.001426 -0.575201 0)
(-0.114383 -0.562856 0)
(-0.0931242 -0.618856 0)
(0.0186865 -0.604926 0)
(0.0977432 -0.501286 0)
(0.123285 -0.487734 0)
(0.117836 -0.516412 0)
(0.0961734 -0.562429 0)
(0.0598033 -0.620424 0)
(0.0110479 -0.668531 0)
(-0.0234884 -0.731249 0)
(-0.0159357 -0.930886 0)
(-0.00275427 -0.594299 0)
(0.0624806 -0.782868 0)
(0.132072 -0.633838 0)
(0.149731 -0.646438 0)
(0.218824 -0.951635 0)
(0.292204 -1.39516 0)
(0.184065 -1.38721 0)
(-0.081701 -0.950047 0)
(-0.236219 -0.683541 0)
(-0.22605 -0.614841 0)
(-0.13609 -0.609696 0)
(-0.00316248 -0.630007 0)
(0.147355 -0.698143 0)
(0.243776 -0.790714 0)
(0.247318 -0.763335 0)
(0.225814 -0.705429 0)
(0.205297 -0.615322 0)
(0.106935 -0.640137 0)
(-0.0646542 -0.618795 0)
(-0.128865 -0.572516 0)
(-0.103796 -0.619264 0)
(-0.0375275 -0.640467 0)
(0.0404273 -0.545159 0)
(0.0799926 -0.499119 0)
(0.0839416 -0.50884 0)
(0.0702515 -0.538229 0)
(0.041379 -0.579607 0)
(0.00180953 -0.627143 0)
(-0.0176596 -0.723617 0)
(-0.00787732 -0.911802 0)
(0.0078934 -0.595276 0)
(0.0483611 -0.951037 0)
(0.107678 -0.726521 0)
(0.174021 -0.727386 0)
(0.283901 -1.10197 0)
(0.321058 -1.37154 0)
(0.0838632 -1.14768 0)
(-0.185948 -0.820473 0)
(-0.263989 -0.698102 0)
(-0.218191 -0.680665 0)
(-0.12625 -0.700365 0)
(-0.012274 -0.749671 0)
(0.0882907 -0.833026 0)
(0.124845 -0.91318 0)
(0.139629 -0.902476 0)
(0.17243 -0.877313 0)
(0.194636 -0.828832 0)
(0.150901 -0.810036 0)
(0.0378484 -0.731049 0)
(-0.0331187 -0.6299 0)
(-0.0510179 -0.616167 0)
(-0.0420913 -0.632694 0)
(0.0124489 -0.578533 0)
(0.0549138 -0.512298 0)
(0.0627061 -0.504981 0)
(0.0543361 -0.520247 0)
(0.0323719 -0.54853 0)
(0.00108692 -0.595287 0)
(-0.00961026 -0.718237 0)
(-0.00144164 -0.883206 0)
(0.0122686 -0.602628 0)
(0.0128203 -0.985146 0)
(0.0871146 -0.909947 0)
(0.236731 -0.907534 0)
(0.351992 -1.20525 0)
(0.247402 -1.20784 0)
(-0.0700568 -0.920706 0)
(-0.263853 -0.759223 0)
(-0.28257 -0.728302 0)
(-0.233721 -0.744312 0)
(-0.164817 -0.787729 0)
(-0.0873567 -0.866658 0)
(-0.00690032 -0.981185 0)
(0.0654453 -1.05395 0)
(0.136534 -1.0338 0)
(0.205111 -0.991419 0)
(0.244795 -0.933425 0)
(0.231718 -0.869556 0)
(0.164573 -0.776757 0)
(0.0844612 -0.682219 0)
(0.0234595 -0.630094 0)
(-0.00450972 -0.616603 0)
(0.0172171 -0.597754 0)
(0.0473898 -0.51916 0)
(0.0528782 -0.499488 0)
(0.0480017 -0.506064 0)
(0.0327109 -0.525195 0)
(0.008008 -0.568783 0)
(-0.00599774 -0.704652 0)
(-0.00270725 -0.860938 0)
(0.0274822 -0.624689 0)
(0.0251807 -0.906497 0)
(0.0682083 -1.02677 0)
(0.229297 -1.08457 0)
(0.282194 -1.171 0)
(0.0435328 -0.967351 0)
(-0.228928 -0.782421 0)
(-0.316396 -0.744873 0)
(-0.307544 -0.759152 0)
(-0.275513 -0.795059 0)
(-0.241112 -0.854791 0)
(-0.207538 -0.96089 0)
(-0.108986 -1.1296 0)
(0.0605776 -1.19318 0)
(0.19844 -1.13745 0)
(0.273801 -1.05233 0)
(0.320222 -0.957096 0)
(0.331625 -0.859108 0)
(0.279871 -0.757441 0)
(0.182633 -0.684988 0)
(0.0943433 -0.633993 0)
(0.0454225 -0.600914 0)
(0.0459293 -0.611025 0)
(0.0569085 -0.524922 0)
(0.051659 -0.496132 0)
(0.0475282 -0.496808 0)
(0.0385043 -0.50865 0)
(0.0183922 -0.545524 0)
(-0.00319612 -0.680626 0)
(-0.00563607 -0.849941 0)
(0.0403091 -0.660824 0)
(0.0576514 -0.816939 0)
(0.0598554 -1.03582 0)
(0.136693 -1.11331 0)
(0.0606433 -1.00982 0)
(-0.189423 -0.792483 0)
(-0.333586 -0.735049 0)
(-0.353841 -0.748642 0)
(-0.345692 -0.781623 0)
(-0.330802 -0.819913 0)
(-0.331715 -0.867455 0)
(-0.333477 -0.990128 0)
(-0.171704 -1.31558 0)
(0.125735 -1.38471 0)
(0.324778 -1.25183 0)
(0.411966 -1.08041 0)
(0.462272 -0.907672 0)
(0.463553 -0.759781 0)
(0.381075 -0.654993 0)
(0.252547 -0.627036 0)
(0.156702 -0.623971 0)
(0.116838 -0.621849 0)
(0.0888075 -0.672707 0)
(0.0598032 -0.552044 0)
(0.0524994 -0.503947 0)
(0.0509666 -0.496316 0)
(0.045775 -0.498645 0)
(0.0293746 -0.52547 0)
(0.0017191 -0.649513 0)
(-0.00676971 -0.845038 0)
(0.0411373 -0.725283 0)
(0.0823733 -0.777978 0)
(0.0785357 -0.996751 0)
(0.034972 -1.06649 0)
(-0.155123 -0.858433 0)
(-0.333352 -0.735223 0)
(-0.381119 -0.7256 0)
(-0.388806 -0.754245 0)
(-0.3784 -0.79103 0)
(-0.361151 -0.815301 0)
(-0.382368 -0.813771 0)
(-0.366775 -1.04668 0)
(-0.184772 -1.69112 0)
(0.280356 -1.79845 0)
(0.611401 -1.4978 0)
(0.758368 -1.16589 0)
(0.769687 -0.921954 0)
(0.678567 -0.7786 0)
(0.531886 -0.738413 0)
(0.373723 -0.810262 0)
(0.235455 -0.850916 0)
(0.168385 -0.8552 0)
(0.103114 -0.788546 0)
(0.0557884 -0.580466 0)
(0.0578657 -0.514426 0)
(0.06184 -0.499533 0)
(0.055325 -0.491875 0)
(0.0396199 -0.507999 0)
(0.00783882 -0.615106 0)
(-0.00638145 -0.843491 0)
(0.0276613 -0.800096 0)
(0.0791693 -0.79727 0)
(0.0769777 -0.93581 0)
(-0.0751738 -0.934065 0)
(-0.272205 -0.779787 0)
(-0.370945 -0.710245 0)
(-0.404351 -0.714854 0)
(-0.415372 -0.746532 0)
(-0.383236 -0.796501 0)
(-0.338741 -0.792148 0)
(-0.323322 -0.758163 0)
(-0.173385 -1.41882 0)
(0.195387 -2.35776 0)
(0.777854 -2.34006 0)
(1.21083 -1.90349 0)
(1.38525 -1.45344 0)
(1.32218 -1.1875 0)
(1.13135 -1.09079 0)
(0.881165 -1.12631 0)
(0.619627 -1.22407 0)
(0.396337 -1.20953 0)
(0.259819 -1.09276 0)
(0.14269 -0.76022 0)
(0.0627847 -0.56764 0)
(0.0649333 -0.517231 0)
(0.0750126 -0.495573 0)
(0.0663483 -0.482668 0)
(0.0481356 -0.491123 0)
(0.0135837 -0.581243 0)
(-0.00516124 -0.839387 0)
(0.0112323 -0.877736 0)
(0.0420599 -0.829667 0)
(0.0106991 -0.84966 0)
(-0.140548 -0.798907 0)
(-0.289883 -0.708971 0)
(-0.370936 -0.669051 0)
(-0.420952 -0.678243 0)
(-0.430237 -0.724565 0)
(-0.357994 -0.80194 0)
(-0.228573 -0.781437 0)
(-0.0595865 -0.971014 0)
(0.25293 -2.10674 0)
(0.776583 -2.71113 0)
(1.17886 -2.4611 0)
(1.48083 -1.93603 0)
(1.55899 -1.39289 0)
(1.46978 -1.1042 0)
(1.24752 -1.01847 0)
(0.947288 -1.05111 0)
(0.671102 -1.11234 0)
(0.466363 -1.1082 0)
(0.270433 -0.918309 0)
(0.108025 -0.62992 0)
(0.0547186 -0.541709 0)
(0.0721984 -0.520284 0)
(0.0861275 -0.486041 0)
(0.0736753 -0.469594 0)
(0.0531238 -0.473435 0)
(0.018157 -0.549503 0)
(-0.00345144 -0.827071 0)
(-0.00876217 -0.932461 0)
(-0.0095468 -0.837929 0)
(-0.0552928 -0.746413 0)
(-0.171299 -0.676738 0)
(-0.282272 -0.622067 0)
(-0.369838 -0.60097 0)
(-0.431406 -0.616667 0)
(-0.423886 -0.690981 0)
(-0.281232 -0.827759 0)
(-0.043712 -0.923753 0)
(0.313511 -1.61693 0)
(0.795958 -2.61818 0)
(1.14765 -2.91483 0)
(1.28843 -2.48248 0)
(1.27932 -1.79488 0)
(1.09768 -1.1201 0)
(0.916943 -0.774885 0)
(0.741566 -0.690204 0)
(0.581325 -0.751655 0)
(0.446185 -0.848125 0)
(0.335115 -0.884537 0)
(0.182088 -0.706257 0)
(0.0645594 -0.555172 0)
(0.0551669 -0.531541 0)
(0.0824497 -0.528936 0)
(0.0933902 -0.476257 0)
(0.0768356 -0.454768 0)
(0.0547487 -0.455256 0)
(0.0226986 -0.519451 0)
(7.05948e-06 -0.803144 0)
(-0.0209104 -0.929683 0)
(-0.0511206 -0.809798 0)
(-0.0969972 -0.657952 0)
(-0.180679 -0.57801 0)
(-0.274969 -0.534951 0)
(-0.365545 -0.517601 0)
(-0.423528 -0.543701 0)
(-0.382202 -0.666359 0)
(-0.166685 -0.94527 0)
(0.228867 -1.36554 0)
(0.693117 -2.28034 0)
(1.08117 -2.96651 0)