/*--------------------------------*- C++ -*----------------------------------*\
| =========                 |                                                 |
| \\      /  F ield         | OpenFOAM: The Open Source CFD Toolbox           |
|  \\    /   O peration     | Version:  v1606+                                |
|   \\  /    A nd           | Web:      www.OpenFOAM.com                      |
|    \\/     M anipulation  |                                                 |
\*---------------------------------------------------------------------------*/
FoamFile
{
    version     2.0;
    format      ascii;
    class       volScalarField;
    location    "0.05";
    object      nut.air;
}
// * * * * * * * * * * * * * * * * * * * * * * * * * * * * * * * * * * * * * //

dimensions      [0 2 -1 0 0 0 0];

internalField   nonuniform List<scalar> 
6000
(
0.000531284
0.00483436
0.00779046
0.00849093
0.00868874
0.0087557
0.00878457
0.00879931
0.00880913
0.0088149
0.00881917
0.00882187
0.0088232
0.00882418
0.00882451
0.00882453
0.00882409
0.00882323
0.00882147
0.00881869
0.00881462
0.0088091
0.00879939
0.00878374
0.00875481
0.0086883
0.00849058
0.00779055
0.00483419
0.000531234
0.000427832
0.00311685
0.00592494
0.007478
0.00817115
0.00848432
0.00864138
0.00873016
0.0087858
0.0088215
0.00884557
0.00886167
0.00887205
0.00887835
0.00888116
0.00888123
0.00887821
0.00887192
0.00886147
0.00884533
0.00882105
0.00878442
0.00872827
0.00864018
0.00848344
0.00816962
0.00747494
0.00591895
0.00310991
0.000428007
0.000367279
0.00248398
0.00486559
0.0065014
0.0074486
0.00799159
0.0083023
0.00848762
0.00860415
0.0086796
0.00872977
0.00876313
0.00878477
0.00879783
0.00880397
0.00880405
0.00879795
0.00878494
0.00876329
0.00872981
0.00867931
0.00860317
0.00848613
0.00830088
0.00799009
0.00744622
0.00649681
0.00485742
0.00247466
0.000366882
0.000324567
0.00218949
0.00425163
0.00584705
0.00689628
0.00755218
0.00795766
0.00821303
0.00837931
0.00849066
0.00856658
0.00861829
0.00865251
0.00867343
0.00868343
0.00868358
0.00867383
0.00865305
0.00861882
0.00856699
0.0084908
0.00837905
0.00821252
0.00795689
0.00755101
0.00689397
0.00584228
0.00424266
0.0021749
0.00032434
0.000295247
0.00195561
0.0038759
0.00540246
0.00648627
0.00721119
0.00768321
0.00799035
0.00819353
0.00833126
0.00842641
0.00849237
0.00853688
0.00856457
0.00857792
0.00857809
0.00856504
0.00853754
0.00849304
0.00842698
0.00833165
0.00819371
0.00799038
0.00768297
0.00721043
0.00648442
0.00539883
0.00386969
0.00194725
0.000295174
0.000277342
0.00184747
0.00365118
0.00511186
0.00620265
0.00697536
0.00750459
0.00786108
0.00810037
0.00826195
0.00837207
0.00844723
0.00849739
0.00852836
0.00854325
0.00854337
0.00852873
0.00849792
0.00844782
0.00837262
0.00826242
0.00810075
0.00786133
0.0075046
0.00697489
0.00620138
0.00510955
0.00364769
0.00184386
0.000277344
0.000266197
0.00181242
0.00351688
0.00491545
0.00599823
0.00680195
0.00737946
0.00778507
0.00806576
0.00825827
0.00838943
0.0084778
0.00853563
0.00857063
0.00858719
0.00858727
0.00857089
0.00853603
0.00847826
0.0083899
0.00825872
0.00806615
0.00778534
0.00737953
0.00680167
0.00599744
0.00491407
0.00351499
0.00181072
0.000266214
0.00025795
0.00179385
0.00343048
0.00477857
0.00584694
0.00666743
0.00727984
0.00772619
0.00804526
0.00826967
0.00842504
0.00853044
0.00859934
0.0086408
0.00866028
0.00866035
0.00864101
0.00859965
0.00853081
0.00842544
0.00827005
0.00804559
0.00772643
0.00727992
0.00666726
0.00584645
0.00477774
0.00342939
0.00179287
0.000257965
0.000251897
0.00177958
0.0033712
0.00468144
0.00573519
0.00656423
0.00720104
0.00767905
0.00803031
0.00828329
0.00846173
0.00858432
0.00866506
0.00871379
0.00873668
0.00873674
0.00871395
0.00866531
0.00858461
0.00846204
0.0082836
0.00803057
0.00767923
0.0072011
0.00656412
0.00573487
0.0046809
0.0033705
0.0017789
0.000251909
0.000247618
0.00176879
0.00332834
0.00461077
0.00565224
0.00648583
0.00713998
0.00764235
0.00801983
0.00829724
0.00849629
0.0086349
0.00872709
0.00878306
0.00880944
0.00880948
0.00878318
0.00872727
0.00863512
0.00849653
0.00829747
0.00802002
0.00764248
0.00714001
0.00648574
0.00565201
0.00461039
0.00332784
0.00176827
0.000247626
0.000244641
0.00176057
0.00329573
0.00455773
0.00558974
0.00642605
0.00709285
0.00761398
0.00801249
0.00831026
0.00852707
0.00867993
0.00878257
0.00884531
0.00887499
0.00887502
0.0088454
0.0087827
0.00868009
0.00852724
0.00831042
0.00801262
0.00761405
0.00709285
0.00642596
0.00558954
0.00455744
0.00329534
0.00176016
0.000244646
0.000242581
0.00175385
0.00326993
0.00451681
0.00554175
0.00637989
0.00705604
0.00759152
0.00800665
0.00832096
0.00855261
0.00871765
0.00882944
0.0088982
0.00893084
0.00893086
0.00889826
0.00882953
0.00871776
0.00855272
0.00832106
0.00800672
0.00759154
0.007056
0.00637978
0.00554157
0.00451656
0.00326963
0.00175353
0.000242584
0.000241164
0.00174813
0.00324921
0.00448471
0.00550436
0.00634371
0.00702672
0.00757302
0.00800098
0.00832837
0.00857202
0.00874712
0.00886657
0.00894045
0.00897564
0.00897565
0.00894049
0.00886663
0.00874718
0.00857208
0.00832842
0.00800099
0.00757299
0.00702664
0.00634358
0.00550417
0.00448448
0.00324895
0.00174788
0.000241168
0.000240196
0.0017433
0.00323262
0.00445943
0.00547496
0.00631498
0.00700285
0.00755708
0.00799467
0.00833208
0.0085851
0.0087682
0.00889383
0.00897189
0.00900917
0.00900918
0.00897191
0.00889387
0.00876823
0.00858513
0.00833209
0.00799465
0.00755702
0.00700275
0.00631483
0.00547477
0.00445921
0.00323238
0.00174309
0.0002402
0.000239534
0.00173933
0.00321953
0.00443962
0.00545179
0.00629194
0.00698303
0.00754283
0.00798737
0.00833219
0.00859226
0.00878146
0.00891188
0.00899319
0.00903211
0.00903212
0.0089932
0.00891189
0.00878147
0.00859226
0.00833217
0.00798733
0.00754275
0.00698292
0.00629178
0.0054516
0.0044394
0.00321931
0.00173914
0.000239537
0.000239079
0.00173612
0.00320936
0.00442421
0.00543354
0.00627332
0.00696631
0.00752975
0.00797907
0.0083291
0.00859424
0.00878789
0.00892185
0.00900559
0.00904575
0.00904575
0.00900559
0.00892185
0.00878789
0.00859423
0.00832908
0.00797902
0.00752968
0.0069662
0.00627317
0.00543335
0.00442399
0.00320914
0.00173593
0.00023908
0.000238753
0.00173353
0.00320156
0.00441232
0.00541917
0.00625819
0.00695201
0.00751761
0.00796996
0.00832345
0.00859203
0.00878876
0.00892519
0.00901064
0.00905167
0.00905167
0.00901064
0.00892519
0.00878876
0.00859202
0.00832343
0.00796992
0.00751755
0.00695192
0.00625806
0.005419
0.00441212
0.00320134
0.00173334
0.000238754
0.000238521
0.00173138
0.00319562
0.00440322
0.00540787
0.00624582
0.00693969
0.0075063
0.00796035
0.00831593
0.00858666
0.00878537
0.0089234
0.00900999
0.00905159
0.0090516
0.00900999
0.00892341
0.00878538
0.00858667
0.00831593
0.00796034
0.00750627
0.00693964
0.00624572
0.00540774
0.00440305
0.00319542
0.0017312
0.00023852
0.000238342
0.00172959
0.00319116
0.00439629
0.00539896
0.00623562
0.00692899
0.00749579
0.00795057
0.00830721
0.00857912
0.00877896
0.00891795
0.0090052
0.00904715
0.00904715
0.00900521
0.00891797
0.008779
0.00857917
0.00830725
0.00795061
0.00749581
0.00692898
0.00623558
0.00539888
0.00439616
0.00319099
0.00172942
0.00023834
0.000238186
0.00172831
0.0031879
0.004391
0.00539185
0.00622712
0.00691962
0.00748606
0.0079409
0.00829788
0.0085703
0.00877065
0.00891008
0.00899766
0.00903979
0.0090398
0.00899769
0.00891014
0.00877073
0.00857039
0.00829798
0.007941
0.00748614
0.00691968
0.00622714
0.00539183
0.00439092
0.00318778
0.00172817
0.000238183
0.000238082
0.00172748
0.0031854
0.00438674
0.00538597
0.00621987
0.00691134
0.0074771
0.00793158
0.00828843
0.00856087
0.00876133
0.00890088
0.00898855
0.00903073
0.00903074
0.00898859
0.00890096
0.00876145
0.00856103
0.0082886
0.00793175
0.00747725
0.00691146
0.00621995
0.00538599
0.0043867
0.00318533
0.00172739
0.000238079
0.000237998
0.00172672
0.00318326
0.00438308
0.00538087
0.00621352
0.00690392
0.00746886
0.00792274
0.0082792
0.00855138
0.00875167
0.00889111
0.00897872
0.00902086
0.00902088
0.00897878
0.00889124
0.00875185
0.0085516
0.00827944
0.00792299
0.00746909
0.00690412
0.00621366
0.00538096
0.0043831
0.00318323
0.00172668
0.000237995
0.00023791
0.00172581
0.00318121
0.00437978
0.00537634
0.00620783
0.00689722
0.00746128
0.00791446
0.00827037
0.00854214
0.00874212
0.0088813
0.0089687
0.00901074
0.00901077
0.00896881
0.00888149
0.00874238
0.00854245
0.0082707
0.0079148
0.00746159
0.00689749
0.00620805
0.00537648
0.00437985
0.00318121
0.00172578
0.000237908
0.000237827
0.00172475
0.00317916
0.00437668
0.00537217
0.00620266
0.0068911
0.0074543
0.00790674
0.00826205
0.00853334
0.00873294
0.00887177
0.00895892
0.00900084
0.00900089
0.00895908
0.00887203
0.00873328
0.00853375
0.00826248
0.00790717
0.0074547
0.00689145
0.00620295
0.00537238
0.00437681
0.00317921
0.00172476
0.000237826
0.000237748
0.0017236
0.00317712
0.00437375
0.00536833
0.00619789
0.00688544
0.00744783
0.00789954
0.00825423
0.00852503
0.00872423
0.00886272
0.00894964
0.00899145
0.00899154
0.00894988
0.00886309
0.0087247
0.00852556
0.00825478
0.00790008
0.00744832
0.00688588
0.00619826
0.00536861
0.00437395
0.00317723
0.00172365
0.000237747
0.000237676
0.00172241
0.00317514
0.00437102
0.00536485
0.00619348
0.00688016
0.00744175
0.00789275
0.00824685
0.00851716
0.008716
0.00885421
0.00894096
0.0089827
0.00898282
0.0089413
0.00885473
0.00871663
0.00851784
0.00824752
0.00789339
0.00744233
0.00688067
0.00619393
0.00536523
0.00437129
0.0031753
0.00172249
0.000237674
0.000237607
0.00172124
0.00317328
0.00436863
0.00536159
0.00618934
0.00687514
0.00743593
0.00788625
0.00823976
0.00850962
0.00870814
0.00884618
0.00893281
0.00897452
0.00897468
0.00893327
0.00884688
0.00870896
0.00851046
0.00824057
0.00788699
0.0074366
0.00687573
0.00618985
0.00536203
0.00436897
0.00317349
0.00172133
0.000237607
0.000237547
0.00172013
0.00317167
0.00436643
0.00535851
0.00618536
0.00687029
0.00743029
0.00787992
0.00823286
0.00850229
0.00870053
0.00883853
0.00892506
0.00896678
0.00896699
0.00892568
0.0088394
0.00870154
0.0085033
0.00823381
0.00788076
0.00743103
0.00687093
0.0061859
0.00535896
0.0043668
0.00317193
0.00172024
0.000237546
0.000237495
0.00171898
0.00317039
0.00436431
0.00535554
0.00618148
0.00686554
0.00742474
0.00787368
0.00822607
0.00849506
0.00869303
0.00883101
0.0089176
0.00895934
0.00895962
0.00891836
0.0088321
0.00869425
0.00849622
0.00822712
0.00787461
0.00742554
0.0068662
0.00618202
0.00535598
0.00436468
0.00317069
0.00171909
0.000237497
0.00023745
0.00171802
0.00316903
0.00436226
0.00535261
0.00617767
0.00686086
0.00741927
0.00786752
0.00821933
0.0084879
0.00868559
0.00882347
0.0089103
0.00895214
0.00895242
0.00891114
0.00882476
0.00868694
0.00848915
0.00822045
0.00786848
0.00742007
0.00686151
0.00617818
0.00535302
0.00436262
0.00316932
0.00171819
0.000237456
0.000237417
0.00171737
0.00316785
0.00436024
0.00534973
0.00617392
0.00685626
0.00741388
0.00786144
0.00821268
0.0084808
0.00867821
0.00881596
0.00890299
0.00894496
0.00894526
0.00890386
0.00881726
0.00867957
0.00848205
0.00821378
0.00786237
0.00741464
0.00685685
0.00617437
0.00535009
0.00436054
0.00316813
0.00171757
0.000237427
0.000237405
0.00171697
0.0031667
0.00435825
0.00534692
0.00617026
0.00685176
0.00740861
0.00785548
0.00820615
0.00847383
0.00867092
0.00880849
0.0088955
0.0089376
0.0089379
0.00889632
0.00880964
0.00867213
0.00847495
0.00820714
0.00785631
0.00740926
0.00685225
0.00617061
0.00534719
0.00435848
0.00316692
0.00171719
0.000237416
0.000237398
0.00171679
0.00316542
0.00435624
0.00534415
0.00616668
0.0068474
0.0074035
0.00784971
0.0081998
0.00846701
0.00866376
0.00880104
0.00888779
0.00892995
0.0089302
0.0088885
0.00880193
0.00866469
0.0084679
0.00820058
0.00785034
0.00740399
0.00684774
0.00616692
0.00534433
0.0043564
0.00316556
0.00171693
0.000237409
0.000237353
0.00171608
0.00316405
0.00435426
0.00534145
0.00616323
0.0068432
0.00739859
0.00784416
0.00819369
0.00846043
0.00865678
0.00879369
0.00888006
0.00892203
0.0089222
0.00888055
0.00879425
0.00865736
0.00846099
0.00819417
0.00784454
0.00739886
0.00684337
0.00616334
0.00534153
0.00435434
0.00316413
0.00171613
0.000237353
0.000237294
0.00171503
0.0031626
0.00435229
0.00533883
0.0061599
0.00683918
0.00739391
0.00783886
0.00818786
0.00845413
0.00865006
0.00878656
0.0088725
0.0089141
0.00891417
0.00887269
0.00878674
0.00865022
0.00845429
0.00818799
0.00783894
0.00739394
0.00683917
0.00615988
0.00533883
0.00435232
0.00316265
0.00171505
0.000237296
0.000237257
0.00171405
0.00316122
0.00435039
0.0053363
0.00615672
0.00683534
0.00738945
0.00783383
0.00818231
0.00844812
0.00864364
0.00877975
0.00886528
0.00890649
0.00890645
0.00886516
0.00877952
0.00864337
0.00844788
0.00818207
0.0078336
0.00738923
0.00683514
0.00615657
0.00533622
0.00435037
0.00316125
0.00171409
0.000237261
0.000237232
0.00171321
0.00315992
0.00434856
0.00533387
0.00615365
0.00683165
0.00738519
0.00782903
0.00817702
0.0084424
0.00863752
0.00877326
0.00885844
0.00889934
0.0088992
0.00885803
0.00877265
0.00863685
0.00844176
0.00817643
0.0078285
0.00738472
0.00683129
0.00615339
0.00533372
0.0043485
0.00315993
0.00171324
0.000237237
0.00023721
0.00171241
0.00315866
0.00434678
0.0053315
0.00615067
0.00682808
0.00738106
0.0078244
0.00817193
0.00843688
0.00863163
0.00876704
0.00885192
0.00889258
0.00889235
0.00885128
0.00876612
0.00863062
0.00843591
0.00817103
0.0078236
0.0073804
0.00682757
0.00615032
0.00533129
0.00434669
0.00315866
0.00171244
0.000237215
0.000237187
0.00171163
0.00315743
0.00434503
0.00532916
0.00614773
0.00682457
0.00737701
0.00781984
0.00816693
0.00843148
0.00862586
0.00876096
0.00884557
0.00888605
0.00888577
0.00884477
0.00875981
0.00862461
0.00843025
0.00816579
0.00781886
0.00737619
0.00682395
0.00614732
0.00532891
0.00434491
0.0031574
0.00171164
0.000237191
0.000237161
0.00171084
0.00315619
0.00434326
0.00532681
0.00614479
0.00682105
0.00737295
0.00781529
0.00816193
0.00842607
0.00862009
0.00875489
0.00883927
0.00887959
0.00887928
0.00883837
0.00875362
0.00861869
0.00842469
0.00816064
0.00781418
0.00737204
0.00682037
0.00614433
0.00532654
0.00434312
0.00315614
0.00171084
0.000237164
0.000237132
0.00171003
0.00315492
0.00434146
0.00532442
0.00614179
0.00681747
0.00736884
0.00781068
0.00815685
0.00842058
0.00861423
0.00874873
0.0088329
0.00887308
0.00887276
0.00883197
0.00874744
0.00861279
0.00841914
0.0081555
0.00780951
0.00736788
0.00681677
0.00614132
0.00532413
0.00434131
0.00315486
0.00171002
0.000237136
0.000237103
0.00170921
0.00315363
0.00433962
0.00532196
0.00613872
0.00681381
0.00736462
0.00780595
0.00815166
0.00841497
0.00860826
0.00874245
0.00882642
0.00886649
0.00886617
0.00882551
0.0087412
0.00860684
0.00841353
0.00815031
0.00780479
0.00736368
0.00681312
0.00613826
0.00532168
0.00433946
0.00315355
0.00170919
0.000237107
0.000237074
0.00170838
0.00315231
0.00433772
0.00531944
0.00613557
0.00681004
0.00736029
0.00780111
0.00814636
0.00840925
0.00860218
0.00873609
0.00881988
0.00885986
0.00885956
0.00881903
0.00873493
0.00860084
0.00840788
0.00814507
0.0078
0.0073594
0.00680939
0.00613512
0.00531916
0.00433756
0.00315223
0.00170836
0.000237079
0.000237048
0.00170756
0.00315097
0.00433579
0.00531686
0.00613234
0.00680619
0.00735586
0.00779617
0.00814096
0.00840346
0.00859605
0.0087297
0.00881334
0.00885328
0.00885302
0.00881259
0.00872867
0.00859484
0.00840221
0.00813979
0.00779517
0.00735506
0.00680559
0.00613192
0.00531659
0.00433564
0.00315089
0.00170753
0.000237053
0.000237025
0.00170675
0.00314963
0.00433384
0.00531424
0.00612905
0.00680228
0.00735138
0.00779118
0.00813553
0.00839765
0.00858995
0.00872339
0.0088069
0.00884684
0.00884662
0.00880627
0.0087225
0.0085889
0.00839657
0.00813451
0.0077903
0.00735067
0.00680175
0.00612868
0.00531399
0.00433369
0.00314955
0.00170672
0.000237031
0.000237004
0.00170596
0.00314831
0.00433189
0.00531162
0.00612576
0.00679835
0.00734688
0.00778619
0.00813011
0.0083919
0.00858394
0.00871721
0.00880064
0.00884059
0.00884042
0.00880014
0.00871648
0.00858308
0.00839101
0.00812927
0.00778545
0.00734628
0.00679789
0.00612542
0.00531138
0.00433174
0.00314822
0.00170593
0.00023701
0.000236986
0.00170518
0.00314699
0.00432995
0.005309
0.00612247
0.00679444
0.00734242
0.00778124
0.00812477
0.00838626
0.00857808
0.00871122
0.0087946
0.00883457
0.00883445
0.00879424
0.00871067
0.00857743
0.00838557
0.00812412
0.00778066
0.00734193
0.00679405
0.00612217
0.00530878
0.0043298
0.00314691
0.00170515
0.000236991
0.000236967
0.00170442
0.00314569
0.00432802
0.0053064
0.00611922
0.00679058
0.00733802
0.00777639
0.00811955
0.00838077
0.00857241
0.00870545
0.00878881
0.00882881
0.00882872
0.00878857
0.00870508
0.00857195
0.00838028
0.00811908
0.00777595
0.00733764
0.00679026
0.00611895
0.00530619
0.00432787
0.00314559
0.00170437
0.000236971
0.000236947
0.00170365
0.00314439
0.0043261
0.00530382
0.006116
0.00678677
0.00733369
0.00777164
0.00811446
0.00837542
0.00856691
0.00869987
0.00878323
0.00882326
0.00882322
0.0087831
0.00869966
0.00856664
0.00837512
0.00811415
0.00777133
0.00733341
0.00678651
0.00611576
0.00530362
0.00432593
0.00314427
0.00170359
0.000236949
0.000236924
0.00170286
0.00314307
0.00432417
0.00530124
0.00611279
0.006783
0.00732943
0.00776696
0.00810946
0.0083702
0.00856153
0.00869443
0.00877778
0.00881784
0.00881783
0.00877774
0.00869435
0.00856142
0.00837005
0.00810929
0.00776677
0.00732922
0.00678279
0.00611257
0.00530103
0.00432398
0.00314292
0.00170278
0.000236924
0.000236898
0.00170206
0.00314172
0.00432221
0.00529864
0.00610958
0.00677923
0.00732518
0.00776231
0.0081045
0.00836501
0.0085562
0.00868901
0.00877233
0.00881242
0.00881244
0.00877238
0.00868903
0.0085562
0.00836498
0.00810443
0.0077622
0.00732503
0.00677905
0.00610936
0.00529841
0.00432199
0.00314154
0.00170195
0.000236895
0.00023687
0.00170123
0.00314034
0.0043202
0.00529599
0.00610632
0.00677543
0.0073209
0.00775764
0.00809951
0.00835978
0.0085508
0.0086835
0.00876676
0.00880685
0.00880688
0.00876686
0.00868358
0.00855087
0.00835982
0.00809951
0.00775758
0.00732079
0.00677526
0.0061061
0.00529574
0.00431994
0.00314011
0.00170109
0.000236864
0.000236839
0.00170039
0.00313891
0.00431813
0.00529327
0.00610299
0.00677156
0.00731656
0.00775289
0.00809444
0.00835444
0.00854527
0.00867783
0.00876098
0.00880104
0.00880107
0.0087611
0.00867792
0.00854536
0.00835451
0.00809446
0.00775285
0.00731645
0.00677139
0.00610276
0.00529299
0.00431783
0.00313863
0.00170021
0.000236831
0.000236809
0.00169953
0.00313744
0.004316
0.00529048
0.00609958
0.00676759
0.00731212
0.00774805
0.00808925
0.00834897
0.00853957
0.00867196
0.00875498
0.00879497
0.00879499
0.00875509
0.00867203
0.00853965
0.00834903
0.00808927
0.00774801
0.00731202
0.00676742
0.00609934
0.00529018
0.00431567
0.00313713
0.00169932
0.000236799
0.000236778
0.00169867
0.00313595
0.00431383
0.00528763
0.0060961
0.00676354
0.00730758
0.00774309
0.00808394
0.00834336
0.00853372
0.00866592
0.0087488
0.00878869
0.0087887
0.00874887
0.00866596
0.00853378
0.00834341
0.00808396
0.00774306
0.00730749
0.00676338
0.00609585
0.00528731
0.00431347
0.00313561
0.00169843
0.000236768
0.000236749
0.00169781
0.00313444
0.00431162
0.00528473
0.00609255
0.00675943
0.00730296
0.00773804
0.00807853
0.00833765
0.00852776
0.00865976
0.00874251
0.00878229
0.0087823
0.00874255
0.00865979
0.00852781
0.00833771
0.00807856
0.00773803
0.00730289
0.00675928
0.00609232
0.00528442
0.00431127
0.0031341
0.00169756
0.000236739
0.000236721
0.00169695
0.00313292
0.0043094
0.0052818
0.00608898
0.00675527
0.00729829
0.00773294
0.00807306
0.00833188
0.00852174
0.00865355
0.00873618
0.00877588
0.00877589
0.00873622
0.00865361
0.00852183
0.00833198
0.00807315
0.00773299
0.00729827
0.00675517
0.00608879
0.00528154
0.00430909
0.00313261
0.00169672
0.000236712
0.000236692
0.00169609
0.0031314
0.00430717
0.00527888
0.00608539
0.0067511
0.00729362
0.00772783
0.00806758
0.0083261
0.00851572
0.00864737
0.00872988
0.00876953
0.00876955
0.00872996
0.0086475
0.0085159
0.0083263
0.00806777
0.00772797
0.00729369
0.00675109
0.00608529
0.00527869
0.00430693
0.00313114
0.00169589
0.000236685
0.000236662
0.00169523
0.00312987
0.00430494
0.00527595
0.00608182
0.00674696
0.00728897
0.00772275
0.00806215
0.00832038
0.00850977
0.00864126
0.00872368
0.0087633
0.00876335
0.00872383
0.0086415
0.00851009
0.00832073
0.00806249
0.00772304
0.00728918
0.00674707
0.00608184
0.00527587
0.00430479
0.00312969
0.00169506
0.000236657
0.00023663
0.00169435
0.00312833
0.0043027
0.00527302
0.00607826
0.00674284
0.00728436
0.00771773
0.00805678
0.00831473
0.00850392
0.00863526
0.00871761
0.00875721
0.00875729
0.00871786
0.00863566
0.00850442
0.00831528
0.00805732
0.00771821
0.00728475
0.00674312
0.00607843
0.00527308
0.00430267
0.00312824
0.00169424
0.000236627
0.000236596
0.00169345
0.00312677
0.00430044
0.00527009
0.00607471
0.00673873
0.00727978
0.00771274
0.00805146
0.00830915
0.00849815
0.00862936
0.00871165
0.00875124
0.00875137
0.00871203
0.00862995
0.00849887
0.00830994
0.00805224
0.00771346
0.00728038
0.0067392
0.00607504
0.00527029
0.00430053
0.00312677
0.0016934
0.000236593
0.000236558
0.00169253
0.00312518
0.00429815
0.00526713
0.00607114
0.00673462
0.0072752
0.00770777
0.00804617
0.00830361
0.00849241
0.00862351
0.00870574
0.00874534
0.00874552
0.00870626
0.0086243
0.00849338
0.00830465
0.00804721
0.00770873
0.00727603
0.00673529
0.00607164
0.00526748
0.00429836
0.00312526
0.00169253
0.000236557
0.00023652
0.00169159
0.00312355
0.00429583
0.00526414
0.00606754
0.00673049
0.00727061
0.00770279
0.00804087
0.00829805
0.00848667
0.00861763
0.00869981
0.00873941
0.00873964
0.00870047
0.00861863
0.00848787
0.00829935
0.00804216
0.00770398
0.00727164
0.00673134
0.0060682
0.00526461
0.00429613
0.00312371
0.00169163
0.000236518
0.00023648
0.00169063
0.0031219
0.00429348
0.00526111
0.00606391
0.00672633
0.00726599
0.00769778
0.00803553
0.00829245
0.00848087
0.00861171
0.00869381
0.0087334
0.00873368
0.00869459
0.00861287
0.00848228
0.00829396
0.00803704
0.00769916
0.00726719
0.00672732
0.00606469
0.00526168
0.00429385
0.00312211
0.00169071
0.000236478
0.000236441
0.00168968
0.00312025
0.00429111
0.00525806
0.00606025
0.00672214
0.00726134
0.00769274
0.00803017
0.00828683
0.00847504
0.00860573
0.00868774
0.0087273
0.00872761
0.0086886
0.00860701
0.00847659
0.00828848
0.00803181
0.00769424
0.00726265
0.00672322
0.0060611
0.00525868
0.00429152
0.00312048
0.00168978
0.000236437
0.000236403
0.00168874
0.00311861
0.00428875
0.00525502
0.00605659
0.00671793
0.00725668
0.00768769
0.0080248
0.0082812
0.00846921
0.00859974
0.00868165
0.00872117
0.00872149
0.00868253
0.00860105
0.00847079
0.00828289
0.00802647
0.00768923
0.00725801
0.00671903
0.00605744
0.00525563
0.00428915
0.00311884
0.00168886
0.000236398
0.000236366
0.00168783
0.003117
0.00428642
0.005252
0.00605295
0.00671376
0.00725205
0.00768269
0.00801948
0.00827562
0.00846343
0.00859381
0.00867561
0.00871506
0.00871536
0.00867645
0.00859505
0.00846493
0.00827722
0.00802106
0.00768414
0.00725331
0.00671479
0.00605374
0.00525256
0.00428678
0.00311721
0.00168795
0.00023636
0.00023633
0.00168694
0.00311542
0.00428413
0.00524902
0.00604936
0.00670964
0.00724749
0.00767776
0.00801425
0.00827014
0.00845776
0.00858799
0.00866968
0.00870905
0.0087093
0.0086704
0.00858907
0.00845906
0.00827154
0.00801563
0.00767902
0.00724859
0.00671053
0.00605003
0.00524948
0.00428441
0.00311559
0.00168706
0.000236324
0.000236294
0.00168608
0.00311388
0.00428187
0.0052461
0.00604584
0.00670562
0.00724304
0.00767295
0.00800916
0.00826482
0.00845226
0.00858234
0.00866391
0.00870318
0.00870337
0.00866445
0.00858316
0.00845326
0.00826591
0.00801023
0.00767393
0.00724388
0.00670629
0.00604633
0.00524642
0.00428206
0.00311399
0.00168618
0.000236287
0.000236256
0.00168522
0.00311234
0.00427964
0.00524322
0.00604239
0.00670168
0.00723871
0.00766829
0.00800423
0.00825969
0.00844695
0.0085769
0.00865835
0.00869752
0.00869764
0.00865868
0.00857741
0.00844759
0.00826038
0.00800492
0.00766892
0.00723923
0.00670209
0.00604267
0.00524338
0.00427972
0.00311239
0.0016853
0.00023625
0.000236215
0.00168435
0.00311079
0.00427741
0.00524036
0.00603899
0.00669783
0.00723448
0.00766378
0.00799948
0.00825475
0.00844186
0.00857167
0.00865301
0.00869209
0.00869212
0.00865312
0.00857185
0.00844208
0.00825499
0.00799973
0.007664
0.00723466
0.00669795
0.00603905
0.00524036
0.00427739
0.00311079
0.00168442
0.000236211
0.000236171
0.00168345
0.00310919
0.00427514
0.00523749
0.00603561
0.00669402
0.00723034
0.00765936
0.00799486
0.00824995
0.00843693
0.00856663
0.00864787
0.00868685
0.0086868
0.00864775
0.00856647
0.00843674
0.00824976
0.00799466
0.00765918
0.00723017
0.00669387
0.00603546
0.00523736
0.00427505
0.00310916
0.0016835
0.000236168
0.000236123
0.00168251
0.00310755
0.00427283
0.00523458
0.00603221
0.00669022
0.00722622
0.00765499
0.00799029
0.00824524
0.0084321
0.0085617
0.00864285
0.00868174
0.00868162
0.00864252
0.00856123
0.00843154
0.00824465
0.00798971
0.00765446
0.00722575
0.00668983
0.0060319
0.00523436
0.00427269
0.0031075
0.00168254
0.000236122
0.000236072
0.00168151
0.00310584
0.00427046
0.00523164
0.00602878
0.0066864
0.00722208
0.00765061
0.00798572
0.00824052
0.00842726
0.00855677
0.00863785
0.00867666
0.00867649
0.00863736
0.00855606
0.00842641
0.00823962
0.00798483
0.0076498
0.00722139
0.00668584
0.00602836
0.00523137
0.00427032
0.0031058
0.00168155
0.000236073
0.000236018
0.00168048
0.00310408
0.00426805
0.00522866
0.00602532
0.00668254
0.0072179
0.00764618
0.00798108
0.00823573
0.00842236
0.00855178
0.00863278
0.00867154
0.00867134
0.00863219
0.00855092
0.00842132
0.00823463
0.00798001
0.0076452
0.00721708
0.00668189
0.00602486
0.00522839
0.00426793
0.00310408
0.00168051
0.000236022
0.000235964
0.00167941
0.00310232
0.00426564
0.00522568
0.00602186
0.00667867
0.00721369
0.00764169
0.00797638
0.00823086
0.00841735
0.00854667
0.0086276
0.00866632
0.00866611
0.00862698
0.00854575
0.00841624
0.00822967
0.00797522
0.00764065
0.00721282
0.00667801
0.00602142
0.00522545
0.00426558
0.00310235
0.00167946
0.000235969
0.000235909
0.00167835
0.00310059
0.00426329
0.00522277
0.00601845
0.00667483
0.00720948
0.00763718
0.00797162
0.00822591
0.00841225
0.00854147
0.00862234
0.00866104
0.00866083
0.00862174
0.00854057
0.00841117
0.00822475
0.00797049
0.00763617
0.00720866
0.00667423
0.00601809
0.00522262
0.0042633
0.00310068
0.00167841
0.000235916
0.000235856
0.00167731
0.00309896
0.00426107
0.00522
0.00601517
0.00667109
0.00720534
0.0076327
0.00796687
0.00822095
0.00840714
0.00853624
0.00861704
0.00865573
0.00865554
0.0086165
0.00853542
0.00840614
0.00821989
0.00796586
0.00763181
0.00720465
0.00667062
0.00601492
0.00521995
0.00426116
0.0030991
0.0016774
0.000235864
0.000235805
0.00167635
0.00309748
0.00425907
0.00521745
0.0060121
0.00666754
0.00720136
0.00762835
0.00796222
0.00821606
0.00840208
0.00853108
0.00861182
0.00865049
0.00865033
0.00861135
0.00853037
0.00840123
0.00821517
0.00796138
0.00762764
0.00720084
0.00666723
0.00601199
0.00521752
0.00425924
0.00309767
0.00167646
0.000235814
0.000235757
0.00167549
0.00309623
0.00425735
0.00521522
0.00600935
0.00666428
0.00719765
0.00762424
0.00795778
0.00821137
0.0083972
0.00852609
0.00860676
0.00864543
0.0086453
0.00860639
0.00852552
0.00839654
0.00821068
0.00795716
0.00762374
0.00719732
0.00666414
0.00600938
0.0052154
0.00425759
0.00309646
0.00167562
0.000235767
0.000235714
0.00167476
0.00309524
0.00425599
0.00521339
0.006007
0.00666141
0.00719429
0.00762046
0.00795366
0.00820698
0.00839263
0.00852139
0.00860201
0.00864067
0.00864057
0.00860174
0.00852098
0.00839215
0.00820651
0.00795326
0.00762018
0.00719416
0.00666144
0.00600716
0.00521366
0.00425629
0.00309551
0.00167491
0.000235723
0.000235673
0.00167421
0.00309459
0.00425506
0.00521204
0.00600513
0.00665901
0.00719139
0.00761711
0.00794995
0.008203
0.00838847
0.00851711
0.00859768
0.00863632
0.00863626
0.0085975
0.00851685
0.00838818
0.00820274
0.00794976
0.00761703
0.00719143
0.00665918
0.0060054
0.00521237
0.0042554
0.00309488
0.00167437
0.000235683
0.000235639
0.00167387
0.00309432
0.00425462
0.00521122
0.00600381
0.00665715
0.00718901
0.00761428
0.00794676
0.00819955
0.00838483
0.00851337
0.00859388
0.00863252
0.00863248
0.00859379
0.00851324
0.0083847
0.00819946
0.00794675
0.00761436
0.00718918
0.00665742
0.00600415
0.00521159
0.00425498
0.00309461
0.00167404
0.000235647
0.000235613
0.00167378
0.0030945
0.00425475
0.00521101
0.0060031
0.00665588
0.0071872
0.00761203
0.00794416
0.00819669
0.0083818
0.00851024
0.00859071
0.00862934
0.00862933
0.00859069
0.00851021
0.0083818
0.00819673
0.00794427
0.00761222
0.00718747
0.00665621
0.00600347
0.00521139
0.00425511
0.00309478
0.00167394
0.000235619
0.000235592
0.00167402
0.00309525
0.00425555
0.00521148
0.00600304
0.00665524
0.00718602
0.00761038
0.00794217
0.00819447
0.00837944
0.00850781
0.00858825
0.00862688
0.00862689
0.00858828
0.00850785
0.00837952
0.0081946
0.00794237
0.00761064
0.00718633
0.00665559
0.00600341
0.00521184
0.00425587
0.0030955
0.00167416
0.000235598
0.000235587
0.00167469
0.00309666
0.00425716
0.0052128
0.00600375
0.00665529
0.00718548
0.00760939
0.00794085
0.00819295
0.00837781
0.00850614
0.00858659
0.00862523
0.00862525
0.00858664
0.00850624
0.00837795
0.00819314
0.00794109
0.00760968
0.0071858
0.00665562
0.00600408
0.00521311
0.00425744
0.00309688
0.00167481
0.000235592
0.000235595
0.00167569
0.00309866
0.00425941
0.00521476
0.00600521
0.00665612
0.00718569
0.00760914
0.0079403
0.00819224
0.00837705
0.00850538
0.00858585
0.00862452
0.00862454
0.00858592
0.0085055
0.00837721
0.00819245
0.00794055
0.00760941
0.00718597
0.00665641
0.00600551
0.00521503
0.00425964
0.00309883
0.00167578
0.000235598
0.000235623
0.0016773
0.00310162
0.00426269
0.00521759
0.0060073
0.00665756
0.00718668
0.00760976
0.00794071
0.00819257
0.00837739
0.00850578
0.00858632
0.00862503
0.00862505
0.00858639
0.0085059
0.00837755
0.00819276
0.00794093
0.00761
0.00718694
0.00665784
0.00600756
0.00521781
0.00426285
0.00310172
0.00167735
0.000235622
0.000235677
0.00167978
0.00310577
0.00426718
0.00522156
0.0060104
0.00665978
0.00718828
0.00761108
0.00794195
0.00819385
0.00837879
0.00850731
0.00858797
0.00862673
0.00862676