/*--------------------------------*- C++ -*----------------------------------*\
| =========                 |                                                 |
| \\      /  F ield         | OpenFOAM: The Open Source CFD Toolbox           |
|  \\    /   O peration     | Version:  v1606+                                |
|   \\  /    A nd           | Web:      www.OpenFOAM.com                      |
|    \\/     M anipulation  |                                                 |
\*---------------------------------------------------------------------------*/
FoamFile
{
    version     2.0;
    format      ascii;
    class       volScalarField;
    location    "0.21";
    object      nut.air;
}
// * * * * * * * * * * * * * * * * * * * * * * * * * * * * * * * * * * * * * //

dimensions      [0 2 -1 0 0 0 0];

internalField   nonuniform List<scalar> 
6000
(
0.000529825
0.00490762
0.00781712
0.00847662
0.00867606
0.00875456
0.00878806
0.00880235
0.00880848
0.00881065
0.00881076
0.00880972
0.00880828
0.00880695
0.00880643
0.00880624
0.00880683
0.00880849
0.00881025
0.0088112
0.00881111
0.00880887
0.00880269
0.00878877
0.0087555
0.0086771
0.00847782
0.0078183
0.00490842
0.000529794
0.000450439
0.00320287
0.00605888
0.00769478
0.008442
0.00877967
0.00893841
0.00901454
0.00905172
0.00907017
0.00907941
0.00908207
0.0090806
0.00907818
0.00907513
0.0090761
0.00907843
0.00908168
0.00908285
0.00907958
0.0090725
0.00905528
0.00901749
0.00894102
0.00878176
0.00844377
0.00769712
0.00606181
0.00320602
0.000450702
0.000385496
0.00265752
0.00521608
0.00692271
0.00788078
0.00839284
0.00866765
0.00881831
0.00890321
0.00895128
0.00897857
0.00899231
0.00899722
0.00899842
0.00899805
0.00899877
0.00899921
0.00899871
0.00899358
0.00897983
0.00895403
0.00890688
0.00882221
0.00867167
0.00839655
0.00788457
0.00692715
0.00522106
0.00266283
0.000385978
0.000341499
0.00248853
0.00480241
0.00649915
0.00759825
0.00826247
0.00865129
0.00887537
0.00900787
0.00907908
0.00911525
0.00912968
0.00913305
0.00913312
0.00913239
0.00913293
0.00913469
0.00913555
0.00913298
0.00911934
0.00908432
0.00901415
0.00888295
0.00866049
0.00827214
0.00760942
0.00651162
0.00481389
0.00249619
0.000342337
0.000342169
0.00259488
0.00488915
0.00658749
0.00774926
0.00849926
0.00896466
0.00923708
0.00937868
0.00946606
0.00951306
0.00953232
0.00953696
0.0095317
0.00952672
0.0095279
0.00953436
0.00954076
0.00953677
0.00951852
0.00947347
0.00938949
0.00924949
0.00897869
0.00851415
0.00776614
0.0066064
0.00490688
0.00260651
0.000343285
0.000355876
0.00274184
0.00501122
0.00666567
0.00784119
0.00866436
0.00923503
0.00962631
0.00987782
0.0100199
0.0100916
0.0101202
0.0101246
0.0101237
0.0101218
0.0101231
0.0101269
0.0101298
0.0101267
0.0100994
0.0100291
0.00988721
0.00963691
0.0092481
0.00867963
0.00785921
0.00668735
0.00503359
0.00275717
0.000357563
0.000351771
0.00269267
0.00487737
0.00646104
0.00761121
0.00844815
0.00905848
0.00950177
0.00982098
0.0100456
0.0102033
0.0103101
0.0103768
0.0104207
0.0104422
0.0104427
0.0104224
0.0103797
0.0103143
0.0102085
0.0100519
0.00982854
0.00951155
0.00907087
0.00846325
0.00762933
0.00648263
0.0048997
0.00270803
0.000353596
0.000337123
0.00255276
0.00459423
0.00607817
0.00718248
0.00801955
0.00865973
0.00914718
0.00951946
0.00980541
0.010025
0.0101916
0.0102994
0.0103651
0.0103971
0.0103974
0.0103661
0.0103011
0.0101941
0.0100283
0.00980985
0.00952548
0.00915546
0.00867055
0.00803312
0.00719877
0.00609687
0.00461316
0.00256538
0.000339258
0.000322323
0.00240407
0.00431226
0.0057168
0.00679145
0.00762382
0.00827427
0.00878027
0.00917774
0.00949169
0.0097374
0.00992314
0.0100526
0.0101346
0.0101747
0.0101748
0.0101352
0.0100537
0.00992493
0.00973999
0.00949537
0.00918296
0.00878747
0.00828361
0.00763505
0.00680383
0.00572948
0.00432439
0.00241203
0.000324401
0.000310844
0.00227182
0.00406163
0.00540404
0.00645261
0.00727419
0.00792271
0.00844025
0.00885306
0.00918556
0.00945047
0.00965356
0.00979916
0.00989289
0.00993873
0.00993881
0.00989321
0.00979987
0.0096548
0.00945243
0.00918851
0.00885736
0.00844612
0.00792987
0.00728163
0.00645884
0.00540852
0.00406527
0.00227592
0.000312789
0.000301107
0.00214779
0.00383224
0.00512015
0.00614106
0.00695611
0.00760328
0.00812445
0.00854716
0.00888974
0.00916551
0.00938078
0.009538
0.00963992
0.00968997
0.00969
0.00964009
0.00953842
0.0093816
0.00916698
0.00889207
0.00855046
0.00812864
0.00760761
0.00695873
0.00613976
0.00511523
0.00382788
0.00214867
0.000302951
0.000291217
0.002011
0.00358776
0.00482698
0.00583064
0.00665208
0.00731074
0.00783448
0.00825949
0.00860575
0.00888456
0.00910385
0.00926678
0.00937401
0.0094271
0.00942709
0.00937405
0.00926698
0.00910444
0.00888569
0.00860748
0.00826172
0.0078368
0.00731193
0.00664976
0.00582241
0.00481338
0.00357387
0.00200751
0.000292875
0.000282096
0.00185646
0.00332064
0.0045103
0.00551052
0.00635415
0.00703141
0.00756447
0.00798833
0.00833206
0.00860803
0.00882423
0.00898512
0.00909284
0.00914682
0.00914678
0.0090928
0.00898525
0.00882466
0.00860885
0.0083331
0.00798936
0.00756485
0.00702957
0.00634742
0.00549657
0.00448896
0.00330037
0.00184914
0.000283104
0.000271719
0.00168093
0.00300768
0.0041485
0.00517517
0.00605892
0.0067618
0.00730471
0.00772833
0.00806481
0.00833372
0.00854253
0.00869566
0.0087984
0.00885018
0.00885013
0.00879834
0.00869574
0.00854267
0.00833398
0.00806494
0.00772796
0.00730301
0.00675691
0.006048
0.00515623
0.00412418
0.00298191
0.0016619
0.000272422
0.000258252
0.00138279
0.00263438
0.00376242
0.00483539
0.00576766
0.00649902
0.00705171
0.00747301
0.00780184
0.00805997
0.00825811
0.00840264
0.00849813
0.00854592
0.00854581
0.00849788
0.00840233
0.00825768
0.0080594
0.00780082
0.0074711
0.00704786
0.0064911
0.00575295
0.00481258
0.00373471
0.00260702
0.0013649
0.000258655
0.000241279
0.00111475
0.00225049
0.00337821
0.004508
0.00548335
0.00623868
0.00680154
0.00722139
0.0075418
0.00778845
0.00797498
0.00810937
0.00819738
0.00824094
0.00824076
0.00819685
0.00810856
0.00797389
0.00778701
0.00753968
0.00721811
0.00679565
0.0062281
0.00546582
0.00448339
0.00335073
0.00222544
0.00109798
0.000241405
0.000224136
0.000896435
0.00188138
0.0030311
0.00420892
0.00520832
0.00597808
0.00655013
0.00697196
0.00728511
0.00752002
0.00769405
0.00781826
0.0078992
0.0079391
0.00793887
0.00789849
0.0078171
0.00769239
0.00751781
0.00728213
0.0069675
0.00654262
0.00596554
0.00518917
0.0041842
0.00300551
0.00186248
0.00088455
0.000224042
0.000205293
0.000666371
0.0015776
0.00275763
0.00394926
0.00494475
0.00571764
0.00629694
0.00672305
0.00703288
0.00725735
0.00741939
0.00753257
0.00760532
0.00764088
0.0076406
0.00760445
0.00753111
0.0074173
0.00725462
0.00702914
0.00671759
0.00628841
0.00570418
0.00492533
0.00392568
0.00273452
0.00156175
0.000660899
0.000205213
0.000185166
0.000494406
0.00137328
0.00256776
0.00373921
0.00471398
0.00547803
0.00605925
0.00648749
0.00679541
0.00701268
0.00716352
0.00726532
0.00732892
0.00735951
0.0073592
0.00732798
0.00726369
0.00716116
0.00700952
0.00679106
0.00648132
0.00605046
0.0054651
0.00469652
0.00371865
0.00254741
0.00135749
0.000490051
0.000185138
0.000165715
0.000406891
0.00125799
0.00248371
0.00362138
0.00456749
0.00530281
0.00586873
0.00629161
0.00659739
0.00681011
0.00695249
0.00704405
0.00709877
0.0071244
0.00712405
0.00709768
0.00704211
0.00694961
0.00680618
0.00659211
0.00628424
0.00585851
0.00528899
0.00455109
0.0036053
0.00246746
0.00124116
0.000401649
0.000165692
0.000150317
0.000393309
0.00129818
0.00253721
0.00362384
0.00450973
0.00519439
0.00573041
0.00614121
0.00644454
0.00665751
0.00679952
0.00688935
0.00694168
0.00696557
0.00696512
0.00694026
0.00688676
0.00679555
0.00665203
0.00643732
0.00613155
0.00571721
0.00517724
0.00449074
0.00361094
0.00252645
0.00128527
0.000387705
0.000150194
0.000139801
0.000467782
0.0015033
0.00271683
0.0037143
0.00450385
0.00512261
0.00561979
0.00601417
0.00631406
0.00653083
0.00668021
0.00677769
0.00683561
0.00686224
0.00686163
0.00683373
0.00677432
0.0066751
0.00652377
0.0063048
0.0060021
0.00560364
0.00510166
0.00447889
0.00370006
0.00270914
0.00149387
0.000462742
0.00013952
0.000134942
0.000583833
0.00175086
0.00290043
0.00381259
0.00450294
0.00506133
0.00551816
0.00589713
0.00619462
0.00641643
0.00657457
0.00668127
0.00674643
0.00677689
0.00677617
0.00674421
0.0066774
0.00656878
0.00640848
0.00618425
0.00588378
0.00550053
0.00503761
0.00447854
0.00379497
0.00289176
0.00174648
0.000580198
0.000134716
0.000136288
0.000818184
0.00209535
0.00310097
0.00388656
0.00448821
0.00498071
0.00541324
0.0057877
0.00608759
0.00631578
0.00648225
0.00659709
0.00666847
0.00670225
0.00670148
0.00666612
0.00659304
0.00647633
0.00630779
0.00607744
0.00577518
0.00539737
0.00495842
0.00446472
0.00386497
0.00308833
0.00209445
0.000821433
0.000136177
0.000144421
0.00121112
0.0023883
0.0032327
0.00390639
0.00442651
0.00487866
0.00531447
0.0056928
0.00599745
0.00623206
0.00640558
0.00652678
0.00660288
0.00663916
0.0066384
0.00660058
0.00652288
0.00639997
0.00622466
0.00598832
0.0056821
0.00530192
0.0048615
0.00440017
0.0038783
0.00321485
0.00238051
0.00121586
0.000144541
0.000163149
0.00142722
0.00251752
0.00331633
0.00385567
0.00432031
0.00479017
0.00523413
0.00561669
0.00592648
0.00616673
0.00634549
0.00647089
0.00655
0.00658792
0.00658723
0.00654794
0.0064674
0.00634056
0.00616033
0.00591869
0.0056077
0.0052235
0.00477536
0.00429526
0.00382525
0.00328768
0.00250032
0.00142385
0.000163484
0.000177638
0.00145458
0.00249322
0.00321179
0.00371637
0.00422067
0.00471762
0.00517215
0.00556145
0.00587752
0.00612314
0.00630547
0.0064328
0.00651285
0.00655117
0.00655061
0.00651117
0.00643002
0.00630159
0.00611815
0.00587142
0.00555419
0.00516327
0.00470506
0.00420143
0.00368997
0.00318831
0.00246532
0.00143917
0.000177365
0.000181521
0.00135423
0.00234893
0.00303096
0.00358628
0.00413773
0.00466072
0.00513304
0.00553478
0.00585965
0.00610892
0.00629114
0.00641642
0.00649429
0.00653136
0.00653097
0.00649313
0.00641456
0.00628863
0.00610581
0.00585574
0.00553001
0.00512668
0.00465165
0.00412269
0.00356433
0.00299898
0.00232459
0.00133831
0.000180715
0.000179564
0.00121734
0.00211863
0.00284131
0.00347344
0.00407199
0.00463161
0.00513063
0.00555064
0.00588627
0.00613317
0.00630828
0.00642526
0.00649672
0.00653044
0.00653023
0.00649614
0.00642442
0.00630737
0.00613246
0.00588553
0.00554937
0.00512774
0.00462555
0.00406091
0.00345577
0.00281572
0.00208841
0.00119689
0.0001786
0.000173479
0.00101236
0.00190151
0.00267964
0.00338206
0.00404073
0.00465096
0.00518705
0.0056233
0.00595825
0.00620047
0.00635881
0.00645927
0.00651982
0.00654808
0.00654802
0.00651973
0.00645932
0.00635921
0.00620042
0.00595803
0.00562304
0.0051882
0.00465058
0.00403517
0.00336988
0.00266053
0.00187894
0.000995032
0.000172372
0.000164804
0.000827734
0.00171911
0.00255556
0.00333731
0.00407382
0.00473708
0.00528264
0.00572782
0.00606685
0.00628091
0.00642284
0.00650964
0.00655734
0.00657915
0.00657918
0.00655755
0.0065103
0.00642382
0.00628419
0.0060716
0.00573359
0.00528709
0.00473884
0.00407655
0.00333292
0.00254421
0.00170341
0.000813646
0.000163586
0.000153694
0.000694583
0.00159617
0.00250487
0.00338212
0.00418507
0.00488392
0.00547599
0.00591265
0.00621306
0.0063937
0.00649911
0.00656057
0.00659737
0.00661349
0.00661355
0.00659771
0.00656147
0.00650166
0.00639818
0.00622009
0.00592365
0.00548943
0.00489573
0.00419206
0.00338928
0.00250469
0.00159011
0.000687769
0.000152583
0.000142685
0.00063832
0.00158809
0.00258934
0.00353097
0.00439937
0.00514965
0.00569069
0.00605841
0.0063049
0.00647107
0.00655607
0.00659935
0.00662879
0.00664164
0.0066417
0.0066291
0.00660024
0.00655843
0.006476
0.00631246
0.00606864
0.00570437
0.00516937
0.00441996
0.00354494
0.00260402
0.00159754
0.000640942
0.000141914
0.000134752
0.000700523
0.00172732
0.00278791
0.00382529
0.00473713
0.00538062
0.00582235
0.00613869
0.00635614
0.00650274
0.00657199
0.00662234
0.00664819
0.00666096
0.00666105
0.00664856
0.00662317
0.00657369
0.00650615
0.00636361
0.00614907
0.00583588
0.00540152
0.00476644
0.00385782
0.0028092
0.00174124
0.000711638
0.00013442
0.000132631
0.000806988
0.0019542
0.00316846
0.00423094
0.00498993
0.00551665
0.00589639
0.00618659
0.00637604
0.00649662
0.00656786
0.0066214
0.00665627
0.00667327
0.00667351
0.00665703
0.00662261
0.00656935
0.00649942
0.00638265
0.00619797
0.00591132
0.00553723
0.00501958
0.00426891
0.00321153
0.00198567
0.000820068
0.000132827
0.000135185
0.00101781
0.00240574
0.00364037
0.00453392
0.00514482
0.00560116
0.00596784
0.00621288
0.0063594
0.00645546
0.00654151
0.00661257
0.0066591
0.00668184
0.00668233
0.00666056
0.00661491
0.00654432
0.00645742
0.00636346
0.00622081
0.00598369
0.00562141
0.00517192
0.00456879
0.00368227
0.00245352
0.00104618
0.000135774
0.000145123
0.00137571
0.00286706
0.00397956
0.00472185
0.00525574
0.00568977
0.00600924
0.00618145
0.00630228
0.00640746
0.00651669
0.00660343
0.00666041
0.00668859
0.00668938
0.00666277
0.00660723
0.00652157
0.0064122
0.00630445
0.00618525
0.00601521
0.00570786
0.00527702
0.00474769
0.00401249
0.0029011
0.0014024
0.000146479
0.000164056
0.00163526
0.00315692
0.00417133
0.00483001
0.00535631
0.00574009
0.00594819
0.00609496
0.00622842
0.00637011
0.00649777
0.00659627
0.00666148
0.00669422
0.00669537
0.00666488
0.00660171
0.00650479
0.00637758
0.00623411
0.00609571
0.00594932
0.00574686
0.00537148
0.00484733
0.00419272
0.00318169
0.00165529
0.000165715
0.000183212
0.0017777
0.00327751
0.00423045
0.00487983
0.00535754
0.00562982
0.00581368
0.00598713
0.00617296
0.00634269
0.00648428
0.00659134
0.00666268
0.00669894
0.00670055
0.00666739
0.00659883
0.00649395
0.00635342
0.00618313
0.00599498
0.00581385
0.00562872
0.00536049
0.00488986
0.00424363
0.00329199
0.00178866
0.000184884
0.000198485
0.00180337
0.00323857
0.00419151
0.00479483
0.00518139
0.00544403
0.00567786
0.00591724
0.0061372
0.00632643
0.0064782
0.00659102
0.00666613
0.00670458
0.00670673
0.00667249
0.00660123
0.00649159
0.00634176
0.00615243
0.00593023
0.00568596
0.00544563
0.00518184
0.00479624
0.0042007
0.00324591
0.00180733
0.000199741
0.00020524
0.0017524
0.00310852
0.00401433
0.0045887
0.00496009
0.0052822
0.00559305
0.00587819
0.0061259
0.00632743
0.00648341
0.00659772
0.00667355
0.00671253
0.0067153
0.00668182
0.00661126
0.00650164
0.00634906
0.00614848
0.00589869
0.00560733
0.00528889
0.00495864
0.00458905
0.00401429
0.0031136
0.00175754
0.000206145
0.000205235
0.00166424
0.00292509
0.00376128
0.00428475
0.00475226
0.00517046
0.00554854
0.00587726
0.00614512
0.00634992
0.00650246
0.00661276
0.00668566
0.00672335
0.0067267
0.00669578
0.0066297
0.00652611
0.00637983
0.00617777
0.00590761
0.00557105
0.00518291
0.00475544
0.0042795
0.00375506
0.00292555
0.00166389
0.000205995
0.000200823
0.00145001
0.00257894
0.00338557
0.0040401
0.00460744
0.00511508
0.00556324
0.00592544
0.00619532
0.00639392
0.00653392
0.00663484
0.00670162
0.0067364
0.0067401
0.00671289
0.00665393
0.00656091
0.00642407
0.00622709
0.00595871
0.00559749
0.00513873
0.00461883
0.00404169
0.00338149
0.00257066
0.00144554
0.000201353
0.000188363
0.00115688
0.00222005
0.0031117
0.00386894
0.00454355
0.00514565
0.00562844
0.00600025
0.00626307
0.00644211
0.0065696
0.00665903
0.00671828
0.00674935
0.00675299
0.00672933
0.00667798
0.00659692
0.0064803
0.00631161
0.00605448
0.0056761
0.00518581
0.00456894
0.00387893
0.00310974
0.00221096
0.00115154
0.000188547
0.000172407
0.000898388
0.00195449
0.00292913
0.00380666
0.00459936
0.00524807
0.00576797
0.00612461
0.00634641
0.00649618
0.00659975
0.00667803
0.0067306
0.00675819
0.00676121
0.00673975
0.00669372
0.00662393
0.00652925
0.0063889
0.0061781
0.00583025
0.005303
0.00464286
0.00383314
0.00293546
0.00194687
0.000887859
0.000172128
0.000156956
0.000741216
0.00181995
0.00290515
0.00390972
0.00474702
0.00544069
0.0059
0.00619337
0.00639182
0.00652098
0.00661393
0.00668468
0.00673356
0.00675928
0.00676138
0.0067398
0.00669585
0.00663083
0.00654705
0.00642551
0.00623553
0.00595229
0.00550251
0.0048031
0.00395068
0.00293132
0.00182454
0.000733411
0.000156245
0.00014421
0.000744855
0.00190675
0.00307426
0.004114
0.00499791
0.00558593
0.00595355
0.00620899
0.00639176
0.00651047
0.00660436
0.00667545
0.00672582
0.00675202
0.00675324
0.0067292
0.0066812
0.00661301
0.00652586
0.00641499
0.00624398
0.00599333
0.0056363
0.00505843
0.00417377
0.00311716
0.00193628
0.000755123
0.000143716
0.000139069
0.000868247
0.00212037
0.00337592
0.00444404
0.00517407
0.0056378
0.00596759
0.00620049
0.00635796
0.00647089
0.00657281
0.00665404
0.00670978
0.00673807
0.00673862
0.00671124
0.00665652
0.00657661
0.00647785
0.00637525
0.00622916
0.00600661
0.00568054
0.00521986
0.00450848
0.0034465
0.00216233
0.000883162
0.000139423
0.000140668
0.00106391
0.00252992
0.00379172
0.00465833
0.00523562
0.00566145
0.0059567
0.00615277
0.00628624
0.00641781
0.00653569
0.00662717
0.00668864
0.00671939
0.00671949
0.00668893
0.00662792
0.00653754
0.00642249
0.00629689
0.00617389
0.00598806
0.00569706
0.00527508
0.004708
0.00385625
0.00259968
0.00110077
0.000141664
0.000150128
0.00143915
0.00294748
0.00402618
0.00473544
0.00526315
0.00564342
0.00588494
0.00605251
0.00621372
0.00636806
0.00649892
0.0065984
0.0066647
0.00669769
0.00669755
0.00666437
0.00659827
0.0064997
0.00637112
0.00622067
0.00606354
0.00590853
0.00567426
0.00530007
0.0047735
0.00407498
0.00300336
0.00148506
0.00015238
0.000170043
0.00169351
0.00315167
0.00410528
0.00476729
0.00525334
0.00554054
0.00575508
0.00595828
0.00615331
0.00632487
0.00646481
0.00656995
0.00663987
0.00667468
0.00667454
0.00663955
0.00656978
0.00646533
0.0063268
0.00615725
0.00596375
0.00576283
0.00556305
0.00527296
0.00479293
0.00413199
0.00318374
0.00171187
0.000173024
0.000190128
0.00176544
0.00318467
0.00412183
0.00473945
0.00511843
0.00538664
0.00564104
0.00588929
0.00610741
0.00629005
0.00643543
0.00654399
0.00661613
0.00665216
0.00665227
0.00661652
0.00654485
0.00643697
0.00629234
0.00611015
0.00589156
0.00564268
0.00538766
0.00513256
0.00474074
0.00413619
0.00319063
0.00177615
0.000191959
0.0002009
0.00173479
0.00309437
0.00400068
0.00455664
0.0049176
0.00525127
0.00556911
0.0058483
0.00608029
0.00626713
0.0064137
0.00652276
0.00659533
0.00663182
0.00663244
0.00659724
0.00652599
0.00641814
0.00627205
0.00608416
0.00584909
0.00556619
0.00524472
0.00490365
0.00455062
0.00398381
0.00308251
0.00173525
0.000201569
0.000202433
0.00165886
0.00292795
0.00376986
0.00428459
0.00474669
0.0051666
0.00553704
0.00583908
0.00607427
0.00625794
0.00640096
0.00650742
0.00657859
0.00661478
0.00661617
0.00658283
0.00651451
0.00641055
0.00626875
0.00608343
0.00584178
0.00553243
0.00515524
0.00472743
0.00425221
0.00373854
0.0029078
0.0016538
0.000203018
0.000199129
0.00147795
0.00261509
0.00339835
0.00406246
0.00463888
0.00514571
0.00555868
0.00586168
0.00608587
0.00625932
0.00639504
0.00649686
0.00656553
0.00660107
0.00660344
0.0065729
0.00650924
0.00641234
0.00628039
0.00610758
0.00587455
0.00555748
0.00513057
0.0046165
0.00403403
0.00336596
0.00257353
0.00145503
0.000199228
0.000188488
0.00117163
0.00221822
0.0031306
0.00392597
0.00462576
0.00519155
0.00561415
0.00589646
0.0061024
0.00626293
0.00639067
0.00648795
0.00655457
0.00658979
0.00659329
0.00656556
0.00650675
0.00641759
0.00629697
0.00613706
0.0059254
0.0056212
0.00517746
0.00459776
0.0038949
0.00310023
0.00218622
0.00113409
0.000187428
0.000170323
0.00085904
0.00194858
0.00299013
0.00393183
0.00470649
0.00530292
0.00568697
0.0059278
0.00610932
0.00625874
0.00638145
0.00647743
0.00654414
0.00657999
0.00658454
0.00655853
0.00650266
0.0064188
0.00630785
0.00617015
0.00598706
0.00572595
0.00530114
0.00467859
0.0038935
0.00295297
0.00191679
0.000837134
0.000169687
0.000153176
0.00072277
0.00189412
0.00306362
0.00406321
0.00486807
0.0053849
0.0056944
0.00591998
0.00608798
0.00623695
0.00636405
0.00646419
0.00653382
0.00657131
0.00657663
0.00655053
0.0064938
0.00640872
0.00629878
0.00616666
0.00600695
0.00577125
0.0054215
0.00486027
0.00402746
0.0030167
0.00185189
0.000704802
0.000153269
0.000143539
0.000810357
0.00205424
0.00326896
0.00429253
0.00496257
0.00538505
0.00566927
0.00586891
0.00604087
0.00620449
0.00634401
0.00645116
0.00652436
0.00656386
0.00656956
0.00654189
0.00648138
0.00638963
0.00626973
0.00612824
0.00596684
0.00576096
0.00545449
0.00499988
0.00428314
0.00322676
0.0020093
0.000783798
0.000142935
0.000143105
0.000957131
0.00236071
0.00360213
0.00443233
0.00498063
0.00535247
0.0055942
0.00578358
0.00598703
0.00617272
0.00632497
0.0064403
0.00651833
0.00655989
0.00656581
0.00653646
0.00647158
0.00637047
0.00623395
0.00606711
0.00589465
0.00570176
0.00544331
0.00504634
0.00446734
0.00359132
0.00230762
0.00092617
0.000141772
0.000149359
0.00129179
0.0027658
0.00379651
0.00447163
0.00495872
0.00524425
0.0054735
0.00571186
0.00594426
0.00614602
0.00630819
0.00642957
0.00651152
0.00655507
0.00656106
0.00652978
0.00646071
0.0063527
0.00620465
0.00601815
0.005807
0.00560753
0.0053803
0.00507238
0.00453983
0.00383162
0.00275114
0.00124891
0.000147054
0.000167885
0.00160437
0.00294975
0.00383503
0.00445024
0.00482215
0.00509866
0.00538099
0.00566183
0.00591568
0.00612977
0.00629959
0.00642481
0.00650907
0.00655361
0.0065593
0.0065264
0.00645425
0.00634105
0.00618455
0.00598448
0.00574799
0.00549136
0.00525228
0.00497052
0.00457898
0.00391945
0.00299096
0.00159303
0.00016396
0.000189081
0.00165696
0.00289803
0.00374447
0.00427232
0.00463499
0.0049822
0.00532127
0.00563467
0.00590767
0.00612983
0.00630212
0.00642901
0.00651317
0.00655716
0.00656212
0.0065285
0.0064554
0.00634062
0.00618047
0.00597166
0.00571396
0.00541941
0.00510187
0.00479582
0.00442746
0.00392192
0.00301308
0.00168494
0.000187362
0.000195508
0.00156447
0.00271623
0.00352246
0.00401993
0.00447677
0.00490233
0.00529415
0.00564014
0.00592399
0.00614872
0.00632024
0.0064448
0.00652627
0.00656781
0.00657145
0.00653758
0.00646528
0.00635224
0.00619402
0.0059836
0.00571516
0.00538524
0.00501465
0.00461623
0.00420826
0.0036934
0.00288527
0.00164695
0.000198382
0.000193302
0.00141613
0.00245902
0.00319734
0.003819
0.00436811
0.00486977
0.00531724
0.00568275
0.0059772
0.00619897
0.00636221
0.00647748
0.00655139
0.00658791
0.00658953
0.00655677
0.00648884
0.00638312
0.00623348
0.00602856
0.00575115
0.00540171
0.00497139
0.0044969
0.0039847
0.00342151
0.00267364
0.00153493
0.000198551
0.000184039
0.00114307
0.00212901
0.00296438
0.00368061
0.0043254
0.00490909
0.00539252
0.00579073
0.00608482
0.00628839
0.00642913
0.00652548
0.00658647
0.00661582
0.00661583
0.00658674
0.00652782
0.00643626
0.0063052
0.00611856
0.00584567
0.00546914
0.00499971
0.00443299
0.00381432
0.00313
0.00231582
0.00130663
0.000193103
0.00017048
0.000902949
0.00189562
0.0028093
0.00363266
0.00438559
0.00501901
0.00556454
0.0059741
0.00622901
0.00639424
0.00650448
0.00657874
0.00662528
0.00664654
0.00664405
0.00661764
0.00656733
0.00649202
0.00638606
0.00623341
0.00600059
0.00562518
0.00510001
0.00447152
0.00372728
0.00291527
0.00200595
0.00099004
0.000178817
0.000156308
0.000754964
0.00177772
0.00279021
0.00372634
0.00453737
0.00525413
0.00580293
0.00616034
0.00636623
0.00648976
0.00656963
0.00662458
0.0066595
0.00667406
0.00666888
0.00664331
0.00659825
0.00653467
0.00645037
0.00633153
0.00614391
0.00582255
0.00531289
0.00461005
0.00379067
0.00283753
0.00181502
0.000774056
0.00016257
0.000144619
0.000754079
0.00185286
0.002935
0.00393324
0.00484136
0.00553182
0.00597483
0.00626449
0.00644762
0.00654244
0.00660529
0.00665171
0.00668225
0.00669407
0.00668673
0.00665927
0.0066126
0.00654897
0.00647099
0.00637422
0.00621206
0.00594569
0.00553164
0.0048838
0.00398368
0.00296775
0.00184005
0.000723443
0.000148601
0.000139705
0.000856492
0.00203357
0.00322403
0.00431922
0.00515162
0.0056906
0.00605342
0.00630334
0.00645338
0.00653705
0.00660482
0.00665812
0.00669288
0.00670625
0.00669774
0.00666647
0.00661269
0.00653772
0.00644456
0.00634365
0.00620984
0.00597715
0.0056334
0.00512109
0.00433034
0.00323172
0.00202377
0.000830874
0.0001415
0.00014109
0.00101936
0.00240374
0.00370247
0.00466931
0.00531406
0.00575766
0.00608652
0.00628821
0.00640105
0.00649391
0.00658296
0.00665129
0.00669485
0.00671227
0.00670342
0.00666776
0.00660514
0.00651604
0.00640404
0.00627943
0.00614964
0.0059746
0.00566598
0.00522571
0.00460261
0.00367244
0.00238248
0.000987825
0.000142092
0.000149627
0.00134957
0.00288281
0.0040703
0.00485177
0.00538446
0.00580278
0.00606152
0.00621092
0.00632532
0.00644698
0.00655574
0.00663851
0.00669132
0.00671346
0.00670476
0.00666492
0.00659367
0.00649048
0.00635641
0.00619554
0.00604336
0.00588606
0.00566199
0.00526574
0.00472853
0.00397756
0.00285017
0.00133596
0.000149877
0.00016857
0.00162097
0.00317862
0.00424141
0.00491502
0.0054305
0.00576415
0.00595027
0.00609787
0.00624936
0.00640129
0.00652796
0.006623
0.00668402
0.00671068
0.00670261
0.00665953
0.0065813
0.00646765
0.00631664
0.00613226
0.00592898
0.00574165
0.00554265
0.00526401
0.00476351
0.00411247
0.00312129
0.00163614
0.000168717
0.000188494
0.00178007
0.00329495
0.00427168
0.00491727
0.00533164
0.00559366
0.0057932
0.00599169
0.00618902
0.00636393
0.00650511
0.00660809
0.00667545
0.0067061
0.00669917
0.00665435
0.00657165
0.00645071
0.00628801
0.00608588
0.00585171
0.00559863
0.00535368
0.00509156
0.00472595
0.00411167
0.00320082
0.00176506
0.000190153
0.000205221
0.00181434
0.00324818
0.00420454
0.004749
0.0051319
0.00539458
0.00565816
0.00591624
0.0061452
0.00633582
0.00648688
0.00659839
0.00667005
0.00670274
0.00669702
0.00665262
0.0065684
0.00644356
0.00627793
0.0060654
0.00580569
0.00550825
0.00518786
0.00486195
0.00449479
0.00395073
0.0030742
0.00175417
0.000204766
0.000212703
0.00175337
0.00308509
0.00394164
0.00449659
0.00486153
0.00522849
0.00556947
0.00587495
0.00613006
0.00632977
0.00648149
0.00659265
0.00666549
0.00670033
0.0066966
0.00665435
0.00657418
0.00645486
0.00629155
0.00607718
0.00579926
0.00545865
0.00507529
0.00466108
0.00421376
0.00370655
0.00288088
0.00167065
0.000207891
0.000212132
0.00164932
0.00286366
0.00364413
0.00417596
0.00467517
0.005127
0.00553705
0.00588199
0.00614683
0.00634564
0.00649378
0.00659981
0.0066696
0.00670373
0.00670193
0.00666449
0.00659028
0.00647708
0.00632314
0.00611572
0.00583294
0.00547073
0.00502069
0.00452047
0.00397289
0.00334375
0.00258146
0.00149039
0.000204598
0.000206002
0.00140586
0.00247171
0.00329647
0.00396124
0.00455827
0.00510468
0.00556928
0.00593223
0.00619814
0.00638127
0.00651602
0.00661542
0.00668014
0.00671253
0.00671242
0.00667921
0.00661334
0.00651752
0.00638538
0.00620021
0.00592809
0.00554297
0.00505601
0.00446025
0.00380719
0.00308109
0.00222159
0.00119512
0.0001928
0.000190575
0.0011053
0.00213696
0.00303887
0.00382552
0.00454539
0.00516721
0.00567602
0.00604065
0.00627538
0.00643334
0.00654731
0.00663305
0.00669357
0.00672482
0.0067256
0.0066973
0.0066433
0.00656268
0.00645363
0.00630146
0.00607089
0.00570247
0.00516847
0.00452203
0.00374818
0.00290676
0.00196952
0.000938546
0.000175942
0.000172115
0.000861357
0.00191049
0.00290954
0.00383447
0.00464555
0.00533153
0.00583359
0.00614266
0.00633751
0.00647105
0.00657149
0.00664948
0.00670619
0.00673734
0.00673942
0.00671398
0.00666391
0.00659154
0.00649887
0.00637267
0.00617164
0.00586374
0.0053825
0.00467684
0.00385082
0.0028853
0.00184695
0.000787032
0.000159339
0.00015553
0.000765242
0.00187354
0.00298623
0.00399393
0.00486672
0.00550493
0.00591613
0.00618032
0.00635153
0.00647174
0.00657449
0.00665914
0.00672034
0.00675359
0.00675719
0.00673063
0.00667528
0.00659585
0.00649876
0.00638317
0.00620933
0.00593655
0.00554559
0.00494297
0.00405764
0.00305425
0.00193429
0.000800638
0.000146671
0.000145976
0.000858696
0.0020504
0.00321386
0.00427162
0.00506334
0.00557066
0.00592237
0.00616233
0.00631403
0.0064445
0.00656608
0.00666782
0.00674008
0.00677877
0.00678277
0.00675061
0.00668332
0.00658703
0.00646832
0.00634055
0.00619563
0.00595564
0.0056032
0.0051259
0.00439253
0.00334028
0.0021366
0.000916581
0.000142435
0.000145428
0.000996251
0.00231796
0.00356758
0.00449678
0.00512116
0.00557595
0.0058938
0.00608906
0.00624338
0.00640668
0.00655565
0.00667635
0.00676163
0.00680733
0.00681062
0.00677158
0.00669182
0.00657603
0.0064306
0.00627068
0.00611747
0.00593505
0.00562459
0.00518163
0.00459774
0.00373605
0.00250952
0.00110148
0.0001446
0.000150939
0.00127791
0.00273573
0.00384508
0.00458652
0.00514053
0.00554118
0.00577934
0.00596683
0.00616874
0.00637108
0.00654768
0.00668852
0.00678763
0.00684034
0.00684341
0.00679662
0.0067027
0.00656636
0.00639329
0.00619473
0.00599697
0.00581265
0.0055869
0.00519874
0.00465846
0.0039497
0.0028697
0.00142093
0.00015511
0.000167039
0.00155201
0.00298101
0.00396537
0.00462346
0.0051176
0.00539849
0.00561652
0.00585284
0.00610656
0.00634267
0.00654576
0.00670753
0.00682141
0.00688162
0.0068843
0.00682922
0.00671989
0.00656197
0.00636187
0.00612887
0.00587762
0.00564114
0.00542298
0.00514985
0.0046798
0.00401231
0.00304917
0.00162066
0.0001733
0.00018546
0.00166925
0.00306092
0.00397038
0.00457753
0.00493638
0.00519964
0.00546865
0.00576429
0.00605865
0.00632934
0.0065577
0.00673958
0.00686752
0.00693473
0.00693701
0.00687416
0.00675006
0.00657133
0.00634543
0.00607694
0.00578337
0.00548689
0.00521389
0.0049509
0.00458945
0.00400315
0.00308611
0.00169416
0.00018949
0.000197757
0.00167016
0.00295993
0.00380921
0.00435076
0.00469744
0.00502037
0.00535516
0.00570096
0.00603825
0.00633979
0.00659172
0.00679028
0.00692863
0.00700059
0.00700253
0.00693429
0.00679923
0.00660328
0.00635343
0.00605304
0.0057157
0.00536698
0.0050258
0.00469261
0.00434754
0.00380857
0.00296365
0.00167189
0.000199278
0.000199062
0.00159759
0.00278856
0.0035706
0.00404428
0.00446464
0.0048698
0.00527602
0.00568219
0.00605852
0.00638162
0.00665058
0.00685569
0.00699563
0.00706742
0.00706908
0.00700054
0.00686351
0.00666064
0.00639267
0.00607166
0.00569484
0.00528505
0.00487195
0.00445806
0.00402926
0.00355894
0.00278399
0.00159618
0.000199712
0.000196037
0.00143978
0.00248747
0.00317307
0.00375612
0.0042743
0.00476942
0.00525729
0.00571867
0.00611794
0.00645359
0.00671719
0.00691086
0.00703974
0.00710543
0.00710679