/*--------------------------------*- C++ -*----------------------------------*\
| =========                 |                                                 |
| \\      /  F ield         | OpenFOAM: The Open Source CFD Toolbox           |
|  \\    /   O peration     | Version:  v1606+                                |
|   \\  /    A nd           | Web:      www.OpenFOAM.com                      |
|    \\/     M anipulation  |                                                 |
\*---------------------------------------------------------------------------*/
FoamFile
{
    version     2.0;
    format      ascii;
    class       volScalarField;
    location    "0.25";
    object      nut;
}
// * * * * * * * * * * * * * * * * * * * * * * * * * * * * * * * * * * * * * //

dimensions      [0 2 -1 0 0 0 0];

internalField   nonuniform List<scalar> 
2268
(
7.51559e-05
7.36411e-05
9.14132e-05
0.000103839
0.000113525
0.000122111
0.000130218
0.000138078
0.000145706
0.000152988
0.00015973
0.000165693
0.000170611
0.000174212
0.000176222
0.000176296
0.000174473
0.000171333
0.000166406
0.000159602
0.000151101
0.000134205
0.000117545
0.000145461
0.00048884
0.000713258
0.000879801
0.00101578
0.00113494
0.0012445
0.00134691
0.00144161
0.00152646
0.00159862
0.00165509
0.0016931
0.0017105
0.00170629
0.00167989
0.00160513
0.00146797
0.00129999
0.00113537
0.000998459
0.000867123
0.000357394
0.000161615
0.000732171
0.00117032
0.00153714
0.00186236
0.00216297
0.00244728
0.00271652
0.0029671
0.00319285
0.00338671
0.00354168
0.00365157
0.0037118
0.00372013
0.00367437
0.00354768
0.00330126
0.00293628
0.00248164
0.00200975
0.00156974
0.000438158
0.000173809
0.000863656
0.00145114
0.00197957
0.00247472
0.00294955
0.00340829
0.00384776
0.00425976
0.0046337
0.00495854
0.005224
0.00542131
0.00554427
0.00558976
0.00555427
0.00541341
0.00511724
0.0046333
0.00395295
0.00313805
0.00226809
0.000495729
0.000182568
0.000945512
0.0016345
0.00228714
0.00292408
0.00355148
0.00416677
0.00476061
0.00531958
0.0058289
0.00627441
0.00664365
0.00692656
0.00711638
0.00720975
0.00720229
0.0070706
0.00675309
0.00619794
0.00536432
0.00427036
0.00293734
0.00054104
0.000188717
0.00100141
0.00176398
0.00251449
0.00326962
0.00402822
0.00477983
0.00550823
0.00619462
0.00682054
0.00736958
0.00782824
0.00818637
0.00843762
0.00857906
0.00860563
0.00849272
0.00817003
0.00757095
0.00663007
0.00531662
0.00355466
0.000583579
0.000193097
0.00104069
0.00186194
0.00269425
0.00355041
0.00442226
0.00529139
0.00613465
0.00692822
0.00765058
0.00828398
0.00881497
0.00923428
0.00953685
0.00972075
0.00978045
0.00968875
0.00937107
0.00874616
0.0077271
0.00624042
0.004121
0.000626842
0.000196343
0.00106817
0.00194024
0.00284555
0.00379122
0.00476204
0.00573206
0.00667176
0.00755296
0.0083519
0.00905046
0.00963617
0.0101016
0.0104436
0.0106618
0.0107506
0.0106798
0.0103741
0.00973903
0.00866663
0.00705478
0.00467738
0.000676184
6.00278e-05
8.65621e-05
9.737e-05
0.000102919
0.00010562
0.000106505
0.000105238
0.000102766
9.97151e-05
9.65051e-05
9.34615e-05
9.07122e-05
8.81729e-05
8.56254e-05
8.27331e-05
7.9005e-05
7.35967e-05
6.49007e-05
7.69514e-05
0.00022264
0.000599187
0.000756572
0.000887789
0.000982844
0.00101734
0.00102554
0.00101262
0.000983074
0.000943008
0.000899476
0.000857208
0.000816998
0.00077609
0.000729337
0.000668875
0.000581186
0.00043635
0.000164053
0.000268351
0.00111036
0.00148652
0.00175463
0.00194258
0.00204643
0.00209597
0.00209268
0.00204081
0.00195301
0.00184734
0.00173844
0.00163167
0.00152278
0.0014005
0.00124732
0.0010355
0.000712256
0.000181873
0.000307256
0.00150673
0.00205527
0.00240636
0.00266006
0.00283964
0.00295918
0.00300429
0.00296781
0.002861
0.00270967
0.00253978
0.00236509
0.00218364
0.0019805
0.00173058
0.00139582
0.000911585
0.000194385
0.000344369
0.00180526
0.00246481
0.00285679
0.00314989
0.00339718
0.00360059
0.00372499
0.00374225
0.003652
0.00348086
0.0032645
0.00302777
0.00277494
0.002491
0.00214607
0.00169526
0.00106827
0.000203788
0.000382551
0.00203774
0.00275568
0.00315867
0.00346707
0.00376616
0.00405241
0.00427244
0.00437262
0.0043316
0.00416805
0.00392307
0.00363317
0.00331236
0.00294921
0.00251214
0.00195233
0.00119732
0.000211175
0.000425872
0.00222159
0.00295699
0.00335383
0.00366032
0.00399404
0.004352
0.00467021
0.00487086
0.00490536
0.00477537
0.00452094
0.00418878
0.00380491
0.00336508
0.00283921
0.00217706
0.00130623
0.000217173
0.000492926
0.00235019
0.00307331
0.00346283
0.00376258
0.00411864
0.00453329
0.00494215
0.00524975
0.00537827
0.00530463
0.00506007
0.00469797
0.00425731
0.00374418
0.00313315
0.00237505
0.00139925
0.000222173
0.000199225
0.00109159
0.00202375
0.00302339
0.00408673
0.00518703
0.00628684
0.00734743
0.00833483
0.00922305
0.00999488
0.010641
0.0111585
0.011549
0.0118162
0.0119564
0.0119378
0.0116718
0.0110479
0.0099395
0.00824575
0.00583224
0.00193836
0.00020236
0.00110706
0.00212086
0.00324637
0.00445326
0.00569521
0.00692078
0.00808302
0.00914509
0.0100828
0.0108842
0.0115479
0.0120786
0.0124848
0.012775
0.0129491
0.0129773
0.0127697
0.0121936
0.0111131
0.00943086
0.00707843
0.00384056
0.000205424
0.00111915
0.00221749
0.00346942
0.00480885
0.00616619
0.00747718
0.00869035
0.0097707
0.0107003
0.0114767
0.0121085
0.0126099
0.012995
0.0132755
0.013455
0.0135113
0.01337
0.0128911
0.0119367
0.0104072
0.00828869
0.0056655
0.000209133
0.00113524
0.00231918
0.00369352
0.00515234
0.0066007
0.00796279
0.00918628
0.0102422
0.0111226
0.0118368
0.0124052
0.0128511
0.0131932
0.0134443
0.0136095
0.0136746
0.013583
0.0132198
0.0124451
0.0111635
0.00937855
0.0072662
0.000213934
0.0011502
0.00241219
0.00390269
0.00547049
0.0069914
0.00837939
0.00958524
0.0105902
0.0113987
0.0120324
0.0125233
0.012903
0.0131945
0.0134117
0.0135598
0.0136266
0.0135692
0.0133032
0.0127044
0.0116879
0.0102608
0.00859663
0.000220619
0.00113737
0.00246319
0.00407429
0.00575221
0.00733692
0.00873613
0.00990971
0.0108532
0.0115854
0.01214
0.0125572
0.0128751
0.0131237
0.0133226
0.0134768
0.013567
0.0135497
0.0133558
0.0128933
0.0120823
0.0109381
0.00961565
0.000232
0.00105824
0.00244444
0.00420632
0.00600889
0.00765611
0.00906036
0.0101984
0.0110837
0.011751
0.0122455
0.0126096
0.0128831
0.0131096
0.0133222
0.0135295
0.0136935
0.0137577
0.0136467
0.0132809
0.0125932
0.0115973
0.0104329
0.000254375
0.000932055
0.00239558
0.00435216
0.00629132
0.00799892
0.00940644
0.0105131
0.0113517
0.0119744
0.0124407
0.0127765
0.0130176
0.0132366
0.0134883
0.013763
0.0139651
0.0140534
0.0139627
0.0136402
0.0130356
0.0121487
0.0110892
0.000288739
0.000893112
0.00247022
0.00462109
0.00667823
0.00843216
0.00983636
0.0109114
0.0117074
0.0122904
0.0127161
0.01302
0.0132399
0.0134131
0.013605
0.0137964
0.0139361
0.0139722
0.0138495
0.0135265
0.0129748
0.0121928
0.0112584
0.000315949
0.00122401
0.00296767
0.00510087
0.00714224
0.00888206
0.0102492
0.0112771
0.012025
0.0125523
0.0129054
0.01315
0.0133317
0.0134718
0.0135833
0.0136762
0.0137225
0.0136788
0.0134861
0.0130956
0.0124964
0.0117282
0.0108753
0.000333668
0.00190556
0.00378409
0.00573511
0.00766558
0.00932548
0.0106222
0.0115893
0.0122883
0.012776
0.0131028
0.0133176
0.0134631
0.013561
0.0136149
0.0136211
0.0135583
0.0133848
0.0130374
0.012464
0.0116725
0.0107466
0.00982313
0.00032583
0.0022216
0.0043286
0.00636566
0.00827209
0.00985639
0.0110743
0.0119728
0.0126163
0.0130613
0.0133546
0.0135382
0.0136468
0.0136998
0.0136974
0.0136253
0.013452
0.0131235
0.0125676
0.0117392
0.0106786
0.00951855
0.0084554
0.00031863
0.0023629
0.00477065
0.00698013
0.00886994
0.0103701
0.011504
0.0123353
0.0129284
0.0133359
0.0136
0.0137557
0.0138304
0.0138389
0.0137789
0.0136287
0.0133432
0.0128499
0.0120669
0.0109661
0.00963232
0.00825183
0.00708587
0.000320467
0.00248969
0.00519286
0.00752263
0.00938312
0.0108068
0.0118673
0.0126409
0.0131909
0.0135658
0.013803
0.0139319
0.0139739
0.0139395
0.0138228
0.0135955
0.0131989
0.0125442
0.0115473
0.0102085
0.00866422
0.00715172
0.00598382
0.000325008
0.00265148
0.00556614
0.00796089
0.00978788
0.0111493
0.0121512
0.0128783
0.013393
0.0137404
0.013954
0.0140587
0.0140716
0.0139993
0.0138321
0.013535
0.0130384
0.0122443
0.011078
0.00957647
0.0079271
0.00640437
0.00532724
0.000329941
0.00280856
0.00586384
0.00829216
0.0100901
0.0114043
0.0123615
0.0130525
0.0135394
0.0138652
0.0140603
0.0141463
0.0141372
0.0140366
0.0138307
0.0134794
0.0129075
0.0120179
0.0107509
0.0091766
0.00752033
0.0060667
0.00509399
0.000334203
0.00292525
0.00607735
0.00852608
0.0103028
0.0115832
0.0125077
0.0131717
0.0136383
0.013949
0.0141325
0.0142081
0.0141874
0.0140718
0.0138465
0.0134712
0.0128736
0.0119637
0.010692
0.00913554
0.00752153
0.00612354
0.0051685
0.000336319
0.00301444
0.00622606
0.00868099
0.0104403
0.0116968
0.0125985
0.0132442
0.0136974
0.0139995
0.0141777
0.0142501
0.0142273
0.0141107
0.0138875
0.0135228
0.0129545
0.0121036
0.0109216
0.00946396
0.00792176
0.00654235
0.0055199
0.000335992
0.00307195
0.00631249
0.00876356
0.010509
0.0117498
0.0126372
0.0132714
0.0137169
0.0140149
0.0141925
0.0142673
0.01425
0.0141435
0.0139397
0.013613
0.0131152
0.0123814
0.0113596
0.0100674
0.00863432
0.00726606
0.00614671
0.000333313
0.00309629
0.00633672
0.00877471
0.0105088
0.0117404
0.0126203
0.0132487
0.0136907
0.0139883
0.0141684
0.0142492
0.014242
0.0141524
0.0139776
0.0137027
0.0132954
0.0127063
0.0118841
0.0108112
0.00954742
0.00823476
0.0070409
0.000328511
0.00308715
0.00629907
0.00871449
0.010438
0.0116654
0.0125431
0.0131704
0.0136125
0.0139121
0.0140969
0.0141854
0.0141904
0.0141197
0.0139762
0.0137544
0.0134371
0.012992
0.0123757
0.0115517
0.0105227
0.00935477
0.00816617
0.000321921
0.00304558
0.00620149
0.00858449
0.010297
0.0115233
0.012403
0.0130328
0.0134778
0.0137813
0.0139719
0.0140689
0.0140862
0.0140337
0.0139186
0.0137432
0.0135023
0.0131799
0.0127464
0.0121644
0.0114057
0.0104728
0.00941072
0.000313964
0.00297422
0.00604841
0.00838897
0.0100887
0.0113157
0.0122003
0.0128353
0.0132854
0.0135944
0.0137916
0.0138973
0.0139262
0.0138899
0.0137983
0.0136591
0.013476
0.0132455
0.0129532
0.0125722
0.0120685
0.0114111
0.0105836
0.000305118
0.0028775
0.00584709
0.00813529
0.00981919
0.0110474
0.0119386
0.012581
0.0130379
0.0133535
0.013558
0.0136724
0.0137122
0.01369
0.0136172
0.0135046
0.0133611
0.013192
0.0129951
0.0127566
0.0124508
0.0120414
0.0114838
0.000295876
0.00276155
0.00560763
0.00783387
0.00949791
0.0107263
0.0116249
0.012276
0.0127409
0.0130641
0.0132764
0.0133996
0.0134499
0.0134401
0.0133825
0.013289
0.0131712
0.0130392
0.0128982
0.0127454
0.0125664
0.0123329
0.0120001
0.000286698
0.00263388
0.00534266
0.00749795
0.00913695
0.0103632
0.0112688
0.011929
0.0124028
0.0127341
0.0129546
0.0130868
0.0131471
0.0131488
0.0131041
0.013025
0.0129238
0.0128124
0.0126998
0.0125896
0.012476
0.0123409
0.0121497
0.000277974
0.00250268
0.00506647
0.00714298
0.00875079
0.0099712
0.0108819
0.0115507
0.0120333
0.0123731
0.012602
0.012743
0.0128132
0.0128257
0.0127926
0.0127253
0.0126358
0.0125358
0.0124356
0.0123415
0.012253
0.0121588
0.0120344
0.000269993
0.00237575
0.00479374
0.00678563
0.00835566
0.00956503
0.0104776
0.0111531
0.0116438
0.0119915
0.0122285
0.0123781
0.0124577
0.0124806
0.0124583
0.0124017
0.0123217
0.0122292
0.0121342
0.0120438
0.0119598
0.0118754
0.0117723
0.00026294
0.00225954
0.00453785
0.00644248
0.00796861
0.00916086
0.0100706
0.0107497
0.0112463
0.0116007
0.0118448
0.0120022
0.0120905
0.0121232
0.0121112
0.0120648
0.0119939
0.0119081
0.0118167
0.0117266
0.0116406
0.0115543
0.0114537
0.000256914
0.00215839
0.00430943
0.00612839
0.00760629
0.0087753
0.00967643
0.0103546
0.0108538
0.0112126
0.011462
0.0116258
0.0117218
0.0117634
0.0117612
0.0117249
0.0116634
0.0115852
0.0114986
0.0114101
0.0113227
0.0112339
0.0111326
0.000251973
0.00207451
0.00411545
0.00585511
0.00728346
0.00842422
0.00931075
0.00998251
0.0104798
0.0108394
0.0110915
0.0112599
0.0113621
0.0114114
0.0114185
0.0113921
0.0113405
0.0112713
0.0111917
0.0111077
0.0110226
0.0109349
0.0108357
0.000248195
0.00200839
0.00395943
0.00563062
0.00701177
0.00812126
0.00898776
0.00964713
0.0101373
0.0104934
0.010745
0.0109153
0.0110218
0.0110778
0.0110932
0.0110766
0.0110352
0.0109761
0.0109056
0.0108291
0.0107498
0.0106671
0.010574
0.000245743
0.00195951
0.00384247
0.0054597
0.00679942
0.00787689
0.00871887
0.00936002
0.00983731
0.0101851
0.0104323
0.0106018
0.0107107
0.0107717
0.0107946
0.0107873
0.0107564
0.0107081
0.0106479
0.0105808
0.0105098
0.0104347
0.0103502
0.000244934
0.00192706
0.00376488
0.00534541
0.006652
0.0076982
0.00851182
0.00912899
0.00958749
0.00992182
0.0101606
0.0103262
0.0104352
0.0104998
0.0105292
0.0105305
0.0105098
0.0104724
0.0104231
0.0103661
0.0103044
0.0102382
0.0101631
0.000246298
0.0019106
0.00372805
0.00529141
0.00657419
0.00758985
0.00837074
0.00895756
0.0093909
0.00970631
0.0099324
0.0100909
0.0101977
0.0102643
0.0102989
0.0103082
0.0102971
0.0102702
0.0102316
0.0101849
0.0101327
0.0100753
0.0100093
0.000250593
0.00191117
0.00373685
0.00530465
0.00657207
0.00755552
0.00829694
0.00884534
0.00924611
0.00953659
0.0097454
0.00989347
0.00999566
0.0100624
0.0101011
0.0101172
0.0101151
0.0100984
0.0100703
0.0100337
0.00999069
0.0099418
0.00988422
0.000258796
0.00193314
0.00380292
0.00539845
0.00665501
0.00759901
0.00828966
0.00878872
0.00914801
0.00940685
0.00959348
0.00972756
0.00982253
0.00988748
0.00992867
0.00995056
0.00995658
0.00994956
0.00993196
0.00990585
0.00987261
0.00983234
0.00978251
0.000272159
0.00198713
0.00394955
0.00559587
0.00683666
0.00772397
0.00834584
0.00878118
0.00908867
0.00930868
0.0094681
0.00958452
0.00966942
0.00973029
0.00977207
0.00979821
0.00981133
0.00981363
0.00980696
0.00979261
0.00977093
0.00974088
0.00969926
0.000292446
0.0020948
0.0042201
0.00593328
0.00713348
0.00793126
0.00845844
0.00881297
0.009058
0.0092324
0.00935991
0.00945508
0.00952693
0.00958104
0.009621
0.00964925
0.00966778
0.00967841
0.00968283
0.00968204
0.00967549
0.00966015
0.00963008
0.000322195
0.00230248
0.0046969
0.0064632
0.00755837
0.00821286
0.00861341
0.00887047
0.00904447
0.00916833
0.00926041
0.00933122
0.00938691
0.00943112
0.00946609
0.00949335
0.00951433
0.00953071
0.00954446
0.00955732
0.00956931
0.00957674
0.00956927
0.000364985
0.00273809
0.00555382
0.00724983
0.00810354
0.00854206
0.00878656
0.00893626
0.00903629
0.00910832
0.0091634
0.00920749
0.00924387
0.0092744
0.00930015
0.00932192
0.00934057
0.00935747
0.00937479
0.00939544
0.0094225
0.00945797
0.00949611
0.00042695
0.00401394
0.00721013
0.00832268
0.00870474
0.00886348
0.00894362
0.00899112
0.00902307
0.00904676
0.00906567
0.00908156
0.00909538
0.00910762
0.00911857
0.00912845
0.00913757
0.00914656
0.00915669
0.00917035
0.00919247
0.00923404
0.00931571
0.000761504
0.000701904
0.000619915
0.00057065
0.00233775
0.0018755
0.00169467
0.00161655
0.00426733
0.00343107
0.00288708
0.00254422
0.00604336
0.00512531
0.00435945
0.00374601
0.00754451
0.00668789
0.00587316
0.00510918
0.00873257
0.00799727
0.00724649
0.0064653
0.00963104
0.00898355
0.00832752
0.00762811
0.0103116
0.00967293
0.00906951
0.00846488
0.0105503
0.00990588
0.00928059
0.00874688
0.0102475
0.00966517
0.00910342
0.00866411
0.00928397
0.00882699
0.00843477
0.00817772
0.00794276
0.00761655
0.00744694
0.00742662
0.00662905
0.00643878
0.0064836
0.00667852
0.00562287
0.00558706
0.00579381
0.00617129
0.00507332
0.0051722
0.00548895
0.00594526
0.00486515
0.00500129
0.00533413
0.00578637
0.00483915
0.00490122
0.00515577
0.00554292
0.00499791
0.00491002
0.00500392
0.00525819
0.00541756
0.00516013
0.00504663
0.0050849
0.00613831
0.00573777
0.00544081
0.00525733
0.00715535
0.00664995
0.00622172
0.00587461
0.00839737
0.00783408
0.00732141
0.00687015
0.00970205
0.00915686
0.00862485
0.00812755
0.0108309
0.0103861
0.00992155
0.00945932
0.0115832
0.0112771
0.0109402
0.0105878
0.0119045
0.0117168
0.0115058
0.0112805
0.0118818
0.0117651
0.0116365
0.0115029
0.0116567
0.0115711
0.0114808
0.0113931
0.011349
0.0112739
0.011197
0.0111249
0.0110318
0.0109607
0.0108885
0.0108205
0.0107398
0.0106727
0.0106042
0.0105389
0.0104854
0.0104236
0.0103603
0.0102989
0.0102705
0.010215
0.0101577
0.0101016
0.0100925
0.0100433
0.00999229
0.00994174
0.0099472
0.00990369
0.00985827
0.00981291
0.00982934
0.00979066
0.00975
0.00970903
0.00973377
0.00969904
0.00966218
0.00962471
0.00965581
0.00962421
0.0095902
0.00955527
0.00959171
0.00956253
0.00953031
0.00949683
0.00953833
0.00951146
0.00947999
0.00944668
0.0094878
0.00946764
0.00943762
0.00940386
0.00941366
0.0094239
0.00940319
0.00937147
0.00145022
0.00258767
0.00316283
0.00354811
0.00384957
0.0042263
0.00469573
0.00520949
0.00566552
0.00594966
0.00599289
0.00579747
0.00541535
0.00490247
0.00428398
0.00354663
0.00264765
0.00152307
0.000228041
0.00187432
0.00253264
0.00329004
0.00354178
0.00378251
0.00415711
0.00466524
0.00526778
0.00588339
0.00637688
0.006618
0.00654752
0.00619082
0.00561652
0.00488051
0.00399626
0.00293714
0.00165072
0.000233907
0.00233197
0.00271136
0.00342906
0.00386272
0.00383966
0.00402782
0.00450726
0.00514852
0.00586346
0.00652645
0.00696991
0.0070662
0.00678897
0.00619747
0.00537352
0.00436511
0.00317044
0.00175147
0.000238335
0.00299891
0.00296178
0.00347883
0.00412587
0.00427501
0.00405298
0.00430613
0.00491326
0.00567366
0.00645396
0.00708014
0.0073681
0.00721893
0.00665704
0.00577882
0.00467022
0.00336196
0.00183339
0.000241875
0.00392261
0.00340507
0.00356304
0.00414573
0.004635
0.00446012
0.00421631
0.00459831
0.00533941
0.00620101
0.00698637
0.00747347
0.00749061
0.00700501
0.00610926
0.00492532
0.00352234
0.0019013
0.000244969
0.00506716
0.00408934
0.00383254
0.00417413
0.00473871
0.00491252
0.00447959
0.00442071
0.00497522
0.00584044
0.00673871
0.00741009
0.00761656
0.00724997
0.00637521
0.00514156
0.00366025
0.00195926
0.000247893
0.00626649
0.00496874
0.00429088
0.00432037
0.00479105
0.00515745
0.00489406
0.00450598
0.00472178
0.00546487
0.00639966
0.00721529
0.00761443
0.00740094
0.00658503
0.00532717
0.00378301
0.00201196
0.000250625
0.0072304
0.00581959
0.00483274
0.00455796
0.0048627
0.00528192
0.00522526
0.00477155
0.00464771
0.00516062
0.00603803
0.00693593
0.00750928
0.00746931
0.00674465
0.00548726
0.00389429
0.00206126
0.000253208
0.00781307
0.00642972
0.00530016
0.0048095
0.00495376
0.00535687
0.00545737
0.00506971
0.00472709
0.00497145
0.00571198
0.00662129
0.00733285
0.00747072
0.00686079
0.00562461
0.00399526
0.00210741
0.00025565
0.00799124
0.00673319
0.0056057
0.00501002
0.00504163
0.00541139
0.00561689
0.00533314
0.00488214
0.00489604
0.00545789
0.00631845
0.00712266
0.00742558
0.00694133
0.0057409
0.00408544
0.00214974
0.000257982
0.00779993
0.00676374
0.00574275
0.0051335
0.00510403
0.00544646
0.00572166
0.0055423
0.00505752
0.00490095
0.00528625
0.00605975
0.00691138
0.00735534
0.00699519
0.0058372
0.00416315
0.00218682
0.000260162
0.00738281
0.0066016
0.0057462
0.00518552
0.00513178
0.00545216
0.0057709
0.00569572
0.00523115
0.00495657
0.00518486
0.00585705
0.00672268
0.00727999
0.00703158
0.00591411
0.00422579
0.0022166
0.000262146
0.00694233
0.0063593
0.00567221
0.00519175
0.00513313
0.00542204
0.00576462
0.00580338
0.00540239
0.00505382
0.00514807
0.00571694
0.00657468
0.00721771
0.00705922
0.0059715
0.0042702
0.00223674
0.000263918
0.00665856
0.0061539
0.00558634
0.00518111
0.00512175
0.00537607
0.00573474
0.00589124
0.00558548
0.0051963
0.00517505
0.00564429
0.00648211
0.00718435
0.00708492
0.00600799
0.00429309
0.00224562
0.000265348
0.00659133
0.00609828
0.00555812
0.00519256
0.00512457
0.00534933
0.00572303
0.00599292
0.00579737
0.00539041
0.00526738
0.00564376
0.00645733
0.00719201
0.00711142
0.00602007
0.00429111
0.00224203
0.000266295
0.00653063
0.00623195
0.00564522
0.00527602
0.00518723
0.00537872
0.00576105
0.00612505
0.00604463
0.00562971
0.00541476
0.00571296
0.00650828
0.00724736
0.007136
0.00600224
0.00426141
0.00222521
0.000266679
0.00629143
0.006454
0.00590273
0.005483
0.00535665
0.00550769
0.00587622
0.00630138
0.00632082
0.00589853
0.00560461
0.00585189
0.00664352
0.0073511
0.00714981
0.00594832
0.0042029
0.00219539
0.000266473
0.00582604
0.00648355
0.00631196
0.00584329
0.00566483
0.00576374
0.00609298
0.00653564
0.00661842
0.00617119
0.00582309
0.00606954
0.00687452
0.00749477
0.00713772
0.00585368
0.00411738
0.0021541
0.000265696
0.00538356
0.00613233
0.00656818
0.00636333
0.00613104
0.00615744
0.00641631
0.00681759
0.00688982
0.0064114
0.00606924
0.00638834
0.00720415
0.0076506
0.00707987
0.00571821
0.00401016
0.00210418
0.000264412
0.00525033
0.00565881
0.00632669
0.00674871
0.00668398
0.00666531
0.00682229
0.00710718
0.00708036
0.00658642
0.00636478
0.00683673
0.00760475
0.00776752
0.00695979
0.00554926
0.00388962
0.00204922
0.000262722
0.00561405
0.00549785
0.0058602
0.00646356
0.00686474
0.00702258
0.00716731
0.00728584
0.00711327
0.00672419
0.00677569
0.00740941
0.00799183
0.00778689
0.00677714
0.00536179
0.00376535
0.00199292
0.000260742
0.00644929
0.00592501
0.00575661
0.00600727
0.00645636
0.00683442
0.00709449
0.00715039
0.00702414
0.00695591
0.00735459
0.00801606
0.00824717
0.0076816
0.00655367
0.00517407
0.00364594
0.00193841
0.000258591
0.00761244
0.00684754
0.00626937
0.00604156
0.00615392
0.00643736
0.00669849
0.00684924
0.00701423
0.00741308
0.00804529
0.00849399
0.00829789
0.00747894
0.00632282
0.00500131
0.00353731
0.00188789
0.000256376
0.00892715
0.00805663
0.00723469
0.00664958
0.00637911
0.00638156
0.00654385
0.00683153
0.00734781
0.00806601
0.00865455
0.00871269
0.00816905
0.00723836
0.00611268
0.00485204
0.0034424
0.00184267
0.000254188
0.0101412
0.00934371
0.00848783
0.00772752
0.00719667
0.00695751
0.00701783
0.00740453
0.00808007
0.00874169
0.00898845
0.00867516
0.00795203
0.00701237
0.0059376
0.00472861
0.00336193
0.00180334
0.000252095
0.0109748
0.0104107
0.00972959
0.00902769
0.00844386
0.00810232
0.00808634
0.00841342
0.00890128
0.0091805
0.00902689
0.00849268
0.00772995
0.00682864
0.00580134
0.00463038
0.00329534
0.00176989
0.00025015
0.0113198
0.0109981
0.0105727
0.0100819
0.00962063
0.00930013
0.00920002
0.00929708
0.00939858
0.00927852
0.0088808
0.00827863
0.0075409
0.00668461
0.0056948
0.00455212
0.00324098
0.00174001
0.000248756
0.0112755
0.0110995
0.010862
0.0105659
0.0102548
0.00998824
0.00980398
0.00967066
0.00948264
0.00915456
0.00868203
0.00809266
0.00739531
0.00657577
0.00561271
0.00448998
0.00319636
0.00171471
0.000247674
0.0110282
0.010906
0.0107537
0.0105606
0.010339
0.0101094
0.00988226
0.00964023
0.00934455
0.00896824
0.00850544
0.00795101
0.00728861
0.00649517
0.00555029
0.00444147
0.0031608
0.00169442
0.000246808
0.0107265
0.0106137
0.0104866
0.0103325
0.0101514
0.00994726
0.0097208
0.00946421
0.00916313
0.00880368
0.00837212
0.00784967
0.00721243
0.00643646
0.00550372
0.00440458
0.00313346
0.00167893
0.000246099
0.0104455
0.0103317
0.0102106
0.0100718
0.00991207
0.00973038
0.00952436
0.00928816
0.00901181
0.00868139
0.00827835
0.0077794
0.00715914
0.00639469
0.00547008
0.00437766
0.00311348
0.00166788
0.00024551
0.0102089
0.0100963
0.00997972
0.00985119
0.00970757
0.00954633
0.00936356
0.00915245
0.00890201
0.00859633
0.00821448
0.00773177
0.00712294
0.00636623
0.0054471
0.00435932
0.00310004
0.00166081
0.000245017
0.0100174
0.00990986
0.00979974
0.00968136
0.00955192
0.00940835
0.00924566
0.00905564
0.00882578
0.00853856
0.00817184
0.00770052
0.00709967
0.00634835
0.00543302
0.00434836
0.00309233
0.00165723
0.000244601
0.00986449
0.00976395
0.00966165
0.00955334
0.00943649
0.00930768
0.00916112
0.00898754
0.00877325
0.00849971
0.00814413
0.00768123
0.00708632
0.00633899
0.00542634
0.00434369
0.00308954
0.0016566
0.000244256
0.00974238
0.00964925
0.00955485
0.0094559
0.00935
0.00923342
0.00909979
0.00893909
0.00873685
0.00847389
0.00812699
0.00767077
0.00708063
0.00633647
0.00542579
0.00434429
0.0030909
0.00165842
0.000243976
0.00964433
0.00955791
0.00947069
0.00938004
0.00928356
0.0091772
0.00905415
0.00890388
0.00871138
0.00845705
0.00811738
0.00766682
0.00708081
0.00633935
0.00543016
0.0043492
0.00309563
0.00166219
0.000243759
0.00956462
0.00948377
0.00940271
0.00931925
0.00923086
0.0091332
0.00901908
0.00887757
0.00869332
0.00844641
0.00811308
0.00766761
0.00708537
0.00634635
0.00543834
0.00435744
0.00310295
0.00166742
0.0002436
0.00949844
0.00942192
0.00934606
0.00926883
0.0091875
0.00909741
0.00899104
0.00885717
0.00868018
0.00843989
0.00811234
0.00767164
0.00709296
0.00635624
0.00544921
0.00436802
0.00311205
0.0016736
0.000243492
0.00944175
0.00936841
0.00929697
0.00922528
0.00915027
0.00906694
0.0089675
0.00884047
0.00867004
0.00843584
0.00811371
0.00767753
0.00710231
0.00636778
0.00546159
0.00437985
0.003122
0.0016801
0.000243424
0.0093916
0.00932035
0.0092528
0.00918616
0.0091169
0.00903969
0.00894651
0.0088257
0.00866128
0.00843274
0.00811571
0.00768388
0.00711201
0.00637963
0.00547418
0.00439171
0.0031317
0.00168614
0.000243378
0.0093475
0.00927756
0.00921341
0.00915122
0.00908694
0.00901501
0.00892723
0.00881184
0.00865273
0.00842924
0.00811685
0.00768906
0.00712038
0.0063901
0.00548543
0.00440223
0.00313992
0.00169057
0.000243331
0.00931523
0.00924682
0.0091852
0.00912596
0.00906491
0.00899642
0.00891224
0.00880053
0.00864511
0.00842521
0.00811621
0.00769145
0.00712529
0.00639682
0.00549304
0.00440961
0.00314575
0.00169346
0.000243224
)
;

boundaryField
{
    leftWall
    {
        type            nutkWallFunction;
        Cmu             0.09;
        kappa           0.41;
        E               9.8;
        value           nonuniform List<scalar> 
50
(
1.39021e-05
1.70449e-05
1.88271e-05
2.0113e-05
2.102e-05
2.16491e-05
2.21019e-05
2.24383e-05
2.2735e-05
2.30602e-05
2.33698e-05
2.37328e-05
2.41907e-05
2.4801e-05
2.57623e-05
2.75845e-05
3.20248e-05
3.46358e-05
3.72593e-05
3.7367e-05
3.6297e-05
3.62251e-05
3.66968e-05
3.73389e-05
3.79525e-05
3.82976e-05
3.83207e-05
3.80241e-05
3.74341e-05
3.65935e-05
3.55578e-05
3.43913e-05
3.31612e-05
3.19313e-05
3.07553e-05
2.96735e-05
2.87112e-05
2.78821e-05
2.71937e-05
2.66559e-05
2.62892e-05
2.61355e-05
2.62663e-05
2.67873e-05
2.78355e-05
2.95791e-05
3.22437e-05
3.61734e-05
4.19174e-05
5.04359e-05
)
;
    }
    rightWall
    {
        type            nutkWallFunction;
        Cmu             0.09;
        kappa           0.41;
        E               9.8;
        value           nonuniform List<scalar> 
50
(
9.74139e-06
1.50353e-05
1.76463e-05
1.94531e-05
2.0797e-05
2.18444e-05
2.269e-05
2.33927e-05
2.41904e-05
2.49791e-05
2.55585e-05
2.601e-05
2.63978e-05
2.67635e-05
2.70985e-05
2.74086e-05
2.7696e-05
2.79654e-05
2.82128e-05
2.84345e-05
2.86315e-05
2.87851e-05
2.88764e-05
2.88977e-05
2.88485e-05
2.87341e-05
2.85641e-05
2.83511e-05
2.81087e-05
2.78499e-05
2.75868e-05
2.73292e-05
2.70845e-05
2.68582e-05
2.66871e-05
2.65572e-05
2.64544e-05
2.63719e-05
2.63044e-05
2.62482e-05
2.62012e-05
2.61626e-05
2.61318e-05
2.61085e-05
2.6092e-05
2.60816e-05
2.60755e-05
2.60713e-05
2.60661e-05
2.6052e-05
)
;
    }
    lowerWall
    {
        type            nutkWallFunction;
        Cmu             0.09;
        kappa           0.41;
        E               9.8;
        value           nonuniform List<scalar> 
62
(
6.77586e-06
8.92595e-06
1.09588e-05
1.23384e-05
1.34096e-05
1.43521e-05
1.52356e-05
1.60869e-05
1.69092e-05
1.76914e-05
1.84138e-05
1.90514e-05
1.95766e-05
1.99612e-05
2.01771e-05
2.01901e-05
1.99984e-05
1.96696e-05
1.91497e-05
1.8422e-05
1.75005e-05
1.5671e-05
1.3839e-05
1.3839e-05
3.87704e-05
4.6711e-05
5.21254e-05
5.6438e-05
6.04888e-05
6.45992e-05
6.92406e-05
7.70837e-05
7.12918e-05
6.31417e-05
6.98862e-05
0
2.31525e-05
2.94579e-05
3.47859e-05
3.98388e-05
4.49715e-05
5.06667e-05
5.96993e-05
0
2.77996e-06
4.48563e-06
5.35292e-06
5.74502e-06
5.86689e-06
5.66163e-06
5.27799e-06
4.81385e-06
4.33247e-06
3.87924e-06
3.46903e-06
3.08581e-06
2.69454e-06
2.2411e-06
1.64471e-06
7.63121e-07
0
0
)
;
    }
    atmosphere
    {
        type            calculated;
        value           nonuniform List<scalar> 
46
(
0.009
0.009
0.009
0.009
0.009
0.009
0.009
0.009
0.009
0.009
0.009
0.009
0.009
0.009
0.009
0.009
0.009
0.009
0.009
0.009
0.009
0.009
0.009
0.00941366
0.0094239
0.00940319
0.00937147
0.00931523
0.00924682
0.0091852
0.00912596
0.00906491
0.00899642
0.00891224
0.00880053
0.00864511
0.00842521
0.00811621
0.00769145
0.00712529
0.00639682
0.00549304
0.00440961
0.00314575
0.00169346
0.000243224
)
;
    }
    defaultFaces
    {
        type            empty;
    }
}


// ************************************************************************* //
