/*--------------------------------*- C++ -*----------------------------------*\
| =========                 |                                                 |
| \\      /  F ield         | OpenFOAM: The Open Source CFD Toolbox           |
|  \\    /   O peration     | Version:  v1606+                                |
|   \\  /    A nd           | Web:      www.OpenFOAM.com                      |
|    \\/     M anipulation  |                                                 |
\*---------------------------------------------------------------------------*/
FoamFile
{
    version     2.0;
    format      ascii;
    class       volVectorField;
    location    "0.25";
    object      U;
}
// * * * * * * * * * * * * * * * * * * * * * * * * * * * * * * * * * * * * * //

dimensions      [0 1 -1 0 0 0 0];

internalField   nonuniform List<vector> 
2268
(
(-0.0404689 0.0128012 0)
(-0.0445057 -0.00749924 0)
(-3.76186e-05 -0.0177429 0)
(0.0565572 -0.0207232 0)
(0.118153 -0.0210088 0)
(0.180773 -0.0206226 0)
(0.243479 -0.0203786 0)
(0.306659 -0.0204061 0)
(0.370898 -0.0206129 0)
(0.436389 -0.0208424 0)
(0.502746 -0.0209017 0)
(0.568914 -0.0205585 0)
(0.633009 -0.0195201 0)
(0.692041 -0.0174031 0)
(0.741509 -0.0136197 0)
(0.774982 -0.00688632 0)
(0.781443 0.00539188 0)
(0.738221 0.024539 0)
(0.630136 0.0494454 0)
(0.443764 0.0737187 0)
(0.200805 0.0846958 0)
(-0.136728 0.0398568 0)
(-0.144028 -0.0968583 0)
(-0.0205696 0.0272675 0)
(-0.00192484 -0.0153316 0)
(0.0441484 -0.0364306 0)
(0.100738 -0.0437969 0)
(0.161716 -0.0456747 0)
(0.224103 -0.0459986 0)
(0.287153 -0.0463442 0)
(0.351062 -0.0470517 0)
(0.4161 -0.0479717 0)
(0.482209 -0.0487695 0)
(0.54886 -0.0490114 0)
(0.614948 -0.0481638 0)
(0.678641 -0.045545 0)
(0.737158 -0.0402482 0)
(0.786565 -0.0309826 0)
(0.821262 -0.0156408 0)
(0.836477 0.00920696 0)
(0.827693 0.0465119 0)
(0.779875 0.0965145 0)
(0.665705 0.151828 0)
(0.471631 0.191606 0)
(0.134717 0.158188 0)
(0.0510086 -0.075224 0)
(5.54773e-05 0.0256111 0)
(0.0259059 -0.0318535 0)
(0.0744725 -0.0601154 0)
(0.130954 -0.0703203 0)
(0.190848 -0.0732229 0)
(0.252199 -0.0740431 0)
(0.314514 -0.0748321 0)
(0.377887 -0.0760478 0)
(0.442397 -0.0774694 0)
(0.50784 -0.0786028 0)
(0.573614 -0.0788042 0)
(0.638625 -0.0772714 0)
(0.701134 -0.0729722 0)
(0.758565 -0.0645485 0)
(0.807334 -0.0501817 0)
(0.842603 -0.0274775 0)
(0.858888 0.00697756 0)
(0.851297 0.0575087 0)
(0.813486 0.127004 0)
(0.732804 0.210554 0)
(0.597633 0.284965 0)
(0.337901 0.266774 0)
(0.170131 0.0154522 0)
(0.0109687 0.01573 0)
(0.0450618 -0.0517404 0)
(0.0973647 -0.0854566 0)
(0.154564 -0.0977601 0)
(0.213805 -0.10145 0)
(0.274227 -0.102727 0)
(0.335688 -0.103966 0)
(0.398288 -0.105671 0)
(0.462009 -0.107536 0)
(0.526571 -0.108916 0)
(0.591357 -0.108976 0)
(0.655318 -0.106667 0)
(0.716834 -0.100631 0)
(0.773525 -0.0890961 0)
(0.822108 -0.069772 0)
(0.858285 -0.0398017 0)
(0.87699 0.00446401 0)
(0.873341 0.0673878 0)
(0.842483 0.152565 0)
(0.777141 0.257384 0)
(0.668729 0.362417 0)
(0.463591 0.375993 0)
(0.253459 0.156505 0)
(0.0157626 0.00103032 0)
(0.0576068 -0.0750167 0)
(0.114247 -0.112138 0)
(0.172831 -0.125597 0)
(0.231916 -0.129752 0)
(0.29168 -0.131436 0)
(0.352377 -0.133156 0)
(0.414183 -0.135372 0)
(0.477058 -0.137671 0)
(0.540707 -0.139274 0)
(0.60454 -0.139177 0)
(0.667593 -0.136105 0)
(0.728391 -0.128403 0)
(0.784764 -0.113918 0)
(0.833708 -0.0899385 0)
(0.871365 -0.0532121 0)
(0.893201 0.000102965 0)
(0.894794 0.0743607 0)
(0.871813 0.173352 0)
(0.818648 0.295961 0)
(0.724874 0.427642 0)
(0.553449 0.484052 0)
(0.315997 0.33478 0)
(0.0181378 -0.0165282 0)
(0.0657714 -0.101044 0)
(0.126289 -0.140054 0)
(0.186364 -0.153695 0)
(0.245541 -0.157886 0)
(0.304846 -0.159841 0)
(0.364882 -0.162008 0)
(0.42592 -0.164718 0)
(0.487941 -0.167433 0)
(0.550675 -0.169253 0)
(0.6136 -0.169024 0)
(0.675876 -0.165275 0)
(0.736199 -0.156076 0)
(0.792624 -0.138923 0)
(0.842423 -0.110724 0)
(0.88212 -0.067899 0)
(0.907708 -0.00646526 0)
(0.915357 0.0779074 0)
(0.901236 0.189186 0)
(0.860717 0.327856 0)
(0.780607 0.484512 0)
(0.637604 0.590756 0)
(0.374769 0.549284 0)
(0.0197901 -0.0358969 0)
(0.0712683 -0.129072 0)
(0.134613 -0.169008 0)
(0.195816 -0.182062 0)
(0.255044 -0.185899 0)
(0.31394 -0.18796 0)
(0.373353 -0.1905 0)
(0.433622 -0.193656 0)
(0.494761 -0.196757 0)
(0.556554 -0.198791 0)
(0.61858 -0.198481 0)
(0.680146 -0.194181 0)
(0.740157 -0.183712 0)
(0.796912 -0.164238 0)
(0.847954 -0.132314 0)
(0.89016 -0.0840932 0)
(0.920033 -0.0155177 0)
(0.934403 0.0776787 0)
(0.930226 0.199637 0)
(0.9042 0.35258 0)
(0.841917 0.532398 0)
(0.736344 0.695416 0)
(0.44653 0.794669 0)
(0.021394 -0.0564992 0)
(0.0751623 -0.158512 0)
(0.14012 -0.198649 0)
(0.201854 -0.210554 0)
(0.260901 -0.213741 0)
(0.319314 -0.21576 0)
(0.378069 -0.218578 0)
(0.437524 -0.222107 0)
(0.497723 -0.225546 0)
(0.558521 -0.227787 0)
(0.61961 -0.227451 0)
(0.680475 -0.22275 0)
(0.740254 -0.211276 0)
(0.79751 -0.189875 0)
(0.850059 -0.154778 0)
(0.895093 -0.101926 0)
(0.929607 -0.0272887 0)
(0.951155 0.0732317 0)
(0.957853 0.203751 0)
(0.948458 0.367777 0)
(0.911361 0.565696 0)
(0.855774 0.783551 0)
(0.538373 1.11384 0)
(0.0144134 -0.000628432 0)
(-0.0487156 0.0233544 0)
(-0.144957 0.0194877 0)
(-0.18375 0.0080873 0)
(-0.189636 -0.000641298 0)
(-0.17356 -0.00580559 0)
(-0.148159 -0.0074347 0)
(-0.119844 -0.00756974 0)
(-0.0925058 -0.00696427 0)
(-0.0684677 -0.00590358 0)
(-0.0486739 -0.0047548 0)
(-0.033275 -0.00369746 0)
(-0.0218959 -0.002721 0)
(-0.0141049 -0.00183331 0)
(-0.0094008 -0.0010575 0)
(-0.00700182 -0.000556301 0)
(-0.00582478 -0.000542592 0)
(-0.00466824 -0.00109994 0)
(-0.00224831 -0.00149268 0)
(-0.0343749 0.017349 0)
(-0.108967 0.0543921 0)
(-0.188554 0.039381 0)
(-0.210651 0.0143638 0)
(-0.207222 -0.00387786 0)
(-0.18933 -0.0141339 0)
(-0.162752 -0.0182326 0)
(-0.133239 -0.0187632 0)
(-0.104413 -0.0173582 0)
(-0.0786347 -0.0147759 0)
(-0.0568979 -0.0118213 0)
(-0.0396662 -0.00901068 0)
(-0.0267382 -0.00648488 0)
(-0.0175912 -0.00428654 0)
(-0.0115488 -0.00249227 0)
(-0.00781179 -0.00129784 0)
(-0.00548257 -0.00094959 0)
(-0.00404258 -0.00138399 0)
(-0.00226428 -0.00158019 0)
(-0.0643453 0.0568649 0)
(-0.144176 0.08572 0)
(-0.206336 0.0554615 0)
(-0.221939 0.0176033 0)
(-0.215917 -0.00888065 0)
(-0.195892 -0.0235974 0)
(-0.168436 -0.0298904 0)
(-0.138545 -0.0308551 0)
(-0.109437 -0.0287357 0)
(-0.083219 -0.0247593 0)
(-0.0608045 -0.0200742 0)
(-0.04275 -0.0154538 0)
(-0.0290165 -0.0112458 0)
(-0.0191392 -0.00761501 0)
(-0.0123985 -0.00470193 0)
(-0.00798725 -0.002714 0)
(-0.00510843 -0.00187478 0)
(-0.00351975 -0.00219627 0)
(-0.00184474 -0.002812 0)
(-0.0846535 0.10715 0)
(-0.172956 0.11573 0)
(-0.223788 0.0690759 0)
(-0.233431 0.0193331 0)
(-0.223309 -0.0150174 0)
(-0.200157 -0.0339916 0)
(-0.171099 -0.0421277 0)
(-0.140588 -0.0432977 0)
(-0.111364 -0.0403854 0)
(-0.0851244 -0.0350383 0)
(-0.0625788 -0.028663 0)
(-0.0442104 -0.0222444 0)
(-0.0300628 -0.0163298 0)
(-0.0197626 -0.011231 0)
(-0.0126108 -0.00715948 0)
(-0.00780932 -0.00431976 0)
(-0.00461872 -0.00291014 0)
(-0.00289807 -0.00301681 0)
(-0.00130469 -0.00374766 0)
(-0.104216 0.168354 0)
(-0.204231 0.144532 0)
(-0.244429 0.0800186 0)
(-0.246777 0.0185984 0)
(-0.230945 -0.0230995 0)
(-0.203427 -0.0457516 0)
(-0.171863 -0.055158 0)
(-0.140266 -0.0561261 0)
(-0.110842 -0.0521924 0)
(-0.0847798 -0.0454027 0)
(-0.0624684 -0.0373621 0)
(-0.0441857 -0.0291942 0)
(-0.029967 -0.0215943 0)
(-0.0195231 -0.0150164 0)
(-0.0122099 -0.0097613 0)
(-0.00725307 -0.00604204 0)
(-0.00395524 -0.00401884 0)
(-0.00220644 -0.0038166 0)
(-0.000835285 -0.00435469 0)
(-0.130004 0.243696 0)
(-0.242426 0.171431 0)
(-0.268556 0.0878556 0)
(-0.261854 0.014821 0)
(-0.238918 -0.0335739 0)
(-0.205852 -0.0591777 0)
(-0.170904 -0.0691057 0)
(-0.137731 -0.0693051 0)
(-0.107956 -0.0640174 0)
(-0.0821798 -0.0556474 0)
(-0.0603838 -0.045934 0)
(-0.0425431 -0.0360723 0)
(-0.0285973 -0.0268445 0)
(-0.0183088 -0.0188213 0)
(-0.0111012 -0.0123931 0)
(-0.0062355 -0.0077878 0)
(-0.00305762 -0.0051214 0)
(-0.00146909 -0.00453585 0)
(-0.000463475 -0.00472633 0)
(-0.165045 0.343135 0)
(-0.286124 0.191154 0)
(-0.293804 0.0916844 0)
(-0.276997 0.00751309 0)
(-0.246446 -0.0467682 0)
(-0.207093 -0.0745797 0)
(-0.168079 -0.0841931 0)
(-0.132931 -0.082942 0)
(-0.102671 -0.0758578 0)
(-0.0772559 -0.0656897 0)
(-0.0562054 -0.0542481 0)
(-0.0391278 -0.042734 0)
(-0.025795 -0.0319444 0)
(-0.0159773 -0.0225249 0)
(-0.00915966 -0.0149502 0)
(-0.00464647 -0.00946654 0)
(-0.00183589 -0.00614248 0)
(-0.00063787 -0.00513133 0)
(-0.000140388 -0.00493355 0)
(-0.25434 0.337895 0)
(-0.32971 0.187001 0)
(-0.313769 0.0882304 0)
(-0.288618 -0.0044416 0)
(-0.251677 -0.0633647 0)
(-0.206159 -0.0924719 0)
(-0.162867 -0.10077 0)
(-0.125641 -0.0972143 0)
(-0.0949341 -0.0877584 0)
(-0.0700176 -0.0754865 0)
(-0.049934 -0.0621902 0)
(-0.0339184 -0.0490091 0)
(-0.021525 -0.0367031 0)
(-0.0124797 -0.025941 0)
(-0.00631678 -0.0172514 0)
(-0.00240325 -0.0108935 0)
(-0.000201368 -0.0068891 0)
(0.000396092 -0.00538823 0)
(0.000247603 -0.0049274 0)
(0.0238453 -0.0908226 0)
(0.0794272 -0.206662 0)
(0.144927 -0.245704 0)
(0.20642 -0.255124 0)
(0.264752 -0.25703 0)
(0.322265 -0.2588 0)
(0.379949 -0.261887 0)
(0.438116 -0.265853 0)
(0.49684 -0.269714 0)
(0.556088 -0.272253 0)
(0.615747 -0.271979 0)
(0.675597 -0.266925 0)
(0.73518 -0.254368 0)
(0.793492 -0.230665 0)
(0.84874 -0.191537 0)
(0.898527 -0.132683 0)
(0.940543 -0.0502847 0)
(0.97347 0.059081 0)
(0.997632 0.198666 0)
(1.01613 0.371887 0)
(1.03222 0.581674 0)
(1.08153 0.833664 0)
(1.12025 1.28562 0)
(0.0271331 -0.14017 0)
(0.0836728 -0.273172 0)
(0.146983 -0.308842 0)
(0.205803 -0.314424 0)
(0.261854 -0.314712 0)
(0.317434 -0.31619 0)
(0.373268 -0.319531 0)
(0.429505 -0.323936 0)
(0.486208 -0.328296 0)
(0.543447 -0.331361 0)
(0.601324 -0.331605 0)
(0.660009 -0.326972 0)
(0.719644 -0.314406 0)
(0.779842 -0.289537 0)
(0.83917 -0.247305 0)
(0.895402 -0.18321 0)
(0.946688 -0.0942495 0)
(0.992683 0.0214077 0)
(1.0354 0.164489 0)
(1.08058 0.334578 0)
(1.13746 0.530019 0)
(1.21889 0.749538 0)
(1.35493 1.03291 0)
(0.0310961 -0.193533 0)
(0.0867905 -0.337558 0)
(0.145976 -0.367977 0)
(0.20091 -0.37022 0)
(0.253991 -0.369624 0)
(0.307117 -0.371199 0)
(0.360645 -0.374888 0)
(0.414556 -0.379699 0)
(0.468867 -0.384539 0)
(0.523667 -0.388224 0)
(0.579122 -0.389335 0)
(0.635682 -0.385984 0)
(0.694171 -0.374978 0)
(0.754934 -0.351005 0)
(0.816731 -0.307809 0)
(0.876995 -0.240584 0)
(0.933794 -0.147593 0)
(0.987057 -0.0288688 0)
(1.03871 0.113539 0)
(1.09386 0.274861 0)
(1.16007 0.449346 0)
(1.24047 0.630183 0)
(1.35944 0.821097 0)
(0.0342974 -0.250595 0)
(0.087708 -0.398216 0)
(0.142741 -0.422466 0)
(0.194048 -0.422329 0)
(0.244195 -0.421503 0)
(0.294648 -0.423405 0)
(0.345523 -0.427449 0)
(0.3967 -0.432586 0)
(0.448136 -0.4378 0)
(0.499814 -0.441979 0)
(0.551673 -0.443892 0)
(0.604153 -0.442242 0)
(0.658798 -0.434148 0)
(0.71689 -0.412994 0)
(0.777242 -0.370549 0)
(0.83646 -0.301443 0)
(0.892374 -0.206005 0)
(0.945354 -0.085631 0)
(0.997062 0.0556367 0)
(1.05241 0.208859 0)
(1.11829 0.368483 0)
(1.19868 0.52946 0)
(1.30476 0.69444 0)
(0.0324529 -0.308556 0)
(0.0862189 -0.455173 0)
(0.139373 -0.473276 0)
(0.188065 -0.471212 0)
(0.235482 -0.47038 0)
(0.283096 -0.472713 0)
(0.331023 -0.477173 0)
(0.37911 -0.482676 0)
(0.427248 -0.488256 0)
(0.475212 -0.492736 0)
(0.522328 -0.494896 0)
(0.568542 -0.494396 0)
(0.615827 -0.48948 0)
(0.66631 -0.471862 0)
(0.718701 -0.430369 0)
(0.768787 -0.358567 0)
(0.814893 -0.260853 0)
(0.859332 -0.139889 0)
(0.904589 0.000540088 0)
(0.956611 0.147604 0)
(1.02108 0.295859 0)
(1.10246 0.44239 0)
(1.20525 0.588369 0)
(0.0236872 -0.365408 0)
(0.0874978 -0.513334 0)
(0.139945 -0.523701 0)
(0.185352 -0.518866 0)
(0.229433 -0.517999 0)
(0.273759 -0.520906 0)
(0.31836 -0.525844 0)
(0.362973 -0.531594 0)
(0.407426 -0.537163 0)
(0.451289 -0.541094 0)
(0.493317 -0.541577 0)
(0.532939 -0.539494 0)
(0.570954 -0.535336 0)
(0.6085 -0.518631 0)
(0.64408 -0.474786 0)
(0.675165 -0.395853 0)
(0.7032 -0.291067 0)
(0.731666 -0.164028 0)
(0.768907 -0.0199141 0)
(0.829878 0.120994 0)
(0.903262 0.253905 0)
(0.993274 0.379462 0)
(1.10078 0.502738 0)
(0.0307188 -0.424306 0)
(0.107195 -0.577468 0)
(0.146787 -0.573847 0)
(0.184231 -0.564938 0)
(0.223989 -0.563699 0)
(0.264921 -0.566406 0)
(0.306229 -0.570668 0)
(0.347382 -0.57516 0)
(0.388009 -0.578889 0)
(0.427235 -0.579952 0)
(0.464528 -0.575207 0)
(0.501313 -0.567121 0)
(0.533684 -0.560022 0)
(0.556159 -0.540325 0)
(0.569198 -0.4908 0)
(0.57942 -0.398948 0)
(0.586394 -0.2915 0)
(0.597368 -0.172471 0)
(0.636767 -0.047378 0)
(0.702505 0.0732128 0)
(0.779778 0.205113 0)
(0.874697 0.333414 0)
(0.989899 0.449737 0)
(0.120319 -0.497152 0)
(0.167332 -0.635043 0)
(0.156012 -0.605698 0)
(0.181161 -0.596772 0)
(0.217728 -0.595599 0)
(0.256954 -0.597234 0)
(0.29679 -0.599728 0)
(0.336808 -0.602159 0)
(0.376514 -0.603362 0)
(0.413917 -0.601008 0)
(0.451773 -0.587062 0)
(0.494844 -0.571508 0)
(0.521528 -0.561824 0)
(0.525132 -0.540406 0)
(0.506963 -0.498316 0)
(0.610854 -0.437937 0)
(0.713236 -0.36819 0)
(0.80469 -0.283342 0)
(0.888948 -0.206436 0)
(0.96854 -0.128801 0)
(1.04035 -0.038829 0)
(1.10706 0.0461148 0)
(1.14023 0.150742 0)
(0.362949 -0.713307 0)
(0.311315 -0.662902 0)
(0.157019 -0.577739 0)
(0.182762 -0.594157 0)
(0.219262 -0.598479 0)
(0.260051 -0.603185 0)
(0.300812 -0.608877 0)
(0.341234 -0.61518 0)
(0.38098 -0.621839 0)
(0.416534 -0.632192 0)
(0.481496 -0.679698 0)
(0.55277 -0.684204 0)
(0.617419 -0.637172 0)
(0.681224 -0.58064 0)
(0.73373 -0.580712 0)
(0.782993 -0.53946 0)
(0.841708 -0.461559 0)
(0.915293 -0.356241 0)
(1.00404 -0.242522 0)
(1.10082 -0.124581 0)
(1.19994 -0.00175564 0)
(1.3056 0.113973 0)
(1.41446 0.215121 0)
(0.231648 -1.05619 0)
(0.0684147 -0.443962 0)
(0.14137 -0.50151 0)
(0.205258 -0.673155 0)
(0.247876 -0.721743 0)
(0.299256 -0.734694 0)
(0.355564 -0.743148 0)
(0.413385 -0.748732 0)
(0.472747 -0.751512 0)
(0.5311 -0.756632 0)
(0.581256 -0.747804 0)
(0.622476 -0.722346 0)
(0.664413 -0.681983 0)
(0.712763 -0.641866 0)
(0.759804 -0.614991 0)
(0.799723 -0.577647 0)
(0.840448 -0.514722 0)
(0.895369 -0.429524 0)
(0.970437 -0.333833 0)
(1.06535 -0.23522 0)
(1.18004 -0.133268 0)
(1.319 -0.0243677 0)
(1.48032 0.0909897 0)
(-0.166121 -1.08165 0)
(-0.0152718 -0.587559 0)
(0.112379 -0.62127 0)
(0.203785 -0.710173 0)
(0.263258 -0.744699 0)
(0.317126 -0.753391 0)
(0.37063 -0.756801 0)
(0.422932 -0.759422 0)
(0.473788 -0.761723 0)
(0.52119 -0.764293 0)
(0.560381 -0.76309 0)
(0.591522 -0.747486 0)
(0.621755 -0.718494 0)
(0.654284 -0.683931 0)
(0.685202 -0.649435 0)
(0.711641 -0.608658 0)
(0.73925 -0.554443 0)
(0.778404 -0.487444 0)
(0.83748 -0.414658 0)
(0.921162 -0.341685 0)
(1.03307 -0.268626 0)
(1.17732 -0.190453 0)
(1.35232 -0.0952914 0)
(-0.0771553 -0.875534 0)
(0.00122159 -0.777175 0)
(0.113076 -0.757104 0)
(0.189776 -0.776052 0)
(0.244023 -0.790186 0)
(0.290778 -0.796826 0)
(0.335402 -0.800943 0)
(0.37787 -0.803724 0)
(0.417297 -0.804448 0)
(0.452054 -0.801986 0)
(0.480066 -0.793519 0)
(0.501867 -0.77433 0)
(0.520685 -0.7445 0)
(0.538278 -0.708756 0)
(0.553557 -0.670367 0)
(0.566418 -0.628166 0)
(0.581502 -0.580413 0)
(0.606819 -0.528884 0)
(0.65046 -0.478545 0)
(0.719261 -0.433712 0)
(0.819652 -0.394396 0)
(0.957883 -0.351815 0)
(1.13406 -0.278286 0)
(-0.00306532 -0.890121 0)
(0.0329148 -0.856179 0)
(0.100331 -0.83412 0)
(0.154396 -0.833752 0)
(0.197823 -0.837473 0)
(0.235541 -0.840048 0)
(0.27021 -0.841424 0)
(0.30191 -0.841012 0)
(0.329811 -0.837427 0)
(0.352723 -0.828963 0)
(0.369695 -0.813536 0)
(0.381127 -0.789156 0)
(0.388651 -0.756413 0)
(0.393444 -0.718245 0)
(0.395892 -0.677523 0)
(0.397238 -0.635656 0)
(0.401452 -0.594131 0)
(0.414678 -0.556158 0)
(0.443795 -0.526668 0)
(0.496001 -0.510329 0)
(0.579233 -0.507864 0)
(0.701453 -0.507163 0)
(0.865254 -0.465256 0)
(0.00789879 -0.906578 0)
(0.0346579 -0.90019 0)
(0.073163 -0.881002 0)
(0.108849 -0.874351 0)
(0.139903 -0.872356 0)
(0.167152 -0.871314 0)
(0.191321 -0.869543 0)
(0.212167 -0.86548 0)
(0.228962 -0.85737 0)
(0.240895 -0.843491 0)
(0.247489 -0.82233 0)
(0.249076 -0.793154 0)
(0.246685 -0.7569 0)
(0.241342 -0.716136 0)
(0.234042 -0.673916 0)
(0.226517 -0.633215 0)
(0.221966 -0.597366 0)
(0.224863 -0.570771 0)
(0.240403 -0.559047 0)
(0.274472 -0.568048 0)
(0.333996 -0.599916 0)
(0.42456 -0.639555 0)
(0.545827 -0.628706 0)
(0.00419477 -0.922527 0)
(0.0210481 -0.924496 0)
(0.0407785 -0.909173 0)
(0.0615385 -0.90053 0)
(0.0803294 -0.895502 0)
(0.0966084 -0.891557 0)
(0.110133 -0.886659 0)
(0.120406 -0.878879 0)
(0.12679 -0.866368 0)
(0.128746 -0.847566 0)
(0.12608 -0.82146 0)
(0.119143 -0.787981 0)
(0.108752 -0.748435 0)
(0.0959061 -0.705453 0)
(0.0817586 -0.662433 0)
(0.0679574 -0.623212 0)
(0.0568331 -0.592077 0)
(0.0512891 -0.574086 0)
(0.0544572 -0.575387 0)
(0.0694882 -0.602604 0)
(0.0998544 -0.658189 0)
(0.145482 -0.725023 0)
(0.204159 -0.7345 0)
(-0.00198864 -0.930039 0)
(0.00326711 -0.934167 0)
(0.00929162 -0.922778 0)
(0.0172282 -0.913826 0)
(0.024462 -0.907172 0)
(0.0300606 -0.90099 0)
(0.0333661 -0.893282 0)
(0.0337749 -0.882087 0)
(0.0307628 -0.865644 0)
(0.0240075 -0.842633 0)
(0.0135199 -0.812448 0)
(-0.000282462 -0.775483 0)
(-0.0166463 -0.73336 0)
(-0.0346297 -0.688872 0)
(-0.0531589 -0.645667 0)
(-0.0709582 -0.607939 0)
(-0.086573 -0.580279 0)
(-0.0985847 -0.567772 0)
(-0.105978 -0.576295 0)
(-0.108531 -0.611955 0)
(-0.107982 -0.676486 0)
(-0.110191 -0.753186 0)
(-0.113296 -0.77497 0)
(-0.00843186 -0.924065 0)
(-0.0139102 -0.933065 0)
(-0.0187307 -0.924121 0)
(-0.021833 -0.915628 0)
(-0.0249976 -0.908175 0)
(-0.0291835 -0.900327 0)
(-0.0351701 -0.890268 0)
(-0.0435411 -0.876178 0)
(-0.0546811 -0.856491 0)
(-0.0687198 -0.830161 0)
(-0.0854768 -0.796921 0)
(-0.104457 -0.757509 0)
(-0.12493 -0.713781 0)
(-0.146059 -0.668651 0)
(-0.166991 -0.625827 0)
(-0.186917 -0.589506 0)
(-0.205203 -0.564099 0)
(-0.221684 -0.554141 0)
(-0.237123 -0.564317 0)
(-0.253882 -0.598898 0)
(-0.277481 -0.658513 0)
(-0.316485 -0.729835 0)
(-0.365949 -0.763217 0)
(-0.0136306 -0.908794 0)
(-0.028369 -0.921275 0)
(-0.0423089 -0.914974 0)
(-0.0546452 -0.907449 0)
(-0.0667628 -0.899716 0)
(-0.0794656 -0.890688 0)
(-0.0934903 -0.878797 0)
(-0.109319 -0.862451 0)
(-0.127178 -0.840332 0)
(-0.147023 -0.811669 0)
(-0.168535 -0.776483 0)
(-0.191163 -0.735748 0)
(-0.214222 -0.691456 0)
(-0.237023 -0.646524 0)
(-0.258995 -0.604545 0)
(-0.279801 -0.569456 0)
(-0.299512 -0.545185 0)
(-0.318905 -0.535363 0)
(-0.339935 -0.543068 0)
(-0.366418 -0.570243 0)
(-0.40513 -0.615897 0)
(-0.46487 -0.670944 0)
(-0.543052 -0.708297 0)
(-0.0175905 -0.885132 0)
(-0.0397393 -0.901051 0)
(-0.0610016 -0.897298 0)
(-0.0808529 -0.890939 0)
(-0.100369 -0.883249 0)
(-0.120144 -0.87345 0)
(-0.140795 -0.860255 0)
(-0.162665 -0.842331 0)
(-0.185824 -0.818622 0)
(-0.210082 -0.788613 0)
(-0.235023 -0.752545 0)
(-0.260078 -0.711543 0)
(-0.284633 -0.667628 0)
(-0.308176 -0.6236 0)
(-0.330428 -0.582791 0)
(-0.351474 -0.548712 0)
(-0.37193 -0.524647 0)
(-0.393194 -0.513232 0)
(-0.417806 -0.516005 0)
(-0.449938 -0.532842 0)
(-0.495875 -0.561096 0)
(-0.563249 -0.594062 0)
(-0.653831 -0.620004 0)
(-0.0202899 -0.855291 0)
(-0.0479765 -0.874243 0)
(-0.0748576 -0.87289 0)
(-0.10057 -0.867743 0)
(-0.125921 -0.860303 0)
(-0.151283 -0.850084 0)
(-0.177123 -0.83608 0)
(-0.203642 -0.817227 0)
(-0.230772 -0.792718 0)
(-0.258217 -0.762255 0)
(-0.285506 -0.726238 0)
(-0.312083 -0.685856 0)
(-0.337435 -0.643067 0)
(-0.36123 -0.600462 0)
(-0.383449 -0.561009 0)
(-0.404511 -0.527706 0)
(-0.425399 -0.503156 0)
(-0.447837 -0.489083 0)
(-0.47449 -0.485811 0)
(-0.509189 -0.49173 0)
(-0.55702 -0.502894 0)
(-0.623848 -0.513188 0)
(-0.713617 -0.517475 0)
(-0.0218187 -0.821253 0)
(-0.0532851 -0.84265 0)
(-0.0841993 -0.843433 0)
(-0.114221 -0.839447 0)
(-0.143912 -0.832385 0)
(-0.173429 -0.822035 0)
(-0.203089 -0.807662 0)
(-0.232962 -0.788452 0)
(-0.262877 -0.763821 0)
(-0.292467 -0.733643 0)
(-0.321246 -0.698418 0)
(-0.348703 -0.659326 0)
(-0.374432 -0.618191 0)
(-0.398263 -0.577329 0)
(-0.420384 -0.539297 0)
(-0.441438 -0.506562 0)
(-0.462607 -0.481087 0)
(-0.485705 -0.463858 0)
(-0.513231 -0.454362 0)
(-0.548385 -0.450107 0)
(-0.594978 -0.446394 0)
(-0.657079 -0.436991 0)
(-0.738335 -0.41818 0)
(-0.0223285 -0.784844 0)
(-0.0560043 -0.807925 0)
(-0.0895248 -0.810475 0)
(-0.122443 -0.807528 0)
(-0.155095 -0.800914 0)
(-0.187446 -0.790662 0)
(-0.219674 -0.77628 0)
(-0.251744 -0.757181 0)
(-0.28341 -0.732965 0)
(-0.314275 -0.703635 0)
(-0.343866 -0.669734 0)
(-0.371734 -0.632382 0)
(-0.397574 -0.59322 0)
(-0.42135 -0.554256 0)
(-0.443389 -0.517629 0)
(-0.464455 -0.485305 0)
(-0.485787 -0.4587 0)
(-0.509121 -0.438253 0)
(-0.536643 -0.42295 0)
(-0.570852 -0.409904 0)
(-0.614426 -0.394182 0)
(-0.669901 -0.369447 0)
(-0.73937 -0.33161 0)
(-0.0220301 -0.747623 0)
(-0.0565642 -0.771536 0)
(-0.091439 -0.775405 0)
(-0.125999 -0.77332 0)
(-0.160381 -0.767173 0)
(-0.194389 -0.757186 0)
(-0.22808 -0.743074 0)
(-0.261338 -0.724438 0)
(-0.293874 -0.701028 0)
(-0.325288 -0.672933 0)
(-0.355139 -0.640697 0)
(-0.383047 -0.605341 0)
(-0.408798 -0.568299 0)
(-0.432447 -0.531267 0)
(-0.454401 -0.495991 0)
(-0.475457 -0.463993 0)
(-0.496808 -0.436251 0)
(-0.520011 -0.412827 0)
(-0.546883 -0.39247 0)
(-0.579277 -0.372251 0)
(-0.618947 -0.3474 0)
(-0.667258 -0.311775 0)
(-0.724639 -0.260859 0)
(-0.0211551 -0.710833 0)
(-0.055431 -0.734727 0)
(-0.0905907 -0.739432 0)
(-0.125712 -0.737997 0)
(-0.160759 -0.732291 0)
(-0.195407 -0.722676 0)
(-0.229611 -0.709028 0)
(-0.2632 -0.691098 0)
(-0.295864 -0.668748 0)
(-0.327218 -0.642119 0)
(-0.356869 -0.611725 0)
(-0.384501 -0.578467 0)
(-0.40997 -0.543565 0)
(-0.43339 -0.508421 0)
(-0.455194 -0.47443 0)
(-0.476147 -0.44274 0)
(-0.497332 -0.413994 0)
(-0.52008 -0.388021 0)
(-0.545839 -0.363518 0)
(-0.575918 -0.337736 0)
(-0.611362 -0.306332 0)
(-0.652725 -0.263644 0)
(-0.699214 -0.205087 0)
(-0.0199148 -0.675391 0)
(-0.0530575 -0.698514 0)
(-0.0876196 -0.703571 0)
(-0.122403 -0.702553 0)
(-0.157222 -0.697229 0)
(-0.19166 -0.688038 0)
(-0.225589 -0.674972 0)
(-0.258796 -0.657892 0)
(-0.290974 -0.63674 0)
(-0.321763 -0.61168 0)
(-0.350821 -0.583177 0)
(-0.377889 -0.552004 0)
(-0.402876 -0.519176 0)
(-0.425924 -0.485831 0)
(-0.447449 -0.453059 0)
(-0.468147 -0.421712 0)
(-0.488951 -0.392185 0)
(-0.51096 -0.364182 0)
(-0.535288 -0.336461 0)
(-0.56281 -0.306587 0)
(-0.594057 -0.270779 0)
(-0.629062 -0.224043 0)
(-0.666331 -0.162034 0)
(-0.0184776 -0.641921 0)
(-0.0498505 -0.663676 0)
(-0.0831194 -0.668639 0)
(-0.116846 -0.667799 0)
(-0.150724 -0.66277 0)
(-0.184266 -0.654011 0)
(-0.217283 -0.641582 0)
(-0.249538 -0.625418 0)
(-0.280731 -0.60551 0)
(-0.310541 -0.582026 0)
(-0.338671 -0.55537 0)
(-0.364914 -0.526191 0)
(-0.389212 -0.495317 0)
(-0.411711 -0.463654 0)
(-0.432787 -0.432044 0)
(-0.45304 -0.401105 0)
(-0.473246 -0.371061 0)
(-0.494278 -0.341563 0)
(-0.516966 -0.311497 0)
(-0.541855 -0.278789 0)
(-0.569127 -0.240266 0)
(-0.598516 -0.191681 0)
(-0.628216 -0.129122 0)
(-0.0169647 -0.610795 0)
(-0.046155 -0.630773 0)
(-0.077617 -0.635257 0)
(-0.109744 -0.63437 0)
(-0.142131 -0.629534 0)
(-0.174249 -0.621178 0)
(-0.205861 -0.609391 0)
(-0.236719 -0.594149 0)
(-0.26654 -0.575465 0)
(-0.295038 -0.553494 0)
(-0.321962 -0.52858 0)
(-0.347145 -0.501253 0)
(-0.370552 -0.47218 0)
(-0.392315 -0.442072 0)
(-0.412757 -0.411573 0)
(-0.432369 -0.381123 0)
(-0.451773 -0.350833 0)
(-0.471642 -0.32035 0)
(-0.49257 -0.288713 0)
(-0.514863 -0.254211 0)
(-0.538479 -0.214256 0)
(-0.563014 -0.165337 0)
(-0.586601 -0.104056 0)
(-0.0154561 -0.582193 0)
(-0.0422473 -0.600161 0)
(-0.0715596 -0.603869 0)
(-0.101703 -0.602734 0)
(-0.132202 -0.597982 0)
(-0.162509 -0.589979 0)
(-0.192354 -0.578806 0)
(-0.221484 -0.564447 0)
(-0.24964 -0.54692 0)
(-0.276571 -0.526358 0)
(-0.302066 -0.503041 0)
(-0.325991 -0.477398 0)
(-0.34832 -0.449958 0)
(-0.369168 -0.421275 0)
(-0.388793 -0.391836 0)
(-0.407585 -0.361954 0)
(-0.42602 -0.33167 0)
(-0.444597 -0.300657 0)
(-0.463723 -0.268113 0)
(-0.483533 -0.232657 0)
(-0.503857 -0.192224 0)
(-0.524252 -0.143969 0)
(-0.542954 -0.0850137 0)
(-0.0139962 -0.556151 0)
(-0.0383297 -0.572027 0)
(-0.0653042 -0.574754 0)
(-0.093222 -0.573211 0)
(-0.12157 -0.568443 0)
(-0.1498 -0.560731 0)
(-0.177625 -0.550119 0)
(-0.204796 -0.536577 0)
(-0.231078 -0.520112 0)
(-0.256256 -0.500825 0)
(-0.280152 -0.478941 0)
(-0.302656 -0.454802 0)
(-0.323749 -0.428824 0)
(-0.34352 -0.401437 0)
(-0.362168 -0.373007 0)
(-0.379987 -0.343759 0)
(-0.397328 -0.313695 0)
(-0.41454 -0.282531 0)
(-0.431886 -0.249617 0)
(-0.449384 -0.213861 0)
(-0.466795 -0.173639 0)
(-0.483699 -0.126681 0)
(-0.498525 -0.0705769 0)
(-0.0125981 -0.532617 0)
(-0.0345291 -0.546416 0)
(-0.0591092 -0.548055 0)
(-0.0846821 -0.545993 0)
(-0.11073 -0.541127 0)
(-0.136719 -0.533644 0)
(-0.162362 -0.523529 0)
(-0.187424 -0.510722 0)
(-0.211695 -0.495205 0)
(-0.234991 -0.477047 0)
(-0.257167 -0.456424 0)
(-0.278129 -0.433606 0)
(-0.297858 -0.408922 0)
(-0.316419 -0.382704 0)
(-0.333956 -0.355231 0)
(-0.35068 -0.326664 0)
(-0.366836 -0.29699 0)
(-0.382656 -0.265974 0)
(-0.398289 -0.233102 0)
(-0.413677 -0.197526 0)
(-0.428553 -0.157987 0)
(-0.442547 -0.11269 0)
(-0.454313 -0.0596285 0)
(-0.0112451 -0.511494 0)
(-0.0309004 -0.523275 0)
(-0.0531342 -0.523794 0)
(-0.0763441 -0.52116 0)
(-0.100033 -0.516145 0)
(-0.123701 -0.508837 0)
(-0.147074 -0.499155 0)
(-0.169941 -0.486995 0)
(-0.19212 -0.472306 0)
(-0.213458 -0.455126 0)
(-0.233834 -0.435592 0)
(-0.25317 -0.413917 0)
(-0.271442 -0.390363 0)
(-0.28869 -0.365191 0)
(-0.305013 -0.338617 0)
(-0.320551 -0.310758 0)
(-0.335464 -0.281601 0)
(-0.349893 -0.250956 0)
(-0.363904 -0.218429 0)
(-0.37739 -0.18337 0)
(-0.390082 -0.144813 0)
(-0.401671 -0.101344 0)
(-0.41104 -0.0512999 0)
(-0.00989342 -0.49268 0)
(-0.0274444 -0.502479 0)
(-0.0474567 -0.501907 0)
(-0.0683604 -0.498705 0)
(-0.0897028 -0.493529 0)
(-0.11103 -0.486364 0)
(-0.132101 -0.477056 0)
(-0.152737 -0.465452 0)
(-0.172789 -0.451471 0)
(-0.192134 -0.435123 0)
(-0.21067 -0.41651 0)
(-0.228329 -0.395807 0)
(-0.245083 -0.373227 0)
(-0.260948 -0.348981 0)
(-0.275984 -0.323239 0)
(-0.290275 -0.296095 0)
(-0.303914 -0.267538 0)
(-0.316973 -0.237424 0)
(-0.329459 -0.205452 0)
(-0.341239 -0.171132 0)
(-0.352056 -0.133726 0)
(-0.361663 -0.0921225 0)
(-0.369159 -0.0449384 0)
(-0.00848883 -0.476112 0)
(-0.0241463 -0.483856 0)
(-0.0421105 -0.482265 0)
(-0.0608049 -0.478561 0)
(-0.0798502 -0.473256 0)
(-0.0988552 -0.466225 0)
(-0.11763 -0.457241 0)
(-0.136039 -0.446109 0)
(-0.153967 -0.432719 0)
(-0.171316 -0.41706 0)
(-0.188003 -0.399212 0)
(-0.203965 -0.379322 0)
(-0.219169 -0.357569 0)
(-0.233612 -0.334129 0)
(-0.247318 -0.309147 0)
(-0.260329 -0.282701 0)
(-0.272688 -0.254789 0)
(-0.284413 -0.225304 0)
(-0.295472 -0.194023 0)
(-0.305722 -0.160576 0)
(-0.314924 -0.124398 0)
(-0.322889 -0.0846097 0)
(-0.328911 -0.0400548 0)
(-0.00702111 -0.461783 0)
(-0.021032 -0.467191 0)
(-0.037138 -0.464715 0)
(-0.0537139 -0.460641 0)
(-0.0705124 -0.45528 0)
(-0.0872255 -0.448394 0)
(-0.10373 -0.439692 0)
(-0.119939 -0.428946 0)
(-0.135772 -0.416031 0)
(-0.151152 -0.400926 0)
(-0.166007 -0.383699 0)
(-0.180279 -0.364477 0)
(-0.193926 -0.343416 0)
(-0.20693 -0.320671 0)
(-0.219291 -0.296369 0)
(-0.231017 -0.270585 0)
(-0.24211 -0.243327 0)
(-0.252553 -0.214522 0)
(-0.262286 -0.184004 0)
(-0.271161 -0.151493 0)
(-0.278966 -0.116554 0)
(-0.285556 -0.0784801 0)
(-0.290398 -0.0362882 0)
(-0.00563267 -0.449681 0)
(-0.0182078 -0.45226 0)
(-0.0326321 -0.449119 0)
(-0.047119 -0.44488 0)
(-0.0616821 -0.439567 0)
(-0.0761181 -0.432842 0)
(-0.0903817 -0.424372 0)
(-0.104433 -0.413921 0)
(-0.118219 -0.401367 0)
(-0.131676 -0.386689 0)
(-0.144737 -0.369949 0)
(-0.157342 -0.351264 0)
(-0.169446 -0.330773 0)
(-0.181017 -0.308617 0)
(-0.192037 -0.284914 0)
(-0.202492 -0.25974 0)
(-0.212356 -0.233116 0)
(-0.221585 -0.205 0)
(-0.230099 -0.17527 0)
(-0.237748 -0.143712 0)
(-0.244339 -0.109979 0)
(-0.249765 -0.0734877 0)
(-0.253638 -0.0333808 0)
(-0.0047253 -0.439563 0)
(-0.0158324 -0.43888 0)
(-0.0287288 -0.435433 0)
(-0.0410492 -0.431295 0)
(-0.0533209 -0.426136 0)
(-0.0654662 -0.419561 0)
(-0.0775133 -0.411249 0)
(-0.0894573 -0.400987 0)
(-0.101256 -0.388673 0)
(-0.112847 -0.374299 0)
(-0.124161 -0.357925 0)
(-0.135136 -0.339658 0)
(-0.145718 -0.319626 0)
(-0.155873 -0.297959 0)
(-0.165572 -0.27477 0)
(-0.174786 -0.25014 0)
(-0.183476 -0.224106 0)
(-0.191577 -0.196654 0)
(-0.198993 -0.167701 0)
(-0.20557 -0.137079 0)
(-0.21112 -0.104498 0)
(-0.215554 -0.0694525 0)
(-0.218611 -0.0311598 0)
(-0.00495828 -0.430516 0)
(-0.0140468 -0.426887 0)
(-0.0255303 -0.423752 0)
(-0.0354831 -0.420008 0)
(-0.0453453 -0.41505 0)
(-0.0551696 -0.408557 0)
(-0.0650284 -0.400285 0)
(-0.074922 -0.390085 0)
(-0.0847988 -0.377887 0)
(-0.0945835 -0.363699 0)
(-0.104198 -0.34758 0)
(-0.113575 -0.329626 0)
(-0.122659 -0.309952 0)
(-0.131413 -0.288677 0)
(-0.13981 -0.26591 0)
(-0.14782 -0.24174 0)
(-0.155398 -0.216225 0)
(-0.162474 -0.18938 0)
(-0.168939 -0.161158 0)
(-0.174624 -0.131432 0)
(-0.179324 -0.0999493 0)
(-0.18293 -0.0662326 0)
(-0.18528 -0.0295116 0)
(-0.00724627 -0.42129 0)
(-0.0130417 -0.415963 0)
(-0.0230008 -0.414213 0)
(-0.0302715 -0.411145 0)
(-0.0375994 -0.406333 0)
(-0.0451001 -0.399769 0)
(-0.0528257 -0.391381 0)
(-0.0607407 -0.381101 0)
(-0.0687615 -0.368901 0)
(-0.0767913 -0.354795 0)
(-0.0847407 -0.338836 0)
(-0.0925374 -0.321105 0)
(-0.10013 -0.301698 0)
(-0.107486 -0.28072 0)
(-0.114586 -0.258276 0)
(-0.121412 -0.234463 0)
(-0.127932 -0.209361 0)
(-0.134087 -0.183021 0)
(-0.139768 -0.155446 0)
(-0.14479 -0.126555 0)
(-0.148895 -0.0961306 0)
(-0.151886 -0.0636896 0)
(-0.153633 -0.0283666 0)
(-0.0131254 -0.412769 0)
(-0.0130773 -0.406161 0)
(-0.0209314 -0.407134 0)
(-0.0251407 -0.404892 0)
(-0.0298774 -0.399997 0)
(-0.0351307 -0.393118 0)
(-0.0408269 -0.384426 0)
(-0.0468509 -0.373931 0)
(-0.0530751 -0.361625 0)
(-0.0593813 -0.347517 0)
(-0.0656736 -0.331641 0)
(-0.0718817 -0.314053 0)
(-0.0779604 -0.294829 0)
(-0.083888 -0.274055 0)
(-0.0896601 -0.251827 0)
(-0.0952809 -0.228243 0)
(-0.10075 -0.203404 0)