/*--------------------------------*- C++ -*----------------------------------*\
| =========                 |                                                 |
| \\      /  F ield         | OpenFOAM: The Open Source CFD Toolbox           |
|  \\    /   O peration     | Version:  2.4.0                                 |
|   \\  /    A nd           | Web:      www.OpenFOAM.org                      |
|    \\/     M anipulation  |                                                 |
\*---------------------------------------------------------------------------*/
FoamFile
{
    version     2.0;
    format      ascii;
    class       volVectorField;
    location    "2.8";
    object      U;
}
// * * * * * * * * * * * * * * * * * * * * * * * * * * * * * * * * * * * * * //

dimensions      [0 1 -1 0 0 0 0];

internalField   nonuniform List<vector> 
3072
(
(-1.12241 0.596833 1.9626e-23)
(-0.929575 -0.194428 7.87207e-23)
(-0.915735 0.246332 -2.09485e-23)
(-0.980206 -0.0779823 -9.97027e-25)
(-1.32516 0.831826 -4.72128e-23)
(1.18201 -0.540777 6.51929e-23)
(2.68068 1.09362 1.62665e-22)
(2.23938 1.62632 -2.95391e-22)
(2.77189 2.11106 -2.26054e-22)
(2.72818 2.28373 7.86004e-24)
(2.94469 2.54645 -7.10845e-23)
(2.7765 2.38633 2.5155e-22)
(-1.12472 0.784957 -8.6499e-24)
(-0.098716 1.15293 4.20041e-23)
(1.26711 0.97285 -4.20613e-23)
(1.72958 1.78466 -1.47366e-31)
(2.61932 2.74518 4.21461e-23)
(2.17498 2.37144 -4.07434e-22)
(2.65839 2.84621 0)
(1.80561 2.57804 1.184e-23)
(2.36166 2.97808 -2.02694e-23)
(1.82111 2.51735 0)
(2.10134 2.91766 1.24276e-22)
(1.58794 2.31121 1.56205e-22)
(0.408214 0.63057 0)
(0.20714 1.67494 6.34012e-23)
(1.35931 1.8361 -2.63382e-23)
(2.05194 2.15824 2.77483e-23)
(2.10238 2.52193 1.47067e-22)
(2.94876 2.54435 -1.34409e-22)
(2.50089 2.41391 1.77161e-22)
(2.29716 2.28512 4.56522e-24)
(2.30159 2.51476 -8.58736e-23)
(1.98601 2.24259 0)
(2.07247 2.44203 -6.16321e-23)
(1.8172 2.08801 -1.81017e-22)
(-0.665654 1.34303 0)
(1.26799 1.13885 0)
(2.2961 1.91483 0)
(1.91012 2.28796 9.91655e-23)
(2.15663 2.5203 8.31739e-23)
(2.47925 2.4761 -9.64682e-23)
(2.11177 2.43904 3.30831e-23)
(2.22976 2.47474 1.06097e-22)
(1.97459 2.53351 1.30323e-22)
(1.89847 2.56897 -2.36622e-23)
(1.67411 2.55739 2.06114e-22)
(1.74225 2.54526 9.22524e-23)
(1.7855 1.45567 3.59969e-26)
(1.81959 1.99858 2.40954e-23)
(1.81123 2.27844 -2.17402e-23)
(2.11006 2.19535 2.4167e-23)
(2.246 2.0816 5.6199e-24)
(2.14078 2.0188 -1.10051e-22)
(2.23837 2.26058 -6.0794e-23)
(2.28438 2.33994 -1.8719e-23)
(1.94401 2.3853 2.00184e-24)
(1.85255 2.33783 -1.30172e-22)
(1.54394 2.29626 -2.23648e-22)
(1.53879 2.20494 0)
(0.72775 1.23769 2.3785e-24)
(1.53203 1.2929 2.94102e-24)
(2.81214 1.36908 -4.00922e-23)
(2.55611 1.56823 8.57626e-23)
(2.25677 2.02865 2.37525e-23)
(2.3601 2.22707 0)
(2.51645 2.57193 -4.06472e-24)
(1.95939 2.4477 6.56848e-24)
(1.91296 2.64163 -6.96812e-23)
(1.3548 2.37596 -3.74444e-23)
(1.3498 2.35229 -2.32451e-24)
(1.15631 2.25806 -1.01255e-22)
(2.18341 1.1686 4.12269e-24)
(2.48214 1.64063 3.29565e-24)
(2.37921 1.96798 0)
(1.85787 2.29442 0)
(2.33853 2.35521 0)
(2.64165 2.21336 2.76577e-23)
(2.14646 2.29999 -1.06322e-22)
(1.88405 2.33276 -1.53196e-22)
(1.47464 2.23293 9.64556e-23)
(1.00213 2.10685 3.44566e-24)
(0.861339 1.79686 1.1347e-22)
(1.04153 2.2356 2.70001e-23)
(1.56721 1.20225 3.91571e-24)
(2.07069 1.4716 -2.93132e-24)
(2.66939 1.46082 0)
(2.75556 1.30874 -4.0183e-23)
(2.92326 1.34811 -7.21928e-23)
(2.49173 1.63047 1.57477e-22)
(2.17853 2.17227 -1.21377e-22)
(1.72695 2.07035 0)
(1.10098 2.1489 -1.21918e-22)
(0.726119 2.21291 -1.46504e-22)
(0.745107 1.6117 -8.21254e-23)
(0.981346 1.39172 -6.75986e-23)
(2.38253 1.21521 -8.56029e-25)
(2.82747 1.43182 -4.05202e-24)
(2.76609 1.55794 -9.28888e-25)
(2.04063 1.82828 8.1797e-24)
(1.84042 1.98959 -6.38361e-23)
(2.26102 2.07005 7.30407e-23)
(2.25958 2.24181 -2.51694e-22)
(1.06752 2.18402 -3.80898e-23)
(1.23817 2.42304 5.19493e-23)
(0.21776 2.61844 1.30702e-22)
(1.02892 2.41569 0)
(0.696523 1.5777 -1.74649e-31)
(1.84881 1.27488 4.93624e-24)
(2.31557 1.40624 5.37592e-24)
(2.5948 1.38711 0)
(2.4336 1.25018 5.34094e-33)
(3.28602 1.06572 -1.65992e-24)
(3.25512 1.35586 9.79662e-24)
(1.8281 1.78103 1.08732e-22)
(1.30462 1.85462 8.75793e-23)
(1.05897 2.06573 7.18111e-23)
(0.558799 2.09101 -3.32463e-23)
(0.615629 2.32586 -1.54857e-22)
(0.495946 1.82673 1.2153e-22)
(2.36242 1.25941 8.70733e-24)
(2.96051 1.33096 1.83509e-23)
(2.85084 1.25281 7.77341e-24)
(2.32939 1.56736 3.49292e-24)
(2.332 1.91286 5.74205e-23)
(1.76674 2.08501 6.76777e-23)
(1.47039 1.93087 -7.22735e-23)
(1.09756 1.96555 -1.80887e-22)
(0.796566 1.99942 -4.39181e-23)
(0.217895 2.16829 -8.1008e-23)
(0.74594 2.34422 -8.31129e-23)
(-0.0485971 1.91507 6.15413e-23)
(1.74979 1.21646 2.67734e-23)
(2.51484 1.20126 7.69008e-24)
(2.66531 1.26994 0)
(2.51743 1.2887 -2.32334e-23)
(3.19907 1.27745 3.75614e-23)
(3.02734 0.954733 2.95498e-23)
(2.0731 1.42921 -7.58557e-23)
(0.782996 1.98134 -8.86918e-23)
(1.00484 2.07677 -4.74708e-23)
(0.168511 1.94623 1.17845e-22)
(0.368479 2.32863 -6.5989e-23)
(-0.556933 2.02158 -7.2043e-23)
(2.99755 2.27102 -6.24713e-23)
(2.70962 1.82142 3.56908e-22)
(2.78683 1.79336 2.71103e-22)
(2.39214 1.15721 2.62953e-22)
(2.59184 1.2974 5.3539e-22)
(1.95551 0.708731 2.73928e-22)
(2.30287 0.758982 -6.45469e-24)
(1.45715 0.267868 0)
(1.82775 0.743318 4.50026e-23)
(0.653208 0.259133 1.37165e-23)
(1.38074 0.372877 2.43475e-24)
(0.354314 0.100975 -1.50523e-24)
(2.01829 2.84537 -9.84322e-23)
(1.59256 2.08681 0)
(2.09883 2.51953 -1.54409e-22)
(1.62201 1.68096 -6.81103e-23)
(2.01973 1.92092 0)
(1.38468 1.28677 6.5569e-23)
(1.86355 1.54561 0)
(1.09987 0.957463 4.7851e-23)
(1.40861 0.929009 8.29616e-23)
(1.13778 0.861586 -4.63054e-24)
(0.957856 0.43435 -1.17047e-25)
(0.937035 0.641138 -5.05735e-25)
(1.81953 2.16898 -7.34942e-23)
(1.67227 1.671 -5.57084e-23)
(1.64892 1.77309 6.14558e-31)
(1.50542 1.47852 -2.42515e-22)
(1.35191 1.31893 3.06775e-24)
(1.23412 1.06326 -1.79732e-23)
(1.26423 1.03523 1.46474e-23)
(1.18945 1.24613 2.3911e-23)
(1.11308 0.785178 0)
(1.02971 1.03841 3.7773e-24)
(1.07573 0.914349 2.18486e-24)
(0.72641 0.781188 1.03354e-24)
(1.47901 2.45393 1.24109e-22)
(1.54592 2.21324 -1.19306e-22)
(1.34721 2.0699 4.72289e-23)
(1.25145 1.77677 0)
(1.21598 1.73695 -3.57051e-23)
(0.815989 1.15721 0)
(1.08322 1.02671 -4.63951e-24)
(0.692749 1.12355 -1.01983e-23)
(1.00173 1.07337 -4.43181e-24)
(0.657978 0.900056 5.49181e-24)
(0.838773 0.831277 0)
(0.987777 0.804586 1.53542e-24)
(1.19753 2.18778 0)
(1.19199 1.78747 1.061e-22)
(1.05608 1.98249 -5.81146e-24)
(0.881025 1.66262 0)
(0.907085 1.8391 -8.72907e-23)
(0.698718 1.57288 -1.4837e-22)
(0.819837 0.954744 -1.57498e-23)
(0.690191 1.13774 5.34149e-24)
(0.726847 0.888468 -3.10538e-23)
(0.7254 1.01832 -6.56402e-24)
(0.807029 0.694903 -7.55217e-24)
(0.83869 0.692671 4.48553e-25)
(0.90429 2.29973 -1.54066e-22)
(0.854487 1.84408 2.01922e-22)
(0.677464 1.79748 1.41329e-22)
(0.591397 1.75604 0)
(0.457385 1.67118 1.167e-22)
(0.272477 1.46063 1.12749e-22)
(0.605321 1.15124 0)
(0.225098 1.00189 0)
(0.630509 0.991402 4.64998e-24)
(0.433426 0.901853 0)
(0.719838 0.602418 -7.88184e-24)
(1.01059 0.553497 4.95676e-24)
(0.630676 2.45505 -1.38336e-23)
(0.65872 2.17415 2.52158e-22)
(0.537146 2.02086 8.20554e-23)
(0.312146 1.65265 0)
(0.219559 1.7821 -1.00161e-22)
(0.040325 1.52432 -1.26768e-22)
(0.14882 0.961273 -2.45311e-23)
(0.100862 0.911835 0)
(0.157832 0.710411 -3.42223e-24)
(0.270282 0.58407 -1.44602e-23)
(0.800205 0.258878 -1.10921e-23)
(1.1464 0.0464247 2.80723e-24)
(0.57894 2.24314 8.5256e-23)
(0.188827 1.95971 1.48237e-22)
(0.252073 2.02384 -7.17331e-23)
(-0.0411194 1.84392 1.1683e-22)
(-0.203362 1.78478 1.81133e-22)
(-0.374495 1.4397 1.13235e-22)
(0.0196706 1.04849 -2.22856e-23)
(-0.32022 0.934638 -2.59805e-24)
(-0.193037 0.524278 -3.14281e-23)
(0.236073 0.544373 1.5624e-23)
(0.402901 -0.318949 2.46141e-23)
(0.859219 0.360858 -2.81596e-24)
(0.276925 2.13853 0)
(-0.107179 2.01782 0)
(-0.137466 1.94687 -1.24906e-22)
(-0.46218 1.76764 -3.03171e-24)
(-0.590264 1.71769 2.40895e-22)
(-0.495582 1.36485 1.79377e-23)
(-0.353981 1.19567 5.81162e-23)
(-0.626867 0.989205 -6.37137e-23)
(0.0548865 0.394204 -8.98102e-23)
(-0.174749 -0.182278 0)
(1.07539 -0.275601 3.98292e-23)
(0.572374 -1.24437 -1.72751e-31)
(-0.129922 2.11814 -7.47849e-23)
(-0.582799 1.92939 0)
(-0.401234 1.91979 -1.00266e-31)
(-0.741061 1.88725 -9.4252e-23)
(-0.764511 1.82936 1.46963e-22)
(-0.80144 1.55639 -1.33639e-22)
(-0.814414 1.25438 2.34567e-22)
(-0.447704 0.919906 -1.08161e-22)
(-0.127293 0.338355 -2.42105e-22)
(0.08911 -0.347677 -1.47573e-22)
(0.58126 -0.753446 -8.48308e-23)
(1.09619 -0.490807 -1.07288e-23)
(-0.535761 2.08246 -5.97223e-23)
(-0.758025 1.89105 4.00932e-23)
(-0.566398 1.90979 1.73105e-22)
(-0.975529 1.83237 6.69267e-23)
(-0.999364 1.85806 -8.50285e-23)
(-1.0271 1.62789 -3.07603e-22)
(-0.547127 0.992576 1.95007e-22)
(-0.265007 0.629907 1.06185e-23)
(0.0449605 -0.0925986 -8.61628e-23)
(0.259393 -0.397508 -8.88324e-23)
(0.789572 -1.35538 -4.91003e-23)
(0.846347 -1.95369 -2.2033e-23)
(-0.752774 2.10098 -1.1591e-22)
(-0.889594 1.88932 -5.98767e-24)
(-0.832388 1.8489 -9.79609e-23)
(-1.29849 1.96431 -1.57956e-31)
(-1.1896 1.89502 -1.28837e-22)
(-0.801367 1.24897 3.31249e-23)
(-0.299944 0.875063 1.73554e-22)
(-0.294595 0.289783 -1.81303e-23)
(0.211695 0.00668506 0)
(0.226205 -0.888516 1.104e-22)
(0.783567 -0.968403 -8.04315e-23)
(1.038 -1.52101 -4.23103e-23)
(0.238024 0.543708 -9.89249e-25)
(0.496289 0.264986 7.08928e-24)
(0.0306509 0.153158 -3.61205e-23)
(0.925102 0.632898 -4.36644e-23)
(0.260558 -0.800044 -9.66771e-24)
(1.42386 -2.08623 7.33443e-24)
(1.8137 -1.32332 2.31891e-22)
(2.071 -1.89359 1.39695e-22)
(2.06668 -1.63 -1.29593e-22)
(2.09236 -2.07035 9.55612e-24)
(1.96092 -1.58144 -1.69713e-22)
(1.73796 -1.9556 -3.93241e-23)
(0.671817 0.84018 2.36559e-24)
(1.01101 -0.0271309 7.09584e-24)
(0.779717 -0.73622 -1.37897e-24)
(1.85182 -1.87919 6.56004e-24)
(1.94435 -1.83559 1.05232e-22)
(2.10933 -1.71954 5.80371e-24)
(2.32087 -1.38386 -5.18818e-24)
(2.49134 -1.5331 0)
(2.55866 -1.42986 -4.37769e-23)
(2.5218 -1.46522 -1.61871e-23)
(2.49196 -1.54549 1.83966e-23)
(2.21143 -1.66236 0)
(0.632182 -0.198105 4.39772e-24)
(1.49997 -0.647263 -1.30322e-23)
(1.45038 -1.67218 -3.4666e-23)
(2.16621 -2.07244 0)
(2.05508 -2.02259 3.86582e-23)
(2.16649 -1.93571 1.71646e-23)
(2.09744 -1.6962 5.12495e-23)
(2.27576 -1.82718 -2.19514e-25)
(2.22569 -1.64445 -8.50794e-25)
(2.41166 -1.81472 7.12055e-23)
(2.38032 -1.55388 0)
(2.24732 -1.68013 0)
(1.27811 0.390494 2.43599e-24)
(1.20826 -1.55151 -8.46232e-24)
(1.91234 -1.97917 -2.03958e-23)
(1.96073 -1.93032 -3.53896e-23)
(1.94262 -1.94907 -8.76956e-23)
(1.96026 -1.807 1.69363e-23)
(1.97084 -1.5859 7.70782e-23)
(2.01788 -1.61127 3.5456e-23)
(2.07889 -1.40069 2.38562e-23)
(2.10757 -1.41679 7.12201e-24)
(2.20351 -1.24657 0)
(1.9717 -1.24653 0)
(1.57804 -1.35431 -6.34021e-24)
(1.75185 -1.69121 -3.38416e-24)
(1.95498 -1.96833 3.00406e-23)
(1.65968 -1.96535 1.1984e-23)
(1.68876 -1.7478 -2.19884e-24)
(1.69421 -1.57505 -7.90336e-24)
(1.73662 -1.51366 8.51604e-24)
(1.75409 -1.45896 -4.44502e-24)
(1.83004 -1.38175 -3.42049e-25)
(1.87027 -1.30432 0)
(2.20793 -1.19224 -1.50977e-22)
(2.04855 -1.02417 -1.40289e-22)
(1.36958 -1.16969 2.03738e-24)
(1.19511 -1.99669 0)
(1.57989 -2.28807 7.98603e-24)
(1.5499 -1.73563 1.16301e-23)
(1.68399 -1.59776 3.94516e-23)
(1.6908 -1.60981 -1.3516e-24)
(1.87911 -1.52146 8.2905e-23)
(1.79566 -1.44821 2.84845e-23)
(1.86256 -1.32343 -6.06181e-23)
(1.69166 -1.27746 -7.23817e-24)
(1.99743 -1.0999 3.5757e-23)
(1.94944 -0.884447 -5.32632e-23)
(1.32752 -1.81791 7.66363e-24)
(1.57838 -2.06606 0)
(1.82374 -1.98302 0)
(1.61799 -1.58125 -1.15212e-25)
(1.84752 -1.92014 9.78892e-33)
(2.03618 -1.76504 -4.84166e-24)
(2.34733 -1.73688 -7.97155e-23)
(2.22243 -1.61771 -9.6489e-23)
(2.39551 -1.57229 1.47089e-22)
(1.86959 -1.31838 9.39591e-23)
(1.92374 -0.963401 1.04617e-23)
(1.61298 -0.635617 -1.14051e-23)
(1.36387 -1.81482 7.45979e-24)
(1.30624 -2.22719 1.77675e-23)
(1.51228 -2.30863 1.69559e-23)
(1.56015 -2.03443 -2.24765e-23)
(2.15324 -2.25161 -2.82873e-23)
(2.40896 -1.89941 -5.92887e-23)
(2.70272 -2.13873 -8.70405e-23)
(2.71801 -1.69179 -3.70497e-23)
(2.81673 -1.65519 0)
(2.38843 -1.04768 0)
(2.36687 -0.70767 9.65081e-23)
(1.78833 -0.380455 4.19539e-23)
(1.32494 -2.20866 -3.89554e-24)
(1.55511 -2.38164 1.50745e-24)
(1.80837 -2.26874 -1.06353e-23)
(1.88918 -1.97607 3.60031e-23)
(2.32704 -2.24829 -8.09953e-23)
(2.37916 -2.38217 5.96488e-23)
(2.75918 -2.02113 0)
(2.81918 -1.7205 -1.38927e-22)
(2.79228 -1.3081 -1.22892e-22)
(2.49193 -0.871109 -5.8325e-23)
(2.67426 -0.331875 2.39641e-23)
(2.06845 -0.222362 2.95644e-23)
(1.36167 -2.12917 7.44126e-24)
(1.41005 -2.50133 8.83324e-24)
(1.51754 -2.53528 -1.80062e-32)
(1.5674 -2.48907 4.3816e-23)
(1.99935 -2.93726 -1.13967e-23)
(2.3291 -2.19831 -4.93824e-23)
(2.62889 -2.00664 -2.85383e-23)
(2.6615 -1.5691 -1.54888e-22)
(2.76202 -1.05308 -8.29507e-23)
(2.50546 -0.577363 2.27746e-22)
(2.81992 -0.252513 0)
(2.24512 0.0182447 1.58383e-22)
(1.3151 -2.3749 -6.22697e-24)
(1.53899 -2.66201 -2.91509e-24)
(1.66681 -2.5632 2.28134e-23)
(1.80518 -2.46348 1.63134e-24)
(2.1334 -2.34975 -1.36672e-22)
(2.18635 -1.98102 -2.15794e-22)
(2.52923 -2.25152 -1.17606e-22)
(2.46271 -1.13322 -1.35531e-22)
(2.93731 -1.00341 9.10702e-23)
(2.57736 -0.18711 4.23315e-22)
(2.8102 0.00534819 0)
(2.49581 0.06 7.5268e-23)
(1.34709 -2.15536 6.11476e-25)
(1.27807 -2.69835 -3.10673e-24)
(1.38292 -2.74392 0)
(1.40725 -2.68734 -1.01429e-23)
(1.57347 -3.02808 -1.46155e-22)
(1.8007 -2.68949 0)
(2.23106 -1.74356 -8.80617e-23)
(2.27361 -1.20531 -1.80064e-22)
(2.67678 -0.559476 -3.14519e-22)
(2.66414 -0.109778 -2.62177e-23)
(2.68826 0.240179 0)
(2.41568 0.404202 0)
(1.67638 -1.56831 -2.59417e-22)
(1.26759 -1.71239 -2.34485e-22)
(1.44051 -1.42549 6.70508e-24)
(0.617559 -1.09328 -9.01847e-24)
(1.23233 -1.13235 5.22479e-23)
(0.809312 -0.387401 1.75972e-24)
(0.0788037 -1.15355 0)
(0.623661 -0.781314 0)
(0.232714 -0.554822 -2.38167e-24)
(0.0126554 -0.74346 4.46611e-24)
(0.0111541 -0.675367 -1.81809e-33)
(-0.0746129 -0.688665 2.7279e-34)
(2.10734 -1.72068 -1.81719e-22)
(1.7528 -1.5472 4.73879e-23)
(1.82683 -1.56878 1.08347e-22)
(1.42696 -1.22727 1.68772e-22)
(0.932276 -1.09953 1.50485e-22)
(0.818743 -1.20026 0)
(0.253781 -1.11753 7.64065e-24)
(0.960006 -0.617281 1.72378e-23)
(0.363805 -1.0002 5.35747e-25)
(0.138751 -0.751855 4.8575e-24)
(0.202347 -0.950187 2.3114e-24)
(0.160506 -0.748339 -1.29396e-24)
(2.22199 -1.44438 0)
(1.92326 -1.53835 -1.56108e-23)
(2.12769 -1.38258 -1.09158e-23)
(1.95134 -1.1764 0)
(1.54011 -1.12562 7.20962e-24)
(1.3416 -0.808479 6.42621e-23)
(0.701142 -1.01719 4.37037e-32)
(0.697053 -0.703053 -7.59091e-24)
(0.349458 -1.05908 0)
(0.185295 -0.870361 0)
(0.0425782 -0.93299 -4.60162e-24)
(0.253823 -0.864652 -1.09881e-24)
(1.97823 -1.21573 0)
(1.58973 -1.16974 -4.87649e-23)
(1.83591 -1.32126 0)
(1.93209 -0.930913 -1.7217e-22)
(1.78948 -1.2053 -1.13909e-22)
(1.35287 -0.707173 -6.10101e-23)
(1.07383 -1.15415 -7.52454e-24)
(0.89097 -0.633745 -7.02052e-24)
(0.443455 -1.14903 -3.57683e-24)
(0.384362 -0.809409 9.36629e-24)
(0.253336 -1.1406 -5.26407e-24)
(0.416112 -0.784724 3.50363e-24)
(2.01914 -0.992631 3.46185e-23)
(1.49644 -0.836385 -7.07833e-23)
(1.62128 -1.05617 0)
(1.83481 -0.719203 1.69086e-23)
(1.97832 -0.911187 -1.03554e-22)
(1.71381 -0.704339 -1.31215e-22)
(1.06738 -0.933012 -3.45777e-23)
(0.892711 -0.846914 1.14009e-24)
(0.403372 -1.10481 -6.0792e-24)
(0.170173 -0.858634 8.06849e-24)
(0.138215 -1.01781 -5.46772e-24)
(0.324351 -0.95334 2.91455e-24)
(2.18067 -0.826452 0)
(1.64484 -0.684887 3.3038e-23)
(1.40107 -0.968654 2.68067e-23)
(1.59821 -0.590412 0)
(1.78955 -0.742624 0)
(1.53972 -0.388385 1.02808e-23)
(1.20362 -0.846064 0)
(0.888097 -0.64954 0)
(0.583171 -1.04473 0)
(0.550142 -0.784184 -2.08796e-24)
(0.118093 -0.806008 1.44856e-24)
(0.43098 -0.886946 7.09722e-25)
(1.94598 -0.625464 0)
(1.7528 -0.427274 -3.21402e-23)
(1.47939 -0.726237 6.62876e-24)
(1.49177 -0.303272 0)
(1.70573 -0.309497 6.91683e-23)
(1.61521 -0.220511 6.46519e-23)
(1.01841 -0.580552 -2.22883e-23)
(0.627889 -0.629963 -2.85527e-24)
(0.491987 -0.952062 0)
(0.329512 -0.658944 0)
(0.154171 -1.37431 1.18706e-23)
(-0.20514 -0.872352 -1.17963e-24)
(1.82968 -0.457375 0)
(1.69309 -0.321903 -1.48133e-24)
(1.50616 -0.521104 -3.88786e-24)
(1.54341 -0.119622 5.37084e-23)
(1.68809 -0.123682 5.65957e-23)
(1.39757 0.0889479 -3.02178e-23)
(0.963947 -0.444518 -4.94368e-23)
(0.622272 -0.420264 -1.60036e-23)
(0.346884 -0.319685 -1.50401e-23)
(0.184129 -0.754439 7.61815e-24)
(-0.151011 -0.663624 6.0656e-24)
(0.433022 -1.23821 -1.97659e-24)
(1.98321 -0.380683 3.04162e-23)
(1.77371 -0.191908 3.84504e-23)
(1.55647 -0.371425 -1.04375e-23)
(1.55397 0.101942 8.36247e-23)
(1.59953 0.231599 -5.21957e-23)
(1.41417 0.129599 -5.85916e-23)
(0.921052 -0.28398 -1.21326e-22)
(0.670137 0.181592 3.58737e-24)
(0.33357 -0.470379 7.62955e-23)
(-0.013238 -0.201442 1.08003e-23)
(-0.152297 -1.04246 5.81467e-24)
(-0.817802 -0.727674 -2.1359e-24)
(1.89521 -0.257613 4.19941e-23)
(1.81926 -0.0525673 -5.05647e-23)
(1.66195 -0.128218 4.04319e-23)
(1.64265 0.363563 1.16155e-22)
(1.57238 0.328926 5.66202e-23)
(1.19195 0.285417 1.6181e-22)
(1.03263 0.247376 -1.29036e-22)
(0.500881 0.17813 -7.36294e-23)
(0.113618 -0.184848 -4.97466e-32)
(-0.317235 -0.36516 6.37886e-23)
(-0.734113 -0.636712 9.80155e-24)
(-0.273953 -1.28791 4.54911e-24)
(2.03319 -0.0628528 0)
(1.85663 0.085507 -3.26144e-23)
(1.79086 0.113801 6.41187e-23)
(1.63198 0.595455 1.13709e-22)
(1.53968 0.553367 2.10406e-22)
(1.22985 0.616743 1.93426e-22)
(0.736835 0.298039 1.51919e-22)
(0.478117 0.107003 -1.0429e-22)
(-0.0828906 -0.113234 -1.04359e-22)
(-0.249517 -0.362706 1.04429e-22)
(-0.952767 -0.739321 8.79748e-24)
(-1.5331 -0.896914 -1.38391e-23)
(2.02296 0.132192 0)
(1.84381 0.27456 -9.02322e-23)
(1.86739 0.471831 0)
(1.78745 0.920343 0)
(1.62445 0.847749 1.9175e-22)
(1.0589 0.58662 -1.5849e-23)
(0.766458 0.253459 1.90248e-22)
(0.199411 0.2087 0)
(-0.15476 -0.158805 0)
(-0.764165 -0.251028 -9.81437e-23)
(-0.944406 -0.699895 -6.3248e-23)
(-1.24156 -1.10277 -2.4474e-24)
(0.958935 -0.806683 -2.83525e-23)
(0.768201 0.297217 1.84013e-23)
(0.665722 -0.100026 3.76093e-23)
(0.440512 0.224817 -6.11559e-24)
(0.551317 -0.135077 6.89138e-24)
(0.472996 -0.377283 0)
(-1.1734 0.0113216 -3.27133e-23)
(-2.11891 -0.982799 3.69145e-33)
(-1.89476 -1.55433 -1.70085e-22)
(-2.0258 -1.84909 2.60632e-24)
(-2.19741 -1.83732 -6.15498e-23)
(-2.14101 -2.00733 0)
(1.19013 -0.858354 -2.03559e-23)
(0.828281 -0.35795 -1.03983e-23)
(-0.377218 -0.967752 3.88635e-24)
(-1.03161 -0.955926 1.05221e-23)
(-1.76133 -1.48585 0)
(-2.13288 -1.98798 -7.95588e-24)
(-2.26883 -1.91688 5.85839e-22)
(-2.05043 -2.04612 1.84684e-22)
(-1.87817 -2.17924 -2.07837e-23)
(-1.95861 -2.42314 0)
(-1.90979 -2.28605 9.86239e-24)
(-1.83879 -2.44324 0)
(0.832686 -1.14239 -1.679e-23)
(-0.476523 -1.13873 3.90076e-24)
(-0.958383 -1.77236 -3.01031e-23)
(-1.65478 -1.67927 5.0031e-24)
(-1.90365 -2.05512 -4.44253e-23)
(-2.27279 -2.22724 -6.84306e-32)
(-2.50818 -2.16026 0)
(-2.23651 -2.05464 -4.39524e-23)
(-2.09861 -1.93973 1.73655e-23)
(-1.90049 -2.04802 -9.00759e-24)
(-1.7997 -1.93531 6.94009e-24)
(-1.55431 -2.01552 1.97594e-23)
(0.955806 -1.80834 3.65715e-24)
(-0.711949 -0.880899 2.12474e-23)
(-1.6862 -2.19618 -3.60116e-24)
(-1.93827 -2.17011 -1.59453e-24)
(-2.21962 -2.47781 -2.08291e-23)
(-2.16927 -2.26941 5.5328e-23)
(-2.23549 -2.25942 -1.70101e-22)
(-1.88518 -1.91787 4.40439e-23)
(-1.86368 -1.97314 7.97053e-23)
(-1.52053 -1.92063 -4.80635e-23)
(-1.53856 -1.94681 -6.81038e-23)
(-1.12516 -2.03971 -6.40908e-23)
(-0.959922 -1.78045 -2.7046e-23)
(-1.36362 -2.27279 -1.83585e-24)
(-1.93464 -2.71684 -5.52376e-24)
(-2.12833 -2.46253 -2.3469e-23)
(-2.05334 -2.50782 -6.84775e-23)
(-1.90066 -2.18986 -2.89597e-24)
(-1.8573 -2.15275 0)
(-1.4999 -1.70835 1.23122e-23)
(-1.71429 -1.86033 3.27508e-23)
(-1.18925 -1.67664 1.82964e-23)
(-1.50596 -1.97001 5.06151e-23)
(-0.906318 -1.92519 0)
(-0.855009 -1.27109 -1.8857e-25)
(-1.7107 -1.41174 2.20315e-23)
(-2.36964 -2.01342 3.15465e-23)
(-1.76473 -1.75392 -4.04652e-23)
(-1.73985 -1.97224 -8.71038e-24)
(-1.61854 -1.7432 2.55426e-23)
(-1.34832 -1.63143 4.93084e-23)
(-1.25577 -1.50815 -2.34917e-23)
(-1.2384 -1.18344 -3.88915e-23)
(-0.973676 -1.16982 -2.82206e-23)
(-1.31671 -1.55404 0)
(-0.844616 -1.8101 0)
(-1.74723 -1.35061 0)
(-1.95874 -1.76603 3.69709e-24)
(-1.82874 -2.09344 -2.5666e-23)
(-1.37359 -1.80636 1.39862e-25)
(-1.79143 -1.92521 -1.81701e-23)
(-1.39819 -1.77555 -1.83913e-23)
(-1.20489 -1.96442 -1.36437e-23)
(-0.996469 -1.75758 -1.30816e-23)
(-0.957247 -1.59497 0)
(-1.21338 -1.07297 -2.25509e-23)
(-1.16182 -0.989342 -1.38376e-22)
(-0.808365 -1.55422 -3.466e-23)
(-1.77593 -1.37765 0)
(-2.19465 -1.32357 3.01078e-23)
(-2.18164 -1.34601 0)
(-1.84473 -1.46933 -7.65784e-24)
(-1.91624 -1.83709 3.07922e-23)
(-1.35893 -1.99864 4.74207e-23)
(-1.64561 -2.42951 -4.45911e-23)
(-1.05276 -2.28679 -5.09405e-23)
(-1.33813 -2.36397 0)
(-0.711129 -1.54406 -9.2001e-23)
(-1.42216 -1.32324 2.10807e-31)
(-0.622914 -1.13987 0)
(-2.28773 -1.35392 3.48917e-24)
(-2.3596 -1.66438 1.89128e-23)
(-2.06523 -1.83258 -1.45284e-24)
(-1.74268 -1.98427 2.40812e-32)
(-1.76722 -2.20061 -1.26273e-24)
(-2.06627 -2.46622 1.02115e-22)
(-1.79868 -2.97136 5.22786e-23)
(-1.43675 -2.90479 2.7559e-22)
(-1.17836 -2.91014 0)
(-1.06376 -2.00102 4.28339e-24)
(-1.369 -1.75296 3.74211e-23)
(-0.351205 -1.31311 -2.65546e-24)
(-2.128 -1.41341 8.71949e-25)
(-2.36072 -1.35451 2.33213e-24)
(-2.32409 -1.41852 1.02812e-23)
(-2.04192 -1.61395 1.02118e-23)
(-2.67978 -1.85737 2.28044e-32)
(-2.29598 -2.53533 1.75291e-22)
(-1.66933 -3.0757 -3.78603e-22)
(-1.51174 -3.17564 -1.24867e-32)
(-0.956739 -3.22264 0)
(-0.834525 -2.68347 -2.39918e-22)
(-0.832577 -2.15372 -6.48265e-23)
(-0.197403 -1.53508 2.35045e-32)
(-2.44668 -1.34251 3.21389e-24)
(-2.48934 -1.43503 -1.81859e-24)
(-2.40151 -1.63537 6.85951e-24)
(-2.34974 -1.87613 0)
(-2.19233 -2.19233 -8.33257e-23)
(-2.06358 -2.62368 -1.98627e-23)
(-2.16274 -2.85338 -4.84482e-22)
(-1.19343 -3.10535 -8.42321e-22)
(-0.960324 -3.16693 -1.72907e-22)
(-0.322274 -2.76853 -2.95038e-23)
(-0.403631 -2.53786 0)
(-0.192395 -1.7535 -2.60188e-23)
(-2.06643 -1.32213 1.48194e-23)
(-2.42974 -1.22781 -7.40347e-24)
(-2.59344 -1.27651 -1.53413e-24)
(-2.317 -1.50037 -3.45139e-23)
(-2.86649 -1.50366 -1.07174e-22)
(-3.02492 -1.9408 2.21017e-23)
(-1.45196 -2.49477 -1.53749e-22)
(-1.37637 -2.85037 -4.72528e-22)
(-0.178576 -3.27201 -2.16694e-22)
(-0.232088 -2.82392 -1.037e-22)
(0.0167252 -2.49185 0)
(-0.14465 -1.86048 6.5516e-23)
(-2.13751 -1.67184 4.01263e-23)
(-1.97468 -1.72703 2.61638e-22)
(-1.76798 -1.06213 1.02745e-23)
(-1.72366 -1.26641 -1.74655e-22)
(-1.1474 -0.345811 2.13052e-22)
(-1.61738 -0.568266 1.12138e-22)
(-0.689835 -0.643234 -2.09953e-24)
(-1.05026 0.100626 -7.95293e-25)
(-0.955574 -0.102572 5.41937e-24)
(-0.67926 -0.0310706 -1.22112e-24)
(-0.761 -0.0906319 -1.93251e-24)
(-0.589032 0.0217614 -4.383e-25)
(-1.70578 -2.14023 0)
(-1.65216 -2.31063 -1.75781e-22)
(-1.58525 -1.84375 -1.56314e-22)
(-1.5033 -1.93648 1.0531e-22)
(-1.31951 -1.38301 0)
(-1.20385 -1.04208 1.26502e-23)
(-0.999116 -1.33697 0)
(-1.08806 -0.48621 -3.36858e-23)
(-0.757444 -0.82691 -6.82818e-24)
(-0.775875 -0.510334 2.93866e-24)
(-0.600589 -0.163293 1.38308e-24)
(-0.740239 -0.0864058 -3.18226e-25)
(-1.47338 -1.77821 0)
(-1.22215 -1.8079 0)
(-1.37192 -1.54639 1.84281e-22)
(-1.09996 -1.6289 5.3575e-24)
(-1.11724 -1.50532 -5.47523e-24)
(-1.03678 -0.92237 -6.55784e-23)
(-0.939884 -1.34213 -1.60827e-24)
(-0.960388 -0.644963 3.48132e-24)
(-0.719477 -0.597739 0)
(-0.876704 -0.632216 2.48023e-24)
(-0.736765 -0.243733 7.21447e-25)
(-0.779765 0.184629 -2.57824e-25)
(-1.20522 -1.91689 0)
(-0.844771 -1.67854 0)
(-1.13025 -1.62442 1.67234e-22)
(-0.786194 -1.54433 1.31598e-22)
(-0.956428 -1.70284 7.2545e-23)
(-0.668969 -1.0181 1.66118e-24)
(-0.676374 -1.18943 5.57823e-24)
(-0.79882 -1.14848 1.92333e-23)
(-0.72285 -0.815379 9.62582e-24)
(-0.728251 -0.547974 -3.23982e-24)
(-0.953432 -0.324663 2.49055e-24)
(-0.814964 0.0740912 -5.00182e-25)
(-1.06184 -2.12297 4.20819e-23)
(-0.580702 -1.76945 2.08154e-23)
(-0.981449 -1.56635 0)
(-0.568861 -1.38701 -4.59363e-24)
(-0.685033 -1.76665 9.24571e-24)
(-0.511173 -1.35561 9.67179e-24)
(-0.655943 -1.19987 -4.93968e-24)
(-0.551492 -0.75431 2.03448e-24)
(-0.73409 -0.749613 1.45922e-24)
(-0.838469 -0.504797 3.41614e-24)
(-1.01928 -0.256873 4.84192e-25)
(-0.878661 0.217317 -1.43168e-25)
(-0.885824 -2.09523 6.72994e-23)
(-0.480565 -2.03385 -6.67721e-24)
(-0.759694 -1.79303 -8.37688e-25)
(-0.51248 -1.51618 3.12622e-23)
(-0.57313 -1.64773 5.28122e-23)
(-0.420272 -1.34532 4.56429e-23)
(-0.511539 -1.14604 -4.41031e-25)
(-0.591468 -1.01984 -9.88034e-24)
(-0.687096 -0.649848 -2.92827e-25)
(-0.681913 -0.319968 2.62613e-24)
(-0.995548 -0.299099 0)
(-0.980598 0.0410605 1.6917e-32)
(-0.658308 -1.91434 5.37503e-23)
(-0.275021 -1.81079 7.58235e-23)
(-0.640549 -1.71347 -2.36397e-23)
(-0.377024 -1.5188 -3.35645e-23)
(-0.386849 -1.73596 4.60398e-23)
(-0.289248 -1.464 2.60204e-23)
(-0.492175 -1.23055 1.25428e-23)
(-0.470788 -0.824808 -4.35704e-33)
(-0.722093 -0.66608 -8.57128e-24)
(-0.760915 -0.182844 0)
(-1.15998 0.0304238 0)
(-1.08448 0.398618 -8.30857e-25)
(-0.63235 -1.7443 -2.28918e-23)
(-0.0973896 -1.81733 -5.81263e-23)
(-0.480259 -1.72325 0)
(-0.258047 -1.51886 0)
(-0.246987 -1.71788 -4.9683e-23)
(-0.159979 -1.40533 -2.81816e-23)
(-0.364373 -1.11126 -1.55255e-23)
(-0.42403 -0.876679 1.81195e-23)
(-0.487076 -0.569755 -1.2107e-24)
(-0.917165 -0.102818 -1.21839e-23)
(-0.788019 0.088856 -9.04632e-24)
(-1.31899 -0.00260343 2.74998e-25)
(-0.513047 -1.80117 1.42129e-23)
(-0.0139955 -1.73275 8.6671e-23)
(-0.43819 -1.73886 2.91775e-23)
(-0.0821532 -1.52751 3.3576e-23)
(-0.0456681 -1.70967 3.64391e-23)
(-0.0345047 -1.35744 0)
(-0.404543 -1.23575 -1.94911e-23)
(-0.310529 -0.804915 1.67982e-23)
(-1.05029 -0.443365 -7.09476e-24)
(-0.644659 0.0724366 -2.62095e-24)
(-1.39367 0.247738 2.03174e-24)
(-0.877287 0.740584 2.07757e-24)
(-0.592366 -1.78436 -2.58689e-23)
(0.0793501 -1.76864 0)
(-0.293573 -1.76654 -2.19452e-23)
(0.0954066 -1.56434 2.71477e-23)
(0.0537096 -1.71039 -1.76009e-23)
(-0.0963464 -1.33062 -9.68849e-24)
(-0.282887 -1.01822 5.28184e-23)
(-0.729496 -0.585442 -5.98758e-24)
(-0.575353 -0.367274 -2.04933e-23)
(-0.98894 0.0361132 -1.1489e-23)
(-0.81825 0.441032 -8.24926e-24)
(-1.46132 0.313971 -1.592e-24)
(-0.392554 -1.80283 -3.05565e-23)
(0.150809 -1.7534 0)
(-0.191067 -1.76433 -6.73251e-23)
(0.270905 -1.64094 -4.22076e-24)
(0.0385344 -1.67984 6.13793e-23)
(-0.0435528 -1.17662 5.80124e-23)
(-0.643726 -0.885234 3.8393e-23)
(-0.281852 -0.558299 6.63346e-23)
(-0.620298 -0.24367 5.06273e-23)
(-0.644976 0.259691 -2.73216e-23)
(-1.15827 0.505386 -3.43224e-24)
(-0.849279 1.16601 1.35889e-24)
(-0.190681 -1.8488 -3.42761e-23)
(0.309242 -1.76587 0)
(0.020178 -1.76191 -2.77584e-23)
(0.392675 -1.64425 5.11936e-23)
(0.127617 -1.59072 1.45629e-22)
(-0.233045 -1.06321 1.12079e-22)
(0.0546673 -1.01772 0)
(0.0611856 -0.545117 1.24987e-22)
(-0.25496 -0.234385 -1.50059e-23)
(-0.308064 0.458696 0)
(-0.767066 0.68455 -3.08418e-24)
(-1.23253 0.928512 1.17534e-24)
(-0.639291 -0.507961 1.24718e-23)
(0.0302094 -0.637641 5.86776e-23)
(-0.0719329 -0.56082 2.98553e-23)
(0.0342181 -0.515999 -1.72613e-23)
(-0.315033 -0.785081 6.27852e-24)
(-0.453199 -0.516076 -3.49002e-23)
(0.0500344 1.55076 -2.97912e-22)
(-1.16519 2.20492 1.34799e-22)
(-1.52045 1.8074 1.70494e-22)
(-1.79182 1.97237 1.37801e-22)
(-1.69594 2.06033 1.93877e-23)
(-1.82921 2.03796 3.92859e-23)
(-0.584047 -1.15167 -2.63292e-24)
(-0.796605 -0.655958 -2.45208e-24)
(-0.774204 0.481412 -3.00679e-24)
(-1.04635 1.13161 4.81889e-25)
(-1.52108 1.79055 1.38164e-22)
(-2.24392 2.21125 0)
(-1.95969 2.17187 1.00498e-23)
(-2.21032 1.75284 0)
(-2.22296 1.5682 8.26953e-24)
(-2.33228 1.59441 4.4885e-23)
(-2.13873 1.61178 0)
(-2.13308 1.53257 3.77328e-23)
(-0.977177 -0.254614 -1.9925e-23)
(-1.18238 0.194109 1.71958e-23)
(-1.6122 0.8731 -4.46431e-23)
(-1.73778 1.6537 0)
(-1.839 1.83162 -4.47988e-23)
(-2.20374 2.25438 -5.56992e-23)
(-1.90466 2.32606 -1.26609e-22)
(-2.00367 2.0562 2.80954e-23)
(-1.97814 1.95698 3.95431e-23)
(-2.13095 1.79531 -7.20577e-33)
(-2.02846 1.85021 4.03627e-23)
(-2.02447 1.69312 1.95597e-23)
(-1.52101 -0.637936 -1.73439e-23)
(-1.11688 0.788518 2.90319e-23)
(-2.06446 1.53836 1.13401e-23)
(-1.92902 1.83052 -3.62979e-23)
(-2.25825 1.91326 -1.1396e-22)
(-2.22119 2.18977 3.09819e-23)
(-2.28425 2.05464 0)
(-2.35023 2.09845 -3.14707e-23)
(-2.43463 1.84976 0)
(-2.37065 1.70178 -2.0423e-23)
(-2.22248 1.63114 -2.2229e-24)
(-2.10833 1.64564 1.27814e-23)
(-1.36944 0.999687 -1.07359e-23)
(-1.76904 1.13319 -5.02333e-25)
(-2.13028 1.57762 -2.20147e-23)
(-2.13937 1.7736 2.4172e-23)
(-2.19434 2.14428 -4.46027e-23)
(-2.08547 1.99554 1.08983e-22)
(-2.13457 2.08772 -1.29619e-22)
(-2.10904 2.0018 -4.06324e-23)
(-2.24543 1.80955 0)
(-2.20977 1.47996 -9.10394e-23)
(-2.12766 1.64737 -1.07752e-22)
(-1.92317 1.4517 0)
(-1.36604 0.706484 3.80279e-24)
(-1.20542 1.31003 2.06854e-23)
(-1.63784 1.99099 0)
(-1.69044 2.24792 -5.83814e-23)
(-2.08302 2.09673 0)
(-1.93634 1.85126 0)
(-2.12708 2.09885 8.37858e-23)
(-2.09803 1.81014 1.18401e-22)
(-2.34148 1.7338 0)
(-2.26511 1.3794 -2.36801e-22)
(-2.36042 1.6417 -3.84519e-22)
(-2.04608 1.45688 1.97248e-22)
(-1.14411 1.4498 -3.27693e-24)
(-1.58598 1.86429 2.06087e-23)
(-1.91494 2.09471 1.22159e-23)
(-2.06837 1.78371 1.58906e-23)
(-1.99978 1.76221 0)
(-1.90142 2.0487 -5.45128e-23)
(-1.89494 1.98242 -1.8764e-22)
(-1.87851 1.79073 -1.1373e-22)
(-2.1303 1.68182 0)
(-2.17629 1.31757 -3.57379e-23)
(-2.52527 1.67321 -5.49753e-23)
(-2.33434 1.32589 -3.17496e-25)
(-1.41101 1.34034 4.9797e-25)
(-1.36162 1.95939 -9.93852e-24)
(-1.5391 2.27417 -1.45864e-24)
(-1.18882 2.12576 -3.25533e-23)
(-1.45738 2.40814 -2.00812e-24)
(-1.52672 1.95927 1.13116e-22)
(-1.62246 1.73646 7.81526e-23)
(-1.63167 1.81157 1.66234e-22)
(-1.80759 1.45541 6.92564e-23)
(-1.87865 1.39133 -5.53062e-23)