/*--------------------------------*- C++ -*----------------------------------*\
| =========                 |                                                 |
| \\      /  F ield         | OpenFOAM: The Open Source CFD Toolbox           |
|  \\    /   O peration     | Version:  v1606+                                |
|   \\  /    A nd           | Web:      www.OpenFOAM.com                      |
|    \\/     M anipulation  |                                                 |
\*---------------------------------------------------------------------------*/
FoamFile
{
    version     2.0;
    format      ascii;
    class       volScalarField;
    location    "0.04";
    object      nut.air;
}
// * * * * * * * * * * * * * * * * * * * * * * * * * * * * * * * * * * * * * //

dimensions      [0 2 -1 0 0 0 0];

internalField   nonuniform List<scalar> 
6000
(
0.000531871
0.00485034
0.00780448
0.00850107
0.00869766
0.00876549
0.00879605
0.00881202
0.00882172
0.00882645
0.00882946
0.00883125
0.00883295
0.00883251
0.00883277
0.00883281
0.0088325
0.00883195
0.00883095
0.00882975
0.00882608
0.00882089
0.00881201
0.00879613
0.00876546
0.00869757
0.00850117
0.00780418
0.00485083
0.000532172
0.000428886
0.00311071
0.00592473
0.0074819
0.00818058
0.00850177
0.0086649
0.00875659
0.00881202
0.00884605
0.00886783
0.00888063
0.00888784
0.00889194
0.00889391
0.00889422
0.00889234
0.00888822
0.00888061
0.00886756
0.00884593
0.00881152
0.00875641
0.00866573
0.00850237
0.00818076
0.00748161
0.00592335
0.00310909
0.000428833
0.000365248
0.00246908
0.00486502
0.00651822
0.0074727
0.00802124
0.00833585
0.00852314
0.00863881
0.00871163
0.00875806
0.00878692
0.00880406
0.00881374
0.00881819
0.00881854
0.00881441
0.00880496
0.00878769
0.00875872
0.00871229
0.00863913
0.00852356
0.00833662
0.00802207
0.00747324
0.00651798
0.00486375
0.00246737
0.000365181
0.000324423
0.00216559
0.00427866
0.00590178
0.00696725
0.0076324
0.00804295
0.00830049
0.00846567
0.00857348
0.00864429
0.0086901
0.00871863
0.00873518
0.0087428
0.00874308
0.00873583
0.00871959
0.00869111
0.00864529
0.00857443
0.00846646
0.00830126
0.00804378
0.00763311
0.00696765
0.00590172
0.00427782
0.00216375
0.000324407
0.000299782
0.0020082
0.00395677
0.00550904
0.00661645
0.00736186
0.00784945
0.00816641
0.00837381
0.008511
0.00860231
0.0086626
0.00870116
0.00872401
0.00873468
0.00873483
0.00872446
0.00870184
0.00866338
0.00860311
0.00851178
0.00837454
0.00816711
0.00785012
0.00736237
0.00661677
0.00550915
0.00395647
0.00200748
0.000299793
0.000284877
0.00194695
0.00376877
0.00525195
0.00636995
0.00717067
0.0077248
0.00810057
0.00835285
0.0085215
0.0086338
0.00870776
0.00875505
0.00878305
0.0087961
0.00879618
0.00878331
0.00875546
0.00870827
0.00863434
0.00852206
0.00835341
0.00810111
0.00772531
0.00717109
0.00637025
0.00525212
0.00376872
0.0019467
0.000284889
0.000274653
0.00191699
0.00364992
0.00507494
0.00618773
0.00702187
0.00762645
0.00805342
0.00834913
0.00855077
0.00868626
0.00877558
0.00883247
0.00886596
0.00888148
0.00888153
0.00886613
0.00883275
0.00877593
0.00868666
0.00855119
0.00834956
0.00805384
0.00762683
0.00702219
0.00618797
0.00507508
0.00364994
0.00191689
0.000274662
0.000267585
0.00189581
0.00356905
0.00495009
0.00605302
0.00690654
0.00754696
0.00801428
0.008347
0.00857866
0.00873643
0.00884113
0.00890792
0.00894716
0.00896527
0.00896531
0.00894727
0.0089081
0.00884137
0.0087367
0.00857896
0.00834731
0.00801458
0.00754723
0.00690676
0.00605318
0.00495018
0.00356906
0.00189573
0.000267593
0.000262847
0.00187863
0.00351063
0.0048601
0.00595364
0.00681878
0.00748448
0.00798253
0.00834517
0.00860237
0.00877995
0.00889886
0.00897506
0.0090199
0.00904059
0.00904061
0.00901997
0.00897517
0.00889901
0.00878012
0.00860255
0.00834536
0.00798271
0.00748464
0.00681891
0.00595373
0.00486015
0.00351062
0.00187855
0.000262853
0.000259733
0.00186454
0.00346688
0.00479402
0.00588009
0.00675255
0.00743608
0.00795705
0.00834306
0.00862101
0.00881529
0.00894655
0.00903116
0.0090811
0.00910416
0.00910417
0.00908113
0.00903121
0.00894662
0.00881537
0.0086211
0.00834315
0.00795714
0.00743616
0.00675261
0.00588014
0.00479403
0.00346686
0.00186445
0.000259737
0.000257714
0.00185338
0.0034339
0.00474515
0.00582554
0.00670259
0.00739853
0.00793617
0.00833979
0.0086339
0.00884157
0.00898299
0.00907468
0.00912899
0.00915412
0.00915412
0.00912899
0.00907468
0.008983
0.00884158
0.00863391
0.0083398
0.00793618
0.00739854
0.0067026
0.00582554
0.00474515
0.00343388
0.0018533
0.000257717
0.000256419
0.00184498
0.00340946
0.00470923
0.00578515
0.00666486
0.00736909
0.00791839
0.00833474
0.00864088
0.00885876
0.00900812
0.00910542
0.00916326
0.00919007
0.00919006
0.00916324
0.00910539
0.00900808
0.00885871
0.00864083
0.00833469
0.00791834
0.00736905
0.00666483
0.00578512
0.00470921
0.00340944
0.00184493
0.000256422
0.000255589
0.00183894
0.00339182
0.00468318
0.00575542
0.0066363
0.00734569
0.0079027
0.0083278
0.00864243
0.00886768
0.00902288
0.00912439
0.00918489
0.00921298
0.00921296
0.00918485
0.00912432
0.00902279
0.00886759
0.00864233
0.0083277
0.00790261
0.00734561
0.00663623
0.00575537
0.00468314
0.00339179
0.0018389
0.000255593
0.000255054
0.00183465
0.00337938
0.00466456
0.00573365
0.00661457
0.00732678
0.0078885
0.00831921
0.00863945
0.00886968
0.00902889
0.00913333
0.00919572
0.00922471
0.00922469
0.00919567
0.00913325
0.00902878
0.00886955
0.00863931
0.00831907
0.00788838
0.00732667
0.00661448
0.00573357
0.0046645
0.00337934
0.00183462
0.000255059
0.000254704
0.0018315
0.00337076
0.0046514
0.0057177
0.0065979
0.00731125
0.00787547
0.00830941
0.00863304
0.00886636
0.0090281
0.00913441
0.009198
0.00922757
0.00922755
0.00919794
0.0091343
0.00902797
0.00886621
0.00863288
0.00830926
0.00787534
0.00731113
0.0065978
0.00571762
0.00465132
0.0033707
0.00183147
0.000254708
0.000254467
0.0018292
0.00336487
0.00464211
0.00570596
0.00658494
0.00729829
0.00786347
0.00829896
0.00862434
0.00885932
0.00902244
0.00912977
0.00919403
0.00922392
0.0092239
0.00919396
0.00912966
0.00902229
0.00885915
0.00862417
0.00829881
0.00786335
0.00729818
0.00658485
0.00570587
0.00464203
0.0033648
0.00182916
0.00025447
0.000254285
0.00182764
0.00336084
0.0046355
0.00569717
0.00657469
0.00728733
0.00785247
0.00828836
0.00861436
0.00884998
0.00901365
0.00912138
0.00918588
0.00921589
0.00921586
0.00918581
0.00912127
0.00901351
0.00884983
0.00861421
0.00828824
0.00785238
0.00728726
0.00657462
0.0056971
0.00463542
0.00336077
0.00182759
0.000254287
0.000254137
0.00182653
0.00335801
0.00463067
0.00569044
0.00656641
0.00727796
0.00784247
0.00827805
0.00860393
0.00883953
0.00900317
0.00911085
0.0091753
0.00920526
0.00920524
0.00917522
0.00911074
0.00900304
0.00883941
0.00860383
0.00827798
0.00784243
0.00727795
0.00656638
0.0056904
0.00463061
0.00335794
0.00182647
0.000254138
0.000254002
0.00182567
0.00335593
0.004627
0.00568512
0.00655957
0.00726987
0.00783343
0.00826832
0.00859369
0.00882885
0.00899211
0.00909946
0.00916365
0.00919347
0.00919344
0.00916357
0.00909936
0.00899202
0.00882879
0.00859366
0.00826834
0.00783348
0.00726994
0.00655962
0.00568513
0.00462697
0.00335586
0.00182561
0.000254002
0.000253876
0.00182498
0.00335431
0.00462409
0.00568075
0.00655378
0.00726281
0.0078253
0.00825934
0.00858402
0.00881858
0.00898128
0.00908815
0.00915198
0.00918161
0.00918157
0.0091519
0.00908808
0.00898124
0.00881859
0.00858409
0.00825948
0.00782548
0.00726299
0.00655392
0.00568084
0.00462411
0.00335426
0.00182492
0.000253875
0.00025377
0.0018244
0.00335299
0.00462168
0.00567705
0.00654876
0.00725658
0.00781801
0.00825117
0.00857514
0.0088091
0.00897123
0.00907763
0.0091411
0.00917052
0.00917048
0.00914102
0.00907758
0.00897125
0.0088092
0.00857534
0.00825146
0.00781833
0.00725688
0.00654902
0.00567723
0.00462176
0.00335297
0.00182434
0.000253767
0.000253666
0.0018239
0.00335185
0.00461957
0.00567378
0.0065443
0.00725099
0.00781143
0.00824378
0.00856712
0.00880058
0.00896227
0.00906828
0.00913147
0.00916074
0.00916069
0.00913139
0.00906826
0.00896235
0.00880078
0.00856743
0.00824421
0.00781188
0.00725142
0.00654467
0.00567405
0.0046197
0.00335187
0.00182385
0.000253661
0.000253569
0.0018234
0.00335079
0.00461761
0.00567076
0.00654018
0.00724586
0.0078054
0.00823702
0.00855984
0.00879296
0.00895442
0.00906022
0.00912325
0.00915243
0.00915238
0.00912317
0.00906019
0.00895453
0.00879324
0.00856027
0.00823757
0.00780596
0.00724638
0.00654065
0.00567111
0.00461781
0.00335084
0.00182338
0.000253564
0.000253493
0.00182293
0.00334977
0.00461573
0.00566788
0.00653628
0.007241
0.00779972
0.00823069
0.00855308
0.00878601
0.00894745
0.00905322
0.00911622
0.00914539
0.00914534
0.00911613
0.00905319
0.00894759
0.00878635
0.00855359
0.00823132
0.00780034
0.00724159
0.00653681
0.00566828
0.00461598
0.00334986
0.00182293
0.000253486
0.000253428
0.00182252
0.00334879
0.00461391
0.00566508
0.00653249
0.00723629
0.00779422
0.00822456
0.00854651
0.0087793
0.00894086
0.00904677
0.00910988
0.0091391
0.00913908
0.00910984
0.00904683
0.00894114
0.00877977
0.00854711
0.00822522
0.00779486
0.0072369
0.00653304
0.00566551
0.0046142
0.00334892
0.00182254
0.000253421
0.000253363
0.0018221
0.00334782
0.00461212
0.00566234
0.00652876
0.00723163
0.00778875
0.00821842
0.00853986
0.00877239
0.00893405
0.00904024
0.00910352
0.00913294
0.00913299
0.00910372
0.00904056
0.00893465
0.0087731
0.00854057
0.00821908
0.00778937
0.00723222
0.00652929
0.00566275
0.00461241
0.00334797
0.00182213
0.000253356
0.000253295
0.00182161
0.00334683
0.00461035
0.00565963
0.00652507
0.00722698
0.00778322
0.00821212
0.00853291
0.00876496
0.00892641
0.00903281
0.00909649
0.00912624
0.00912649
0.00909722
0.00903391
0.00892766
0.00876607
0.0085338
0.0082128
0.0077838
0.0072275
0.00652552
0.00565999
0.00461062
0.003347
0.00182168
0.00025329
0.000253226
0.00182111
0.00334583
0.00460859
0.00565696
0.00652141
0.00722232
0.0077776
0.00820563
0.00852561
0.00875691
0.00891776
0.00902403
0.0090884
0.0091186
0.00911912
0.00908994
0.00902655
0.00892
0.00875854
0.0085267
0.00820632
0.00777812
0.00722273
0.00652175
0.00565724
0.00460883
0.00334601
0.0018212
0.000253225
0.000253158
0.00182059
0.00334483
0.00460686
0.00565432
0.00651779
0.00721768
0.00777195
0.00819902
0.00851808
0.00874848
0.00890855
0.00901458
0.00907947
0.00910994
0.00911077
0.00908168
0.00901835
0.00891168
0.00875055
0.00851932
0.0081997
0.00777239
0.00721797
0.006518
0.00565451
0.00460705
0.00334501
0.00182071
0.00025316
0.000253091
0.00182007
0.00334385
0.00460516
0.00565174
0.00651423
0.00721311
0.00776638
0.00819247
0.00851057
0.00874006
0.00889938
0.00900497
0.00906973
0.00910057
0.00910156
0.00907263
0.00900903
0.00890283
0.00874228
0.00851183
0.00819309
0.00776671
0.00721328
0.00651433
0.00565184
0.00460531
0.00334403
0.0018202
0.000253096
0.000253026
0.00181958
0.00334291
0.00460351
0.00564922
0.00651078
0.00720871
0.00776102
0.00818618
0.00850339
0.00873208
0.00889072
0.00899571
0.00905981
0.00909099
0.0090921
0.00906326
0.00899944
0.00889386
0.0087341
0.00850449
0.00818667
0.00776121
0.00720875
0.00651077
0.00564925
0.00460362
0.00334308
0.00181971
0.000253033
0.000252967
0.00181913
0.00334202
0.00460192
0.00564679
0.00650746
0.00720451
0.00775598
0.00818034
0.00849683
0.00872488
0.00888296
0.00898733
0.00905073
0.00908197
0.00908289
0.00905371
0.00899024
0.00888534
0.0087264
0.00849761
0.00818062
0.00775602
0.00720444
0.00650738
0.00564678
0.00460201
0.00334218
0.00181926
0.000252974
0.000252912
0.00181872
0.00334118
0.0046004
0.00564446
0.00650431
0.00720058
0.00775134
0.00817507
0.00849104
0.00871868
0.00887637
0.0089802
0.00904287
0.00907312
0.00907404
0.00904474
0.008982
0.00887775
0.00871951
0.00849139
0.00817509
0.00775121
0.0072004
0.00650417
0.00564443
0.00460049
0.00334134
0.00181884
0.000252919
0.000252861
0.00181835
0.0033404
0.00459895
0.00564224
0.00650133
0.00719693
0.00774711
0.0081704
0.00848607
0.00871352
0.00887105
0.00897452
0.00903655
0.00906582
0.00906626
0.00903731
0.00897509
0.00887132
0.00871356
0.00848591
0.00817012
0.00774682
0.00719667
0.00650117
0.0056422
0.00459904
0.00334055
0.00181847
0.000252868
0.000252812
0.00181799
0.00333964
0.00459753
0.0056401
0.0064985
0.00719351
0.00774326
0.00816626
0.00848181
0.00870928
0.00886687
0.00897019
0.00903181
0.00906045
0.00906043
0.00903156
0.00896956
0.00886603
0.00870853
0.00848116
0.00816571
0.00774282
0.0071932
0.00649833
0.00564007
0.00459763
0.00333979
0.00181811
0.000252818
0.000252761
0.00181764
0.00333886
0.00459612
0.00563799
0.00649577
0.00719027
0.00773967
0.00816249
0.00847806
0.00870569
0.00886346
0.00896686
0.00902828
0.00905653
0.00905613
0.00902712
0.00896514
0.00886168
0.00870426
0.008477
0.00816173
0.00773914
0.00718994
0.0064956
0.00563798
0.00459622
0.003339
0.00181775
0.000252766
0.000252705
0.00181725
0.00333803
0.00459466
0.00563586
0.00649304
0.00718708
0.00773618
0.00815888
0.00847451
0.00870234
0.00886037
0.00896398
0.00902533
0.00905332
0.00905263
0.00902344
0.00896138
0.00885789
0.00870045
0.0084732
0.00815801
0.00773562
0.00718675
0.00649289
0.00563586
0.00459475
0.00333817
0.00181735
0.000252711
0.000252644
0.00181682
0.00333712
0.0045931
0.00563364
0.00649022
0.00718381
0.00773261
0.00815515
0.00847081
0.0086988
0.00885705
0.00896092
0.00902225
0.00905007
0.00904919
0.00901987
0.00895774
0.00885421
0.00869671
0.00846942
0.00815427
0.00773205
0.00718351
0.0064901
0.00563365
0.00459319
0.00333724
0.0018169
0.00025265
0.000252578
0.00181632
0.00333611
0.00459142
0.00563128
0.00648725
0.00718035
0.00772878
0.00815108
0.00846663
0.00869463
0.00885294
0.00895691
0.00901825
0.00904599
0.00904506
0.00901571
0.00895364
0.00885013
0.00869261
0.00846531
0.00815027
0.00772826
0.00718008
0.00648717
0.0056313
0.00459151
0.00333622
0.0018164
0.000252585
0.000252508
0.00181578
0.00333501
0.00458962
0.00562876
0.00648409
0.00717663
0.00772459
0.0081465
0.00846176
0.00868953
0.00884763
0.00895143
0.00901274
0.00904041
0.00903957
0.00901037
0.00894854
0.00884519
0.00868777
0.00846059
0.0081458
0.00772413
0.00717639
0.00648403
0.0056288
0.00458971
0.00333511
0.00181586
0.000252515
0.000252437
0.00181522
0.00333385
0.00458772
0.00562611
0.00648073
0.00717263
0.00772002
0.00814141
0.00845616
0.00868345
0.00884109
0.00894447
0.00900557
0.00903303
0.00903232
0.00900349
0.00894215
0.00883909
0.008682
0.00845516
0.00814079
0.00771961
0.00717244
0.0064807
0.00562616
0.00458781
0.00333395
0.00181529
0.000252445
0.000252369
0.00181465
0.00333267
0.00458578
0.00562337
0.00647723
0.00716843
0.00771516
0.00813592
0.00845001
0.00867661
0.00883357
0.00893634
0.00899709
0.00902427
0.00902364
0.00899528
0.00893453
0.00883192
0.00867539
0.00844913
0.00813535
0.0077148
0.00716827
0.00647722
0.00562343
0.00458587
0.00333278
0.00181473
0.000252378
0.000252304
0.00181412
0.00333152
0.00458384
0.0056206
0.00647367
0.00716412
0.00771015
0.00813023
0.00844362
0.00866945
0.00882566
0.00892777
0.00898809
0.0090152
0.00901467
0.0089866
0.0089263
0.00882426
0.00866838
0.00844282
0.00812972
0.00770984
0.00716399
0.00647366
0.00562066
0.00458393
0.00333164
0.0018142
0.000252313
0.000252243
0.00181362
0.00333042
0.00458194
0.00561787
0.00647013
0.00715981
0.00770515
0.00812458
0.0084373
0.00866246
0.00881803
0.00891958
0.00897956
0.0090068
0.00900639
0.00897846
0.00891837
0.00881685
0.00866153
0.00843661
0.00812414
0.0077049
0.00715972
0.00647013
0.00561793
0.00458204
0.00333053
0.0018137
0.000252253
0.000252184
0.00181316
0.00332938
0.0045801
0.0056152
0.00646666
0.00715562
0.0077003
0.00811915
0.00843134
0.00865601
0.00881115
0.00891238
0.00897224
0.00899964
0.00899936
0.0089715
0.00891146
0.00881024
0.00865528
0.00843082
0.00811883
0.00770015
0.00715558
0.00646669
0.00561526
0.00458019
0.00332947
0.00181323
0.000252193
0.000252126
0.00181273
0.00332837
0.00457831
0.0056126
0.00646331
0.0071516
0.00769571
0.00811408
0.00842589
0.00865028
0.00880524
0.00890643
0.00896639
0.00899398
0.00899382
0.00896596
0.00890585
0.00880466
0.00864983
0.00842559
0.00811394
0.00769567
0.00715163
0.00646336
0.00561265
0.00457837
0.00332843
0.00181277
0.000252133
0.000252066
0.00181229
0.00332734
0.00457652
0.00561003
0.00646004
0.00714774
0.00769137
0.00810939
0.00842097
0.00864527
0.00880028
0.00890166
0.00896192
0.00898975
0.0089897
0.00896175
0.00890144
0.00880008
0.00864516
0.00842095
0.00810945
0.00769146
0.00714783
0.0064601
0.00561006
0.00457653
0.00332735
0.00181229
0.00025207
0.000252002
0.00181181
0.00332626
0.00457468
0.00560744
0.0064568
0.00714396
0.0076872
0.00810498
0.00841647
0.00864084
0.00879606
0.0088978
0.00895847
0.00898662
0.00898666
0.00895855
0.00889793
0.00879625
0.00864108
0.00841674
0.00810525
0.00768742
0.0071441
0.00645684
0.00560742
0.00457463
0.0033262
0.00181177
0.000252003
0.000251933
0.00181128
0.00332509
0.00457274
0.00560477
0.00645349
0.00714015
0.00768306
0.00810066
0.00841213
0.00863665
0.00879217
0.00889433
0.00895549
0.00898398
0.00898412
0.00895582
0.00889482
0.00879273
0.00863723
0.00841266
0.0081011
0.00768337
0.00714032
0.0064535
0.00560468
0.00457261
0.00332495
0.00181119
0.000251931
0.000251861
0.00181069
0.00332382
0.00457068
0.00560196
0.00645006
0.00713622
0.00767877
0.00809618
0.00840763
0.00863229
0.00878809
0.00889063
0.00895223
0.00898108
0.00898134
0.00895282
0.00889145
0.00878897
0.00863314
0.00840835
0.00809673
0.00767911
0.00713635
0.00645
0.0056018
0.00457046
0.0033236
0.00181056
0.000251855
0.000251785
0.00181006
0.00332245
0.00456849
0.00559902
0.00644646
0.0071321
0.00767424
0.00809139
0.0084027
0.00862738
0.00878332
0.0088861
0.00894794
0.00897709
0.00897742
0.00894873
0.00888711
0.0087844
0.00862836
0.00840349
0.00809191
0.00767452
0.00713213
0.00644631
0.00559876
0.00456819
0.00332216
0.00180988
0.000251777
0.000251708
0.00180939
0.00332102
0.00456622
0.00559595
0.00644271
0.00712777
0.00766944
0.0080862
0.00839722
0.00862171
0.00877757
0.00888032
0.00894209
0.00897145
0.00897178
0.00894304
0.00888132
0.00877863
0.00862261
0.00839789
0.00808657
0.00766956
0.00712767
0.00644245
0.00559561
0.00456584
0.00332068
0.00180919
0.000251699
0.000251633
0.00180871
0.00331957
0.00456389
0.0055928
0.00643883
0.00712328
0.00766442
0.00808071
0.00839129
0.00861539
0.00877088
0.00887331
0.00893474
0.00896399
0.00896423
0.00893565
0.00887406
0.00877165
0.00861595
0.00839163
0.0080808
0.00766432
0.00712303
0.00643848
0.00559239
0.00456348
0.0033192
0.00180851
0.000251625
0.00025156
0.00180805
0.00331812
0.00456156
0.00558963
0.00643491
0.00711872
0.00765929
0.00807506
0.00838516
0.00860873
0.0087637
0.0088656
0.00892655
0.00895535
0.00895545
0.00892709
0.00886589
0.00876395
0.00860881
0.00838507
0.00807484
0.00765897
0.00711833
0.00643448
0.00558919
0.00456114
0.00331777
0.00180786
0.000251553
0.000251488
0.00180741
0.00331669
0.00455925
0.00558648
0.00643101
0.00711418
0.00765419
0.00806945
0.00837907
0.00860215
0.00875658
0.00885793
0.00891842
0.00894667
0.00894662
0.00891843
0.0088577
0.00875628
0.00860175
0.00837861
0.00806896
0.0076537
0.00711369
0.00643055
0.00558605
0.00455888
0.0033164
0.00180725
0.000251483
0.000251417
0.00180677
0.00331528
0.00455696
0.00558337
0.00642718
0.00710973
0.00764922
0.00806403
0.00837324
0.00859593
0.00874996
0.0088509
0.00891102
0.00893889
0.00893873
0.00891065
0.00885029
0.00874928
0.00859523
0.00837256
0.0080634
0.00764865
0.00710923
0.00642676
0.00558301
0.00455668
0.00331507
0.00180666
0.000251414
0.000251344
0.00180614
0.00331387
0.00455468
0.00558029
0.00642342
0.00710541
0.00764444
0.00805889
0.0083678
0.00859023
0.00874404
0.00884476
0.0089047
0.00893239
0.00893219
0.00890417
0.00884402
0.00874323
0.00858945
0.00836709
0.00805826
0.00764392
0.00710499
0.0064231
0.00558005
0.00455452
0.00331375
0.00180607
0.000251344
0.000251268
0.00180548
0.00331241
0.00455238
0.00557721
0.0064197
0.00710118
0.00763984
0.00805401
0.00836275
0.00858507
0.00873881
0.00883951
0.00889944
0.00892712
0.00892693
0.00889895
0.00883886
0.00873813
0.00858443
0.00836219
0.00805355
0.00763949
0.00710093
0.00641954
0.00557711
0.00455233
0.00331238
0.00180545
0.00025127
0.000251189
0.00180478
0.0033109
0.00455001
0.00557407
0.00641594
0.00709697
0.00763531
0.0080493
0.00835795
0.00858027
0.0087341
0.0088349
0.00889496
0.00892275
0.00892262
0.00889465
0.00883453
0.00873374
0.00857998
0.00835772
0.00804914
0.00763524
0.00709696
0.00641599
0.00557413
0.00455006
0.00331093
0.00180478
0.000251192
0.000251108
0.00180404
0.00330931
0.00454755
0.00557085
0.00641211
0.00709267
0.00763072
0.00804455
0.00835317
0.00857557
0.00872954
0.00883054
0.00889081
0.00891878
0.00891874
0.00889078
0.00883058
0.00872966
0.00857576
0.00835339
0.00804481
0.007631
0.00709294
0.00641234
0.00557103
0.00454767
0.00330938
0.00180405
0.000251109
0.000251024
0.00180327
0.00330765
0.004545
0.00556753
0.00640814
0.00708822
0.00762592
0.00803958
0.00834815
0.00857059
0.0087247
0.0088259
0.00888641
0.00891458
0.00891467
0.00888673
0.00882646
0.00872539
0.00857135
0.0083489
0.0080403
0.00762657
0.00708875
0.00640853
0.00556778
0.00454515
0.00330772
0.00180327
0.000251023
0.000250941
0.00180247
0.00330595
0.00454239
0.00556411
0.00640406
0.00708359
0.00762087
0.00803423
0.00834265
0.00856504
0.00871917
0.00882048
0.00888117
0.00890952
0.00890977
0.00888189
0.00882158
0.00872047
0.00856638
0.00834396
0.00803541
0.00762185
0.00708432
0.00640456
0.0055644
0.00454253
0.00330598
0.00180244
0.000250938
0.000250859
0.00180167
0.00330425
0.00453976
0.00556065
0.00639989
0.00707882
0.00761558
0.00802852
0.00833662
0.00855877
0.00871273
0.00881394
0.00887468
0.00890312
0.00890356
0.00887579
0.00881559
0.00871462
0.00856068
0.00833845
0.00803009
0.00761681
0.00707968
0.00640043
0.00556092
0.00453984
0.00330421
0.0018016
0.000250852
0.000250779
0.00180089
0.00330257
0.00453715
0.00555719
0.00639569
0.00707398
0.00761018
0.00802258
0.0083302
0.00855192
0.0087055
0.00880642
0.00886699
0.00889546
0.00889605
0.00886851
0.00880858
0.00870793
0.00855433
0.00833243
0.00802441
0.00761154
0.0070749
0.00639622
0.0055574
0.00453714
0.00330245
0.00180078
0.000250769
0.0002507
0.00180014
0.00330095
0.00453461
0.0055538
0.00639155
0.00706918
0.00760479
0.00801664
0.0083237
0.0085449
0.00869802
0.00879855
0.00885881
0.00888725
0.00888795
0.00886068
0.00880112
0.00870085
0.00854764
0.00832614
0.00801856
0.00760617
0.00707007
0.006392
0.00555391
0.0045345
0.00330074
0.00179999
0.000250689
0.000250622
0.00179941
0.00329936
0.00453213
0.0055505
0.00638753
0.00706452
0.00759957
0.00801091
0.00831747
0.00853819
0.00869089
0.00879106
0.00885106
0.00887938
0.00888011
0.00885303
0.00879376
0.00869381
0.00854097
0.00831986
0.00801274
0.00760084
0.00706528
0.00638784
0.00555049
0.00453192
0.0032991
0.00179923
0.00025061
0.000250543
0.00179868
0.00329779
0.00452969
0.00554728
0.00638364
0.00706006
0.00759463
0.00800553
0.00831171
0.0085321
0.0086845
0.00878444
0.00884425
0.0088724
0.00887306
0.00884603
0.00878688
0.00868714
0.00853457
0.00831378
0.00800708
0.00759564
0.00706061
0.00638379
0.00554715
0.00452941
0.00329749
0.00179851
0.000250531
0.000250463
0.00179793
0.0032962
0.00452725
0.00554411
0.00637987
0.0070558
0.00758997
0.00800057
0.0083065
0.0085267
0.00867897
0.0087788
0.00883847
0.00886647
0.00886697
0.00883983
0.00878066
0.00868098
0.00852857
0.00830802
0.00800166
0.00759062
0.00705607
0.00637984
0.00554388
0.00452693
0.00329591
0.00179778
0.000250453
0.000250379
0.00179714
0.00329453
0.00452474
0.00554091
0.00637613
0.00705167
0.00758555
0.00799596
0.00830178
0.00852193
0.00867419
0.008774
0.00883361
0.00886145
0.00886174
0.0088344
0.00877508
0.00867535
0.00852298
0.00830258
0.00799646
0.00758577
0.00705165
0.00637594
0.00554062
0.00452444
0.00329428
0.00179702
0.000250372
0.000250292
0.0017963
0.00329277
0.00452212
0.00553761
0.00637234
0.00704755
0.00758124
0.00799156
0.00829737
0.00851759
0.00866993
0.0087698
0.00882939
0.00885709
0.00885713
0.00882952
0.00876998
0.0086701
0.00851769
0.00829736
0.00799143
0.00758101
0.00704727
0.00637203
0.00553731
0.00452187
0.00329259
0.00179623
0.000250287
0.000250202
0.00179538
0.00329088
0.00451935
0.00553414
0.00636839
0.00704331
0.00757686
0.00798716
0.00829305
0.00851339
0.00866588
0.00876585
0.00882545
0.00885301
0.0088528
0.00882491
0.0087651
0.00866503
0.00851252
0.00829222
0.00798643
0.00757625
0.00704283
0.00636802
0.00553389
0.00451918
0.00329079
0.00179537
0.000250199
0.000250109
0.00179441
0.00328886
0.00451642
0.00553049
0.00636423
0.00703884
0.00757225
0.00798254
0.00828851
0.008509
0.00866165
0.00876175
0.00882137
0.00884881
0.00884837
0.00882021
0.00876016
0.00865989
0.00850729
0.00828701
0.00798134
0.00757137
0.00703825
0.00636387
0.00553031
0.00451636
0.00328888
0.00179446
0.000250109
0.000250015
0.00179339
0.00328675
0.00451335
0.00552666
0.00635985
0.00703409
0.0075673
0.00797753
0.00828353
0.00850412
0.00865689
0.0087571
0.00881677
0.00884408
0.00884348
0.00881512
0.00875488
0.00865448
0.00850184
0.0082816
0.00797606
0.0075663
0.00703348
0.00635955
0.0055266
0.00451341
0.00328687
0.00179349
0.000250018
0.000249922
0.00179235
0.00328458
0.00451018
0.0055227
0.00635527
0.00702907
0.00756199
0.00797205
0.00827798
0.00849856
0.00865135
0.0087516
0.00881129
0.00883853
0.00883787
0.00880943
0.00874912
0.0086487
0.00849609
0.00827593
0.00797056
0.00756103
0.00702854
0.00635509
0.00552276
0.00451037
0.0032848
0.00179249
0.000249927
0.00024983
0.0017913
0.00328241
0.00450699
0.00551867
0.00635059
0.00702388
0.00755641
0.00796618
0.0082719
0.00849233
0.00864501
0.00874518
0.00880483
0.00883209
0.00883149
0.00880311
0.00874288
0.00864256
0.00849006
0.00827005
0.00796486
0.0075556
0.00702349
0.00635054
0.00551886
0.00450728
0.00328269
0.00179147
0.000249836
0.00024974
0.00179027
0.00328027
0.00450384
0.00551467
0.0063459
0.00701862
0.0075507
0.0079601
0.00826551
0.00848568
0.00863814
0.00873815
0.0087977
0.00882504
0.00882458
0.00879637
0.00873633
0.00863619
0.00848387
0.00826404
0.00795907
0.00755011
0.00701841
0.00634599
0.00551496
0.0045042
0.00328059
0.00179045
0.000249747
0.000249652
0.00178928
0.00327821
0.00450079
0.00551078
0.0063413
0.00701344
0.00754503
0.00795402
0.00825908
0.00847893
0.00863115
0.00873096
0.00879043
0.00881785
0.00881754
0.00878953
0.0087297
0.00862977
0.00847766
0.00825805
0.00795332
0.00754469
0.00701341
0.00634151
0.00551114
0.00450119
0.00327856
0.00178947
0.000249659
0.000249566
0.00178833
0.00327625
0.00449788
0.00550705
0.00633688
0.00700844
0.00753954
0.00794811
0.00825282
0.00847238
0.00862435
0.008724
0.0087834
0.00881088
0.00881069
0.00878287
0.00872324
0.00862352
0.00847161
0.00825223
0.00794775
0.00753944
0.00700858
0.00633719
0.00550746
0.0044983
0.0032766
0.00178852
0.000249573
0.000249481
0.00178744
0.0032744
0.00449513
0.00550353
0.0063327
0.00700371
0.00753434
0.00794252
0.00824691
0.00846621
0.00861798
0.0087175
0.00877684
0.00880436
0.00880427
0.00877659
0.00871713
0.00861759
0.00846587
0.0082467
0.00794247
0.00753447
0.00700399
0.00633309
0.00550397
0.00449556
0.00327473
0.00178761
0.000249487
0.000249397
0.00178659
0.00327266
0.00449256
0.00550022
0.00632879
0.00699929
0.00752951
0.00793734
0.00824146
0.00846055
0.00861217
0.00871159
0.0087709
0.00879844
0.00879842
0.00877085
0.00871152
0.00861211
0.00846055
0.00824155
0.00793754
0.00752981
0.00699968
0.00632923
0.00550068
0.00449297
0.00327298
0.00178675
0.000249403
0.000249315
0.00178579
0.00327104
0.00449015
0.00549715
0.00632515
0.0069952
0.00752506
0.00793262
0.00823653
0.00845546
0.00860698
0.00870635
0.00876564
0.0087932
0.00879323
0.00876572
0.00870647
0.00860716
0.00845571
0.00823684
0.007933
0.0075255
0.00699568
0.00632564
0.00549761
0.00449055
0.00327133
0.00178594
0.00024932
0.000249232
0.00178507
0.00326954
0.00448793
0.0054943
0.00632179
0.00699145
0.00752101
0.00792835
0.00823212
0.00845097
0.00860243
0.00870178
0.00876108
0.00878865
0.0087887
0.00876124
0.00870202
0.00860276
0.00845136
0.00823257
0.00792885
0.00752153
0.00699198
0.00632229
0.00549475
0.00448829
0.00326979
0.00178519
0.000249237
0.000249156
0.00178441
0.00326819
0.00448591
0.0054917
0.00631872
0.00698802
0.00751734
0.00792453
0.00822822
0.00844704
0.00859852
0.00869788
0.00875721
0.00878479
0.00878486
0.00875739
0.00869817
0.0085989
0.00844751
0.00822874
0.00792509
0.00751791
0.00698857
0.00631921
0.0054921
0.00448622
0.0032684
0.00178451
0.000249158
0.000249081
0.00178386
0.00326703
0.00448411
0.00548935
0.00631594
0.00698493
0.00751406
0.00792116
0.00822483
0.00844368
0.00859521
0.00869464
0.00875401
0.00878162
0.00878168
0.00875418
0.00869492
0.00859559
0.00844415
0.00822536
0.00792172
0.00751461
0.00698545
0.00631638
0.00548969
0.00448435
0.00326718
0.00178393
0.000249083
0.000249011
0.00178346
0.0032661
0.0044826
0.00548731
0.00631349
0.00698221
0.00751118
0.00791824
0.00822195
0.0084409
0.00859254
0.00869206
0.00875151
0.00877914
0.00877919
0.00875164
0.0086923
0.00859286
0.00844131
0.00822243
0.00791875
0.00751167
0.00698263
0.00631383
0.00548755
0.00448275
0.00326618
0.00178349
0.000249011
0.000248958
0.00178323
0.00326548
0.00448143
0.00548564
0.00631142
0.00697988
0.00750875
0.00791583
0.00821964
0.00843874
0.00859055
0.00869022
0.00874977
0.00877745
0.00877747
0.00874985
0.00869038
0.00859079
0.00843906
0.00822002
0.00791622
0.00750912
0.00698018
0.00631163
0.00548576
0.0044815
0.00326549
0.00178323
0.000248956
0.000248908
0.00178326
0.00326525
0.00448071
0.0054844
0.00630979
0.00697803
0.00750685
0.00791401
0.00821801
0.00843734
0.00858938
0.00868925
0.00874894
0.00877668
0.00877668
0.00874896
0.00868932
0.00858951
0.00843753
0.00821824
0.00791425
0.00750706
0.00697819
0.00630988
0.00548443
0.00448069
0.00326521
0.00178323
0.000248908
0.000248877
0.00178363
0.00326556
0.00448056
0.00548373
0.00630873
0.00697679
0.00750562
0.00791296
0.00821724
0.00843692
0.00858928
0.00868941
0.00874928
0.0087771
0.00877709
0.00874925
0.0086894
0.0085893
0.00843697
0.00821733
0.00791305
0.00750569
0.00697682
0.00630872
0.00548368
0.00448049
0.00326548
0.00178359
0.000248876
0.000248884
0.00178449
0.00326664
0.00448122
0.00548384
0.00630845
0.00697639
0.00750534
0.00791299
0.00821768
0.00843768
0.00859035
0.00869076
0.00875083
0.00877875
0.00877873
0.00875078
0.0086907