/*--------------------------------*- C++ -*----------------------------------*\
| =========                 |                                                 |
| \\      /  F ield         | OpenFOAM: The Open Source CFD Toolbox           |
|  \\    /   O peration     | Version:  v1606+                                |
|   \\  /    A nd           | Web:      www.OpenFOAM.com                      |
|    \\/     M anipulation  |                                                 |
\*---------------------------------------------------------------------------*/
FoamFile
{
    version     2.0;
    format      ascii;
    class       surfaceScalarField;
    location    "1.24";
    object      phi.air;
}
// * * * * * * * * * * * * * * * * * * * * * * * * * * * * * * * * * * * * * //

dimensions      [0 3 -1 0 0 0 0];

internalField   nonuniform List<scalar> 
11770
(
-2.14075e-06
8.687e-05
3.52819e-07
8.5855e-05
-1.99864e-06
9.27891e-05
-5.62088e-06
9.63665e-05
-6.51425e-06
9.57771e-05
-5.24879e-06
9.35553e-05
-1.24721e-06
9.17754e-05
1.69086e-06
9.34914e-05
2.81531e-06
9.46704e-05
3.77355e-06
9.4218e-05
5.20417e-06
9.34883e-05
5.56714e-06
9.47028e-05
4.38347e-06
9.72384e-05
2.25411e-06
9.96806e-05
-2.0339e-07
0.00010115
-2.34593e-06
0.00010105
-3.8182e-06
0.000100138
-4.26988e-06
9.9087e-05
-3.56496e-06
9.80285e-05
-1.43448e-06
9.64842e-05
2.13834e-06
9.47889e-05
4.51053e-06
9.51952e-05
2.71178e-06
9.85675e-05
-7.20538e-07
9.94154e-05
-6.7862e-06
9.89906e-05
-1.40193e-05
9.63752e-05
-1.61101e-05
8.85633e-05
-1.27647e-05
8.15862e-05
-4.49842e-06
7.65013e-05
7.80085e-05
1.26037e-05
6.79769e-05
2.03678e-05
6.87582e-05
2.18091e-05
7.9331e-05
1.52228e-05
8.93596e-05
5.80258e-06
9.17807e-05
2.83593e-06
8.57693e-05
1.52552e-06
8.31232e-05
8.25302e-08
8.51964e-05
-4.82141e-07
8.59873e-05
8.89385e-07
8.42569e-05
4.1146e-06
8.29112e-05
6.21501e-06
8.55714e-05
4.72185e-06
9.0513e-05
1.18402e-06
9.34822e-05
-2.88335e-06
9.45064e-05
-5.50845e-06
9.31071e-05
-5.74142e-06
9.04987e-05
-5.18706e-06
8.8788e-05
-5.08204e-06
8.77838e-05
-4.1948e-06
8.57217e-05
-2.7452e-06
8.3776e-05
-5.05976e-06
8.66757e-05
-1.32081e-05
9.3318e-05
-2.49479e-05
9.58135e-05
-3.65728e-05
9.56342e-05
-4.18291e-05
8.93524e-05
-3.9267e-05
7.63019e-05
-2.99669e-05
6.3727e-05
-1.49001e-05
5.36502e-05
5.55941e-05
1.22881e-05
5.73891e-05
2.64154e-05
5.71577e-05
3.60662e-05
7.10305e-05
3.3647e-05
9.14088e-05
2.11844e-05
0.000103815
1.29586e-05
9.81751e-05
9.1817e-06
9.41475e-05
3.02014e-06
9.73376e-05
-4.58577e-07
9.45689e-05
1.24672e-06
8.74997e-05
3.93081e-06
8.33167e-05
5.126e-06
8.46582e-05
3.21269e-06
8.94196e-05
4.51143e-08
9.16247e-05
-3.63834e-06
9.17914e-05
-6.65675e-06
8.96316e-05
-8.05221e-06
8.64247e-05
-8.48439e-06
8.49055e-05
-8.99001e-06
8.52887e-05
-9.75086e-06
8.50443e-05
-1.10181e-05
8.51661e-05
-1.68115e-05
9.1663e-05
-2.966e-05
0.000102094
-4.50301e-05
0.000105745
-5.33732e-05
9.96575e-05
-5.19058e-05
8.59504e-05
-4.4769e-05
6.90019e-05
-3.09833e-05
5.22664e-05
-1.31788e-05
4.14193e-05
4.60075e-05
1.15996e-05
4.64165e-05
2.58009e-05
4.46422e-05
4.20014e-05
5.45343e-05
5.25909e-05
7.81127e-05
4.8665e-05
0.00010339
3.12808e-05
0.00010915
1.75831e-05
0.000100631
6.19596e-06
9.85468e-05
-1.79553e-06
9.20857e-05
-5.20333e-06
8.16108e-05
-4.60521e-06
7.37769e-05
-2.76743e-06
7.33387e-05
-2.4067e-06
7.9014e-05
-3.41026e-06
8.27261e-05
-3.86179e-06
8.30113e-05
-4.97771e-06
8.16317e-05
-7.20137e-06
7.93773e-05
-9.13565e-06
7.76401e-05
-1.12941e-05
7.7831e-05
-1.58213e-05
7.9386e-05
-2.37587e-05
8.33679e-05
-3.45785e-05
9.38939e-05
-4.66227e-05
0.000106404
-5.79366e-05
0.000109861
-5.73428e-05
9.40059e-05
-4.81954e-05
7.28995e-05
-3.4006e-05
5.26763e-05
-1.9399e-05
3.80672e-05
-9.3214e-06
3.38384e-05
3.86536e-05
7.44506e-06
3.98575e-05
1.61089e-05
3.7279e-05
3.14345e-05
4.16135e-05
5.37822e-05
5.6656e-05
6.33612e-05
8.92303e-05
4.70569e-05
0.000114876
2.67726e-05
0.000109576
1.22648e-05
0.000102942
-1.77159e-07
9.48144e-05
-9.86035e-06
8.21296e-05
-1.14388e-05
6.89697e-05
-8.30841e-06
6.58733e-05
-4.77473e-06
7.17096e-05
-3.27685e-06
7.73082e-05
-2.07005e-06
7.8395e-05
-2.18938e-06
7.85967e-05
-4.35383e-06
7.8291e-05
-7.63902e-06
7.78671e-05
-1.12203e-05
7.84175e-05
-1.65737e-05
8.12047e-05
-2.64727e-05
8.88595e-05
-3.64897e-05
0.000100174
-4.51675e-05
0.000111875
-5.34622e-05
0.000114049
-4.63027e-05
8.44672e-05
-2.91669e-05
5.52494e-05
-1.35092e-05
3.90316e-05
-5.50524e-06
3.33787e-05
-4.09581e-06
3.33568e-05
3.69712e-05
4.20316e-06
3.58563e-05
7.35825e-06
3.38863e-05
1.51342e-05
3.4349e-05
3.43602e-05
3.91452e-05
5.04723e-05
7.00374e-05
4.09421e-05
0.000117111
2.33485e-05
0.000122451
9.74586e-06
0.000113392
-2.55785e-06
0.000103355
-9.97461e-06
8.60725e-05
-1.08825e-05
6.77661e-05
-8.14326e-06
6.1802e-05
-3.29099e-06
6.58632e-05
-3.95045e-08
7.28764e-05
7.0278e-07
7.60679e-05
6.38136e-08
7.75195e-05
-1.31858e-06
7.80588e-05
-3.77378e-06
7.86452e-05
-6.46714e-06
7.98327e-05
-9.51035e-06
8.3584e-05
-1.61394e-05
9.43971e-05
-2.36691e-05
0.000106658
-3.21688e-05
0.000118669
-3.81031e-05
0.000116772
-2.45656e-05
6.97453e-05
-7.85699e-06
4.07844e-05
3.04697e-07
3.45914e-05
4.09587e-07
3.35181e-05
-1.07525e-06
3.44682e-05
3.61625e-05
1.26056e-06
3.40863e-05
1.34128e-06
3.32327e-05
2.90878e-06
3.25713e-05
1.12795e-05
3.21697e-05
2.82607e-05
5.33037e-05
2.78378e-05
0.000115056
1.4097e-05
0.000133927
9.17429e-07
0.00012503
-7.86141e-06
0.000110846
-7.8114e-06
8.62595e-05
-6.97895e-06
6.69035e-05
-5.52826e-06
6.03954e-05
-2.20196e-06
6.33603e-05
8.5451e-07
7.09063e-05
1.70095e-06
7.58594e-05
1.12534e-06
7.84402e-05
2.42071e-08
7.9475e-05
-1.78783e-06
8.06787e-05
-2.78637e-06
8.08791e-05
-1.02564e-06
8.17855e-05
-1.19741e-06
9.36213e-05
-7.4858e-06
0.000110829
-1.62072e-05
0.000125066
-1.72442e-05
0.000116131
-3.32087e-06
5.84719e-05
5.28667e-06
3.59129e-05
6.022e-06
3.44786e-05
3.66096e-06
3.5434e-05
1.2785e-06
3.65664e-05
3.74361e-05
-1.25743e-06
3.49163e-05
-3.25854e-06
3.47811e-05
-5.17348e-06
3.40391e-05
-4.49625e-06
3.19973e-05
9.73173e-06
4.22585e-05
1.59819e-05
0.000109806
3.96538e-06
0.000143118
-9.15862e-06
0.000135696
-9.71906e-06
0.00011184
-3.14751e-06
8.20201e-05
-2.0072e-06
6.73228e-05
-2.06463e-06
6.20415e-05
-1.26438e-06
6.45957e-05
1.8381e-07
7.18114e-05
1.29962e-06
7.71914e-05
1.73991e-06
8.03452e-05
1.51957e-06
8.19103e-05
4.98877e-07
8.36744e-05
4.29314e-07
8.32326e-05
4.6982e-06
8.06503e-05
1.2284e-05
8.78987e-05
1.02634e-05
0.000111321
3.70266e-06
0.000129644
6.69233e-06
0.000115461
1.045e-05
5.89825e-05
1.16295e-05
3.63091e-05
9.36666e-06
3.62698e-05
6.28577e-06
3.829e-05
3.05652e-06
4.00669e-05
4.12622e-05
-3.67921e-06
3.90939e-05
-7.89406e-06
3.89184e-05
-1.19805e-05
3.78521e-05
-1.4846e-05
3.52542e-05
-7.64761e-06
4.05988e-05
-8.77692e-07
0.000106619
-6.82046e-06
0.000147648
-1.24357e-05
0.000140011
-4.1456e-06
0.000107247
1.42504e-06
7.98912e-05
7.9397e-07
6.92223e-05
-1.35524e-06
6.51045e-05
-2.40494e-06
6.67338e-05
-1.56956e-06
7.29623e-05
-1.98894e-07
7.84942e-05
1.18224e-06
8.17708e-05
1.69908e-06
8.38215e-05
1.56039e-06
8.60508e-05
2.14036e-06
8.51271e-05
6.02528e-06
8.09021e-05
1.73332e-05
8.30056e-05
2.41706e-05
0.000107519
2.69788e-05
0.000128409
3.1711e-05
0.000116511
2.21411e-05
7.2712e-05
1.69005e-05
4.37247e-05
1.28043e-05
4.01893e-05
9.04574e-06
4.22996e-05
5.20024e-06
4.50259e-05
4.82417e-05
-6.65691e-06
4.79786e-05
-1.27737e-05
4.56663e-05
-1.81033e-05
4.29715e-05
-2.34967e-05
4.08686e-05
-2.59738e-05
5.11491e-05
-2.29237e-05
0.000110363
-1.50179e-05
0.000143971
-4.51255e-06
0.000133908
6.69888e-06
0.000100827
7.64311e-06
8.03963e-05
4.59191e-06
7.27489e-05
3.80036e-07
6.9301e-05
-2.07779e-06
6.94473e-05
-1.82246e-06
7.37364e-05
-1.24441e-06
7.93993e-05
-5.48588e-07
8.2794e-05
4.68523e-07
8.44469e-05
2.40758e-06
8.59115e-05
4.38402e-06
8.53655e-05
6.16723e-06
8.31829e-05
1.18164e-05
8.71429e-05
2.39317e-05
0.000105739
3.89647e-05
0.000121766
4.6883e-05
0.000116501
3.30573e-05
8.98082e-05
2.1609e-05
5.79166e-05
1.58251e-05
4.64797e-05
1.23725e-05
4.69771e-05
9.1635e-06
5.05843e-05
5.98971e-05
-1.27825e-05
6.43793e-05
-1.89061e-05
5.27535e-05
-2.36618e-05
4.76965e-05
-3.07854e-05
4.86414e-05
-4.29266e-05
7.06992e-05
-3.81721e-05
0.000115102
-1.55674e-05
0.000131586
7.4419e-06
0.000120535
1.58072e-05
9.75722e-05
1.32197e-05
8.46638e-05
8.09246e-06
7.82903e-05
3.21203e-06
7.39507e-05
4.07787e-07
7.19513e-05
-1.2966e-07
7.44374e-05
-1.2617e-06
8.06006e-05
-1.03219e-06
8.28153e-05
2.46913e-06
8.21022e-05
8.27421e-06
8.22509e-05
1.16071e-05
8.55238e-05
9.86966e-06
9.13797e-05
4.39504e-06
0.000103017
1.21965e-05
0.000116652
2.88822e-05
0.000121581
4.2318e-05
0.000111173
3.79093e-05
9.59521e-05
2.47934e-05
7.1438e-05
1.8037e-05
5.38153e-05
1.64094e-05
5.09334e-05
1.07377e-05
5.82354e-05
7.41963e-05
-1.75105e-05
8.10394e-05
-2.3661e-05
6.43717e-05
-2.70934e-05
5.17016e-05
-3.43022e-05
5.73214e-05
-4.96098e-05
8.78981e-05
-3.56896e-05
0.000110283
-7.56911e-06
0.000114929
1.46645e-05
0.000109883
1.91124e-05
0.00010007
1.43299e-05
9.28104e-05
8.10704e-06
8.63438e-05
3.1517e-06
8.017e-05
1.07911e-06
7.45782e-05
1.37792e-06
7.4461e-05
6.40608e-07
8.11062e-05
3.17725e-06
8.05411e-05
9.43957e-06
7.70459e-05
1.59622e-05
7.93489e-05
1.8063e-05
8.81275e-05
1.3016e-05
0.000100147
-4.72262e-07
0.000120286
-3.49631e-07
0.000126319
1.04642e-05
0.000125385
2.29077e-05
0.000109677
3.131e-05
9.0523e-05
2.65728e-05
7.28468e-05
2.11071e-05
5.88301e-05
1.69737e-05
5.77669e-05
9.81422e-07
7.64653e-05
7.5531e-05
-2.43636e-06
7.97323e-05
-2.01051e-05
8.11908e-05
-2.69789e-05
6.62033e-05
-3.29402e-05
6.5926e-05
-3.84455e-05
8.95037e-05
-1.81016e-05
9.49209e-05
3.88153e-06
0.000102274
1.73491e-05
0.000106197
1.81331e-05
0.000105459
1.29622e-05
0.000101519
6.89296e-06
9.54719e-05
1.00867e-06
8.90246e-05
-1.37594e-06
7.98849e-05
2.9292e-07
7.48048e-05
3.98213e-06
7.82276e-05
9.72257e-06
7.58618e-05
1.6798e-05
7.22699e-05
2.13099e-05
7.69251e-05
2.2638e-05
8.85833e-05
1.68809e-05
0.000106632
-9.62065e-07
0.000134648
-7.37857e-06
0.00013204
-3.72506e-06
0.000125769
4.91704e-06
0.000107307
1.64172e-05
8.47166e-05
2.40477e-05
6.4399e-05
2.1463e-05
5.93052e-05
7.54746e-06
7.26054e-05
-9.94512e-06
8.77137e-05
6.42247e-05
1.18474e-05
6.80143e-05
-3.82162e-06
8.90338e-05
-2.30455e-05
8.17099e-05
-3.03725e-05
7.21516e-05
-1.74953e-05
7.51386e-05
-3.6913e-07
8.15631e-05
1.20751e-05
9.36386e-05
1.81908e-05
0.000103118
1.73297e-05
0.000108573
1.39989e-05
0.000106986
8.65347e-06
0.000102765
-1.75933e-07
9.98223e-05
-3.99279e-06
8.63563e-05
-1.96424e-06
7.55622e-05
6.12183e-06
7.26256e-05
1.38201e-05
6.92148e-05
1.98304e-05
6.73986e-05
2.47218e-05
7.38196e-05
2.77273e-05
8.83929e-05
1.48722e-05
0.000117366
-2.53996e-06
0.000144234
-8.22463e-06
0.000132683
-1.04108e-05
0.000125114
-4.87329e-06
0.000105224
4.93254e-06
7.88616e-05
1.35401e-05
5.77372e-05
7.70078e-06
6.82528e-05
-7.27426e-06
8.19144e-05
-8.90978e-06
8.37947e-05
5.37804e-05
9.48097e-06
5.84447e-05
6.42231e-06
8.82784e-05
-7.42221e-06
8.85536e-05
-2.04904e-05
7.91238e-05
-2.23006e-06
5.83328e-05
1.15603e-05
6.91955e-05
1.99226e-05
8.69927e-05
2.11887e-05
0.000102002
2.0097e-05
0.000109953
1.9577e-05
0.000108432
1.59689e-05
0.000107426
-1.25458e-06
0.000115398
-7.86624e-06
9.45957e-05
-4.21345e-06
7.4409e-05
5.54414e-06
6.453e-05
1.43582e-05
6.07203e-05
2.14773e-05
6.09936e-05
3.09596e-05
6.76095e-05
3.37011e-05
8.5126e-05
9.97586e-06
0.000134202
-2.17688e-06
0.000150384
-4.98511e-06
0.000131998
-1.17244e-05
0.000127377
-1.76614e-05
0.000111314
-1.55747e-05
8.21677e-05
-1.45807e-05
6.97852e-05
-2.12808e-05
7.63385e-05
-1.67534e-05
7.47792e-05
-6.49052e-06
7.15752e-05
4.59586e-05
4.15647e-06
5.2973e-05
7.12077e-06
8.29781e-05
9.32468e-06
8.43928e-05
2.2497e-06
8.32155e-05
1.27582e-05
5.41819e-05
2.6107e-05
5.9824e-05
3.12561e-05
8.55955e-05
2.55289e-05
0.000106977
2.41864e-05
0.000110304
2.81895e-05
0.000104432
2.71185e-05
0.000106522
-1.94373e-06
0.000136989
-1.65533e-05
0.000108946
-8.5878e-06
6.73091e-05
3.6858e-06
5.35184e-05
1.40037e-05
5.0579e-05
2.47823e-05
5.14707e-05
3.65451e-05
5.42026e-05
4.88121e-05
7.00434e-05
2.20806e-05
0.00014081
4.04919e-06
0.000156621
-1.17519e-05
0.000138342
-3.41381e-05
0.000138451
-6.13983e-05
0.000124271
-6.83198e-05
9.13905e-05
-6.21246e-05
7.096e-05
-4.44881e-05
6.08396e-05
-2.27783e-05
5.53817e-05
-5.60875e-06
5.53186e-05
4.05047e-05
6.52876e-07
5.1658e-05
9.15381e-06
7.44055e-05
2.05753e-05
7.40395e-05
3.00317e-05
7.71506e-05
3.31905e-05
6.22723e-05
4.48667e-05
6.18577e-05
4.33035e-05
8.9443e-05
2.83758e-05
0.000115736
2.67372e-05
0.000109649
3.01788e-05
0.00010105
1.8183e-05
0.00011442
-1.60677e-05
0.000152053
-3.44255e-05
0.000109787
-1.28058e-05
4.79983e-05
2.19264e-06
4.05016e-05
1.37648e-05
4.04696e-05
2.32644e-05
4.19153e-05
3.3027e-05
4.06823e-05
4.26335e-05
5.81318e-05
2.61996e-05
0.000144774
4.09452e-06
0.000165253
-2.55976e-05
0.000153934
-6.05047e-05
0.000157025
-8.97016e-05
0.000135437
-8.6281e-05
7.89765e-05
-6.61233e-05
5.00818e-05
-4.12269e-05
4.16801e-05
-2.05868e-05
4.04327e-05
-2.90467e-06
4.232e-05
3.9442e-05
1.45227e-07
5.28305e-05
1.34009e-05
6.58335e-05
2.91928e-05
6.5049e-05
4.70681e-05
6.83253e-05
5.10148e-05
6.79939e-05
5.80739e-05
6.57154e-05
5.07393e-05
8.60555e-05
3.0368e-05
0.000115176
2.0698e-05
0.00010824
8.16279e-06
0.000105328
-1.8869e-05
0.000129479
-3.72535e-05
0.000156505
-4.26168e-05
0.000100965
-1.33136e-05
2.13752e-05
2.87261e-06
2.38325e-05
1.33801e-05
3.1207e-05
1.54653e-05
3.7237e-05
1.60313e-05
4.02452e-05
6.46122e-06
7.28869e-05
8.1786e-07
0.000151451
-8.42495e-06
0.000172248
-2.40128e-05
0.000166881
-4.13747e-05
0.000170063
-5.21714e-05
0.000139691
-4.75978e-05
7.14348e-05
-3.78993e-05
4.2604e-05
-2.999e-05
3.87815e-05
-1.86529e-05
3.39439e-05
-3.45421e-06
3.08953e-05
3.77749e-05
3.98543e-06
5.18607e-05
1.94073e-05
5.5916e-05
3.2723e-05
5.92287e-05
4.58568e-05
6.26618e-05
5.13329e-05
6.80528e-05
3.9417e-05
7.03574e-05
2.69065e-05
8.10348e-05
1.31761e-05
0.000112025
-3.08513e-06
0.000112228
-2.49432e-05
0.000116534
-3.801e-05
0.000133938
-3.28001e-05
0.000147884
-2.14479e-05
8.99046e-05
-3.32344e-06
1.06859e-05
6.41804e-06
1.5842e-05
1.31011e-05
2.25705e-05
1.07573e-05
3.58957e-05
-4.15039e-06
5.99952e-05
-3.19216e-05
9.28678e-05
-2.75876e-05
0.000143723
-1.97024e-05
0.000162994
-1.31492e-05
0.00016107
-7.34694e-06
0.000165699
-1.57087e-06
0.000134831
-1.00035e-05
7.91286e-05
-2.32073e-05
5.54573e-05
-2.967e-05
4.63848e-05
-2.24261e-05
3.09027e-05
-8.77673e-06
2.02161e-05
2.96516e-05
1.11492e-05
4.19035e-05
2.80021e-05
4.13725e-05
3.84816e-05
5.46252e-05
3.73002e-05
6.42529e-05
2.42508e-05
6.77762e-05
-2.89231e-07
7.35952e-05
-1.43324e-05
8.38547e-05
-1.16172e-05
0.000106689
-1.76812e-05
0.000116206
-2.39566e-05
0.000121004
-2.02801e-05
0.00013058
-8.40457e-06
0.000138233
1.28766e-06
8.53329e-05
-2.36373e-06
2.18567e-05
3.87843e-06
1.07883e-05
1.05966e-05
1.51754e-05
8.58963e-06
3.73373e-05
-1.71663e-05
6.99078e-05
-3.78328e-05
9.72196e-05
-3.03167e-05
0.000125583
-1.58518e-05
0.000140123
-2.05755e-06
0.000139673
1.64792e-05
0.000140396
2.77629e-05
0.000115318
9.68936e-06
8.09975e-05
-1.26464e-05
6.14988e-05
-2.66958e-05
4.80019e-05
-3.07473e-05
3.04005e-05
-1.56357e-05
8.00033e-06
1.33031e-05
2.15359e-05
2.26452e-05
3.30556e-05
3.05315e-05
2.89882e-05
4.84632e-05
2.5375e-05
4.83462e-05
9.55037e-06
6.22356e-05
-8.79134e-06
7.84042e-05
-2.1578e-05
8.78628e-05
-1.50049e-05
9.86338e-05
-1.19433e-05
0.000111852
-8.89747e-06
0.000117043
-3.01204e-06
0.000124079
1.26291e-05
0.000121865
8.82217e-06
8.17171e-05
-9.75069e-06
3.27666e-05
2.31945e-06
7.57833e-06
1.03188e-05
9.28882e-06
-2.4534e-06
4.07149e-05
-1.77724e-05
7.59761e-05
-2.44066e-05
9.74447e-05
-1.88159e-05
0.000112634
-6.77338e-06
0.00012058
4.24363e-06
0.000120053
1.97696e-05
0.000115597
2.46334e-05
9.91615e-05
1.12057e-05
8.14593e-05
-8.56224e-06
6.72693e-05
-2.59898e-05
4.78134e-05
-3.39555e-05
2.1317e-05
-1.9773e-05
-1.03262e-05
-8.39064e-06
2.53378e-05
-2.40384e-06
2.67159e-05
1.99084e-05
1.85756e-05
3.81234e-05
1.00073e-05
4.44525e-05
1.02171e-05
5.58002e-05
9.96678e-06
7.53166e-05
2.80671e-06
8.95884e-05
-7.53637e-07
9.43963e-05
-1.35367e-06
0.000104401
-2.63457e-06
0.000110703
-4.10051e-07
0.000114257
4.7672e-06
0.000107267
-3.11345e-06
7.85053e-05
-9.49843e-06
3.22607e-05
-3.58433e-06
2.79341e-06
-1.51902e-06
7.58951e-06
-8.82824e-06
4.45388e-05
-1.2883e-05
7.87426e-05
-1.31001e-05
9.62999e-05
-8.59659e-06
0.000105828
-1.03016e-06
0.000110056
6.24512e-06
0.000109209
1.28616e-05
0.000104879
1.24428e-05
9.53984e-05
5.78175e-06
8.50733e-05
-3.77851e-06
7.35525e-05
-1.24003e-05
5.1722e-05
-1.98979e-05
1.95241e-05
-1.66199e-05
-1.9428e-05
-2.45134e-05
1.3485e-05
-1.73322e-05
8.31071e-06
1.55881e-05
6.88251e-06
3.47112e-05
8.85286e-06
4.11891e-05
1.61756e-05
4.8359e-05
2.4853e-05
6.6147e-05
2.66464e-05
8.5489e-05
1.80643e-05
9.66994e-05
9.50376e-06
0.000105744
2.69539e-06
0.000110307
-1.77019e-06
0.000111532
-6.4823e-06
0.000104527
-1.12672e-05
7.77152e-05
-8.78364e-06
2.80568e-05
-6.03871e-06
-9.724e-07
-7.945e-06
8.74376e-06
-9.50652e-06
4.59838e-05
-9.02024e-06
7.82549e-05
-8.10801e-06
9.47982e-05
-5.11652e-06
0.000102187
-9.16895e-07
0.000105082
2.93062e-06
0.000104506
5.45912e-06
0.000101362
4.49475e-06
9.5412e-05
8.77181e-07
8.80269e-05
-2.72136e-06
7.66434e-05
-3.63896e-06
5.21969e-05
-5.40286e-06
1.9361e-05
-9.73883e-06
-1.76716e-05
-3.10253e-05
-7.644e-07
-1.70895e-05
1.03383e-06
1.25223e-05
4.17747e-06
3.17258e-05
8.16351e-06
3.78714e-05
1.43879e-05
4.27263e-05
2.3569e-05
5.73465e-05
2.8964e-05
7.93673e-05
2.48589e-05
9.87477e-05
1.65109e-05
0.000111703
7.94069e-06
0.000116535
5.84493e-07
0.000116507
-5.49735e-06
0.000108185
-8.35591e-06
7.86775e-05
-7.54171e-06
2.67242e-05
-5.22485e-06
-1.74075e-06
-8.58543e-06
1.15494e-05
-9.14221e-06
4.61832e-05
-6.76803e-06
7.60447e-05
-5.27465e-06
9.29161e-05
-3.6292e-06
0.000100002
-1.71089e-06
0.000102599
-2.35126e-07
0.000102421
3.03366e-07
0.000100194
-7.88374e-07
9.5864e-05
-2.67616e-06
8.91995e-05
-1.62529e-06
7.54439e-05
1.728e-06
4.90528e-05
1.29286e-06
1.96935e-05
-1.21953e-06
-1.61265e-05
-3.10291e-05
-3.0965e-06
-1.42324e-05
7.2596e-08
1.04427e-05
1.12692e-06
3.12765e-05
3.55721e-06
3.59537e-05
7.27544e-06
3.92974e-05
1.48286e-05
5.02509e-05
2.27066e-05
7.2061e-05
2.38695e-05
9.75598e-05
1.87087e-05
0.000116358
1.09364e-05
0.000123694
3.58359e-06
0.000123259
-1.33662e-06
0.000112594
-2.69352e-06
7.98163e-05
-4.08883e-06
2.78568e-05
-4.55725e-06
-5.91544e-07
-8.26981e-06
1.4666e-05
-9.09882e-06
4.67616e-05
-6.58751e-06
7.37685e-05
-4.27267e-06
9.05368e-05
-3.03593e-06
9.83219e-05
-2.43454e-06
0.000101407
-2.36566e-06
0.000101729
-2.87227e-06
0.000100052
-3.76822e-06
9.6113e-05
-3.37161e-06
8.84355e-05
8.61374e-07
7.16398e-05
4.93586e-06
4.53248e-05
4.27417e-06
1.99756e-05
2.65433e-06
-1.52154e-05
-2.75291e-05
-4.42081e-06
-9.51547e-06
-2.32275e-06
8.52387e-06
-6.41779e-07
3.0321e-05
-1.0999e-06
3.68723e-05
5.86685e-07
3.79343e-05
5.74151e-06
4.58397e-05
1.40014e-05
6.49704e-05
1.9566e-05
9.28359e-05
1.83578e-05
0.000117688
1.20429e-05
0.000129602
5.31589e-06
0.000129502
2.26922e-06
0.00011566
3.23611e-06
7.97097e-05
1.47355e-06
3.01403e-05
-2.03109e-06
3.48358e-06
-7.62534e-06
2.01787e-05
-1.01106e-05
4.91524e-05
-8.60346e-06
7.26786e-05
-5.87334e-06
8.82589e-05
-4.21147e-06
9.67098e-05
-3.79162e-06
0.000100716
-4.22453e-06
0.00010173
-4.84025e-06
0.000100235
-4.48398e-06
9.55426e-05
-1.22468e-06
8.55419e-05
4.01877e-06
6.70048e-05
6.55269e-06
4.29886e-05
7.49901e-06
1.89021e-05
3.72243e-06
-1.20117e-05
-2.267e-05
-6.2601e-06
-3.49981e-06
-5.94325e-06
8.36722e-06
-1.91813e-06
2.68518e-05
-1.95119e-06
3.73704e-05
-3.59543e-06
4.0123e-05
-1.78868e-06
4.4917e-05
4.45023e-06
6.01563e-05
1.26015e-05
8.63571e-05
1.55379e-05
0.000115775
1.14048e-05
0.000133958
5.92069e-06
0.000135149
4.95726e-06
0.000117655
7.51463e-06
7.91438e-05
4.53935e-06
3.49757e-05
-1.16317e-06
9.76208e-06
-8.45717e-06
2.65071e-05
-1.18174e-05
5.2358e-05
-1.14353e-05
7.28051e-05
-9.00293e-06
8.66401e-05
-6.67876e-06
9.51285e-05
-5.41002e-06
9.99522e-05
-5.09098e-06
0.000101682
-4.50803e-06
9.99266e-05
-1.93842e-06
9.36016e-05
3.1861e-06
8.15088e-05
8.31888e-06
6.2807e-05
8.57345e-06
4.33201e-05
9.77406e-06
1.77864e-05
5.39279e-06
-7.81281e-06
-1.64139e-05
-6.82813e-06
3.16888e-06
-8.67799e-06
1.04413e-05
-5.94585e-06
2.48995e-05
-3.4467e-06
3.55853e-05
-4.45354e-06
4.175e-05
-5.93672e-06
4.72342e-05
-2.56699e-06
5.83731e-05
5.19523e-06
8.09356e-05
1.06178e-05
0.000112312
9.28677e-06
0.000136342
6.18378e-06
0.000139241
7.13485e-06
0.000118543
9.97829e-06
7.87717e-05
6.91938e-06
4.01389e-05
-1.15476e-07
1.69286e-05
-8.24795e-06
3.366e-05
-1.29787e-05
5.70057e-05
-1.38843e-05
7.42136e-05
-1.23016e-05
8.59319e-05
-9.73752e-06
9.37046e-05
-7.38034e-06
9.87682e-05
-5.37701e-06
0.00010079
-2.52894e-06
9.82849e-05
1.95471e-06
9.06054e-05
6.86491e-06
7.81655e-05
1.10465e-05
5.98514e-05
1.18401e-05
4.34809e-05
1.23527e-05
1.76104e-05
6.82186e-06
-2.26645e-06
-8.60525e-06
-6.91882e-06
9.66658e-06
-1.02131e-05
1.38164e-05
-9.30154e-06
2.46544e-05
-6.77977e-06
3.38776e-05
-4.83195e-06
4.05604e-05
-5.58074e-06
4.88567e-05
-6.04122e-06
6.03111e-05
-1.2007e-06
7.85239e-05
4.54877e-06
0.000109011
5.85956e-06
0.000136742
5.39017e-06
0.000141356
7.42966e-06
0.000118753
9.50734e-06
7.91194e-05
7.4683e-06
4.39787e-05
3.29264e-07
2.41373e-05
-7.39593e-06
4.03307e-05
-1.38332e-05
6.34611e-05
-1.53114e-05
7.62559e-05
-1.41243e-05
8.56432e-05
-1.15504e-05
9.23933e-05
-8.4251e-06
9.71222e-05
-4.78594e-06
9.87549e-05
2.74346e-07
9.50336e-05
5.93192e-06
8.68964e-05
9.06706e-06
7.69282e-05
1.17391e-05
5.8666e-05
1.55703e-05
4.10156e-05
1.47989e-05
1.91173e-05
8.48742e-06
4.4582e-06
4.41976e-07
-6.66243e-06
1.57674e-05
-1.11246e-05
1.81409e-05
-1.20966e-05
2.60664e-05
-1.05403e-05
3.31043e-05
-7.89261e-06
3.87715e-05
-5.63687e-06
4.7617e-05
-6.58829e-06
6.27094e-05
-7.10851e-06
8.13732e-05
-2.69857e-06
0.000107132
9.69562e-07
0.000135118
3.32391e-06
0.000140852
6.32892e-06
0.000117932
7.58526e-06
8.00882e-05
5.98106e-06
4.71648e-05
-7.65288e-07
3.07653e-05
-7.26205e-06
4.58365e-05
-1.21716e-05
6.85229e-05
-1.51956e-05
7.99693e-05
-1.39719e-05
8.53724e-05
-1.15106e-05
9.12481e-05
-8.18137e-06
9.53778e-05
-3.69432e-06
9.60947e-05
2.5036e-06
9.09185e-05
6.96588e-06
8.4645e-05
1.18596e-05
7.42632e-05
1.55073e-05
5.69598e-05
1.88918e-05
3.94108e-05
1.64204e-05
2.27589e-05
9.36294e-06
1.22362e-05
9.77836e-06
-6.48799e-06
2.14809e-05
-1.17124e-05
2.28293e-05
-1.37329e-05
2.80798e-05
-1.29177e-05
3.28125e-05
-1.0331e-05
3.70231e-05
-7.67462e-06
4.61884e-05
-7.46104e-06
6.41759e-05
-1.08717e-05
8.71071e-05
-9.30925e-06
0.000108107
-4.12325e-06
0.000132234
9.37802e-07
0.000137766
5.2475e-06
0.000115698
4.79384e-06
8.25801e-05
3.41269e-06
4.97164e-05
-3.28434e-06
3.71607e-05
-8.90086e-06
5.07237e-05
-1.02775e-05
7.02691e-05
-1.17967e-05
8.23749e-05
-1.1556e-05
8.6256e-05
-9.7638e-06
9.09297e-05
-6.87671e-06
9.42263e-05
-2.71727e-06
9.39852e-05
2.51497e-06
8.79355e-05
8.12026e-06
8.15378e-05
1.58636e-05
6.91323e-05
2.06223e-05
5.47547e-05
2.14102e-05
4.08694e-05
1.69116e-05
2.88485e-05
8.98367e-06
2.09372e-05
1.84952e-05
-6.40239e-06
2.66802e-05
-1.14873e-05
2.68693e-05
-1.3613e-05
2.96593e-05
-1.3405e-05
3.26318e-05
-1.1752e-05
3.61016e-05
-1.03871e-05
4.60922e-05
-1.11176e-05
6.62418e-05
-1.3504e-05
9.12332e-05
-1.62686e-05
0.000113293
-9.85438e-06
0.00012838
-2.37197e-06
0.000132385
3.04835e-06
0.00011225
3.69201e-06
8.38664e-05
1.5621e-06
5.27181e-05
-5.55332e-06
4.38718e-05
-1.07722e-05
5.55395e-05
-1.13128e-05
7.14845e-05
-9.81437e-06
8.20814e-05
-9.346e-06
8.72897e-05
-7.42146e-06
9.0816e-05
-4.1409e-06
9.30601e-05
5.23091e-07
9.18113e-05
5.69946e-06
8.54416e-05
1.37869e-05
7.6487e-05
2.06665e-05
6.54594e-05
2.38559e-05
5.45681e-05
2.25159e-05
4.46086e-05
1.66032e-05
3.62489e-05
8.01995e-06
3.00267e-05
2.65063e-05
-5.93654e-06
3.10732e-05
-9.93594e-06
2.95565e-05
-1.18957e-05
3.07084e-05
-1.27292e-05
3.31553e-05
-1.29448e-05
3.66411e-05
-1.50584e-05
4.86779e-05
-1.96998e-05
7.16734e-05
-2.33675e-05
9.66692e-05
-2.46338e-05
0.000117137
-1.59724e-05
0.000122306
-5.71395e-06
0.000124276
-5.28491e-07
0.000109044
3.7708e-06
8.14391e-05
8.56029e-07
5.63313e-05
-6.61637e-06
5.09516e-05
-1.16688e-05
6.05063e-05
-1.23228e-05
7.31361e-05
-1.06501e-05
8.20471e-05
-8.32758e-06
8.70185e-05
-5.08116e-06
8.99351e-05
-4.323e-07
9.11888e-05
5.64283e-06
8.89504e-05
1.21998e-05
8.23956e-05
1.88837e-05
7.35614e-05
2.35048e-05
6.44844e-05
2.46728e-05
5.64117e-05
2.18567e-05
4.93678e-05
1.54939e-05
4.34378e-05
7.24248e-06
3.83769e-05
3.38627e-05
-4.38836e-06
3.42922e-05
-7.45946e-06
3.16328e-05
-1.00998e-05
3.27486e-05
-1.29135e-05
3.56486e-05
-1.71783e-05
4.10347e-05
-2.69538e-05
5.82876e-05
-3.70459e-05
8.25376e-05
-4.00984e-05
0.000101705
-3.32262e-05
0.000113049
-2.18631e-05
0.000113753
-9.00328e-06
0.000114089
1.51046e-07
0.000102506
5.1498e-06
7.85256e-05
1.36483e-06
6.0843e-05
-6.12951e-06
5.82193e-05
-1.09356e-05
6.55468e-05
-1.16158e-05
7.51185e-05
-9.79107e-06
8.22535e-05
-6.67823e-06
8.64797e-05
-2.55314e-06
8.88208e-05
2.95601e-06
8.92162e-05
9.52401e-06
8.63736e-05
1.591e-05
8.02464e-05
2.09425e-05
7.26738e-05
2.34447e-05
6.5446e-05
2.28657e-05
5.92301e-05
1.93116e-05
5.38728e-05
1.3571e-05
4.9366e-05
6.62917e-06
4.52293e-05
4.0527e-05
-2.58188e-06
3.65762e-05
-5.88511e-06
3.46736e-05
-1.02109e-05
3.70782e-05
-1.6664e-05
4.22099e-05
-2.90133e-05
5.38311e-05
-4.67687e-05
7.57615e-05
-5.87771e-05
9.5994e-05
-5.8888e-05
0.000105665
-4.52863e-05
0.000104859
-2.7235e-05
0.000100453
-9.5526e-06
0.000100517
3.97707e-06
9.28829e-05
7.64288e-06
7.74657e-05
2.81186e-06
6.66439e-05
-4.41278e-06
6.56079e-05
-8.87971e-06
7.05991e-05
-9.56554e-06
7.7355e-05
-7.79279e-06
8.27786e-05
-4.5602e-06
8.61673e-05
-1.7339e-07
8.79069e-05
5.42548e-06
8.7632e-05
1.16094e-05
8.45586e-05
1.69442e-05
7.92089e-05
2.01728e-05
7.3e-05
2.08064e-05
6.7043e-05
1.91323e-05
6.1841e-05
1.5771e-05
5.74331e-05
1.12623e-05
5.38466e-05
5.88579e-06
5.05297e-05
4.63805e-05
-1.78401e-06
3.85049e-05
-6.12669e-06
3.89258e-05
-1.2654e-05
4.41414e-05
-2.57042e-05
5.60053e-05
-4.59717e-05
7.47259e-05
-6.39034e-05
9.60844e-05
-6.93362e-05
0.000105217
-6.17246e-05
0.000105135
-4.48713e-05
9.79747e-05
-2.55491e-05
9.1661e-05
-7.46875e-06
9.16851e-05
4.38395e-06
8.84663e-05
7.17438e-06
7.99271e-05
3.01894e-06
7.35154e-05
-2.70998e-06
7.26671e-05
-6.22255e-06
7.54886e-05
-6.75237e-06
7.98051e-05
-5.16478e-06
8.36913e-05
-2.19523e-06
8.62192e-05
1.88646e-06
8.73042e-05
6.90041e-06
8.64084e-05
1.19592e-05
8.32392e-05
1.56031e-05
7.8587e-05
1.70747e-05
7.33408e-05
1.66253e-05
6.82386e-05
1.48966e-05
6.37507e-05
1.23048e-05
6.00286e-05
9.00078e-06
5.71066e-05
4.99139e-06
5.44962e-05
5.13283e-05
-2.63935e-06
4.06779e-05
-7.30015e-06
4.30329e-05
-1.70194e-05
5.43078e-05
-3.72288e-05
7.59967e-05
-5.46449e-05
9.33611e-05
-6.32526e-05
0.000106507
-5.5244e-05
0.000105298
-3.99228e-05
9.81977e-05
-2.55668e-05
9.29256e-05
-1.39819e-05
9.25574e-05
-2.86381e-06
9.47891e-05
4.12924e-06
9.37555e-05
5.195e-06
8.79049e-05
1.88109e-06
8.31188e-05
-1.9476e-06
8.1273e-05
-4.04662e-06
8.14555e-05
-4.05309e-06
8.3024e-05
-2.54645e-06
8.50527e-05
-4.92747e-08
8.6481e-05
3.30271e-06
8.66309e-05
7.13635e-06
8.50643e-05
1.04507e-05
8.18866e-05
1.24159e-05
7.77578e-05
1.29509e-05
7.32648e-05
1.24301e-05
6.89137e-05
1.11735e-05
6.50522e-05
9.33536e-06
6.18571e-05
6.98313e-06
5.94172e-05
4.04501e-06
5.74036e-05
5.53496e-05
-5.56019e-06
4.58996e-05
-1.15504e-05
4.96789e-05
-2.48372e-05
6.79929e-05
-4.08943e-05
9.20978e-05
-4.88824e-05
0.000102664
-4.1109e-05
0.00010171
-2.62725e-05
9.28294e-05
-1.43095e-05
9.33338e-05
-8.77812e-06
9.5393e-05
-6.35853e-06
9.71621e-05
-2.39353e-06
9.85908e-05
1.43125e-06
9.7823e-05
1.49458e-06
9.39497e-05
-7.00272e-07
9.02759e-05
-2.66718e-06
8.8088e-05
-3.46185e-06
8.70375e-05
-2.8846e-06
8.66845e-05
-1.27475e-06
8.66599e-05
8.89923e-07
8.65105e-05
3.40076e-06
8.56395e-05
5.86489e-06
8.36158e-05
7.74173e-06
8.05507e-05
8.86534e-06
7.68897e-05
9.24049e-06
7.30305e-05
8.95574e-06
6.92802e-05
8.13773e-06
6.5901e-05
6.88718e-06
6.30952e-05
5.25633e-06
6.10027e-05
3.14581e-06
5.94807e-05
5.84897e-05
-9.8185e-06
5.66452e-05
-2.15039e-05
6.76233e-05
-3.01133e-05
8.2251e-05
-3.27416e-05
0.000100307
-2.59495e-05
9.7664e-05
-1.22527e-05
9.10945e-05
-5.4596e-06
9.21282e-05
-3.93549e-06
9.55975e-05
-4.11917e-06
9.81754e-05
-4.37994e-06
9.97514e-05
-3.48707e-06
0.000100109
-2.16259e-06
9.89266e-05
-2.43859e-06
9.62377e-05
-3.67642e-06
9.33804e-05
-4.65707e-06
9.11239e-05
-4.75631e-06
8.95293e-05
-3.79474e-06
8.83794e-05
-2.0082e-06
8.74032e-05
8.97226e-08
8.62893e-05
2.09741e-06
8.46995e-05
3.78116e-06
8.24282e-05
5.05546e-06
7.95149e-05
5.88854e-06
7.62049e-05
6.25338e-06
7.27693e-05
6.16549e-06
6.94315e-05
5.68362e-06
6.64037e-05
4.87961e-06
6.38829e-05
3.79603e-06
6.204e-05
2.33825e-06
6.09039e-05
6.08281e-05
-1.17902e-05
7.20383e-05
-2.37528e-05
8.55399e-05
-2.03592e-05
9.143e-05
-9.54432e-06
9.77741e-05
8.75454e-07
9.63023e-05
4.56138e-06
9.55706e-05
2.31858e-06
9.70321e-05
-6.39498e-07
9.97824e-05
-3.06509e-06
0.000101655
-4.46365e-06
0.000102314
-4.98695e-06
0.000101744
-5.20847e-06
0.000100102
-5.78399e-06
9.76742e-05
-6.53614e-06
9.50239e-05
-6.97317e-06
9.26057e-05
-6.73445e-06
9.05786e-05
-5.69629e-06
8.88805e-05
-3.96268e-06
8.73493e-05
-1.88938e-06
8.57609e-05
4.12272e-08
8.38622e-05
1.57201e-06
8.15008e-05
2.68572e-06
7.86947e-05
3.43215e-06
7.56097e-05
3.83421e-06
7.24541e-05
3.90775e-06
6.94043e-05
3.68921e-06
6.66335e-05
3.22976e-06
6.43238e-05
2.5637e-06
6.26632e-05
1.62071e-06
6.18167e-05
6.24572e-05
-9.72351e-06
8.29127e-05
-1.1748e-05
9.11251e-05
-4.81894e-06
9.33093e-05
7.59113e-06
9.98013e-05
1.10901e-05
0.000101376
8.51859e-06
0.000100756
3.68589e-06
0.000102544
-6.93221e-07
0.000104633
-3.92452e-06
0.000105572
-6.00047e-06
0.000105211
-7.29904e-06
0.000103805
-8.17174e-06
0.000101649
-8.85218e-06
9.89972e-05
-9.34051e-06
9.61761e-05
-9.45388e-06
9.34827e-05
-9.00183e-06
9.1071e-05
-7.90078e-06
8.89449e-05
-6.21563e-06
8.7008e-05