/*--------------------------------*- C++ -*----------------------------------*\
| =========                 |                                                 |
| \\      /  F ield         | OpenFOAM: The Open Source CFD Toolbox           |
|  \\    /   O peration     | Version:  v1606+                                |
|   \\  /    A nd           | Web:      www.OpenFOAM.com                      |
|    \\/     M anipulation  |                                                 |
\*---------------------------------------------------------------------------*/
FoamFile
{
    version     2.0;
    format      ascii;
    class       volScalarField;
    location    "1.81";
    object      p;
}
// * * * * * * * * * * * * * * * * * * * * * * * * * * * * * * * * * * * * * //

dimensions      [1 -1 -2 0 0 0 0];

internalField   nonuniform List<scalar> 
6000
(
107549
107552
107556
107560
107565
107572
107582
107592
107600
107604
107605
107603
107602
107603
107605
107607
107609
107610
107610
107608
107605
107601
107596
107590
107584
107579
107575
107570
107567
107565
107491
107489
107490
107491
107495
107501
107511
107520
107530
107537
107540
107542
107543
107543
107545
107547
107550
107552
107552
107550
107547
107541
107534
107527
107521
107516
107511
107506
107502
107500
107450
107449
107449
107449
107452
107456
107464
107473
107488
107502
107508
107509
107508
107507
107508
107512
107516
107519
107519
107517
107513
107504
107493
107484
107477
107473
107468
107461
107456
107453
107399
107399
107398
107396
107394
107389
107384
107384
107399
107427
107449
107460
107462
107462
107464
107468
107472
107471
107466
107457
107438
107412
107388
107376
107380
107388
107389
107383
107379
107377
107336
107336
107334
107328
107319
107302
107281
107271
107278
107314
107362
107392
107409
107414
107417
107418
107416
107407
107389
107360
107312
107259
107232
107226
107232
107244
107252
107253
107253
107254
107257
107255
107249
107240
107228
107212
107201
107197
107197
107207
107247
107300
107334
107351
107357
107353
107342
107324
107293
107244
107188
107168
107163
107163
107166
107169
107171
107171
107169
107168
107184
107182
107179
107175
107169
107165
107163
107161
107160
107158
107164
107197
107245
107272
107282
107277
107264
107242
107205
107154
107136
107135
107137
107141
107144
107146
107146
107145
107142
107142
107146
107147
107146
107146
107144
107142
107141
107139
107136
107132
107128
107131
107160
107193
107207
107206
107195
107174
107138
107112
107112
107114
107119
107125
107130
107133
107135
107133
107130
107129
107126
107127
107128
107128
107127
107125
107123
107119
107114
107109
107104
107099
107103
107128
107143
107145
107137
107121
107095
107089
107091
107094
107099
107106
107113
107118
107120
107121
107118
107116
107108
107109
107109
107109
107108
107107
107103
107099
107093
107087
107081
107076
107072
107080
107094
107096
107092
107083
107068
107068
107069
107072
107077
107083
107089
107093
107098
107104
107104
107101
107079
107080
107078
107077
107078
107079
107078
107076
107072
107066
107058
107053
107049
107049
107056
107058
107058
107053
107047
107048
107049
107051
107053
107057
107058
107058
107061
107070
107078
107079
107009
107010
107010
107014
107021
107030
107037
107041
107043
107041
107035
107030
107027
107025
107026
107027
107032
107030
107028
107028
107028
107029
107029
107026
107017
107006
107000
107006
107020
107031
106876
106881
106896
106911
106927
106946
106966
106983
106996
107005
107006
107004
107002
106999
106997
106998
107007
107010
107010
107009
107008
107005
107000
106987
106961
106935
106917
106906
106912
106929
106723
106730
106755
106786
106815
106841
106864
106889
106917
106945
106961
106967
106968
106965
106963
106965
106980
106987
106988
106988
106984
106976
106961
106929
106887
106849
106820
106808
106813
106822
106652
106652
106657
106669
106689
106714
106739
106768
106806
106848
106885
106908
106916
106918
106919
106924
106946
106957
106961
106960
106951
106934
106902
106852
106803
106774
106764
106763
106766
106770
106625
106624
106623
106625
106631
106641
106654
106670
106697
106737
106783
106820
106843
106856
106864
106875
106900
106919
106922
106919
106904
106874
106829
106780
106751
106740
106738
106740
106742
106745
106607
106606
106606
106607
106610
106616
106622
106630
106641
106663
106695
106730
106761
106787
106802
106819
106839
106867
106871
106861
106840
106804
106763
106736
106725
106721
106719
106720
106723
106726
106589
106587
106588
106590
106594
106598
106604
106608
106614
106624
106641
106662
106688
106722
106737
106750
106766
106795
106806
106790
106768
106740
106717
106707
106704
106701
106699
106700
106703
106706
106570
106568
106569
106570
106573
106577
106582
106585
106589
106594
106602
106613
106628
106655
106673
106670
106678
106700
106725
106720
106702
106688
106681
106680
106680
106679
106678
106679
106681
106682
106550
106548
106548
106548
106548
106550
106554
106558
106559
106560
106563
106567
106575
106584
106601
106581
106574
106585
106612
106638
106642
106641
106643
106647
106650
106651
106651
106652
106653
106650
106528
106527
106525
106522
106520
106520
106520
106522
106521
106519
106517
106517
106523
106520
106500
106464
106444
106449
106479
106523
106570
106587
106596
106601
106607
106612
106614
106614
106610
106604
106502
106501
106498
106493
106488
106483
106480
106477
106472
106467
106461
106455
106451
106444
106375
106316
106280
106281
106320
106379
106450
106512
106531
106538
106546
106555
106559
106557
106548
106541
106467
106469
106463
106456
106447
106439
106430
106421
106413
106403
106393
106382
106365
106306
106213
106130
106072
106070
106128
106209
106293
106376
106434
106456
106466
106476
106483
106479
106469
106466
106412
106420
106416
106406
106395
106381
106367
106354
106342
106329
106313
106294
106239
106135
106020
105926
105881
105889
105939
106024
106120
106207
106284
106338
106366
106381
106389
106388
106383
106384
106332
106344
106347
106339
106325
106309
106290
106273
106259
106248
106225
106177
106078
105950
105834
105778
105778
105797
105823
105876
105950
106032
106114
106185
106239
106273
106289
106294
106295
106300
106233
106241
106251
106250
106238
106220
106201
106182
106165
106151
106129
106044
105918
105792
105719
105707
105723
105746
105763
105786
105814
105857
105939
106025
106098
106154
106188
106202
106212
106217
106126
106128
106138
106142
106137
106122
106104
106082
106060
106036
106002
105915
105794
105702
105674
105674
105684
105705
105719
105719
105712
105713
105760
105861
105957
106032
106087
106114
106131
106134
106019
106012
106022
106028
106029
106020
106002
105977
105947
105911
105863
105794
105715
105661
105651
105652
105655
105665
105674
105659
105643
105641
105656
105718
105820
105918
105987
106026
106047
106052
105919
105901
105909
105917
105922
105918
105901
105872
105833
105786
105740
105695
105653
105631
105630
105631
105630
105627
105624
105616
105613
105615
105618
105639
105707
105811
105893
105942
105965
105973
105829
105822
105819
105820
105826
105824
105807
105772
105717
105665
105637
105609
105595
105599
105605
105608
105606
105600
105595
105596
105600
105603
105605
105611
105648
105731
105814
105866
105894
105904
105768
105767
105761
105754
105752
105748
105727
105681
105621
105591
105579
105567
105565
105573
105580
105583
105583
105582
105582
105586
105590
105594
105596
105599
105621
105682
105755
105806
105835
105850
105733
105727
105719
105711
105702
105693
105665
105613
105575
105563
105557
105552
105552
105556
105560
105564
105566
105569
105573
105578
105582
105585
105587
105590
105606
105655
105716
105762
105785
105794
105706
105696
105687
105676
105663
105648
105618
105576
105554
105549
105545
105542
105543
105545
105547
105551
105555
105560
105565
105570
105574
105576
105579
105581
105592
105630
105678
105710
105730
105735
105676
105669
105657
105644
105629
105609
105583
105553
105541
105536
105532
105530
105531
105533
105536
105540
105545
105551
105557
105562
105566
105569
105571
105572
105580
105604
105638
105660
105675
105683
105637
105636
105626
105611
105594
105574
105553
105535
105528
105522
105518
105516
105517
105519
105523
105529
105535
105541
105548
105553
105558
105561
105563
105564
105568
105582
105603
105620
105630
105636
105592
105593
105586
105573
105557
105541
105526
105516
105513
105504
105500
105500
105501
105504
105509
105516
105522
105530
105536
105542
105548
105552
105554
105555
105556
105562
105573
105583
105590
105594
105543
105548
105542
105532
105518
105506
105496
105491
105491
105483
105480
105480
105483
105487
105492
105499
105506
105514
105522
105529
105535
105539
105542
105542
105540
105540
105544
105549
105553
105555
105499
105505
105500
105490
105479
105469
105463
105459
105460
105456
105454
105456
105459
105464
105469
105477
105486
105495
105505
105513
105520
105524
105526
105523
105517
105514
105514
105515
105517
105518
105459
105459
105459
105449
105439
105431
105426
105424
105425
105425
105424
105426
105430
105434
105439
105447
105459
105471
105482
105491
105499
105503
105502
105497
105489
105484
105482
105481
105482
105482
105419
105421
105421
105410
105398
105390
105386
105385
105387
105391
105391
105393
105397
105401
105405
105413
105424
105439
105453
105463
105471
105475
105472
105466
105458
105453
105449
105447
105446
105446
105382
105385
105382
105370
105357
105349
105345
105344
105348
105355
105356
105358
105362
105367
105372
105378
105388
105404
105421
105431
105438
105441
105438
105433
105426
105420
105414
105411
105410
105409
105350
105351
105345
105331
105317
105307
105302
105303
105310
105318
105321
105324
105328
105334
105342
105349
105359
105373
105390
105399
105403
105404
105402
105397
105391
105384
105378
105375
105373
105372
105320
105320
105312
105294
105277
105264
105258
105263
105274
105283
105288
105291
105297
105306
105317
105328
105339
105351
105362
105366
105367
105365
105362
105358
105352
105344
105338
105337
105335
105334
105290
105290
105282
105260
105242
105232
105228
105232
105243
105253
105259
105263
105270
105281
105296
105312
105324
105331
105331
105330
105330
105326
105319
105314
105308
105301
105296
105297
105298
105297
105260
105255
105249
105227
105215
105210
105209
105212
105219
105228
105235
105240
105246
105258
105275
105294
105303
105298
105293
105292
105292
105287
105279
105272
105267
105262
105260
105260
105262
105262
105229
105220
105215
105202
105198
105197
105198
105200
105205
105211
105217
105221
105225
105235
105248
105257
105257
105258
105260
105260
105257
105252
105246
105240
105236
105234
105232
105231
105230
105232
105199
105193
105191
105189
105190
105191
105192
105193
105196
105199
105203
105205
105207
105212
105217
105216
105216
105218
105223
105228
105229
105226
105222
105217
105212
105210
105208
105207
105205
105206
105176
105174
105175
105181
105186
105188
105188
105188
105189
105191
105192
105193
105193
105193
105190
105186
105183
105182
105187
105194
105199
105201
105199
105196
105191
105188
105186
105184
105182
105183
105158
105157
105160
105172
105184
105186
105185
105184
105184
105184
105184
105183
105181
105177
105169
105162
105158
105155
105156
105162
105168
105171
105173
105172
105170
105167
105164
105162
105160
105161
105140
105139
105142
105155
105180
105187
105184
105181
105178
105177
105175
105174
105171
105165
105156
105148
105142
105139
105138
105139
105140
105141
105143
105144
105145
105145
105143
105140
105137
105137
105122
105120
105124
105134
105155
105187
105185
105177
105173
105170
105168
105166
105162
105156
105149
105141
105136
105131
105128
105125
105120
105114
105112
105113
105116
105118
105119
105118
105113
105112
105107
105107
105108
105113
105127
105156
105183
105172
105165
105163
105161
105159
105155
105150
105144
105137
105131
105126
105121
105115
105103
105090
105082
105081
105084
105088
105091
105093
105088
105087
105094
105095
105093
105096
105108
105127
105159
105161
105157
105156
105155
105152
105149
105145
105139
105133
105127
105121
105113
105103
105084
105064
105053
105050
105054
105059
105062
105065
105063
105063
105081
105082
105081
105082
105093
105112
105135
105147
105149
105149
105148
105146
105143
105139
105134
105128
105121
105113
105101
105084
105063
105041
105028
105021
105028
105034
105037
105039
105039
105040
105067
105068
105069
105070
105083
105106
105119
105132
105139
105142
105142
105141
105138
105134
105128
105122
105114
105103
105085
105062
105040
105020
105004
104983
105002
105012
105016
105017
105016
105018
105054
105055
105055
105058
105072
105094
105109
105121
105130
105135
105136
105135
105132
105127
105121
105114
105104
105089
105065
105040
105015
104991
104971
104961
104968
104986
104996
104997
104995
105000
105043
105043
105042
105045
105050
105071
105092
105109
105120
105127
105129
105127
105124
105118
105111
105101
105087
105066
105037
105010
104982
104959
104949
104949
104949
104960
104978
104981
104980
104987
105041
105033
105028
105026
105011
105024
105055
105082
105099
105109
105113
105111
105107
105099
105090
105075
105053
105025
104994
104968
104950
104942
104943
104944
104943
104948
104960
104964
104970
104977
105024
105016
105014
104995
104987
104988
105000
105019
105038
105055
105066
105068
105062
105052
105037
105016
104992
104969
104951
104941
104937
104939
104940
104941
104940
104941
104948
104950
104961
104966
105000
104995
104992
104979
104975
104972
104971
104973
104977
104982
104987
104987
104982
104976
104967
104956
104946
104938
104934
104934
104936
104937
104937
104938
104937
104938
104941
104945
104957
104955
104983
104980
104976
104969
104967
104966
104963
104961
104959
104956
104952
104948
104945
104941
104937
104934
104933
104932
104933
104933
104934
104934
104935
104935
104935
104934
104938
104946
104957
104951
104970
104968
104966
104961
104960
104960
104959
104957
104954
104950
104946
104942
104938
104935
104933
104932
104932
104931
104931
104931
104931
104932
104932
104932
104932
104931
104935
104948
104951
104945
104960
104959
104958
104955
104955
104955
104954
104952
104949
104946
104941
104938
104935
104933
104932
104931
104930
104929
104929
104929
104929
104929
104929
104929
104929
104929
104930
104940
104941
104939
104951
104951
104950
104949
104949
104949
104948
104947
104944
104940
104936
104933
104931
104930
104929
104928
104927
104927
104927
104926
104926
104926
104926
104927
104926
104926
104927
104930
104932
104932
104942
104942
104944
104944
104944
104944
104943
104941
104938
104934
104931
104928
104927
104926
104926
104925
104924
104924
104924
104924
104924
104924
104924
104924
104924
104924
104924
104924
104924
104925
104934
104934
104938
104938
104939
104939
104938
104935
104932
104928
104925
104924
104923
104923
104922
104922
104922
104921
104921
104921
104921
104921
104921
104921
104921
104921
104921
104920
104918
104919
104927
104928
104933
104933
104934
104933
104932
104929
104926
104923
104921
104920
104920
104919
104919
104919
104918
104918
104918
104918
104918
104918
104918
104918
104918
104918
104918
104916
104913
104914
104922
104924
104930
104929
104929
104928
104927
104924
104920
104917
104916
104916
104916
104916
104916
104915
104915
104915
104915
104915
104915
104915
104915
104915
104915
104915
104915
104912
104908
104909
104917
104921
104925
104924
104924
104923
104921
104918
104915
104913
104912
104912
104912
104912
104912
104912
104912
104912
104912
104912
104912
104912
104912
104912
104912
104912
104912
104909
104903
104903
104912
104917
104920
104920
104920
104918
104915
104912
104910
104909
104909
104909
104909
104909
104909
104909
104909
104909
104909
104909
104909
104909
104909
104909
104909
104909
104909
104905
104898
104899
104907
104913
104915
104915
104915
104913
104910
104907
104905
104905
104905
104905
104906
104906
104906
104906
104906
104906
104906
104906
104906
104906
104906
104906
104906
104906
104906
104902
104894
104897
104904
104910
104911
104910
104909
104907
104904
104903
104902
104902
104902
104902
104902
104902
104902
104902
104902
104902
104902
104903
104903
104903
104903
104903
104903
104903
104903
104901
104895
104902
104908
104909
104907
104906
104904
104902
104900
104899
104899
104899
104899
104899
104899
104899
104899
104899
104899
104899
104899
104899
104899
104899
104899
104899
104900
104900
104901
104902
104900
104904
104914
104909
104904
104902
104900
104897
104896
104896
104896
104895
104895
104895
104895
104895
104895
104895
104896
104896
104896
104896
104896
104896
104896
104896
104896
104897
104898
104903
104906
104905
104916
104908
104901
104898
104896
104894
104893
104893
104892
104892
104892
104892
104892
104892
104892
104892
104892
104892
104892
104892
104892
104892
104892
104892
104893
104893
104895
104902
104912
104909
104912
104904
104897
104894
104892
104891
104890
104889
104889
104888
104888
104888
104888
104888
104888
104888
104888
104888
104889
104889
104889
104889
104889
104889
104889
104890
104891
104897
104907
104906
104904
104898
104893
104890
104889
104887
104886
104885
104885
104884
104884
104884
104884
104885
104885
104885
104885
104885
104885
104885
104885
104885
104885
104885
104885
104885
104887
104889
104893
104897
104899
104894
104890
104887
104885
104884
104882
104881
104880
104880
104880
104880
104881
104881
104881
104881
104881
104881
104881
104881
104881
104881
104881
104881
104881
104881
104882
104883
104883
104885
104897
104891
104886
104883
104881
104879
104878
104877
104876
104876
104876
104877
104877
104877
104877
104877
104877
104877
104877
104877
104877
104877
104877
104877
104877
104877
104878
104878
104874
104876
104892
104886
104881
104878
104876
104874
104873
104872
104872
104872
104872
104873
104873
104873
104873
104873
104873
104873
104873
104873
104873
104873
104873
104873
104873
104873
104874
104872
104867
104868
104880
104877
104874
104873
104871
104869
104868
104868
104868
104868
104869
104869
104869
104870
104870
104870
104870
104870
104869
104869
104869
104869
104869
104868
104868
104869
104870
104868
104861
104863
104867
104866
104866
104866
104865
104864
104864
104864
104865
104865
104865
104865
104866
104866
104866
104866
104866
104866
104865
104865
104865
104865
104864
104864
104864
104865
104866
104866
104861
104862
104856
104856
104857
104859
104859
104859
104860
104861
104861
104862
104862
104862
104862
104862
104862
104862
104862
104862
104861
104861
104861
104860
104860
104860
104860
104860
104862
104865
104865
104865
104844
104845
104848
104852
104853
104854
104855
104857
104858
104858
104858
104858
104858
104858
104858
104858
104858
104858
104857
104857
104856
104856
104856
104855
104855
104855
104857
104859
104862
104861
104832
104833
104839
104844
104846
104848
104850
104852
104854
104854
104854
104854
104854
104854
104854
104854
104853
104853
104853
104853
104852
104851
104851
104850
104850
104850
104851
104851
104851
104851
104819
104821
104829
104835
104838
104841
104844
104847
104849
104849
104849
104849
104849
104849
104849
104849
104849
104849
104848
104848
104847
104847
104846
104845
104844
104844
104844
104844
104840
104839
104805
104808
104816
104823
104828
104833
104837
104840
104843
104844
104844
104844
104844
104844
104844
104844
104844
104844
104843
104843
104842
104841
104840
104839
104838
104838
104837
104836
104830
104828
104786
104790
104798
104807
104815
104823
104829
104833
104836
104838
104838
104838
104838
104838
104838
104838
104838
104838
104838
104837
104837
104836
104834
104833
104832
104831
104830
104828
104820
104817
104763
104767
104775
104787
104799
104810
104819
104825
104828
104831
104832
104832
104832
104832
104832
104832
104832
104832
104831
104831
104830
104829
104827
104826
104824
104822
104821
104819
104809
104805
104733
104739
104750
104764
104779
104793
104806
104815
104820
104823
104825
104825
104825
104825
104825
104825
104825
104825
104824
104823
104822
104821
104819
104817
104815
104813
104811
104809
104799
104792
104699
104707
104721
104736
104753
104771
104788
104802
104811
104816
104817
104817
104817
104817
104817
104817
104817
104816
104816
104815
104814
104812
104810
104808
104805
104802
104799
104795
104784
104776
104663
104672
104685
104700
104718
104740
104764
104782
104796
104806
104809
104809
104808
104808
104808
104808
104808
104807
104807
104806
104805
104803
104800
104797
104794
104790
104784
104776
104765
104755
104622
104629
104640
104653
104669
104693
104723
104750
104769
104786
104797
104799
104798
104797
104797
104797
104797
104796
104795
104793
104791
104789
104786
104784
104780
104774
104765
104751
104735
104723
104569
104572
104579
104590
104607
104629
104657
104688
104715
104744
104769
104781
104783
104783
104784
104783
104781
104779
104776
104772
104768
104765
104763
104761
104757
104749
104737
104717
104695
104679
104496
104497
104504
104518
104534
104552
104574
104602
104633
104666
104706
104740
104755
104759
104759
104757
104753
104747
104740
104733
104727
104722
104719
104717
104712
104704
104688
104666
104642
104626
104408
104412
104423
104437
104448
104460
104478
104503
104533
104569
104613
104661
104695
104708
104710
104705
104697
104686
104675
104664
104655
104648
104642
104637
104628
104616
104600
104586
104570
104559
104317
104325
104336
104342
104346
104355
104372
104395
104426
104463
104504
104546
104583
104605
104611
104606
104596
104585
104574
104563
104554
104546
104539
104530
104517
104502
104484
104476
104474
104472
104224
104232
104234
104230
104231
104240
104257
104282
104312
104347
104381
104413
104441
104462
104471
104471
104466
104459
104452
104445
104438
104431
104425
104417
104406
104391
104373
104360
104360
104365
104121
104120
104113
104107
104108
104119
104138
104162
104191
104220
104248
104273
104295
104313
104323
104327
104327
104324
104321
104317
104314
104310
104306
104302
104295
104285
104271
104253
104247
104250
104000
103991
103982
103977
103980
103994
104015
104039
104064
104088
104111
104131
104150
104164
104175
104181
104184
104185
104185
104184
104184
104183
104182
104183
104183
104181
104173
104159
104143
104139
103862
103854
103846
103841
103850
103869
103890
103912
103934
103954
103972
103989
104004
104017
104027
104034
104039
104043
104045
104047
104049
104051
104054
104058
104063
104070
104072
104066
104047
104039
103721
103714
103706
103708
103725
103746
103767
103785
103802
103817
103831
103845
103858
103869
103879
103887
103894
103899
103904
103908
103912
103916
103921
103928
103937
103948
103959
103963
103954
103945
103583
103574
103577
103589
103610
103628
103643
103655
103667
103678
103689
103700
103711
103722
103731
103740
103747
103754
103761
103766
103772
103779
103786
103794
103805
103819
103834
103847
103853
103845
103451
103452
103464
103483
103500
103509
103515
103521
103528
103536
103544
103554
103563
103573
103583
103592
103601
103609
103617
103624
103632
103639
103648
103657
103669
103684
103700
103716
103728
103726
103336
103344
103363
103379
103383
103382
103381
103383
103386
103391
103398
103405
103414
103424
103434
103444
103454
103464
103473
103482
103491
103499
103508
103519
103531
103546
103562
103578
103592
103595
103236
103246
103260
103262
103254
103247
103243
103241
103242
103244
103249
103255
103263
103273
103284
103296
103308
103320
103331
103341
103350
103360
103369
103379
103391
103405
103421
103437
103452
103460
103136
103147
103143
103131
103119
103108
103102
103097
103095
103095
103097
103103
103111
103122
103134
103148
103162
103176
103189
103201
103211
103221
103230
103239
103251
103264
103280
103295
103309
103319
103025
103024
103009
102993
102979
102967
102958
102950
102945
102942
102943
102947
102956
102968
102983
103000
103016
103033
103048
103062
103074
103084
103093
103101
103111
103123
103138
103152
103165
103175
102895
102884
102868
102852
102837
102823
102812
102801
102792
102786
102784
102787
102797
102812
102831
102851
102872
102891
102909
102926
102939
102951
102959
102966
102973
102982
102996
103010
103022
103030
102750
102739
102725
102709
102694
102679
102664
102649
102635
102625
102619
102623
102635
102655
102678
102703
102728
102751
102772
102791
102807
102820
102829
102835
102839
102845
102855
102869
102880
102887
102604
102595
102583
102568
102552
102534
102515
102495
102475
102459
102451
102455
102472
102498
102528
102558
102587
102614
102637
102658
102676
102691
102702
102709
102712
102714
102720
102728
102740
102746
102463
102456
102444
102430
102412
102391
102367
102340
102314
102295
102288
102297
102318
102349
102384
102419
102451
102480
102505
102528
102548
102565
102578
102586
102590
102590
102591
102595
102602
102608
102329
102322
102311
102295
102275
102250
102221
102189
102162
102151
102156
102170
102190
102219
102254
102290
102322
102352
102378
102401
102422
102440
102454
102465
102471
102471
102469
102468
102470
102474
102200
102194
102182
102165
102142
102114
102081
102050
102036
102045
102060
102076
102093
102114
102143
102174
102203
102230
102255
102277
102298
102317
102332
102345
102352
102355
102352
102348
102347
102347
102078
102071
102059
102040
102015
101984
101954
101937
101945
101962
101981
101997
102011
102027
102047
102070
102093
102115
102137
102158
102177
102196
102212
102226
102236
102240
102239
102235
102232
102230
101962
101955
101941
101921
101894
101865
101848
101852
101869
101888
101905
101919
101933
101946
101959
101974
101989
102005
102022
102041
102059
102077
102094
102108
102120
102127
102129
102126
102122
102121
101852
101845
101831
101809
101782
101763
101765
101781
101799
101816
101831
101845
101858
101868
101874
101879
101887
101897
101910
101925
101943
101960
101977
101992
102005
102015
102021
102020
102016
102015
101749
101742
101727
101705
101684
101681
101695
101714
101731
101746
101761
101774
101784
101788
101785
101782
101783
101788
101797
101811
101827
101845
101862
101878
101893
101904
101912
101915
101913
101911
101654
101646
101632
101614
101606
101616
101632
101651
101666
101680
101694
101704
101708
101700
101690
101681
101677
101677
101683
101695
101711
101730
101749
101766
101782
101795
101805
101811
101812
101809
101567
101560
101549
101540
101545
101559
101574
101590
101604
101617
101627
101632
101623
101607
101592
101580
101573
101570
101574
101582
101597
101616
101637
101656
101673
101687
101698
101707
101711
101709
101488
101484
101481
101481
101491
101503
101517
101531
101543
101553
101558
101550
101533
101514
101497
101484
101479
101478
101479
101481
101489
101506
101528
101548
101566
101581
101594
101603
101610
101611
101417
101418
101422
101428
101438
101448
101460
101471
101481
101486
101479
101463
101445
101427
101412
101406
101404
101404
101403
101399
101396
101406
101424
101445
101463
101479
101491
101501
101509
101512
101352
101357
101366
101376
101383
101392
101402
101409
101414
101409
101396
101380
101364
101352
101345
101344
101343
101342
101338
101329
101321
101320
101330
101347
101364
101379
101392
101402
101409
101413
101286
101294
101308
101319
101325
101332
101339
101342
101339
101328
101315
101304
101295
101291
101289
101288
101287
101284
101276
101265
101256
101249
101249
101257
101269
101283
101295
101304
101311
101315
101215
101222
101241
101252
101259
101266
101269
101266
101257
101247
101239
101235
101234
101236
101237
101235
101232
101226
101214
101202
101192
101184
101178
101176
101181
101190
101201
101210
101216
101220
101137
101144
101160
101174
101184
101190
101189
101182
101173
101167
101166
101168
101172
101177
101181
101182
101177
101165
101151
101138
101128
101118
101108
101100
101097
101101
101109
101118
101124
101127
101057
101063
101074
101089
101100
101105
101101
101094
101088
101086
101088
101092
101099
101105
101111
101114
101112
101103
101086
101072
101061
101049
101036
101024
101016
101016
101021
101028
101034
101038
100985
100987
100992
101004
101013
101015
101010
101005
101001
101001
101002
101006
101011
101018
101024
101030
101033
101032
101022
101007
100995
100980
100965
100951
100941
100937
100938
100943
100948
100951
100919
100919
100919
100924
100928
100925
100920
100915
100912
100911
100911
100912
100915
100921
100927
100936
100945
100954
100958
100947
100933
100918
100902
100886
100873
100865
100862
100864
100866
100869
100857
100853
100849
100848
100843
100836
100830
100825
100822
100819
100817
100815
100816
100818
100824
100833
100847
100866
100886
100889
100878
100861
100844
100828
100813
100800
100793
100791
100790
100791
100795
100786
100777
100768
100757
100747
100740
100734
100730
100726
100721
100717
100714
100714
100716
100725
100741
100765
100793
100818
100820
100806
100788
100771
100755
100740
100728
100723
100719
100718
100719
100710
100697
100682
100668
100657
100650
100644
100639
100633
100626
100620
100615
100611
100611
100617
100630
100654
100685
100717
100741
100745
100733
100715
100697
100681
100667
100657
100651
100648
100617
100615
100604
100590
100577
100567
100560
100555
100549
100541
100534
100527
100522
100519
100521
100525
100531
100546
100575
100608
100637
100658
100666
100656
100640
100622
100606
100592
100585
100580
100505
100507
100503
100494
100484
100477
100472
100467
100461
100453
100447
100442
100440
100441
100444
100446
100448
100454
100472
100500
100531
100556
100574
100582
100576
100561
100543
100527
100518
100513
100400
100399
100396
100394
100391
100388
100385
100381
100376
100371
100367
100366
100369
100374
100375
100376
100377
100380
100387
100404
100431
100457
100477
100491
100497
100492
100478
100461
100450
100444
100298
100292
100286
100292
100297
100300
100300
100299
100296
100294
100295
100297
100304
100312
100313
100314
100315
100316
100319
100326
100342
100364
100384
100399
100409
100413
100407
100393
100381
100374
100200
100188
100182
100196
100208
100216
100221
100222
100223
100224
100227
100233
100240
100248
100251
100253
100255
100256
100258
100262
100269
100281
100297
100313
100325
100332
100333
100325
100312
100305
100109
100093
100093
100110
100128
100141
100149
100153
100155
100157
100163
100169
100176
100183
100188
100192
100193
100194
100197
100202
100207
100211
100217
100231
100245
100256
100261
100259
100248
100239
100034
100029
100034
100045
100063
100077
100087
100091
100092
100093
100099
100105
100112
100120
100127
100129
100130
100131
100134
100141
100146
100143
100139