/*--------------------------------*- C++ -*----------------------------------*\
| =========                 |                                                 |
| \\      /  F ield         | OpenFOAM: The Open Source CFD Toolbox           |
|  \\    /   O peration     | Version:  v1606+                                |
|   \\  /    A nd           | Web:      www.OpenFOAM.com                      |
|    \\/     M anipulation  |                                                 |
\*---------------------------------------------------------------------------*/
FoamFile
{
    version     2.0;
    format      ascii;
    class       surfaceScalarField;
    location    "12";
    object      phi;
}
// * * * * * * * * * * * * * * * * * * * * * * * * * * * * * * * * * * * * * //

dimensions      [0 3 -1 0 0 0 0];

internalField   nonuniform List<scalar> 
9981
(
3.64688
0.00791418
3.61628
0.0306063
3.5622
0.0540795
3.49094
0.0712577
3.4021
0.0888445
3.28601
0.116089
3.14971
0.136301
3.00124
0.148461
2.82803
0.17321
2.63015
0.197881
2.42067
0.20948
2.1962
0.224472
1.95633
0.239877
1.70741
0.248913
1.44224
0.265169
1.15052
0.291721
0.842019
0.308502
0.532276
0.309743
0.220069
0.312207
0.220068
3.51067
0.0211086
3.47725
0.0640265
3.42579
0.105543
3.35616
0.140889
3.26501
0.179998
3.15659
0.224506
3.02713
0.265761
2.87707
0.298517
2.71106
0.339219
2.51748
0.391467
2.30473
0.422229
2.09049
0.438707
1.85688
0.473489
1.60348
0.502317
1.35447
0.514176
1.10489
0.541303
0.844062
0.569329
0.571745
0.58206
0.293656
0.590297
0.513724
3.38679
0.0319453
3.35697
0.0938497
3.30554
0.156972
3.23901
0.207422
3.15423
0.264776
3.04531
0.333427
2.923
0.388064
2.7833
0.438225
2.62454
0.497972
2.4532
0.562807
2.26975
0.605682
2.08553
0.622932
1.8967
0.662317
1.7024
0.696612
1.53411
0.682465
1.38135
0.694068
1.16743
0.783251
0.863536
0.885952
0.502664
0.951168
1.01639
3.26558
0.042281
3.23649
0.122939
3.19019
0.203268
3.12524
0.272374
3.04495
0.345065
2.94145
0.436926
2.82117
0.508341
2.68647
0.572925
2.5193
0.665148
2.34093
0.741169
2.15216
0.794456
1.92668
0.848415
1.70084
0.888159
1.48369
0.913756
1.22392
0.942235
0.925798
0.992191
0.637385
1.07166
0.374521
1.14882
0.139452
1.18624
1.15584
3.15004
0.0507945
3.12066
0.152324
3.07732
0.24661
3.01678
0.332906
2.93657
0.425276
2.84331
0.530192
2.72475
0.626903
2.58781
0.709856
2.43739
0.815572
2.26019
0.918366
2.06571
0.988939
1.85691
1.05722
1.63537
1.1097
1.39431
1.15481
1.11441
1.22213
0.81597
1.29063
0.549376
1.33826
0.325163
1.37303
0.116204
1.3952
1.27204
3.03726
0.0589411
3.01265
0.176937
2.96837
0.290888
2.91358
0.387691
2.84059
0.498267
2.74907
0.621716
2.63955
0.736424
2.51272
0.836681
2.37197
0.956319
2.20578
1.08456
2.02104
1.17367
1.8378
1.24046
1.63362
1.31388
1.41461
1.37383
1.19508
1.44166
0.981205
1.5045
0.780604
1.53886
0.610072
1.54356
0.441556
1.56371
1.7136
2.92729
0.0679558
2.90595
0.198274
2.86729
0.329557
2.81603
0.438944
2.75073
0.563572
2.66437
0.708073
2.5661
0.834693
2.4497
0.953084
2.31526
1.09076
2.15768
1.24214
1.98824
1.34311
1.80894
1.41977
1.61277
1.51005
1.38937
1.59723
1.16336
1.66767
0.916845
1.75102
0.628559
1.82714
0.289702
1.88242
-0.0520335
1.90545
1.66157
2.82337
0.0757033
2.80281
0.218832
2.76981
0.362559
2.72309
0.485667
2.66527
0.621383
2.58833
0.785016
2.49637
0.926651
2.39018
1.05927
2.25947
1.22147
2.11897
1.38264
1.96076
1.50132
1.79676
1.58377
1.6188
1.68801
1.43827
1.77776
1.26626
1.83968
1.10029
1.91699
0.904396
2.02304
0.690155
2.09666
0.409777
2.18583
2.07134
2.72405
0.0813438
2.70518
0.237707
2.67634
0.391399
2.6358
0.52621
2.58475
0.672428
2.51622
0.853551
2.4319
1.01097
2.33278
1.15839
2.21625
1.338
2.08361
1.51528
1.9399
1.64504
1.78086
1.7428
1.61747
1.8514
1.45411
1.94112
1.29761
1.99618
1.12982
2.08478
0.937966
2.21489
0.6873
2.34733
0.448032
2.42509
2.51937
2.62736
0.0858915
2.61252
0.252548
2.58779
0.416125
2.55349
0.560505
2.50794
0.717981
2.44918
0.912316
2.37228
1.08786
2.28401
1.24667
2.17806
1.44395
2.0509
1.64244
1.90882
1.78712
1.74544
1.90617
1.57177
2.02508
1.3898
2.12308
1.18255
2.20343
0.956704
2.31063
0.702524
2.46907
0.473075
2.57677
0.232739
2.66543
2.75211
2.53309
0.0904182
2.52294
0.262702
2.50339
0.435671
2.47464
0.589262
2.43685
0.755766
2.38786
0.961307
2.32136
1.15437
2.24464
1.32339
2.14657
1.54202
2.02512
1.76389
1.88202
1.93022
1.72103
2.06716
1.55502
2.19109
1.37208
2.30602
1.18124
2.39427
0.965419
2.52645
0.756758
2.67773
0.464601
2.86893
0.204758
2.92527
2.95687
2.44223
0.094896
2.43615
0.268787
2.42246
0.449359
2.40045
0.611272
2.37235
0.783867
2.33342
1.00024
2.28069
1.20709
2.21296
1.39112
2.12698
1.628
2.01415
1.87671
1.87854
2.06583
1.73277
2.21294
1.5647
2.35916
1.38657
2.48415
1.15229
2.62855
0.912296
2.76645
0.624119
2.96591
0.436932
3.05612
0.154544
3.20766
3.11141
2.35561
0.0983501
2.35231
0.272086
2.34531
0.456356
2.33155
0.625031
2.31278
0.80264
2.28635
1.02667
2.24674
1.24671
2.19057
1.44729
2.12091
1.69766
2.0197
1.97792
1.89968
2.18585
1.76137
2.35125
1.60915
2.51138
1.42499
2.66831
1.24522
2.80831
1.02116
2.99051
0.858103
3.12896
0.565307
3.34892
0.420679
3.35229
3.53209
2.2728
0.100098
2.27178
0.273114
2.27223
0.455899
2.2667
0.630566
2.25721
0.812125
2.24444
1.03944
2.21784
1.27331
2.17792
1.48721
2.12444
1.75114
2.04198
2.06039
1.93712
2.2907
1.81534
2.47303
1.66715
2.65957
1.49892
2.83654
1.26915
3.03808
1.03747
3.2222
0.695149
3.47128
0.506075
3.53799
0.13779
3.72057
3.66988
2.19304
0.100123
2.19502
0.271133
2.20246
0.448462
2.20467
0.628354
2.20461
0.812192
2.20498
1.03907
2.19461
1.28367
2.17297
1.50885
2.13795
1.78615
2.07973
2.11861
1.99083
2.37961
1.88589
2.57797
1.75198
2.79348
1.58593
3.00259
1.4115
3.21251
1.17877
3.45492
1.02686
3.62319
0.65353
3.91132
0.530739
3.84336
4.20062
2.116
0.09863
2.122
0.265128
2.13498
0.435482
2.14476
0.618573
2.15369
0.803263
2.16753
1.02523
2.17721
1.27398
2.17465
1.51142
2.16149
1.79931
2.12864
2.15146
2.0606
2.44764
1.97238
2.6662
1.86455
2.90131
1.71223
3.15491
1.52538
3.39936
1.30308
3.67722
0.910162
4.01611
0.685931
4.13555
0.0761819
4.45311
4.2768
2.04166
0.0957252
2.0521
0.254686
2.0692
0.418383
2.08606
0.601712
2.10404
0.785287
2.13263
0.996635
2.16428
1.24234
2.18187
1.49383
2.19172
1.78946
2.18308
2.1601
2.13973
2.49099
2.07344
2.73248
1.98274
2.992
1.8676
3.27005
1.70272
3.56424
1.51614
3.8638
1.36167
4.17058
0.922565
4.57466
0.834141
4.54154
5.11095
1.97005
0.0913932
1.98458
0.240151
2.00476
0.398211
2.02782
0.578649
2.05593
0.75717
2.10041
0.952163
2.15274
1.19
2.19279
1.45378
2.22082
1.76142
2.23895
2.14198
2.22024
2.5097
2.18224
2.77049
2.12835
3.04589
2.0384
3.36001
1.94029
3.66234
1.76152
4.04258
1.44136
4.49073
1.15245
4.86357
0.256286
5.4377
5.36723
1.90111
0.0855759
1.91885
0.222412
1.94135
0.375713
1.96992
0.550083
2.0099
0.717183
2.06968
0.892391
2.1406
1.11908
2.20021
1.39417
2.2462
1.71543
2.28294
2.10524
2.30287
2.48977
2.2859
2.78745
2.27727
3.05452
2.25453
3.38275
2.16637
3.75051
2.11795
4.09099
1.96959
4.6391
1.59402
5.23914
1.67756
5.35416
7.04479
1.8347
0.078279
1.85451
0.202594
1.87882
0.351405
1.913
0.5159
1.96561
0.664581
2.03889
0.81911
2.12375
1.03422
2.1981
1.31982
2.25795
1.65558
2.31412
2.04906
2.36024
2.44365
2.39738
2.75031
2.41031
3.04158
2.4652
3.32786
2.522
3.69372
2.41691
4.19608
2.54349
4.51252
2.11003
5.6726
1.21652
6.24767
8.26132
-4.11454
4.11454
-6.49514
2.38059
-6.98134
0.486206
-7.31003
0.328689
-7.32151
0.0114775
-7.42772
0.106208
-7.40635
-0.0213673
-7.40134
-0.00501072
-7.36881
-0.032528
-7.36639
-0.00241539
-7.30909
-0.0573019
-7.09984
-0.209251
-6.0847
-1.01514
-1.65435
-4.43035
3.58203
-5.23638
7.45592
-3.8739
10.0939
-2.63802
11.7173
-1.62336
12.5898
-0.872531
13.0052
-0.415344
13.1741
-0.168901
13.2017
-0.0275717
13.1361
0.0655782
13.0252
0.110862
12.8979
0.127265
12.7734
0.124565
12.6592
0.114204
12.5592
0.100003
12.4741
0.0850534
12.4054
0.0686745
12.3478
0.0576584
12.2927
0.0551115
12.2386
0.0540976
12.1858
0.0527377
12.1403
0.045522
12.0988
0.0415069
12.0628
0.0360464
12.0305
0.0322554
12.0018
0.0287014
11.9803
0.0214957
11.9578
0.0225579
11.942
0.0157877
11.9197
0.0222897
11.9046
0.0150793
11.8927
0.0119495
11.883
0.00964704
11.8848
-0.00180363
11.8724
0.0124498
11.8691
0.00327392
11.8544
0.0146766
11.8497
0.00467976
11.8498
-0.000104843
11.8495
0.000336051
11.8664
-0.0169065
11.889
-0.0226179
11.9268
-0.037748
11.9656
-0.0387842
11.9729
-0.00734315
11.9502
0.0226973
0.0489972
-2.96886
7.0834
-5.25757
4.66931
-6.84608
2.07472
-7.60846
1.09107
-7.73034
0.133362
-7.69471
0.0705762
-7.64991
-0.0661702
-7.51996
-0.134963
-7.34526
-0.207227
-7.07992
-0.267752
-6.50018
-0.637044
-5.24704
-1.46239
-3.72229
-2.53989
-0.11707
-8.03557
3.6556
-9.00905
6.94379
-7.16208
9.45746
-5.15169
11.1359
-3.30184
12.0945
-1.83108
12.5602
-0.881017
12.7556
-0.364346
12.8083
-0.0803039
12.8062
0.067734
12.77
0.14701
12.7186
0.178653
12.6656
0.177583
12.6186
0.161273
12.5811
0.13749
12.5551
0.11101
12.5398
0.0839679
12.5307
0.0667324
12.5203
0.0655874
12.5046
0.0697299
12.4869
0.0704623
12.4698
0.0626175
12.4546
0.0567103
12.4405
0.0501333
12.4282
0.0445969
12.4175
0.0393834
12.4083
0.0307344
12.4006
0.0302501
12.3922
0.024207
12.3848
0.0296272
12.3764
0.0234657
12.3718
0.0165922
12.3688
0.0126789
12.3654
0.00158961
12.3617
0.0161472
12.3528
0.0121631
12.3498
0.0176361
12.3504
0.00411484
12.3601
-0.00978722
12.3693
-0.00885343
12.3762
-0.0238416
12.3855
-0.0319515
12.4091
-0.0613057
12.4369
-0.0666085
12.4526
-0.0230156
12.4426
0.032717
0.0864021
-1.49146
8.57486
-2.7314
5.90925
-5.18803
4.53135
-7.3984
3.30144
-7.86373
0.598689
-7.9619
0.168755
-7.98984
-0.0382197
-7.93494
-0.189865
-7.84129
-0.300871
-7.70119
-0.407861
-7.55381
-0.784421
-5.15315
-3.86305
-2.27765
-5.41539
1.22331
-11.5365
4.08445
-11.8702
6.80505
-9.88268
9.07734
-7.42398
10.655
-4.87951
11.5796
-2.75567
12.0539
-1.35535
12.2913
-0.601681
12.4167
-0.205759
12.4934
-0.00891131
12.5303
0.110063
12.5531
0.155891
12.5665
0.164127
12.577
0.150814
12.589
0.125499
12.6056
0.0944164
12.6272
0.0623336
12.6505
0.0433981
12.6688
0.0473673
12.677
0.0614396
12.6792
0.068337
12.6789
0.0629032
12.6778
0.0577656
12.6759
0.0520256
12.6738
0.0467149
12.6719
0.0413091
12.6699
0.0327289
12.6684
0.0317111
12.6658
0.026833
12.6636
0.0318655
12.6602
0.0268848
12.6577
0.0190616
12.6564
0.0140077
12.6541
0.00380238
12.6507
0.0195832
12.6435
0.0193448
12.6416
0.0196113
12.6463
-0.000603155
12.6598
-0.0232914
12.6748
-0.0238564
12.678
-0.0270546
12.6777
-0.0316193
12.6899
-0.0735333
12.7102
-0.0869495
12.7279
-0.0407231
12.7277
0.0329131
0.119105
-0.477687
9.05255
-0.973666
6.40523
-0.974332
4.53202
-3.78919
6.1163
-6.22061
3.0301
-7.54777
1.49591
-8.54795
0.961985
-9.34772
0.609916
-10.0641
0.415516
-10.7519
0.279949
-10.6828
-0.853511
-7.02902
-7.51686
-0.242873
-12.2015
2.61609
-14.3955
4.75946
-14.0136
6.93976
-12.063
8.89267
-9.37689
10.2716
-6.2584
11.0942
-3.57828
11.5693
-1.83043
11.8869
-0.919291
12.1093
-0.428229
12.2692
-0.168779
12.3963
-0.0170765
12.493
0.0592199
12.5672
0.0899104
12.6257
0.0923132
12.6752
0.0760395
12.7212
0.048409
12.7664
0.0171711
12.8095
0.000269764
12.8461
0.0107793
12.8686
0.0388968
12.8812
0.0557539
12.8897
0.0544376
12.8955
0.0519766
12.8993
0.0482234
12.9018
0.0441641
12.9036
0.0395144
12.9049
0.0313996
12.9057
0.0309785
12.9058
0.026704
12.9059
0.031789
12.905
0.0277633
12.9036
0.0204915
12.9014
0.0161656
12.8986
0.00660308
12.8949
0.0233378
12.8902
0.0240285
12.8895
0.0202934
12.8951
-0.00624118
12.9088
-0.0369278
12.9251
-0.0401915
12.9293
-0.0312466
12.9231
-0.025406
12.9275
-0.0779816
12.9401
-0.0995303
12.9572
-0.0578521
12.9709
0.0192675
0.152816
-0.0236028
9.07615
-0.395595
6.77722
-1.24765
5.38406
-2.156
7.02468
-4.30073
5.17482
-5.98439
3.17955
-7.1879
2.16551
-7.92292
1.34494
-8.09666
0.589238
-7.71328
-0.103405
-6.47441
-2.09238
-2.1739
-11.8174
1.49511
-15.8705
3.72489
-16.6253
5.38163
-15.6703
7.12724
-13.8086
8.74562
-10.9953
9.86646
-7.37924
10.5728
-4.28459
11.0898
-2.34742
11.5633
-1.39282
11.9118
-0.776764
12.1754
-0.432359
12.3792
-0.220841
12.5333
-0.0949433
12.6509
-0.0276627
12.7408
0.00240102
12.8122
0.00462202
12.8725
-0.0119122
12.928
-0.0382371
12.9803
-0.052117
13.0234
-0.0323192
13.0457
0.0166543
13.0539
0.0475043
13.0645
0.0438805
13.0727
0.0438115
13.079
0.0418562
13.0842
0.0389822
13.0887
0.035039
13.0928
0.0272892
13.0956
0.0281767
13.0981
0.0241945
13.1014
0.028455
13.1041
0.0250937
13.1049
0.0197197
13.1028
0.0182718
13.099
0.0103588
13.0974
0.0249599
13.0984
0.0230324
13.1021
0.0165455
13.1096
-0.0137174
13.1218
-0.0491602
13.137
-0.0553054
13.1475
-0.0418286
13.149
-0.0268751
13.148
-0.0769823
13.1487
-0.10019
13.161
-0.0702153
13.1665
0.0137841
0.157141
0.380346
8.6958
0.335386
6.82218
-0.490797
6.21021
-1.10334
7.63722
-2.61867
6.69017
-4.12953
4.69044
-5.26574
3.30171
-5.80573
1.88494
-5.53642
0.319944
-4.28366
-1.35615
-2.21395
-4.16208
1.23782
-15.2692
3.13498
-17.7677
4.60067
-18.091
5.83143
-16.9011
7.22626
-15.2034
8.54148
-12.3105
9.44909
-8.28685
10.1495
-4.98501
10.769
-2.96695
11.4452
-2.06898
11.9001
-1.23168
12.2274
-0.759686
12.4687
-0.462108
12.65
-0.276199
12.7866
-0.164304
12.8903
-0.101294
12.9711
-0.0761812
13.0366
-0.0773684
13.0898
-0.0914447
13.1322
-0.0944973
13.1599
-0.0600298
13.1757
0.000841676
13.1847
0.0384487
13.1917
0.0369453
13.2015
0.0339698
13.2114
0.0319166
13.2221
0.0282921
13.2325
0.0246629
13.24
0.0198144
13.245
0.0232011
13.2486
0.020509
13.2533
0.0238302
13.2549
0.0234168
13.2507
0.0239825
13.2404
0.0285736
13.2284
0.0223278
13.223
0.0304039
13.2199
0.0260764
13.2098
0.0266768
13.1605
0.0356164
13.0188
0.092524
12.8301
0.133396
12.6929
0.0953799
12.6356
0.030422
12.6028
-0.0442473
12.5764
-0.0737388
12.5551
-0.0489259
12.527
0.0419292
0.170617
0.53611
8.15969
0.953762
6.40453
0.679751
6.48421
0.489122
7.82782
-0.867719
8.04699
-2.17286
5.99558
-3.18034
4.30918
-3.56881
2.27339
-3.03217
-0.216699
-1.34054
-3.04779
0.998366
-6.501
3.30151
-17.5723
4.51501
-18.9812
5.23869
-18.8146
6.10602
-17.7684
7.22775
-16.3251
8.42996
-13.5127
9.09501
-8.9519
9.25809
-5.14809
10.9488
-4.65766
11.7596
-2.87976
12.1783
-1.65035
12.3835
-0.964926
12.496
-0.57459
12.5557
-0.335891
12.5829
-0.191474
12.5919
-0.110297
12.5909
-0.0752479
12.5845
-0.0709537
12.5733
-0.0803053
12.5597
-0.0808914
12.5464
-0.0466695
12.5323
0.0148828
12.5177
0.0530364
12.5013
0.0533604
12.4861
0.0491867
12.4729
0.0451231
12.4616
0.0396
12.4516
0.0346452
12.4408
0.0305442
12.4318
0.0322032
12.423
0.0293027
12.4175
0.0293642
12.412
0.0288822
12.4057
0.0303723
12.3992
0.0350349
12.3897
0.0318206
12.3844
0.0357039
12.3759
0.0346204
12.3568
0.0457894
12.3081
0.0843227
12.235
0.165608
12.1606
0.207737
12.1017
0.154333
12.0614
0.0707238
12.0242
-0.00702866
11.984
-0.0335356
11.9383
-0.00324525
11.901
0.0792478
0.184596
0.605916
7.55378
1.20378
5.80666
1.69726
5.99072
2.05556
7.46951
0.951256
9.15131
-0.22064
7.16748
-1.15949
5.24806
-1.54286
2.65677
-0.968563
-0.791014
0.994533
-5.0109
4.16939
-9.67585
5.17908
-18.582
5.38366
-19.1858
5.65307
-19.084
6.25845
-18.3738
7.19655
-17.2632
8.84569
-15.1619
11.6479
-11.7541
12.5037
-6.00391
12.4365
-4.59043
12.4334
-2.87669
12.4446
-1.66154
12.4442
-0.964568
12.4141
-0.544451
12.3623
-0.284086
12.2995
-0.128763
12.2336
-0.0443183
12.1671
-0.00877605
12.1052
-0.00902403
12.0472
-0.0223086
11.9906
-0.024307
11.9379
0.00604563
11.8999
0.052889
11.8678
0.0850531
11.8331
0.0881245
11.7988
0.0834645
11.7666
0.0773246
11.7363
0.0698877
11.7077
0.0632207
11.6805
0.0577037
11.6572
0.0555237
11.6365
0.0500646
11.6198
0.0459833
11.6061
0.0425743
11.5951
0.0414186
11.5876
0.0425859
11.5802
0.0391646
11.575
0.0409
11.5656
0.0440082
11.5468
0.064654
11.5153
0.115783
11.4895
0.191448
11.476
0.221192
11.4612
0.169205
11.44
0.0918876
11.4057
0.0272572
11.3615
0.0107337
11.3143
0.0438901
11.2765
0.117058
0.201053
0.687385
6.86639
1.27176
5.22228
1.99512
5.26737
2.78738
6.67722
2.55818
9.38052
1.66466
8.06098
0.726992
6.18576
0.197994
3.18579
0.544095
-1.13715
2.33869
-6.80548
5.12171
-12.4589
5.59739
-19.0577
5.73419
-19.3226
5.88664
-19.2365
6.34227
-18.8294
7.17147
-18.0924
8.67687
-16.6673
9.47608
-12.5533
11.4283
-7.95621
11.883
-5.04506
11.9541
-2.94783
11.9503
-1.65776
11.9126
-0.926782
11.8531
-0.484988
11.7807
-0.211639
11.7029
-0.0510311
11.6255
0.0331324
11.5516
0.0650655
11.4788
0.0638238
11.406
0.0504901
11.3353
0.0463435
11.2736
0.0677945
11.2233
0.1032
11.18
0.128273
11.1354
0.132764
11.0903
0.128573
11.046
0.121611
11.0028
0.113129
10.9611
0.104842
10.9219
0.0968873
10.8874
0.0900963
10.8569
0.0805373
10.8317
0.0712093
10.8116
0.0626166
10.7971
0.055948
10.7883
0.0513301
10.7823
0.045225
10.7785
0.0446936
10.772
0.0504715
10.7615
0.0752197
10.7523
0.125004
10.7594
0.184315
10.7783
0.202285
10.7877
0.159804
10.7795
0.100115
10.7515
0.0552401
10.7109
0.051381
10.6678
0.0870082
10.6334
0.151457
0.219731
0.72484
6.14155
1.43349
4.51363
2.49594
4.20492
3.4185
5.75466
4.03973
8.7593
3.43685
8.66388
2.47747
7.14512
1.7285
3.93477
1.67392
-1.08259
3.08841
-8.21994
5.75706
-15.1276
5.84923
-19.1499
5.88104
-19.3544
5.984
-19.3395
6.34557
-19.191
7.13193
-18.8788
8.06716
-17.6025
8.73915
-13.2252
9.61213
-8.82922
10.185
-5.61787
10.5347
-3.29761
10.7279
-1.8509
10.8128
-1.01166
10.8385
-0.510725
10.8324
-0.205515
10.8085
-0.0271844
10.7737
0.0679707
10.7315
0.10727
10.6823
0.113042
10.6271
0.105685
10.5692
0.104177
10.5156
0.121431
10.4692
0.149544
10.4268
0.170718
10.3822
0.177338
10.3351
0.17565
10.2866
0.170138
10.2375
0.16226
10.1891
0.153218
10.1431
0.142905
10.1016
0.131551
10.0651
0.117012
10.0349
0.101457
10.0115
0.0859886
9.99557
0.0718844
9.98702
0.0598791
9.98328
0.048965
9.9832
0.0447794
9.98384
0.0498406
9.98651
0.0725482
9.99809
0.11343
10.0263
0.156077
10.0613
0.167306
10.0829
0.138276
10.083
0.10001
10.0618
0.0764182
10.0274
0.0857419
9.98982
0.124611
9.95811
0.183165
0.239975
0.727925
5.41363
1.47456
3.767
2.74202
2.93746
3.97145
4.52523
5.32835
7.40239
5.05543
8.93681
4.07535
8.12519
3.12644
4.88372
2.70764
-0.663779
3.47194
-8.98427
6.02986
-17.6855
5.99115
-19.1112
5.9274
-19.2906
6.00559
-19.4177
6.27073
-19.4561
6.68859
-19.2967
7.29533
-18.2093
7.43524
-13.3651
7.86942
-9.26346
8.31677
-6.06524
8.74978
-3.73062
9.08523
-2.18634
9.31215
-1.2386
9.46402
-0.662597
9.56772
-0.309204
9.63736
-0.0968331
9.68185
0.0234768
9.70491
0.0842142
9.70944
0.108514
9.6981
0.117002
9.67548
0.126789
9.6487
0.148211
9.62174
0.176494
9.59289
0.199556
9.55857
0.211656
9.51844
0.21579
9.47369
0.214878
9.42591
0.210027
9.37726
0.201869
9.33004
0.190126
9.28675
0.174839
9.24868
0.155077
9.21743
0.132705
9.19415
0.109277
9.17954
0.0864901
9.17354
0.065883
9.17422
0.0482814
9.18053
0.0384779
9.19107
0.0393055
9.2079
0.0557257
9.23572
0.0856129
9.2762
0.115605
9.31807
0.125443
9.34465
0.111695
9.3494
0.0952603
9.33346
0.0923553
9.30432
0.114884
9.27064
0.158295
9.24006
0.213746
0.261647
0.761991
4.65163
1.35063
3.17836
2.01432
2.27377
3.5759
2.96364
5.52806
5.45023
6.13902
8.32588
5.3398
8.92442
4.2862
5.93731
3.75307
-0.130631
4.4537
-9.68488
5.84396
-19.0757
5.88157
-19.1488
5.88977
-19.2988
5.97962
-19.5075
6.16162
-19.6381
6.2898
-19.4248
6.3586
-18.2781
6.16197
-13.1684
6.29742
-9.39892
6.60479
-6.3726
6.9768
-4.10262
7.33068
-2.54023
7.63151
-1.53942
7.88263
-0.913711
8.09212
-0.518711
8.26426
-0.268973
8.40178
-0.114039
8.50732
-0.0213132
8.58287
0.0329489
8.632
0.0678674
8.6601
0.0986942
8.67421
0.134085
8.67896
0.171726
8.67454
0.203973
8.65953
0.226668
8.63434
0.24098
8.60074
0.248475
8.5611
0.249661
8.51834
0.244631
8.47544
0.233023
8.43535
0.214922
8.40015
0.190271
8.3719
0.160964
8.35213
0.12905
8.34175
0.0968689
8.34082
0.066814
8.34807
0.0410371
8.36269
0.0238635
8.38393
0.0180715
8.413
0.0266514
8.45161
0.0470093
8.49758
0.0696482
8.54043
0.0825988
8.5673
0.0848235
8.57322
0.0893417
8.55955
0.106025
8.53291
0.141531
8.50083
0.190371
8.47005
0.244524
0.284693
0.781488
3.87015
1.28385
2.676
1.67125
1.88637
2.56853
2.06636
4.35974
3.65901
5.89268
6.79295
5.80831
9.00878
4.89078
6.8548
4.28683
0.473294
5.7156
-11.1136
5.76077
-19.1209
5.77643
-19.1644
5.81278
-19.3352
5.92002
-19.6147
6.02912
-19.7472
6.05992
-19.4556
5.51924
-17.7374
5.20961
-12.8588
5.11214
-9.30146
5.21334
-6.4738
5.42085
-4.31013
5.67793
-2.79729
5.95808
-1.81956
6.24543
-1.20107
6.52381
-0.797101
6.77911
-0.52427
7.00239
-0.337319
7.18951
-0.208451
7.33989
-0.117423
7.45576
-0.0480052
7.54199
0.0124578
7.60491
0.0711494
7.64932
0.12731
7.67689
0.176406
7.68802
0.215532
7.68414
0.244853
7.66776
0.264855
7.64202
0.2754
7.61052
0.27613
7.57687
0.266667
7.54452
0.247266
7.51624
0.218552
7.49453
0.18268
7.48128
0.1423
7.4776
0.100542
7.48373
0.0606948
7.49881
0.02596
7.52209
0.000588795
7.55266
-0.0124996
7.59033
-0.0110118
7.63427
0.00306987
7.68041
0.0235245
7.71985
0.0431641
7.74332
0.0613452
7.74742
0.0852457
7.73358
0.119865
7.70728
0.167836
7.67479
0.222866
7.64219
0.277119
0.309481
0.736534
3.13361
1.18438
2.22815
1.48777
1.58297
2.05949
1.49464
3.10097
2.61753
4.51478
5.37916
5.26123
8.26234
4.78075
7.33529
3.98232
1.27175
6.15471
-13.286
5.80334
-18.7696
5.69132
-19.0524
5.72883
-19.3727
5.83685
-19.7228
5.87345
-19.7838
5.85975
-19.4419
4.83784
-16.7155
4.49324
-12.5142
4.25521
-9.06345
4.14696
-6.36554
4.14639
-4.30956
4.23461
-2.88552
4.41319
-1.99815
4.66755
-1.45543
4.96325
-1.09279
5.26582
-0.826836
5.55119
-0.622693
5.80569
-0.462965
6.0232
-0.334937
6.20268
-0.227497
6.34683
-0.131705
6.46052
-0.0425484
6.54784
0.0399815
6.61135
0.112892
6.6528
0.174076
6.67456
0.223093
6.67982
0.259589
6.67238
0.282844
6.65638
0.292127
6.63595
0.287085
6.61501
0.268206
6.59688
0.236694
6.58442
0.195136
6.57981
0.146903
6.58432
0.0960272
6.59826
0.0467665
6.62093
0.00329822
6.65137
-0.0298499
6.68812
-0.049245
6.72978
-0.0526711
6.77403
-0.0411664
6.81627
-0.0187143
6.84949
0.00994976
6.8672
0.043629
6.8672
0.0852492
6.85089
0.136184
6.82262
0.196105
6.78765
0.257838
6.75179
0.312968
0.336231
0.609486
2.52413
0.998563
1.83908
1.25652
1.32502
1.52251
1.22865
2.08888
2.05116
3.12245
4.34561
4.38541
6.99941
4.33585
7.38487
3.65055
1.95706
5.88196
-15.5174
5.6761
-18.5637
5.5873
-18.9636
5.64853
-19.4339
5.74748
-19.8217
5.73925
-19.7756
5.65651
-19.3592
4.57266
-15.6317
3.98202
-11.9235
3.59752
-8.67894
3.3208
-6.08882
3.12993
-4.11869
3.03035
-2.78594
3.05927
-2.02707
3.22405
-1.62022
3.48525
-1.35399
3.79263
-1.13422
4.10768
-0.937745
4.40621
-0.761485
4.6748
-0.603534
4.90741
-0.460117
5.10318
-0.327489
5.26424
-0.20362
5.39351
-0.0892889
5.49351
0.0128807
5.56677
0.100813
5.61629
0.173574
5.64581
0.230073
5.65951
0.26914
5.66191
0.28972
5.6575
0.291494
5.65049
0.275215
5.64458
0.242611
5.64288
0.196822
5.64774
0.142044
5.66046
0.0833046
5.6813
0.0259385
5.70964
-0.0250391
5.74411
-0.0643171
5.78283
-0.0879686
5.82368
-0.0935064
5.86373
-0.0812156
5.89881
-0.053787
5.92368
-0.0149182
5.93395
0.0333623
5.92824
0.0909603
5.9078
0.156628
5.87597
0.22793
5.8372
0.296613
5.79713
0.353034
0.364871
0.44414
2.07999
0.745442
1.53777
0.921564
1.1489
1.025
1.12522
1.2383
1.83785
1.91942
3.66448
2.91903
5.99979
2.579
7.72487
3.25329
1.28273
5.38669
-17.6508
5.39837
-18.5754
5.45901
-19.0242
5.57231
-19.5472
5.6547
-19.9041
5.65542
-19.7763
5.25844
-18.9622
4.24219
-14.6155
3.51241
-11.1937
3.02934
-8.19588
2.6479
-5.70738
2.32115
-3.79193
2.05845
-2.52324
1.92522
-1.89384
1.96387
-1.65888
2.14574
-1.53586
2.4148
-1.40329
2.72294
-1.24589
3.03668
-1.07522
3.33465
-0.901511
3.60445
-0.72992
3.84044
-0.563489
4.04131
-0.404504
4.20789
-0.255866
4.34181
-0.121053
4.44594
-0.00331456
4.5232
0.0963178
4.57771
0.17556
4.61379
0.233063
4.63603
0.267468
4.64905
0.278477
4.65714
0.267127
4.66412
0.235628
4.6732
0.187735
4.68672
0.128519
4.70599
0.0640357
4.7311
0.000841074
4.76152
-0.0554579
4.79564
-0.0984392
4.83151
-0.123837
4.86689
-0.128875
4.89904
-0.113367
4.9246
-0.0793439
4.93987
-0.0301818
4.94188
0.0313516
4.92978
0.103068
4.90455
0.181854
4.86857
0.263906
4.82565
0.339535
4.78097
0.397709
0.39494
0.266706
1.81328
0.434769
1.36971
0.493636
1.09003
0.603205
1.01565
1.09115
1.34991
2.13485
2.6208
2.84544
5.28921
3.03151
7.53879
4.34375
-0.0295059
5.26265
-18.5697
5.26368
-18.5764
5.33777
-19.0983
5.48921
-19.6987
5.53918
-19.9541
5.47995
-19.7171
4.59961
-18.0819
3.77677
-13.7926
3.07199
-10.489
2.53487
-7.65875
2.08921
-5.26173
1.68105
-3.38378
1.30586
-2.14805
1.03285
-1.62083
0.933128
-1.55915
0.999824
-1.60256
1.18739
-1.59085
1.44818
-1.50669
1.74322
-1.37026
2.04357
-1.20187
2.32962
-1.01598
2.59004
-0.82392
2.81923
-0.633697
3.01512
-0.451758
3.1779
-0.283841
3.30904
-0.134448
3.41222
-0.00686162
3.4906
0.0971774
3.54858
0.175085
3.59054
0.225499
3.6209
0.248118
3.64374
0.244289
3.66272
0.216645
3.68091
0.169534
3.70055
0.108873
3.72283
0.0417585
3.74821
-0.0245318
3.77584
-0.0830865
3.80466
-0.127256
3.83304
-0.152208
3.85917
-0.155006
3.88096
-0.135154
3.89591
-0.0942883
3.90143
-0.0356996
3.89548
0.0373126
3.87736
0.121183
3.8478
0.211406
3.80816
0.30354
3.762
0.385702
3.71299
0.446719
0.425472
0.0847797
1.7285
0.133009
1.32148
0.183114
1.03993
0.321585
0.877177
0.597529
1.07397
1.17803
2.04029
1.96847
4.49878
1.25926
8.24801
5.8442
-4.61446
5.16942
-17.8949
5.07841
-18.4854
5.21291
-19.2328
5.3909
-19.8767
5.4343
-19.9975
5.38046
-19.6632
4.13993
-16.8413
3.41007
-13.0628
2.71168
-9.79057
2.1229
-7.06996
1.62791
-4.76673
1.17911
-2.93498
0.757693
-1.72663
0.416468
-1.2796
0.208038
-1.35072
0.141558
-1.53607
0.20039
-1.64968
0.360612
-1.66691
0.589752
-1.59942
0.854204
-1.46633
1.127
-1.28878
1.38968
-1.08661
1.63089
-0.874909
1.84425
-0.66512
2.02724
-0.466833
2.17995
-0.287154
2.30418
-0.131087
2.40356
-0.00221209
2.4811
0.0975458
2.54095
0.165658
2.58695
0.202113
2.62259
0.208643
2.65106
0.188168
2.67509
0.145494
2.69683
0.08714
2.71746
0.0211265
2.73792
-0.0449788
2.75791
-0.103084
2.77709
-0.146433
2.79466
-0.16977
2.80956
-0.169901
2.82037
-0.145961
2.82524
-0.0991609
2.82216
-0.0326102
2.8097
0.0497812
2.78702
0.143853
2.7547
0.243717
2.71298
0.345253
2.66616
0.432523
2.61415
0.498737
0.454792
-0.0242723
1.75277
-0.0698221
1.36703
-0.0696562
1.03976
-0.0459919
0.853513
0.0414204
0.986554
0.317945
1.76376
0.986167
3.83055
-0.17303
9.40721
5.5018
-10.2893
4.79786
-17.191
4.90244
-18.59
5.12797
-19.4583
5.30164
-20.0503
5.32711
-20.0229
5.23837
-19.5745
4.03198
-15.6349
3.12127
-12.1521
2.38796
-9.05726
1.76561
-6.44762
1.23892
-4.24003
0.777876
-2.47394
0.38476
-1.33351
0.13883
-1.03368
-0.0351204
-1.17678
-0.210683
-1.36051
-0.343632
-1.51674
-0.373678
-1.63686
-0.296877
-1.67622
-0.139545
-1.62366
0.0674099
-1.49575
0.296095
-1.3153
0.523321
-1.10214
0.735513
-0.877314
0.925329
-0.656643
1.08965
-0.451474
1.22832
-0.269763
1.34262
-0.116508
1.4354
0.00477209
1.50916
0.0918914
1.56731
0.14397
1.61218
0.163762
1.64625
0.154091
1.67179
0.119945
1.69099
0.0679368
1.70564
0.00648299
1.71713
-0.0564618
1.72635
-0.112301
1.73409
-0.154174
1.74043
-0.176108
1.74489
-0.174358
1.74645
-0.147514
1.74357
-0.0962831
1.73417
-0.0231994
1.71786
0.0660885
1.69318
0.168531
1.66116
0.275726
1.62044
0.385964
1.57841
0.474553
1.52765
0.549507
0.480342
-0.0680949
1.82087
-0.191708
1.49064
-0.289682
1.13773
-0.378498
0.942327
-0.464578
1.07263
-0.524161
1.82335
0.0785959
3.2278
1.44945
8.03634
4.62616
-13.466
4.7191
-17.2839
4.86888
-18.7398
5.09616
-19.6856
5.22655
-20.1807
5.25691
-20.0533
4.74505
-19.0626
3.66402
-14.5539
2.75187
-11.2399
2.03804
-8.34342
1.42656
-5.83614
0.897093
-3.71056
0.442927
-2.01978
0.134535
-1.02512
0.00391927
-0.903059
-0.0902213
-1.08264
-0.202908
-1.24782
-0.34139
-1.37826
-0.512945
-1.46532
-0.665699
-1.52347
-0.732482
-1.55688
-0.692492
-1.53575
-0.575378
-1.43242
-0.416317
-1.26121
-0.241906
-1.05172
-0.0698773
-0.828664
0.0893472
-0.610697
0.230219
-0.410639
0.350921
-0.237209
0.451436
-0.0957399
0.532723
0.0106038
0.597748
0.078941
0.646831
0.114672
0.681791
0.119121
0.704735
0.0969965
0.718387
0.0542888
0.726627
-0.00175116
0.729442
-0.0592725
0.730252
-0.113107
0.730199
-0.154118
0.7295
-0.175408
0.727711
-0.172569
0.723853
-0.143657
0.716853
-0.089279
0.704996
-0.011339
0.689179
0.0819033
0.667426
0.190274
0.64261
0.300532
0.611576
0.416993
0.587857
0.498274
0.555829
0.581539
0.495627
-0.107815
1.92868
-0.291843
1.67467
-0.47372
1.31961
-0.650349
1.11896
-0.814484
1.23677
-1.05242
2.06128
-1.5545
3.72987
2.75248
3.72937
4.32735
-15.0409
4.63788
-17.5945
4.82705
-18.929
5.04111
-19.8997
5.11262
-20.2523
5.04829
-19.989
4.0268
-18.0411
3.19138
-13.7185
2.38828
-10.4368
1.70494
-7.66009
1.11226
-5.24346
0.596744
-3.19504
0.176682
-1.59972
-0.0167722
-0.83167
-0.0681315
-0.8517
-0.144095
-1.00667
-0.244008
-1.14791
-0.355373
-1.26689
-0.46486
-1.35584
-0.580488
-1.40784
-0.718653
-1.41872
-0.859079
-1.39533
-0.952211
-1.33929
-0.971494
-1.24193
-0.923106
-1.10011
-0.831535
-0.920228
-0.72033
-0.721903
-0.605734
-0.525235
-0.497566
-0.345373
-0.400927
-0.192378
-0.317366
-0.0729596
-0.248401
0.00997152
-0.192745
0.0590081
-0.149067
0.0754362
-0.116494
0.0644228
-0.0938436
0.0316426
-0.0812168
-0.0143725
-0.0755359
-0.0649487
-0.0753142
-0.113323
-0.0787455
-0.150682
-0.0842238
-0.169929
-0.0905628
-0.166233
-0.0969955
-0.137226
-0.103084
-0.0831886
-0.108188
-0.00623507
-0.110442
0.0841517
-0.1101
0.189922
-0.100439
0.290863
-0.0831796
0.39973
-0.0454944
0.46059
0.0053033
0.530742
0.467194
-0.290808
2.21949
-0.395575
1.77944
-0.608373
1.53241
-0.900369
1.41095
-1.10896
1.44536
-1.14486
2.09719
-0.599502
3.18451
1.80486
1.32499
3.53332
-16.7693
4.27639
-18.3375
4.69021
-19.3428
4.9398
-20.1493
5.01117
-20.3236
4.99999
-19.9778
3.72645
-16.7676
2.90595
-12.898
2.11479
-9.64567
1.42429
-6.96959
0.835834
-4.65501
0.336643
-2.69585
-0.0180048
-1.24507
-0.112909
-0.736762
-0.136607
-0.828001
-0.193592
-0.949681
-0.271556
-1.06995
-0.36464
-1.17382
-0.467315
-1.25317
-0.571757
-1.3034
-0.669574
-1.32091
-0.761569
-1.30333
-0.851162
-1.24969
-0.931345
-1.16174
-0.987126
-1.04432
-1.00608
-0.901267
-0.986974
-0.741013
-0.936971
-0.575236
-0.865971
-0.41637
-0.783143
-0.275206
-0.696373
-0.159733
-0.611895
-0.0745118
-0.533273
-0.0196193
-0.464562
0.00672234
-0.408203
0.00806507
-0.366884
-0.00967176