/*--------------------------------*- C++ -*----------------------------------*\
| =========                 |                                                 |
| \\      /  F ield         | OpenFOAM: The Open Source CFD Toolbox           |
|  \\    /   O peration     | Version:  v1606+                                |
|   \\  /    A nd           | Web:      www.OpenFOAM.com                      |
|    \\/     M anipulation  |                                                 |
\*---------------------------------------------------------------------------*/
FoamFile
{
    version     2.0;
    format      ascii;
    class       surfaceVectorField;
    location    "4.7";
    object      ddt0(Uf);
}
// * * * * * * * * * * * * * * * * * * * * * * * * * * * * * * * * * * * * * //

dimensions      [0 1 -2 0 0 0 0];

internalField   nonuniform List<vector> 
33146
(
(-0.00481808120362 -0.00315656156841 0.0041129660389)
(-0.00228902623949 -0.00656817235649 0.00408304635502)
(-0.00251079705746 -0.00339429129175 0.00760067103988)
(-0.010020124742 -0.00300381944581 0.00407764578835)
(-0.00734756314273 -0.00613779407887 0.00451184247059)
(-0.0075525799023 -0.00334768752122 0.00757070923385)
(-0.0152424842857 -0.00304920660658 0.00404282898282)
(-0.0127809049092 -0.00599063959762 0.00457044299673)
(-0.0127583440917 -0.00334186229592 0.0074849909826)
(-0.0201796663165 -0.00327962230243 0.00402602806705)
(-0.0180815272275 -0.00627858383721 0.00453245196189)
(-0.0178427862153 -0.00349716394419 0.00748303825416)
(-0.0246646610551 -0.00364880203314 0.00401101035503)
(-0.0229923214782 -0.00685002550915 0.00443682093259)
(-0.0225699245649 -0.0037731704315 0.00754959634004)
(-0.0284719932562 -0.00412587102947 0.00400404187998)
(-0.0273040806493 -0.00773000356599 0.00434825805587)
(-0.0267344461323 -0.0041657632397 0.00767704407813)
(-0.0313599734267 -0.00468145061906 0.00402429453253)
(-0.0307488106996 -0.00879961013581 0.00430417251356)
(-0.0301072814373 -0.00465145275509 0.00778576866955)
(-0.033167522929 -0.00524347276922 0.00401878347839)
(-0.0331161342717 -0.0100032904726 0.00427662740492)
(-0.03248691833 -0.00520230933668 0.00788101094341)
(-0.0339196382702 -0.0057515629826 0.00400878272053)
(-0.0343568226751 -0.0110540727156 0.00415862831527)
(-0.0338225377882 -0.00570424724177 0.00788497647368)
(-0.0337946143542 -0.00613433141252 0.00395062245104)
(-0.0344940398589 -0.0119035668212 0.00411396891481)
(-0.0341035215913 -0.00610194079186 0.00786898300387)
(-0.0330274519649 -0.0063446078093 0.00386376697892)
(-0.0338947718942 -0.012525482323 0.00391483736852)
(-0.0336227902896 -0.00633877385549 0.00785250115089)
(-0.031346399809 -0.00673073580007 0.00390720901774)
(-0.0327574194829 -0.0126991733529 0.0036417843052)
(-0.0322780534054 -0.0065207432668 0.00735249585303)
(-0.030288802297 -0.0072439116026 0.00365581446761)
(-0.0314826250124 -0.0129551749308 0.00340687082098)
(-0.0310934542466 -0.00728348731364 0.00793044278426)
(-0.0283814327729 -0.00738134123629 0.00328481520045)
(-0.0295879198283 -0.0121544991759 0.00318825077986)
(-0.0296810286405 -0.00731516941181 0.00681646205084)
(-0.0250890243357 -0.00730468091721 0.00315347154753)
(-0.0267576582027 -0.0131855369985 0.00297796557594)
(-0.0269193433138 -0.00717180826797 0.00657612996902)
(-0.0210527007496 -0.00728182397722 0.00299727446853)
(-0.0231491681127 -0.0135073659502 0.00278307650339)
(-0.0232670936376 -0.00712112689898 0.00630469381333)
(-0.0163457635424 -0.00725648664807 0.00281853841091)
(-0.0187626393812 -0.0137096584508 0.00258669348831)
(-0.0188988335301 -0.00711132774052 0.00600688779556)
(-0.011081918009 -0.0071524979589 0.00265852823683)
(-0.0136822237405 -0.013730035326 0.00240879853937)
(-0.0138991374268 -0.0070821610371 0.00565736451183)
(-0.00546858875363 -0.00697747156963 0.00256159472256)
(-0.00813397702981 -0.0137790572128 0.00231980877116)
(-0.00840834336384 -0.00695703055049 0.00546230726265)
(-0.00265195897516 -0.0135134678201 0.00254449119772)
(-0.00285267067432 -0.00683387122452 0.00537903173611)
(-0.00435874099745 -0.0098723008768 0.00448192278671)
(-0.00213908126325 -0.013347462421 0.00398055498198)
(-0.00251811665794 -0.0101426667213 0.00743591005407)
(-0.00997167292697 -0.00973629798236 0.0050046586233)
(-0.00723408781428 -0.0132317925914 0.00496156831193)
(-0.00764819336936 -0.0101381726907 0.00848202723715)
(-0.0156337860333 -0.00996349770704 0.00506033771341)
(-0.0130679833128 -0.0134304448474 0.00515404798604)
(-0.0131279779245 -0.0102549708669 0.00872937647579)
(-0.0209189656112 -0.0105931988524 0.00494485047798)
(-0.0188184488718 -0.0140010782134 0.00506515263929)
(-0.0185840920846 -0.0107196662055 0.00861887255899)
(-0.0257676037103 -0.0116255138177 0.0047788476737)
(-0.0241866791894 -0.015110751017 0.00484057445159)
(-0.0236683139716 -0.0115407891983 0.00865489568977)
(-0.0297894183179 -0.0130044601465 0.00465656486743)
(-0.0288496395032 -0.0166791538386 0.00467847926631)
(-0.028106735172 -0.0126902720616 0.00858584905423)
(-0.0327540266273 -0.0146240533839 0.00456514392481)
(-0.0325148446009 -0.0187368122152 0.00460080967027)
(-0.0316579743877 -0.0141425580225 0.00861008178853)
(-0.0344679072811 -0.0162248294272 0.00442530519743)
(-0.0348980335915 -0.0210297581201 0.00452235215349)
(-0.0340860421006 -0.0157646733488 0.00856434492663)
(-0.0350264621302 -0.017603490072 0.00427280102007)
(-0.0358401534207 -0.0230148665925 0.00439371694726)
(-0.0352462298625 -0.017168993627 0.00844383386452)
(-0.0346826947219 -0.0184482294773 0.00408709944803)
(-0.0354830818492 -0.0246948625083 0.00444872029643)
(-0.0353106840436 -0.0181752396378 0.008396038624)
(-0.0334800402205 -0.0185069305138 0.00370645826339)
(-0.0341150114643 -0.0249238498505 0.00384948272001)
(-0.0346231352847 -0.0187378584948 0.00753761730581)
(-0.0327782671245 -0.0190238721256 0.00315055986423)
(-0.0333693586766 -0.0239222214538 0.00306490556718)
(-0.033751966913 -0.0186384577536 0.00704475941015)
(-0.0311912277307 -0.0199282327677 0.0029297272714)
(-0.0324386368258 -0.0237457830914 0.00303624764556)
(-0.0323768175339 -0.019712624883 0.0060979625647)
(-0.0282475001154 -0.0201791077804 0.00287131246014)
(-0.0298601790628 -0.0251247377028 0.00285347901691)
(-0.0300157090506 -0.0199940259493 0.00659093724837)
(-0.0251016680523 -0.02025157405 0.00260831923743)
(-0.0268500399663 -0.0257885396753 0.00251519561704)
(-0.0271138383112 -0.0200238648632 0.00616520597885)
(-0.0211215806607 -0.0203773036698 0.00237425710311)
(-0.0233082440625 -0.0262136797548 0.00225786410634)
(-0.0235310336581 -0.0201377086298 0.00570410857198)
(-0.0163313076935 -0.0204895121207 0.00217759996501)
(-0.0189144307262 -0.0265244504213 0.00205288202055)
(-0.0191153118977 -0.0202833332689 0.00530203634123)
(-0.0108140326391 -0.0204651070201 0.0020701596395)
(-0.0136648380691 -0.0266762104881 0.00191964817773)
(-0.0139607567373 -0.0203902027765 0.00495532671156)
(-0.00507915208351 -0.0202980547784 0.00230270524632)
(-0.00793038894298 -0.0267860704545 0.00193439678523)
(-0.0084102624544 -0.0203063735758 0.0048666183622)
(-0.00251097471898 -0.0267151530351 0.00253158799124)
(-0.00285883146653 -0.0201713792881 0.00542976458128)
(-0.00423228248199 -0.016720024536 0.00446021316582)
(-0.00216207570589 -0.0198827467398 0.00385410300498)
(-0.00251704339571 -0.0168050329306 0.00718729592296)
(-0.0101999674954 -0.0169160710208 0.00511116367572)
(-0.00743055740481 -0.0201285382164 0.00491756123232)
(-0.00778470912735 -0.0170487480586 0.0085678053869)
(-0.0162953951941 -0.0174734059683 0.00516023681418)
(-0.0136996486542 -0.0206124022237 0.00514776461533)
(-0.0136313274664 -0.0174222532004 0.00874359346025)
(-0.0221266481643 -0.0185510157507 0.00496732781969)
(-0.0200395288004 -0.0216253607253 0.00497262322271)
(-0.0196047008457 -0.0182382045026 0.00874363828631)
(-0.0274192960063 -0.0202125770002 0.00475719601015)
(-0.0259772197789 -0.0231365310867 0.00467036124287)
(-0.0251776587667 -0.0195063349072 0.00865367269093)
(-0.0317859620051 -0.0224760487882 0.00464624725525)
(-0.0311200498934 -0.0255625497212 0.00454950581313)
(-0.0300195759096 -0.0213536326946 0.00877442782339)
(-0.0349608016029 -0.0252203416526 0.00458116695461)
(-0.0352012482757 -0.0286711317976 0.00455816010692)
(-0.0338506914901 -0.0237848987421 0.00884510172462)
(-0.0365324350931 -0.0280897845793 0.00450393758146)
(-0.0377172120028 -0.0322897666807 0.00455566820019)
(-0.0362202738258 -0.0265759211145 0.00875622458565)
(-0.0365903062264 -0.030353894595 0.00457865244182)
(-0.0379869220764 -0.0360263303902 0.00471971892668)
(-0.0368707313179 -0.0291185902997 0.00894385561872)
(-0.0349774529967 -0.0317977253118 0.00420692742948)
(-0.0368310110915 -0.0378397133188 0.00458224376824)
(-0.0363971124569 -0.0308161432341 0.00787155101236)
(-0.0326455705627 -0.0328897707743 0.00313717706531)
(-0.0352140034814 -0.0377210788512 0.00385329325974)
(-0.0348403960612 -0.0321156550879 0.00709940124271)
(-0.0341973051751 -0.032967186248 0.00278954536447)
(-0.0333598910452 -0.0306086616377 0.00397310134304)
(-0.0339188543649 -0.0328936065301 0.00540670964663)
(-0.031295478443 -0.0321985354897 0.00285260081894)
(-0.031540910588 -0.0369363157592 0.00292011544624)
(-0.0330249209456 -0.0322489503199 0.0067075392329)
(-0.0284826741649 -0.0319172014514 0.00247323095201)
(-0.0294450656909 -0.0376062572145 0.00237677843438)
(-0.0304800451615 -0.0317709131756 0.00609849626196)
(-0.0253145694919 -0.0321283794839 0.00216603932431)
(-0.0269580188316 -0.0378843631373 0.00207703227413)
(-0.0274655313865 -0.0318757999359 0.00545883565121)
(-0.021334499499 -0.0324518122197 0.00194203381052)
(-0.0235954824532 -0.0383489212884 0.00182820012479)
(-0.0238397789015 -0.0322127369287 0.00496439299776)
(-0.0164985578876 -0.0327763486312 0.00179711607614)
(-0.0192411160371 -0.0387872085867 0.00163836436143)
(-0.0193809642004 -0.0325847585296 0.00465060880447)
(-0.0108116157314 -0.0330268639708 0.00178428988242)
(-0.0139021184095 -0.039153307945 0.00156621614305)
(-0.0140770470712 -0.0329346197094 0.00442994230439)
(-0.00492812606027 -0.0331503562596 0.00216328641876)
(-0.00798263118989 -0.0394574281469 0.00170323415394)
(-0.00840831335471 -0.0331399631135 0.00452477349683)
(-0.00248450263483 -0.0396151996162 0.00243014549877)
(-0.00283909440336 -0.0332292477327 0.00532534408477)
(-0.00443691192222 -0.0231547919134 0.00431172765853)
(-0.00234302276616 -0.0258898995657 0.00370779392157)
(-0.0026486732361 -0.0230997231001 0.00696659748075)
(-0.0107739077166 -0.0235960091585 0.00495516147636)
(-0.00791553502923 -0.0263285664864 0.00471640615728)
(-0.00821246972234 -0.0235773477424 0.00826617455155)
(-0.0174494375543 -0.0244400088021 0.00496957206561)
(-0.014722980787 -0.0269876821615 0.00488574762076)
(-0.0145592386912 -0.0241944117423 0.00837486396826)
(-0.0239778944052 -0.0259076432349 0.00470316102237)
(-0.0217654117558 -0.0281874782105 0.00455808498538)
(-0.021138821479 -0.0252126657101 0.00830925941949)
(-0.0298067948651 -0.0281849247294 0.00451629647949)
(-0.0283727354264 -0.0301903550137 0.00437928020224)
(-0.0273009999943 -0.0267369677693 0.00835395346605)
(-0.0347037668451 -0.0313770654631 0.00454390292699)
(-0.0341278567223 -0.0334487404809 0.00447484352888)
(-0.0326944708377 -0.0291523996094 0.00859394902962)
(-0.0383501922423 -0.035323964413 0.00462479115072)
(-0.0389027817383 -0.0376789600623 0.00462259914984)
(-0.0370205684658 -0.0325538419869 0.00877123513282)
(-0.0398899286056 -0.0387068786818 0.00494423054982)
(-0.0407778909899 -0.0429833557938 0.00477242831705)
(-0.0394740465226 -0.0366840689701 0.00855628202911)
(-0.0380252179362 -0.0408303053174 0.00497509026645)
(-0.039726301548 -0.0495646746897 0.00385371368069)
(-0.0394486232312 -0.0396300746851 0.00826669021347)
(-0.0371264015119 -0.0424211057282 0.00437559486965)
(-0.0382206257607 -0.0512576507257 0.00285429051699)
(-0.0383354769915 -0.0419228327986 0.00880785202037)
(-0.0354723202437 -0.0434780122322 0.00409800562989)
(-0.0362203109111 -0.0510360970133 0.00122435557525)
(-0.0368601647215 -0.0440716352257 0.0081038744728)
(-0.0308911893401 -0.0433107496003 0.0034562305073)
(-0.0331913615353 -0.0479151504222 0.00197001341699)
(-0.0339723084041 -0.0441961528343 0.00855922721221)
(-0.0296325882906 -0.0428060758116 0.00246556219509)
(-0.0310404227342 -0.047697799599 0.00136421925983)
(-0.0312913909878 -0.0434134890756 0.00603002329274)
(-0.0282792547216 -0.0431188642935 0.00205094296559)
(-0.0297077638859 -0.0477868830667 0.00175754630804)
(-0.0296252613913 -0.0428528733682 0.00514997295315)
(-0.0255635074465 -0.0437537885597 0.00178433184651)
(-0.0275785277754 -0.0489082203707 0.00163040648199)
(-0.027509041554 -0.0433305564277 0.00454841557622)
(-0.0217270198151 -0.0443268703147 0.00155458906771)
(-0.0242419203697 -0.0498531651736 0.00139001989897)
(-0.0242073153684 -0.0439953726663 0.00411289444891)
(-0.0168915447779 -0.0448395089947 0.00141976708101)
(-0.0198377363288 -0.0505513852065 0.00119978125688)
(-0.0197890177942 -0.0445917285976 0.00386976880419)
(-0.0111042799604 -0.0453150859199 0.00148822065448)
(-0.0144122449597 -0.0511783902432 0.00117491719934)
(-0.0144010716563 -0.0451907616803 0.00379736731685)
(-0.00500877948047 -0.0456777644024 0.00197029721572)
(-0.00829562850381 -0.0516754695725 0.00140684795619)
(-0.00855536891042 -0.0456749897265 0.00400204886774)
(-0.00256432889632 -0.0520418004357 0.00218526774836)
(-0.0028750291402 -0.0459760236983 0.00494916288163)
(-0.00486337477068 -0.0288820413075 0.00411298988662)
(-0.00260302654453 -0.0311846113061 0.00354604143575)
(-0.00286280238844 -0.0287580565829 0.00674653416215)
(-0.01166772561 -0.0294872988982 0.00464789004829)
(-0.00862181007448 -0.0317110284938 0.00444351859522)
(-0.00887226134047 -0.0293639810423 0.00788334821953)
(-0.0190310349752 -0.0304515204959 0.00448420158433)
(-0.0160495405607 -0.0324219134824 0.00442225592513)
(-0.0158195428606 -0.0300610542095 0.00801034356577)
(-0.0262376634297 -0.0321087873695 0.00427480486128)
(-0.0238111973795 -0.0336820562612 0.00405462879846)
(-0.0230542200154 -0.0309591238323 0.0079629025156)
(-0.0327253797632 -0.0350082392117 0.00442763717555)
(-0.0312336155597 -0.0358175281462 0.00414726649098)
(-0.0299552670649 -0.0324665362431 0.00791594988749)
(-0.0383941990335 -0.039300443062 0.00467758397255)
(-0.0378667192563 -0.0398754011084 0.00456946307916)
(-0.0360364800092 -0.0353600605756 0.00835873674174)
(-0.042801730051 -0.0453036302266 0.00480042913063)
(-0.0440749997981 -0.0455942877027 0.00506046538061)
(-0.0411902043269 -0.0394023025855 0.00880226597887)
(-0.0405885040017 -0.0502809975085 0.00416099940549)
(-0.0448535217809 -0.0509217057768 0.00510942069225)
(-0.0428210830807 -0.0462326918263 0.00424018424397)
(-0.0393857833369 -0.0520374183047 0.00270703136166)
(-0.0411339608451 -0.0559740631462 0.00350407661005)
(-0.0415451916458 -0.0498757897541 0.00398695280176)
(-0.037889254087 -0.0511095420738 0.000724635680984)
(-0.0375344833603 -0.0561173212075 0.00231282164912)
(-0.0405053765081 -0.0515272201689 0.00261344159476)
(-0.0339417563371 -0.048834341162 -0.000125511013841)
(-0.034244336602 -0.0525132098087 0.00255062636315)
(-0.0370463455298 -0.0488899625282 -0.00182314596148)
(-0.0323859313902 -0.0486311847573 0.00030208514513)
(-0.0330484350547 -0.0510582304217 0.00318261960114)
(-0.0332841572853 -0.0470426603553 0.000496020562562)
(-0.0311283349333 -0.0513123536576 0.000833194854149)
(-0.0336379756431 -0.0519962538837 0.00278693412724)
(-0.0317203343715 -0.0484875305105 0.00109925835286)
(-0.029666824698 -0.0539340514509 0.00132401544765)
(-0.0321858025555 -0.056070071353 0.00202195864084)
(-0.0302987790724 -0.0525080469881 0.00333462590611)
(-0.026637265017 -0.0551057199702 0.00127253004945)
(-0.0287914421288 -0.059168133802 0.00113770748211)
(-0.02850205613 -0.0544309286278 0.00340504925673)
(-0.0226525498706 -0.0558128614936 0.00108501713834)
(-0.025212273982 -0.0608248353952 0.00080993057197)
(-0.0250999089436 -0.0553685412264 0.00316922854253)
(-0.0176118739452 -0.0564624359517 0.000986339360564)
(-0.020758932677 -0.0616975832081 0.000687460678387)
(-0.020557766595 -0.0561206958111 0.00289414462736)
(-0.0116635671248 -0.0571339089399 0.00110319352607)
(-0.0152175848304 -0.0625309054532 0.000712868064916)
(-0.0150275354034 -0.0569381918561 0.00291502596781)
(-0.00533500380832 -0.0577114698771 0.00162330844906)
(-0.00886070763567 -0.0632998224651 0.00100739529821)
(-0.00894672199759 -0.0576943904199 0.00330889827561)
(-0.00275449665117 -0.063912150654 0.00179121443551)
(-0.00298010891186 -0.0582071317853 0.00433691981712)
(-0.00541669140677 -0.0338096772405 0.00387720719048)
(-0.00287164482253 -0.0356819690235 0.00338902092661)
(-0.00312172517789 -0.0336624198386 0.00653003406983)
(-0.0127771955343 -0.0343972452415 0.00422216015725)
(-0.00940911744451 -0.0362136065336 0.00413214659406)
(-0.00966844708657 -0.0343020090978 0.0075303096604)
(-0.020818365589 -0.0352165279173 0.00401823422998)
(-0.0174337391236 -0.0367639521922 0.00395418951687)
(-0.0172494432911 -0.0347865640948 0.0076097729679)
(-0.0287971820973 -0.0368432006698 0.00400844177583)
(-0.0258686996782 -0.0376924880528 0.00374052944834)
(-0.0251791062572 -0.0352678223677 0.00741489598083)
(-0.0362978243829 -0.0403017574132 0.00443122240228)
(-0.0342263824647 -0.0400185058543 0.00406206970574)
(-0.0329535927365 -0.0364626307118 0.00759106178968)
(-0.0433793115422 -0.04549159984 0.00520432028923)
(-0.0419967713385 -0.0450479849269 0.0047112897573)
(-0.0397094044296 -0.0395819717189 0.00848516811604)
(-0.0497159559108 -0.0532616097042 0.00514245301868)
(-0.0503817945016 -0.0450976995254 0.00575559513655)
(-0.0472345587544 -0.0444281057751 0.00414553638957)
(-0.0441041025225 -0.0605371793541 0.00416007605869)
(-0.0507968187201 -0.0604600576401 0.00177233715126)
(-0.0484244767671 -0.0554572028917 0.00335393081856)
(-0.0395294874531 -0.0643405944534 0.00266535450454)
(-0.0443864710196 -0.0638473744656 -0.000691670388514)
(-0.0434795145584 -0.0615478266599 0.00318846033673)
(-0.0332419764289 -0.066840621904 0.00283282769881)
(-0.0397408316627 -0.0633785192244 -0.00304327857445)
(-0.0367822810735 -0.0659370169832 0.00163048088472)
(-0.0318378491325 -0.0690942392286 0.00364870214153)
(-0.0364393721777 -0.0619349835763 -0.0026126668154)
(-0.0322722082969 -0.0680127812255 0.00607412133574)
(-0.0344947208198 -0.0695160464693 0.00327182665617)
(-0.0338541517356 -0.0589800218403 -0.00268704511253)
(-0.0334155546362 -0.0713095591829 0.00729446501324)
(-0.0364455093571 -0.0673069638107 0.00237035574195)
(-0.0321947704325 -0.0612991393804 -0.00283576778331)
(-0.0364621752993 -0.0699294750137 0.00703727813326)
(-0.0312968423156 -0.0654094877837 0.00134121257979)
(-0.0309934287623 -0.0707192164579 -0.0018474573986)
(-0.0351667806999 -0.066180070555 0.00506327378161)
(-0.0275305465491 -0.0653699436474 0.000713095124769)
(-0.0292643592586 -0.0695684136163 -0.000411152869129)
(-0.0302334520696 -0.0649967564344 0.00264886548845)
(-0.0236219832723 -0.0662221926177 0.000518298823202)
(-0.026656464397 -0.0706019999496 -7.02387711519e-06)
(-0.0261180112509 -0.0656093376187 0.00204196592782)
(-0.0186062282359 -0.0671961356011 0.000476410100275)
(-0.0222613438337 -0.0717938464899 0.000104772155284)
(-0.0215861706597 -0.0666667822083 0.00187901580819)
(-0.0124639751566 -0.0681627471141 0.000637305136726)
(-0.016480113756 -0.0729711236444 0.000195488216963)
(-0.0159464933682 -0.0678270339671 0.00193466771699)
(-0.00579511304136 -0.068990077662 0.00118012357307)
(-0.00970567921069 -0.0740443255132 0.000521143130347)
(-0.00955903291652 -0.0689205939604 0.00235507379914)
(-0.00306111822208 -0.0748394101258 0.00126863766669)
(-0.00318526159517 -0.0696706662016 0.00335997543545)
(-0.00592426012706 -0.037912680169 0.00364429411951)
(-0.00310919562838 -0.0394266266311 0.00325003126816)
(-0.00336494006731 -0.0377948190172 0.00633251301148)
(-0.0137652301582 -0.0383256306226 0.00386786402592)
(-0.0101123934489 -0.039889516665 0.00384794541012)
(-0.0103948813788 -0.0383538080993 0.00723662254785)
(-0.0223499974318 -0.038790079826 0.00370130430572)
(-0.0185648769598 -0.0401220870116 0.00366125757172)
(-0.0185219737297 -0.038453174845 0.00723022387902)
(-0.0311968289205 -0.0401457758262 0.00386452554663)
(-0.0275699921319 -0.040541016123 0.00362316551695)
(-0.0271336181529 -0.038290851452 0.00709342032656)
(-0.0397571543156 -0.0437607559746 0.00445301743681)
(-0.036904036535 -0.0425892946916 0.00431184249873)
(-0.0359458259881 -0.0386405588665 0.00700703024924)
(-0.0493283687105 -0.0479333735853 0.00479924842533)
(-0.0451220335577 -0.0475064370603 0.00618224971641)
(-0.0441948843888 -0.0407706845741 0.00815184169516)
(-0.0562538005236 -0.0555698236613 0.00189705874214)
(-0.0566819805599 -0.0458860699995 0.0069994988005)
(-0.0552560617217 -0.0438736650149 0.00531753475076)
(-0.0488091982532 -0.0616893352395 -0.00247066434877)
(-0.055471144827 -0.0572505069349 -0.00160406919537)
(-0.0564341608351 -0.0570818033195 -0.00714239082924)
(-0.0453007242075 -0.0599608264288 -0.00557824739643)
(-0.0430579249304 -0.0561441554355 -0.00296230006836)
(-0.0491614894136 -0.0589303882848 -0.00722264368228)
(-0.0417202226688 -0.0562140676158 -0.00738944614368)
(-0.037119385506 -0.0489579436785 -0.00107982640034)
(-0.0448288617793 -0.0560149796726 -0.0120856191433)
(-0.0388372921042 -0.0535145985693 -0.00848122180258)
(-0.0352059863483 -0.0470519120474 -0.000750341260546)
(-0.0411178428979 -0.0539031658182 -0.0123155920642)
(-0.0309262375618 -0.0525889927119 -0.00834741149803)
(-0.0346728280981 -0.0481499375049 2.10505772245e-05)
(-0.0347882178955 -0.052539181937 -0.0140461028071)
(-0.0265826126759 -0.0589164284558 -0.00540629690745)
(-0.0377544070829 -0.0507387673893 0.000679796570599)
(-0.0271272319235 -0.0516081403256 -0.0122620340682)
(-0.0294855323908 -0.0679288813594 -0.00223644886312)
(-0.0379085637618 -0.065456925446 -0.00183882979259)
(-0.0260284913014 -0.0655002378197 -0.00354061551839)
(-0.0291035126158 -0.0722799370616 -0.00070507982782)
(-0.0331090162538 -0.0721141906752 -0.000666956844152)
(-0.0283157468789 -0.0702804306636 -0.000578112641985)
(-0.0257259918003 -0.075045893029 -0.000244426991004)
(-0.0298376848788 -0.0774808766035 -0.000485194328446)
(-0.0274812816162 -0.0736690962551 0.00040221129031)
(-0.0204660019502 -0.076838543311 -9.45323441514e-05)
(-0.0247337203122 -0.0804315669236 -0.000435174542961)
(-0.0233886475486 -0.0759459571854 0.000694339355374)
(-0.013786189873 -0.078220373818 0.00010841904511)
(-0.0183173631286 -0.0822654899303 -0.000361572152893)
(-0.0174535871539 -0.077713529829 0.000790398654053)
(-0.00654381839451 -0.0793045485076 0.000616901648029)
(-0.0108562298259 -0.0837358462561 -6.52003013776e-05)
(-0.0105168500289 -0.079196470176 0.00123181303972)
(-0.00347376530972 -0.0847404055689 0.000598817214512)
(-0.00351696908576 -0.0801900142213 0.00215599115158)
(-0.00639250306036 -0.0412291189751 0.00345565219213)
(-0.00331815994645 -0.042429429937 0.00311983828141)
(-0.00355902390549 -0.0411649739567 0.00615409234435)
(-0.0145556153894 -0.04147780322 0.00365118769957)
(-0.0106716998249 -0.0428120888692 0.00360968176731)
(-0.010927105857 -0.0416270789671 0.00697303212098)
(-0.0234692903748 -0.0415929578944 0.00362042445544)
(-0.0193424761797 -0.0428833812177 0.00348908347214)
(-0.0193448703569 -0.0414597312461 0.00707997090537)
(-0.0329569187749 -0.0426517510899 0.00413554318312)
(-0.0286697316463 -0.0428504380761 0.00361403026033)
(-0.0283004441864 -0.0407132049002 0.00712355227922)
(-0.0428650181101 -0.0462979095835 0.00603987882102)
(-0.0386024361642 -0.0449273584291 0.0047694036695)
(-0.0374769314346 -0.04020972436 0.00767678274713)
(-0.0515111131194 -0.0482619768772 0.00803846912686)
(-0.0466622921455 -0.0492780329331 0.00794772508913)
(-0.0456288022136 -0.0410561162907 0.00731731764521)
(-0.0615424813273 -0.0527464058119 0.00316879688806)
(-0.0608528609644 -0.0478230045429 0.00922157937889)
(-0.0612144003157 -0.0414541422681 0.00837940741002)
(-0.0452091800406 -0.057226382137 -0.00254340734005)
(-0.0581656814424 -0.0537138504095 -0.00218352185302)
(-0.0584268193778 -0.0520988653262 -0.0129956313604)
(-0.0357933279323 -0.0545881475823 -0.000333407193509)
(-0.0401535828247 -0.0560669039955 -0.0017920608529)
(-0.0389813371759 -0.0513606532241 -0.006571220997)
(-0.0279618354498 -0.0505361469397 0.00294203590293)
(-0.0328565816613 -0.0590640881788 8.49709748164e-05)
(-0.0308135744632 -0.0480832083449 0.00139203683077)
(-0.0332703828056 -0.0476335664209 0.00520207343245)
(-0.0323128237392 -0.0635909813371 0.000161340118636)
(-0.0301783615042 -0.0445499479313 0.0144033661188)
(-0.0382624073152 -0.0487170428003 0.00714722523497)
(-0.0366442029634 -0.0669429539163 0.001602715869)
(-0.0341353368243 -0.0434061378409 0.0157174450553)
(-0.0487951364914 -0.059867368269 0.00339409699686)
(-0.0488280813397 -0.0698775464356 0.00284505344621)
(-0.0481462800207 -0.0471890918367 0.0196856566174)
(-0.0411098314595 -0.0728588457186 -0.00126384563695)
(-0.0504054464428 -0.0773284630479 -0.00308281841174)
(-0.0501336191637 -0.0678355365766 0.000635721913128)
(-0.0346987219159 -0.0790244918321 -0.000836373660017)
(-0.039550125393 -0.0816996684098 -0.00169170129653)
(-0.03700487946 -0.0757693328685 -0.000187864812102)
(-0.029206996382 -0.0828499392988 -0.000668000282542)
(-0.0345545163364 -0.0853864778615 -0.00109133618412)
(-0.0321586560222 -0.0808455804456 -0.000295616605927)
(-0.0229351713224 -0.0853017189911 -0.000647189317769)
(-0.0281467226175 -0.0882583673622 -0.00103215896706)
(-0.0264173061782 -0.0841143638302 -0.000391138722391)
(-0.0155669767112 -0.0870971471124 -0.000508514229026)
(-0.0207104757282 -0.0903685261977 -0.00101182309124)
(-0.0195715315617 -0.0864526763544 -0.000355406899741)
(-0.00747597402279 -0.0884463142849 -7.68928134926e-05)
(-0.0123135424473 -0.0921354766994 -0.000774567646084)
(-0.0117989189096 -0.088324417024 -0.000125047361729)
(-0.00398131008364 -0.0933202672021 -0.000224373082533)
(-0.00395784632518 -0.0895296601195 0.000665498302086)
(-0.00679890591427 -0.0438096076931 0.00327695467592)
(-0.00350401751252 -0.0446682500731 0.00296419700699)
(-0.00371171844672 -0.0437807078102 0.00593645299133)
(-0.0151240341667 -0.0439398349334 0.0034570529174)
(-0.0111020964269 -0.0449991937896 0.003365705068)
(-0.0113223496339 -0.0442182891762 0.00665788512263)
(-0.0241239220579 -0.0438048039543 0.00351540398799)
(-0.0198239071885 -0.0449834277715 0.00330075719623)
(-0.0198534062622 -0.0439075076216 0.0067676366135)
(-0.0338029148848 -0.0448062950851 0.00429105621403)
(-0.0291742591092 -0.0446275007948 0.00347196461891)
(-0.0289569058997 -0.0428258115215 0.00695129675478)
(-0.0441042856662 -0.0478704773016 0.00656822488425)
(-0.0391546481851 -0.0467448367674 0.00480080870253)
(-0.038387167075 -0.0418101930752 0.00759607516612)
(-0.0526507425344 -0.0494426816827 0.00896499333002)
(-0.0475382040735 -0.0497500160676 0.00824005367731)
(-0.0467325403642 -0.0419966181728 0.00631065283017)
(-0.0640557972671 -0.0509978407013 0.00368882463818)
(-0.0627794949919 -0.0494240425727 0.00979887557943)
(-0.0640710547231 -0.0422399746133 0.00918751065556)
(-0.0480771896828 -0.0539667574833 -0.00195216949762)
(-0.0604541822035 -0.0496944778012 -0.00114319909549)
(-0.0610539059575 -0.0466827416143 -0.0135579686077)
(-0.0379225168141 -0.0562529593978 -0.00111826189934)
(-0.0422403782196 -0.0519858364217 0.00043352155899)
(-0.0411656793253 -0.0499186851517 -0.0102584219052)
(-0.0332524944238 -0.0600074405007 -0.00060008499207)
(-0.0363980598071 -0.0555769008334 0.000431022290714)
(-0.0354602350334 -0.0552361596107 -0.00563548229454)
(-0.0369510149736 -0.0649856423088 -0.000317536012459)
(-0.0369384827985 -0.0596751392113 0.0016003027586)
(-0.0350524571104 -0.0607017344484 -2.62263555621e-06)
(-0.0427814537897 -0.0700021426708 0.000617274028857)
(-0.0414950774265 -0.0665346028668 0.00134089835496)
(-0.0378362118438 -0.0672658823105 0.00473713825293)
(-0.0533395901471 -0.0760179684132 -0.000681884241225)
(-0.0540651381143 -0.0737924459194 0.00224775085246)
(-0.0512259927632 -0.072462158984 0.0114029015064)
(-0.0457906253568 -0.0817331874925 -0.00302781177891)
(-0.0559803565472 -0.0822553884355 -0.00445095244138)
(-0.0542164320719 -0.0792397310158 -0.00325902826586)
(-0.0401131259873 -0.0861420019596 -0.00179741961658)
(-0.0446675438741 -0.0874425088181 -0.00267882747709)
(-0.0415608751431 -0.0834089819486 -0.00208114769354)
(-0.0336703820105 -0.0898513251967 -0.00134365120878)
(-0.0393298238967 -0.0917009761447 -0.00186646098882)
(-0.0369766258999 -0.0877920332647 -0.00164499645223)
(-0.0261884317826 -0.0925447946428 -0.00132246964399)
(-0.0319616545443 -0.0947625839511 -0.00177458154762)
(-0.0302185800756 -0.0912689098034 -0.00176307343549)
(-0.0176733830537 -0.0945925446837 -0.00124441615746)
(-0.0234445881257 -0.0970672339955 -0.00179057994012)
(-0.022247364424 -0.0939032511493 -0.00182929248906)
(-0.00857401685953 -0.0961264168644 -0.000912696150443)
(-0.0139837126926 -0.0989613608957 -0.00163456575694)
(-0.0134074836041 -0.0960364671309 -0.00174669511246)
(-0.00456026736935 -0.100234770613 -0.00119943001462)
(-0.00450120921835 -0.0973746025552 -0.00115439578524)
(-0.00709438160735 -0.045643083854 0.00305863163282)
(-0.00366896304652 -0.0461259879178 0.00277187718253)
(-0.00385230647635 -0.0456389916429 0.00563311177445)
(-0.0154501576658 -0.0457250140498 0.00322147980647)
(-0.0114578286002 -0.0464467259833 0.00311242731887)
(-0.0116368618652 -0.0460556382686 0.00625381948457)
(-0.0244468422432 -0.0454650530362 0.00329128840725)
(-0.0201116364315 -0.0463944005322 0.0030778785427)
(-0.0201745101286 -0.0457239446935 0.0064232684478)
(-0.0339219327893 -0.0463750056042 0.00403657741785)
(-0.0291746829995 -0.0460320404606 0.00320233739727)
(-0.0292067455355 -0.0444838146314 0.00667232368385)
(-0.0445287754331 -0.0483462532273 0.00646358603083)
(-0.03853037544 -0.048121179292 0.00429473739936)
(-0.0384998062595 -0.0431348823238 0.0075910264866)
(-0.0532793685006 -0.049361440412 0.00918997204682)