/*--------------------------------*- C++ -*----------------------------------*\
| =========                 |                                                 |
| \\      /  F ield         | OpenFOAM: The Open Source CFD Toolbox           |
|  \\    /   O peration     | Version:  v1606+                                |
|   \\  /    A nd           | Web:      www.OpenFOAM.com                      |
|    \\/     M anipulation  |                                                 |
\*---------------------------------------------------------------------------*/
FoamFile
{
    version     2.0;
    format      ascii;
    class       volVectorField;
    location    "4.7";
    object      ddt0(rho,U);
}
// * * * * * * * * * * * * * * * * * * * * * * * * * * * * * * * * * * * * * //

dimensions      [1 -2 -2 0 0 0 0];

internalField   nonuniform List<vector> 
11640
(
(-2.39668176859 -3.27076847452 4.11686718694)
(-7.46307629291 -3.03097241978 4.09423289217)
(-12.6746413194 -2.96584163909 4.04636467176)
(-17.7674327816 -3.12063561493 4.02353370859)
(-22.3927796012 -3.4161323932 4.00120962074)
(-26.3430923752 -3.83490172708 3.96718120424)
(-29.5676833632 -4.35048009135 3.9683014729)
(-31.9271886993 -4.94670768895 4.01364518214)
(-33.3487322728 -5.48759038145 3.97438730036)
(-33.6732983019 -5.97492184507 4.00946038806)
(-33.3602831391 -6.26277985919 3.86885641119)
(-32.2063025362 -6.40160239668 3.84198417158)
(-30.9310095418 -7.037730044 3.95421491989)
(-29.4847779678 -7.42622223178 3.33572986056)
(-26.8481421791 -7.31035329933 3.20980452005)
(-23.1105470542 -7.27222630309 3.0760880975)
(-18.7035384165 -7.26482987024 2.90426230854)
(-13.7256857928 -7.22196652721 2.72230970317)
(-8.28248317166 -7.05728054114 2.58517246486)
(-2.74726503478 -6.87254399653 2.52879036219)
(-2.17311430822 -10.0062073933 4.03450334481)
(-7.20553590216 -9.70280101648 4.91318375852)
(-12.7894962931 -9.71016500226 5.06718819186)
(-17.9421095921 -10.0243236328 4.97112849611)
(-22.316815391 -10.7027103358 4.74100311605)
(-26.0354014551 -11.8440621495 4.57420055639)
(-29.2379135079 -13.4096769266 4.50940880056)
(-31.8300515982 -15.2178303604 4.45261825929)
(-33.4591386242 -16.8004513861 4.29346175726)
(-34.0751561941 -18.1358661961 4.1950929396)
(-33.8999186144 -18.612140987 3.95074882573)
(-33.4731871608 -18.3345262379 3.43266095365)
(-32.8258222243 -19.67716859 2.81814873558)
(-30.8531067542 -20.1274987905 2.94837397822)
(-27.7045966564 -20.138775613 2.65925914269)
(-23.7313134316 -20.2454277118 2.42518128462)
(-18.9482988322 -20.3979078098 2.23692683225)
(-13.6153336047 -20.4913644809 2.08219633462)
(-7.95620472911 -20.3622190975 2.04609027628)
(-2.5471105822 -20.1608158384 2.55102855)
(-2.09734610114 -16.6566574861 3.91227518174)
(-7.19959476405 -16.6802047687 4.97954888589)
(-12.8139020325 -16.7321221702 5.12930722966)
(-17.6315658281 -17.0011907899 4.89828796648)
(-21.6354697021 -17.9788398213 4.60439116216)
(-25.2311670525 -19.9252757675 4.49958259324)
(-28.7469957606 -22.7776577978 4.51712874553)
(-31.790092721 -26.0555499113 4.4982847783)
(-33.7081803476 -29.139783311 4.45092233926)
(-34.3315318085 -31.030464133 4.69618351884)
(-33.8444523252 -32.3278355414 3.69243773534)
(-34.7909699471 -33.3735435052 2.49478824213)
(-35.369068652 -32.483494027 2.94371089641)
(-33.2883661026 -31.6957836775 2.46357066755)
(-30.1988189922 -31.6946564882 2.05078540305)
(-25.6882656281 -31.9749491246 1.80781434997)
(-20.0546845634 -32.3973183005 1.70352578195)
(-13.9401768011 -32.8134797653 1.70016238202)
(-7.89479211403 -33.0549037327 1.81015155298)
(-2.46580151856 -33.1187094977 2.50303174653)
(-2.21724191315 -22.9415357523 3.78030109111)
(-7.39068578148 -22.9575066062 4.76064265192)
(-12.8024740836 -22.5730917065 4.85035331332)
(-17.295147034 -22.66693844 4.55689538892)
(-21.1290309279 -24.1141961905 4.33883225855)
(-24.9629506342 -27.3040864765 4.44054487984)
(-29.203302035 -31.6638198048 4.64823702321)
(-33.0354985717 -36.6237239306 4.72917112329)
(-34.7819650399 -39.5334192497 5.31840842507)
(-35.5772848608 -41.5045207241 4.73176467011)
(-36.7976473318 -43.0755597501 4.01598007036)
(-36.001385196 -43.7863902054 4.0233144249)
(-35.1966157207 -42.6735664276 2.49194085413)
(-35.2673092289 -42.3594465311 1.81272815162)
(-33.2302916035 -42.6560602769 1.41516391872)
(-28.5411046643 -43.1481840078 1.15987784661)
(-22.062068074 -43.8397594737 1.09761221766)
(-14.9446935679 -44.6911526497 1.22422415011)
(-8.17937710367 -45.3773562046 1.5497551344)
(-2.49513020231 -45.7380691203 2.34778136328)
(-2.43785017347 -28.4773419569 3.60080214276)
(-7.67401732803 -28.083106947 4.44289313311)
(-12.923415431 -27.06251705 4.36084050434)
(-17.3941849223 -27.0165048799 3.97879550228)
(-21.448248571 -29.3320007507 4.22061956837)
(-25.819517501 -34.1406809351 4.75344680025)
(-31.292050832 -40.1861861238 5.0185228444)
(-33.977089393 -48.3020157559 5.136798017)
(-34.6332527658 -51.546917902 3.59892365879)
(-36.3373086132 -52.2519014625 2.10970365683)
(-36.9864064236 -49.7860114197 -0.603873928633)
(-37.3922657957 -47.6664801311 -0.00285618320324)
(-38.8175226904 -49.1001788251 -0.0977827526871)
(-39.3096960797 -52.1455856684 0.664432882361)
(-37.1471504859 -53.0055913148 0.599766048106)
(-31.8837055923 -53.5067573541 0.420377883274)
(-24.5422888892 -54.4496180003 0.42140359584)
(-16.4447462623 -55.796107856 0.663415848976)
(-8.83022060128 -57.0784631228 1.13161526533)
(-2.63559710949 -57.8248544588 2.00606066945)
(-2.68341717825 -33.1490349778 3.41387850899)
(-8.14054913761 -32.168530772 4.06993998599)
(-13.5132835078 -30.4903679268 3.79858492186)
(-18.1761018407 -30.5074595547 3.67601042478)
(-22.7970054686 -33.7713962214 4.23080900158)
(-28.2184130686 -40.2845683947 5.11493672639)
(-36.3462240263 -47.4022336228 6.08981416369)
(-38.7813317883 -58.5943244889 5.24136665765)
(-36.1351409769 -63.4692317369 3.85269913651)
(-34.0303648887 -65.8962792021 2.05901722515)
(-34.0584678294 -67.6149759307 3.604086458)
(-38.1651956375 -69.3546969327 3.2523203628)
(-43.6616711447 -67.2752164612 2.39581639398)
(-44.1418581206 -63.5407057731 0.922311723772)
(-39.9996564998 -62.0606748817 -0.221669244241)
(-34.5147178734 -62.4772091123 -0.436625053752)
(-26.8666420241 -63.9343034189 -0.289632642727)
(-18.1151232669 -65.9405642235 0.0523923380875)
(-9.74870711252 -67.9039937284 0.635614501314)
(-2.90402527294 -69.1195799216 1.53904500538)
(-2.91778352706 -37.0963510413 3.24884370135)
(-8.73265390362 -35.6147522367 3.74080561342)
(-14.4226262457 -33.4404246649 3.39959345036)
(-19.58273174 -33.3910851413 3.41743778774)
(-25.1428622727 -37.1965196457 4.07369272801)
(-31.7243249848 -44.4887734979 5.14070696415)
(-42.9049047213 -49.288152313 4.98817197093)
(-45.1849041335 -62.8189433779 -1.05751312749)
(-40.7848958506 -63.0947982708 -3.8682330922)
(-41.0710720276 -58.4909511881 -6.7784502812)
(-42.134326345 -53.7771753117 -8.03907695535)
(-40.0451998652 -50.8811693506 -9.53018851633)
(-37.2513147088 -49.6263571005 -8.34060935083)
(-39.082170171 -61.7802767878 -4.32625234664)
(-40.5152858162 -66.2148728476 -2.15457130031)
(-36.9173534294 -69.4689909543 -1.38178322847)
(-29.2296413657 -72.3429559022 -0.947584456111)
(-19.942727151 -75.2201355923 -0.50039830311)
(-10.8640367267 -77.8129436232 0.0819637696855)
(-3.28037711481 -79.449264627 0.940217733661)
(-3.13377990017 -40.3881438809 3.12790232085)
(-9.37195078021 -38.6493887963 3.50411989585)
(-15.3958454634 -36.263542814 3.23448865865)
(-21.0430427151 -36.0678617226 3.35882735589)
(-27.4749769438 -40.2691408493 4.49443304692)
(-33.6068323498 -47.9758909513 7.95891053702)
(-49.3439008621 -48.3154918994 8.65551719673)
(-48.8838321076 -59.7932171013 -2.61535890768)
(-34.5224287454 -58.3776735711 -2.41965717256)
(-29.5373709577 -53.244845519 2.26066986144)
(-31.3244398218 -47.5251219781 3.46663901217)
(-38.9880956575 -43.773211614 6.93086034124)
(-55.8085785758 -45.9964777265 7.87210709064)
(-61.209312297 -63.9801648032 -2.30858186945)
(-49.2250504868 -71.2274252179 -2.28250368607)
(-41.6501976986 -76.0328217258 -1.79397275194)
(-32.2506530623 -80.0519884524 -1.44555131245)
(-22.0217135603 -83.6478620119 -1.04788861794)
(-12.1676219938 -86.7285625679 -0.534909227786)
(-3.74230975223 -88.6387601522 0.195153388596)
(-3.3412447579 -42.9679660868 3.00120648241)
(-9.93680098957 -41.1637068518 3.30681029952)
(-16.2291992581 -38.6413847134 3.07306958044)
(-22.2081586978 -38.4785702557 3.23090529271)
(-29.0426576284 -43.3162868367 4.65373571132)
(-35.1656285502 -50.0035153438 8.36215126411)
(-52.1391675708 -50.9068573806 9.4621529117)
(-52.0220712256 -55.3517255911 -3.11536674742)
(-36.6675078119 -56.7930650799 -1.38843657257)
(-33.3775263128 -58.0683557969 -0.806116033645)
(-35.6675620515 -61.6385152779 -0.474612178418)
(-42.682988555 -64.9226747468 0.320252977617)
(-60.3141286265 -68.4956139491 2.78272931187)
(-67.1564845484 -74.2919565307 -4.21162505)
(-54.139327916 -78.5623232002 -3.32218481511)
(-46.1330672764 -82.8619466629 -2.33793404766)
(-35.6384433988 -87.1271550824 -1.98715138856)
(-24.4450292488 -91.0344996798 -1.66898283927)
(-13.714017294 -94.3359084899 -1.27470069941)
(-4.29198676964 -96.3751800522 -0.694141020468)
(-3.52031862365 -44.8148359291 2.83490830145)
(-10.4018474351 -42.984721529 3.06729831652)
(-16.8551194909 -40.4714476109 2.87154307523)
(-22.978642463 -40.3258719895 2.9415415334)
(-29.9777757333 -45.3860699026 4.25476118694)
(-37.1133404849 -49.9236257569 8.17459555258)
(-54.66549554 -51.7735475445 9.70157767668)
(-55.0115559993 -53.2144627125 -0.700927037583)
(-40.1200111674 -55.9089435437 1.16890649722)
(-37.1764820128 -58.3193168735 1.3585732652)
(-40.1300381041 -62.9012979675 2.74322969235)
(-47.868057344 -67.9636617153 2.42604291627)
(-65.9380768638 -73.4858564471 3.85799363965)
(-72.4091774999 -78.7536242887 -5.15126221712)
(-58.9580576666 -84.0287681391 -4.09461744161)
(-50.2708665958 -88.5329814624 -3.04364013215)
(-39.0864054658 -92.8924186542 -2.70054119742)
(-27.0315115789 -96.8907306523 -2.43650259284)
(-15.3785993886 -100.215091941 -2.17797147634)
(-4.89011522927 -102.263716271 -1.73918098503)
(-3.6861481353 -45.8194622176 2.63675085977)
(-10.8175876884 -44.099604846 2.86113954859)
(-17.3276364363 -41.8029081594 2.66850531744)
(-23.2796730958 -41.8353281552 2.5690986448)
(-29.5046844906 -47.0752156576 3.29121287369)
(-37.4562636561 -49.3109202612 5.46595269309)
(-56.135815008 -49.1248110295 6.89987245693)
(-58.0513668072 -34.35875109 -2.95337005955)
(-44.0050087946 -31.8692714738 -6.20052082985)
(-42.1658825406 -39.1238610502 -5.14675753432)
(-46.6691164341 -54.3837265564 -3.5887057953)
(-53.9805007239 -66.7297167206 -0.697960597398)
(-71.8579302306 -79.7758560675 4.35992589366)
(-78.9344259854 -81.9191117522 -4.27328155245)
(-65.6118738671 -87.7625550779 -4.04110618788)
(-55.1971171587 -92.6791004934 -3.4592346664)
(-42.9259706449 -96.974413641 -3.4300535742)
(-29.8361869097 -100.827456015 -3.33331286641)
(-17.1416981852 -103.982752608 -3.23184788179)
(-5.52382763279 -105.932971574 -2.92954511338)
(-3.88577394307 -45.9836188961 2.43989966561)
(-11.3222449843 -44.6048514585 2.60645302067)
(-17.9806757624 -42.79650773 2.43305551379)
(-23.7662480985 -43.2509897011 2.12528455152)
(-29.221455673 -48.6052161594 2.32863196695)
(-35.6222579497 -51.9971680427 4.39751380758)
(-42.2275199477 -52.8703720916 7.99208454334)
(-44.146217123 -43.9309157361 23.7305313312)
(-46.8798277951 -47.6036343436 20.8292093131)
(-58.5804295471 -56.925914588 11.5795033852)
(-66.2733334654 -69.3564311959 10.834410486)
(-70.9282114582 -81.7099001623 9.76851617561)
(-80.0209011415 -93.4444807814 7.45378684325)
(-81.2664585996 -90.8660275291 0.434549167006)
(-71.1079257159 -93.0377596497 -2.75657298411)
(-59.6777219238 -96.1447469259 -3.69057704398)
(-46.445140001 -99.3632814166 -4.18756280222)
(-32.4849071695 -102.557487676 -4.38113350973)
(-18.8092667965 -105.25339566 -4.44368175419)
(-6.13751603326 -106.915414705 -4.289453512)
(-4.13733521167 -45.1946766902 2.20199366937)
(-12.0744980535 -44.4353092716 2.32240941338)
(-19.2896852143 -43.3454214421 2.15241749776)
(-25.6038797408 -44.1433059458 1.65343969206)
(-31.5811411286 -48.7527658237 1.08154986352)
(-38.544485987 -54.6577267812 1.33345486962)
(-47.5100622111 -58.5856479246 2.19966303973)
(-54.8425284382 -61.7575082665 5.34201699455)
(-58.7055665359 -70.6387868063 4.09779639941)
(-64.3155691986 -78.6800425654 1.8668968234)
(-71.3346055428 -82.1939361271 1.18129133353)
(-77.7532461102 -88.5474410488 0.462184316443)
(-81.2842720112 -92.9191105511 -3.49867051749)
(-79.0158845253 -92.6970393864 -4.6167050707)
(-71.7963306152 -94.405571472 -4.54543300258)
(-61.544611565 -96.6103280223 -4.86203233803)
(-48.6749084988 -99.0570850564 -5.3009589934)
(-34.5021784646 -101.503805454 -5.65347809309)
(-20.156432855 -103.505172423 -5.89498408916)
(-6.61339370115 -104.710583443 -5.99537258511)
(-4.42349122703 -43.1152681465 1.95507153935)
(-13.0232095534 -43.0626106783 1.99983535056)
(-21.1280276206 -42.7754405799 1.86841021802)
(-28.4999946652 -43.7279536474 1.39580272772)
(-35.7902254097 -47.0313565111 0.665604470885)
(-43.3917046564 -52.9089883204 0.397547445396)
(-51.4481930945 -57.4657466247 0.803962136213)
(-58.8791951567 -60.0551661498 1.94003891295)
(-65.5379855505 -63.81385738 1.51381520718)
(-71.6164937265 -70.7801487443 0.841936741185)
(-76.8994302464 -76.8818553578 0.236370489172)
(-81.1329345741 -82.090012099 -0.587419144461)
(-83.1415749847 -85.3193021448 -1.81080472692)
(-80.7936235408 -87.6680445899 -3.95601796569)
(-73.6025730756 -90.0369591544 -5.29474989399)
(-63.206591658 -92.4966900689 -6.03952185826)
(-50.3661566077 -94.9987209396 -6.58724910419)
(-35.9181624672 -97.1154250629 -7.12638473078)
(-21.0430373696 -98.7930072171 -7.9600356761)
(-6.92250781134 -99.7157936662 -8.52590693053)
(-4.73891481827 -39.507517705 1.67202455705)
(-14.0287366622 -39.9590747366 1.64981817858)
(-23.0759565586 -40.4024044241 1.56806503596)
(-31.5395098204 -41.4848483065 1.206677764)
(-39.7192515358 -43.9763516389 0.640793734833)
(-48.0060888858 -47.6876593352 -0.0306133684622)
(-56.0348436746 -52.138319346 -0.356708773804)
(-63.3078205256 -56.5772567391 -0.765435813445)
(-70.9752904566 -61.9302439368 -1.92280275626)
(-78.0251670316 -66.5756537604 -2.17885471182)
(-82.3701355934 -70.8841230112 -2.42905032715)
(-84.7411933986 -74.8035634795 -3.16535455289)
(-84.863368273 -78.3120809289 -4.11611889416)
(-81.391304797 -80.6477573449 -5.5782321343)
(-74.5540714232 -82.6042714722 -7.66654685683)
(-64.9326262448 -84.9567704418 -8.24644851767)
(-52.213573718 -87.4397841164 -8.15803549968)
(-37.4988170988 -89.4726784996 -8.76438188308)
(-22.138404439 -91.124081816 -9.49305480296)
(-7.27602661612 -91.8365993186 -10.3169002082)
(-5.03725387499 -34.4658721571 1.39937432363)
(-14.9264139099 -35.0519277122 1.27685850984)
(-24.758503489 -35.8925494982 1.19039050845)
(-34.2352397967 -37.1253578868 0.999296579227)
(-43.3806863584 -39.1711618498 0.612135100967)
(-52.3735309647 -42.0613482754 0.0250334242052)
(-61.2931700149 -45.5575725547 -0.503514841485)
(-70.0608765275 -49.7210570938 -0.859608732168)
(-76.5223855451 -54.6202277079 -0.627956666193)
(-80.8378555171 -58.3485282183 -1.71679670055)
(-84.6072765738 -61.7334375084 -3.12336016732)
(-87.1939868416 -65.283426023 -4.68054883362)
(-86.9292541029 -67.7626446673 -5.67931606988)
(-82.6150750684 -70.2955261095 -7.09752392342)
(-75.6277847517 -72.5180517933 -8.95278161395)
(-66.2804898993 -74.8717017269 -9.66402861128)
(-53.7766452086 -76.8253089908 -9.45249293926)
(-38.9958176931 -78.5943205023 -9.85217958881)
(-23.0403601258 -79.9320708362 -10.3926164209)
(-7.48038473904 -80.4952361581 -11.7655285632)
(-5.30174445822 -28.1596841254 1.16491200354)
(-15.6731576384 -28.6439270719 0.976157104278)
(-26.0364967025 -29.4582604783 0.87627349222)
(-36.2557534924 -30.6669181177 0.700683039794)
(-46.1498883707 -32.3337349699 0.414832366411)
(-55.6578782429 -34.5569395232 -0.0349228022976)
(-64.7409627511 -37.1503128432 -0.619133553512)
(-73.103042751 -39.8349447285 -1.30242626443)
(-79.999923516 -42.2896018298 -1.8342710787)
(-85.2090278815 -45.8088491769 -2.70663452562)
(-88.869992644 -49.4680983699 -3.73650123378)
(-89.6776032746 -52.8611946785 -4.68765063932)
(-88.1628595829 -55.2552867951 -6.50558085309)
(-84.127012647 -57.0978821183 -7.9721453243)
(-77.2232151722 -59.2178016674 -10.0160000697)
(-67.7885035565 -61.5054263302 -10.2882791512)
(-55.0732839228 -63.0311615561 -10.2814595431)
(-40.2287721944 -64.4200552408 -10.6488402442)
(-23.8205353808 -65.4505083425 -11.2722963837)
(-7.71614121243 -66.1574247745 -12.9192504475)
(-5.48910838073 -20.7905288615 0.978951086962)
(-16.2433024951 -21.1162310211 0.762303147268)
(-26.9820517539 -21.6867108733 0.638447922286)
(-37.6010207698 -22.5934240418 0.465406849954)
(-48.0066597804 -23.8387667375 0.197773570841)
(-57.9683067681 -25.4228211384 -0.166270032574)
(-67.216492147 -27.3013687214 -0.691647545739)
(-75.6457659574 -29.3635956673 -1.53838767719)
(-82.7333939607 -31.4822715157 -2.33387975795)
(-88.0270671614 -33.8430714943 -3.25496889635)
(-91.3501506966 -36.2532453027 -4.31419862091)
(-92.3045347671 -38.2538589013 -5.50186026051)
(-90.1289177865 -40.6043674462 -6.81352818204)
(-85.3360704713 -41.7429909252 -8.89436994466)
(-78.8678223727 -43.8002114625 -10.773152844)
(-69.2520166516 -45.5292311833 -10.7002991002)
(-56.2789338805 -46.6543134195 -10.9401188098)
(-41.2727423244 -47.6076576188 -11.4660356918)
(-24.6318112675 -48.401653233 -12.2329552437)
(-8.06018537596 -49.7866232605 -13.7011422812)
(-5.61600647191 -12.6735131801 0.856556616394)
(-16.617513908 -12.7953183184 0.676903432538)
(-27.6019097402 -13.0929217553 0.562968648487)
(-38.5069147018 -13.6009254285 0.387018868419)
(-49.1649671059 -14.3513470176 0.105106070125)
(-59.3864668608 -15.277714341 -0.260733254654)
(-68.9494994505 -16.4190445646 -0.767372439875)
(-77.496652874 -17.7845149044 -1.44174124375)
(-84.6123914439 -19.1997820166 -2.32662572559)
(-90.0128181306 -20.7941558239 -3.5479174676)
(-93.1989092869 -22.5493258882 -4.66639486412)
(-93.8127624894 -24.3733215365 -5.92333103468)
(-91.2972693827 -26.0163501472 -7.42599851945)
(-86.8928915433 -27.9715134113 -10.1831986624)
(-80.6550426249 -28.9743537645 -11.3343114678)
(-70.4698109457 -28.9721459901 -11.2943869808)
(-57.1367457435 -29.1172658807 -11.8222854408)
(-41.9855597247 -29.4978822351 -12.5160040105)
(-25.9157678653 -30.1288305839 -13.3877725945)
(-8.97790918443 -31.5276782351 -13.1850092669)
(-5.61766620531 -4.27338637891 0.825943044378)
(-16.735997343 -4.25881646273 0.8211441455)
(-27.8922296225 -4.34374357935 0.764408409373)
(-38.9549529067 -4.50181348426 0.6039271965)
(-49.7623545569 -4.74559436814 0.323123011254)
(-60.1267862832 -5.05474152866 -0.0677136577274)
(-69.8315717527 -5.44090361024 -0.600577760828)
(-78.5361876586 -5.89321448781 -1.28858674102)
(-85.8516296431 -6.43157708577 -2.12960771255)
(-91.4857007404 -7.07152625005 -3.21211744067)
(-95.0399018742 -7.84209136458 -4.48451881301)
(-95.8833860653 -8.83485536783 -6.08957336556)
(-93.8265208055 -9.82961363581 -8.13893615766)
(-88.3842640652 -11.2662146029 -10.1855565185)
(-79.998675475 -11.2147213545 -11.8786890179)
(-69.5627005872 -10.5013802741 -13.0966899288)
(-56.9601625279 -10.1975641782 -13.9388979675)
(-42.3829109319 -10.2146436418 -14.1073613848)
(-26.6638126834 -10.4951140651 -13.6707738104)
(-9.35035673599 -10.8796419563 -12.9027524894)
(-2.61586230922 -3.50558324678 11.5220937291)
(-7.61481490237 -3.65232550059 11.5686629187)
(-12.7960667919 -3.70584264949 11.5133582677)
(-17.8319787393 -3.85868108302 11.553067404)
(-22.4793274283 -4.09980085906 11.6379221483)
(-26.4735878289 -4.44063966112 11.7475787151)
(-29.6898262298 -4.88763881399 11.8877527202)
(-32.0340895035 -5.40162578546 12.0035480275)
(-33.3775012654 -5.8747650168 12.0088979626)
(-33.7407207728 -6.19110634872 11.8940763842)
(-33.2415020308 -6.38420547469 11.6424668635)
(-31.8634399569 -6.61204210117 11.3983043558)
(-30.9241645882 -7.50400170799 11.2791983739)
(-29.6712426718 -7.17887536959 10.3997223406)
(-26.8682749751 -7.00804200039 9.97441674386)
(-23.3388080195 -6.94445214711 9.48836659842)
(-19.0310875012 -6.93204898716 8.95889039614)
(-14.0225900739 -6.91685979743 8.46099676921)
(-8.50395302842 -6.83173533413 8.09314369744)
(-2.94781089607 -6.77059615264 7.97677544399)
(-2.85404143397 -10.2425715417 11.3992028807)
(-8.06325740291 -10.5369936626 12.8198353131)
(-13.3291785506 -10.7206228512 13.109439878)
(-18.5474122201 -11.1691078622 13.0182867623)
(-23.2300685482 -11.8869526378 12.8712535031)
(-27.2336711749 -12.9246273638 12.8886292763)
(-30.5066434203 -14.2991756661 12.903289406)
(-32.8639469747 -15.864312736 12.8045659306)
(-34.0603766069 -17.2102881003 12.5694953592)
(-34.2035270967 -17.9912713732 12.2355788818)
(-33.7007989088 -18.7175635288 11.8155209614)
(-33.1040227287 -18.8514759384 10.9726869344)
(-31.6805138252 -19.678151882 10.1653615833)
(-29.3923747824 -19.7934034716 10.0407504798)
(-26.8253176782 -19.8324792354 9.35268017504)
(-23.4657158983 -19.9505504232 8.64662982484)
(-19.2753746419 -20.0941184994 7.98949276605)
(-14.268468511 -20.2142833168 7.44644621041)
(-8.83404791574 -20.1774241121 7.24347122556)
(-3.16026990559 -20.1093261634 7.9357604753)
(-2.92765832866 -16.8928193943 11.1056907443)
(-8.27867235577 -17.2820593331 12.8546444262)
(-13.7723005815 -17.5937850599 13.1574444662)
(-19.2946525128 -18.2562801788 12.892789602)
(-24.3086559795 -19.335403581 12.8297845815)
(-28.6470747549 -21.0480584341 12.8994823172)
(-32.1357579365 -23.4014984087 12.9289029125)
(-34.3570363148 -26.1316916156 12.7935007616)
(-34.9773068148 -28.4502798231 12.4646278928)
(-34.8989106395 -30.1974257007 12.0938273542)
(-33.9246078191 -31.6509813088 11.2842384026)
(-32.7861899571 -32.2423141116 9.60736453351)
(-31.9387429615 -31.8585455441 10.512371503)
(-29.937198282 -31.6190187571 9.44375716445)
(-27.0867825919 -31.746488821 8.52583807274)
(-23.6251015656 -32.1280641826 7.75089936223)
(-19.3699555428 -32.5375859076 7.15837309556)
(-14.3170976337 -32.9006570932 6.74645652219)
(-8.90421917805 -33.1005911316 6.7415046832)
(-3.20217206719 -33.2201514498 7.73265838296)
(-3.06588184473 -23.1524445247 10.8028303588)
(-8.71499500727 -23.6651730526 12.4334500526)
(-14.6069246109 -24.1266542382 12.4991160908)
(-20.6484283699 -24.8517311556 12.3473306929)
(-26.2474347153 -26.1041477385 12.3560346832)
(-31.176383698 -28.3261098227 12.3476807399)
(-35.1659867815 -31.5958145561 12.1856987875)
(-37.317577936 -35.6520531094 11.9417374586)
(-37.4999346661 -39.0436111537 12.1463566221)
(-36.9890481786 -41.8638004338 12.0339064562)
(-35.5537547278 -44.7547721107 11.7138549153)
(-33.2907768871 -44.3820876799 11.9547858418)
(-31.1744650368 -43.8872370728 9.81073051091)
(-29.3774447213 -42.8066402112 8.33817343744)
(-27.2905549533 -43.1532142606 7.36035709927)
(-24.0518623172 -43.8813099555 6.59971579104)
(-19.7361370394 -44.595573279 6.11334969034)
(-14.5261865015 -45.2636128192 5.85971666582)
(-8.99225599267 -45.7534240074 6.07680596416)
(-3.24640704061 -46.0450189618 7.22328289848)
(-3.2446445568 -28.7510942884 10.4669544577)
(-9.37320797443 -29.3193389909 11.8307264271)
(-15.8404522683 -29.7449136218 11.8540377263)
(-22.4994082217 -30.3266387381 11.7429949046)
(-28.9181318369 -31.5481325512 11.530888797)
(-34.7039534611 -34.0333827555 11.3051963954)
(-39.6777397875 -37.3638067991 10.6680325132)
(-41.6636436745 -43.9537380003 9.38152552198)
(-41.119351974 -48.0741620204 6.93482952543)
(-40.7208901432 -50.5234755077 6.45312240442)
(-36.7640824929 -47.601564755 6.01162813072)
(-32.4019899256 -45.9737208533 6.22452522854)
(-30.9799168757 -47.2608923493 0.81943588837)
(-29.6409268053 -51.5935551461 5.71289842501)
(-28.3830525796 -53.9255556916 5.73199107646)
(-25.0918038562 -55.0930596837 5.29080498881)
(-20.5855915463 -56.0539295897 4.86462872836)
(-15.1462164985 -57.0414527743 4.70797616056)
(-9.32151472112 -57.8559889264 5.03330074438)
(-3.32430942501 -58.354698944 6.26199365253)
(-3.47876595285 -33.6276006928 10.1387309611)
(-10.1361019101 -34.2016679188 11.3320096535)
(-17.2373720678 -34.4096441198 11.4074798526)
(-24.6752731202 -34.6687807314 11.1249850999)
(-32.0822155026 -35.5422058777 10.6053062921)
(-38.3435748128 -37.7712540487 10.4846039707)
(-46.1940997858 -41.9480044911 10.0301552622)
(-48.0682423322 -53.9323285458 7.73155148463)
(-43.7904538419 -60.7344257121 5.42132775501)
(-36.3720769007 -66.1523292818 4.22176791627)
(-31.5653361062 -67.7032099483 2.8659816741)
(-33.6671646145 -71.8049189589 6.4787984458)
(-37.367295678 -70.4678903918 10.8943775119)
(-36.508441988 -66.0431363452 7.88672141828)
(-31.1654924225 -64.6322758195 4.67576986605)
(-26.4723746339 -65.2000705019 3.76744504231)
(-21.7617543775 -66.4638943923 3.37881441177)
(-16.0825062173 -67.880108326 3.25626392922)
(-9.8736330256 -69.1059866881 3.6941457067)
(-3.48802536679 -69.8759688518 4.91543646113)
(-3.71027938095 -37.7748028902 9.84704142194)
(-10.8332607599 -38.3102247945 10.9651557525)
(-18.5376086058 -38.2080876353 10.9539138669)
(-26.763751273 -37.8905242365 10.4850202999)
(-35.3864074594 -37.4963499147 9.65310301049)
(-43.6132064712 -37.5168867168 9.10139074345)
(-56.4622230743 -40.5737925825 6.626935502)
(-58.4111881833 -54.8095068263 -8.83529781987)
(-51.1547222403 -57.1770676542 -12.1988942378)
(-46.1883585583 -54.1745693194 -12.481447607)
(-41.8340693486 -53.1348389657 -12.9773743223)
(-35.049595947 -51.9872540202 -14.3973733287)
(-25.706812985 -50.292094323 -11.3679863906)
(-24.4058940424 -65.1726699661 -2.08671081473)
(-27.8143475757 -69.3915702538 0.294553889514)
(-27.4970319922 -72.811645115 1.42879638704)
(-23.5725766585 -75.4697161719 1.53589716252)
(-17.6184396657 -77.6457931076 1.56089344865)
(-10.810125185 -79.3936655407 1.99357409817)
(-3.78750884906 -80.4710430011 3.13475287958)
(-3.88367996255 -41.1669432749 9.55519507653)
(-11.288418037 -41.6525393703 10.6126684003)
(-19.284277798 -41.3564701188 10.6736179379)
(-27.7564012929 -40.5019740409 10.487471845)
(-36.184121141 -38.7072814069 10.1715580646)
(-44.5068021519 -36.1504253206 12.9229817645)
(-63.091317987 -38.3043237598 10.7458277676)
(-59.9719827916 -48.9235288014 -24.7287650278)
(-38.2035418496 -47.5345846891 -15.1922365288)
(-30.3803073638 -43.9250707254 -4.9988002843)
(-30.6457380046 -40.2152898023 15.2303959806)
(-34.1049799694 -39.3590087449 25.3633943118)
(-50.5191886701 -42.9427149274 36.0748999266)
(-53.6103830341 -65.5995011239 5.51194231897)
(-37.7857366782 -73.9279820186 1.19652463335)
(-32.7398821809 -79.5725375148 0.350973077953)
(-26.7770890271 -83.4655906603 -0.127487798407)
(-19.7752229336 -86.3505138238 -0.293578837184)
(-12.0893517684 -88.5587897217 -0.0576909587195)
(-4.20859012763 -89.8902801262 0.889884165847)
(-3.99000609853 -43.7951660049 9.18657709133)
(-11.6125146571 -44.2667134759 10.1517115367)
(-19.7326338559 -43.9024310562 10.282139073)
(-28.3014227716 -42.7453386987 10.2915006386)
(-36.9635311521 -39.8660067668 10.1053899615)
(-45.6092225416 -37.3409611479 13.5444828919)
(-66.4400611119 -38.6630406017 11.5102203845)
(-62.8714776945 -42.9398225297 -28.1538912739)
(-40.9867132568 -46.1114289287 -17.1223016139)
(-36.0161596634 -53.2754480288 -9.11658589268)
(-35.5944537916 -58.4632376727 1.21596450715)
(-37.4072918623 -66.3354418084 11.0420388205)
(-52.3949694284 -71.6011425447 24.2449696876)
(-56.5818253474 -78.0466283333 0.58994237207)
(-41.9282434507 -81.9593505885 -1.41542424342)
(-37.3309491116 -86.571467317 -1.6034547267)
(-30.5000398877 -90.6587001151 -2.24537479179)
(-22.4268895941 -93.8632496435 -2.56231445668)
(-13.6795483596 -96.3600079627 -2.53144654648)
(-4.7378322534 -97.8163622832 -1.82570786405)
(-4.10116581019 -45.6561509417 8.69367126231)
(-11.878789967 -46.118285707 9.55594505902)
(-20.0369400277 -45.769312723 9.72189310842)
(-28.5769203171 -44.5044840335 9.85719567458)
(-37.0790203596 -40.981096627 9.92419518445)
(-45.7814836722 -39.1164210121 13.5419772464)
(-66.1610162152 -39.8690381201 13.0687917071)
(-63.7214522824 -43.3071308573 -22.997394934)
(-43.9781075494 -52.0757643194 -8.04387992974)
(-38.9767820011 -55.892391505 -2.46519175138)
(-40.4498204006 -61.0440505145 7.99429127079)
(-44.8532627963 -66.1146119166 18.3469872244)
(-60.441733459 -71.2196644326 25.8349088577)
(-63.8780562483 -79.8274522369 -1.82120948034)
(-47.083987969 -86.5410418591 -3.94754576583)
(-41.9581424682 -91.9002723783 -4.04735851611)
(-34.304294407 -96.3310397683 -4.76291665)
(-25.2382705917 -99.7621871565 -5.26024016203)
(-15.4032322199 -102.404418399 -5.50113366344)
(-5.31074424715 -103.903232327 -5.01911799703)
(-4.1856288737 -46.6856475329 8.11892409776)
(-12.0943080712 -47.2019338107 8.84895052034)
(-20.2545038575 -47.0043938287 9.08615626415)
(-28.7664490583 -45.8632287468 9.21134593857)
(-37.6393142544 -41.7305498209 9.2113580851)
(-46.5134726675 -39.4509901486 11.4820304422)
(-67.9703260804 -36.5940913647 11.2932655789)
(-71.1627737629 -17.0835684536 -29.2023781732)
(-50.0167119212 -20.6634264956 -24.558157687)
(-42.4331095222 -32.8572445495 -15.3839139512)
(-44.4705669748 -48.2864373382 4.89925184822)
(-46.7313143198 -59.4570014542 15.8863834144)
(-64.8069844726 -74.0522527567 26.7905945354)
(-71.9585201342 -78.596419025 -4.4845430777)
(-54.6873484758 -88.4963333865 -6.81732811023)
(-47.6493370154 -95.1140555823 -6.6595374893)
(-38.6802115038 -99.9620818311 -7.56409109706)
(-28.3523282687 -103.595402935 -8.35720014811)
(-17.2600331804 -106.273100013 -8.89990914745)
(-5.93016721416 -107.768423324 -8.65164654208)
(-4.31185021078 -46.8060508242 7.46339423345)
(-12.3973181773 -47.5378022208 8.0762325602)
(-20.5927866135 -47.7622562383 8.30737744501)
(-28.8488941378 -47.3265036167 8.4409329866)
(-36.4083793289 -44.274342669 8.64924463261)
(-42.1065766193 -42.761328453 11.6525989282)
(-40.1403202142 -41.9701208541 14.1450168238)
(-44.343648364 -25.65910998 26.9710741403)
(-58.9835298096 -29.8847209836 25.4050836248)
(-65.4781951133 -43.2658816502 23.2136897493)
(-65.9200484286 -58.7816951965 20.7726617582)