/*--------------------------------*- C++ -*----------------------------------*\
| =========                 |                                                 |
| \\      /  F ield         | OpenFOAM: The Open Source CFD Toolbox           |
|  \\    /   O peration     | Version:  v1606+                                |
|   \\  /    A nd           | Web:      www.OpenFOAM.com                      |
|    \\/     M anipulation  |                                                 |
\*---------------------------------------------------------------------------*/
FoamFile
{
    version     2.0;
    format      ascii;
    class       volScalarField;
    location    "4.7";
    object      k;
}
// * * * * * * * * * * * * * * * * * * * * * * * * * * * * * * * * * * * * * //

dimensions      [0 2 -2 0 0 0 0];

internalField   nonuniform List<scalar> 
11640
(
0.000402980512293
0.000482828554556
0.000534691135263
0.00056415932218
0.000578691552338
0.000582926407737
0.000580604290289
0.000575040502375
0.000568122192665
0.000560948960496
0.000553993934481
0.000548830104079
0.000546781058851
0.000547652581914
0.000547867640408
0.000543360461025
0.000530106000867
0.000502832677651
0.000455201639794
0.0003843814908
0.00048522620959
0.000792956970118
0.00096217975257
0.00105646843789
0.00110684234544
0.00112818541678
0.00112893664317
0.00111706255027
0.00110181495227
0.00108806947198
0.00107884897676
0.00107810373799
0.00108581207566
0.00109402607203
0.00109331560628
0.00107366172027
0.00102664326408
0.000935796241339
0.000767739645308
0.000460618335501
0.000537837024125
0.000963141149527
0.00120295339752
0.00134778849541
0.00142907009251
0.00145876520044
0.00144925528412
0.00141908314136
0.0013846864999
0.00135251963276
0.00133295278922
0.00133906650818
0.00135658956386
0.00137677553891
0.00138603070433
0.00136680081142
0.00130125265328
0.00117078499725
0.000937933779851
0.000509623684976
0.000567360646908
0.00106152250247
0.00135537489753
0.00153706869991
0.00162979677174
0.00164818917228
0.00161337894922
0.00155385403647
0.00149418317548
0.00144011475034
0.00141369571871
0.0014298179278
0.00146151383893
0.00150185750237
0.00153201978683
0.00152629583937
0.00146016544003
0.00130818720375
0.00103315368258
0.000537340709852
0.000584166918172
0.0011220733009
0.00145170233154
0.00164823791425
0.00173238005026
0.0017222115524
0.00164653554468
0.00154903506832
0.001461372833
0.0013858261409
0.00135743365152
0.00138435493308
0.00143533632297
0.00150972155469
0.00157628645766
0.00159783784129
0.00154436469783
0.00138829323752
0.00108942973444
0.000553450142675
0.000594109360771
0.00115506692799
0.00149942888772
0.00169119252595
0.00174886635383
0.00168972044313
0.00154931230635
0.00139985697798
0.00128597851344
0.00119642314722
0.00116954210787
0.00120363932887
0.00127860421899
0.00141029821102
0.00153955237437
0.00160536796031
0.00157656267674
0.00142772432121
0.00112061359759
0.000564311096523
0.000596690052924
0.00116330524804
0.00150618961698
0.00168146849456
0.00170029131375
0.0015715644185
0.00132791710392
0.0010972829139
0.000961661725395
0.000873253556074
0.000869942151514
0.00090592113053
0.00100249547356
0.00121500748292
0.00144037758224
0.00156863527795
0.00157358242397
0.00143852576949
0.00113267845465
0.000570278601594
0.000592634542406
0.00115532876984
0.00148940891908
0.0016457795326
0.0016294207113
0.00143945892307
0.00109624072258
0.000823198254383
0.000693511777632
0.000632733258927
0.000622858204345
0.000655844875292
0.000764726122252
0.00101874927103
0.00133359492874
0.00151914527664
0.00155410657785
0.00143271268733
0.00113152178086
0.000570959864419
0.000586192184379
0.00114494977255
0.00147193946596
0.00161643502598
0.00158066924506
0.00135943608475
0.000978385781249
0.000691511884499
0.000559011875283
0.000509297074718
0.000502567287117
0.000537824788907
0.000654115420472
0.000919129216703
0.00127360780213
0.00148878545505
0.00154114110915
0.00142731931127
0.00112888471789
0.000570102848676
0.000580899093041
0.00114165198572
0.00146902351831
0.00161232345281
0.00157401643473
0.00134717690448
0.000954305218722
0.00065483077806
0.000522027354571
0.000479674088898
0.000477264243561
0.000514727330368
0.000637250990073
0.000912191052964
0.00127917313806
0.00149876432437
0.0015511510986
0.00143454744856
0.00113241844736
0.000570189942832
0.000577498527028
0.00114797496666
0.00148322454868
0.00163753709772
0.00161564207993
0.00141155465409
0.00103784315232
0.000728036539897
0.000599019704466
0.00055347641836
0.00054952901376
0.000590942828818
0.000716935113513
0.00100120036657
0.00135336330791
0.00155203078924
0.00158746566835
0.00145748493423
0.00114446731107
0.000572004447044
0.000574156909194
0.00115880391274
0.00150882884416
0.00168528547167
0.00170205437073
0.00156549169808
0.00129793488648
0.00104597370564
0.000925692536472
0.000865388592118
0.000827009811366
0.000875998512507
0.00100574214211
0.00125789598268
0.0015157301416
0.00165126894745
0.0016479603018
0.00149331792749
0.00116232746657
0.000574109003195
0.000567537222063
0.00116313073963
0.00152741167225
0.00172997375817
0.00179094618554
0.00172893994199
0.00157422938963
0.00140878350644
0.00130361524766
0.00123001321578
0.0012158453672
0.00128233443811
0.00139104789929
0.00155019136919
0.00169677842277
0.00175949076528
0.00171063439715
0.00152740894982
0.0011773042317
0.000573580105285
0.000557827428195
0.00115325175879
0.00152216645027
0.00174623663228
0.0018473039027
0.00184776004607
0.00177869669282
0.00169028527272
0.00161721832065
0.00155858655778
0.00155739235781
0.0016150426916
0.00168880155846
0.00177472612777
0.00183977961218
0.00184126490802
0.00175144829089
0.00154329550724
0.00118112045125
0.000569814802099
0.000550275798814
0.00113084122664
0.00148764670777
0.00171827350915
0.00184765428181
0.00189236381421
0.00187700471848
0.00183480608268
0.0017915647107
0.0017579530565
0.00176612703269
0.00180620853654
0.00185066140014
0.00189194280634
0.00190803648244
0.0018691598149
0.00175180737875
0.00153126200775
0.00117199367931
0.000564611659067
0.000542655517343
0.00110104995243
0.00142660302904
0.0016417530434
0.00177792677577
0.00184776753399
0.0018670721575
0.00185844294569
0.00184353542642
0.00183727191804
0.00184724204156
0.00186933462994
0.00189064068788
0.00190306281661
0.00188935758057
0.00182808962818
0.00170042788572
0.00148678732885
0.00114650998528
0.000556670976041
0.000527045767583
0.0010489889981
0.00134502826493
0.0015233217229
0.00164216158104
0.00171389755323
0.00174847098425
0.00176083374205
0.00176843496622
0.00177743252993
0.00178642357775
0.00179618514708
0.00180302510613
0.00180005312482
0.00177371882771
0.00170897777489
0.00159210771009
0.00140246319511
0.00109072659649
0.00054028288516
0.000497975123599
0.000947082618383
0.00120393215476
0.00135794493935
0.00145089153348
0.00150699403843
0.00154071298207
0.00156003590196
0.00157197547229
0.00158021478769
0.00158606261122
0.0015899680717
0.0015905153524
0.00158278321413
0.00155795080378
0.0015051811056
0.0014105534679
0.00125111630959
0.000983076655424
0.000509233432268
0.000449778466649
0.000768683191495
0.000953031694019
0.00106442747434
0.00113224257403
0.00117273386771
0.00119581637164
0.00120858634774
0.00121584624346
0.00122031550019
0.00122340880122
0.00122541334528
0.00122514400591
0.00121946374134
0.00120273636201
0.00116685179837
0.00110026061541
0.000985953325401
0.000792834880014
0.000456423656846
0.000380399479572
0.000456752953263
0.000508491771923
0.000540346940226
0.000559562667869
0.000570663971214
0.000576661167896
0.000579306902875
0.000580252513059
0.000580456257028
0.000580539721002
0.000580480520034
0.000580089867081
0.000578301765168
0.000573789202234
0.000563921401271
0.00054523047886
0.000512722761056
0.000458773070251
0.000379105305922
0.000650553794678
0.000874100008528
0.00101640891611
0.0010946117291
0.00112969651053
0.00113890089278
0.00113832761127
0.00113653742903
0.0011355602553
0.00113547058099
0.00113504610704
0.00113172322401
0.0011281526555
0.00112610067657
0.00112309523397
0.00111072954166
0.00107387112409
0.00099479054323
0.000852711303026
0.00063525246772
0.000878994501936
0.00166942942993
0.00205347212149
0.00225347970267
0.00234656430039
0.00238199549622
0.00239035616818
0.0023869908788
0.00238272791383
0.00238266545031
0.00238218366647
0.00237727040061
0.00237386600118
0.00237326874027
0.00236595880144
0.00233183875746
0.0022400475693
0.00204064609843
0.00165753332934
0.000863627934927
0.00102339700318
0.00205705416429
0.00255129942133
0.00281278279158
0.00293693760359
0.00298006035185
0.00297669455456
0.0029563363577
0.00293961817884
0.00292934513822
0.00291576191737
0.00289556860616
0.002886463274
0.00289181774025
0.00289807673163
0.00287451496267
0.00277394809991
0.0025312861413
0.00204619995637
0.001007605623
0.00110075595323
0.00225919713103
0.0028119683059
0.00310044555481
0.00322396184095
0.00323956863819
0.00319724821266
0.00314395826857
0.00310821436374
0.00308704121102
0.00306066221008
0.00303046076313
0.0030252290625
0.00305372634216
0.00309264633907
0.00309957693636
0.00301829461046
0.00277313053815
0.00224762150266
0.00108519747823
0.00113393859694
0.00234760915603
0.00292244613392
0.00320740945684
0.0032992146577
0.0032578937392
0.00314309348577
0.00303071929159
0.0029641366497
0.00292870563938
0.00289092831717
0.00285666589446
0.00287277056039
0.00296096602247
0.00306880391028
0.00313080886107
0.00308701557334
0.00286184076422
0.00233288068708
0.00111862222876
0.00114183019495
0.00236640533389
0.00293683529628
0.00319451410262
0.00322918253154
0.00309090556722
0.00284146256039
0.00262035515501
0.00251107927126
0.00246310884768
0.00241533878549
0.00238032471133
0.00243922646774
0.0026555859131
0.00289593428159
0.00304878158339
0.00305955498626
0.00286552759344
0.00235034440262
0.00112738430857
0.00113706571088
0.00234990318877
0.00290067214421
0.00311813709529
0.00307597833304
0.00279614992664
0.00230458861432
0.00187312923696
0.00171948830466
0.0016921431465
0.00164289002083
0.00161022022914
0.00173038992659
0.00216758312329
0.00262954822208
0.00291347146358
0.00299392788409
0.00283600056839
0.00233952569656
0.00112571167236
0.00112837107485
0.00232533932485
0.00285462535796
0.0030336966486
0.00292213265784
0.00250992588417
0.00175665863202
0.00121684288749
0.00106711230775
0.00107630084608
0.0010710292477
0.00105952004922
0.00119699660284
0.00168703717493
0.00237389604698
0.0027882954469
0.00293320126013
0.00280589475371
0.00232389545506
0.00112088630558
0.00112145734506
0.00231058199086
0.00282684108241
0.00298409656947
0.00283607758785
0.00236556515199
0.00153555677161
0.000985938391752
0.000812913956997
0.000814355987314
0.000815251432025
0.00081068240739
0.0009641184086
0.00146743634113
0.00224616625969
0.00272590646049
0.00290640801121
0.00279465883475
0.00231821869411
0.00111802833564
0.00112010322705
0.00231570734514
0.00283349716739
0.00299137996639
0.00284400696508
0.00237378761091
0.0015393283549
0.000975882946914
0.000796088364838
0.00079728017881
0.000800769005086
0.000790544251763
0.000946109631151
0.00146590563761
0.00226495409008
0.0027522685959
0.00293216982415
0.00281458497716
0.00232977624401
0.00111961712594
0.00112635932993
0.00234458722939
0.00287929118514
0.00306184041268
0.00295424961374
0.00254791539936
0.00179524593841
0.00122359401565
0.00105275347844
0.00106033599694
0.00106610385491
0.00103900223597
0.00117598111264
0.00170875823739
0.00244682557889
0.00287833239694
0.00301848231364
0.00287143615267
0.00236269255732
0.00112732945201
0.00113922928546
0.00239438067934
0.00296084584407
0.00318874805552
0.00316009470492
0.00290080916015
0.00242379164691
0.00193684953074
0.00177536246933
0.00177839396011
0.0017955576437
0.00178529492405
0.00191603668855
0.00234253849698
0.00282586838889
0.00310883410306
0.00316535589
0.00296586300689
0.00241796460442
0.00114156285177
0.00115533918003
0.00245541527887
0.00306169600241
0.00334470560057
0.00340181274214
0.00329042554846
0.00306212364403
0.00283945319634
0.00274763766588
0.00273756006502
0.00273525585181
0.0027408731435
0.002823932849
0.00302908667438
0.00325997361241
0.00338527296484
0.00334769962725
0.00308554272871
0.00248831850106
0.00115987240203
0.00116828740297
0.0025083970238
0.00315397144465
0.00349178742388
0.00362567005465
0.00362674762886
0.00355415085408
0.00348033941792
0.0034518794929
0.00345708021821
0.00346169654653
0.00346476565286
0.00349670140965
0.00356847249337
0.00364240301347
0.00364917368445
0.00352819679838
0.00320346818737
0.00255456490865
0.00117564063091
0.00116986889709
0.00252823590105
0.00320014372508
0.00358053440185
0.0037758535453
0.00385248788896
0.00386631329061
0.00386455212437
0.00387310269292
0.00389190979581
0.00390328052234
0.00390284484608
0.00390616142531
0.00391353185518
0.00390463716576
0.00383608792898
0.00365199583126
0.00327531911578
0.00258565287009
0.00117910007196
0.0011515152842
0.00248952625463
0.00316312184782
0.00356243660162
0.00379249318228
0.00391579359619
0.00397742897118
0.00401214288136
0.00403986010981
0.00406431417476
0.00407686279589
0.00407582056851
0.00406732874859
0.00404614072789
0.00399589519225
0.00388347894059
0.00365941136687
0.00325221701046
0.00255024992133
0.00116149061288
0.00110219249402
0.00236448367029
0.00300823357614
0.00339826591544
0.00363173551313
0.00376854001276
0.00384699907067
0.00389448754619
0.00392599911882
0.00394657637441
0.0039578833341
0.00395975725524
0.00395103920822
0.00392325240257
0.00385957811417
0.00373121858071
0.00349537333229
0.00309162002727
0.00242145780875
0.00111161613578
0.00101039043745
0.00212139154825
0.00269048143084
0.00303926872408
0.00325358021849
0.00338110656869
0.00345436483704
0.00349646743642
0.00352119824306
0.00353574364386
0.00354372998843
0.00354585652591
0.00353867183969
0.00351283183095
0.00345200084638
0.0033315485736
0.00311646535563
0.00275692345677
0.00216634413916
0.00101684083433
0.000858553293699
0.0017010927524
0.00213682842791
0.00240383035587
0.00256837874885
0.00266714810419
0.00272360585927
0.00275394755591
0.00276985223898
0.00277768680081
0.00278136318984
0.00278116452172
0.00277428878404
0.00275328738484
0.00270555654274
0.00261265199209
0.0024484345495
0.0021748996509
0.00172495742856
0.000858441641575
0.000635140714769
0.000872312093814
0.00103086474486
0.00112976091236
0.00119062381859
0.00122682026207
0.00124714749845
0.00125740043458
0.00126139032749
0.00126206237459
0.00126093978928
0.00125791214275
0.00125238300375
0.00124186470221
0.00122175440183
0.00118571575386
0.00112479969113
0.0010246729966
0.000863431910738
0.000623433441771
0.000753351817197
0.00107601685369
0.00128062544049
0.00139425204818
0.00144708438348
0.00146266905666
0.00146257085602
0.00145828996096
0.00145460574914
0.00145283344861
0.00145257130278
0.00145213080857
0.0014527267491
0.00145386950341
0.00144979654156
0.00142877543468
0.00137197981344
0.00125564200965
0.00104898831667
0.000730087674066
0.00108200140287
0.00213443090336
0.0026359446242
0.00290422740942
0.00303359897212
0.00308372184363
0.00309195074103
0.00308079812039
0.00306733337428
0.00306036565276
0.00305906836366
0.0030614359755
0.0030686301986
0.00307671092997
0.00306951873152
0.00301919359932
0.00288808382554
0.00261881995584
0.00211884396231
0.00106290731069
0.00128932162845
0.00264164695352
0.0032740864809
0.00361628577546
0.00378231831895
0.00383703385089
0.00382561919628
0.00378859408834
0.00375493759356
0.00373338548371
0.00372040421098
0.00371478822426
0.00372518498303
0.00374920968425
0.00376335335664
0.00372509272056
0.00357805031814
0.00325079706706
0.00262812079997
0.00127250052307
0.00140238303353
0.00291484427904
0.00361984231664
0.00399522577091
0.00415831804809
0.00417634340587
0.00411210797834
0.00402858869534
0.00396568938348
0.00392774143926
0.00390409864869
0.00389628114076
0.00392314782455
0.00398636574638
0.00404862984199
0.00405049071374
0.0039229407707
0.00358370129417
0.0029040659863
0.00138844052452
0.00145375879696
0.00304305913097
0.00377859152597
0.00415066504634
0.00427310126686
0.00421547955023
0.00405373647066
0.00388899538693
0.00378219821652
0.00372529513967
0.00369161118755
0.00368695222606
0.00375045009011
0.00389917087021
0.00405704723306
0.00413336151469
0.00405191635656
0.00373002767986
0.00303494974877
0.00144269366475
0.00146835847504
0.00307993583594
0.00381393525994
0.0041537861901
0.00420301619815
0.00401711887359
0.00366944169627
0.00334423921208
0.00317290948076
0.00309856030392
0.0030534360976
0.00305090895986
0.00317891454282
0.00351823344799
0.00385994733686
0.00405929496503
0.00404946001297
0.00376365715259
0.00307697328831
0.00146084941473
0.00146407502686
0.00306786935037
0.00378101693121
0.00407222095895
0.00402464919367
0.00364961451413
0.00293931919425
0.00223362085389
0.00197839129088
0.00190908523642
0.0018501187169
0.00183906945768
0.00206206317777
0.00284991464182
0.00352624074964
0.00390321705272
0.00398419723376
0.00374351460425
0.00307587254654
0.00146200462164
0.00145404969284
0.00304232796924
0.00373132667468
0.00397649864752
0.00383975921473
0.00327087129718
0.002065131806
0.00109051476297
0.000853109636966
0.000829017497999
0.000842503745098
0.000889586686546
0.00113203502834
0.00207100562887
0.00318455125218
0.0037490786836
0.00391555743044
0.00371419955148
0.00306328036393
0.00145732940191
0.00144675284026
0.00302822742074
0.00370370817602
0.00392441984944
0.00374453148757
0.0031031612738
0.00179509667369
0.000875270596026
0.000613019911647
0.000566275699509
0.000572846904886
0.000622113716472
0.00086786108463
0.00177230722749
0.00302288600546
0.0036760270994
0.00388809419572
0.00370619708226
0.00306104275524
0.00145534890678
0.0014479838312
0.00303994887645
0.00371988530475
0.00394489101958
0.00377082068501
0.00313973777338
0.00183959124034
0.000903958562349
0.000639185924554
0.000590528568638
0.000588000946458
0.000622092792292
0.000857531330188
0.00178536481238
0.00305849719297
0.00371893249329
0.00392870266166
0.0037382729305
0.00308145392776
0.00146043717757
0.00146001179998
0.00308187477884
0.00378579316722
0.00404561592803
0.00392901803982
0.00339860293511
0.0022516545057
0.0012304690243
0.000975618504877
0.000942763351732
0.000943921433629
0.000953977595877
0.00115247737833
0.00216767478508
0.0033215003149
0.00389470103747
0.00404808140885
0.00381779029556
0.00312964739275
0.00147454851768
0.0014815962928
0.00314882192183
0.00389342833251
0.00421402460093
0.00420221751345
0.00388166496931
0.00324643392654
0.00240881459973
0.0021507552178
0.00214755481724
0.00219346680128
0.00224991697872
0.00247294615817
0.00316399751647
0.00383652030919
0.00419709875339
0.00423918906096
0.00394055149339
0.00320337003768
0.00149752092064
0.00150660479347
0.00322466012762
0.00401743687835
0.00440920364667
0.00451145082847
0.00438828301174
0.00410749118671
0.00380644392186
0.00366814472686
0.0036431333581
0.00365363002234
0.00369312963467
0.00382675864998
0.00410685292906
0.00440119542846
0.00454473883989
0.00446157188128
0.00408351112344
0.00328864654311
0.00152465301954
0.00152480591683
0.00328401045631
0.00411954388951
0.00457754810267
0.00477817443214
0.00479913744057
0.00471493676982
0.00461474310539
0.00456278640555
0.00455653501557
0.00456941834652
0.00459655641972
0.00466124160757
0.00476692515333
0.00486000510041
0.00485071957623
0.00466175186226
0.0042095720576
0.00336056189651
0.00154558025684
0.00152416230201
0.003297236926
0.00415610175185
0.00466024301259
0.00493388629967
0.00505033397093
0.00507550434423
0.00506967531026
0.00506938733276
0.00508224568133
0.00509856822905
0.0051146633989
0.00513706379326
0.00515774919069
0.00514461872263
0.0050395514001
0.00477526151959
0.00426842941473
0.00338293475216
0.00154677629151
0.0014941745691
0.00323378142739
0.00408712633381
0.00460622330602
0.00491708634048
0.00508887110057
0.00517420908313
0.00521688343939
0.00524505642839
0.0052682449036
0.00528518565918
0.00529416206986
0.00529440310281
0.00527367908243
0.0052059951428
0.00504766168551
0.00474121304084
0.00420904781779
0.00332023181996
0.0015165990725
0.00142042614355
0.00306130913976
0.0038732746377
0.00437567061154
0.00468599158197
0.00487219839215
0.00497918044638
0.00504071507324
0.00507813343653
0.00510272433448
0.00511855337231
0.00512491805973
0.00511718623932
0.00508152611108
0.00499393224492
0.00481804794438
0.0045046897202
0.00398510651149
0.00313929559933
0.00144031139592
0.00128571311177
0.00273899519663
0.00346256248184
0.0039129617801
0.00419615386794
0.0043693310983
0.0044703879512
0.00452873233886
0.00456284465226
0.00458346429853
0.00459533874059
0.00459881716403
0.00458838906228
0.0045509040421
0.00446509582623
0.00430034459017
0.00401498955124
0.00354995791433
0.00279893192817
0.00130000641658
0.00106282398481
0.00219024637992
0.00276007668644
0.00311408448625
0.0033368099571
0.00347299730959
0.00355282209043
0.00359773914312
0.00362229323374
0.00363545017216
0.00364173639008
0.00364155173384
0.0036302436337
0.00359781494962
0.0035280161852
0.00339736735577
0.00317361393456
0.00280996749804
0.00222245204945
0.00106805502095
0.000730801210295
0.00107978098837
0.00131155802677
0.00145729186362
0.00154854899069
0.0016039442254
0.00163607568606
0.00165337901284
0.00166156080227
0.00166462699402
0.00166445647624
0.00166120146556
0.00165306062326
0.00163669501542
0.00160527424242
0.00155003604988
0.00145805069309
0.00130984707389
0.00107381109916
0.000722949127029
0.000818008823414
0.00121447451261
0.00146659232733
0.00160818722949
0.00167579961058
0.00169674811416
0.0016960397521
0.00168773490039
0.00167948716829
0.00167436484348
0.00167333934914
0.00167521805065
0.00167983530022
0.00168467841275
0.00168096779926
0.00165343624325
0.00158061089833
0.00143519927241
0.00118001084697
0.000785753313443
0.00122120545187
0.00245654836106
0.00304612646455
0.00336742687495
0.00352581743388
0.00358659144383
0.00359225867121
0.00357193102715
0.00354856907789
0.00353461127808
0.00353229085422
0.0035405074668
0.00355762058749
0.00357479506521
0.00356945657766
0.00350744046261
0.00334586460562
0.00302283743291
0.00243585315847
0.00119648799718
0.00147643070487
0.00305324911282
0.00378705329988
0.00418939555446
0.00438642236129
0.00444871540271
0.00442913180234
0.00437666909678
0.00432776695631
0.00429663388939
0.00428402623592
0.0042897490057
0.00431669040512
0.0043565775721
0.00437799628082
0.00432939881765
0.00414810897509
0.00375872946252
0.0030356759206
0.00145601235837
0.00161808107914
0.00338199727922
0.00419708521418
0.00463560812705
0.00482782051269
0.00484725395605
0.00476480149929
0.00465512316721
0.00456911736302
0.00451881717716
0.00449805140251
0.00450813434906
0.00456081130188
0.00464989436651
0.00472981425811
0.00472784853887
0.00456653301185
0.00416023521466
0.00336998940852
0.00160274847496
0.00168493567731
0.00354395852013
0.0043956610773
0.00483151767594
0.00497815205496
0.00490986914335
0.00471213525057
0.0045037621866
0.00436303502476
0.0042925496585
0.00426573212291
0.00428706056195
0.00438858592796
0.0045764775331
0.00476894604964
0.00485359952244
0.00474361098202
0.00435289849224
0.00353911090454
0.00167519734069
0.00170607121104
0.00359882908867
0.00445234261854
0.00485428120295
0.00491893036875
0.00470217797203
0.00428003313757
0.00385921874287
0.00363010209444
0.00354566957418
0.00351774540928
0.00355225873432
0.00374038764271
0.00415819518736
0.00456864868095
0.00479601616487
0.00476698572659
0.00441417584621
0.00360440881184
0.00170291262663
0.00170317286258
0.00359379000855
0.00442745336168
0.0047773143541
0.00473438163042
0.00429802549919
0.00339882181683
0.00232761046193
0.00196576316186
0.00187763983026
0.00186666299903
0.00191587207877
0.00221401106421
0.00335835247153
0.00420508978759
0.00463827291194
0.00471097070414
0.00440729918449
0.00361525092069
0.00170833652698
0.00169265544769
0.00356986871155
0.00437903865327
0.00467896669045
0.00453730092033
0.00388177764462
0.00221290353931
0.002225272573
0.00382339957447
0.00447744592302
0.00464474923012
0.00438410630663
0.00360874642447
0.00170549708503
0.00168528523494
0.00355757364282
0.00435377969541
0.00462832407186
0.00444025855434
0.0037037550635
0.00191166222401
0.00190618661237
0.00365497450341
0.00440622601531
0.00462262978393
0.00438259813799
0.00361206654121
0.00170557105241
0.001688752036
0.00357523565586
0.00437822581168
0.00465974680746
0.00448056368449
0.00375686904386
0.00195630622703
0.00193743826171
0.00370915203182
0.00446549780532
0.00467743355269
0.00442657257425
0.00364162852317
0.00171456657806
0.00170530494302
0.00362766396417
0.00445908600321
0.00478186506506
0.00466967537343
0.00406256869769
0.00241333750161
0.00237595129542
0.00402162911838
0.00467534311286
0.00482158345306
0.00452448623954
0.00370317653131
0.00173466749359
0.0017328238481
0.0037067941152
0.00458453576705
0.00497727511304
0.00498487711466
0.0046248926162
0.00385177121764
0.0025372874853
0.00222407179283
0.00217512377292
0.00218448449335
0.00225040892224
0.00257023930386
0.00375455087267
0.00461370331482
0.00502043164922
0.0050422101096
0.00466796548084
0.00379162455173
0.00176528754532
0.0017633730588
0.00379175509613
0.00472200587538
0.00519575951846
0.00533640862564
0.00521062459508
0.00489513165185
0.00453441524848
0.00436050143573
0.00431586165144
0.00432842971844
0.0043870587297
0.00456531588566
0.00492367746386
0.00526196174357
0.00541097062948
0.00528897367314
0.00482546967346
0.0038869198704
0.00179866164277
0.00178398048015
0.00385255885665
0.00482657965819
0.00537254381137
0.00562536016777
0.00566595187162
0.00557822218644
0.00546325214873
0.00539538142814
0.00538038242654
0.00539862871486
0.00544237036229
0.00553115356455
0.00566038063666
0.00576352058656
0.00573782350413
0.00549701164852
0.00495370147406
0.00396007817804
0.00182216848659
0.00177988411674
0.00385660295834
0.00485103158777
0.00544413241913
0.00577638326094
0.00592539510912
0.00596241567165
0.0059562946865
0.0059510895125
0.0059607495078
0.00598107706923
0.00600824316724
0.00604364089191
0.00607303832617
0.00605413959359
0.00592030790947
0.0055975423777
0.00499880447447
0.00397231039091
0.00181953363921
0.0017390206862
0.00377047814166
0.00475405864201
0.00535914751426
0.00572966719403
0.00593897972404
0.00604422043846
0.00609487993701
0.00612484546568
0.00614855006535
0.00616932541344
0.00618507751036
0.00619106616345
0.00616991263218
0.00608809780392
0.0058953085549
0.00552933940843
0.00490853722905
0.00388539745953
0.00177768332521
0.00164526246349
0.00355894721161
0.00449294713886
0.00507700027747
0.00544535941893
0.00566989928144
0.0057998227231
0.00587322460066
0.00591667034713
0.00594541897554
0.00596508778957
0.0059750243981
0.00596790207896
0.00592598698979
0.00581983201926
0.00560821021652
0.00523772373641
0.00463469689623
0.00366216411164
0.0016796535785
0.0014772716637
0.00317537333429
0.00401224327129
0.0045382701721
0.00487464015497
0.00508386877688
0.00520863383111
0.00528090971936
0.00532319144498
0.00534907114348
0.00536465515565
0.00536975358576
0.00535707411457
0.00531054950509
0.00520505507912
0.00500586747727
0.00466713714681
0.00412403421045
0.00325542696193
0.00150290104326
0.00120052510552
0.00253066066878
0.00320063440815
0.00362145550396
0.00389013258278
0.00405712179469
0.00415694492335
0.00421448227686
0.00424700084986
0.00426519326516
0.00427448384499
0.00427493713168
0.00426063831394
0.00421929963364
0.00413179671558
0.00397094501751
0.00370028922009
0.00326730365698
0.00257590342038
0.00121334025666
0.00078690536155
0.00121991262405
0.00150730158462
0.00168930543505
0.00180464806196
0.00187572678197
0.00191783439866
0.00194129257642
0.00195352738071
0.00195914288336
0.00196045639952
0.00195745192356
0.00194824567495
0.0019273901155
0.00188756435384
0.00181695163099
0.00170010739635
0.00151377344119
0.00121936663321
0.000782387698531
0.000866443882631
0.0013182684477
0.00160713602226
0.00177092194838
0.00185048958819
0.00187554927792
0.00187262147531
0.00185980161468
0.00184707180622
0.00183832425042
0.00183580094687
0.00183943515009
0.00184745039074
0.00185578385355
0.00185312558986
0.00182106058855
0.00173570096685
0.00156746500307
0.00127519276233
0.000824996621641
0.00132557313855
0.00269705275218
0.00335772519437
0.0037227146145
0.0039048709235
0.00397327491343
0.00397487419806
0.00394462906078
0.00391120711895
0.00389060869711
0.00388746361942
0.00390056604353
0.00392664334786
0.00395260674735
0.00394987483441
0.0038791467154
0.00369305477877
0.00332633263529
0.00266989701538
0.00129424017117
0.0016180280816
0.00336590015395
0.00418271656371
0.00463483359275
0.00485697475047
0.00492443867563
0.00489645133562
0.00482943735642
0.00476638848818
0.00472646000664
0.00471371418681
0.00472852917311
0.00476955826834
0.00482306501852
0.00485117173442
0.0047949842295
0.0045865275017
0.00414700992839
0.00334286113884
0.00159259123134
0.00178217320707
0.00374068963338
0.00464640839787
0.00513695815485
0.00535301769917
0.00537310585362
0.00527469427791
0.00514116130357
0.00503385363625
0.00497209949508
0.00495306950492
0.00497768065556
0.00505180710272
0.00516173392484
0.00525635016745
0.00525204031687
0.0050646073242
0.00460510649643
0.00372559722491
0.00176416676336
0.0018614972558
0.00393163213758
0.00487932544588
0.00536793907997
0.00553499734646
0.00545889980257
0.00523206247988
0.00498492561114
0.00481227965174
0.00472680080616
0.00470450714911
0.0047474036506
0.00488122376131
0.00509986662596
0.00532106845791
0.00541308813952
0.00528134764031
0.00483662231372
0.00392746013447
0.00185175841967
0.00188806306371
0.0040027484905
0.0049555352206
0.00540937774274
0.00548850771658
0.00525040574104
0.00477376254208
0.00427758062435
0.00399323476788
0.00388785139375
0.00386805577167
0.00393461185354
0.00417713382611
0.00465120296769
0.00512049218839
0.0053711549975
0.00532767121119
0.00492249467531
0.00401396292275
0.00188780483066
0.0018862599178
0.0040047890296
0.00493914595897
0.00533891161478
0.0053038132026
0.00482591601502
0.00380400809627
0.002515110882
0.00206759573231
0.00195741355128
0.0019518435287
0.0020321815553
0.00240993806619
0.00373923007204
0.00473753026541
0.00521674177458
0.00528293490121
0.00492934225956