/*--------------------------------*- C++ -*----------------------------------*\
| =========                 |                                                 |
| \\      /  F ield         | OpenFOAM: The Open Source CFD Toolbox           |
|  \\    /   O peration     | Version:  v1606+                                |
|   \\  /    A nd           | Web:      www.OpenFOAM.com                      |
|    \\/     M anipulation  |                                                 |
\*---------------------------------------------------------------------------*/
FoamFile
{
    version     2.0;
    format      ascii;
    class       volScalarField;
    location    "1.46";
    object      alpha.particles;
}
// * * * * * * * * * * * * * * * * * * * * * * * * * * * * * * * * * * * * * //

dimensions      [0 0 0 0 0 0 0];

internalField   nonuniform List<scalar> 
6000
(
0.428683
0.428684
0.428684
0.428685
0.428685
0.428685
0.428685
0.428684
0.41548
0.421117
0.428795
0.428795
0.421632
0.406597
0.406574
0.417178
0.42466
0.434822
0.4371
0.438951
0.438953
0.438954
0.438953
0.438952
0.438936
0.43888
0.438849
0.438848
0.438842
0.3964
0.394337
0.40872
0.411392
0.42013
0.425338
0.424648
0.423906
0.413977
0.411861
0.411909
0.411848
0.408494
0.406635
0.406578
0.406632
0.406578
0.406635
0.406606
0.406677
0.407398
0.425284
0.438903
0.438565
0.43161
0.414704
0.39429
0.374892
0.360302
0.358346
0.34636
0.353334
0.36857
0.378131
0.391938
0.409174
0.4296
0.454173
0.454307
0.448491
0.452844
0.456036
0.4517
0.442973
0.44021
0.442286
0.4461
0.449086
0.450842
0.449915
0.448397
0.456434
0.455742
0.433455
0.403261
0.378068
0.366905
0.363785
0.362406
0.361019
0.346359
0.351421
0.355504
0.361173
0.366098
0.375345
0.388738
0.421724
0.454765
0.456405
0.456413
0.456453
0.456458
0.456519
0.456497
0.45632
0.456523
0.456544
0.456488
0.456533
0.456477
0.456482
0.422345
0.383635
0.362725
0.3606
0.3606
0.372765
0.385838
0.38971
0.36703
0.409139
0.388666
0.39131
0.38593
0.37436
0.373926
0.37398
0.415416
0.456412
0.456454
0.456458
0.456519
0.456506
0.456581
0.456544
0.456598
0.456528
0.456548
0.456513
0.456539
0.438097
0.340723
0.330291
0.351621
0.372583
0.389966
0.420534
0.448804
0.455803
0.441594
0.504628
0.44353
0.444413
0.434538
0.404235
0.377708
0.357785
0.357695
0.408828
0.456458
0.456474
0.456478
0.434815
0.438762
0.45663
0.456565
0.456598
0.456532
0.456595
0.453533
0.328959
0.251833
0.291291
0.367309
0.417921
0.445914
0.476714
0.499561
0.505142
0.506651
0.539801
0.505984
0.486675
0.480087
0.455143
0.417617
0.369545
0.313777
0.296838
0.349696
0.389959
0.349057
0.296327
0.308589
0.371188
0.42434
0.441611
0.432056
0.41118
0.327988
0.227242
0.192614
0.256052
0.383633
0.469531
0.495453
0.507975
0.5192
0.523302
0.528551
0.539836
0.538411
0.510139
0.497911
0.486665
0.464755
0.397821
0.283731
0.211639
0.223887
0.240911
0.217088
0.198982
0.2048
0.239423
0.286598
0.310939
0.305056
0.276454
0.222486
0.184818
0.171077
0.219065
0.366537
0.484184
0.51381
0.517427
0.527266
0.530514
0.52958
0.530772
0.541827
0.526292
0.502562
0.494522
0.487902
0.409188
0.256856
0.186947
0.187304
0.189757
0.187164
0.187258
0.187245
0.200497
0.222405
0.234388
0.234812
0.217904
0.190696
0.174117
0.170932
0.191559
0.325498
0.462068
0.506506
0.5198
0.532915
0.538831
0.538847
0.527761
0.541777
0.531631
0.504394
0.495955
0.491932
0.379922
0.230765
0.186962
0.18697
0.18704
0.187125
0.18879
0.195092
0.207043
0.219257
0.223653
0.222088
0.206779
0.183942
0.171312
0.171191
0.181038
0.289752
0.440775
0.481744
0.507873
0.531515
0.538837
0.524166
0.527753
0.541661
0.532298
0.504872
0.49125
0.45068
0.316277
0.212775
0.186991
0.187016
0.188969
0.196903
0.212002
0.226798
0.233985
0.234243
0.229519
0.220812
0.203044
0.179602
0.171347
0.171192
0.181467
0.273985
0.428755
0.485446
0.490462
0.515547
0.523723
0.491998
0.527746
0.53142
0.531413
0.503278
0.458805
0.348435
0.25245
0.198783
0.187038
0.188691
0.203193
0.233494
0.267225
0.285407
0.287719
0.275907
0.25308
0.22764
0.202052
0.176472
0.171368
0.171337
0.189613
0.279966
0.423283
0.502069
0.503974
0.514397
0.491117
0.490002
0.527745
0.524904
0.52458
0.508889
0.39176
0.268403
0.210528
0.189615
0.187076
0.198525
0.240623
0.299858
0.345664
0.362126
0.359961
0.338905
0.300426
0.252376
0.208071
0.179047
0.174982
0.178193
0.213795
0.308097
0.441036
0.521515
0.532785
0.535061
0.521816
0.52733
0.541583
0.531301
0.536881
0.523193
0.348347
0.243092
0.198054
0.189836
0.189616
0.225614
0.30536
0.380224
0.4226
0.434224
0.431662
0.410183
0.367692
0.301559
0.235792
0.202335
0.203877
0.218472
0.268082
0.360793
0.476765
0.536812
0.546692
0.549258
0.549195
0.549522
0.547606
0.54429
0.544229
0.4867
0.341954
0.248354
0.209079
0.201069
0.21329
0.284982
0.392476
0.449217
0.474514
0.48139
0.482256
0.471471
0.443442
0.380459
0.308391
0.273272
0.284714
0.31173
0.360524
0.430219
0.50459
0.536759
0.544288
0.549298
0.549553
0.549626
0.546735
0.540934
0.418178
0.396507
0.35767
0.296625
0.262199
0.254584
0.28249
0.387298
0.481397
0.499461
0.509622
0.513783
0.5137
0.511284
0.505809
0.476732
0.424266
0.393982
0.408215
0.429675
0.456478
0.488972
0.523141
0.536153
0.495284
0.475783
0.549538
0.549634
0.546777
0.500956
0.233331
0.258436
0.366171
0.365814
0.351605
0.346883
0.378573
0.495117
0.531563
0.534895
0.535145
0.536465
0.535989
0.533359
0.53276
0.530985
0.518054
0.505363
0.506653
0.507326
0.513946
0.52179
0.522847
0.454371
0.287822
0.253793
0.43599
0.54965
0.546982
0.452628
0.167479
0.131897
0.278677
0.368584
0.389285
0.397272
0.408649
0.436471
0.481565
0.536863
0.536931
0.53694
0.536939
0.536937
0.536305
0.536515
0.536523
0.536515
0.53652
0.536507
0.536446
0.473668
0.341392
0.215193
0.14982
0.176401
0.34409
0.498858
0.546857
0.378859
0.158451
0.106585
0.128375
0.218761
0.269672
0.291108
0.287191
0.227247
0.246932
0.36207
0.516511
0.536883
0.536891
0.5353
0.494695
0.517606
0.536474
0.536497
0.536479
0.515046
0.383219
0.245615
0.166553
0.140832
0.140685
0.175567
0.320203
0.482997
0.449916
0.297507
0.182322
0.106454
0.0884549
0.0911757
0.105381
0.116297
0.11444
0.101296
0.122501
0.181786
0.279224
0.377894
0.384799
0.33518
0.297571
0.337987
0.404213
0.438331
0.421924
0.317192
0.216358
0.167166
0.153492
0.149789
0.154346
0.191892
0.307086
0.475861
0.340372
0.270185
0.213531
0.129849
0.0881413
0.0683225
0.0668287
0.0669328
0.069491
0.0842307
0.118259
0.166071
0.205223
0.222942
0.204038
0.155272
0.130744
0.157183
0.21951
0.272121
0.282431
0.250292
0.209603
0.18221
0.175325
0.178038
0.18532
0.210923
0.279324
0.397591
0.306666
0.261863
0.222273
0.161668
0.109056
0.0774074
0.0668914
0.0671467
0.0731675
0.0930525
0.131906
0.180957
0.213033
0.209553
0.172782
0.114739
0.0924769
0.120324
0.195496
0.274043
0.302088
0.273405
0.230668
0.210286
0.207167
0.209341
0.21245
0.220746
0.242697
0.286972
0.301158
0.256161
0.22098
0.183066
0.139123
0.100181
0.0795152
0.0790331
0.0869564
0.110509
0.151923
0.197753
0.223369
0.211233
0.163066
0.104906
0.0875054
0.122896
0.217387
0.314826
0.343563
0.302263
0.256421
0.238025
0.235694
0.233324
0.227984
0.223396
0.224787
0.236636
0.296838
0.253154
0.229271
0.20173
0.166709
0.131929
0.105399
0.101093
0.108255
0.131497
0.172611
0.212823
0.22877
0.20766
0.150404
0.097881
0.0850893
0.128047
0.249452
0.357075
0.377453
0.326806
0.281033
0.265204
0.262126
0.252995
0.238291
0.223586
0.223736
0.227793
0.294106
0.25228
0.239019
0.22618
0.197661
0.168383
0.142499
0.131313
0.13514
0.155055
0.194302
0.228083
0.22995
0.19728
0.133383
0.0912847
0.083427
0.129615
0.276134
0.39551
0.408739
0.352034
0.306598
0.29195
0.285537
0.270501
0.251542
0.232187
0.223868
0.230653
0.31213
0.257717
0.244343
0.245873
0.232249
0.20999
0.191106
0.173308
0.169193
0.18334
0.216483
0.243509
0.230889
0.178814
0.11547
0.0862609
0.0834436
0.125311
0.291778
0.429371
0.438182
0.377815
0.33326
0.317695
0.307853
0.291558
0.274369
0.257838
0.245376
0.245771
0.331017
0.272956
0.253784
0.26044
0.263239
0.25371
0.246133
0.229107
0.214845
0.222514
0.244176
0.254734
0.222492
0.153787
0.101646
0.0837005
0.0834408
0.116352
0.295409
0.455469
0.463083
0.404745
0.360999
0.342998
0.331858
0.318912
0.308736
0.300733
0.291922
0.287842
0.357167
0.294541
0.267637
0.276425
0.293615
0.298042
0.294293
0.28648
0.277003
0.279293
0.282865
0.260098
0.196567
0.129456
0.0946574
0.0834635
0.0834741
0.110052
0.280608
0.469066
0.481705
0.430942
0.388781
0.36858
0.358198
0.350816
0.348489
0.350979
0.353133
0.352903
0.384815
0.32192
0.296206
0.304963
0.328813
0.344011
0.345673
0.342236
0.341934
0.350269
0.330076
0.251576
0.165689
0.116917
0.0930709
0.0834783
0.0834609
0.109019
0.246907
0.462326
0.493454
0.454214
0.41565
0.394101
0.385095
0.382053
0.384321
0.394903
0.410969
0.424959
0.413853
0.357611
0.340024
0.349895
0.374933
0.394801
0.402506
0.400994
0.402846
0.420045
0.369749
0.236526
0.148417
0.115024
0.0951227
0.0847966
0.0838889
0.108485
0.217058
0.423445
0.500976
0.475555
0.442416
0.420068
0.410776
0.408548
0.411164
0.422716
0.449135
0.480871
0.444073
0.397976
0.391634
0.404597
0.427965
0.446885
0.457348
0.459095
0.458731
0.471373
0.390694
0.228231
0.14471
0.120655
0.103831
0.0902502
0.0871871
0.108366
0.194796
0.376472
0.500977
0.496633
0.472115
0.448858
0.435611
0.431104
0.430656
0.437798
0.461807
0.505141
0.471716
0.436749
0.441053
0.459034
0.481262
0.496782
0.505139
0.507045
0.503217
0.498171
0.402093
0.236726
0.153957
0.138344
0.125041
0.10499
0.0956398
0.110226
0.177203
0.336464
0.495388
0.508835
0.499514
0.48191
0.463718
0.454966
0.449621
0.449485
0.460337
0.501295
0.492819
0.469931
0.483693
0.506732
0.524652
0.53317
0.536731
0.53669
0.531606
0.51884
0.434483
0.269486
0.186006
0.172449
0.163075
0.13401
0.111249
0.1159
0.163284
0.29751
0.472132
0.508899
0.512743
0.508692
0.494772
0.483676
0.475192
0.466779
0.465072
0.492384
0.507372
0.499704
0.519492
0.538992
0.547291
0.550207
0.55078
0.549017
0.545545
0.540645
0.489261
0.331515
0.247602
0.225861
0.218936
0.18026
0.134945
0.123153
0.153817
0.261142
0.433095
0.505622
0.513275
0.519809
0.517604
0.512388
0.506918
0.49373
0.483151
0.492003
0.517114
0.525981
0.543094
0.552364
0.554071
0.554096
0.553905
0.548141
0.545608
0.545553
0.533712
0.426514
0.337593
0.304247
0.298
0.247462
0.168562
0.131274
0.149947
0.232434
0.387471
0.49558
0.512394
0.523395
0.532162
0.53423
0.532007
0.521625
0.505949
0.498513
0.52136
0.543692
0.553176
0.554085
0.554119
0.554063
0.550891
0.541585
0.538259
0.541563
0.54133
0.51262
0.429818
0.40264
0.403373
0.348665
0.22316
0.146058
0.153893
0.21777
0.353846
0.481707
0.514352
0.527774
0.544475
0.549276
0.548113
0.54071
0.524252
0.512096
0.52266
0.553152
0.554074
0.554133
0.553962
0.542918
0.547411
0.536599
0.529562
0.529607
0.541502
0.539924
0.506085
0.494366
0.502912
0.469745
0.313964
0.188273
0.182357
0.229898
0.344876
0.471343
0.523115
0.535143
0.549828
0.550579
0.550746
0.550521
0.537706
0.52237
0.517672
0.554032
0.554146
0.553898
0.469335
0.324739
0.447597
0.510189
0.53023
0.537109
0.541144
0.541063
0.541104
0.541001
0.53772
0.521865
0.409272
0.285254
0.267248
0.295829
0.375979
0.475202
0.521085
0.535165
0.531312
0.489502
0.55047
0.550663
0.545138
0.524257
0.502218
0.554062
0.553987
0.489967
0.229916
0.114226
0.171998
0.266005
0.356542
0.402873
0.436137
0.473687
0.500012
0.495819
0.426877
0.407829
0.402019
0.386931
0.377053
0.400636
0.458092
0.512362
0.521242
0.504764
0.332684
0.222683
0.437891
0.549581
0.545881
0.520026
0.492077
0.553946
0.548564
0.321779
0.111356
0.0820898
0.0821211
0.0961375
0.125926
0.160031
0.205225
0.25161
0.268468
0.254966
0.191011
0.18623
0.267427
0.348912
0.374385
0.401656
0.434373
0.441344
0.399237
0.250052
0.110209
0.0836819
0.221744
0.494757
0.52769
0.518767
0.488016
0.553894
0.488127
0.204378
0.0969303
0.0831584
0.0806868
0.0806902
0.0882467
0.108782
0.149452
0.18437
0.174839
0.133694
0.0962225
0.0874733
0.116177
0.186868
0.231163
0.246996
0.229365
0.187626
0.134596
0.0835897
0.0693402
0.0692218
0.100286
0.356244
0.517447
0.517744
0.485584
0.543648
0.389197
0.158591
0.104059
0.0932292
0.0884197
0.0890559
0.0996459
0.131541
0.176415
0.19293
0.167617
0.115813
0.0866354
0.0758373
0.0753644
0.0851074
0.0944678
0.0951837
0.0855544
0.0758405
0.0705867
0.0702234
0.0702188
0.0692222
0.0737215
0.189916
0.505019
0.536863
0.485547
0.50709
0.311299
0.150669
0.116329
0.104452
0.0992781
0.101862
0.120272
0.164864
0.198869
0.195407
0.154949
0.107182
0.0862623
0.0763757
0.0728876
0.0707679
0.0696969
0.0696451
0.0696442
0.0696442
0.0702062
0.0726395
0.0761549
0.0754411
0.0769461
0.13762
0.421402
0.539799
0.485546
0.467206
0.285862
0.161029
0.12708
0.114046
0.109369
0.114518
0.142603
0.189841
0.20369
0.190159
0.137692
0.10203
0.0867618
0.0785981
0.074921
0.0724331
0.070902
0.070652
0.0709064
0.0722373
0.0748736
0.0792954
0.0843833
0.0853524
0.0869594
0.130973
0.366083
0.539767
0.493009
0.458888
0.286952
0.174505
0.137127
0.123638
0.120254
0.129405
0.164278
0.201226
0.20369
0.17396
0.12527
0.0999564
0.0875985
0.0821496
0.0790628
0.0763601
0.0748425
0.0744563
0.0750632
0.077469
0.0813419
0.0866152
0.0928302
0.0953472
0.0996499
0.142603
0.34139
0.522895
0.507756
0.467424
0.293748
0.189465
0.148983
0.135441
0.134122
0.149695
0.183424
0.201129
0.196621
0.153687
0.119233
0.100424
0.0903065
0.0865055
0.0838406
0.0810757
0.079753
0.0793375
0.0801726
0.0829989
0.08759
0.0938681
0.101857
0.105628
0.113557
0.168122
0.361955
0.49496
0.526528
0.472765
0.306879
0.206869
0.162648
0.148833
0.150671
0.172762
0.193242
0.194688
0.172853
0.139936
0.117361
0.1024
0.0948772
0.0916274
0.0889432
0.0862223
0.084896
0.0844075
0.0853462
0.0885579
0.0940559
0.101779
0.111988
0.11726
0.129166
0.197638
0.388177
0.485147
0.527203
0.457724
0.32577
0.223668
0.175711
0.160946
0.164047
0.185368
0.192289
0.181094
0.156655
0.132422
0.117393
0.106629
0.100868
0.097318
0.0944863
0.0919737
0.0905151
0.0899502
0.0910111
0.0947829
0.101386
0.110771
0.123112
0.130801
0.146712
0.225174
0.403787
0.480518
0.497649
0.432578
0.346692
0.23228
0.183
0.168754
0.169129
0.185757
0.191279
0.178493
0.154442
0.130227
0.117969
0.11192
0.107632
0.103331
0.10043
0.0982845
0.0967091
0.096168
0.0975048
0.101974
0.109774
0.120858
0.134991
0.145966
0.165755
0.249523
0.415016
0.477643
0.435223
0.429099
0.366376
0.232753
0.18326
0.171874
0.173382
0.186607
0.191269
0.186815
0.169627
0.139599
0.121076
0.116552
0.11426
0.109561
0.106502
0.104771
0.103352
0.103046
0.104907
0.110209
0.119299
0.132171
0.148327
0.162664
0.186687
0.274254
0.429698
0.482292
0.444664
0.487383
0.385852
0.237738
0.18778
0.177585
0.1805
0.191466
0.200671
0.2076
0.200457
0.165968
0.133047
0.121147
0.119071
0.115796
0.112449
0.111043
0.110306
0.11072
0.113577
0.12
0.13073
0.146107
0.165128
0.183878
0.213849
0.305585
0.449843
0.496671
0.491614
0.523551
0.475136
0.277651
0.203583
0.193868
0.195857
0.208325
0.22667
0.238067
0.238272
0.203285
0.158017
0.131192
0.122528
0.12082
0.118623
0.117467
0.117989
0.120062
0.124757
0.133129
0.146585
0.166218
0.190022
0.215775
0.253292
0.344545
0.472812
0.517019
0.534126
0.534134
0.523471
0.343162
0.241271
0.226265
0.229445
0.245231
0.267102
0.278965
0.277625
0.241159
0.191938
0.153045
0.132165
0.126124
0.125492
0.126008
0.12851
0.133224
0.140883
0.152612
0.170642
0.196589
0.228545
0.264953
0.310591
0.388488
0.486052
0.525614
0.538475
0.535087
0.51094
0.389139
0.299008
0.28446
0.289706
0.302758
0.319289
0.327546
0.32029
0.281322
0.228916
0.184828
0.154343
0.140305
0.137878
0.139858
0.14486
0.152462
0.163689
0.180413
0.205461
0.240303
0.284156
0.333743
0.386643
0.44259
0.490061
0.525613
0.538428
0.519233
0.484225
0.428758
0.379392
0.371152
0.376239
0.383176
0.389091
0.388329
0.371283
0.326993
0.271167
0.223101
0.187116
0.167029
0.161321
0.162461
0.169829
0.180394
0.196294
0.220425
0.255496
0.302758
0.358483
0.414689
0.461981
0.493117
0.502767
0.505803
0.525825
0.491686
0.483149
0.479263
0.471938
0.472358
0.47597
0.476964
0.474017
0.463713
0.437437
0.38698
0.325715
0.270786
0.22961
0.204763
0.196208
0.196342
0.207131
0.223303
0.247401
0.283225
0.331814
0.389062
0.443985
0.48505
0.507954
0.517705
0.520839
0.512169
0.503561
0.498777
0.511388
0.529303
0.534301
0.536298
0.537157
0.536319
0.533434
0.525087
0.506151
0.463339
0.39894
0.335468
0.286983
0.257469
0.246531
0.246669
0.26366
0.290428
0.327998
0.376719
0.430927
0.477536
0.507044
0.520956
0.525641
0.526293
0.529551
0.525693
0.506811
0.527096
0.542733
0.546619
0.54659
0.542064
0.541828
0.541488
0.541477
0.541406
0.538656
0.523768
0.480566
0.41815
0.364176
0.331273
0.319345
0.320941
0.346119
0.384108
0.429249
0.472722
0.505508
0.523259
0.53048
0.533414
0.53357
0.531063
0.530576
0.530354
0.525653
0.54745
0.547856
0.546611
0.535693
0.529533
0.529866
0.529269
0.531827
0.535633
0.537573
0.537563
0.531262
0.496186
0.451135
0.420384
0.409613
0.413227
0.44069
0.475175
0.504353
0.522135
0.530333
0.534798
0.538068
0.539822
0.539435
0.536097
0.532024
0.530357
0.543463
0.548535
0.547785
0.526081
0.500501
0.498706
0.510179
0.514336
0.513573
0.518958
0.526882
0.53437
0.537355
0.534281
0.515318
0.496055
0.488399
0.49173
0.507778
0.522265
0.530161
0.534414
0.537379
0.539888
0.542333
0.544052
0.544073
0.541192
0.535195
0.530357
0.549132
0.548479
0.527319
0.474814
0.455828
0.470328
0.493278
0.501575
0.502137
0.502329
0.513499
0.527951
0.537373
0.540197
0.538231
0.532161
0.528501
0.52891
0.531994
0.53497
0.537562
0.539786
0.541653
0.543408
0.545323
0.546979
0.54745
0.545364
0.539265
0.53036
0.548418
0.529942
0.485704
0.453637
0.453636
0.454511
0.470408
0.484109
0.492503
0.493346
0.509017
0.526673
0.537644
0.542333
0.543321
0.54211
0.540542
0.539864
0.540045
0.540888
0.542209
0.543677
0.545
0.546253
0.547706
0.54917
0.549886
0.54853
0.54321
0.531382
0.536629
0.487131
0.460526
0.453636
0.461964
0.479139
0.477153
0.472126
0.479409
0.489717
0.510618
0.529034
0.539451
0.544324
0.545964
0.546088
0.545555
0.545112
0.545004
0.545305
0.546008
0.546933
0.547845
0.548731
0.549796
0.550997
0.551758
0.550939
0.546594
0.53414
0.507771
0.458603
0.459446
0.462119
0.499602
0.535326
0.504105
0.471866
0.471771
0.492571
0.517566
0.533668
0.54183
0.54601
0.547968
0.548725
0.548855
0.548779
0.548744
0.548869
0.549226
0.549773
0.550376
0.550988
0.551739
0.552652
0.553318
0.552773
0.549155
0.537852
0.45861
0.45861
0.484221
0.51707
0.543991
0.544034
0.516849
0.479936
0.47292
0.503391
0.526686
0.537874
0.543858
0.547429
0.549532
0.550685
0.55125
0.551496
0.551617
0.551737
0.55195
0.552282
0.552675
0.553089
0.553596
0.55424
0.55474
0.554272
0.551116
0.541694
0.458615
0.496899
0.541953
0.552876
0.552851
0.54294
0.511828
0.488317
0.485765
0.517878
0.533684
0.54103
0.54565
0.548769
0.550867
0.552222
0.553058
0.553555
0.553852
0.554057
0.554256
0.554499
0.554774
0.555059
0.555392
0.555812
0.556135
0.555653
0.55287
0.545443
0.49594
0.551253
0.552928
0.55292
0.548537
0.540188
0.520965
0.501369
0.507859
0.52936
0.538556
0.543747
0.547444
0.550156
0.552135
0.553544
0.554524
0.555194
0.555648
0.555965
0.556218
0.556457
0.55669
0.55691
0.557136
0.557393
0.557561
0.557054
0.554647
0.549108
0.547223
0.552943
0.552923
0.55045
0.536856
0.541203
0.538583
0.52402
0.530401
0.538397
0.542991
0.546514
0.549369
0.55165
0.553431
0.554792
0.555819
0.556588
0.557158
0.557581
0.557912
0.558195
0.558445
0.558657
0.558838
0.558998
0.559059
0.55856
0.556571
0.552704
0.552951
0.552926
0.546786
0.517417
0.525831
0.541792
0.549123
0.544668
0.545756
0.546141
0.54751
0.549435
0.551436
0.55326
0.554797
0.556045
0.557048
0.557855
0.558499
0.559005
0.559413
0.559763
0.560066
0.560316
0.560509
0.560642
0.560663
0.560232
0.558709
0.556239
0.55293
0.535909
0.490624
0.490569
0.529436
0.549819
0.55618
0.554709
0.553249
0.551708
0.551455
0.552224
0.553522
0.554941
0.556235
0.557336
0.558264
0.559061
0.559743
0.560309
0.560783
0.561204
0.561582
0.561906
0.562164
0.562341
0.562396
0.56211
0.561105
0.559741
0.547397
0.486639
0.486491
0.5046
0.549752
0.560235
0.560084
0.557776
0.556203
0.554897
0.554254
0.554534
0.555457
0.556623
0.557721
0.558657
0.559466
0.560211
0.560905
0.561516
0.56205
0.562545
0.563013
0.563442
0.563813
0.564104
0.564274
0.564216
0.563773
0.563261
0.490799
0.48649
0.502002
0.547665
0.561104
0.561229
0.559616
0.557084
0.55624
0.556055
0.555871
0.556248
0.557157
0.558271
0.559234
0.559967
0.560599
0.561259
0.561946
0.562602
0.563203
0.563786
0.564365
0.564933
0.56547
0.56595
0.566315
0.566542
0.566674
0.566844
0.484575
0.502164
0.549456
0.561146
0.561261
0.561122
0.555849
0.554231
0.555033
0.555758
0.556586
0.557487
0.558676
0.559931
0.560746
0.561152
0.561572
0.562142
0.562819
0.563533
0.564229
0.564926
0.565646
0.566401
0.567196
0.567958
0.568573
0.569061
0.569673
0.570406
0.497941
0.550964
0.561195
0.561287
0.561149
0.549465
0.544758
0.54717
0.551623
0.554718
0.5568
0.558494
0.560176
0.561693
0.562112
0.561927
0.562233
0.562796
0.563508
0.564324
0.565154
0.565997
0.566898
0.56791
0.569118
0.570377
0.571316
0.571819
0.572542
0.57359
0.536788
0.561208
0.561307
0.561192
0.549272
0.508799
0.525905
0.535343
0.546344
0.553205
0.557037
0.559596
0.561834
0.563465
0.562952
0.561851
0.562387
0.563166
0.564049
0.565045
0.566043
0.567047
0.568157
0.569411
0.570966
0.572847
0.573961
0.57437
0.574767
0.575418
0.560414
0.561319
0.561241
0.549708
0.496501
0.484969
0.500409
0.522544
0.541104
0.552188
0.557729
0.561052
0.563578
0.564699
0.562637
0.560691
0.562011
0.563305
0.564542
0.565781
0.566936
0.56807
0.569175
0.57023
0.571085
0.57205
0.570312
0.574095
0.575249
0.575458
0.561328
0.561283
0.554944
0.482578
0.476419
0.484846
0.485811
0.510686
0.535892
0.552016
0.559127
0.56288
0.565151
0.565175
0.561589
0.559794
0.561497
0.563469
0.565134
0.566571
0.567801
0.568848
0.569118
0.568204
0.565227
0.557424
0.533643
0.563368
0.570322
0.575365
0.56129
0.552157
0.486814
0.460279
0.476324
0.492231
0.4864
0.496381
0.529861
0.552159
0.561103
0.564854
0.566308
0.565242
0.560663
0.559667
0.561512
0.563841
0.565832
0.567351
0.56856
0.569028
0.567478
0.560014
0.545216
0.522391
0.522031
0.526507
0.54768
0.568252
0.555669
0.451444
0.454069
0.46022
0.487424
0.509553
0.495788
0.481483
0.521321
0.55222
0.563376
0.566734
0.566934
0.564695
0.55979
0.55946
0.561481
0.564293
0.566473
0.568064
0.569347
0.569335
0.564177
0.545557
0.525671
0.522497
0.522564
0.526179
0.526736
0.552736
0.515639
0.43032
0.453311
0.464043
0.505629
0.525624
0.51128
0.481541
0.511602
0.551929
0.56566
0.568277
0.567113
0.563455
0.558513
0.558805
0.561267
0.564529
0.566882
0.568692
0.570349
0.57045
0.564431
0.552437
0.544862
0.542307
0.53681
0.545828
0.533059
0.540391
0.477591
0.430344
0.454502
0.471426
0.517648
0.533624
0.518922
0.481528
0.504746
0.55217
0.567796
0.569239
0.566705
0.561171
0.556538
0.557562
0.560742
0.564405
0.566986
0.569087
0.571279
0.57264
0.570048
0.564602
0.560515
0.557552
0.555135
0.559223
0.5513
0.549602
0.477077
0.433352
0.456328
0.481861
0.525712
0.533629
0.51567
0.48154
0.504467
0.55433
0.569417
0.569421
0.565376
0.557288
0.553879
0.555813
0.559956
0.564075
0.566856
0.569175
0.571766
0.574538
0.576193
0.576615
0.575836
0.574332
0.573006
0.573592
0.569842
0.560523
0.47618
0.434509
0.45615
0.495733
0.53271
0.533627
0.503202
0.482644
0.507869
0.557774
0.569533
0.569166
0.563064
0.551903
0.55057
0.553795
0.559226
0.563787
0.566678
0.569028
0.571711
0.575151
0.579436
0.584384
0.585978
0.586047
0.584364
0.584254
0.583743
0.577754
0.472487
0.434491
0.455595
0.506217
0.536316
0.532769
0.486537
0.485285
0.52115
0.56237
0.569531
0.568407
0.559626
0.544996
0.546077
0.551957
0.559001
0.563845
0.566606
0.568716
0.571215
0.574469
0.578475
0.582968
0.583306
0.586057
0.586133
0.586184
0.586231
0.586215
0.471204
0.442406
0.464653
0.51248
0.537042
0.530283
0.484462
0.483379
0.531633
0.565653
0.569648
0.567449
0.553109
0.534407
0.540433
0.55105
0.559529
0.564297
0.566621
0.568227
0.569952
0.571288
0.569454
0.560443
0.533616
0.562134
0.573585
0.581575
0.586009
0.586249
0.478356
0.479979
0.496666
0.518935
0.538131
0.531685
0.484528
0.483665
0.532371
0.566811
0.569542
0.565327
0.535432
0.517931
0.535772
0.551829
0.560927
0.564992
0.566558
0.567418
0.567304
0.563624
0.541806
0.48352
0.46011
0.467812
0.527711
0.566791
0.580762
0.585931
0.500592
0.53245
0.53087
0.526654
0.539693
0.535978
0.485651
0.483594
0.533642
0.567576
0.569806
0.561633
0.513221
0.511155
0.534376
0.554211
0.562654
0.565525
0.566197
0.565779
0.562479
0.546541
0.488485
0.460103
0.460181
0.460159
0.534475
0.559897
0.577477
0.585806
0.53047
0.539024
0.539179
0.533077
0.541005
0.540851
0.494935
0.483679
0.538114
0.568214
0.569527
0.555383
0.511198
0.511157
0.536307
0.557105
0.56411
0.565486
0.565293
0.563062
0.554011
0.512629
0.460166
0.460186
0.484825
0.537167
0.56669
0.561697
0.568977
0.584331
0.537632
0.537637
0.539587
0.536983
0.541001
0.541123
0.507393
0.499073
0.546475
0.568195
0.569706
0.546045
0.511215
0.512838
0.540507
0.559822
0.565135
0.565437
0.564006
0.559087
0.539946
0.468292
0.460221
0.482203
0.545138
0.573741
0.571083
0.562687
0.556703
0.553333
0.537581
0.529147
0.540322
0.540347
0.540076
0.54113
0.518155
0.525398
0.553595
0.565998
0.56948
0.546346
0.52335
0.520423
0.542755
0.561831
0.565408
0.565141
0.561861
0.552677
0.515268
0.465028
0.46811
0.530273
0.572074
0.582597
0.580026
0.577694
0.567128
0.554739
0.422472
0.337464
0.404917
0.40682
0.479319
0.540665
0.537505
0.54479
0.553736
0.560606
0.569821
0.556867
0.536983
0.518095
0.540763
0.563026
0.565417
0.564225
0.55815
0.540512
0.485117
0.465027
0.501894
0.562347
0.582559
0.588893
0.592848
0.594547
0.594658
0.579423
0.188883
0.140076
0.163875
0.166545
0.223664
0.313188
0.475428
0.541099
0.551395
0.556135
0.564785
0.55641
0.499968
0.492794
0.536263
0.563916
0.565422
0.562631
0.551352
0.520055
0.485009
0.48575
0.546821
0.578693
0.586888
0.593581
0.594636
0.594901
0.594934
0.595074
0.14462
0.116645
0.116806
0.116764
0.125262
0.153217
0.239929
0.436781
0.548741
0.555461
0.55817
0.47408
0.384909
0.443002
0.533581
0.564777
0.565416
0.558911
0.536237
0.497632
0.489571
0.529021
0.570166
0.582421
0.58675
0.590885
0.590264
0.59498
0.595166
0.595193
0.19481
0.140025
0.146941
0.145693
0.147698
0.153139
0.16711
0.239958
0.342947
0.416504
0.388014
0.301554
0.305701
0.424296
0.537983
0.564762
0.564436
0.549573
0.510313
0.497646
0.513548
0.559576
0.577151
0.57989
0.577516
0.565945
0.546881
0.579132
0.5953
0.595112
0.274486
0.184029
0.201713
0.197886
0.191719
0.184907
0.185397
0.194169
0.224216
0.262615
0.265868
0.265371
0.296833
0.443255
0.548554
0.564735
0.560164
0.532842
0.490169
0.497178
0.540079
0.569677
0.57538
0.570346
0.546491
0.491455
0.484537
0.503566
0.520553
0.578462
0.355247
0.230592
0.262022
0.258029
0.245632
0.229068
0.217147
0.214696
0.223225
0.245613
0.279211
0.280876
0.333936
0.486695
0.560239
0.564432
0.550371
0.512025
0.489718
0.511939
0.556958
0.56961
0.568038
0.545943
0.442897
0.33906
0.353923
0.344003
0.322847
0.41682
0.421177
0.287938
0.3255
0.32673
0.310346
0.280892
0.254936
0.240969
0.243643
0.265216
0.305792
0.323939
0.417073
0.537789
0.561604
0.559302
0.533782
0.490468
0.489715
0.53413
0.564884
0.565821
0.545767
0.43946
0.220352
0.132325
0.139552
0.135504
0.114365
0.156812
0.478676
0.38104
0.39455
0.400015
0.380324
0.338891
0.295666
0.266338
0.271387
0.29962
0.336129
0.388379
0.509458
0.561488
0.561597
0.548335
0.515998
0.471842
0.502273
0.553786
0.56148
0.546147
0.460359
0.215573
0.0609721
0.0369348
0.033976
0.0311551
0.0266449
0.0343921
0.524012
0.487419
0.468983
0.464123
0.437404
0.388989
0.330496
0.293306
0.312058
0.36346
0.395
0.482543
0.555643
0.558921
0.550176
0.532329
0.502627
0.464207
0.503327
0.547765
0.543356
0.460612
0.204822
0.0503729
0.0281934
0.0251968
0.0206255
0.0167736
0.0164338
0.0164198
0.531115
0.531107
0.526705
0.509666
0.475004
0.418148
0.354564
0.33079
0.373285
0.458105
0.495279
0.550568
0.554104
0.540998
0.528935
0.513806
0.474293
0.456112
0.473054
0.460061
0.327615
0.118765
0.0364989
0.0233212
0.0256268
0.0263841
0.0230598
0.0188705
0.0170743
0.0163624
0.531096
0.530014
0.535662
0.532211
0.499777
0.43293
0.377428
0.379569
0.436381
0.530043
0.550697
0.55071
0.534977
0.514588
0.519996
0.520155
0.502699
0.435209
0.266339
0.11689
0.0552522
0.0336779
0.0251923
0.0218452
0.0242638
0.027128
0.0266551
0.023582
0.0211866
0.0194102
0.4531
0.398268
0.535498
0.535686
0.519135
0.455288
0.416033
0.423168
0.463844
0.521379
0.528548
0.510864
0.485455
0.445008
0.439072
0.399455
0.216898
0.0907643
0.0463748
0.0360992
0.0347315
0.0324885
0.0264193
0.0214723
0.0217879
0.0271033
0.0279731
0.0271781
0.0261335
0.0253666
0.335318
0.290792
0.469528
0.535632
0.532872
0.501052
0.455064
0.438408
0.406945
0.322793
0.239169
0.184132
0.143333
0.110264
0.0858072
0.057522
0.0389797
0.0351548
0.0345493
0.0345539
0.0345394
0.0331931
0.027757
0.0211094
0.0187312
0.0236205
0.0279557
0.0281947
0.0287627
0.0304375
0.292457
0.291567
0.379008
0.506512
0.532578
0.524587
0.430401
0.310561
0.180698
0.102326
0.0796147
0.0674263
0.0554007
0.0464659
0.0408474
0.0374259
0.0358217
0.0352177
0.0349501
0.034914
0.0349325
0.0338513
0.0288631
0.0210281
0.0167452
0.018587
0.0244232
0.02722
0.0292937
0.0324266
0.29169
0.291059
0.325186
0.420882
0.524184
0.418322
0.211962
0.103474
0.076751
0.0725014
0.0698315
0.0622942
0.0526678
0.0458476
0.0431457
0.0424346
0.0416267
0.0399787
0.0378887
0.0365265
0.0358473
0.0346173
0.030076
0.0218891
0.0160214
0.0147246
0.0187896
0.0240214
0.0284424
0.0325677
0.38159
0.291669
0.311979
0.37495
0.435092
0.334398
0.136454
0.0747597
0.0732803
0.0732769
0.0698244
0.0607321
0.0523536
0.0486644
0.0482118
0.0483145
0.0475248
0.0448829
0.0411582
0.038403
0.036948
0.0355163
0.0315226
0.0235426
0.0159417
0.0127275
0.0142375
0.0192708
0.0259595
0.0325677
0.556513
0.429013
0.373032
0.372764
0.401225
0.355312
0.162758
0.0787807
0.0734092
0.0733566
0.0686891
0.0590765
0.0529029
0.0518139
0.0524931
0.052976
0.0517805
0.0480571
0.0432483
0.0396742
0.0377436
0.0363295
0.0330511
0.0255025
0.0166037
0.0120619
0.0115805
0.0150003
0.02242
0.0317949
0.55694
0.556666
0.508679
0.445217
0.404447
0.455619
0.22491
0.0906668
0.0737451
0.0731786
0.0662811
0.0585183
0.0555361
0.0558348
0.0567245
0.0569028
0.054653
0.0498328
0.0443095
0.0401946
0.038021
0.0368008
0.0344204
0.0276441
0.0180675
0.0119845
0.0103513
0.012348
0.0191048
0.0295537
0.556913
0.55694
0.556807