/*--------------------------------*- C++ -*----------------------------------*\
| =========                 |                                                 |
| \\      /  F ield         | OpenFOAM: The Open Source CFD Toolbox           |
|  \\    /   O peration     | Version:  v1606+                                |
|   \\  /    A nd           | Web:      www.OpenFOAM.com                      |
|    \\/     M anipulation  |                                                 |
\*---------------------------------------------------------------------------*/
FoamFile
{
    version     2.0;
    format      ascii;
    class       volScalarField;
    location    "1.46";
    object      p_rgh;
}
// * * * * * * * * * * * * * * * * * * * * * * * * * * * * * * * * * * * * * //

dimensions      [1 -1 -2 0 0 0 0];

internalField   nonuniform List<scalar> 
6000
(
106428
106430
106431
106433
106435
106437
106438
106437
106435
106436
106438
106436
106434
106432
106432
106434
106435
106436
106436
106435
106436
106434
106429
106424
106419
106416
106416
106417
106418
106413
106391
106394
106395
106397
106399
106401
106403
106403
106404
106405
106406
106405
106404
106404
106405
106405
106405
106403
106400
106396
106395
106392
106386
106383
106381
106382
106385
106388
106393
106393
106381
106384
106384
106384
106387
106393
106404
106410
106411
106415
106418
106417
106413
106412
106414
106417
106419
106418
106413
106405
106395
106379
106365
106360
106364
106374
106387
106398
106405
106404
106389
106385
106381
106374
106366
106361
106367
106383
106391
106395
106397
106397
106397
106397
106400
106404
106405
106404
106398
106387
106368
106332
106320
106330
106351
106372
106396
106418
106430
106425
106432
106411
106403
106387
106363
106343
106325
106334
106359
106367
106369
106368
106364
106367
106375
106382
106387
106386
106379
106364
106326
106264
106273
106312
106353
106389
106427
106461
106479
106479
106503
106451
106440
106418
106378
106337
106298
106272
106291
106325
106329
106322
106301
106308
106337
106354
106363
106363
106355
106335
106240
106193
106233
106312
106379
106426
106468
106501
106517
106529
106525
106496
106468
106449
106412
106360
106293
106220
106188
106222
106253
106219
106179
106192
106248
106303
106327
106323
106305
106237
106162
106141
106198
106319
106419
106467
106496
106520
106535
106548
106519
106518
106482
106459
106435
106397
106311
106186
106111
106118
106132
106113
106101
106109
106143
106191
106220
106220
106199
106155
106127
106119
106166
106310
106440
106491
106511
106534
106549
106557
106509
106520
106497
106461
106443
106423
106325
106159
106087
106088
106093
106094
106099
106104
106120
106146
106163
106169
106156
106133
106121
106120
106143
106285
106438
106501
106528
106555
106574
106582
106510
106525
106508
106469
106451
106437
106302
106132
106086
106091
106096
106103
106111
106124
106143
106161
106170
106172
106158
106135
106123
106125
106137
106264
106445
106500
106537
106574
106595
106585
106520
106537
106523
106483
106459
106402
106234
106111
106086
106094
106104
106124
106152
106178
106194
106199
106196
106188
106167
106139
106131
106132
106145
106264
106464
106539
106544
106578
106595
106561
106539
106543
106544
106503
106436
106281
106156
106093
106086
106099
106130
106184
106243
106278
106289
106277
106249
106216
106181
106146
106140
106141
106167
106293
106493
106600
106596
106606
106574
106579
106567
106560
106562
106543
106364
106180
106101
106080
106086
106116
106193
106297
106379
106415
106421
106397
106343
106273
106206
106162
106157
106162
106216
106359
106557
106670
106675
106671
106651
106667
106621
106603
106616
106603
106319
106153
106086
106082
106091
106163
106308
106444
106526
106557
106564
106540
106478
106375
106269
106214
106217
106241
106321
106468
106648
106728
106727
106727
106731
106739
106665
106659
106661
106572
106329
106173
106111
106105
106135
106274
106475
106584
106638
106661
106675
106671
106637
106537
106416
106356
106376
106421
106499
106607
106714
106739
106727
106737
106755
106763
106698
106686
106449
106417
106368
106270
106217
106210
106270
106476
106657
106694
106719
106737
106750
106762
106772
106738
106653
106600
106625
106655
106687
106718
106744
106726
106619
106581
106749
106770
106740
106647
106096
106148
106385
106408
106394
106393
106459
106691
106756
106769
106781
106794
106804
106810
106825
106846
106844
106828
106824
106806
106789
106765
106724
106557
106213
106146
106529
106779
106789
106582
105963
105883
106200
106404
106459
106481
106500
106542
106635
106768
106792
106804
106811
106814
106814
106834
106860
106875
106869
106849
106812
106644
106344
106069
105930
105991
106357
106701
106840
106451
105947
105826
105869
106071
106186
106233
106220
106078
106123
106388
106749
106805
106805
106795
106699
106765
106834
106856
106856
106787
106469
106150
105970
105913
105915
105996
106325
106701
106656
106287
106010
105826
105778
105779
105809
105832
105825
105792
105842
105983
106213
106447
106456
106332
106242
106345
106517
106618
106589
106337
106095
105979
105948
105941
105953
106042
106316
106719
106418
106241
106099
105888
105780
105726
105719
105717
105721
105757
105841
105957
106049
106086
106032
105905
105844
105914
106079
106224
106263
106190
106092
106026
106011
106019
106037
106099
106267
106561
106359
106242
106138
105978
105838
105753
105723
105721
105735
105785
105885
106009
106086
106069
105966
105810
105751
105827
106032
106250
106337
106270
106162
106111
106104
106110
106117
106137
106191
106305
106372
106248
106152
106048
105927
105819
105760
105757
105776
105839
105949
106068
106130
106089
105950
105787
105740
105839
106105
106384
106476
106371
106249
106201
106196
106190
106174
106159
106160
106191
106387
106261
106194
106115
106015
105915
105838
105823
105841
105905
106017
106125
106162
106092
105921
105769
105732
105858
106213
106532
106603
106466
106339
106296
106288
106262
106219
106175
106174
106185
106405
106280
106241
106204
106120
106032
105954
105919
105927
105982
106093
106185
106180
106073
105876
105749
105726
105865
106310
106677
106729
106568
106436
106395
106377
106333
106276
106218
106192
106212
106488
106318
106277
106283
106242
106174
106114
106057
106040
106079
106174
106248
106197
106025
105824
105732
105724
105854
106378
106817
106856
106676
106541
106496
106467
106418
106366
106315
106277
106278
106576
106387
106326
106349
106360
106331
106306
106249
106199
106218
106279
106300
106183
105952
105781
105723
105721
105827
106410
106938
106975
106793
106655
106600
106566
106527
106496
106473
106446
106433
106692
106481
106391
106422
106482
106499
106487
106459
106424
106424
106425
106333
106108
105877
105758
105720
105719
105808
106382
107023
107076
106912
106774
106709
106676
106654
106649
106661
106672
106673
106817
106598
106510
106541
106626
106681
106687
106674
106670
106692
106607
106318
106010
105838
105754
105719
105718
105805
106285
107040
107157
107026
106895
106821
106791
106783
106793
106834
106893
106945
106950
106748
106687
106724
106815
106888
106916
106910
106913
106969
106773
106280
105957
105835
105762
105723
105718
105805
106195
106940
107226
107138
107019
106939
106906
106898
106909
106952
107050
107168
107090
106920
106898
106948
107036
107107
107146
107152
107149
107191
106880
106266
105952
105861
105797
105743
105729
105805
106124
106801
107268
107252
107160
107071
107020
107002
106999
107026
107116
107280
107221
107088
107107
107178
107263
107323
107355
107364
107350
107330
106958
106317
105996
105934
105881
105800
105759
105811
106064
106675
107288
107336
107296
107224
107150
107113
107090
107088
107129
107287
107327
107237
107293
107385
107455
107489
107504
107507
107493
107450
107122
106466
106132
106076
106036
105916
105818
105830
106013
106542
107234
107373
107380
107357
107295
107247
107210
107175
107167
107275
107405
107375
107456
107533
107565
107575
107579
107578
107574
107572
107383
106740
106395
106304
106272
106107
105912
105855
105975
106409
107109
107396
107414
107429
107411
107384
107358
107303
107260
107297
107465
107502
107571
107605
107606
107604
107604
107587
107590
107613
107596
107162
106788
106646
106616
106394
106049
105883
105955
106297
106945
107389
107441
107471
107495
107497
107484
107440
107376
107347
107502
107597
107632
107626
107616
107608
107595
107563
107564
107603
107638
107547
107197
107081
107083
106840
106283
105940
105968
106240
106823
107363
107480
107515
107571
107582
107575
107544
107476
107428
107530
107663
107657
107638
107612
107546
107575
107541
107526
107548
107631
107657
107528
107485
107527
107385
106687
106120
106090
106297
106800
107346
107546
107568
107612
107602
107608
107612
107560
107498
107534
107698
107681
107648
107234
106561
107130
107426
107533
107580
107618
107644
107666
107670
107651
107601
107111
106553
106472
106598
106951
107379
107552
107581
107535
107327
107618
107637
107622
107533
107493
107733
107709
107376
106137
105589
105861
106306
106739
106965
107132
107320
107451
107428
107099
107019
107029
106999
106966
107075
107328
107551
107555
107445
106617
106094
107115
107660
107658
107543
107477
107769
107717
106605
105582
105441
105439
105507
105651
105819
106041
106268
106348
106279
105968
105947
106351
106767
106904
107036
107180
107195
106975
106243
105563
105436
106105
107437
107609
107571
107494
107812
107471
106053
105519
105451
105438
105438
105475
105578
105781
105953
105903
105696
105509
105465
105607
105960
106182
106259
106167
105956
105691
105438
105368
105369
105522
106796
107602
107607
107521
107812
107018
105840
105562
105507
105482
105486
105540
105702
105930
106012
105880
105614
105465
105410
105406
105454
105500
105503
105453
105403
105377
105376
105377
105373
105395
105986
107595
107759
107564
107676
106650
105812
105633
105571
105544
105558
105654
105886
106061
106040
105827
105577
105468
105416
105397
105385
105378
105378
105377
105377
105381
105394
105413
105410
105417
105733
107217
107839
107611
107514
106545
105879
105698
105628
105604
105631
105781
106031
106103
106028
105746
105556
105475
105431
105411
105397
105389
105387
105388
105396
105410
105434
105462
105467
105476
105712
106969
107904
107701
107516
106579
105965
105761
105688
105670
105720
105909
106109
106120
105955
105689
105551
105484
105454
105437
105422
105414
105412
105415
105428
105450
105479
105514
105528
105552
105787
106874
107873
107836
107613
106644
106062
105837
105761
105754
105841
106028
106125
106098
105857
105664
105560
105504
105483
105468
105453
105445
105443
105448
105464
105490
105525
105570
105592
105637
105942
107025
107770
108001
107695
106748
106177
105925
105846
105857
105983
106098
106105
105979
105790
105662
105577
105535
105517
105501
105486
105479
105476
105482
105500
105532
105577
105635
105666
105734
106125
107212
107766
108067
107658
106888
106292
106013
105927
105945
106068
106108
106042
105899
105758
105670
105608
105575
105555
105539
105524
105516
105513
105519
105542
105581
105636
105708
105753
105846
106303
107344
107791
107944
107555
107043
106362
106068
105984
105986
106084
106117
106041
105898
105755
105682
105647
105621
105596
105579
105567
105558
105555
105563
105590
105637
105703
105788
105853
105971
106470
107453
107825
107611
107576
107196
106384
106083
106014
106023
106104
106132
106106
106003
105822
105709
105682
105668
105640
105622
105612
105604
105602
105614
105646
105702
105780
105879
105966
106112
106643
107586
107903
107709
107979
107353
106435
106124
106061
106080
106148
106207
106251
106209
105996
105792
105718
105705
105685
105665
105657
105653
105656
105674
105714
105781
105876
105994
106110
106296
106864
107755
108042
108042
108249
107955
106708
106238
106177
106190
106270
106388
106462
106465
106245
105960
105790
105735
105724
105711
105704
105708
105721
105751
105805
105890
106014
106164
106327
106564
107138
107945
108220
108348
108355
108305
107150
106495
106399
106421
106525
106667
106746
106739
106506
106189
105939
105805
105766
105762
105766
105782
105813
105863
105939
106055
106222
106428
106662
106954
107451
108073
108323
108404
108391
108253
107471
106887
106795
106832
106920
107030
107087
107042
106789
106446
106158
105958
105866
105850
105864
105897
105948
106022
106132
106296
106525
106812
107135
107477
107835
108136
108361
108424
108305
108093
107748
107434
107388
107426
107476
107518
107516
107406
107115
106745
106426
106186
106052
106015
106023
106073
106144
106251
106412
106647
106961
107330
107699
108004
108198
108249
108259
108353
108131
108095
108096
108068
108084
108116
108128
108112
108049
107879
107545
107135
106765
106486
106318
106261
106262
106337
106448
106612
106855
107184
107569
107933
108198
108336
108385
108392
108325
108209
108187
108293
108437
108489
108515
108530
108534
108524
108481
108369
108091
107659
107228
106896
106694
106619
106621
106741
106926
107186
107520
107888
108198
108383
108457
108469
108456
108466
108433
108235
108387
108506
108540
108548
108525
108535
108546
108563
108584
108592
108520
108244
107821
107451
107224
107143
107155
107333
107599
107912
108207
108420
108521
108547
108545
108527
108494
108479
108472
108367
108523
108526
108515
108439
108405
108422
108433
108469
108520
108564
108601
108596
108378
108075
107865
107793
107821
108015
108254
108447
108552
108585
108591
108592
108585
108565
108528
108489
108472
108485
108517
108506
108343
108162
108163
108262
108309
108319
108378
108462
108551
108612
108628
108521
108400
108352
108377
108485
108574
108609
108615
108613
108609
108608
108603
108590
108558
108507
108466
108513
108503
108341
107956
107827
107948
108132
108206
108224
108241
108345
108479
108581
108634
108649
108625
108608
108610
108623
108628
108628
108624
108618
108613
108610
108609
108601
108577
108526
108456
108498
108355
108027
107798
107813
107834
107962
108072
108144
108163
108297
108450
108556
108615
108643
108650
108647
108642
108636
108631
108626
108621
108614
108609
108606
108605
108602
108585
108541
108450
108405
108029
107838
107800
107882
108032
108022
107980
108037
108124
108296
108450
108545
108597
108624
108636
108638
108635
108629
108623
108617
108612
108606
108600
108597
108597
108596
108585
108549
108453
108182
107808
107831
107868
108177
108472
108234
107974
107969
108136
108336
108468
108539
108579
108603
108615
108620
108620
108616
108611
108605
108599
108594
108589
108586
108586
108585
108578
108548
108460
107793
107806
108025
108299
108518
108523
108318
108026
107966
108207
108391
108479
108528
108560
108580
108593
108599
108601
108599
108595
108590
108585
108580
108576
108573
108572
108572
108566
108541
108467
107788
108107
108474
108560
108557
108486
108252
108072
108050
108304
108425
108479
108514
108539
108557
108569
108576
108579
108578
108576
108573
108569
108565
108562
108559
108558
108558
108553
108530
108471
108075
108522
108522
108512
108478
108428
108298
108151
108203
108371
108437
108472
108498
108518
108533
108544
108551
108555
108556
108556
108554
108552
108549
108547
108545
108544
108544
108539
108519
108475
108449
108480
108460
108429
108330
108393
108402
108300
108353
108411
108440
108462
108480
108496
108509
108518
108526
108530
108533
108534
108534
108534
108533
108532
108531
108530
108530
108525
108509
108478
108426
108409
108336
108091
108187
108349
108438
108421
108434
108432
108438
108449
108461
108474
108484
108493
108500
108506
108510
108513
108514
108515
108516
108516
108517
108517
108517
108513
108501
108482
108355
108196
107807
107821
108177
108371
108443
108445
108440
108428
108425
108430
108439
108450
108460
108468
108476
108482
108487
108491
108494
108497
108499
108501
108503
108505
108505
108504
108496
108485
108240
107720
107737
107914
108316
108411
108417
108407
108403
108400
108399
108404
108414
108425
108435
108444
108451
108457
108464
108469
108474
108478
108482
108487
108490
108494
108496
108497
108494
108491
107710
107682
107845
108256
108366
108360
108347
108334
108340
108351
108361
108372
108386
108399
108410
108419
108426
108433
108440
108447
108453
108460
108466
108473
108479
108485
108490
108493
108496
108498
107629
107799
108230
108321
108302
108285
108239
108238
108264
108290
108314
108335
108355
108373
108386
108393
108400
108407
108416
108424
108433
108441
108450
108460
108469
108479
108486
108493
108500
108508
107720
108202
108278
108251
108220
108097
108063
108105
108170
108224
108265
108297
108326
108349
108360
108364
108371
108380
108390
108401
108412
108424
108436
108448
108463
108477
108489
108497
108505
108516
108024
108233
108206
108168
108027
107655
107826
107935
108066
108159
108220
108263
108299
108326
108331
108328
108339
108351
108364
108378
108393
108407
108423
108439
108457
108479
108492
108501
108508
108516
108166
108157
108124
107979
107482
107389
107545
107770
107971
108105
108184
108236
108276
108300
108292
108283
108302
108320
108338
108356
108374
108392
108409
108425
108439
108453
108441
108483
108499
108504
108099
108078
107986
107301
107260
107359
107379
107625
107885
108066
108160
108216
108254
108268
108246
108240
108263
108289
108312
108334
108356
108376
108389
108389
108370
108306
108093
108375
108445
108497
108033
107920
107296
107061
107236
107408
107362
107462
107798
108036
108145
108200
108229
108232
108202
108203
108228
108258
108286
108312
108336
108356
108357
108301
108176
107975
107984
108033
108236
108433
107931
106922
106961
107041
107326
107558
107434
107297
107691
108009
108136
108185
108200
108191
108156
108163
108191
108226
108258
108287
108316
108337
108312
108158
107989
107981
107998
108046
108050
108298
107527
106699
106941
107061
107486
107695
107563
107273
107572
107981
108130
108168
108167
108141
108104
108117
108149
108190
108225
108258
108295
108322
108296
108212
108166
108165
108132
108235
108119
108192
107148
106689
106938
107117
107585
107751
107611
107244
107480
107960
108123
108145
108127
108080
108044
108063
108102
108148
108185
108222
108265
108306
108315
108296
108285
108281
108280
108341
108283
108274
107137
106705
106940
107204
107647
107728
107549
107213
107450
107957
108111
108115
108077
108001
107974
108002
108051
108102
108141
108179
108224
108276
108323
108359
108381
108393
108405
108436
108424
108347
107115
106698
106920
107324
107697
107703
107393
107193
107457
107966
108084
108079
108016
107905
107897
107938
108001
108056
108095
108131
108173
108226
108290
108365
108407
108436
108448
108475
108497
108457
107062
106677
106894
107410
107710
107668
107192
107187
107562
107984
108054
108037
107942
107791
107808
107877
107958
108015
108051
108081
108116
108160
108211
108269
108289
108349
108384
108417
108447
108466
107031
106739
106968
107451
107693
107615
107137
107129
107635
107987
108024
107994
107836
107639
107709
107829
107925
107980
108010
108031
108053
108070
108052
107964
107700
108020
108177
108298
108375
108397
107081
107108
107276
107488
107673
107598
107100
107092
107608
107968
107993
107940
107617
107431
107626
107804
107905
107951
107970
107981
107981
107943
107718
107123
106899
107000
107657
108098
108272
108344
107275
107617
107589
107525
107650
107607
107073
107052
107588
107948
107969
107875
107353
107331
107583
107799
107891
107922
107930
107925
107892
107728
107130
106859
106894
106923
107733
108018
108220
108321
107528
107612
107607
107535
107615
107618
107132
107016
107607
107930
107944
107786
107306
107304
107579
107804
107877
107890
107886
107862
107770
107340
106810
106852
107167
107767
108091
108045
108131
108301
107521
107510
107532
107507
107556
107573
107224
107147
107669
107907
107925
107666
107284
107299
107600
107807
107860
107859
107839
107787
107590
106837
106790
107084
107817
108147
108132
108056
108002
107971
107434
107325
107454
107462
107478
107521
107296
107397
107718
107860
107903
107651
107395
107357
107599
107804
107836
107825
107784
107685
107289
106772
106852
107587
108069
108204
108200
108201
108109
107978
106117
105167
105919
105943
106759
107462
107464
107572
107691
107778
107886
107743
107516
107300
107552
107794
107810
107785
107710
107516
106922
106737
107192
107887
108119
108204
108271
108322
108357
108207
103513
102963
103229
103259
103900
104909
106743
107502
107644
107711
107812
107708
107067
106989
107482
107785
107787
107738
107599
107251
106883
106928
107642
107992
108072
108144
108168
108201
108235
108259
103023
102703
102704
102701
102795
103109
104091
106330
107604
107691
107723
106767
105751
106416
107446
107783
107766
107667
107394
106961
106892
107367
107825
107928
107937
107949
107930
108014
108054
108081
103607
102976
103053
103036
103055
103111
103265
104096
105275
106120
105793
104799
104845
106208
107503
107778
107736
107533
107067
106927
107124
107651
107809
107774
107671
107473
107223
107604
107815
107864
104541
103489
103692
103644
103567
103480
103478
103572
103915
104357
104394
104385
104749
106443
107636
107772
107668
107316
106810
106892
107390
107695
107690
107541
107170
106473
106375
106582
106772
107472
105502
104039
104405
104353
104201
103999
103850
103814
103908
104166
104557
104573
105192
106969
107776
107756
107534
107053
106783
107040
107544
107629
107521
107168
105898
104662
104828
104703
104453
105559
106299
104722
105164
105173
104972
104614
104297
104124
104151
104402
104877
105087
106182
107577
107780
107675
107318
106779
106762
107278
107594
107528
107204
105889
103278
102231
102314
102264
102013
102516
106999
105836
105993
106053
105810
105305
104779
104422
104480
104814
105242
105857
107283
107831
107746
107518
107088
106537
106893
107482
107513
107258
106183
103241
101390
101101
101065
101030
100976
101069
107543
107110
106885
106822
106492
105900
105187
104736
104963
105581
105947
106981
107801
107748
107570
107305
106911
106424
106881
107377
107270
106240
103135
101267
100999
100963
100907
100860
100855
100855
107602
107608
107565
107360
106935
106237
105459
105171
105691
106719
107141
107757
107711
107477
107283
107065
106552
106307
106486
106303
104668
102108
101102
100941
100970
100979
100937
100886
100864
100855
107552
107534
107638
107611
107219
106395
105709
105733
106424
107550
107744
107668
107410
107116
107158
107139
106898
106049
103954
102103
101339
101072
100967
100925
100954
100989
100983
100945
100915
100894
106544
105861
107596
107629
107438
106644
106145
106212
106677
107329
107360
107104
106764
106244
106159
105655
103370
101793
101238
101109
101090
101060
100983
100921
100924
100990
101000
100991
100978
100968
105065
104507
106759
107611
107592
107187
106577
106321
105878
104783
103712
103007
102485
102063
101750
101390
101154
101104
101095
101093
101090
101071
101001
100917
100886
100947
101001
101004
101011
101033
104532
104518
105623
107241
107579
107454
106214
104665
102999
101994
101700
101539
101381
101263
101188
101142
101118
101108
101102
101099
101097
101081
101016
100916
100860
100883
100957
100992
101019
101059
104537
104520
104948
106164
107477
106092
103425
102025
101677
101619
101580
101478
101350
101259
101221
101208
101195
101171
101141
101121
101111
101093
101033
100927
100851
100833
100885
100952
101008
101061
105721
104544
104795
105594
106355
105035
102463
101660
101637
101632
101583
101461
101348
101297
101288
101287
101273
101236
101185
101147
101126
101106
101053
100948
100849
100806
100825
100890
100977
101062
108036
106359
105610
105589
105945
105338
102816
101715
101641
101636
101571
101442
101358
101341
101347
101350
101331
101280
101214
101166
101138
101118
101074
100974
100857
100797
100790
100834
100931
101054
108077
108073
107425
106568
106018
106691
103648
101875
101648
101638
101543
101438
101396
101397
101406
101405
101372
101306
101230
101174
101144
101126
101093
101003
100875
100794
100772
100798
100887
101025
108097
108111
108108
107807
107048
107283
104400
102050
101638
101614
101530
101460
101450
101461
101466
101452
101403
101325
101241
101177
101144
101129
101106
101031
100899
100798
100766
100779
100853
100982
107841
108136
108153
108147
107949
107467
105149
102167
101615
101591
101534
101511
101525
101538
101533
101499
101434
101348
101255
101177
101137
101125
101112
101055
100926
100808
100764
100767
100829
100938
106895
107179
108172
108200
108198
107812
105481
102175
101600
101591
101578
101594
101619
101627
101604
101550
101474
101381
101275
101177
101122
101110
101110
101071
100953
100821
100763
100758
100811
100904
103743
102329
105230
108230
108257
108100
105467
102050
101601
101613
101658
101702
101724
101723
101682
101610
101521
101417
101299
101182
101107
101086
101093
101077
100981
100838
100762
100752
100799
100883
102538
101429
103183
107117
108307
108267
105056
101955
101606
101665
101765
101817
101832
101825
101768
101672
101566
101447
101321
101194
101097
101060
101065
101074
101005
100857
100764
100750
100790
100870
102494
101407
102524
105753
108039
108331
104851
101934
101634
101728
101873
101930
101941
101934
101861
101732
101603
101470
101343
101211
101095
101038
101030
101057
101023
100882
100769
100749
100783
100861
102609
101410
102238
104668
107537
108051
105295
102367
101730
101784
101976
102042
102051
102049
101954
101786
101635
101493
101368
101234
101104
101024
101000
101030
101033
100913
100779
100747
100778
100855
102866
101413
102215
103573
106720
107809
106407
103247
101889
101848
102075
102154
102165
102166
102041
101840
101673
101524
101404
101266
101122
101020
100994
101008
101034
100946
100795
100746
100773
100851
103148
101415
102381
102976
105953
107834
107306
104491
102116
101937
102173
102269
102279
102276
102123
101902
101723
101574
101454
101310
101150
101024
100994
100997
101035
100976
100819
100744
100770
100848
103380
101453
102448
102811
105496
107874
107708
105819
102438
102043
102270
102385
102393
102375
102206
101978
101790
101642
101517
101366
101191
101039
100995
100995
101035
100996
100853
100747
100768
100846
103514
101481
102423
102783
105238
107889
107888
106942
102868
102186
102366
102501
102508
102467
102293
102069
101874
101724
101589
101431
101241
101066
100995
100995
101026
101010
100892
100765
100767
100844
103596
101519
102246
102808
105269
107866
107805
107779
103470
102386
102464
102620
102631
102560
102385
102176
101973
101816
101667
101497
101295
101102
101003
100995
101017
101023
100938
100804
100770
100844
103702
101626
102171
102813
105444
107890
107713
108226
104260
102662
102588
102751
102767
102663
102481
102295
102086
101915
101748
101561
101348
101143
101022
100997
101021
101041
100993
100862
100784
100844
103984
101959
102271
102870
105450
107954
107739
108383
105242
103027
102781
102912
102923
102781
102582
102419
102208
102015
101828
101621
101397
101184
101047
101007
101031
101066
101058
100941
100821
100849
104646
102726
103066
103333
105110
108005
107789
108476
106253
103521
103055
103126
103105
102918
102693
102535
102324
102109
101903
101677
101442
101226
101078
101028
101043
101097
101129
101049
100901
100868
105604
103734
104440
104234
105000
107902
107989
108643
107100
104112
103449
103467
103327
103070
102810
102635
102418
102187
101965
101727
101485
101269
101116
101056
101059
101121
101194
101191
101045
100926
106447
104438
105787
105404
105672
107750
108404
108803
107771
104765
103993
103996
103639
103248
102933
102708
102478
102242
102015
101773
101527
101314
101163
101091
101081
101134
101238
101317
101244
101061
107363
104760
106564
106522
106770
107977
108726
108906
108218
105356
104632
104697
104103
103482
103061
102753
102500
102274
102055
101817
101572
101366
101219
101142
101123
101154
101250
101375
101419
101272
108721
105942
106618
107158
107573
108625
108917
108942
108379
105745
105163
105319
104689
103816
103194
102778
102501
102289
102091
101866
101628
101430
101292
101215
101191
101201
101261
101386
101495
101470
109307
108351
106655
107239
107998
108926
108941
108956
107966
105822
105375
105565
105174
104215
103351
102801
102490
102298
102132
101932
101709
101520
101392
101319
101291
101288
101309
101386
101515
101599
109349
109323
108170
107276
108244
108943
108914
108958
106375
105057
105260
105560
105376
104519
103535
102847
102486
102312
102187
102026
101828
101650
101530
101462
101430
101422
101422
101448
101562
101703
109331
109376
109296
108247
108204
108171
107858
107723
103915
103139
104367
105305
105333
104638
103712
102955
102529
102353
102265
102154
101994
101834
101722
101657
101622
101606
101598
101598
101672
101805
109132
109430
109417
109050
107298
103988
103992
103473
101804
101486
102609
104049
104625
104426
103817
103141
102659
102443
102369
102309
102202
102073
101975
101918
101879
101850
101830
101819
101848
101895
109248
109423
109441
109056
104508
101347
101151
101197
100836
100747
101288
102514
103561
103911
103788
103343
102864
102587
102496
102476
102433
102353
102279
102235
102200
102156
102116
102090
102077
102024
107512
109116
109001
105775
101971
100794
100614
100666
100576
100531
100748
101566
102734
103475
103668
103493
103101
102772
102643
102636
102654
102634
102590
102562
102542
102496
102436
102384
102327
102208
106378
106999
105786
103139
101370
100731
100505
100551
100515
100479
100551
101042
102107
103135
103565
103622
103367
103006
102809
102779
102822
102857
102851
102834
102829
102793
102726
102645
102545
102397
106203
105604
104695
102815
101339
100719
100463
100498
100492
100463
100469
100714
101530
102704
103501
103728
103643
103321
103027
102927
102946
103003
103034
103022
103008
102978
102908
102804
102675
102529
106310
105569
104839
102827
101364
100704
100450
100466
100476
100451
100433
100518
100986
102050
103205
103778
103909
103733
103384
103147
103093
103133
103171
103157
103108
103055
102968
102852
102714
102582
106371
105573
105005
102850
101413
100697
100449
100450
100462
100443
100418
100432
100604
101265
102519
103628
104063
104151
103906
103565
103388
103361
103376
103339
103222
103099
102970
102834
102699
102586
106493
105600
105053
102854
101505
100700
100448
100448
100452
100439
100414
100413
100448
100695
101513
102932
104085
104477
104504
104232
103944
103818
103779
103700
103497
103234
102975
102775
102626
102530
106586
105634
105090
103020
101624
100722
100448
100447
100447
100437
100413
100412
100416
100479
100772
101696
103299
104595
105051
105073
104820
104575