/*--------------------------------*- C++ -*----------------------------------*\
| =========                 |                                                 |
| \\      /  F ield         | OpenFOAM: The Open Source CFD Toolbox           |
|  \\    /   O peration     | Version:  v1606+                                |
|   \\  /    A nd           | Web:      www.OpenFOAM.com                      |
|    \\/     M anipulation  |                                                 |
\*---------------------------------------------------------------------------*/
FoamFile
{
    version     2.0;
    format      ascii;
    class       volVectorField;
    location    "1.46";
    object      U.particles;
}
// * * * * * * * * * * * * * * * * * * * * * * * * * * * * * * * * * * * * * //

dimensions      [0 1 -1 0 0 0 0];

internalField   nonuniform List<vector> 
6000
(
(-0.00489977 -0.364473 0)
(0.0167392 -0.383034 0)
(0.0443463 -0.374586 0)
(0.0683507 -0.375903 0)
(0.0807548 -0.400132 0)
(0.083778 -0.448704 0)
(0.0774382 -0.484665 0)
(0.0691864 -0.491231 0)
(0.0541345 -0.500125 0)
(0.0392531 -0.497317 0)
(0.0333726 -0.4784 0)
(0.0220395 -0.464264 0)
(0.0109343 -0.467948 0)
(-0.00250114 -0.472923 0)
(-0.0191102 -0.484765 0)
(-0.0272393 -0.483094 0)
(-0.0297889 -0.478962 0)
(-0.0335986 -0.480159 0)
(-0.0373003 -0.486137 0)
(-0.0501778 -0.477494 0)
(-0.0711806 -0.448364 0)
(-0.0967791 -0.407892 0)
(-0.122143 -0.364197 0)
(-0.127478 -0.326257 0)
(-0.12299 -0.312394 0)
(-0.102694 -0.318354 0)
(-0.0830891 -0.339661 0)
(-0.0556783 -0.368701 0)
(-0.0205208 -0.38354 0)
(0.00265883 -0.397171 0)
(0.0374649 -0.0744909 0)
(0.0523728 -0.0664659 0)
(0.0911006 -0.0445422 0)
(0.122794 -0.0156991 0)
(0.142923 0.0330945 0)
(0.159115 0.102514 0)
(0.148138 0.145129 0)
(0.114898 0.165846 0)
(0.0835305 0.147621 0)
(0.0628511 0.143656 0)
(0.0335491 0.133953 0)
(0.00760618 0.132388 0)
(-0.0119142 0.133075 0)
(-0.0198854 0.122363 0)
(-0.0188911 0.120078 0)
(-0.0158563 0.125545 0)
(-0.0188862 0.126304 0)
(-0.0328498 0.130615 0)
(-0.0672807 0.145697 0)
(-0.113469 0.145992 0)
(-0.158035 0.128328 0)
(-0.188887 0.103092 0)
(-0.215893 0.0801414 0)
(-0.209711 0.0212841 0)
(-0.196278 -0.025516 0)
(-0.163121 -0.0438183 0)
(-0.129474 -0.0543895 0)
(-0.0918627 -0.0568595 0)
(-0.0551908 -0.0730318 0)
(-0.0407514 -0.0836436 0)
(0.0248605 -0.167523 0)
(0.055938 -0.169755 0)
(0.0986221 -0.164571 0)
(0.135613 -0.142526 0)
(0.154767 -0.118212 0)
(0.167529 -0.0865509 0)
(0.164447 -0.0119466 0)
(0.138362 0.0521787 0)
(0.117552 0.0666302 0)
(0.0941422 0.0646532 0)
(0.0536912 0.0677036 0)
(-0.000980596 0.072983 0)
(-0.0321203 0.0622259 0)
(-0.0395498 0.0387283 0)
(-0.0359324 0.0212693 0)
(-0.0292232 0.0181743 0)
(-0.0301665 0.0329736 0)
(-0.0481552 0.0542414 0)
(-0.0751322 0.0877349 0)
(-0.106962 0.111378 0)
(-0.156043 0.0817082 0)
(-0.218139 0.0217467 0)
(-0.255357 -0.053177 0)
(-0.250459 -0.10897 0)
(-0.232326 -0.1348 0)
(-0.185921 -0.148976 0)
(-0.141111 -0.152911 0)
(-0.095889 -0.150797 0)
(-0.0523147 -0.147549 0)
(-0.0294563 -0.142022 0)
(0.0180132 -0.148861 0)
(0.0546729 -0.154735 0)
(0.0951894 -0.156889 0)
(0.135749 -0.137728 0)
(0.172518 -0.121646 0)
(0.199698 -0.101512 0)
(0.228023 -0.0441243 0)
(0.207119 0.0573819 0)
(0.161049 0.09997 0)
(0.110404 0.0919819 0)
(0.0663676 0.0912379 0)
(0.0151991 0.102373 0)
(-0.0304784 0.0956549 0)
(-0.0512455 0.0658351 0)
(-0.0500303 0.0407775 0)
(-0.0486739 0.0338053 0)
(-0.056669 0.0448855 0)
(-0.069652 0.0628133 0)
(-0.0820876 0.0889835 0)
(-0.0987974 0.116951 0)
(-0.155427 0.0984083 0)
(-0.246104 0.0261092 0)
(-0.27796 -0.0665042 0)
(-0.266891 -0.12207 0)
(-0.228772 -0.146719 0)
(-0.179347 -0.15071 0)
(-0.132323 -0.141815 0)
(-0.086308 -0.13201 0)
(-0.0456997 -0.126133 0)
(-0.0222305 -0.110425 0)
(-0.0320678 -0.122933 0)
(0.0242249 -0.151315 0)
(0.0664832 -0.167816 0)
(0.112634 -0.163906 0)
(0.164882 -0.160133 0)
(0.212894 -0.150273 0)
(0.256287 -0.113089 0)
(0.273791 -0.0150186 0)
(0.223623 0.074754 0)
(0.14711 0.0864182 0)
(0.092419 0.0773254 0)
(0.0530871 0.083705 0)
(0.00898145 0.0708291 0)
(-0.0214685 0.0326385 0)
(-0.0373801 0.00552258 0)
(-0.0462805 2.71322e-05 0)
(-0.0620835 0.0135794 0)
(-0.0734529 0.0319881 0)
(-0.0795831 0.0531968 0)
(-0.0944744 0.0887313 0)
(-0.165567 0.0716978 0)
(-0.250135 -0.00752435 0)
(-0.255058 -0.0977096 0)
(-0.245555 -0.146149 0)
(-0.21109 -0.172575 0)
(-0.158722 -0.175896 0)
(-0.105938 -0.161284 0)
(-0.0625101 -0.148991 0)
(-0.0245283 -0.127404 0)
(0.00650151 -0.0900538 0)
(-0.0699215 -0.0696829 0)
(0.00223298 -0.143683 0)
(0.0469776 -0.16595 0)
(0.0979178 -0.170067 0)
(0.145192 -0.169529 0)
(0.203474 -0.16788 0)
(0.24419 -0.141339 0)
(0.279701 -0.0532325 0)
(0.254746 0.016268 0)
(0.188622 0.0300669 0)
(0.126384 0.00473608 0)
(0.0980039 -0.0169496 0)
(0.0738314 -0.0480269 0)
(0.0425057 -0.0730055 0)
(0.0142054 -0.0710311 0)
(-0.0142245 -0.0525488 0)
(-0.0403175 -0.0417642 0)
(-0.0653361 -0.0358152 0)
(-0.0816823 -0.0213378 0)
(-0.118076 0.0123685 0)
(-0.172251 0.013086 0)
(-0.20522 -0.00951448 0)
(-0.182459 -0.0859081 0)
(-0.192825 -0.142112 0)
(-0.184956 -0.168855 0)
(-0.136346 -0.175 0)
(-0.0922777 -0.167349 0)
(-0.0554677 -0.158574 0)
(-0.0182325 -0.13125 0)
(0.0151867 -0.0694273 0)
(-0.00857669 -0.0426321 0)
(-0.000453941 -0.112683 0)
(0.0344909 -0.166507 0)
(0.0782356 -0.184579 0)
(0.122181 -0.182884 0)
(0.176911 -0.187976 0)
(0.211054 -0.158387 0)
(0.222748 -0.0750314 0)
(0.219996 -0.0366983 0)
(0.185518 -0.0409704 0)
(0.12594 -0.0799303 0)
(0.0921485 -0.11516 0)
(0.0846651 -0.145766 0)
(0.0793755 -0.16604 0)
(0.0652611 -0.161794 0)
(0.0353226 -0.132248 0)
(-0.00243264 -0.106548 0)
(-0.0503592 -0.101091 0)
(-0.0920176 -0.0938236 0)
(-0.131808 -0.0538075 0)
(-0.147377 -0.0151188 0)
(-0.148984 -0.00474204 0)
(-0.0984095 -0.0912216 0)
(-0.125425 -0.157602 0)
(-0.146736 -0.177609 0)
(-0.124303 -0.185689 0)
(-0.0876058 -0.182294 0)
(-0.0576615 -0.176186 0)
(-0.0236726 -0.143823 0)
(0.00451137 -0.0645475 0)
(0.00770246 -0.0378885 0)
(0.0105067 -0.106884 0)
(0.0317773 -0.153044 0)
(0.0722538 -0.194584 0)
(0.106162 -0.198796 0)
(0.152845 -0.196044 0)
(0.163193 -0.166149 0)
(0.145379 -0.084956 0)
(0.152502 -0.0413157 0)
(0.133449 -0.055904 0)
(0.0872055 -0.090105 0)
(0.0485805 -0.120589 0)
(0.0485343 -0.148009 0)
(0.0675762 -0.17781 0)
(0.073183 -0.182784 0)
(0.0640245 -0.167663 0)
(0.0376301 -0.139391 0)
(-0.00670556 -0.118602 0)
(-0.0679285 -0.104488 0)
(-0.104684 -0.0693647 0)
(-0.109988 -0.0133056 0)
(-0.0847141 0.00190019 0)
(-0.0189623 -0.0604462 0)
(-0.037971 -0.139121 0)
(-0.104367 -0.182307 0)
(-0.115669 -0.193747 0)
(-0.0916181 -0.191793 0)
(-0.06651 -0.185896 0)
(-0.0359851 -0.15934 0)
(0.000622485 -0.0850031 0)
(0.0196061 -0.0483228 0)
(0.0278723 -0.113104 0)
(0.0432294 -0.154729 0)
(0.0730887 -0.198355 0)
(0.102507 -0.211463 0)
(0.129784 -0.199796 0)
(0.118662 -0.152208 0)
(0.0667555 -0.0371452 0)
(0.0796171 0.00988791 0)
(0.0603763 -0.00485257 0)
(0.013349 -0.0354304 0)
(-0.00292478 -0.0876125 0)
(0.0134416 -0.122877 0)
(0.0402983 -0.143803 0)
(0.0625601 -0.152157 0)
(0.067567 -0.141379 0)
(0.0604024 -0.121187 0)
(0.034299 -0.0962022 0)
(-0.0131411 -0.0707559 0)
(-0.0603053 -0.0380533 0)
(-0.0675245 -0.0127978 0)
(-0.0370682 0.00727668 0)
(0.0403662 -0.0335221 0)
(0.0291599 -0.0983323 0)
(-0.0293153 -0.151318 0)
(-0.0999666 -0.194056 0)
(-0.092476 -0.193683 0)
(-0.0706076 -0.189422 0)
(-0.0482852 -0.168919 0)
(-0.0206317 -0.0869653 0)
(0.0225307 -0.0749811 0)
(0.0389699 -0.123339 0)
(0.0534264 -0.156553 0)
(0.0779357 -0.19469 0)
(0.100408 -0.21502 0)
(0.104206 -0.191431 0)
(0.0670361 -0.102706 0)
(-0.0102165 0.030218 0)
(0.00363889 0.0784177 0)
(-0.0173736 0.050776 0)
(-0.0501217 0.00321854 0)
(-0.0428409 -0.0529353 0)
(-0.0138235 -0.0889261 0)
(0.01961 -0.109033 0)
(0.0486391 -0.110865 0)
(0.0656852 -0.0991152 0)
(0.070018 -0.0807106 0)
(0.059726 -0.0580183 0)
(0.0285144 -0.0302661 0)
(-0.0115918 -0.000700237 0)
(-0.0227878 0.00791743 0)
(0.00549846 0.0210513 0)
(0.075922 -0.00566383 0)
(0.0831258 -0.0519662 0)
(0.0341881 -0.0883701 0)
(-0.0584417 -0.151967 0)
(-0.0828319 -0.192264 0)
(-0.0654595 -0.195936 0)
(-0.0539887 -0.202246 0)
(-0.0553834 -0.195631 0)
(0.0167539 -0.0928856 0)
(0.0410047 -0.128751 0)
(0.0546996 -0.157067 0)
(0.0749065 -0.190075 0)
(0.0905905 -0.207223 0)
(0.069091 -0.167332 0)
(-0.0123123 -0.0224761 0)
(-0.071852 0.104504 0)
(-0.0697213 0.145044 0)
(-0.0841939 0.108881 0)
(-0.098014 0.0389595 0)
(-0.0686708 -0.0201357 0)
(-0.0323712 -0.0559603 0)
(0.00487243 -0.0700562 0)
(0.0366385 -0.0669544 0)
(0.0606216 -0.0523111 0)
(0.0720308 -0.0323556 0)
(0.0720724 -0.0103272 0)
(0.0548733 0.0143917 0)
(0.0285312 0.0433903 0)
(0.022287 0.0502199 0)
(0.0483524 0.0599975 0)
(0.108583 0.036445 0)
(0.121332 -0.00412037 0)
(0.0895725 -0.0181705 0)
(0.00669767 -0.0688882 0)
(-0.0432851 -0.1636 0)
(-0.039391 -0.203444 0)
(-0.0136987 -0.238892 0)
(0.0127892 -0.311446 0)
(0.0063807 -0.0877934 0)
(0.0351289 -0.134341 0)
(0.0470599 -0.162828 0)
(0.0621666 -0.185442 0)
(0.0616018 -0.188621 0)
(0.0169968 -0.11588 0)
(-0.0834033 0.0630962 0)
(-0.125177 0.187772 0)
(-0.133002 0.204502 0)
(-0.13746 0.152195 0)
(-0.122798 0.0676308 0)
(-0.082598 0.0144777 0)
(-0.0444007 -0.0216677 0)
(-0.00563592 -0.0314315 0)
(0.0270396 -0.0229927 0)
(0.0535595 -0.00284052 0)
(0.0687777 0.0224013 0)
(0.073434 0.045765 0)
(0.0679975 0.0654692 0)
(0.0588818 0.0926333 0)
(0.0630964 0.104006 0)
(0.0964104 0.108539 0)
(0.153815 0.0813371 0)
(0.162391 0.063317 0)
(0.137372 0.0521482 0)
(0.0778353 0.00919379 0)
(0.021909 -0.0846874 0)
(0.0195455 -0.178826 0)
(0.0405187 -0.262412 0)
(0.100476 -0.24562 0)
(-0.0248158 -0.0743792 0)
(0.00599895 -0.143651 0)
(0.0248646 -0.163149 0)
(0.0474342 -0.154418 0)
(0.00486762 -0.135563 0)
(-0.135881 0.0557257 0)
(-0.174555 0.197393 0)
(-0.196639 0.247129 0)
(-0.19356 0.252352 0)
(-0.166738 0.170085 0)
(-0.131123 0.0956957 0)
(-0.0863647 0.0390148 0)
(-0.0492911 0.00318065 0)
(-0.0111002 -0.00298035 0)
(0.0209721 0.0135015 0)
(0.0458646 0.0445441 0)
(0.0613054 0.0806837 0)
(0.0671664 0.106557 0)
(0.0697738 0.125876 0)
(0.0756634 0.149475 0)
(0.0908897 0.161649 0)
(0.130734 0.152908 0)
(0.210038 0.130393 0)
(0.228832 0.124906 0)
(0.204651 0.122185 0)
(0.140981 0.0734127 0)
(0.0960228 -0.0350929 0)
(0.0790794 -0.132978 0)
(0.0788313 -0.189909 0)
(0.0802264 -0.113888 0)
(-0.0150588 -0.0521315 0)
(-0.00756573 -0.123353 0)
(0.00124607 -0.13935 0)
(-0.0123189 -0.109128 0)
(-0.0675724 0.0529665 0)
(-0.260558 0.247825 0)
(-0.254954 0.309168 0)
(-0.248919 0.32734 0)
(-0.214892 0.294717 0)
(-0.169279 0.202373 0)
(-0.125137 0.111314 0)
(-0.08097 0.0523219 0)
(-0.0452753 0.0140079 0)
(-0.00961746 0.00997907 0)
(0.0200505 0.0358108 0)
(0.0398129 0.0841333 0)
(0.05222 0.136036 0)
(0.0561575 0.175462 0)
(0.0636219 0.201057 0)
(0.0795305 0.219231 0)
(0.0986133 0.216066 0)
(0.158595 0.184515 0)
(0.245625 0.154966 0)
(0.305362 0.158682 0)
(0.27833 0.169081 0)
(0.220048 0.105909 0)
(0.171182 -0.00823697 0)
(0.121619 -0.109968 0)
(0.0787404 -0.148561 0)
(0.0418257 -0.0762683 0)
(-0.00245722 -0.0440398 0)
(0.00414851 -0.104326 0)
(-0.00492056 -0.116892 0)
(-0.119138 -0.0826097 0)
(-0.365916 0.268091 0)
(-0.348023 0.392747 0)
(-0.293711 0.428298 0)
(-0.241896 0.421427 0)
(-0.191239 0.371744 0)
(-0.132231 0.26344 0)
(-0.116589 0.124701 0)
(-0.0729249 0.0539218 0)
(-0.0386808 0.00982941 0)
(-0.00212898 0.00673219 0)
(0.027532 0.042079 0)
(0.0428549 0.109139 0)
(0.0498146 0.183441 0)
(0.0427938 0.246591 0)
(0.0452456 0.289936 0)
(0.0544313 0.281036 0)
(0.0919469 0.239601 0)
(0.174391 0.183397 0)
(0.263943 0.152204 0)
(0.32837 0.163164 0)
(0.339181 0.171235 0)
(0.304055 0.125474 0)
(0.252371 0.0113303 0)
(0.160757 -0.106753 0)
(0.073678 -0.152386 0)
(0.0280392 -0.0792071 0)
(0.00733891 -0.0453252 0)
(0.0475465 -0.108369 0)
(0.0242063 -0.183331 0)
(-0.316828 0.0456798 0)
(-0.412756 0.323212 0)
(-0.38225 0.44288 0)
(-0.28712 0.488335 0)
(-0.20016 0.490085 0)
(-0.141643 0.450572 0)
(-0.0705718 0.316703 0)
(-0.087858 0.141074 0)
(-0.0586049 0.0546765 0)
(-0.0262713 0.00777582 0)
(0.00510305 0.0048967 0)
(0.0312432 0.0452461 0)
(0.0454364 0.122637 0)
(0.0445086 0.214416 0)
(0.0232581 0.291213 0)
(-0.00146257 0.30916 0)
(0.0209737 0.275246 0)
(0.0784097 0.195122 0)
(0.166103 0.129221 0)
(0.243686 0.114522 0)
(0.306382 0.145828 0)
(0.3409 0.156818 0)
(0.345816 0.140443 0)
(0.332678 0.0642778 0)
(0.135295 -0.179795 0)
(0.0232747 -0.18936 0)
(0.00864936 -0.102683 0)
(0.00485831 -0.0576078 0)
(0.0673626 -0.140207 0)
(-0.0897489 -0.468335 0)
(-0.219489 -0.107941 0)
(-0.373282 0.244457 0)
(-0.371977 0.408614 0)
(-0.271762 0.4794 0)
(-0.171295 0.492066 0)
(-0.102438 0.459811 0)
(-0.0295693 0.296443 0)
(-0.0248407 0.161477 0)
(-0.0186697 0.0601832 0)
(-0.00822012 0.0101685 0)
(0.0052287 0.00589116 0)
(0.0155292 0.0492546 0)
(0.0193227 0.131444 0)
(0.0131743 0.224514 0)
(-5.25418e-05 0.289133 0)
(-0.0141335 0.294175 0)
(0.00192566 0.224059 0)
(0.0604215 0.129863 0)
(0.125208 0.0798487 0)
(0.183225 0.088802 0)
(0.237737 0.132402 0)
(0.271839 0.121486 0)
(0.255725 0.0169451 0)
(0.108445 -0.23625 0)
(0.0702347 -0.390893 0)
(-0.0244098 -0.301377 0)
(-0.0432862 -0.132625 0)
(0.0155058 -0.098896 0)
(0.0446641 -0.310462 0)
(-0.105854 -0.505047 0)
(-0.067203 -0.34137 0)
(-0.159347 -0.114222 0)
(-0.252275 0.153621 0)
(-0.211646 0.28267 0)
(-0.132927 0.334807 0)
(-0.0532706 0.306476 0)
(0.0235001 0.0504539 0)
(0.0375423 0.107057 0)
(0.0199429 0.0510047 0)
(0.00843481 -0.00296046 0)
(0.0089721 -0.0133106 0)
(-0.00156127 0.0364545 0)
(-0.0183073 0.132781 0)
(-0.0277328 0.236341 0)
(-0.0235149 0.289651 0)
(-0.0113779 0.25863 0)
(0.0108302 0.172832 0)
(0.0453161 0.0909662 0)
(0.093156 0.0618876 0)
(0.119528 0.0584232 0)
(0.117762 -0.0321845 0)
(0.0551339 -0.228019 0)
(0.0105383 -0.334006 0)
(0.031874 -0.347712 0)
(0.0780784 -0.409119 0)
(0.034833 -0.487812 0)
(-0.121965 -0.32821 0)
(0.068719 -0.145992 0)
(0.00282998 -0.469042 0)
(-0.115505 -0.510472 0)
(-0.0414866 -0.395161 0)
(-0.00375915 -0.334818 0)
(-0.0432847 -0.183576 0)
(-0.0510491 -0.109319 0)
(-0.0147914 -0.0809838 0)
(0.0381893 -0.116814 0)
(0.102267 -0.306644 0)
(0.118971 -0.343829 0)
(0.091953 -0.180602 0)
(0.0546043 -0.101728 0)
(0.0263985 -0.0499382 0)
(-0.00580535 -0.000290792 0)
(-0.0445177 0.093635 0)
(-0.0663127 0.201499 0)
(-0.0459059 0.259517 0)
(-0.00875983 0.209791 0)
(0.0104194 0.117444 0)
(0.0171123 0.0394875 0)
(0.0265681 -0.0387764 0)
(-0.00684137 -0.218833 0)
(-0.0631101 -0.360427 0)
(-0.043673 -0.371763 0)
(-0.00725726 -0.362687 0)
(0.0386602 -0.355379 0)
(0.0899211 -0.398689 0)
(0.0552614 -0.451888 0)
(-0.00630081 -0.435913 0)
(0.111645 -0.401174 0)
(-0.072018 -0.57507 0)
(-0.110212 -0.502345 0)
(-0.0586302 -0.411804 0)
(0.00633206 -0.37632 0)
(0.0506163 -0.341455 0)
(0.0677667 -0.313299 0)
(0.0878619 -0.317035 0)
(0.116914 -0.352167 0)
(0.143568 -0.389549 0)
(0.164956 -0.413972 0)
(0.172692 -0.432711 0)
(0.159613 -0.422346 0)
(0.0805287 -0.243763 0)
(0.039375 -0.181565 0)
(0.0140084 -0.169026 0)
(-0.0579441 -0.098014 0)
(-0.0940971 -0.0641868 0)
(-0.0718032 -0.0649255 0)
(-0.0498898 -0.138212 0)
(-0.0658236 -0.211225 0)
(-0.118006 -0.367058 0)
(-0.106602 -0.383231 0)
(-0.0858317 -0.370053 0)
(-0.0484591 -0.360854 0)
(-0.00725498 -0.358481 0)
(0.0413778 -0.356655 0)
(0.0927313 -0.379746 0)
(0.0730302 -0.424817 0)
(0.00128515 -0.42076 0)
(-0.0336353 -0.547125 0)
(-0.0544479 -0.54246 0)
(-0.0929551 -0.49474 0)
(-0.0712389 -0.415917 0)
(-0.00739787 -0.377156 0)
(0.0276318 -0.333903 0)
(0.0788884 -0.315117 0)
(0.11426 -0.317954 0)
(0.14092 -0.332948 0)
(0.160014 -0.352625 0)
(0.176863 -0.376709 0)
(0.183508 -0.396193 0)
(0.171439 -0.407231 0)
(0.133682 -0.406917 0)
(0.0984423 -0.351296 0)
(0.0288477 -0.234218 0)
(-0.0539289 -0.167003 0)
(-0.100335 -0.205719 0)
(-0.102476 -0.319284 0)
(-0.114048 -0.363481 0)
(-0.137532 -0.367921 0)
(-0.138482 -0.363524 0)
(-0.124822 -0.354315 0)
(-0.0961046 -0.353495 0)
(-0.0572112 -0.354836 0)
(-0.0165393 -0.357655 0)
(0.031792 -0.360117 0)
(0.0753184 -0.371962 0)
(0.0817758 -0.417586 0)
(0.0255901 -0.421203 0)
(-0.0223261 -0.507889 0)
(-0.0329089 -0.506916 0)
(-0.0730318 -0.471469 0)
(-0.0754528 -0.414112 0)
(-0.0209131 -0.368065 0)
(0.0079514 -0.319254 0)
(0.0669994 -0.291998 0)
(0.110947 -0.29073 0)
(0.143811 -0.302359 0)
(0.165102 -0.319873 0)
(0.182443 -0.342091 0)
(0.184841 -0.360026 0)
(0.169358 -0.367608 0)
(0.127822 -0.360356 0)
(0.0882206 -0.294866 0)
(0.0196923 -0.167551 0)
(-0.0522777 -0.109957 0)
(-0.0884354 -0.16637 0)
(-0.0914778 -0.289788 0)
(-0.109284 -0.334101 0)
(-0.144757 -0.334674 0)
(-0.149251 -0.331648 0)
(-0.136342 -0.328819 0)
(-0.105768 -0.340783 0)
(-0.0707846 -0.352281 0)
(-0.0310102 -0.361976 0)
(0.0028735 -0.369936 0)
(0.0423675 -0.374594 0)
(0.0728317 -0.406091 0)
(0.0363512 -0.42679 0)
(-0.00468888 -0.47138 0)
(-0.0495544 -0.46286 0)
(-0.0590689 -0.430489 0)
(-0.0665807 -0.39601 0)
(-0.0321945 -0.356672 0)
(-0.00566381 -0.306978 0)
(0.0544762 -0.278488 0)
(0.105207 -0.270915 0)
(0.142894 -0.27395 0)
(0.167176 -0.284505 0)
(0.182102 -0.302641 0)
(0.179678 -0.319351 0)
(0.159647 -0.324535 0)
(0.112378 -0.314066 0)
(0.0745367 -0.23763 0)
(0.0112909 -0.104727 0)
(-0.050487 -0.0552318 0)
(-0.075764 -0.123595 0)
(-0.0818666 -0.254145 0)
(-0.111929 -0.297862 0)
(-0.148754 -0.296388 0)
(-0.157489 -0.295553 0)
(-0.150061 -0.300212 0)
(-0.120521 -0.316327 0)
(-0.0901598 -0.330544 0)
(-0.0575408 -0.346646 0)
(-0.0240397 -0.362821 0)
(0.000383373 -0.381662 0)
(0.0216523 -0.378056 0)
(0.0336638 -0.385729 0)
(-0.0195491 -0.436678 0)
(-0.0429181 -0.414487 0)
(-0.0528992 -0.387454 0)
(-0.0631046 -0.355535 0)
(-0.0355575 -0.325295 0)
(-0.0115607 -0.287579 0)
(0.0424241 -0.256435 0)
(0.0945535 -0.246818 0)
(0.135904 -0.241618 0)
(0.162691 -0.247153 0)
(0.175431 -0.263645 0)
(0.170569 -0.276115 0)
(0.143974 -0.282422 0)
(0.0953593 -0.266336 0)
(0.0607046 -0.178811 0)
(0.00388594 -0.044161 0)
(-0.0467301 -0.00819415 0)
(-0.0623365 -0.0926659 0)
(-0.0692741 -0.224418 0)
(-0.116014 -0.260502 0)
(-0.148682 -0.254967 0)
(-0.161337 -0.25953 0)
(-0.156385 -0.271881 0)
(-0.129448 -0.290363 0)
(-0.107158 -0.312135 0)
(-0.0811886 -0.333417 0)
(-0.0571384 -0.350677 0)
(-0.0308282 -0.358554 0)
(-0.00641711 -0.369814 0)
(0.00130732 -0.340613 0)
(-0.0155824 -0.384709 0)
(-0.0140999 -0.377465 0)
(-0.0287427 -0.354973 0)
(-0.0420553 -0.312753 0)
(-0.0377183 -0.280931 0)
(-0.00333958 -0.263949 0)
(0.0360675 -0.235444 0)
(0.0823893 -0.221289 0)
(0.123246 -0.210694 0)
(0.152069 -0.211515 0)
(0.161728 -0.225879 0)
(0.154795 -0.232691 0)
(0.118956 -0.241815 0)
(0.0772666 -0.208946 0)
(0.0432588 -0.114348 0)
(-0.000970689 0.0130772 0)
(-0.0386029 0.035999 0)
(-0.0481263 -0.0671727 0)
(-0.0565457 -0.190613 0)
(-0.117249 -0.216976 0)
(-0.142884 -0.216051 0)
(-0.163043 -0.223379 0)
(-0.160013 -0.242531 0)
(-0.140231 -0.264522 0)
(-0.123061 -0.289078 0)
(-0.102482 -0.310632 0)
(-0.0784893 -0.32616 0)
(-0.0528003 -0.33446 0)
(-0.023969 -0.323508 0)
(0.00217828 -0.311511 0)
(-0.012375 -0.346496 0)
(-0.0243281 -0.329673 0)
(-0.0118219 -0.303364 0)
(-0.0139489 -0.283221 0)
(-0.00423382 -0.251479 0)
(0.0121581 -0.225021 0)
(0.042561 -0.200439 0)
(0.0662115 -0.181713 0)
(0.10188 -0.176758 0)
(0.133039 -0.177168 0)
(0.143751 -0.184896 0)
(0.131484 -0.192643 0)
(0.0835206 -0.20263 0)
(0.0517704 -0.158183 0)
(0.0249695 -0.0517531 0)
(-0.00392018 0.0629139 0)
(-0.028193 0.0794404 0)
(-0.0357897 -0.0221453 0)
(-0.048071 -0.145569 0)
(-0.105986 -0.178237 0)
(-0.13577 -0.177187 0)
(-0.158348 -0.18646 0)
(-0.158666 -0.208116 0)
(-0.146831 -0.235021 0)
(-0.134174 -0.261276 0)
(-0.117555 -0.282758 0)
(-0.0946932 -0.296043 0)
(-0.0677645 -0.299427 0)
(-0.0370274 -0.29216 0)
(-0.0110517 -0.263768 0)
(-0.0141928 -0.295022 0)
(-0.010625 -0.290382 0)
(0.00432195 -0.275068 0)
(0.0173472 -0.245362 0)
(0.0270703 -0.215853 0)
(0.052378 -0.189348 0)
(0.0755981 -0.161716 0)
(0.0644368 -0.134095 0)
(0.0712298 -0.138088 0)
(0.103824 -0.1402 0)
(0.11746 -0.144406 0)
(0.0922247 -0.158579 0)
(0.0442165 -0.166939 0)
(0.0220186 -0.117483 0)
(0.0116956 -0.00195567 0)
(-0.00145887 0.103609 0)
(-0.0151249 0.121628 0)
(-0.0105243 0.0325885 0)
(-0.0287972 -0.100729 0)
(-0.0888969 -0.13797 0)
(-0.12358 -0.140053 0)
(-0.14865 -0.148988 0)
(-0.154463 -0.172499 0)
(-0.147817 -0.201869 0)
(-0.137865 -0.229222 0)
(-0.12233 -0.24974 0)
(-0.100083 -0.261567 0)
(-0.0749912 -0.265016 0)
(-0.0452486 -0.252551 0)
(-0.0127019 -0.22925 0)
(-0.0136455 -0.250461 0)
(-0.00623019 -0.251007 0)
(0.0112256 -0.235571 0)
(0.0377089 -0.215087 0)
(0.0534933 -0.184067 0)
(0.070352 -0.148971 0)
(0.0866961 -0.118934 0)
(0.109618 -0.089977 0)
(0.0969806 -0.0735614 0)
(0.0636992 -0.09052 0)
(0.0705214 -0.113311 0)
(0.0378916 -0.132744 0)
(-0.000424704 -0.131753 0)
(-0.00560969 -0.0680723 0)
(0.00508408 0.0445095 0)
(0.0037999 0.138427 0)
(0.000164239 0.155044 0)
(0.0264946 0.0861342 0)
(-0.00120904 -0.0516377 0)
(-0.0631977 -0.0960897 0)
(-0.106359 -0.103597 0)
(-0.135117 -0.111809 0)
(-0.147115 -0.136088 0)
(-0.144999 -0.168433 0)
(-0.135785 -0.198193 0)
(-0.119732 -0.219847 0)
(-0.0972683 -0.231459 0)
(-0.0727452 -0.233184 0)
(-0.0470276 -0.221927 0)
(-0.0129633 -0.193826 0)
(-0.0126855 -0.207105 0)
(-0.00226693 -0.210813 0)
(0.0184829 -0.192002 0)
(0.0446246 -0.1682 0)
(0.0652359 -0.139546 0)
(0.0817647 -0.103857 0)
(0.0962463 -0.0673847 0)
(0.106603 -0.0343032 0)
(0.108104 -0.00558737 0)
(0.0739849 -0.0302174 0)
(-0.00250126 -0.0869409 0)
(-0.0233359 -0.109046 0)
(-0.0424304 -0.0847036 0)
(-0.0240322 -0.0233325 0)
(-0.00129865 0.0804418 0)
(0.00949438 0.182743 0)
(0.0244198 0.198609 0)
(0.0620201 0.126276 0)
(0.0297229 -0.00619794 0)
(-0.0312288 -0.0505983 0)
(-0.0828298 -0.0646448 0)
(-0.118503 -0.0739042 0)
(-0.136639 -0.0990872 0)
(-0.138816 -0.135192 0)
(-0.129763 -0.169572 0)
(-0.112558 -0.195235 0)
(-0.0889909 -0.210104 0)
(-0.064135 -0.213598 0)
(-0.0426215 -0.203675 0)
(-0.011037 -0.174935 0)
(-0.0102792 -0.168328 0)
(0.00122926 -0.170922 0)
(0.0242358 -0.154333 0)
(0.0576255 -0.134866 0)
(0.0817947 -0.104131 0)
(0.0964418 -0.0644312 0)
(0.105749 -0.0224606 0)
(0.108122 0.0166451 0)
(0.104773 0.051465 0)
(0.0891658 0.0437949 0)
(-0.0382458 -0.0478056 0)
(-0.0834344 -0.0748133 0)
(-0.0742071 -0.0477068 0)
(-0.0392034 0.0162563 0)
(-0.00136714 0.105359 0)
(0.0242229 0.184356 0)
(0.063943 0.226085 0)
(0.0971869 0.166941 0)
(0.0651525 0.0475431 0)
(0.00414442 0.00040042 0)
(-0.0546089 -0.0204083 0)
(-0.0991503 -0.031764 0)
(-0.123998 -0.0604501 0)
(-0.131523 -0.10198 0)
(-0.123733 -0.143874 0)
(-0.106005 -0.176949 0)
(-0.0810303 -0.198931 0)
(-0.054499 -0.20668 0)
(-0.0319848 -0.197578 0)
(-0.00835817 -0.168137 0)
(-0.00918472 -0.135102 0)
(0.00612012 -0.141943 0)
(0.0348755 -0.128029 0)
(0.0679491 -0.105098 0)
(0.0913065 -0.0702334 0)
(0.105184 -0.0265737 0)
(0.110538 0.0206586 0)
(0.107454 0.0653374 0)
(0.0950301 0.101709 0)
(0.0745463 0.105877 0)
(-0.0363184 0.00858646 0)
(-0.136034 -0.0387629 0)
(-0.100261 -0.0161141 0)
(-0.0506624 0.03123 0)
(0.00779724 0.100195 0)
(0.0479665 0.193063 0)
(0.104509 0.242901 0)
(0.135816 0.203192 0)
(0.104542 0.115177 0)
(0.0399463 0.0604584 0)
(-0.0263869 0.0292753 0)
(-0.0780829 0.0157315 0)
(-0.109218 -0.0168956 0)
(-0.125113 -0.0655798 0)
(-0.120883 -0.118342 0)
(-0.103612 -0.161541 0)
(-0.0778362 -0.192568 0)
(-0.0486702 -0.207553 0)
(-0.0228953 -0.206028 0)
(-0.00489755 -0.17574 0)
(-0.00873367 -0.111295 0)
(0.0118733 -0.124434 0)
(0.041764 -0.109559 0)
(0.073367 -0.082956 0)
(0.0949081 -0.0420735 0)
(0.104594 0.00766532 0)
(0.104526 0.0595548 0)
(0.0972288 0.10882 0)
(0.0810574 0.151141 0)
(0.0517251 0.170035 0)
(-0.0241218 0.0955488 0)
(-0.155965 0.0146404 0)
(-0.13779 0.0122377 0)
(-0.0535618 0.0226748 0)
(0.0166153 0.0795807 0)
(0.067718 0.182131 0)
(0.159092 0.246309 0)
(0.18727 0.249926 0)
(0.164835 0.197163 0)
(0.0803227 0.125586 0)
(-0.000102638 0.0872512 0)
(-0.056531 0.0612536 0)
(-0.0901 0.0263505 0)
(-0.114179 -0.0243124 0)
(-0.117646 -0.0875628 0)
(-0.102595 -0.143068 0)
(-0.0787398 -0.185457 0)
(-0.0472817 -0.209718 0)
(-0.0189161 -0.216513 0)
(0.000379427 -0.19617 0)
(-0.00910561 -0.0952071 0)
(0.0152118 -0.115487 0)
(0.0462414 -0.0990051 0)
(0.0722066 -0.0651188 0)
(0.080823 -0.018486 0)
(0.0808541 0.0312196 0)
(0.0762283 0.0831047 0)
(0.066697 0.134658 0)
(0.0521703 0.184098 0)
(0.0306792 0.225672 0)
(-0.0144421 0.199732 0)
(-0.171375 0.0864069 0)
(-0.163771 0.0376723 0)
(-0.056387 0.0176951 0)
(0.0152649 0.0501026 0)
(0.0670384 0.142941 0)
(0.183705 0.240464 0)
(0.236747 0.295639 0)
(0.224375 0.268129 0)
(0.130304 0.206268 0)
(0.0361062 0.151143 0)
(-0.0315217 0.1099 0)
(-0.0714888 0.0646018 0)
(-0.0963114 0.0130732 0)
(-0.108688 -0.052416 0)
(-0.0995757 -0.119761 0)
(-0.0777139 -0.171691 0)
(-0.0482069 -0.207343 0)
(-0.0183948 -0.220141 0)
(0.00335055 -0.205794 0)
(-0.00722158 -0.0842976 0)
(0.0173743 -0.111842 0)
(0.0438462 -0.0894855 0)
(0.0536854 -0.0487633 0)
(0.0535232 -0.00406946 0)
(0.0484904 0.0441904 0)
(0.0400923 0.0968774 0)
(0.02599 0.150106 0)
(0.00636781 0.2031 0)
(-0.0109098 0.250468 0)
(-0.0341459 0.28017 0)
(-0.168349 0.178154 0)
(-0.17884 0.0661671 0)
(-0.0599263 0.016428 0)
(0.0155433 0.030781 0)
(0.0862759 0.0842611 0)
(0.178847 0.230011 0)
(0.280533 0.327975 0)
(0.272709 0.330599 0)
(0.207964 0.295954 0)
(0.0856187 0.226308 0)
(0.00906412 0.176106 0)
(-0.0434613 0.107692 0)
(-0.0720975 0.0457773 0)
(-0.0850616 -0.0206859 0)
(-0.0797517 -0.0907579 0)
(-0.0651763 -0.151211 0)
(-0.0415752 -0.197176 0)
(-0.0156879 -0.219292 0)
(0.00470204 -0.212585 0)
(-0.00215314 -0.0814268 0)
(0.0184493 -0.106079 0)
(0.0355664 -0.0777572 0)
(0.0373675 -0.038745 0)
(0.0312804 0.00479534 0)
(0.0179004 0.0532659 0)
(0.00293529 0.109524 0)
(-0.0173998 0.166123 0)
(-0.0496802 0.221569 0)
(-0.0726269 0.266625 0)
(-0.0928278 0.291539 0)
(-0.125266 0.271348 0)
(-0.177562 0.0965415 0)
(-0.0643726 0.0366594 0)
(0.00964471 0.0460166 0)
(0.090588 0.0956169 0)
(0.158221 0.246782 0)
(0.288171 0.369509 0)
(0.31515 0.395705 0)
(0.27991 0.374394 0)
(0.143343 0.323317 0)
(0.0674282 0.250569 0)
(0.00122453 0.167538 0)
(-0.0377374 0.0839104 0)
(-0.0480571 0.0101407 0)
(-0.0442448 -0.0638083 0)
(-0.0351471 -0.12582 0)
(-0.0200186 -0.175361 0)
(-0.00165031 -0.209964 0)
(0.0115828 -0.21408 0)
(0.00339289 -0.0860687 0)
(0.0230596 -0.100444 0)
(0.0332534 -0.074312 0)
(0.0309747 -0.0352519 0)
(0.0164789 0.0105521 0)
(-0.0117879 0.0571206 0)
(-0.0391302 0.124191 0)
(-0.0661322 0.192803 0)
(-0.110077 0.249845 0)
(-0.131189 0.281614 0)
(-0.147357 0.28073 0)
(-0.178583 0.23268 0)
(-0.160296 0.0853599 0)
(-0.0606696 0.0308824 0)
(0.0109366 0.0590903 0)
(0.0638362 0.147496 0)
(0.0913902 0.33993 0)
(0.258598 0.457338 0)
(0.340783 0.506141 0)
(0.332842 0.477069 0)
(0.237827 0.441824 0)
(0.143755 0.341219 0)
(0.0703607 0.245979 0)
(0.0197684 0.134021 0)
(0.012094 0.0379396 0)
(0.00666455 -0.0451413 0)
(0.00208178 -0.107665 0)
(0.0048948 -0.154848 0)
(0.0171685 -0.188209 0)
(0.029413 -0.203608 0)
(0.0178331 -0.0917677 0)
(0.0313979 -0.104362 0)
(0.0390659 -0.0799304 0)
(0.0370338 -0.0360886 0)
(0.0182114 0.0170551 0)
(-0.0367432 0.0570997 0)
(-0.113063 0.156476 0)
(-0.138164 0.235434 0)
(-0.163866 0.286584 0)
(-0.159185 0.296901 0)
(-0.143438 0.262849 0)
(-0.138714 0.190295 0)
(-0.113758 0.0785656 0)
(-0.0499288 0.0334351 0)
(-0.0152005 0.0778176 0)
(-0.00930151 0.207963 0)
(0.0109998 0.408926 0)
(0.166179 0.618996 0)
(0.272666 0.660386 0)
(0.32984 0.5996 0)
(0.323078 0.536089 0)
(0.269644 0.446014 0)
(0.186275 0.332608 0)
(0.132169 0.19358 0)
(0.108819 0.0579467 0)
(0.0631741 -0.0358488 0)
(0.025741 -0.0981355 0)
(0.0166159 -0.142319 0)
(0.023198 -0.16928 0)
(0.0324912 -0.172421 0)
(0.0394566 -0.122917 0)
(0.0424939 -0.124913 0)
(0.0512085 -0.0988535 0)
(0.0585485 -0.0455947 0)
(0.0538988 0.00682296 0)
(-0.0536406 -0.150942 0)
(-0.203699 0.143505 0)
(-0.211081 0.240989 0)
(-0.171639 0.300618 0)
(-0.124406 0.302025 0)
(-0.091081 0.259748 0)
(-0.0657947 0.174428 0)
(-0.0521862 0.0722059 0)
(-0.0418923 0.0432054 0)
(-0.0481382 0.0866039 0)
(-0.0780556 0.180551 0)
(-0.0938488 0.387445 0)
(0.0170172 0.662426 0)
(0.149853 0.702999 0)
(0.256459 0.64782 0)
(0.32804 0.571122 0)
(0.360643 0.484676 0)
(0.345274 0.382561 0)
(0.329511 0.243546 0)
(0.278381 0.0959352 0)
(0.0666023 -0.0378496 0)
(0.0146151 -0.0936551 0)
(0.00674105 -0.140965 0)
(0.0119032 -0.162172 0)
(0.021871 -0.158576 0)
(0.0427499 -0.183463 0)
(0.0431395 -0.16513 0)
(0.0538854 -0.13627 0)
(0.0597547 -0.0725898 0)
(0.0348777 -0.373135 0)
(-0.0106603 -0.479441 0)
(-0.0355557 -0.361457 0)
(-0.0739744 -0.199823 0)
(-0.0996086 -0.0249965 0)
(-0.0758665 0.0654346 0)
(-0.0284044 0.107716 0)
(0.0234518 0.0243608 0)
(0.0249608 -0.0662077 0)
(-0.00982929 -0.0445017 0)
(-0.0591134 -0.0292441 0)
(-0.0951856 -0.0977294 0)
(-0.141132 0.156577 0)
(-0.0639288 0.528173 0)
(0.0762223 0.604668 0)
(0.198442 0.592946 0)
(0.291775 0.540257 0)
(0.354849 0.465901 0)
(0.403058 0.377064 0)
(0.433856 0.236458 0)
(0.27028 -0.112619 0)
(0.0677759 -0.398494 0)
(-0.0163983 -0.125748 0)
(-0.028788 -0.157716 0)
(-0.0103441 -0.168805 0)
(0.00493384 -0.166511 0)
(0.0274524 -0.231308 0)
(0.0387736 -0.214606 0)
(0.0703083 -0.193985 0)
(0.0804306 -0.336409 0)
(-0.0350001 -0.489847 0)
(-0.0169043 -0.465827 0)
(0.00622451 -0.461253 0)
(0.0241196 -0.465131 0)
(0.0312809 -0.462663 0)
(0.0362185 -0.465576 0)
(0.0395116 -0.481008 0)
(0.0359715 -0.504036 0)
(0.00547185 -0.514188 0)
(-0.0348751 -0.493515 0)
(-0.0660376 -0.450412 0)
(-0.0808435 -0.376254 0)
(-0.0933358 -0.229013 0)
(-0.0682652 0.0511723 0)
(0.0224476 0.171794 0)
(0.120854 0.236522 0)
(0.193577 0.225695 0)
(0.255574 0.186356 0)
(0.28734 0.0967039 0)
(0.199043 -0.171611 0)
(0.0737949 -0.455008 0)
(0.0864421 -0.487649 0)
(-0.00978722 -0.449511 0)
(-0.0607265 -0.213562 0)
(-0.0329286 -0.216358 0)
(0.0201771 -0.172628 0)
(0.031422 -0.276142 0)
(0.0470761 -0.257602 0)
(0.0900061 -0.265045 0)
(-0.0185496 -0.484115 0)
(-0.0429315 -0.459223 0)
(-0.020346 -0.438043 0)
(0.00120092 -0.430353 0)
(0.0194685 -0.428423 0)
(0.0307679 -0.438949 0)
(0.0331907 -0.456093 0)
(0.0279183 -0.481187 0)