/*--------------------------------*- C++ -*----------------------------------*\
| =========                 |                                                 |
| \\      /  F ield         | OpenFOAM: The Open Source CFD Toolbox           |
|  \\    /   O peration     | Version:  v1606+                                |
|   \\  /    A nd           | Web:      www.OpenFOAM.com                      |
|    \\/     M anipulation  |                                                 |
\*---------------------------------------------------------------------------*/
FoamFile
{
    version     2.0;
    format      ascii;
    class       volVectorField;
    location    "0.07";
    object      U.particles;
}
// * * * * * * * * * * * * * * * * * * * * * * * * * * * * * * * * * * * * * //

dimensions      [0 1 -1 0 0 0 0];

internalField   nonuniform List<vector> 
6000
(
(0.00298 -0.187902 0)
(0.0137608 -0.193586 0)
(0.0288647 -0.195291 0)
(0.0404801 -0.19973 0)
(0.0454172 -0.204103 0)
(0.0456697 -0.207616 0)
(0.0436917 -0.210136 0)
(0.040139 -0.210957 0)
(0.0359136 -0.210879 0)
(0.0312869 -0.210928 0)
(0.0260926 -0.21043 0)
(0.0206312 -0.210271 0)
(0.0149371 -0.210659 0)
(0.00899016 -0.210748 0)
(0.00285024 -0.210656 0)
(-0.00320349 -0.210607 0)
(-0.00917343 -0.210739 0)
(-0.0150979 -0.210715 0)
(-0.0208119 -0.210685 0)
(-0.0262462 -0.211019 0)
(-0.0312299 -0.211226 0)
(-0.0357912 -0.211051 0)
(-0.040387 -0.21139 0)
(-0.0440786 -0.209996 0)
(-0.045757 -0.207232 0)
(-0.0449303 -0.203758 0)
(-0.0399 -0.199775 0)
(-0.0281086 -0.195415 0)
(-0.0118631 -0.194396 0)
(-0.00193543 -0.193051 0)
(0.0108461 0.00276723 0)
(0.0160868 0.0180473 0)
(0.0301246 0.0195859 0)
(0.0383711 0.0163198 0)
(0.0417426 0.00544835 0)
(0.0435903 -0.00690266 0)
(0.0437573 -0.0122825 0)
(0.0421918 -0.016114 0)
(0.0387664 -0.0181487 0)
(0.0340908 -0.0170196 0)
(0.0286006 -0.0174233 0)
(0.0226144 -0.0170739 0)
(0.0163261 -0.0161183 0)
(0.00981849 -0.016101 0)
(0.00317753 -0.0160707 0)
(-0.00342202 -0.0160152 0)
(-0.00999882 -0.0159378 0)
(-0.0165099 -0.0160017 0)
(-0.0228134 -0.0162267 0)
(-0.0288057 -0.0161587 0)
(-0.0342847 -0.016711 0)
(-0.0389275 -0.0160552 0)
(-0.0421193 -0.0137155 0)
(-0.0435997 -0.0116127 0)
(-0.0435388 -0.00590366 0)
(-0.0417642 0.00441663 0)
(-0.0383937 0.0162805 0)
(-0.0300682 0.0193208 0)
(-0.0163149 0.0166207 0)
(-0.0111248 0.00167575 0)
(0.0132422 0.0335904 0)
(0.0158271 0.0195962 0)
(0.0316709 0.0208994 0)
(0.041888 0.0266826 0)
(0.0468438 0.0317022 0)
(0.0466738 0.0347866 0)
(0.0437742 0.0351327 0)
(0.0403235 0.0334724 0)
(0.0365676 0.0315228 0)
(0.0322354 0.0304445 0)
(0.02725 0.0299956 0)
(0.0216311 0.0298833 0)
(0.0156454 0.0301199 0)
(0.0094452 0.0302642 0)
(0.00311467 0.0303584 0)
(-0.00325653 0.0303608 0)
(-0.00960459 0.0303144 0)
(-0.0158288 0.0301954 0)
(-0.0218146 0.0300585 0)
(-0.0274178 0.0301023 0)
(-0.0324744 0.0305159 0)
(-0.0367988 0.0317273 0)
(-0.0403424 0.0335929 0)
(-0.0436886 0.0350902 0)
(-0.0466407 0.0346373 0)
(-0.0469901 0.031408 0)
(-0.0422074 0.0262689 0)
(-0.0320834 0.0201579 0)
(-0.0167295 0.0185781 0)
(-0.0138898 0.0332823 0)
(0.020115 0.078191 0)
(0.0216251 0.0596254 0)
(0.0342661 0.0630291 0)
(0.0423367 0.0734099 0)
(0.0467504 0.0813282 0)
(0.0478058 0.0863163 0)
(0.0454191 0.0892386 0)
(0.0407736 0.0901139 0)
(0.0350883 0.0893038 0)
(0.0293353 0.0875453 0)
(0.0238752 0.0856453 0)
(0.0185933 0.0840851 0)
(0.0133608 0.0830609 0)
(0.00806771 0.0824641 0)
(0.0026883 0.0822208 0)
(-0.00275109 0.0822253 0)
(-0.00818018 0.0824992 0)
(-0.0135108 0.0831141 0)
(-0.0187617 0.0841758 0)
(-0.0240362 0.085744 0)
(-0.029521 0.0876823 0)
(-0.0352465 0.0894721 0)
(-0.040847 0.0902639 0)
(-0.0454641 0.0893381 0)
(-0.0478619 0.0863119 0)
(-0.046948 0.081227 0)
(-0.0427141 0.0731461 0)
(-0.0349102 0.0626059 0)
(-0.0227623 0.0592262 0)
(-0.0209133 0.0782564 0)
(0.0270377 0.119709 0)
(0.0310201 0.101447 0)
(0.0408773 0.105488 0)
(0.0464386 0.116526 0)
(0.0491624 0.126564 0)
(0.0496899 0.135128 0)
(0.0479079 0.141869 0)
(0.0441198 0.146609 0)
(0.038796 0.149475 0)
(0.0325188 0.150742 0)
(0.0259133 0.150873 0)
(0.0194735 0.150313 0)
(0.013464 0.149511 0)
(0.00788438 0.148795 0)
(0.00259332 0.148389 0)
(-0.00261762 0.148402 0)
(-0.00795643 0.148832 0)
(-0.0135768 0.149579 0)
(-0.0196135 0.150407 0)
(-0.0260551 0.150982 0)
(-0.032658 0.150871 0)
(-0.0389046 0.149594 0)
(-0.0442338 0.146712 0)
(-0.0480429 0.14193 0)
(-0.0498376 0.135133 0)
(-0.0493878 0.126538 0)
(-0.0467709 0.116433 0)
(-0.0414454 0.105339 0)
(-0.031978 0.101395 0)
(-0.0278676 0.120058 0)
(0.0317569 0.140658 0)
(0.0369771 0.121868 0)
(0.0459907 0.126013 0)
(0.0513173 0.137921 0)
(0.0540994 0.150469 0)
(0.0548441 0.162623 0)
(0.0535598 0.173573 0)
(0.0504481 0.18291 0)
(0.0457675 0.190628 0)
(0.0398052 0.196798 0)
(0.0329822 0.201462 0)
(0.0257187 0.204764 0)
(0.0183121 0.206939 0)
(0.010931 0.208224 0)
(0.00362663 0.208813 0)
(-0.00365331 0.208828 0)
(-0.0109907 0.20826 0)
(-0.0184037 0.206992 0)
(-0.0258287 0.204824 0)
(-0.0330903 0.201521 0)
(-0.0398992 0.196857 0)
(-0.0458537 0.190687 0)
(-0.0505655 0.182962 0)
(-0.0536986 0.173598 0)
(-0.0549918 0.162631 0)
(-0.0542746 0.150474 0)
(-0.051537 0.13792 0)
(-0.0463077 0.126028 0)
(-0.0374918 0.121981 0)
(-0.0323189 0.140956 0)
(0.0308233 0.130936 0)
(0.0370471 0.125066 0)
(0.0444586 0.132188 0)
(0.0493546 0.145009 0)
(0.0520494 0.158832 0)
(0.0531305 0.172424 0)
(0.0527346 0.18536 0)
(0.0508989 0.197416 0)
(0.0475511 0.208394 0)
(0.0426555 0.217971 0)
(0.0364086 0.225822 0)
(0.0291717 0.231872 0)
(0.0212608 0.236238 0)
(0.0129139 0.239068 0)
(0.0043204 0.240466 0)
(-0.00435769 0.240474 0)
(-0.0129633 0.239091 0)
(-0.0213221 0.236266 0)
(-0.02924 0.231899 0)
(-0.0364796 0.225845 0)
(-0.042726 0.217991 0)
(-0.0476236 0.208416 0)
(-0.0509828 0.197439 0)
(-0.0528273 0.185378 0)
(-0.0532323 0.172445 0)
(-0.0521646 0.158857 0)
(-0.0494879 0.145044 0)
(-0.0446127 0.132253 0)
(-0.0372355 0.125182 0)
(-0.0309593 0.131035 0)
(0.0239367 0.104488 0)
(0.0339048 0.121542 0)
(0.0404215 0.133517 0)
(0.0447215 0.148241 0)
(0.0467348 0.163637 0)
(0.0471723 0.178509 0)
(0.0463238 0.192439 0)
(0.044328 0.205187 0)
(0.0412486 0.216578 0)
(0.0371239 0.226467 0)
(0.032012 0.234771 0)
(0.0260003 0.241471 0)
(0.0192025 0.246564 0)
(0.0117807 0.250015 0)
(0.003958 0.251764 0)
(-0.00400302 0.251769 0)
(-0.0118274 0.250026 0)
(-0.0192498 0.24658 0)
(-0.0260492 0.241488 0)
(-0.0320633 0.234788 0)
(-0.0371777 0.226485 0)
(-0.0413061 0.216597 0)
(-0.0443923 0.205208 0)
(-0.0463948 0.19246 0)
(-0.0472501 0.178533 0)
(-0.0468191 0.163667 0)
(-0.0448104 0.148281 0)
(-0.0405091 0.133579 0)
(-0.0339839 0.121646 0)
(-0.0239468 0.104693 0)
(0.0191521 0.0881492 0)
(0.0298074 0.116044 0)
(0.0359338 0.132464 0)
(0.0398229 0.14934 0)
(0.0414276 0.166342 0)
(0.0414683 0.182523 0)
(0.0402886 0.197546 0)
(0.0380735 0.211222 0)
(0.0349586 0.223402 0)
(0.0310562 0.233965 0)
(0.0264642 0.242829 0)
(0.0212741 0.249954 0)
(0.0155824 0.255322 0)
(0.00950525 0.258916 0)
(0.00318341 0.26072 0)
(-0.00322246 0.260722 0)
(-0.0095446 0.258922 0)
(-0.0156225 0.255331 0)
(-0.0213155 0.249965 0)
(-0.0265078 0.242841 0)
(-0.0311024 0.233978 0)
(-0.0350083 0.223417 0)
(-0.0381274 0.211239 0)
(-0.0403466 0.197565 0)
(-0.0415301 0.182546 0)
(-0.0414921 0.166372 0)
(-0.0398883 0.14938 0)
(-0.0359971 0.132519 0)
(-0.0298675 0.116122 0)
(-0.0191905 0.0883105 0)
(0.0165767 0.0734011 0)
(0.0258494 0.109592 0)
(0.0314591 0.130094 0)
(0.0350474 0.149158 0)
(0.0364921 0.167674 0)
(0.0364528 0.185033 0)
(0.0352666 0.201021 0)
(0.0331264 0.215514 0)
(0.0301929 0.228395 0)
(0.0266062 0.239563 0)
(0.0224865 0.248941 0)
(0.017937 0.256482 0)
(0.0130515 0.262158 0)
(0.00792287 0.265953 0)
(0.00264642 0.267855 0)
(-0.00267978 0.267857 0)
(-0.00795648 0.265958 0)
(-0.0130859 0.262166 0)
(-0.0179729 0.256491 0)
(-0.0225247 0.248951 0)
(-0.026647 0.239574 0)
(-0.0302365 0.228408 0)
(-0.0331726 0.215528 0)
(-0.0353147 0.201039 0)
(-0.0365021 0.185056 0)
(-0.0365414 0.167705 0)
(-0.0350955 0.149198 0)
(-0.0315046 0.130145 0)
(-0.0258935 0.109656 0)
(-0.0166171 0.0734909 0)
(0.0137913 0.0607816 0)
(0.0217129 0.103156 0)
(0.0269973 0.127203 0)
(0.0304118 0.148337 0)
(0.0318475 0.168253 0)
(0.0319 0.186669 0)
(0.0308836 0.203497 0)
(0.028986 0.218678 0)
(0.026369 0.232133 0)
(0.0231745 0.243785 0)
(0.0195247 0.253567 0)
(0.0155239 0.261435 0)
(0.0112628 0.267357 0)
(0.00682229 0.271316 0)
(0.00227661 0.273299 0)
(-0.00230386 0.273301 0)
(-0.00685007 0.27132 0)
(-0.0112918 0.267364 0)
(-0.0155547 0.261443 0)
(-0.0195579 0.253577 0)
(-0.0232104 0.243796 0)
(-0.0264074 0.232145 0)
(-0.0290262 0.218692 0)
(-0.0309246 0.203513 0)
(-0.0319405 0.186691 0)
(-0.031886 0.168283 0)
(-0.0304468 0.148376 0)
(-0.0270274 0.127252 0)
(-0.0217385 0.103212 0)
(-0.0138129 0.0608318 0)
(0.0108371 0.0510981 0)
(0.0176788 0.0971418 0)
(0.0227545 0.124104 0)
(0.0260573 0.147132 0)
(0.0275436 0.168354 0)
(0.0277433 0.187759 0)
(0.0269459 0.205368 0)
(0.0253332 0.221176 0)
(0.0230632 0.235137 0)
(0.0202721 0.247195 0)
(0.0170752 0.257304 0)
(0.0135704 0.265428 0)
(0.0098409 0.271539 0)
(0.00595907 0.275623 0)
(0.00198907 0.277668 0)
(-0.00201003 0.277669 0)
(-0.00598082 0.275627 0)
(-0.00986422 0.271547 0)
(-0.013596 0.265437 0)
(-0.0171036 0.257315 0)
(-0.0203034 0.247206 0)
(-0.0230972 0.235148 0)
(-0.0253691 0.221189 0)
(-0.0269825 0.205383 0)
(-0.0277788 0.187778 0)
(-0.0275758 0.16838 0)
(-0.0260845 0.147168 0)
(-0.0227749 0.12415 0)
(-0.0176919 0.0971923 0)
(-0.0108445 0.0511339 0)
(0.0082812 0.0440054 0)
(0.0141591 0.09166 0)
(0.0189724 0.120937 0)
(0.0221418 0.145657 0)
(0.023668 0.168092 0)
(0.0240066 0.188439 0)
(0.0234168 0.206801 0)
(0.022073 0.223211 0)
(0.0201276 0.237651 0)
(0.0177096 0.250088 0)
(0.0149265 0.260493 0)
(0.0118679 0.26884 0)
(0.00860909 0.275114 0)
(0.00521479 0.279302 0)
(0.00174205 0.281399 0)
(-0.00175665 0.2814 0)
(-0.00523036 0.279307 0)
(-0.00862653 0.275122 0)
(-0.011888 0.268851 0)
(-0.0149498 0.260504 0)
(-0.0177362 0.250101 0)
(-0.0201574 0.237663 0)
(-0.0221054 0.223223 0)
(-0.0234504 0.206813 0)
(-0.0240395 0.188454 0)
(-0.0236978 0.168113 0)
(-0.0221662 0.145687 0)
(-0.0189895 0.120978 0)
(-0.0141676 0.0917064 0)
(-0.00828248 0.044037 0)
(0.00629863 0.0388041 0)
(0.011301 0.0867637 0)
(0.01575 0.11783 0)
(0.01873 0.144019 0)
(0.0202519 0.167566 0)
(0.0206922 0.188802 0)
(0.0202772 0.207886 0)
(0.0191703 0.224876 0)
(0.0175148 0.239778 0)
(0.0154308 0.252578 0)
(0.0130175 0.263264 0)
(0.0103567 0.271822 0)
(0.00751642 0.278247 0)
(0.00455499 0.282532 0)
(0.00152341 0.284676 0)
(-0.00153146 0.284678 0)
(-0.00456412 0.282538 0)
(-0.00752764 0.278256 0)
(-0.0103708 0.271834 0)
(-0.0130352 0.263277 0)
(-0.0154524 0.252592 0)
(-0.0175401 0.239791 0)
(-0.0191989 0.224888 0)
(-0.0203081 0.207897 0)
(-0.0207236 0.188814 0)
(-0.0202814 0.167581 0)
(-0.0187552 0.144042 0)
(-0.0157686 0.117865 0)
(-0.011311 0.0868063 0)
(-0.00629923 0.0388349 0)
(0.00482248 0.0349422 0)
(0.00905594 0.0824733 0)
(0.0130666 0.114888 0)
(0.0158042 0.142323 0)
(0.01727 0.166873 0)
(0.0177671 0.18894 0)
(0.0174895 0.208704 0)
(0.016586 0.226244 0)
(0.0151871 0.241584 0)
(0.0134015 0.254728 0)
(0.0113187 0.26568 0)
(0.00901257 0.274439 0)
(0.00654504 0.281007 0)
(0.00396868 0.285384 0)
(0.00132946 0.287574 0)
(-0.00133069 0.287576 0)
(-0.00397109 0.285391 0)
(-0.00654968 0.281017 0)
(-0.00902036 0.274453 0)
(-0.0113303 0.265695 0)
(-0.0134174 0.254744 0)
(-0.0152072 0.241599 0)
(-0.0166099 0.226258 0)
(-0.0175166 0.208716 0)
(-0.0177962 0.18895 0)
(-0.0172991 0.166884 0)
(-0.015831 0.14234 0)
(-0.0130886 0.114916 0)
(-0.00907066 0.0825116 0)
(-0.00482571 0.0349723 0)
(0.00373992 0.0320264 0)
(0.0073116 0.0787627 0)
(0.0108459 0.112173 0)
(0.0133031 0.140656 0)
(0.0146683 0.166106 0)
(0.0151823 0.188936 0)
(0.0150092 0.209332 0)
(0.01428 0.227381 0)
(0.0131087 0.243127 0)
(0.0115901 0.256593 0)
(0.00980328 0.267794 0)
(0.00781445 0.276742 0)
(0.00567966 0.283445 0)
(0.00344668 0.28791 0)
(0.00115712 0.290142 0)
(-0.00115129 0.290145 0)
(-0.00344209 0.287917 0)
(-0.00567742 0.283457 0)
(-0.00781553 0.276758 0)
(-0.00980838 0.267812 0)
(-0.0115996 0.256611 0)
(-0.0131227 0.243144 0)
(-0.0142982 0.227396 0)
(-0.0150311 0.209344 0)
(-0.0152072 0.188946 0)
(-0.0146948 0.166115 0)
(-0.0133294 0.140667 0)
(-0.01087 0.112194 0)
(-0.00733082 0.0787949 0)
(-0.00374719 0.0320535 0)
(0.00294864 0.0297743 0)
(0.00594209 0.075574 0)
(0.00899035 0.109719 0)
(0.0111482 0.139087 0)
(0.0123855 0.16534 0)
(0.0128909 0.18886 0)
(0.0128 0.209826 0)
(0.0122225 0.228337 0)
(0.0112536 0.244455 0)
(0.00997339 0.258219 0)
(0.00845073 0.269654 0)
(0.006745 0.278779 0)
(0.00490716 0.28561 0)
(0.00298079 0.290156 0)
(0.0010036 0.292429 0)
(-0.000990543 0.292432 0)
(-0.00296903 0.290165 0)
(-0.00489787 0.285623 0)
(-0.00673918 0.278797 0)
(-0.00844913 0.269674 0)
(-0.0099764 0.258239 0)
(-0.0112612 0.244475 0)
(-0.0122344 0.228355 0)
(-0.0128155 0.209841 0)
(-0.0129095 0.188872 0)
(-0.0124064 0.165348 0)
(-0.0111703 0.139095 0)
(-0.00901215 0.109732 0)
(-0.00596198 0.0755981 0)
(-0.00295913 0.0297953 0)
(0.00235736 0.0279897 0)
(0.0048249 0.0728435 0)
(0.00740306 0.107544 0)
(0.00926765 0.137671 0)
(0.0103723 0.164632 0)
(0.0108612 0.18876 0)
(0.0108409 0.210227 0)
(0.010398 0.229151 0)
(0.00960786 0.245607 0)
(0.00853762 0.259647 0)
(0.00724778 0.271301 0)
(0.00579234 0.280593 0)
(0.00421811 0.287544 0)
(0.00256492 0.292169 0)
(0.000866749 0.294479 0)
(-0.000846425 0.294483 0)
(-0.00254595 0.292178 0)
(-0.00420171 0.287559 0)
(-0.0057796 0.280613 0)
(-0.00723951 0.271323 0)
(-0.00853424 0.259669 0)
(-0.00960931 0.245629 0)
(-0.0104037 0.229171 0)
(-0.01085 0.210244 0)
(-0.0108728 0.188773 0)
(-0.0103858 0.164642 0)
(-0.00928221 0.137677 0)
(-0.0074179 0.107552 0)
(-0.00483988 0.0728585 0)
(-0.00236817 0.0280025 0)
(0.00188511 0.0265502 0)
(0.00386457 0.0705219 0)
(0.00601696 0.105663 0)
(0.00761962 0.136443 0)
(0.00860689 0.164014 0)
(0.00908349 0.188659 0)
(0.00912731 0.21056 0)
(0.00880133 0.229849 0)
(0.00816447 0.246615 0)
(0.00727387 0.260911 0)
(0.00618472 0.272772 0)
(0.00494744 0.282222 0)
(0.00360527 0.289286 0)
(0.0021944 0.293984 0)
(0.000744918 0.29633 0)
(-0.000717414 0.296334 0)
(-0.00216828 0.293995 0)
(-0.0035818 0.289303 0)
(-0.0049278 0.282244 0)
(-0.00616987 0.272796 0)
(-0.00726438 0.260936 0)
(-0.00816035 0.246638 0)
(-0.00880189 0.22987 0)
(-0.00913129 0.210578 0)
(-0.00908944 0.188674 0)
(-0.00861365 0.164025 0)
(-0.00762622 0.13645 0)
(-0.00602278 0.105667 0)
(-0.00387063 0.0705286 0)
(-0.00189249 0.0265551 0)
(0.00147473 0.0253934 0)
(0.00302119 0.0685809 0)
(0.0048168 0.104085 0)
(0.0062029 0.135417 0)
(0.00709514 0.163491 0)
(0.00756437 0.188565 0)
(0.00766137 0.210837 0)
(0.00742936 0.230455 0)
(0.00691582 0.247507 0)
(0.00617272 0.262046 0)
(0.00525173 0.274101 0)
(0.00420114 0.2837 0)
(0.00306137 0.290869 0)
(0.00186463 0.295632 0)
(0.000636489 0.298011 0)
(-0.00060206 0.298015 0)
(-0.00183157 0.295644 0)
(-0.00303097 0.290887 0)
(-0.00417463 0.283724 0)
(-0.00523027 0.274129 0)
(-0.00615721 0.262074 0)
(-0.00690651 0.247533 0)
(-0.00742572 0.230477 0)
(-0.007662 0.210855 0)
(-0.00756719 0.18858 0)
(-0.00709816 0.163503 0)
(-0.00620457 0.135426 0)
(-0.00481601 0.104088 0)
(-0.00301892 0.0685823 0)
(-0.00147648 0.0253931 0)
(0.00110956 0.024492 0)
(0.00231428 0.0670062 0)
(0.00382914 0.102806 0)
(0.00503894 0.134582 0)
(0.00585106 0.163052 0)
(0.00630833 0.188477 0)
(0.00643841 0.211074 0)
(0.00627093 0.230994 0)
(0.00584781 0.248317 0)
(0.00521946 0.263083 0)
(0.0044357 0.275319 0)
(0.00354211 0.285054 0)
(0.00257744 0.292317 0)
(0.00156983 0.29714 0)
(0.000539401 0.299547 0)
(-0.000498534 0.299551 0)
(-0.00153026 0.297153 0)
(-0.00254036 0.292337 0)
(-0.00350877 0.28508 0)
(-0.00440747 0.275349 0)
(-0.00519762 0.263114 0)
(-0.00583305 0.248346 0)
(-0.00626328 0.231018 0)
(-0.00643671 0.211092 0)
(-0.00631025 0.188491 0)
(-0.00585386 0.163064 0)
(-0.00504028 0.134591 0)
(-0.00382722 0.10281 0)
(-0.00230883 0.0670061 0)
(-0.00110666 0.0244906 0)
(0.000808406 0.0238229 0)
(0.00178411 0.0657794 0)
(0.00307893 0.101803 0)
(0.00413667 0.13391 0)
(0.00487091 0.162682 0)
(0.0053009 0.188399 0)
(0.00543701 0.211291 0)
(0.00530202 0.231496 0)
(0.00493633 0.249075 0)
(0.00438969 0.264055 0)
(0.00371582 0.276457 0)
(0.00295683 0.286314 0)
(0.00214552 0.293661 0)
(0.00130566 0.298535 0)
(0.000452169 0.300966 0)
(-0.000405632 0.300971 0)
(-0.00126024 0.298549 0)
(-0.00210226 0.293683 0)
(-0.00291692 0.286342 0)
(-0.0036807 0.276491 0)
(-0.00436082 0.26409 0)
(-0.00491518 0.249108 0)
(-0.00528939 0.231524 0)
(-0.00543235 0.211311 0)
(-0.00530229 0.188412 0)
(-0.0048752 0.162691 0)
(-0.0041409 0.133918 0)
(-0.00308058 0.101809 0)
(-0.00178147 0.065781 0)
(-0.00080431 0.0238231 0)
(0.000595788 0.0233469 0)
(0.00143975 0.064861 0)
(0.00255228 0.101034 0)
(0.00347098 0.133368 0)
(0.00412236 0.16237 0)
(0.00450555 0.188344 0)
(0.00461943 0.211516 0)
(0.0044862 0.231994 0)
(0.00414872 0.249816 0)
(0.00366144 0.264994 0)
(0.00307421 0.277547 0)
(0.00242863 0.28751 0)
(0.00175287 0.294927 0)
(0.00106447 0.299842 0)
(0.000372162 0.302293 0)
(-0.000321099 0.302297 0)
(-0.00101424 0.299856 0)
(-0.00170426 0.29495 0)
(-0.00238265 0.287541 0)
(-0.00303222 0.277584 0)
(-0.00362513 0.265033 0)
(-0.00411993 0.249854 0)
(-0.0044665 0.232027 0)
(-0.0046096 0.211539 0)
(-0.00450432 0.188357 0)
(-0.00412705 0.162377 0)
(-0.00347819 0.133374 0)
(-0.00255884 0.10104 0)
(-0.00144288 0.0648653 0)
(-0.00059391 0.0233492 0)
(0.000473734 0.0230123 0)
(0.00124276 0.0641885 0)
(0.00219824 0.100442 0)
(0.0029894 0.132925 0)
(0.00355339 0.162115 0)
(0.00387163 0.188331 0)
(0.00393944 0.211775 0)
(0.00378278 0.23252 0)
(0.0034525 0.250571 0)
(0.00300513 0.265927 0)
(0.00248965 0.27861 0)
(0.00194358 0.288659 0)
(0.00139023 0.29613 0)
(0.000840814 0.301075 0)
(0.000297449 0.303538 0)
(-0.000243421 0.303543 0)
(-0.000787237 0.301089 0)
(-0.00133756 0.296153 0)
(-0.00189254 0.288691 0)
(-0.0024414 0.278649 0)
(-0.0029613 0.265971 0)
(-0.00341504 0.250615 0)
(-0.00375409 0.232559 0)
(-0.0039214 0.211804 0)
(-0.0038643 0.188347 0)
(-0.00355517 0.16212 0)
(-0.00299688 0.132928 0)
(-0.00220765 0.100447 0)
(-0.00125065 0.0641942 0)
(-0.000475506 0.0230156 0)
(0.000418212 0.0227709 0)
(0.00113293 0.0636915 0)
(0.00195426 0.0999762 0)
(0.00263195 0.132562 0)
(0.00310483 0.161923 0)
(0.00334396 0.188382 0)
(0.00334779 0.212099 0)
(0.00315117 0.233101 0)
(0.0028146 0.251362 0)
(0.00239623 0.266874 0)
(0.00194372 0.27966 0)
(0.00148919 0.289774 0)
(0.00104983 0.29728 0)
(0.000630367 0.302243 0)
(0.000226523 0.304714 0)
(-0.000171489 0.304718 0)
(-0.000575336 0.302257 0)
(-0.000994889 0.297303 0)
(-0.00143473 0.289806 0)
(-0.00189062 0.279701 0)
(-0.00234579 0.26692 0)
(-0.00276863 0.251412 0)
(-0.00311241 0.233148 0)
(-0.00331919 0.212137 0)
(-0.00332782 0.188404 0)
(-0.00309999 0.16193 0)
(-0.00263556 0.132562 0)
(-0.00196248 0.0999777 0)
(-0.00114214 0.0636962 0)
(-0.000422815 0.0227736 0)
(0.000396212 0.0225873 0)
(0.00105872 0.0633079 0)
(0.00176828 0.0995948 0)
(0.00234626 0.132264 0)
(0.0027238 0.161805 0)
(0.00287412 0.188519 0)
(0.00279995 0.212513 0)
(0.00255612 0.233758 0)
(0.0022086 0.252205 0)
(0.00181662 0.267843 0)
(0.00142393 0.280706 0)
(0.00105686 0.290861 0)
(0.000726119 0.298385 0)
(0.000430016 0.303355 0)
(0.000158305 0.305826 0)
(-0.000104496 0.30583 0)
(-0.000375768 0.303367 0)
(-0.000671142 0.298406 0)
(-0.00100122 0.290891 0)
(-0.00136822 0.280746 0)
(-0.00176164 0.26789 0)
(-0.00215565 0.252258 0)
(-0.00250786 0.233812 0)
(-0.00276023 0.21256 0)
(-0.00284631 0.188549 0)
(-0.00270862 0.161816 0)
(-0.00234125 0.132263 0)
(-0.00177073 0.0995922 0)
(-0.00106504 0.0633089 0)
(-0.00040154 0.022588 0)
(0.000382604 0.0224378 0)
(0.00098886 0.0629926 0)
(0.00160618 0.0992702 0)
(0.00209305 0.132028 0)
(0.00237421 0.161769 0)
(0.002422 0.188761 0)
(0.00226656 0.213032 0)
(0.00197501 0.234501 0)
(0.00161925 0.253104 0)
(0.00125637 0.268837 0)
(0.000923939 0.28175 0)
(0.000642311 0.291924 0)
(0.000416213 0.29945 0)
(0.000238072 0.304415 0)
(9.22335e-05 0.306882 0)
(-4.19565e-05 0.306885 0)
(-0.000187006 0.304426 0)
(-0.000363694 0.299469 0)
(-0.000588178 0.291951 0)
(-0.000868557 0.281787 0)
(-0.00119994 0.268883 0)
(-0.00156229 0.253159 0)
(-0.00191949 0.234561 0)
(-0.00221628 0.213088 0)
(-0.00238127 0.188803 0)
(-0.00234571 0.161789 0)
(-0.00207593 0.132029 0)
(-0.00159923 0.0992641 0)
(-0.000988774 0.0629887 0)
(-0.000386406 0.0224356 0)
(0.000363976 0.0223088 0)
(0.00090883 0.0627182 0)
(0.00144586 0.0989881 0)
(0.00184184 0.131858 0)
(0.00202169 0.161833 0)
(0.00196446 0.189124 0)
(0.00172953 0.213666 0)
(0.00139736 0.235333 0)
(0.00104147 0.254058 0)
(0.000712913 0.269854 0)
(0.00044244 0.282791 0)
(0.000244643 0.292964 0)
(0.000119311 0.300478 0)
(5.40126e-05 0.305428 0)
(2.81884e-05 0.307885 0)
(1.63816e-05 0.307888 0)
(-8.47683e-06 0.305436 0)
(-7.17911e-05 0.300493 0)
(-0.000194816 0.292987 0)
(-0.000390555 0.282823 0)
(-0.000658675 0.269897 0)
(-0.000984663 0.25411 0)
(-0.00133895 0.235394 0)
(-0.00167241 0.21373 0)
(-0.00191327 0.189178 0)
(-0.0019805 0.161865 0)
(-0.00181366 0.131864 0)
(-0.00142808 0.0989808 0)
(-0.000900195 0.0627099 0)
(-0.00036458 0.0223038 0)
(0.000333902 0.0221943 0)
(0.000812153 0.0624708 0)
(0.00127388 0.0987444 0)
(0.00157933 0.131759 0)
(0.00164486 0.162019 0)
(0.00148765 0.189624 0)
(0.00118331 0.214419 0)
(0.000823601 0.236248 0)
(0.000477532 0.25506 0)
(0.000188455 0.270891 0)
(-1.88773e-05 0.283827 0)
(-0.00013497 0.293982 0)
(-0.000163972 0.301469 0)
(-0.000121876 0.306395 0)
(-3.36509e-05 0.308839 0)
(7.06395e-05 0.308841 0)
(0.000159816 0.306402 0)
(0.000204186 0.301481 0)
(0.000177937 0.294 0)
(6.43758e-05 0.283854 0)
(-0.000139904 0.270927 0)
(-0.000425303 0.255107 0)
(-0.000767736 0.236307 0)
(-0.00112538 0.214486 0)
(-0.0014318 0.189688 0)
(-0.00159633 0.162063 0)
(-0.00154157 0.131776 0)
(-0.00124656 0.0987402 0)
(-0.000793564 0.0624606 0)
(-0.000329844 0.0221877 0)
(0.000288365 0.0220929 0)
(0.000698285 0.062244 0)
(0.00109113 0.0985406 0)
(0.00129345 0.131755 0)
(0.00124606 0.162342 0)
(0.000994082 0.190268 0)
(0.000634811 0.215284 0)
(0.000261725 0.237235 0)
(-6.62461e-05 0.256101 0)
(-0.00031269 0.271941 0)
(-0.000457212 0.284857 0)
(-0.000494572 0.294976 0)
(-0.000432286 0.302427 0)
(-0.000288829 0.307321 0)
(-9.29322e-05 0.309747 0)
(0.000120904 0.309748 0)
(0.000317615 0.307325 0)
(0.000463411 0.302434 0)
(0.000528685 0.294989 0)
(0.000494067 0.284877 0)
(0.000352756 0.27197 0)
(0.000110219 0.256141 0)
(-0.000213366 0.237288 0)
(-0.000582336 0.215349 0)
(-0.000940228 0.190339 0)
(-0.00119606 0.162401 0)
(-0.00125106 0.131785 0)
(-0.00105646 0.098546 0)
(-0.000671018 0.0622374 0)
(-0.000278687 0.0220866 0)
(0.000228893 0.0220048 0)
(0.00057505 0.0620424 0)
(0.000898583 0.0983896 0)
(0.00098806 0.131867 0)
(0.000829266 0.162827 0)
(0.000493645 0.191055 0)
(9.69821e-05 0.216246 0)
(-0.00027753 0.238282 0)
(-0.000582412 0.257175 0)
(-0.00078569 0.273001 0)
(-0.000869691 0.285879 0)
(-0.000832319 0.295949 0)
(-0.000684206 0.303352 0)
(-0.000445955 0.308209 0)
(-0.000149252 0.310613 0)
(0.000167285 0.310614 0)
(0.000464669 0.308211 0)
(0.000705175 0.303356 0)
(0.000856271 0.295957 0)
(0.000896388 0.285892 0)
(0.000815428 0.273022 0)
(0.000615699 0.257206 0)
(0.000314898 0.238327 0)
(-5.50456e-05 0.216305 0)
(-0.000448205 0.191126 0)
(-0.000784851 0.162896 0)
(-0.000948024 0.131913 0)
(-0.000865733 0.0984072 0)
(-0.000553043 0.0620386 0)
(-0.000217236 0.0220004 0)
(0.00017372 0.0219242 0)
(0.000484985 0.061847 0)
(0.00069619 0.0983154 0)
(0.000668524 0.132132 0)
(0.000402943 0.163485 0)
(1.53771e-06 0.191971 0)
(-0.000415041 0.21729 0)
(-0.000783312 0.239378 0)
(-0.00106377 0.258273 0)
(-0.00122605 0.274067 0)
(-0.00125383 0.286893 0)
(-0.00114691 0.296903 0)
(-0.000918777 0.304249 0)
(-0.000592552 0.309063 0)
(-0.000202261 0.311443 0)
(0.000209919 0.311443 0)
(0.000600892 0.309063 0)
(0.000929214 0.304249 0)
(0.00116007 0.296905 0)
(0.0012696 0.2869 0)
(0.0012446 0.274081 0)
(0.0010853 0.258296 0)
(0.000808089 0.239413 0)
(0.00044369 0.21734 0)
(3.12231e-05 0.192037 0)
(-0.000369301 0.16356 0)
(-0.000639207 0.13219 0)
(-0.000673959 0.0983419 0)
(-0.000474443 0.0618487 0)
(-0.000164329 0.0219249 0)
(0.000132654 0.0218521 0)
(0.000431162 0.0616545 0)
(0.000485665 0.0983335 0)
(0.000338697 0.132582 0)
(-2.12374e-05 0.164315 0)
(-0.000463381 0.192994 0)
(-0.000886144 0.218396 0)
(-0.00124587 0.240511 0)
(-0.00150443 0.25939 0)
(-0.00163053 0.275139 0)
(-0.00160809 0.2879 0)
(-0.00143787 0.29784 0)
(-0.00113583 0.305122 0)
(-0.000728363 0.309888 0)
(-0.000251718 0.312242 0)
(0.000248989 0.312241 0)
(0.000726485 0.309886 0)
(0.00113588 0.305119 0)
(0.0014402 0.297838 0)
(0.00161287 0.287901 0)
(0.00163791 0.275145 0)
(0.00151425 0.259405 0)
(0.00125806 0.240536 0)
(0.000901074 0.218436 0)
(0.000481982 0.193051 0)
(4.25816e-05 0.164389 0)
(-0.000320183 0.132652 0)
(-0.000472 0.0983724 0)
(-0.000428929 0.0616637 0)
(-0.000128437 0.0218564 0)
(8.904e-05 0.0217828 0)
(0.000312724 0.0615208 0)
(0.000250575 0.0984941 0)
(2.83886e-06 0.133248 0)
(-0.000421121 0.165293 0)
(-0.000878108 0.194095 0)
(-0.00130238 0.219549 0)
(-0.00165794 0.241673 0)
(-0.0019012 0.260524 0)
(-0.00199828 0.276216 0)
(-0.00193267 0.288903 0)
(-0.00170587 0.298764 0)
(-0.00133614 0.305975 0)
(-0.000853708 0.310688 0)
(-0.00029753 0.313014 0)
(0.000284775 0.313012 0)
(0.000842042 0.310684 0)
(0.00132624 0.30597 0)
(0.00169784 0.298758 0)
(0.00192701 0.288899 0)
(0.00199517 0.276216 0)
(0.00190021 0.260531 0)
(0.00165864 0.241689 0)
(0.00130472 0.219577 0)
(0.000882907 0.19414 0)
(0.000429568 0.165359 0)
(5.50423e-06 0.133325 0)
(-0.000245588 0.0985453 0)
(-0.000310384 0.0615409 0)
(-8.88391e-05 0.021789 0)
(7.57483e-05 0.0216661 0)
(0.000106928 0.0615003 0)
(8.98416e-06 0.0988951 0)
(-0.000303864 0.134129 0)
(-0.000757707 0.166369 0)
(-0.00122023 0.195242 0)
(-0.00165533 0.220733 0)
(-0.00201786 0.242859 0)
(-0.00225554 0.261675 0)
(-0.00233175 0.277301 0)
(-0.00222993 0.289906 0)
(-0.00195287 0.299679 0)
(-0.0015213 0.306812 0)
(-0.000969492 0.311467 0)
(-0.000339811 0.313762 0)
(0.000317687 0.31376 0)
(0.000948616 0.311462 0)
(0.00150206 0.306804 0)
(0.0019353 0.29967 0)
(0.00221484 0.289897 0)
(0.00231938 0.277296 0)
(0.00224527 0.261675 0)
(0.00200902 0.242867 0)
(0.00164741 0.220752 0)
(0.0012133 0.195275 0)
(0.000753552 0.166423 0)
(0.000301931 0.134204 0)
(-1.30877e-05 0.0989606 0)
(-0.000104081 0.0615339 0)
(-7.94764e-05 0.0216719 0)
(0.000118009 0.0215299 0)
(-4.95415e-05 0.0616073 0)
(-0.00015577 0.0995653 0)
(-0.000525255 0.135152 0)
(-0.000998568 0.167485 0)
(-0.00148374 0.196414 0)
(-0.0019495 0.221946 0)
(-0.0023328 0.244073 0)
(-0.00257449 0.262848 0)
(-0.00263676 0.2784 0)
(-0.00250418 0.290911 0)
(-0.00218191 0.300589 0)
(-0.00169348 0.307636 0)
(-0.00107703 0.312229 0)
(-0.000378918 0.314491 0)
(0.000348229 0.314488 0)
(0.0010476 0.312222 0)
(0.00166558 0.307627 0)
(0.0021558 0.300577 0)
(0.00248089 0.290899 0)
(0.00261659 0.27839 0)
(0.00255685 0.262842 0)
(0.00231695 0.244074 0)
(0.00193464 0.221956 0)
(0.00146913 0.196435 0)
(0.000984922 0.167522 0)
(0.000514172 0.135215 0)
(0.000142285 0.0996382 0)
(4.26254e-05 0.0616522 0)
(-0.000122048 0.0215408 0)
(5.94594e-05 0.0215611 0)
(-7.29992e-05 0.0619211 0)
(-0.000217679 0.100459 0)
(-0.000646949 0.136219 0)
(-0.0011535 0.168604 0)
(-0.00168975 0.19761 0)
(-0.00220407 0.223195 0)
(-0.00261772 0.245322 0)
(-0.002869 0.264048 0)
(-0.00292098 0.279515 0)
(-0.00276066 0.291923 0)
(-0.00239642 0.301495 0)
(-0.0018549 0.308451 0)
(-0.00117775 0.312975 0)
(-0.000415372 0.315201 0)
(0.000376898 0.315199 0)
(0.00114045 0.312968 0)
(0.00181909 0.308439 0)
(0.00236273 0.30148 0)
(0.00273034 0.291907 0)
(0.00289445 0.279501 0)
(0.00284585 0.264037 0)
(0.00259734 0.245317 0)
(0.00218569 0.223198 0)
(0.00167233 0.197623 0)
(0.00113642 0.168629 0)
(0.000631926 0.136263 0)
(0.000201833 0.100527 0)
(5.73039e-05 0.0619785 0)
(-5.95261e-05 0.0215851 0)
(-9.92807e-05 0.0219051 0)
(2.92131e-06 0.0626173 0)
(-0.000211598 0.101461 0)
(-0.000699734 0.137261 0)
(-0.00126638 0.169732 0)
(-0.00187417 0.198848 0)
(-0.00244378 0.224491 0)
(-0.00288928 0.246613 0)
(-0.0031501 0.265279 0)
(-0.00319164 0.280649 0)
(-0.00300409 0.292941 0)
(-0.00259942 0.3024 0)
(-0.00200742 0.309256 0)
(-0.00127283 0.313708 0)
(-0.000449673 0.315896 0)
(0.000404085 0.315893 0)
(0.0012283 0.313699 0)
(0.00196442 0.309242 0)
(0.00255901 0.302382 0)
(0.00296771 0.292922 0)
(0.00315985 0.28063 0)
(0.00312279 0.265264 0)
(0.00286611 0.246603 0)
(0.00242419 0.224489 0)
(0.00185727 0.198854 0)
(0.00125085 0.169747 0)
(0.000686112 0.137288 0)
(0.000199705 0.101511 0)
(-2.01412e-05 0.0626758 0)
(9.5138e-05 0.0219334 0)
(-7.5029e-05 0.0222824 0)
(0.000144635 0.0634187 0)
(-0.00018161 0.102377 0)
(-0.000741685 0.138259 0)
(-0.00138845 0.170894 0)
(-0.00206957 0.200144 0)
(-0.00268839 0.225845 0)
(-0.00315966 0.24795 0)
(-0.00342538 0.266542 0)
(-0.00345359 0.281801 0)
(-0.00323766 0.293967 0)
(-0.00279298 0.303302 0)
(-0.0021523 0.310052 0)
(-0.001363 0.314427 0)
(-0.000482147 0.316575 0)
(0.000430008 0.316572 0)
(0.00131185 0.314418 0)
(0.00210275 0.310036 0)
(0.00274651 0.303281 0)
(0.00319587 0.293945 0)
(0.00341721 0.281779 0)
(0.00339465 0.266523 0)
(0.00313454 0.247936 0)
(0.00266851 0.225838 0)
(0.00205432 0.200145 0)
(0.0013765 0.170903 0)
(0.000732405 0.138275 0)
(0.000175828 0.102405 0)
(-0.000153628 0.0634604 0)
(6.49464e-05 0.0223022 0)
(5.71482e-05 0.0225417 0)
(0.000195923 0.0640822 0)
(-0.000221047 0.103188 0)
(-0.000840134 0.139271 0)
(-0.00155565 0.172121 0)
(-0.00229248 0.201509 0)
(-0.00294618 0.227256 0)
(-0.00343344 0.249331 0)
(-0.00369757 0.267834 0)
(-0.00370863 0.282969 0)
(-0.00346266 0.294998 0)
(-0.00297801 0.3042 0)
(-0.00229011 0.310839 0)
(-0.0014486 0.315134 0)
(-0.000512915 0.317239 0)
(0.000454735 0.317235 0)
(0.00139134 0.315122 0)
(0.00223459 0.310821 0)
(0.002926 0.304177 0)
(0.00341587 0.294972 0)
(0.00366798 0.282943 0)
(0.00366364 0.26781 0)
(0.00340649 0.249312 0)
(0.00292598 0.227244 0)