/*--------------------------------*- C++ -*----------------------------------*\
| =========                 |                                                 |
| \\      /  F ield         | OpenFOAM: The Open Source CFD Toolbox           |
|  \\    /   O peration     | Version:  v1606+                                |
|   \\  /    A nd           | Web:      www.OpenFOAM.com                      |
|    \\/     M anipulation  |                                                 |
\*---------------------------------------------------------------------------*/
FoamFile
{
    version     2.0;
    format      ascii;
    class       volScalarField;
    location    "1.47";
    object      alpha.particlesMean;
}
// * * * * * * * * * * * * * * * * * * * * * * * * * * * * * * * * * * * * * //

dimensions      [0 0 0 0 0 0 0];

internalField   nonuniform List<scalar> 
6000
(
0.415594
0.420011
0.419475
0.420529
0.420653
0.420272
0.417367
0.414892
0.412749
0.410734
0.410142
0.409224
0.4078
0.40627
0.404914
0.405136
0.405841
0.406826
0.407312
0.408824
0.410126
0.414091
0.418613
0.42065
0.42138
0.421161
0.4211
0.420549
0.42195
0.417098
0.388459
0.392395
0.390087
0.388857
0.387112
0.386651
0.38829
0.388029
0.388688
0.388455
0.388152
0.388256
0.387977
0.387805
0.387928
0.388056
0.388012
0.387869
0.387981
0.388343
0.388926
0.388569
0.386832
0.386347
0.386565
0.387397
0.38947
0.390812
0.392759
0.388604
0.394198
0.403964
0.400005
0.397175
0.394286
0.394933
0.394885
0.395353
0.396338
0.395767
0.395371
0.395091
0.394334
0.394229
0.394281
0.394231
0.394094
0.393996
0.394698
0.395062
0.395169
0.394765
0.393997
0.393141
0.39388
0.396846
0.40102
0.403723
0.407073
0.39621
0.391871
0.399584
0.39379
0.389067
0.385826
0.386436
0.385489
0.385514
0.387874
0.389483
0.388966
0.388154
0.387726
0.388126
0.388136
0.387598
0.38736
0.387695
0.388327
0.388477
0.387754
0.386044
0.38452
0.384424
0.38751
0.391508
0.395374
0.399171
0.403402
0.393948
0.38953
0.395261
0.39159
0.385158
0.378391
0.375635
0.373987
0.371845
0.374348
0.379139
0.38051
0.379805
0.380015
0.380774
0.380611
0.379842
0.379418
0.37975
0.379822
0.379727
0.376607
0.373147
0.372534
0.375336
0.381277
0.386202
0.391406
0.395978
0.397918
0.391176
0.389902
0.394311
0.394477
0.388752
0.378246
0.371002
0.366733
0.362556
0.361015
0.365624
0.369623
0.36857
0.368581
0.370619
0.371819
0.371331
0.370174
0.368095
0.367662
0.367858
0.363123
0.360964
0.364081
0.370017
0.379677
0.386884
0.394027
0.397485
0.396156
0.390644
0.393481
0.399597
0.402016
0.397131
0.386131
0.374487
0.364924
0.358884
0.35222
0.352028
0.355755
0.354432
0.355265
0.360876
0.365287
0.365609
0.36226
0.356511
0.354388
0.353437
0.350792
0.354141
0.360902
0.369864
0.385194
0.396029
0.403225
0.405327
0.400541
0.39345
0.400174
0.405541
0.4093
0.406679
0.397397
0.382792
0.366784
0.35662
0.348304
0.343423
0.342531
0.341686
0.343993
0.354035
0.3631
0.363207
0.355712
0.347254
0.343041
0.340937
0.34014
0.348865
0.358765
0.371875
0.393463
0.410076
0.415395
0.413342
0.405828
0.399821
0.405993
0.407664
0.414045
0.415878
0.409809
0.392141
0.370816
0.355611
0.347644
0.343726
0.337923
0.334035
0.337523
0.349911
0.363763
0.36219
0.350174
0.339859
0.334356
0.333903
0.335989
0.344613
0.356367
0.374722
0.400649
0.423494
0.426951
0.419075
0.408375
0.406309
0.407332
0.409276
0.418701
0.423839
0.419158
0.399098
0.374923
0.357385
0.348601
0.344
0.339183
0.333934
0.339401
0.351274
0.365581
0.361564
0.34866
0.335779
0.328522
0.330562
0.334221
0.342216
0.355002
0.375639
0.403653
0.430862
0.435298
0.42392
0.411682
0.409308
0.408277
0.411486
0.422858
0.430655
0.423543
0.402917
0.379036
0.360973
0.350121
0.343048
0.341573
0.339918
0.346442
0.357064
0.371396
0.365761
0.352759
0.336652
0.3263
0.328339
0.330545
0.341819
0.355343
0.375665
0.403712
0.43056
0.439805
0.428263
0.416056
0.412524
0.409128
0.413369
0.424145
0.432658
0.421547
0.402497
0.383035
0.363972
0.350809
0.341834
0.344127
0.348468
0.353538
0.364179
0.379008
0.375275
0.362147
0.342011
0.32775
0.326528
0.327774
0.341393
0.358283
0.377625
0.400886
0.423393
0.437221
0.428832
0.418743
0.414479
0.409521
0.41381
0.422323
0.429504
0.413528
0.397929
0.384164
0.365965
0.350676
0.340559
0.344949
0.35407
0.35787
0.370986
0.387321
0.385866
0.3709
0.349107
0.333351
0.327995
0.327157
0.340827
0.361833
0.379616
0.395596
0.413935
0.427379
0.424747
0.417461
0.413979
0.40897
0.412424
0.41931
0.422679
0.403482
0.392214
0.383817
0.367594
0.350673
0.339224
0.341121
0.353121
0.360851
0.377405
0.395474
0.393474
0.375525
0.356559
0.339959
0.33117
0.329946
0.343354
0.365316
0.380368
0.39109
0.40521
0.415032
0.417925
0.414074
0.412644
0.408371
0.410017
0.416084
0.414615
0.397751
0.39191
0.385872
0.368932
0.349029
0.336369
0.334181
0.345783
0.362308
0.3799
0.398435
0.39363
0.375453
0.364975
0.34856
0.335813
0.33519
0.34836
0.369491
0.38153
0.390133
0.40009
0.402979
0.410925
0.411893
0.412182
0.409436
0.40821
0.410769
0.406755
0.396344
0.398816
0.391831
0.370532
0.346361
0.332982
0.328696
0.337713
0.357817
0.379518
0.390689
0.386199
0.374445
0.37135
0.356811
0.341212
0.341687
0.354635
0.375211
0.385454
0.392071
0.399359
0.396996
0.405112
0.412755
0.413763
0.410528
0.408287
0.405951
0.398048
0.394348
0.398975
0.394648
0.373352
0.345755
0.331426
0.325626
0.332533
0.351012
0.37455
0.386252
0.376298
0.366567
0.367756
0.358002
0.346255
0.348905
0.361725
0.381832
0.391858
0.397842
0.401672
0.396571
0.40274
0.414981
0.416591
0.410453
0.406694
0.401775
0.392813
0.390324
0.389107
0.386506
0.372502
0.34935
0.334555
0.326812
0.332061
0.349386
0.365599
0.384071
0.375793
0.358182
0.354955
0.353297
0.349516
0.356056
0.368675
0.38551
0.396635
0.404527
0.405206
0.401427
0.406824
0.419293
0.421308
0.413952
0.406072
0.396082
0.388246
0.38448
0.378828
0.371895
0.36411
0.35433
0.342756
0.334491
0.336237
0.351782
0.367573
0.376535
0.374599
0.352319
0.341677
0.346095
0.350206
0.361433
0.374397
0.383268
0.394195
0.40421
0.407527
0.407374
0.413609
0.425346
0.426618
0.42064
0.410175
0.392954
0.381063
0.37436
0.363398
0.355665
0.348388
0.350004
0.346933
0.339458
0.338503
0.351996
0.369699
0.372525
0.369914
0.346844
0.330182
0.339862
0.352236
0.365965
0.373429
0.372318
0.382275
0.392
0.399993
0.405698
0.415873
0.42646
0.430662
0.436633
0.414157
0.387096
0.365636
0.356941
0.351766
0.349919
0.344616
0.342508
0.342487
0.338028
0.337233
0.347332
0.360901
0.364559
0.361531
0.340146
0.326086
0.339985
0.355907
0.367504
0.371473
0.366147
0.370525
0.381092
0.388149
0.392106
0.402015
0.418627
0.428687
0.429746
0.408342
0.384356
0.366507
0.359074
0.357604
0.358009
0.354652
0.347642
0.341603
0.336605
0.335191
0.343192
0.352896
0.358569
0.355461
0.337915
0.329201
0.345514
0.366066
0.377188
0.376489
0.367661
0.367472
0.377563
0.382626
0.384225
0.38901
0.403401
0.415092
0.41015
0.392928
0.383208
0.378876
0.376413
0.374419
0.373061
0.37134
0.365798
0.357129
0.348491
0.344961
0.348877
0.356223
0.359362
0.352766
0.338308
0.333978
0.351463
0.376958
0.387883
0.382181
0.371147
0.368772
0.377865
0.383074
0.383497
0.384328
0.392864
0.401874
0.403029
0.390178
0.385511
0.387241
0.38834
0.38727
0.385469
0.386209
0.386651
0.382233
0.373149
0.366247
0.363728
0.366311
0.363651
0.3531
0.340791
0.338645
0.356729
0.38339
0.393432
0.384667
0.372846
0.369918
0.377097
0.383949
0.385471
0.385222
0.390712
0.397638
0.403319
0.390651
0.388425
0.392595
0.396205
0.397013
0.394286
0.392306
0.400421
0.405034
0.400456
0.390302
0.380849
0.378301
0.37086
0.356403
0.343742
0.344866
0.363141
0.385953
0.39367
0.383993
0.372311
0.369641
0.374822
0.383749
0.387427
0.388556
0.391949
0.3987
0.403525
0.390929
0.39094
0.3957
0.401572
0.403754
0.401045
0.396914
0.404834
0.416777
0.419745
0.410606
0.39795
0.391596
0.379467
0.359821
0.347871
0.352547
0.370792
0.388202
0.390032
0.38075
0.370017
0.369339
0.373277
0.381407
0.388312
0.392443
0.396371
0.40241
0.403875
0.391074
0.392089
0.395861
0.401254
0.404984
0.403782
0.401658
0.40613
0.420693
0.430865
0.426746
0.414133
0.403872
0.386469
0.363793
0.354837
0.362117
0.379008
0.390949
0.386298
0.375932
0.367707
0.37155
0.374257
0.380245
0.389044
0.395343
0.400492
0.406243
0.405951
0.395924
0.394331
0.396005
0.399674
0.402241
0.403197
0.404533
0.40841
0.421936
0.437212
0.438894
0.428196
0.413978
0.391264
0.368059
0.36438
0.373606
0.387655
0.394081
0.383831
0.370983
0.366357
0.373683
0.374898
0.380401
0.39039
0.399476
0.405418
0.409181
0.408812
0.40439
0.399162
0.398204
0.402223
0.402651
0.402711
0.405891
0.408423
0.420872
0.440375
0.446529
0.439633
0.423593
0.398065
0.374299
0.375962
0.38573
0.396374
0.396615
0.380816
0.366442
0.364013
0.372313
0.375869
0.382434
0.392011
0.403793
0.412022
0.411394
0.411575
0.410587
0.405089
0.402117
0.404595
0.404242
0.404048
0.405904
0.407062
0.41721
0.438983
0.451376
0.448548
0.434924
0.41001
0.386205
0.387705
0.397142
0.40387
0.396468
0.376567
0.361053
0.358932
0.36751
0.374762
0.383377
0.393792
0.407377
0.416995
0.412752
0.412817
0.413699
0.408056
0.404918
0.405919
0.405774
0.405292
0.405367
0.405625
0.411359
0.432154
0.45274
0.454956
0.444859
0.4241
0.402017
0.400757
0.407908
0.408197
0.39141
0.368375
0.353493
0.35136
0.359231
0.371053
0.382237
0.394895
0.409131
0.419153
0.414723
0.412599
0.414941
0.409252
0.406061
0.404614
0.402657
0.402026
0.401231
0.401063
0.406353
0.425593
0.447646
0.45788
0.451237
0.435413
0.417961
0.414883
0.418914
0.407478
0.380728
0.35847
0.344669
0.341581
0.348013
0.362883
0.378264
0.393743
0.409851
0.419333
0.416285
0.412039
0.41631
0.4108
0.405541
0.399554
0.393825
0.392702
0.392236
0.393955
0.400634
0.421638
0.443765
0.456519
0.455694
0.442984
0.42959
0.426579
0.424435
0.401352
0.371254
0.351945
0.339499
0.334011
0.336703
0.350933
0.371624
0.391236
0.410723
0.420443
0.417027
0.413036
0.417973
0.41262
0.402431
0.389124
0.379618
0.38026
0.382141
0.386985
0.396161
0.418395
0.443274
0.457485
0.460413
0.449381
0.436496
0.431136
0.418996
0.394166
0.366625
0.348194
0.336947
0.329832
0.329165
0.339766
0.363319
0.389199
0.412886
0.422411
0.417863
0.415059
0.419137
0.411399
0.395164
0.377382
0.365039
0.363627
0.369152
0.37723
0.391405
0.414346
0.442944
0.459929
0.465576
0.455807
0.442379
0.431938
0.410914
0.385418
0.362707
0.345334
0.335896
0.328266
0.325089
0.332423
0.355236
0.387473
0.420883
0.425881
0.419588
0.416756
0.416821
0.405531
0.386021
0.365891
0.351283
0.344966
0.349357
0.359518
0.381953
0.409266
0.440984
0.461711
0.470211
0.461822
0.445906
0.431089
0.404123
0.37799
0.358724
0.342385
0.334747
0.327686
0.323012
0.328273
0.350215
0.388865
0.423454
0.428747
0.422106
0.412417
0.407997
0.394199
0.371091
0.350372
0.338613
0.331652
0.33221
0.344944
0.371274
0.404454
0.439993
0.463576
0.474603
0.468011
0.449079
0.429467
0.399591
0.374238
0.354958
0.340366
0.333794
0.327158
0.3214
0.32357
0.343676
0.383835
0.419581
0.42874
0.423214
0.396903
0.387797
0.371095
0.343254
0.329342
0.320966
0.31637
0.315745
0.329056
0.355208
0.399325
0.440607
0.465295
0.478479
0.47311
0.453995
0.427754
0.396708
0.372859
0.35257
0.339757
0.333035
0.326343
0.319715
0.318325
0.331195
0.37007
0.411296
0.425578
0.422686
0.376483
0.360031
0.344809
0.322241
0.30845
0.30076
0.305319
0.31335
0.327829
0.346762
0.383516
0.437125
0.465587
0.48071
0.475468
0.459528
0.420537
0.392272
0.373022
0.350244
0.339526
0.332437
0.325729
0.318777
0.314374
0.320593
0.353637
0.396198
0.417673
0.418507
0.35397
0.332775
0.322319
0.303187
0.295395
0.297966
0.308207
0.318838
0.334517
0.353218
0.377883
0.420496
0.462631
0.481506
0.476111
0.455549
0.412832
0.388126
0.369807
0.347691
0.338522
0.33211
0.325708
0.318916
0.312832
0.315187
0.337831
0.379001
0.404815
0.414535
0.337231
0.323871
0.318952
0.305896
0.300345
0.303007
0.314708
0.327787
0.344727
0.363649
0.383412
0.412954
0.453792
0.480952
0.474153
0.447979
0.41175
0.382313
0.364156
0.347982
0.337489
0.33152
0.325742
0.319693
0.314162
0.314759
0.328147
0.36365
0.397072
0.413445
0.332587
0.326903
0.323026
0.311738
0.307152
0.309921
0.320089
0.335303
0.354179
0.373179
0.390789
0.414952
0.447041
0.478469
0.468201
0.445715
0.415107
0.379439
0.363093
0.350985
0.338988
0.332386
0.327086
0.321648
0.316411
0.315476
0.324165
0.353837
0.393323
0.414172
0.333443
0.331413
0.327066
0.315697
0.311808
0.315186
0.322413
0.337742
0.35979
0.379349
0.39707
0.418649
0.446576
0.474342
0.466779
0.449152
0.420807
0.378588
0.362556
0.354528
0.34276
0.335162
0.32952
0.324324
0.319077
0.316472
0.321928
0.347666
0.392317
0.415774
0.336911
0.33484
0.329739
0.318843
0.315413
0.318872
0.324315
0.334698
0.357706
0.382902
0.402369
0.422238
0.448156
0.471469
0.469076
0.45496
0.425379
0.379197
0.363431
0.358375
0.347666
0.338986
0.332651
0.327383
0.322555
0.318984
0.320964
0.34036
0.393629
0.418383
0.339961
0.336864
0.331529
0.322631
0.318982
0.321732
0.326062
0.332829
0.352345
0.385714
0.407356
0.425865
0.450016
0.471188
0.470659
0.459774
0.424612
0.381835
0.366628
0.362248
0.353926
0.343766
0.336583
0.331286
0.326767
0.323024
0.322938
0.334949
0.383943
0.417182
0.341123
0.337637
0.333098
0.325209
0.320468
0.32107
0.324969
0.330801
0.347957
0.386373
0.411242
0.429113
0.451489
0.471903
0.472641
0.463663
0.423058
0.386334
0.372339
0.367536
0.360643
0.349637
0.341454
0.335869
0.331502
0.327242
0.325441
0.333556
0.372226
0.410701
0.34098
0.337574
0.333212
0.324856
0.317312
0.31624
0.321373
0.328684
0.342525
0.377896
0.412378
0.430976
0.452589
0.473764
0.475903
0.465142
0.425203
0.391994
0.379102
0.372865
0.367029
0.356521
0.347138
0.340908
0.336138
0.331014
0.327076
0.333033
0.365493
0.403366
0.340589
0.335944
0.331266
0.320839
0.312907
0.313092
0.31927
0.328497
0.340832
0.366162
0.408493
0.431036
0.453469
0.475555
0.480277
0.468081
0.430205
0.398377
0.386542
0.379506
0.373356
0.364207
0.353933
0.346394
0.340584
0.334326
0.328852
0.333051
0.361387
0.397674
0.339633
0.332634
0.327502
0.316898
0.310756
0.311803
0.319452
0.329447
0.342964
0.362383
0.399359
0.430367
0.453542
0.477226
0.484319
0.472118
0.435428
0.404735
0.394397
0.387077
0.379724
0.372086
0.361749
0.352698
0.344799
0.337309
0.331117
0.333984
0.356579
0.393614
0.337492
0.328391
0.323571
0.314477
0.309548
0.311543
0.320296
0.33106
0.345289
0.365927
0.393892
0.430288
0.455069
0.479551
0.487727
0.475455
0.440168
0.410646
0.402289
0.394729
0.385659
0.379349
0.370117
0.35921
0.349105
0.340323
0.33391
0.335225
0.352198
0.388208
0.335773
0.325932
0.32111
0.313235
0.310845
0.312839
0.322161
0.333501
0.345486
0.366981
0.392982
0.43084
0.458294
0.483245
0.490603
0.477347
0.445319
0.416743
0.409062
0.401912
0.392294
0.385842
0.377625
0.364923
0.353627
0.345172
0.337642
0.337038
0.348559
0.382367
0.334198
0.325667
0.322187
0.314932
0.314061
0.316214
0.325663
0.336958
0.347301
0.366306
0.392344
0.431807
0.461684
0.488292
0.493896
0.478456
0.449274
0.424202
0.416212
0.409002
0.399692
0.391932
0.382404
0.369139
0.358328
0.3504
0.342097
0.338756
0.34545
0.37505
0.331598
0.324862
0.325148
0.320096
0.319663
0.322384
0.330851
0.340958
0.351101
0.368914
0.39212
0.429298
0.465755
0.494379
0.498192
0.481313
0.453986
0.432019
0.423716
0.416314
0.407434
0.397254
0.384496
0.372457
0.362681
0.353754
0.344744
0.340155
0.342095
0.363276
0.328864
0.324343
0.327027
0.326211
0.328503
0.331169
0.337637
0.345861
0.355667
0.372978
0.394946
0.428596
0.4699
0.500277
0.503042
0.485323
0.459229
0.440412
0.431708
0.423871
0.41403
0.3992
0.385642
0.375855
0.365345
0.355541
0.345402
0.34115
0.338232
0.347623
0.326856
0.324175
0.328405
0.331995
0.336561
0.339498
0.344917
0.350908
0.359877
0.377364
0.399686
0.432563
0.474421
0.505412
0.507007
0.488804
0.465021
0.44876
0.439802
0.430411
0.416522
0.400126
0.389169
0.380195
0.369387
0.357732
0.346996
0.340782
0.334478
0.335538
0.325347
0.322117
0.331235
0.335902
0.342233
0.345918
0.349963
0.354711
0.364085
0.381946
0.405877
0.440589
0.482399
0.509878
0.510278
0.490462
0.470419
0.457014
0.446807
0.434849
0.418119
0.402974
0.392884
0.383663
0.373562
0.362042
0.34966
0.341069
0.330595
0.327449
0.322189
0.322842
0.334017
0.339092
0.345677
0.348858
0.35153
0.356929
0.367691
0.386723
0.413036
0.448157
0.490041
0.514003
0.513496
0.493747
0.47407
0.463427
0.45266
0.4379
0.420357
0.407357
0.3956
0.385119
0.37521
0.36479
0.353467
0.342644
0.3302
0.32271
0.320972
0.326406
0.336883
0.339931
0.344373
0.346865
0.350676
0.358268
0.370322
0.391272
0.419198
0.452319
0.495448
0.518144
0.517125
0.499469
0.476657
0.467633
0.457518
0.440301
0.423621
0.411039
0.397395
0.385304
0.374815
0.364894
0.355512
0.34551
0.332694
0.322496
0.323871
0.330953
0.336007
0.336197
0.339643
0.343328
0.350716
0.360568
0.37358
0.394668
0.423894
0.455637
0.497794
0.521131
0.518737
0.497845
0.479627
0.47065
0.460632
0.442096
0.426585
0.412527
0.398572
0.385248
0.373839
0.364039
0.355473
0.347108
0.337312
0.325373
0.327805
0.330272
0.331339
0.33086
0.33552
0.343108
0.353225
0.364541
0.378505
0.397479
0.421717
0.454021
0.495647
0.519599
0.512459
0.497758
0.483737
0.474723
0.461867
0.443354
0.427478
0.41293
0.39957
0.385362
0.372614
0.362517
0.354426
0.347249
0.339736
0.329821
0.328201
0.324795
0.326173
0.325616
0.335852
0.346007
0.356919
0.369134
0.384109
0.402193
0.421641
0.444528
0.480591
0.508678
0.507969
0.500034
0.489619
0.480167
0.464514
0.443426
0.427063
0.413745
0.400105
0.385023
0.370929
0.359853
0.352788
0.347009
0.340351
0.333279
0.325087
0.320527
0.320361
0.326841
0.340008
0.351293
0.361849
0.373593
0.388946
0.406991
0.425205
0.444482
0.472592
0.497069
0.505271
0.502583
0.496035
0.486464
0.466528
0.442351
0.427302
0.414752
0.400207
0.384289
0.36862
0.357333
0.35029
0.346277
0.340072
0.334832
0.321416
0.313819
0.325426
0.334213
0.348177
0.358595
0.36693
0.377203
0.392539
0.41093
0.429021
0.447651
0.471424
0.489842
0.499961
0.505378
0.501881
0.490585
0.466973
0.442145
0.428315
0.415474
0.400839
0.385116
0.368494
0.354713
0.348125
0.343834
0.338793
0.334814
0.316742
0.318403
0.334712
0.346481
0.358179
0.365208
0.371272
0.380085
0.395676
0.414654
0.432636
0.451599
0.472515
0.48711
0.497501
0.505341
0.505332
0.493177
0.467858
0.443106
0.429283
0.41585
0.402276
0.388443
0.371943
0.355712
0.344272
0.340904
0.335262
0.334305
0.315737
0.328119
0.345585
0.357456
0.365154
0.369309
0.374587
0.382749
0.398667
0.418041
0.436421
0.455565
0.47403
0.485745
0.496153
0.504552
0.507321
0.495634
0.469016
0.444082
0.429395
0.416082
0.404429
0.392414
0.377149
0.360169
0.343569
0.33784
0.333842
0.333325
0.321542
0.340717
0.354507
0.363407
0.369548
0.372841
0.377302
0.385465
0.401466
0.421661
0.440838
0.459463
0.475504
0.485516
0.49516
0.503468
0.508001
0.497694
0.46969
0.443859
0.42911
0.416908
0.40636
0.395267
0.381433
0.364893
0.347841
0.337259
0.332718
0.333468
0.33124
0.350285
0.359591
0.366802
0.372814
0.376321
0.380146
0.388175
0.404478
0.426029
0.445554
0.463356
0.476719
0.485761
0.494213
0.502678
0.507692
0.497967
0.46859
0.44314
0.429765
0.418373
0.407906
0.396943
0.383578
0.368478
0.35322
0.341314
0.333613
0.334694
0.340447
0.355549
0.362804
0.369392
0.375023
0.378948
0.382452
0.389865
0.408339
0.431075
0.450609
0.467099
0.477968
0.486457
0.493512
0.501358
0.505667
0.495099
0.466485
0.443834
0.43131
0.419655
0.408528
0.39728
0.384513
0.371045
0.358006
0.346862
0.337346
0.336941
0.346529
0.358563
0.365422
0.371146
0.376122
0.379645
0.383375
0.391992
0.41313
0.436455
0.455517
0.470154
0.478961
0.486811
0.493036
0.499837
0.502836
0.488362
0.464704
0.445516
0.432889
0.420313
0.408005
0.395894
0.384626
0.373292
0.361835
0.351811
0.342249
0.340642
0.350102
0.36076
0.366837
0.371864
0.376054
0.379223
0.382978
0.395009
0.418202
0.441451
0.459578
0.472363
0.479587
0.486589
0.49213
0.497741
0.499045
0.48227
0.462063
0.446651
0.433495
0.420004
0.406453
0.394074
0.384489
0.375336
0.365084
0.355905
0.348118
0.345529
0.352305
0.361956
0.367553
0.371681
0.375333
0.378421
0.383824
0.398463
0.423136
0.445507
0.462359
0.473552
0.4791
0.484554
0.489244
0.495291
0.494747
0.477351
0.459645
0.445249
0.432001
0.418569
0.404613
0.393006
0.384395
0.376913
0.368512
0.3598
0.353205
0.350227
0.353818
0.362817
0.368043
0.37153
0.374369
0.37785
0.385286
0.402042
0.427819
0.448512
0.4638
0.473854
0.478628
0.482018
0.485838
0.490914
0.489887
0.472044
0.45635
0.441806
0.428548
0.416326
0.403652
0.392897
0.384297
0.377582
0.370866
0.363347
0.356721
0.353252
0.356365
0.363719
0.368752
0.37078
0.373016
0.377543
0.38695
0.406092
0.432289
0.451671
0.464753
0.473422
0.477999
0.480498
0.482712
0.484479
0.483486
0.466601
0.452902
0.43847
0.425255
0.41443
0.403727
0.393451
0.384528
0.377162
0.371006
0.365254
0.358907
0.354672
0.359206
0.365244
0.36893
0.369115
0.372454
0.377938
0.390168
0.410473
0.436707
0.455176
0.466173
0.473123
0.478186
0.480696
0.482738
0.482392
0.478251
0.462952
0.450829
0.43732
0.424487
0.414165
0.404377
0.394341
0.385105
0.376904
0.369621
0.364667
0.35914
0.355146
0.361825
0.365771
0.36818
0.36911
0.374162
0.37979
0.393904
0.415248
0.441556
0.459147
0.468678
0.47468
0.479525
0.482593
0.484904
0.484308
0.475729
0.461053
0.451112
0.439352
0.427136
0.415248
0.404278
0.394144
0.384304
0.375839
0.36828
0.363343
0.356389
0.353943
0.363792
0.364135
0.369734
0.371976
0.377847
0.384603
0.397665
0.420943
0.446996
0.463826
0.472251
0.476774
0.481473
0.485162
0.487845
0.487209
0.475432
0.459172
0.452298
0.441849
0.42926
0.415361
0.402395
0.390788
0.379271
0.370878
0.364703
0.361019
0.353176
0.351168
0.364793
0.365823
0.374167
0.377412
0.382865
0.389947
0.402764
0.426289
0.451161
0.467563
0.475241
0.47888
0.483545
0.487508
0.490176
0.488885
0.47517
0.456122
0.449501
0.440168
0.426762
0.411706
0.397359
0.382995
0.368968
0.360018
0.356039
0.355864
0.349176
0.347277
0.367343
0.36971
0.379093
0.384152
0.388944
0.393982
0.405709
0.428272
0.452577
0.469377
0.476345
0.479765
0.484129
0.4879
0.49072
0.48843
0.473427
0.452659
0.439949
0.431179
0.417212
0.400074
0.380649
0.364626
0.354422
0.349056
0.346437
0.34754
0.343035
0.343263
0.371412
0.37403
0.384802
0.389927
0.391853
0.394302
0.406234
0.427989
0.452411
0.468571
0.474917
0.47819
0.482343
0.486216
0.489535
0.485599
0.469622
0.448512
0.430009
0.416174
0.399638
0.380631
0.364241
0.35304
0.345852
0.342889
0.341554
0.342352
0.33548
0.337309
0.375816
0.379679
0.389475
0.39008
0.390056
0.394084
0.406803
0.428295
0.4515
0.465765
0.4717
0.474824
0.478676
0.483026
0.487214
0.481076
0.463652
0.442137
0.421143
0.404758
0.389193
0.374104
0.359623
0.348766
0.341547
0.33897
0.339591
0.340118
0.332239
0.330292
0.380317
0.385684
0.391671
0.388877
0.389775
0.394623
0.408387
0.430171
0.450129
0.461216
0.466408
0.469283
0.472941
0.478537
0.483073
0.473558
0.454556
0.433194
0.41257
0.397892
0.385248
0.372094
0.358116
0.346133
0.338419
0.336565
0.338437
0.338091
0.331871
0.326756
0.385134
0.390049
0.392008
0.389326
0.391225
0.397808
0.412324
0.432396
0.448325
0.457098
0.461656
0.464571
0.468675
0.475214
0.478461
0.464604
0.443878
0.422589
0.403312
0.392381
0.382137
0.37061
0.357235
0.344028
0.335785
0.334445
0.336198
0.335614
0.331154
0.325615
0.389784
0.391985
0.393743
0.391333
0.395273
0.403983
0.417746
0.436128
0.449021
0.456161
0.459797
0.46253
0.466673
0.47277
0.474283
0.456341
0.434732
0.41442
0.397485
0.387854
0.378682
0.368849
0.355816
0.34189
0.33378
0.332528
0.332772
0.333433
0.329778
0.325425
0.393348
0.395473
0.396729
0.394679
0.400718
0.41071
0.423963
0.441253
0.452175
0.458388
0.461693
0.464232
0.467113
0.471619
0.470055
0.448216
0.425762
0.408418
0.395319
0.386804
0.378447
0.368399
0.354682
0.340429
0.332745
0.330473
0.329972
0.330984
0.328606
0.325434
0.395961
0.400226
0.40128
0.397564
0.404276
0.416854
0.43034
0.444622
0.453208
0.459581
0.463864
0.466473
0.469496
0.472338
0.46596
0.441148
0.418363
0.404262
0.39285
0.384286
0.376737
0.367722
0.354488
0.340146
0.331488
0.328602
0.328508
0.329526
0.327241
0.325093
0.398324
0.404869
0.404039
0.398959
0.40466
0.417178
0.432632
0.446731
0.453305
0.460127
0.465274
0.468036
0.470436
0.471016
0.458809
0.43115
0.409691
0.398874
0.388666
0.380392
0.373653
0.365596
0.353102
0.339859
0.331191
0.326513
0.327175
0.329121
0.326197
0.32425
0.400738
0.407448
0.403751
0.400318
0.405526
0.416665
0.432392
0.444297
0.451322
0.460083
0.465875
0.468602
0.470082
0.468205
0.449571
0.420865
0.40162
0.393012
0.384136
0.376301
0.370219
0.363097
0.352135
0.341585
0.333983
0.328212
0.32747
0.32852
0.326066
0.322468
0.394319
0.397858
0.3981
0.397145
0.403688
0.416013
0.431226
0.440306
0.449466
0.459417
0.465625
0.467806
0.467727
0.46138
0.437238
0.41126
0.395243
0.387502
0.379814
0.372487
0.366666
0.359853
0.351566
0.344174
0.338761
0.33235
0.329311
0.328362
0.325822
0.321261
0.389053
0.391925
0.392319
0.391862
0.399061
0.412177
0.429081
0.436952
0.449176
0.45829
0.464222
0.465578
0.462839
0.451005
0.42249
0.402296
0.38935
0.381004
0.374453
0.368047
0.362806
0.356727
0.350425
0.346643
0.342985
0.336872
0.331891
0.329809
0.325927
0.321234
0.389794
0.390898
0.390874
0.389108
0.393651
0.405451
0.424944
0.438759
0.449446
0.457288
0.46233
0.459931
0.453687
0.438841
0.408777
0.394465
0.384093
0.374397
0.368516
0.363374
0.357917
0.35315
0.347812
0.347229
0.345376
0.340912
0.335759
0.33301
0.32767
0.322256
0.390542
0.390405
0.390095
0.386363
0.388418
0.396351
0.416451
0.43823
0.449048
0.45642
0.459855
0.454181
0.446468
0.427639
0.398924
0.388595
0.379787
0.368998
0.362911
0.358433
0.352654
0.347777
0.344656
0.345847
0.346077
0.343884
0.339692
0.337743
0.331054
0.324826
0.390997
0.389931
0.388436
0.386076
0.385779
0.389186
0.404214
0.430763
0.445432
0.454079
0.457444
0.450774
0.44074
0.41777
0.39423
0.385504
0.376108
0.364684
0.357589
0.352692
0.34755
0.343389
0.341504
0.343238
0.345032
0.345813
0.344678
0.341816
0.335446
0.3288
0.392283
0.388557
0.389158
0.388902
0.388015
0.38781
0.396679
0.420693
0.441911
0.452491
0.455512
0.446858
0.434307
0.408331
0.391054
0.382832
0.371524
0.360637
0.353955
0.348972
0.3444
0.341197
0.339167
0.340443
0.34344
0.347262
0.34807
0.346137
0.339171
0.334238
0.393848
0.388505
0.39153
0.393291
0.394165
0.392493
0.397626
0.414841
0.44018
0.4525
0.454271
0.442508
0.426456
0.399882
0.387765
0.379248
0.36727
0.358763
0.352918
0.348354
0.343672
0.34012
0.337628
0.338978
0.342428
0.346836
0.34866
0.348767
0.343281
0.339137
0.395824
0.390138
0.395828
0.399008
0.401275
0.39939
0.402753
0.416662
0.437651
0.451916
0.452313
0.437893
0.418405
0.393912
0.38444
0.374935
0.36536
0.358292
0.353173
0.348996
0.34412
0.339799
0.337307
0.338797
0.341239
0.343975
0.346068
0.348634
0.345401
0.342036
0.399619
0.393748
0.402133
0.406388
0.409895
0.407404
0.409103
0.421961
0.43909
0.451339
0.450055
0.43258
0.411287
0.39079
0.381378
0.372208
0.364393
0.358422
0.353796
0.349814
0.344732
0.339992
0.337504
0.338497
0.33929
0.340455
0.341593
0.34524
0.344299
0.342104
0.406262
0.399563
0.41055
0.415974
0.420279
0.416966
0.417053
0.428501
0.443279
0.452077
0.448329
0.427916
0.40661
0.389542
0.379022
0.37086
0.364206
0.358986
0.354704
0.350607
0.344944
0.340071
0.337718
0.337721
0.337725
0.337354
0.33761
0.34058
0.340459
0.338852
0.415131
0.408742
0.421843
0.42799
0.432555
0.428114
0.426131
0.435446
0.44781
0.453362
0.447082
0.423801
0.403885
0.389064
0.378108
0.3704
0.364555
0.359766
0.355419
0.3508
0.344276
0.339777
0.337516
0.337224
0.33688
0.335514
0.335422
0.338009
0.336747
0.333836
0.427379
0.422096
0.434793
0.441148
0.445045
0.440034
0.435306
0.442193
0.450801
0.454459
0.444171
0.419056
0.401462
0.388064
0.377656
0.370076
0.364608
0.359641
0.354837
0.349357
0.34257
0.338439
0.336798
0.336791
0.335983
0.335201
0.334771
0.336519
0.335006
0.329157
0.43665
0.433384
0.445482
0.450648
0.453586
0.447411
0.44072
0.445061
0.449574
0.451551
0.438315
0.411899
0.396115
0.383522
0.373522
0.365764
0.359899
0.354525
0.3486
0.342438
0.336232
0.332854
0.332493
0.33253
0.332301
0.332451
0.331908
0.331987
0.329767
0.321499
0.434514
0.432376
0.444039
0.448682
0.450442
0.443111
0.435137
0.437578
0.437969
0.438271
0.42357
0.395547
0.380977
0.368882
0.358392
0.349384
0.342877
0.336193
0.329286
0.324299
0.319841
0.317972
0.318456
0.318532
0.318581
0.318891
0.31817
0.316912
0.312883
0.303033
0.438385
0.436865
0.44859
0.452383
0.452962
0.445055
0.436388
0.436527
0.433573
0.431953
0.414414
0.387001
0.371741
0.356757
0.342688
0.334436
0.329001
0.324461
0.320277
0.316773
0.313366
0.312073
0.312128
0.312145
0.311662
0.311507
0.310449
0.308476
0.302785
0.293132
0.441401
0.443153
0.454643
0.457805
0.457063
0.449325
0.440317
0.437021
0.430604
0.425259
0.403015
0.374256
0.355813
0.342076
0.331181
0.326908
0.323842
0.320646
0.316883
0.313685
0.310628
0.30914
0.308931
0.308651
0.307293
0.306462
0.304964
0.302912
0.296366
0.287467
0.444077
0.447897
0.458637
0.461916
0.461026
0.453761
0.443614
0.435801
0.425348
0.416848
0.391233
0.364142
0.348732
0.336548
0.327925
0.324918
0.321936
0.31842
0.31453
0.311457
0.308479
0.306973
0.306696
0.30597
0.303813
0.302117
0.299683
0.297599
0.290867
0.282246
0.446226
0.449619
0.459388
0.46378
0.463932
0.456576
0.444155
0.431911
0.41892
0.410247
0.383116
0.358284
0.344658
0.332631
0.326351
0.323575
0.320332
0.316404
0.312415
0.309474
0.306473
0.305269
0.305039
0.303794
0.300999
0.298288
0.294604
0.29175
0.285158
0.276676
0.444535
0.44929
0.457521
0.463874
0.464768
0.456882
0.442713
0.42703
0.412898
0.404098
0.375316
0.353164
0.340898
0.329542
0.325094
0.322239
0.318678
0.314388
0.310425
0.307521
0.304667
0.303901
0.303732
0.30182
0.29833
0.294881
0.289939
0.285546
0.278966
0.270702
0.441005
0.446419
0.458124
0.464086
0.463033
0.454462
0.439927
0.422288
0.407366
0.396856
0.367625
0.348689
0.336859
0.32729
0.323823
0.320736
0.316794
0.312268
0.308536
0.305574
0.303091
0.302709
0.302372
0.299752
0.295594
0.291545
0.285885
0.279724
0.272563
0.26452
0.43472
0.442915
0.454729
0.460949
0.457856
0.448564
0.435777
0.417341
0.401464
0.388484
0.360477
0.344976
0.332939
0.325581
0.322334
0.318893
0.314574
0.310036
0.306643
0.303737
0.301711
0.301501
0.300701
0.297438
0.292712
0.28818
0.282224
0.275293
0.266403
0.258481
0.425095
0.43577
0.447726
0.454041
0.450363
0.441559
0.430573
0.411765
0.395822
0.378921
0.354455
0.341499
0.329437
0.323935
0.320467
0.316572
0.311997
0.307707
0.304689
0.302038
0.300352
0.299956
0.29859
0.294896
0.289706
0.284608
0.27879
0.271855
0.262176
0.252944
0.416256
0.426203
0.439902
0.443215