/*--------------------------------*- C++ -*----------------------------------*\
| =========                 |                                                 |
| \\      /  F ield         | OpenFOAM: The Open Source CFD Toolbox           |
|  \\    /   O peration     | Version:  v1606+                                |
|   \\  /    A nd           | Web:      www.OpenFOAM.com                      |
|    \\/     M anipulation  |                                                 |
\*---------------------------------------------------------------------------*/
FoamFile
{
    version     2.0;
    format      ascii;
    class       volScalarField;
    location    "1.47";
    object      epsilon.air;
}
// * * * * * * * * * * * * * * * * * * * * * * * * * * * * * * * * * * * * * //

dimensions      [0 2 -3 0 0 0 0];

internalField   nonuniform List<scalar> 
6000
(
133.291
16.556
10.71
10.0284
9.89069
9.85915
9.87506
9.94416
9.99507
9.93768
9.87403
9.87431
9.90732
9.92485
9.88161
9.83763
9.83501
9.88757
10.0055
10.091
10.0654
10.0896
10.1564
10.1908
10.1826
10.1546
10.1901
10.7788
16.5127
134.242
79.1214
23.2337
14.101
11.9028
11.3947
11.3751
11.5588
11.746
11.8201
11.6849
11.5137
11.4233
11.3581
11.2202
11.1014
11.0487
11.1655
11.533
12.0796
12.5268
12.6133
12.769
12.8751
12.8947
12.7514
12.5838
12.8289
14.8282
23.9864
77.0149
49.6285
22.2253
14.9804
12.7028
11.9716
11.8245
11.8435
11.8453
11.7393
11.512
11.2627
11.0918
10.9656
10.832
10.7383
10.7298
10.8873
11.2962
11.9669
12.7658
13.7044
14.7335
15.1852
14.9928
14.481
14.1887
14.5325
16.3713
22.5928
44.6706
32.0827
19.3436
14.7644
13.4151
13.1919
13.3566
13.405
13.1114
12.6474
12.1966
11.7872
11.4741
11.2229
10.9945
10.8321
10.7981
11.0031
11.5715
12.5913
14.1776
16.7657
19.9491
20.5412
18.6473
16.6183
15.3948
14.9991
15.6426
18.2354
27.4542
20.5233
15.274
13.8163
13.7613
14.3024
15.2257
16.0844
16.1661
15.0989
13.9958
13.1404
12.5585
12.1237
11.7427
11.4544
11.3444
11.608
12.4627
14.124
16.924
21.8313
27.792
26.1864
21.726
18.621
16.4279
14.8619
14.0069
14.0148
18.5384
18.3654
13.1891
13.222
14.1621
15.6673
17.3667
19.0709
20.6222
19.7271
17.4849
15.8546
14.7375
14.0032
13.4624
12.9231
12.6369
12.9063
14.0037
16.2221
20.1584
27.3891
32.6302
28.8349
24.0661
20.3609
17.1373
14.4656
12.6622
12.004
16.5687
20.2538
13.0438
13.5981
15.2022
17.6189
20.2425
22.3116
24.0612
25.2238
23.1774
20.6553
18.5397
17.1753
16.3079
15.3949
14.7392
14.8585
16.0151
18.5226
23.0008
29.0586
30.8521
28.8459
25.0725
20.7501
16.9918
13.9278
11.9323
11.334
17.1495
25.4257
14.4958
15.0894
17.0754
19.9182
23.0756
25.5357
26.9588
29.387
30.0769
26.8569
22.9754
20.5226
19.2006
18.0282
16.9894
16.8012
17.8487
20.3741
24.212
27.808
28.7651
28.01
25.1021
20.2375
16.3955
13.466
11.6112
11.2256
18.164
31.4472
17.5833
17.8909
20.0542
23.0865
26.3553
29.0626
30.4017
32.9841
34.6856
31.6122
26.3371
23.1343
21.3893
19.5526
18.1653
17.8791
18.825
21.0475
24.1909
27.1703
28.0707
27.0357
24.8741
19.9337
16.0417
13.3023
11.5784
11.292
18.9249
39.1439
21.9799
22.0532
24.5671
28.1514
32.18
35.1884
34.5537
35.6954
36.3783
32.7445
27.7082
24.3098
22.0901
20.0179
18.5862
18.2344
19.1315
21.1468
23.8076
25.9909
26.6058
25.6954
24.1212
19.7753
16.0981
13.551
11.929
11.6929
19.5105
50.0641
28.0734
27.8538
30.999
35.8473
41.4421
42.6788
37.4447
36.4256
36.0629
32.7698
28.4151
24.8627
22.3137
20.238
18.8649
18.4683
19.1543
20.762
22.6317
23.9086
24.346
23.9708
22.8032
19.4002
16.3118
14.2086
12.9035
13.0004
22.8196
64.223
35.9773
35.2725
39.2187
45.8636
51.7581
46.7909
38.7947
36.2401
35.1702
32.4053
28.7578
25.4652
22.7041
20.4843
19.0926
18.6091
18.9393
19.8809
21.0059
21.7784
22.1127
22.0941
21.4565
18.9317
16.4687
14.9737
14.3614
15.5547
30.1438
81.8218
45.2086
43.7827
48.4622
56.3315
57.2073
47.3985
39.2757
36.032
34.7195
32.7306
29.6636
25.9947
22.8994
20.6324
19.2405
18.6531
18.6536
19.0905
19.7181
20.1871
20.3701
20.3166
19.9381
18.3989
16.7607
15.9848
15.9968
17.8863
35.774
99.5373
55.1105
53.0158
57.7212
63.3194
58.0242
47.119
39.49
36.2084
35.3387
34.0033
30.1946
26.2634
23.2583
21.1175
19.7189
18.9567
18.6999
18.7793
19.0705
19.3609
19.3789
19.0843
18.6736
18.1051
17.6992
17.8392
18.2117
19.8812
37.2837
116.479
66.6244
63.7016
66.6129
66.2392
56.8914
46.3549
39.6397
36.7606
36.504
34.2455
30.1985
26.7698
24.2369
22.394
21.022
20.0148
19.4089
19.2205
19.3231
19.4952
19.3605
18.8461
18.4554
18.7298
19.6031
21.0379
22.0354
23.4706
41.1858
138.5
80.7299
77.5816
75.7798
66.1149
54.4974
45.6221
39.9819
37.3468
36.7567
33.7741
30.5605
28.0206
26.1972
24.8462
23.6329
22.3664
21.2403
20.6432
20.5428
20.4742
20.0986
19.4819
19.1899
20.0852
22.467
25.9745
28.027
28.7485
47.4476
164.918
98.3188
99.0206
86.9415
67.1756
55.1838
46.6662
41.0935
38.3785
37.0618
34.5276
32.1573
30.4411
29.4232
28.7993
28.0112
26.6747
25.0279
23.7938
23.2385
22.7397
21.9988
21.3184
21.1935
22.348
25.7719
31.3736
34.2905
35.3564
56.3568
183.404
112.923
119.994
103.478
74.6871
60.44
50.9386
44.5056
40.8193
38.9241
37.0116
35.2728
34.2369
34.234
34.7296
34.7445
33.573
31.5863
29.7257
28.2715
26.8387
25.3874
24.3427
24.3426
25.9734
29.2635
33.9177
37.0143
37.9254
62.7385
178.722
111.048
119.213
107.119
85.7233
70.5525
58.9903
50.7338
45.1874
42.291
40.3842
38.9562
39.1769
40.8612
43.1615
44.496
43.654
41.1406
38.3353
35.4199
32.3242
29.5892
27.7586
27.4861
28.3025
29.7828
32.1928
35.1015
37.2204
64.2154
160.42
100.725
110.524
104.475
89.5301
76.2994
64.4645
54.7997
47.8709
43.9539
42.2681
42.2377
44.7158
49.6375
54.9385
57.9708
57.235
54.0239
49.4892
44.0265
38.3895
33.6054
30.6989
29.2016
28.5902
28.8402
30.1361
31.8905
36.7041
66.986
131.435
84.5186
92.2904
96.9163
86.7063
74.4392
63.6058
54.4615
47.7676
43.7789
42.5166
44.0002
49.0262
57.6395
66.9537
73.1152
72.2947
67.7126
60.6307
51.9739
43.4062
36.7405
32.4925
29.8665
28.4196
28.0607
28.6358
29.9103
36.0364
74.0715
109.634
67.5657
72.4294
79.8027
77.6641
69.1157
59.8955
52.0896
46.3547
43.0521
42.4849
44.7814
51.3457
62.6307
76.1209
85.6849
84.8002
77.86
67.3167
56.3005
46.4631
38.9874
33.8816
30.4209
28.3534
27.342
27.2773
28.5982
34.5076
75.6486
90.6944
54.1769
55.6643
60.8099
63.245
60.4617
54.6997
48.8866
44.551
42.3297
42.604
45.8184
53.7793
66.8819
82.808
93.2405
92.3547
84.9519
72.479
59.73
49.1058
41.07
35.144
30.9777
28.2262
26.5591
25.9271
26.8839
32.2998
69.5432
77.5081
44.3538
43.6815
46.944
50.146
51.0209
49.2176
45.8986
43.1064
41.9142
42.9181
47.2061
56.6529
71.3015
88.2119
97.2841
96.8848
92.2761
79.3643
64.3598
52.1575
43.037
36.1998
31.2461
27.7944
25.5376
24.4716
24.975
29.3494
59.6884
66.5088
37.1698
35.4523
37.465
40.2812
42.5825
43.5747
42.906
41.8557
41.7123
43.3443
48.7326
59.6863
75.4188
91.4529
98.059
99.1908
99.5056
87.4351
70.1009
55.841
45.2753
37.3888
31.5875
27.4271
24.6074
23.1182
23.1287
26.5486
51.9862
59.2028
32.0698
29.7366
30.9797
33.4179
36.0699
38.1632
39.3928
40.1961
41.3961
44.014
50.3858
62.4285
78.7027
92.2857
97.0279
100.149
105.539
95.5467
76.4571
60.1393
48.0133
39.0056
32.3202
27.4532
24.045
22.0553
21.6082
24.295
45.5669
53.9954
28.2661
25.6334
26.4417
28.5765
31.2821
33.7375
36.0823
38.4512
41.1219
44.8983
52.1185
64.4273
79.7828
90.8349
94.8966
100.024
109.38
103.007
83.1439
65.0309
51.3641
41.2229
33.6515
28.0572
24.0774
21.5427
20.6089
22.6687
40.8636
50.1479
25.4225
22.6465
23.1891
25.0226
27.5683
30.3412
33.3484
36.7689
40.839
45.9249
53.888
65.8155
78.9288
87.9419
92.6733
99.2469
110.891
109.605
90.1988
70.6092
55.4308
44.1281
35.6582
29.3487
24.7721
21.7524
20.4239
22.1571
40.0793
47.4219
23.2659
20.4725
20.8695
22.4885
24.8886
27.7983
31.2024
35.3248
40.4164
46.9207
55.6396
66.5893
77.3663
85.7655
91.2736
98.1971
110.65
114.656
97.7203
77.0483
60.324
47.7663
38.3444
31.3083
26.1747
22.7014
21.0894
22.8775
42.8046
44.9844
21.6309
18.9335
19.2774
20.7694
23.0876
26.0914
29.7989
34.4422
40.351
47.9524
57.2252
67.0377
76.8403
85.5598
91.4613
97.7855
110.021
118.399
105.709
84.5819
66.1774
52.1659
41.6758
33.8696
28.1881
24.3656
22.624
24.9214
49.8744
42.852
20.4644
17.9212
18.2695
19.7226
22.0261
25.1188
29.075
34.1507
40.7696
49.1006
58.624
67.8615
77.6944
87.1173
93.2915
98.5206
109.714
121.846
114.492
93.3348
73.109
57.3651
45.6206
36.9634
30.7162
26.5642
24.7624
27.7137
58.3524
41.3126
19.7905
17.404
17.7814
19.2413
21.5658
24.7371
28.8862
34.3033
41.4367
50.0781
59.6028
68.9654
79.4889
90.0751
96.9739
100.84
110.287
124.953
123.378
103.025
80.996
63.4108
50.1976
40.5583
33.6922
29.1771
27.2696
30.6788
66.0799
40.6272
19.6655
17.3865
17.7782
19.2548
21.6008
24.8098
29.0499
34.6272
41.9015
50.5044
59.8881
69.6752
80.8172
92.6052
101.13
104.352
111.564
126.788
130.749
112.813
89.4117
70.1262
55.411
44.6707
37.1077
32.1686
30.0765
33.6861
72.4788
40.6771
20.0257
17.8033
18.2207
19.7412
22.0863
25.2505
29.4281
34.885
41.8617
50.1687
59.3889
69.4541
80.7353
93.2991
104.016
107.975
112.75
126.253
134.227
121.103
97.4709
76.865
61.0074
49.2569
40.972
35.5713
33.2516
37.0039
78.2493
41.3364
20.947
18.7403
19.222
20.7806
23.0424
26.0058
29.9132
34.9948
41.4184
49.1872
58.1632
68.3494
79.7302
92.5662
104.618
110.073
113.18
124.345
133.914
125.933
104.152
83.0605
66.509
54.0902
45.2337
39.4137
36.8851
40.9326
85.5576
42.8147
22.3936
20.1862
20.7638
22.3511
24.4352
26.9955
30.4216
34.9455
40.6741
47.7249
56.2629
66.2252
77.4008
90.069
103.148
110.161
112.832
121.756
131.263
126.915
108.604
88.1662
71.5151
58.9116
49.8399
43.7017
40.9672
45.463
95.1772
44.9955
24.1851
22.018
22.8038
24.5312
26.4076
28.1935
30.8237
34.6619
39.6972
46.0914
54.1338
63.5652
73.9339
85.7263
98.7587
108.209
112.161
120.494
127.861
124.785
110.08
91.5275
75.5057
63.4602
54.8952
48.6024
45.4515
49.9893
103.235
47.1598
26.0053
24.0262
25.1708
27.3804
28.7241
29.3679
30.9547
34.08
38.5682
44.4792
52.0708
61.2335
71.4429
82.848
94.3855
104.485
111.78
121.093
125.879
121.485
108.538
92.235
77.7865
67.5175
60.8703
54.4946
50.4537
54.558
109.513
48.3025
27.5941
25.7736
27.3212
29.4562
30.474
30.12
30.7362
33.1581
37.1741
42.78
50.2358
59.7929
71.201
83.2263
94.0698
102.409
111.959
121.602
123.97
118.053
105.109
90.3713
77.752
69.9966
66.9603
61.6967
55.9088
59.5483
116.138
49.5898
28.6687
26.7496
27.8679
29.486
29.651
29.7276
30.5016
32.4989
36.1686
41.476
48.8083
58.9387
71.745
85.1952
96.0285
102.68
112.229
119.024
118.22
111.272
99.1695
86.066
75.4303
69.8867
69.1339
65.95
60.2881
64.1167
122.332
51.1289
29.0938
26.6101
27.4556
28.022
27.672
28.0636
29.2622
31.3063
34.8705
40.1602
47.3108
57.2411
69.6138
82.116
92.3024
99.2671
107.068
110.567
107.624
100.871
90.8573
80.044
71.4773
66.4775
64.2798
63.3497
59.8396
65.8647
133.551
53.756
29.4184
26.0489
26.8528
26.352
25.8522
26.3155
27.5455
29.575
32.7982
37.5457
44.3229
53.3144
63.4379
73.3888
82.1877
88.7412
93.2479
94.8804
92.6652
87.382
79.8759
71.8634
64.757
59.6103
57.5176
57.0124
56.385
62.246
136.496
58.2427
28.9572
25.6077
25.6947
24.7532
24.2263
24.6697
25.9042
27.7599
30.4007
34.6085
40.7782
48.4009
56.0885
63.4494
70.0236
74.9823
77.8728
78.6629
77.1331
73.208
67.6888
61.4998
55.9227
52.162
50.7261
51.1309
51.9762
56.9721
129.631
62.0296
28.5835
25.2377
24.4667
23.3163
22.7604
23.1831
24.3795
25.9467
28.1651
31.87
37.239
43.2209
48.9203
54.3408
59.1536
62.7462
64.717
65.0369
63.6715
60.6925
56.5798
52.0259
47.9347
45.1762
44.1961
45.1503
46.9118
50.4523
111.71
63.1262
28.2937
24.6252
23.4741
22.0402
21.4163
21.8158
22.8994
24.1676
26.0871
29.2897
33.6514
38.1226
42.3854
46.4232
49.9483
52.5264
53.886
53.9915
52.8505
50.5809
47.4967
44.1052
41.0454
38.9225
38.1483
39.1013
41.1094
43.6492
91.5982
61.2037
27.2782
23.9122
22.4778
20.8234
20.1387
20.5066
21.4387
22.4747
24.0941
26.7592
30.063
33.4208
36.646
39.6499
42.2118
44.0587
45
45.0067
44.0867
42.3507
40.0307
37.4897
35.1618
33.4587
32.7598
33.4348
35.2631
38.0807
77.504
56.2184
25.5704
22.8062
21.319
19.585
18.8905
19.2128
19.9786
20.7904
22.0829
24.1342
26.6811
29.2705
31.7083
33.9211
35.7637
37.078
37.7298
37.6924
36.9694
35.6513
33.9087
31.9898
30.1866
28.7915
28.1498
28.5733
30.0812
33.4964
68.7466
50.2957
23.6946
21.3392
19.9852
18.3156
17.6653
17.9311
18.5115
19.0953
20.05
21.645
23.6813
25.6961
27.5145
29.1183
30.4293
31.3539
31.7998
31.7444
31.186
30.192
28.8821
27.4205
26.0027
24.8499
24.2735
24.5445
25.8314
29.1058
62.4131
48.3264
22.3556
19.7408
18.624
17.0832
16.4602
16.6088
16.9895
17.4064
18.1362
19.4393
21.0998
22.662
23.9891
25.1213
26.0365
26.6726
26.968
26.9055
26.4788
25.7331
24.7445
23.6164
22.4819
21.5159
20.9973
21.2062
22.345
25.4895
56.1324
46.6736
21.2127
18.3205
17.4718
15.9809
15.2889
15.2623
15.4671
15.7821
16.3921
17.5022
18.8838
20.0851
21.0358
21.8135
22.429
22.847
23.0298
22.9631
22.6381
22.079
21.3259
20.4393
19.509
18.6802
18.1997
18.3311
19.2923
22.3253
50.1809
44.4767
20.0207
17.2523
16.4769
14.9559
14.1718
13.9912
14.0598
14.3041
14.8189
15.7456
16.9179
17.8642
18.5392
19.0674
19.4618
19.7164
19.8142
19.7426
19.4935
19.0717
18.4897
17.7753
16.9898
16.2676
15.8161
15.8598
16.6391
19.6014
45.0181
41.1288
18.879
16.0069
15.2423
13.8812
13.0964
12.8328
12.8041
12.9744
13.4061
14.1523
15.0901
15.8938
16.3971
16.7565
17.0057
17.1426
17.1778
17.1014
16.9053
16.5815
16.1231
15.5311
14.8504
14.1973
13.7645
13.768
14.4407
17.3182
40.1422
38.7354
17.8752
14.8285
13.9063
12.7071
12.0941
11.7807
11.7053
11.8316
12.1836
12.7884
13.5117
14.1156
14.526
14.7745
14.9382
15.0078
15.0015
14.9237
14.7626
14.5031
14.1272
13.611
12.9911
12.4396
12.0643
12.0314
12.6233
15.4395
35.6912
37.2863
17.1846
14.1109
12.7643
11.7888
11.2233
10.8911
10.7863
10.8857
11.1693
11.6122
12.1346
12.5911
12.9019
13.0729
13.1744
13.2155
13.1957
13.1232
12.9845
12.76
12.4256
11.9419
11.4345
10.9825
10.6161
10.5581
11.1628
13.886
31.9628
36.8577
16.7962
13.441
11.8787
11.0592
10.4859
10.1202
10.018
10.1271
10.3529
10.641
10.9782
11.2879
11.5027
11.6282
11.687
11.7139
11.6987
11.6393
11.5131
11.2846
10.9628
10.5664
10.1408
9.69472
9.37458
9.36077
9.95324
12.4421
28.3566
36.2356
15.9921
12.49
11.0955
10.2801
9.69995
9.4108
9.37902
9.51167
9.68906
9.83931
9.99164
10.1778
10.3153
10.3943
10.4392
10.4659
10.4578
10.3984
10.2626
10.0677
9.78447
9.42027
8.98887
8.59699
8.35414
8.38129
8.92653
11.076
24.7714
32.9797
14.5707
11.4738
10.2554
9.47123
8.98747
8.80593
8.83449
8.97332
9.10844
9.15996
9.16505
9.22518
9.3165
9.37148
9.40078
9.41899
9.40326
9.35918
9.25199
9.07382
8.75203
8.36883
7.99573
7.68892
7.50843
7.54671
8.02033
9.85421
21.5079
27.1468
12.7561
10.346
9.4016
8.79534
8.44351
8.32875
8.36833
8.47541
8.55197
8.53481
8.45023
8.4179
8.46336
8.52507
8.56272
8.56579
8.55891
8.52416
8.36624
8.11727
7.80405
7.48248
7.18909
6.94642
6.79329
6.8129
7.20646
8.81445
19.1049
21.5897
11.0425
9.35121
8.73193
8.31964
8.05207
7.94616
7.95597
8.00441
8.01455
7.93969
7.80723
7.73204
7.75731
7.82933
7.88559
7.89735
7.86923
7.76771
7.56131
7.30623
7.03919
6.77938
6.53491
6.31801
6.16543
6.1593
6.48537
7.90765
17.1131
18.7889
10.0056
8.68695
8.31008
7.99788
7.74321
7.60761
7.56274
7.5459
7.49594
7.38649
7.24844
7.17544
7.20189
7.27955
7.33455
7.33961
7.28277
7.13409
6.91443
6.67853
6.4421
6.20496
5.97084
5.75802
5.60346
5.57954
5.85346
7.10507
15.2912
18.661
9.68312
8.41731
8.06862
7.76467
7.45218
7.24248
7.15238
7.08756
7.00346
6.88949
6.78555
6.74574
6.779
6.84543
6.88297
6.87012
6.78662
6.61833
6.4018
6.17144
5.93334
5.69229
5.4593
5.25167
5.09966
5.06519
5.29749
6.39472
13.6029
19.6704
9.90653
8.47947
7.88875
7.45181
7.09919
6.8824
6.7865
6.68746
6.57039
6.46041
6.38939
6.374
6.40477
6.44396
6.45576
6.41973
6.31712
6.14549
5.93066
5.69586
5.45423
5.21566
4.99034
4.79226
4.64659
4.60648
4.80394
5.76112
12.0528
23.0981
10.7411
8.56283
7.57284
7.06986
6.76177
6.60694
6.52764
6.37832
6.20708
6.08445
6.01518
5.99089
5.99515
6.00113
5.9839
5.92718
5.81711
5.65217
5.44841
5.22531
4.99635
4.77143
4.56025
4.37539
4.23871
4.19624
4.36405
5.19596
10.6784
27.2361
11.1943
8.37436
7.33898
6.83467
6.51953
6.38011
6.28058
6.08579
5.87689
5.72998
5.64058
5.58871
5.55758
5.53002
5.48787
5.41682
5.30658
5.15569
4.97379
4.77369
4.5664
4.36139
4.1682
3.99875
3.87272
3.83051
3.97518
4.7076
9.53391
27.6579
11.0183
8.27102
7.21617
6.61758
6.30763
6.13217
5.97635
5.76238
5.54963
5.38985
5.28041
5.20064
5.13828
5.0819
5.01881
4.93738
4.82949
4.69317
4.53299
4.3567
4.1726
3.98898
3.81481
3.66134
3.54649
3.50627
3.63316
4.28734
8.58948
25.6682
10.5892
7.9845
6.94651
6.43182
6.14105
5.878
5.64296
5.43155
5.2412
5.07836
4.95217
4.84974
4.76324
4.68476
4.60515
4.5155
4.40921
4.28369
4.14061
3.98445
3.82109
3.65732
3.50109
3.36274
3.25867
3.22126
3.33391
3.92316
7.80767
20.1859
9.54311
7.55189
6.78146
6.36096
5.99251
5.60948
5.31144
5.12443
4.96036
4.79928
4.66215
4.54376
4.44001
4.34553
4.25359
4.15732
4.05137
3.93296
3.80226
3.66172
3.51536
3.36851
3.22795
3.10297
3.0086
2.9742
3.07573
3.61284
7.17211
15.2744
8.52603
7.18973
6.7474
6.28961
5.76876
5.33976
5.05402
4.86965
4.71025
4.55285
4.41077
4.28282
4.16773
4.06223
3.96145
3.86017
3.75401
3.64033
3.51852
3.38978
3.25684
3.12376
2.99625
2.88255
2.79645
2.76499
2.85847
3.35621
6.67263
13.4762
7.80327
7.03479
6.67993
6.07812
5.52378
5.1302
4.86065
4.65867
4.49532
4.34113
4.19753
4.06457
3.94257
3.82993
3.72335
3.61884
3.51282
3.40283
3.28786
3.16833
3.04602
2.92403
2.80713
2.70268
2.62346
2.5948
2.68305
3.15316
6.29937
13.6806
7.81943
6.97807
6.38798
5.80538
5.32392
4.96513
4.6915
4.47773
4.31282
4.16316
4.02061
3.8857
3.76006
3.64351
3.53393
3.4283
3.32357
3.21742
3.10855
2.99687
2.88344
2.77065
2.6625
2.56567
2.4922
2.46637
2.55227
3.00604
6.0462
16.2715
8.10911
6.75636
6.2025
5.61098
5.16518
4.8333
4.55727
4.33897
4.17081
4.02158
3.87935
3.7438
3.61684
3.49909
3.38929
3.28497
3.18337
3.08215
2.97976
2.87566
2.7704
2.6658
2.56535
2.47515
2.40686
2.38444
2.47191
2.92564
5.96586
20.7717
8.68613
6.76006
6.04296
5.45751
5.08616
4.77508
4.49358
4.26267
4.08095
3.92272
3.776
3.63869
3.51154
3.39486
3.28754
3.18723
3.09116
2.99675
2.9021
2.80624
2.7093
2.6128
2.51984
2.43617
2.37329
2.35553
2.44824
2.91261
5.98762
21.1585
8.85038
6.72101
5.87657
5.39989
5.09564
4.80433
4.51431
4.26097
4.04967
3.87065
3.713
3.57163
3.44469
3.33107
3.22892
3.13546
3.04774
2.96271
2.8779
2.79179
2.70395
2.61511
2.52857
2.45044
2.39222
2.37829
2.47595
2.95282
6.12467
19.1701
8.40716
6.5416
5.76269
5.40591
5.18695
4.91098
4.59986
4.30892
4.06538
3.86224
3.69015
3.54374
3.41814
3.30984
3.21566
3.13178
3.0537
2.97868
2.90414
2.82812
2.74993
2.67066
2.59315
2.52319
2.47207
2.46491
2.5771
3.08765
6.50226
14.2512
7.72907
6.15418
5.62513
5.47713
5.38309
5.07796
4.71275
4.39204
4.11111
3.8825
3.70052
3.55242
3.43024
3.32878
3.24408
3.17209
3.10863
3.04947
2.99111
2.93054
2.86649
2.79969
2.73315
2.67301
2.63171
2.6392
2.78411
3.36086
7.13999
10.3323
6.58753
5.69843
5.6383
5.65367
5.4507
5.08154
4.75274
4.44891
4.16057
3.9266
3.74247
3.59856
3.48532
3.39649
3.32761
3.2742
3.23064
3.19134
3.15139
3.10743
3.05738
3.00141
2.94294
2.88942
2.85864
2.88933
3.07867
3.75272
7.92796
8.94541
5.86739
5.67774
5.87144
5.71572
5.36332
5.02042
4.73602
4.47213
4.20585
3.99223
3.82536
3.6966
3.59918
3.52728
3.47709
3.44437
3.42262
3.40514
3.38584
3.35952
3.32237
3.27339
3.21674
3.16479
3.14359
3.19936
3.441
4.25553
9.03144
9.31444
6.11154
6.03954
6.00212
5.66084
5.40358
5.03771
4.73988
4.51491
4.27581
4.09411
3.95541
3.85079
3.77517
3.72456
3.6968
3.68829
3.69186
3.69929
3.70243
3.69372
3.66658
3.61793
3.55379
3.4954
3.47663
3.55136
3.84761
4.82578
10.4232
12.5292
7.33169
6.4802
5.91151
5.72035
5.57035
5.15853
4.8012
4.61861
4.40401
4.25296
4.14682
4.07224
4.02387
3.9989
3.99741
4.01672
4.04919
4.0846
4.11228
4.12163
4.10249
4.04896
3.96898
3.89365
3.86599
3.94559
4.28123
5.40562
11.6894
19.6642
8.826
6.50239
5.93942
5.87535
5.69944
5.32295
4.94051
4.82229
4.61864
4.48752
4.4138
4.37344
4.35724
4.36232
4.391
4.44215
4.50748
4.57493
4.6313
4.6626
4.65518
4.59997
4.50467
4.40456
4.35229
4.41543
4.75795
5.9423
12.6469
22.5742
9.05606
6.54187
6.03388
5.91233
5.67734
5.4448
5.12529
5.10159
4.92193
4.8075
4.76768
4.76656
4.78807
4.82797
4.8911
4.97843
5.08189
5.18799
5.28108
5.34434
5.36107
5.31857
5.22073
5.09881
5.00703
5.02261
5.31708
6.46585
13.3863
22.0557
8.96199
6.53668
6.05247
5.83812
5.677
5.60034
5.36357
5.43161
5.30147
5.21576
5.21727
5.26349
5.33078
5.41042
5.5116
5.6398
5.78856
5.94356
6.08712
6.19986
6.26179
6.25586
6.1777
6.04646
5.90952
5.8493
6.04119
7.08451
14.2528
20.2705
8.64301
6.47798
6.01368
5.78658
5.75981
5.82384
5.66486
5.82101
5.7554
5.71783
5.77128
5.87846
6.00127
6.12428
6.26479
6.4381
6.64164
6.86035
7.07405
7.26051
7.39544
7.45601
7.4271
7.30666
7.1256
6.97767
7.04088
7.9616
15.7534
18.5034
8.17859
6.40249
5.97093
5.82545
5.96498
6.1481
6.0404
6.2851
6.30103
6.32574
6.44371
6.62491
6.81488
6.9779
7.15326
7.37689
7.64963
7.95206
8.26025
8.54804
8.78517
8.94062
8.9887
8.90313
8.69622
8.45834
8.41895
9.28556
18.2157
17.536
7.87753
6.35329
5.95921
5.95152
6.2456
6.51909
6.51612
6.85439
6.96465
7.05516
7.24496
7.50874
7.76879
7.95498
8.15879
8.44995
8.81388
9.22436
9.65319
10.0668
10.4228
10.6728
10.7484
10.6589
10.507
10.2864
10.2647
11.3397
22.4285
16.6426
7.57178
6.23588
6.01408
6.18619
6.58436
6.9518
7.11193
7.57003
7.75677
7.91108
8.17161
8.51505
8.80559
8.99429
9.26058
9.64773
10.1301
10.676
11.2495
11.801
12.2501
12.4808
12.5177
12.387
12.3321
12.254
12.4806
14.1771
28.8094
14.6359
7.1096
6.14995
6.22693
6.60275
7.03895
7.50219
7.84343
8.42527
8.67169
8.88357
9.20946
9.61649
9.90762
10.1026
10.4635
10.9737
11.6011
12.3062
13.0403
13.7141
14.127
14.2027
13.9821
13.8851
14.0349
14.3006
14.9247
17.5567
36.5874
13.0088
7.13081
6.36093
6.71735
7.26216
7.71109
8.25802
8.76942
9.42939
9.70525
9.96619
10.3553
10.8156
11.1227
11.3353
11.7934
12.4396
13.2276
14.1061
14.9925
15.6882
15.9711
15.8851
15.6711
15.6626
15.8796
16.4983
17.6547
21.2958
44.5938
13.1719
7.43021
6.95922
7.52361
8.18877
8.68812
9.32467
9.95171
10.5851
10.8552
11.1582
11.5995
12.1058
12.4391
12.6947
13.2586
14.0431
14.9953
16.0471
17.0394
17.6718
17.8604
17.817
17.8527
17.9908
18.3394
19.1317
20.6886
25.185
52.0876
14.5643
8.41592
8.10051
8.71974
9.46755
10.0413
10.7591
11.4576
11.9293
12.149
12.4762
12.9541
13.5041
13.8701
14.1896
14.8663
15.7729
16.884
18.1012
19.1576
19.7022
19.8474
19.9466
20.2417
20.679
21.2894
22.2686
24.0992
29.1575
58.876
18.6427
10.5293
10.0328
10.5168
11.3048
11.8695
12.5427
13.3158
13.5089
13.6218
13.9364
14.4472
15.0374
15.4529
15.844
16.6068
17.6129
18.8805
20.2634
21.381
21.8358
21.9736
22.3517
22.942
23.7248
24.7088
25.9807
28.0691
33.6144
67.068
31.7385
16.2582
13.9344
14.0929
14.2364
14.4579
14.9528
15.3637
15.3228
15.2783
15.5459
16.0966
16.7609
17.2109
17.6281
18.447
19.5479
20.9768
22.5229
23.7209
24.1672
24.2965
25.0042
25.9879
27.2645
28.7945
30.5329
32.9414
39.0455
77.9902
31.7103
19.6978
16.76
17.0358
17.3272
17.9417
18.3446
17.7139
17.2806
17.0778
17.2959
17.8778
18.6305
19.021
19.4529
20.319
21.5455
23.1444
24.83
26.0369
26.5784
26.9211
27.9792
29.5038
31.4984
33.8695
36.425
39.3801
46.2417
91.8097
25.1264
18.9801
17.075
18.1872
19.1748
20.0067
20.9152
20.8825
19.4319
18.9195
19.0737
19.7934
20.492
20.7386
21.1193
22.0859
23.5202
25.3147
27.1381
28.2886
28.8047
29.7667
31.3463
33.5839
36.5247
40.1706
44.2636
48.6245
57.4088
110.58
18.448
16.0524
16.3798
18.0551
19.022
19.6923
20.6117
22.1251
22.0435
20.6358
20.5622
21.2996
22.1474
22.0145
22.4329
23.5818
25.3492
27.3396
29.2793
30.5
31.1342
32.7135
34.9539
38.0217
42.111
47.4428
53.7427
60.8398
75.7374
154.227
17.7563
13.8932
15.5879
17.3971
18.5569
19.0285
19.5127
20.68
22.1393
21.5636
21.6214
22.6502
22.9907
22.8101
23.358
24.9496
27.0496
29.1629
31.064
32.4007
33.6773
35.7708
38.6817
42.5977
47.8051
54.5729
62.5253
73.3031
97.0962
217.093
20.1457
13.6356
15.0837
16.4363
17.7766
18.7114
19.2813
20.3753
22.0725
22.2207
22.4412
23.1453
23.22
23.4319
24.4926
26.565
28.7861
30.8827
32.7497
34.3097
36.2445
38.9574
42.614
47.2676
53.1234
59.9914
67.4711
79.7262
108.797
262.368
25.1738
14.3737
15.755
16.9748
18.3975
19.6553
20.3109
21.1256
23.0476
23.381
23.0773
23.5736
23.8257
24.6577
26.5371
28.7413
30.81
32.764
34.5875
36.4913
39.0882
42.5858
46.9098
51.9338
57.2914
63.274
69.6099
81.0568
110.383
269.532
30.8266
16.4648
18.0871
19.5415
21.241
22.9786
23.6586
23.3013
24.5402
24.7198
24.5766
24.9619
25.6909
27.4186
29.6723
31.6116
33.4476
35.291
37.0639
39.4974
42.7675
46.8124
51.37
55.9671
60.8079
65.3005
70.1941
80.6538
109.064
263.904
37.2263
20.6412
22.4002
24.0892
26.5547
29.4662
30.5453
28.0987
27.5038
27.4931
27.6878
28.267
29.742
31.8382
33.7502
35.4156
37.3003
39.4349
41.2227
43.8233
47.1682
51.1082
55.1006
59.4665
63.7373
66.6635
70.5945
79.7807
105.979
248.535
45.2148
28.062
28.3738
29.9122
33.7306
39.1915
42.1994
37.3193
33.827
33.5767
33.5438
34.2146
35.7376
37.3617
38.9183
40.3348
42.5561
45.2946
46.9575
48.7343
51.3824
54.4789
58.0953
62.591
66.8237
69.6076
72.5088
80.0766
103.338
236.104
68.5155
35.0773
34.1057
35.8445
41.3837
50.0975
56.8757
50.6699
43.9555
42.7956
41.8246
41.5116
42.4019
43.5755
44.9236
46.005
47.5394
50.7452
52.8431
53.4758
53.8809
55.604
59.7528
66.0039
71.6019
74.488
76.4038
81.669
101.393
223.64
83.7335
40.4566
37.9992
40.3055
47.1266
57.8087
67.4172
63.6315
54.9647
50.7918
48.7215
48.1189
48.7693
49.4267
50.1859
50.5928
50.4751
50.9096
51.9004
52.3409
52.82
55.3074
60.9733
68.6288
75.2007
79.0503
81.0352
84.6636
100.805
214.875
77.4812
44.216
39.8928
42.2791
48.8562
59.7405
71.6946
71.8595
62.3014
54.877
51.0275
49.193
48.6564
48.4971
48.1786
47.6753
47.3367
47.4729
47.9913
48.7419
50.4188
54.1372
60.5088
68.6753
76.3169
81.7408
84.9767
88.1487
101.73
213.295
68.9404
46.5621
42.2444
43.7472
48.2835
55.6559
64.8662
66.9904
60.5225
54.5183
50.6212
48.1198
46.5564
45.4322
44.4471
43.6416
43.2952
43.5198
44.282
45.7166
48.2617
52.568
59.1675
67.6219
75.9028
82.4283
87.2679
91.5048
104.38
217.519
75.9953
50.3362
45.6412
46.2606
48.6845
51.994
56.5106
58.9967
55.4445
51.6907
48.9339
46.6934
44.8231
43.2274
41.8729
40.8804
40.4736
40.7334
41.7024
43.5668
46.5715
51.1525
57.7867
66.2785
74.8815
81.9392
87.8123
94.1165
109.157
227.822
88.6514
49.5627
47.1679
48.0645
48.9049
49.736
50.762
52.996
51.0782
48.9068
47.1989
45.3383
43.4224
41.6082
40.0535
38.954
38.5198
38.827
39.9592
42.09
45.3553
50.074
56.6887
65.1728
73.8898
80.9902
87.3288
95.5369
114.832
244.423
87.1698
47.7877
45.3568
46.4885
47.0962
47.1804
47.1734
49.1326
47.8749
46.3825
45.2313
43.6606
41.8479
40.0487
38.5104
37.4612
37.1082
37.511
38.7979
41.1096
44.5437
49.344
55.9188
64.3929
73.2541
80.2414
86.3532
95.9
120.142
264.087
85.8267
47.2421
44.5854
44.773
44.909
44.9146
44.8924
46.7114
45.4449
44.0764
43.1071
41.7405
40.1228
38.5002
37.1339
36.2594
36.0727
36.6177
38.0626
40.5027
44.0531
48.9141
55.4427
63.9039
73.0054
80.0023
85.6231
95.8252
124.358
282.587
80.1767
49.7965
47.1167
45.7
44.3893
43.7619
43.5689
45.1358
43.5463
42.0461
41.0653
39.8416
38.4453
37.0664
35.947
35.3098
35.3282
36.052
37.6591
40.1949
43.8135
48.7165
55.2026
63.6271
73.0267
80.2328
85.4733
95.7303
127.198
295.966
80.5689
57.121
55.2781
49.8197
45.8139
43.7197
42.9072
43.9756
42.1222
40.4303
39.3571
38.2251
37.0205
35.8795
35.0132
34.6185
34.8325
35.7541
37.5155
40.1377
43.7808
48.6891
55.1278
63.4835
73.1894
80.8925
85.812
95.7472
128.709
303.173
108.695
66.2989
63.4181
55.2626
48.1777
44.5132
42.7243
43.2495
41.2484
39.3915
38.2069
37.1019
36.009
35.0412
34.3822
34.1908
34.5724
35.6682
37.5688
40.275
43.911
48.7717
55.1451
63.4174
73.4232
81.8838
86.7188
95.9198
128.979
303.757
114.14
65.7644
64.0448
57.3227
50.257
45.4306
42.9876
43.0171
40.9643
39.0317
37.7379
36.5809
35.503
34.6157
34.0812
34.0221
34.5268
35.7545
37.7782
40.5812
44.2031
48.957
55.2088
63.3778
73.606
82.9845
88.0619
96.3053
128.607
301.32
113.968
66.0408
66.1294
59.5239
51.7876
46.3034
43.5865
43.3008
41.3185
39.3494
37.9248
36.6235
35.4671
34.5765
34.0888
34.0942
34.6751
35.9894
38.1142
41.0121
44.6207
49.2302
55.3104
63.3351
73.6681
84.0051
89.5927
96.8278
127.698
295.588
115.431
66.063
66.7243
61.0763
52.946
47.2898
44.6415
44.3651
42.4093
40.2562
38.6451
37.1473
35.8599
34.9074
34.3949
34.3968
35.0013
36.3564
38.55
41.5297
45.1269
49.5764
55.4587
63.2912
73.5982
84.7747
91.1446
97.408
126.311
287.291
117.472
65.6588
65.8453
61.0394
54.085
48.408
45.9934
45.7029
44.0308
41.5615
39.7118
38.0278
36.6102
35.5709
34.9787
34.9189
35.4964
36.847
39.0713
42.1052
45.6889
49.9753
55.649
63.2441
73.3752
85.1672
92.5914
98.0111
124.657
277.816
119.142
65.144
64.7332
60.8715
55.2607
50.0425
47.4882
46.7997
45.7013
43.1347
41.0547
39.2217
37.6942
36.5539
35.8359
35.66
36.1586
37.4612
39.6727
42.7189
46.2741
50.4015
55.8691
63.2082
73.0254
85.1478
93.8647
98.6528
122.851
267.739
120.603
64.8833
63.6914
61.0602
56.6007
51.949
49.214
48.06
47.3537
44.9981
42.7378
40.7807
39.1463
37.8749
36.9815
36.6334
36.9979
38.2059
40.3568
43.3656
46.8646
50.8445
56.1235
63.2236
72.6541
84.8631
94.9429
99.4573
120.805
257.182
121.478
64.5662
62.4229
61.4117
58.3109
54.277
51.6526
49.9976
49.2799
47.2956
44.9167
42.8181
41.0392
39.5764
38.4461
37.8654
38.0355
39.0942
41.129
44.0486
47.4565
51.2978
56.4105
63.3063
72.3425
84.3517
95.8581
100.778
118.995
246.775
119.564
63.6288
61.0803
61.9237
60.5607
57.3411
55.0509
52.9272
51.8739
50.2723
47.7784
45.4664
43.4523
41.7025
40.2718
39.3933
39.2972
40.1308
41.9787
44.7527
48.0361
51.7418
56.7122
63.468
72.1882
83.9029
96.8407
102.986
117.441
235.972
117.591
62.5487
60.2819
62.5781
63.7659
61.3747
59.5401
57.297
55.5721
54.1164
51.5366
48.8803
46.4681
44.2944
42.4919
41.2456
40.7969
41.2923
42.8559
45.415
48.5422
52.1174
56.9667
63.6326
72.183
83.6894
97.9383
106.4
116.497
225.298
118.249
62.5525
61.0551
63.8673
67.2781
66.4838
65.4254
63.4165
60.9041
59.2194
56.4521
53.2572
50.1726
47.3771
45.1016
43.4134
42.4975
42.5099
43.6628
45.9202
48.8567
52.3039
57.0221
63.6072
72.1037
83.4787
98.5777
110.552
116.939
214.276
123.42
64.8342
63.8208
66.8694
71.1924
72.8387
73.0844
71.7287
68.5035
66.0124
62.8092
58.7767
54.6139
50.9177
48.0161
45.8024
44.241
43.668
44.2698
46.1361
48.8529
52.209
56.819
63.2523
71.6291
82.7817
98.138
113.197
118.844
203.705
136.187
70.727
69.478
72.1029
76.6338