/*--------------------------------*- C++ -*----------------------------------*\
| =========                 |                                                 |
| \\      /  F ield         | OpenFOAM: The Open Source CFD Toolbox           |
|  \\    /   O peration     | Version:  v1606+                                |
|   \\  /    A nd           | Web:      www.OpenFOAM.com                      |
|    \\/     M anipulation  |                                                 |
\*---------------------------------------------------------------------------*/
FoamFile
{
    version     2.0;
    format      ascii;
    class       volScalarField;
    location    "1.47";
    object      nut.particles;
}
// * * * * * * * * * * * * * * * * * * * * * * * * * * * * * * * * * * * * * //

dimensions      [0 2 -1 0 0 0 0];

internalField   nonuniform List<scalar> 
6000
(
1.6631e-05
1.37984e-05
1.31186e-05
1.26529e-05
1.23693e-05
1.21984e-05
1.23195e-05
1.23667e-05
1.20549e-05
1.20076e-05
1.25281e-05
1.19241e-05
1.08984e-05
1.02e-05
1.05346e-05
1.08193e-05
1.14441e-05
1.27244e-05
1.32964e-05
1.43006e-05
1.39189e-05
1.32875e-05
1.25464e-05
1.28177e-05
1.35005e-05
1.40085e-05
1.4852e-05
1.52299e-05
1.6105e-05
1.89047e-05
7.38774e-06
7.96003e-06
7.93563e-06
8.11001e-06
8.04104e-06
7.75199e-06
7.35447e-06
6.6333e-06
6.15839e-06
6.07289e-06
5.9306e-06
5.93638e-06
5.99244e-06
5.98752e-06
5.92138e-06
5.84186e-06
5.8413e-06
5.94412e-06
6.18464e-06
6.37835e-06
7.79588e-06
8.83608e-06
9.18679e-06
9.15421e-06
8.22654e-06
7.03872e-06
6.03126e-06
5.31053e-06
5.31522e-06
3.96452e-06
5.35137e-06
5.7643e-06
6.50123e-06
7.59174e-06
9.4349e-06
1.28071e-05
1.37953e-05
1.19167e-05
9.20905e-06
9.39997e-06
1.02221e-05
9.28651e-06
8.10513e-06
7.79269e-06
7.9833e-06
8.41906e-06
8.80843e-06
9.20224e-06
9.31557e-06
9.65624e-06
1.25014e-05
1.41603e-05
1.35902e-05
9.39744e-06
6.85005e-06
5.58528e-06
4.98155e-06
4.52412e-06
4.20331e-06
3.86439e-06
3.85755e-06
3.91639e-06
4.22862e-06
4.91148e-06
6.11775e-06
7.82417e-06
1.24264e-05
1.464e-05
1.30916e-05
1.23593e-05
1.25402e-05
1.24277e-05
1.11422e-05
1.02518e-05
1.01912e-05
1.06236e-05
1.11152e-05
1.14158e-05
1.19276e-05
1.29699e-05
1.45764e-05
1.5639e-05
9.28475e-06
6.04804e-06
5.03451e-06
4.65441e-06
4.46518e-06
4.28509e-06
4.01581e-06
3.58805e-06
4.9281e-06
3.97541e-06
4.38668e-06
4.84883e-06
5.2771e-06
5.9199e-06
7.88891e-06
1.51134e-05
1.57782e-05
1.44185e-05
1.39951e-05
1.41476e-05
1.44348e-05
1.42181e-05
1.35804e-05
1.29907e-05
1.27973e-05
1.27677e-05
1.31297e-05
1.4324e-05
1.7322e-05
1.00866e-05
6.39866e-06
5.67838e-06
5.20072e-06
5.21812e-06
5.79413e-06
6.29013e-06
6.01124e-06
5.72713e-06
9.55592e-06
5.29487e-06
5.70791e-06
6.03425e-06
5.82871e-06
5.81217e-06
6.41812e-06
8.89325e-06
1.74826e-05
1.72899e-05
1.63857e-05
1.71511e-05
1.87279e-05
1.87499e-05
1.69907e-05
1.51115e-05
1.42471e-05
1.41824e-05
1.48234e-05
1.66372e-05
1.22895e-05
4.17288e-06
4.75019e-06
6.46471e-06
6.90771e-06
7.4228e-06
9.01001e-06
1.02244e-05
9.79675e-06
1.10785e-05
0.000129906
9.69045e-06
8.254e-06
8.66074e-06
7.97714e-06
6.96267e-06
6.47514e-06
5.98636e-06
7.95376e-06
1.54943e-05
1.76459e-05
1.77029e-05
1.25622e-05
1.0749e-05
1.36676e-05
1.67756e-05
1.56986e-05
1.51084e-05
1.53883e-05
1.07135e-05
3.53995e-06
2.01972e-06
3.1535e-06
7.33771e-06
1.08987e-05
1.12211e-05
1.19348e-05
1.33418e-05
1.56134e-05
0.000212408
0.000153252
0.000156052
1.14981e-05
1.05326e-05
1.02661e-05
9.2058e-06
6.98113e-06
4.05517e-06
2.8164e-06
4.09025e-06
6.12971e-06
4.02042e-06
2.6017e-06
2.25989e-06
2.87175e-06
5.08661e-06
7.44302e-06
7.68609e-06
5.4008e-06
2.77247e-06
1.65555e-06
1.35775e-06
1.81395e-06
5.64993e-06
1.31226e-05
1.70663e-05
1.2189e-05
1.67664e-05
4.41163e-05
0.000704637
0.000114554
0.00031363
5.10131e-05
1.08783e-05
1.08935e-05
1.05357e-05
6.84438e-06
2.60922e-06
1.58393e-06
1.66893e-06
1.7075e-06
1.38742e-06
1.17279e-06
1.08511e-06
1.11206e-06
1.27912e-06
1.66018e-06
1.91566e-06
1.74749e-06
1.41969e-06
1.22541e-06
1.15522e-06
1.24106e-06
3.01253e-06
9.428e-06
1.63586e-05
1.24551e-05
4.01872e-05
0.000232435
0.0011705
0.000104454
0.000310542
0.000147623
1.07581e-05
1.06784e-05
1.02167e-05
5.04527e-06
1.8443e-06
1.39189e-06
1.38021e-06
1.28725e-06
1.16309e-06
1.07067e-06
9.69539e-07
9.14514e-07
8.96436e-07
9.73135e-07
1.0898e-06
1.14687e-06
1.1219e-06
1.04651e-06
1.03315e-06
9.79152e-07
1.62597e-06
5.41928e-06
8.64826e-06
8.71189e-06
0.000105302
0.00135037
0.00172688
0.000103413
0.000309405
0.000215185
1.054e-05
9.5154e-06
6.89736e-06
2.82119e-06
1.53797e-06
1.40789e-06
1.38705e-06
1.29302e-06
1.16952e-06
1.08286e-06
9.70874e-07
9.20509e-07
8.93533e-07
9.00082e-07
9.47581e-07
1.01746e-06
9.79688e-07
9.28379e-07
9.2337e-07
8.77061e-07
1.15859e-06
3.19206e-06
6.3709e-06
6.75778e-06
8.47164e-06
1.13627e-05
0.000283931
0.000102353
0.000303766
0.000146407
9.04809e-06
5.96865e-06
2.73312e-06
1.71147e-06
1.46749e-06
1.43478e-06
1.42373e-06
1.35403e-06
1.29677e-06
1.36334e-06
1.33242e-06
1.2137e-06
1.06182e-06
9.33031e-07
8.84818e-07
9.08799e-07
8.73138e-07
8.3892e-07
8.34302e-07
8.07126e-07
1.02942e-06
2.25464e-06
6.13374e-06
6.36573e-06
6.56521e-06
6.79633e-06
1.17263e-05
0.000163234
8.41881e-06
7.77246e-06
7.26886e-06
3.20552e-06
1.52111e-06
1.32841e-06
1.40947e-06
1.42029e-06
1.47243e-06
1.51525e-06
1.8731e-06
2.173e-06
2.17817e-06
1.95974e-06
1.56172e-06
1.16563e-06
9.12833e-07
8.30609e-07
7.82632e-07
7.59493e-07
7.51565e-07
7.79748e-07
1.07404e-06
3.20026e-06
0.00070352
9.32545e-05
6.62482e-06
5.94771e-06
5.48104e-05
0.00120281
2.62493e-05
5.27903e-05
7.19846e-06
2.08876e-06
1.30396e-06
1.27321e-06
1.36577e-06
1.36306e-06
1.46957e-06
2.05792e-06
2.97916e-06
3.76096e-06
3.91798e-06
3.58194e-06
2.70801e-06
1.77532e-06
1.11279e-06
7.8577e-07
7.42363e-07
7.48222e-07
7.71216e-07
8.7704e-07
1.73085e-06
8.25902e-06
0.00504448
0.00780664
0.00564512
0.0034268
0.0289968
0.00232857
0.00107195
0.0016677
1.33213e-05
2.0118e-06
1.15493e-06
1.23061e-06
1.27278e-06
1.32931e-06
1.73373e-06
3.12426e-06
4.8006e-06
6.1328e-06
6.54189e-06
6.42356e-06
5.15269e-06
3.31238e-06
1.79837e-06
1.07304e-06
9.23903e-07
1.0152e-06
1.19847e-06
1.57479e-06
3.55323e-06
1.46642e-05
0.00907416
0.0324906
0.038409
0.0385577
0.0389299
0.00245784
0.0024498
0.00246043
1.29624e-05
2.29257e-06
1.27043e-06
1.2757e-06
1.3124e-06
1.48264e-06
2.88062e-06
5.78453e-06
7.51314e-06
8.70515e-06
9.22867e-06
9.6357e-06
9.38759e-06
7.71114e-06
4.73022e-06
2.7568e-06
2.34304e-06
2.72451e-06
3.32901e-06
4.18413e-06
7.14308e-06
0.000100583
0.0144521
0.0214686
0.0256162
0.0387781
0.0389731
0.00216323
0.00247626
4.58558e-05
2.22021e-05
4.50225e-06
2.38825e-06
2.11008e-06
2.17367e-06
2.85903e-06
8.01749e-06
1.27267e-05
5.22996e-05
0.000111863
0.000146447
0.000181894
0.000272967
0.000346259
0.000100973
1.12104e-05
8.58721e-06
8.60108e-06
9.61623e-06
1.02367e-05
1.30741e-05
0.00100997
0.00383129
3.899e-05
3.04687e-05
0.016433
0.0388068
0.00181911
0.00245119
5.34809e-06
1.11239e-05
1.23086e-05
7.67562e-06
5.80254e-06
5.66497e-06
8.04639e-06
2.42374e-05
0.00108556
0.00162114
0.00169191
0.00171667
0.00171453
0.00172144
0.00171866
0.00172401
0.00171225
0.00098272
0.00025287
0.000100425
0.000119093
0.000138697
4.04669e-05
1.48185e-05
4.12931e-06
3.50571e-06
2.20565e-05
0.027245
0.00219836
3.36475e-05
1.77218e-06
2.02804e-06
8.62407e-06
1.04705e-05
9.57361e-06
9.51206e-06
1.07287e-05
9.7205e-06
1.33878e-05
3.34762e-05
0.00171612
0.00171921
0.00172489
0.00172014
0.00172788
0.00172002
0.00173015
0.00171942
0.00172493
0.00171346
6.94233e-05
1.57985e-05
3.62255e-06
1.53521e-06
1.13774e-06
1.29436e-06
1.05736e-05
0.0152344
0.00026843
6.89657e-06
1.21737e-06
1.0391e-06
1.55809e-06
2.55543e-06
3.14832e-06
3.31998e-06
2.68451e-06
1.34083e-06
1.19783e-06
2.73923e-06
1.35714e-05
0.000289975
0.00145277
3.06625e-05
1.94049e-05
0.00013292
0.00172375
0.00173188
0.00171793
2.28469e-05
4.77617e-06
1.45002e-06
1.01249e-06
9.9022e-07
1.01771e-06
1.17913e-06
3.30721e-06
3.3026e-05
1.08225e-05
1.48146e-06
1.10268e-06
8.40478e-07
7.82391e-07
8.47562e-07
8.87075e-07
8.82099e-07
7.86764e-07
6.85748e-07
6.76202e-07
8.60842e-07
1.57949e-06
2.84727e-06
4.06721e-06
3.90119e-06
3.04239e-06
5.54853e-06
1.21761e-05
1.54072e-05
8.11921e-06
2.3961e-06
1.09816e-06
9.87418e-07
9.73375e-07
1.00562e-06
1.06327e-06
1.16794e-06
1.5205e-06
6.71569e-06
3.22286e-06
1.26309e-06
1.04767e-06
8.03735e-07
6.83295e-07
6.69057e-07
6.7899e-07
6.78167e-07
6.62888e-07
6.5749e-07
7.09401e-07
9.16949e-07
1.15928e-06
1.20253e-06
1.17215e-06
1.06863e-06
9.91448e-07
1.20163e-06
1.92374e-06
2.53509e-06
2.14609e-06
1.41937e-06
1.09963e-06
1.00592e-06
1.03339e-06
1.07224e-06
1.11212e-06
1.15743e-06
1.16023e-06
1.937e-06
2.92456e-06
1.19613e-06
1.01784e-06
8.61116e-07
6.98905e-07
6.32796e-07
6.35363e-07
6.51657e-07
6.57969e-07
6.86413e-07
8.0446e-07
1.05836e-06
1.2628e-06
1.24796e-06
1.09808e-06
9.44347e-07
8.85584e-07
1.02638e-06
1.67535e-06
2.41237e-06
2.30074e-06
1.62962e-06
1.28615e-06
1.19583e-06
1.21047e-06
1.18637e-06
1.13721e-06
1.07459e-06
1.019e-06
1.34019e-06
2.5043e-06
1.15545e-06
1.08837e-06
9.36672e-07
7.90541e-07
6.86813e-07
6.435e-07
6.5687e-07
6.88987e-07
7.59763e-07
9.39872e-07
1.19435e-06
1.39015e-06
1.3014e-06
1.09151e-06
9.54294e-07
9.03314e-07
1.06983e-06
2.04045e-06
3.05905e-06
2.80012e-06
1.92971e-06
1.51195e-06
1.411e-06
1.38773e-06
1.27697e-06
1.12427e-06
9.90924e-07
9.71834e-07
1.24279e-06
2.2137e-06
1.12683e-06
1.12393e-06
1.09603e-06
9.50077e-07
8.03346e-07
7.37159e-07
7.26131e-07
7.71979e-07
8.67191e-07
1.09185e-06
1.32819e-06
1.47664e-06
1.37277e-06
1.06253e-06
9.61787e-07
9.18177e-07
1.08202e-06
2.41041e-06
3.84975e-06
3.36991e-06
2.24244e-06
1.75137e-06
1.63001e-06
1.54001e-06
1.35908e-06
1.16919e-06
1.00799e-06
9.18107e-07
1.18945e-06
2.45879e-06
1.16115e-06
1.10978e-06
1.17341e-06
1.09119e-06
9.39153e-07
9.29203e-07
8.81375e-07
8.95621e-07
1.00743e-06
1.20361e-06
1.55265e-06
1.56555e-06
1.28003e-06
9.91864e-07
9.61687e-07
9.27183e-07
1.02963e-06
2.58025e-06
4.78059e-06
4.14361e-06
2.63577e-06
2.04979e-06
1.89412e-06
1.76069e-06
1.56693e-06
1.37979e-06
1.20851e-06
1.09021e-06
1.26103e-06
2.53176e-06
1.28503e-06
1.16447e-06
1.23032e-06
1.25947e-06
1.17607e-06
1.14515e-06
1.09885e-06
1.05356e-06
1.15999e-06
1.48509e-06
1.83539e-06
1.55217e-06
1.09692e-06
9.28162e-07
9.57822e-07
9.35271e-07
9.39077e-07
2.58891e-06
5.7708e-06
5.16031e-06
3.18255e-06
2.44265e-06
2.23214e-06
2.09819e-06
1.95206e-06
1.83785e-06
1.71696e-06
1.55813e-06
1.73036e-06
2.88454e-06
1.48789e-06
1.25208e-06
1.31114e-06
1.4645e-06
1.49363e-06
1.42053e-06
1.406e-06
1.47876e-06
1.68652e-06
2.07028e-06
2.01902e-06
1.3757e-06
9.22947e-07
8.87171e-07
9.45184e-07
9.30351e-07
8.96933e-07
2.29571e-06
6.545e-06
6.35454e-06
3.87828e-06
2.93796e-06
2.66467e-06
2.57085e-06
2.53434e-06
2.55771e-06
2.61734e-06
2.56825e-06
2.81798e-06
3.3048e-06
1.81749e-06
1.5381e-06
1.57029e-06
1.78175e-06
1.95288e-06
1.92474e-06
1.89881e-06
2.03285e-06
2.69829e-06
3.12997e-06
1.91848e-06
1.0519e-06
8.26502e-07
8.72162e-07
9.34463e-07
9.14267e-07
8.85715e-07
1.61474e-06
6.44133e-06
7.60784e-06
4.71717e-06
3.53476e-06
3.18221e-06
3.14966e-06
3.22271e-06
3.43453e-06
3.84823e-06
4.27795e-06
5.22263e-06
3.99504e-06
2.4103e-06
2.10209e-06
2.13919e-06
2.42065e-06
2.72349e-06
2.80619e-06
2.75594e-06
2.87405e-06
4.29437e-06
4.45025e-06
1.62382e-06
8.55955e-07
7.89561e-07
8.61787e-07
9.27888e-07
9.11342e-07
9.00428e-07
1.21156e-06
4.8998e-06
8.5956e-06
5.77466e-06
4.28991e-06
3.79644e-06
3.7742e-06
3.91753e-06
4.23261e-06
4.90411e-06
6.23058e-06
9.32128e-06
5.11205e-06
3.33753e-06
3.07066e-06
3.15515e-06
3.5261e-06
3.94627e-06
4.17601e-06
4.12587e-06
4.16843e-06
6.2308e-06
5.19565e-06
1.31357e-06
7.69272e-07
7.79686e-07
8.54254e-07
9.16868e-07
9.22772e-07
9.30015e-07
1.12461e-06
3.25066e-06
8.6936e-06
7.3956e-06
5.46952e-06
4.6215e-06
4.42092e-06
4.53823e-06
4.79219e-06
5.39594e-06
6.99869e-06
1.51079e-05
6.65253e-06
4.61926e-06
4.52177e-06
4.80753e-06
5.39186e-06
6.00219e-06
6.42657e-06
6.49621e-06
6.30971e-06
7.46265e-06
4.69822e-06
1.17419e-06
7.48288e-07
7.82484e-07
8.67866e-07
9.25552e-07
9.56062e-07
9.74843e-07
1.11998e-06
2.51046e-06
9.0802e-06
1.23857e-05
7.37683e-06
6.01726e-06
5.2915e-06
5.20581e-06
5.27286e-06
5.61685e-06
6.54483e-06
1.52006e-05
8.43281e-06
6.16662e-06
6.3968e-06
7.27882e-06
8.75082e-06
2.54239e-05
9.40742e-05
0.000146621
9.2781e-05
3.31389e-05
4.85238e-06
1.26645e-06
7.97488e-07
8.4513e-07
9.4845e-07
1.00504e-06
1.01804e-06
1.02363e-06
1.16385e-06
2.09086e-06
7.41369e-06
1.27152e-05
1.03612e-05
8.0028e-06
6.64407e-06
6.1122e-06
5.97456e-06
6.01456e-06
6.36887e-06
1.23283e-05
1.01547e-05
7.90649e-06
9.06576e-06
0.000128014
0.00108444
0.00236635
0.00339628
0.00364698
0.00260065
0.000850337
7.93848e-06
1.74353e-06
9.66956e-07
1.01227e-06
1.11277e-06
1.14466e-06
1.09208e-06
1.07336e-06
1.18762e-06
1.80689e-06
5.51906e-06
1.01983e-05
1.03033e-05
1.05631e-05
8.12388e-06
7.4832e-06
7.14353e-06
6.79255e-06
6.93331e-06
1.21287e-05
3.71649e-05
1.81001e-05
0.000530493
0.00396357
0.00788469
0.00966114
0.010144
0.00849437
0.00716087
0.00709953
0.000169136
3.35217e-06
1.76355e-06
1.46026e-06
1.48674e-06
1.3143e-06
1.15175e-06
1.10131e-06
1.16511e-06
1.58031e-06
3.66808e-06
8.11156e-06
9.17295e-06
1.43141e-05
1.6083e-05
1.25243e-05
8.74482e-06
7.96028e-06
7.44781e-06
1.26675e-05
0.000137696
0.000930302
0.00553047
0.0108518
0.0111445
0.0111407
0.0104669
0.0052022
0.00400523
0.00655813
0.00649434
1.08623e-05
3.80128e-06
2.82515e-06
2.64924e-06
1.96147e-06
1.26807e-06
1.07366e-06
1.10197e-06
1.37641e-06
2.52804e-06
6.05054e-06
8.76418e-06
1.21436e-05
0.000139869
0.000609002
0.000579866
0.000116775
7.92209e-06
2.77334e-05
0.000244838
0.00551487
0.0110529
0.0111525
0.0111441
0.0110724
0.00480321
0.00155328
0.00102858
0.00101468
0.00651417
0.00255078
8.88152e-06
6.76387e-06
6.3876e-06
4.0707e-06
1.55849e-06
1.02698e-06
1.03611e-06
1.24033e-06
1.97245e-06
4.75976e-06
9.92386e-06
4.59579e-05
0.000922365
0.00459768
0.00539116
0.00276833
0.000237452
0.000238133
0.000227079
0.0108578
0.0111504
0.0111376
0.00943086
0.000109012
0.0037968
0.00151188
0.000570621
0.000586809
0.00222194
0.00255737
0.000710016
0.000135069
8.15448e-05
1.40457e-05
3.24414e-06
1.27459e-06
1.1721e-06
1.34075e-06
2.02487e-06
4.32382e-06
1.14738e-05
0.000567976
0.00360705
0.00575856
0.0058207
0.00579701
0.00386728
0.00139242
3.62576e-05
0.0110796
0.0111343
0.00864529
1.52296e-05
4.75642e-06
1.60238e-05
3.36583e-05
0.000100669
0.0016663
0.00254831
0.00254972
0.00254791
0.00200278
7.00192e-05
3.33898e-05
9.73236e-06
3.22581e-06
2.5867e-06
2.67863e-06
3.53252e-06
6.30412e-06
1.3204e-05
0.000818769
0.00343567
3.08758e-05
0.0056653
0.00581984
0.00579264
0.00125354
2.92212e-05
0.0110544
0.0109694
1.79158e-05
1.74759e-06
7.39163e-07
1.08318e-06
2.2679e-06
5.02216e-06
9.13942e-06
1.7739e-05
3.01218e-05
2.53206e-05
1.24167e-05
7.89528e-06
1.06695e-05
1.42854e-05
1.24974e-05
1.07454e-05
1.11894e-05
1.5325e-05
2.5462e-05
6.26096e-05
9.11555e-05
2.25252e-05
2.88042e-06
6.93303e-06
0.00561605
0.00578201
0.000140103
3.24412e-05
0.0109656
0.00223226
3.18816e-06
6.37086e-07
5.93046e-07
6.01031e-07
6.15776e-07
7.01046e-07
8.90748e-07
1.4943e-06
2.13415e-06
1.83545e-06
1.16586e-06
1.0188e-06
1.40578e-06
3.84639e-06
9.4236e-06
1.15489e-05
1.44952e-05
1.88425e-05
2.10293e-05
1.71267e-05
6.62855e-06
1.38531e-06
6.6054e-07
8.31704e-07
7.8158e-06
7.13186e-05
3.5785e-05
1.64841e-05
0.00745768
1.44681e-05
9.18107e-07
5.79722e-07
5.94361e-07
5.99021e-07
5.94786e-07
6.0757e-07
7.60544e-07
1.01916e-06
1.0505e-06
8.00627e-07
6.81221e-07
7.00499e-07
7.41536e-07
9.24502e-07
1.71153e-06
2.40317e-06
2.89693e-06
2.64292e-06
1.8887e-06
1.21247e-06
7.1407e-07
5.91209e-07
5.7823e-07
5.24452e-07
9.83503e-07
1.43027e-05
7.41426e-05
1.38777e-05
0.000791493
2.59704e-06
6.30459e-07
5.9674e-07
6.12795e-07
6.13032e-07
6.17712e-07
6.85443e-07
9.44463e-07
1.05487e-06
9.91522e-07
7.10662e-07
6.6106e-07
6.78885e-07
6.91069e-07
6.9677e-07
7.20339e-07
7.42111e-07
7.36604e-07
6.85501e-07
6.326e-07
5.97672e-07
5.76678e-07
5.66424e-07
5.52679e-07
5.09902e-07
6.31588e-07
7.36641e-06
0.000451764
1.37338e-05
7.01285e-06
1.26271e-06
6.44325e-07
6.1904e-07
6.32491e-07
6.34344e-07
6.5844e-07
8.13344e-07
1.06161e-06
1.05056e-06
8.51134e-07
6.6232e-07
6.51691e-07
6.65469e-07
6.69187e-07
6.68324e-07
6.59905e-07
6.49846e-07
6.37137e-07
6.21952e-07
6.03977e-07
5.8917e-07
5.74593e-07
5.64354e-07
5.48579e-07
5.16253e-07
6.32814e-07
6.62099e-06
0.0010969
1.29394e-05
3.38387e-06
1.22182e-06
6.90847e-07
6.44061e-07
6.54236e-07
6.66928e-07
7.31903e-07
9.4148e-07
1.03921e-06
1.00693e-06
7.39718e-07
6.43756e-07
6.35234e-07
6.45409e-07
6.5624e-07
6.55137e-07
6.48753e-07
6.42368e-07
6.32615e-07
6.20514e-07
6.05172e-07
5.90854e-07
5.78351e-07
5.68477e-07
5.52808e-07
5.307e-07
6.48437e-07
6.83523e-06
0.0015466
1.28013e-05
3.6413e-06
1.32289e-06
7.47419e-07
6.87792e-07
6.98893e-07
7.34966e-07
8.62575e-07
1.01378e-06
1.00607e-06
8.1119e-07
6.66026e-07
6.33508e-07
6.35721e-07
6.41642e-07
6.47326e-07
6.48421e-07
6.42593e-07
6.38029e-07
6.30421e-07
6.21327e-07
6.09232e-07
5.95687e-07
5.82652e-07
5.74611e-07
5.60012e-07
5.4829e-07
6.69197e-07
4.44186e-06
0.00155118
0.000136232
5.50495e-06
1.44794e-06
8.11826e-07
7.48462e-07
7.58929e-07
8.36335e-07
9.81337e-07
9.69028e-07
8.23219e-07
6.78648e-07
6.3286e-07
6.27279e-07
6.2916e-07
6.36142e-07
6.45403e-07
6.47065e-07
6.42759e-07
6.389e-07
6.32208e-07
6.23103e-07
6.11481e-07
5.98059e-07
5.86091e-07
5.82299e-07
5.69534e-07
5.67553e-07
7.14734e-07
2.61322e-06
7.3886e-05
0.000453562
7.12164e-06
1.52167e-06
8.63773e-07
8.04581e-07
8.07075e-07
8.73118e-07
9.26234e-07
8.63788e-07
7.14615e-07
6.23796e-07
6.09135e-07
6.22769e-07
6.3272e-07
6.38183e-07
6.4376e-07
6.45734e-07
6.43345e-07
6.39597e-07
6.33162e-07
6.23458e-07
6.12039e-07
5.9933e-07
5.90347e-07
5.91054e-07
5.8484e-07
5.92908e-07
7.54816e-07
2.22044e-06
1.51644e-05
0.000456923
5.12956e-06
1.51628e-06
8.94598e-07
8.18851e-07
7.8591e-07
7.85727e-07
8.04943e-07
7.85981e-07
6.93919e-07
6.09779e-07
5.8233e-07
6.10596e-07
6.37802e-07
6.43131e-07
6.43963e-07
6.46482e-07
6.4472e-07
6.39527e-07
6.32696e-07
6.22596e-07
6.11069e-07
6.00616e-07
5.95388e-07
6.00177e-07
6.04346e-07
6.24084e-07
8.33674e-07
2.36702e-06
1.15842e-05
9.67601e-06
4.07809e-06
1.78778e-06
8.61264e-07
7.62341e-07
7.40723e-07
7.38192e-07
7.44468e-07
7.39217e-07
7.20226e-07
6.68783e-07
5.988e-07
5.96949e-07
6.35016e-07
6.54692e-07
6.47897e-07
6.49598e-07
6.47395e-07
6.40406e-07
6.31653e-07
6.2065e-07
6.09832e-07
6.01701e-07
6.00171e-07
6.13175e-07
6.25585e-07
6.60084e-07
9.5004e-07
2.71876e-06
1.02085e-05
5.97941e-06
7.2752e-06
2.45373e-06
8.86305e-07
7.39302e-07
7.08905e-07
7.15724e-07
7.20805e-07
7.43623e-07
7.90924e-07
7.94049e-07
6.83699e-07
6.13352e-07
6.22778e-07
6.56803e-07
6.59612e-07
6.51787e-07
6.48678e-07
6.41291e-07
6.30203e-07
6.19015e-07
6.09039e-07
6.04232e-07
6.10832e-07
6.35502e-07
6.62752e-07
7.14467e-07
1.1713e-06
3.34417e-06
9.04969e-06
6.68367e-06
2.3962e-05
8.10548e-06
1.35665e-06
7.79034e-07
7.3767e-07
7.33297e-07
7.63518e-07
8.24045e-07
8.96731e-07
9.34736e-07
8.16375e-07
6.8053e-07
6.28821e-07
6.39597e-07
6.61065e-07
6.57066e-07
6.48139e-07
6.39959e-07
6.30587e-07
6.21611e-07
6.1593e-07
6.1992e-07
6.4423e-07
6.88376e-07
7.31433e-07
8.50245e-07
1.59882e-06
4.6485e-06
1.63599e-05
0.000178983
0.000108394
2.29677e-05
2.35555e-06
9.40339e-07
8.3254e-07
8.25328e-07
9.04656e-07
1.055e-06
1.14753e-06
1.15152e-06
9.32844e-07
7.86389e-07
6.85878e-07
6.40379e-07
6.44964e-07
6.56993e-07
6.55065e-07
6.47344e-07
6.44184e-07
6.43494e-07
6.47838e-07
6.68761e-07
7.19712e-07
7.6795e-07
9.22387e-07
1.23422e-06
2.37603e-06
6.30439e-06
0.000319071
0.000350526
0.000348747
9.69096e-06
2.92009e-06
1.32938e-06
1.10848e-06
1.13414e-06
1.24084e-06
1.41399e-06
1.52762e-06
1.47102e-06
1.14954e-06
8.9636e-07
7.83244e-07
7.03417e-07
6.69595e-07
6.6955e-07
6.78457e-07
6.77377e-07
6.80396e-07
6.89083e-07
7.1034e-07
7.57427e-07
8.22943e-07
1.04213e-06
1.43464e-06
2.18738e-06
3.98597e-06
7.60653e-06
0.00038695
0.00035204
8.35109e-05
7.97397e-06
3.85066e-06
2.22381e-06
1.90452e-06
1.89623e-06
1.98892e-06
2.10988e-06
2.14633e-06
1.91718e-06
1.44124e-06
1.06329e-06
9.02788e-07
8.07638e-07
7.54712e-07
7.39814e-07
7.36623e-07
7.3881e-07
7.44333e-07
7.65979e-07
8.05822e-07
8.95443e-07
1.16589e-06
1.70182e-06
2.70537e-06
4.43891e-06
6.97932e-06
9.05775e-06
1.90672e-05
0.000347713
9.62559e-06
8.06629e-06
6.02603e-06
4.66501e-06
4.17896e-06
4.07463e-06
3.98757e-06
3.80952e-06
3.45153e-06
2.74431e-06
1.93046e-06
1.36337e-06
1.0546e-06
9.36238e-07
8.68517e-07
8.43938e-07
8.38456e-07
8.47865e-07
8.62985e-07
8.94305e-07
1.05607e-06
1.40866e-06
2.15506e-06
3.59144e-06
5.96715e-06
8.93797e-06
1.67833e-05
4.43603e-05
1.95544e-05
1.07071e-05
9.46486e-06
9.95004e-06
1.15021e-05
1.17386e-05
1.13996e-05
1.08958e-05
9.96413e-06
8.63262e-06
6.91777e-06
4.80985e-06
3.03278e-06
1.96883e-06
1.41576e-06
1.14103e-06
1.01974e-06
9.95385e-07
9.88524e-07
1.03615e-06
1.15899e-06
1.42079e-06
1.97823e-06
3.17068e-06
5.42466e-06
8.67376e-06
1.40483e-05
0.000142343
0.000245617
0.000368509
0.000144521
1.10608e-05
1.36345e-05
0.000402743
0.00211472
0.00247073
0.0024414
0.0023703
0.00176171
0.000909198
0.000183076
1.0577e-05
6.10119e-06
3.46327e-06
2.24433e-06
1.70291e-06
1.47578e-06
1.40804e-06
1.44793e-06
1.67775e-06
2.1555e-06
3.14317e-06
5.07505e-06
8.38507e-06
1.24439e-05
0.000154882
0.000440046
0.00065514
0.000636919
0.000686304
0.00064078
3.31055e-05
0.00153724
0.00476532
0.00476563
0.002637
0.00225158
0.00212179
0.00179433
0.00173989
0.0016501
0.000891322
1.62459e-05
7.47879e-06
4.37178e-06
3.12792e-06
2.67225e-06
2.57322e-06
2.7718e-06
3.5756e-06
5.22376e-06
8.11353e-06
1.21104e-05
9.02853e-05
0.000398249
0.000772946
0.00114286
0.00133033
0.00115991
0.000879442
0.000757566
0.00120001
0.00476838
0.00476803
0.00113164
0.000352034
0.000394001
0.000427298
0.000561071
0.000744468
0.00101755
0.000996111
0.000865479
3.34888e-05
9.54412e-06
6.74379e-06
5.76609e-06
5.62763e-06
6.35842e-06
8.59266e-06
1.22366e-05
4.61289e-05
0.000301668
0.000627938
0.000987597
0.00143592
0.00191632
0.00216717
0.00189672
0.00122648
0.000758381
0.00475591
0.00476896
0.00116985
1.23304e-05
1.21604e-05
1.55356e-05
0.000116677
0.000128026
0.000128081
0.000200185
0.000468852
0.000769306
0.000799811
0.000103895
1.39807e-05
1.22846e-05
1.21162e-05
1.36839e-05
3.0981e-05
0.000240575
0.000573873
0.000911771
0.00123666
0.00160615
0.00211229
0.00270782
0.00308622
0.00280679
0.0017965
0.000774551
0.00473888
0.00176605
1.23797e-05
9.17038e-06
8.98004e-06
1.08413e-05
1.329e-05
2.18787e-05
2.47955e-05
2.64719e-05
0.000143986
0.000604748
0.00111581
0.00107977
0.000515537
0.000247922
0.000209493
0.000338958
0.000581713
0.000874808
0.00120217
0.00155801
0.0019102
0.00229213
0.00281938
0.00348907
0.00399709
0.00379849
0.0025684
0.000892557
0.00218782
1.57774e-05
1.08121e-05
8.60558e-06
8.43925e-06
1.12095e-05
1.57953e-05
1.24152e-05
1.24498e-05
1.38474e-05
9.58355e-05
0.000620829
0.00147437
0.00189499
0.00173851
0.00143077
0.00129751
0.00131178
0.00142584
0.00163316
0.00193598
0.00230339
0.00267588
0.00306273
0.00358397
0.00427926
0.00486987
0.00477685
0.00343434
0.00115096
0.000371961
1.00586e-05
1.04755e-05
8.66841e-06
9.43332e-06
0.000113461
0.000525701
1.34204e-05
1.16423e-05
1.32741e-05
0.000141061
0.000872453
0.00199165
0.00266378
0.00280373
0.00267775
0.0025367
0.0024759
0.00250055
0.00263193
0.00287575
0.00320731
0.00356742
0.00394517
0.00444207
0.00512062
0.00573198
0.00569514
0.00425882
0.00153585
1.25071e-05
1.03795e-05
1.00623e-05
1.14597e-05
0.000209915
0.0040112
0.00355337
1.4882e-05
1.24683e-05
1.40054e-05
0.000321832
0.00132752
0.00256552
0.00345351
0.00387503
0.00397511
0.00393142
0.00387664
0.0038605
0.00391584
0.00407094
0.00432643
0.00463794
0.00498298
0.00543544
0.00606133
0.00664094
0.00659155
0.00504373
0.00205388
1.04616e-05
1.12224e-05
3.86073e-05
0.00150785
0.00731235
0.00468049
0.00242043
1.52128e-05
1.26755e-05
4.95476e-05
0.000695452
0.00188486
0.00320243
0.00428454
0.00498535
0.00533731
0.00545933
0.0054742
0.00546001
0.00546519
0.00553861
0.00570473
0.00594168
0.00622783
0.0066124
0.00715291
0.00765775
0.00753894
0.00587083
0.00275762
1.28342e-05
0.000467661
0.00785833
0.00790883
0.00741141
0.00321409
0.00247515
0.000186458
1.51168e-05
0.000326998
0.00138123
0.0027004
0.00407145
0.00527528
0.0061777
0.00675208
0.00706244
0.0071989
0.00723975
0.00724593
0.00727455
0.00736659
0.00752373
0.00773439
0.00803078
0.00845698
0.00884955
0.00862004
0.0068404
0.00372914
0.000322873
0.00790413
0.00795047
0.0065263
0.0024348
0.00244925
0.0035941
0.00272784
0.000383779
0.00180743
0.0029931
0.00419679
0.00544
0.00660806
0.00758092
0.00829606
0.00876672
0.00904288
0.00918116
0.0092378
0.00927024
0.00932578
0.00942264
0.009561
0.00976234
0.010056
0.0103069
0.00994072
0.00807352
0.00507893
0.007942
0.00795582
0.00709876
7.08015e-05
0.00038683
0.00167575
0.00565142
0.00899207
0.00540194
0.00638893
0.00638272
0.00682187
0.00756898
0.00847186
0.00935596
0.0101027
0.0106708
0.0110668
0.0113163
0.0114564
0.0115368
0.0116036
0.0116811
0.0117758
0.0118998
0.0120651
0.0121617
0.0116518
0.00973519
0.00696083
0.00795612
0.00498744
1.6656e-05
1.48253e-05
0.000174973
0.00294362
0.0121193
0.0176433
0.0159554
0.0133275
0.011437
0.0106036
0.0105333
0.0109752
0.011632
0.0123063
0.0128994
0.0133743
0.0137243
0.0139611
0.0141209
0.0142459
0.0143593
0.0144666
0.0145667
0.0146467
0.0146075
0.0139771
0.0120687
0.00960665
0.0058911
1.46797e-05
1.35902e-05
1.46085e-05
0.00123284
0.015536
0.0278483
0.0268318
0.023319
0.0197341
0.0168528
0.0149731
0.0141366
0.0140822
0.0144586
0.0150003
0.0155646
0.0160784
0.0165083
0.016842
0.0171008
0.0173254
0.0175394
0.0177454
0.017925
0.0180346
0.0179673
0.0172606
0.0154504
0.0133934
1.80315e-05
1.30595e-05
1.396e-05
0.000467599
0.0244831
0.0374255
0.037528
0.0276768
0.0243462
0.0232402
0.0212162
0.0191651
0.0179887
0.0176421
0.0178068
0.0182234
0.018742
0.0192701
0.0197609
0.0201876
0.0205594
0.0209211
0.0213073
0.0217355
0.0222044
0.0226877
0.0229385
0.0221906
0.02051
0.018994
1.62938e-05
1.26971e-05
0.000584796
0.0333146
0.0375883
0.0376759
0.0334346
0.0223574
0.0220684
0.023061
0.0236122
0.0225985
0.0217468
0.0214977
0.0216268
0.0219635
0.0224591
0.0229961
0.0235343
0.0240525
0.0245517
0.0250863
0.0257229
0.0265578
0.027823
0.0293668
0.028999
0.0304725
0.0285179
0.0277101
1.59738e-05
0.000425774
0.0368153
0.0376522
0.0377057
0.0372616
0.0128189
0.0107238
0.015368
0.0207236
0.0239508
0.0250717
0.0252864
0.025615
0.0258798
0.0260991
0.0266463
0.0272297
0.0278228
0.0284476
0.029098
0.0298423
0.0308163
0.0322993
0.0346195
0.0360037
0.0315919
0.043705
0.0416327
0.0414195
4.83883e-05
0.0324089
0.0376478
0.037705
0.0370723
0.00338905
0.00114362
0.00205684
0.00715379
0.0161701
0.0234108
0.0270138
0.0288242
0.0300921
0.0304298
0.0303124
0.0310507
0.031824
0.0325573
0.0333599
0.0342188
0.0352176
0.0365463
0.0383755
0.0383021
0.0383049
0.033664
0.0553246
0.0584875
0.0586932
0.00601782
0.0374395
0.0377022
0.0370208
0.00127432
1.58798e-05
3.92502e-05
0.000174334
0.00273324
0.0123308
0.0230593
0.0292663
0.0328425
0.0349809
0.0349299
0.0343082
0.0353513
0.036543
0.0376343
0.0388019
0.0400278
0.0413301
0.0425424
0.0427212
0.0371427
0.0362023
0.0353598
0.0481721
0.064484
0.069329
0.0348238
0.0376481
0.0369562
0.000510951
1.29142e-05
1.30732e-05
1.41582e-05
2.00792e-05
0.00133175
0.01096
0.024036
0.032667
0.0377379
0.0400587
0.0390066
0.0379974
0.0393817
0.0411725
0.0429541
0.0448524
0.0468667
0.0486752
0.0488328
0.0450773
0.0383299
0.0383655
0.0378767
0.0385716
0.0483872
0.070076
0.0375699
0.0364872
0.000321673
1.05438e-05
1.10568e-05
1.24688e-05
1.27641e-05
1.37925e-05
0.000685127
0.0109291
0.026986
0.0377869
0.0434863
0.0447805
0.0422134
0.0410257
0.0427077
0.0452409
0.0481725
0.0513949
0.0550903
0.0587294
0.0580323
0.0480613
0.0405979
0.041725
0.0417224
0.0408651
0.0415472
0.0700379
0.0367941
3.90815e-05
1.0165e-05
1.02596e-05
1.15212e-05
1.45513e-05
1.34326e-05
1.28336e-05
0.000348481
0.0108745
0.0316065
0.0446494
0.0495365
0.0483763
0.0438039
0.042476
0.0441895
0.0474291
0.0517582
0.0570606
0.0635702
0.071902
0.0749542
0.0599945
0.0452975
0.0458916
0.0462229
0.046592
0.0429957
0.0625895
0.00257966
8.32898e-06
1.06682e-05
1.02403e-05
1.387e-05
0.000104176
4.14727e-05
1.33037e-05
0.000166572
0.0103626
0.0375343
0.0528982
0.0549564
0.0499258
0.0431574
0.0414175
0.0428341
0.0463178
0.0515059
0.0590999
0.0695297
0.0771382
0.0800396
0.0785463
0.070279
0.0623351
0.0602079
0.0653774
0.054465
0.068056
1.66286e-05
8.18328e-06
1.07721e-05
1.09184e-05
2.67559e-05
0.000747199
0.000424655
1.38991e-05
6.93763e-05
0.00957477
0.044814
0.0616079
0.0588228
0.0488155
0.03914
0.0363896
0.0373028
0.0411686
0.0474759
0.0562209
0.070169
0.0789191
0.0841916
0.0869171
0.0857393
0.0831835
0.0815885
0.0826812
0.0807492
0.0820277
1.44023e-05
9.68651e-06
1.08303e-05
1.25317e-05
0.000141184
0.00149443
0.000430722
1.42052e-05
3.70649e-05
0.0095548
0.053251
0.0682857
0.0599368
0.0439877
0.0306235
0.0267925
0.0275773
0.0319366
0.0390883
0.0489488
0.0654506
0.079069
0.0869863
0.0948396
0.0989144
0.0983242
0.0967303
0.0963669
0.0962227
0.096855
1.45495e-05
1.04732e-05
1.11902e-05
1.3656e-05
0.000384915
0.00151233
0.000330244
1.45746e-05
3.56057e-05
0.0104932
0.0610284
0.069548
0.0585461
0.0351127
0.018728
0.015364
0.0170133
0.0221408
0.0300705
0.0407295
0.0579847
0.078271
0.0885872
0.10183
0.110161
0.110423
0.1097
0.108006
0.108309
0.109483
1.37162e-05
1.03318e-05
1.10376e-05
1.39443e-05
0.000561156
0.00149746
5.64301e-05
1.62593e-05
9.00032e-05
0.0137041
0.0662322
0.0698686
0.0541769
0.0216591
0.00698995
0.00646296
0.00954548
0.015857
0.0249126
0.0365292
0.0534623
0.0772021
0.0875759
0.098491
0.101738
0.110367
0.110637
0.110669
0.110717
0.110897
1.27882e-05
1.00959e-05
1.12617e-05
1.45027e-05
0.00062358
0.0015183
1.5689e-05
1.64223e-05
0.00024129
0.0183759
0.0684135
0.0695136
0.0428813
0.00518939
0.00130961
0.00244248
0.00666477
0.0148002
0.0253455
0.0375067
0.0527528
0.0727126
0.0702289
0.0203034
0.00406028
0.0347678
0.0986022
0.105118
0.107529
0.110241