/*--------------------------------*- C++ -*----------------------------------*\
| =========                 |                                                 |
| \\      /  F ield         | OpenFOAM: The Open Source CFD Toolbox           |
|  \\    /   O peration     | Version:  v1606+                                |
|   \\  /    A nd           | Web:      www.OpenFOAM.com                      |
|    \\/     M anipulation  |                                                 |
\*---------------------------------------------------------------------------*/
FoamFile
{
    version     2.0;
    format      ascii;
    class       volVectorField;
    location    "1.47";
    object      U.particlesMean;
}
// * * * * * * * * * * * * * * * * * * * * * * * * * * * * * * * * * * * * * //

dimensions      [0 1 -1 0 0 0 0];

internalField   nonuniform List<vector> 
6000
(
(-0.00703283 -0.337966 0)
(0.00107416 -0.370177 0)
(0.0127086 -0.374351 0)
(0.0186812 -0.385328 0)
(0.0202036 -0.400082 0)
(0.0178668 -0.415383 0)
(0.0148378 -0.428195 0)
(0.0103047 -0.435061 0)
(0.0059096 -0.435211 0)
(0.00236967 -0.440184 0)
(-0.00110486 -0.442692 0)
(-0.00330062 -0.446116 0)
(-0.00496098 -0.448827 0)
(-0.00657032 -0.452141 0)
(-0.00821578 -0.452792 0)
(-0.00978255 -0.45246 0)
(-0.0111121 -0.451731 0)
(-0.0125416 -0.452245 0)
(-0.0144641 -0.458313 0)
(-0.0173192 -0.456204 0)
(-0.0214953 -0.447413 0)
(-0.0264147 -0.432264 0)
(-0.0308997 -0.420502 0)
(-0.0342498 -0.409196 0)
(-0.0357946 -0.394526 0)
(-0.0346678 -0.379382 0)
(-0.0285483 -0.363802 0)
(-0.0178749 -0.356252 0)
(-0.00331874 -0.357239 0)
(0.00586267 -0.3326 0)
(0.0183907 0.0280753 0)
(0.014408 0.0476201 0)
(0.0282656 0.0488909 0)
(0.0400017 0.055674 0)
(0.046328 0.064208 0)
(0.0436569 0.0700086 0)
(0.0304788 0.0689444 0)
(0.0152889 0.0677992 0)
(0.00466319 0.0666332 0)
(0.000370651 0.0650792 0)
(-0.00362191 0.0652887 0)
(-0.00709211 0.0656986 0)
(-0.00971877 0.0616418 0)
(-0.0122313 0.0579232 0)
(-0.013256 0.0540057 0)
(-0.012951 0.0535808 0)
(-0.0129725 0.0550184 0)
(-0.0136994 0.0565637 0)
(-0.0164028 0.0638341 0)
(-0.0227073 0.0689147 0)
(-0.0309932 0.0669446 0)
(-0.0394766 0.06786 0)
(-0.0526244 0.0700756 0)
(-0.062406 0.0654242 0)
(-0.063689 0.0577766 0)
(-0.0568383 0.052178 0)
(-0.0422062 0.0452236 0)
(-0.0267883 0.0437271 0)
(-0.012758 0.047696 0)
(-0.0179072 0.0310791 0)
(0.00459483 -0.0484978 0)
(0.00745356 -0.0624195 0)
(0.0217628 -0.0667465 0)
(0.0323677 -0.0604256 0)
(0.0417195 -0.0454059 0)
(0.0447966 -0.0260865 0)
(0.0377854 -0.0153849 0)
(0.0241491 -0.0159416 0)
(0.0140794 -0.0262614 0)
(0.00689796 -0.032739 0)
(0.00038514 -0.037466 0)
(-0.004981 -0.0399388 0)
(-0.00957061 -0.0395326 0)
(-0.0134203 -0.0398167 0)
(-0.0143543 -0.041844 0)
(-0.0146483 -0.0431936 0)
(-0.0160202 -0.0436798 0)
(-0.0195109 -0.0425897 0)
(-0.0243005 -0.037639 0)
(-0.029845 -0.0319712 0)
(-0.0385053 -0.0250285 0)
(-0.0473292 -0.0193109 0)
(-0.0554833 -0.0186522 0)
(-0.0613057 -0.0287707 0)
(-0.0598413 -0.0458036 0)
(-0.0481166 -0.0612836 0)
(-0.033593 -0.0688975 0)
(-0.0220109 -0.0691931 0)
(-0.00811427 -0.0609986 0)
(-0.00684463 -0.048481 0)
(0.0103617 -0.0553116 0)
(0.00896273 -0.0630183 0)
(0.0140357 -0.0616075 0)
(0.0179874 -0.0536443 0)
(0.030556 -0.0400954 0)
(0.0385709 -0.0233661 0)
(0.0422864 -0.0100232 0)
(0.0370097 -0.00691195 0)
(0.0287172 -0.00902748 0)
(0.0183184 -0.0104136 0)
(0.0086269 -0.0118289 0)
(-0.00157331 -0.0115163 0)
(-0.0108172 -0.0134305 0)
(-0.0143633 -0.0211637 0)
(-0.0129551 -0.0287165 0)
(-0.0110349 -0.0290703 0)
(-0.0116166 -0.0236064 0)
(-0.017455 -0.0166395 0)
(-0.0277152 -0.0113604 0)
(-0.038292 -0.00869098 0)
(-0.0471537 -0.00709207 0)
(-0.0539686 -0.00628185 0)
(-0.0569969 -0.00859342 0)
(-0.05704 -0.0222961 0)
(-0.0478998 -0.0439485 0)
(-0.0328517 -0.0591929 0)
(-0.0216103 -0.0663434 0)
(-0.0161794 -0.0668769 0)
(-0.0115021 -0.0642989 0)
(-0.0095784 -0.0562211 0)
(0.0048097 -0.0718462 0)
(0.0039304 -0.0794679 0)
(0.00664275 -0.0796955 0)
(0.00791882 -0.0766392 0)
(0.0179334 -0.0643048 0)
(0.0297029 -0.0467703 0)
(0.0384887 -0.0275807 0)
(0.0417391 -0.0189563 0)
(0.0370589 -0.0178676 0)
(0.0273272 -0.0186611 0)
(0.0169753 -0.0194678 0)
(0.00446317 -0.0190403 0)
(-0.00556939 -0.0253484 0)
(-0.0093145 -0.0407031 0)
(-0.00689301 -0.0513659 0)
(-0.00336198 -0.0506526 0)
(-0.00302257 -0.0404098 0)
(-0.00851713 -0.0269016 0)
(-0.0208299 -0.0173612 0)
(-0.0337642 -0.0166124 0)
(-0.0428771 -0.0176124 0)
(-0.0481284 -0.0179719 0)
(-0.0507151 -0.0240153 0)
(-0.0480969 -0.0435417 0)
(-0.0382635 -0.0713927 0)
(-0.0243011 -0.0867349 0)
(-0.0124762 -0.0906149 0)
(-0.00897906 -0.0858829 0)
(-0.00579511 -0.0817767 0)
(-0.00479819 -0.0730507 0)
(0.00165684 -0.0736187 0)
(-0.0010058 -0.0786143 0)
(-0.000727675 -0.0827884 0)
(0.00424413 -0.0851597 0)
(0.0114446 -0.0754741 0)
(0.0236671 -0.0578438 0)
(0.0324633 -0.0384066 0)
(0.0407049 -0.0251463 0)
(0.0385306 -0.0179566 0)
(0.0299226 -0.0177188 0)
(0.0186005 -0.0212054 0)
(0.00556036 -0.0261689 0)
(-0.00253145 -0.0382341 0)
(-0.0041527 -0.0538704 0)
(-0.00137246 -0.064538 0)
(0.00397254 -0.0629237 0)
(0.00614304 -0.0504614 0)
(0.00225658 -0.0356777 0)
(-0.00588327 -0.0243666 0)
(-0.0179072 -0.0184181 0)
(-0.0303816 -0.0156934 0)
(-0.0408907 -0.0172023 0)
(-0.044927 -0.0277937 0)
(-0.0404822 -0.0520859 0)
(-0.0302672 -0.0803437 0)
(-0.0171604 -0.0954187 0)
(-0.00784435 -0.0971624 0)
(-0.00181588 -0.089128 0)
(-0.00119013 -0.0809849 0)
(-0.00221047 -0.0747061 0)
(-0.00204111 -0.0655049 0)
(-0.00425975 -0.0777921 0)
(-0.00347523 -0.0869638 0)
(0.00158457 -0.0915677 0)
(0.0113201 -0.0879666 0)
(0.0228488 -0.0664699 0)
(0.0294284 -0.0442465 0)
(0.038876 -0.0301348 0)
(0.0384961 -0.0168871 0)
(0.0280024 -0.0154524 0)
(0.0170578 -0.0207584 0)
(0.00638081 -0.0268809 0)
(0.0014121 -0.0402203 0)
(0.000813516 -0.0591429 0)
(0.00337812 -0.0717508 0)
(0.00851659 -0.070246 0)
(0.0110334 -0.0561308 0)
(0.00836273 -0.03807 0)
(0.00181274 -0.0245803 0)
(-0.00742963 -0.0182288 0)
(-0.018507 -0.0125191 0)
(-0.029726 -0.0136371 0)
(-0.0356175 -0.0291617 0)
(-0.0307782 -0.0565297 0)
(-0.0240583 -0.0865083 0)
(-0.0144833 -0.100868 0)
(-0.00585971 -0.102615 0)
(2.80262e-05 -0.0935916 0)
(0.00152178 -0.0818879 0)
(0.00131135 -0.0683536 0)
(-0.00158108 -0.0570166 0)
(-0.00312065 -0.0708359 0)
(-0.00253515 -0.0822463 0)
(0.00455516 -0.0918276 0)
(0.0132075 -0.0903943 0)
(0.0212543 -0.071938 0)
(0.0244732 -0.0451571 0)
(0.0289151 -0.0302073 0)
(0.0309503 -0.0132444 0)
(0.0234014 -0.00671597 0)
(0.0113455 -0.0126068 0)
(0.00553996 -0.0223159 0)
(0.0057879 -0.0378503 0)
(0.00677012 -0.0591533 0)
(0.00781883 -0.0724748 0)
(0.00996807 -0.0715185 0)
(0.012686 -0.0588395 0)
(0.012756 -0.0383213 0)
(0.0106697 -0.0237467 0)
(0.0040835 -0.0112852 0)
(-0.00717207 -0.00355277 0)
(-0.0168949 -0.0078675 0)
(-0.0209231 -0.0264503 0)
(-0.0196368 -0.0542228 0)
(-0.0175925 -0.0852933 0)
(-0.0143423 -0.100884 0)
(-0.0111541 -0.101316 0)
(-0.00315921 -0.091327 0)
(-0.000321922 -0.0773168 0)
(0.000657667 -0.0613867 0)
(-0.00150643 -0.052416 0)
(0.00113847 -0.0629343 0)
(0.00274154 -0.0768878 0)
(0.00868774 -0.0896526 0)
(0.0126564 -0.0889948 0)
(0.0170876 -0.0735629 0)
(0.0153821 -0.0424166 0)
(0.0162395 -0.0226137 0)
(0.0214788 -0.00751985 0)
(0.020577 0.0025091 0)
(0.0071448 0.00349922 0)
(0.00285705 -0.0115043 0)
(0.00850218 -0.0335975 0)
(0.0120219 -0.0555387 0)
(0.0122991 -0.0685001 0)
(0.0110504 -0.0679511 0)
(0.0129508 -0.0557075 0)
(0.0131764 -0.0316089 0)
(0.0143883 -0.0156277 0)
(0.0122045 0.00293029 0)
(0.00277922 0.0120992 0)
(-0.00718896 9.94739e-05 0)
(-0.00553715 -0.023019 0)
(-0.00399427 -0.0515694 0)
(-0.00703666 -0.0808778 0)
(-0.013744 -0.0980437 0)
(-0.0157011 -0.0989341 0)
(-0.0098586 -0.0881052 0)
(-0.00458378 -0.0730666 0)
(0.000615558 -0.0607405 0)
(0.00237616 -0.0493211 0)
(0.00866551 -0.05676 0)
(0.0124393 -0.0692448 0)
(0.0146005 -0.0840614 0)
(0.0128776 -0.0846434 0)
(0.0115273 -0.0666104 0)
(0.00697025 -0.0348469 0)
(0.00801371 -0.0163056 0)
(0.0130055 -4.05705e-05 0)
(0.0177703 0.0134863 0)
(0.0109927 0.0121536 0)
(0.0111166 -0.00221652 0)
(0.0142824 -0.0266569 0)
(0.0143492 -0.0503476 0)
(0.0141867 -0.0662131 0)
(0.0108902 -0.0656838 0)
(0.0116155 -0.0509625 0)
(0.0108199 -0.0249782 0)
(0.0182958 -0.00416366 0)
(0.0165298 0.0161007 0)
(0.00829719 0.0209164 0)
(0.00754175 0.00800732 0)
(0.00916872 -0.0200633 0)
(0.012251 -0.0463689 0)
(0.006959 -0.0710145 0)
(-0.00808796 -0.0899325 0)
(-0.0178433 -0.0933003 0)
(-0.0155041 -0.0823353 0)
(-0.00972834 -0.068257 0)
(-0.00150754 -0.058396 0)
(0.00370536 -0.050285 0)
(0.0120255 -0.0571672 0)
(0.0193128 -0.069171 0)
(0.0229638 -0.0818485 0)
(0.0115762 -0.0816462 0)
(0.00483438 -0.0582023 0)
(0.000983458 -0.0282219 0)
(0.00429956 -0.0108034 0)
(0.00574932 0.00572882 0)
(0.0134284 0.0245316 0)
(0.0112643 0.0231519 0)
(0.00957681 0.00592666 0)
(0.016129 -0.0250297 0)
(0.0222718 -0.0486596 0)
(0.0180982 -0.0612264 0)
(0.0100159 -0.0613806 0)
(0.00991153 -0.0463216 0)
(0.0111338 -0.0214176 0)
(0.0218868 0.00595092 0)
(0.0163334 0.0202809 0)
(0.0161695 0.0248901 0)
(0.0227304 0.0102241 0)
(0.0220005 -0.0131269 0)
(0.0257663 -0.0373341 0)
(0.0199664 -0.0595386 0)
(0.00186656 -0.0812989 0)
(-0.0159675 -0.0899302 0)
(-0.0172873 -0.0799802 0)
(-0.0120953 -0.0681669 0)
(-0.00288878 -0.0576465 0)
(0.00482727 -0.0532237 0)
(0.0122093 -0.0614859 0)
(0.019925 -0.0719793 0)
(0.0245499 -0.0822263 0)
(0.0115103 -0.0791469 0)
(-0.00298937 -0.0587269 0)
(-0.00440159 -0.0309136 0)
(-0.00260189 -0.00855442 0)
(0.00204595 0.00822967 0)
(0.00921021 0.0265975 0)
(0.0126328 0.0257502 0)
(0.00847247 0.00717557 0)
(0.0137031 -0.0252121 0)
(0.0207145 -0.0476837 0)
(0.0193969 -0.0574041 0)
(0.0118941 -0.0539061 0)
(0.00917392 -0.038851 0)
(0.0113658 -0.0176762 0)
(0.0230215 0.00923513 0)
(0.0183534 0.0249197 0)
(0.0185133 0.0281438 0)
(0.0269469 0.011391 0)
(0.0289688 -0.0123334 0)
(0.0292669 -0.0342474 0)
(0.0262926 -0.0534824 0)
(0.0108389 -0.0741985 0)
(-0.00909872 -0.0860747 0)
(-0.0131513 -0.0798526 0)
(-0.0096495 -0.0715243 0)
(-0.00261139 -0.0595949 0)
(0.00404063 -0.0568685 0)
(0.0091149 -0.0671077 0)
(0.0161515 -0.0770473 0)
(0.0185865 -0.0852371 0)
(0.0050352 -0.0740817 0)
(-0.0105015 -0.0538202 0)
(-0.0116467 -0.0256198 0)
(-0.00575896 -0.00296719 0)
(-0.00191526 0.0137665 0)
(0.00504315 0.0332232 0)
(0.00811193 0.0323141 0)
(0.00600402 0.00868433 0)
(0.0101746 -0.0219863 0)
(0.0186151 -0.0442716 0)
(0.0171652 -0.0521604 0)
(0.0103184 -0.0494733 0)
(0.00966302 -0.0385285 0)
(0.0182254 -0.0199683 0)
(0.0253766 0.0133779 0)
(0.0191791 0.0324597 0)
(0.0212192 0.0335853 0)
(0.0333817 0.0135992 0)
(0.0360539 -0.0101338 0)
(0.0343699 -0.0336484 0)
(0.0335077 -0.0522945 0)
(0.0155485 -0.0684075 0)
(-0.00109839 -0.0812028 0)
(-0.00734286 -0.0811636 0)
(-0.00547949 -0.0749331 0)
(-0.00235495 -0.0612512 0)
(0.00322715 -0.0589398 0)
(0.00599594 -0.0705534 0)
(0.0107947 -0.0789088 0)
(0.00864745 -0.0835129 0)
(-0.00478519 -0.0659314 0)
(-0.0155987 -0.0470977 0)
(-0.0115052 -0.0260359 0)
(-0.00676725 -0.00347606 0)
(-0.00477234 0.0118732 0)
(0.00244688 0.0315145 0)
(0.0115193 0.0313017 0)
(0.0121034 0.00791684 0)
(0.0127326 -0.0238391 0)
(0.0219973 -0.0426023 0)
(0.0182325 -0.0491609 0)
(0.00797552 -0.0460706 0)
(0.00466796 -0.0381907 0)
(0.0137553 -0.0234178 0)
(0.0181726 0.0146025 0)
(0.0177381 0.0377627 0)
(0.0220253 0.036295 0)
(0.0329037 0.0151294 0)
(0.0386246 -0.0102018 0)
(0.0377571 -0.0306275 0)
(0.0366009 -0.0480709 0)
(0.0202715 -0.0646961 0)
(0.0056336 -0.0742262 0)
(-0.00100948 -0.0794486 0)
(-0.00189223 -0.0764238 0)
(-0.00102122 -0.0612306 0)
(0.00276348 -0.0586587 0)
(0.00430752 -0.0717757 0)
(0.00661448 -0.0767007 0)
(0.000412463 -0.0815627 0)
(-0.0155945 -0.058541 0)
(-0.0177953 -0.0437301 0)
(-0.0121073 -0.0249572 0)
(-0.0105681 -0.00431854 0)
(-0.0079153 0.01251 0)
(0.000414109 0.0306991 0)
(0.0127269 0.0291009 0)
(0.0194527 0.00316676 0)
(0.0212834 -0.0265472 0)
(0.0283495 -0.0400246 0)
(0.0238514 -0.0468895 0)
(0.0137735 -0.044675 0)
(0.00503604 -0.0385616 0)
(0.00793331 -0.0291188 0)
(0.00833633 0.0174977 0)
(0.0135317 0.043287 0)
(0.0174777 0.0425858 0)
(0.0246147 0.0198312 0)
(0.0315809 -0.00931906 0)
(0.0313781 -0.0284565 0)
(0.0348845 -0.0462586 0)
(0.0228002 -0.0622442 0)
(0.0125373 -0.0712527 0)
(0.00557839 -0.074767 0)
(0.00205377 -0.0746533 0)
(0.000103682 -0.0589162 0)
(0.00159983 -0.0562748 0)
(0.00220698 -0.070749 0)
(0.00478511 -0.0759618 0)
(-0.00110334 -0.0749839 0)
(-0.0129455 -0.0563179 0)
(-0.0142966 -0.043018 0)
(-0.0175181 -0.0245048 0)
(-0.0159584 -0.00533291 0)
(-0.0100655 0.0128966 0)
(-2.85685e-05 0.0261346 0)
(0.0156941 0.0241508 0)
(0.0272638 -0.00268999 0)
(0.0244959 -0.032358 0)
(0.0293695 -0.0450281 0)
(0.0334103 -0.0476764 0)
(0.0246206 -0.0461032 0)
(0.0173788 -0.0418335 0)
(0.00909144 -0.0337808 0)
(0.00385251 0.011113 0)
(0.0114099 0.0415442 0)
(0.0121944 0.0447671 0)
(0.0178866 0.0233757 0)
(0.0191421 -0.00637587 0)
(0.0190479 -0.0268777 0)
(0.028078 -0.0467157 0)
(0.0226123 -0.0597162 0)
(0.0175995 -0.0622803 0)
(0.00880278 -0.0698288 0)
(0.00498442 -0.0684708 0)
(0.00123191 -0.0531069 0)
(0.00051389 -0.0530265 0)
(0.000403703 -0.0677423 0)
(0.000930244 -0.0745913 0)
(-0.00220908 -0.072081 0)
(-0.0122022 -0.0577409 0)
(-0.0094077 -0.0480522 0)
(-0.0141507 -0.0322906 0)
(-0.021483 -0.00912658 0)
(-0.0128017 0.013137 0)
(3.68749e-05 0.0233477 0)
(0.017031 0.022521 0)
(0.0321332 0.00203599 0)
(0.043013 -0.0346226 0)
(0.0316974 -0.0411114 0)
(0.037233 -0.0426404 0)
(0.0329149 -0.0454255 0)
(0.0319597 -0.0425064 0)
(0.015367 -0.0383694 0)
(0.00560597 0.00404093 0)
(0.00805505 0.0427892 0)
(0.0120035 0.045976 0)
(0.0187266 0.0220223 0)
(0.0155067 -0.00600054 0)
(0.0170924 -0.0284542 0)
(0.0182295 -0.05438 0)
(0.0132535 -0.0612544 0)
(0.00952701 -0.0555415 0)
(0.00598156 -0.0590824 0)
(0.00191517 -0.0622741 0)
(-0.00042927 -0.0456153 0)
(0.00145835 -0.0543544 0)
(0.00306129 -0.0697389 0)
(0.0045151 -0.070844 0)
(0.000649434 -0.0653925 0)
(-0.0121423 -0.0601585 0)
(-0.0123008 -0.0587594 0)
(-0.0182136 -0.041365 0)
(-0.0207939 -0.018348 0)
(-0.0133523 0.0102206 0)
(-0.0010227 0.0181585 0)
(0.0181251 0.0151318 0)
(0.0358203 -0.000805953 0)
(0.0508829 -0.0301344 0)
(0.0457481 -0.0444276 0)
(0.0453228 -0.0483172 0)
(0.0416579 -0.0448951 0)
(0.043393 -0.0428941 0)
(0.025572 -0.0410788 0)
(0.0055168 0.00340672 0)
(0.00983043 0.0341258 0)
(0.0153254 0.0380414 0)
(0.0221386 0.0173471 0)
(0.0216008 -0.00857636 0)
(0.0192058 -0.0340929 0)
(0.0100755 -0.0566699 0)
(0.00179258 -0.0557964 0)
(-0.00395209 -0.0462965 0)
(-0.00221576 -0.0498301 0)
(-0.00305754 -0.058258 0)
(-0.00460048 -0.0413033 0)
(0.00270404 -0.0510041 0)
(0.00502477 -0.0805087 0)
(0.00167205 -0.0744925 0)
(0.00206545 -0.059323 0)
(-0.00960033 -0.0595664 0)
(-0.0112236 -0.0657697 0)
(-0.0199349 -0.0584536 0)
(-0.0224903 -0.0322453 0)
(-0.0144028 -0.00506406 0)
(-0.0025401 0.0025579 0)
(0.0182406 -0.00223193 0)
(0.0382159 -0.0173576 0)
(0.0515362 -0.0440521 0)
(0.0572967 -0.0589465 0)
(0.0567868 -0.0633113 0)
(0.0490237 -0.0518766 0)
(0.046403 -0.0492245 0)
(0.0316785 -0.0360769 0)
(0.00782379 -0.00125576 0)
(0.0172548 0.0201235 0)
(0.02203 0.0200643 0)
(0.0310627 0.00624461 0)
(0.0278434 -0.0235552 0)
(0.0164314 -0.0506033 0)
(-6.1995e-05 -0.0587673 0)
(-0.00867009 -0.0485083 0)
(-0.0139968 -0.0441112 0)
(-0.00820255 -0.0527576 0)
(-0.00798166 -0.0567448 0)
(-0.00880439 -0.0399743 0)
(0.00333039 -0.0437062 0)
(0.00695378 -0.0752202 0)
(-0.000381789 -0.0844954 0)
(-0.00576888 -0.0727336 0)
(-0.015777 -0.0716989 0)
(-0.0220284 -0.0807064 0)
(-0.0308796 -0.0773731 0)
(-0.0288555 -0.056695 0)
(-0.0146161 -0.0335756 0)
(0.000104455 -0.0274206 0)
(0.0204948 -0.0342191 0)
(0.037061 -0.0499962 0)
(0.0531183 -0.0786429 0)
(0.0575068 -0.0872556 0)
(0.058742 -0.0809637 0)
(0.0528449 -0.0646086 0)
(0.0447537 -0.0507565 0)
(0.0318907 -0.0336024 0)
(0.0162951 -0.0061568 0)
(0.0268695 0.0111498 0)
(0.0284623 0.0107027 0)
(0.0357337 -0.00670796 0)
(0.0274868 -0.0461934 0)
(0.0141165 -0.0651567 0)
(0.00153034 -0.0661717 0)
(-0.00839253 -0.0580042 0)
(-0.0137367 -0.0582533 0)
(-0.0121965 -0.0677159 0)
(-0.0142253 -0.0645493 0)
(-0.0145653 -0.0485829 0)
(0.00593463 -0.0477689 0)
(0.00587635 -0.0783654 0)
(-0.0066454 -0.0956979 0)
(-0.0154658 -0.0914959 0)
(-0.0218023 -0.0890427 0)
(-0.026625 -0.0849763 0)
(-0.0338771 -0.0858273 0)
(-0.0324127 -0.0875017 0)
(-0.0165094 -0.0701997 0)
(0.000281759 -0.0598575 0)
(0.0183183 -0.0617743 0)
(0.0350532 -0.0793159 0)
(0.044481 -0.10445 0)
(0.0461063 -0.111464 0)
(0.0490014 -0.0961808 0)
(0.0453742 -0.0766984 0)
(0.036758 -0.0483769 0)
(0.0278127 -0.0303658 0)
(0.0183114 -0.0151133 0)
(0.0250118 0.00240774 0)
(0.032303 -0.00564387 0)
(0.0257759 -0.0245605 0)
(0.0245413 -0.042228 0)
(0.0132226 -0.059923 0)
(0.00278343 -0.0657989 0)
(-0.00430418 -0.0747221 0)
(-0.0058679 -0.0842083 0)
(-0.00860669 -0.0902063 0)
(-0.0156654 -0.0849305 0)
(-0.0146789 -0.0707188 0)
(0.0101183 -0.0877631 0)
(0.00156983 -0.107814 0)
(-0.0171471 -0.0999125 0)
(-0.0249528 -0.0798696 0)
(-0.0262767 -0.0734055 0)
(-0.027443 -0.06702 0)
(-0.0269487 -0.0786552 0)
(-0.0273337 -0.0979513 0)
(-0.0243574 -0.0997142 0)
(-0.00843024 -0.0819987 0)
(0.00978156 -0.0743289 0)
(0.0250124 -0.08687 0)
(0.0338132 -0.112168 0)
(0.0385904 -0.117228 0)
(0.0449514 -0.101129 0)
(0.039449 -0.0804443 0)
(0.0290159 -0.0432707 0)
(0.0231749 -0.0210134 0)
(0.0197037 -0.0122575 0)
(0.0236213 -0.00479327 0)
(0.0227746 -0.0120875 0)
(0.0172011 -0.0227419 0)
(0.0159826 -0.0356082 0)
(0.00722568 -0.0550519 0)
(0.00361982 -0.0661037 0)
(0.00313095 -0.0758748 0)
(0.00342224 -0.0877071 0)
(0.00194342 -0.100728 0)
(-0.00393782 -0.112904 0)
(-0.0106945 -0.104365 0)
(0.00262539 -0.105685 0)
(-0.00640463 -0.108904 0)
(-0.0141037 -0.090995 0)
(-0.0179686 -0.0726056 0)
(-0.0201046 -0.0638589 0)
(-0.0186048 -0.0604204 0)
(-0.016014 -0.0720053 0)
(-0.0179302 -0.089153 0)
(-0.0224545 -0.0981831 0)
(-0.0222627 -0.0966627 0)
(-0.00129889 -0.086526 0)
(0.0162664 -0.0908779 0)
(0.0275775 -0.110398 0)
(0.0335184 -0.110268 0)
(0.0372015 -0.0947775 0)
(0.0302049 -0.0684149 0)
(0.0214343 -0.0398505 0)
(0.0201588 -0.0145115 0)
(0.0223016 -0.0102241 0)
(0.0209598 -0.0133015 0)
(0.0168947 -0.0131031 0)
(0.0120192 -0.019995 0)
(0.00986131 -0.0299819 0)
(0.0052062 -0.0503067 0)
(0.00309887 -0.0668714 0)
(0.00556657 -0.0741313 0)
(0.00612933 -0.0848726 0)
(0.00607902 -0.0984587 0)
(0.00480334 -0.113163 0)
(-0.00358231 -0.116947 0)
(-0.0017829 -0.100801 0)
(-0.00999569 -0.0985208 0)
(-0.0130752 -0.081886 0)
(-0.0163884 -0.0649433 0)
(-0.0135395 -0.0593838 0)
(-0.00945597 -0.0589615 0)
(-0.00588286 -0.0665585 0)
(-0.00643813 -0.0804026 0)
(-0.0117479 -0.089774 0)
(-0.0172729 -0.0910695 0)
(-0.0103415 -0.0859821 0)
(0.00883291 -0.088584 0)
(0.0180026 -0.103356 0)
(0.0222049 -0.10226 0)
(0.0258433 -0.0858842 0)
(0.0220786 -0.0539364 0)
(0.0138823 -0.0303334 0)
(0.0191187 -0.0126076 0)
(0.0272592 -0.00812569 0)
(0.0211497 -0.0152025 0)
(0.0123321 -0.0131173 0)
(0.00618989 -0.0191124 0)
(0.00361072 -0.027598 0)
(0.000949882 -0.0500077 0)
(-0.00324239 -0.0682251 0)
(0.00282242 -0.0702446 0)
(0.0077992 -0.0778015 0)
(0.00736971 -0.091679 0)
(0.00594111 -0.103848 0)
(0.000903852 -0.109263 0)
(-0.00084664 -0.0880026 0)
(-0.00696997 -0.0868608 0)
(-0.0128148 -0.0723668 0)
(-0.0116575 -0.0594113 0)
(-0.00373849 -0.0574212 0)
(0.00221775 -0.0602411 0)
(0.00517282 -0.0637197 0)
(0.0014713 -0.0742798 0)
(-0.00440112 -0.0818964 0)
(-0.0080317 -0.0855847 0)
(-0.0127411 -0.0894928 0)
(-0.0078822 -0.0916466 0)
(0.00333878 -0.0966855 0)
(0.0107177 -0.0916846 0)
(0.014423 -0.0723309 0)
(0.00874757 -0.0450275 0)
(0.00581915 -0.0219662 0)
(0.016697 -0.00965855 0)
(0.0282757 -0.00803273 0)
(0.0241499 -0.0124173 0)
(0.0131151 -0.0123253 0)
(0.00452073 -0.0160088 0)
(0.00174275 -0.0254712 0)
(-0.000281578 -0.043684 0)
(-0.00344658 -0.0640385 0)
(-0.0032792 -0.0707913 0)
(0.00493595 -0.0733456 0)
(0.0078751 -0.083306 0)
(0.00276237 -0.0947023 0)
(0.00225529 -0.098022 0)
(-0.00281048 -0.0802388 0)
(-0.00822806 -0.0724685 0)
(-0.00955804 -0.0625203 0)
(-0.000657285 -0.059012 0)
(0.00848178 -0.0604027 0)
(0.0112404 -0.060156 0)
(0.013809 -0.0625528 0)
(0.0123295 -0.0655138 0)
(0.00315273 -0.0760933 0)
(-0.00344604 -0.0789749 0)
(-0.00896754 -0.0803444 0)
(-0.0131395 -0.0847515 0)
(-0.00879721 -0.091133 0)
(0.00046957 -0.0843898 0)
(0.00151058 -0.0586592 0)
(-0.00236449 -0.0379603 0)
(0.00179188 -0.0165512 0)
(0.014761 -0.00756005 0)
(0.0271043 -0.00752904 0)
(0.0271422 -0.0107078 0)
(0.0188253 -0.0125494 0)
(0.00688915 -0.0158461 0)
(0.0047721 -0.023043 0)
(0.000130902 -0.0364332 0)
(-0.00267482 -0.0532469 0)
(-0.00894756 -0.06931 0)
(-0.00268193 -0.0709925 0)
(0.00645781 -0.0753682 0)
(0.00385708 -0.0813039 0)
(0.0026442 -0.085753 0)
(-0.0101608 -0.0693941 0)
(-0.00349661 -0.0620491 0)
(0.000498256 -0.0619523 0)
(0.0146348 -0.0635609 0)
(0.0203988 -0.0615411 0)
(0.0215607 -0.0599154 0)
(0.0204109 -0.0618032 0)
(0.0195644 -0.0548443 0)
(0.00832875 -0.0685483 0)
(0.000875042 -0.0756665 0)
(-0.00799407 -0.0752232 0)
(-0.0139806 -0.0785657 0)
(-0.015445 -0.0839663 0)
(-0.0108001 -0.0774463 0)
(-0.00745949 -0.0550766 0)
(-0.00694138 -0.0385951 0)
(0.00178537 -0.0136197 0)
(0.0149114 -0.00612197 0)
(0.0266532 -0.00752465 0)
(0.0281344 -0.00999142 0)
(0.0252605 -0.0122418 0)
(0.0161856 -0.0120052 0)
(0.00937888 -0.0181335 0)
(-0.00200914 -0.0284975 0)
(-0.000250661 -0.0377345 0)
(-0.00473422 -0.0583508 0)
(-0.00966561 -0.071926 0)
(-0.000823678 -0.0742331 0)
(0.00117825 -0.0707626 0)
(0.00576301 -0.0727472 0)
(-0.0132567 -0.0526006 0)
(-0.00518951 -0.0531552 0)
(0.00524311 -0.063829 0)
(0.0180722 -0.0628303 0)
(0.0228992 -0.0574648 0)
(0.0230163 -0.0548455 0)
(0.0222812 -0.0575717 0)
(0.023982 -0.0498381 0)
(0.014556 -0.0559224 0)
(0.00111651 -0.0689443 0)
(-0.00921173 -0.0704524 0)
(-0.0170862 -0.0731503 0)
(-0.0185302 -0.0755072 0)
(-0.0179631 -0.0747349 0)
(-0.0123445 -0.0546566 0)
(-0.0113142 -0.0413873 0)
(0.00184721 -0.0123207 0)
(0.0155602 -0.00686097 0)
(0.0252164 -0.00939985 0)
(0.0284447 -0.00832792 0)
(0.0264062 -0.00888145 0)
(0.0246573 -0.00888317 0)
(0.0148416 -0.0129377 0)
(-0.00357003 -0.0201703 0)
(-0.000869465 -0.0282021 0)
(-0.00214647 -0.0430073 0)
(-0.00775223 -0.0625334 0)
(-0.00634378 -0.0733343 0)
(-0.00286178 -0.0671349 0)
(0.00566084 -0.0586858 0)
(-0.00482311 -0.0341713 0)
(-0.000121418 -0.0497189 0)
(0.00602977 -0.058808 0)
(0.0145885 -0.0599762 0)
(0.0177435 -0.0512221 0)
(0.0167983 -0.0478942 0)
(0.0168566 -0.0523584 0)
(0.0173261 -0.0510225 0)
(0.0145538 -0.0491724 0)
(0.00270733 -0.0634964 0)
(-0.0122148 -0.0663465 0)
(-0.0207604 -0.0701359 0)
(-0.0224156 -0.0697944 0)
(-0.0220008 -0.0710816 0)
(-0.0179512 -0.0521251 0)
(-0.0106191 -0.0416828 0)
(0.00209971 -0.0128791 0)
(0.0153742 -0.0101904 0)
(0.0230555 -0.0111047 0)
(0.0256207 -0.0073262 0)
(0.0245072 -0.00493561 0)
(0.0239266 -0.00448126 0)
(0.0201607 -0.0087262 0)
(0.000217413 -0.0142329 0)
(-0.00146927 -0.0231375 0)
(-0.00201992 -0.0351299 0)
(-0.00745614 -0.0561091 0)
(-0.00696544 -0.0711704 0)
(-0.00712468 -0.0710525 0)
(-0.00206434 -0.0516 0)
(0.00310536 -0.0332883 0)
(0.00384348 -0.0481921 0)
(0.007214 -0.0533812 0)
(0.0114115 -0.0522495 0)
(0.0131556 -0.0443319 0)
(0.0130139 -0.0421488 0)
(0.0119615 -0.046379 0)
(0.00856943 -0.0484052 0)
(0.00603983 -0.0436129 0)
(-0.00144203 -0.0576851 0)
(-0.0149542 -0.063075 0)
(-0.0250652 -0.0662103 0)
(-0.0268726 -0.066932 0)
(-0.0243945 -0.0696492 0)
(-0.0219891 -0.056418 0)
(-0.0101332 -0.0426033 0)
(0.00132894 -0.0173086 0)
(0.0136576 -0.0146413 0)
(0.0189881 -0.0133811 0)
(0.0203328 -0.00767369 0)
(0.0214997 -0.00214734 0)
(0.019099 -0.000738063 0)
(0.0205931 -0.00506606 0)
(0.00236404 -0.0129858 0)
(-0.00170448 -0.0206403 0)
(-0.00265318 -0.0315982 0)
(-0.00667889 -0.0503708 0)
(-0.00890513 -0.0708854 0)
(-0.00926124 -0.0755755 0)
(-0.00748279 -0.0608961 0)
(0.00783599 -0.0375661 0)
(0.0072012 -0.0517806 0)
(0.00700787 -0.0537765 0)
(0.00929476 -0.0488287 0)
(0.0120012 -0.041592 0)
(0.012211 -0.0389751 0)
(0.0101147 -0.039219 0)
(0.00128263 -0.0459118 0)
(-0.00456426 -0.0452314 0)
(-0.00906192 -0.0573487 0)
(-0.0168209 -0.068076 0)
(-0.0299709 -0.0657715 0)
(-0.0315937 -0.0663278 0)
(-0.0289889 -0.0715672 0)
(-0.0270675 -0.0651413 0)
(-0.0156252 -0.0430416 0)
(-0.00216275 -0.02117 0)
(0.00949141 -0.0197834 0)
(0.0145458 -0.0159513 0)
(0.0141227 -0.0105505 0)
(0.0143009 -0.010609 0)
(0.0139368 -0.000326787 0)
(0.0145171 -0.000780426 0)
(0.00442827 -0.00797105 0)
(-0.0019996 -0.0190791 0)
(-0.00446419 -0.0304375 0)
(-0.00849861 -0.0503737 0)
(-0.0126619 -0.0724133 0)
(-0.0105141 -0.0816277 0)
(-0.0100722 -0.0683439 0)
(0.00996211 -0.0487915 0)
(0.00927733 -0.0578586 0)
(0.00782531 -0.0545416 0)
(0.00926672 -0.0471004 0)
(0.00961845 -0.0401987 0)
(0.00973473 -0.0375078 0)
(0.0051798 -0.0381083 0)
(-0.00353729 -0.0427624 0)
(-0.0124149 -0.0477883 0)
(-0.0172337 -0.0571685 0)
(-0.0192194 -0.072594 0)
(-0.0316365 -0.077138 0)
(-0.0367715 -0.0688237 0)
(-0.0328441 -0.0742028 0)
(-0.0315379 -0.071085 0)
(-0.025116 -0.0506174 0)
(-0.00711676 -0.0301338 0)
(0.00666595 -0.0274587 0)
(0.0129142 -0.0267918 0)
(0.00974327 -0.0300165 0)
(0.00737322 -0.011472 0)
(0.0103821 0.00575936 0)
(0.0108433 0.0067779 0)
(0.0115621 -0.000999159 0)
(0.00166936 -0.0132792 0)
(-0.0044358 -0.0281941 0)
(-0.00952729 -0.0494038 0)
(-0.0135669 -0.0732637 0)
(-0.0113708 -0.0861603 0)
(-0.0111047 -0.0779195 0)
(0.0100195 -0.0583867 0)
(0.00956979 -0.0599981 0)
(0.00773761 -0.0527125 0)
(0.0072694 -0.0448873 0)
(0.00626405 -0.0394754 0)
(0.00643989 -0.0350105 0)
(-0.000354241 -0.0323187 0)
(-0.0109457 -0.0371694 0)
(-0.0215183 -0.0461693 0)
(-0.024824 -0.0577568 0)
(-0.0235623 -0.0741352 0)
(-0.0315703 -0.082212 0)
(-0.0402271 -0.0828392 0)
(-0.03783 -0.0773797 0)
(-0.035268 -0.074068 0)
(-0.0279426 -0.0591263 0)
(-0.0138483 -0.0431458 0)
(0.00425938 -0.0453309 0)
(0.00737866 -0.0537713 0)
(0.00279978 -0.036965 0)
(0.00431806 -0.00778269 0)
(0.0081852 0.0152051 0)
(0.00956631 0.0196009 0)
(0.013354 0.0089332 0)
(0.0136838 -0.00429344 0)
(0.000367182 -0.0212717 0)
(-0.00880208 -0.0475179 0)
(-0.0119773 -0.0735577 0)
(-0.0112034 -0.0902281 0)
(-0.0115528 -0.0859126 0)
(0.0105242 -0.0652816 0)
(0.00998598 -0.061479 0)
(0.00782417 -0.0537454 0)
(0.00497589 -0.0438734 0)
(0.000695647 -0.0387179 0)
(-0.00203951 -0.0296716 0)
(-0.00838321 -0.0228382 0)
(-0.0184156 -0.0283891 0)
(-0.0269852 -0.0429658 0)
(-0.0306796 -0.055427 0)
(-0.0266602 -0.075174 0)
(-0.0321846 -0.0816892 0)
(-0.0399139 -0.0856317 0)
(-0.0404873 -0.0834349 0)
(-0.0375795 -0.0776423 0)
(-0.0293329 -0.0650392 0)
(-0.0163413 -0.0568548 0)
(-0.00655935 -0.0915742 0)
(-0.00664814 -0.0742825 0)
(-0.00351259 -0.0396343 0)
(-0.000659275 -0.00566997 0)
(0.00623957 0.0226264 0)
(0.00747475 0.0296081 0)
(0.0142541 0.0206101 0)
(0.0195945 0.00373692 0)
(0.0130632 -0.0117107 0)
(-0.00225226 -0.0427175 0)
(-0.0111748 -0.0754714 0)
(-0.0109627 -0.0933214 0)
(-0.0107807 -0.093165 0)
(0.0131496 -0.0742359 0)
(0.00998893 -0.0665637 0)
(0.00869935 -0.0552189 0)
(0.00611449 -0.042037 0)
(-0.00574221 -0.0358856 0)
(-0.0137069 -0.0272589 0)
(-0.017502 -0.0212556 0)
(-0.02166 -0.0292789 0)
(-0.0348271 -0.0487065 0)
(-0.0362694 -0.0572867 0)
(-0.0292565 -0.077637 0)
(-0.0322493 -0.0823113 0)
(-0.0391651 -0.0870244 0)
(-0.0408137 -0.0855759 0)
(-0.0396901 -0.0808072 0)
(-0.0317486 -0.0716153 0)
(-0.0216761 -0.0800016 0)
(-0.0173026 -0.108421 0)
(-0.0201511 -0.0852947 0)
(-0.012873 -0.0467347 0)
(-0.00863694 -0.00570576 0)
(0.000243913 0.0261665 0)
(0.00468938 0.037271 0)
(0.015569 0.0295851 0)
(0.0217345 0.0156049 0)
(0.0187054 -0.00668333 0)
(0.0121282 -0.0340746 0)
(-0.00980083 -0.0712104 0)
(-0.0117961 -0.0914991 0)
(-0.0103135 -0.0991655 0)
(0.0130314 -0.0856543 0)
(0.00880151 -0.072036 0)
(0.0084001 -0.0547616 0)
(0.00311121 -0.0347417 0)
(-0.014199 -0.0278976 0)
(-0.017439 -0.0236059 0)
(-0.0186862 -0.0371457 0)
(-0.0222033 -0.0662712 0)
(-0.037099 -0.0887925 0)
(-0.0408283 -0.0844553 0)
(-0.0356211 -0.0866327 0)
(-0.0311861 -0.0842554 0)
(-0.0363652 -0.0881004 0)
(-0.0395656 -0.087082 0)
(-0.0402286 -0.0827536 0)
(-0.03474 -0.0764634 0)
(-0.0256518 -0.0970738 0)
(-0.0282638 -0.125148 0)
(-0.0320416 -0.0890678 0)
(-0.0218853 -0.0582522 0)
(-0.0162573 -0.00998082 0)
(-0.00609252 0.0237495 0)
(0.00336257 0.0362931 0)
(0.0183847 0.0378184 0)
(0.0249118 0.0277951 0)
(0.0197 -5.37964e-06 0)
(0.00407557 -0.0408713 0)
(-0.011378 -0.0699169 0)
(-0.0114241 -0.0901153 0)
(-0.00980892 -0.101403 0)
(0.00736806 -0.101817 0)
(0.00778704 -0.0767617 0)
(0.00360274 -0.0521821 0)
(-0.00321701 -0.0269897 0)
(-0.013265 -0.0249126 0)
(-0.0124051 -0.0412232 0)
(-0.0248842 -0.0641139 0)
(-0.0201845 -0.103464 0)
(-0.0235329 -0.127151 0)
(-0.0336977 -0.120057 0)
(-0.0333907 -0.101198 0)
(-0.026402 -0.0885396 0)
(-0.031288 -0.0896499 0)
(-0.0365524 -0.0873357 0)
(-0.0396456 -0.0836038 0)
(-0.0370907 -0.0809935 0)
(-0.0289936 -0.107583 0)
(-0.0377388 -0.136283 0)
(-0.0403021 -0.0888493 0)
(-0.0291614 -0.0604666 0)
(-0.0222531 -0.0126453 0)
(-0.0084497 0.0201112 0)
(0.0010799 0.0343522 0)
(0.0178689 0.0385068 0)
(0.0256459 0.0284061 0)
(0.0150329 -0.0038727 0)
(-0.00613877 -0.0476305 0)
(-0.011048 -0.0692059 0)
(-0.0115207 -0.0942189 0)
(-0.0102419 -0.108216 0)
(0.000486909 -0.110863 0)
(0.0015706 -0.0807207 0)
(-0.00835058 -0.0455511 0)
(-0.0190127 -0.0337625 0)
(-0.0193519 -0.0515696 0)
(-0.0152947 -0.0828017 0)
(-0.0141768 -0.120083 0)
(-0.00880161 -0.154832 0)
(-0.0045817 -0.172546 0)
(-0.013677 -0.152669 0)
(-0.0221598 -0.10845 0)
(-0.0179479 -0.089766 0)
(-0.0229577 -0.0898701 0)
(-0.0306742 -0.0878206 0)
(-0.0358357 -0.0852576 0)
(-0.0366081 -0.0849336 0)
(-0.0278503 -0.120221 0)
(-0.0442799 -0.147754 0)
(-0.0507429 -0.0958402 0)
(-0.0414217 -0.0665894 0)
(-0.028727 -0.0229338 0)
(-0.0131699 0.0167407 0)
(-0.00159935 0.0322449 0)
(0.0166494 0.035635 0)
(0.0298113 0.0287317 0)
(0.0228837 0.00206449 0)
(-0.000154724 -0.0412351 0)
(-0.00715656 -0.0686344 0)
(-0.00850351 -0.0977452 0)
(-0.0071905 -0.117245 0)