/*--------------------------------*- C++ -*----------------------------------*\
| =========                 |                                                 |
| \\      /  F ield         | OpenFOAM: The Open Source CFD Toolbox           |
|  \\    /   O peration     | Version:  2.4.0                                 |
|   \\  /    A nd           | Web:      www.OpenFOAM.org                      |
|    \\/     M anipulation  |                                                 |
\*---------------------------------------------------------------------------*/
FoamFile
{
    version     2.0;
    format      ascii;
    class       volVectorField;
    location    "0.8";
    object      U;
}
// * * * * * * * * * * * * * * * * * * * * * * * * * * * * * * * * * * * * * //

dimensions      [0 1 -1 0 0 0 0];

internalField   nonuniform List<vector> 
3072
(
(0.00587556 0.133401 0)
(0.0154329 0.132119 0)
(0.0244038 0.130396 -3.92034e-26)
(0.0334123 0.128491 -2.48715e-26)
(0.0427349 0.126649 5.18678e-27)
(0.0523928 0.125048 -5.69672e-27)
(0.0623913 0.123747 -4.25011e-26)
(0.0724288 0.122432 -1.69055e-26)
(0.0823797 0.120997 1.0638e-26)
(0.0894868 0.120222 -3.03349e-25)
(0.0929669 0.117693 -2.54056e-25)
(0.105679 0.10696 -1.05323e-25)
(0.00353587 0.149358 8.30693e-27)
(0.0122714 0.148252 -3.00288e-27)
(0.0222956 0.14636 -3.48254e-26)
(0.0335496 0.144116 0)
(0.0461112 0.142214 6.25159e-28)
(0.0596911 0.141171 6.15005e-26)
(0.0735408 0.141088 0)
(0.0860271 0.140823 0)
(0.0993829 0.138611 0)
(0.111678 0.139009 -3.78044e-25)
(0.121314 0.142751 -3.36366e-25)
(0.141418 0.13532 1.75798e-25)
(0.00424861 0.164791 8.80886e-27)
(0.0140694 0.163511 0)
(0.0258673 0.161393 0)
(0.0399351 0.158744 7.40268e-26)
(0.0563001 0.155926 2.21752e-26)
(0.0743509 0.153693 1.27959e-25)
(0.0919482 0.154032 1.25654e-25)
(0.103277 0.155611 0)
(0.118602 0.152587 0)
(0.130398 0.14916 -2.11499e-25)
(0.138152 0.148535 -3.85952e-25)
(0.154356 0.139419 -3.19646e-26)
(0.00403034 0.180601 -2.25524e-27)
(0.0145419 0.179576 3.65453e-26)
(0.027739 0.177608 -7.80114e-28)
(0.0437748 0.17442 8.11921e-26)
(0.0626062 0.169778 1.1161e-26)
(0.0834896 0.163885 1.44007e-25)
(0.104577 0.159843 1.42638e-25)
(0.114109 0.161743 3.70999e-25)
(0.135118 0.159483 -3.25289e-26)
(0.151752 0.161578 1.03239e-26)
(0.169459 0.16417 -7.07515e-25)
(0.190547 0.16086 -1.90581e-25)
(0.00457858 0.196492 0)
(0.0164425 0.196565 5.07767e-26)
(0.0311191 0.195746 1.01649e-25)
(0.0486126 0.193178 7.36214e-27)
(0.0691116 0.18817 -2.25703e-25)
(0.0925187 0.180821 2.08936e-25)
(0.117283 0.171269 1.60592e-25)
(0.132202 0.171032 3.05479e-25)
(0.1559 0.167618 1.51791e-25)
(0.172415 0.167294 9.64957e-26)
(0.190571 0.166915 -2.53779e-25)
(0.206817 0.165098 -5.41564e-25)
(0.00639713 0.212577 -2.66102e-27)
(0.0204381 0.214622 -1.50727e-28)
(0.0365254 0.215634 -1.24584e-35)
(0.0547779 0.214172 0)
(0.0757654 0.209042 -2.40437e-25)
(0.0993267 0.200485 -1.98885e-25)
(0.123257 0.185325 0)
(0.145731 0.17698 9.79622e-26)
(0.165986 0.171329 1.62702e-25)
(0.184195 0.16375 0)
(0.200793 0.161572 -5.31875e-25)
(0.210666 0.159474 -1.18415e-24)
(0.0101494 0.228897 0)
(0.0270587 0.233823 1.25516e-25)
(0.0441186 0.237031 -3.96163e-25)
(0.0621144 0.236935 0)
(0.0826659 0.231894 2.01255e-26)
(0.105703 0.222447 -7.4204e-25)
(0.130754 0.208497 2.03395e-25)
(0.157294 0.190359 -1.35657e-25)
(0.173085 0.179785 -1.27495e-25)
(0.191863 0.166391 -5.58441e-25)
(0.201453 0.15764 -8.34738e-27)
(0.206322 0.151524 -5.82164e-25)
(0.0163727 0.24547 0)
(0.0362706 0.253904 1.35106e-25)
(0.0532981 0.258783 -2.89383e-25)
(0.0695109 0.259633 -3.11179e-25)
(0.0880655 0.254051 0)
(0.109012 0.242669 -6.52601e-25)
(0.131259 0.225722 -1.17952e-25)
(0.155679 0.202408 -2.88548e-25)
(0.17051 0.184514 -4.4914e-26)
(0.186822 0.166119 9.35047e-26)
(0.192237 0.153284 5.31798e-25)
(0.195138 0.143296 3.28579e-26)
(0.0254999 0.262186 0)
(0.0471672 0.273764 1.42335e-25)
(0.0625055 0.278079 3.06387e-25)
(0.075451 0.278798 -3.32429e-25)
(0.0909306 0.272821 -6.85288e-25)
(0.109014 0.261562 0)
(0.127705 0.243217 0)
(0.147444 0.215175 0)
(0.160278 0.187505 0)
(0.173505 0.163047 5.54038e-25)
(0.17546 0.145724 -6.03116e-26)
(0.177265 0.131421 -7.09041e-26)
(0.0367647 0.278588 0)
(0.0567737 0.290395 1.45448e-25)
(0.0681528 0.288521 6.18123e-25)
(0.0772436 0.286441 -6.19717e-25)
(0.0899593 0.279876 -1.3188e-24)
(0.10576 0.271559 6.61478e-25)
(0.120397 0.257343 0)
(0.134522 0.231565 5.48595e-25)
(0.145424 0.198483 1.09339e-24)
(0.155011 0.165724 0)
(0.151764 0.139506 -7.46945e-25)
(0.157529 0.114201 -1.39322e-25)
(0.0502818 0.292113 0)
(0.0594975 0.293127 -1.32863e-25)
(0.0644096 0.277086 -1.96302e-34)
(0.0708882 0.26929 -5.90789e-25)
(0.0829676 0.262233 -5.73714e-25)
(0.0985703 0.25946 3.89989e-26)
(0.110376 0.254938 5.01669e-25)
(0.120575 0.239937 1.68629e-24)
(0.132079 0.21539 1.11852e-24)
(0.140686 0.184914 1.04243e-24)
(0.131499 0.151467 -9.87671e-25)
(0.136835 0.105614 -7.66552e-25)
(0.0159346 0.265341 8.69149e-26)
(0.0279121 0.251619 2.97288e-25)
(0.0364356 0.223427 -4.82035e-25)
(0.0480234 0.21251 0)
(0.0652199 0.206963 0)
(0.0855447 0.210547 -8.00136e-25)
(0.09713 0.219174 -4.37663e-25)
(0.105811 0.220769 1.09086e-24)
(0.122876 0.215413 0)
(0.135279 0.204516 1.05953e-24)
(0.125696 0.193224 0)
(0.145033 0.136573 -1.38689e-24)
(0.116829 0.101078 4.03042e-26)
(0.127175 0.0955689 5.66711e-26)
(0.136021 0.0897072 5.8466e-26)
(0.140806 0.0852199 2.27468e-25)
(0.1427 0.0758891 6.51201e-26)
(0.142007 0.0645318 0)
(0.141155 0.0505959 0)
(0.143015 0.0352975 -1.48395e-26)
(0.141703 0.0314267 -6.28972e-26)
(0.137827 0.0235493 0)
(0.134483 0.0125134 0)
(0.133431 0.00281723 3.47345e-27)
(0.146062 0.131486 -1.0019e-35)
(0.158532 0.116151 0)
(0.166028 0.110817 4.83968e-25)
(0.170398 0.107523 2.42136e-25)
(0.173733 0.104066 1.1989e-25)
(0.171144 0.0963925 1.03766e-25)
(0.167639 0.0808601 1.16712e-26)
(0.15778 0.0628883 -6.61092e-26)
(0.15076 0.0471298 0)
(0.151538 0.0382489 0)
(0.150471 0.0219449 0)
(0.149049 0.00645256 -4.8337e-27)
(0.163906 0.144482 -2.56027e-25)
(0.187246 0.134429 1.80067e-25)
(0.195114 0.128716 2.64411e-25)
(0.199328 0.122639 4.5366e-26)
(0.19572 0.121145 1.01148e-25)
(0.191445 0.11921 0)
(0.189134 0.106653 0)
(0.189947 0.0914056 3.37444e-25)
(0.192495 0.0624891 -4.81949e-26)
(0.189802 0.0477199 0)
(0.181242 0.0335822 0)
(0.168293 0.0127799 -7.09782e-27)
(0.204182 0.155261 -5.51636e-25)
(0.213739 0.14746 2.92424e-25)
(0.217615 0.14216 4.27014e-26)
(0.21902 0.139019 4.08837e-27)
(0.21676 0.137152 0)
(0.216456 0.132977 -3.04891e-25)
(0.219569 0.120569 0)
(0.225819 0.10255 -1.40101e-25)
(0.228149 0.0825655 -9.16719e-26)
(0.220177 0.0701815 0)
(0.207129 0.0605452 6.4285e-26)
(0.188258 0.0316726 -4.72817e-26)
(0.217857 0.161298 -6.8339e-25)
(0.22435 0.156328 0)
(0.227038 0.15041 0)
(0.224974 0.146812 0)
(0.220712 0.144329 0)
(0.217367 0.138037 -2.53326e-36)
(0.216872 0.122929 3.8147e-25)
(0.224482 0.100532 -3.3938e-25)
(0.234231 0.0879231 0)
(0.238595 0.084512 8.46948e-26)
(0.234668 0.0869435 7.60912e-26)
(0.211685 0.067137 -1.98032e-25)
(0.217505 0.15724 6.01144e-25)
(0.220628 0.15482 5.56749e-25)
(0.221477 0.151346 1.59297e-26)
(0.218294 0.15011 3.54285e-26)
(0.212622 0.149936 -5.6924e-25)
(0.206275 0.145073 4.13641e-25)
(0.201019 0.127373 6.27819e-25)
(0.202926 0.0913984 2.10668e-25)
(0.21692 0.0687148 9.12213e-26)
(0.234687 0.0725351 1.98865e-26)
(0.239165 0.0951593 1.09746e-25)
(0.225358 0.102022 7.51708e-36)
(0.209088 0.148117 5.81623e-25)
(0.210519 0.147049 -2.75594e-26)
(0.211269 0.146622 0)
(0.210019 0.14844 0)
(0.206698 0.152824 -5.72343e-25)
(0.203375 0.152979 1.58363e-26)
(0.203534 0.139107 -6.63904e-25)
(0.206959 0.0967418 3.27821e-25)
(0.215998 0.0590067 6.50235e-26)
(0.219668 0.0631827 0)
(0.212463 0.0922189 2.12014e-25)
(0.217916 0.10038 1.90879e-25)
(0.197691 0.138314 -1.32812e-26)
(0.198435 0.137003 -5.06645e-25)
(0.200141 0.136792 -5.23481e-25)
(0.203206 0.140803 9.76665e-27)
(0.204008 0.149689 1.0717e-25)
(0.20474 0.154418 -5.81476e-25)
(0.209004 0.146393 -7.36962e-25)
(0.215572 0.107768 -3.22754e-25)
(0.220139 0.06128 0)
(0.220467 0.0639244 4.92438e-26)
(0.215039 0.0902543 2.77771e-25)
(0.23387 0.0777497 1.45122e-25)
(0.182894 0.126048 7.13244e-27)
(0.185441 0.127384 -6.77968e-26)
(0.191313 0.126194 -5.02885e-25)
(0.200519 0.130256 4.79521e-25)
(0.204072 0.142959 3.44673e-26)
(0.206806 0.150527 -7.49317e-25)
(0.214239 0.147084 0)
(0.22664 0.116316 -3.65535e-25)
(0.230824 0.0675528 0)
(0.232167 0.0643179 0)
(0.234834 0.084262 0)
(0.256811 0.065024 4.69468e-26)
(0.173489 0.106557 7.58226e-26)
(0.177085 0.113453 1.01233e-24)
(0.186919 0.11367 -1.03663e-24)
(0.203062 0.118003 -2.85203e-25)
(0.204473 0.135421 2.03495e-25)
(0.205734 0.143785 0)
(0.214044 0.142166 0)
(0.227701 0.118563 -7.30335e-25)
(0.232591 0.0708778 0)
(0.237299 0.0596105 2.84296e-26)
(0.245887 0.0724285 1.6027e-25)
(0.272216 0.053043 1.03968e-27)
(0.158646 0.0841965 -2.06742e-27)
(0.173282 0.094231 7.78083e-25)
(0.197388 0.0997057 -6.83159e-25)
(0.210544 0.108726 2.0748e-25)
(0.198809 0.129463 8.45534e-25)
(0.197553 0.135407 -7.87054e-25)
(0.207563 0.133847 5.47607e-25)
(0.221299 0.116754 -6.53974e-25)
(0.227073 0.0724089 0)
(0.233896 0.0510427 -2.17846e-25)
(0.244378 0.0548764 5.81925e-26)
(0.278667 0.034784 -9.31523e-27)
(0.17517 0.092595 -6.1193e-26)
(0.184755 0.0865768 0)
(0.199862 0.0845848 0)
(0.195208 0.0977247 4.96199e-25)
(0.172179 0.118398 1.31363e-24)
(0.177765 0.120783 -4.733e-25)
(0.19559 0.119976 8.43445e-25)
(0.212807 0.111687 3.17951e-25)
(0.218077 0.0742481 -1.66176e-25)
(0.222826 0.0429033 -1.18214e-25)
(0.228826 0.0321442 0)
(0.26736 -0.00431982 -1.20464e-26)
(0.133275 -0.00570698 2.13317e-27)
(0.131333 -0.0148898 0)
(0.128487 -0.0232758 3.68374e-26)
(0.125173 -0.0313353 0)
(0.121825 -0.039293 2.90382e-26)
(0.11869 -0.047431 2.67812e-26)
(0.115769 -0.0558795 0)
(0.113088 -0.0647069 -7.55253e-26)
(0.110732 -0.0741352 -3.42307e-26)
(0.108642 -0.0843896 1.50762e-26)
(0.106638 -0.0955953 1.65187e-25)
(0.104423 -0.107659 1.7746e-25)
(0.14925 -0.00243321 -1.04116e-26)
(0.147495 -0.00973964 -7.45271e-27)
(0.144722 -0.0185057 3.20257e-26)
(0.141464 -0.0283234 0)
(0.138157 -0.0390474 -2.34601e-26)
(0.135235 -0.0507336 -1.51941e-26)
(0.133123 -0.0637431 0)
(0.131885 -0.0783118 -1.75176e-25)
(0.131365 -0.0946512 1.61191e-25)
(0.131301 -0.112771 1.62474e-27)
(0.131335 -0.132225 4.85517e-25)
(0.131085 -0.151986 2.16967e-25)
(0.164759 -0.00241881 -9.61518e-27)
(0.163285 -0.0101996 0)
(0.160907 -0.0204552 8.01754e-26)
(0.157975 -0.0328841 0)
(0.154924 -0.0473783 0)
(0.152103 -0.0637574 -1.85818e-25)
(0.14975 -0.0821171 2.37276e-26)
(0.148021 -0.102609 -2.44042e-25)
(0.146825 -0.125097 2.20048e-25)
(0.145979 -0.148937 0)
(0.145309 -0.172835 -3.28299e-35)
(0.144726 -0.19504 2.73273e-25)
(0.180649 -0.00227061 -2.25502e-26)
(0.179923 -0.0109372 -4.79323e-26)
(0.178461 -0.0229669 9.48924e-26)
(0.176131 -0.038022 2.14224e-26)
(0.173025 -0.0559528 -2.35744e-27)
(0.169403 -0.0765988 -2.04671e-25)
(0.165564 -0.099726 0)
(0.161758 -0.125018 0)
(0.158121 -0.151752 -2.56152e-25)
(0.1548 -0.178597 0)
(0.152048 -0.203712 -5.69751e-25)
(0.1502 -0.225224 2.90099e-25)
(0.196562 -0.00307252 -2.15986e-26)
(0.197007 -0.0133967 -1.052e-25)
(0.196698 -0.0272735 1.08522e-25)
(0.194883 -0.0444477 0)
(0.191209 -0.0649456 0)
(0.185905 -0.0885223 -2.37217e-25)
(0.179367 -0.114741 0)
(0.172118 -0.142816 1.03744e-25)
(0.164689 -0.171458 -1.98163e-26)
(0.157724 -0.198828 1.38201e-25)
(0.151976 -0.222873 -2.25177e-25)
(0.148164 -0.241959 7.25877e-26)
(0.212594 -0.00504265 2.74464e-26)
(0.214732 -0.0176224 -5.99067e-26)
(0.215769 -0.0329619 1.21842e-25)
(0.214378 -0.0511589 -2.60235e-25)
(0.209648 -0.0727465 2.43228e-26)
(0.201876 -0.0975895 -1.13976e-34)
(0.191639 -0.125117 -1.00338e-25)
(0.179916 -0.154133 -7.4116e-25)
(0.167767 -0.18287 0)
(0.156415 -0.209156 0)
(0.147111 -0.230912 -6.47862e-25)
(0.140874 -0.246837 -5.77706e-26)
(0.228752 -0.00858663 -2.04908e-27)
(0.233096 -0.0237262 1.31894e-25)
(0.235463 -0.0397808 0)
(0.234441 -0.0575164 -2.77197e-25)
(0.22838 -0.0784666 -2.83412e-25)
(0.217722 -0.102851 -2.91329e-25)
(0.203228 -0.1301 -5.95475e-25)
(0.186441 -0.158676 -1.20689e-24)
(0.169055 -0.1864 7.23837e-25)
(0.152917 -0.210842 1.2307e-25)
(0.139751 -0.229956 -1.1852e-24)
(0.130831 -0.242731 -5.69412e-25)
(0.245033 -0.0139652 -5.86849e-26)
(0.251621 -0.0313226 1.42734e-25)
(0.254481 -0.0470772 0)
(0.253652 -0.0627087 2.97376e-25)
(0.246347 -0.0814121 -3.00549e-25)
(0.23315 -0.103913 -6.9118e-25)
(0.214664 -0.129736 -7.62662e-25)
(0.1929 -0.157063 -7.25093e-25)
(0.170223 -0.183329 4.51471e-25)
(0.149179 -0.205844 -5.7083e-25)
(0.131988 -0.222555 -1.08771e-24)
(0.120186 -0.232661 -5.31857e-25)
(0.261168 -0.0210899 -2.16259e-26)
(0.268459 -0.0388201 1.55248e-25)
(0.269118 -0.0532065 2.88215e-25)
(0.267898 -0.0653603 3.03683e-25)
(0.259889 -0.0808466 0)
(0.245735 -0.100687 0)
(0.225021 -0.124613 -6.06218e-25)
(0.199678 -0.15045 -6.80081e-25)
(0.172498 -0.17534 -1.09853e-25)
(0.146853 -0.196296 -5.29032e-25)
(0.125623 -0.211177 -5.05184e-25)
(0.110724 -0.21929 0)
(0.276478 -0.0290753 -2.85736e-26)
(0.279429 -0.0425388 1.86468e-25)
(0.272206 -0.0550746 -1.01393e-35)
(0.269421 -0.0636291 0)
(0.261522 -0.0762713 -5.41303e-25)
(0.249338 -0.0933603 0)
(0.230196 -0.11558 -6.30854e-25)
(0.204936 -0.140249 -7.00666e-25)
(0.175825 -0.164222 -1.08327e-24)
(0.14694 -0.184265 0)
(0.122129 -0.198054 0)
(0.104043 -0.204904 8.88118e-25)
(0.287181 -0.0343844 1.05524e-33)
(0.275101 -0.0334738 -1.77409e-25)
(0.25366 -0.0478431 -5.15436e-25)
(0.248689 -0.0560343 4.52166e-25)
(0.242207 -0.0678124 -3.88426e-25)
(0.235223 -0.082528 -5.69779e-26)
(0.2225 -0.103557 4.57372e-25)
(0.203145 -0.127814 9.45385e-25)
(0.177306 -0.151573 -8.17782e-25)
(0.148671 -0.1715 8.15349e-25)
(0.122056 -0.185034 -7.90734e-25)
(0.101337 -0.191403 7.94243e-25)
(0.263776 0.0017779 -1.81702e-26)
(0.243344 -0.00101629 -1.4729e-25)
(0.21307 -0.029033 -4.01892e-25)
(0.206215 -0.0417694 1.86855e-25)
(0.201143 -0.0558269 0)
(0.198668 -0.0691594 2.28635e-25)
(0.194535 -0.0899892 2.88456e-25)
(0.186521 -0.114384 1.2456e-24)
(0.170708 -0.138541 6.40216e-25)
(0.14819 -0.159086 6.71975e-25)
(0.123706 -0.173225 -6.78237e-25)
(0.102388 -0.179986 0)
(0.101607 -0.120161 -3.51201e-26)
(0.0977902 -0.132324 -1.68464e-26)
(0.0926702 -0.143134 1.94785e-25)
(0.0861259 -0.151613 -1.87774e-26)
(0.0781544 -0.157139 -7.4214e-26)
(0.0685657 -0.159052 5.75757e-26)
(0.057809 -0.157023 -5.02714e-26)
(0.0463794 -0.152114 -7.951e-27)
(0.0345696 -0.145655 2.24788e-27)
(0.0227511 -0.139366 0)
(0.0115584 -0.134877 0)
(0.00220208 -0.133295 2.8818e-27)
(0.13021 -0.170576 3.34846e-26)
(0.128443 -0.18642 5.21314e-26)
(0.125567 -0.198244 5.38978e-25)
(0.121343 -0.205244 0)
(0.115421 -0.207053 -1.27601e-25)
(0.107573 -0.204258 0)
(0.0976237 -0.197334 2.44385e-35)
(0.0849363 -0.187122 1.17508e-25)
(0.0690144 -0.175068 3.68565e-26)
(0.0497953 -0.163151 0)
(0.0284895 -0.15371 0)
(0.00789788 -0.149228 1.14725e-26)
(0.14421 -0.213841 2.57695e-25)
(0.143708 -0.228066 -3.39816e-25)
(0.143052 -0.237257 2.78745e-25)
(0.141908 -0.241484 0)
(0.139783 -0.241009 -2.56958e-25)
(0.136142 -0.236314 1.02469e-26)
(0.129811 -0.227938 1.62206e-25)
(0.119303 -0.216326 9.29564e-26)
(0.102816 -0.202213 -1.67843e-25)
(0.078752 -0.187047 0)
(0.047607 -0.173228 -3.56101e-26)
(0.0138444 -0.165418 6.39494e-27)
(0.149525 -0.241862 2.89061e-25)
(0.150061 -0.253268 -6.22984e-35)
(0.151573 -0.259831 2.55925e-27)
(0.153606 -0.262248 -2.57824e-26)
(0.155548 -0.261166 0)
(0.15661 -0.257036 -2.45172e-25)
(0.155426 -0.250023 5.16928e-25)
(0.149877 -0.240031 2.40917e-25)
(0.136841 -0.22683 -1.33143e-25)
(0.112184 -0.210845 0)
(0.0732684 -0.193694 -1.24703e-25)
(0.0235205 -0.181784 -1.35929e-26)
(0.146703 -0.255436 -2.49249e-27)
(0.147573 -0.263693 2.5525e-25)
(0.150388 -0.267743 0)
(0.15459 -0.268718 0)
(0.159582 -0.267539 -2.44305e-25)
(0.164659 -0.264791 -2.40766e-25)
(0.168707 -0.260527 4.82921e-25)
(0.169601 -0.254358 0)
(0.163562 -0.245136 -1.25318e-25)
(0.143839 -0.232009 -1.24673e-25)
(0.102661 -0.214612 -7.46656e-35)
(0.0368395 -0.198857 2.36678e-26)
(0.138161 -0.256831 -3.57521e-26)
(0.138786 -0.261841 -1.21247e-26)
(0.142119 -0.263313 -4.4667e-25)
(0.147416 -0.262705 6.33522e-26)
(0.154038 -0.261195 2.51416e-25)
(0.161477 -0.259633 4.81599e-25)
(0.169174 -0.258201 4.9795e-25)
(0.17568 -0.256689 0)
(0.177759 -0.253413 0)
(0.167182 -0.246732 -1.48437e-25)
(0.131179 -0.233686 2.26031e-25)
(0.0533897 -0.216746 3.30287e-26)
(0.126614 -0.249488 5.3785e-26)
(0.126705 -0.251563 5.36305e-25)
(0.130164 -0.250699 -4.82453e-25)
(0.135936 -0.248585 5.26126e-25)
(0.143164 -0.246558 5.21195e-25)
(0.151365 -0.245723 5.14967e-25)
(0.160468 -0.246377 -2.55195e-25)
(0.169992 -0.24889 3.0903e-26)
(0.178338 -0.251462 4.15342e-26)
(0.177659 -0.252933 0)
(0.152873 -0.248031 1.8918e-25)
(0.0712419 -0.235128 4.44522e-26)
(0.114248 -0.236774 0)
(0.113599 -0.236504 4.83488e-25)
(0.116978 -0.233803 0)
(0.122972 -0.23052 4.15967e-25)
(0.130357 -0.228044 -2.34124e-26)
(0.138457 -0.227672 -4.61842e-25)
(0.147347 -0.229599 -6.18742e-36)
(0.157239 -0.234931 0)
(0.168447 -0.241758 3.32027e-25)
(0.174945 -0.250934 3.12186e-26)
(0.163295 -0.255543 1.76399e-26)
(0.0870365 -0.252819 4.19381e-26)
(0.102745 -0.221435 8.56978e-26)
(0.101013 -0.21941 5.98181e-26)
(0.103998 -0.215335 4.60589e-25)
(0.109966 -0.211184 -4.58745e-25)
(0.117258 -0.208339 1.60011e-26)
(0.124917 -0.208262 -4.96468e-26)
(0.132821 -0.210797 5.06955e-25)
(0.141408 -0.217816 0)
(0.15227 -0.226855 3.33018e-25)
(0.161409 -0.24207 0)
(0.160381 -0.25533 -2.4659e-25)
(0.0962632 -0.267778 1.50659e-25)
(0.0936504 -0.205714 0)
(0.0903469 -0.202413 8.92008e-25)
(0.0924422 -0.197277 1.34043e-24)
(0.0979908 -0.192394 -4.908e-25)
(0.10488 -0.189113 1.89451e-26)
(0.111927 -0.188997 4.48094e-25)
(0.118554 -0.191353 0)
(0.125135 -0.198774 0)
(0.13339 -0.207833 0)
(0.140264 -0.226907 0)
(0.143501 -0.246707 -2.8672e-25)
(0.0930949 -0.277345 1.64742e-25)
(0.088398 -0.191506 7.54136e-26)
(0.0830497 -0.187355 8.96175e-25)
(0.0836601 -0.181397 5.14551e-34)
(0.0882659 -0.17579 -9.03094e-25)
(0.0943409 -0.171863 -8.14803e-25)
(0.100598 -0.171019 -6.09271e-26)
(0.105886 -0.172025 4.0419e-25)
(0.110445 -0.177817 0)
(0.115031 -0.184232 4.66033e-25)
(0.115667 -0.204069 2.88663e-25)
(0.11356 -0.227431 2.26017e-25)
(0.0700803 -0.277223 6.78017e-34)
(0.0876231 -0.180108 0)
(0.0801548 -0.175602 0)
(0.0788227 -0.169118 2.46348e-34)
(0.0819492 -0.162741 -8.66469e-25)
(0.086816 -0.157779 -7.88812e-25)
(0.0920735 -0.154961 0)
(0.0961706 -0.153005 3.3901e-25)
(0.0991012 -0.154199 0)
(0.100371 -0.155174 5.56923e-25)
(0.0939398 -0.17024 1.2952e-25)
(0.0777874 -0.19203 1.45825e-25)
(0.011326 -0.254025 4.41887e-26)
(-0.00568274 -0.133262 7.88465e-38)
(-0.014828 -0.131265 -2.2979e-27)
(-0.0231993 -0.128375 -4.16227e-27)
(-0.0312712 -0.125084 3.68658e-26)
(-0.0392851 -0.121864 0)
(-0.0475712 -0.118901 -3.934e-26)
(-0.0561851 -0.116176 0)
(-0.0652383 -0.113753 -4.40831e-26)
(-0.074986 -0.111702 -2.2182e-25)
(-0.0856627 -0.109935 -1.1466e-25)
(-0.0973806 -0.108243 -4.86827e-26)
(-0.110003 -0.106289 -9.32926e-26)
(-0.00235906 -0.149253 -2.58738e-26)
(-0.00962463 -0.147468 -6.29991e-27)
(-0.0185305 -0.144715 -3.86532e-27)
(-0.0286288 -0.141601 7.23179e-26)
(-0.0397107 -0.138514 -2.1427e-26)
(-0.0518623 -0.135969 -1.31983e-26)
(-0.0654945 -0.13441 1.66303e-25)
(-0.0808128 -0.133755 -1.22925e-25)
(-0.098032 -0.133819 -1.75374e-25)
(-0.1171 -0.134299 -2.32644e-25)
(-0.137442 -0.134797 -4.86626e-25)
(-0.157879 -0.134903 3.48697e-27)
(-0.00232193 -0.164764 -1.9047e-26)
(-0.0101215 -0.163253 0)
(-0.0207607 -0.160911 0)
(-0.0338303 -0.158165 7.96743e-26)
(-0.0491316 -0.155521 0)
(-0.0663733 -0.153283 2.59544e-25)
(-0.0857314 -0.151596 1.88834e-25)
(-0.10733 -0.150581 -2.99843e-26)
(-0.130928 -0.150066 1.17587e-25)
(-0.15571 -0.149823 -5.84072e-25)
(-0.180192 -0.149653 -2.28301e-25)
(-0.202518 -0.149463 3.58361e-25)
(-0.00214532 -0.180652 4.44216e-26)
(-0.0108936 -0.179817 4.72789e-26)
(-0.0235734 -0.178322 -9.41989e-26)
(-0.0396425 -0.176141 9.57111e-26)
(-0.0587653 -0.173442 0)
(-0.0806916 -0.170427 4.48075e-25)
(-0.105105 -0.167323 8.74693e-26)
(-0.131616 -0.16429 0)
(-0.159331 -0.161379 4.41993e-25)
(-0.186718 -0.158704 -4.09274e-25)
(-0.211805 -0.156511 -7.09609e-26)
(-0.232768 -0.155129 -6.85431e-25)
(-0.00283388 -0.196554 4.94836e-26)
(-0.0132397 -0.196731 9.44032e-36)
(-0.0280371 -0.19621 -2.14309e-25)
(-0.0466287 -0.194373 0)
(-0.0687242 -0.190995 9.68403e-27)
(-0.0938915 -0.186269 2.89065e-25)
(-0.121539 -0.180489 0)
(-0.150737 -0.174056 2.76992e-25)
(-0.180005 -0.167418 4.1607e-25)
(-0.207351 -0.16119 1.45269e-25)
(-0.230715 -0.156118 0)
(-0.248661 -0.152885 -5.98629e-25)
(-0.00457836 -0.212581 2.99458e-26)
(-0.0171285 -0.214241 -1.73685e-25)
(-0.0336294 -0.214818 -1.1976e-25)
(-0.053665 -0.213132 2.51617e-25)
(-0.0772885 -0.208503 6.00042e-26)
(-0.104013 -0.201215 -2.11521e-25)
(-0.133025 -0.191742 0)
(-0.162941 -0.180905 -2.98326e-25)
(-0.191841 -0.169665 1.35289e-25)
(-0.2175 -0.159204 1.43128e-25)
(-0.237974 -0.150747 -5.51652e-25)
(-0.252281 -0.145244 5.42743e-26)
(-0.00777381 -0.228789 2.59912e-26)
(-0.0227227 -0.232558 -1.23998e-25)
(-0.0401151 -0.234277 0)
(-0.0601157 -0.232602 2.65098e-25)
(-0.0835877 -0.226314 2.7031e-25)
(-0.110163 -0.215941 2.66865e-25)
(-0.138915 -0.202159 4.37161e-25)
(-0.168104 -0.186339 -7.6963e-25)
(-0.195485 -0.170021 -1.70085e-25)
(-0.218718 -0.15497 6.129e-25)
(-0.23603 -0.142856 -1.21519e-24)
(-0.246823 -0.134847 -1.4975e-26)
(-0.0128546 -0.245189 5.62118e-26)
(-0.0299727 -0.251541 -6.4412e-27)
(-0.0470381 -0.253963 0)
(-0.065358 -0.25211 -3.03283e-25)
(-0.0870757 -0.244074 5.89511e-25)
(-0.112062 -0.230706 5.6491e-25)
(-0.139372 -0.212652 7.70711e-25)
(-0.166989 -0.191811 3.09956e-25)
(-0.192386 -0.170321 8.73131e-25)
(-0.213134 -0.15055 1.34514e-24)
(-0.227597 -0.134602 -5.2772e-25)
(-0.235447 -0.123874 0)
(-0.0201271 -0.261615 5.40908e-26)
(-0.0381011 -0.270025 0)
(-0.0531948 -0.271309 0)
(-0.0683995 -0.268729 -3.18014e-25)
(-0.0872706 -0.259371 3.26813e-25)
(-0.109846 -0.244177 6.58772e-25)
(-0.135097 -0.223104 0)
(-0.160855 -0.198187 -1.0645e-25)
(-0.184327 -0.172043 4.66439e-25)
(-0.202969 -0.147711 5.54862e-25)
(-0.215201 -0.127827 5.29256e-25)
(-0.220845 -0.114105 -1.01736e-24)
(-0.0288285 -0.277345 -5.65255e-26)
(-0.0444098 -0.284465 -2.17363e-26)
(-0.0556775 -0.280174 2.96241e-25)
(-0.0671596 -0.275771 6.35059e-25)
(-0.0831385 -0.266217 0)
(-0.103689 -0.251754 6.37747e-25)
(-0.127035 -0.230848 6.96517e-25)
(-0.151163 -0.204646 6.16639e-25)
(-0.173148 -0.175718 -1.15615e-24)
(-0.19033 -0.147735 0)
(-0.2011 -0.124122 1.4407e-24)
(-0.205307 -0.10718 -9.35614e-25)
(-0.0362426 -0.288526 6.0868e-27)
(-0.0431663 -0.2849 3.43753e-26)
(-0.0502912 -0.269308 2.68156e-25)
(-0.0602875 -0.262062 6.11113e-25)
(-0.0746714 -0.254039 9.84647e-26)
(-0.0937613 -0.244393 6.77949e-25)
(-0.116074 -0.229048 6.2671e-25)
(-0.139216 -0.206876 -5.42058e-25)
(-0.160419 -0.179409 -9.88585e-25)
(-0.176968 -0.150438 8.84553e-25)
(-0.18716 -0.124334 8.49361e-25)
(-0.190754 -0.104434 0)
(-0.00698511 -0.262321 -1.91079e-25)
(-0.0196805 -0.247805 -2.00762e-25)
(-0.030626 -0.223048 3.37535e-26)
(-0.0452632 -0.216049 -3.75634e-25)
(-0.0617045 -0.213903 0)
(-0.0812079 -0.213171 3.91705e-25)
(-0.1031 -0.208593 7.98919e-25)
(-0.125868 -0.196995 -8.12466e-25)
(-0.146981 -0.177392 -1.72066e-26)
(-0.163785 -0.152507 7.48341e-25)
(-0.174408 -0.127135 -7.84805e-25)
(-0.17836 -0.105856 -7.89133e-25)
(-0.123037 -0.103646 -6.48593e-26)
(-0.13562 -0.0998958 -2.00313e-25)
(-0.14667 -0.0947413 1.34975e-25)
(-0.15519 -0.0880817 8.43649e-26)
(-0.160555 -0.0799136 -1.63719e-25)
(-0.162084 -0.070065 0)
(-0.159502 -0.0590321 6.01806e-26)
(-0.153956 -0.0473268 1.33468e-26)
(-0.146848 -0.0352477 0)
(-0.139982 -0.0231761 -3.40153e-26)
(-0.135078 -0.0117632 0)
(-0.133314 -0.00223988 0)
(-0.176818 -0.134265 -3.57217e-26)
(-0.192664 -0.132614 -4.90186e-25)
(-0.204198 -0.129739 -5.68335e-26)
(-0.210687 -0.125402 -3.89427e-25)
(-0.211856 -0.119272 0)
(-0.208346 -0.111161 0)
(-0.200644 -0.100893 -1.11321e-26)
(-0.189609 -0.0878069 4.19866e-27)
(-0.176729 -0.0713804 0)
(-0.164051 -0.0515252 -3.00639e-27)
(-0.154009 -0.029479 1.5934e-26)
(-0.149238 -0.00816801 5.87209e-27)
(-0.221019 -0.149226 -2.91077e-25)
(-0.234669 -0.148883 -3.10658e-35)
(-0.243171 -0.148267 0)
(-0.246685 -0.147062 3.88366e-35)
(-0.245519 -0.144815 2.92733e-26)
(-0.240162 -0.14101 3.24823e-26)
(-0.231138 -0.134464 2.43572e-25)
(-0.218858 -0.123649 0)
(-0.204045 -0.106676 0)
(-0.188154 -0.0818316 0)
(-0.173661 -0.0495399 -3.57716e-26)
(-0.165447 -0.0144442 -6.37885e-27)
(-0.248535 -0.154802 -2.9671e-25)
(-0.258987 -0.155544 5.79539e-25)
(-0.264678 -0.157126 0)
(-0.266362 -0.159127 5.38024e-25)
(-0.26469 -0.160996 0)
(-0.260085 -0.161986 0)
(-0.252663 -0.160737 2.39683e-25)
(-0.242271 -0.15509 -6.78313e-26)
(-0.228624 -0.141793 -9.00306e-26)
(-0.212089 -0.116493 0)
(-0.194293 -0.0762548 4.58146e-26)
(-0.181855 -0.0245561 2.56988e-26)
(-0.260843 -0.15185 -5.82664e-25)
(-0.267908 -0.152952 2.5626e-25)
(-0.270998 -0.155819 2.3139e-26)
(-0.271266 -0.159953 2.72723e-25)
(-0.269606 -0.164845 2.45594e-25)
(-0.266561 -0.16986 0)
(-0.262129 -0.173933 2.43819e-25)
(-0.25585 -0.174929 0)
(-0.246513 -0.168943 0)
(-0.233149 -0.14896 -1.26506e-25)
(-0.215332 -0.106635 1.72923e-26)
(-0.199004 -0.0384276 5.45414e-26)
(-0.260681 -0.143057 -5.74909e-25)
(-0.264361 -0.143944 5.20653e-25)
(-0.264851 -0.1473 0)
(-0.263594 -0.152459 0)
(-0.261713 -0.158889 6.91917e-25)
(-0.259999 -0.166184 -8.70602e-27)
(-0.258578 -0.173874 6.68671e-35)
(-0.25717 -0.180556 5.25471e-26)
(-0.254064 -0.182911 3.5725e-25)
(-0.247469 -0.172511 -1.51289e-25)
(-0.234376 -0.135812 0)
(-0.217008 -0.0555885 -3.37998e-26)
(-0.251799 -0.131274 4.81473e-25)
(-0.2525 -0.13168 9.89258e-25)
(-0.25071 -0.135149 6.25484e-26)
(-0.248056 -0.140722 -4.67916e-25)
(-0.245792 -0.147657 9.70272e-25)
(-0.244935 -0.1556 4.97363e-25)
(-0.245725 -0.164591 2.62781e-25)
(-0.248444 -0.174237 2.83501e-25)
(-0.251351 -0.182904 3.16811e-25)
(-0.253105 -0.182698 0)
(-0.248509 -0.157681 -1.51444e-25)
(-0.23552 -0.0740145 -1.63606e-25)
(-0.237679 -0.118694 5.95061e-25)
(-0.236066 -0.118418 1.04509e-24)
(-0.232549 -0.121809 4.83052e-25)
(-0.228874 -0.12756 -5.24549e-25)
(-0.226313 -0.13457 4.92026e-25)
(-0.226048 -0.142312 4.98636e-25)
(-0.228214 -0.150987 4.49848e-26)
(-0.233784 -0.160909 2.92545e-25)
(-0.241036 -0.172362 -3.38783e-25)
(-0.250533 -0.179457 0)
(-0.25572 -0.167839 -2.34443e-25)
(-0.253312 -0.0902644 -1.17394e-25)
(-0.221069 -0.10696 0)
(-0.217777 -0.105647 4.80176e-25)
(-0.213027 -0.108652 4.71539e-25)
(-0.208643 -0.11435 -4.47846e-26)
(-0.205867 -0.121203 4.89634e-25)
(-0.20601 -0.128426 4.82345e-25)
(-0.208869 -0.136041 -5.13967e-25)
(-0.216105 -0.144569 0)
(-0.225664 -0.155565 -3.39585e-25)
(-0.241118 -0.165316 7.73905e-27)
(-0.255265 -0.164333 -2.6822e-25)
(-0.268339 -0.0998092 8.91375e-27)
(-0.204202 -0.0976195 0)
(-0.199742 -0.0947532 0)
(-0.19409 -0.0968738 0)
(-0.189129 -0.102141 8.60185e-25)
(-0.186057 -0.10855 1.50349e-26)
(-0.186236 -0.115102 5.18902e-25)
(-0.188948 -0.121398 0)
(-0.196489 -0.127817 5.09357e-25)
(-0.206197 -0.136084 0)
(-0.225324 -0.143494 3.95319e-25)
(-0.246578 -0.146594 -2.94132e-25)
(-0.277973 -0.0968319 -3.35431e-27)
(-0.188996 -0.0921713 0)
(-0.183826 -0.0872202 0)
(-0.177524 -0.0878511 -8.71881e-25)
(-0.171977 -0.0921758 9.11371e-25)
(-0.168349 -0.0977498 -1.27764e-24)
(-0.167794 -0.103469 -4.08752e-25)
(-0.169076 -0.10842 4.9634e-26)
(-0.174803 -0.112653 5.26413e-25)
(-0.182024 -0.117109 -4.70029e-25)
(-0.201635 -0.118041 2.98399e-25)
(-0.227486 -0.115535 2.32596e-25)
(-0.277832 -0.0737234 1.77125e-25)
(-0.176751 -0.0913535 0)
(-0.171413 -0.0841388 0)
(-0.164761 -0.0827925 -8.24308e-25)
(-0.158514 -0.0856449 -8.72049e-25)
(-0.153834 -0.0899961 -7.80627e-25)
(-0.151163 -0.0946961 -3.65761e-25)
(-0.149228 -0.0984899 -3.30608e-25)
(-0.150144 -0.100851 0)
(-0.152025 -0.101808 -2.69912e-25)
(-0.166697 -0.0950861 1.29959e-25)
(-0.192338 -0.0781452 -3.89726e-26)
(-0.254319 -0.0164159 1.02678e-26)
(-0.133487 0.00595408 -9.42626e-27)
(-0.133222 0.0161712 0)
(-0.133324 0.0257623 0)
(-0.133204 0.0350786 -6.82731e-27)
(-0.132442 0.0441642 -4.60358e-26)
(-0.130733 0.0529959 0)
(-0.128004 0.0615401 0)
(-0.124283 0.069757 -4.9374e-26)
(-0.119619 0.0777227 -1.49637e-25)
(-0.114282 0.0856531 -4.95653e-26)
(-0.108624 0.0936369 7.75648e-26)
(-0.102757 0.101571 -3.94996e-26)
(-0.149778 0.00558125 8.80275e-27)
(-0.152122 0.0182368 0)
(-0.155694 0.0307477 0)
(-0.15912 0.0425796 8.98266e-26)
(-0.161437 0.0535836 -1.89935e-25)
(-0.161934 0.0639785 -1.56497e-26)
(-0.160448 0.0740002 1.62093e-26)
(-0.156981 0.0835976 -3.10177e-25)
(-0.151444 0.0931312 -2.09449e-25)
(-0.144463 0.103308 -4.1762e-25)
(-0.137146 0.114238 0)
(-0.129853 0.125306 1.41137e-36)
(-0.165574 0.0110932 1.64944e-26)
(-0.170218 0.0303143 0)
(-0.176798 0.0467089 0)
(-0.183317 0.0605629 1.92393e-25)
(-0.188115 0.0719231 -2.14365e-25)
(-0.18988 0.0820352 2.32091e-25)
(-0.188838 0.0919611 0)
(-0.185317 0.101173 -2.60375e-25)
(-0.178328 0.110805 -2.55006e-25)
(-0.168467 0.122652 -2.53305e-25)
(-0.158283 0.136066 -2.4471e-26)
(-0.148733 0.149108 2.72164e-25)
(-0.181583 0.0176883 1.65085e-26)
(-0.187987 0.0445854 -4.0573e-26)
(-0.197018 0.0649792 0)
(-0.206438 0.0801895 1.03746e-25)
(-0.213373 0.0899207 -1.24009e-25)
(-0.214964 0.0983129 2.69489e-25)
(-0.21356 0.107748 0)
(-0.210661 0.114361 2.93224e-25)
(-0.202463 0.121204 -3.6455e-25)
(-0.189251 0.133935 -2.69002e-26)
(-0.175933 0.15091 3.42464e-26)
(-0.16439 0.165892 5.96306e-25)
(-0.197192 0.0251689 1.59358e-26)
(-0.203635 0.0602432 -4.02764e-26)
(-0.212999 0.0846121 -9.22485e-26)
(-0.223986 0.100394 0)
(-0.231106 0.105325 3.32115e-25)
(-0.231265 0.108593 -2.44999e-25)
(-0.230019 0.1169 -2.63985e-25)
(-0.229319 0.119796 3.43808e-25)
(-0.219887 0.126574 0)
(-0.202804 0.14466 0)
(-0.186688 0.165327 0)
(-0.17569 0.178155 1.3946e-24)
(-0.212163 0.0311199 -3.28974e-26)
(-0.215479 0.0727088 0)