/*--------------------------------*- C++ -*----------------------------------*\
| =========                 |                                                 |
| \\      /  F ield         | OpenFOAM: The Open Source CFD Toolbox           |
|  \\    /   O peration     | Version:  v1606+                                |
|   \\  /    A nd           | Web:      www.OpenFOAM.com                      |
|    \\/     M anipulation  |                                                 |
\*---------------------------------------------------------------------------*/
FoamFile
{
    version     2.0;
    format      ascii;
    class       volScalarField;
    location    "1.73";
    object      alphat.air;
}
// * * * * * * * * * * * * * * * * * * * * * * * * * * * * * * * * * * * * * //

dimensions      [1 -1 -1 0 0 0 0];

internalField   nonuniform List<scalar> 
6000
(
0.000370377
0.00328089
0.00535822
0.00584904
0.00600822
0.00607191
0.00611155
0.006183
0.0062539
0.0063075
0.00631464
0.00629755
0.00628656
0.00629205
0.00630713
0.00631585
0.00630525
0.00625973
0.00618038
0.00613338
0.00611016
0.00609337
0.00607473
0.00605769
0.00603025
0.00598929
0.00583066
0.00534727
0.00336553
0.000368634
0.000277724
0.00196916
0.00375163
0.0048165
0.00532629
0.00558592
0.00574301
0.00587685
0.0059927
0.00611935
0.00623377
0.00623408
0.00624553
0.00627309
0.00628947
0.00627799
0.00619627
0.00611706
0.00604328
0.00597436
0.00592994
0.00588718
0.00583105
0.00575548
0.00563631
0.00539134
0.0048702
0.0037653
0.00191148
0.000277842
0.000235696
0.00166584
0.00325848
0.00436313
0.00503517
0.00544706
0.00571655
0.00591102
0.00604274
0.00615038
0.00629572
0.00637384
0.00640405
0.00643358
0.00644598
0.00640429
0.00630503
0.00626729
0.00623767
0.00620666
0.00617194
0.00612668
0.00605089
0.00590808
0.00568182
0.00529111
0.00459518
0.00337871
0.00165536
0.00023423
0.000220385
0.00155511
0.00299525
0.00410498
0.00487258
0.00539026
0.00574537
0.00601125
0.00620293
0.00633962
0.00651847
0.00671298
0.00681287
0.00687286
0.00686803
0.00677351
0.00665963
0.00662334
0.00661514
0.00658378
0.00653855
0.00645105
0.00630493
0.00607608
0.00574526
0.00524653
0.00448364
0.00331048
0.00172359
0.000223663
0.000207053
0.00147707
0.00284381
0.00394675
0.0047675
0.00535791
0.00578278
0.00612535
0.00639831
0.00660828
0.00680297
0.00705488
0.0072574
0.00739557
0.00741885
0.00731909
0.00719521
0.0071238
0.00705382
0.00694862
0.00681899
0.0066466
0.00641631
0.00610727
0.00570815
0.00516921
0.00439831
0.00326872
0.0017564
0.000218016
0.000194317
0.00141493
0.00273454
0.00382701
0.00467597
0.00531139
0.00580427
0.0062239
0.0065714
0.00685669
0.00711891
0.00742308
0.00771078
0.00792215
0.00801161
0.00791382
0.00773596
0.0076035
0.00746104
0.00726186
0.00703413
0.0067817
0.00647254
0.00608933
0.00563074
0.00506491
0.00427903
0.00318331
0.00172737
0.000210176
0.000186381
0.00138889
0.0026543
0.00371877
0.00457029
0.00525099
0.00583097
0.0063457
0.00677223
0.00713436
0.0074683
0.00781332
0.00813399
0.00835333
0.00850509
0.00849146
0.00828269
0.008078
0.00785551
0.0075707
0.0072859
0.0069868
0.00661063
0.00614802
0.00559142
0.00493007
0.00411316
0.00303855
0.00165841
0.000204895
0.000178319
0.00130416
0.002533
0.00360039
0.00450216
0.00527717
0.00595863
0.00654839
0.00704346
0.00747425
0.00785549
0.00823638
0.0085646
0.00873452
0.00887197
0.00894604
0.00881483
0.00857899
0.00830869
0.00799081
0.00766239
0.00732082
0.00690831
0.00638801
0.00574437
0.00497152
0.00401942
0.0028499
0.00148923
0.000192893
0.000163111
0.00115659
0.00243186
0.003592
0.00461616
0.0054984
0.00623929
0.00686121
0.0073953
0.00785803
0.00827362
0.00868324
0.00903787
0.00919017
0.00926367
0.0093417
0.00931862
0.00911633
0.0088204
0.00848857
0.00813759
0.00777197
0.00734544
0.00681103
0.00614585
0.00530655
0.00422675
0.00282818
0.00125334
0.000173232
0.000152965
0.00116019
0.00256531
0.00386996
0.00498532
0.00588593
0.00660912
0.00723488
0.00778503
0.00826875
0.00872358
0.00914488
0.00953196
0.0096969
0.00978587
0.00983655
0.00983743
0.0096801
0.00939433
0.00906505
0.0087063
0.00832361
0.00788033
0.00734113
0.00668528
0.00586884
0.00475403
0.00320146
0.00129736
0.000165791
0.000160072
0.00137604
0.00304066
0.0044099
0.00545471
0.00627617
0.00699751
0.00763991
0.00821821
0.00873762
0.00922154
0.00964878
0.0100239
0.0102071
0.0103239
0.0104006
0.0103888
0.010269
0.0100256
0.00972438
0.00937833
0.00898341
0.00851444
0.0079474
0.00729399
0.00647916
0.0053673
0.00383767
0.001709
0.000180013
0.000183496
0.00163082
0.00332283
0.00470052
0.00577077
0.00662713
0.00734093
0.00802854
0.00867615
0.00926039
0.00978054
0.010229
0.0105604
0.0107528
0.0108774
0.0109617
0.0109784
0.0109108
0.0107433
0.0104968
0.0101632
0.00974367
0.00921396
0.00858373
0.00790671
0.00700451
0.00580079
0.00417833
0.00205571
0.000218729
0.00019064
0.00170186
0.00342986
0.00484042
0.00596267
0.00689802
0.00769147
0.00839367
0.00914157
0.00983784
0.0104455
0.0109536
0.0112673
0.0114127
0.0115167
0.0116179
0.0116811
0.0116933
0.01163
0.0114437
0.0111028
0.0106167
0.00996992
0.00927121
0.00846054
0.00743026
0.00611601
0.00439455
0.0022117
0.000235833
0.000191697
0.00171987
0.0035146
0.00497583
0.00615309
0.007148
0.00802985
0.00883132
0.00963355
0.0104902
0.0112649
0.0119126
0.0122877
0.0123422
0.0123994
0.0125195
0.0126451
0.0127526
0.0127719
0.0126051
0.0122256
0.0116205
0.0108571
0.0100041
0.00903891
0.00788238
0.00643092
0.00456021
0.00224135
0.000244699
0.000195165
0.0017928
0.00363434
0.00515521
0.00640126
0.00747299
0.00843506
0.00935069
0.0102515
0.0112357
0.0122429
0.0131322
0.0136797
0.0137226
0.0137472
0.0138737
0.0140335
0.0141732
0.0141821
0.0139835
0.013559
0.0128444
0.0119019
0.0108571
0.00973341
0.00842135
0.00680875
0.00477335
0.00234599
0.000259705
0.000201686
0.00191503
0.00381415
0.00541857
0.00675672
0.00792251
0.00898104
0.00999061
0.0110105
0.0121231
0.0133499
0.0144764
0.0151901
0.0153629
0.0154447
0.0155689
0.0157029
0.0157867
0.0157344
0.0155024
0.0150488
0.0142617
0.0131223
0.0118784
0.0105495
0.00905724
0.00728974
0.0051176
0.00256521
0.0002786
0.000208836
0.0020198
0.00403154
0.00575965
0.0072144
0.00848595
0.00964507
0.0107549
0.011884
0.0130902
0.0143719
0.0155265
0.0162486
0.0165572
0.0167712
0.0169388
0.0170572
0.0170789
0.0169751
0.0167261
0.0162644
0.0154807
0.0143309
0.0129352
0.011412
0.00975723
0.00786097
0.00557807
0.00284254
0.000294259
0.000215369
0.00211377
0.00427634
0.00615214
0.00773448
0.00910966
0.0103547
0.0115353
0.0127092
0.0139148
0.0151015
0.0160721
0.0167197
0.0171487
0.0174123
0.0176304
0.0177866
0.0177816
0.0176436
0.017367
0.0169064
0.0162247
0.0151979
0.0137958
0.0121921
0.0104441
0.00845003
0.00604118
0.00307848
0.000305383
0.000223615
0.00221322
0.00454342
0.00656957
0.00827421
0.00973987
0.0110484
0.0122625
0.0134297
0.0145704
0.0156314
0.0164883
0.0170834
0.0174629
0.0177173
0.0179514
0.0181065
0.0180934
0.0179337
0.0176378
0.0172115
0.0166354
0.0157102
0.0143854
0.0127997
0.0110271
0.00895592
0.0063973
0.00321978
0.000312939
0.000234137
0.00235045
0.00484131
0.00700042
0.00880914
0.0103483
0.0117032
0.0129316
0.0140699
0.0151285
0.0160719
0.0168302
0.0173846
0.0177497
0.0179746
0.0181619
0.0182732
0.0182368
0.018064
0.0177735
0.0173986
0.0168978
0.0160222
0.0147569
0.0132183
0.0114489
0.00931359
0.00662666
0.00329834
0.000318271
0.000245917
0.00253129
0.0051772
0.00744296
0.00933632
0.0109368
0.0123299
0.013567
0.0146752
0.0156597
0.0165008
0.0171658
0.0176654
0.0180195
0.0182308
0.0183375
0.0183479
0.0182672
0.0180945
0.0178383
0.0175087
0.0170538
0.0162102
0.0149775
0.0134837
0.0117193
0.009539
0.00677157
0.00334935
0.000321464
0.000257608
0.00272609
0.00553227
0.00789799
0.00986839
0.0115284
0.0129596
0.0142057
0.015288
0.0162126
0.01697
0.0175462
0.0179708
0.0182871
0.018474
0.0185056
0.0184224
0.0182884
0.0181057
0.0178592
0.0175382
0.0170852
0.0162954
0.0151131
0.0136506
0.0118942
0.00968941
0.00687492
0.00338952
0.000322018
0.0002694
0.0029003
0.00587853
0.00836395
0.0104214
0.0121495
0.0136252
0.0148859
0.0159473
0.0168188
0.0175076
0.018015
0.0183563
0.0185894
0.0187091
0.0186511
0.0184867
0.0183001
0.0180942
0.017839
0.0175079
0.0170355
0.0162928
0.0151998
0.013787
0.0120428
0.00981162
0.00695553
0.00342599
0.000313691
0.000281929
0.00305258
0.00621106
0.00883942
0.0110063
0.0128203
0.0143552
0.0156508
0.016701
0.0175105
0.0181288
0.0185695
0.0188437
0.0189722
0.0189752
0.0187926
0.0185596
0.0183384
0.0181051
0.0178354
0.0174837
0.0169955
0.0162948
0.015297
0.0139553
0.0122248
0.00992786
0.00698229
0.00342311
0.00031108
0.000294345
0.00319618
0.0065368
0.00932381
0.0116213
0.0135423
0.0151771
0.0165631
0.0176065
0.0183174
0.0188572
0.0192374
0.0194438
0.0194858
0.0193211
0.0190223
0.0187524
0.0184805
0.0182088
0.0178985
0.017524
0.0170246
0.0163512
0.0153843
0.0141064
0.0123876
0.0100396
0.00697082
0.00339356
0.000316597
0.000306088
0.0033298
0.00685107
0.00980207
0.0122409
0.014302
0.01609
0.017514
0.0185102
0.0191583
0.019646
0.0199608
0.0201005
0.0200397
0.0197432
0.0193974
0.0190767
0.0187497
0.0184214
0.0180725
0.0176784
0.0171157
0.0163561
0.0153476
0.0140894
0.0124188
0.0100973
0.00702818
0.00339995
0.0003221
0.000316072
0.00344757
0.00713556
0.0102407
0.0128196
0.0150303
0.01687
0.0182371
0.0191845
0.0199112
0.0203895
0.0206045
0.0205992
0.0204098
0.0201483
0.0198062
0.0194352
0.0190545
0.0186666
0.018266
0.0177859
0.0171431
0.0162956
0.0152717
0.0140079
0.0123466
0.0100738
0.00708891
0.00346613
0.000325115
0.000328227
0.00353842
0.0073686
0.0106051
0.0132715
0.0155439
0.017346
0.0186432
0.0195834
0.0203619
0.0208747
0.0210282
0.0209065
0.0206538
0.0203903
0.020067
0.0196741
0.0192251
0.0187591
0.0182883
0.0177463
0.0170474
0.0161947
0.0151754
0.0138988
0.0122218
0.00997897
0.00706041
0.00348835
0.000324799
0.000340469
0.00370196
0.00761318
0.0108916
0.0135857
0.0158593
0.0176277
0.0189139
0.0198716
0.0206324
0.0211339
0.0212756
0.021129
0.0208152
0.0204736
0.0201144
0.0196972
0.0192334
0.018736
0.0182054
0.0176079
0.0169095
0.0160781
0.0150543
0.0137542
0.0120622
0.00983958
0.00697627
0.00346065
0.000322348
0.000352795
0.00387054
0.00786029
0.0111425
0.0138222
0.0160571
0.0178119
0.019128
0.0201182
0.0208615
0.0213214
0.0214531
0.0212857
0.0209324
0.0205242
0.0200985
0.0196432
0.0191578
0.0186352
0.0180782
0.0174735
0.0167838
0.0159532
0.0149084
0.0135825
0.0118791
0.0096797
0.00686843
0.00341356
0.000318039
0.000363036
0.00396613
0.00804526
0.0113661
0.014024
0.0161875
0.0179279
0.0192991
0.020341
0.0210672
0.0214734
0.0215856
0.0213962
0.0210101
0.0205436
0.0200569
0.0195686
0.0190712
0.0185423
0.0179735
0.0173608
0.0166681
0.0158248
0.0147502
0.0133955
0.0116857
0.00951359
0.00675202
0.00335918
0.000312951
0.000367498
0.00404327
0.00818392
0.0115095
0.0141263
0.0162423
0.0179917
0.019428
0.0205335
0.0212487
0.0215959
0.0216814
0.0214708
0.0210423
0.0205328
0.0200137
0.0194989
0.0189889
0.0184557
0.0178757
0.0172478
0.016543
0.0156854
0.0145838
0.013201
0.0114902
0.0093447
0.00662996
0.00329994
0.000307501
0.00036838
0.0040843
0.00825004
0.0115753
0.0141661
0.01625
0.0180014
0.0194935
0.0206776
0.0213877
0.0216781
0.0217397
0.0215095
0.0210353
0.0204964
0.0199591
0.0194277
0.0189056
0.0183587
0.0177587
0.0171094
0.0163901
0.0155244
0.0144048
0.0130038
0.0112953
0.00917101
0.00649879
0.00323414
0.000301769
0.000369474
0.00409738
0.00826748
0.011587
0.0141597
0.0162203
0.0179614
0.0194858
0.0207455
0.02146
0.0216988
0.0217442
0.0215037
0.0209915
0.0204261
0.0198857
0.0193504
0.0188083
0.018238
0.0176208
0.0169483
0.0162092
0.0153352
0.0142131
0.0128109
0.011107
0.00899852
0.00636228
0.0031627
0.000295801
0.000370454
0.0040968
0.00825382
0.0115564
0.0141107
0.0161529
0.0178814
0.0194186
0.0207216
0.0214418
0.0216399
0.0216764
0.0214413
0.0209047
0.0203242
0.0197897
0.0192582
0.0186977
0.0181012
0.0174629
0.016769
0.0160079
0.0151202
0.0140109
0.0126264
0.0109331
0.00884085
0.00623557
0.00309326
0.000289937
0.000370005
0.00408957
0.00821624
0.0114905
0.0140224
0.0160453
0.0177582
0.0192933
0.0206056
0.0213326
0.0214999
0.0215233
0.0213076
0.0207724
0.0201909
0.0196622
0.0191316
0.0185624
0.0179453
0.0172849
0.0165777
0.0157974
0.0148938
0.0138021
0.0124483
0.0107739
0.00870056
0.00612581
0.00303204
0.000284657
0.000368741
0.00406949
0.00815243
0.0113917
0.013897
0.0158943
0.0175802
0.0190934
0.0203898
0.0211254
0.021279
0.0212793
0.0210917
0.0205954
0.0200314
0.0194988
0.0189661
0.0183958
0.0177793
0.0171147
0.016395
0.015597
0.0146784
0.0135915
0.0122717
0.0106268
0.0085723
0.00602673
0.00297857
0.000280342
0.000366259
0.0040216
0.00805392
0.0112636
0.0137455
0.0157092
0.0173456
0.0188057
0.0200736
0.0208394
0.0209929
0.020994
0.0208216
0.0203726
0.0198365
0.0193056
0.0187758
0.0182224
0.0176249
0.0169696
0.0162409
0.0154199
0.0144829
0.0133919
0.0120875
0.0104767
0.00845204
0.00593499
0.00292936
0.000277143
0.000361038
0.00390331
0.00790397
0.0111183
0.0135939
0.0155124
0.0170672
0.0184303
0.0196228
0.0203832
0.0206267
0.0206257
0.0204754
0.0200927
0.0195875
0.0190712
0.0185643
0.0180398
0.0174737
0.0168421
0.0161206
0.0152854
0.0143209
0.0132102
0.0119029
0.0103137
0.00833045
0.00585052
0.00288494
0.000274904
0.000353863
0.00374938
0.00772233
0.0109702
0.0134489
0.0153215
0.0167883
0.0180396
0.0191309
0.0198485
0.0201097
0.0201842
0.0200897
0.0197598
0.0192877
0.0188004
0.0183284
0.0178525
0.0173251
0.0167301
0.0160314
0.0151965
0.0142087
0.0130601
0.0117293
0.0101452
0.00819737
0.00576882
0.002845
0.000273291
0.000350059
0.00354964
0.00751215
0.0107978
0.0132479
0.0150793
0.0165131
0.017705
0.01867
0.0192923
0.0195823
0.0196999
0.0196755
0.0193881
0.018925
0.018462
0.0180538
0.0176484
0.0171851
0.0166382
0.0159766
0.0151482
0.0141456
0.0129604
0.0115815
0.0099796
0.00805941
0.00567998
0.00280502
0.000272786
0.000352475
0.00352904
0.00733276
0.010568
0.0129907
0.0148097
0.0162442
0.0174054
0.0182763
0.0187801
0.0190528
0.0191973
0.0191666
0.018903
0.0184587
0.0180402
0.0177278
0.0174203
0.0170504
0.0165725
0.0159455
0.0151407
0.0141251
0.012912
0.011489
0.00984525
0.00792478
0.00557996
0.0027585
0.000272995
0.000359416
0.00357445
0.00722584
0.0103236
0.0127232
0.0145558
0.0160275
0.0171764
0.0179379
0.0183359
0.0185735
0.0186913
0.0186305
0.0183602
0.018012
0.0177324
0.0174698
0.0172011
0.0168956
0.0164907
0.0159194
0.015145
0.0141344
0.012897
0.011439
0.00974152
0.00778635
0.00546339
0.00270052
0.000274138
0.000368808
0.00357571
0.00714741
0.0101209
0.0124892
0.0143794
0.0159065
0.0170233
0.0176382
0.0179731
0.0181764
0.0182496
0.0181524
0.0179385
0.0177287
0.0175445
0.0173421
0.0170974
0.0167824
0.0163712
0.0158335
0.0151019
0.0141298
0.0129055
0.011435
0.00970595
0.00769831
0.00536817
0.0026606
0.000277382
0.000369775
0.00370441
0.00719427
0.0100578
0.0123971
0.0142988
0.0157885
0.0168037
0.0173543
0.0176652
0.017847
0.0178915
0.0178013
0.0176607
0.0175469
0.0174424
0.0173031
0.0170983
0.0167945
0.0163703
0.0157988
0.0150556
0.0141062
0.0129176
0.0114676
0.00973068
0.0076722
0.0053064
0.00265287
0.000282241
0.000371682
0.00379316
0.00732023
0.0101769
0.0124622
0.014309
0.0156418
0.0164846
0.0170382
0.0173631
0.0175365
0.0175862
0.0175515
0.0174893
0.0174424
0.0173924
0.017309
0.0171515
0.0168729
0.0164474
0.0158641
0.0151172
0.0141701
0.0129994
0.0115665
0.00982761
0.00772882
0.00530124
0.00264877
0.000279945
0.000377702
0.00380675
0.00747138
0.0104023
0.0127051
0.0144119
0.0154424
0.0161573
0.0166838
0.0170221
0.0172183
0.017316
0.0173571
0.0173674
0.0173677
0.0173598
0.017317
0.0171914
0.0169439
0.016554
0.0160065
0.0153087
0.0143618
0.0131945
0.0117583
0.0100043
0.00786802
0.00535703
0.00263887
0.000275553
0.000382943
0.00386197
0.00764426
0.0107002
0.0129578
0.0144715
0.0152352
0.0158458
0.016324
0.0166656
0.016911
0.0170718
0.0171812
0.0172549
0.0173029
0.0173225
0.0173
0.0171986
0.0169807
0.0166261
0.0161613
0.0155904
0.0147516
0.0135317
0.0120405
0.0102383
0.00806275
0.00547913
0.00262844
0.000270002
0.000384056
0.00392759
0.00779267
0.0108609
0.0129135
0.0141521
0.0149133
0.0155172
0.0160249
0.0163875
0.0166553
0.0168568
0.017016
0.0171399
0.0172278
0.0172723
0.0172609
0.0171646
0.0169667
0.0166716
0.0162988
0.0158894
0.0151518
0.0139413
0.0123905
0.0104956
0.0082621
0.00561984
0.0026229
0.000262502
0.0003839
0.00397781
0.00785238
0.0107356
0.0125695
0.0135994
0.0143581
0.0150496
0.0156602
0.0161391
0.0164776
0.0167151
0.0169052
0.0170666
0.0171869
0.0172528
0.01725
0.0171659
0.0170026
0.0167257
0.0163408
0.0158612
0.0152501
0.0141789
0.0126708
0.0107302
0.00842086
0.00571624
0.00263484
0.000260983
0.000385987
0.00393957
0.00779592
0.0104118
0.0120294
0.0130075
0.0137717
0.0144697
0.0151212
0.0156947
0.0161668
0.0165331
0.0168153
0.0170328
0.0171875
0.0172679
0.0172569
0.0171398
0.0169115
0.0165625
0.0161218
0.0156227
0.0150621
0.0141342
0.0127358
0.0108479
0.00852546
0.00577176
0.00268187
0.000270526
0.000389117
0.003793
0.00745771
0.00995042
0.0114235
0.0124097
0.0132008
0.0139144
0.0145748
0.0151739
0.0157001
0.0161461
0.0165115
0.0167916
0.0169795
0.0170656
0.0170389
0.0168952
0.016635
0.0162751
0.0158388
0.0153418
0.0147853
0.0139642
0.0126791
0.0108646
0.00854559
0.00576721
0.00268321
0.000269021
0.000391827
0.00356606
0.00710341
0.00942309
0.0108356
0.0118513
0.0126825
0.0134223
0.0140962
0.0147087
0.0152553
0.0157304
0.0161285
0.0164391
0.0166496
0.0167493
0.0167305
0.0165915
0.0163385
0.0159855
0.0155502
0.0150473
0.014471
0.0137166
0.0125157
0.0107864
0.00847081
0.00567344
0.00258644
0.000276334
0.000402445
0.00360895
0.00691043
0.00899387
0.0103451
0.011374
0.0122323
0.0129944
0.0136828
0.0143069
0.014867
0.0153585
0.0157736
0.0160996
0.0163233
0.0164339
0.0164243
0.0162932
0.0160471
0.0156977
0.0152572
0.0147365
0.0141292
0.0133887
0.0123126
0.0106686
0.00840836
0.00564337
0.00266688
0.000287022
0.000410887
0.00371079
0.00679135
0.00870922
0.00996409
0.0109744
0.0118424
0.0126204
0.0133221
0.0139561
0.0145251
0.0150253
0.0154479
0.0157805
0.0160107
0.016128
0.016126
0.0160032
0.0157639
0.0154158
0.0149664
0.0144218
0.0137782
0.0130051
0.012005
0.0105001
0.00835895
0.00557956
0.00266623
0.000296847
0.000409786
0.00372069
0.00671302
0.0085414
0.00968027
0.0106464
0.0115062
0.0122916
0.0130033
0.0136454
0.0142201
0.0147242
0.0151491
0.0154831
0.0157159
0.0158373
0.0158415
0.015726
0.0154928
0.0151456
0.0146881
0.0141232
0.013448
0.012644
0.0116664
0.0102589
0.00819204
0.00549776
0.00266575
0.000308761
0.000402703
0.00364785
0.00664716
0.00843946
0.00949413
0.0103946
0.0112265
0.0120068
0.0127213
0.0133675
0.0139447
0.0144496
0.0148736
0.0152067
0.0154399
0.0155639
0.0155729
0.0154636
0.0152359
0.0148905
0.0144285
0.0138523
0.0131616
0.0123485
0.0113845
0.0100849
0.00813087
0.00554088
0.00277022
0.000325948
0.000393789
0.00355059
0.0065847
0.00837282
0.00938913
0.010217
0.0110061
0.0117682
0.0124757
0.0131193
0.013695
0.0141978
0.0146187
0.0149494
0.0151818
0.0153076
0.0153205
0.0152161
0.0149935
0.0146509
0.0141882
0.0136093
0.012918
0.0121178
0.0111973
0.0100275
0.00824315
0.00577855
0.0029766
0.000339113
0.000383911
0.00348039
0.00652291
0.0083314
0.00934196
0.010102
0.0108426
0.0115766
0.0122671
0.0129002
0.0134692
0.0139662
0.014382
0.0147093
0.0149403
0.0150673
0.0150831
0.0149827
0.0147646
0.0144253
0.0139643
0.0133877
0.0127049
0.0119306
0.0110731
0.0100238
0.00841152
0.0060553
0.00316997
0.000337133
0.00037584
0.00343643
0.00646455
0.00831017
0.00933171
0.0100367
0.0107303
0.0114298
0.0120949
0.01271
0.0132663
0.0137536
0.0141622
0.0144849
0.0147138
0.0148411
0.0148591
0.014762
0.0145479
0.0142118
0.0137537
0.0131823
0.012512
0.0117686
0.0109782
0.0100245
0.00853333
0.0062493
0.00326408
0.000325151
0.00036945
0.00340469
0.00640935
0.00830381
0.00934013
0.0100122
0.0106605
0.0113218
0.0119562
0.0125476
0.013086
0.01356
0.0139594
0.014276
0.0145016
0.0146281
0.0146475
0.0145532
0.0143429
0.0140103
0.0135562
0.0129921
0.0123359
0.0116208
0.0108814
0.0100041
0.00857747
0.00627019
0.00314646
0.000316209
0.000364572
0.00337708
0.00636237
0.00830633
0.00935822
0.0100104
0.010619
0.0112429
0.011845
0.01241
0.0129275
0.0133857
0.0137743
0.0140835
0.0143044
0.0144288
0.0144486
0.0143565
0.0141501
0.0138217
0.0133739
0.0128197
0.0121793
0.0114868
0.0107757
0.00994577
0.00853649
0.00619176
0.00301326
0.000308765
0.000362272
0.00335007
0.00632749
0.00831041
0.00937722
0.0100128
0.01059
0.0111811
0.0117528
0.0122923
0.0127885
0.0132302
0.0136068
0.0139074
0.0141225
0.0142437
0.014263
0.0141727
0.0139706
0.013648
0.0132091
0.0126682
0.0120456
0.0113713
0.0106711
0.00984909
0.00846485
0.00613874
0.0029326
0.000300886
0.000362611
0.00332436
0.00630853
0.00831398
0.0093843
0.0100045
0.0105584
0.0111238
0.0116706
0.0121881
0.0126652
0.0130913
0.0134556
0.013747
0.0139555
0.0140728
0.0140909
0.0140022
0.0138049
0.01349
0.013063
0.0125385
0.0119351
0.011276
0.0105738
0.00973153
0.00839021
0.00611208
0.00289576
0.000298982
0.000358972
0.00333613
0.00632676
0.00831407
0.00936903
0.00997231
0.0105117
0.0110603
0.0115903
0.0120915
0.0125535
0.0129661
0.0133187
0.0136004
0.013802
0.0139151
0.0139317
0.0138447
0.0136524
0.0133466
0.0129335
0.0124272
0.0118437
0.0112001
0.0104983
0.00963615
0.00829857
0.00607799
0.00298242
0.000308846
0.000342662
0.00334608
0.00635227
0.00828744
0.00931749
0.00990807
0.0104429
0.0109845
0.0115063
0.0119983
0.0124503
0.0128523
0.0131939
0.0134659
0.0136603
0.0137689
0.013784
0.0136985
0.0135114
0.0132152
0.0128164
0.012328
0.0117635
0.0111361
0.0104432
0.00958217
0.00825545
0.00607868
0.00305124
0.000312754
0.000326794
0.00327966
0.00630149
0.00820858
0.00922088
0.00981186
0.010353
0.0108963
0.0114175
0.0119068
0.0123543
0.0127487
0.0130801
0.0133421
0.0135287
0.0136325
0.0136456
0.0135614
0.0133788
0.0130915
0.0127059
0.0122333
0.0116855
0.0110747
0.0103979
0.00955279
0.00824002
0.00606646
0.00306877
0.000313358
0.000317192
0.00317338
0.00618418
0.00807773
0.00908175
0.00969181
0.0102492
0.0108002
0.0113257
0.0118177
0.0122656
0.0126551
0.0129763
0.0132275
0.0134057
0.0135039
0.0135144
0.0134306
0.0132515
0.0129714
0.0125968
0.0121372
0.0116035
0.0110092
0.0103542
0.00953394
0.00823444
0.00603668
0.00304724
0.000313809
0.000307877
0.00308159
0.00602655
0.00791055
0.00892089
0.0095619
0.0101405
0.0107023
0.0112349
0.0117332
0.0121854
0.0125714
0.0128817
0.0131207
0.0132893
0.013381
0.0133878
0.0133033
0.013126
0.0128513
0.0124854
0.0120361
0.0115147
0.0109366
0.0103063
0.00951292
0.00822545
0.00600096
0.00301127
0.000314362
0.000304603
0.00293849
0.0058395
0.00773026
0.00875952
0.00943429
0.0100345
0.010608
0.0111492
0.0116564
0.0121148
0.0124968
0.0127943
0.0130195
0.0131774
0.0132615
0.0132634
0.0131767
0.0129994
0.0127285
0.0123694
0.0119287
0.0114179
0.0108551
0.0102477
0.00948023
0.00820983
0.0060048
0.00303251
0.00030977
0.000299729
0.00293007
0.00571103
0.00757311
0.0086124
0.00931468
0.00993501
0.010521
0.0110727
0.0115907
0.0120548
0.0124299
0.0127119
0.0129216
0.0130677
0.0131429
0.0131385
0.0130483
0.0128698
0.0126015
0.012248
0.0118149
0.0113134
0.0107626
0.0101701
0.00941927
0.00816508
0.00600288
0.00303384
0.000296524
0.000294187
0.00286973
0.00558293
0.00742499
0.00847197
0.00920167
0.00984346
0.0104442
0.0110085
0.0115389
0.0120073
0.0123684
0.0126316
0.0128251
0.0129584
0.0130235
0.0130115
0.0129167
0.0127363
0.0124702
0.0121219
0.0116964
0.0112028
0.0106594
0.0100701
0.00931629
0.00806369
0.00593449
0.0029787
0.000284143
0.000289103
0.00280683
0.00545976
0.0072724
0.00833662
0.00909635
0.00976245
0.01038
0.0109594
0.0115022
0.0119706
0.0123108
0.0125524
0.0127295
0.012849
0.0129027
0.0128819
0.0127821
0.0126
0.0123359
0.0119933
0.0115762
0.0110903
0.0105511
0.00995654
0.00918605
0.00791981
0.00579596
0.00288423
0.000277505
0.000283366
0.00276547
0.00536546
0.00713145
0.00820761
0.00900146
0.00969365
0.0103296
0.010926
0.0114794
0.011938
0.0122537
0.0124738
0.0126344
0.0127395
0.0127812
0.012751
0.0126459
0.0124624
0.012201
0.0118647
0.0114568
0.0109796
0.0104441
0.00984415
0.00905601
0.00775157
0.00561779
0.00281006
0.000275565
0.000274516
0.00274319
0.00527631
0.00699158
0.00808624
0.0089171
0.00963824
0.0102944
0.0109069
0.0114633
0.0119033
0.0121956
0.0123959
0.01254
0.0126302
0.0126596
0.0126202
0.0125098
0.0123254
0.0120671
0.0117374
0.0113388
0.0108706
0.0103379
0.00973014
0.00893437
0.00760257
0.00548011
0.00277462
0.000272263
0.000266593
0.00272011
0.00516264
0.00684297
0.00797339
0.00884687
0.00959848
0.0102741
0.0108972
0.0114477
0.011864
0.0121356
0.0123176
0.0124456
0.0125214
0.0125389
0.0124909
0.0123757
0.0121904
0.0119354
0.011612
0.0112218
0.0107616
0.0102304
0.00961481
0.00881021
0.00748533
0.00537533
0.00269641
0.000268693
0.000258594
0.00268056
0.00504824
0.00670576
0.00788126
0.00879656
0.00957427
0.0102649
0.0108892
0.0114228
0.0118162
0.0120713
0.0122366
0.0123493
0.0124121
0.0124189
0.0123637
0.0122442
0.0120584
0.0118061
0.0114884
0.011105
0.0106508
0.010118
0.00949255
0.00867581
0.00735788
0.00528299
0.00264876
0.000262815
0.0002562
0.00256966
0.00489322
0.0065758
0.00780991
0.00876485
0.0095618
0.0102626
0.0108771
0.011382
0.0117536
0.0119965
0.0121475
0.0122478
0.0123002
0.0122984
0.0122376
0.0121148
0.0119287
0.0116791
0.0113662
0.0109886
0.0105391
0.0100026
0.00936124
0.00851977
0.00720122
0.00518144
0.00260323
0.000254829
0.000250862
0.00248112
0.00474479
0.00646382
0.00775192
0.00874526
0.00956291
0.010262
0.0108469
0.0113156
0.0116693
0.0119032
0.0120458
0.0121378
0.0121832
0.0121752
0.0121101
0.0119853
0.0117996
0.0115527
0.0112448
0.0108729
0.0104281
0.00988877
0.00922859
0.00835303
0.00703067
0.00507723
0.00255112
0.000246768
0.000244845
0.00240603
0.00462164
0.00635286
0.00769165
0.00873089
0.00955751
0.0102415
0.0107937
0.0112318
0.011565
0.0117907
0.0119293
0.0120178
0.0120581
0.0120454
0.0119768
0.0118513
0.0116674
0.0114241
0.0111214
0.0107565
0.0103177
0.00978126
0.00910364
0.00819172
0.00687466
0.00497746
0.00249777
0.000240834
0.000237051
0.0023484
0.0045072
0.00622395
0.00759441
0.00867543
0.00951846
0.0101869
0.0107146
0.0111323
0.0114464
0.01166
0.0117982
0.0118848
0.0119188
0.0119014
0.0118304
0.0117057
0.0115258
0.0112886
0.0109922
0.0106355
0.0102068
0.0096765
0.00898597
0.0080361
0.00670524
0.00485768
0.00245871
0.000237052
0.000229408
0.00227199
0.00438126
0.00609245
0.00748759
0.00858627
0.00942905
0.0100888
0.0105996
0.0110016
0.0113066
0.0115117
0.0116477
0.0117287
0.0117543
0.0117315
0.0116599
0.011539
0.0113663
0.0111385
0.0108515
0.0105027
0.010086
0.00956718
0.00887034
0.00788291
0.00651593
0.0046899
0.00237261
0.000233393
0.000223212
0.00219277
0.00428326
0.00600806
0.00740914
0.00849137
0.00929554
0.00994524
0.0104478
0.0108362
0.0111334
0.0113291
0.0114608
0.0115328
0.0115495
0.0115233
0.0114548
0.0113415
0.01118
0.0109653
0.0106905
0.0103538
0.00994498
0.00943963
0.0087434
0.0077393
0.00635654
0.00455113
0.00230503
0.000226986
0.000219031
0.00214478
0.0042213
0.00594175
0.00731058
0.00834871
0.00912655
0.00975497
0.0102554
0.0106355
0.0109097
0.0110904
0.0112147
0.0112821
0.0112955
0.0112706
0.0112097
0.0111071
0.0109585
0.0107601
0.0105032
0.0101803
0.00978131
0.0092895
0.00860098
0.00760436
0.00623861
0.00446655
0.0022586
0.000221891
0.000215776
0.00210727
0.00416296
0.00585349
0.00716365
0.00814217
0.00891022
0.00952528
0.0100181
0.0103859
0.0106278
0.0107947
0.0109081
0.0109734
0.0109966
0.0109839
0.010934
0.010842
0.0107047
0.010519
0.0102805
0.00997375
0.00958705
0.0091061
0.00842845
0.00745623
0.00612691
0.00440341
0.00223601
0.000218553
0.000210888
0.00206078
0.00408133
0.00570927
0.0069492
0.00789176
0.00864871
0.00926389
0.00975164
0.010096
0.0103105
0.0104594
0.0105693
0.0106406
0.0106765
0.0106749
0.0106331
0.010549
0.0104205
0.0102446
0.0100173
0.00972689
0.00935493
0.00887801
0.00821061
0.00726734
0.00598373
0.00431118
0.00219395
0.000218168
0.000204446
0.00200157
0.00395266
0.00550154
0.00667927
0.00761442
0.0083854
0.0090154
0.00950328
0.00983112
0.0100294
0.0101522
0.0102481
0.0103208
0.0103597
0.0103596
0.0103193
0.0102376
0.010113
0.00994246
0.00972127
0.00944047
0.00907985
0.00860054
0.00793974
0.00702469
0.00578835
0.00416746
0.00212868
0.000217922
0.000197144
0.00192413
0.00378505
0.00526383
0.0064292
0.00739305
0.00818548
0.00882092
0.00930594
0.00962908
0.00982883
0.00993798
0.0100043
0.0100561
0.0100841
0.0100765
0.0100306
0.00994529
0.00981825
0.00964523
0.00941875
0.00912697
0.00875285
0.0082668
0.00761398
0.00672841
0.00554417
0.00398949
0.002042
0.000214185
0.000189314
0.00183581
0.00362714
0.00508003
0.00626444
0.00724406
0.00804461
0.00867935
0.0091589
0.00947964
0.00968168
0.00979318
0.00985113
0.00987862
0.00988176
0.00985599
0.00979676
0.00970049
0.00956225
0.00937561
0.00913114
0.00881485
0.00840884
0.00789176
0.00723406
0.00637888
0.00524911
0.00377133
0.0019243
0.000205991
0.000182722
0.00176115
0.0035217
0.00497369
0.00617204
0.00715986
0.0079537
0.00857349
0.00903874
0.00935406
0.0095536
0.00966254
0.0097145
0.00973038
0.00971567
0.00967111
0.0095941
0.00948054
0.00932445
0.00911818
0.00885173
0.00851139
0.00807833
0.00752984
0.00684452
0.00599461
0.00491298
0.00351981
0.00179237
0.00019709
0.000178818
0.00172073
0.00347229
0.00493741
0.00614245
0.00710882
0.00786033
0.00843802
0.0088753
0.0091871
0.00939173
0.00950194
0.00954846
0.00955612
0.00953099
0.00947387
0.00938315
0.00925502
0.00908373
0.00886148
0.00857822
0.00822066
0.0077705
0.00720425
0.00649776
0.00563015
0.00456703
0.00324848
0.00164688
0.000187618
0.000177827
0.00171389
0.00348253
0.0049491
0.00611701
0.00701751
0.00771277
0.00825299
0.00866718
0.00897259
0.00917543
0.00928786
0.00933798
0.00934566
0.00931768
0.00925524
0.00915731
0.00902065
0.00883992
0.00860778
0.00831452
0.00794737
0.00748902
0.00691638
0.00620329
0.0053256
0.00426224
0.00298828
0.00149743
0.00017577
0.000178532
0.00174021
0.00352077
0.00494225
0.00602814
0.00686817
0.00752719
0.00804555
0.00844474
0.00873298
0.00892392
0.00903517
0.00909371
0.00910848
0.0090838
0.00902165
0.00892174
0.00878159
0.0085966
0.00836015
0.00806325
0.00769382
0.00723547
0.00666605
0.00595762
0.00508269
0.00402253
0.00276526
0.00132924
0.000163818
0.000182105
0.00179699
0.00353325
0.00487229
0.0058829
0.00668669