/*--------------------------------*- C++ -*----------------------------------*\
| =========                 |                                                 |
| \\      /  F ield         | OpenFOAM: The Open Source CFD Toolbox           |
|  \\    /   O peration     | Version:  v1606+                                |
|   \\  /    A nd           | Web:      www.OpenFOAM.com                      |
|    \\/     M anipulation  |                                                 |
\*---------------------------------------------------------------------------*/
FoamFile
{
    version     2.0;
    format      ascii;
    class       volScalarField;
    location    "1.73";
    object      pMean;
}
// * * * * * * * * * * * * * * * * * * * * * * * * * * * * * * * * * * * * * //

dimensions      [1 -1 -2 0 0 0 0];

internalField   nonuniform List<scalar> 
6000
(
107515
107515
107515
107515
107515
107515
107516
107516
107516
107516
107516
107516
107516
107516
107516
107516
107516
107517
107517
107516
107516
107516
107515
107515
107515
107515
107515
107516
107516
107515
107443
107444
107443
107443
107442
107442
107442
107442
107443
107443
107443
107443
107443
107443
107444
107444
107444
107444
107444
107443
107443
107442
107442
107441
107442
107443
107444
107444
107445
107444
107396
107396
107396
107396
107396
107397
107397
107397
107398
107398
107399
107399
107398
107398
107398
107399
107399
107399
107399
107398
107397
107396
107396
107395
107396
107396
107397
107397
107397
107397
107343
107342
107342
107341
107342
107342
107343
107343
107344
107345
107345
107345
107345
107346
107346
107346
107346
107346
107346
107345
107343
107342
107342
107342
107342
107342
107342
107342
107342
107343
107292
107291
107291
107290
107290
107290
107291
107291
107291
107292
107293
107294
107294
107294
107295
107295
107295
107294
107293
107292
107290
107289
107289
107289
107289
107289
107290
107290
107290
107291
107241
107241
107240
107240
107240
107240
107239
107239
107239
107240
107241
107241
107242
107242
107243
107243
107243
107242
107241
107240
107238
107237
107237
107236
107237
107237
107238
107239
107239
107240
107191
107190
107189
107188
107188
107188
107188
107187
107187
107187
107188
107189
107189
107190
107191
107191
107190
107189
107188
107187
107186
107185
107184
107183
107184
107185
107187
107188
107188
107189
107138
107137
107135
107135
107135
107135
107135
107135
107135
107136
107136
107136
107136
107137
107138
107138
107137
107136
107135
107134
107133
107132
107130
107129
107129
107131
107133
107134
107136
107137
107084
107082
107080
107080
107081
107081
107082
107083
107084
107085
107085
107085
107085
107085
107086
107086
107085
107084
107083
107082
107081
107079
107076
107075
107074
107076
107077
107079
107081
107084
107028
107026
107026
107025
107026
107027
107029
107031
107032
107033
107034
107035
107035
107036
107036
107036
107035
107033
107032
107031
107029
107027
107025
107022
107020
107020
107022
107024
107026
107029
106973
106972
106971
106971
106971
106973
106977
106980
106981
106982
106983
106985
106986
106988
106988
106988
106987
106985
106983
106982
106979
106977
106974
106971
106967
106966
106967
106969
106972
106974
106919
106917
106916
106916
106916
106920
106924
106927
106929
106930
106932
106934
106936
106938
106940
106941
106940
106938
106936
106934
106931
106928
106926
106921
106917
106913
106913
106915
106918
106920
106864
106863
106861
106861
106862
106867
106872
106875
106877
106879
106880
106882
106884
106887
106890
106891
106892
106891
106890
106887
106883
106880
106878
106873
106868
106863
106860
106861
106864
106866
106811
106809
106808
106808
106810
106815
106820
106824
106826
106828
106829
106831
106833
106836
106839
106841
106841
106843
106843
106840
106837
106833
106829
106825
106819
106814
106810
106810
106811
106813
106758
106757
106757
106757
106759
106763
106768
106772
106775
106778
106779
106781
106783
106786
106788
106790
106791
106792
106794
106792
106789
106785
106781
106776
106771
106766
106762
106760
106761
106762
106708
106707
106707
106708
106710
106712
106716
106720
106724
106728
106731
106734
106736
106737
106739
106740
106740
106741
106742
106741
106739
106735
106731
106726
106722
106718
106714
106712
106712
106712
106659
106658
106659
106660
106661
106661
106664
106669
106674
106679
106683
106686
106688
106689
106690
106690
106689
106689
106689
106688
106687
106683
106679
106674
106671
106668
106665
106663
106662
106662
106609
106608
106609
106610
106610
106610
106612
106618
106624
106630
106635
106638
106639
106640
106639
106638
106637
106636
106636
106635
106633
106629
106624
106620
106617
106614
106613
106611
106610
106609
106558
106558
106558
106558
106559
106559
106561
106566
106573
106580
106585
106587
106588
106588
106587
106585
106584
106583
106583
106582
106579
106573
106567
106562
106558
106556
106556
106555
106554
106554
106506
106506
106505
106505
106506
106509
106512
106516
106522
106528
106533
106535
106534
106533
106531
106530
106529
106530
106531
106530
106525
106518
106510
106504
106499
106496
106495
106495
106495
106494
106452
106452
106451
106452
106455
106459
106464
106468
106472
106476
106480
106482
106480
106477
106475
106474
106474
106476
106477
106476
106470
106462
106454
106446
106440
106436
106434
106433
106433
106433
106395
106396
106397
106400
106404
106409
106415
106419
106423
106427
106429
106430
106428
106424
106420
106419
106420
106421
106421
106419
106412
106404
106395
106386
106379
106374
106372
106370
106370
106370
106334
106336
106340
106345
106350
106356
106361
106366
106371
106376
106378
106378
106375
106370
106366
106364
106364
106364
106363
106359
106351
106342
106332
106323
106315
106311
106308
106307
106307
106307
106272
106274
106278
106283
106289
106295
106301
106306
106313
106319
106322
106323
106319
106314
106310
106307
106306
106305
106302
106296
106286
106276
106266
106257
106249
106245
106243
106243
106243
106244
106207
106208
106212
106217
106223
106229
106235
106240
106249
106257
106262
106263
106260
106255
106251
106248
106246
106243
106238
106229
106218
106207
106197
106189
106182
106179
106178
106179
106179
106180
106141
106141
106145
106149
106154
106159
106165
106172
106179
106188
106196
106198
106197
106194
106190
106186
106183
106179
106172
106161
106148
106137
106129
106122
106117
106114
106114
106115
106116
106117
106075
106075
106077
106080
106084
106088
106094
106101
106108
106117
106125
106130
106132
106130
106126
106123
106118
106113
106103
106090
106077
106067
106061
106056
106053
106052
106052
106053
106054
106055
106010
106010
106011
106012
106015
106019
106024
106030
106036
106044
106052
106060
106064
106064
106061
106057
106053
106045
106032
106018
106005
105996
105992
105991
105990
105989
105990
105992
105993
105994
105945
105946
105945
105945
105946
105949
105954
105959
105964
105970
105979
105988
105994
105996
105995
105991
105985
105974
105959
105944
105933
105925
105922
105922
105924
105926
105927
105930
105932
105933
105880
105880
105879
105877
105877
105878
105882
105887
105891
105897
105905
105915
105923
105927
105927
105923
105914
105902
105885
105870
105860
105854
105852
105853
105856
105860
105863
105866
105869
105870
105813
105812
105810
105808
105806
105806
105809
105813
105818
105824
105833
105842
105851
105857
105858
105852
105842
105829
105812
105799
105790
105785
105783
105784
105787
105792
105797
105802
105805
105807
105743
105742
105740
105737
105734
105733
105735
105739
105746
105752
105761
105771
105779
105786
105786
105781
105771
105757
105743
105732
105725
105721
105719
105718
105721
105726
105732
105737
105741
105743
105673
105671
105669
105665
105662
105661
105664
105669
105676
105683
105691
105701
105709
105714
105714
105709
105699
105688
105677
105669
105664
105661
105659
105657
105658
105662
105668
105673
105677
105680
105602
105601
105598
105594
105592
105593
105596
105603
105610
105617
105624
105633
105640
105644
105643
105637
105630
105621
105614
105610
105606
105604
105602
105600
105599
105601
105606
105611
105615
105617
105532
105529
105526
105523
105524
105527
105533
105540
105548
105554
105560
105566
105572
105575
105574
105568
105562
105557
105553
105551
105550
105549
105547
105544
105543
105543
105546
105550
105553
105555
105461
105458
105455
105454
105457
105464
105472
105480
105488
105494
105498
105502
105506
105508
105507
105503
105499
105496
105495
105494
105494
105493
105492
105490
105488
105486
105488
105491
105493
105495
105394
105390
105388
105389
105395
105403
105413
105422
105430
105435
105437
105438
105441
105443
105443
105441
105439
105438
105438
105438
105438
105438
105437
105436
105434
105431
105431
105432
105435
105436
105334
105332
105332
105334
105338
105346
105356
105365
105372
105377
105378
105377
105379
105381
105382
105383
105382
105382
105382
105382
105382
105382
105382
105381
105380
105378
105376
105376
105377
105379
105283
105283
105284
105285
105287
105292
105300
105309
105315
105319
105319
105317
105318
105321
105324
105326
105326
105327
105327
105327
105327
105327
105326
105327
105326
105324
105322
105321
105321
105322
105235
105236
105238
105238
105237
105239
105245
105251
105257
105261
105261
105260
105260
105263
105267
105270
105271
105272
105272
105272
105272
105271
105271
105272
105271
105270
105268
105267
105266
105266
105186
105188
105189
105187
105185
105185
105188
105193
105198
105202
105204
105203
105204
105207
105212
105215
105217
105218
105218
105218
105217
105216
105216
105215
105215
105214
105213
105212
105211
105211
105136
105138
105136
105132
105129
105128
105128
105132
105137
105141
105145
105147
105149
105152
105157
105161
105164
105164
105164
105163
105162
105161
105159
105158
105157
105157
105156
105156
105155
105155
105085
105085
105080
105074
105071
105068
105067
105069
105074
105080
105085
105090
105093
105097
105102
105107
105109
105110
105109
105108
105107
105105
105102
105100
105099
105099
105099
105099
105099
105099
105031
105028
105022
105016
105011
105007
105006
105007
105012
105019
105026
105032
105037
105042
105047
105052
105055
105054
105054
105053
105051
105048
105044
105041
105040
105040
105041
105042
105043
105044
104974
104970
104963
104957
104951
104947
104946
104948
104953
104960
104968
104975
104981
104986
104992
104997
104999
104999
104999
104998
104995
104991
104986
104983
104982
104982
104983
104985
104987
104988
104917
104912
104906
104899
104893
104889
104889
104892
104897
104905
104912
104919
104926
104931
104937
104943
104944
104944
104945
104943
104940
104936
104931
104928
104926
104925
104926
104929
104932
104933
104861
104857
104850
104844
104840
104838
104839
104842
104847
104853
104860
104866
104872
104878
104884
104889
104891
104892
104892
104891
104888
104884
104879
104875
104872
104871
104871
104873
104877
104878
104809
104805
104799
104795
104792
104792
104793
104796
104800
104805
104811
104816
104821
104827
104833
104838
104840
104841
104842
104841
104838
104834
104829
104824
104820
104818
104818
104820
104822
104824
104760
104757
104753
104750
104749
104749
104750
104753
104756
104760
104764
104768
104773
104778
104783
104788
104790
104791
104792
104791
104788
104784
104779
104774
104770
104767
104767
104768
104769
104770
104715
104712
104710
104708
104707
104707
104708
104710
104713
104716
104719
104722
104726
104730
104734
104738
104740
104742
104743
104742
104738
104734
104729
104724
104720
104717
104716
104716
104717
104718
104671
104670
104668
104667
104666
104666
104667
104669
104670
104672
104674
104677
104679
104683
104686
104689
104691
104693
104693
104692
104688
104684
104680
104675
104671
104667
104665
104665
104665
104666
104629
104628
104627
104626
104626
104626
104626
104627
104627
104628
104630
104631
104633
104636
104638
104641
104642
104643
104643
104641
104638
104634
104630
104626
104622
104618
104615
104614
104613
104614
104585
104585
104585
104585
104585
104585
104585
104584
104584
104584
104585
104586
104587
104589
104591
104592
104592
104593
104592
104590
104586
104583
104580
104577
104573
104569
104566
104563
104562
104561
104541
104542
104543
104543
104543
104543
104541
104539
104538
104538
104539
104539
104540
104541
104542
104543
104542
104542
104541
104538
104534
104531
104528
104525
104522
104519
104516
104513
104511
104510
104496
104497
104498
104499
104498
104497
104495
104492
104491
104491
104491
104491
104492
104492
104493
104492
104491
104490
104488
104484
104480
104477
104474
104472
104470
104468
104466
104463
104460
104459
104449
104450
104451
104451
104450
104448
104445
104443
104443
104442
104442
104442
104442
104442
104442
104440
104439
104437
104434
104430
104425
104422
104418
104416
104415
104414
104413
104412
104409
104408
104401
104402
104402
104400
104398
104396
104394
104393
104392
104392
104392
104392
104391
104391
104390
104387
104385
104382
104379
104374
104370
104365
104361
104358
104356
104357
104358
104358
104357
104356
104352
104352
104350
104347
104344
104343
104343
104342
104342
104341
104340
104340
104339
104338
104337
104334
104330
104327
104323
104318
104313
104308
104303
104299
104297
104297
104299
104301
104302
104302
104301
104300
104296
104293
104292
104292
104292
104292
104291
104289
104288
104287
104286
104285
104282
104279
104275
104271
104266
104261
104256
104250
104244
104239
104236
104236
104238
104241
104244
104245
104248
104245
104242
104240
104241
104241
104242
104240
104238
104236
104233
104232
104231
104230
104227
104223
104219
104214
104209
104204
104198
104192
104185
104179
104175
104175
104177
104180
104183
104185
104193
104191
104189
104190
104191
104192
104190
104187
104184
104180
104177
104175
104173
104172
104169
104166
104161
104156
104151
104146
104140
104133
104127
104120
104116
104114
104115
104118
104121
104123
104140
104139
104140
104142
104142
104141
104137
104132
104128
104123
104120
104117
104114
104112
104110
104106
104102
104096
104091
104086
104081
104075
104069
104063
104058
104055
104055
104057
104060
104061
104087
104089
104092
104094
104092
104088
104082
104075
104070
104065
104061
104057
104055
104052
104049
104045
104041
104035
104030
104026
104021
104016
104012
104007
104003
103999
103997
103997
103999
104000
104036
104039
104042
104042
104037
104031
104023
104016
104010
104005
104001
103997
103994
103991
103987
103983
103978
103973
103969
103965
103961
103957
103954
103951
103948
103944
103941
103939
103940
103940
103984
103987
103987
103984
103978
103970
103962
103955
103949
103944
103940
103936
103932
103929
103925
103920
103915
103910
103906
103902
103899
103896
103894
103893
103891
103889
103886
103883
103882
103882
103929
103930
103927
103921
103914
103906
103899
103892
103886
103882
103878
103874
103870
103866
103861
103856
103850
103846
103842
103839
103836
103833
103832
103831
103831
103831
103830
103828
103826
103826
103868
103866
103861
103855
103848
103840
103833
103827
103822
103818
103814
103810
103806
103801
103797
103791
103785
103781
103777
103774
103771
103769
103768
103768
103769
103771
103772
103771
103769
103769
103801
103798
103792
103785
103779
103772
103765
103760
103756
103753
103749
103745
103741
103736
103731
103725
103719
103715
103711
103708
103705
103703
103702
103703
103705
103708
103711
103711
103711
103711
103731
103727
103721
103714
103707
103701
103696
103692
103689
103686
103682
103678
103674
103669
103664
103658
103653
103648
103645
103641
103638
103636
103636
103637
103640
103644
103647
103649
103650
103650
103658
103654
103648
103642
103636
103631
103626
103624
103621
103618
103614
103610
103606
103601
103597
103591
103586
103582
103578
103575
103572
103569
103569
103570
103573
103577
103581
103584
103586
103587
103585
103582
103577
103572
103566
103561
103557
103555
103553
103549
103545
103541
103537
103533
103529
103524
103519
103515
103511
103508
103505
103503
103502
103503
103505
103510
103514
103517
103520
103521
103514
103512
103508
103503
103497
103492
103489
103487
103484
103480
103476
103472
103469
103465
103461
103457
103453
103449
103445
103441
103438
103436
103435
103435
103437
103441
103445
103449
103452
103452
103446
103444
103440
103434
103428
103424
103420
103418
103415
103411
103408
103404
103401
103398
103395
103391
103388
103385
103381
103376
103373
103370
103368
103368
103369
103372
103376
103380
103382
103383
103379
103377
103372
103366
103361
103356
103352
103349
103347
103344
103341
103338
103336
103333
103330
103327
103325
103321
103317
103312
103308
103304
103301
103300
103301
103304
103307
103310
103312
103314
103313
103310
103305
103299
103293
103288
103283
103280
103278
103277
103276
103274
103271
103269
103266
103263
103261
103257
103253
103248
103242
103237
103233
103232
103233
103236
103239
103242
103244
103245
103246
103243
103239
103233
103226
103220
103214
103212
103211
103211
103210
103209
103207
103205
103202
103199
103196
103192
103188
103182
103175
103169
103165
103165
103166
103168
103172
103175
103177
103178
103180
103177
103173
103166
103158
103152
103147
103145
103144
103145
103145
103144
103143
103140
103137
103134
103130
103126
103122
103115
103108
103102
103100
103099
103101
103104
103107
103110
103112
103114
103114
103111
103106
103099
103092
103087
103083
103081
103081
103081
103081
103080
103078
103075
103072
103068
103063
103059
103053
103048
103042
103038
103036
103037
103039
103042
103046
103048
103050
103051
103049
103046
103040
103034
103029
103025
103022
103020
103019
103019
103018
103016
103013
103010
103006
103002
102997
102991
102986
102981
102977
102975
102975
102976
102978
102981
102985
102988
102989
102990
102985
102982
102976
102971
102968
102965
102963
102961
102959
102957
102955
102952
102949
102945
102940
102935
102930
102924
102920
102916
102915
102914
102914
102915
102918
102921
102924
102927
102928
102929
102922
102919
102915
102912
102909
102907
102906
102903
102900
102896
102892
102888
102884
102879
102874
102868
102863
102858
102854
102853
102852
102852
102853
102855
102857
102860
102863
102865
102867
102867
102861
102860
102857
102854
102852
102851
102848
102845
102840
102834
102829
102823
102818
102813
102808
102802
102796
102792
102790
102789
102789
102790
102792
102793
102795
102798
102801
102803
102805
102806
102802
102801
102800
102798
102796
102793
102789
102784
102778
102771
102764
102758
102753
102747
102741
102735
102730
102727
102726
102726
102726
102728
102730
102731
102733
102735
102737
102740
102742
102743
102743
102744
102743
102741
102738
102734
102728
102721
102714
102706
102699
102692
102686
102680
102674
102668
102664
102662
102661
102662
102663
102665
102667
102668
102670
102672
102674
102676
102679
102680
102683
102685
102684
102681
102676
102670
102663
102655
102647
102640
102632
102625
102619
102613
102607
102602
102599
102597
102597
102598
102600
102602
102604
102605
102607
102608
102610
102613
102615
102617
102621
102622
102620
102616
102610
102603
102595
102588
102580
102572
102565
102558
102552
102546
102540
102536
102534
102533
102533
102534
102536
102538
102541
102543
102544
102546
102548
102550
102552
102553
102557
102556
102553
102548
102541
102534
102527
102519
102512
102505
102498
102491
102485
102479
102474
102471
102469
102468
102469
102470
102472
102475
102478
102480
102483
102484
102486
102488
102489
102490
102490
102488
102484
102478
102471
102464
102458
102451
102445
102439
102432
102426
102420
102414
102410
102407
102405
102405
102405
102406
102408
102411
102415
102418
102421
102423
102425
102427
102428
102429
102423
102420
102415
102408
102401
102395
102391
102385
102380
102375
102368
102362
102357
102351
102347
102345
102343
102342
102342
102343
102345
102348
102352
102355
102358
102361
102363
102366
102367
102368
102357
102353
102348
102340
102335
102330
102327
102323
102319
102314
102308
102302
102296
102290
102286
102284
102282
102281
102280
102281
102283
102285
102289
102292
102295
102298
102301
102304
102306
102307
102291
102288
102282
102277
102273
102270
102267
102264
102260
102255
102249
102243
102237
102231
102227
102225
102222
102221
102220
102220
102221
102223
102225
102229
102232
102236
102239
102242
102245
102246
102229
102225
102222
102219
102216
102213
102210
102208
102204
102199
102193
102186
102179
102174
102170
102166
102164
102161
102160
102159
102159
102161
102163
102166
102169
102173
102177
102180
102183
102184
102170
102167
102166
102165
102163
102160
102156
102154
102150
102145
102138
102130
102123
102117
102113
102109
102106
102103
102101
102099
102099
102099
102101
102103
102107
102111
102115
102118
102121
102122
102115
102114
102114
102113
102111
102108
102105
102101
102097
102091
102084
102075
102068
102062
102057
102053
102049
102045
102043
102041
102040
102040
102041
102043
102046
102049
102052
102056
102058
102060
102064
102064
102064
102063
102061
102058
102054
102049
102044
102038
102030
102021
102013
102007
102002
101997
101993
101990
101987
101986
101986
101985
101985
101986
101987
101989
101991
101995
101997
101999
102015
102015
102015
102013
102011
102007
102003
101998
101992
101985
101977
101968
101960
101953
101947
101943
101939
101936
101935
101935
101934
101934
101934
101933
101932
101933
101934
101936
101939
101941
101967
101967
101967
101965
101962
101957
101952
101946
101940
101932
101924
101915
101907
101900
101894
101890
101887
101886
101885
101886
101885
101885
101884
101883
101882
101881
101881
101882
101883
101885
101917
101918
101917
101915
101911
101906
101901
101894
101887
101879
101870
101862
101854
101847
101841
101838
101836
101836
101836
101837
101836
101836
101835
101835
101834
101833
101832
101831
101831
101831
101865
101866
101865
101862
101858
101853
101847
101840
101833
101825
101816
101808
101801
101794
101789
101787
101786
101786
101787
101788
101788
101788
101788
101787
101786
101785
101784
101782
101781
101780
101810
101810
101808
101805
101802
101797
101792
101786
101779
101771
101763
101755
101748
101742
101739
101738
101737
101738
101739
101740
101741
101741
101741
101741
101740
101738
101736
101734
101732
101730
101753
101751
101749
101746
101743
101740
101737
101732
101725
101717
101709
101702
101696
101693
101690
101690
101690
101691
101692
101693
101694
101695
101695
101694
101693
101691
101689
101687
101685
101683
101695
101692
101690
101688
101686
101684
101682
101677
101670
101662
101655
101649
101646
101644
101643
101643
101643
101644
101646
101647
101648
101648
101648
101647
101646
101644
101642
101640
101639
101638
101639
101637
101635
101633
101632
101630
101628
101622
101615
101609
101603
101599
101597
101596
101596
101597
101597
101598
101599
101600
101600
101600
101600
101599
101598
101597
101595
101594
101593
101592
101587
101585
101584
101582
101581
101579
101575
101570
101564
101559
101555
101552
101550
101550
101550
101551
101552
101552
101553
101553
101553
101553
101552
101551
101550
101549
101548
101547
101547
101546
101538
101537
101536
101534
101532
101530
101526
101520
101515
101511
101508
101506
101505
101505
101506
101506
101506
101507
101507
101507
101507
101507
101506
101505
101503
101502
101501
101500
101500
101501
101490
101490
101490
101488
101485
101482
101477
101472
101468
101465
101463
101462
101461
101461
101461
101461
101462
101462
101463
101463
101463
101462
101461
101460
101458
101456
101455
101454
101454
101455
101443
101443
101444
101442
101438
101434
101430
101425
101421
101420
101418
101417
101417
101417
101417
101417
101418
101418
101419
101419
101419
101419
101418
101417
101415
101413
101411
101410
101409
101409
101396
101397
101396
101394
101391
101387
101383
101379
101376
101375
101374
101374
101374
101374
101374
101374
101375
101375
101376
101376
101377
101376
101376
101374
101373
101371
101369
101367
101366
101366
101348
101348
101348
101346
101343
101340
101336
101334
101332
101331
101331
101331
101331
101331
101331
101332
101332
101332
101333
101334
101334
101334
101334
101333
101331
101329
101328
101326
101324
101324
101300
101300
101300
101299
101297
101294
101291
101289
101288
101288
101288
101288
101289
101289
101289
101289
101290
101290
101291
101291
101292
101291
101291
101290
101289
101288
101287
101285
101283
101283
101254
101254
101253
101252
101251
101249
101247
101246
101245
101245
101246
101246
101247
101248
101248
101248
101248
101249
101249
101250
101250
101249
101249
101248
101248
101247
101246
101245
101243
101243
101208
101208
101208
101207
101207
101206
101205
101204
101204
101204
101205
101206
101207
101207
101207
101207
101207
101208
101208
101208
101208
101208
101208
101207
101207
101207
101206
101206
101205
101205
101163
101162
101163
101163
101164
101164
101163
101163
101163
101164
101165
101166
101167
101167
101167
101167
101167
101167
101167
101167
101167
101167
101167
101167
101167
101168
101168
101168
101167
101167
101119
101118
101119
101119
101121
101123
101123
101124
101124
101125
101126
101127
101127
101128
101128
101128
101127
101127
101127
101127
101127
101127
101127
101128
101128
101129
101130
101131
101131
101131
101077
101076
101077
101078
101080
101082
101084
101086
101087
101087
101088
101088
101088
101089
101089
101089
101089
101088
101088
101088
101087
101087
101088
101089
101090
101091
101093
101094
101095
101095
101038
101036
101037
101038
101041
101044
101047
101049
101049
101050
101050
101050
101050
101050
101051
101051
101051
101051
101050
101049
101049
101049
101049
101050
101052
101054
101056
101058
101059
101060
101000
100999
101000
101001
101004
101007
101011
101012
101013
101012
101012
101012
101012
101013
101014
101014
101015
101014
101013
101012
101011
101010
101011
101012
101014
101017
101020
101023
101024
101025
100965
100964
100965
100966
100968
100972
100975
100977
100977
100976
100975
100975
100975
100977
100978
100978
100979
100978
100977
100975
100974
100973
100974
100975
100977
100980
100983
100987
100990
100991
100931
100930
100931
100932
100935
100938
100940
100942
100941
100939
100938
100939
100940
100941
100942
100942
100942
100942
100940
100939
100938
100937
100938
100939
100941
100944
100948
100952
100955
100956
100898
100897
100898
100899
100902
100904
100906
100907
100906
100904
100903
100904
100904
100906
100906
100907
100907
100906
100905
100904
100903
100903
100903
100905
100907
100909
100913
100917
100920
100922
100865
100865
100866
100867
100869
100871
100873
100873
100871
100870
100869
100869
100870
100871
100872
100873
100873
100872
100871
100871
100870
100870
100871
100872
100874
100876
100879
100883
100887
100888
100835
100834
100835
100836
100837
100839
100839
100839
100837
100835
100835
100836
100837
100838
100839
100840
100840
100840
100839
100839
100839
100840
100840
100841
100842
100844
100847
100850
100854
100855
100805
100804
100805
100805
100806
100806
100806
100805
100803
100802
100802
100803
100805
100807
100808
100809
100809
100809
100809
100809
100810
100810
100811
100811
100812
100813
100815
100819
100822
100823
100775
100775
100775
100775
100774
100772
100771
100770
100769
100769
100771
100773
100774
100776
100777
100778
100779
100779
100780
100781
100781
100782
100782
100782
100783
100784
100785
100788
100791
100793
100745
100745
100744
100743
100740
100737
100735
100735
100736
100739
100741
100743
100745
100747
100748
100749
100750
100751
100751
100752
100753
100754
100754
100755
100755
100755
100757
100759
100762
100764
100713
100713
100711
100708
100704
100701
100701
100703
100705
100709
100712
100714
100716
100718
100719
100721
100722
100723
100724
100725
100726
100727
100727
100728
100728
100728
100729
100731
100734
100736
100681
100680
100676
100672
100669
100668
100669
100672
100675
100679
100683
100686
100688
100690
100692
100693
100694
100696
100697
100698
100699
100700
100700
100701
100701
100702
100703
100704
100707
100708
100648
100647
100643
100639
100638
100638
100640
100643
100646
100650
100654
100658
100661
100663
100665
100666
100668
100669
100671
100672
100673
100674
100675
100675
100676
100676
100677
100678
100680
100682
100618
100616
100613
100610
100610
100611
100613
100616
100618
100622
100626
100630
100634
100636
100638
100640
100642
100644
100646
100647
100648
100649
100650
100650
100651
100651
100652
100653
100655
100656
100590
100589
100586
100583
100584
100585
100587
100589
100592
100595
100599
100603
100607
100610
100613
100615
100617
100619
100621
100622
100624
100625
100625
100626
100626
100627
100627
100629
100630
100631
100564
100564
100561
100559
100559
100561
100563
100565
100568
100571
100574
100577
100581
100585
100588
100591
100593
100595
100597
100599
100600
100601
100602
100603
100603
100604
100604
100605
100606
100607
100541
100541
100538
100537
100537
100539
100540
100543
100545
100548
100551
100553
100557
100560
100564
100567
100569
100572
100574
100576
100577
100578
100580
100581
100581
100581
100582
100582
100583
100584
100519
100518
100517
100516
100516
100518
100520
100522
100525
100527
100529
100531
100533
100537
100540
100544
100547
100549
100551
100553
100555
100556
100558
100559
100559
100560
100560
100560
100561
100561
100497
100497
100496
100496
100497
100498
100500
100503
100505
100507
100509
100510
100512
100514
100517
100521
100524
100527
100529
100531
100533
100535
100536
100537
100538
100538
100538
100538
100539
100539
100475
100475
100476
100476
100477
100479
100481
100484
100486
100488
100489
100490
100491
100493
100495
100498
100502
100505
100508
100510
100512
100513
100515
100516
100517
100517
100517
100517
100517
100517
100455
100455
100456
100457
100458
100460
100463
100465
100467
100469
100470
100471
100471
100472
100473
100476
100480
100483
100486
100488
100490
100492
100494
100495
100496
100496
100496
100496
100495
100495
100435
100436
100437
100438
100440
100442
100444
100446
100448
100450
100451
100452
100452
100452
100453
100455
100458
100462
100465
100467
100470
100472
100474
100475
100475
100475
100475
100475
100475
100475
100417
100417
100418
100420
100422
100424
100426
100428
100430
100431
100432
100433
100433
100433
100433
100434
100437
100440
100444
100446
100449
100451
100453
100454
100455
100455
100455
100455
100455
100455
100399
100399
100400
100402
100404
100406
100408
100410
100412
100413
100414
100414
100414
100414
100414
100415
100416
100419
100423
100426
100428
100431