/*--------------------------------*- C++ -*----------------------------------*\
| =========                 |                                                 |
| \\      /  F ield         | OpenFOAM: The Open Source CFD Toolbox           |
|  \\    /   O peration     | Version:  v1606+                                |
|   \\  /    A nd           | Web:      www.OpenFOAM.com                      |
|    \\/     M anipulation  |                                                 |
\*---------------------------------------------------------------------------*/
FoamFile
{
    version     2.0;
    format      ascii;
    class       volVectorField;
    location    "0.43";
    object      U.particles;
}
// * * * * * * * * * * * * * * * * * * * * * * * * * * * * * * * * * * * * * //

dimensions      [0 1 -1 0 0 0 0];

internalField   nonuniform List<vector> 
6000
(
(-0.00749954 -0.430071 0)
(-0.01114 -0.498068 0)
(-0.0146307 -0.482284 0)
(-0.0114342 -0.473617 0)
(-0.00602709 -0.459454 0)
(0.00191347 -0.441024 0)
(0.010465 -0.4231 0)
(0.0183125 -0.417086 0)
(0.0233629 -0.424711 0)
(0.0244139 -0.437792 0)
(0.022284 -0.445263 0)
(0.0181266 -0.447515 0)
(0.0131532 -0.449145 0)
(0.0082354 -0.450665 0)
(0.00272749 -0.453158 0)
(-0.00379545 -0.452241 0)
(-0.0100097 -0.449991 0)
(-0.0149362 -0.448116 0)
(-0.0191505 -0.447665 0)
(-0.0232789 -0.445371 0)
(-0.0252564 -0.436345 0)
(-0.0245551 -0.424034 0)
(-0.0200249 -0.416251 0)
(-0.0119578 -0.423053 0)
(-0.00315843 -0.442893 0)
(0.00484154 -0.459291 0)
(0.0107781 -0.473109 0)
(0.0142462 -0.482484 0)
(0.0127164 -0.496662 0)
(0.00952572 -0.437614 0)
(0.0329819 0.0258719 0)
(0.0242545 0.0636477 0)
(0.0141305 0.0643113 0)
(0.00172727 0.0712914 0)
(3.47304e-05 0.0865254 0)
(0.00433172 0.105936 0)
(0.0138606 0.119982 0)
(0.022714 0.128231 0)
(0.0292761 0.133655 0)
(0.0291988 0.134815 0)
(0.0266115 0.132819 0)
(0.0228888 0.129147 0)
(0.0180684 0.124674 0)
(0.0115789 0.120818 0)
(0.00342719 0.120234 0)
(-0.00533975 0.120046 0)
(-0.0128817 0.121876 0)
(-0.0186527 0.122085 0)
(-0.0235953 0.128265 0)
(-0.0279356 0.133307 0)
(-0.0309158 0.134213 0)
(-0.0310389 0.131846 0)
(-0.0246849 0.125727 0)
(-0.0153324 0.11762 0)
(-0.00548306 0.102728 0)
(-0.00083228 0.0824263 0)
(-0.00193843 0.0676143 0)
(-0.0141023 0.0624053 0)
(-0.0243968 0.0636607 0)
(-0.0328131 0.0202611 0)
(-0.00274138 -0.0320336 0)
(0.0153296 0.0154749 0)
(0.0161061 0.0366684 0)
(0.00616283 0.0453446 0)
(0.00544709 0.0424936 0)
(0.0111228 0.0423339 0)
(0.0208587 0.0470417 0)
(0.0277443 0.0512338 0)
(0.0316855 0.0667263 0)
(0.028659 0.0798018 0)
(0.0251843 0.0835663 0)
(0.0217996 0.0864837 0)
(0.0173689 0.0898463 0)
(0.0115872 0.0930149 0)
(0.00379017 0.0973035 0)
(-0.00511102 0.0971065 0)
(-0.0122163 0.0927538 0)
(-0.0176627 0.0878407 0)
(-0.0223583 0.0863557 0)
(-0.0257569 0.0846125 0)
(-0.0295579 0.0805328 0)
(-0.0328855 0.068354 0)
(-0.0294838 0.0519177 0)
(-0.0224522 0.0460654 0)
(-0.0117958 0.0420833 0)
(-0.00545904 0.0418725 0)
(-0.0065062 0.0437051 0)
(-0.0164059 0.0339268 0)
(-0.0152349 0.0130129 0)
(0.0025344 -0.0336527 0)
(0.00509825 0.0360554 0)
(0.0272166 0.0681865 0)
(0.0287654 0.100452 0)
(0.0142378 0.113777 0)
(0.00680681 0.109092 0)
(0.0121652 0.0993321 0)
(0.0248599 0.0956526 0)
(0.0349767 0.0998306 0)
(0.0406584 0.120204 0)
(0.0369956 0.141776 0)
(0.0277282 0.150636 0)
(0.0189533 0.1518 0)
(0.0123808 0.150863 0)
(0.00801021 0.150289 0)
(0.00306385 0.152586 0)
(-0.00343428 0.152323 0)
(-0.00818294 0.149475 0)
(-0.0124142 0.149678 0)
(-0.0189239 0.151256 0)
(-0.0275551 0.150527 0)
(-0.0369458 0.141193 0)
(-0.0406435 0.119911 0)
(-0.0349784 0.0982586 0)
(-0.0249963 0.0920517 0)
(-0.0118973 0.0960437 0)
(-0.00594569 0.106195 0)
(-0.0141821 0.111743 0)
(-0.0290536 0.0974189 0)
(-0.0271999 0.0654211 0)
(-0.00525442 0.0337582 0)
(0.0127623 0.0580964 0)
(0.038456 0.104029 0)
(0.0291322 0.149656 0)
(0.00845335 0.129807 0)
(4.58672e-05 0.0825245 0)
(-0.000552122 0.0323305 0)
(0.0142319 0.0137863 0)
(0.027398 0.0194138 0)
(0.036799 0.0484656 0)
(0.0410145 0.0852055 0)
(0.0350229 0.106752 0)
(0.0238244 0.11354 0)
(0.0134905 0.113904 0)
(0.00712526 0.113736 0)
(0.00259875 0.117312 0)
(-0.00226574 0.117215 0)
(-0.00681334 0.11334 0)
(-0.0131955 0.113517 0)
(-0.0233365 0.114312 0)
(-0.0338624 0.108634 0)
(-0.0391545 0.0884993 0)
(-0.0349324 0.0542398 0)
(-0.0260269 0.0248533 0)
(-0.0129058 0.0150578 0)
(0.000835362 0.0325816 0)
(-0.000147911 0.0804454 0)
(-0.00811556 0.127008 0)
(-0.0285026 0.146008 0)
(-0.038674 0.102601 0)
(-0.0125784 0.056905 0)
(0.0166678 0.0714289 0)
(0.0260562 0.1256 0)
(0.00864645 0.140331 0)
(-0.020876 0.0917315 0)
(-0.0349751 0.00469076 0)
(-0.0500466 -0.0875781 0)
(-0.0518417 -0.17247 0)
(-0.026551 -0.216613 0)
(0.00330335 -0.200769 0)
(0.0429074 -0.157253 0)
(0.0645731 -0.105229 0)
(0.0571156 -0.0755604 0)
(0.0369608 -0.0658574 0)
(0.0188585 -0.0635535 0)
(0.00626827 -0.0583935 0)
(-0.00495814 -0.0575518 0)
(-0.0176039 -0.0616052 0)
(-0.0359997 -0.0634127 0)
(-0.0562377 -0.0713518 0)
(-0.0629495 -0.100003 0)
(-0.0403802 -0.149917 0)
(-0.000587063 -0.190229 0)
(0.0289495 -0.204536 0)
(0.0510993 -0.156983 0)
(0.0459807 -0.0742904 0)
(0.0309032 0.0119848 0)
(0.0180773 0.0935231 0)
(-0.00928874 0.136487 0)
(-0.0268284 0.125486 0)
(-0.0198116 0.0717743 0)
(-0.00347717 0.0527971 0)
(-0.0107326 0.0963009 0)
(-0.03779 0.094055 0)
(-0.091043 0.0043422 0)
(-0.132317 -0.16172 0)
(-0.131341 -0.283853 0)
(-0.125533 -0.362016 0)
(-0.0780724 -0.387865 0)
(-0.0348183 -0.378196 0)
(0.0230485 -0.363074 0)
(0.0684545 -0.323834 0)
(0.0879665 -0.285962 0)
(0.0774352 -0.276259 0)
(0.0468484 -0.272117 0)
(0.0151709 -0.271737 0)
(-0.0126324 -0.271388 0)
(-0.0445008 -0.271108 0)
(-0.0759178 -0.275077 0)
(-0.0866425 -0.284657 0)
(-0.0657276 -0.323644 0)
(-0.0202545 -0.362295 0)
(0.0390853 -0.375933 0)
(0.082149 -0.38464 0)
(0.12648 -0.352426 0)
(0.128659 -0.269879 0)
(0.122731 -0.137548 0)
(0.0791901 0.0215965 0)
(0.0310013 0.0977891 0)
(0.0066886 0.0994471 0)
(-0.000201812 0.053839 0)
(-0.0219572 0.03556 0)
(-0.0542767 0.0596112 0)
(-0.128301 -0.00376809 0)
(-0.188471 -0.162938 0)
(-0.215301 -0.310783 0)
(-0.181176 -0.372792 0)
(-0.150481 -0.400306 0)
(-0.101299 -0.401728 0)
(-0.06569 -0.383483 0)
(-0.00904816 -0.366926 0)
(0.0287343 -0.321222 0)
(0.0735427 -0.279975 0)
(0.0731131 -0.278562 0)
(0.0508493 -0.275925 0)
(0.0165067 -0.277011 0)
(-0.0139748 -0.276859 0)
(-0.0484763 -0.275561 0)
(-0.0714616 -0.277383 0)
(-0.0717818 -0.279424 0)
(-0.0248065 -0.321899 0)
(0.011647 -0.367527 0)
(0.0690242 -0.382511 0)
(0.104912 -0.399865 0)
(0.15412 -0.397107 0)
(0.185144 -0.368614 0)
(0.215299 -0.30061 0)
(0.178466 -0.141893 0)
(0.110283 0.0198087 0)
(0.0440801 0.0689217 0)
(0.0176464 0.0404166 0)
(-0.0315592 0.0213919 0)
(-0.118892 0.00688668 0)
(-0.246647 -0.130387 0)
(-0.230052 -0.247458 0)
(-0.208615 -0.325307 0)
(-0.176664 -0.37432 0)
(-0.150798 -0.391714 0)
(-0.107782 -0.388221 0)
(-0.0739359 -0.365103 0)
(-0.0218358 -0.342862 0)
(0.00620515 -0.302177 0)
(0.0540203 -0.23653 0)
(0.0575322 -0.22664 0)
(0.0400391 -0.227268 0)
(0.0127315 -0.22988 0)
(-0.0112031 -0.229783 0)
(-0.0388808 -0.227228 0)
(-0.0567923 -0.22618 0)
(-0.0519543 -0.237674 0)
(-0.00310545 -0.303449 0)
(0.0248384 -0.343442 0)
(0.0769293 -0.36436 0)
(0.111097 -0.386588 0)
(0.154645 -0.389411 0)
(0.18053 -0.371603 0)
(0.213866 -0.322054 0)
(0.234309 -0.241423 0)
(0.239491 -0.111263 0)
(0.100122 0.0214409 0)
(0.0233587 0.0256122 0)
(-0.0551549 0.0216826 0)
(-0.170454 -0.00787057 0)
(-0.252788 -0.118451 0)
(-0.212105 -0.224656 0)
(-0.190236 -0.309841 0)
(-0.16056 -0.360614 0)
(-0.142541 -0.379247 0)
(-0.107737 -0.370683 0)
(-0.0814712 -0.337742 0)
(-0.0458345 -0.308037 0)
(-0.017514 -0.272818 0)
(0.0296831 -0.211886 0)
(0.0470919 -0.182816 0)
(0.0333223 -0.182553 0)
(0.0102423 -0.185537 0)
(-0.00893405 -0.185462 0)
(-0.032373 -0.182601 0)
(-0.0466301 -0.182431 0)
(-0.0263137 -0.213813 0)
(0.0201365 -0.27597 0)
(0.0495262 -0.308199 0)
(0.083629 -0.338029 0)
(0.110293 -0.369913 0)
(0.145009 -0.377829 0)
(0.164177 -0.358471 0)
(0.195111 -0.306409 0)
(0.217245 -0.220799 0)
(0.255861 -0.110033 0)
(0.138353 0.00632491 0)
(0.0329659 0.0234787 0)
(-0.128397 0.0302583 0)
(-0.226843 0.0125646 0)
(-0.224809 -0.0788461 0)
(-0.193502 -0.197887 0)
(-0.180048 -0.290764 0)
(-0.142285 -0.344739 0)
(-0.13294 -0.364106 0)
(-0.0988272 -0.357795 0)
(-0.078155 -0.321556 0)
(-0.0564781 -0.274545 0)
(-0.0378096 -0.235936 0)
(-0.0063432 -0.171028 0)
(0.0292638 -0.131249 0)
(0.0201231 -0.132016 0)
(0.00574605 -0.134865 0)
(-0.00471299 -0.134459 0)
(-0.01978 -0.131544 0)
(-0.0289221 -0.130723 0)
(0.00947382 -0.174092 0)
(0.0379993 -0.240062 0)
(0.0591535 -0.276812 0)
(0.0800991 -0.322532 0)
(0.100634 -0.357419 0)
(0.133719 -0.363123 0)
(0.145417 -0.342654 0)
(0.184164 -0.286813 0)
(0.197821 -0.194688 0)
(0.22655 -0.0755638 0)
(0.222556 0.0201893 0)
(0.119907 0.0340493 0)
(-0.12793 0.0535285 0)
(-0.214127 0.0440201 0)
(-0.194582 -0.043024 0)
(-0.166828 -0.15685 0)
(-0.168875 -0.253784 0)
(-0.13192 -0.32131 0)
(-0.120288 -0.34389 0)
(-0.0928743 -0.340062 0)
(-0.0729573 -0.305822 0)
(-0.054516 -0.25389 0)
(-0.043811 -0.202244 0)
(-0.0366573 -0.123104 0)
(0.000441723 -0.0795807 0)
(0.00486464 -0.0763816 0)
(-0.000245008 -0.0803866 0)
(0.00035075 -0.0799622 0)
(-0.0052518 -0.0758619 0)
(0.000964446 -0.0802308 0)
(0.0356206 -0.128988 0)
(0.0381014 -0.206496 0)
(0.055288 -0.258627 0)
(0.0742285 -0.308984 0)
(0.0943679 -0.340863 0)
(0.120813 -0.343561 0)
(0.134958 -0.320004 0)
(0.170535 -0.250569 0)
(0.169754 -0.155524 0)
(0.198577 -0.0422952 0)
(0.220498 0.0496822 0)
(0.132153 0.0581055 0)
(-0.0830286 0.108204 0)
(-0.184755 0.0840552 0)
(-0.167438 -0.00538791 0)
(-0.140156 -0.115297 0)
(-0.148246 -0.210081 0)
(-0.12584 -0.290185 0)
(-0.114937 -0.319404 0)
(-0.0912762 -0.321997 0)
(-0.0665142 -0.293481 0)
(-0.0462514 -0.241846 0)
(-0.0178385 -0.17334 0)
(-0.0520031 -0.0821091 0)
(-0.043086 -0.0259624 0)
(-0.0124056 -0.0161125 0)
(-0.0068145 -0.0232605 0)
(0.00639567 -0.0228283 0)
(0.0114126 -0.0155962 0)
(0.0449867 -0.0283275 0)
(0.0449275 -0.0935165 0)
(0.0142754 -0.182848 0)
(0.0472125 -0.247212 0)
(0.0678072 -0.296774 0)
(0.09222 -0.322613 0)
(0.114886 -0.318666 0)
(0.128605 -0.288108 0)
(0.147005 -0.207918 0)
(0.14264 -0.114145 0)
(0.172973 -0.00566696 0)
(0.194103 0.0872305 0)
(0.0932773 0.107797 0)
(-0.0218713 0.180218 0)
(-0.124462 0.157808 0)
(-0.128101 0.0745874 0)
(-0.109428 -0.0584374 0)
(-0.12183 -0.162307 0)
(-0.120926 -0.246376 0)
(-0.114689 -0.287747 0)
(-0.0938965 -0.301126 0)
(-0.0660559 -0.282029 0)
(-0.0362726 -0.228575 0)
(-0.00492804 -0.158763 0)
(-0.0358187 -0.0674701 0)
(-0.0916632 0.031732 0)
(-0.0317188 0.0413121 0)
(-0.0132956 0.0318008 0)
(0.0125999 0.0320953 0)
(0.0311034 0.042251 0)
(0.0932863 0.0294486 0)
(0.0317022 -0.083292 0)
(0.00536524 -0.169228 0)
(0.0362611 -0.234795 0)
(0.0663406 -0.284387 0)
(0.092836 -0.301338 0)
(0.114374 -0.286836 0)
(0.122102 -0.24314 0)
(0.12006 -0.162524 0)
(0.108648 -0.0521945 0)
(0.132353 0.0772658 0)
(0.132293 0.158352 0)
(0.0325692 0.179403 0)
(0.0107165 0.258342 0)
(-0.0449389 0.267371 0)
(-0.039647 0.225193 0)
(-0.0579086 0.0305357 0)
(-0.0957563 -0.107815 0)
(-0.118566 -0.185237 0)
(-0.115174 -0.248392 0)
(-0.0967801 -0.280204 0)
(-0.0653635 -0.266286 0)
(-0.0432787 -0.218506 0)
(-0.0308608 -0.14715 0)
(-0.039582 -0.0528889 0)
(-0.130954 0.0813957 0)
(-0.061858 0.105439 0)
(-0.0191179 0.0923912 0)
(0.0182565 0.0927864 0)
(0.0642398 0.107087 0)
(0.124264 0.0762237 0)
(0.0341969 -0.0686996 0)
(0.0288257 -0.158174 0)
(0.0411389 -0.225642 0)
(0.0632371 -0.268694 0)
(0.0938348 -0.280785 0)
(0.113358 -0.247602 0)
(0.118181 -0.181396 0)
(0.0873968 -0.11004 0)
(0.0582464 0.0337489 0)
(0.0405068 0.229649 0)
(0.0507629 0.268008 0)
(-0.00507844 0.257518 0)
(0.0130277 0.333906 0)
(0.0156614 0.376584 0)
(0.0660338 0.354905 0)
(-0.00925803 0.145178 0)
(-0.0537514 -0.0717 0)
(-0.0815061 -0.139648 0)
(-0.0884665 -0.214086 0)
(-0.0869703 -0.253366 0)
(-0.0758729 -0.25199 0)
(-0.067751 -0.215522 0)
(-0.0679168 -0.14271 0)
(-0.0691606 -0.0454156 0)
(-0.120335 0.0815582 0)
(-0.104508 0.155957 0)
(-0.0251248 0.165646 0)
(0.024515 0.166858 0)
(0.107709 0.151716 0)
(0.108007 0.0696051 0)
(0.0641871 -0.0602979 0)
(0.0622952 -0.154094 0)
(0.0630588 -0.22268 0)
(0.0715817 -0.255766 0)
(0.0827603 -0.256803 0)
(0.0822384 -0.218436 0)
(0.0740257 -0.144246 0)
(0.0499162 -0.0646891 0)
(-0.00675527 0.171456 0)
(-0.0664218 0.355026 0)
(-0.0115249 0.371945 0)
(-0.011387 0.329727 0)
(0.00746184 0.377055 0)
(0.0389569 0.418278 0)
(0.130018 0.411937 0)
(0.152216 0.311926 0)
(0.119813 0.0484028 0)
(0.00654803 -0.0968275 0)
(-0.0479869 -0.188338 0)
(-0.0702262 -0.238974 0)
(-0.0773148 -0.250913 0)
(-0.0867032 -0.231126 0)
(-0.110756 -0.135754 0)
(-0.128493 -0.0132347 0)
(-0.139369 0.0861477 0)
(-0.128892 0.1572 0)
(-0.0374356 0.196708 0)
(0.0399029 0.195563 0)
(0.130001 0.148521 0)
(0.134301 0.0750836 0)
(0.122131 -0.0301384 0)
(0.10155 -0.148719 0)
(0.0785748 -0.236715 0)
(0.0716089 -0.254314 0)
(0.0683804 -0.244763 0)
(0.0459255 -0.195209 0)
(-0.0178056 -0.102299 0)
(-0.158535 0.0602305 0)
(-0.156769 0.315928 0)
(-0.126024 0.407685 0)
(-0.0362787 0.409117 0)
(-0.00807452 0.373192 0)
(0.00665524 0.371347 0)
(0.0427557 0.374577 0)
(0.137616 0.367616 0)
(0.215625 0.266874 0)
(0.209874 -0.0913191 0)
(0.119525 -0.195232 0)
(-0.0372867 -0.216653 0)
(-0.0635108 -0.237183 0)
(-0.0615282 -0.26267 0)
(-0.0709243 -0.287532 0)
(-0.117306 -0.252823 0)
(-0.136361 -0.105488 0)
(-0.106587 -0.056613 0)
(-0.0454865 -0.192812 0)
(-0.0156071 -0.214939 0)
(0.0148615 -0.22075 0)
(0.0451174 -0.19575 0)
(0.110316 -0.0532541 0)
(0.12945 -0.129079 0)
(0.10436 -0.261985 0)
(0.0597754 -0.281671 0)
(0.0565544 -0.261669 0)
(0.0626788 -0.247312 0)
(0.0333155 -0.235416 0)
(-0.123794 -0.254018 0)
(-0.210058 -0.0954169 0)
(-0.215586 0.259331 0)
(-0.132818 0.353966 0)
(-0.0417655 0.360175 0)
(-0.00805713 0.367449 0)
(0.0133887 0.240281 0)
(0.0529736 0.0968767 0)
(0.118437 0.0268779 0)
(0.16381 -0.105919 0)
(0.104312 -0.421674 0)
(0.0777723 -0.587636 0)
(0.0632699 -0.658573 0)
(-0.00954883 -0.363231 0)
(-0.0345982 -0.353607 0)
(-0.0313641 -0.572187 0)
(0.00348292 -0.690164 0)
(0.00909933 -0.601861 0)
(0.00652005 -0.560444 0)
(0.00278188 -0.550483 0)
(-0.000236009 -0.545417 0)
(-0.00199914 -0.546628 0)
(-0.00515314 -0.553215 0)
(-0.00880988 -0.563668 0)
(-0.0112077 -0.609066 0)
(-0.00507648 -0.696641 0)
(0.0313324 -0.504435 0)
(0.0344055 -0.339881 0)
(0.00682247 -0.406909 0)
(-0.070443 -0.668498 0)
(-0.0802264 -0.590254 0)
(-0.100695 -0.435797 0)
(-0.157388 -0.132372 0)
(-0.112617 -0.00420461 0)
(-0.0530045 0.0739051 0)
(-0.015302 0.233602 0)
(0.0239324 -0.0592914 0)
(0.0427714 -0.229026 0)
(0.0640217 -0.333935 0)
(0.056356 -0.455837 0)
(0.0533402 -0.536947 0)
(0.0887571 -0.580366 0)
(0.122991 -0.672532 0)
(0.080552 -0.760146 0)
(0.0189328 -0.762524 0)
(-0.0126785 -0.744853 0)
(-0.00149527 -0.703311 0)
(0.00487817 -0.624952 0)
(0.00600676 -0.592019 0)
(0.00392879 -0.589826 0)
(0.00107972 -0.592959 0)
(-0.00255768 -0.593267 0)
(-0.00539382 -0.590645 0)
(-0.0074876 -0.593625 0)
(-0.00609478 -0.629012 0)
(-2.49208e-06 -0.708674 0)
(0.00806836 -0.748465 0)
(-0.0298835 -0.764785 0)
(-0.0888416 -0.758833 0)
(-0.130509 -0.666162 0)
(-0.0878071 -0.585643 0)
(-0.0530512 -0.542375 0)
(-0.053259 -0.466379 0)
(-0.0605281 -0.349501 0)
(-0.041295 -0.240515 0)
(-0.024875 -0.06478 0)
(0.0242183 -0.266111 0)
(0.0271751 -0.367351 0)
(0.0429973 -0.428978 0)
(0.0425075 -0.48242 0)
(0.0614368 -0.519568 0)
(0.0997586 -0.565434 0)
(0.134485 -0.631737 0)
(0.137877 -0.714209 0)
(0.0848821 -0.750354 0)
(0.00917458 -0.731628 0)
(0.00466708 -0.688038 0)
(0.00401294 -0.608537 0)
(0.00476153 -0.568016 0)
(0.00380115 -0.562379 0)
(0.0013704 -0.564309 0)
(-0.00207894 -0.564647 0)
(-0.00467773 -0.56316 0)
(-0.00578473 -0.570081 0)
(-0.00536841 -0.612818 0)
(-0.00739096 -0.691479 0)
(-0.0166336 -0.734284 0)
(-0.0965795 -0.752653 0)
(-0.14422 -0.710915 0)
(-0.136855 -0.631702 0)
(-0.101354 -0.568096 0)
(-0.063156 -0.522991 0)
(-0.0425755 -0.486334 0)
(-0.0423787 -0.431257 0)
(-0.0276295 -0.367022 0)
(-0.0227209 -0.267716 0)
(0.0164266 -0.317003 0)
(0.0374971 -0.360007 0)
(0.0450026 -0.409807 0)
(0.0508706 -0.457244 0)
(0.0731141 -0.503156 0)
(0.109845 -0.551514 0)
(0.152677 -0.602866 0)
(0.161192 -0.686501 0)
(0.109395 -0.728453 0)
(0.0306483 -0.704841 0)
(0.0116521 -0.665663 0)
(0.00571622 -0.590028 0)
(0.00530664 -0.548785 0)
(0.00456569 -0.54192 0)
(0.00180563 -0.544161 0)
(-0.00220571 -0.544595 0)
(-0.00512272 -0.54303 0)
(-0.00610186 -0.550936 0)
(-0.00724541 -0.593623 0)
(-0.0148581 -0.668261 0)
(-0.0389814 -0.707939 0)
(-0.118058 -0.729161 0)
(-0.165715 -0.685215 0)
(-0.152554 -0.605222 0)
(-0.111536 -0.556718 0)
(-0.0747484 -0.506783 0)
(-0.0518942 -0.459791 0)
(-0.0440475 -0.411395 0)
(-0.0379624 -0.356874 0)
(-0.0147081 -0.315236 0)
(0.0133532 -0.311325 0)
(0.0418245 -0.34377 0)
(0.0427491 -0.391004 0)
(0.0566398 -0.437681 0)
(0.0833948 -0.486278 0)
(0.121523 -0.535227 0)
(0.162235 -0.58611 0)
(0.174219 -0.655564 0)
(0.136767 -0.698323 0)
(0.0559477 -0.68291 0)
(0.0221841 -0.641377 0)
(0.0108109 -0.569647 0)
(0.00789556 -0.528725 0)
(0.00614162 -0.520997 0)
(0.00229283 -0.522407 0)
(-0.00290707 -0.522802 0)
(-0.00694791 -0.521976 0)
(-0.00900735 -0.530794 0)
(-0.0127587 -0.573146 0)
(-0.0258378 -0.643448 0)
(-0.0641937 -0.685334 0)
(-0.142611 -0.699425 0)
(-0.177693 -0.656242 0)
(-0.163664 -0.589851 0)
(-0.122576 -0.539719 0)
(-0.0850205 -0.49049 0)
(-0.0581236 -0.440104 0)
(-0.0418524 -0.393287 0)
(-0.0399996 -0.34361 0)
(-0.0123356 -0.307564 0)
(0.0136958 -0.305642 0)
(0.0387251 -0.331822 0)
(0.0398268 -0.371509 0)
(0.0623759 -0.41977 0)
(0.0917102 -0.468257 0)
(0.130008 -0.521728 0)
(0.170739 -0.566073 0)
(0.187766 -0.627853 0)
(0.153197 -0.668928 0)
(0.0766044 -0.652684 0)
(0.0312933 -0.610827 0)
(0.0161282 -0.54608 0)
(0.0107623 -0.507561 0)
(0.00774317 -0.499262 0)
(0.00274691 -0.500062 0)
(-0.0034935 -0.500419 0)
(-0.00859917 -0.500307 0)
(-0.0117802 -0.509585 0)
(-0.0177745 -0.549029 0)
(-0.0344766 -0.612791 0)
(-0.0831555 -0.654717 0)
(-0.157434 -0.668756 0)
(-0.189263 -0.628396 0)
(-0.171908 -0.571396 0)
(-0.131475 -0.526768 0)
(-0.0931403 -0.473006 0)
(-0.0638324 -0.424371 0)
(-0.0397467 -0.373459 0)
(-0.0369939 -0.332031 0)
(-0.012755 -0.300119 0)
(0.00728842 -0.299572 0)
(0.0306863 -0.316714 0)
(0.0391599 -0.354512 0)
(0.0697408 -0.404513 0)
(0.100031 -0.458297 0)
(0.138225 -0.506462 0)
(0.178999 -0.552118 0)
(0.194529 -0.598976 0)
(0.167399 -0.632771 0)
(0.0945127 -0.621003 0)
(0.0404127 -0.577509 0)
(0.0214295 -0.517906 0)
(0.014383 -0.481845 0)
(0.00990728 -0.474005 0)
(0.00344222 -0.474767 0)
(-0.00427061 -0.475167 0)
(-0.0106596 -0.475157 0)
(-0.0150168 -0.483872 0)
(-0.0224298 -0.520798 0)
(-0.0430287 -0.579978 0)
(-0.100121 -0.623128 0)
(-0.171839 -0.633043 0)
(-0.196779 -0.599029 0)
(-0.180109 -0.554735 0)
(-0.140051 -0.511983 0)
(-0.102144 -0.464361 0)
(-0.0713399 -0.408874 0)
(-0.04049 -0.357856 0)
(-0.0307375 -0.315502 0)
(-0.00551357 -0.293738 0)
(-0.00744047 -0.284653 0)
(0.0227462 -0.294415 0)
(0.0438125 -0.337182 0)
(0.0772305 -0.391721 0)
(0.109326 -0.440062 0)
(0.146654 -0.48922 0)
(0.18423 -0.5283 0)
(0.200863 -0.568016 0)
(0.180666 -0.6003 0)
(0.114253 -0.589685 0)
(0.0509048 -0.546134 0)
(0.0266548 -0.490725 0)
(0.0173177 -0.456911 0)
(0.0118737 -0.449094 0)
(0.00422162 -0.449444 0)
(-0.00468632 -0.449892 0)
(-0.0122051 -0.450399 0)
(-0.0174228 -0.459133 0)
(-0.0273626 -0.493687 0)
(-0.0533946 -0.548352 0)
(-0.119071 -0.590243 0)
(-0.183735 -0.600057 0)
(-0.20213 -0.570602 0)
(-0.186388 -0.531928 0)
(-0.148619 -0.492703 0)
(-0.111633 -0.443783 0)
(-0.079325 -0.39729 0)
(-0.0460992 -0.340927 0)
(-0.0219616 -0.293152 0)
(0.00835619 -0.278566 0)
(-0.0144559 -0.256863 0)
(0.0117008 -0.276804 0)
(0.0470594 -0.324152 0)
(0.0824692 -0.375034 0)
(0.115732 -0.422856 0)
(0.154183 -0.470395 0)
(0.191528 -0.507819 0)
(0.204033 -0.541527 0)
(0.188662 -0.5636 0)
(0.129258 -0.552889 0)
(0.060881 -0.512396 0)
(0.0314851 -0.46106 0)
(0.0200386 -0.428363 0)
(0.0139479 -0.420733 0)
(0.00518632 -0.420852 0)
(-0.00505355 -0.421253 0)
(-0.0137993 -0.421973 0)
(-0.019968 -0.430495 0)
(-0.0325469 -0.464614 0)
(-0.0636417 -0.513582 0)
(-0.133923 -0.553411 0)
(-0.192029 -0.563529 0)
(-0.206699 -0.541602 0)
(-0.19336 -0.510331 0)
(-0.155931 -0.474487 0)
(-0.117816 -0.42651 0)
(-0.0848769 -0.378464 0)
(-0.04937 -0.328094 0)
(-0.00894699 -0.278979 0)
(0.0113671 -0.250163 0)
(-0.00167361 -0.229264 0)
(0.00653856 -0.265793 0)
(0.0502715 -0.307434 0)
(0.0870095 -0.356938 0)
(0.123217 -0.403135 0)
(0.162254 -0.449177 0)
(0.197035 -0.480775 0)
(0.208733 -0.507627 0)
(0.195704 -0.526354 0)
(0.13909 -0.515532 0)
(0.0676243 -0.476193 0)
(0.0350942 -0.433087 0)
(0.0219742 -0.400086 0)
(0.0154126 -0.392162 0)
(0.00581638 -0.391579 0)
(-0.00546669 -0.392019 0)
(-0.0152502 -0.393297 0)
(-0.0223868 -0.402043 0)
(-0.0366866 -0.436346 0)
(-0.0713609 -0.477319 0)
(-0.145618 -0.516705 0)
(-0.199952 -0.526049 0)
(-0.211131 -0.509248 0)
(-0.199267 -0.483322 0)
(-0.163903 -0.45247 0)
(-0.125257 -0.406655 0)
(-0.0888847 -0.360019 0)
(-0.0524625 -0.309705 0)
(-0.00841075 -0.267213 0)
(-0.00249941 -0.22306 0)
(0.0077534 -0.201103 0)
(0.00841624 -0.252204 0)
(0.0544947 -0.292459 0)
(0.0954106 -0.340991 0)
(0.132984 -0.385389 0)
(0.171172 -0.426547 0)
(0.202725 -0.453796 0)
(0.210425 -0.475701 0)
(0.199526 -0.487101 0)
(0.144495 -0.474892 0)
(0.0709516 -0.43541 0)
(0.037675 -0.403001 0)
(0.0247037 -0.369504 0)
(0.0169618 -0.361067 0)
(0.00628867 -0.359784 0)
(-0.00617379 -0.360057 0)
(-0.0171529 -0.36196 0)
(-0.0257317 -0.370938 0)
(-0.0396693 -0.404893 0)
(-0.075168 -0.436536 0)
(-0.151168 -0.475026 0)
(-0.20356 -0.487076 0)
(-0.21329 -0.476303 0)
(-0.204803 -0.456287 0)
(-0.173071 -0.429869 0)
(-0.135181 -0.388431 0)
(-0.0970212 -0.343607 0)
(-0.0550827 -0.293042 0)
(-0.0113787 -0.251794 0)
(-0.0100677 -0.196053 0)
(0.0165087 -0.16858 0)
(0.0158743 -0.226557 0)
(0.056997 -0.272024 0)
(0.100871 -0.320709 0)
(0.140914 -0.364052 0)
(0.179017 -0.402275 0)
(0.207195 -0.424602 0)
(0.212211 -0.440053 0)
(0.202378 -0.446635 0)
(0.147524 -0.430856 0)
(0.0726478 -0.395989 0)
(0.039502 -0.368062 0)
(0.0281117 -0.336393 0)
(0.0185261 -0.327753 0)
(0.00668773 -0.325895 0)
(-0.00680117 -0.326141 0)
(-0.0189204 -0.32844 0)
(-0.0291823 -0.337456 0)
(-0.0416097 -0.367714 0)
(-0.0769707 -0.396394 0)
(-0.153514 -0.431156 0)
(-0.205801 -0.446519 0)
(-0.214227 -0.44117 0)
(-0.208654 -0.427068 0)
(-0.179961 -0.405996 0)
(-0.142476 -0.368091 0)
(-0.102436 -0.324847 0)
(-0.0586666 -0.275132 0)
(-0.0180435 -0.226186 0)
(-0.0206166 -0.163221 0)
(0.0276583 -0.136045 0)
(0.0217715 -0.205478 0)
(0.0662858 -0.256791 0)
(0.110551 -0.303018 0)
(0.150121 -0.341564 0)
(0.186043 -0.373685 0)
(0.210337 -0.390401 0)
(0.212916 -0.400914 0)
(0.202204 -0.403043 0)
(0.14583 -0.384338 0)
(0.0735796 -0.352161 0)
(0.0402079 -0.32082 0)
(0.0296132 -0.299591 0)
(0.0190745 -0.291769 0)
(0.00677192 -0.289781 0)
(-0.00704802 -0.28995 0)
(-0.0196651 -0.292276 0)
(-0.0306981 -0.300702 0)
(-0.042676 -0.321948 0)
(-0.0780483 -0.352433 0)
(-0.151194 -0.384196 0)
(-0.205169 -0.402915 0)
(-0.215025 -0.40152 0)
(-0.211837 -0.392315 0)
(-0.187359 -0.37645 0)
(-0.1519 -0.344745 0)
(-0.112193 -0.306368 0)
(-0.0678141 -0.259044 0)
(-0.024157 -0.205391 0)
(-0.0305757 -0.131658 0)
(0.0379614 -0.103489 0)
(0.0313768 -0.180595 0)
(0.0755913 -0.235265 0)
(0.120069 -0.279613 0)
(0.159483 -0.315594 0)
(0.193553 -0.343082 0)
(0.213468 -0.355079 0)
(0.214363 -0.360844 0)
(0.201407 -0.358264 0)
(0.143157 -0.336796 0)
(0.0752481 -0.306953 0)
(0.0412778 -0.281458 0)
(0.0292059 -0.261787 0)
(0.0186353 -0.253585 0)
(0.00649983 -0.251392 0)
(-0.00710295 -0.251593 0)
(-0.0195389 -0.254154 0)
(-0.0304659 -0.262833 0)
(-0.0438111 -0.281887 0)
(-0.0796246 -0.307087 0)
(-0.147642 -0.336484 0)
(-0.203432 -0.357971 0)
(-0.215471 -0.361553 0)
(-0.214156 -0.356912 0)
(-0.194242 -0.34586 0)
(-0.160908 -0.318662 0)
(-0.121747 -0.28254 0)
(-0.077442 -0.237256 0)
(-0.0334726 -0.180669 0)
(-0.0402623 -0.100469 0)
(0.0485901 -0.0754032 0)
(0.0423089 -0.155136 0)
(0.0869909 -0.212633 0)
(0.130807 -0.254695 0)
(0.168824 -0.286814 0)
(0.199485 -0.308775 0)
(0.214629 -0.315818 0)
(0.214179 -0.317889 0)
(0.197505 -0.309692 0)
(0.138218 -0.286149 0)
(0.07533 -0.259317 0)
(0.0408124 -0.23554 0)
(0.0281829 -0.223078 0)
(0.0184562 -0.213287 0)
(0.00632181 -0.210987 0)
(-0.0069684 -0.211127 0)
(-0.0192846 -0.213725 0)
(-0.029426 -0.223226 0)
(-0.0433882 -0.235966 0)
(-0.0792156 -0.259253 0)
(-0.141398 -0.285526 0)
(-0.198462 -0.309132 0)
(-0.214491 -0.318567 0)
(-0.21474 -0.317208 0)
(-0.199937 -0.310876 0)
(-0.169909 -0.289454 0)
(-0.132332 -0.257051 0)
(-0.0888407 -0.213939 0)
(-0.0444119 -0.154718 0)
(-0.0506224 -0.0737451 0)
(0.0588349 -0.0546076 0)
(0.0538112 -0.129826 0)
(0.098777 -0.187023 0)
(0.141772 -0.225826 0)
(0.177848 -0.254157 0)
(0.204494 -0.270864 0)
(0.215172 -0.273637 0)
(0.213478 -0.271493 0)
(0.191405 -0.257929 0)
(0.132783 -0.234086 0)
(0.0742496 -0.209385 0)
(0.0389144 -0.18766 0)
(0.0257443 -0.174552 0)
(0.0172333 -0.169853 0)
(0.0060882 -0.167652 0)
(-0.00613146 -0.167651 0)
(-0.0176084 -0.169217 0)
(-0.0271978 -0.174134 0)
(-0.0417966 -0.187595 0)
(-0.0777435 -0.209223 0)
(-0.135175 -0.233268 0)
(-0.191379 -0.25692 0)
(-0.213171 -0.271481 0)
(-0.214806 -0.274694 0)
(-0.204577 -0.272442 0)
(-0.178524 -0.25622 0)
(-0.142874 -0.227643 0)
(-0.100339 -0.187858 0)
(-0.0558027 -0.12964 0)
(-0.0605249 -0.054863 0)
(0.0677569 -0.0400258 0)
(0.0651172 -0.105531 0)
(0.110416 -0.15892 0)
(0.152172 -0.193365 0)
(0.185649 -0.217407 0)
(0.207956 -0.229275 0)
(0.215606 -0.228885 0)
(0.212096 -0.221518 0)
(0.184885 -0.203883 0)
(0.129101 -0.180814 0)
(0.0733011 -0.157179 0)
(0.0369744 -0.136185 0)
(0.0209127 -0.12343 0)
(0.012594 -0.118821 0)
(0.00439775 -0.117519 0)
(-0.00509584 -0.11735 0)
(-0.0142286 -0.118817 0)
(-0.022796 -0.123896 0)
(-0.038917 -0.136521 0)
(-0.0757127 -0.156909 0)
(-0.130484 -0.179943 0)
(-0.183986 -0.202561 0)
(-0.211424 -0.221093 0)
(-0.21515 -0.229763 0)
(-0.207925 -0.230561 0)
(-0.186087 -0.21923 0)
(-0.152782 -0.194966 0)
(-0.111113 -0.159633 0)
(-0.0661066 -0.105606 0)
(-0.0684379 -0.0415091 0)
(0.0746428 -0.027282 0)
(0.0754747 -0.0816437 0)
(0.120906 -0.128558 0)
(0.161259 -0.157782 0)
(0.191733 -0.177259 0)
(0.210126 -0.184919 0)
(0.216003 -0.18123 0)
(0.209701 -0.167259 0)
(0.177591 -0.146702 0)
(0.124199 -0.124647 0)
(0.0707387 -0.102249 0)
(0.034768 -0.0817681 0)
(0.0177255 -0.0688569 0)
(0.00884058 -0.0633596 0)
(0.00185647 -0.0620079 0)
(-0.00368694 -0.062508 0)
(-0.00969597 -0.0645012 0)
(-0.0184078 -0.0700621 0)
(-0.0364764 -0.0826191 0)
(-0.0732943 -0.102403 0)
(-0.126032 -0.124395 0)
(-0.17768 -0.146233 0)
(-0.209264 -0.167011 0)
(-0.215805 -0.181644 0)
(-0.210047 -0.186059 0)
(-0.192005 -0.178692 0)
(-0.161623 -0.158932 0)
(-0.120956 -0.129144 0)
(-0.0750131 -0.0819567 0)
(-0.0739043 -0.0282059 0)
(0.0805024 -0.0149151 0)
(0.0853442 -0.057955 0)
(0.128793 -0.0971588 0)
(0.168439 -0.120157 0)
(0.195941 -0.133486 0)
(0.209971 -0.135606 0)
(0.21281 -0.12677 0)
(0.201122 -0.107066 0)
(0.166002 -0.0861406 0)
(0.115899 -0.0662387 0)
(0.0662931 -0.0460704 0)
(0.032766 -0.0267125 0)
(0.0175373 -0.0131297 0)
(0.0111138 -0.00567145 0)
(0.00555718 -0.00233937 0)
(-0.000594806 -0.00209089 0)
(-0.00771532 -0.00523628 0)
(-0.016447 -0.0130649 0)
(-0.033914 -0.0270998 0)
(-0.068609 -0.046408 0)
(-0.118173 -0.0665043 0)
(-0.167657 -0.0865797 0)
(-0.202398 -0.107665 0)
(-0.214093 -0.127472 0)
(-0.210679 -0.137312 0)
(-0.196026 -0.135011 0)
(-0.168472 -0.121105 0)
(-0.128679 -0.0974532 0)
(-0.0841582 -0.0580344 0)
(-0.0790763 -0.0149308 0)
(0.0834788 -0.00381845 0)
(0.0920103 -0.0379645 0)
(0.134302 -0.0657049 0)
(0.174682 -0.0784416 0)
(0.197329 -0.0839031 0)
(0.205412 -0.0806325 0)
(0.204483 -0.066193 0)
(0.188458 -0.0442729 0)
(0.153771 -0.0248457 0)
(0.107413 -0.00713901 0)
(0.0622736 0.0108697 0)
(0.0307034 0.029415 0)
(0.014988 0.0436148 0)
(0.00877224 0.0516841 0)
(0.0055406 0.0551722 0)
(0.00279913 0.055537 0)
(-0.00141299 0.0526865 0)
(-0.00940987 0.0449628 0)
(-0.0277442 0.0307426 0)
(-0.0616503 0.0117659 0)
(-0.108038 -0.00696889 0)
(-0.154842 -0.0253032 0)
(-0.190159 -0.0451944 0)
(-0.206595 -0.0673962 0)
(-0.206914 -0.0822837 0)
(-0.197547 -0.0859326 0)
(-0.174219 -0.0795754 0)
(-0.133836 -0.0658438 0)
(-0.0910559 -0.0371558 0)
(-0.0828629 -0.00303686 0)
(0.0652683 0.00826862 0)
(0.100215 -0.0210524 0)
(0.14442 -0.0363999 0)
(0.177711 -0.0318714 0)
(0.197151 -0.0273542 0)
(0.199303 -0.0170927 0)
(0.193933 -0.000997687 0)
(0.174997 0.0198904 0)
(0.139697 0.0373524 0)
(0.0972317 0.0524689 0)
(0.0565476 0.0683751 0)
(0.0272061 0.0852357 0)
(0.0117506 0.0985994 0)
(0.00609887 0.106489 0)
(0.00469478 0.110027 0)
(0.00441495 0.110412 0)
(0.00265935 0.107694 0)
(-0.00370742 0.100534 0)
(-0.0203823 0.0878289 0)
(-0.0511238 0.0710928 0)
(-0.0933407 0.0544324 0)
(-0.137284 0.0383139 0)
(-0.174192 0.0201451 0)
(-0.194871 -0.00189276 0)
(-0.200597 -0.0194216 0)
(-0.197083 -0.0292269 0)
(-0.177576 -0.0327202 0)
(-0.143095 -0.0356662 0)
(-0.0994024 -0.0201416 0)
(-0.0651979 0.0110981 0)
(0.0577783 0.00455043 0)
(0.104372 -0.00383545 0)
(0.146816 0.00369031 0)
(0.177197 0.0229835 0)
(0.195414 0.0404928 0)
(0.196052 0.0470841 0)
(0.183249 0.0618563 0)
(0.157408 0.0839949 0)
(0.122507 0.0982591 0)
(0.0854326 0.110218 0)
(0.051381 0.123322 0)
(0.0266569 0.137216 0)
(0.0127582 0.148596 0)
(0.00694128 0.155774 0)
(0.00501531 0.159198 0)
(0.00415726 0.159541 0)
(0.0019689 0.156864 0)
(-0.00429715 0.150491 0)
(-0.018673 0.140103 0)
(-0.0435967 0.126995 0)
(-0.077964 0.113806 0)
(-0.115743 0.100922 0)
(-0.151835 0.0857644 0)
(-0.178685 0.0628748 0)
(-0.193815 0.0452354 0)
(-0.194167 0.0386714 0)
(-0.177606 0.0223385 0)
(-0.146665 0.00299656 0)
(-0.103316 -0.00159318 0)
(-0.057014 0.00875495 0)
(0.0535683 0.00223025 0)
(0.102399 0.0222694 0)
(0.141103 0.0556022 0)
(0.18212 0.0752354 0)
(0.200607 0.0996928 0)
(0.196372 0.103079 0)