/*--------------------------------*- C++ -*----------------------------------*\
| =========                 |                                                 |
| \\      /  F ield         | OpenFOAM: The Open Source CFD Toolbox           |
|  \\    /   O peration     | Version:  2.4.0                                 |
|   \\  /    A nd           | Web:      www.OpenFOAM.org                      |
|    \\/     M anipulation  |                                                 |
\*---------------------------------------------------------------------------*/
FoamFile
{
    version     2.0;
    format      ascii;
    class       volVectorField;
    location    "0.7";
    object      U;
}
// * * * * * * * * * * * * * * * * * * * * * * * * * * * * * * * * * * * * * //

dimensions      [0 1 -1 0 0 0 0];

internalField   nonuniform List<vector> 
3072
(
(-0.131492 0.553314 1.08084e-24)
(0.217835 0.564716 -3.58421e-24)
(0.0972589 0.446806 -6.93896e-24)
(0.264758 0.544828 9.3446e-25)
(0.179502 0.407256 9.6417e-25)
(0.145968 0.667461 -5.33352e-24)
(0.302469 0.505532 6.50115e-23)
(0.88141 0.366227 9.01694e-23)
(2.46394 0.479398 -9.97345e-23)
(2.2139 1.48827 4.89219e-24)
(2.72916 1.39841 -4.58878e-23)
(2.87328 2.03847 -1.88672e-22)
(-0.149387 0.814491 -2.2029e-24)
(-0.180714 0.568701 -1.73816e-24)
(0.0371718 0.487179 -1.82279e-25)
(-0.0192511 0.569225 1.30043e-32)
(0.340663 0.662872 -2.9426e-23)
(0.508698 0.690008 -4.3751e-23)
(0.7158 0.913429 0)
(2.169 1.20162 9.25322e-24)
(2.09278 1.60458 5.58267e-24)
(2.16468 1.99234 0)
(2.42853 2.14857 -1.44046e-22)
(2.44693 2.38755 -1.36469e-22)
(-0.403402 0.828423 0)
(-0.208532 0.520794 -6.50836e-24)
(0.125029 0.637877 1.72272e-26)
(0.782979 0.393092 -1.02134e-23)
(0.794815 0.602999 -4.5356e-23)
(1.05646 1.13523 1.59945e-23)
(2.23387 1.24017 -4.62628e-23)
(2.71315 1.61409 5.28364e-24)
(2.66247 1.54574 1.15498e-22)
(2.771 1.82014 0)
(2.76847 1.82737 3.46345e-23)
(2.69164 2.01762 1.41505e-23)
(-0.680218 0.805906 0)
(-0.473227 0.725889 0)
(-0.0137206 0.422322 0)
(0.0206404 0.802696 -3.72656e-23)
(1.09423 0.792858 -8.02559e-23)
(1.89667 0.634889 1.80736e-22)
(2.49976 0.926414 -6.92929e-24)
(2.89963 1.22981 -1.63118e-22)
(2.85244 1.26952 -5.63392e-23)
(2.74389 1.59553 6.49076e-23)
(2.67059 1.66126 5.29102e-23)
(2.44226 1.88358 1.37035e-22)
(-0.74466 1.03195 1.30884e-24)
(-0.480234 0.875093 1.1072e-23)
(0.413134 0.749794 -5.29362e-24)
(1.83691 0.553946 1.36538e-23)
(1.97025 0.691691 -2.50171e-24)
(1.91862 1.10406 8.67626e-23)
(2.70484 1.1489 1.25653e-22)
(3.12093 1.39534 -3.46161e-23)
(2.6613 1.48761 4.3341e-23)
(2.6401 1.67575 -5.79569e-23)
(2.47933 1.67801 -9.1889e-23)
(2.24259 1.76997 0)
(-0.807515 1.11844 -8.92547e-27)
(-0.462142 0.8717 1.78561e-23)
(0.0662133 1.1749 1.25578e-24)
(0.362903 0.997203 2.21495e-23)
(1.37242 1.03159 1.83389e-23)
(2.6364 0.771559 0)
(3.35248 0.772449 -1.72305e-23)
(2.86803 1.03499 1.05009e-23)
(2.38054 0.879026 6.85329e-23)
(2.61642 1.18535 7.24914e-23)
(2.11504 1.19507 -4.35627e-23)
(2.15725 1.54851 -7.10982e-23)
(-0.698482 1.22972 5.26588e-24)
(-0.225702 1.22101 1.42674e-24)
(0.695867 1.02192 0)
(2.20453 0.896009 0)
(2.73345 0.688519 0)
(2.879 0.845706 -1.50232e-23)
(2.87203 1.03362 4.32326e-23)
(2.53166 1.04185 1.26656e-22)
(2.53561 1.21991 -9.0287e-23)
(2.51693 1.49941 2.66529e-23)
(2.19032 1.62554 -1.43344e-22)
(2.302 1.95732 -3.61611e-22)
(-0.652752 1.34003 -4.06122e-24)
(-0.369309 1.36846 -2.17159e-24)
(0.447697 1.26173 0)
(0.773629 1.03945 7.95379e-24)
(1.64744 1.00561 -1.05335e-23)
(2.72056 0.881756 -5.33804e-23)
(3.30646 0.71904 3.46432e-23)
(2.77646 0.940081 0)
(2.56322 1.10774 1.04541e-22)
(2.25233 1.14142 5.38423e-23)
(2.17196 1.14158 5.27018e-24)
(1.90896 1.30326 -7.12171e-23)
(-0.641653 1.56443 -4.1415e-24)
(-0.401195 0.923119 1.94318e-23)
(0.171556 1.38008 -1.82689e-24)
(1.7388 0.999263 5.50452e-23)
(2.80716 0.871817 4.7398e-23)
(3.28658 0.758957 -3.34213e-23)
(2.9471 0.993209 9.47083e-23)
(2.37139 1.05646 4.57934e-23)
(2.08356 0.873708 -8.69417e-23)
(2.09738 0.781977 -8.86044e-23)
(1.8359 1.00076 0)
(1.46175 1.15362 -1.09057e-31)
(-0.487381 1.74409 6.79875e-24)
(-0.114179 1.38753 2.32727e-23)
(1.27472 1.56353 0)
(1.49547 1.50864 -1.37635e-32)
(2.1806 1.0488 -1.44405e-23)
(2.82875 0.922203 4.15284e-24)
(2.99593 0.664134 -8.82943e-23)
(2.30636 0.568297 -1.01104e-22)
(2.20533 0.655148 -1.08014e-22)
(1.85914 0.79591 -1.93979e-23)
(1.71093 0.952126 5.60427e-23)
(1.20759 1.1014 -6.7534e-23)
(-0.318975 1.81892 3.96057e-24)
(-0.405373 1.41732 1.10872e-23)
(0.232354 1.55717 -1.35045e-23)
(1.42195 0.963012 -8.25716e-23)
(2.68913 1.00437 -1.70041e-22)
(3.17679 0.663327 3.72614e-23)
(2.70784 0.819911 5.2293e-23)
(1.83591 0.902125 5.12615e-23)
(1.79178 0.823004 3.5234e-23)
(1.7345 0.632882 4.32167e-23)
(1.61642 0.901099 4.64332e-23)
(0.958069 1.05175 2.89546e-23)
(-0.412886 2.43321 9.79828e-24)
(-0.457753 2.24958 2.37531e-24)
(0.996248 1.85278 0)
(1.10413 1.66596 3.94754e-23)
(2.0141 0.956117 -1.1895e-22)
(2.68294 0.746932 -1.58225e-22)
(2.39062 0.568255 7.57579e-23)
(1.88405 0.575716 1.30425e-22)
(1.8553 0.495931 3.30422e-23)
(1.80731 0.589566 -1.08717e-22)
(1.40236 0.814328 1.88151e-23)
(0.654669 0.942894 5.78383e-23)
(2.97814 1.7536 -4.67514e-23)
(3.223 2.12883 4.65013e-23)
(3.05148 1.72467 1.60654e-22)
(3.28829 1.86951 3.86133e-22)
(2.72801 1.40713 8.74052e-22)
(2.96463 1.46918 4.85384e-22)
(2.03474 1.08675 -1.37632e-23)
(2.31573 1.02409 0)
(1.15001 0.964078 6.10384e-23)
(1.24105 0.476476 2.14282e-23)
(0.815561 1.07414 -8.77845e-24)
(0.315204 0.350292 -1.0089e-24)
(2.59571 2.30958 -9.15459e-23)
(2.57854 2.38559 0)
(2.53566 2.15135 -1.49551e-22)
(2.56812 2.15909 -4.09968e-23)
(2.42355 1.86525 0)
(2.39164 1.75104 1.7599e-23)
(2.05799 1.50207 0)
(2.00529 1.31425 5.25325e-23)
(1.55611 1.303 4.81911e-23)
(1.3784 0.770011 2.53564e-23)
(0.960627 0.946572 4.30279e-24)
(0.961637 -0.473123 1.65985e-24)
(2.70868 2.01129 -2.16963e-23)
(2.61546 2.11944 -4.44422e-23)
(2.60074 2.0969 2.23448e-31)
(2.35869 2.08158 -1.99937e-22)
(2.21548 2.01647 -1.91227e-24)
(1.88777 1.79862 3.09252e-22)
(1.7565 1.78918 -1.35868e-23)
(1.68713 1.57839 2.33847e-24)
(1.44924 1.78119 0)
(1.43949 1.33513 1.17831e-23)
(1.14252 1.48609 4.32469e-24)
(1.50997 1.03631 3.54324e-24)
(2.43047 1.86845 1.53026e-22)
(2.1705 1.89221 1.38824e-22)
(2.28471 1.92049 7.23081e-23)
(2.02303 1.92519 0)
(2.0344 2.17346 5.53632e-23)
(1.59045 2.01635 0)
(1.27409 1.58824 -5.07354e-23)
(1.25253 1.40309 -8.57754e-23)
(0.999575 1.54974 -4.14899e-23)
(1.15043 1.38783 9.00192e-24)
(0.767921 1.19956 0)
(1.0168 1.21476 -9.25477e-26)
(2.16439 1.7907 0)
(1.94684 1.74622 2.08632e-22)
(1.89275 1.79367 1.39597e-22)
(1.68535 2.07008 0)
(1.76932 2.40933 -2.37275e-22)
(1.36896 2.67952 -4.80107e-22)
(1.13326 2.25146 -1.00574e-22)
(0.912429 1.46097 3.25049e-23)
(0.853698 1.58674 -1.97308e-23)
(0.958648 1.47004 -3.03818e-24)
(0.990245 1.40257 1.80255e-24)
(1.18965 1.12051 3.00427e-24)
(1.73947 1.5591 -7.69889e-23)
(1.75424 1.5799 -8.24233e-23)
(1.30114 1.50043 -2.19758e-22)
(1.04074 0.863728 0)
(1.1073 1.41913 1.58761e-22)
(0.74795 2.07741 2.82138e-22)
(0.583873 2.31827 0)
(0.705475 1.81211 0)
(0.59277 1.42914 4.10585e-24)
(0.762097 1.25108 0)
(0.663975 1.04238 -1.10951e-24)
(0.950883 1.14342 2.79685e-24)
(1.98823 2.04219 -1.57516e-22)
(1.89294 2.28147 3.7342e-22)
(1.19134 2.27673 2.70928e-24)
(1.12169 1.82992 0)
(0.780917 1.14226 -4.57699e-23)
(0.263085 1.83968 -2.70105e-22)
(0.204057 1.97134 -8.10759e-23)
(0.280894 1.60819 0)
(0.566899 1.41538 -2.02756e-24)
(0.668134 1.31382 -5.29189e-24)
(0.966291 1.09291 2.99806e-24)
(1.16275 0.840403 3.1462e-24)
(1.5128 1.40935 7.37708e-23)
(1.40234 1.75485 1.6374e-22)
(0.743682 2.09504 -1.36751e-22)
(0.747792 2.14764 1.26346e-22)
(0.350726 1.91963 1.28565e-22)
(-0.126981 2.03044 1.67315e-22)
(-0.0719157 2.07986 5.10559e-23)
(0.256464 1.50342 -1.62094e-24)
(0.375838 1.16891 -2.17719e-23)
(0.519962 0.992106 9.83653e-24)
(0.649699 0.658102 1.3248e-24)
(0.923143 0.650054 -1.91758e-24)
(1.14333 1.24902 0)
(0.932603 1.44038 0)
(0.270243 1.77535 -1.15884e-22)
(0.0681596 1.83269 7.74384e-23)
(-0.138487 1.82545 2.52909e-22)
(-0.450038 1.8406 6.7578e-23)
(-0.332507 1.72552 -3.07176e-23)
(0.0616633 1.30848 -4.14208e-23)
(0.424383 1.14351 -3.10251e-23)
(0.533629 0.906704 0)
(1.04236 0.650305 4.98798e-24)
(1.24795 0.329595 -9.00965e-33)
(0.989115 1.20949 2.56562e-23)
(0.553987 1.4587 0)
(-0.0224098 1.9712 -3.69203e-31)
(-0.229046 1.95187 -5.16988e-23)
(-0.544898 1.88169 1.67302e-22)
(-0.688434 1.85031 8.73685e-23)
(-0.300006 1.74901 1.12614e-22)
(0.190623 1.16833 -4.40827e-23)
(0.270779 0.962833 -1.19241e-22)
(0.365702 0.695564 -5.64891e-23)
(0.662728 0.229804 -3.48884e-23)
(0.835956 0.130407 -1.54839e-24)
(0.78708 1.20306 4.08478e-23)
(0.171439 1.28691 8.80019e-23)
(-0.394028 1.66747 -5.22595e-23)
(-0.721296 1.79328 -1.50369e-22)
(-0.812181 1.89739 9.44729e-23)
(-0.689271 1.70613 -2.35278e-23)
(-0.0870292 1.3534 5.88608e-23)
(0.243432 0.916852 2.87875e-23)
(0.213899 1.02654 -3.59018e-23)
(0.270305 0.487679 -3.07146e-23)
(1.12367 0.261241 -1.35047e-23)
(0.761756 -0.552971 -1.10634e-23)
(0.455541 1.1149 8.66969e-23)
(-0.297463 1.31125 -1.04265e-22)
(-0.795788 1.73368 5.6226e-23)
(-0.992358 1.79763 -5.35981e-31)
(-0.879843 1.70357 9.26218e-23)
(-0.549152 1.47927 8.25266e-23)
(0.198375 1.23406 2.88044e-23)
(0.232407 1.04668 -2.43554e-23)
(0.00312022 0.832881 0)
(0.945957 0.268418 5.09306e-23)
(0.721302 -0.157957 -2.90689e-23)
(1.4289 -0.645198 -1.83896e-23)
(0.595017 0.349303 -6.34254e-25)
(0.259719 0.0274142 9.7134e-24)
(0.21999 0.00079954 1.09963e-23)
(0.0888329 -0.0226478 3.06743e-24)
(0.0784629 -0.168194 -1.11869e-24)
(0.303458 -0.211073 -1.24411e-24)
(0.127496 -0.353122 -3.49455e-23)
(0.443273 -0.150113 -1.00264e-22)
(0.6444 -0.00236552 1.73724e-22)
(0.0172503 -2.15872 2.69237e-24)
(1.19107 -2.1005 1.44286e-22)
(1.07798 -2.26007 -2.46221e-23)
(0.906051 0.594644 -1.7575e-24)
(0.340972 0.462468 -1.34597e-23)
(0.451493 0.318875 8.00126e-24)
(0.243517 0.0361931 6.15373e-24)
(0.38092 -0.530419 2.08229e-23)
(0.363998 -0.24428 -1.08417e-23)
(0.831685 -0.336326 1.98833e-23)
(0.603831 -1.19767 0)
(1.48367 -2.46144 1.15887e-23)
(1.24695 -2.05493 2.30481e-22)
(1.94058 -2.1587 -4.57458e-23)
(1.69061 -2.07037 0)
(0.991934 0.869314 -1.56885e-24)
(0.357596 0.563742 4.09795e-24)
(0.71597 0.196267 1.35742e-23)
(0.162836 -0.313943 0)
(0.534128 -0.330363 4.388e-23)
(0.542891 -0.812509 1.38895e-23)
(0.938098 -1.71611 -1.77664e-22)
(1.1753 -2.44868 -4.96302e-24)
(1.60917 -2.82432 -1.96773e-23)
(1.34533 -2.49056 -1.0254e-22)
(1.68872 -2.57604 0)
(1.46858 -2.29139 0)
(0.959975 1.03312 4.41308e-25)
(0.6206 0.654301 1.3943e-24)
(0.846464 0.515546 4.2666e-24)
(0.903382 -0.275844 1.61974e-23)
(0.850039 -1.41567 1.7701e-22)
(0.942882 -1.66678 5.06924e-23)
(1.45299 -2.68938 -2.38165e-22)
(1.31951 -2.73362 -1.95025e-23)
(1.58316 -2.56581 5.67492e-23)
(1.34538 -2.4533 -1.17245e-24)
(1.65342 -2.221 0)
(1.40311 -2.08447 0)
(1.06248 0.964093 -7.2763e-24)
(1.07057 0.400452 -9.95054e-24)
(0.92218 -0.651668 -2.58812e-23)
(1.32481 -1.00589 -6.22324e-24)
(1.09907 -1.43694 2.21323e-23)
(1.47213 -2.48806 -2.67813e-23)
(1.51713 -3.00116 -1.10886e-22)
(1.41013 -2.57761 -2.8779e-23)
(1.53176 -2.48363 7.99386e-24)
(1.43171 -2.29111 0)
(1.61972 -2.20144 -3.42474e-23)
(1.56347 -2.03105 -7.53346e-23)
(1.16636 0.957816 -2.08898e-24)
(1.15138 0.55082 0)
(1.25116 -0.160965 -2.31253e-23)
(1.3752 -1.01288 -2.83714e-23)
(1.35559 -2.26105 6.7808e-24)
(1.45018 -2.81687 4.46542e-24)
(1.55566 -2.73803 -1.55327e-23)
(1.46798 -2.47696 -2.92428e-23)
(1.53759 -2.38618 -3.37062e-23)
(1.45362 -2.23858 -4.03949e-25)
(1.64172 -2.09914 -2.72966e-24)
(1.60453 -2.00221 -1.6016e-23)
(1.25705 0.85868 -6.30466e-24)
(1.12223 0.165951 0)
(1.53126 -0.907006 0)
(1.39132 -1.84822 -9.55946e-23)
(1.54525 -2.26879 -3.09599e-33)
(1.68211 -2.5807 6.63412e-24)
(1.59121 -2.58032 -6.78882e-23)
(1.44238 -2.3406 -4.01923e-23)
(1.45834 -2.33731 1.85015e-23)
(1.49244 -2.07155 1.80893e-23)
(1.52883 -2.01226 -2.13919e-23)
(1.6443 -1.78087 -2.77324e-23)
(1.39439 0.587497 -6.61372e-24)
(1.49581 -0.210471 -3.95386e-23)
(1.5926 -1.12349 -3.2534e-23)
(1.61499 -1.25889 -7.37144e-23)
(1.53057 -2.38599 5.46326e-23)
(1.37178 -2.82061 7.0564e-24)
(1.30058 -2.42008 4.98876e-23)
(1.20526 -2.17653 4.14577e-24)
(1.31513 -2.14448 0)
(1.18306 -1.94604 0)
(1.31397 -1.8393 1.02723e-23)
(1.29601 -1.54898 2.67827e-23)
(1.31393 0.584534 -1.33669e-24)
(1.52653 -0.145278 -1.97968e-23)
(1.36334 -1.05873 3.02224e-23)
(1.42039 -2.28088 -6.22448e-23)
(1.37931 -2.71153 5.19571e-23)
(1.42604 -2.2951 -3.9129e-23)
(1.3682 -1.89958 0)
(1.28491 -1.97916 5.02708e-23)
(1.26662 -2.0667 3.42279e-23)
(1.37906 -1.83547 1.14162e-23)
(1.51579 -1.77109 -1.2664e-23)
(1.66722 -1.35059 -2.14798e-23)
(1.54821 0.292933 -1.74638e-23)
(1.6351 -0.523541 -2.08143e-23)
(1.68967 -1.20312 -5.66104e-32)
(1.48185 -1.43232 -5.44317e-23)
(1.33064 -2.09986 3.50211e-23)
(1.13179 -2.30346 8.30583e-23)
(1.05259 -2.14405 -7.03331e-24)
(1.0071 -2.16317 -4.49387e-25)
(1.16355 -1.98384 -3.12767e-24)
(1.19224 -1.82929 -7.41791e-24)
(1.36956 -1.66674 0)
(1.46948 -1.19623 5.99319e-23)
(1.54632 0.0458951 1.79055e-24)
(1.5761 -0.503863 -1.49214e-23)
(1.34929 -1.19189 -5.13896e-23)
(1.20939 -2.26522 2.53599e-24)
(1.09101 -2.68172 8.52129e-23)
(1.13653 -2.13479 5.61636e-23)
(1.23671 -1.61084 6.95865e-23)
(1.11163 -1.7413 5.22691e-23)
(1.10021 -1.89656 -4.83836e-23)
(1.15727 -1.66956 -8.20577e-23)
(1.27374 -1.42721 0)
(1.3866 -0.860702 1.75032e-23)
(2.28066 0.298765 -3.2973e-24)
(1.45093 -0.351249 2.60258e-24)
(1.76008 -0.881795 0)
(1.24591 -1.24601 3.82259e-24)
(1.03738 -1.78564 5.17386e-23)
(0.907016 -1.90145 0)
(0.869269 -1.93055 9.70255e-23)
(0.798897 -2.17501 1.50153e-22)
(0.931939 -1.8936 1.75611e-22)
(0.953935 -1.5048 1.33463e-23)
(1.16924 -1.11023 0)
(1.26252 -0.570724 0)
(1.5753 -2.58108 1.14199e-22)
(1.37807 -2.46071 8.63001e-23)
(1.56118 -2.77538 4.23564e-23)
(1.32503 -2.52609 4.07285e-23)
(1.30893 -2.73094 2.02639e-22)
(1.09157 -2.31691 2.95119e-22)
(1.00696 -2.31959 0)
(0.864192 -1.80784 0)
(0.88631 -1.60659 4.27575e-23)
(0.715696 -0.944753 7.90933e-24)
(1.03097 -0.996569 2.16031e-32)
(0.284913 -0.179835 -1.70975e-33)
(2.0931 -2.27864 5.88568e-23)
(1.75661 -2.10364 1.26354e-22)
(1.95768 -2.30968 1.98482e-22)
(1.54808 -2.02024 5.81789e-23)
(1.67468 -2.2901 2.40475e-23)
(1.28882 -1.92301 0)
(1.34175 -2.10197 9.38897e-23)
(0.957785 -1.69466 1.4411e-22)
(1.04823 -1.62979 4.18629e-23)
(0.772109 -1.20198 -2.06844e-23)
(0.904917 -1.07952 -3.65014e-24)
(-0.429142 -0.811163 1.46809e-24)
(1.74976 -2.41547 0)
(1.52219 -2.14245 2.02604e-23)
(1.73707 -2.30671 2.88762e-23)
(1.49598 -1.99909 0)
(1.66003 -2.18386 -3.30421e-23)
(1.51476 -1.81476 6.75026e-24)
(1.54164 -1.81149 7.99679e-32)
(1.53631 -1.70795 1.66881e-23)
(1.40914 -1.46539 0)
(1.34808 -1.47044 0)
(1.39941 -1.17182 7.12757e-24)
(0.969662 -1.51999 1.29802e-24)
(1.6883 -1.88912 0)
(1.42253 -1.75893 -5.47007e-23)
(1.51083 -1.61335 0)
(1.19632 -1.58473 4.29601e-23)
(1.19635 -1.62199 3.82544e-23)
(1.28432 -1.58925 -1.89768e-23)
(1.18203 -1.27566 -5.35108e-24)
(1.2983 -1.44956 -1.46963e-23)
(1.52451 -1.21309 -1.68245e-23)
(1.35044 -1.28327 2.08864e-23)
(1.28515 -0.88297 -4.56267e-25)
(1.26887 -1.1021 -1.96362e-24)
(1.69041 -1.90525 1.27152e-22)
(1.5905 -1.74331 1.60411e-22)
(1.41292 -1.45861 0)
(1.21477 -1.33334 4.81836e-23)
(1.27297 -1.51757 1.27165e-22)
(1.66779 -1.48306 3.42551e-24)
(1.48466 -1.10644 -5.52553e-23)
(1.1972 -1.20184 -9.27929e-24)
(1.49377 -0.995663 -2.00301e-23)
(1.6193 -1.19019 1.53927e-23)
(1.52983 -1.03726 -6.58631e-24)
(1.2889 -1.25662 1.62308e-24)
(1.71657 -1.7157 0)
(1.72717 -1.58858 1.58277e-23)
(1.84827 -1.14031 4.0399e-23)
(0.978594 -0.975409 0)
(0.678748 -1.18148 0)
(1.64205 -1.33432 1.57391e-23)
(1.82685 -0.897889 0)
(1.23364 -1.00369 0)
(1.26615 -0.760039 0)
(1.30585 -0.907611 7.84638e-24)
(1.25523 -0.775872 -1.1572e-24)
(1.38817 -1.05312 3.28992e-24)
(1.73388 -1.6066 0)
(2.07959 -1.49137 -2.49702e-23)
(2.28297 -0.972929 -6.30311e-24)
(1.90623 -0.792281 0)
(0.255626 -0.91953 -5.94693e-23)
(0.712746 -0.976605 5.8133e-23)
(1.62225 -0.478926 -2.24624e-23)
(1.42081 -0.71815 -2.45401e-23)
(1.35592 -0.642214 0)
(1.38046 -0.82268 0)
(1.32163 -0.955782 2.47221e-23)
(1.1435 -1.21746 2.66911e-24)
(1.21854 -1.34927 0)
(1.28061 -1.25048 5.50467e-23)
(2.03414 -0.765967 1.15125e-22)
(1.93755 -0.735368 4.26891e-23)
(0.921749 -1.09403 -3.12623e-23)
(1.10906 -0.507301 -1.20309e-24)
(1.5452 -0.167411 -1.89276e-23)
(1.12776 -0.386276 -2.33148e-23)
(1.04436 -0.398966 -1.97123e-23)
(1.03075 -0.546192 1.16549e-23)
(0.864761 -0.672739 1.58867e-23)
(0.997674 -1.01577 -6.82758e-24)
(1.58853 -1.19656 -2.22037e-24)
(1.49368 -0.969648 4.59927e-23)
(1.84247 -0.254209 1.35506e-22)
(1.91979 -0.305175 8.17023e-23)
(1.11078 -0.801457 3.9415e-23)
(1.03395 -0.110974 6.25621e-24)
(1.40232 0.130176 -2.02034e-23)
(1.06666 -0.235459 1.561e-25)
(1.09939 -0.332401 1.97257e-23)
(0.951708 -0.507266 1.61301e-23)
(0.799865 -0.955096 4.04726e-24)
(0.677545 -1.21193 -1.26463e-23)
(1.61616 -0.994287 1.76726e-23)
(1.55821 -0.609866 3.06041e-24)
(1.73721 0.0207086 -8.44332e-24)
(1.71818 -0.127566 3.24392e-23)
(1.18188 -0.342555 -1.50026e-23)
(1.24696 0.312794 -1.87818e-23)
(1.39233 0.331087 -1.63709e-23)
(0.940351 -0.067678 -2.00046e-23)
(0.860074 -0.0947311 -4.84045e-32)
(0.648551 -0.249463 1.05353e-23)
(0.382234 -0.585326 9.89738e-24)
(0.333128 -0.890865 5.30472e-24)
(1.56403 -0.666981 0)
(1.55365 -0.027715 7.42803e-23)
(1.66296 0.395099 -1.43845e-23)
(1.61312 0.228716 2.13372e-23)
(1.27668 0.211796 2.0846e-23)
(1.25188 0.538172 -8.06077e-25)
(1.18961 0.243768 3.25697e-23)
(0.706352 -0.16867 -5.60258e-23)
(0.850743 -0.0766177 -5.41303e-23)
(0.418495 -0.369962 5.42563e-23)
(0.248647 -0.925089 8.59494e-24)
(-0.25395 -0.886867 -8.35535e-24)
(1.40073 -0.181086 0)
(1.48442 0.437831 6.54729e-23)
(1.54303 0.637519 0)
(1.45502 0.384784 0)
(1.28693 0.45069 3.34093e-23)
(1.24557 0.445893 2.9727e-24)
(1.06693 -0.0537318 3.24177e-23)
(0.831468 -0.180593 0)
(0.767915 0.0440943 0)
(0.28063 -0.689751 -5.05816e-23)
(-0.0534103 -0.407818 -3.38627e-23)
(-0.508848 -1.27333 -1.75445e-24)
(0.354379 -0.579162 -6.99427e-24)
(0.0122618 -0.279204 3.09372e-24)
(0.0143485 -0.193113 6.26301e-24)
(-0.0359652 -0.0924953 -3.09058e-24)
(-0.179277 -0.0551116 1.88519e-24)
(-0.228997 -0.349449 0)
(-0.39736 -0.118769 1.51926e-24)
(-0.144513 -0.521334 9.56783e-32)
(0.00195556 -0.631808 1.38754e-22)
(-2.20205 -0.0419516 3.30933e-24)
(-2.04147 -1.19439 1.26201e-22)
(-2.2784 -1.06299 0)
(0.585775 -0.893731 -7.71154e-24)
(0.505753 -0.350801 -1.71258e-23)
(0.347563 -0.390758 2.77984e-23)
(0.0202112 -0.259258 -5.39022e-24)
(-0.538132 -0.283847 0)
(-0.292416 -0.322488 -6.56669e-24)
(-0.280224 -0.777031 1.23647e-22)
(-1.18435 -0.605443 3.05915e-23)
(-2.43136 -1.46145 -1.16661e-23)
(-2.02925 -1.24425 0)
(-2.1104 -1.91875 -1.01767e-24)
(-2.04969 -1.67827 0)
(0.883456 -0.971184 -1.02403e-23)
(0.666076 -0.36973 1.26537e-23)
(0.203056 -0.66129 1.86173e-23)
(-0.292158 -0.232989 -3.25055e-23)
(-0.320787 -0.586565 -6.79189e-23)
(-0.850735 -0.552732 2.91527e-31)
(-1.74535 -0.945648 0)
(-2.43084 -1.1425 -4.16117e-23)
(-2.79869 -1.60492 -2.44111e-23)
(-2.48523 -1.33417 3.16101e-23)
(-2.55655 -1.69955 1.48576e-23)
(-2.30089 -1.46407 -8.09492e-24)
(1.01241 -0.97989 -1.87649e-25)
(0.635402 -0.652107 -2.42797e-23)
(0.341234 -0.952907 -5.05616e-24)
(-0.409252 -0.821271 -1.51573e-23)
(-1.40068 -0.913748 4.25757e-23)
(-1.76941 -0.950935 -7.21636e-23)
(-2.71782 -1.45201 -2.81995e-22)
(-2.72934 -1.31998 -9.36527e-23)
(-2.54184 -1.57713 2.53069e-24)
(-2.44345 -1.34199 6.59185e-23)
(-2.1796 -1.64616 7.0886e-23)
(-2.07155 -1.39906 -4.64357e-23)
(0.956002 -1.09004 -1.07088e-23)
(0.415585 -1.00997 -7.8381e-24)
(-0.46891 -1.00238 -3.61183e-23)
(-0.955641 -1.23536 1.79658e-23)
(-1.53579 -1.1949 3.44892e-23)
(-2.54428 -1.44381 -7.51291e-23)
(-2.9903 -1.55477 0)
(-2.55069 -1.38267 -6.8833e-23)
(-2.47794 -1.54998 -3.13603e-23)
(-2.27535 -1.42299 1.33401e-22)
(-2.18664 -1.64552 1.62873e-22)
(-2.00799 -1.56448 0)
(0.937771 -1.18787 -2.23804e-24)
(0.4883 -1.13036 8.08793e-24)
(-0.264216 -1.26062 2.76869e-23)
(-1.09085 -1.37336 -7.38562e-23)
(-2.26878 -1.34955 -5.23047e-24)
(-2.76009 -1.45572 2.25631e-23)
(-2.68755 -1.59972 8.74352e-23)
(-2.45069 -1.48363 2.42045e-23)
(-2.39984 -1.59686 -1.56685e-22)
(-2.22828 -1.47371 -1.62725e-22)
(-2.12818 -1.68623 0)
(-1.99551 -1.60693 0)
(0.859353 -1.26371 0)
(0.230052 -1.12265 -2.8578e-23)
(-0.808409 -1.48599 4.08397e-23)
(-1.8541 -1.41437 -4.74981e-23)
(-2.21586 -1.59997 -1.08332e-22)
(-2.5029 -1.70025 4.90423e-24)
(-2.51716 -1.6124 -3.16014e-24)
(-2.33189 -1.45636 4.84302e-23)
(-2.32575 -1.4826 0)
(-2.04644 -1.47454 -8.30459e-23)
(-1.98784 -1.53102 -1.8427e-22)
(-1.71977 -1.59125 -1.22155e-22)
(0.58565 -1.42655 0)
(-0.232378 -1.45417 -5.5313e-23)
(-1.19346 -1.66271 0)
(-1.41003 -1.60315 7.75788e-23)
(-2.41082 -1.5512 -5.76478e-23)
(-2.77509 -1.34695 -4.2867e-23)
(-2.38114 -1.30121 7.12707e-24)
(-2.15998 -1.22257 2.07423e-23)
(-2.11105 -1.34871 0)
(-1.88629 -1.19998 -3.18161e-23)
(-1.80459 -1.33602 2.29973e-31)
(-1.47221 -1.2677 0)
(0.55636 -1.39844 -6.40086e-24)
(-0.131064 -1.48603 -2.67051e-23)
(-1.09062 -1.34972 9.5927e-24)
(-2.21135 -1.4017 -1.62038e-32)
(-2.60895 -1.38913 5.43665e-23)
(-2.23093 -1.428 -1.22515e-22)
(-1.8903 -1.40183 8.22156e-23)
(-1.99056 -1.30286 -6.02872e-23)
(-2.02445 -1.29575 0)
(-1.82599 -1.38422 -2.57791e-23)
(-1.74585 -1.58273 -5.91503e-23)
(-1.32409 -1.66546 2.13783e-23)
(0.313034 -1.60113 -1.42643e-23)
(-0.388681 -1.67166 -2.64154e-23)
(-1.22764 -1.68268 -5.96205e-23)
(-1.5372 -1.45158 -5.58868e-23)
(-2.13248 -1.3203 -8.78726e-33)
(-2.29553 -1.1098 -8.6074e-23)
(-2.15102 -1.05715 1.64933e-22)
(-2.15331 -1.00819 3.30654e-33)
(-1.97279 -1.20774 0)
(-1.8336 -1.25098 1.09618e-23)
(-1.64744 -1.43554 -2.5949e-23)
(-1.15301 -1.48755 1.40834e-31)
(-0.0791164 -1.5824 4.95297e-24)
(-0.547808 -1.53317 -1.31714e-23)
(-1.23574 -1.28475 -4.25141e-23)
(-2.24463 -1.15675 0)
(-2.5738 -1.10567 4.59288e-23)
(-2.06615 -1.15137 -1.33474e-23)
(-1.61354 -1.24609 1.66534e-22)
(-1.77519 -1.14574 1.63649e-22)
(-1.89334 -1.18221 2.79786e-23)
(-1.69444 -1.20909 1.3931e-23)
(-1.39698 -1.39013 0)
(-0.845055 -1.43484 -2.98014e-23)
(0.255162 -2.39736 2.00549e-24)
(-0.0415821 -1.6045 1.98021e-24)
(-0.831355 -1.61453 -1.74288e-23)
(-1.34537 -1.20873 4.2929e-23)
(-1.83689 -1.01658 7.52837e-23)
(-1.95106 -0.879884 1.37923e-23)
(-1.98259 -0.888034 6.68612e-23)
(-2.21583 -0.826411 1.26721e-22)
(-1.90649 -0.949386 4.09268e-23)
(-1.52717 -0.976064 3.69224e-23)
(-1.05982 -1.25017 0)
(-0.552243 -1.37932 -1.38575e-23)
(-2.53002 -1.57393 3.01541e-23)
(-2.46671 -1.35099 -4.70155e-23)
(-2.7261 -1.55825 1.05942e-23)
(-2.52621 -1.30334 -2.49262e-23)
(-2.69311 -1.31108 2.34653e-22)
(-2.31579 -1.06902 2.92029e-22)
(-2.29701 -1.02034 3.09651e-24)
(-1.796 -0.841483 -4.10805e-24)
(-1.60435 -0.910297 4.20482e-23)
(-0.934504 -0.720959 1.62127e-23)
(-0.982913 -1.00547 -1.33435e-23)
(-0.166331 -0.359367 6.4715e-25)
(-2.23732 -2.07667 0)
(-2.08116 -1.73972 6.02809e-23)
(-2.28231 -1.94939 -3.72121e-23)
(-1.99672 -1.53017 1.23754e-22)
(-2.26179 -1.65659 0)
(-1.91371 -1.27381 3.70275e-23)
(-2.06843 -1.32424 0)
(-1.68892 -0.960717 -1.30724e-22)
(-1.56321 -1.00456 -3.24816e-23)
(-1.18368 -0.827194 -1.45771e-23)
(-1.08024 -0.97416 3.07527e-23)
(-0.705667 0.527113 7.43464e-25)
(-2.4 -1.76209 0)
(-2.15383 -1.51956 0)
(-2.29169 -1.74047 7.29504e-23)
(-2.01711 -1.49757 3.43631e-23)
(-2.17187 -1.65378 -6.4827e-24)
(-1.86494 -1.53688 1.12641e-23)
(-1.81917 -1.53684 4.03215e-23)
(-1.7472 -1.56159 2.03579e-23)
(-1.465 -1.37287 0)
(-1.4862 -1.29709 -1.27072e-23)
(-1.20647 -1.38254 -1.97779e-24)
(-1.57075 -0.882341 5.96677e-25)
(-1.83944 -1.67301 0)
(-1.73271 -1.41811 0)
(-1.56097 -1.47922 3.34658e-23)
(-1.54949 -1.19995 8.87143e-24)
(-1.57214 -1.15369 -5.27055e-23)
(-1.59798 -1.26332 -1.19937e-23)
(-1.30107 -1.20745 2.15303e-23)
(-1.46313 -1.35844 -4.87715e-23)
(-1.21787 -1.55506 3.41942e-24)
(-1.28434 -1.36903 1.02405e-23)
(-0.872754 -1.33252 2.31911e-24)
(-1.11078 -1.3069 3.30403e-25)
(-1.88091 -1.71216 2.01125e-22)
(-1.69814 -1.59202 1.71601e-22)
(-1.44835 -1.4035 0)
(-1.27452 -1.20061 8.42754e-23)
(-1.46206 -1.13743 -4.48271e-23)
(-1.455 -1.51075 -2.74928e-23)
(-1.13008 -1.38616 3.30086e-23)
(-1.20458 -1.23419 -2.44069e-23)
(-1.0139 -1.50931 3.21228e-23)
(-1.20186 -1.59722 1.68081e-23)
(-1.04775 -1.50733 1.9073e-24)
(-1.2667 -1.23935 5.03901e-24)
(-1.75207 -1.7196 2.11202e-22)
(-1.55817 -1.70401 1.31925e-22)
(-1.15938 -1.80122 8.17113e-24)
(-0.921057 -0.99197 -1.13472e-22)
(-1.19595 -0.684304 -1.96997e-22)
(-1.30484 -1.58354 -8.21567e-23)
(-0.950926 -1.73195 1.55387e-24)
(-0.984582 -1.27401 2.50216e-23)
(-0.761521 -1.30687 1.76465e-23)
(-0.902733 -1.33133 2.05949e-23)
(-0.762208 -1.29339 0)
(-1.047 -1.42227 -1.08363e-31)
(-1.59957 -1.70535 9.63054e-23)
(-1.42865 -2.04 2.86193e-22)
(-0.969562 -2.26403 -1.05956e-22)
(-0.666395 -1.97844 2.55359e-23)
(-0.868124 -0.222504 -6.77382e-23)
(-0.985714 -0.567087 2.43806e-23)
(-0.479399 -1.49474 -2.8102e-23)
(-0.683783 -1.42462 -8.94907e-33)
(-0.63733 -1.37893 5.15917e-23)
(-0.806935 -1.3661 0)
(-0.941876 -1.2853 0)
(-1.21913 -1.0814 -6.88321e-24)
(-1.39221 -1.1853 -6.30607e-23)
(-1.19802 -1.22392 -8.18205e-23)
(-0.797257 -1.98193 0)
(-0.65479 -1.89157 0)
(-1.16924 -0.934422 4.37745e-23)
(-0.506015 -1.03491 1.09548e-23)
(-0.210217 -1.42314 -2.57026e-23)
(-0.345485 -1.09363 -1.9319e-23)
(-0.338715 -1.04056 4.3852e-23)
(-0.520595 -1.02183 4.35958e-24)
(-0.643931 -0.887203 1.5913e-23)
(-1.01476 -1.01902 6.57318e-24)
(-1.22289 -1.59266 3.867e-23)
(-0.893952 -1.51378 1.21326e-22)
(-0.276396 -1.89719 1.3688e-22)
(-0.215712 -1.91236 3.93487e-24)
(-0.901858 -1.08173 -2.3102e-23)
(-0.0909596 -1.01694 0)
(0.104983 -1.31996 3.85859e-24)
(-0.188535 -1.09607 4.02387e-24)
(-0.301641 -1.12693 2.36328e-24)
(-0.510709 -0.950952 3.08041e-24)
(-0.937071 -0.769426 1.38787e-23)
(-1.21126 -0.567164 5.5426e-24)
(-1.02593 -1.60465 -4.59177e-23)
(-0.549817 -1.5126 0)
(0.0116375 -1.69078 -1.53338e-24)
(-0.0751499 -1.70114 -6.67533e-23)
(-0.379479 -1.11572 7.22948e-23)
(0.343323 -1.23557 1.17851e-23)
(0.337219 -1.30549 4.6912e-23)
(-0.00497273 -0.928333 5.87436e-24)
(-0.022738 -0.826269 -2.5519e-23)
(-0.227808 -0.614247 -1.43308e-23)
(-0.525012 -0.351908 -1.3253e-23)
(-0.903668 -0.373178 -4.23426e-24)
(-0.668151 -1.57654 -9.04299e-24)
(0.017407 -1.5692 0)
(0.390458 -1.66863 -9.94042e-23)
(0.26958 -1.61591 -7.40028e-23)
(0.1617 -1.22199 4.71233e-23)
(0.56743 -1.23652 2.2927e-23)
(0.243407 -1.12442 3.31306e-23)
(-0.117054 -0.730854 5.24644e-23)
(-0.0929468 -0.853732 5.57661e-23)
(-0.40977 -0.385369 -2.29231e-23)
(-0.918402 -0.273921 1.17279e-23)
(-0.932935 0.417487 3.49792e-24)
(-0.128489 -1.42318 1.99917e-23)
(0.444771 -1.49922 0)
(0.636428 -1.5362 1.04843e-22)
(0.367065 -1.46475 1.11252e-22)
(0.384372 -1.2487 1.60659e-23)
(0.460858 -1.25925 5.134e-25)
(-0.0744622 -1.02292 0)
(-0.183912 -0.856713 4.43393e-23)
(0.0121813 -0.752711 -1.04465e-23)
(-0.627928 -0.274422 0)
(-0.470085 0.0884409 -8.4384e-24)
(-1.162 0.44966 -4.33037e-26)
(-0.665453 -0.0358387 3.59735e-24)
(-0.350398 -0.141647 8.67187e-24)
(-0.221045 -0.130844 2.16204e-23)
(-0.117009 0.0799716 5.97735e-24)
(-0.0798076 0.0340162 2.35483e-24)
(-0.141703 0.125584 -4.37569e-24)
(0.091108 0.211039 -1.10137e-22)
(-0.657702 -0.256544 -3.44891e-22)
(-0.393328 0.0420131 -2.20819e-22)
(-0.0422677 1.94353 -1.21099e-22)
(-0.952086 1.68608 2.23981e-22)
(-0.937123 2.03632 1.89409e-23)
(-0.748294 -0.515876 7.8155e-25)
(-0.369487 -0.606461 3.69723e-24)
(-0.3905 -0.303876 1.29316e-23)
(-0.376945 -0.0423293 -1.62734e-24)
(-0.431812 0.0444119 -1.18636e-24)
(-0.72054 0.103529 0)
(-0.611617 0.701994 3.28838e-23)
(-0.942143 1.7308 0)
(-1.42374 2.16503 -3.4869e-23)
(-1.27816 2.03398 -7.55286e-23)
(-1.70743 1.76206 0)
(-1.53837 1.88406 3.52042e-23)
(-0.82312 -0.823523 1.49553e-24)
(-0.569526 -0.56634 -2.15335e-24)
(-0.681064 0.0882282 4.71586e-24)
(-0.513725 0.44628 0)
(-0.743026 0.614857 -7.84151e-24)
(-0.941076 1.20661 -3.09783e-23)
(-1.13857 1.87975 -9.21488e-23)
(-1.38954 2.30505 -3.19253e-23)
(-1.52077 2.28801 1.59306e-22)
(-1.32182 2.25328 2.79803e-31)
(-1.43025 2.00049 -1.93217e-23)
(-1.30345 2.00339 -6.77962e-24)
(-0.987764 -0.925488 -3.76014e-24)
(-0.734248 -0.548035 4.98421e-24)
(-1.02605 -0.208882 -1.93293e-24)
(-0.943834 0.506451 2.32481e-23)
(-1.0815 1.21298 8.38432e-23)
(-1.2885 1.85531 9.5468e-24)
(-1.51671 2.37874 0)
(-1.50085 2.21601 -1.56598e-22)
(-1.53563 2.03342 0)
(-1.4086 1.98234 -6.83306e-23)
(-1.46553 1.65356 2.09452e-23)
(-1.33876 1.68857 -4.04601e-23)
(-1.07377 -0.76158 -8.96464e-24)
(-1.10561 -0.119311 4.4352e-24)
(-1.13438 0.77617 -7.61209e-24)
(-1.43073 1.15093 -2.07688e-23)
(-1.3339 1.69014 -1.96097e-23)
(-1.57999 2.28668 1.82144e-23)
(-1.63105 2.39936 3.08615e-22)
(-1.53606 2.00765 1.42344e-22)
(-1.46847 1.84473 0)
(-1.40603 1.77049 -1.32159e-23)
(-1.37187 1.54197 1.86861e-23)
(-1.27489 1.60696 0)
(-1.22019 -0.7096 6.1839e-25)
(-1.10997 -0.31468 8.2864e-24)
(-1.25234 0.467101 0)
(-1.26895 1.32883 -3.21828e-23)
(-1.49213 2.01743 0)
(-1.56057 2.31476 0)
(-1.57887 2.20443 -3.34752e-23)
(-1.4142 1.73741 -7.844e-23)
(-1.45123 1.78681 0)
(-1.42687 1.65696 8.3722e-24)
(-1.43386 1.45219 1.38127e-23)
(-1.35383 1.53561 -2.2066e-23)
(-1.33944 -0.554021 8.14188e-24)
(-1.13182 0.180179 -3.58846e-24)
(-1.43635 1.03637 9.08769e-24)
(-1.4696 1.60886 -2.15176e-23)
(-1.47843 2.08179 0)
(-1.47968 2.31122 1.63761e-24)
(-1.49577 1.97147 7.25698e-23)
(-1.41747 1.68569 4.2434e-23)
(-1.4583 1.88644 0)
(-1.54171 1.56213 2.20472e-23)
(-1.44532 1.51026 -1.71429e-23)
(-1.36567 1.39538 -2.32535e-23)
(-1.4632 -0.473519 5.33728e-24)
(-1.26366 0.0375826 2.01684e-23)
(-1.34112 1.21807 -6.46188e-24)
(-1.34086 1.82296 4.82818e-23)
(-1.42354 2.34929 1.6811e-24)
(-1.43878 2.22553 -3.17822e-23)
(-1.55385 1.86848 1.9792e-24)
(-1.59265 1.78236 -6.76342e-23)
(-1.76375 2.01624 -3.02398e-23)
(-1.80481 1.56091 1.98807e-25)
(-1.90482 1.55387 -7.45622e-23)