/*--------------------------------*- C++ -*----------------------------------*\
| =========                 |                                                 |
| \\      /  F ield         | OpenFOAM: The Open Source CFD Toolbox           |
|  \\    /   O peration     | Version:  v1606+                                |
|   \\  /    A nd           | Web:      www.OpenFOAM.com                      |
|    \\/     M anipulation  |                                                 |
\*---------------------------------------------------------------------------*/
FoamFile
{
    version     2.0;
    format      ascii;
    class       surfaceScalarField;
    location    "0.6";
    object      alphaPhi;
}
// * * * * * * * * * * * * * * * * * * * * * * * * * * * * * * * * * * * * * //

dimensions      [0 3 -1 0 0 0 0];

internalField   nonuniform List<scalar> 
4432
(
-4.88155e-06
4.88155e-06
-7.31775e-06
2.43619e-06
-6.64969e-06
-6.6806e-07
-4.78483e-06
-1.86486e-06
-2.71345e-06
-2.07138e-06
-7.84962e-07
-1.92849e-06
9.028e-07
-1.68777e-06
2.33905e-06
-1.43624e-06
3.55009e-06
-1.21104e-06
4.5731e-06
-1.02302e-06
5.44029e-06
-8.67189e-07
6.15912e-06
-7.18819e-07
6.70147e-06
-5.42362e-07
7.00881e-06
-3.07335e-07
6.96649e-06
4.2318e-08
6.38939e-06
5.77102e-07
5.05957e-06
1.32982e-06
2.72547e-06
2.33411e-06
-6.8921e-07
3.41468e-06
-5.16391e-06
4.69851e-06
-9.37757e-06
4.2072e-06
-9.52265e-06
9.5099e-08
-9.8728e-06
-3.87139e-06
8.75294e-06
-4.29169e-06
2.85649e-06
-3.22206e-06
-1.73769e-06
-1.60017e-06
-3.48674e-06
1.09999e-07
-3.78156e-06
1.69811e-06
-3.5166e-06
3.0813e-06
-3.07096e-06
4.24661e-06
-2.60156e-06
5.20932e-06
-2.17376e-06
5.99675e-06
-1.81044e-06
6.63365e-06
-1.5041e-06
7.12501e-06
-1.21017e-06
7.44774e-06
-8.65098e-07
7.56356e-06
-4.23154e-07
7.42904e-06
1.76839e-07
6.98069e-06
1.02546e-06
6.07828e-06
2.23224e-06
4.53094e-06
3.88145e-06
2.13678e-06
5.80884e-06
-7.83871e-07
7.64993e-06
-3.50753e-06
7.24227e-06
-4.81318e-06
1.30525e-06
-1.47148e-05
-2.12571e-06
1.08787e-05
-1.73048e-06
2.46125e-06
-6.24907e-07
-2.84326e-06
7.55691e-07
-4.86734e-06
2.15426e-06
-5.18013e-06
3.42841e-06
-4.79075e-06
4.52804e-06
-4.17059e-06
5.44362e-06
-3.51714e-06
6.18477e-06
-2.9149e-06
6.77131e-06
-2.39698e-06
7.22297e-06
-1.95576e-06
7.54309e-06
-1.53029e-06
7.71093e-06
-1.03294e-06
7.69872e-06
-4.1094e-07
7.48834e-06
3.87218e-07
7.05825e-06
1.45554e-06
6.36543e-06
2.92505e-06
5.34425e-06
4.90263e-06
3.9469e-06
7.20619e-06
2.34981e-06
9.24702e-06
5.81382e-07
9.02809e-06
-3.47023e-07
2.20211e-06
-1.50907e-05
-3.82367e-07
1.1261e-05
5.49365e-07
1.52952e-06
1.66527e-06
-3.95917e-06
2.8317e-06
-6.03376e-06
3.91985e-06
-6.26829e-06
4.88181e-06
-5.75271e-06
5.70238e-06
-4.99117e-06
6.37591e-06
-4.19067e-06
6.90529e-06
-3.44428e-06
7.30322e-06
-2.7949e-06
7.58618e-06
-2.23873e-06
7.75725e-06
-1.70136e-06
7.79637e-06
-1.07206e-06
7.68532e-06
-2.99889e-07
7.42394e-06
6.48598e-07
7.02348e-06
1.856e-06
6.49576e-06
3.45278e-06
5.84413e-06
5.55426e-06
5.09911e-06
7.95121e-06
4.38759e-06
9.95855e-06
3.58719e-06
9.82849e-06
2.2343e-06
3.58037e-06
-1.28611e-05
1.45822e-06
9.8028e-06
2.67352e-06
3.1423e-07
3.79574e-06
-5.0814e-06
4.71378e-06
-6.9518e-06
5.47662e-06
-7.03112e-06
6.12638e-06
-6.40247e-06
6.67525e-06
-5.54004e-06
7.11578e-06
-4.6312e-06
7.44164e-06
-3.77014e-06
7.65852e-06
-3.01178e-06
7.7818e-06
-2.362e-06
7.81622e-06
-1.73578e-06
7.74123e-06
-9.97061e-07
7.54637e-06
-1.05034e-07
7.24736e-06
9.47613e-07
6.88173e-06
2.22163e-06
6.49646e-06
3.83805e-06
6.12685e-06
5.92387e-06
5.83305e-06
8.24501e-06
5.68855e-06
1.0103e-05
5.43728e-06
1.00798e-05
4.10873e-06
4.90892e-06
-8.7576e-06
2.94742e-06
6.85538e-06
4.68654e-06
-1.42489e-06
5.74898e-06
-6.14384e-06
6.37133e-06
-7.57415e-06
6.79502e-06
-7.45484e-06
7.14303e-06
-6.75048e-06
7.43809e-06
-5.8351e-06
7.66223e-06
-4.85533e-06
7.79718e-06
-3.9051e-06
7.842e-06
-3.05661e-06
7.8136e-06
-2.3336e-06
7.72119e-06
-1.64337e-06
7.54235e-06
-8.18222e-07
7.2733e-06
1.64019e-07
6.94367e-06
1.27724e-06
6.61273e-06
2.55257e-06
6.35169e-06
4.09909e-06
6.20455e-06
6.07101e-06
6.23615e-06
8.21341e-06
6.48846e-06
9.85073e-06
6.64925e-06
9.91898e-06
5.4271e-06
6.13107e-06
-3.33615e-06
4.10886e-06
2.74651e-06
6.48097e-06
-3.797e-06
7.43772e-06
-7.10061e-06
7.71947e-06
-7.85594e-06
7.81276e-06
-7.54872e-06
7.89144e-06
-6.82928e-06
7.96597e-06
-5.90967e-06
8.00025e-06
-4.88961e-06
7.96297e-06
-3.86782e-06
7.84779e-06
-2.94143e-06
7.67683e-06
-2.16264e-06
7.46783e-06
-1.43437e-06
7.19417e-06
-5.44563e-07
6.85852e-06
4.99673e-07
6.5026e-06
1.63316e-06
6.2043e-06
2.85087e-06
6.05225e-06
4.25114e-06
6.08363e-06
6.03963e-06
6.35698e-06
7.94006e-06
6.90604e-06
9.30167e-06
7.43299e-06
9.39202e-06
6.4654e-06
7.09865e-06
3.12569e-06
5.20454e-06
-2.32658e-06
7.94964e-06
-6.20812e-06
8.65786e-06
-7.44501e-06
8.60859e-06
-7.60436e-06
8.43382e-06
-7.3756e-06
8.31374e-06
-6.71064e-06
8.22792e-06
-5.82468e-06
8.11762e-06
-4.77977e-06
7.9397e-06
-3.69011e-06
7.68375e-06
-2.68557e-06
7.38218e-06
-1.8611e-06
7.07082e-06
-1.12301e-06
6.7111e-06
-1.84837e-07
6.31606e-06
8.94712e-07
5.93804e-06
2.01119e-06
5.67091e-06
3.11799e-06
5.61563e-06
4.30642e-06
5.79072e-06
5.86454e-06
6.24445e-06
7.48632e-06
7.02348e-06
8.52265e-06
7.89382e-06
8.52167e-06
7.61707e-06
7.3754e-06
1.07392e-05
2.59025e-14
2.41955e-14
2.61046e-14
-6.21652e-15
9.03942e-15
1.58776e-14
-2.14058e-09
2.02321e-09
-5.78042e-08
5.34079e-08
-3.50664e-07
4.88526e-07
-1.86181e-06
1.43517e-06
-1.35838e-05
9.969e-07
-9.43539e-05
5.60865e-08
-0.000146957
-1.2089e-06
-0.000166977
-2.28019e-06
-0.000178529
-3.9206e-06
-0.000184971
-9.4028e-06
-0.000176053
-1.63862e-05
-0.000157068
-2.52642e-05
-0.000116623
-4.38519e-05
-6.04654e-05
-5.29485e-05
-1.62115e-05
-4.53512e-05
-1.83255e-05
9.24397e-14
7.31219e-13
1.41989e-12
-1.29759e-12
-3.07235e-10
3.08671e-10
-3.13109e-08
3.17563e-08
-5.12802e-07
4.96036e-07
-6.67621e-06
1.86243e-06
-1.04955e-05
2.22539e-06
-8.52863e-06
3.85108e-07
-7.26393e-06
-1.95187e-07
-7.82295e-06
-1.68208e-07
-1.17613e-05
-4.81973e-07
-2.64207e-05
-1.28545e-06
-7.89217e-05
-4.30196e-06
-0.000133469
-1.39224e-05
-0.000132215
-4.35114e-05
-9.94334e-05
-7.8733e-05
-6.20932e-05
-9.02885e-05
-2.76277e-05
-7.98164e-05
-4.62064e-05
7.9878e-13
2.51148e-11
2.14378e-11
-1.11426e-11
-6.46218e-10
1.13402e-09
-3.75826e-08
6.47903e-08
-2.5861e-06
1.60292e-06
-3.49255e-06
2.23018e-06
-1.62592e-06
-1.05246e-08
-2.25948e-07
3.76971e-08
-4.42557e-08
-2.83559e-09
-1.95192e-07
-8.5538e-09
-6.09012e-07
-4.34461e-08
-1.63271e-06
-1.74612e-07
-3.92498e-06
-6.80404e-07
-4.52306e-05
-4.70114e-06
-9.68995e-05
-5.00807e-05
-7.80827e-05
-0.000106901
-5.19885e-05
-0.000116391
-2.6895e-05
-0.000104909
-7.31001e-05
2.91454e-11
4.51316e-10
9.27083e-11
3.5485e-11
-7.94776e-10
3.32028e-09
-4.32862e-08
8.20592e-08
-1.42389e-06
6.36336e-07
-5.83343e-07
3.17875e-07
-4.25092e-08
3.89947e-08
-2.65904e-09
1.6245e-09
-4.72731e-09
-2.95579e-10
-6.66976e-09
-1.57969e-09
-1.6598e-08
-7.48104e-09
-4.04874e-08
-3.53232e-08
-2.4933e-07
-2.07368e-07
-7.74805e-06
-7.76763e-07
-7.09714e-05
-4.94354e-05
-5.58994e-05
-0.000127799
-3.88881e-05
-0.000133402
-2.13919e-05
-0.000122405
-9.44925e-05
3.8439e-09
2.73606e-09
3.21007e-09
8.57279e-10
-2.58508e-11
6.55915e-09
-1.61679e-07
1.21371e-07
-3.06564e-07
4.17662e-08
-5.18675e-08
-4.70634e-08
-4.16894e-09
1.27415e-09
-6.97631e-10
1.26517e-10
-4.86054e-10
-2.03571e-10
-8.07335e-10
-4.63788e-10
-2.3319e-09
-1.70432e-09
-1.05352e-08
-1.11157e-08
-5.5561e-08
-7.86046e-08
-8.41311e-07
-1.98705e-07
-4.86099e-05
-2.82986e-05
-3.6319e-05
-0.000140095
-2.63331e-05
-0.000143387
-1.51901e-05
-0.000133556
-0.000109679
5.68898e-08
-5.78767e-08
1.00003e-07
-6.7365e-07
-4.92554e-10
5.25635e-08
-1.06027e-08
1.7713e-08
-2.46491e-08
2.24683e-08
-7.93709e-09
-2.46727e-08
-6.3755e-10
4.52079e-10
-3.26469e-10
8.38213e-11
-1.84635e-10
-1.7838e-10
-1.4608e-10
-2.88329e-10
-8.87181e-10
-3.18935e-10
-4.14642e-09
-3.36564e-09
-1.97384e-08
-3.6564e-08
6.58878e-08
-2.93181e-07
-2.31604e-05
-1.84666e-05
-2.08349e-05
-0.000146848
-1.57563e-05
-0.000148468
-9.53213e-06
-0.000139619
-0.000118629
1.27573e-06
-1.679e-05
3.13959e-08
-3.13757e-06
-1.73876e-09
1.2041e-07
3.0004e-09
6.75499e-09
3.58627e-09
2.63449e-09
-2.97984e-10
1.24137e-09
-1.88348e-10
2.74768e-09
-1.44636e-10
1.8571e-10
-1.07398e-10
-9.1199e-11
-1.97918e-11
-2.2291e-10
-2.46111e-10
-4.63186e-11
-2.50682e-09
-4.29032e-10
-2.64806e-08
-7.4201e-09
-2.58337e-07
-9.01877e-08
-8.91079e-06
-4.53885e-05
-8.82517e-06
-0.000151457
-7.37515e-06
-0.000149927
-4.60222e-06
-0.000142169
-0.000108406
3.88718e-06
-4.67331e-05
-7.69723e-08
-2.20009e-06
-5.49888e-09
4.9364e-08
2.00557e-09
1.84413e-09
5.3326e-09
9.8776e-10
8.69461e-10
-5.02995e-10
-8.614e-11
3.8979e-09
-8.0371e-12
2.74438e-10
-5.67437e-12
-2.13067e-11
-5.75726e-12
-1.00869e-10
-1.24656e-11
-1.42495e-11
-4.15337e-10
-1.88613e-11
-7.14714e-09
-1.15731e-09
-3.46435e-07
4.3533e-08
1.69805e-06
-7.37607e-05
2.00116e-07
-0.000151564
-9.80725e-07
-0.000148756
-7.61652e-07
-0.0001423
-0.000109247
8.05411e-06
8.31687e-15
1.08254e-05
3.20772e-15
1.16092e-05
1.13984e-15
1.20495e-05
3.21212e-16
1.26203e-05
-1.44258e-06
1.33063e-05
-1.64127e-06
1.40625e-05
-1.75439e-06
1.46511e-05
-1.72033e-06
1.49097e-05
-1.49618e-06
1.47355e-05
-1.09076e-06
1.41808e-05
-6.2753e-07
1.33764e-05
-1.59578e-07
1.242e-05
7.71514e-07
1.14073e-05
1.90744e-06
1.05527e-05
2.8658e-06
1.0084e-05
3.5867e-06
1.02723e-05
4.11814e-06
1.10269e-05
5.10992e-06
1.24128e-05
6.10038e-06
1.46577e-05
6.27778e-06
1.75113e-05
5.66806e-06
2.0731e-05
4.15571e-06
3.10527e-06
2.83601e-05
-7.95903e-15
3.66273e-14
-5.43484e-15
1.80166e-14
-2.69124e-15
1.21534e-14
-8.212e-16
7.8945e-15
1.52024e-07
1.41519e-14
5.63193e-07
5.03933e-14
1.0873e-06
9.50278e-14
1.83013e-06
1.10843e-13
2.84717e-06
8.0136e-14
4.18403e-06
2.74547e-14
5.81014e-06
5.66881e-10
7.36086e-06
6.31448e-08
8.216e-06
4.65249e-07
8.40051e-06
1.331e-06
7.9515e-06
2.5578e-06
7.8737e-06
3.66449e-06
8.60192e-06
3.38993e-06
9.70599e-06
4.00584e-06
1.12489e-05
4.55751e-06
1.37242e-05
3.80248e-06
1.67112e-05
2.68102e-06
1.98231e-05
1.04384e-06
-1.131e-06
2.40593e-05
-3.73219e-15
3.49312e-14
-1.10015e-14
2.54406e-14
-1.8529e-14
2.46002e-14
-2.42361e-14
1.86187e-14
-4.48993e-14
3.09038e-14
-1.36012e-13
8.90572e-14
-2.84357e-13
1.56569e-13
-4.12601e-13
1.82374e-13
-4.52142e-13
1.34266e-13
-3.73174e-13
1.67535e-14
4.83624e-10
5.90276e-11
1.20651e-08
3.33287e-11
2.93417e-07
7.15165e-10
1.01222e-06
1.1899e-09
2.35639e-06
1.80011e-09
4.85515e-06
1.52835e-07
7.7823e-06
8.53864e-07
9.51647e-06
2.27167e-06
1.11602e-05
2.91378e-06
1.3989e-05
9.73679e-07
1.69643e-05
-2.94331e-07
2.00746e-05
-2.06639e-06
-4.40344e-06
2.33468e-05
7.35656e-15
1.90828e-14
5.51479e-16
2.18274e-14
-1.2435e-14
2.8427e-14
-2.81539e-14
2.65865e-14
-7.42426e-14
4.13364e-14
-2.85783e-13
1.04451e-13
-6.8765e-13
1.66412e-13
-1.15498e-12
1.75306e-13
-1.49258e-12
9.79186e-14
-1.53453e-12
-9.1307e-14
-5.76182e-13
-1.58978e-13
2.38157e-11
8.93675e-12
7.12937e-10
6.17832e-12
1.88273e-09
7.62246e-12
3.66695e-09
1.70603e-11
7.81424e-08
1.24358e-10
7.90785e-07
2.40199e-11
3.44555e-06
1.14938e-09
9.1311e-06
-1.40345e-08
1.58121e-05
-7.003e-07
1.85679e-05
-1.46001e-06
2.11175e-05
-3.78022e-06
-7.20392e-06
2.39184e-05
2.08831e-15
8.61154e-15
1.09244e-15
1.09537e-14
-5.57204e-15
1.78937e-14
-1.66085e-14
1.95939e-14
-4.98386e-14
2.56993e-14
-2.0618e-13
5.05726e-14
-5.21265e-13
7.52358e-14
-9.29466e-13
7.95274e-14
-1.30825e-12
5.04844e-14
-1.55767e-12
-4.50755e-14
-1.61002e-12
-3.14016e-13
-8.39369e-13
-2.86461e-13
6.49131e-12
7.86917e-13
1.75015e-11
7.95654e-14
3.45816e-11
6.96129e-14
1.57215e-10
9.89321e-13
1.88948e-10
-3.61874e-13
1.33928e-09
-7.4062e-13
1.10727e-07
-1.33871e-14
1.54434e-06
-2.3166e-16
6.12947e-06
-8.25197e-20
1.52205e-05
1.24752e-15
-2.4027e-06
2.44203e-05
4.6372e-16
3.34641e-15
-3.45516e-19
4.19582e-15
-2.166e-15
7.5803e-15
-6.74192e-15
9.30858e-15
-1.73795e-14
9.97531e-15
-5.85541e-14
9.75407e-15
-1.43527e-13
8.72987e-15
-2.64059e-13
6.95245e-15
-3.97375e-13
4.42634e-15
-5.19927e-13
1.18145e-15
-6.31908e-13
-6.2993e-14
-7.34114e-13
-1.48346e-13
4.74259e-14
8.62561e-15
9.33926e-14
3.56506e-14
2.12769e-13
1.42599e-14
1.09419e-12
3.15738e-15
7.46691e-13
-3.0048e-15
1.33318e-14
-8.70703e-17
2.24734e-16
-5.39643e-17
3.62745e-18
-6.57951e-18
1.39541e-21
3.54354e-18
-3.95777e-15
5.88037e-14
4.90428e-14
7.87349e-07
8.42471e-17
1.09637e-15
-4.02881e-17
1.30125e-15
-6.56594e-16
2.40001e-15
-2.05449e-15
3.23012e-15
-4.2374e-15
3.74533e-15
-7.09155e-15
3.92032e-15
-1.04334e-14
3.76092e-15
-1.40758e-14
3.28001e-15
-1.78921e-14
2.48876e-15
-2.18353e-14
1.41191e-15
-2.90966e-14
1.29315e-16
-4.90504e-14
-4.86769e-15
-4.12995e-14
-6.61631e-15
-1.18668e-14
-2.19121e-15
2.15022e-15
2.32076e-16
4.26384e-15
1.1349e-15
1.57725e-15
3.2924e-16
4.86315e-15
1.13089e-16
6.3348e-16
3.2358e-16
4.86822e-17
3.50473e-16
-1.38424e-17
2.10439e-16
-1.71945e-13
7.54534e-17
1.90208e-16
-1.1859e-13
8.18527e-18
3.04894e-16
-1.65151e-17
3.30633e-16
-1.47418e-16
6.04285e-16
-4.75437e-16
8.82996e-16
-1.04816e-15
1.09319e-15
-1.87339e-15
1.20451e-15
-2.93471e-15
1.21274e-15
-4.20948e-15
1.12332e-15
-5.68369e-15
9.44547e-16
-7.35468e-15
6.89373e-16
-9.21089e-15
3.82926e-16
-1.13875e-14
7.00351e-17
-1.36297e-14
-7.36193e-16
-1.48221e-14
-1.3801e-15
-1.45262e-14
-1.53379e-15
-1.22489e-14
-1.15852e-15
-1.08336e-14
-6.53332e-16
-1.1662e-14
-1.34495e-16
-7.43588e-15
1.10696e-16
-3.23148e-15
1.82153e-16
-1.0928e-15
1.5611e-16
-3.17744e-16
6.63258e-17
7.1225e-18
-8.95573e-16
2.18421e-18
7.40218e-17
-1.47635e-18
7.27344e-17
-2.14603e-17
1.29265e-16
-8.11472e-17
2.06565e-16
-1.97861e-16
2.71587e-16
-3.79508e-16
3.09195e-16
-6.27503e-16
3.17726e-16
-9.40744e-16
3.00622e-16
-1.31776e-15
2.62512e-16
-1.7556e-15
2.08683e-16
-2.24493e-15
1.46594e-16
-2.76e-15
8.60106e-17
-3.2761e-15
3.66997e-17
-3.77175e-15
4.19256e-18
-4.1421e-15
-8.63455e-17
-4.24966e-15
-1.06917e-16
-4.04315e-15
-3.90646e-17
-3.56245e-15
-9.81807e-19
-2.91239e-15
-1.95544e-17
-2.03808e-15
-6.12492e-17
-1.11287e-15
-1.17988e-16
-4.23226e-16
-1.51032e-16
-1.33198e-16
-5.77459e-17
9.1912e-19
1.74901e-17
1.31285e-18
1.58671e-17
-1.09091e-18
2.73684e-17
-9.29281e-18
4.72897e-17
-2.85901e-17
6.54054e-17
-6.10728e-17
7.47094e-17
-1.06761e-16
7.50056e-17
-1.64577e-16
6.82647e-17
-2.32512e-16
5.67486e-17
-3.06721e-16
4.2246e-17
-3.80758e-16
2.69942e-17
-4.45159e-16
1.35661e-17
-4.87863e-16
3.59582e-18
-4.9676e-16
-2.54687e-18
-4.6258e-16
-5.67085e-18
-3.69663e-16
-8.02006e-18
-2.00494e-16
-1.29918e-17
5.03656e-17
-2.42909e-17
3.68495e-16
-4.38843e-17
7.03101e-16
-7.08882e-17
1.0273e-15
-1.01326e-16
1.28153e-15
-1.27887e-16
-1.37845e-16
1.49811e-15
3.29491e-19
4.55167e-18
7.36767e-19
4.0205e-18
9.22246e-19
6.82244e-18
-1.76228e-19
1.22904e-17
-2.84959e-18
1.67683e-17
-7.97962e-18
1.8294e-17
-1.51808e-17
1.6881e-17
-2.35813e-17
1.32727e-17
-3.1915e-17
8.55374e-18
-3.80647e-17
3.24741e-18
-3.91295e-17
-1.89549e-18
-3.21795e-17
-6.03117e-18
-1.4263e-17
-8.9156e-18
1.71538e-17
-1.07953e-17
6.32725e-17
-1.20201e-17
1.2787e-16
-1.31311e-17
2.20771e-16
-1.48978e-17
3.50528e-16
-1.81113e-17
5.11071e-16
-2.31283e-17
6.87818e-16
-2.92829e-17
8.89806e-16
-3.42901e-17
1.18685e-15
-3.47152e-17
-2.82743e-17
1.71554e-15
1.16149e-19
1.25874e-18
2.92643e-19
1.13596e-18
5.55159e-19
1.92156e-18
5.81368e-19
3.35699e-18
1.56009e-19
4.30351e-18
-6.27233e-19
4.23809e-18
-1.68314e-18
3.27968e-18
-2.61917e-18
1.60903e-18
-2.91817e-18
-3.34287e-19
-1.796e-18
-2.37834e-18
1.64238e-18
-4.21457e-18
8.0186e-18
-5.63383e-18
1.78604e-17
-6.58883e-18
3.17992e-17
-7.23255e-18
4.99544e-17
-7.79446e-18
7.17749e-17
-8.48164e-18
9.71336e-17
-9.4433e-18
1.27997e-16
-1.07291e-17
1.66807e-16
-1.22872e-17
2.1199e-16
-1.39133e-17
2.57424e-16
-1.51504e-17
2.9708e-16
-1.51947e-17
-1.29751e-17
3.28349e-16
4.07141e-20
3.23616e-19
1.08741e-19
2.99739e-19
2.2444e-19
5.01811e-19
2.86669e-19
8.21408e-19
2.29594e-19
9.57855e-19
8.70258e-20
7.92654e-19
-6.22654e-20
3.66259e-19
-1.36867e-19
-2.69203e-19
6.07356e-20
-9.8458e-19
7.60913e-19
-1.73872e-18
2.16936e-18
-2.40874e-18
4.42005e-18
-2.96675e-18
7.57037e-18
-3.41614e-18
1.17338e-17
-3.81133e-18
1.71612e-17
-4.22714e-18
2.41797e-17
-4.72393e-18
3.30496e-17
-5.34362e-18
4.38178e-17
-6.11075e-18
5.64902e-17
-7.01487e-18
7.11659e-17
-7.97244e-18
8.82037e-17
-8.73219e-18
1.08279e-16
-8.75521e-18
-7.1699e-18
1.32354e-16
1.2326e-20
7.12715e-20
3.37883e-20
6.66547e-20
6.91001e-20
1.08781e-19
8.82011e-20
1.64235e-19
7.15616e-20
1.66796e-19
2.81273e-20
9.12782e-20
-1.31062e-20
-5.81831e-20
-1.75224e-21
-2.76508e-19
6.18775e-20
-5.25266e-19
2.68685e-19
-7.88702e-19
6.76619e-19
-1.07343e-18
1.33627e-18
-1.33273e-18
2.29312e-18
-1.55708e-18
3.61768e-18
-1.77589e-18
5.42901e-18
-2.02427e-18
7.88069e-18
-2.33351e-18
1.11436e-17
-2.73964e-18
1.54185e-17
-3.2883e-18
2.09698e-17
-4.02108e-18
2.81711e-17
-4.93014e-18
3.7479e-17
-5.80502e-18
4.93127e-17
-6.06726e-18
-4.6914e-18
6.43551e-17
2.97354e-21
1.28818e-20
8.15519e-21
1.19429e-20
1.59267e-20
1.86731e-20
1.85999e-20
2.52163e-20
1.07805e-20
1.93082e-20
-6.72031e-21
-4.96019e-21
-2.81434e-20
-5.00525e-20
-3.90381e-20
-1.18019e-19
-2.34532e-20
-2.02596e-19
2.60177e-20
-3.03819e-19
1.2468e-19
-4.11817e-19
3.01802e-19
-5.17381e-19
5.72933e-19
-6.23893e-19
9.6545e-19
-7.37017e-19
1.52753e-18
-8.77472e-19
2.33278e-18
-1.07196e-18
3.49803e-18
-1.37013e-18
5.22067e-18
-1.85054e-18
7.82693e-18
-2.61193e-18
1.18192e-17
-3.7102e-18
1.77576e-17
-4.88944e-18
2.60919e-17
-5.38331e-18
-3.73919e-18
3.79478e-17
5.54221e-22
1.7854e-21
1.48786e-21
1.60678e-21
2.66625e-21
2.33134e-21
2.42355e-21
2.52999e-21
-6.88378e-22
1.88855e-22
-7.24107e-21
-6.29976e-21
-1.67459e-20
-1.855e-20
-2.60823e-20
-3.81003e-20
-3.13265e-20
-6.52152e-20
-2.57528e-20
-9.92829e-20
-2.23277e-21
-1.3781e-19
3.53203e-20
-1.78553e-19
1.00381e-19
-2.22603e-19
2.03144e-19
-2.76768e-19
3.62897e-19
-3.53277e-19
6.1676e-19
-4.7559e-19
1.04439e-18
-7.02028e-19
1.81147e-18
-1.13669e-18
3.23646e-18
-1.94006e-18
5.86034e-18
-3.24735e-18
1.02717e-17
-4.74228e-18
1.69966e-17
-5.44582e-18
-3.21362e-18
2.78939e-17
7.50969e-23
1.67762e-22
1.90817e-22
1.4104e-22
2.80679e-22
1.67374e-22
2.54675e-23
3.79661e-23
-9.66405e-22
-5.77846e-22
-3.07874e-21
-2.11913e-21
-6.53945e-21
-5.16564e-21
-1.10384e-20
-1.03327e-20
-1.56362e-20
-1.8057e-20
-1.85793e-20
-2.84447e-20
-1.77917e-20
-4.11665e-20
-1.12158e-20
-5.60194e-20
2.97632e-21
-7.38192e-20
2.45342e-20
-9.75356e-20
6.34895e-20
-1.3513e-19
1.36697e-19
-2.10604e-19
2.90231e-19
-3.80429e-19
6.3868e-19
-7.63742e-19
1.44243e-18
-1.58466e-18
3.20043e-18
-3.07593e-18
6.47585e-18
-4.89552e-18
1.19066e-17
-5.87477e-18
-2.8948e-18
2.2077e-17
6.47582e-24
7.86567e-24
1.37216e-23
4.92834e-24
4.29977e-24
-2.54026e-24
-8.11003e-23
-4.29149e-23
-3.45553e-22
-1.75868e-22
-9.34357e-22
-5.07797e-22
-1.99538e-21
-1.19838e-21
-3.5928e-21
-2.44349e-21
-5.61977e-21
-4.43534e-21
-7.73824e-21
-7.31379e-21
-9.4809e-21
-1.11478e-20
-1.03693e-20
-1.6076e-20
-9.83387e-21
-2.26845e-20
-6.69248e-21
-3.3007e-20
1.78488e-21
-5.33049e-20
1.77063e-20
-1.01443e-19
6.38099e-20
-2.25072e-19
2.03965e-19
-5.50912e-19
6.16631e-19
-1.35816e-18
1.6976e-18
-2.97853e-18
3.95552e-18
-5.13596e-18
8.10085e-18
-6.50627e-18
-2.89103e-18
1.70156e-17
2.1824e-25
-3.9241e-26
-2.04837e-25
-3.55779e-25
-4.86592e-24
-2.27215e-24
-2.51275e-23
-1.0191e-23
-8.57263e-23
-3.52486e-23
-2.28575e-22
-9.98789e-23
-5.08436e-22
-2.41497e-22
-9.76986e-22
-5.12944e-22
-1.65833e-21
-9.77417e-22
-2.52951e-21
-1.69877e-21
-3.54052e-21
-2.7409e-21
-4.67858e-21
-4.22165e-21
-6.09047e-21
-6.53574e-21
-8.24585e-21
-1.11057e-20
-1.1802e-20
-2.27217e-20
-1.54765e-20
-5.64684e-20
-5.72108e-21
-1.57018e-19
3.01425e-20
-4.45799e-19
1.80663e-19
-1.20204e-18
7.01852e-19
-2.85179e-18
2.01684e-18
-5.34878e-18
4.79125e-18
-7.23395e-18
-3.45456e-18
1.15497e-17
-1.50091e-26
-5.8199e-27
-1.78066e-25
-5.28622e-26
-1.14185e-24
-3.48036e-25
-5.0503e-24
-1.61194e-24
-1.71462e-23
-5.77996e-24
-4.75139e-23
-1.70719e-23
-1.11844e-22
-4.32454e-23
-2.29818e-22
-9.65604e-23
-4.2065e-22
-1.93727e-22
-6.99433e-22
-3.55135e-22
-1.08724e-21
-6.08477e-22
-1.66315e-21
-1.01936e-21
-2.73014e-21
-1.83002e-21
-5.26084e-21
-3.98888e-21
-1.19434e-20
-1.10384e-20
-2.91447e-20
-3.55129e-20
-6.84123e-20
-1.18886e-19
-1.36882e-19
-3.83938e-19
-1.81141e-19
-1.12745e-18
1.77654e-20
-2.8203e-18
4.8368e-19
-5.53663e-18
1.85402e-18
-7.98964e-18
-4.71194e-18
5.78438e-18
-2.11118e-27
-6.64655e-28
-2.63403e-26
-6.26566e-27
-1.7711e-25
-4.37358e-26
-8.22585e-25
-2.14389e-25
-2.94516e-24
-8.13144e-25
-8.64823e-24
-2.53908e-24
-2.16588e-23
-6.79153e-24
-4.74934e-23
-1.59848e-23
-9.31488e-23
-3.37768e-23
-1.67652e-22
-6.54683e-23
-2.90265e-22
-1.2095e-22
-5.30556e-22
-2.32212e-22
-1.16093e-21
-5.37257e-22
-3.18128e-21
-1.64507e-21
-9.99829e-21
-6.13356e-21
-3.22538e-20
-2.42899e-20
-9.90025e-20
-9.37434e-20
-2.72661e-19
-3.3443e-19
-6.3273e-19
-1.05277e-18
-1.15083e-18
-2.77722e-18
-1.60775e-18
-5.79672e-18
-1.63321e-18
-9.01388e-18
-6.49032e-18
3.71644e-19
-2.36688e-28
-5.33791e-29
-3.19194e-27
-5.48098e-28
-2.30276e-26
-4.19489e-27
-1.14366e-25
-2.23516e-26
-4.37028e-25
-9.15175e-26
-1.36742e-24
-3.06689e-25
-3.64371e-24
-8.76125e-25
-8.50135e-24
-2.19489e-24
-1.7835e-23
-4.94009e-24
-3.50832e-23
-1.03433e-23
-7.07351e-23
-2.1769e-23
-1.69841e-22
-5.39944e-23
-5.34161e-22
-1.82946e-22
-2.02716e-21
-7.95132e-22
-8.10741e-21
-3.75705e-21
-3.14001e-20
-1.74024e-20
-1.11988e-19
-7.49899e-20
-3.52853e-19
-2.89697e-19
-9.43268e-19
-9.68004e-19
-2.07727e-18
-2.69111e-18
-3.878e-18
-5.97024e-18
-6.75955e-18
-9.97902e-18
-8.55549e-18
-5.91845e-18
-1.96466e-29
-2.43303e-30
-2.95927e-28
-3.00051e-29
-2.34795e-27
-2.66238e-28
-1.26995e-26
-1.61082e-27
-5.24714e-26
-7.38458e-27
-1.76586e-25
-2.74114e-26
-5.04491e-25
-8.60245e-26
-1.26367e-24
-2.35742e-25
-2.88924e-24
-5.846e-25
-6.54065e-24
-1.40834e-24
-1.72369e-23
-3.87078e-24
-6.1429e-23
-1.47581e-23
-2.78472e-22
-7.58213e-23
-1.36286e-21
-4.33344e-22
-6.50196e-21
-2.43417e-21
-2.87466e-20
-1.27202e-20
-1.13821e-19
-5.99025e-20
-3.91562e-19
-2.47458e-19
-1.13916e-18
-8.72792e-19
-2.76436e-18
-2.55327e-18
-5.72857e-18
-5.99669e-18
-1.05542e-17
-1.06836e-17
-1.06047e-17
-1.14659e-17
-1.02568e-30
-7.0247e-32
-1.82397e-29
-1.11742e-30
-1.65948e-28
-1.18812e-29
-1.01171e-27
-8.35817e-29
-4.65571e-27
-4.37803e-28
-1.73029e-26
-1.8351e-27
-5.43735e-26
-6.45987e-27
-1.50989e-25
-1.99362e-26
-4.00006e-25
-5.7865e-26
-1.19206e-24
-1.85732e-25
-4.87316e-24
-8.30413e-25
-2.66043e-23
-5.18554e-24
-1.60399e-22
-3.65629e-23
-9.4481e-22
-2.52698e-22
-5.15316e-21
-1.61699e-21
-2.52492e-20
-9.31296e-21
-1.0847e-19
-4.72668e-20
-3.99752e-19
-2.07254e-19
-1.24155e-18
-7.69289e-19
-3.22686e-18
-2.36395e-18
-7.10858e-18
-5.84896e-18
-1.32866e-17
-1.10208e-17
-1.24126e-17
-1.67196e-17
-3.65835e-32
-1.5038e-33
-7.94766e-31
-3.03022e-32
-8.47762e-30
-3.82939e-31
-5.93339e-29
-3.13628e-30
-3.09449e-28
-1.89349e-29
-1.29469e-27
-9.1048e-29
-4.60065e-27
-3.69628e-28
-1.50258e-26
-1.37045e-27
-5.33415e-26
-5.51213e-27
-2.60314e-25
-3.10259e-26
-1.75613e-24
-2.46733e-25
-1.32685e-23
-2.20337e-24
-9.76215e-23
-1.90698e-23
-6.61409e-22
-1.51397e-22
-4.01582e-21
-1.07587e-21
-2.14205e-20
-6.72964e-21
-9.86344e-20
-3.65068e-20
-3.86026e-19
-1.69248e-19
-1.26877e-18
-6.60138e-19
-3.48512e-18
-2.12702e-18
-8.02638e-18
-5.51804e-18
-1.52887e-17
-1.09302e-17
-1.37502e-17
-2.20514e-17
-9.52426e-34
-1.97213e-35
-2.51349e-32
-5.30036e-34
-3.14402e-31
-8.19745e-33
-2.54395e-30
-8.02086e-32
-1.5251e-29
-5.73383e-31
-7.37506e-29
-3.28638e-30
-3.15771e-28
-1.67617e-29
-1.43465e-27
-9.31506e-29
-8.97431e-27
-7.33043e-28
-7.83488e-26
-7.90717e-27
-7.60897e-25
-9.22046e-26
-7.10881e-24
-1.01881e-24
-6.05575e-23
-1.01884e-23
-4.59429e-22
-9.04193e-23
-3.05496e-21
-7.02962e-22
-1.75594e-20
-4.73482e-21
-8.6139e-20
-2.73355e-20
-3.56577e-19
-1.33761e-19
-1.23461e-18
-5.47725e-19
-3.55741e-18
-1.84653e-18
-8.50625e-18
-5.00024e-18
-1.66922e-17
-1.03629e-17
-1.43363e-17
-2.69384e-17
-1.60131e-35
-1.66749e-37
-5.30011e-34
-6.17269e-36
-7.97022e-33
-1.18696e-34
-7.64795e-32
-1.41998e-33
-5.46854e-31
-1.26133e-32
-3.32586e-30
-9.80225e-32
-2.1387e-29
-8.62768e-31
-1.90704e-28
-1.07151e-29
-2.29579e-27
-1.66065e-28
-2.95436e-26
-2.5976e-27
-3.57185e-25
-3.73323e-26
-3.88225e-24
-4.77746e-25
-3.72416e-23
-5.36872e-24
-3.11471e-22
-5.24815e-23
-2.24727e-21
-4.42673e-22
-1.38478e-20
-3.19686e-21
-7.21794e-20
-1.96072e-20
-3.15428e-19
-1.01203e-19
-1.14694e-18
-4.3468e-19
-3.44933e-18
-1.52995e-18
-8.53733e-18
-4.31014e-18
-1.73619e-17
-9.31964e-18
-1.39724e-17
-3.02405e-17
-1.79572e-37
-1.00576e-39
-7.57944e-36
-5.42572e-38
-1.40056e-34
-1.34584e-36
-1.67032e-33
-2.1226e-35
-1.61857e-32
-2.88473e-34
-1.69902e-31
-4.65401e-33
-2.44483e-30
-9.7948e-32
-4.30448e-29
-2.23048e-30
-7.54331e-28
-4.75878e-29
-1.20232e-26
-9.04086e-28
-1.69347e-25
-1.50369e-26
-2.08212e-24
-2.17107e-25
-2.21581e-23
-2.7042e-24
-2.02559e-22
-2.88941e-23
-1.57862e-21
-2.63376e-22
-1.04075e-20
-2.03615e-21
-5.75893e-20
-1.32636e-20
-2.65389e-19
-7.22246e-20
-1.01108e-18
-3.25352e-19
-3.16405e-18
-1.19491e-18
-8.10103e-18
-3.50138e-18
-1.70918e-17
-7.90307e-18
-1.27123e-17
-3.11903e-17
-1.5242e-39
-4.37558e-42
-8.49518e-38
-3.65354e-40
-2.07657e-36
-1.38948e-38
-3.78553e-35
-4.37301e-37
-7.60482e-34
-1.52132e-35
-1.90782e-32
-5.51844e-34
-5.03787e-31
-1.84912e-32
-1.22381e-29
-5.44124e-31
-2.61424e-28
-1.38596e-29
-4.84546e-27
-3.03995e-28
-7.74509e-26
-5.72121e-27
-1.06248e-24
-9.20729e-26
-1.2448e-23
-1.26259e-24
-1.23896e-22
-1.46977e-23
-1.04145e-21
-1.44642e-22
-7.34518e-21
-1.19774e-21
-4.31601e-20
-8.29869e-21
-2.09742e-19
-4.77658e-20
-8.36943e-19
-2.26201e-19
-2.72614e-18
-8.69618e-19
-7.23813e-18
-2.66321e-18
-1.58574e-17
-6.31345e-18
-1.0895e-17
-2.98726e-17
-9.92272e-42
-2.29736e-44
-8.65579e-40
-4.43762e-42
-4.2303e-38
-4.22225e-40
-1.97038e-36
-3.08486e-38
-8.88187e-35
-1.83462e-36
-3.54409e-33
-9.00444e-35
-1.20991e-31
-3.69511e-33
-3.51614e-30
-1.27905e-31
-8.70204e-29
-3.75048e-30
-1.83387e-27
-9.327e-29
-3.28654e-26
-1.96613e-27
-4.99712e-25
-3.50757e-26
-6.42543e-24
-5.28374e-25
-6.95807e-23
-6.70189e-24
-6.31375e-22
-7.1338e-23
-4.77222e-21
-6.34709e-22
-2.98463e-20
-4.69689e-21
-1.5337e-19
-2.87242e-20
-6.4328e-19
-1.43931e-19
-2.19261e-18
-5.84104e-19
-6.08318e-18
-1.89025e-18
-1.39411e-17
-4.77059e-18
-8.94937e-18
-2.7278e-17
-1.16142e-43
-4.60918e-46
-2.58491e-41
-2.0466e-43
-2.93552e-39
-3.25633e-41
-2.33134e-37
-3.24671e-39
-1.41816e-35
-2.39347e-37
-6.92022e-34
-1.39795e-35
-2.77952e-32
-6.68278e-34
-9.31602e-31
-2.65646e-32
-2.62311e-29
-8.84645e-31
-6.22159e-28
-2.47553e-29
-1.2434e-26
-5.82444e-28
-2.09115e-25
-1.15124e-26
-2.95204e-24
-1.90837e-25
-3.48551e-23
-2.64689e-24
-3.42616e-22
-3.06298e-23
-2.7882e-21
-2.94705e-22
-1.86669e-20
-2.34759e-21
-1.02149e-19
-1.5399e-20
-4.54394e-19
-8.25859e-20
-1.6396e-18
-3.58831e-19
-4.82393e-18
-1.24888e-18
-1.17772e-17
-3.42984e-18
-7.18497e-18
-2.45982e-17
-5.13949e-45
-2.35942e-47
-1.95067e-42
-1.36423e-44
-3.02189e-40
-2.65977e-42
-2.96325e-38
-3.15511e-40
-2.13716e-36
-2.72032e-38
-1.21219e-34
-1.83644e-36
-5.58937e-33
-1.00565e-34
-2.13094e-31
-4.54616e-33
-6.77383e-30
-1.71098e-31
-1.80184e-28
-5.3803e-30
-4.0139e-27
-1.41489e-28
-7.48089e-26
-3.10981e-27
-1.16385e-24
-5.70416e-26
-1.50644e-23
-8.71385e-25
-1.61527e-22
-1.10589e-23
-1.42732e-21
-1.16263e-22
-1.0334e-20
-1.00901e-21
-6.09633e-20
-7.19859e-21
-2.91934e-19
-4.19995e-20
-1.13581e-18
-1.99167e-19
-3.62599e-18
-7.6264e-19
-9.72188e-18
-2.3405e-18
-5.63813e-18
-2.27193e-17
-3.32055e-46
-1.25693e-48
-1.5622e-43
-8.15961e-46
-2.86377e-41
-1.81828e-43
-3.25989e-39
-2.46628e-41
-2.70095e-37
-2.42736e-39
-1.74829e-35
-1.86712e-37
-9.15583e-34
-1.16272e-35
-3.949e-32
-5.96373e-34
-1.41491e-30
-2.53984e-32
-4.22654e-29
-9.01049e-31
-1.05332e-27
-2.66461e-29
-2.18779e-26
-6.56381e-28
-3.7789e-25
-1.34492e-26
-5.41109e-24
-2.28801e-25
-6.39793e-23
-3.22497e-24
-6.21722e-22
-3.75748e-23
-4.9407e-21
-3.60965e-22
-3.19709e-20
-2.85104e-21
-1.68189e-19
-1.84568e-20
-7.22525e-19
-9.76279e-20
-2.57322e-18
-4.20923e-19
-7.82413e-18
-1.47603e-18
-4.15278e-18
-2.11886e-17
-2.02753e-47
-6.23838e-50
-1.06626e-44
-3.94553e-47
-2.19185e-42
-9.39131e-45
-2.80399e-40
-1.40162e-42
-2.61785e-38
-1.54232e-40
-1.91383e-36
-1.3394e-38
-1.13372e-34
-9.47045e-37
-5.53369e-33
-5.53001e-35
-2.24258e-31
-2.68267e-33
-7.56699e-30
-1.08322e-31
-2.12624e-28
-3.64027e-30
-4.96875e-27
-1.01711e-28
-9.63548e-26
-2.35933e-27
-1.54609e-24
-4.53606e-26
-2.04553e-23
-7.21584e-25
-2.22256e-22
-9.48104e-24
-1.97533e-21
-1.02718e-22
-1.4319e-20
-9.16134e-22
-8.46971e-20
-6.71668e-21
-4.11768e-19
-4.0434e-20
-1.67542e-18
-1.99746e-19
-5.88319e-18
-8.08562e-19
-2.64473e-18
-1.85403e-17
-1.11907e-48
-2.6702e-51
-5.73291e-46
-1.4022e-48
-1.23779e-43
-3.28248e-46
-1.71726e-41
-5.15872e-44
-1.77423e-39
-6.21801e-42
-1.45508e-37
-6.06316e-40
-9.75472e-36
-4.88569e-38
-5.41571e-34
-3.27748e-36
-2.50266e-32
-1.83319e-34
-9.63662e-31
-8.54303e-33
-3.08932e-29
-3.3122e-31
-8.23103e-28
-1.06667e-29
-1.81858e-26
-2.84895e-28
-3.32322e-25
-6.30136e-27
-5.00776e-24
-1.15258e-25
-6.20257e-23
-1.74116e-24
-6.29508e-22
-2.1699e-23
-5.22544e-21
-2.22881e-22
-3.5525e-20
-1.88545e-21
-1.99305e-19
-1.31268e-20
-9.38071e-19
-7.51152e-20
-3.79842e-18
-3.51671e-19
-1.32117e-18
-1.36179e-17
-5.20378e-50
-8.03543e-53
-2.21949e-47
-3.15536e-50
-4.64392e-45
-6.70372e-48
-6.69889e-43
-1.05867e-45
-7.51578e-41
-1.36933e-43
-6.88599e-39
-1.49574e-41
-5.24949e-37
-1.38581e-39
-3.34865e-35
-1.08415e-37
-1.78768e-33
-7.11832e-36
-7.97183e-32
-3.90285e-34
-2.9623e-30
-1.78054e-32
-9.15082e-29
-6.74275e-31
-2.34452e-27
-2.11596e-29
-4.97056e-26
-5.4954e-28
-8.69852e-25
-1.17986e-26
-1.25323e-23
-2.09215e-25
-1.4827e-22
-3.06149e-24
-1.43813e-21
-3.69479e-23
-1.14443e-20
-3.67586e-22
-7.51061e-20
-3.01286e-21
-4.10977e-19
-2.03093e-20
-1.90349e-18
-1.1194e-19
-4.94178e-19
-7.56651e-18
-1.6819e-51
-1.19794e-54
-5.34386e-49
-3.40144e-52
-1.00059e-46
-6.18884e-50
-1.43376e-44
-9.447e-48
-1.71301e-42
-1.29222e-45