/*--------------------------------*- C++ -*----------------------------------*\
| =========                 |                                                 |
| \\      /  F ield         | OpenFOAM: The Open Source CFD Toolbox           |
|  \\    /   O peration     | Version:  2.4.0                                 |
|   \\  /    A nd           | Web:      www.OpenFOAM.org                      |
|    \\/     M anipulation  |                                                 |
\*---------------------------------------------------------------------------*/
FoamFile
{
    version     2.0;
    format      ascii;
    class       surfaceScalarField;
    location    "4.5";
    object      phiAlpha;
}
// * * * * * * * * * * * * * * * * * * * * * * * * * * * * * * * * * * * * * //

dimensions      [0 3 -1 0 0 0 0];

internalField   nonuniform List<scalar> 
9024
(
1.18974e-13
-1.19715e-13
4.926e-13
-5.02828e-14
4.29691e-13
4.01787e-14
-2.22544e-11
1.72667e-11
-2.51165e-11
6.12267e-11
-4.40981e-11
1.89816e-11
-7.77986e-10
2.69037e-11
-1.4782e-09
3.03035e-10
-2.80837e-11
3.37772e-10
-2.84998e-11
4.16019e-13
-2.57239e-10
2.75376e-12
2.9894e-11
-2.87133e-10
-7.26576e-13
1.13499e-13
9.42681e-13
1.21005e-12
1.68673e-13
8.08424e-14
1.05476e-11
4.1362e-11
1.72014e-11
1.13454e-10
-1.3108e-09
6.73062e-10
-1.29748e-09
5.92122e-10
-3.48025e-10
2.53887e-11
-1.02535e-11
2.92186e-17
2.92168e-12
2.82415e-12
7.97887e-11
4.77711e-13
6.23112e-12
-1.55647e-09
-4.25251e-13
1.66088e-13
8.29059e-13
1.60161e-12
6.75559e-13
2.10397e-13
-7.19673e-10
2.48417e-10
-1.02489e-09
7.02243e-10
-8.15092e-10
6.16449e-10
-1.80102e-10
4.63381e-11
-1.08782e-16
-1.28988e-13
-1.34429e-16
4.48835e-17
-1.48185e-16
2.8242e-12
-2.02833e-16
4.77612e-13
-1.72466e-12
7.95561e-12
-3.86382e-14
3.17036e-14
-1.20752e-13
1.65699e-12
-2.48966e-13
3.64726e-13
-6.67332e-11
3.14875e-10
-6.523e-10
1.2445e-09
-4.63382e-11
6.66014e-10
-1.87895e-16
1.06341e-16
-1.29317e-13
1.25298e-16
-6.13535e-11
6.23542e-12
-3.04708e-10
1.30281e-10
-2.98185e-10
1.55043e-10
1.63767e-11
-6.14591e-12
3.02594e-14
8.32017e-16
6.52725e-12
3.66109e-11
-3.40373e-10
6.64927e-10
-9.48052e-10
1.77164e-09
-7.01283e-10
2.00036e-09
-1.24537e-16
8.67016e-11
-1.74115e-16
1.37284e-16
-2.3284e-16
1.61673e-16
-6.86539e-11
5.50661e-12
-2.73825e-10
9.58742e-11
-1.6377e-11
9.36874e-11
4.65961e-17
-1.72498e-16
-1.08429e-12
1.08446e-12
-1.49792e-10
3.31934e-10
-6.78579e-10
1.681e-09
-1.20046e-09
2.32242e-09
-8.67025e-11
2.50236e-09
-1.03409e-15
1.90008e-16
-1.47899e-16
1.70337e-15
-2.20936e-16
2.07656e-16
-5.25995e-11
9.55581e-12
-1.15035e-10
-1.21165e-12
-1.88195e-15
-7.42241e-12
-1.83924e-15
-1.35778e-16
-2.41568e-12
4.30814e-11
-5.64041e-10
1.46263e-09
-8.05002e-10
1.9639e-09
-9.43959e-10
2.30619e-09
-6.67975e-17
1.61651e-09
-7.76139e-17
1.97816e-16
-9.53285e-17
1.73309e-15
-3.21541e-16
3.91315e-16
-1.14117e-11
1.29276e-12
-1.66245e-11
3.36329e-14
-3.33833e-12
9.44708e-17
1.42791e-13
-3.96307e-14
-3.06665e-10
2.93037e-10
-7.65951e-10
1.97788e-09
-8.94444e-10
1.91916e-09
-7.56367e-10
7.47288e-10
-2.16035e-10
6.08211e-11
-4.81431e-11
4.09821e-10
-5.22476e-15
1.80911e-10
-5.12588e-14
4.63821e-14
-3.35372e-14
3.61863e-13
-2.29911e-17
1.27265e-16
-2.33975e-17
9.83012e-17
1.42795e-13
-2.77346e-17
-7.19117e-10
4.09999e-10
-9.55938e-10
2.03098e-09
-3.60402e-10
1.87036e-10
-3.43445e-12
4.63433e-12
6.81827e-12
1.0202e-12
1.04383e-10
3.25066e-10
1.40812e-10
4.89993e-10
6.61165e-11
3.56899e-10
3.39628e-17
6.64783e-11
3.09313e-17
1.34876e-16
3.40702e-17
9.71164e-17
5.04532e-09
1.33087e-09
-5.244e-10
2.10057e-10
-2.68639e-10
-1.20493e-10
-9.85039e-12
1.39352e-10
7.0374e-17
-5.21614e-12
4.99672e-15
1.01456e-12
8.1499e-11
4.30509e-11
6.05081e-16
5.71492e-10
1.89224e-10
1.08156e-10
6.33538e-10
7.10304e-10
1.11934e-09
1.2557e-09
7.1597e-09
5.71268e-09
6.82084e-09
1.41098e-08
-1.8817e-11
9.6397e-11
-9.27187e-11
5.25653e-11
1.41954e-10
4.51073e-10
1.56124e-09
1.5387e-09
3.74207e-09
3.34646e-11
4.69552e-09
1.20824e-09
2.62457e-09
3.61945e-09
3.92009e-10
2.83074e-10
1.72534e-10
1.62787e-10
1.71361e-08
1.94658e-09
2.11418e-08
3.78277e-09
3.39138e-09
2.44225e-08
6.04714e-17
9.63969e-11
4.34705e-14
5.25219e-11
8.67148e-09
1.03083e-08
8.90494e-09
1.03e-08
7.96431e-09
2.00977e-09
7.67976e-09
2.67663e-09
6.89729e-09
5.40847e-09
6.8141e-09
5.60065e-09
1.77231e-09
4.93725e-09
2.98544e-09
2.11046e-11
9.28375e-09
-9.02967e-14
2.76532e-08
-6.93554e-17
-8.45797e-11
6.13119e-11
-1.18021e-10
2.08805e-12
-4.45771e-10
-6.94448e-11
-1.10072e-09
-1.94565e-10
-1.18782e-09
-2.97063e-10
-1.79258e-10
-3.08606e-10
-5.78837e-12
-2.06937e-12
-9.82128e-12
-2.26985e-12
3.45002e-12
-1.52278e-11
3.45032e-12
-2.87718e-16
-2.70731e-10
-2.15216e-13
-1.04892e-12
-8.41623e-09
3.57199e-10
-8.44779e-09
3.38037e-11
-8.13156e-09
-3.85826e-10
-7.49075e-09
-8.35225e-10
-6.47032e-09
-1.31767e-09
-1.09947e-10
-7.58616e-10
-3.10745e-11
-1.36764e-10
-8.72607e-11
3.46924e-12
-1.30893e-15
2.41744e-11
-6.14779e-16
-9.73449e-16
-1.3803e-16
-2.15697e-13
-1.04906e-12
-5.71972e-10
4.62798e-12
-9.61538e-09
1.72494e-11
-1.0003e-08
-1.6805e-13
-1.08352e-08
-5.08102e-17
-1.05462e-08
-7.46518e-10
-2.51328e-09
-2.07248e-09
-5.06776e-11
-2.94747e-09
-3.09383e-15
-4.72053e-11
-1.97142e-15
2.41732e-11
-2.354e-15
-5.82089e-16
-5.22331e-13
-2.56427e-13
-1.5722e-12
-1.51814e-12
1.40114e-17
-8.41206e-16
-1.76072e-14
-1.07053e-16
-1.68783e-13
-1.31911e-16
-2.66558e-17
-7.46518e-10
-5.44171e-17
-6.76646e-09
-8.24369e-11
-9.03093e-09
-7.04535e-09
-3.36293e-09
-1.26421e-08
-1.30289e-10
-1.21016e-08
-3.34796e-14
-1.30256e-10
-6.09323e-13
1.23278e-14
-2.75938e-16
-4.47968e-16
3.72115e-17
-1.72473e-12
2.00428e-14
3.02209e-14
-6.91021e-12
-1.86381e-16
3.03772e-14
-2.06631e-16
-5.3075e-17
-1.13776e-10
3.13392e-11
-1.93062e-08
-5.72128e-09
-3.45317e-08
-5.26109e-08
-3.04558e-08
-5.91048e-08
-1.21644e-09
-4.90256e-08
-1.40684e-16
-1.21642e-09
-4.16631e-16
-1.5693e-16
4.24933e-17
1.9832e-14
2.66595e-17
-3.43552e-10
-4.01284e-13
-2.96189e-09
-1.96857e-09
-2.31299e-09
-8.44194e-09
2.22607e-09
-6.58038e-09
-2.52644e-08
-5.00639e-09
-5.38568e-08
-7.89518e-08
-2.17991e-08
-6.92506e-08
2.49746e-10
-9.29864e-08
-9.68043e-12
-1.08764e-08
-9.68085e-12
-3.97717e-14
5.53027e-17
1.48295e-14
1.39764e-14
-3.86477e-13
7.04623e-18
-1.92663e-08
-3.32947e-09
-4.45027e-08
-1.74681e-08
-2.61503e-08
-3.14327e-08
-3.07746e-09
-4.05255e-08
-2.3964e-08
-3.67384e-08
-5.35529e-09
-3.33189e-08
1.44324e-08
-2.53725e-08
8.62448e-09
-1.98393e-08
-1.87155e-08
-3.34832e-17
6.1746e-17
-4.86671e-17
1.39909e-14
-5.64153e-11
5.64153e-11
-1.77379e-08
-6.48922e-10
-2.24158e-08
-6.48858e-09
-3.49706e-08
-2.51795e-08
-1.89166e-08
-5.0278e-08
-8.65975e-09
-4.10634e-08
-1.6212e-09
-4.30522e-08
1.99162e-08
-5.2719e-08
1.10791e-07
-1.01043e-07
3.33139e-08
3.42291e-09
5.47467e-09
1.95608e-09
4.14928e-09
2.57298e-10
4.79671e-10
8.37168e-10
-8.69807e-12
3.06197e-09
-3.33847e-17
-1.23986e-09
-3.7747e-17
-5.57547e-09
-7.69795e-17
-8.94741e-10
-1.01238e-16
1.17032e-09
-4.53359e-08
3.60215e-08
-9.75916e-08
1.51435e-07
-3.25325e-07
2.36935e-07
1.39176e-08
5.50809e-09
1.49955e-08
2.84414e-09
8.74272e-12
1.63007e-10
9.77379e-17
4.45437e-14
6.54061e-17
-3.23337e-18
4.97496e-17
-1.99101e-17
3.84432e-17
-6.78535e-17
2.36388e-17
-8.42528e-17
4.84708e-09
-8.6438e-17
-7.57274e-09
-3.29372e-08
6.44084e-08
-1.7021e-07
3.4173e-07
2.80163e-08
1.66215e-09
8.45841e-09
-9.75735e-10
-8.81727e-10
-5.07571e-10
1.11031e-10
-3.62075e-10
1.60309e-16
1.1103e-10
1.18309e-16
1.97694e-17
1.28595e-16
-7.50432e-17
8.31035e-17
-6.65479e-17
3.99331e-17
-7.66718e-17
1.48693e-08
-1.87481e-09
1.32278e-07
-2.20097e-17
5.755e-07
2.43038e-08
-3.671e-17
1.0126e-08
-9.75955e-12
1.28347e-08
-3.52779e-11
2.48379e-08
-1.03731e-13
3.12397e-08
-8.78833e-10
4.866e-08
1.86766e-08
7.14664e-08
-5.94346e-08
5.65681e-09
-1.53601e-08
1.21329e-16
5.65681e-09
6.1816e-17
-1.87481e-09
3.50751e-17
-1.49862e-17
7.90546e-07
-1.59544e-16
2.02831e-15
-1.40834e-15
1.2488e-15
-1.99024e-12
1.98884e-12
8.67164e-12
3.9015e-12
-2.34105e-10
1.93857e-11
-1.14584e-09
3.03643e-10
-9.55226e-10
5.13548e-10
-1.00434e-09
4.91146e-11
-6.03591e-09
3.78509e-10
-6.61298e-09
5.7707e-10
-6.9496e-09
3.36623e-10
-1.17842e-11
-3.05292e-09
-6.28916e-12
4.55553e-13
-3.0239e-11
7.73638e-11
1.43866e-11
8.20646e-11
2.03451e-11
1.4006e-11
-8.99574e-10
3.50778e-10
-6.35533e-10
2.70766e-10
-1.22159e-10
1.01205e-16
-5.31436e-09
1.75981e-10
-1.59151e-08
1.62181e-09
-1.70022e-08
1.66414e-09
-1.7501e-08
8.35495e-10
-1.19557e-18
-1.75058e-08
-1.42511e-11
2.09216e-12
-5.69218e-11
1.46602e-10
1.67481e-11
1.86638e-10
-9.89336e-10
1.13877e-10
-1.26041e-09
7.72888e-10
-3.07744e-10
6.95531e-12
-3.0755e-10
2.70509e-15
-1.7002e-09
3.24429e-11
-2.34186e-09
1.10884e-11
-9.58451e-10
-1.02963e-14
-9.95472e-17
-9.44399e-13
6.76419e-20
-1.00847e-16
-4.47414e-11
1.39639e-11
-1.37711e-10
2.88053e-10
-1.36118e-10
2.21381e-10
-4.71796e-10
2.7985e-11
-5.68148e-10
5.47904e-12
-2.54842e-11
-1.16701e-11
-2.57195e-11
1.67218e-14
-1.10878e-11
3.45795e-12
-4.69093e-16
1.24139e-16
-5.01326e-16
-1.02705e-14
-8.10367e-13
-1.35255e-13
3.88877e-14
-8.60706e-13
-4.01022e-11
9.86751e-12
-9.32671e-11
2.87632e-10
-2.7985e-11
1.7289e-10
-1.01796e-16
1.1572e-16
-1.33741e-16
1.35343e-16
-1.1092e-11
-5.78266e-13
-2.85489e-12
8.44683e-12
-4.03607e-16
6.02374e-13
-4.52265e-16
1.76377e-16
-6.20262e-13
3.57101e-14
-2.53698e-12
4.02733e-13
1.83193e-13
-2.5585e-12
-1.75651e-11
1.53204e-11
-4.70186e-13
1.48715e-10
-4.60679e-17
1.7242e-10
-7.4042e-17
1.55482e-16
-1.01659e-15
1.28347e-16
-1.2077e-11
2.40877e-12
-6.55235e-12
1.11554e-11
-3.18069e-16
2.87127e-11
-3.82925e-16
1.86429e-16
-1.66471e-13
2.01633e-13
-2.21287e-12
3.67527e-13
3.25776e-13
-2.49051e-12
3.09545e-13
7.67797e-11
-1.30253e-10
5.99362e-11
-2.47019e-09
1.32117e-08
-1.49029e-15
9.49938e-08
-3.41214e-13
3.4058e-13
-1.92455e-13
1.50542e-11
-1.59995e-11
2.84955e-12
-5.11265e-11
3.82325e-11
-2.22683e-11
4.32778e-11
-1.57022e-13
1.62154e-11
-2.53246e-13
7.5509e-14
6.25627e-14
-2.32418e-13
6.01366e-12
4.2167e-10
4.82464e-11
6.93442e-11
-1.83053e-08
2.8928e-08
-5.51089e-08
1.60092e-07
-7.9795e-09
1.60183e-07
-2.39278e-11
3.65019e-10
-2.10786e-11
1.05521e-16
-4.0649e-11
1.03694e-11
-3.91389e-11
4.98816e-11
-3.59452e-11
4.2175e-11
-8.79575e-14
2.62287e-11
2.60387e-14
-1.68481e-14
1.32935e-10
1.03217e-09
5.36472e-11
9.31645e-11
-4.25025e-08
2.55764e-08
-4.21934e-08
1.5979e-07
-1.60427e-08
1.34025e-07
-1.05647e-12
1.19691e-08
-1.05646e-12
9.88459e-17
-1.9706e-12
4.0368e-13
-1.12842e-11
3.32189e-12
-5.5454e-12
3.73615e-11
-3.07732e-12
1.56006e-11
6.76918e-12
-1.23854e-12
4.00531e-11
9.92115e-10
8.73664e-10
1.15747e-09
-1.24142e-08
1.06213e-10
-1.99195e-08
6.08161e-09
-8.78552e-09
1.96685e-08
-6.2627e-13
2.97256e-09
-1.54926e-13
-4.71245e-13
6.45903e-13
1.77407e-12
4.08889e-12
-7.71876e-13
8.73398e-12
4.3246e-12
1.13209e-11
6.58412e-12
3.21772e-12
3.45082e-12
-4.90295e-10
8.18679e-10
-3.49417e-10
9.50406e-10
-9.63407e-11
-1.01272e-10
6.89908e-11
-2.12156e-11
4.31364e-10
3.19248e-16
3.02723e-10
3.00918e-16
5.87678e-11
1.69983e-10
6.74111e-13
6.18675e-11
1.04441e-12
2.12845e-12
2.02031e-13
3.53169e-12
2.89359e-13
8.13136e-12
1.18104e-12
7.54455e-13
-4.59221e-17
8.18679e-10
-8.94083e-12
9.59347e-10
2.12159e-11
1.34289e-10
1.92384e-16
9.7373e-17
2.07764e-16
2.06094e-16
2.20659e-16
2.42167e-16
1.68038e-13
1.69815e-10
6.0552e-10
1.41821e-08
2.39832e-11
-1.23577e-09
1.16146e-09
7.09067e-10
6.11879e-10
-1.0479e-11
1.86997e-11
8.95069e-11
-2.25736e-09
-1.60455e-10
-1.62262e-09
-5.06634e-18
-5.09862e-10
-7.27978e-11
-3.89268e-10
-1.20595e-10
-1.50834e-10
-1.14622e-09
-4.2036e-12
-7.38109e-10
-1.42566e-15
-4.20302e-12
-1.27632e-12
1.27404e-12
-2.9607e-13
3.45735e-13
-1.43854e-14
4.48125e-15
-1.5145e-14
1.29738e-15
1.81721e-14
-1.06908e-16
-5.13674e-14
-1.23901e-16
-9.66527e-17
-7.27979e-11
-1.17458e-16
-1.77724e-09
-9.93662e-11
-5.15871e-09
-4.09494e-09
-7.22173e-09
-5.35303e-09
-1.37512e-09
-4.55836e-09
-4.45414e-11
-1.58218e-09
-5.96577e-16
-4.41956e-11
-2.11913e-16
3.00157e-15
-7.48516e-14
7.53897e-14
9.7019e-14
-9.53538e-16
-5.05148e-14
-7.48954e-16
-3.65624e-17
-6.68376e-16
-6.58299e-16
-9.93644e-11
-2.84102e-15
-3.67872e-09
-5.10841e-11
-6.75773e-09
-2.12151e-09
-3.73152e-09
-6.95954e-09
5.56567e-12
-4.77014e-09
1.54157e-12
-8.48138e-10
-1.07456e-11
-2.24587e-10
-2.51881e-12
-4.21409e-11
-9.91072e-12
-2.78235e-15
-9.96975e-14
-2.80523e-15
-4.84597e-17
-8.58086e-15
-1.04192e-16
-4.8194e-16
-2.28219e-16
-3.36711e-16
-5.10845e-11
-1.93681e-09
-1.84701e-10
-4.36071e-09
-1.12389e-09
-1.21334e-09
-6.57421e-09
-2.98171e-09
-2.37053e-10
-7.19679e-10
-1.92514e-10
-5.35789e-11
-8.38405e-12
-2.36842e-11
-3.68115e-16
-1.21294e-13
-3.37004e-16
-5.48203e-17
-5.10261e-16
-1.20278e-16
-3.45124e-16
-1.41975e-16
-1.83259e-10
-1.92992e-11
8.74955e-12
-1.19347e-09
-3.1312e-11
-1.84747e-09
-3.62753e-09
-2.64757e-09
-6.95321e-09
-8.65699e-10
-6.99164e-10
-7.96672e-12
-4.81181e-11
-6.22895e-10
-2.7497e-11
-9.95894e-15
-2.18169e-14
-2.99632e-16
-9.75233e-15
-2.35581e-16
-1.7196e-16
-2.39188e-16
-1.58633e-16
-1.92992e-11
-2.33003e-16
-2.94084e-09
-5.88876e-10
-6.69063e-10
-1.56988e-08
-1.39721e-08
8.25259e-09
-1.26968e-08
1.21722e-09
-5.94969e-09
1.64478e-09
6.5958e-11
5.08207e-09
7.84754e-11
-8.6792e-14
5.6283e-15
-1.77504e-14
2.15077e-14
-1.84551e-16
-6.12623e-14
-1.87734e-16
-2.0819e-16
-1.56581e-16
-3.30883e-16
-5.88876e-10
-4.10385e-16
1.10884e-09
-4.05257e-08
-1.21063e-08
-1.13956e-07
-2.95018e-08
-2.43989e-08
1.82447e-09
-3.0673e-08
1.05627e-08
-5.60704e-08
2.7926e-08
-1.27448e-13
8.10838e-14
-2.11798e-13
-6.08827e-14
1.47151e-15
-2.08722e-13
-1.76934e-16
1.35809e-15
-1.55868e-16
-4.60625e-16
-9.11297e-17
-5.42934e-16
5.71526e-08
-1.69371e-07
2.74088e-07
-4.79755e-07
1.17705e-07
6.39554e-08
4.13171e-08
-1.38795e-07
8.2948e-10
-2.0996e-07
6.58532e-08
-9.28726e-13
1.05506e-12
2.83419e-13
-8.3404e-14
1.3033e-12
-1.7829e-14
-9.3719e-11
-3.04717e-10
5.54491e-11
-1.32962e-09
5.54491e-11
-6.16134e-16
-1.66641e-07
-1.23527e-07
1.65269e-07
-1.00128e-06
2.46539e-07
-1.32541e-08
4.26644e-08
9.33658e-09
-1.11772e-07
-8.05688e-08
-4.59184e-08
-1.3842e-13
9.0648e-13
1.83464e-12
3.71938e-13
1.73693e-12
-3.03159e-15
-5.82276e-11
1.06553e-10
9.91043e-11
1.82982e-11
5.99991e-10
-5.00887e-10
-1.24446e-07
-7.81664e-09
-6.67682e-09
-7.86039e-07
1.27678e-07
-1.43045e-07
-5.00565e-08
1.79856e-07
-5.33788e-09
-1.46467e-07
-5.08831e-08
1.3221e-13
3.32388e-14
1.21806e-13
3.64022e-14
2.0168e-14
1.86779e-13
9.7424e-11
4.45579e-09
1.72765e-10
2.57328e-10
5.56633e-11
2.01436e-10
-7.74756e-09
-1.09484e-11
1.3486e-07
-2.56527e-12
8.38892e-07
-6.11185e-07
6.76634e-07
2.43872e-07
2.55787e-07
1.45051e-07
3.0441e-07
1.23346e-13
1.85675e-11
1.30028e-13
7.18316e-14
3.55131e-09
5.24357e-08
4.50233e-08
-3.7035e-07
4.05012e-10
-6.91688e-08
7.86094e-12
6.01202e-10
9.02838e-12
2.42691e-12
6.46358e-12
-4.87015e-16
2.31516e-06
-4.19536e-07
2.55369e-06
2.54139e-07
1.75107e-06
9.47676e-07
1.86649e-06
-2.33882e-22
2.19795e-16
-2.45431e-21
2.19385e-21
-6.0495e-21
3.59519e-21
-8.54218e-20
7.93719e-20
-3.90785e-18
3.61683e-20
-1.89349e-10
1.89349e-10
-2.95869e-09
9.73341e-11
-3.24735e-09
2.88661e-10
1.54804e-09
1.03555e-09
-2.28624e-09
2.28538e-10
-1.73856e-08
2.07791e-09
3.94584e-09
-2.13315e-08
-3.8554e-20
2.29068e-14
-3.08569e-18
3.04801e-18
-1.41071e-17
4.08734e-18
-9.0224e-09
1.18129e-09
-1.32091e-08
6.56054e-09
-1.18783e-08
5.52974e-09
-2.18999e-11
1.5525e-09
-4.79672e-16
2.66762e-10
-5.41391e-09
6.44946e-09
-5.75197e-08
7.03001e-09
-5.98608e-08
8.19248e-09
6.20197e-09
-2.48485e-08
-2.75727e-14
1.55255e-13
6.32827e-14
7.26036e-13
6.3264e-14
1.22753e-17
-3.88483e-09
7.19556e-10
-4.60663e-09
4.49947e-09
9.27356e-10
2.99263e-09
-4.18885e-08
1.42859e-08
-1.11573e-07
3.57054e-08
-1.55384e-07
4.98968e-08
-1.45185e-08
2.23346e-08
-6.67222e-09
1.89061e-11
4.60819e-11
-3.78776e-09
-1.78613e-13
6.09188e-13
2.62857e-13
4.76503e-12
4.74371e-13
-2.11526e-13
-2.66824e-09
5.18548e-10
1.37092e-09
5.72061e-11
1.53856e-09
1.33142e-10
-1.56183e-07
2.88228e-08
-1.72966e-07
5.19885e-08
-1.6112e-07
3.85502e-08
-6.63652e-09
1.47867e-08
-7.57657e-09
9.70469e-12
4.65959e-09
-1.60911e-08
2.22632e-13
1.28337e-12
4.10799e-12
3.58385e-11
-1.69604e-10
4.68629e-11
-5.73844e-11
1.2974e-12
-9.13446e-17
-1.78764e-13
1.33151e-10
-1.05373e-14
-4.7349e-08
6.38151e-10
-1.147e-07
1.17984e-08
-1.62941e-08
8.21237e-09
-1.50743e-09
1.8758e-16
-1.01301e-08
8.90074e-10
8.17609e-09
-2.06634e-08
-2.92496e-12
1.68902e-12
-9.24346e-12
1.161e-10
-2.08383e-12
8.80391e-12
-2.34907e-13
3.33315e-14
3.59061e-14
1.91689e-12
-2.89196e-11
1.11644e-11
-1.83646e-09
-9.46346e-11
-3.17815e-09
-1.02384e-10
-5.44322e-11
1.00609e-16
-5.44322e-11
1.26572e-16
-5.7529e-09
1.51832e-10
4.1594e-09
-1.92711e-08
-1.30145e-11
3.24373e-12
2.94996e-13
8.70883e-10
-7.06675e-15
9.74092e-12
-5.2331e-12
4.62441e-12
-2.62004e-11
8.48442e-12
-4.49418e-11
1.09651e-10
-1.51197e-11
4.13531e-11
-1.24479e-16
-1.17503e-10
-1.25702e-16
1.1227e-16
-7.75974e-17
1.22016e-16
-1.32885e-10
2.25327e-12
-5.81381e-13
-4.52176e-09
3.22129e-12
2.16727e-14
-2.88215e-09
4.88154e-09
-2.51465e-09
4.92303e-08
-3.70287e-10
2.87009e-08
-9.05929e-11
8.85515e-12
-2.51698e-10
1.26478e-10
-1.78481e-10
3.72306e-10
-6.36773e-17
2.83818e-10
-6.45926e-17
9.834e-17
-6.94573e-17
1.41725e-16
-7.55387e-17
2.25307e-12
-5.8161e-13
-8.6282e-17
-9.74006e-15
3.05989e-14
-8.29365e-09
8.07513e-09
-1.78283e-08
6.66543e-08
-8.24033e-13
6.74539e-08
-2.15004e-12
1.77526e-12
-2.46552e-11
3.51437e-12
-1.5882e-10
3.63346e-10
-1.10863e-10
6.21772e-10
-6.29183e-11
3.76296e-10
-2.14716e-12
2.94156e-10
-2.52302e-13
3.53678e-11
1.21042e-12
-5.6855e-14
-5.23966e-16
3.02429e-14
-1.43286e-08
1.96316e-09
-1.55694e-08
5.94615e-08
-5.15477e-09
6.54729e-08
-3.41931e-12
8.97551e-09
1.25742e-17
9.43187e-14
3.58661e-12
3.00008e-10
1.91004e-10
4.34968e-10
2.42926e-10
1.68748e-10
1.73556e-10
2.26747e-10
-2.14289e-11
9.03888e-11
9.32145e-13
-6.72365e-14
3.08609e-11
1.53779e-12
-1.76576e-10
1.65037e-10
1.42091e-09
7.26445e-09
1.21406e-08
2.8573e-08
-8.44236e-10
9.11124e-09
-5.79302e-12
5.94922e-10
1.04653e-09
4.36046e-10
3.51539e-10
4.89161e-10
-2.6657e-11
5.00132e-11
5.66017e-11
-4.34203e-12
3.36228e-11
1.78523e-11
3.45544e-11
2.82211e-16
2.46334e-16
1.53754e-12
4.30534e-16
1.65037e-10
6.3063e-16
7.26445e-09
8.03814e-16
2.8573e-08
-1.3942e-12
9.11263e-09
1.04569e-09
4.1284e-12
2.60247e-09
5.15608e-10
3.24514e-09
7.3383e-10
1.57662e-10
4.34968e-10
1.89947e-11
1.07209e-12
9.61888e-12
-8.83879e-13
1.48863e-08
2.81448e-10
-1.47597e-11
1.20064e-09
-6.6884e-12
1.88469e-13
9.374e-13
1.14056e-13
7.86372e-12
-4.5471e-14
-4.08717e-10
-3.44036e-11
-4.3229e-09
-1.726e-09
-4.32266e-09
-4.13997e-09
-3.89233e-09
-7.10977e-10
-5.4899e-10
-4.82226e-09
-9.85426e-12
-7.66033e-10
-5.36443e-16
-9.85456e-12
-1.37115e-15
-2.29694e-11
1.06792e-10
-1.41668e-11
5.70626e-13
-5.6422e-12
2.40879e-13
1.49341e-12
-2.07494e-17
-3.29102e-11
-5.03607e-17
-5.17944e-08
-8.54464e-10
-5.9179e-08
-5.48049e-09
-3.82265e-08
-1.29384e-08
-2.15495e-08
-3.02244e-08
-6.86185e-09
-1.21766e-08
-1.48348e-10
-8.75195e-09
-4.09508e-09
-1.89911e-09
2.98263e-09
-7.98672e-10
1.57688e-10
-6.07682e-16
7.92424e-12
-6.28436e-16
-3.08437e-17
-6.28954e-16
-9.04047e-17
-8.54464e-10
-1.47468e-16
-6.03541e-09
-3.41713e-13
-6.30909e-09
-8.01142e-13
-1.30747e-08
-8.79204e-13
-1.19133e-08
-4.59968e-13
-1.28156e-08
-4.93728e-09
-1.69107e-08
-1.72172e-08
7.49003e-09
-7.92493e-12
7.64093e-10
-7.33265e-16
3.82883e-17
-7.66859e-16
-4.36515e-17
-7.40875e-16
-1.74423e-16
-6.15453e-16
-9.41647e-16
-5.29692e-16
-3.41799e-13
-4.16964e-16
-8.01255e-13
-2.78815e-16
-8.79342e-13
-1.48435e-16
-4.60098e-13
-4.9371e-09
-1.86995e-13
-5.42105e-12
-2.04795e-08
6.92167e-09
-9.48623e-16
3.36648e-09
-9.73466e-16
6.72393e-17
-1.15826e-15
-7.20293e-17
1.06543e-15
-1.21896e-15
-1.65264e-14
-2.25397e-15
-2.45477e-13
-1.48463e-15
-5.39961e-13
-1.05007e-13
-6.40825e-13
-3.75591e-13
-3.19864e-13
-9.34866e-13
-9.9556e-17
-1.71523e-12
-5.42115e-12
-2.0064e-08
8.13566e-09
-7.71355e-15
3.17362e-09
-2.52686e-15
1.02387e-16
-8.47411e-15
3.39131e-17
-1.08158e-14
-1.95686e-15
-9.04052e-16
-4.4585e-15
-7.35086e-16
-1.64179e-15
-1.05153e-13
-5.78797e-16
3.27831e-14
-3.48733e-14
2.4932e-13
-4.81489e-14
-8.00012e-13
-4.86687e-13
-3.04472e-12
-6.21655e-09
-3.58789e-14
-1.06272e-13
-1.16765e-11
-4.86315e-16
-1.05103e-13
-7.48741e-15
1.7753e-17
-9.2347e-15
-4.87544e-17
-5.64645e-15
2.07015e-15
-5.88095e-16
-2.57458e-16
-5.11745e-16
-6.68855e-16
-4.1934e-16
-3.50199e-14
-4.77821e-14
-7.82489e-16
-2.78409e-13
-8.25803e-16
-4.39259e-16
-1.00106e-16
-3.60727e-14
-1.19059e-11
1.14039e-16
-1.10254e-16
8.53001e-12
-1.3136e-16
2.55549e-17
-1.44524e-16
-3.63236e-17
-1.82431e-16
2.08963e-15
-2.86605e-15
2.4157e-15
-1.45047e-14
-4.53525e-15
-3.00528e-16
-4.585e-14
-2.42058e-16
-8.41176e-16
-1.18671e-16
-9.49449e-16
-5.58086e-16
2.41558e-17
6.75437e-14
3.18065e-17
1.05095e-16
2.32477e-14
-2.49381e-13
1.94884e-15
2.12995e-14
8.42059e-13
-2.92433e-12
6.12388e-13
-8.11092e-12
3.31817e-14
-5.31212e-12
-1.48611e-14
-4.07024e-13
-1.20749e-16
-2.01515e-14
-1.15689e-16
-8.47606e-16
-9.23646e-17
-9.669e-16
-6.58438e-16
1.62366e-16
1.1141e-16
1.85978e-16
8.14774e-17
1.39157e-11
8.77331e-13
2.31624e-11
1.845e-12
1.73994e-11
2.01108e-12
1.70786e-11
-6.96296e-12
6.11499e-14
-8.21689e-12
1.26143e-14
-5.11014e-12
2.92036e-16
-7.8527e-15
1.5465e-16
-7.43706e-16
3.03774e-17
-8.2292e-16
-6.07018e-16
2.88421e-16
1.052e-16
3.08651e-16
6.12473e-17
3.25097e-16
8.77315e-13
3.79166e-16
1.84491e-12
2.98166e-12
-9.70413e-13
1.73416e-11
-1.5595e-12
2.12894e-11
-2.36161e-12
9.31533e-13
-7.35172e-12
8.8999e-16
-7.91276e-13
5.57988e-16
-5.45675e-16
2.58815e-16
-1.00779e-15
-3.94711e-16
2.12094e-08
1.50225e-09
1.97237e-08
1.35685e-09
1.97021e-08
2.012e-10
1.78282e-09
-1.3308e-09
-2.65548e-12
-8.92209e-10
-4.21433e-12
-3.41052e-16
1.23262e-11
-6.43209e-16
7.95964e-12
-5.2702e-16
2.00277e-12
-1.46214e-15
2.00211e-12
-3.93691e-16
5.65913e-08
2.00395e-09
1.32635e-07
3.44228e-10
-3.10224e-10
-4.31466e-09
4.65889e-09
-2.89696e-09
3.2954e-09
-3.76795e-09
1.69378e-11
-7.16295e-09
1.13433e-09
-8.2254e-09
1.06245e-09
-8.96236e-09
7.36959e-10
-7.03461e-17
6.80159e-10
-7.75686e-17
7.22259e-18
1.89284e-15
-1.98469e-15
-1.12308e-09
9.26944e-12
5.76496e-11
-1.18073e-09
-1.65311e-09
-6.29391e-11
-5.66196e-09
1.44223e-10
-4.42174e-09
8.99602e-11
-7.96054e-09
6.15964e-10
-1.01576e-08
1.0725e-09
-3.97864e-09
1.05447e-09
-2.31655e-09
-4.08449e-11
-2.92527e-12
-1.4504e-10
-2.90237e-12
-2.28964e-14
-1.39753e-11
4.33966e-13
-3.17997e-11
-1.13398e-13
-8.93056e-13
-1.3128e-11
-9.61982e-11
1.33059e-09
-5.03956e-11
7.28203e-11
-3.94648e-10
5.28523e-12
-2.93478e-09
1.279e-09
-1.23374e-09
2.47189e-10
-1.79269e-10
5.7139e-17
-1.35197e-10
-6.00402e-12
-2.79789e-11
1.19307e-11
-4.33656e-13
2.73803e-12
-2.94211e-16
4.44049e-17
-2.12324e-14
-9.19145e-14
-1.47285e-13
-6.22077e-12
-3.42193e-11
8.33205e-09
-9.80155e-11
1.65227e-10
-5.10989e-10
2.17844e-10
-2.12903e-10
1.80381e-16
-9.9552e-17
-8.65833e-14
-1.48205e-16
7.34824e-17
-1.66919e-16
-6.00405e-12
-5.5517e-13
1.24856e-11
7.6403e-14
2.12366e-13
7.69473e-14
7.50598e-17
-1.13135e-11
5.43231e-13
2.69995e-12
-2.94679e-11
-4.25464e-09
3.9852e-08
-3.97309e-11
5.49481e-08
-1.31548e-16
1.78114e-10
-1.02298e-16
1.27295e-16
-1.15748e-16
-8.66339e-14
-1.09626e-15
9.84295e-16
-1.14774e-10
2.64574e-11
-4.82433e-16
2.99791e-10
-1.79141e-16
2.127e-13
-5.61617e-13
5.60874e-13
-2.0783e-12
1.77313e-13
4.80405e-13
-2.11861e-12
-1.34982e-08
2.21744e-08
-2.99342e-08
9.57575e-08
-1.84907e-13
7.41592e-08
-1.84888e-13
1.32885e-16
-1.68758e-13
2.04123e-13
1.04797e-13
1.46108e-12
2.65617e-11
3.40403e-16
-2.01889e-09
8.01131e-10
-4.56491e-09
3.44415e-09
-9.15337e-14
1.58648e-09
-1.63848e-16
8.65853e-14
4.79831e-13
-2.37971e-16
-3.9459e-09
6.01508e-09
-6.40137e-09
9.95658e-08
-6.49814e-14
1.1185e-07
-6.50424e-14
1.67432e-16
-8.33981e-13
9.99841e-14
6.56405e-13
4.31913e-12
7.38417e-13
-8.32179e-14
-2.47116e-09
5.06119e-10
-2.79519e-09
2.90399e-09
-3.20392e-09
2.8594e-09
-2.04341e-09
2.35221e-09
1.15498e-09
-5.09465e-12
-7.7472e-09
-6.11096e-12
-3.57063e-08
3.6709e-08
-2.96046e-12
1.19861e-07
-5.88487e-15
-2.95438e-12
-1.8207e-13
1.34339e-14
7.90997e-13
7.93849e-12
8.93086e-12
1.32756e-11
-1.33316e-11
-1.29153e-12
-5.83077e-10
-1.99362e-11
-1.21575e-09
1.17027e-09
-1.17904e-09
2.6007e-09
1.45067e-09
-1.05195e-09
1.36099e-12
1.18436e-11
-6.83197e-09
2.57569e-12
-3.90356e-09
2.20656e-11
-6.58652e-15
1.84107e-10
-3.00154e-17
6.85504e-15
-6.52948e-13
8.59125e-12
-4.27016e-13
3.58553e-11
1.41233e-12
3.02765e-11
1.24623e-11
-1.44369e-13
2.41413e-10
-1.85987e-12
5.19031e-10
1.81844e-14
8.30448e-12
4.20884e-10
-2.57543e-12
3.46547e-11
-2.2008e-17
2.73163e-16
2.94175e-17
3.01252e-16
5.82706e-11
3.50078e-10
-2.0457e-12
1.83491e-10
2.29984e-11
1.4661e-10
1.75742e-11
1.47412e-10
8.61712e-12
1.94571e-11
-6.93118e-16
3.89884e-11
6.19594e-14
-1.92254e-12
7.43443e-14
5.78591e-15
1.93762e-14
8.35945e-12
-1.828e-18
3.46547e-11
1.10881e-16
1.60251e-16
2.48978e-16
1.63358e-16
3.1985e-16
3.50078e-10
3.65408e-16
1.83491e-10
1.74528e-11
1.29157e-10
3.49634e-10
1.96444e-10
5.07747e-10
1.89487e-10
1.83484e-10
8.05384e-11
1.37504e-13
2.50152e-12
1.3475e-13
8.53539e-15
8.3593e-15
1.45766e-13
5.60816e-08
-2.74586e-09
1.12951e-07
-3.06025e-08
1.0483e-07
-1.83952e-08
9.95543e-08
8.34905e-08
5.00986e-08
1.29199e-07
4.29237e-09
1.14382e-07
1.81171e-13
4.48864e-09
1.83082e-13
1.89486e-10
1.89089e-13
8.05325e-11
1.98584e-13
2.49201e-12
2.14442e-13
-7.34035e-15
6.21208e-12
-5.98932e-12
-1.19378e-09
1.30464e-11
-1.01014e-09
-9.91408e-13
-9.00284e-13
-1.69092e-13
-8.93686e-13
-6.6075e-15
-1.95764e-12
-7.12945e-15
1.47635e-12
5.46201e-13
1.47566e-12
-3.43604e-17
-1.19858e-09
1.86137e-12
3.86733e-10
-8.29326e-10
1.85201e-09
-4.93323e-09
7.55482e-09
-8.79557e-09
1.97977e-08
-2.56291e-14
-6.4341e-14
-5.50424e-16
-1.01656e-12
-1.1778e-13
-5.23211e-14
-1.40334e-15
-4.92773e-17
-3.09504e-16
-6.77503e-17
-2.84428e-16
5.4528e-13
-2.02161e-16
-9.86612e-16
5.69479e-10
-5.67619e-10
4.25375e-09
-7.1362e-10
-3.60789e-08
-1.13428e-09
-5.57553e-08
-2.46967e-10
-3.59576e-08
-2.32641e-11
5.62629e-13
-9.21222e-12
-9.97393e-13
-4.85622e-16
1.74054e-14
-4.9617e-16
-9.61194e-17
2.7781e-11
-2.77816e-11
-1.03482e-08
-7.93876e-09
-1.66264e-08
-1.19589e-08
-1.19175e-08
-1.24041e-08
-3.16266e-09
-9.29334e-09
-3.43859e-11
-4.13054e-09
3.83986e-11
-3.19751e-10
-1.46634e-10
-2.78333e-11
1.67039e-12
-4.92029e-12
-2.83175e-13
-6.12708e-16
-4.90187e-12
4.78661e-12
-4.78738e-12
-2.30331e-09
-1.09157e-10
-3.03844e-08
-1.09606e-08
-3.25421e-08
-2.19991e-08
-3.0615e-08
-2.72695e-08
-1.51846e-08
-3.81802e-08
-4.7832e-10
-2.88599e-08
-5.00954e-12
-7.93061e-10
-1.51643e-10
6.23985e-13
-6.45622e-16
3.41382e-13
1.28344e-18
-9.8516e-11
-7.06326e-11
2.23367e-10
-8.30467e-10
-1.21624e-09
-1.09394e-09
-5.23552e-09
-1.65522e-11
-8.9467e-09
-8.2724e-10
-1.76965e-08
-9.8785e-10
-2.49748e-08
-1.05686e-08
-1.49023e-09
-3.45325e-08
-5.6819e-11
-5.75905e-09
-2.08461e-10
-2.58316e-16
4.94243e-17
-6.13668e-15
5.17088e-15
-3.22259e-09
-1.10667e-11
-2.99422e-09
-4.06652e-14
-3.19304e-11
-3.61026e-11
-3.39665e-11
-4.427e-11
-2.99275e-11
-7.16787e-10
-1.76177e-11
-9.18512e-10
-1.04355e-08
-2.32349e-10
-3.813e-10
-9.30186e-10
1.82304e-10
-9.79101e-09
-5.02909e-09
-5.91562e-12
8.2027e-13
-3.10588e-11
2.28462e-12
-1.19814e-13
-3.82411e-15
-1.27724e-13
-3.27538e-14
-3.6114e-11
-1.16343e-13
-3.3639e-10
-1.87811e-10
-5.95339e-10
-1.26415e-09
-3.80429e-10
-1.0847e-09
2.07646e-11
-1.97947e-10
-9.09325e-10
-9.57823e-14
1.19619e-08
-1.96979e-08
-1.54325e-10
-1.36034e-10
3.08432e-10
-4.04985e-14
6.61923e-12
-4.91673e-14
4.8574e-15
-5.92328e-14
-2.27012e-14
-1.0221e-13
-7.33538e-14
-6.25651e-10
-2.40891e-11
-7.13327e-10
-5.53906e-10
-3.95569e-10
-1.74566e-09
1.22997e-11
-1.21437e-10
1.23269e-11
-1.22927e-13
2.42957e-08
-6.23688e-08
3.31008e-08
9.44006e-12
7.7156e-11
4.76497e-14
4.06861e-11
2.87727e-14
2.37238e-14
3.00453e-14
-2.39603e-14
2.2364e-13
9.40706e-12
7.76813e-12
-9.77189e-13
-3.75112e-12
-7.79101e-14
-1.44569e-11
-1.05778e-13
7.92862e-13
-1.67362e-11
8.2085e-13
-1.50956e-13
1.06662e-07
-1.16524e-07
3.5244e-07
1.41334e-11
3.23045e-12
1.74938e-13
5.46386e-11
1.73702e-13
1.87522e-14
1.57245e-10
-5.01809e-10
3.59843e-12
-3.0422e-10
7.12791e-14
-4.64832e-16
5.86154e-14
-6.52678e-14
3.70385e-14
-8.41796e-14
2.85939e-13
1.43879e-12
2.8097e-13
-1.45943e-13
1.95801e-07
3.05872e-10
1.0944e-06
3.5539e-12
-1.77684e-13
2.04083e-08
1.26124e-09
2.6163e-08
1.64186e-09
1.04497e-08
3.72307e-10
1.17786e-10
1.36602e-10
1.52247e-13
1.17633e-10
1.41334e-13
-5.43319e-14
1.15291e-13
-5.81587e-14
6.71018e-14
1.48702e-12
4.28418e-14
-1.21742e-13
4.90843e-08
-4.87783e-08
1.30472e-06
4.79762e-10
8.93726e-12
1.55473e-09
6.10102e-11
5.93408e-10
9.94571e-10
2.47844e-13
9.65467e-10
7.14984e-10
-5.78135e-10
3.51622e-08
-7.36915e-09
2.78727e-07
-1.78968e-07
7.61592e-07
-4.42272e-07
9.46398e-07
-3.62225e-07
7.69616e-07
-4.40889e-07
2.07404e-07
-1.15751e-07
1.73641e-06
3.97995e-07
6.2066e-07
-1.19012e-06
2.23366e-07
2.53131e-07
1.0111e-07
-5.74934e-08
1.0965e-07
2.23931e-08
1.85034e-07
-1.7177e-08
1.45101e-07
1.07365e-07
6.79985e-08
2.74058e-07
1.935e-16
7.35992e-08
1.65094e-16
4.93725e-09
2.1305e-16
1.30138e-16
2.20898e-16
-9.02996e-14
-6.40543e-17
2.14192e-16
1.99778e-06
8.33264e-07
-2.30388e-06
1.48113e-06
4.91157e-07
7.04637e-07
-3.11675e-07
3.89729e-07
-3.34898e-07
5.45408e-07
-5.45743e-08
9.34905e-07
2.68477e-07
7.22586e-07
8.74423e-07
7.69647e-08
9.84128e-07
-5.91903e-11
2.4824e-07
-3.06845e-14
-5.91595e-11
3.7269e-13
-2.67078e-15
3.72261e-13
3.18657e-16
2.8219e-06
8.46106e-07
-2.83557e-06
2.77395e-06
5.39192e-07
2.63583e-06
-1.73646e-07
1.24911e-06
-6.79328e-07
8.7675e-07
-1.64771e-07
1.39395e-06
3.64909e-07
1.20918e-06
1.32995e-06
7.02477e-07
1.87407e-06
1.54767e-07
9.17974e-07
-3.91276e-11
-3.61882e-08
-3.91195e-11
-3.1604e-15
-1.54355e-10
8.75422e-11
3.21327e-06
8.24303e-07
-3.19083e-06
3.19561e-06
5.57053e-07
3.07902e-06
-5.70674e-08
2.822e-06
-4.22307e-07
1.4379e-06
-1.91771e-07
1.5052e-06
4.77935e-07
1.70566e-06
1.48348e-06
1.14579e-06