/*--------------------------------*- C++ -*----------------------------------*\
| =========                 |                                                 |
| \\      /  F ield         | OpenFOAM: The Open Source CFD Toolbox           |
|  \\    /   O peration     | Version:  2.4.0                                 |
|   \\  /    A nd           | Web:      www.OpenFOAM.org                      |
|    \\/     M anipulation  |                                                 |
\*---------------------------------------------------------------------------*/
FoamFile
{
    version     2.0;
    format      ascii;
    class       volVectorField;
    location    "4.5";
    object      U;
}
// * * * * * * * * * * * * * * * * * * * * * * * * * * * * * * * * * * * * * //

dimensions      [0 1 -1 0 0 0 0];

internalField   nonuniform List<vector> 
4608
(
(0.00620714 0.135989 0)
(0.0165834 0.134846 0)
(0.0261639 0.13347 -2.77389e-26)
(0.0354749 0.1318 -2.80479e-26)
(0.0447077 0.129796 0)
(0.053871 0.127425 0)
(0.0631379 0.12465 -1.14731e-25)
(0.0721389 0.121581 -5.90351e-26)
(0.0808788 0.118024 4.19783e-27)
(0.0893869 0.113847 -9.7126e-26)
(0.0975699 0.109021 -1.17504e-25)
(0.105249 0.103538 -1.51824e-26)
(0.00409242 0.157412 0)
(0.0142414 0.157456 -9.82717e-27)
(0.0253605 0.15726 7.43578e-27)
(0.0369932 0.156679 0)
(0.0489232 0.155729 1.07252e-25)
(0.0609297 0.154368 -1.32524e-26)
(0.073104 0.152316 -1.90575e-25)
(0.0850156 0.149789 0)
(0.0964853 0.146863 2.41473e-25)
(0.107618 0.143128 2.5605e-26)
(0.118114 0.138571 -1.63322e-25)
(0.127694 0.133206 0)
(0.00709519 0.178016 0)
(0.0210332 0.177975 5.33416e-26)
(0.0350479 0.177713 0)
(0.0492076 0.177062 -1.67752e-26)
(0.0634206 0.175894 8.59465e-26)
(0.0774874 0.174181 3.05501e-25)
(0.0916232 0.171823 2.53285e-25)
(0.105494 0.168737 3.43116e-25)
(0.118541 0.165059 4.17876e-25)
(0.130849 0.160718 0)
(0.142174 0.15567 -2.85505e-25)
(0.152273 0.149935 0)
(0.00829963 0.199122 2.88004e-26)
(0.0249131 0.199108 6.35065e-26)
(0.0414579 0.198803 0)
(0.0579065 0.197958 2.27502e-25)
(0.0742578 0.196384 -9.02798e-26)
(0.0902683 0.194066 5.79039e-25)
(0.106029 0.19081 2.98552e-25)
(0.121183 0.186801 3.07799e-25)
(0.135482 0.182285 0)
(0.148804 0.177279 6.53024e-25)
(0.160922 0.171814 -4.22923e-25)
(0.171656 0.165963 -2.04085e-25)
(0.0100009 0.220005 3.14123e-26)
(0.0292298 0.21979 1.57138e-25)
(0.0480021 0.218944 -1.46524e-25)
(0.0663897 0.217389 3.01488e-25)
(0.0842001 0.214952 0)
(0.10133 0.211514 4.9082e-25)
(0.118198 0.207041 2.57904e-25)
(0.134472 0.201851 -1.71294e-25)
(0.14978 0.196168 -2.54639e-25)
(0.163906 0.190136 1.57654e-24)
(0.176685 0.18387 8.26107e-25)
(0.188033 0.177484 -9.21127e-25)
(0.01164 0.241035 0)
(0.0331424 0.240897 1.59378e-25)
(0.0537146 0.23956 -1.62815e-25)
(0.0733055 0.236833 -3.34684e-25)
(0.0920042 0.232705 -9.106e-26)
(0.110065 0.227659 4.88405e-26)
(0.127859 0.221646 2.90244e-25)
(0.144981 0.214906 -1.94271e-25)
(0.160995 0.207773 -2.84008e-25)
(0.17564 0.200419 1.51722e-24)
(0.188808 0.192991 7.71554e-25)
(0.200515 0.185625 -7.83762e-25)
(0.0136702 0.26221 1.48393e-27)
(0.0369265 0.262636 2.39224e-26)
(0.0584014 0.260775 0)
(0.0783811 0.256771 -3.70748e-25)
(0.0977421 0.250702 6.55597e-25)
(0.116599 0.243557 -9.19179e-25)
(0.135094 0.235432 -7.7226e-25)
(0.152908 0.226765 -7.74152e-25)
(0.169438 0.217969 -7.77592e-25)
(0.184324 0.209106 7.85002e-25)
(0.1975 0.200228 -1.43383e-24)
(0.209113 0.191463 1.83144e-24)
(0.0166993 0.283596 0)
(0.0410014 0.285497 0)
(0.062227 0.283084 3.93559e-25)
(0.0816387 0.27747 0)
(0.101187 0.268966 7.21066e-25)
(0.120639 0.259258 -1.5036e-25)
(0.139811 0.248625 -8.15227e-25)
(0.15847 0.237814 -8.03705e-25)
(0.175605 0.2274 -7.95328e-25)
(0.190567 0.217167 -1.59555e-24)
(0.203418 0.206816 -1.61028e-24)
(0.214596 0.196337 1.62637e-24)
(0.0214049 0.304983 1.00011e-25)
(0.0458953 0.309465 4.50943e-25)
(0.0651669 0.306602 1.57965e-34)
(0.082358 0.298627 -1.20295e-25)
(0.101554 0.286375 -2.3757e-25)
(0.121777 0.273725 -1.28971e-25)
(0.141992 0.260593 -1.69259e-24)
(0.162003 0.247678 1.23844e-25)
(0.180163 0.236061 2.55803e-25)
(0.19509 0.225031 -1.59534e-24)
(0.207133 0.213533 1.64164e-25)
(0.217226 0.201144 -1.39765e-24)
(0.0284405 0.326566 8.47308e-36)
(0.0515875 0.334331 4.34711e-25)
(0.0658386 0.329349 -4.38889e-25)
(0.0787209 0.317739 0)
(0.0976943 0.300836 -6.93889e-26)
(0.119812 0.28533 8.06158e-25)
(0.141726 0.270247 -1.71105e-24)
(0.163926 0.255669 0)
(0.183832 0.243666 1.55321e-24)
(0.198331 0.232797 0)
(0.208835 0.220506 1.66459e-25)
(0.217311 0.206416 -2.9748e-24)
(0.0387354 0.347163 -8.22154e-26)
(0.0562348 0.354035 4.30775e-25)
(0.0615023 0.344312 8.40101e-25)
(0.0691373 0.329331 7.48554e-25)
(0.0890722 0.307617 -1.15824e-25)
(0.115 0.290411 3.53494e-24)
(0.13955 0.275608 0)
(0.164998 0.260606 3.58835e-26)
(0.188071 0.250028 1.27785e-24)
(0.201121 0.241167 0)
(0.208093 0.227738 -1.71379e-24)
(0.213298 0.211787 -1.74688e-24)
(0.0272638 0.350201 2.31812e-25)
(0.0439784 0.348703 -1.43912e-34)
(0.045634 0.335349 2.77218e-34)
(0.0499536 0.324116 8.36002e-25)
(0.0725262 0.30163 1.87396e-24)
(0.106285 0.284892 3.25999e-24)
(0.135317 0.275741 1.53815e-24)
(0.166379 0.263213 0)
(0.194993 0.255111 0)
(0.204018 0.250431 0)
(0.203833 0.23596 -1.32407e-24)
(0.205153 0.216912 -2.84379e-24)
(0.112327 0.0973538 -6.53981e-26)
(0.1186 0.0905264 -9.48953e-26)
(0.124102 0.082836 -2.35179e-25)
(0.128862 0.0743071 2.49948e-25)
(0.132557 0.065414 0)
(0.135018 0.0563512 2.72322e-26)
(0.136483 0.0469305 9.37736e-26)
(0.137226 0.0373227 0)
(0.13743 0.0277397 0)
(0.13726 0.0183668 0)
(0.136864 0.00963113 1.20688e-26)
(0.136287 0.00232586 5.4767e-27)
(0.13616 0.126885 -1.76408e-26)
(0.143154 0.11965 -6.08017e-26)
(0.148912 0.111365 -2.29142e-25)
(0.153497 0.102058 2.22054e-26)
(0.156591 0.092073 6.9737e-27)
(0.158422 0.081723 -9.25675e-26)
(0.15941 0.0706832 6.83022e-26)
(0.15974 0.0590083 -5.42385e-26)
(0.159421 0.0469713 -1.31702e-25)
(0.158565 0.0344508 0)
(0.15753 0.0215076 2.41517e-26)
(0.156953 0.00783057 1.08695e-26)
(0.160967 0.143488 -5.88856e-25)
(0.168352 0.136379 0)
(0.174165 0.128316 0)
(0.178195 0.119099 -2.8714e-25)
(0.180762 0.108761 0)
(0.181959 0.0974432 -1.14167e-25)
(0.182413 0.0847265 2.0121e-25)
(0.182648 0.0711224 -1.84717e-25)
(0.182299 0.0574289 -1.18095e-25)
(0.181206 0.0427376 0)
(0.179634 0.0268325 5.47935e-26)
(0.178374 0.00926185 -2.40367e-26)
(0.180889 0.159752 -8.19557e-25)
(0.188518 0.153131 -6.30521e-26)
(0.194605 0.14584 -7.7718e-25)
(0.199086 0.137604 7.79292e-25)
(0.201674 0.127927 9.83974e-26)
(0.202437 0.116209 -3.2783e-25)
(0.202596 0.101197 -1.51713e-25)
(0.203595 0.0845281 -1.86759e-25)
(0.204019 0.0699976 2.86774e-25)
(0.203151 0.0537412 0)
(0.201502 0.0355458 4.39305e-26)
(0.199599 0.0133286 -9.59369e-26)
(0.197917 0.171064 7.53864e-25)
(0.206318 0.164628 -7.39044e-25)
(0.21328 0.1581 -7.81263e-25)
(0.21882 0.151362 7.62596e-25)
(0.22243 0.144157 -2.14827e-25)
(0.223717 0.134771 -1.84696e-25)
(0.222978 0.119296 -1.7488e-25)
(0.222361 0.0970582 -3.95127e-26)
(0.222563 0.078793 3.37899e-25)
(0.22253 0.0619141 1.72489e-25)
(0.221794 0.0429527 -2.21293e-25)
(0.220936 0.0176866 -4.16269e-26)
(0.210834 0.178478 7.93909e-25)
(0.219794 0.171604 -8.11531e-25)
(0.227574 0.164863 -8.76294e-25)
(0.234752 0.158515 -5.19066e-26)
(0.240868 0.153847 0)
(0.24441 0.14918 -6.03859e-25)
(0.245975 0.138139 2.52855e-26)
(0.24459 0.115984 -4.65807e-25)
(0.238453 0.0926484 0)
(0.234144 0.0686891 1.47732e-25)
(0.236519 0.0454187 -1.56915e-25)
(0.241498 0.02021 4.25647e-26)
(0.219359 0.183136 0)
(0.228147 0.175402 0)
(0.235872 0.167769 -1.66985e-24)
(0.243224 0.159713 0)
(0.249792 0.153803 -2.86516e-25)
(0.255462 0.152158 -7.41861e-25)
(0.259796 0.14816 1.18409e-24)
(0.261251 0.133916 4.29712e-25)
(0.258935 0.112165 2.35391e-25)
(0.252498 0.0823938 -2.62477e-25)
(0.252806 0.0428866 -6.29155e-26)
(0.262076 0.0197526 1.62503e-26)
(0.224651 0.186383 8.17541e-26)
(0.233327 0.177568 1.83234e-24)
(0.241397 0.169032 9.31488e-25)
(0.249478 0.159871 -1.66943e-24)
(0.257578 0.152152 -1.64062e-24)
(0.263704 0.149592 -8.52134e-25)
(0.270068 0.147718 1.07697e-24)
(0.27681 0.142296 1.96416e-24)
(0.275735 0.129241 0)
(0.270891 0.0998876 -4.15677e-25)
(0.268995 0.0440543 1.93363e-25)
(0.278068 0.0111812 9.35069e-26)
(0.226447 0.188542 1.53556e-24)
(0.234161 0.177622 1.46585e-24)
(0.241149 0.167437 1.61872e-24)
(0.248729 0.157193 -1.6707e-24)
(0.257696 0.147605 -1.88094e-24)
(0.266429 0.143708 -9.48545e-25)
(0.275036 0.142173 7.35803e-25)
(0.282439 0.139997 1.59442e-24)
(0.287636 0.135353 -1.74514e-25)
(0.290743 0.112061 0)
(0.291523 0.0478923 1.17337e-25)
(0.298293 0.0055648 7.56678e-26)
(0.224702 0.191389 1.49507e-24)
(0.230366 0.177537 -1.26609e-25)
(0.235315 0.164519 0)
(0.241899 0.151146 -1.53988e-24)
(0.251591 0.139156 0)
(0.263155 0.133724 0)
(0.27267 0.133354 7.88596e-25)
(0.283445 0.13086 -1.70566e-26)
(0.296803 0.126956 -1.03467e-25)
(0.315577 0.109031 1.16485e-24)
(0.323105 0.0448857 -3.78719e-27)
(0.320625 -0.00083737 8.69918e-27)
(0.218474 0.1946 -1.71704e-26)
(0.222001 0.178573 -1.49724e-24)
(0.224724 0.162632 0)
(0.229141 0.14405 -1.3856e-24)
(0.237474 0.12633 -1.05549e-25)
(0.251945 0.118199 0)
(0.263307 0.120416 -1.10474e-24)
(0.277427 0.117059 -7.73374e-25)
(0.294734 0.112458 -6.24437e-26)
(0.320134 0.100902 2.42149e-24)
(0.334082 0.057298 0)
(0.335525 -0.00192635 1.03566e-25)
(0.208427 0.197385 -2.65583e-24)
(0.210487 0.180588 -1.2521e-24)
(0.211354 0.164582 0)
(0.212673 0.143488 0)
(0.216332 0.115991 1.10264e-24)
(0.229446 0.0953409 -1.10871e-24)
(0.240618 0.0978852 -3.17123e-27)
(0.259334 0.0993384 3.36767e-25)
(0.280881 0.0929239 -9.92709e-25)
(0.308185 0.0803184 6.51319e-25)
(0.32567 0.0440529 1.9168e-25)
(0.338721 -0.0234292 2.10113e-25)
(0.136098 -0.00658272 6.42681e-27)
(0.135494 -0.0175584 -1.24236e-26)
(0.134964 -0.027629 5.60304e-26)
(0.134235 -0.0373654 0)
(0.133185 -0.0469423 1.33184e-27)
(0.131654 -0.0564294 -1.61128e-26)
(0.129459 -0.0662798 4.33366e-26)
(0.126806 -0.0760106 0)
(0.123606 -0.0849523 -6.67043e-26)
(0.119316 -0.0934465 -6.75907e-26)
(0.114075 -0.101384 -1.4044e-25)
(0.107971 -0.108427 -4.70798e-26)
(0.157566 -0.00541382 1.10442e-26)
(0.158655 -0.0175845 -6.89919e-26)
(0.160132 -0.0301193 -6.54404e-26)
(0.161469 -0.0427771 1.51458e-25)
(0.162401 -0.0553678 -1.79137e-26)
(0.162734 -0.0679779 -5.415e-26)
(0.16208 -0.0810356 0)
(0.160544 -0.0933297 0)
(0.158291 -0.104008 2.06827e-25)
(0.154714 -0.11392 1.53432e-25)
(0.149705 -0.122992 -3.09152e-25)
(0.143663 -0.130433 1.85861e-25)
(0.178139 -0.00994868 -1.07839e-26)
(0.179333 -0.0276297 -1.16874e-25)
(0.181063 -0.0439307 -1.11558e-25)
(0.18278 -0.0594397 1.18572e-25)
(0.184042 -0.0743807 0)
(0.18457 -0.0890366 0)
(0.18396 -0.103381 0)
(0.182435 -0.116404 0)
(0.180308 -0.128077 1.57666e-35)
(0.177202 -0.138989 3.13681e-25)
(0.172804 -0.148708 -3.13237e-25)
(0.167639 -0.156631 3.13782e-25)
(0.199207 -0.0129321 2.90679e-26)
(0.200401 -0.0351857 -4.05895e-26)
(0.202107 -0.0550251 8.37797e-26)
(0.203865 -0.073143 -3.99795e-26)
(0.205114 -0.0900715 1.46319e-25)
(0.205434 -0.106135 0)
(0.204533 -0.121417 0)
(0.202736 -0.135484 0)
(0.200344 -0.148382 -1.0633e-24)
(0.197313 -0.160139 0)
(0.193666 -0.170401 4.24072e-25)
(0.189478 -0.178745 9.31171e-26)
(0.220075 -0.0160579 9.23288e-26)
(0.220876 -0.0426757 -1.3815e-25)
(0.221976 -0.0659139 0)
(0.223281 -0.0863266 -4.76814e-25)
(0.224002 -0.104601 4.36037e-26)
(0.223569 -0.121401 -1.89562e-25)
(0.221814 -0.137196 0)
(0.219017 -0.151954 0)
(0.215614 -0.165645 -7.81523e-25)
(0.211888 -0.178114 0)
(0.208103 -0.18904 8.1187e-25)
(0.204453 -0.198041 0)
(0.240953 -0.018641 3.28071e-36)
(0.240954 -0.0488865 -1.53185e-25)
(0.240851 -0.0754222 0)
(0.241474 -0.0978163 3.18994e-34)
(0.241553 -0.116886 -1.91238e-25)
(0.239975 -0.133807 -2.25645e-25)
(0.236641 -0.149521 0)
(0.232091 -0.16438 -2.7092e-25)
(0.2269 -0.178362 -1.09325e-25)
(0.221612 -0.19116 -7.39425e-25)
(0.216738 -0.202458 -1.04984e-24)
(0.212775 -0.211852 0)
(0.261867 -0.020435 3.89814e-26)
(0.261176 -0.052838 6.30876e-26)
(0.258724 -0.0825432 -2.30428e-25)
(0.25782 -0.107368 5.24495e-25)
(0.257963 -0.126917 2.93371e-25)
(0.255237 -0.142946 -1.08278e-24)
(0.249763 -0.157791 -5.11051e-25)
(0.242929 -0.172336 1.12272e-25)
(0.23531 -0.186134 -1.22329e-24)
(0.227646 -0.198768 -8.82686e-25)
(0.220667 -0.21003 -9.60441e-25)
(0.2153 -0.219578 -9.53171e-26)
(0.283563 -0.0231475 8.66031e-26)
(0.284686 -0.0569301 -1.96093e-25)
(0.280828 -0.0889314 -3.89529e-25)
(0.27506 -0.11652 1.42771e-24)
(0.271497 -0.13558 1.32093e-24)
(0.268281 -0.149076 -1.1393e-24)
(0.261673 -0.162614 -4.4379e-25)
(0.252692 -0.176464 -2.8855e-25)
(0.242499 -0.189559 -1.49234e-24)
(0.231946 -0.20151 -2.78674e-25)
(0.222017 -0.212401 -5.51848e-26)
(0.214209 -0.222152 -7.4977e-26)
(0.305929 -0.0285469 -1.82508e-25)
(0.310287 -0.0614817 -2.21834e-25)
(0.305243 -0.0919259 -2.45919e-25)
(0.295625 -0.120126 1.17719e-24)
(0.287036 -0.140271 0)
(0.281901 -0.153652 2.91981e-25)
(0.274255 -0.165538 3.94207e-25)
(0.262891 -0.177928 1.50446e-24)
(0.250011 -0.189566 1.45645e-24)
(0.236174 -0.200265 0)
(0.222502 -0.210478 2.01726e-26)
(0.211266 -0.220681 1.13851e-25)
(0.329385 -0.0381482 -1.28731e-25)
(0.338539 -0.0665758 -9.18657e-26)
(0.329848 -0.0921746 2.68678e-25)
(0.317215 -0.119049 -5.31228e-25)
(0.303728 -0.141382 -3.86523e-25)
(0.296314 -0.156706 7.51295e-25)
(0.287899 -0.166566 2.17573e-25)
(0.273513 -0.176615 2.08333e-24)
(0.258048 -0.186069 3.64178e-24)
(0.240711 -0.19502 1.80121e-24)
(0.222571 -0.204249 3.01354e-26)
(0.207108 -0.215123 -1.6601e-24)
(0.354958 -0.0549217 2.1084e-25)
(0.369185 -0.0715812 -1.46123e-25)
(0.350184 -0.0890229 1.31534e-24)
(0.331691 -0.113802 0)
(0.311796 -0.137997 2.05328e-24)
(0.302915 -0.157073 5.6607e-26)
(0.296524 -0.163196 2.15811e-25)
(0.27971 -0.170637 1.23602e-24)
(0.263503 -0.177109 1.41026e-24)
(0.243532 -0.18417 1.7232e-24)
(0.221071 -0.19245 -1.71489e-24)
(0.201246 -0.203987 -1.76057e-24)
(0.378921 -0.0701585 -1.71337e-25)
(0.38421 -0.0571066 -1.43192e-24)
(0.353271 -0.0686478 0)
(0.329396 -0.0965927 0)
(0.304778 -0.127162 1.9449e-24)
(0.295334 -0.151118 -1.65921e-24)
(0.290566 -0.148487 -1.38052e-24)
(0.272039 -0.155465 1.62736e-24)
(0.258503 -0.157852 -2.3446e-24)
(0.238444 -0.164826 0)
(0.216201 -0.173364 -1.30484e-24)
(0.194714 -0.184627 2.71354e-25)
(0.100661 -0.114717 -1.62553e-26)
(0.092499 -0.11986 -2.38913e-25)
(0.0836662 -0.12374 5.83254e-26)
(0.0743679 -0.126483 2.66992e-25)
(0.0647867 -0.128387 1.38265e-25)
(0.0547578 -0.130277 -5.0536e-36)
(0.0453867 -0.131875 -1.06176e-25)
(0.036077 -0.133112 -1.07839e-26)
(0.0267854 -0.134298 5.35397e-26)
(0.0178653 -0.135413 -2.73385e-26)
(0.00944805 -0.136118 7.49121e-27)
(0.00220227 -0.13617 -2.84137e-27)
(0.136031 -0.136668 2.80921e-25)
(0.127235 -0.141466 -2.63338e-25)
(0.117294 -0.144723 -2.11049e-25)
(0.105983 -0.146674 5.02715e-25)
(0.0931012 -0.148111 2.30382e-25)
(0.0786194 -0.149837 -1.88882e-25)
(0.0658051 -0.150963 -1.07293e-25)
(0.0537323 -0.151995 -2.73565e-26)
(0.0410281 -0.153686 2.19291e-25)
(0.0292928 -0.155419 3.87333e-26)
(0.0180313 -0.156531 -5.24637e-26)
(0.00645578 -0.156977 1.32653e-26)
(0.161078 -0.162875 -5.58923e-26)
(0.152928 -0.166933 3.06001e-25)
(0.143181 -0.168926 -2.96892e-25)
(0.131242 -0.169378 2.85316e-25)
(0.116212 -0.169102 0)
(0.0978764 -0.168513 -2.23837e-25)
(0.0798059 -0.167116 2.213e-25)
(0.0611216 -0.168368 -1.06666e-25)
(0.0438982 -0.17244 -8.1588e-27)
(0.0303137 -0.175878 1.03404e-25)
(0.0182802 -0.177659 -1.07526e-25)
(0.00629138 -0.178191 1.22111e-26)
(0.184468 -0.185105 7.43408e-25)
(0.178433 -0.189114 5.05434e-25)
(0.170696 -0.190762 -9.3438e-26)
(0.1602 -0.190456 -1.99517e-25)
(0.145491 -0.188948 6.5018e-25)
(0.1253 -0.18699 -5.888e-25)
(0.101281 -0.18657 4.49586e-25)
(0.0732631 -0.189761 1.43545e-25)
(0.0490106 -0.194826 -1.2696e-25)
(0.0340551 -0.198712 -5.89172e-26)
(0.0215966 -0.199539 1.73417e-27)
(0.00804231 -0.199242 -3.15472e-27)
(0.200936 -0.20479 1.54207e-24)
(0.197213 -0.209022 -8.78095e-25)
(0.192408 -0.210625 0)
(0.184864 -0.209926 0)
(0.172076 -0.207785 1.47454e-24)
(0.151339 -0.20585 1.42951e-25)
(0.122042 -0.206286 1.20297e-25)
(0.0868674 -0.210544 2.06408e-25)
(0.0535633 -0.21753 2.31064e-25)
(0.0385169 -0.221949 2.95026e-26)
(0.0264209 -0.221536 1.00846e-25)
(0.0105173 -0.220361 2.99029e-27)
(0.209994 -0.218966 8.58413e-25)
(0.208258 -0.223548 -8.48822e-25)
(0.206791 -0.225286 -3.04644e-25)
(0.203445 -0.224353 1.07602e-25)
(0.194381 -0.221656 1.22954e-24)
(0.174218 -0.219548 -1.23224e-25)
(0.139064 -0.221604 8.12617e-25)
(0.0972032 -0.232144 2.95037e-25)
(0.0603894 -0.241104 5.47932e-25)
(0.0428953 -0.242187 0)
(0.0318074 -0.240544 0)
(0.012336 -0.239998 0)
(0.212181 -0.226944 0)
(0.211571 -0.232096 1.72882e-24)
(0.213355 -0.234372 0)
(0.21531 -0.233457 0)
(0.212745 -0.229969 -6.26483e-25)
(0.197397 -0.22632 -7.00302e-25)
(0.156183 -0.225761 2.00216e-25)
(0.0976045 -0.242321 -1.103e-25)
(0.0680136 -0.260677 3.19651e-25)
(0.0543295 -0.259958 -4.12229e-25)
(0.0418818 -0.25562 2.34775e-25)
(0.0118595 -0.258057 -9.01387e-26)
(0.209573 -0.230001 -1.88662e-24)
(0.208726 -0.23662 1.59968e-24)
(0.21286 -0.241017 1.69843e-24)
(0.220068 -0.242102 1.76861e-24)
(0.225587 -0.24058 1.91509e-24)
(0.220207 -0.238559 2.03278e-24)
(0.181279 -0.238383 -6.14464e-25)
(0.0983676 -0.250748 -6.28102e-25)
(0.0612026 -0.265911 -9.47083e-26)
(0.055898 -0.27296 -8.93605e-25)
(0.0397323 -0.280013 2.67127e-25)
(0.00476785 -0.282189 -8.4952e-26)
(0.203884 -0.229189 -1.80978e-24)
(0.200943 -0.238076 -1.44326e-25)
(0.205405 -0.246469 2.93081e-24)
(0.215998 -0.251452 1.64578e-24)
(0.227329 -0.255228 2.06821e-24)
(0.230759 -0.261345 1.24576e-24)
(0.20295 -0.27509 -3.59234e-25)
(0.115269 -0.283952 4.72761e-26)
(0.0644455 -0.284894 1.02505e-24)
(0.0500648 -0.292856 -1.64986e-25)
(0.0341492 -0.30483 -1.10071e-26)
(0.00936633 -0.305732 1.98407e-26)
(0.195881 -0.224127 0)
(0.188746 -0.234961 -1.58495e-24)
(0.191223 -0.248154 -1.81395e-34)
(0.203756 -0.255853 0)
(0.216891 -0.261928 -2.12755e-25)
(0.224175 -0.273767 -1.13582e-25)
(0.213743 -0.297122 0)
(0.140812 -0.309857 0)
(0.073836 -0.30773 1.53497e-24)
(0.0496142 -0.319915 -7.66085e-25)
(0.0373713 -0.324701 0)
(0.0133636 -0.323717 -1.14397e-25)
(0.184993 -0.213305 2.35365e-25)
(0.171985 -0.224092 3.69647e-25)
(0.170476 -0.242567 -1.6925e-24)
(0.186204 -0.25076 0)
(0.199802 -0.25322 0)
(0.20178 -0.266209 0)
(0.199883 -0.296698 2.83474e-24)
(0.159479 -0.320563 0)
(0.0820595 -0.314906 1.59857e-24)
(0.0428786 -0.315068 -4.70297e-35)
(0.0349374 -0.323894 -4.96114e-25)
(0.012687 -0.340514 -2.92282e-25)
(0.175931 -0.19492 0)
(0.156436 -0.201145 3.04686e-24)
(0.136664 -0.225331 -1.66607e-25)
(0.156798 -0.227812 -1.39488e-25)
(0.1799 -0.221186 0)
(0.173864 -0.233647 2.25773e-24)
(0.169149 -0.262239 2.38537e-24)
(0.157769 -0.286952 4.73774e-25)
(0.0974748 -0.28696 6.64094e-25)
(0.0395643 -0.283833 8.71583e-25)
(0.00964773 -0.294006 -2.00603e-26)
(-0.0211021 -0.332485 -6.73908e-26)
(-0.00664887 -0.136109 8.7061e-27)
(-0.0175689 -0.135449 6.60625e-27)
(-0.0275041 -0.134784 -6.07578e-27)
(-0.0368792 -0.133906 9.76314e-27)
(-0.0455629 -0.132761 9.43574e-26)
(-0.0534169 -0.131064 -1.03999e-25)
(-0.0621801 -0.127985 -1.07708e-25)
(-0.070653 -0.123967 0)
(-0.0807491 -0.118835 -7.72987e-26)
(-0.0895441 -0.114649 6.13964e-27)
(-0.0979819 -0.109702 4.6472e-26)
(-0.107051 -0.103736 1.29833e-25)
(-0.00521017 -0.157458 1.0774e-26)
(-0.0167795 -0.15781 4.93241e-26)
(-0.0287459 -0.158088 -1.00251e-25)
(-0.040772 -0.158034 0)
(-0.0526994 -0.157948 1.03601e-25)
(-0.0634415 -0.15864 -1.25316e-25)
(-0.0740784 -0.158736 3.46676e-26)
(-0.0836883 -0.157015 3.26631e-26)
(-0.0990059 -0.150971 3.27879e-25)
(-0.110131 -0.14712 0)
(-0.120976 -0.141214 2.78229e-25)
(-0.13316 -0.13354 0)
(-0.00819822 -0.177936 5.69073e-26)
(-0.0234028 -0.177857 1.1388e-25)
(-0.0377745 -0.177624 -2.19151e-25)
(-0.0517472 -0.176931 1.85206e-26)
(-0.0666104 -0.175469 2.85719e-26)
(-0.080311 -0.174319 1.46785e-25)
(-0.0921159 -0.17373 -6.73348e-26)
(-0.103606 -0.173035 -1.65447e-25)
(-0.119169 -0.16694 4.71197e-25)
(-0.130185 -0.162388 1.0897e-25)
(-0.143154 -0.157739 5.33054e-25)
(-0.156641 -0.15009 -4.85233e-25)
(-0.00983485 -0.199202 2.76575e-26)
(-0.0282674 -0.199749 1.4071e-25)
(-0.0456924 -0.200318 -4.87757e-26)
(-0.0628181 -0.20061 -3.86196e-25)
(-0.081213 -0.20011 0)
(-0.0977593 -0.199124 5.16677e-25)
(-0.110379 -0.197777 5.42758e-25)
(-0.120413 -0.194986 5.40194e-27)
(-0.135138 -0.187564 -3.16528e-25)
(-0.150872 -0.180505 6.93991e-25)
(-0.16784 -0.174324 5.41996e-25)
(-0.18227 -0.167622 -1.7312e-24)
(-0.0123689 -0.220095 3.87394e-36)
(-0.0342523 -0.220681 2.34439e-25)
(-0.054248 -0.221031 5.75577e-26)
(-0.073145 -0.220729 -3.07242e-25)
(-0.0915856 -0.218507 -1.18828e-25)
(-0.107139 -0.214619 -1.40315e-25)
(-0.118662 -0.211245 3.56344e-25)
(-0.131573 -0.208558 0)
(-0.150148 -0.20395 -1.39765e-24)
(-0.169846 -0.195601 7.25886e-25)
(-0.187296 -0.18672 7.38446e-25)
(-0.201071 -0.179463 -1.58906e-24)
(-0.0147904 -0.241013 1.09868e-25)
(-0.0398778 -0.241456 1.82789e-25)
(-0.061957 -0.241561 -1.6235e-25)
(-0.0817258 -0.240734 -4.66242e-25)
(-0.0998621 -0.237891 4.15677e-26)
(-0.11613 -0.233287 7.49191e-26)
(-0.130567 -0.228911 3.39639e-25)
(-0.146227 -0.224108 -2.48641e-25)
(-0.164398 -0.217058 -3.36342e-25)
(-0.183453 -0.206863 7.83532e-25)
(-0.1997 -0.196051 2.0659e-25)
(-0.21284 -0.18686 -5.44843e-25)
(-0.0170065 -0.261918 1.57772e-25)
(-0.0450683 -0.262054 -4.39891e-26)
(-0.0690578 -0.261912 -8.94691e-26)
(-0.0894541 -0.261125 -2.21996e-25)
(-0.107328 -0.257734 4.40934e-25)
(-0.124143 -0.251919 3.27793e-25)
(-0.140283 -0.245334 -6.38213e-25)
(-0.157032 -0.237763 -6.24587e-25)
(-0.174569 -0.22848 4.71381e-25)
(-0.192022 -0.216964 1.59703e-34)
(-0.207417 -0.204492 -1.45792e-24)
(-0.220336 -0.192939 2.83901e-25)
(-0.0187537 -0.282928 8.78591e-26)
(-0.0490139 -0.282173 4.16587e-26)
(-0.0765104 -0.280764 6.11003e-25)
(-0.0967445 -0.281336 1.25241e-24)
(-0.113272 -0.277435 5.59261e-26)
(-0.129798 -0.269739 6.64074e-25)
(-0.146461 -0.260765 0)
(-0.163314 -0.250581 0)
(-0.180315 -0.239006 0)
(-0.196731 -0.225829 -2.56571e-24)
(-0.211442 -0.211783 -3.39418e-24)
(-0.224047 -0.198134 1.68484e-24)
(-0.0217126 -0.304914 -1.91869e-25)
(-0.052403 -0.305522 -4.25294e-25)
(-0.0833811 -0.299785 3.96815e-25)
(-0.103942 -0.298477 1.71025e-25)
(-0.117312 -0.294914 2.15562e-25)
(-0.132784 -0.285652 -2.59048e-25)
(-0.149511 -0.27458 1.22007e-24)
(-0.166263 -0.262123 -3.26683e-25)
(-0.182816 -0.248465 -1.96225e-25)
(-0.198453 -0.233625 -2.00772e-24)
(-0.212492 -0.218081 -3.21521e-24)
(-0.224593 -0.202746 3.65705e-25)
(-0.0268876 -0.32693 -9.93254e-26)
(-0.0545136 -0.331351 -8.94372e-25)
(-0.0875898 -0.321148 1.04181e-25)
(-0.10948 -0.316503 -1.50765e-24)
(-0.118792 -0.310382 6.22379e-26)
(-0.132034 -0.297891 -1.66148e-25)
(-0.149034 -0.284924 1.81855e-24)
(-0.165815 -0.270922 0)
(-0.182184 -0.255776 1.72347e-24)
(-0.197316 -0.239704 1.67905e-24)
(-0.210846 -0.22297 -1.52736e-24)
(-0.222505 -0.206368 -1.4065e-24)
(-0.0397797 -0.348801 7.79915e-26)
(-0.0592865 -0.35551 -6.48556e-25)
(-0.0859809 -0.339817 -1.57342e-25)
(-0.104863 -0.322948 -1.00715e-24)
(-0.111985 -0.309622 -1.1425e-25)
(-0.126569 -0.298927 0)
(-0.144734 -0.286623 -1.01397e-25)
(-0.161783 -0.273415 -3.12982e-25)
(-0.17805 -0.258326 1.43699e-24)
(-0.192856 -0.242204 1.58514e-24)
(-0.206047 -0.225113 1.5426e-24)
(-0.217364 -0.207887 0)
(-0.0226987 -0.346032 4.68965e-25)
(-0.0409146 -0.34582 4.90823e-25)
(-0.063694 -0.324256 -1.03269e-24)
(-0.0842405 -0.307927 -2.30055e-25)
(-0.0977122 -0.29334 -1.32728e-25)
(-0.115816 -0.283109 -1.45081e-25)
(-0.135378 -0.273387 -1.5227e-25)
(-0.152358 -0.263366 -6.31328e-26)
(-0.168701 -0.25081 -1.36402e-25)
(-0.183522 -0.237028 0)
(-0.196662 -0.221644 1.40119e-24)
(-0.20785 -0.205316 2.7694e-24)
(-0.114479 -0.0983213 6.20613e-26)
(-0.121091 -0.0918092 2.23276e-25)
(-0.126888 -0.0844837 7.18809e-26)
(-0.13175 -0.076351 7.09395e-26)
(-0.135524 -0.0673095 0)
(-0.138544 -0.0571569 -4.66514e-26)
(-0.14076 -0.0468071 -4.17118e-26)
(-0.143248 -0.0348462 6.163e-26)
(-0.143046 -0.0289434 0)
(-0.140857 -0.0215811 -6.48336e-26)
(-0.138114 -0.012583 9.91499e-27)
(-0.136456 -0.00337 -8.71362e-27)
(-0.141648 -0.128745 -2.29739e-25)
(-0.149893 -0.12224 4.16007e-25)
(-0.156833 -0.114681 5.63969e-26)
(-0.162159 -0.106219 -1.66053e-25)
(-0.166067 -0.0967666 0)
(-0.168228 -0.0856608 0)
(-0.168326 -0.0742078 5.96388e-26)
(-0.163537 -0.0619859 -4.21907e-26)
(-0.158469 -0.0496208 9.00269e-26)
(-0.157258 -0.0397549 8.46057e-26)
(-0.156485 -0.026422 -5.94322e-26)
(-0.156524 -0.00843483 -9.64154e-27)
(-0.167873 -0.143385 -1.87207e-25)
(-0.177999 -0.137144 3.07126e-25)
(-0.185717 -0.130305 0)
(-0.191145 -0.122846 6.77076e-36)
(-0.194229 -0.114551 0)
(-0.195023 -0.105394 0)
(-0.193373 -0.0949379 0)
(-0.191811 -0.0849728 0)
(-0.190207 -0.0657766 -1.17587e-25)
(-0.185356 -0.0488914 1.16982e-25)
(-0.182474 -0.0303042 -1.35754e-26)
(-0.179667 -0.0103258 2.92742e-26)
(-0.194938 -0.159502 -1.73517e-25)
(-0.204124 -0.152882 -5.78071e-25)
(-0.211227 -0.146482 0)
(-0.216557 -0.13978 1.10817e-24)
(-0.220015 -0.132594 0)
(-0.221446 -0.124558 3.60239e-25)
(-0.220783 -0.115093 -3.48835e-25)
(-0.218309 -0.103903 1.5345e-25)
(-0.213935 -0.0880928 6.40985e-25)
(-0.208124 -0.069107 1.48776e-25)
(-0.202116 -0.0448063 1.88548e-25)
(-0.199024 -0.0176707 4.93843e-26)
(-0.213111 -0.171012 0)
(-0.222404 -0.163721 -8.06996e-25)
(-0.230172 -0.157013 0)
(-0.236475 -0.150841 8.12383e-25)
(-0.241003 -0.144866 0)
(-0.243621 -0.138663 4.03505e-25)
(-0.244201 -0.131448 -5.44075e-25)
(-0.242591 -0.121984 5.1263e-26)
(-0.238594 -0.108152 9.3744e-25)
(-0.232574 -0.0881183 0)
(-0.225249 -0.0594752 2.49483e-25)
(-0.220587 -0.0228221 -7.55146e-26)
(-0.224672 -0.177716 0)
(-0.234443 -0.169444 9.31023e-25)
(-0.242954 -0.162091 9.5353e-25)
(-0.249917 -0.155892 -1.1093e-25)
(-0.255428 -0.150611 7.61567e-27)
(-0.259475 -0.145935 0)
(-0.261954 -0.141156 -1.00947e-24)
(-0.262577 -0.13488 -1.46675e-25)
(-0.260798 -0.124672 -3.40499e-34)
(-0.256294 -0.106749 0)
(-0.249061 -0.0761815 1.98057e-25)
(-0.242472 -0.0299756 -8.73706e-26)
(-0.231771 -0.182181 1.41337e-25)
(-0.241531 -0.172497 1.06525e-24)
(-0.249827 -0.163762 8.46535e-25)
(-0.256651 -0.156542 -1.28215e-26)
(-0.262523 -0.150865 1.12453e-25)
(-0.267606 -0.146579 9.18463e-25)
(-0.271918 -0.14326 -1.27746e-25)
(-0.275319 -0.139823 -1.22029e-24)
(-0.277112 -0.133955 -1.12045e-24)
(-0.276318 -0.120845 6.24976e-25)
(-0.271611 -0.0924718 1.31952e-25)
(-0.264711 -0.0394583 1.22158e-33)
(-0.234816 -0.185335 1.25255e-25)
(-0.243799 -0.173828 1.94318e-25)
(-0.251426 -0.163648 4.59177e-26)
(-0.25784 -0.155017 1.07559e-25)
(-0.263465 -0.148113 5.82878e-26)
(-0.268787 -0.142932 9.66912e-25)
(-0.274118 -0.139414 1.92785e-24)
(-0.279786 -0.137025 -7.09001e-25)
(-0.285405 -0.134332 -1.32341e-24)
(-0.289871 -0.126747 5.1293e-25)
(-0.290725 -0.104177 2.64487e-25)
(-0.287142 -0.0493927 0)
(-0.234802 -0.18824 1.06596e-25)
(-0.243155 -0.17506 -1.73877e-25)
(-0.24995 -0.163374 0)
(-0.255584 -0.153228 -1.58717e-24)
(-0.260473 -0.144765 8.29505e-26)
(-0.265297 -0.137931 5.20123e-26)
(-0.270602 -0.132797 -2.14477e-26)
(-0.277315 -0.129168 0)
(-0.285754 -0.126869 -8.52419e-25)
(-0.295469 -0.122814 6.55935e-25)
(-0.30401 -0.107098 2.9018e-25)
(-0.30879 -0.0569523 1.42916e-25)
(-0.232254 -0.190558 1.62052e-24)
(-0.240063 -0.176093 1.44135e-25)
(-0.246059 -0.163189 0)
(-0.25083 -0.151748 -2.99704e-24)
(-0.254801 -0.141853 1.16057e-28)
(-0.25878 -0.133323 -9.83463e-26)
(-0.263361 -0.126072 -7.94071e-25)
(-0.269967 -0.119659 4.39964e-26)
(-0.279642 -0.114777 2.29421e-26)
(-0.292984 -0.110149 -5.16975e-25)
(-0.309628 -0.0983479 -4.33389e-26)
(-0.327638 -0.0578736 1.46074e-25)
(-0.22669 -0.191248 1.43347e-24)
(-0.234005 -0.175925 1.2966e-24)
(-0.239134 -0.162311 0)
(-0.243024 -0.149866 -1.37486e-24)
(-0.246074 -0.138931 -1.26878e-24)
(-0.249243 -0.129162 -3.35089e-26)
(-0.252931 -0.1202 -1.5956e-25)
(-0.258852 -0.110835 -1.4912e-24)
(-0.26845 -0.101885 0)
(-0.28285 -0.0923301 -9.56806e-25)
(-0.305899 -0.0772734 5.03309e-25)
(-0.339871 -0.0464821 -3.52212e-25)
(-0.216868 -0.188697 -1.56068e-26)
(-0.223505 -0.172925 1.29674e-24)
(-0.227725 -0.158966 0)
(-0.230669 -0.146199 1.20341e-24)
(-0.232827 -0.134805 -2.28742e-24)
(-0.235485 -0.124399 1.18881e-24)
(-0.238613 -0.114556 1.20164e-24)
(-0.24391 -0.103068 -1.22409e-24)
(-0.252853 -0.0908779 0)
(-0.266023 -0.0752027 0)
(-0.290775 -0.0442308 7.27581e-25)
(-0.333021 -0.00374396 4.62249e-26)
(-0.135991 0.00669041 -6.04933e-27)
(-0.135133 0.0179753 -1.46036e-26)
(-0.134503 0.0289244 0)
(-0.134257 0.0401472 0)
(-0.134257 0.0483864 0)
(-0.132764 0.0559841 -1.32702e-25)
(-0.129916 0.0642153 -6.22682e-26)
(-0.125949 0.0736345 0)
(-0.121813 0.0827111 -2.25391e-25)
(-0.117211 0.0913646 1.6267e-25)
(-0.112024 0.0994855 1.53201e-25)
(-0.106175 0.10699 6.72631e-26)
(-0.157866 0.00496252 -1.16919e-26)
(-0.159561 0.017459 2.66738e-26)
(-0.160917 0.0306513 0)
(-0.160427 0.0439886 -4.45728e-26)
(-0.160215 0.0529287 -3.40434e-26)
(-0.159842 0.0626414 -1.02502e-25)
(-0.159056 0.0740625 -7.64143e-26)
(-0.156591 0.0870292 3.55919e-26)
(-0.153209 0.0991568 1.52004e-25)
(-0.149062 0.110388 1.15239e-25)
(-0.144113 0.120631 5.05379e-26)
(-0.138252 0.129785 1.20793e-25)
(-0.178089 0.0103896 1.06836e-26)
(-0.178768 0.027499 -6.1493e-36)
(-0.179716 0.0416558 0)
(-0.179989 0.0555583 0)
(-0.180117 0.067979 3.04121e-26)
(-0.179739 0.0815425 1.59433e-25)
(-0.178238 0.0953792 1.52606e-25)
(-0.175728 0.108896 2.72969e-25)
(-0.17222 0.12172 2.83176e-25)
(-0.167774 0.133684 -2.91048e-25)
(-0.162459 0.144562 0)
(-0.156312 0.154225 6.02368e-25)
(-0.199723 0.013541 -3.23703e-26)
(-0.20128 0.0329791 -8.66508e-26)
(-0.201425 0.0503005 0)
(-0.201546 0.0658221 -2.73155e-25)
(-0.200941 0.080544 7.11379e-26)
(-0.199549 0.0955041 4.07821e-25)
(-0.197223 0.110396 0)
(-0.19396 0.124875 4.62447e-25)
(-0.189874 0.138625 -5.73576e-25)
(-0.185069 0.151377 4.70859e-25)
(-0.179589 0.162956 7.88751e-25)
(-0.173517 0.173296 9.24686e-25)