/*--------------------------------*- C++ -*----------------------------------*\
| =========                 |                                                 |
| \\      /  F ield         | OpenFOAM: The Open Source CFD Toolbox           |
|  \\    /   O peration     | Version:  2.4.0                                 |
|   \\  /    A nd           | Web:      www.OpenFOAM.org                      |
|    \\/     M anipulation  |                                                 |
\*---------------------------------------------------------------------------*/
FoamFile
{
    version     2.0;
    format      ascii;
    class       volScalarField;
    location    "0.8";
    object      alpha.water;
}
// * * * * * * * * * * * * * * * * * * * * * * * * * * * * * * * * * * * * * //

dimensions      [0 0 0 0 0 0 0];

internalField   nonuniform List<scalar> 
3072
(
2.36571e-15
5.8538e-14
1.45916e-13
1.78279e-13
1.0548e-13
1.13151e-13
2.32226e-12
1.99437e-11
1.93785e-11
6.51215e-11
0.0163532
0.0322782
1.80275e-14
3.07809e-13
8.08235e-13
4.41207e-12
1.2516e-12
1.0511e-13
2.85974e-12
3.54882e-11
0.000826273
0.181084
0.331723
0.33187
6.86906e-14
8.51488e-13
2.7021e-12
1.90505e-10
7.42794e-09
7.53253e-07
2.36053e-12
2.95477e-11
0.0325849
0.307827
0.33187
0.236172
1.79056e-13
2.11053e-12
9.43219e-12
4.63014e-09
4.25299e-07
1.50562e-05
0.00825025
0.0180547
0.0286647
0.26476
0.268062
0.00033155
5.23845e-13
6.88067e-12
3.71742e-11
2.0745e-07
8.19893e-07
8.24354e-07
0.0682191
0.17653
0.0246718
0.0327053
0.0617199
0.022667
2.22298e-12
3.58567e-11
2.44919e-09
1.27241e-07
2.66214e-08
0.000457755
0.112011
0.193883
0.089419
6.88354e-11
9.63092e-11
0.00703576
1.33286e-12
7.13153e-12
1.96841e-10
9.55054e-09
2.58878e-08
5.87222e-11
0.079603
0.192924
0.106358
5.35016e-11
3.13387e-05
0.00053141
1.18541e-07
1.04062e-06
3.75735e-12
3.37671e-12
3.78359e-12
2.759e-11
0.0130419
0.0963448
0.0464033
5.3574e-11
5.11155e-05
0.000127612
2.33041e-10
1.12717e-06
9.06103e-05
0.00012408
7.35062e-05
4.43056e-11
0.000346897
0.0055438
0.000307175
4.783e-06
5.51144e-11
5.33613e-11
6.31005e-11
4.16703e-11
6.06385e-05
0.000905134
0.00110767
0.00110411
0.000500489
0.000370105
0.00664588
0.00955691
0.00276377
0.0149432
3.8448e-11
2.3093e-11
2.77447e-11
9.26436e-05
0.000101168
0.000770913
0.00122129
0.000379147
0.000184566
0.000155757
0.11916
0.549554
1.90154e-12
1.90154e-12
0.00131124
7.91834e-12
1.95664e-12
1.96968e-12
2.15909e-12
3.35774e-05
1.98939e-05
0.00663232
6.5718e-11
0.201769
0.0330722
0.071914
0.0983775
1.39067e-10
0.000652301
0.0313455
0.0529273
0.0375454
0.0233441
0.000657999
2.60523e-09
2.59858e-09
0.331723
0.252906
1.05944e-10
7.65134e-11
0.0287468
0.171685
0.195795
0.193948
0.19468
0.141001
0.112959
0.0598709
0.000400361
0.0290187
0.00938612
4.3422e-11
0.00854895
0.0162527
0.0206328
0.0428028
0.160551
0.311337
0.33329
0.33329
0.000280398
0.000307483
0.000344324
1.37429e-11
1.37428e-11
1.37432e-11
1.46946e-11
2.63751e-11
3.98475e-11
7.44983e-11
0.115321
0.182412
0.0341963
0.0293668
3.77211e-11
1.37428e-11
2.95766e-11
3.98676e-11
0.00021737
0.00954937
0.0287259
0.0651759
0.00444249
4.9537e-11
0.0356795
0.0360235
0.0169692
1.37559e-11
2.98174e-11
5.86344e-11
7.63e-11
0.223539
0.590894
0.762561
0.489326
8.14492e-11
0.00446565
0.00712747
0.00123184
1.78914e-11
4.85963e-11
9.62338e-11
4.33124e-11
0.353224
0.959405
1
1
0.342664
7.57833e-11
7.70736e-11
8.49814e-11
7.60121e-07
1.72536e-10
1.83862e-10
1.09466e-11
0.260638
0.961999
1
1
0.92776
5.30845e-11
5.30051e-11
5.30845e-11
5.61618e-11
7.55601e-11
2.27712e-10
1.09466e-11
0.0918367
0.859835
1
1
1
0.213021
0.278196
0.0901196
7.81286e-11
4.35889e-06
4.54899e-11
1.17616e-11
1.09466e-11
0.642921
1
1
0.985933
0.596412
0.596412
0.582438
0.284342
0.00347719
3.76028e-11
2.1487e-11
1.09956e-11
0.292405
0.96158
1
0.983761
0.596422
0.596412
0.596412
0.480492
0.0324625
4.92801e-11
3.27825e-11
1.09466e-11
0.0485204
0.768018
1
0.992002
5.75083e-22
1.61898e-19
1.96988e-18
5.68126e-18
3.39048e-18
6.7317e-19
2.77229e-19
1.45502e-16
1.4079e-14
8.29369e-14
2.10518e-13
4.00963e-13
9.14706e-21
1.73916e-18
2.23486e-17
8.09528e-17
9.86795e-17
9.84966e-16
3.35039e-14
2.02482e-13
5.34315e-13
1.22697e-12
2.67403e-12
5.51643e-12
7.33062e-20
8.81497e-18
1.2167e-16
6.08951e-16
3.84789e-15
5.39995e-14
2.39042e-13
6.86634e-13
1.75485e-12
4.20652e-12
9.47735e-12
2.03866e-11
4.32078e-19
3.38022e-17
4.85341e-16
3.61552e-15
3.62018e-14
1.56241e-13
4.64189e-13
1.21568e-12
3.07407e-12
7.41964e-12
1.70765e-11
3.78789e-11
3.71469e-18
1.55275e-16
2.03385e-15
1.52401e-14
7.09307e-14
2.26606e-13
5.84247e-13
1.42775e-12
3.49278e-12
8.2876e-12
1.88538e-11
4.10162e-11
2.62765e-17
5.88687e-16
4.87581e-15
2.42296e-14
8.64625e-14
2.42363e-13
5.7087e-13
1.28578e-12
2.97236e-12
6.79669e-12
1.49301e-11
3.12413e-11
1.00111e-16
1.41317e-15
7.70783e-15
2.56028e-14
7.98188e-14
2.10405e-13
4.73894e-13
9.86503e-13
2.10435e-12
4.55622e-12
9.53475e-12
1.91666e-11
2.35702e-15
2.58222e-14
7.93242e-14
5.27491e-14
5.51947e-14
1.4546e-13
3.38061e-13
6.91357e-13
1.35871e-12
2.70906e-12
5.32747e-12
9.91583e-12
2.99297e-13
1.42677e-12
5.24547e-11
2.50771e-10
5.95598e-11
7.50907e-14
2.23254e-13
4.76492e-13
8.9027e-13
1.62934e-12
2.93095e-12
4.92754e-12
2.34183e-11
8.52465e-09
4.18795e-08
1.3381e-08
2.08363e-09
2.87238e-10
1.70669e-11
1.43668e-12
6.44685e-13
9.88135e-13
1.63098e-12
2.49081e-12
4.47979e-16
2.37525e-11
1.9338e-11
1.95753e-11
3.70856e-11
4.16406e-09
9.20665e-10
1.0216e-10
8.88043e-12
1.32453e-12
1.00803e-12
1.32587e-12
0.363457
0.365178
0.289004
0.173086
0.0232528
4.45496e-11
2.3907e-12
3.70023e-13
3.9065e-13
3.69954e-13
5.18709e-13
7.02839e-13
7.07578e-13
1.27842e-12
2.44881e-12
5.05383e-12
1.13481e-11
2.6407e-11
4.66913e-11
6.92497e-11
8.11764e-11
5.35509e-11
1.13628e-11
1.17591e-14
1.09403e-11
2.12727e-11
4.07844e-11
7.66654e-11
1.39859e-10
2.2953e-10
3.23757e-10
4.75574e-10
5.94372e-10
5.07186e-10
1.82882e-10
5.57259e-13
4.22286e-11
8.36692e-11
1.56433e-10
2.70533e-10
4.20059e-10
6.1966e-10
3.67532e-10
9.11096e-10
1.21199e-09
1.39836e-09
7.46396e-10
8.74486e-12
8.08815e-11
1.64731e-10
3.12923e-10
5.16688e-10
6.38134e-10
6.03513e-09
1.67417e-08
9.68885e-10
1.00883e-09
1.07146e-09
1.0295e-09
7.42366e-11
8.2922e-11
1.47226e-10
2.09458e-10
2.05995e-10
1.32621e-10
3.41034e-09
1.23174e-07
3.23782e-07
4.58815e-07
3.57235e-10
3.29391e-10
3.03473e-10
6.00543e-11
9.91253e-11
1.2978e-10
1.27176e-10
1.03344e-10
8.54584e-11
9.30124e-11
5.51991e-07
4.16823e-06
1.30034e-05
7.42119e-06
3.03472e-10
3.66368e-11
6.34156e-11
9.24819e-11
1.04701e-10
8.53058e-11
6.41446e-11
6.82946e-11
8.87504e-11
3.26838e-06
6.00129e-05
9.34905e-05
3.0514e-10
1.76039e-11
2.91826e-11
4.16465e-11
4.70346e-11
4.68385e-11
4.36981e-11
7.23219e-11
8.391e-11
1.08372e-10
4.01886e-05
9.6054e-05
5.43374e-07
7.69459e-12
1.10733e-11
1.34573e-11
1.03849e-11
7.95088e-12
3.36853e-11
8.82162e-11
1.23523e-10
1.26325e-10
1.364e-10
7.16391e-05
4.04149e-05
3.40837e-12
4.10111e-12
4.00568e-12
2.55323e-12
7.61061e-12
4.29804e-11
1.14701e-10
1.7869e-10
1.81874e-10
1.1989e-10
1.18577e-10
0.000143419
1.63293e-12
1.71607e-12
1.45159e-12
1.47617e-12
1.30749e-11
5.02219e-11
1.10814e-10
1.45339e-10
1.68932e-10
2.23503e-10
1.19821e-10
0.000137343
8.41525e-13
8.47238e-13
7.09936e-13
2.93852e-12
1.97911e-11
3.86214e-11
5.14118e-11
7.0985e-11
1.24059e-08
1.00401e-09
1.1859e-10
3.22444e-05
5.18331e-24
2.95359e-21
5.17367e-20
1.50528e-19
5.18544e-20
1.04554e-20
5.51136e-21
2.16228e-17
1.44029e-15
6.53314e-15
1.56571e-14
2.77106e-14
1.12447e-22
3.99319e-20
6.99025e-19
2.46504e-18
9.88655e-19
1.04692e-16
3.92385e-15
1.60365e-14
3.52981e-14
5.98059e-14
8.7748e-14
1.17875e-13
1.37536e-21
2.77673e-19
4.71895e-18
2.62553e-17
4.51051e-16
5.08209e-15
1.79172e-14
4.03252e-14
7.02144e-14
1.04977e-13
1.42733e-13
1.82271e-13
1.30019e-20
1.5242e-18
2.46637e-17
3.44869e-16
2.96082e-15
1.16779e-14
2.99024e-14
5.75579e-14
9.19218e-14
1.30068e-13
1.69819e-13
2.09637e-13
1.36028e-19
8.3568e-18
1.34365e-16
1.09852e-15
5.06221e-15
1.57185e-14
3.57452e-14
6.44167e-14
9.85239e-14
1.34523e-13
1.69471e-13
2.01171e-13
1.12175e-18
3.04904e-17
2.89103e-16
1.56528e-15
5.83613e-15
1.63336e-14
3.54409e-14
6.23321e-14
9.34325e-14
1.24362e-13
1.51065e-13
1.70334e-13
3.66684e-18
5.89717e-17
3.87202e-16
1.62474e-15
5.31256e-15
1.41245e-14
3.04936e-14
5.40726e-14
8.13115e-14
1.0715e-13
1.26498e-13
1.35153e-13
6.773e-18
7.27454e-17
3.64907e-16
1.29774e-15
3.87949e-15
1.01395e-14
2.26374e-14
4.20457e-14
6.55077e-14
8.77637e-14
1.03071e-13
1.06648e-13
6.78677e-18
5.36516e-17
2.22053e-16
7.05581e-16
2.04283e-15
5.58052e-15
1.47432e-14
2.99857e-14
4.88529e-14
6.73974e-14
8.03767e-14
8.31745e-14
3.3454e-18
1.94546e-17
6.16367e-17
1.71371e-16
3.72383e-15
2.3474e-15
7.97074e-15
1.83781e-14
3.25726e-14
4.74821e-14
5.87536e-14
6.23772e-14
1.06583e-19
1.06662e-19
4.23234e-10
1.81839e-11
1.70335e-11
2.45296e-12
2.08747e-13
2.29236e-14
1.92137e-14
2.95656e-14
3.90527e-14
4.35835e-14
1.1388e-05
2.55583e-05
3.48705e-05
2.42303e-05
2.40713e-06
1.14714e-11
4.05042e-12
1.15866e-12
2.74171e-13
6.77155e-14
3.207e-14
2.88808e-14
4.15515e-14
5.66354e-14
7.299e-14
9.11323e-14
1.12101e-13
1.35088e-13
1.49425e-13
1.53347e-13
1.42267e-13
1.09504e-13
5.13226e-14
7.84992e-16
1.49431e-13
1.81915e-13
2.14865e-13
2.47787e-13
2.80367e-13
3.08202e-13
3.30782e-13
3.44262e-13
3.39776e-13
3.00243e-13
1.97989e-13
1.75642e-14
2.22697e-13
2.63151e-13
3.02712e-13
3.40493e-13
3.75862e-13
4.11908e-13
4.50573e-13
4.87969e-13
5.1261e-13
4.98936e-13
3.95209e-13
9.38892e-14
2.48423e-13
2.85543e-13
3.21013e-13
3.55614e-13
3.90704e-13
4.35652e-13
4.94852e-13
5.65794e-13
6.35931e-13
6.72927e-13
6.05512e-13
2.50542e-13
2.28428e-13
2.51607e-13
2.73141e-13
2.97427e-13
3.29737e-13
3.81683e-13
4.62025e-13
5.72343e-13
7.01342e-13
8.09779e-13
8.06087e-13
4.56828e-13
1.80597e-13
1.83103e-13
1.82981e-13
1.89359e-13
2.13725e-13
2.66372e-13
3.60729e-13
5.08457e-13
7.05369e-13
9.05349e-13
9.88744e-13
6.73455e-13
1.30941e-13
1.15182e-13
9.41183e-14
7.99408e-14
9.06218e-14
1.32254e-13
2.21769e-13
3.89902e-13
6.51928e-13
9.59205e-13
1.15282e-12
8.80215e-13
9.61234e-14
7.30002e-14
4.33395e-14
1.78934e-14
1.6843e-14
3.7209e-14
9.95049e-14
2.57247e-13
5.62019e-13
9.7719e-13
1.30063e-12
1.07375e-12
7.35697e-14
5.3342e-14
2.89794e-14
1.04673e-14
4.5855e-15
8.83206e-15
4.41223e-14
1.72434e-13
4.84853e-13
9.79652e-13
1.43521e-12
1.26028e-12
5.64836e-14
4.2795e-14
2.68109e-14
1.513e-14
9.1052e-15
1.15302e-14
4.96716e-14
1.90449e-13
5.21986e-13
1.0155e-12
1.56011e-12
1.45254e-12
4.14722e-14
3.38483e-14
2.43221e-14
1.64616e-14
1.15162e-14
1.88532e-14
8.13235e-14
2.80189e-13
6.9175e-13
1.23232e-12
1.77668e-12
1.66954e-12
2.79382e-14
2.43051e-14
1.90323e-14
1.39162e-14
1.3495e-14
4.2946e-14
1.79701e-13
5.24695e-13
1.11647e-12
1.75527e-12
2.27378e-12
1.97648e-12
1
1
1
1
1
1
1
1
1
1
1
1
1
1
1
1
1
1
1
1
1
1
1
1
1
1
1
1
1
1
1
1
1
1
1
0.999565
1
1
1
1
1
1
1
0.999955
1
1
1
0.999902
1
1
1
1
0.981025
0.668087
0.511334
0.519574
0.778509
0.950325
1
1
1
1
1
0.941119
0.346285
0.0138639
0.01783
1.07331e-10
1.08503e-10
0.00235329
0.323639
0.844648
1
1
1
0.6542
1.7382e-10
1.47971e-10
1.2583e-10
1.24709e-10
1.07609e-10
1.06562e-10
1.38439e-10
0.00258466
1
1
1
0.672824
0.017239
1.25127e-10
1.03315e-10
1.03748e-10
1.04112e-10
1.06561e-10
1.06448e-10
1.00624e-10
1
1
1
0.847046
0.0666968
1.12663e-10
9.04854e-11
8.67371e-11
8.71952e-11
8.67362e-11
8.54684e-11
7.99972e-11
1
1
1
1
0.49112
9.77427e-11
7.43642e-11
7.45311e-11
7.43053e-11
7.16989e-11
6.90513e-11
6.42941e-11
1
1
1
1
1
0.458588
0.0743976
4.53693e-11
3.19398e-11
3.19971e-11
3.19398e-11
3.19971e-11
0.590623
0.726899
0.979675
1
1
0.964676
0.910709
0.831862
0.453696
0.242608
0.0612397
0.00145261
1
1
1
0.999959
0.999587
0.999396
0.999954
1
1
1
1
1
1
0.999131
0.989902
0.988328
0.993102
0.999388
0.99783
0.997715
0.998317
0.999295
1
1
0.986676
0.98311
0.984286
0.990572
0.975954
0.840299
0.758005
0.792401
0.932733
0.995079
0.999481
0.999511
0.994464
0.991254
0.998188
0.971785
0.68966
0.636574
0.636676
0.675603
0.901874
0.984632
0.990368
0.99833
1
0.999975
1
0.963364
0.687123
0.636676
0.850955
1
0.996933
0.948957
0.925188
0.995137
1
1
1
0.985615
0.942085
0.968332
1
1
1
0.959855
0.834335
0.829002
0.0746
0.470738
0.894887
1
1
1
1
1
1
0.992385
0.84356
0.757232
9.55063e-11
0.000107297
0.00850879
0.269655
0.813785
1
1
0.999999
0.999977
0.99998
0.99064
0.757232
7.19169e-11
5.42612e-11
5.42829e-11
8.10942e-11
0.0686729
0.668212
0.957631
1
0.999922
0.999819
0.999396
0.776596
5.65449e-11
5.42738e-11
6.33423e-11
6.872e-11
4.08871e-11
0.176851
0.79564
1
1
1
1
0.985366
3.70361e-11
3.78718e-11
4.02794e-11
3.8602e-11
3.72291e-11
0.0716978
0.745695
1
1
0.978048
0.961944
0.998237
0.000358533
3.7868e-11
6.10513e-11
5.98035e-11
4.26701e-11
0.265792
0.923299
1
1
0.921687
0.896793
0.967274
0.910757
0.925099
0.940534
0.933414
0.88089
0.746687
0.361956
0.0164842
5.6682e-11
5.00161e-11
6.91005e-11
8.28859e-11
0.918897
0.991384
1
1
1
1
0.992923
0.93357
0.67628
0.276734
0.217749
0.151118
0.999104
0.999667
0.999963
1
0.999999
0.999997
1
1
1
0.960574
0.919349
0.872127
1
0.999999
0.999999
1
0.999892
0.99988
0.999942
1
1
1
1
1
0.131359
0.476408
0.542906
0.327829
0.0145113
6.38352e-11
5.1519e-11
3.25267e-11
3.3107e-11
0.35122
0.975093
1
0.166492
0.184672
0.153804
0.0742174
0.0375605
0.0699619
0.224007
0.241803
0.0311299
0.0904603
0.689308
0.999964
0.787112
0.768631
0.790462
0.829662
0.847971
0.865304
0.869765
0.868475
0.428772
0.122281
0.14714
0.532761
0.946224
0.942936
0.926002
0.88585
0.887993
0.857421
0.659543
0.341415
0.335664
0.181827
0.00104496
1.40907e-11
1
1
1
1
0.487538
6.59665e-11
1.43149e-05
9.65833e-05
9.42177e-05
4.85369e-06
2.23494e-13
1.81819e-13
0.99721
0.984732
0.976715
0.870942
0.296576
8.36385e-11
1.64033e-06
2.39838e-05
2.25751e-11
0.000215125
0.00235071
0.00187948
0.547269
0.465548
0.310051
0.0715949
0.000282818
1.58179e-06
5.07273e-06
4.52995e-06
1.512e-11
2.26073e-05
0.00467983
0.00487134
1.40922e-11
1.40979e-11
1.40824e-11
1.40726e-11
1.40724e-11
1.4095e-11
1.41831e-11
1.47054e-11
1.40759e-11
1.62766e-11
0.000657621
0.00252117
1.83718e-13
4.66577e-13
5.65065e-13
3.24426e-12
8.45186e-12
1.15491e-11
2.73614e-11
1.82636e-06
2.35669e-07
4.93039e-11
2.9703e-09
1.46474e-08
0.000110811
1.80079e-11
9.68863e-12
3.49663e-12
2.0418e-11
2.88145e-11
0.000142112
3.6879e-05
4.89458e-11
3.47949e-11
2.79708e-11
4.08794e-11
0.00244311
2.79406e-11
9.10923e-12
0.00116172
0.00629141
0.00876889
0.00346826
5.05432e-11
3.6747e-11
5.03759e-11
5.13322e-11
1.38432e-10
0.00120223
1.89817e-11
8.54106e-12
0.0253947
0.0337161
0.0338679
0.0069387
5.98792e-11
9.24649e-11
1.63163e-09
5.18205e-09
8.36542e-09
3.50257e-11
2.81455e-11
3.35e-05
0.000225532
0.000226017
0.000111848
2.29006e-11
1.05749e-12
4.43533e-12
3.4076e-12
1.73402e-12
7.78257e-13
3.36045e-11
2.8859e-11
2.6002e-11
3.00645e-11
0.000100911
0.000168383
0.000175581
2.38947e-05
2.11108e-11
1.4059e-11
7.95252e-12
4.06366e-12
4.34998e-10
3.80246e-10
1.5967e-10
9.90685e-11
4.49068e-11
0.000119603
0.000173053
0.000104131
4.11172e-11
2.11598e-11
1.50844e-11
8.93001e-12
8.29323e-09
8.28144e-09
8.27421e-09
3.89638e-09
3.96482e-11
8.15471e-06
7.66299e-05
6.30513e-05
5.38616e-06
1.88571e-11
1.64233e-11
1.14873e-11
3.43383e-13
1.57647e-13
7.76943e-14
4.20564e-14
4.9818e-14
1.5232e-13
4.8647e-13
1.14838e-12
2.08027e-12
2.91654e-12
3.52816e-12
3.21386e-12
1.98965e-12
9.81818e-13
5.08372e-13
2.9966e-13
3.03222e-13
5.94632e-13
1.3763e-12
2.62593e-12
4.07129e-12
5.16034e-12
5.83797e-12
5.53669e-12
4.9782e-12
2.77001e-12
1.60784e-12
1.10887e-12
1.12982e-12
1.90184e-12
3.57931e-12
5.74223e-12
7.7292e-12
8.87339e-12
9.31806e-12
9.05227e-12
7.63723e-12
4.97454e-12
3.28488e-12
2.45641e-12
2.94641e-12
5.07424e-12
8.40731e-12
1.16172e-11
1.35309e-11
1.37209e-11
1.30006e-11
1.24333e-11
2.56485e-12
2.5655e-12
0.0124192
0.210223
0.482016
0.966474
0.997755
0.998323
0.979169
0.948158
0.853131
0.80721
5.15472e-12
4.66537e-12
2.05673e-11
3.40861e-11
3.84826e-11
0.20431
0.338078
0.793351
0.978708
0.924648
0.851847
0.782616
8.48143e-12
7.63994e-12
9.51858e-12
1.50584e-11
2.12284e-11
3.882e-11
3.8268e-11
0.0440606
0.308242
0.273198
0.164247
0.0760078
1.17729e-11
1.07369e-11
1.00792e-11
1.10667e-11
1.40699e-11
2.2496e-11
2.2698e-11
2.6042e-11
0.0638949
0.170084
0.133228
0.0751677
0.833172
0.497856
0.359639
0.295204
0.34505
0.752067
1
1
1
0.902396
0.896782
0.896793
0.81361
0.93969
0.945564
0.946072
0.945564
0.946072
0.90038
0.903745
0.972612
0.975196
0.908509
0.896782
0.259685
0.830866
0.846184
0.807613
0.753062
0.678739
0.687027
0.787996
0.982881
1
1
0.998269
0.0760078
0.102937
0.317426
0.543993
0.509801
0.502086
0.743585
0.997953
1
1
1
1
0.999971
0.999966
0.999966
0.999966
0.999975
0.99998
0.999983
0.93163
0.462178
0.227815
0.109048
0.00429205
0.999997
0.999998
0.999998
0.999999
1
1
0.848234
0.242246
3.43251e-11
2.28957e-11
1.62893e-11
1.27485e-11
1
1
1
1
0.981998
0.588393
0.15963
3.14183e-11
1.83903e-11
7.22427e-12
2.64534e-12
6.7376e-13
1
0.929416
0.755216
0.578553
0.236104
0.0236633
3.39653e-11
2.09562e-11
9.84075e-12
3.14131e-12
1.14788e-12
3.64799e-13
9.34283e-19
2.53695e-12
0.000801803
4.68015e-14
4.09929e-13
1.12934e-16
2.3673e-17
4.20183e-16
9.47429e-16
1.81839e-15
1.66311e-07
3.46676e-11
2.91794e-13
5.6331e-13
5.24012e-13
5.20315e-12
2.445e-11
1.32433e-11
1.31753e-07
2.61425e-06
5.99237e-06
2.3477e-07
6.9043e-09
0.000571591
5.20039e-13
1.44262e-12
4.97253e-12
1.50817e-11
3.63888e-11
6.63902e-11
8.09674e-11
1.32471e-05
3.17373e-05
1.38617e-05
7.32241e-09
0.00504947
1.57506e-13
6.86424e-13
3.40698e-12
1.3634e-11
4.48558e-11
1.50242e-10
9.40712e-11
8.24378e-06
3.19122e-05
4.25001e-05
8.06459e-07
0.000943629
3.06873e-11
0.000154189
5.24212e-05
2.69749e-11
0.000415761
0.00311823
0.00243141
3.08081e-11
0.00341382
0.00606947
0.00699172
0.00700582
0.0101406
0.0184269
0.0148139
0.00853345
0.0103221
0.0227753
0.0225504
0.0172295
0.000194808
0.00267837
0.0045485
0.00355038
0.0288728
0.0288728
0.0288728
0.0288728
0.0232666
0.0134673
0.017028
0.00519376
3.21587e-11
2.54084e-05
3.59044e-05
1.14633e-05
0.0143784
0.0279495
0.0261409
0.00700489
0.00180636
0.000230801
0.00110543
4.12523e-11
2.73289e-11
1.15859e-11
1.30365e-11
1.14646e-11
0.00252188
5.74983e-14
3.63831e-06
8.94351e-16
6.52041e-16
6.5213e-16
6.5318e-16
9.02656e-11
8.44573e-10
1.17788e-08
1.7543e-08
1.57683e-08
0.000306993
3.51266e-16
4.84578e-16
1.11741e-14
4.60264e-14
1.53532e-13
4.69751e-13
1.3459e-12
3.00804e-12
2.99973e-12
8.88391e-12
1.21381e-11
1.28728e-11
3.63516e-16
1.20329e-15
7.4934e-15
3.28431e-14
1.1865e-13
4.50126e-13
1.82627e-12
6.63745e-12
1.89189e-11
3.92572e-11
5.51154e-11
3.36136e-15
6.70951e-17
6.10709e-16
4.1702e-15
1.82399e-14
5.6649e-14
1.44117e-13
3.53146e-13
9.09184e-13
2.28267e-12
4.8445e-12
7.65554e-12
2.57102e-10
3.56805e-10
8.14889e-10
2.89216e-10
3.95911e-11
3.93504e-11
1.78686e-08
4.3129e-06
1.34068e-07
3.03227e-12
5.66264e-12
3.24802e-12
2.96859e-10
5.13474e-11
8.76755e-11
4.23636e-11
2.76099e-11
2.56421e-11
2.19235e-11
1.87592e-11
1.51939e-11
2.98176e-12
1.60808e-12
6.67723e-13
3.57894e-11
1.61666e-11
2.1482e-11
1.64224e-11
1.48371e-11
1.26303e-11
9.40622e-12
5.74369e-12
1.79365e-12
8.60655e-13
3.25821e-13
8.0677e-14
8.32332e-12
6.42745e-12
7.45768e-12
7.04989e-12
6.2199e-12
4.74861e-12
2.97684e-12
1.40244e-12
4.43764e-13
1.64303e-13
3.89313e-14
5.0219e-15
1.64328e-12
9.09461e-13
1.28302e-12
3.18809e-12
7.21947e-12
1.30937e-11
1.87039e-11
2.14829e-11
2.03292e-11
1.62098e-11
1.1683e-11
9.07857e-12
1.93089e-13
1.62116e-13
7.46361e-13
2.81096e-12
7.32426e-12
1.38612e-11
2.03234e-11
2.41922e-11
2.4092e-11
2.0586e-11
1.59222e-11
1.26404e-11
1.12084e-14
7.96066e-14
6.06941e-13
2.58997e-12
7.0714e-12
1.39448e-11
2.14461e-11
2.70197e-11
2.88048e-11
2.67251e-11
2.26592e-11
1.94298e-11
3.88543e-15
5.79483e-14
4.90221e-13
2.17473e-12
6.25954e-12
1.31287e-11
2.15818e-11
2.92092e-11
3.36982e-11
3.41299e-11
3.1615e-11
2.88999e-11
9.91102e-12
1.09437e-11
1.33549e-11
1.83963e-11
2.76837e-11
4.09165e-11
0.433236
0.917847
1
0.95531
0.819413
0.87006
1.25812e-11
1.47157e-11
1.98476e-11
2.85864e-11
4.24867e-11
0.33808
1
1
1
1
1
1
1.8854e-11
2.17731e-11
2.91444e-11
4.13615e-11
0.264697
0.936479
1
1
1
1
1
1
2.82105e-11
3.1923e-11
4.15921e-11
0.256791
0.901917
1
1
1
1
1
1
1
0.988812
1
1
1
1
1
1
0.999998
1
1
0.999993
0.999978
1
1
1
1
0.999999
0.999995
0.999995
0.999996
0.999999
1
0.999999
0.999998
1
1
1
1
1
1
0.999998
0.999996
0.999998
1
1
1
1
1
1
1
1
1
0.999998
0.999997
1
1
1
1
0.518514
0.10994
0.0629516
0.0319401
3.90853e-11
3.5005e-11
2.33771e-11
1.35769e-11
6.59736e-12
3.00617e-12
1.17016e-12
3.90418e-13
0.173536
3.50409e-11
4.74197e-11
3.70656e-11
2.59323e-11
2.59377e-11
1.79071e-11
1.10004e-11
6.28085e-12
2.92307e-12
9.89782e-13
2.10969e-13
0.490651
3.58206e-11
1.51499e-08
4.67952e-07
6.53253e-07
1.21213e-11
1.60498e-11
1.03778e-11
5.9259e-12
2.59724e-12
7.90842e-13
1.26795e-13
0.748186
0.0324005
1.19627e-11
6.57541e-06
1.43136e-05
1.21189e-11
1.44685e-11
9.74683e-12
5.36281e-12
2.21455e-12
5.97521e-13
7.58521e-14
0.905813
0.210048
1.62972e-11
4.32919e-06
1.52477e-05
1.21275e-11
1.32263e-11
8.85622e-12
4.6113e-12
1.73261e-12
4.04367e-13
3.94492e-14
0.988293
0.479479
1.1956e-11
1.96759e-07
4.2922e-06
1.2093e-11
1.20915e-11
7.66936e-12
3.61722e-12
1.18863e-12
2.31665e-13
1.69008e-14
1
0.689517
0.0319321
1.17212e-11
2.28762e-11
1.70219e-11
1.15521e-11
6.16409e-12
2.48087e-12
6.80408e-13
1.0545e-13
5.72681e-15
1
0.839532
0.143933
1.17207e-11
1.45409e-11
1.34479e-11
8.65914e-12
4.10664e-12
1.38716e-12
3.02178e-13
3.454e-14
1.3273e-15
1
0.939588
0.281143
1.17208e-11
1.19077e-11
1.1346e-11
6.05671e-12
2.28291e-12
5.85158e-13
9.08108e-14
6.62291e-15
2.23177e-16
1
0.96789
0.326
1.17207e-11
1.66638e-11
8.46232e-12
3.26155e-12
8.70205e-13
1.45879e-13
1.31315e-14
6.49312e-16
2.39861e-17
1
0.984888
0.361004
2.31414e-11
1.12612e-11
4.07616e-12
9.75693e-13
1.405e-13
1.08049e-14
4.59014e-16
2.4369e-17
1.09197e-18
1
0.894337
0.216335
1.39733e-11
3.8213e-12
4.3374e-13
2.44517e-14
6.56108e-16
9.2934e-18
2.34936e-19
1.81502e-19
1.27682e-20
3.12923e-14
3.44018e-13
2.50023e-12
1.50607e-11
1.05457e-10
1.28703e-09
9.99495e-09
6.03939e-09
5.71003e-09
8.95331e-05
0.000290253
0.000274222
8.88977e-15
1.74524e-13
1.74257e-12
1.09361e-11
3.95021e-11
5.31656e-11
5.30993e-08
1.69102e-07
1.26025e-07
6.78006e-12
6.78477e-12
6.77091e-12
2.62565e-15
8.71978e-14
1.40373e-12
1.44134e-11
9.29123e-11
3.13948e-10
6.82832e-12
6.41607e-12
6.4086e-12
8.33451e-12
7.78783e-12
1.00117e-11
1.11814e-16
3.36049e-15
4.15224e-14
2.93056e-13
1.2677e-12
3.35845e-12
5.70999e-12
8.5542e-12
1.5065e-11
2.22968e-11
2.43908e-11
2.19436e-11
8.38683e-18
3.30742e-16
5.24466e-15
4.88769e-14
3.01935e-13
1.29869e-12
3.98264e-12
8.86758e-12
1.47121e-11
1.89493e-11
1.99183e-11
1.78105e-11
4.23029e-19
2.18857e-17
4.34899e-16
4.99155e-15
3.81086e-14
2.06264e-13
8.16223e-13
2.39689e-12
5.27035e-12
8.76111e-12
1.12334e-11
1.15404e-11
1.20193e-20
8.39121e-19
2.13841e-17
3.06218e-16
2.89544e-15
1.95475e-14
9.80248e-14
3.71783e-13
1.07395e-12
2.3739e-12
3.97404e-12
4.89754e-12
1.57088e-22
1.56403e-20
5.3551e-19
9.88754e-18
1.18316e-16
1.00656e-15
6.46708e-15
3.22224e-14
1.24634e-13
3.68856e-13
8.08742e-13
1.19355e-12
6.80614e-25
1.03678e-22
5.20444e-21
1.32418e-19
2.1186e-18
2.47783e-17
2.20735e-16
1.49441e-15
7.68199e-15
2.98795e-14
8.53388e-14
1.50143e-13
1.06351e-27
1.45093e-25
1.16214e-23
4.62713e-22
1.23965e-20
2.46572e-19
3.30698e-18
3.13092e-17
2.12417e-16
1.06811e-15
3.93881e-15
8.2972e-15
3.75256e-30
5.6859e-29
2.00841e-27
2.54522e-25
2.3762e-23
8.88193e-22
1.88447e-20
2.46862e-19
2.12077e-18
1.30911e-17
5.85765e-17
1.46234e-16
7.03901e-33
5.96335e-32
4.06673e-31
9.33124e-29
1.57144e-26
1.02426e-24
3.2279e-23
5.36339e-22
5.16664e-21
3.25945e-20
1.57187e-19
4.94134e-19
0.000185383
0.00102293
0.00173522
7.20879e-11
7.85462e-11
9.68351e-11
2.82194e-09
4.23574e-08
3.86356e-08
6.14395e-14
1.72359e-12
1.06389e-12
6.77576e-12
1.77009e-11
2.96807e-11
6.13706e-11
3.61609e-09
1.81014e-08
2.71403e-08
3.50345e-08
1.46341e-08
4.54778e-14
1.26037e-13
3.05054e-14
3.27786e-11
6.9928e-11
1.36626e-10
2.92897e-10
2.1252e-09
5.25927e-09
3.60878e-09
6.35227e-10
1.98175e-11
8.23825e-14
4.74032e-15
4.99729e-16
2.05596e-11
2.67034e-11
4.63987e-11
9.23736e-11
1.71307e-10
4.60959e-11
1.50591e-11
1.43209e-11
1.80017e-12
6.74014e-15
1.12844e-16
7.2173e-18
1.41846e-11
1.11849e-11
1.0796e-11
1.49517e-11
2.29432e-11
1.58782e-11
2.10413e-12
2.75797e-13
6.42196e-14
1.89594e-16
4.25999e-18
1.96962e-19
9.43876e-12
6.19516e-12
3.25942e-12
2.00455e-12
1.66544e-12
1.29266e-12
7.86948e-14
4.68204e-15
8.20583e-16
5.28998e-18
2.89968e-19
1.10309e-20
4.36514e-12
2.76398e-12
9.04159e-13
2.77869e-13
7.41902e-14
3.1175e-14
1.30896e-15
5.96053e-17
6.3219e-18
2.14674e-19
1.55317e-20
5.73367e-22
1.14327e-12
7.1388e-13
1.40884e-13
2.56315e-14
3.03142e-15
3.34304e-16
1.88892e-17
1.18253e-18
8.6011e-20
5.95248e-21
5.45182e-22
2.14927e-23
1.45941e-13
8.68554e-14
1.04152e-14
1.22674e-15
9.54494e-17
5.32772e-18
2.53608e-19
1.32939e-20
9.96849e-22
9.59517e-23
1.21141e-23
5.35931e-25
7.76738e-15
4.21337e-15
3.20431e-16
2.47161e-17
1.08677e-18
2.91801e-20
9.81202e-22
5.41738e-23
6.16055e-24
8.60805e-25
1.56255e-25
7.96735e-27
1.33142e-16
6.39917e-17
3.34077e-18
1.39779e-19
1.94286e-21
2.11988e-23
7.29733e-25
8.91909e-26
1.71748e-26
3.59882e-27
9.50888e-28
5.67966e-29
3.60855e-19
1.54616e-19
5.4061e-21
1.10688e-22
3.6561e-25
3.26904e-28
1.22795e-28
4.03185e-29
1.26122e-29
4.14141e-30
1.59304e-30
1.12441e-31
7.45706e-19
1.85244e-17
2.40253e-16
1.80874e-15
8.59747e-15
2.82891e-14
7.06161e-14
1.46564e-13
2.77449e-13
5.15999e-13
9.49796e-13
1.60454e-12
1.1638e-19
4.37989e-18
6.65168e-17
5.67185e-16
3.05836e-15
1.13382e-14
3.1124e-14
6.77634e-14
1.24468e-13
2.03808e-13
3.13038e-13
4.6814e-13
1.44023e-20
6.83194e-19
1.21803e-17
1.20817e-16
7.61878e-16
3.30142e-15
1.04559e-14
2.5614e-14
5.1118e-14
8.67933e-14
1.29826e-13
1.77142e-13
1.14294e-21
6.73396e-20
1.4312e-18
1.67891e-17
1.25854e-16
6.51484e-16
2.45707e-15
7.0649e-15
1.6153e-14
3.05112e-14
4.91618e-14
6.91655e-14
5.56602e-23
4.18183e-21
1.07778e-19
1.5102e-18
1.3552e-17
8.45698e-17
3.85949e-16
1.33783e-15
3.64177e-15
8.01257e-15
1.46129e-14
2.27111e-14
1.58915e-24
1.61654e-22
5.19784e-21
8.81411e-20
9.52328e-19
7.20406e-18
4.01884e-17
1.70705e-16
5.66472e-16
1.50283e-15
3.22167e-15
5.61801e-15
3.15497e-26
3.54814e-24
1.51434e-22
3.21691e-21
4.26202e-20
3.94736e-19
2.72132e-18
1.44337e-17
5.98329e-17
1.95843e-16
5.09538e-16
9.73112e-16
4.11794e-28
3.46538e-26
2.23345e-24
6.39177e-23
1.08976e-21
1.27598e-20
1.11167e-19
7.54118e-19
4.05052e-18
1.69949e-17
5.41133e-17
1.10468e-16
4.36219e-30
1.19436e-28
1.15544e-26
5.14279e-25
1.23931e-23
1.96873e-22
2.28947e-21
2.07877e-20
1.52325e-19
8.79396e-19
3.47354e-18
7.50375e-18
3.2735e-32
4.88251e-31
9.71316e-30
9.25491e-28
3.82733e-26
9.47631e-25
1.6459e-23
2.20413e-22
2.42445e-21
2.16949e-20
1.12515e-19
2.57691e-19
1.35303e-34
1.19965e-33
6.6032e-33
1.73388e-31
1.27106e-29
6.01365e-28
1.92176e-26
4.65465e-25
9.42135e-24
1.68803e-22
1.31374e-21
3.21657e-21
1.80655e-37
9.73169e-37
2.34653e-36
9.44636e-35
6.7175e-33
2.64543e-31
5.82985e-30
9.06295e-29
2.53631e-27
1.6333e-25
2.54438e-24
6.88101e-24
2.24775e-12
2.35644e-12
2.62456e-12
2.51087e-12
2.06883e-12
1.4001e-12
7.34854e-13
2.80145e-13
8.43317e-14
1.75324e-14
2.18366e-15
1.72741e-16
6.77309e-13
7.93245e-13
8.39932e-13
7.5993e-13
5.73427e-13
3.41399e-13
1.50786e-13
4.61871e-14
8.74699e-15
7.92861e-16
4.48112e-17
2.10746e-18
2.33851e-13
2.66028e-13
2.59074e-13
2.12721e-13
1.42295e-13
7.18487e-14
2.46376e-14
4.79811e-15
3.92702e-16
1.18155e-17
3.14756e-19
1.29501e-20
8.5628e-14
8.99815e-14
7.84396e-14
5.6323e-14
3.10056e-14
1.17748e-14
2.54488e-15
2.30599e-16
5.8724e-18
5.03118e-20
1.11791e-21
6.05309e-23
2.80133e-14
2.73955e-14
2.06854e-14
1.22683e-14
4.90838e-15
1.16541e-15
1.24148e-16
3.91562e-18
2.82546e-20
5.1251e-22
2.15029e-23
6.43285e-25
7.07896e-15
6.47906e-15
3.96826e-15
1.76144e-15
4.35584e-16
5.28734e-17
2.19608e-18
2.37535e-20
5.38803e-22
2.55368e-23
8.87907e-25
2.02743e-26
1.23897e-15
1.04534e-15
4.64754e-16
1.33531e-16
1.6813e-17
8.47496e-19
1.33841e-20
3.50738e-22
1.70816e-23
6.17395e-25
2.09874e-26
5.90922e-28
1.35228e-16
1.00281e-16
2.75768e-17
4.22339e-18
2.1234e-19
3.71738e-21
1.2765e-22
5.68587e-24
2.01517e-25
5.48457e-27
3.12668e-28
1.26867e-29
8.07277e-18
4.77953e-18
6.43359e-19
3.87785e-20
7.89353e-22
2.78797e-23
9.55132e-25
2.73704e-26
5.71802e-28
2.30412e-29
3.11755e-30
1.90336e-31
2.13381e-19
8.57724e-20
4.43919e-21
1.3573e-22
3.13946e-24
6.76327e-26
1.27454e-27
1.90252e-29
2.85115e-31
6.15811e-32
1.94917e-32
1.8093e-33
1.76714e-21
4.40155e-22
1.07345e-23
1.74948e-25
2.12272e-27
1.8871e-29
1.31076e-31
7.15427e-34
1.35657e-34
8.95745e-35
6.25162e-35
8.88097e-36
2.1825e-24
3.32501e-25
3.67394e-27
1.05191e-29
1.90349e-32
2.5211e-35
2.86259e-38
7.59368e-41
2.53738e-38
4.2981e-38
6.15052e-38
1.34947e-38
2.25028e-15
4.1205e-14
3.39891e-13
1.58888e-12
4.93146e-12
1.12415e-11
2.0117e-11
2.96469e-11
3.73157e-11
4.13565e-11
4.17334e-11
4.041e-11
1.08958e-15
2.18319e-14
1.90644e-13
9.71485e-13
3.33055e-12
8.42281e-12
1.6709e-11
2.72068e-11
3.77356e-11
4.60191e-11
5.07819e-11
5.26721e-11
3.48994e-16
8.35316e-15
8.25306e-14
4.74579e-13
1.83649e-12
5.2447e-12
1.17457e-11
2.1542e-11
3.3592e-11
4.61795e-11
5.76179e-11
6.497e-11
7.19989e-17
2.20824e-15
2.61157e-14
1.75908e-13
7.8786e-13
2.58383e-12
6.61237e-12
1.37311e-11
2.3757e-11
3.52345e-11
4.6832e-11
5.95631e-11
9.2749e-18
3.8187e-16
5.66122e-15
4.65088e-14
2.50211e-13
9.73136e-13
2.92574e-12
7.09803e-12
1.42247e-11
2.39275e-11
3.4828e-11
4.70532e-11
7.059e-19
4.12874e-17
8.04579e-16
8.41843e-15
5.68604e-14
2.74245e-13
1.0076e-12
2.94846e-12
7.0704e-12
1.40965e-11
2.36889e-11
3.5275e-11
2.86383e-20
2.48863e-18
6.76062e-17
9.46341e-16
8.4642e-15
5.40993e-14
2.63092e-13
1.00846e-12
3.10712e-12
7.76081e-12
1.57441e-11
2.64633e-11
6.36179e-22
6.70095e-20
2.75576e-18
5.37966e-17
6.53854e-16
5.68113e-15
3.80125e-14
2.02788e-13
8.72854e-13
3.04027e-12
8.48537e-12
1.85074e-11
8.58503e-24
5.37795e-22
4.16572e-20
1.24906e-18
2.17483e-17
2.64321e-16
2.48383e-15
1.90093e-14