/*--------------------------------*- C++ -*----------------------------------*\
| =========                 |                                                 |
| \\      /  F ield         | OpenFOAM: The Open Source CFD Toolbox           |
|  \\    /   O peration     | Version:  v1606+                                |
|   \\  /    A nd           | Web:      www.OpenFOAM.com                      |
|    \\/     M anipulation  |                                                 |
\*---------------------------------------------------------------------------*/
FoamFile
{
    version     2.0;
    format      ascii;
    class       volScalarField;
    location    "38";
    object      alpha.water;
}
// * * * * * * * * * * * * * * * * * * * * * * * * * * * * * * * * * * * * * //

dimensions      [0 0 0 0 0 0 0];

internalField   nonuniform List<scalar> 
5080
(
1
1
1
1
1
1
1
1
1
1
1
1
1
1
1
1
1
1
1
1
1
1
1
1
1
1
1
1
1
1
1
1
1
1
1
1
1
1
1
1
1
1
1
1
1
1
1
1
1
1
1
1
1
1
1
1
1
1
1
1
1
1
1
1
1
1
1
1
1
1
1
1
1
1
1
1
1
1
1
1
1
1
1
1
1
1
1
1
1
1
1
1
1
1
1
1
1
1
1
1
1
1
1
1
1
1
1
1
1
1
1
1
1
1
1
1
1
1
1
1
1
1
1
1
1
1
1
1
1
1
1
1
1
1
1
1
1
1
1
1
1
1
1
1
1
1
1
1
1
1
1
1
1
1
1
1
1
1
1
1
1
1
1
1
1
1
1
1
1
1
1
1
1
1
1
1
1
1
1
1
1
1
1
1
1
1
1
1
1
1
1
1
1
1
1
1
1
1
1
1
1
1
1
1
1
1
1
1
1
1
1
1
1
1
1
1
1
1
1
1
1
1
1
1
1
1
1
1
1
1
1
1
1
1
1
1
1
1
1
1
1
1
1
1
1
1
1
1
1
1
1
1
1
1
1
1
1
1
1
1
1
1
1
1
1
1
1
1
1
1
1
1
1
1
1
1
1
1
1
1
1
1
1
1
1
1
1
1
1
1
1
1
1
1
1
1
1
1
1
1
1
1
1
1
1
1
1
1
1
1
1
1
1
1
1
1
1
1
1
1
1
1
1
1
1
1
1
1
1
1
1
1
1
1
1
1
1
1
1
1
1
1
1
1
1
1
1
1
1
1
1
1
1
1
1
1
1
1
1
1
1
1
1
1
1
1
1
1
1
1
1
1
1
1
1
1
1
1
1
1
1
1
1
1
1
1
1
1
1
1
1
1
1
1
1
1
1
1
1
1
0.984709
0.984971
0.98707
0.989154
0.995692
0.999972
0.999899
0.999943
0.999993
0.999882
0.999868
0.999861
0.986744
0.964787
0.964542
0.978674
0.999202
0.999745
0.999745
0.999691
0.999681
0.95648
0.887087
0.93267
0.994709
1
0.999985
0.999971
0.999987
1
1
1
1
0.944986
0.93215
0.93993
0.986087
0.999861
1
1
0.999985
0.999963
0.999966
0.999966
0.930769
0.824645
0.920346
0.993027
0.999971
1
0.998023
0.913053
0.895767
0.931156
0.991449
0.999048
0.999734
1
0.969413
0.803983
0.98941
0.999947
0.999963
0.998598
0.992468
0.993097
0.994787
0.999243
1
1
1
0.983707
0.964787
0.964542
0.964622
0.964462
0.990463
0.999745
0.999745
0.991635
0.890116
0.887087
0.887087
0.887087
0.920623
0.998639
1
1
1
1
1
1
0.994892
0.937317
0.932144
0.932146
0.93214
0.972183
1
1
1
1
1
0.888664
0.798718
0.798692
0.798718
0.805208
0.975443
1
0.999998
0.999994
0.999994
0.929376
0.877232
0.877232
0.877232
0.905988
0.992773
0.965899
0.996609
0.96547
0.930455
0.922358
0.924729
0.971102
1
1
1
1
0.998753
0.992727
0.99047
0.991908
0.996173
0.99972
0.999993
0.999531
0.994297
0.994181
0.99484
0.995546
0.996298
0.997675
0.999487
0.999998
1
1
1
1
0.999869
0.995533
0.99517
0.996024
0.99763
0.999102
0.999857
0.999999
1
1
0.995718
0.887847
0.882446
0.881343
0.943439
0.993701
0.999667
1
1
1
0.999353
0.968823
0.96729
0.969
0.983325
0.997144
0.999934
1
1
0.890261
0.864218
0.836406
0.83515
0.89242
0.984827
1
1
1
1
1
1
1
1
1
1
1
0.999994
0.999976
0.999973
0.999995
1
1
1
1
1
1
1
1
1
0.999988
0.999985
0.999986
0.999997
1
1
1
1
1
0.999966
0.990504
0.989207
0.990555
0.994109
0.998588
0.99999
1
1
1
0.999998
0.999288
0.999211
0.999247
0.999376
0.999801
0.999997
1
1
1
0.990534
0.971114
0.794184
0.871318
0.981294
1
1
1
1
1
1
1
1
1
0.999907
0.999993
1
1
1
1
1
1
1
1
1
1
1
1
1
1
1
1
1
1
1
1
1
1
1
1
1
1
1
1
1
1
1
1
1
1
1
1
1
1
1
1
1
1
1
1
1
1
0.950669
1
1
0.99998
0.99999
1
0.976727
0.937231
0.909922
0.889601
0.809661
0.633351
0.572435
0.601181
0.699989
0.777947
0.771841
0.694983
0.624871
0.634471
0.703492
0.773904
0.776448
0.742023
0.69535
0.696214
0.735801
0.787808
0.790292
0.756464
0.696444
0.686993
0.698767
0.709479
0.703031
0.677089
0.665599
0.676518
0.7168
0.747486
0.748204
0.741733
0.740374
0.757879
0.819837
0.886434
0.899694
0.895557
0.878423
0.861914
0.861528
0.869541
0.889413
0.903634
0.904378
0.89896
0.878645
0.858629
0.857703
0.862188
1
0.999958
0.999946
0.99996
0.999991
0.82488
0.412337
0.21117
0.110179
0.00130742
2.8037e-19
1.05891e-18
3.35208e-26
1.05891e-18
3.37063e-26
1.41443e-18
0.000657258
0.00172238
0.00171986
0.0019012
0.00340169
0.00764187
0.0113067
0.0112991
0.00988648
0.0072336
0.00478436
0.00382364
0.0039256
0.00426231
0.00466744
0.00574694
0.00856376
0.0132446
0.0183103
0.0229748
0.0283258
0.0364453
0.050089
0.0702046
0.0876695
0.0918042
0.0916968
0.0907504
0.0873531
0.0789253
0.0650728
0.0549244
0.0537481
0.0547722
0.0594398
0.0706398
0.0905441
0.115342
0.129214
0.130403
0.129713
0.121382
0.120604
0.248442
1
0.999956
0.999972
1
0.946309
0.22059
2.43205e-18
9.82677e-24
1.72208e-26
1.01203e-23
4.62208e-12
1.41258e-11
2.09448e-11
2.08083e-11
1.87983e-11
7.70742e-12
8.27405e-17
8.64966e-17
8.53147e-17
8.90717e-17
8.53318e-17
8.90085e-17
8.27261e-17
8.28404e-17
7.57247e-17
7.67558e-17
7.05398e-17
7.15851e-17
6.7958e-17
7.48078e-17
7.43541e-17
8.12946e-17
8.04928e-17
8.78913e-17
8.64143e-17
9.31323e-17
9.20132e-17
8.97067e-17
8.7375e-17
8.50251e-17
8.26227e-17
8.01414e-17
7.73744e-17
7.46417e-17
7.19424e-17
6.92725e-17
6.67228e-17
6.41106e-17
6.16673e-17
5.91317e-17
5.66316e-17
5.39704e-17
5.11982e-17
4.85046e-17
4.56755e-17
4.30152e-17
4.01534e-17
3.73762e-17
3.47055e-17
0.000883666
1
0.999991
1
1
0.630626
0.0268591
4.43932e-18
5.98337e-13
6.47433e-12
2.84996e-11
7.96529e-11
1.46554e-10
1.74683e-10
1.7096e-10
1.5127e-10
1.25182e-10
1.11624e-10
1.03265e-10
8.77225e-11
5.63116e-11
2.15176e-11
6.7909e-12
5.20053e-12
5.31464e-12
6.07175e-12
7.84682e-12
1.11061e-11
2.16713e-11
8.47237e-11
3.1187e-10
6.67753e-10
1.23149e-09
3.18261e-09
4.8679e-09
4.67507e-09
4.36126e-09
4.42779e-09
4.64193e-09
4.71479e-09
4.44085e-09
3.0787e-09
1.50745e-09
2.52494e-09
1.03245e-08
1.24604e-08
1.24668e-08
1.0537e-08
2.92729e-09
7.65333e-11
6.27103e-17
6.2276e-17
6.32355e-17
6.32687e-17
6.14766e-17
5.76776e-17
5.20989e-17
4.52292e-17
3.77995e-17
3.19801e-17
3.24303e-17
0.999855
0.999677
1
1
0.305349
1.09713e-17
2.35387e-14
1.57577e-12
1.52607e-11
6.77225e-11
1.78306e-10
2.58447e-10
2.64552e-10
2.58025e-10
2.28558e-10
1.94221e-10
1.69468e-10
1.39193e-10
8.92443e-11
3.53991e-11
1.43336e-11
1.35691e-11
1.74515e-11
3.91329e-11
6.61857e-11
6.29368e-11
2.7009e-11
2.33307e-11
1.99677e-09
1.11419e-08
1.43035e-08
1.43905e-08
1.18302e-08
5.90112e-09
3.10847e-09
1.34433e-08
3.41095e-08
3.41153e-08
3.41434e-08
3.41637e-08
3.41701e-08
2.22744e-08
1.46617e-09
1.92068e-10
3.27187e-10
3.75536e-10
3.16055e-10
1.53092e-10
2.76191e-11
1.14896e-12
6.82789e-15
1.81657e-16
1.62765e-16
1.38561e-16
1.13506e-16
9.0273e-17
7.01226e-17
5.35315e-17
4.04168e-17
3.03674e-17
0.983311
0.999468
0.997042
1
0.109139
7.63756e-18
2.92951e-14
1.82222e-12
1.87129e-11
8.27869e-11
1.77528e-10
2.14133e-10
2.09618e-10
1.83029e-10
1.50945e-10
1.22923e-10
8.84743e-11
4.74973e-11
2.00626e-11
1.28498e-11
1.25015e-11
1.31754e-11
4.39649e-11
6.69542e-10
3.85183e-09
5.37446e-09
5.37687e-09
4.07657e-09
1.49145e-09
1.49979e-09
6.43467e-09
1.53136e-08
1.57158e-08
1.39814e-08
4.02878e-09
5.62302e-11
2.83673e-17
2.72913e-17
2.72816e-17
2.72913e-17
2.72842e-17
2.56814e-13
3.6371e-13
3.68771e-14
7.02157e-17
6.77151e-17
6.51391e-17
4.91215e-14
7.26924e-14
3.26946e-14
3.60333e-15
1.14342e-16
5.89005e-17
3.93683e-17
2.76886e-17
1.99791e-17
1.44898e-17
1.03574e-17
7.26202e-18
5.31037e-18
0.974285
0.999624
0.990662
0.708469
0.0188101
5.02402e-18
6.35134e-15
4.16913e-13
5.02293e-12
2.18541e-11
3.98488e-11
4.1305e-11
3.45166e-11
2.38461e-11
1.52207e-11
8.64735e-12
6.34434e-12
6.48756e-12
7.80463e-12
1.00368e-11
1.23545e-11
1.3348e-11
1.28369e-11
7.49689e-12
1.33824e-13
1.10524e-15
2.70172e-17
2.69711e-17
2.69448e-17
2.69001e-17
2.68885e-17
2.68897e-17
8.53439e-17
2.6888e-17
2.6886e-17
2.6888e-17
5.00979e-17
7.15877e-17
8.81306e-17
1.15257e-16
1.24054e-16
1.01765e-17
8.02892e-17
1.09075e-16
1.00224e-16
8.16936e-17
6.25583e-17
4.56672e-17
3.21351e-17
2.18907e-17
1.41811e-17
8.48828e-18
4.68851e-18
2.01741e-18
-2.43359e-20
-1.79229e-18
-3.48772e-18
-5.18001e-18
-6.84854e-18
-8.46416e-18
0.974285
0.999821
0.993564
0.0706778
4.246e-18
2.5232e-18
7.56062e-16
5.07246e-14
4.78861e-13
1.46864e-12
1.8113e-12
1.41165e-12
5.54356e-13
2.83936e-13
3.07899e-13
4.32331e-13
7.46142e-13
1.27984e-12
1.81572e-12
2.00476e-12
2.00263e-12
1.97588e-12
1.90872e-12
1.84883e-12
1.79764e-12
1.70061e-12
1.52625e-12
1.26179e-12
9.23453e-13
5.61893e-13
2.54708e-13
7.08972e-14
8.90216e-15
3.89203e-16
1.25147e-16
8.85091e-17
6.22292e-17
4.39344e-17
3.07622e-17
2.11469e-17
1.43888e-17
9.71306e-18
6.39042e-18
4.01969e-18
2.29399e-18
9.83121e-19
-8.10167e-20
-1.0223e-18
-1.93231e-18
-2.87927e-18
-3.91483e-18
-5.07896e-18
-6.40343e-18
-7.91349e-18
-9.62969e-18
-1.15694e-17
-1.37525e-17
-1.62041e-17
-1.89539e-17
-2.20444e-17
0.974892
0.999834
0.997495
0.0265421
4.41272e-18
2.03662e-18
5.18304e-17
2.17011e-15
2.16367e-14
4.69099e-14
3.93224e-14
1.36514e-14
1.02145e-14
2.24634e-14
7.73838e-14
2.13388e-13
4.34656e-13
6.5663e-13
7.40793e-13
7.37675e-13
7.0391e-13
6.17428e-13
4.82642e-13
3.27435e-13
1.81484e-13
7.14476e-14
1.55508e-14
1.30648e-15
1.34969e-16
9.19869e-17
5.91565e-17
3.68775e-17
2.23869e-17
1.42525e-17
9.45838e-18
6.33656e-18
4.29807e-18
2.95665e-18
2.06542e-18
1.46036e-18
1.0299e-18
6.97626e-19
4.11238e-19
1.3523e-19
-1.54187e-19
-4.72463e-19
-8.29017e-19
-1.22906e-18
-1.67495e-18
-2.16726e-18
-2.70567e-18
-3.28988e-18
-3.92069e-18
-4.60087e-18
-5.33787e-18
-6.14777e-18
-7.06321e-18
-8.13651e-18
-9.43215e-18
-1.10029e-17
0.998305
0.985939
0.97904
0.123841
5.21905e-18
2.53336e-18
4.71833e-19
2.78757e-20
-1.87621e-20
4.4806e-21
2.59595e-20
4.6822e-20
5.39099e-20
5.527e-20
5.49311e-20
5.45552e-20
5.55521e-20
5.87098e-20
6.28844e-20
6.79089e-20
7.50202e-20
8.71856e-20
1.08995e-19
1.42358e-19
1.82704e-19
2.25412e-19
2.65583e-19
3.01958e-19
3.36797e-19
3.72783e-19
4.11877e-19
4.55208e-19
5.03131e-19
5.55378e-19
6.11286e-19
6.70016e-19
7.30713e-19
7.92602e-19
8.55035e-19
9.17527e-19
9.79808e-19
1.04189e-18
1.10412e-18
1.16715e-18
1.23194e-18
1.29968e-18
1.37172e-18
1.44949e-18
1.53433e-18
1.62748e-18
1.72989e-18
1.84215e-18
1.96439e-18
2.09611e-18
2.23595e-18
2.38134e-18
2.52783e-18
2.66802e-18
2.78822e-18
2.86913e-18
0.999984
0.954443
0.947921
0.399276
0.000207785
2.83743e-18
6.69875e-19
2.38238e-19
8.03049e-20
3.99467e-20
3.61812e-20
3.67102e-20
3.59623e-20
3.59746e-20
3.79433e-20
4.1402e-20
4.64769e-20
5.30083e-20
6.08722e-20
6.99568e-20
8.01977e-20
9.15287e-20
1.03909e-19
1.17317e-19
1.31796e-19
1.47517e-19
1.64841e-19
1.84343e-19
2.06797e-19
2.33092e-19
2.64129e-19
3.00709e-19
3.43456e-19
3.92784e-19
4.48918e-19
5.11953e-19
5.81906e-19
6.58759e-19
7.42471e-19
8.32983e-19
9.30217e-19
1.03409e-18
1.14457e-18
1.2617e-18
1.38559e-18
1.51647e-18
1.65467e-18
1.80066e-18
1.95506e-18
2.11872e-18
2.29275e-18
2.47861e-18
2.67815e-18
2.89372e-18
3.1282e-18
3.385e-18
3.6678e-18
3.97994e-18
4.32315e-18
4.69631e-18
0.999913
0.970118
0.935267
0.744739
0.000351008
2.73825e-18
6.14862e-19
1.75851e-19
3.75625e-20
2.01834e-20
2.2456e-20
2.01453e-20
1.60665e-20
1.36655e-20
1.32085e-20
1.34442e-20
1.47255e-20
1.68172e-20
1.965e-20
2.31572e-20
2.73291e-20
3.21471e-20
3.76207e-20
4.37684e-20
5.06384e-20
5.83295e-20
6.7012e-20
7.69455e-20
8.84778e-20
1.02025e-19
1.18035e-19
1.36945e-19
1.5914e-19
1.84923e-19
2.14513e-19
2.48049e-19
2.85616e-19
3.27263e-19
3.73025e-19
4.22932e-19
4.77027e-19
5.35383e-19
5.98128e-19
6.65469e-19
7.37713e-19
8.15271e-19
8.98683e-19
9.88641e-19
1.08604e-18
1.19205e-18
1.30819e-18
1.43646e-18
1.5795e-18
1.7407e-18
1.92447e-18
2.1363e-18
2.38283e-18
2.67169e-18
3.01059e-18
3.4061e-18
0.999991
1
0.949998
0.790292
4.29151e-19
1.65521e-18
5.40201e-19
1.49559e-19
2.14275e-20
1.2763e-20
1.28832e-20
9.60666e-21
6.72212e-21
4.99326e-21
4.16739e-21
3.57668e-21
3.57514e-21
3.92935e-21
4.57896e-21
5.46388e-21
6.58679e-21
7.94026e-21
9.53207e-21
1.13731e-20
1.34837e-20
1.58973e-20
1.86646e-20
2.18591e-20
2.55783e-20
2.99401e-20
3.50747e-20
4.11141e-20
4.81802e-20
5.63756e-20
6.57799e-20
7.64507e-20
8.84289e-20
1.01746e-19
1.16434e-19
1.32527e-19
1.50078e-19
1.69156e-19
1.89863e-19
2.12341e-19
2.36775e-19
2.63407e-19
2.92543e-19
3.24573e-19
3.59997e-19
3.99466e-19
4.43838e-19
4.94246e-19
5.52196e-19
6.19665e-19
6.99238e-19
7.94233e-19
9.08825e-19
1.04815e-18
1.21803e-18
1.42413e-18
1
1
0.975538
0.568633
4.29151e-19
9.67563e-19
4.67788e-19
1.37242e-19
1.75858e-20
8.40457e-21
7.27621e-21
4.99711e-21
3.23673e-21
2.14249e-21
1.51428e-21
1.0364e-21
8.21255e-22
7.41501e-22
7.69567e-22
8.83345e-22
1.05671e-21
1.28488e-21
1.56209e-21
1.89002e-21
2.27249e-21
2.71494e-21
3.22491e-21
3.81344e-21
4.49486e-21
5.28645e-21
6.20727e-21
7.27677e-21
8.51286e-21
9.93064e-21
1.15419e-20
1.33555e-20
1.5378e-20
1.76157e-20
2.00761e-20
2.27696e-20
2.57109e-20
2.8921e-20
3.24284e-20
3.62713e-20
4.04994e-20
4.51758e-20
5.0381e-20
5.62172e-20
6.28165e-20
7.03511e-20
7.90487e-20
8.92118e-20
1.01245e-19
1.15686e-19
1.33256e-19
1.54906e-19
1.81891e-19
2.15849e-19
2.58788e-19
3.12815e-19
0.984386
1
0.976369
0.304214
1.09808e-18
5.57455e-19
4.39434e-19
1.34855e-19
1.6415e-20
5.58162e-21
4.25679e-21
2.85954e-21
1.82387e-21
1.14708e-21
7.43607e-22
4.17248e-22
2.50776e-22
1.5974e-22
1.1433e-22
9.80092e-23
1.00387e-22
1.17067e-22
1.40201e-22
1.68093e-22
2.01219e-22
2.39367e-22
2.8283e-22
3.32241e-22
3.88374e-22
4.52188e-22
5.24749e-22
6.07162e-22
7.00439e-22
8.0545e-22
9.22948e-22
1.0536e-21
1.1981e-21
1.35729e-21
1.53233e-21
1.72485e-21
1.93705e-21
2.17188e-21
2.43325e-21
2.72618e-21
3.05712e-21
3.43431e-21
3.86828e-21
4.37272e-21
4.96553e-21
5.67059e-21
6.5201e-21
7.55803e-21
8.84505e-21
1.04655e-20
1.25375e-20
1.52277e-20
1.87717e-20
2.35036e-20
2.98778e-20
3.84368e-20
0.930976
0.999998
0.970692
0.240228
0.00167371
4.30095e-19
4.36988e-19
1.3937e-19
1.62226e-20
3.87057e-21
2.51321e-21
1.67869e-21
1.07803e-21
6.74381e-22
4.42063e-22
2.34544e-22
1.24843e-22
6.21345e-23
2.90534e-23
1.38816e-23
7.658e-24
5.47072e-24
5.05629e-24
5.47725e-24
6.40364e-24
7.39477e-24
8.47766e-24
9.68918e-24
1.10381e-23
1.25456e-23
1.42372e-23
1.61422e-23
1.82915e-23
2.07186e-23
2.34619e-23
2.65655e-23
3.00827e-23
3.40817e-23
3.86512e-23
4.3906e-23
4.99966e-23
5.71204e-23
6.55363e-23
7.55856e-23
8.77202e-23
1.02544e-22
1.20869e-22
1.438e-22
1.72855e-22
2.10149e-22
2.58655e-22
3.22611e-22
4.08132e-22
5.24147e-22
6.83863e-22
9.07051e-22
1.22359e-21
1.67886e-21
2.33968e-21
3.29274e-21
0.930907
0.99982
0.96703
0.259311
0.00930026
4.30114e-19
4.45078e-19
1.47076e-19
1.69118e-20
2.92649e-21
1.50052e-21
9.88113e-22
6.38238e-22
3.96104e-22
2.6495e-22
1.42635e-22
7.5978e-23
3.69807e-23
1.57044e-23
5.94977e-24
1.97942e-24
5.79824e-25
1.61107e-25
5.863e-26
3.96443e-26
3.9307e-26
4.30564e-26
4.82903e-26
5.36365e-26
5.94786e-26
6.60602e-26
7.34867e-26
8.18785e-26
9.14168e-26
1.02378e-25
1.15202e-25
1.30619e-25
1.49834e-25
1.74782e-25
2.08494e-25
2.55623e-25
3.23169e-25
4.21459e-25
5.65488e-25
7.76732e-25
1.08559e-24
1.53471e-24
2.18352e-24
3.11467e-24
4.44324e-24
6.33042e-24
9.00417e-24
1.27913e-23
1.8168e-23
2.58396e-23
3.68685e-23
5.28741e-23
7.6332e-23
1.10856e-22
1.60808e-22
0.930896
0.997203
0.970499
0.444921
0.010828
4.30095e-19
4.57682e-19
1.58409e-19
1.84752e-20
2.52314e-21
9.37255e-22
5.81544e-22
3.81037e-22
2.33986e-22
1.5743e-22
8.59983e-23
4.5819e-23
2.26722e-23
9.73564e-24
3.70037e-24
1.18988e-24
3.123e-25
6.32487e-26
9.06369e-27
7.10739e-28
4.72394e-30
7.50059e-31
6.5915e-31
7.24736e-31
8.31797e-31
9.85097e-31
1.18154e-30
3.20944e-30
1.18232e-29
3.69787e-29
9.65734e-29
2.20088e-28
4.53066e-28
8.6267e-28
1.54427e-27
2.62937e-27
4.295e-27
6.7744e-27
1.03696e-26
1.54666e-26
2.25538e-26
3.22445e-26
4.53081e-26
6.2716e-26
8.57093e-26
1.15905e-25
1.55468e-25
2.07378e-25
2.7586e-25
3.67051e-25
4.90042e-25
6.58422e-25
8.92233e-25
1.21829e-24
1.66034e-24
0.930896
0.994044
0.989189
0.611142
0.0117374
4.30115e-19
4.7265e-19
1.74011e-19
2.10436e-20
2.5115e-21
6.47164e-22
3.35235e-22
2.21952e-22
1.36267e-22
9.31268e-23
5.22754e-23
2.76911e-23
1.36631e-23
5.86167e-24
2.25111e-24
7.34796e-25
1.95056e-25
3.94449e-26
5.47443e-27
3.98828e-28
2.59402e-30
1.7612e-31
1.14272e-31
1.42043e-31
1.81506e-31
2.30912e-31
2.92992e-31
3.72437e-31
4.76458e-31
6.49755e-31
9.28101e-31
1.38215e-30
2.06621e-30
3.05141e-30
4.42362e-30
6.27077e-30
8.67099e-30
1.17152e-29
1.54999e-29
2.01162e-29
2.566e-29
3.22406e-29
3.99876e-29
4.90624e-29
5.96836e-29
7.21668e-29
8.69822e-29
1.0484e-28
1.26818e-28
1.54568e-28
1.90611e-28
2.38777e-28
3.04709e-28
3.9586e-28
5.18976e-28
0.931083
0.993836
0.998312
0.631984
0.0206864
4.30095e-19
4.90807e-19
1.95283e-19
2.49205e-20
2.82099e-21
5.30265e-22
1.94495e-22
1.26132e-22
7.71981e-23
5.31071e-23
3.10138e-23
1.66511e-23
8.31087e-24
3.56584e-24
1.35747e-24
4.3886e-25
1.16228e-25
2.37709e-26
3.34565e-27
2.48208e-28
1.99206e-30
1.02726e-31
3.60572e-32
4.32579e-32
5.6345e-32
7.28652e-32
9.34614e-32
1.19079e-31
1.50942e-31
1.90667e-31
2.40795e-31
3.07298e-31
3.92555e-31
4.99587e-31
6.34627e-31
8.10722e-31
1.02876e-30
1.30243e-30
1.65251e-30
2.0935e-30
2.64638e-30
3.34483e-30
4.23276e-30
5.36202e-30
6.80618e-30
8.67489e-30
1.11315e-29
1.44228e-29
1.89397e-29
2.53285e-29
3.46845e-29
4.88826e-29
7.11399e-29
1.06781e-28
1.63763e-28
0.981851
0.996266
0.999968
0.608211
0.0363859
4.30116e-19
5.13624e-19
2.24087e-19
3.05021e-20
3.41276e-21
5.20226e-22
1.19521e-22
7.1888e-23
4.36896e-23
2.98454e-23
1.78492e-23
9.67197e-24
4.91531e-24
2.15216e-24
8.27935e-25
2.66763e-25
6.95133e-26
1.39642e-26
1.93852e-27
1.45381e-28
1.53385e-30
7.26998e-32
1.11091e-32
1.12265e-32
1.49771e-32
1.99114e-32
2.61307e-32
3.39068e-32
4.35591e-32
5.55209e-32
7.03136e-32
8.86147e-32
1.11305e-31
1.39621e-31
1.75816e-31
2.24062e-31
2.85156e-31
3.60522e-31
4.59219e-31
5.84362e-31
7.40966e-31
9.41657e-31
1.20306e-30
1.53981e-30
1.97851e-30
2.56536e-30
3.37306e-30
4.51449e-30
6.18699e-30
8.76316e-30
1.29646e-29
2.01971e-29
3.33203e-29
5.82543e-29
1.07027e-28
1
0.999648
0.999946
0.607414
0.0565481
4.30095e-19
5.4037e-19
2.62314e-19
3.82626e-20
4.2656e-21
5.72735e-22
8.06811e-23
4.0631e-23
2.4769e-23
1.68933e-23
1.03125e-23
5.59329e-24
2.84365e-24
1.25511e-24
4.88316e-25
1.59489e-25
4.19126e-26
8.38497e-27
1.14164e-27
8.46214e-29
1.17977e-30
5.60304e-32
4.22244e-33
2.53033e-33
3.36267e-33
4.59927e-33
6.21718e-33
8.29681e-33
1.09154e-32
1.41855e-32
1.82294e-32
2.32042e-32
2.93157e-32
3.68238e-32
4.60761e-32
5.75356e-32
7.1827e-32
8.98798e-32
1.13807e-31
1.45411e-31
1.85384e-31
2.37189e-31
3.08221e-31
4.0209e-31
5.29222e-31
7.11705e-31
9.86516e-31
1.41031e-30
2.09616e-30
3.29738e-30
5.58168e-30
1.02018e-29
2.0221e-29
4.35628e-29
1.00262e-28
1
1
1
0.699881
0.0818336
4.30122e-19
5.69381e-19
3.1183e-19
4.88853e-20
5.46618e-21
6.76643e-22
6.28041e-23
2.25809e-23
1.38647e-23
9.44255e-24
5.9113e-24
3.25343e-24
1.66609e-24
7.37495e-25
2.85236e-25
9.26861e-26
2.43894e-26
4.88941e-27
6.66018e-28
4.99869e-29
9.31315e-31
4.52305e-32
2.3721e-33
5.61834e-34
6.71222e-34
9.24011e-34
1.26844e-33
1.72807e-33
2.32941e-33
3.10487e-33
4.08655e-33
5.31045e-33
6.82157e-33
8.67531e-33
1.09483e-32
1.3744e-32
1.72056e-32
2.15375e-32
2.7039e-32
3.41575e-32
4.3581e-32
5.64339e-32
7.52846e-32
1.0271e-31
1.42529e-31
2.05396e-31
3.1199e-31
4.93755e-31
8.18093e-31
1.46122e-30
2.86777e-30
6.1042e-30
1.41801e-29
3.63381e-29
9.95691e-29
1
0.999992
1
0.785678
0.114452
4.30095e-19
5.97878e-19
3.73265e-19
6.29225e-20
7.15808e-21
8.35249e-22
5.78083e-23
1.26615e-23
7.76235e-24
5.23016e-24
3.31887e-24
1.8594e-24
9.67126e-25
4.35561e-25
1.69698e-25
5.50026e-26
1.43014e-26
2.81002e-27
3.76278e-28
2.84509e-29
7.16368e-31
3.61858e-32
1.71323e-33
1.54719e-34
1.25789e-34
1.71572e-34
2.36463e-34
3.23144e-34
4.38356e-34
5.9034e-34
7.89293e-34
1.04643e-33
1.37381e-33
1.78486e-33
2.29679e-33
2.93335e-33
3.73026e-33
4.74466e-33
6.06996e-33
7.8587e-33
1.03628e-32
1.40069e-32
1.95181e-32
2.81647e-32
4.22357e-32
6.61446e-32
1.09741e-31
1.92485e-31
3.4914e-31
6.81749e-31
1.47119e-30
3.43503e-30
8.7467e-30
2.49585e-29
7.6928e-29
0.984326
0.999945
1
0.845316
0.159571
4.30122e-19
6.22189e-19
4.45707e-19
8.05723e-20
9.42722e-21
1.04395e-21
6.00087e-23
7.21558e-24
4.37816e-24
2.91623e-24
1.86597e-24
1.05924e-24
5.54599e-25
2.52953e-25
9.97959e-26
3.27048e-26
8.53481e-27
1.66273e-27
2.18581e-28
1.63839e-29
5.3787e-31
2.78351e-32
1.29505e-33
6.76707e-35
2.31429e-35
2.96536e-35
4.11513e-35
5.66126e-35
7.71171e-35
1.03981e-34
1.39034e-34
1.847e-34
2.43884e-34
3.20459e-34
4.19253e-34
5.46518e-34
7.11266e-34
9.28418e-34
1.22512e-33
1.65092e-33
2.29619e-33
3.32705e-33
5.04948e-33
8.02742e-33
1.33138e-32
2.2918e-32
4.07932e-32
7.50499e-32
1.43424e-31
2.88801e-31
6.28658e-31
1.50647e-30
3.90437e-30
1.13752e-29
3.71059e-29
0.949444
0.999068
1
0.898202
0.223289
4.30095e-19
6.40333e-19
5.26223e-19
1.02042e-19
1.246e-20
1.31987e-21
6.67922e-23
4.18534e-24
2.46064e-24
1.6186e-24
1.04622e-24
6.06318e-25
3.20825e-25
1.47943e-25
5.86971e-26
1.93349e-26
5.06622e-27
9.85294e-28
1.28719e-28
9.72654e-30
4.02657e-31
2.11936e-32
9.81539e-34
4.26477e-35
5.01869e-36
4.88364e-36
6.70396e-36
9.25213e-36
1.26718e-35
1.72025e-35
2.31257e-35
3.07718e-35
4.05614e-35
5.3118e-35
6.92894e-35
9.03594e-35
1.18264e-34
1.56252e-34
2.10327e-34
2.92e-34
4.24037e-34
6.51765e-34
1.06551e-33
1.84265e-33
3.33303e-33
6.23852e-33
1.20034e-32
2.36913e-32
4.8039e-32
1.00399e-31
2.1702e-31
4.86986e-31
1.14512e-30
2.90429e-30
7.91399e-30
0.948778
0.991281
1
0.945253
0.3095
4.30122e-19
6.50453e-19
6.0993e-19
1.27337e-19
1.64445e-20
1.69551e-21
7.79963e-23
2.54016e-24
1.38357e-24
8.92788e-25
5.79518e-25
3.43101e-25
1.8437e-25
8.66712e-26
3.49032e-26
1.16364e-26
3.06659e-27
5.94182e-28
7.68733e-29
5.85375e-30
2.9254e-31
1.56891e-32
7.31924e-34
3.05408e-35
1.71504e-36
8.00067e-37
1.04973e-36
1.44419e-36
1.97069e-36
2.66799e-36
3.58547e-36
4.78344e-36
6.33289e-36
8.3176e-36
1.08428e-35
1.40519e-35
1.81709e-35
2.36257e-35
3.11888e-35
4.24155e-35
6.05367e-35
9.24197e-35
1.52888e-34
2.73021e-34
5.1682e-34
1.01543e-33
2.03881e-33
4.145e-33
8.50082e-33
1.75361e-32
3.61459e-32
7.33614e-32
1.42603e-31
2.52895e-31
3.68583e-31
0.948778
0.984841
1
0.978321
0.416159
4.30095e-19
6.51045e-19
6.92424e-19
1.56153e-19
2.1268e-20
2.17959e-21
9.32136e-23
1.65042e-24
7.78927e-25
4.91153e-25
3.19299e-25
1.92688e-25
1.05062e-25
5.03253e-26
2.06343e-26
6.99896e-27
1.8712e-27
3.66661e-28
4.75658e-29
3.6619e-30
2.09167e-31
1.13219e-32
5.29358e-34
2.19293e-35
9.33505e-37
1.44194e-37
1.55044e-37
2.12754e-37
2.91734e-37
3.95836e-37
5.30996e-37
7.04841e-37
9.27548e-37
1.21219e-36
1.57573e-36
2.03935e-36
2.62856e-36
3.38102e-36
4.35801e-36
5.67374e-36
7.55934e-36
1.05182e-35
1.56374e-35
2.53127e-35
4.47058e-35
8.45762e-35
1.6633e-34
3.30329e-34
6.50264e-34
1.25611e-33
2.35819e-33
4.2438e-33
7.14861e-33
1.08682e-32
1.38515e-32
0.95345
0.984526
1
0.995188
0.535374
4.30122e-19
6.4144e-19
7.72053e-19
1.88539e-19
2.68533e-20
2.79415e-21
1.12885e-22
1.18136e-24
4.3716e-25
2.67533e-25
1.73547e-25
1.06666e-25
5.9251e-26
2.90123e-26
1.21631e-26
4.21169e-27
1.14573e-27
2.27951e-28
2.98314e-29
2.33335e-30
1.46603e-31
8.02126e-33
3.77074e-34
1.56136e-35
6.18304e-37
3.93644e-38
2.24086e-38
2.95182e-38
4.02961e-38
5.46505e-38
7.35267e-38
9.80225e-38
1.29349e-37
1.68862e-37
2.18156e-37
2.79296e-37
3.55401e-37
4.50895e-37
5.72322e-37
7.29504e-37
9.3765e-37
1.22373e-36
1.64012e-36
2.29308e-36
3.40596e-36
5.45327e-36
9.40652e-36
1.71159e-35
3.17497e-35
5.81532e-35
1.02647e-34
1.71703e-34
2.67488e-34
3.799e-34
4.67692e-34
0.957593
0.989369
1
1
0.651056
1.60921e-18
6.22646e-19
8.4947e-19
2.2434e-19
3.30386e-20
3.52231e-21
1.3675e-22
9.62767e-25
2.45368e-25
1.44734e-25
9.32268e-26
5.80569e-26
3.27939e-26
1.63698e-26
7.02155e-27
2.49651e-27
6.98071e-28
1.42604e-28
1.9057e-29
1.51724e-30
1.0084e-31
5.5374e-33
2.60656e-34
1.08064e-35
4.21883e-37
1.84884e-38
3.48874e-39
3.8977e-39
5.29807e-39
7.17104e-39
9.59707e-39
1.2711e-38
1.6684e-38
2.17254e-38
2.80753e-38
3.59853e-38
4.57234e-38
5.75927e-38
7.20076e-38
8.96275e-38
1.11632e-37
1.40073e-37
1.78445e-37
2.32758e-37
3.13293e-37
4.38443e-37
6.4189e-37
9.85476e-37
1.58095e-36
2.60709e-36
4.28422e-36
6.78742e-36
1.00943e-35
1.37855e-35
1.71227e-35
0.969285
0.991915
1
1
0.741176
0.0207484
5.99423e-19
9.25738e-19
2.63956e-19
3.9558e-20
4.28417e-21
1.62449e-22
9.02037e-25
1.36463e-25
7.71882e-26
4.92566e-26
3.10775e-26
1.79057e-26
9.12597e-27
3.99807e-27
1.45286e-27
4.15943e-28
8.71493e-29
1.19725e-29
9.79223e-31
6.7981e-32
3.77157e-33
1.77913e-34
7.35244e-36
2.84004e-37
1.12176e-38
7.91847e-40
4.84294e-40
6.36076e-40
8.63809e-40
1.16296e-39
1.54767e-39
2.03369e-39
2.63872e-39
3.38279e-39
4.29189e-39
5.39923e-39
6.74549e-39
8.37868e-39
1.03526e-38
1.27279e-38
1.5592e-38
1.90985e-38
2.35362e-38
2.94535e-38
3.78445e-38
5.04002e-38
6.97856e-38
9.9924e-38
1.46329e-37
2.16021e-37
3.15817e-37
4.46649e-37
5.92856e-37
7.21351e-37
0.986795
0.988703
0.999928
1
0.795201
0.0448685
5.99533e-19
1.00664e-18
3.10455e-19
4.62814e-20
4.98982e-21
1.87859e-22
9.61858e-25
7.51122e-26
4.04828e-26
2.54466e-26
1.62068e-26
9.5048e-27
4.9518e-27
2.22659e-27
8.32231e-28
2.45218e-28
5.27304e-29
7.41509e-30
6.17794e-31
4.39338e-32
2.4634e-33
1.17223e-34
4.87817e-36
1.88616e-37
7.25476e-39
3.31201e-40
6.45173e-41
7.06335e-41
9.489e-41
1.27246e-40
1.68953e-40
2.22128e-40
2.89076e-40
3.721e-40
4.73299e-40
5.94519e-40
7.37586e-40
9.04759e-40
1.09931e-39
1.32632e-39
1.59298e-39
1.90879e-39
2.28626e-39
2.74221e-39
3.30515e-39
4.02824e-39
5.00759e-39
6.40258e-39
8.44075e-39
1.13822e-38
1.54119e-38
2.04664e-38
2.59347e-38
3.1062e-38
0.779264
0.988108
1
1
0.817269
0.0587072
5.99423e-19
1.10565e-18
3.66287e-19
5.33974e-20
5.48325e-21
2.06383e-22
1.10849e-24
4.04142e-26
2.07482e-26
1.28278e-26
8.26932e-27
4.93893e-27
2.62363e-27
1.20499e-27
4.61144e-28
1.39682e-28
3.09944e-29
4.49962e-30
3.84054e-31
2.78035e-32
1.5696e-33
7.4802e-35
3.11236e-36
1.20138e-37
4.58105e-39
1.87291e-40
1.30741e-41
7.07561e-42
9.13131e-42
1.2325e-41
1.64585e-41
2.16875e-41
2.8197e-41
3.61859e-41
4.58607e-41
5.74325e-41
7.1097e-41
8.70187e-41
1.05314e-40
1.26007e-40
1.49092e-40
1.746e-40
2.02769e-40
2.34259e-40
2.70313e-40
3.12849e-40
3.64533e-40
4.29163e-40
5.13235e-40
6.26202e-40
7.77159e-40
9.67252e-40
1.17717e-39
1.37441e-39
0.941524
0.994737
1
1
0.778818
0.0637475
5.99533e-19
1.21315e-18
4.2987e-19
6.1697e-20
5.83515e-21
2.14721e-22
1.31045e-24
2.10448e-26
1.02751e-26
6.21519e-27
4.0627e-27
2.48197e-27
1.35238e-27
6.37779e-28
2.50606e-28
7.7844e-29
1.7708e-29
2.63458e-30
2.29457e-31
1.68883e-32
9.66295e-34
4.64642e-35
1.9412e-36
7.47458e-38
2.81871e-39
1.11126e-40
5.21268e-42
7.59779e-43
7.24863e-43
9.68827e-43
1.30218e-42
1.73e-42
2.2697e-42
2.939e-42
3.75299e-42
4.72219e-42
5.85093e-42
7.13683e-42
8.57413e-42
1.01561e-41
1.1877e-41
1.37291e-41
1.56934e-41
1.77257e-41
1.97716e-41
2.18038e-41
2.38746e-41
2.61271e-41
2.8822e-41
3.23173e-41
3.69545e-41
4.292e-41
4.97377e-41
5.69518e-41
1
1
1
1
0.664793
0.048429
1.8963e-18
1.34954e-18
5.05575e-19
7.26575e-20
6.2859e-21
2.08971e-22
1.51103e-24
1.05464e-26
4.9132e-27
2.89498e-27
1.92012e-27
1.19872e-27
6.69138e-28
3.24303e-28
1.31382e-28
4.21353e-29
9.88489e-30
1.51016e-30
1.33671e-31
9.9141e-33
5.70909e-34
2.75944e-35
1.15871e-36
4.47468e-38
1.68176e-39
6.52282e-41
2.79092e-42
1.62595e-43
4.66721e-44
5.49664e-44
7.48429e-44
1.01186e-43
1.34762e-43
1.76685e-43
2.28019e-43
2.89653e-43
3.62143e-43
4.45453e-43
5.38638e-43
6.39616e-43
7.45223e-43
8.51686e-43
9.55476e-43
1.05357e-42
1.14322e-42
1.22142e-42
1.28399e-42
1.32851e-42
1.36067e-42
1.39803e-42
1.46401e-42
1.57918e-42
1.74584e-42
1.95199e-42
1
1
1
1
1
1
1
1
1
1
1
1
1
1
1
1
1
1
1
1
1
1
1
1
1
1
1
1
1
1
1
1
1
1
1
1
1
1
1
1
1
1
1
1
1
1
1
1
1
1
1
1
1
1
1
1
1
1
1
1
1
1
1
1
1
1
1
1
1
1
1
1
1
1
1
1
1
1
1
1
1
1
1
1
1
1
1
1
1
1
1
1
1
1
1
1
1
1
1
1
1
1
1
1
1
1
1
1
1
1
1
1
1
1
1
1
1
1
1
1
1
1
1
1
1
1
1
1
1
1
1
1
1
1
1
1
1
1
1
1
1
1
1
1
1
1
1
1
1
1
1
1
1
1
1
1
1
1
1
1
1
1
1
1
1
1
1
1
1
1
1
1
1
1
1
1
1
1
1
1
1
1
1
1
1
1
1
1
1
1
1
1
1
1
1
1
1
1
1
1
1
1
1
1
1
1
1
1
1
1
1
1
1
1
1
1
1
1
1
1
0.999886
1
1
1
1
1
1
1
1
1
0.99963
0.998421
0.995222
0.989032
0.978043
0.960369
0.933313
0.892027
0.836627
0.760297
0.556823
0.562489
0.553187
0.554282
0.541111
0.534731
0.516176
0.500781
0.476353
0.449834
0.416889
0.379235
0.336321
0.288825
0.237357
0.183366
0.129601
0.0785674
0.0266025
1.49352e-18
6.91176e-23
6.91176e-23
6.91176e-23
6.91176e-23
6.91176e-23
6.91176e-23
6.91176e-23
6.91176e-23
6.91176e-23
6.91176e-23
6.91176e-23
6.91176e-23
6.91176e-23
6.91176e-23
6.91176e-23
6.91176e-23
6.91176e-23
6.91176e-23
6.91176e-23
1.1865e-20
8.57062e-22
9.08413e-22
1.76598e-21
2.43076e-21
3.04795e-21
3.40186e-21
3.69857e-21
3.81553e-21
3.79103e-21
3.59069e-21
3.2397e-21
2.76561e-21
2.20747e-21
1.61552e-21
1.02412e-21
5.09715e-22
2.49192e-22
4.75938e-22
1.04473e-21
4.16639e-21
4.71197e-22
2.5497e-22
2.92675e-22
4.13377e-22
6.166e-22
7.06065e-22
7.61216e-22
7.7362e-22
7.45461e-22
6.81575e-22
5.90975e-22
4.85818e-22
3.77265e-22
2.78782e-22
1.91776e-22
1.2982e-22
8.15455e-23
3.9445e-23
1.73298e-23
4.07025e-24
2.7648e-22
9.81401e-23
5.69042e-23
7.11746e-23
9.55884e-23
1.0912e-22
1.14071e-22
1.09655e-22
9.8376e-23
8.25709e-23
6.49206e-23
4.78658e-23
3.30314e-23
2.15946e-23
1.31416e-23
7.79376e-24
4.29372e-24
2.07453e-24
8.08677e-25
4.31973e-25
1.03676e-22
1.84487e-23
1.01967e-23
1.17585e-23
1.29511e-23
1.38822e-23
1.38082e-23
1.2826e-23
1.11615e-23
9.13185e-24
7.03788e-24
5.11002e-24
3.49849e-24
2.24943e-24
1.35813e-24
7.5293e-25
3.56847e-25
9.27881e-26
1.65788e-26
9.73212e-27
4.05611e-23
9.37479e-24
2.84318e-24
2.33052e-24
2.22183e-24
2.15518e-24
1.96375e-24
1.67147e-24
1.33089e-24
9.93056e-25
6.95544e-25
4.57869e-25
2.83881e-25
1.6695e-25
9.39434e-26
5.18824e-26
2.86305e-26
1.49909e-26
8.25737e-27
4.27546e-27
8.41034e-24
9.65543e-25
4.23969e-25
3.98228e-25
3.41557e-25
3.06427e-25
2.61558e-25
2.11948e-25
1.6243e-25
1.17632e-25
8.04885e-26
5.19627e-26
3.15629e-26
1.79493e-26
9.43804e-27
4.47803e-27
1.81587e-27
5.12431e-28
1.17074e-28
4.68331e-29
9.58749e-25
2.61955e-25
9.94782e-26
6.60701e-26
5.07872e-26
4.1246e-26
3.23446e-26
2.41638e-26
1.70504e-26
1.13426e-26
7.11018e-27
4.20044e-27