/*--------------------------------*- C++ -*----------------------------------*\
| =========                 |                                                 |
| \\      /  F ield         | OpenFOAM: The Open Source CFD Toolbox           |
|  \\    /   O peration     | Version:  v1606+                                |
|   \\  /    A nd           | Web:      www.OpenFOAM.com                      |
|    \\/     M anipulation  |                                                 |
\*---------------------------------------------------------------------------*/
FoamFile
{
    version     2.0;
    format      ascii;
    class       volVectorField;
    location    "0.44";
    object      U.particlesMean;
}
// * * * * * * * * * * * * * * * * * * * * * * * * * * * * * * * * * * * * * //

dimensions      [0 1 -1 0 0 0 0];

internalField   nonuniform List<vector> 
6000
(
(-0.00733572 -0.303145 0)
(-0.00504877 -0.335188 0)
(-0.00249926 -0.335084 0)
(-0.00180735 -0.336984 0)
(-0.000171794 -0.338117 0)
(0.00122647 -0.33846 0)
(0.0038445 -0.341629 0)
(0.00544328 -0.346503 0)
(0.00641412 -0.352759 0)
(0.00603691 -0.357958 0)
(0.00534198 -0.360353 0)
(0.00477982 -0.361233 0)
(0.00380146 -0.364226 0)
(0.00267865 -0.366135 0)
(0.000871757 -0.367038 0)
(-0.00109404 -0.366365 0)
(-0.00243092 -0.365185 0)
(-0.00351816 -0.363229 0)
(-0.00418501 -0.361854 0)
(-0.00535191 -0.361144 0)
(-0.0063378 -0.357425 0)
(-0.00651721 -0.351636 0)
(-0.00540628 -0.345257 0)
(-0.00347969 -0.340494 0)
(-0.000935264 -0.338741 0)
(0.00042203 -0.337069 0)
(0.00210704 -0.335859 0)
(0.00306922 -0.333863 0)
(0.00600417 -0.333824 0)
(0.0079117 -0.304233 0)
(0.0103554 0.0340109 0)
(-0.00204319 0.0589048 0)
(-0.00236956 0.0563275 0)
(-0.0076356 0.0575636 0)
(-0.00670881 0.0539366 0)
(-0.00467418 0.0499783 0)
(-0.00153036 0.0457595 0)
(0.00101221 0.0434322 0)
(0.00332584 0.0430107 0)
(0.00436389 0.0435937 0)
(0.00468675 0.0433982 0)
(0.00437046 0.0424143 0)
(0.00360543 0.0425839 0)
(0.00222793 0.0421243 0)
(0.000779491 0.0421781 0)
(-0.000666806 0.0420203 0)
(-0.00212863 0.0424023 0)
(-0.00330564 0.0417974 0)
(-0.00408284 0.042739 0)
(-0.00431996 0.0436786 0)
(-0.00400896 0.0433124 0)
(-0.00309394 0.0432741 0)
(-0.00105897 0.0433813 0)
(0.00163493 0.0458178 0)
(0.00494578 0.0504555 0)
(0.00707732 0.0533033 0)
(0.00833231 0.0567925 0)
(0.00344928 0.0559302 0)
(0.00289113 0.0586243 0)
(-0.00996721 0.0340171 0)
(-0.00557224 -0.0099091 0)
(-0.00650884 -0.0205575 0)
(-0.00436175 -0.0202752 0)
(-0.0092022 -0.0241861 0)
(-0.00595626 -0.0298394 0)
(-0.00359386 -0.0312967 0)
(-0.000544826 -0.0310601 0)
(0.00141646 -0.0316163 0)
(0.00314021 -0.0312264 0)
(0.00366969 -0.0310909 0)
(0.00395763 -0.0324278 0)
(0.00356042 -0.0327297 0)
(0.00279264 -0.0322463 0)
(0.00182812 -0.0320723 0)
(0.000769195 -0.0314595 0)
(-0.000446737 -0.0317733 0)
(-0.00158793 -0.0321036 0)
(-0.00254475 -0.0327216 0)
(-0.0034958 -0.0325752 0)
(-0.00359495 -0.031782 0)
(-0.0032454 -0.0308467 0)
(-0.00280335 -0.0308857 0)
(-0.00130894 -0.0313949 0)
(0.000678312 -0.0315039 0)
(0.00409767 -0.0312295 0)
(0.00675285 -0.0299771 0)
(0.0100564 -0.0247906 0)
(0.00536109 -0.0209271 0)
(0.00711136 -0.0198903 0)
(0.00563402 -0.00879663 0)
(-0.00219237 -0.00579137 0)
(-0.00853746 -0.0221607 0)
(-0.0117751 -0.0217949 0)
(-0.0149258 -0.0286016 0)
(-0.0109883 -0.0356703 0)
(-0.00560023 -0.0389074 0)
(0.00114699 -0.037784 0)
(0.00588089 -0.034964 0)
(0.00799793 -0.0306599 0)
(0.00709589 -0.0265242 0)
(0.00520728 -0.024649 0)
(0.00333714 -0.0235782 0)
(0.00183029 -0.0232742 0)
(0.000915878 -0.0233482 0)
(0.000440803 -0.0232677 0)
(1.59657e-05 -0.0232817 0)
(-0.000506614 -0.0234185 0)
(-0.00146468 -0.0233645 0)
(-0.00313998 -0.0235784 0)
(-0.00494699 -0.0245479 0)
(-0.00683842 -0.0264455 0)
(-0.007695 -0.0304565 0)
(-0.00544295 -0.0348895 0)
(-0.000662736 -0.038445 0)
(0.0064533 -0.039413 0)
(0.0121553 -0.0361895 0)
(0.0160163 -0.0290941 0)
(0.0128468 -0.0220928 0)
(0.0091399 -0.0211418 0)
(0.00227657 -0.00461529 0)
(-0.00238169 -0.00962139 0)
(-0.0176356 -0.0284371 0)
(-0.0242008 -0.03305 0)
(-0.0249151 -0.0499648 0)
(-0.0194024 -0.0639547 0)
(-0.0104455 -0.0716683 0)
(0.000342552 -0.070856 0)
(0.00933514 -0.0662542 0)
(0.0149866 -0.0587918 0)
(0.0160787 -0.051523 0)
(0.0134184 -0.0475054 0)
(0.00927722 -0.0456053 0)
(0.00541163 -0.0449083 0)
(0.00271466 -0.0451571 0)
(0.000975418 -0.0452481 0)
(-0.000447189 -0.0453203 0)
(-0.00228131 -0.0452377 0)
(-0.00507877 -0.0449967 0)
(-0.00904436 -0.0455068 0)
(-0.0131799 -0.0471579 0)
(-0.0158466 -0.0513161 0)
(-0.0145738 -0.0584995 0)
(-0.00855275 -0.0660254 0)
(0.000501149 -0.0713985 0)
(0.0114755 -0.0722694 0)
(0.0205307 -0.0644966 0)
(0.0260446 -0.050393 0)
(0.025292 -0.0332341 0)
(0.0184965 -0.0268485 0)
(0.00266514 -0.00775447 0)
(-0.00412539 -0.00775184 0)
(-0.0281373 -0.0230859 0)
(-0.0366855 -0.0391671 0)
(-0.0363681 -0.0662724 0)
(-0.0284278 -0.0844998 0)
(-0.0152252 -0.0938888 0)
(-0.000813754 -0.0919963 0)
(0.0115086 -0.0845576 0)
(0.020525 -0.0737049 0)
(0.0258671 -0.0652519 0)
(0.0255521 -0.0592237 0)
(0.0204354 -0.056784 0)
(0.0137826 -0.0558737 0)
(0.00771452 -0.0561861 0)
(0.00265156 -0.0565917 0)
(-0.00203487 -0.0565552 0)
(-0.00726617 -0.0560945 0)
(-0.0135005 -0.0557537 0)
(-0.0202898 -0.0565345 0)
(-0.0252982 -0.0588215 0)
(-0.025454 -0.0649252 0)
(-0.0198545 -0.0734304 0)
(-0.0105473 -0.0844955 0)
(0.00180243 -0.0928017 0)
(0.0163944 -0.094664 0)
(0.0296211 -0.0852478 0)
(0.0375547 -0.0668219 0)
(0.0375249 -0.0391669 0)
(0.0286635 -0.0207435 0)
(0.00398423 -0.00506886 0)
(-0.0141751 0.00555313 0)
(-0.039795 -0.0198225 0)
(-0.0459349 -0.0467639 0)
(-0.043103 -0.0775919 0)
(-0.0343644 -0.0994016 0)
(-0.0198999 -0.111165 0)
(-0.00364367 -0.110726 0)
(0.0134169 -0.100765 0)
(0.0255045 -0.0844805 0)
(0.0332467 -0.0708529 0)
(0.035012 -0.0613562 0)
(0.030396 -0.0565029 0)
(0.0223979 -0.0558338 0)
(0.0130895 -0.0565948 0)
(0.00443538 -0.0577347 0)
(-0.00378279 -0.0576438 0)
(-0.0125861 -0.0564399 0)
(-0.0221128 -0.0556776 0)
(-0.0303252 -0.0564098 0)
(-0.0347884 -0.0613534 0)
(-0.0328619 -0.0710862 0)
(-0.0246832 -0.084975 0)
(-0.0121805 -0.101515 0)
(0.00497269 -0.111657 0)
(0.021093 -0.111853 0)
(0.035289 -0.0996512 0)
(0.0437005 -0.0771884 0)
(0.0462204 -0.0460475 0)
(0.0397483 -0.0169989 0)
(0.0138239 0.00839677 0)
(-0.0065327 0.0192426 0)
(-0.038044 -0.00693134 0)
(-0.0432649 -0.0428671 0)
(-0.0400341 -0.0773044 0)
(-0.031789 -0.104239 0)
(-0.0192334 -0.119054 0)
(-0.00455306 -0.120099 0)
(0.0118035 -0.10852 0)
(0.0239412 -0.0884235 0)
(0.0337833 -0.0708588 0)
(0.0376085 -0.0584549 0)
(0.0356999 -0.0514208 0)
(0.0275483 -0.0512009 0)
(0.0167321 -0.0524753 0)
(0.0056797 -0.0539364 0)
(-0.0049411 -0.05382 0)
(-0.0160632 -0.0522781 0)
(-0.0270198 -0.0508995 0)
(-0.0352885 -0.051192 0)
(-0.0369656 -0.0584734 0)
(-0.0331178 -0.0712476 0)
(-0.0230018 -0.0892923 0)
(-0.0107045 -0.109579 0)
(0.00576022 -0.121184 0)
(0.0203253 -0.119862 0)
(0.0325222 -0.104523 0)
(0.0405118 -0.0766113 0)
(0.0429701 -0.0415101 0)
(0.037618 -0.00417913 0)
(0.00637257 0.0225961 0)
(-0.00214444 0.0282726 0)
(-0.0294187 0.00574742 0)
(-0.0336389 -0.0337526 0)
(-0.0304102 -0.0728512 0)
(-0.0260857 -0.102151 0)
(-0.0144724 -0.120173 0)
(-0.00354269 -0.122897 0)
(0.0110928 -0.111675 0)
(0.0220833 -0.0896513 0)
(0.0311561 -0.0666498 0)
(0.0325954 -0.0470476 0)
(0.033208 -0.0366185 0)
(0.0267354 -0.0357403 0)
(0.0166815 -0.0374827 0)
(0.00568782 -0.0391217 0)
(-0.00511555 -0.0390155 0)
(-0.0161406 -0.0372505 0)
(-0.0262549 -0.0353782 0)
(-0.0326713 -0.0363549 0)
(-0.0318168 -0.0469743 0)
(-0.0306368 -0.0672675 0)
(-0.0213036 -0.0905113 0)
(-0.0102649 -0.11272 0)
(0.00441978 -0.123866 0)
(0.0152541 -0.121045 0)
(0.0266526 -0.102481 0)
(0.0308664 -0.0722816 0)
(0.0333621 -0.0321261 0)
(0.0290446 0.00813603 0)
(0.00209902 0.0311844 0)
(0.00112454 0.0414293 0)
(-0.0181247 0.0235145 0)
(-0.0179095 -0.0166608 0)
(-0.0158562 -0.0591126 0)
(-0.0140893 -0.0927953 0)
(-0.00709906 -0.115812 0)
(0.000175142 -0.121395 0)
(0.0110237 -0.110597 0)
(0.0195235 -0.0863868 0)
(0.0271767 -0.0604372 0)
(0.0260164 -0.036108 0)
(0.027723 -0.0217179 0)
(0.02374 -0.0179862 0)
(0.0151776 -0.0193181 0)
(0.00512229 -0.0208745 0)
(-0.0047329 -0.0207751 0)
(-0.0147686 -0.0191327 0)
(-0.0233235 -0.0176417 0)
(-0.0270248 -0.0214627 0)
(-0.0253915 -0.036409 0)
(-0.0267008 -0.0611028 0)
(-0.0189708 -0.0873217 0)
(-0.0104313 -0.111681 0)
(0.000321846 -0.122245 0)
(0.00743143 -0.11646 0)
(0.0142342 -0.0927207 0)
(0.015704 -0.0586478 0)
(0.0176681 -0.0153693 0)
(0.0174482 0.0261122 0)
(-0.000870687 0.0445102 0)
(0.00361752 0.0506631 0)
(-0.00849823 0.0335478 0)
(-0.00138941 -0.00492965 0)
(0.00102767 -0.053021 0)
(-0.000805573 -0.0865513 0)
(0.00274181 -0.11069 0)
(0.00515663 -0.118604 0)
(0.0120524 -0.108656 0)
(0.0174876 -0.0839173 0)
(0.0211479 -0.0552958 0)
(0.0196714 -0.0296559 0)
(0.0184046 -0.00887464 0)
(0.0180857 -0.00239942 0)
(0.0118306 -0.00284931 0)
(0.00401499 -0.00406968 0)
(-0.00372805 -0.00397124 0)
(-0.011564 -0.00264934 0)
(-0.0177363 -0.00213977 0)
(-0.0176893 -0.00914705 0)
(-0.0194098 -0.0308379 0)
(-0.020569 -0.0565846 0)
(-0.0170542 -0.0851161 0)
(-0.0117407 -0.109727 0)
(-0.00510825 -0.119219 0)
(-0.00283796 -0.11084 0)
(0.00037196 -0.0867888 0)
(-0.00180458 -0.0531304 0)
(0.000801995 -0.00413465 0)
(0.00837179 0.0352309 0)
(-0.00311076 0.0533454 0)
(0.00805138 0.0544862 0)
(0.00202943 0.0387447 0)
(0.0141093 0.00374056 0)
(0.0192247 -0.0477201 0)
(0.0140643 -0.0841781 0)
(0.0150021 -0.10777 0)
(0.012201 -0.114064 0)
(0.0138659 -0.106175 0)
(0.0153278 -0.0842758 0)
(0.0154868 -0.0577798 0)
(0.0129859 -0.0294163 0)
(0.00885882 -0.00329528 0)
(0.0089519 0.00771673 0)
(0.00672224 0.00931631 0)
(0.00220398 0.00870358 0)
(-0.00216581 0.0087709 0)
(-0.00664912 0.00943199 0)
(-0.00854612 0.00774378 0)
(-0.00877869 -0.00411472 0)
(-0.0132781 -0.0307477 0)
(-0.0152614 -0.0594847 0)
(-0.0150943 -0.0855767 0)
(-0.0137226 -0.107009 0)
(-0.0123871 -0.114678 0)
(-0.0154781 -0.108362 0)
(-0.0150364 -0.0843575 0)
(-0.0202325 -0.0476279 0)
(-0.0148704 0.00455344 0)
(-0.00151383 0.0396519 0)
(-0.00732438 0.0564796 0)
(0.0129092 0.0557032 0)
(0.0117651 0.0396897 0)
(0.0296642 0.00914479 0)
(0.036286 -0.0437996 0)
(0.0319983 -0.0827206 0)
(0.0282408 -0.105322 0)
(0.0204837 -0.109799 0)
(0.0153798 -0.100476 0)
(0.0128146 -0.0816681 0)
(0.0100098 -0.0587757 0)
(0.00708832 -0.028294 0)
(0.000500538 7.51794e-05 0)
(-0.00204607 0.0152039 0)
(0.000911296 0.018815 0)
(0.0001878 0.0188139 0)
(-0.000423088 0.0188225 0)
(-0.00110001 0.0187658 0)
(0.00230319 0.0148704 0)
(-0.00112871 -0.00155227 0)
(-0.0073031 -0.0300791 0)
(-0.00988426 -0.0605244 0)
(-0.0126081 -0.08294 0)
(-0.0153051 -0.101021 0)
(-0.0208476 -0.110004 0)
(-0.0287457 -0.105367 0)
(-0.0334229 -0.0827236 0)
(-0.0372335 -0.0430404 0)
(-0.0305583 0.0098033 0)
(-0.0112136 0.0403515 0)
(-0.012284 0.0572045 0)
(0.0166631 0.0551938 0)
(0.0200944 0.0383774 0)
(0.0448227 0.0131078 0)
(0.0526696 -0.0388637 0)
(0.0499066 -0.0822777 0)
(0.0417748 -0.103205 0)
(0.0290065 -0.10447 0)
(0.0175696 -0.0946842 0)
(0.0109294 -0.0785025 0)
(0.00614515 -0.0585976 0)
(0.00144144 -0.0286247 0)
(-0.00388985 -0.000952868 0)
(-0.0102287 0.0178001 0)
(-0.00401229 0.0234868 0)
(-0.0014553 0.0244435 0)
(0.00107245 0.0244189 0)
(0.00377339 0.0233676 0)
(0.0102305 0.0171094 0)
(0.00339584 -0.00295731 0)
(-0.00146316 -0.0304817 0)
(-0.00621309 -0.0601319 0)
(-0.0109327 -0.0794442 0)
(-0.0177228 -0.0950678 0)
(-0.0295494 -0.104543 0)
(-0.0425161 -0.103337 0)
(-0.0511849 -0.0821635 0)
(-0.0541151 -0.0370633 0)
(-0.0456633 0.0138282 0)
(-0.0197 0.0387426 0)
(-0.0163741 0.0563166 0)
(0.0194646 0.0514226 0)
(0.0265791 0.0319656 0)
(0.0577959 0.0110887 0)
(0.0670074 -0.0368075 0)
(0.0640926 -0.0830133 0)
(0.0536147 -0.100104 0)
(0.0354286 -0.0984704 0)
(0.0171848 -0.0872373 0)
(0.00674417 -0.0737028 0)
(-9.30337e-05 -0.0569762 0)
(-0.00673906 -0.0288779 0)
(-0.0103051 -0.00272257 0)
(-0.0157729 0.0161162 0)
(-0.00896794 0.0242589 0)
(-0.00284789 0.0259476 0)
(0.00241264 0.0259121 0)
(0.00886635 0.0240901 0)
(0.015111 0.015143 0)
(0.00957779 -0.00465126 0)
(0.00623095 -0.0307935 0)
(-0.000486907 -0.0583648 0)
(-0.00722028 -0.0746107 0)
(-0.0176905 -0.0872617 0)
(-0.0362285 -0.098278 0)
(-0.0545425 -0.0998983 0)
(-0.0656211 -0.0828327 0)
(-0.0681133 -0.0352901 0)
(-0.0584403 0.0113566 0)
(-0.0263968 0.0319183 0)
(-0.0195786 0.0522074 0)
(0.0224377 0.0437344 0)
(0.0311434 0.0201555 0)
(0.0659753 0.0013367 0)
(0.077055 -0.0363687 0)
(0.0751637 -0.0829591 0)
(0.0616478 -0.096509 0)
(0.0378593 -0.0903142 0)
(0.0135755 -0.0791021 0)
(0.000334405 -0.0702829 0)
(-0.00706606 -0.0561199 0)
(-0.0140274 -0.0313356 0)
(-0.0164126 -0.0084332 0)
(-0.0178999 0.00783153 0)
(-0.0133222 0.0169526 0)
(-0.00411219 0.0199798 0)
(0.00332304 0.019927 0)
(0.0128335 0.0163328 0)
(0.0165924 0.00640705 0)
(0.0154316 -0.0103518 0)
(0.0129333 -0.0332089 0)
(0.00613919 -0.0571461 0)
(-0.00101298 -0.0706364 0)
(-0.0142064 -0.078987 0)
(-0.0389341 -0.0904166 0)
(-0.0627294 -0.0967426 0)
(-0.0766404 -0.0817948 0)
(-0.0787777 -0.0340647 0)
(-0.0663082 0.00102787 0)
(-0.0311664 0.0194883 0)
(-0.0228263 0.0441455 0)
(0.0260032 0.031833 0)
(0.0344882 0.00201886 0)
(0.0686619 -0.0149801 0)
(0.0850157 -0.0395961 0)
(0.0841221 -0.0821392 0)
(0.0650035 -0.0928314 0)
(0.0373966 -0.0824639 0)
(0.0101094 -0.0707681 0)
(-0.00377136 -0.0655432 0)
(-0.00995374 -0.0539899 0)
(-0.015016 -0.0352425 0)
(-0.0176365 -0.0142184 0)
(-0.0158835 -0.00351703 0)
(-0.0119588 0.00154679 0)
(-0.00416081 0.00461649 0)
(0.00318467 0.00435639 0)
(0.01098 0.000659219 0)
(0.014601 -0.00490209 0)
(0.0163357 -0.0162146 0)
(0.013384 -0.0374139 0)
(0.00880362 -0.0545431 0)
(0.00288493 -0.0655987 0)
(-0.0108955 -0.0703846 0)
(-0.0385245 -0.0824762 0)
(-0.066565 -0.0932498 0)
(-0.0855172 -0.081773 0)
(-0.0854795 -0.0391993 0)
(-0.0684621 -0.0159572 0)
(-0.0345731 0.000747272 0)
(-0.0263651 0.0319039 0)
(0.0293444 0.0169435 0)
(0.0379788 -0.0183953 0)
(0.0664292 -0.034838 0)
(0.0822956 -0.0518697 0)
(0.0818814 -0.0836006 0)
(0.0670432 -0.0958401 0)
(0.0371615 -0.0770916 0)
(0.00848071 -0.062469 0)
(-0.00527296 -0.0586556 0)
(-0.0095879 -0.0506966 0)
(-0.0112 -0.0408315 0)
(-0.0121307 -0.0258326 0)
(-0.00987539 -0.0190901 0)
(-0.00591824 -0.0217346 0)
(-0.0024966 -0.0216356 0)
(0.00122644 -0.0220264 0)
(0.00462481 -0.022323 0)
(0.00871961 -0.019768 0)
(0.0106146 -0.0276988 0)
(0.00967837 -0.0420793 0)
(0.0082375 -0.0510955 0)
(0.00412607 -0.0579122 0)
(-0.00967544 -0.0625261 0)
(-0.0386408 -0.0797038 0)
(-0.068164 -0.0968079 0)
(-0.0820545 -0.083592 0)
(-0.0821872 -0.0526246 0)
(-0.0658931 -0.0363143 0)
(-0.0381298 -0.0198729 0)
(-0.0296015 0.0168261 0)
(0.0323407 0.00105393 0)
(0.0417372 -0.038348 0)
(0.0628981 -0.053854 0)
(0.0746207 -0.0645571 0)
(0.0730908 -0.079164 0)
(0.063697 -0.0834926 0)
(0.0401286 -0.0805014 0)
(0.0109534 -0.0599029 0)
(-0.0043418 -0.049279 0)
(-0.0074165 -0.0464726 0)
(-0.00678159 -0.0389695 0)
(-0.00567236 -0.0278761 0)
(-0.00445428 -0.0223682 0)
(-0.00297066 -0.0208106 0)
(-0.00142756 -0.0204105 0)
(0.000125846 -0.0205431 0)
(0.00164923 -0.0211663 0)
(0.00311929 -0.0228957 0)
(0.00435291 -0.0287747 0)
(0.00553863 -0.0397629 0)
(0.00606629 -0.0466341 0)
(0.00281962 -0.0490998 0)
(-0.0131468 -0.0629402 0)
(-0.0419622 -0.0807062 0)
(-0.0643429 -0.0830278 0)
(-0.0729523 -0.0798511 0)
(-0.0741727 -0.0659656 0)
(-0.0623836 -0.0555115 0)
(-0.0416821 -0.0395828 0)
(-0.0325703 0.000811535 0)
(0.034834 -0.0170013 0)
(0.0436762 -0.0478339 0)
(0.0596425 -0.0576745 0)
(0.0668467 -0.0609233 0)
(0.0663754 -0.0606413 0)
(0.0596079 -0.0566811 0)
(0.0412564 -0.0535686 0)
(0.0177135 -0.0516929 0)
(0.000705387 -0.0449315 0)
(-0.00460941 -0.0345593 0)
(-0.00503978 -0.0210469 0)
(-0.00418401 -0.00915197 0)
(-0.00285503 -0.003659 0)
(-0.00166673 -0.00219104 0)
(-0.000835596 -0.00210559 0)
(-0.000239096 -0.00219456 0)
(0.000557445 -0.0024572 0)
(0.00167132 -0.0041153 0)
(0.00293459 -0.00990006 0)
(0.00368948 -0.0221002 0)
(0.00305061 -0.0356358 0)
(-0.00304107 -0.0461033 0)
(-0.0203613 -0.0525099 0)
(-0.0430705 -0.0535545 0)
(-0.0601731 -0.0567439 0)
(-0.066536 -0.0608444 0)
(-0.0665697 -0.0616609 0)
(-0.0593057 -0.058247 0)
(-0.0434453 -0.0481548 0)
(-0.0349754 -0.0170208 0)
(0.0342696 -0.0292915 0)
(0.0431428 -0.0440932 0)
(0.0566159 -0.0453187 0)
(0.0619181 -0.041785 0)
(0.061685 -0.0364027 0)
(0.0547248 -0.0279671 0)
(0.0403681 -0.0259801 0)
(0.0247102 -0.0289327 0)
(0.00916568 -0.0252053 0)
(0.00113788 -0.0154296 0)
(-0.000516911 -0.00145396 0)
(-0.000569562 0.0111761 0)
(8.76984e-05 0.017572 0)
(0.00034726 0.0196072 0)
(-3.49895e-05 0.0199728 0)
(-0.00077578 0.0198955 0)
(-0.00122561 0.019397 0)
(-0.00109035 0.0171652 0)
(-0.000591066 0.0104683 0)
(-0.000891394 -0.00240067 0)
(-0.00296271 -0.0164799 0)
(-0.0119291 -0.0263938 0)
(-0.0276191 -0.0299181 0)
(-0.0423328 -0.0266562 0)
(-0.054927 -0.0278533 0)
(-0.0616389 -0.0366202 0)
(-0.0617373 -0.0420917 0)
(-0.0564295 -0.0453688 0)
(-0.0430279 -0.0436662 0)
(-0.0341011 -0.0288819 0)
(0.0292225 -0.0326215 0)
(0.0424454 -0.0333245 0)
(0.0532062 -0.0273075 0)
(0.0572922 -0.0196249 0)
(0.0535179 -0.0079169 0)
(0.0488628 0.00215012 0)
(0.045591 -0.00415727 0)
(0.0354533 -0.0104567 0)
(0.0196659 -0.00701037 0)
(0.00902996 0.00361841 0)
(0.00576414 0.0179226 0)
(0.00435393 0.0312525 0)
(0.00377971 0.0383962 0)
(0.00273726 0.0410701 0)
(0.000870278 0.0417854 0)
(-0.00142001 0.0417158 0)
(-0.00336993 0.0408858 0)
(-0.00457454 0.0380426 0)
(-0.0053867 0.0306706 0)
(-0.00716266 0.0171383 0)
(-0.0110034 0.00270802 0)
(-0.0225522 -0.00793978 0)
(-0.0384207 -0.0116788 0)
(-0.0479291 -0.00596396 0)
(-0.0496302 0.000970083 0)
(-0.0529406 -0.00809411 0)
(-0.0569087 -0.0199348 0)
(-0.0530647 -0.0271672 0)
(-0.0423424 -0.0326905 0)
(-0.0288808 -0.0319857 0)
(0.0265106 -0.0339132 0)
(0.0371266 -0.0218373 0)
(0.0495568 -0.00825787 0)
(0.048412 0.00633719 0)
(0.0438733 0.0188546 0)
(0.0515721 0.0195048 0)
(0.0568173 0.00897379 0)
(0.0487312 0.00572948 0)
(0.0325049 0.0112016 0)
(0.0185922 0.0231949 0)
(0.01293 0.0380033 0)
(0.00981943 0.0521435 0)
(0.00781074 0.0600143 0)
(0.00526546 0.0632681 0)
(0.00180293 0.0643225 0)
(-0.002124 0.064288 0)
(-0.00567642 0.0631499 0)
(-0.0083912 0.0597643 0)
(-0.0106518 0.051703 0)
(-0.014141 0.0374275 0)
(-0.0205019 0.0227168 0)
(-0.0351665 0.0102762 0)
(-0.0513419 0.004665 0)
(-0.0591032 0.00719849 0)
(-0.0537001 0.0167188 0)
(-0.0443078 0.0177161 0)
(-0.0476717 0.00602867 0)
(-0.049604 -0.00777495 0)
(-0.0369254 -0.0212697 0)
(-0.0259607 -0.0330173 0)
(0.0197941 -0.0315765 0)
(0.0321732 -0.00783619 0)
(0.0393474 0.0140497 0)
(0.0355399 0.0317523 0)
(0.0441417 0.0353742 0)
(0.062468 0.0249292 0)
(0.0689434 0.0196058 0)
(0.0619178 0.0209708 0)
(0.045014 0.029191 0)
(0.0281119 0.0435545 0)
(0.0196677 0.0586675 0)
(0.0149856 0.0732974 0)
(0.0115249 0.081684 0)
(0.00756973 0.0855067 0)
(0.00263906 0.0869334 0)
(-0.00276945 0.0868922 0)
(-0.00778012 0.0854188 0)
(-0.0118832 0.0814913 0)
(-0.0155685 0.0729595 0)
(-0.0205732 0.0582218 0)
(-0.0297223 0.0430143 0)
(-0.0471946 0.0286205 0)
(-0.0639198 0.0200214 0)
(-0.0707144 0.0178934 0)
(-0.0648251 0.0219432 0)
(-0.0461212 0.0332607 0)
(-0.0354966 0.0308227 0)
(-0.0378273 0.0140761 0)
(-0.0330739 -0.00693612 0)
(-0.0189297 -0.0304162 0)
(0.00998052 -0.0225133 0)
(0.0291622 0.00683129 0)
(0.0234761 0.0384928 0)
(0.0314005 0.0476493 0)
(0.0564301 0.0382189 0)
(0.0746925 0.0282173 0)
(0.078268 0.0302774 0)
(0.0715222 0.0366221 0)
(0.0548287 0.0481206 0)
(0.0359793 0.0641 0)
(0.0254115 0.0797936 0)
(0.0195914 0.0949662 0)
(0.0149109 0.103928 0)
(0.00966169 0.108288 0)
(0.00341014 0.110029 0)
(-0.00331728 0.110018 0)
(-0.00962868 0.108234 0)
(-0.014991 0.103802 0)
(-0.0198695 0.0947204 0)
(-0.0259835 0.0795109 0)
(-0.0371891 0.0637937 0)
(-0.0564698 0.047635 0)
(-0.0730351 0.0360603 0)
(-0.0795449 0.0291946 0)
(-0.0761708 0.026287 0)
(-0.0591138 0.0347121 0)
(-0.0331249 0.0458654 0)
(-0.0234087 0.0381742 0)
(-0.0286765 0.00802634 0)
(-0.00980915 -0.0209149 0)
(0.00298436 -0.00685762 0)
(0.0155285 0.0350314 0)
(0.0162967 0.0551542 0)
(0.0442149 0.0484704 0)
(0.0718548 0.0338686 0)
(0.0824259 0.0358564 0)
(0.0847866 0.0430742 0)
(0.0782794 0.0531084 0)
(0.0617165 0.0668368 0)
(0.0417519 0.0844552 0)
(0.0294976 0.100998 0)
(0.0228353 0.116493 0)
(0.0171631 0.125989 0)
(0.0110202 0.130877 0)
(0.00390705 0.132952 0)
(-0.00364687 0.132935 0)
(-0.0108098 0.130857 0)
(-0.0170443 0.125911 0)
(-0.0228905 0.116317 0)
(-0.0298718 0.100959 0)
(-0.0427331 0.0841956 0)
(-0.0629803 0.0665913 0)
(-0.0792791 0.052559 0)
(-0.0857084 0.0421765 0)
(-0.083346 0.0345398 0)
(-0.073196 0.0317152 0)
(-0.0469979 0.0450178 0)
(-0.01767 0.0533169 0)
(-0.0161614 0.036237 0)
(-0.00276962 -0.00561539 0)
(-0.00936773 0.0128635 0)
(0.011343 0.0574388 0)
(0.0301999 0.0531992 0)
(0.0626428 0.0383508 0)
(0.0780161 0.0391432 0)
(0.0866906 0.0463862 0)
(0.0884856 0.0569501 0)
(0.0816682 0.0699693 0)
(0.0655613 0.0860816 0)
(0.0452376 0.104981 0)
(0.0316733 0.122921 0)
(0.0242049 0.138129 0)
(0.0179137 0.148137 0)
(0.0113469 0.153406 0)
(0.00396305 0.155674 0)
(-0.00376465 0.155676 0)
(-0.0111704 0.153383 0)
(-0.0177825 0.148067 0)
(-0.0241873 0.137953 0)
(-0.0319585 0.122793 0)
(-0.0459934 0.104869 0)
(-0.0664384 0.0858935 0)
(-0.082355 0.0697028 0)
(-0.0890353 0.0563281 0)
(-0.0872809 0.0453394 0)
(-0.0787865 0.0377567 0)
(-0.0641763 0.0361366 0)
(-0.0329569 0.0502069 0)
(-0.0120656 0.0572175 0)
(0.0103471 0.0151189 0)
(-0.0107354 0.0425843 0)
(0.0181559 0.0595549 0)
(0.0480404 0.0435334 0)
(0.0678975 0.0413166 0)
(0.0805083 0.0475094 0)
(0.0883962 0.0581899 0)
(0.0895388 0.0719791 0)
(0.082723 0.0875951 0)
(0.0673985 0.105392 0)
(0.0471758 0.125507 0)
(0.0324572 0.144114 0)
(0.0240212 0.159529 0)
(0.0173096 0.169935 0)
(0.0107558 0.175252 0)
(0.00373244 0.177461 0)
(-0.00351892 0.177435 0)
(-0.0105137 0.175179 0)
(-0.0170381 0.169812 0)
(-0.0237934 0.159318 0)
(-0.0324789 0.144024 0)
(-0.0475799 0.125321 0)
(-0.0677663 0.105303 0)
(-0.0828804 0.0873265 0)
(-0.0896559 0.0715017 0)
(-0.0885118 0.0573973 0)
(-0.0807591 0.046441 0)
(-0.0683961 0.0398859 0)
(-0.0493229 0.0412084 0)
(-0.0194077 0.0565556 0)
(0.00908529 0.0450519 0)
(0.00743758 0.0622174 0)
(0.0274425 0.0486079 0)
(0.0522077 0.0440577 0)
(0.0688666 0.0480246 0)
(0.0804828 0.0577609 0)
(0.0876033 0.071251 0)
(0.0881616 0.0876824 0)
(0.0813754 0.105366 0)
(0.0670874 0.124978 0)
(0.0471879 0.146148 0)
(0.0315018 0.165813 0)
(0.0222022 0.180743 0)
(0.0155213 0.19081 0)
(0.00958089 0.195586 0)
(0.00340338 0.197518 0)
(-0.00298525 0.197486 0)
(-0.00914712 0.195485 0)
(-0.0150451 0.190668 0)
(-0.0217177 0.180571 0)
(-0.0312835 0.165702 0)
(-0.0473611 0.146048 0)
(-0.0671634 0.124904 0)
(-0.0813047 0.105242 0)
(-0.088029 0.0873323 0)
(-0.0875072 0.0706643 0)
(-0.0805327 0.0570691 0)
(-0.0690639 0.0471618 0)
(-0.0526123 0.042956 0)
(-0.0283522 0.0471291 0)
(-0.0098852 0.0623211 0)
(0.0198057 0.0588741 0)
(0.030067 0.0502542 0)
(0.0520476 0.0491237 0)
(0.0678948 0.056259 0)
(0.0787977 0.068574 0)
(0.0849465 0.084502 0)
(0.0847166 0.103425 0)
(0.0779162 0.123339 0)
(0.0642835 0.144795 0)
(0.04457 0.167405 0)
(0.0278314 0.187584 0)
(0.0185867 0.201071 0)
(0.0131517 0.209861 0)
(0.00821638 0.213955 0)
(0.00298597 0.215663 0)
(-0.00245362 0.215612 0)
(-0.00768903 0.213823 0)
(-0.0126309 0.209671 0)
(-0.0180963 0.201036 0)
(-0.0275855 0.187575 0)
(-0.0447063 0.167365 0)
(-0.0643652 0.144755 0)
(-0.0778215 0.123194 0)
(-0.0845466 0.103102 0)
(-0.0847131 0.0839449 0)
(-0.0786553 0.0679236 0)
(-0.0678621 0.0555409 0)
(-0.0522029 0.0484044 0)
(-0.0307016 0.0496291 0)
(-0.0213091 0.0580756 0)
(0.0240224 0.0579683 0)
(0.0304313 0.0530419 0)
(0.0509673 0.0542919 0)
(0.0658862 0.0644169 0)
(0.0756356 0.0796642 0)
(0.0803949 0.0982456 0)
(0.0792796 0.119547 0)
(0.0720474 0.14196 0)
(0.0583398 0.165972 0)
(0.0381917 0.190246 0)
(0.0215326 0.209224 0)
(0.0144205 0.220242 0)
(0.0105194 0.226759 0)
(0.0066665 0.230351 0)
(0.00246145 0.231944 0)
(-0.00195288 0.231893 0)
(-0.00619539 0.230221 0)
(-0.0101219 0.226518 0)
(-0.0141887 0.21997 0)
(-0.0215368 0.209106 0)
(-0.0381762 0.190404 0)
(-0.0583306 0.166067 0)
(-0.0719518 0.141881 0)
(-0.0791402 0.119237 0)
(-0.0801997 0.0977271 0)
(-0.0754832 0.0790539 0)
(-0.0657795 0.0637326 0)
(-0.0508946 0.0536992 0)
(-0.0307964 0.0526578 0)
(-0.0247222 0.0572459 0)
(0.0251049 0.0567494 0)
(0.0304142 0.0558791 0)
(0.0495654 0.0597553 0)
(0.0631871 0.0727911 0)
(0.0714415 0.0908394 0)
(0.0747534 0.111879 0)
(0.0723962 0.136114 0)
(0.0637303 0.162714 0)
(0.0486458 0.190691 0)
(0.028924 0.215138 0)
(0.0159953 0.227724 0)
(0.0108147 0.235875 0)
(0.00789418 0.241435 0)
(0.00509692 0.244892 0)
(0.00190909 0.246493 0)
(-0.00148571 0.246448 0)
(-0.00473168 0.244771 0)
(-0.00764386 0.241184 0)
(-0.0107907 0.235535 0)
(-0.0162726 0.227338 0)
(-0.0290245 0.215138 0)
(-0.0484662 0.191056 0)
(-0.0634007 0.162855 0)
(-0.0721092 0.135888 0)
(-0.0744734 0.111326 0)
(-0.0712339 0.0901862 0)
(-0.0630452 0.0720833 0)
(-0.0494887 0.0591007 0)
(-0.0304826 0.0554083 0)
(-0.0252138 0.0561561 0)
(0.0249469 0.0552048 0)
(0.030265 0.057962 0)
(0.0480095 0.065035 0)
(0.0598742 0.0812131 0)
(0.0665812 0.101764 0)
(0.0683165 0.126257 0)
(0.0638636 0.156422 0)
(0.0528705 0.188943 0)
(0.0372001 0.217365 0)
(0.0208827 0.237278 0)
(0.012153 0.242649 0)
(0.00799967 0.249277 0)
(0.00575725 0.254275 0)
(0.00381475 0.257756 0)
(0.00147868 0.259445 0)
(-0.00104582 0.259416 0)
(-0.00345086 0.25766 0)
(-0.00551615 0.254035 0)
(-0.00797944 0.248891 0)
(-0.0124038 0.242138 0)
(-0.021039 0.236721 0)
(-0.036773 0.217618 0)
(-0.0523033 0.189336 0)
(-0.0633016 0.15642 0)
(-0.0678438 0.125875 0)
(-0.0662536 0.10107 0)
(-0.0596579 0.0804853 0)
(-0.0479315 0.0643594 0)
(-0.0302675 0.0575173 0)
(-0.0249261 0.0547893 0)
(0.0243759 0.0528952 0)
(0.0299981 0.0596029 0)
(0.0460474 0.0703506 0)
(0.0559249 0.0895296 0)
(0.0613096 0.113188 0)
(0.0607778 0.14485 0)
(0.0524852 0.182347 0)
(0.040165 0.21662 0)
(0.0267536 0.240321 0)
(0.0148756 0.252513 0)
(0.00921228 0.254593 0)
(0.00594517 0.260498 0)
(0.00433112 0.265592 0)
(0.00302836 0.269175 0)
(0.00130085 0.271047 0)
(-0.000608415 0.271065 0)
(-0.00242641 0.269198 0)
(-0.00395779 0.265545 0)
(-0.00585808 0.260222 0)
(-0.00930095 0.254051 0)
(-0.0148551 0.251686 0)
(-0.0263122 0.240132 0)
(-0.0393585 0.21679 0)
(-0.0517456 0.182659 0)
(-0.0600449 0.144752 0)
(-0.060821 0.112713 0)
(-0.055564 0.088822 0)
(-0.0458399 0.0697856 0)
(-0.029975 0.0592206 0)
(-0.0243626 0.0524442 0)
(0.0236345 0.0496414 0)
(0.029326 0.0607735 0)
(0.0432334 0.0757363 0)
(0.0518064 0.0980532 0)
(0.0546343 0.129267 0)
(0.0493442 0.169344 0)
(0.038732 0.209337 0)
(0.0283491 0.238599 0)
(0.0185296 0.255625 0)
(0.0114583 0.262662 0)
(0.00753949 0.2641 0)
(0.00471633 0.269977 0)
(0.0032369 0.275417 0)
(0.00226002 0.279262 0)
(0.00112044 0.281253 0)
(-0.000236588 0.281289 0)
(-0.00156535 0.279285 0)
(-0.00265698 0.275296 0)
(-0.00422163 0.269682 0)
(-0.00723577 0.263558 0)
(-0.0111523 0.261799 0)
(-0.0179528 0.25511 0)
(-0.0275643 0.238414 0)
(-0.0378057 0.209461 0)
(-0.0485097 0.169568 0)
(-0.0540438 0.129016 0)
(-0.0513869 0.0974502 0)
(-0.0428615 0.0751442 0)
(-0.0291029 0.0604681 0)
(-0.0234128 0.0492792 0)
(0.0224036 0.0459092 0)
(0.0277358 0.0617535 0)
(0.0396326 0.0809935 0)
(0.0462453 0.11139 0)
(0.0435268 0.15111 0)
(0.0349599 0.195975 0)
(0.0258714 0.231052 0)
(0.0184986 0.253615 0)
(0.0136816 0.264697 0)
(0.00985974 0.26934 0)
(0.00655566 0.271714 0)
(0.00438271 0.278082 0)
(0.00312477 0.284042 0)
(0.00218539 0.288449 0)
(0.00113061 0.290734 0)
(0.000193375 0.290735 0)
(-0.000797986 0.288462 0)
(-0.00185934 0.28402 0)
(-0.00345721 0.277909 0)
(-0.00600572 0.271312 0)
(-0.00947201 0.268593 0)
(-0.0133737 0.263842 0)
(-0.0179065 0.253025 0)
(-0.025245 0.230655 0)
(-0.0341285 0.195997 0)
(-0.0428402 0.151292 0)
(-0.0458409 0.110939 0)
(-0.0393596 0.0804552 0)
(-0.0273827 0.0613989 0)
(-0.0220177 0.0458828 0)
(0.0200805 0.0423948 0)
(0.0255209 0.0626756 0)
(0.0339469 0.091528 0)
(0.0356926 0.130145 0)
(0.0289563 0.177169 0)
(0.0208829 0.218003 0)
(0.0147729 0.245741 0)
(0.0118398 0.262205 0)
(0.0109158 0.268826 0)
(0.00895418 0.274086 0)
(0.00638271 0.277825 0)
(0.00488133 0.284776 0)
(0.0039719 0.291319 0)
(0.00325119 0.296338 0)
(0.00214477 0.299107 0)
(0.000795438 0.299273 0)
(-0.000628293 0.296743 0)
(-0.001847 0.291742 0)
(-0.00330534 0.28502 0)
(-0.00531843 0.277772 0)
(-0.00832697 0.273757 0)
(-0.0107015 0.268169 0)
(-0.0118789 0.261347 0)
(-0.0146386 0.245003 0)
(-0.0207208 0.217462 0)
(-0.0283944 0.177076 0)
(-0.0351549 0.130005 0)
(-0.0337937 0.0911564 0)
(-0.0254332 0.0623838 0)
(-0.0197346 0.042599 0)
(0.014663 0.0398252 0)
(0.0240904 0.0653321 0)
(0.0245135 0.10544 0)
(0.0222341 0.153739 0)
(0.0144408 0.198698 0)
(0.00902105 0.232347 0)
(0.00684091 0.253672 0)
(0.00797175 0.265255 0)
(0.00960507 0.270968 0)
(0.00935998 0.277276 0)
(0.00769974 0.282689 0)
(0.00622066 0.290401 0)
(0.00486919 0.297603 0)
(0.00372174 0.302975 0)
(0.00250844 0.305893 0)
(0.0012267 0.306091 0)
(-0.000169766 0.303531 0)
(-0.00166785 0.298353 0)
(-0.0035344 0.291177 0)
(-0.0056087 0.283291 0)
(-0.00789495 0.277733 0)
(-0.00882216 0.271063 0)
(-0.0079034 0.264697 0)
(-0.00703057 0.252772 0)
(-0.00929349 0.231482 0)
(-0.0146149 0.198085 0)
(-0.0220138 0.153397 0)
(-0.0242462 0.105207 0)
(-0.0240743 0.0653659 0)
(-0.0144664 0.0400835 0)
(0.0063379 0.0391603 0)
(0.0188093 0.0730829 0)
(0.0130408 0.122378 0)
(0.00680302 0.175422 0)
(-0.000112507 0.216271 0)
(0.000183983 0.241411 0)
(0.00404385 0.254771 0)
(0.0095303 0.26308 0)
(0.0118013 0.270339 0)
(0.0121467 0.278576 0)
(0.0104881 0.286499 0)
(0.00821854 0.295405 0)
(0.00609673 0.303285 0)
(0.00437281 0.30897 0)
(0.0028056 0.312042 0)
(0.00129233 0.312265 0)
(-0.000349166 0.309622 0)
(-0.00224861 0.304232 0)
(-0.00466067 0.296549 0)
(-0.0073378 0.287682 0)
(-0.00951503 0.279837 0)
(-0.00976737 0.271379 0)
(-0.00825859 0.263383 0)
(-0.00369541 0.254154 0)
(-0.000369585 0.240398 0)
(-0.000753952 0.214985 0)
(-0.00871977 0.174034 0)