/*--------------------------------*- C++ -*----------------------------------*\
| =========                 |                                                 |
| \\      /  F ield         | OpenFOAM: The Open Source CFD Toolbox           |
|  \\    /   O peration     | Version:  v1606+                                |
|   \\  /    A nd           | Web:      www.OpenFOAM.com                      |
|    \\/     M anipulation  |                                                 |
\*---------------------------------------------------------------------------*/
FoamFile
{
    version     2.0;
    format      ascii;
    class       volScalarField;
    location    "0.68";
    object      epsilon.air;
}
// * * * * * * * * * * * * * * * * * * * * * * * * * * * * * * * * * * * * * //

dimensions      [0 2 -3 0 0 0 0];

internalField   nonuniform List<scalar> 
6000
(
133.462
16.9539
10.772
10.0681
9.99603
10.0427
10.058
10.0266
9.9211
9.80978
9.79766
9.86261
9.93666
9.95979
9.97089
9.99454
10.0029
9.96777
9.86579
9.81028
9.84903
9.96637
10.0511
10.067
10.0366
9.97828
10.0524
10.7584
16.927
133.469
73.3214
23.0924
14.1126
11.9128
11.5712
11.8005
12.0834
12.1112
11.7518
11.2689
11.1104
11.2841
11.5142
11.5316
11.5233
11.6127
11.7278
11.6717
11.338
11.1923
11.4253
11.9102
12.1959
12.082
11.7464
11.4981
11.8271
14.0261
22.9599
73.5498
43.7424
20.9694
14.6051
12.5001
11.8297
11.722
11.7569
11.693
11.4708
11.2435
11.2419
11.3683
11.5342
11.6632
11.7483
11.7896
11.7701
11.6521
11.471
11.3425
11.3772
11.5996
11.7559
11.7508
11.6661
11.7519
12.4094
14.4831
20.808
44.1899
30.9414
16.8728
13.3421
11.923
11.4143
11.2654
11.2615
11.3109
11.4035
11.6125
11.8168
11.9176
11.9982
12.164
12.2701
12.3031
12.2475
12.1354
12.154
12.0143
11.7453
11.4786
11.33
11.221
11.1908
11.3214
11.8181
13.2377
16.8267
31.5562
22.7719
13.3427
11.5791
11.0537
11.0062
11.0745
11.0948
11.1776
11.4767
12.1484
12.8588
12.9953
13.1168
13.3822
13.5392
13.5342
13.392
13.2187
13.2973
13.1214
12.228
11.4953
11.1361
11.0051
10.9437
10.85
10.9102
11.4881
13.3752
23.2576
19.7159
11.6804
10.6858
10.6218
10.8278
11.1646
11.4195
11.5305
11.911
12.9352
14.1138
14.6441
14.998
15.3733
15.5549
15.523
15.2946
15.0305
14.829
14.2568
12.8991
11.8349
11.4235
11.2573
10.9541
10.6081
10.441
10.5653
11.6206
19.6021
20.779
11.7006
10.8182
10.9209
11.2616
11.7278
12.2034
12.5305
12.9274
14.0371
15.7062
16.8262
17.5001
17.9989
18.0858
18.0953
17.8224
17.3526
16.8104
15.5902
13.8299
12.7431
12.3176
11.9318
11.4294
10.9795
10.6796
10.6311
11.5321
20.371
24.962
12.7165
11.7994
12.0932
12.6939
13.4227
14.0794
14.5183
14.9012
15.7651
17.5608
19.2885
20.6386
21.2981
21.39
21.3881
21.0567
20.0086
18.8598
17.113
15.392
14.6011
14.1961
13.7004
13.0078
12.2861
11.7186
11.4504
12.3467
24.014
33.681
15.368
13.8911
14.3284
15.3673
16.6326
17.8231
18.4642
18.5545
18.8012
20.1243
22.4321
24.9225
26.1026
26.3922
26.4065
25.7098
23.6402
21.2736
19.357
18.3097
18.1805
18.0477
17.3002
16.0538
14.7844
13.767
13.3332
14.7255
32.3871
45.0801
19.8561
17.125
17.5948
19.2486
21.4115
23.6324
25.0031
24.9587
24.1786
24.8423
27.5891
31.4503
33.2044
33.4858
33.9091
33.2645
29.6897
25.8788
23.8591
23.7151
24.6064
24.4833
22.9138
20.6105
18.4629
16.819
16.3282
18.8012
42.3105
45.8093
22.0317
19.7619
21.1022
23.9671
27.7998
31.5879
34.059
34.0127
32.4407
32.801
35.8126
40.6367
42.2688
42.3035
43.4741
43.7595
39.2492
34.217
31.8961
32.0685
33.6729
33.3944
30.5625
26.5739
22.7723
19.9044
18.531
20.5795
42.1136
44.7235
23.1101
21.6486
23.6272
27.6597
33.3038
39.5898
43.909
43.8427
41.9842
42.2835
45.5692
50.3114
51.9206
52.185
54.1482
54.8683
50.4145
44.5953
41.5638
41.4855
43.0825
42.4185
37.4093
31.099
25.7573
21.962
20.1007
21.2871
40.3167
44.3354
23.952
23.066
25.2075
29.5111
35.5212
42.7643
48.448
50.0315
49.1281
49.5703
52.4764
56.9921
59.194
59.4952
62.0056
62.3193
57.689
52.2067
49.1147
48.3171
48.3582
45.9295
39.6757
32.6793
27.0979
23.0623
21.021
21.678
38.6516
43.4338
24.699
23.8319
26.0139
30.2721
35.9227
42.1516
47.5006
50.6461
52.0329
53.4962
56.2095
60.5596
62.0329
61.9123
64.225
64.8544
60.7991
56.0729
53.3358
51.3139
48.9622
45.1987
39.4869
33.3819
28.0989
24.0318
21.7904
22.294
38.0475
44.086
25.8028
24.7687
26.9577
31.0569
36.2848
42.0775
46.9595
50.0461
52.4138
55.0723
58.4176
61.9117
62.8139
62.7134
64.7345
65.7765
62.6773
58.4459
55.2262
52.2592
49.3008
45.5848
40.2421
34.5983
29.6595
25.6215
23.1943
23.7034
40.6424
48.3105
27.9285
26.428
28.4964
32.3812
37.2849
42.9888
47.9445
50.4946
52.8653
56.5787
61.0985
63.947
64.001
63.9547
66.0842
67.9509
65.8547
61.2787
56.9698
53.7355
51.244
47.8337
42.2162
36.5281
31.7377
27.7021
25.2237
26.3512
49.2059
57.585
31.0584
28.6804
30.5262
34.1886
38.9041
44.593
49.964
52.2069
54.116
58.3897
63.8219
66.2035
65.6291
65.8383
68.4609
71.3311
70.0125
64.6164
59.3671
56.4924
55.0109
51.4197
44.895
38.7678
33.8282
29.7311
27.3259
29.4539
60.4386
69.3649
34.5737
31.1318
32.6558
36.0626
40.606
46.2585
52.1366
54.8326
56.1969
60.3071
65.9489
67.9289
67.2607
68.1362
71.6068
75.4189
74.484
68.1423
62.4975
60.462
59.7648
55.0888
47.4795
40.9508
35.7213
31.5099
29.3425
32.503
70.0121
80.8381
37.8756
33.3361
34.4901
37.6969
42.0421
47.5633
53.9123
57.5402
58.5544
61.9287
67.1475
68.9207
68.757
70.7426
75.4121
80.0482
78.7792
71.5117
66.1383
65.2937
64.4219
57.6893
49.4296
42.8863
37.3861
33.1667
31.3038
35.4717
78.5506
89.2367
40.6093
35.0226
35.7451
38.763
42.9411
48.2657
54.8544
59.6747
60.6898
63.0218
67.4084
69.2901
70.1511
73.6472
79.7617
84.8153
82.3469
74.4596
70.2485
70.5846
67.3203
58.5833
50.7617
44.2633
38.6827
34.5462
32.9858
37.949
85.0335
93.8999
42.4147
36.214
36.6644
39.4726
43.3665
48.3076
54.8823
60.5304
62.2098
63.668
67.1564
69.3814
71.6172
76.8246
84.3977
89.0217
84.573
77.0881
74.9427
74.1603
67.1808
58.4948
51.1676
44.7738
39.4043
35.5066
34.2347
39.7006
89.1028
95.7159
43.2767
36.844
37.1651
39.8179
43.3848
47.7497
53.2573
59.4869
62.9452
64.3557
66.955
69.6596
73.3139
80.0255
88.5241
91.49
85.2012
79.6129
78.7906
74.3416
65.6446
57.7211
50.8949
44.8855
39.8304
36.2158
35.186
40.9233
91.3694
95.0804
43.3298
36.9981
37.2505
39.7062
43.0803
47.1383
51.66
56.9362
62.6831
65.5663
67.3985
70.4431
74.9137
82.3891
90.3782
90.892
84.6832
81.6339
79.4593
71.9935
63.512
56.4735
50.3642
44.8813
40.2197
36.8993
36.0623
41.9565
92.9167
92.4778
43.0318
37.0139
37.2985
39.6738
42.9121
46.5609
50.2516
54.4487
60.2312
65.4544
68.0866
70.7976
75.3062
82.5067
88.6297
87.7403
83.6446
82.0563
76.97
68.5356
61.1196
54.9767
49.6173
44.7633
40.588
37.6339
37.0249
43.0743
94.1233
90.8449
42.9969
37.1641
37.4858
39.8026
42.8182
45.9864
49.0196
52.5837
57.3528
62.8764
66.7113
69.3701
73.4737
79.7303
83.715
83.1474
82.2942
79.5642
72.5889
65.0413
58.5855
53.2659
48.6641
44.4538
40.8701
38.4378
38.2354
44.841
97.082
91.2713
43.6128
37.6781
37.9254
40.0599
42.7678
45.5218
48.0528
51.0949
55.1495
59.6764
63.5828
66.3992
69.8984
75.0862
77.8766
78.7268
78.7898
74.6032
68.0107
61.5462
55.9688
51.3092
47.1604
43.4808
40.6153
38.9468
39.5384
47.1667
103.281
93.3289
45.0627
38.659
38.6151
40.2469
42.4529
44.9226
47.4035
50.042
53.4352
57.1348
60.5545
63.6232
67.154
71.3419
73.1582
74.6963
73.7703
69.2995
63.5777
58.0827
53.2103
49.007
45.1867
42.0378
39.9133
39.0462
40.5021
49.3658
111.397
98.8995
47.2184
39.874
39.1529
40.0955
41.8518
44.1423
46.7094
49.2088
52.0512
55.1573
58.3375
61.7089
65.7025
69.1213
69.9122
70.4585
68.4549
64.1199
59.2688
54.6025
50.4359
46.6628
43.3087
40.6581
39.1039
38.9211
41.0416
50.5776
115.926
108.407
49.6428
40.9774
39.5242
39.9493
41.4501
43.5842
46.0832
48.6773
51.1525
53.7854
56.6741
60.1277
64.5404
68.0863
67.6748
66.1673
63.2604
59.323
55.2389
51.3824
47.9174
44.5319
41.5557
39.247
37.9991
38.1548
40.6282
50.4315
115.619
116.005
51.9014
41.8276
39.8323
40.0244
41.4061
43.4587
45.9765
48.9348
51.3087
53.2948
55.5749
58.6296
62.9137
67.1094
65.8574
62.5413
59.0259
55.3691
51.8763
48.7377
45.691
42.6788
40.0282
38.0178
37.0109
37.2787
39.8026
49.8697
111.411
121.956
53.8532
42.9745
40.6676
40.7141
41.9927
44.058
46.8376
50.3799
53.1561
54.0607
55.2101
57.2873
60.6805
64.5003
63.6746
59.742
55.9142
52.4538
49.497
46.7542
44.0525
41.4936
39.238
37.6579
37.0873
37.7547
40.7749
51.993
118.825
132.864
60.4425
46.4985
42.9909
42.5266
43.6287
45.9013
49.386
53.5351
56.1245
55.9031
55.4705
56.0877
58.0959
60.649
60.77
57.3781
53.5194
50.3821
47.8448
45.9961
43.9329
41.6322
39.5972
38.2772
37.9591
39.2286
43.6131
57.5495
125.848
127.656
62.5229
49.1082
44.951
44.2283
45.399
47.797
51.2317
55.1784
57.7848
57.1914
55.3509
54.5993
55.2269
56.6947
57.2937
55.1683
51.5256
48.5386
46.8496
45.3706
43.4182
41.2704
39.433
38.2355
37.9936
39.2714
43.4849
56.2712
106.979
113.259
59.7002
48.6673
45.8072
44.9959
45.573
47.2253
49.764
52.8152
54.7207
54.4462
52.8135
51.7681
51.4942
52.2662
53.2898
52.5259
49.3241
46.3304
44.389
43.1793
41.669
39.6672
37.9746
37.0226
36.9924
38.0717
41.0209
50.0485
88.4246
116.386
56.7671
47.5628
45.2624
44.2261
43.9898
44.6974
46.476
48.7064
49.9833
49.4994
48.1341
47.2054
46.6824
47.0133
48.0116
48.4071
45.6105
43.0865
41.3686
40.1112
38.754
37.1909
35.9572
35.4127
35.633
36.5964
38.7506
46.0688
89.626
125.042
57.0949
46.6044
43.8697
42.4621
41.735
41.9001
43.0878
44.5183
45.153
44.4696
43.1079
42.3422
41.8016
41.8879
42.5362
43.3574
41.6873
39.7345
38.2721
37.1518
36.0866
34.9536
34.0317
33.6517
33.9075
34.801
37.0539
45.3496
95.2882
129.874
57.4375
45.2788
41.6487
39.9737
39.1738
39.192
39.9413
40.6748
40.7961
40.0742
38.6592
37.9717
37.5279
37.575
37.9521
38.5124
38.1298
36.8021
35.5773
34.6234
33.8237
33.055
32.3817
32.0327
32.2155
33.1067
35.7594
45.2115
99.7872
130.452
57.0392
43.753
39.4262
37.5931
36.8396
36.775
37.0666
37.2203
36.9987
36.369
35.0309
34.3062
34.0004
34.1491
34.5913
35.057
35.3925
34.4372
33.3067
32.4686
31.8882
31.4452
31.0509
30.7651
30.8569
31.7303
34.7086
44.9615
101.865
128.49
55.7838
42.0478
37.4198
35.5896
34.9056
34.6853
34.4948
34.1544
33.7102
33.226
32.1903
31.3314
31.2001
31.5265
32.2476
32.7267
33.3644
32.4994
31.3684
30.6003
30.1978
30.048
29.9727
29.8466
29.8776
30.6757
33.7734
44.3793
101.991
124.489
53.7341
40.2379
35.6872
33.9922
33.3545
32.8789
32.2035
31.4566
30.8653
30.5129
29.8699
28.9139
28.9493
29.3743
30.4502
31.0216
31.7045
30.8178
29.658
28.9313
28.6671
28.7703
29.0368
29.1859
29.2387
29.9207
32.9318
43.5404
101.465
120.404
51.4383
38.4822
34.2544
32.7721
32.123
31.298
30.167
29.1082
28.4029
28.0916
27.7652
26.9322
26.9595
27.5008
28.7912
29.6002
30.3476
29.3129
28.0893
27.3831
27.2248
27.5344
28.1372
28.659
28.862
29.4364
32.213
42.5818
100.539
116.824
49.18
36.9082
33.1363
31.8948
31.1378
29.8956
28.3692
27.0925
26.2957
25.949
25.8035
25.3891
25.0962
25.8433
27.0112
28.0451
28.9799
27.8103
26.553
25.8841
25.8181
26.2945
27.194
28.1427
28.6613
29.1826
31.6569
41.6548
99.8689
113.944
47.1419
35.6028
32.3408
31.3156
30.3205
28.6203
26.7756
25.3567
24.4944
24.1123
24.0532
23.96
23.6658
24.2947
25.1112
26.2219
27.3146
26.1435
24.9612
24.3838
24.4202
25.0344
26.171
27.5389
28.5195
29.1152
31.2823
40.8473
99.6659
111.675
45.4558
34.6308
31.8579
30.9516
29.5802
27.4238
25.3437
23.8356
22.9258
22.5094
22.4606
22.5555
22.5284
22.7313
23.1904
24.2619
25.2529
24.2809
23.3002
22.8735
23.0292
23.7638
25.0764
26.791
28.2973
29.1561
31.1087
40.2203
99.6938
109.704
44.182
34.0172
31.6396
30.6836
28.8246
26.2667
24.0316
22.4709
21.5313
21.0972
21.0613
21.2834
21.4716
21.2829
21.4889
22.4091
23.2035
22.4131
21.645
21.3808
21.6598
22.503
23.944
25.9072
27.9052
29.2446
31.1353
39.8238
99.7306
107.647
43.282
33.7199
31.6012
30.3897
27.9919
25.1249
22.8
21.2123
20.2568
19.8181
19.8058
20.11
20.3576
20.0242
20.0264
20.7682
21.3747
20.6601
20.0488
19.9267
20.3237
21.2685
22.8111
24.9403
27.3225
29.2461
31.2886
39.6361
99.547
105.201
42.6853
33.6699
31.6421
29.9959
27.0776
23.9942
21.6205
20.0187
19.0499
18.5995
18.5902
18.9282
19.2385
18.788
18.6164
19.2231
19.6791
19.0015
18.5128
18.5116
19.0215
20.0689
21.7065
23.9511
26.5972
29.1108
31.5812
39.6764
99.0025
102.057
42.2226
33.7483
31.7036
29.5015
26.1294
22.8898
20.4791
18.8616
17.8703
17.3872
17.3393
17.6342
17.9386
17.4509
17.1825
17.679
18.0245
17.4098
17.0326
17.1357
17.7502
18.9085
20.6497
22.9903
25.8078
28.7811
31.8544
39.8413
97.837
98.6401
41.8299
33.9177
31.7094
28.9368
25.2018
21.8324
19.3731
17.7269
16.6985
16.1629
16.0465
16.2561
16.5075
16.0402
15.7306
16.152
16.4189
15.8904
15.6191
15.8095
16.5142
17.7903
19.6558
22.0972
25.0393
28.3391
32.0488
40.1632
95.6774
94.8804
41.415
34.0393
31.5998
28.3147
24.3188
20.8356
18.3071
16.6127
15.5353
14.9382
14.7419
14.8541
15.0256
14.6267
14.3263
14.6797
14.8904
14.4635
14.2936
14.5551
15.3268
16.7174
18.7298
21.2937
24.347
27.8793
32.1168
40.3338
92.1558
90.7902
40.8758
33.9932
31.2967
27.6333
23.4788
19.9013
17.2874
15.5276
14.3963
13.7409
13.47
13.4958
13.5903
13.2629
12.9957
13.2941
13.477
13.1537
13.0737
13.3938
14.2077
15.6918
17.8638
20.5844
23.7498
27.4409
32.0329
40.2451
87.9516
86.2301
40.1812
33.7805
30.7648
26.8869
22.6696
19.0238
16.3176
14.4828
13.302
12.6012
12.2709
12.2279
12.2678
12.0099
11.7956
12.039
12.1866
11.9585
11.9659
12.3379
13.1749
14.7172
17.0439
19.9533
23.2408
27.0044
31.7526
39.9013
83.3523
81.4943
39.4561
33.3321
30.0383
26.0691
21.8651
18.1873
15.398
13.4902
12.2717
11.5425
11.1725
11.083
11.0911
10.9034
10.7516
10.9174
11.0221
10.8901
10.9756
11.3913
12.2361
13.7965
16.2441
19.3667
22.8009
26.5518
31.1861
39.1878
78.7221
76.3103
38.4688
32.6195
29.1491
25.1842
21.0505
17.3758
14.5258
12.5608
11.3199
10.5778
10.1889
10.0788
10.0633
9.94834
9.86897
9.97055
10.026
9.9534
10.0946
10.5395
11.3797
12.9217
15.4307
18.7623
22.3938
26.0959
30.4329
38.1846
74.2117
70.7445
37.097
31.6254
28.1394
24.2594
20.224
16.5737
13.6936
11.6997
10.4551
9.71159
9.31598
9.18645
9.18128
9.14423
9.13434
9.18144
9.18195
9.14267
9.30271
9.75627
10.5816
12.0737
14.5728
18.0606
21.9573
25.6591
29.6221
36.8498
69.6286
65.0143
35.3684
30.3878
27.038
23.3011
19.3744
15.7637
12.8894
10.9019
9.67518
8.94306
8.54704
8.39535
8.41873
8.47563
8.52388
8.52721
8.46987
8.42154
8.58905
9.02037
9.81874
11.2342
13.6516
17.1986
21.3784
25.2322
28.8393
35.3123
65.2869
59.2097
33.2737
28.9066
25.8468
22.2858
18.4577
14.9044
12.0817
10.1469
8.95738
8.24478
7.86161
7.72408
7.78599
7.91908
8.00501
7.9721
7.84335
7.76575
7.91477
8.33744
9.08363
10.3884
12.6618
16.1539
20.5411
24.7517
28.197
33.9087
61.6268
53.6561
30.9427
27.2901
24.5897
21.1907
17.4424
13.9722
11.257
9.42405
8.26797
7.59689
7.2515
7.15421
7.25786
7.43741
7.53742
7.47699
7.29382
7.16778
7.2598
7.63444
8.31556
9.51697
11.5993
14.9184
19.3476
24.0026
27.7487
32.7881
58.23
48.5485
28.491
25.6285
23.2685
19.9907
16.3082
12.9533
10.3906
8.68848
7.6108
7.0099
6.71708
6.66434
6.79434
6.98434
7.07534
6.99351
6.78243
6.62054
6.64695
6.92998
7.51303
8.59324
10.4514
13.5082
17.8256
22.8106
27.3045
32.0492
55.5688
44.1918
26.1838
24.0137
21.8719
18.6484
15.0474
11.8655
9.5106
7.93441
6.98492
6.4742
6.24092
6.22533
6.3609
6.52834
6.58966
6.49242
6.28267
6.10412
6.07825
6.27424
6.74071
7.63925
9.25839
11.966
16.0153
21.103
26.3725
31.5675
52.6196
40.5724
24.2557
22.4167
20.3027
17.1056
13.6389
10.6795
8.57697
7.19505
6.39411
5.98246
5.8071
5.81365
5.93431
6.05713
6.0779
5.97347
5.78684
5.6119
5.5529
5.67125
6.01814
6.72794
8.06518
10.3896
14.0991
19.0679
24.7847
31.0616
49.2385
37.0899
22.5464
20.7019
18.4732
15.3132
12.0827
9.42356
7.58638
6.45092
5.82864
5.51954
5.39543
5.40933
5.49998
5.57239
5.55705
5.45432
5.29838
5.14178
5.06687
5.12433
5.36419
5.88949
6.93714
8.87288
12.1482
16.9379
22.7776
29.933
44.6049
33.6886
21.0771
18.8274
16.3674
13.3307
10.3728
8.11361
6.60724
5.73032
5.2851
5.0725
4.98943
5.00002
5.05471
5.08393
5.04671
4.95282
4.82534
4.69255
4.61176
4.62278
4.77029
5.1317
5.90142
7.42768
10.2427
14.7544
20.3406
27.3825
38.6974
30.1009
19.5766
16.7507
14.0786
11.1292
8.62412
6.80414
5.65722
5.04883
4.76681
4.63483
4.57932
4.57968
4.60138
4.60125
4.55703
4.47655
4.37321
4.26224
4.17738
4.15246
4.21842
4.43697
4.96506
6.11995
8.42294
12.4465
17.6189
23.3162
32.2217
26.1877
17.6844
14.4898
11.5663
8.95648
6.93601
5.56025
4.78952
4.42622
4.26953
4.18838
4.14648
4.13725
4.13982
4.1283
4.08887
4.024
3.94044
3.84689
3.76105
3.70815
3.70674
3.80253
4.11616
4.91588
6.70161
10.1313
14.443
18.6905
25.8966
22.1234
15.3985
11.9157
9.08951
6.92587
5.37393
4.4701
4.01599
3.82193
3.73926
3.69604
3.67726
3.6775
3.68262
3.676
3.64804
3.59792
3.52911
3.44723
3.36228
3.28723
3.23906
3.24133
3.37974
3.86209
5.09824
7.86784
11.5741
14.5134
20.3654
18.1415
12.6698
9.21682
6.83429
5.10841
4.07496
3.53765
3.29619
3.21451
3.1982
3.20543
3.22486
3.24883
3.26788
3.27223
3.2559
3.2173
3.15815
3.08209
2.99501
2.90435
2.81837
2.76039
2.77416
3.0119
3.81166
5.90068
8.94951
10.8306
15.5041
14.1827
9.68736
6.81301
4.88935
3.67769
3.05404
2.75911
2.6716
2.68096
2.72689
2.7824
2.83562
2.88135
2.91425
2.92895
2.92188
2.89164
2.83891
2.76579
2.67566
2.57275
2.46225
2.35553
2.29704
2.36407
2.83316
4.25985
6.89077
8.08802
11.8743
10.8257
7.17057
4.83101
3.41256
2.65972
2.288
2.15911
2.17277
2.24563
2.33916
2.42821
2.50583
2.56847
2.61307
2.63662
2.63698
2.61311
2.56515
2.49418
2.40216
2.29164
2.16602
2.03241
1.92457
1.90149
2.15089
3.06766
5.00033
6.09482
9.08632
7.9562
5.11705
3.37132
2.44844
1.96463
1.73094
1.70724
1.77419
1.89535
2.01904
2.13114
2.22624
2.30178
2.35588
2.38685
2.39342
2.37484
2.33088
2.26193
2.16928
2.05481
1.92156
1.77612
1.63883
1.57764
1.70526
2.33936
3.66593
4.69649
6.89067
5.68097
3.69035
2.46151
1.82872
1.47444
1.32393
1.35141
1.46101
1.60925
1.75257
1.88022
1.98743
2.07225
2.13365
2.17075
2.18282
2.16907
2.12932
2.06337
1.97154
1.8555
1.71875
1.56794
1.41712
1.33834
1.4017
1.86472
2.71844
3.52099
5.28594
4.33637
2.81288
1.85031
1.37273
1.10612
1.01993
1.07283
1.21072
1.37319
1.5279
1.66534
1.78064
1.87175
1.93846
1.98056
1.99788
1.98938
1.95455
1.89213
1.80188
1.686
1.54843
1.39475
1.23448
1.13371
1.13854
1.44551
1.98068
2.53788
4.02671
3.6358
2.16725
1.36828
1.01592
0.825985
0.791574
0.85616
1.00689
1.17601
1.33699
1.48031
1.60018
1.69452
1.76457
1.81078
1.83338
1.83097
1.80259
1.74507
1.65728
1.54117
1.40233
1.24754
1.08488
0.954498
0.918701
1.07083
1.3902
1.80086
3.12079
3.02377
1.63441
0.995144
0.744944
0.618752
0.616573
0.687082
0.842289
1.01188
1.17549
1.32219
1.44388
1.53841
1.60974
1.65928
1.68738
1.69255
1.67331
1.62296
1.538
1.42005
1.2779
1.12215
0.962728
0.818136
0.755365
0.784826
0.935414
1.27266
2.47174
2.4973
1.23529
0.723355
0.544699
0.46764
0.480078
0.557703
0.710453
0.878402
1.04356
1.19054
1.30871
1.39851
1.46808
1.51979
1.55321
1.56855
1.56421
1.52902
1.45172
1.32991
1.17942
1.01818
0.863053
0.726452
0.636068
0.606257
0.643693
0.898357
1.96572
2.02076
0.963325
0.538352
0.400822
0.354606
0.373831
0.456034
0.607732
0.775704
0.935542
1.06893
1.17596
1.26077
1.32856
1.38122
1.41723
1.43985
1.44886
1.43474
1.38163
1.27606
1.12016
0.942486
0.783663
0.656918
0.561709
0.499874
0.493025
0.681859
1.59664
1.57834
0.767905
0.410259
0.297594
0.269143
0.292344
0.380019
0.533544
0.692622
0.832835
0.950218
1.04921
1.13155
1.19866
1.25049
1.28659
1.31075
1.32433
1.32195
1.29292
1.22343
1.09751
0.906358
0.727092
0.600886
0.508893
0.440068
0.423492
0.581379
1.36589
1.21506
0.602016
0.311771
0.22081
0.204714
0.232541
0.330072
0.477
0.615537
0.738196
0.84673
0.941126
1.02112
1.08426
1.13238
1.16889
1.19416
1.20884
1.21006
1.19291
1.15104
1.0676
0.906702
0.705254
0.554339
0.463971
0.405303
0.392904
0.548384
1.21953
0.945413
0.45421
0.233079
0.163066
0.159915
0.200705
0.305525
0.43235
0.552887
0.665875
0.767165
0.85333
0.925466
0.982019
1.02678
1.06332
1.09121
1.10823
1.11304
1.10296
1.07515
1.01757
0.909424
0.717451
0.540432
0.427809
0.378217
0.371678
0.527856
1.06032
0.737605
0.328524
0.17172
0.133895
0.147732
0.202263
0.303302
0.413489
0.520384
0.621564
0.710718
0.784989
0.84713
0.897608
0.938828
0.973529
1.00306
1.02466
1.03615
1.03291
1.01296
0.971736
0.905852
0.757255
0.562334
0.425978
0.361761
0.350477
0.49517
0.917873
0.576782
0.236896
0.146679
0.135771
0.160699
0.223557
0.31817
0.417438
0.510652
0.592353
0.666176
0.730943
0.787659
0.832213
0.869357
0.902141
0.931765
0.956405
0.973803
0.978647
0.968281
0.943457
0.904236
0.815921
0.633853
0.456299
0.366333
0.339804
0.448683
0.818554
0.505329
0.208306
0.155729
0.165013
0.209038
0.283511
0.361795
0.434096
0.51133
0.577085
0.63219
0.684868
0.735569
0.778188
0.814151
0.845658
0.875617
0.899313
0.91622
0.926508
0.928201
0.92478
0.907642
0.893408
0.776244
0.558873
0.408085
0.348921
0.392112
0.698838
0.524657
0.227845
0.205449
0.239218
0.292642
0.349856
0.395596
0.457197
0.522498
0.580918
0.620509
0.653258
0.690417
0.729849
0.766362
0.797599
0.827075
0.851203
0.866405
0.87716
0.887394
0.902396
0.908249
0.960848
0.973017
0.779404
0.537023
0.408357
0.390682
0.653146
0.706504
0.319368
0.306161
0.328427
0.366495
0.396212
0.433967
0.490147
0.547143
0.59363
0.620956
0.633931
0.656714
0.687957
0.721881
0.752992
0.782274
0.809987
0.829175
0.839887
0.851334
0.873055
0.898001
0.961201
1.10866
1.07421
0.779385
0.559216
0.46071
0.718467
1.26681
0.503718
0.425524
0.423295
0.439846
0.465046
0.500836
0.532356
0.559059
0.588632
0.611339
0.615137
0.629051
0.653166
0.682059
0.711983
0.741998
0.773348
0.802
0.815574
0.82275
0.841912
0.874388
0.938019
1.08984
1.25337
1.10656
0.8231
0.678933
1.06082
1.88012
0.700058
0.563567
0.538369
0.54744
0.563939
0.559442
0.549664
0.552449
0.568876
0.585747
0.593075
0.605065
0.624919
0.649968
0.678049
0.708206
0.74116
0.776858
0.798826
0.802934
0.818405
0.855421
0.921922
1.04442
1.26599
1.49076
1.20528
1.07078
1.88156
2.20525
0.849297
0.674308
0.638111
0.638018
0.615112
0.574293
0.549279
0.544367
0.551414
0.561709
0.572388
0.585338
0.603779
0.626437
0.65284
0.682545
0.715506
0.751115
0.782499
0.795894
0.813757
0.860284
0.952074
1.07073
1.24247
1.67777
1.69475
1.61025
2.96564
2.42099
0.940162
0.733739
0.689612
0.666895
0.625037
0.580084
0.553548
0.544308
0.542466
0.546394
0.55545
0.569103
0.587995
0.609792
0.635216
0.664657
0.697288
0.731318
0.764486
0.796106
0.828359
0.901571
1.06063
1.18975
1.27072
1.62708
2.09624
2.35944
4.40776
2.42911
0.982059
0.76457
0.702916
0.673127
0.636485
0.596289
0.566902
0.548648
0.540571
0.539217
0.544044
0.555121
0.573107
0.595526
0.62146
0.651666
0.684904
0.71921
0.755248
0.800443
0.867848
0.99899
1.23216
1.35262
1.36038
1.56642
2.12285
3.01971
5.99286
2.25769
0.977047
0.771139
0.70992
0.686754
0.662955
0.623572
0.58463
0.558886
0.544668
0.539808
0.540696
0.546823
0.561012
0.58278
0.60986
0.64151
0.676115
0.712048
0.752311
0.810587
0.908144
1.07613
1.29273
1.38254
1.44335
1.5779
2.05305
3.05254
7.06061
1.85312
0.977006
0.778755
0.725624
0.715971
0.696755
0.645981
0.606883
0.577207
0.557665
0.547791
0.544913
0.547755
0.558308
0.577754
0.60449
0.6364
0.671161
0.707093
0.749099
0.814241
0.927018
1.09938
1.28057
1.35912
1.46834
1.59534
1.96354
2.9065
7.15107
1.7644
0.974749
0.795146
0.755742
0.751176
0.71585
0.676245
0.638558
0.604727
0.581616
0.566615
0.558214
0.55657
0.563853
0.581103
0.606604
0.637809
0.67199
0.707064
0.74795
0.813232
0.926512
1.0943
1.26123
1.33008
1.44732
1.59628
1.87061
2.67333
6.74543
1.85902
0.988571
0.829764
0.795053
0.776799
0.752111
0.725428
0.677215
0.639775
0.612669
0.592773
0.579783
0.57439
0.577919
0.591586
0.614248
0.643373
0.676232
0.710946
0.752043
0.814781
0.919693
1.07021
1.21923
1.29189
1.39145
1.5789
1.79555
2.43763
5.93294
2.36355
1.07088
0.893021
0.853944
0.83526
0.831005
0.776179
0.720551
0.679539
0.647598
0.622613
0.605017
0.595866
0.596151
0.606344
0.625569
0.651802
0.682847
0.717091
0.757949
0.816209
0.906839
1.02755
1.14682
1.22433
1.30567
1.50328
1.7195
2.21627
5.19318
3.00823
1.23133
0.990857
0.950883
0.93629
0.89863
0.822809
0.764702
0.719942
0.683339
0.653729
0.631847
0.618769
0.615307
0.621711
0.637259
0.660514
0.689786
0.723325
0.762828
0.814729
0.886817
0.976492
1.06625
1.13333
1.20073
1.35844
1.60315
1.99687
4.44677
3.09233
1.3469
1.09981
1.04588
1.01457
0.937209
0.861903
0.803932
0.75744
0.717643
0.684178
0.658183
0.640739
0.632863
0.634857
0.646187
0.665857
0.692534
0.725103
0.763288
0.810014
0.864002
0.925663
0.986178
1.03602
1.09071
1.2089
1.43831
1.79694
3.70465
3.04449
1.38498
1.14415
1.0864
1.02504
0.952629
0.888257
0.835756
0.790039
0.748561
0.711612
0.681037
0.658553
0.645806
0.643169
0.650181
0.665919
0.689985
0.720832
0.757072
0.799149
0.839328
0.878218
0.913869
0.944173
0.982051
1.06769
1.25146
1.61255
3.02661
2.94972
1.3724
1.13801
1.06578
1.009
0.951355
0.902956
0.858979
0.815775
0.772526
0.731764
0.696907
0.670227
0.653543
0.647302
0.650815
0.663545
0.683272
0.709799
0.74171
0.779198
0.81076
0.833386
0.850634
0.86298
0.880655
0.93037
1.05592
1.3642
2.38882
2.66997
1.3078
1.08824
1.01161
0.971866
0.940247
0.908337
0.872347
0.82992
0.784737
0.742121
0.705363
0.676563
0.657615
0.649094
0.650128
0.659682
0.675892
0.697839
0.725846
0.758171
0.781435
0.790435
0.794397
0.793142
0.790883
0.803018
0.86199
1.07718
1.81011
2.03303
1.14806
0.980004
0.937273
0.928757
0.924599
0.907201
0.872863
0.830146
0.785464
0.743719
0.707415
0.678635
0.659091
0.649262
0.648413
0.655298
0.668582
0.687035
0.710861
0.735804
0.753108
0.754349
0.747794
0.736389
0.719004
0.702467
0.705338
0.823951
1.34407
1.4935
0.952124
0.859922
0.867173
0.897009
0.91316
0.900215
0.865227
0.823052
0.780848
0.741193
0.706385
0.678446
0.658887
0.648192
0.645543
0.650144
0.66069
0.676376
0.697027
0.717114
0.726843
0.731148
0.7175
0.696576
0.670881
0.637568
0.60859
0.642934
1.05349
1.24871
0.791847
0.772743
0.824534
0.876805
0.894092
0.879768
0.846065
0.807259
0.770573
0.7352
0.703036
0.676242
0.656703
0.644952
0.64079
0.643605
0.652359
0.666861
0.686474
0.706305
0.709201
0.709856
0.69969
0.674558
0.645097
0.610745
0.574387
0.576615
0.978401
1.20721
0.735378
0.743956
0.80424
0.847813
0.858064
0.847642
0.822128
0.791586
0.76076
0.728276
0.696854
0.670667
0.651327
0.639196
0.634336
0.636142
0.64465
0.660152
0.680908
0.700187
0.70198
0.696812
0.688914
0.670458
0.641102
0.608816
0.578938
0.592488
1.04326
1.29855
0.7573
0.744627
0.784062
0.814313
0.827224
0.822571
0.803593
0.777105
0.748083
0.718079
0.688199
0.663106
0.64422
0.632075
0.626804
0.627863
0.63599
0.651641
0.671578
0.689386
0.698716
0.69927
0.693169
0.678491
0.652071
0.623197
0.604626
0.659716
1.39031
1.71383
0.828018
0.755858
0.775302
0.798852
0.80829
0.80053
0.780294
0.756626
0.730302
0.702591
0.676022
0.654059
0.636385
0.62428
0.618503
0.618418
0.623895
0.635795
0.652609
0.670235
0.68721
0.701038
0.708932
0.703299
0.684691
0.664414
0.667163
0.791992
1.90916
2.10222
0.914868
0.773428
0.768116
0.777152
0.77761
0.7674
0.75153
0.733101
0.709556
0.683598
0.661599
0.643066
0.627375
0.615972
0.609912
0.608555
0.611147
0.618903
0.633028
0.650117
0.666777
0.687628
0.705338
0.714136
0.712042
0.705929
0.726793
0.888603
2.1514
2.16362
0.927415
0.770398
0.745278
0.741377
0.740098
0.736086
0.727791
0.712394
0.68956
0.664778
0.646206
0.630902
0.617542
0.607336
0.601572
0.599572
0.60053
0.6059
0.618311
0.634474
0.649707
0.665255
0.683912
0.700835
0.709929
0.718559
0.754532
0.937381
2.27213
2.08586
0.918489
0.756919
0.719433
0.712302
0.71361
0.714187
0.708857
0.694275
0.67238
0.648848
0.632038
0.619433
0.608135
0.59916
0.594083
0.591851
0.591967
0.59635
0.606756
0.620933
0.635357
0.647734
0.660025
0.674086
0.690713
0.710008
0.754335
0.93611
2.22204
2.02687
0.919012
0.751541
0.707918
0.699286
0.700411
0.700604
0.694177
0.679222
0.658509
0.636611
0.621394
0.61067
0.600561
0.592413
0.587775
0.585245
0.58464
0.58849
0.597121
0.60881
0.62162
0.633199
0.643619
0.654991
0.670613
0.695037
0.746302
0.917553
1.95552
2.10896
0.936307
0.756954
0.710063
0.700305
0.700262
0.698494
0.688216
0.670816
0.649806
0.629023
0.614726
0.605293
0.595683
0.58764
0.582923
0.5802
0.579013
0.582256
0.589724
0.599458
0.61057
0.621713
0.632132
0.6438
0.660567
0.68865
0.743018
0.91706
1.81919
2.54237
1.0138
0.783006
0.727191
0.71396
0.711282
0.706401
0.692314
0.672086
0.649068
0.627105
0.611602
0.602281
0.592945
0.584641
0.579523
0.576786
0.575574
0.578186
0.585056
0.594111
0.605076
0.61707
0.628205
0.640484
0.659017
0.69052
0.74819
0.917863
1.84593
3.18815
1.10784
0.834144
0.768803
0.750683
0.744485
0.731153
0.709766
0.683096
0.655359
0.630679
0.612413
0.601256
0.591437
0.58253
0.576845
0.574334
0.573907
0.57653
0.583517
0.593452
0.605872
0.619703
0.631729
0.644218
0.662903
0.698979
0.772376
0.959924
1.99167
3.38941
1.24565
0.900313
0.818901
0.802071
0.795851
0.78096
0.755007
0.720667
0.682465
0.647319
0.620171
0.603038
0.590679
0.580422
0.573998
0.571888
0.572871
0.576603
0.584558
0.596493
0.61276
0.631188
0.645462
0.658742
0.678498
0.720131
0.827085
1.10681
2.43666
3.28244
1.45461
1.04038
0.883033
0.849406
0.848459
0.839745
0.814993
0.776205
0.728825
0.682909
0.64294
0.612169
0.592144
0.578879
0.571122
0.569261
0.572017
0.57801
0.588915
0.605663
0.629738
0.656797
0.674589
0.688868
0.711901
0.759977
0.878537
1.26382
2.93079
3.13317
1.42742
1.06996
0.917553
0.879674
0.888718
0.888698
0.861582
0.817341
0.761847
0.706859
0.661372
0.626867
0.599456
0.580379
0.570127
0.567917
0.572642
0.582566
0.599643
0.625759
0.660029
0.692668
0.713758
0.729011
0.761484
0.828919
0.986817
1.38108
3.03512
3.09614
1.32147
1.02044
0.904273
0.884498
0.89708
0.889052
0.857891
0.813206
0.758962
0.703409
0.657557
0.624903
0.601499
0.583646
0.571703
0.568991
0.576098
0.59267
0.618998
0.655303
0.696623
0.731223
0.753935
0.776482
0.827341
0.908312
1.05106
1.39878
2.76948
2.96968
1.20447
0.966249
0.868103
0.85671
0.864091
0.848711
0.812579
0.76925
0.723352
0.676808
0.636656
0.608385
0.591279
0.58047
0.573497
0.572962
0.581614
0.600865
0.632007
0.675695
0.721475
0.756246
0.782727
0.815893
0.861146
0.922365
1.03973
1.33284
2.30529
2.62096
1.09022
0.879022
0.79513
0.78429
0.787679
0.773621
0.741225
0.702638
0.66578
0.632822
0.605049
0.584489
0.572875
0.569551
0.570163
0.573501
0.582279
0.600125
0.631114
0.675642
0.721646
0.756598
0.782451
0.814492
0.848579
0.89986
0.99437
1.18057
2.28147
2.17076
1.02737
0.779606
0.712637
0.707254
0.712625
0.703875
0.678793
0.647566
0.618093
0.592973
0.573299