/*--------------------------------*- C++ -*----------------------------------*\
| =========                 |                                                 |
| \\      /  F ield         | OpenFOAM: The Open Source CFD Toolbox           |
|  \\    /   O peration     | Version:  v1606+                                |
|   \\  /    A nd           | Web:      www.OpenFOAM.com                      |
|    \\/     M anipulation  |                                                 |
\*---------------------------------------------------------------------------*/
FoamFile
{
    version     2.0;
    format      ascii;
    class       surfaceScalarField;
    location    "0.68";
    object      phi.air;
}
// * * * * * * * * * * * * * * * * * * * * * * * * * * * * * * * * * * * * * //

dimensions      [0 3 -1 0 0 0 0];

internalField   nonuniform List<scalar> 
11770
(
2.63512e-06
8.42074e-05
5.43156e-06
8.31599e-05
6.13732e-06
8.48421e-05
5.96505e-06
8.61297e-05
4.38335e-06
8.8707e-05
1.01028e-06
9.22501e-05
-1.17725e-06
9.35755e-05
-2.66847e-06
9.43195e-05
-1.57889e-06
9.23984e-05
1.85778e-06
8.96694e-05
4.17136e-06
9.04452e-05
5.37283e-06
9.30356e-05
5.34432e-06
9.61971e-05
4.08809e-06
9.76215e-05
2.30394e-06
9.82066e-05
-2.04743e-08
9.88053e-05
-1.71043e-06
9.84632e-05
-2.37149e-06
9.67133e-05
-1.23639e-06
9.28733e-05
1.00862e-06
9.06927e-05
3.74501e-06
9.06362e-05
3.91542e-06
9.34878e-05
1.90215e-06
9.48315e-05
-8.02219e-07
9.38418e-05
-4.3789e-06
9.21173e-05
-5.67483e-06
8.82011e-05
-5.72558e-06
8.57713e-05
-5.15107e-06
8.47493e-05
-2.39033e-06
8.30443e-05
8.43886e-05
5.09868e-06
6.80859e-05
1.05479e-05
6.75236e-05
1.53815e-05
6.92004e-05
1.97264e-05
7.0941e-05
2.15627e-05
7.55171e-05
1.9915e-05
8.16342e-05
1.4957e-05
8.5324e-05
8.43607e-06
8.7439e-05
3.67004e-06
8.49565e-05
4.87403e-06
7.8504e-05
8.30167e-06
7.78086e-05
9.05208e-06
8.22439e-05
5.59176e-06
8.78532e-05
3.87767e-06
8.71321e-05
3.14653e-06
8.65168e-05
1.46788e-06
8.78636e-05
-2.28202e-06
8.95853e-05
-6.91455e-06
8.94188e-05
-4.9707e-06
8.12405e-05
-1.79184e-06
7.81438e-05
-2.05053e-06
8.04686e-05
-7.85925e-06
8.67232e-05
-1.48287e-05
8.81808e-05
-1.96598e-05
8.55009e-05
-2.09465e-05
8.12805e-05
-1.89466e-05
7.49521e-05
-1.4337e-05
7.05146e-05
-9.60573e-06
6.93292e-05
-4.53901e-06
6.79081e-05
6.88387e-05
3.52122e-06
6.37295e-05
1.22793e-05
5.82768e-05
2.08347e-05
5.99509e-05
2.88703e-05
6.21178e-05
3.35072e-05
6.92577e-05
3.52787e-05
7.8078e-05
3.18345e-05
8.64268e-05
2.44799e-05
9.22934e-05
1.41934e-05
9.31136e-05
9.1866e-06
8.45567e-05
1.26559e-05
7.82408e-05
1.08556e-05
8.4594e-05
5.60376e-06
8.98656e-05
3.97929e-06
8.54609e-05
4.17124e-06
8.29067e-05
3.22413e-06
8.5186e-05
-7.81092e-07
8.97937e-05
-8.30087e-06
9.34526e-05
-9.04403e-06
8.36181e-05
-6.06717e-06
7.92206e-05
-1.31949e-05
8.77914e-05
-2.40897e-05
9.49306e-05
-3.13368e-05
9.27361e-05
-3.44008e-05
8.61722e-05
-3.23963e-05
7.74874e-05
-2.75541e-05
6.85179e-05
-1.91635e-05
6.14643e-05
-1.05539e-05
6.01602e-05
-2.6752e-06
5.94582e-05
6.52847e-05
4.06119e-06
5.91916e-05
1.2826e-05
4.97065e-05
2.06539e-05
5.20958e-05
3.003e-05
5.28058e-05
3.80457e-05
6.04401e-05
4.24186e-05
7.17165e-05
4.20384e-05
8.39677e-05
3.9355e-05
9.22337e-05
3.21898e-05
9.71116e-05
2.10027e-05
9.21092e-05
1.32645e-05
8.26808e-05
5.11829e-06
8.72723e-05
2.48246e-06
8.76484e-05
3.01858e-06
7.98343e-05
5.83823e-06
7.50204e-05
7.41401e-06
7.87329e-05
5.59248e-06
8.70246e-05
9.09732e-07
9.37038e-05
-1.01334e-05
8.92562e-05
-1.89063e-05
8.4962e-05
-3.11353e-05
9.6128e-05
-3.79872e-05
9.87791e-05
-4.06113e-05
9.27272e-05
-4.09135e-05
8.36847e-05
-3.63723e-05
7.10266e-05
-2.79293e-05
5.94668e-05
-1.86075e-05
5.23049e-05
-1.09591e-05
5.25398e-05
-3.1236e-06
5.16535e-05
6.14885e-05
3.00937e-06
6.17187e-05
6.54428e-06
5.22229e-05
9.96397e-06
5.30103e-05
1.68863e-05
4.97235e-05
2.79018e-05
5.25055e-05
3.87284e-05
6.21017e-05
4.4366e-05
7.75617e-05
4.34613e-05
9.11305e-05
3.79705e-05
0.000100508
2.61482e-05
0.000101646
8.85912e-06
9.67321e-05
-2.0861e-06
9.61264e-05
-4.68529e-06
8.89272e-05
-2.83381e-07
7.40154e-05
8.51379e-06
6.51742e-05
1.43835e-05
7.16122e-05
1.364e-05
8.63121e-05
8.82194e-06
9.77056e-05
-6.01496e-06
0.000101593
-2.51772e-05
0.000100569
-3.66805e-05
0.000105344
-4.20716e-05
0.000101983
-4.28654e-05
9.15433e-05
-3.66948e-05
7.69609e-05
-2.56449e-05
6.14584e-05
-1.49217e-05
5.20534e-05
-8.70272e-06
5.00814e-05
-5.72904e-06
5.4111e-05
-2.60571e-06
5.453e-05
6.44816e-05
2.09387e-06
6.92561e-05
-8.66246e-07
6.28518e-05
-1.32014e-06
5.91254e-05
2.22512e-08
5.23667e-05
6.21053e-06
5.01024e-05
1.79115e-05
5.43391e-05
3.2175e-05
6.64924e-05
3.97277e-05
8.41664e-05
3.57881e-05
0.000103145
2.31029e-05
0.000113103
5.42354e-06
0.000113037
-7.10892e-06
0.000107501
-1.25891e-05
9.22918e-05
-3.36947e-06
6.49531e-05
1.09556e-05
5.17409e-05
2.18724e-05
6.08832e-05
2.19032e-05
8.47848e-05
1.16811e-05
0.000106052
-3.41224e-06
0.00011582
-2.29144e-05
0.000118488
-3.51064e-05
0.000116293
-3.8372e-05
0.000104
-3.00295e-05
8.40971e-05
-1.55966e-05
6.60676e-05
-4.39218e-06
5.44851e-05
9.2655e-07
5.06835e-05
1.57429e-06
5.35065e-05
5.83016e-07
6.07696e-05
-2.31277e-06
6.55431e-05
7.24203e-05
-1.9414e-06
7.76299e-05
-6.88641e-06
7.23619e-05
-8.10869e-06
6.41647e-05
-9.16541e-06
5.58192e-05
-7.90185e-06
5.13761e-05
-2.21746e-06
5.2543e-05
9.56139e-06
6.04182e-05
2.3666e-05
7.54067e-05
2.91286e-05
9.98628e-05
1.91621e-05
0.000122611
1.5398e-06
0.000129142
-1.4498e-05
0.000121076
-1.60823e-05
9.29209e-05
-3.53469e-06
5.47887e-05
9.39106e-06
4.1125e-05
2.2568e-05
4.97768e-05
2.91803e-05
7.88433e-05
1.69783e-05
0.000115553
-1.62462e-06
0.00013214
-2.00483e-05
0.000135477
-2.87704e-05
0.000124749
-2.17468e-05
9.97035e-05
-7.45043e-06
7.56441e-05
3.8018e-06
6.06948e-05
8.93275e-06
5.33075e-05
9.50899e-06
5.26057e-05
7.99943e-06
5.7475e-05
6.48989e-06
6.62061e-05
1.62989e-06
7.51277e-05
8.09938e-05
-9.97215e-06
9.00877e-05
-1.29117e-05
7.93249e-05
-1.47875e-05
6.90921e-05
-1.47024e-05
5.79805e-05
-1.3666e-05
5.19195e-05
-1.15888e-05
5.16287e-05
-7.06893e-06
5.88723e-05
2.72794e-06
7.27321e-05
1.44187e-05
9.5936e-05
1.17312e-05
0.000128555
-3.60022e-06
0.000144222
-1.76101e-05
0.000133791
-9.4517e-06
8.79449e-05
-8.66716e-07
4.86228e-05
5.74525e-06
3.56225e-05
1.43034e-05
4.2951e-05
2.59629e-05
7.0195e-05
2.02076e-05
0.000120877
1.48748e-06
0.000148975
-1.34119e-05
0.000150274
-1.34537e-05
0.000128725
-9.0419e-07
9.54623e-05
8.40861e-06
7.33235e-05
1.26075e-05
5.93951e-05
1.43834e-05
5.28177e-05
1.52564e-05
5.36927e-05
1.47326e-05
6.06304e-05
1.27444e-05
7.17754e-05
1.03206e-05
8.21004e-05
9.40245e-05
-1.39717e-05
0.00010071
-2.0171e-05
8.60189e-05
-2.29048e-05
7.61772e-05
-1.93631e-05
6.05592e-05
-1.65422e-05
5.2419e-05
-1.3138e-05
5.03335e-05
-1.21704e-05
5.85738e-05
-1.13517e-05
7.49149e-05
-5.02104e-06
9.8971e-05
-2.71174e-06
0.000135426
-8.03586e-06
0.000155223
-1.03949e-05
0.000141871
7.41372e-07
8.44266e-05
1.74136e-06
4.90037e-05
2.84863e-06
3.51175e-05
4.01301e-06
4.25459e-05
1.07286e-05
6.85035e-05
1.53658e-05
0.000122886
7.04401e-06
0.00016126
2.55422e-06
0.000160887
6.45379e-06
0.000134798
1.21265e-05
9.87701e-05
1.27091e-05
7.53108e-05
1.41218e-05
5.91941e-05
1.75045e-05
5.18954e-05
2.07866e-05
5.48162e-05
2.28119e-05
6.49271e-05
1.8617e-05
7.94982e-05
1.3026e-05
8.782e-05
0.000101797
-6.40654e-06
9.03057e-05
-1.63213e-05
8.09687e-05
-2.15965e-05
7.26821e-05
-2.36415e-05
6.32469e-05
-1.98652e-05
5.43028e-05
-1.17172e-05
4.90897e-05
-9.74938e-06
6.05636e-05
-1.37271e-05
8.19488e-05
-2.07643e-05
0.000110799
-1.81445e-05
0.0001434
-7.86096e-06
0.00015753
3.5219e-06
0.000144291
4.21426e-06
9.24887e-05
1.64825e-06
5.62886e-05
2.44608e-06
3.99069e-05
9.31899e-07
4.95876e-05
-3.56081e-06
8.1002e-05
2.59224e-06
0.000130209
1.13627e-05
0.000165827
2.11895e-05
0.000164533
2.12778e-05
0.000144647
1.30476e-05
0.000111209
1.00318e-05
8.24455e-05
1.29143e-05
6.12583e-05
2.2054e-05
5.12468e-05
2.32503e-05
5.82868e-05
2.0147e-05
6.55942e-05
1.4454e-05
7.39068e-05
4.82839e-06
8.09181e-05
8.96005e-05
2.18661e-06
8.03172e-05
-3.86424e-06
7.64796e-05
-9.03143e-06
6.54974e-05
-1.25635e-05
5.50647e-05
-1.12776e-05
5.0607e-05
-6.55071e-06
5.04287e-05
-9.70039e-07
6.45899e-05
-8.08943e-06
9.38016e-05
-2.37613e-05
0.000125625
-2.21117e-05
0.00014666
-3.42658e-06
0.000152177
1.07121e-05
0.000143892
-4.06709e-06
0.000114082
-3.01027e-06
6.84811e-05
5.45633e-06
4.40284e-05
1.12881e-05
5.83415e-05
-4.28136e-06
0.000104103
-7.77103e-06
0.000144337
9.74647e-06
0.000164088
2.58799e-05
0.000161374
2.37689e-05
0.000149741
6.38342e-06
0.00012726
3.24491e-07
9.42073e-05
5.89195e-06
6.53007e-05
8.83415e-06
5.31165e-05
7.61305e-06
5.37035e-05
4.44156e-06
5.70893e-05
7.60824e-07
6.62772e-05
-3.84857e-06
7.56009e-05
7.86342e-05
4.72197e-06
7.39837e-05
1.12782e-05
6.86773e-05
1.90712e-05
5.5868e-05
2.53066e-05
4.57859e-05
2.80661e-05
4.48073e-05
2.5992e-05
5.18405e-05
2.01008e-05
6.91899e-05
3.95396e-06
9.71188e-05
-9.58757e-06
0.000121106
-1.31388e-05
0.000136826
-4.26785e-06
0.00013583
-6.15757e-07
0.000130935
-1.15456e-05
0.000109224
-1.02852e-05
6.03622e-05
1.15091e-05
2.6155e-05
1.8815e-05
4.73323e-05
9.19456e-06
9.70649e-05
1.8901e-06
0.000134402
8.93769e-06
0.000146265
1.3654e-05
0.000144788
1.06234e-05
0.000136649
-7.18388e-06
0.000124032
-2.58491e-05
9.77542e-05
-3.21518e-05
6.92772e-05
-3.52041e-05
5.33363e-05
-3.1783e-05
4.70357e-05
-2.39874e-05
4.73328e-05
-1.39522e-05
5.54271e-05
-5.41422e-06
6.634e-05
7.1492e-05
4.99746e-06
6.78832e-05
1.65096e-05
5.78914e-05
3.13316e-05
4.33399e-05
4.70743e-05
3.27619e-05
6.36373e-05
2.92114e-05
7.40611e-05
3.62537e-05
6.63752e-05
6.1202e-05
4.24059e-05
9.86204e-05
1.57151e-05
0.000124534
-4.78986e-06
0.000132143
-1.82832e-05
0.000124496
-2.27681e-05
0.000112198
-1.57597e-05
8.28321e-05
-3.70253e-06
3.39457e-05
1.77858e-05
-1.6028e-06
3.21882e-05
1.92304e-05
3.60808e-05
7.36223e-05
3.28978e-05
0.000113814
2.31594e-05
0.000130264
6.14473e-06
0.000134793
-1.54183e-05
0.000133265
-4.31975e-05
0.000128016
-6.75747e-05
9.90876e-05
-7.44212e-05
6.10534e-05
-6.36194e-05
3.86688e-05
-4.83819e-05
3.34551e-05
-3.46198e-05
3.63868e-05
-2.03907e-05
4.38289e-05
-7.48643e-06
5.48346e-05
6.3625e-05
8.742e-06
5.9894e-05
2.12427e-05
4.7531e-05
3.29582e-05
3.40867e-05
4.40505e-05
2.38749e-05
5.72055e-05
1.71562e-05
6.97733e-05
1.98764e-05
6.96008e-05
5.01245e-05
5.76809e-05
9.78114e-05
3.40394e-05
0.000137329
7.66336e-06
0.000146019
-1.70497e-05
0.000135159
-2.258e-05
0.000106708
-7.42172e-06
6.19831e-05
7.95655e-06
1.58756e-05
1.85068e-05
-1.4082e-05
3.09559e-05
2.32235e-06
4.12236e-05
5.57485e-05
4.35137e-05
0.000101687
2.6678e-05
0.000134148
-1.05777e-06
0.000148827
-2.89893e-05
0.000150361
-5.01326e-05
0.000139357
-6.09904e-05
9.78784e-05
-6.39829e-05
5.314e-05
-5.45515e-05
2.60885e-05
-4.38719e-05
2.39278e-05
-3.44643e-05
2.91527e-05
-2.39992e-05
3.60934e-05
-1.17806e-05
4.54788e-05
5.4054e-05
1.24013e-05
4.9769e-05
2.28937e-05
3.92807e-05
2.97713e-05
2.89923e-05
3.40555e-05
2.10136e-05
3.9086e-05
1.28405e-05
4.52654e-05
1.05602e-05
4.9097e-05
3.9567e-05
4.50176e-05
9.59804e-05
3.18933e-05
0.000147291
1.43877e-05
0.000161295
-2.69795e-06
0.000149499
-6.3176e-06
0.000108264
2.82966e-06
5.17367e-05
1.27337e-05
5.94302e-06
1.71573e-05
-1.86686e-05
2.34016e-05
-6.75745e-06
3.07778e-05
4.41691e-05
3.11423e-05
9.78611e-05
1.64809e-05
0.000145473
-5.0068e-06
0.000167831
-2.39609e-05
0.000167598
-3.5222e-05
0.000148033
-3.88361e-05
9.61252e-05
-4.03829e-05
4.70833e-05
-3.7555e-05
1.91886e-05
-3.2498e-05
1.87155e-05
-2.72943e-05
2.48938e-05
-2.11351e-05
3.16388e-05
-1.23543e-05
3.9291e-05
4.49943e-05
1.21604e-05
3.9822e-05
2.07421e-05
3.23372e-05
2.53815e-05
2.51722e-05
2.6386e-05
1.98718e-05
2.5277e-05
1.34917e-05
2.37209e-05
1.044e-05
2.65735e-05
3.32336e-05
2.85085e-05
9.06667e-05
2.39607e-05
0.000150308
1.6092e-05
0.000168973
7.86117e-06
0.000157471
5.86251e-06
0.000109718
1.04841e-05
4.67816e-05
1.52987e-05
1.72918e-06
1.56281e-05
-1.88204e-05
1.72096e-05
-1.0461e-05
2.07245e-05
3.76328e-05
1.78742e-05
9.82586e-05
5.23338e-06
0.000156537
-8.87341e-06
0.000181804
-2.00562e-05
0.000178446
-2.32932e-05
0.000150114
-2.06307e-05
9.07867e-05
-1.93528e-05
4.1312e-05
-1.93954e-05
1.51159e-05
-1.73366e-05
1.50476e-05
-1.47854e-05
2.21942e-05
-1.18842e-05
2.94387e-05
-7.30588e-06
3.65538e-05
4.08564e-05
8.55652e-06
3.29135e-05
1.38498e-05
2.81619e-05
1.60233e-05
2.31297e-05
1.56759e-05
1.93207e-05
1.35092e-05
1.40221e-05
8.66391e-06
1.27377e-05
8.04349e-06
3.18485e-05
1.44717e-05
8.34755e-05
1.71111e-05
0.000146724
1.57401e-05
0.000169973
1.33262e-05
0.00015974
1.32471e-05
0.000109722
1.67921e-05
4.40048e-05
1.81158e-05
1.33586e-06
1.547e-05
-1.62421e-05
1.29249e-05
-9.69574e-06
1.26159e-05
3.59843e-05
7.13515e-06
0.000102135
-4.83921e-06
0.000167345
-1.56271e-05
0.000192272
-2.158e-05
0.000183848
-1.65947e-05
0.000144905
-5.75476e-06
7.99557e-05
1.59105e-06
3.30707e-05
1.95039e-06
1.37157e-05
7.60655e-08
1.6168e-05
-2.08269e-06
2.4456e-05
-3.47755e-06
3.19111e-05
-2.84804e-06
3.76973e-05
4.06564e-05
3.41045e-06
3.08517e-05
4.89097e-06
2.68084e-05
4.35127e-06
2.26564e-05
2.8762e-06
1.91777e-05
1.04592e-06
1.42076e-05
-3.83143e-06
1.50844e-05
-6.1016e-06
3.23498e-05
2.49023e-06
7.5277e-05
1.1743e-05
0.000137285
1.53866e-05
0.00016571
1.69131e-05
0.000158079
1.87471e-05
0.000108362
2.23698e-05
4.20606e-05
2.21809e-05
2.48665e-06
1.70722e-05
-1.1074e-05
1.10871e-05
-5.22187e-06
5.54015e-06
3.98176e-05
-3.55891e-06
0.000110198
-1.51716e-05
0.000178369
-2.40124e-05
0.000200617
-2.39287e-05
0.000183398
-8.00043e-06
0.000130501
1.00323e-05
6.53304e-05
2.01886e-05
2.64297e-05
1.73531e-05
1.94448e-05
1.03396e-05
2.59715e-05
4.10491e-06
3.21758e-05
3.98864e-07
3.67284e-05
-6.63901e-07
4.01342e-05
4.18139e-05
-7.18261e-07
3.33068e-05
-3.59194e-06
3.06066e-05
-7.64103e-06
2.68964e-05
-1.09919e-05
2.20114e-05
-1.32004e-05
1.55869e-05
-1.64338e-05
1.67089e-05
-1.62101e-05
3.09064e-05
-6.47407e-06
6.58416e-05
7.89766e-06
0.000123402
1.5747e-05
0.000157169
2.03335e-05
0.000153233
2.44166e-05
0.000105448
2.73285e-05
4.19852e-05
2.63574e-05
4.95334e-06
1.88389e-05
-3.46435e-06
9.6296e-06
2.78632e-06
-2.68363e-06
5.03016e-05
-1.57719e-05
0.000122777
-2.62955e-05
0.000189072
-3.08675e-05
0.000205024
-2.01485e-05
0.00017365
7.25494e-06
0.000107957
2.72314e-05
5.30104e-05
2.95131e-05
3.14638e-05
2.13809e-05
3.09295e-05
1.27938e-05
3.45764e-05
6.48612e-06
3.81528e-05
2.67896e-06
4.05616e-05
8.33096e-07
4.21688e-05
4.28598e-05
-3.0199e-06
3.83916e-05
-8.06663e-06
3.76538e-05
-1.46786e-05
3.59471e-05
-2.18753e-05
3.33558e-05
-2.82712e-05
2.85189e-05
-3.05067e-05
2.378e-05
-2.56125e-05
2.80546e-05
-1.31154e-05
5.49769e-05
5.59948e-06
0.000105737
1.75491e-05
0.000144992
2.46941e-05
0.000146555
3.09805e-05
0.00010219
3.4539e-05
4.31028e-05
3.11711e-05
1.03352e-05
2.08472e-05
6.83279e-06
6.88192e-06
1.5737e-05
-1.2715e-05
6.86828e-05
-2.85392e-05
0.000139624
-3.51636e-05
0.000197504
-3.01421e-05
0.000201573
-4.22314e-06
0.00015253
2.76612e-05
8.5573e-05
4.17045e-05
4.87918e-05
3.62865e-05
4.08115e-05
2.57778e-05
4.26098e-05
1.60271e-05
4.36995e-05
9.13329e-06
4.42224e-05
4.59219e-06
4.44081e-05
1.84015e-06
4.43579e-05
4.42009e-05
-4.10625e-06
4.40545e-05
-9.07227e-06
4.42779e-05
-1.53725e-05
4.38312e-05
-2.33048e-05
4.27184e-05
-3.30506e-05
4.19855e-05
-3.99834e-05
4.45687e-05
-3.7644e-05
3.86066e-05
-1.93626e-05
4.31714e-05
4.46762e-06
8.55656e-05
2.11367e-05
0.000130343
3.13718e-05
0.000139089
3.7891e-05
0.000101388
4.11736e-05
4.64526e-05
3.4242e-05
1.92693e-05
2.11933e-05
1.96392e-05
1.00255e-06
3.48011e-05
-2.46555e-05
9.41752e-05
-4.02318e-05
0.000158124
-3.81107e-05
0.000199862
-1.63634e-05
0.000185192
1.96561e-05
0.000127247
4.45284e-05
7.389e-05
4.5502e-05
5.57975e-05
3.68635e-05
5.45525e-05
2.69026e-05
5.41534e-05
1.79386e-05
5.28628e-05
1.10889e-05
5.10219e-05
6.06901e-06
4.91741e-05
2.58842e-06
4.75167e-05
4.6426e-05
-4.35569e-06
4.95619e-05
-9.12659e-06
5.02926e-05
-1.51759e-05
5.09064e-05
-2.32832e-05
5.15066e-05
-3.39167e-05
5.31013e-05
-4.18947e-05
5.49537e-05
-4.16597e-05
5.2114e-05
-2.84034e-05
4.91929e-05
-3.0137e-06
7.06768e-05
2.1945e-05
0.000112087
3.92275e-05
0.000128843
4.63442e-05
0.000103452
4.71713e-05
5.35232e-05
3.59443e-05
3.17026e-05
1.91963e-05
3.53219e-05
-8.14955e-06
6.03547e-05
-3.65768e-05
0.000123497
-4.68783e-05
0.000173769
-3.16963e-05
0.000192186
4.37305e-06
0.000161382
3.89486e-05
0.000108611
4.98686e-05
7.64995e-05
4.53293e-05
7.0027e-05
3.60065e-05
6.76351e-05
2.63632e-05
6.51479e-05
1.82412e-05
6.20205e-05
1.15893e-05
5.83189e-05
6.4562e-06
5.46193e-05
2.71379e-06
5.13748e-05
4.91576e-05
-3.9579e-06
5.4866e-05
-8.19257e-06
5.59634e-05
-1.39344e-05
5.80559e-05
-2.16646e-05
6.08541e-05
-3.04878e-05
6.43348e-05
-3.84633e-05
6.6386e-05
-4.713e-05
6.59832e-05
-4.60938e-05
6.62321e-05
-2.35434e-05
7.30805e-05
1.19393e-05
9.39321e-05
4.07576e-05
0.000112013
5.42727e-05
0.000102378
4.99627e-05
6.51429e-05
3.52827e-05
4.71724e-05
1.2907e-05
5.54631e-05
-1.86303e-05
8.95458e-05
-4.19841e-05
0.000148925
-4.2816e-05
0.000181695
-1.41764e-05
0.000175769
2.7229e-05
0.000138166
5.24268e-05
0.000100934
5.53634e-05
8.75011e-05
4.81825e-05
8.3219e-05
3.70262e-05
7.95756e-05
2.65204e-05
7.58104e-05
1.76606e-05
7.10224e-05
1.05259e-05
6.55944e-05
5.46929e-06
5.98869e-05
2.06845e-06
5.49505e-05
5.13981e-05
-2.31342e-06
5.89454e-05
-5.6344e-06
6.05633e-05
-1.05728e-05
6.40715e-05
-1.72755e-05
6.882e-05
-2.55265e-05
7.42897e-05
-3.56169e-05
7.81202e-05
-4.78823e-05
8.03057e-05
-5.56216e-05
8.17643e-05
-4.21044e-05
8.60012e-05
-1.08637e-05
9.25501e-05
2.55162e-05
9.84092e-05
4.88815e-05
9.43515e-05
4.26595e-05
7.73604e-05
2.74597e-05
6.29987e-05
8.76252e-07
7.84462e-05
-2.68542e-05
0.000116418
-3.88007e-05
0.000165578
-2.45576e-05
0.000177369
1.47361e-05
0.000153058
4.96705e-05
0.000121149
6.39807e-05
0.000103658
6.22651e-05
9.74819e-05
5.27654e-05
9.33214e-05
4.03631e-05
9.09101e-05
2.7812e-05
8.65366e-05
1.71876e-05
7.99282e-05
8.53373e-06
7.29419e-05
3.31345e-06
6.45328e-05
5.91411e-07
5.75738e-05
5.23019e-05
-1.35229e-07
6.01763e-05
-2.0645e-06
6.28902e-05
-5.4289e-06
6.78141e-05
-1.10323e-05
7.46936e-05
-2.08502e-05
8.35517e-05
-3.34053e-05
8.9874e-05
-4.74424e-05
9.43973e-05
-5.61242e-05
9.28306e-05
-5.49414e-05
9.1963e-05
-3.49627e-05
9.50554e-05
-2.23263e-06
9.41184e-05
2.19162e-05
8.70844e-05
2.39213e-05
8.10205e-05
1.23549e-05
7.53504e-05
-1.12201e-05
0.000100025
-2.67156e-05
0.000135497
-2.34286e-05
0.000170373
8.72425e-06
0.000159375
4.47518e-05
0.000133616
6.72807e-05
0.000114915
7.32348e-05
0.000106648
6.92432e-05
0.000102312
5.91876e-05
0.000100207
4.49013e-05
9.8831e-05
3.14092e-05
9.35778e-05
1.95996e-05
8.61407e-05
8.3245e-06
7.93495e-05
1.38976e-06
6.84606e-05
-1.21002e-06
5.86731e-05
5.05748e-05
1.88124e-06
5.84889e-05
2.20282e-06
6.2257e-05
8.7579e-07
6.7853e-05
-4.51536e-06
7.71497e-05
-1.65819e-05
9.03692e-05
-3.04128e-05
9.74164e-05
-4.77777e-05
0.000104297
-5.6548e-05
9.79367e-05
-5.53387e-05
9.10989e-05
-4.45663e-05
8.74389e-05
-2.75938e-05
8.43064e-05
-1.10281e-05
7.95515e-05
9.79662e-07
7.82706e-05
-1.36692e-06
8.249e-05
-1.55969e-05
0.000117787
-1.83877e-05
0.000146611
9.7911e-07
0.000162636
3.63944e-05
0.000138596
6.20545e-05
0.000120095
7.50984e-05
0.000109779
7.68633e-05
0.000104944
7.32933e-05
0.000101891
6.16264e-05
0.000103123
4.82591e-05
0.000104273
3.74853e-05
0.000100524
2.59243e-05
9.38245e-05
1.40616e-05
8.54466e-05
3.66776e-06
7.31375e-05
-1.78844e-06
6.04396e-05
4.7283e-05
3.53653e-06
5.43078e-05
5.293e-06
5.88242e-05
3.6894e-06
6.56847e-05
-7.30488e-06
8.05134e-05
-1.98736e-05
9.41947e-05
-3.11697e-05
0.00010013
-4.40409e-05
0.000104684
-5.8746e-05
9.93795e-05
-5.788e-05
8.52915e-05
-4.92384e-05
7.83456e-05
-3.83708e-05
7.40897e-05
-2.70523e-05
7.05215e-05
-1.34643e-05
6.99302e-05
-6.06974e-06
8.18102e-05
-1.24688e-05
0.000128438
-8.75739e-06
0.000149071
2.04249e-05
0.000143773
4.81713e-05
0.000118757
6.55987e-05
0.000108124
7.23095e-05
0.000102945
7.41502e-05
9.98162e-05
6.88449e-05
0.000100327
5.73423e-05
0.000106441
5.05071e-05
0.000107275
4.33827e-05
0.000105924
3.24853e-05
0.000104084
2.03978e-05
9.60304e-05
8.39061e-06
8.10506e-05
9.24175e-08
6.29699e-05
4.51089e-05
3.64876e-06
4.90838e-05
3.97638e-06
5.51977e-05
-2.50434e-06
6.59967e-05
-1.50722e-05
8.48407e-05
-2.44657e-05
9.77865e-05
-3.26534e-05
0.000103184
-4.03836e-05
0.000104173
-5.49055e-05
9.89115e-05
-5.90644e-05
7.91375e-05
-5.21396e-05
6.82576e-05
-4.27044e-05
6.46076e-05
-3.30608e-05
6.12046e-05
-2.07254e-05
5.94199e-05
-7.28787e-06
7.07875e-05
-5.90311e-06
0.000124544
2.54829e-06
0.000139522
2.85341e-05
0.000121286
4.95482e-05
0.000100818
5.97679e-05
9.77105e-05
6.57876e-05
9.52233e-05
6.52193e-05
9.57827e-05
5.71013e-05
0.000101998
5.10439e-05
0.00010831
4.94057e-05
0.000105944
4.44231e-05
0.000107479
3.44216e-05
0.000111464
2.23271e-05
0.000106914
9.53537e-06
9.1782e-05
2.92852e-06
6.67127e-05
4.60554e-05
1.28526e-06
4.56335e-05
-2.42783e-06
5.39169e-05
-9.87209e-06
6.67998e-05
-2.02003e-05
8.94492e-05
-2.71536e-05
0.00010158
-3.3662e-05
0.000105151
-3.86698e-05
0.000102311
-4.44119e-05
9.48607e-05
-5.42313e-05
7.75298e-05
-5.14137e-05
6.03839e-05
-4.45691e-05
5.64392e-05
-3.67444e-05
5.35207e-05
-2.73955e-05
5.10219e-05
-1.10809e-05
5.77205e-05
4.30159e-06
0.000106877
1.64607e-05
0.000123956
3.43807e-05
0.000105516
4.61458e-05
8.95542e-05
5.28407e-05
9.00142e-05
5.6259e-05
8.94635e-05
5.17776e-05
9.62535e-05
4.21444e-05
0.000107049
4.14235e-05
0.000108173
4.2148e-05
0.000104986
4.0298e-05
0.000108357
3.31068e-05
0.000117074
2.37021e-05
0.000115996
1.35917e-05
0.0001034
7.08132e-06
7.67914e-05
5.43201e-05
-3.2049e-06
4.7974e-05
-1.36529e-05
6.09887e-05
-1.87685e-05
7.14645e-05
-2.4421e-05
9.23589e-05
-2.62658e-05
0.000100799
-2.78606e-05
0.000103868
-2.84272e-05
0.000100086
-2.7686e-05
9.34722e-05
-3.97236e-05
8.38224e-05
-4.62948e-05
6.33993e-05
-4.4722e-05
5.31205e-05
-3.89443e-05
4.81424e-05
-3.20675e-05
4.5309e-05
-1.76514e-05
4.8225e-05
1.21162e-05
8.0303e-05
2.81876e-05
0.000106252
3.69631e-05
9.84738e-05
4.22273e-05
8.43332e-05
4.56912e-05
8.55628e-05
4.45366e-05
8.93286e-05
3.82275e-05
0.000101598
3.0704e-05
0.000116738
2.90737e-05
0.000116096
2.84958e-05
0.000112939
2.86081e-05
0.000114193
2.75831e-05
0.000121124
2.54159e-05
0.000121156
2.18872e-05
0.000112735
1.05327e-05
9.59647e-05
7.69709e-05
-1.11168e-05
6.15073e-05
-2.76379e-05
8.44559e-05
-2.93299e-05
7.93879e-05
-2.39108e-05
8.96257e-05
-1.87205e-05
9.79108e-05
-1.41251e-05
0.0001021
-9.63087e-06
0.000101526
-8.71579e-06
0.000103339
-2.32816e-05
0.000102757
-4.28813e-05
8.01131e-05
-4.4993e-05
5.34597e-05
-4.00665e-05
4.38796e-05
-3.20766e-05
3.9098e-05
-2.14192e-05
3.96431e-05
9.57262e-06
5.50933e-05
3.22849e-05
8.36262e-05
3.50596e-05
9.2881e-05
3.83308e-05
7.98296e-05
4.15982e-05
8.16496e-05
3.84507e-05
9.12176e-05
3.40724e-05
0.000111928
2.68027e-05
0.000130148
2.05242e-05
0.000129914
1.85095e-05
0.00012327
1.6455e-05
0.000122663
2.17863e-05
0.000120586
2.89583e-05
0.000117554
2.78518e-05
0.000115003
1.33906e-05
0.000109223
9.71913e-05
-7.42954e-06
6.18662e-05
-2.84679e-05
8.75765e-05
-3.18121e-05
7.84395e-05
-2.1043e-05
8.14363e-05
-1.12174e-05
9.06678e-05
-3.4824e-06
9.6365e-05
8.10691e-07
9.73678e-05
-7.48255e-06
0.000104577
-2.56799e-05
0.000107794
-4.51881e-05
8.69336e-05
-4.72833e-05
5.35137e-05
-4.25367e-05
3.68105e-05
-3.07385e-05
3.0226e-05
-1.95226e-05
2.92868e-05
2.43903e-06
3.60321e-05
2.69522e-05
5.77053e-05
3.13879e-05
8.13596e-05
3.88002e-05
7.07487e-05
4.15621e-05
7.69114e-05
4.27909e-05
8.8211e-05
3.35918e-05
0.000104203
2.51397e-05
0.000116745
1.80968e-05
0.000115441
1.49092e-05
0.000108728
1.1608e-05
0.000107112
1.60882e-05
0.000101691
2.12757e-05
9.74965e-05
1.74165e-05
9.9652e-05
2.35387e-06
9.94185e-05
7.54102e-05
8.54254e-06
4.13873e-05
-3.34723e-06
8.29026e-05
-1.95532e-05
7.5526e-05
-2.16691e-05
6.79978e-05
-1.82095e-05
7.38568e-05
-1.84291e-05
8.09292e-05
-2.51045e-05
8.57031e-05
-3.98347e-05
9.56417e-05
-5.30096e-05
9.54773e-05
-6.5906e-05
7.05886e-05
-5.92263e-05
3.00502e-05
-4.57965e-05
1.73149e-05
-3.10817e-05
1.71173e-05
-1.63247e-05
1.6378e-05
7.21261e-07
1.85511e-05
2.19142e-05
3.35437e-05
2.90028e-05
6.33619e-05
4.33062e-05
5.76713e-05
5.13535e-05
5.73709e-05
4.82019e-05
6.38308e-05
4.30228e-05
8.04489e-05
4.16791e-05
9.30331e-05
3.74663e-05
9.59618e-05
2.94338e-05
9.36654e-05
2.13525e-05
9.3402e-05
1.29249e-05
8.98523e-05
1.49271e-06
8.97524e-05
-1.14301e-05
9.54522e-05
-1.66986e-05
9.21045e-05
4.92647e-05
9.77019e-06
2.98847e-05
1.08325e-05
7.92478e-05
-5.25707e-06
8.54689e-05
-2.62811e-05
7.87292e-05
-4.33479e-05
7.80764e-05
-5.78701e-05
8.25857e-05
-7.02204e-05
8.71913e-05
-7.34429e-05
9.09009e-05
-6.91027e-05
8.43524e-05
-6.66673e-05
5.65901e-05
-6.09731e-05
9.25949e-06
-4.57187e-05
-3.18231e-06
-3.28051e-05
-1.67485e-06
-1.64571e-05
1.63141e-06
-4.9144e-07
1.62452e-06
2.07793e-05
6.50007e-06
4.15564e-05
2.6695e-05
4.70461e-05
2.81591e-05
4.28388e-05
4.02612e-05
4.07112e-05
5.36304e-05
4.60943e-05
6.92233e-05
5.19787e-05
8.25661e-05
5.23256e-05
9.10403e-05
4.55432e-05
9.56407e-05
3.55579e-05
9.90457e-05
2.08757e-05
9.98915e-05
4.11258e-06
0.000102397
-8.98692e-06
0.000105649
-1.02457e-05
9.19351e-05
3.85696e-05
-2.76191e-06
3.23545e-05
-5.87055e-06
8.22865e-05
-1.93848e-05
9.86003e-05
-3.89191e-05
9.71093e-05
-5.78751e-05
9.51713e-05
-7.17879e-05
9.46737e-05
-7.81941e-05
9.22534e-05
-7.44786e-05
8.64824e-05
-6.37044e-05
7.29422e-05
-5.482e-05
4.4381e-05
-5.10014e-05
-1.61102e-06
-3.67324e-05
-1.61933e-05
-3.00379e-05
-1.19924e-05
-1.84609e-05
-9.09814e-06
-6.99657e-06
-9.20827e-06
7.70407e-06
-1.07714e-05
3.21799e-05
-5.10596e-06
3.20017e-05
1.46908e-05
3.36895e-05
3.5132e-05
3.76981e-05
4.90132e-05
4.49283e-05
6.19157e-05
5.20718e-05
7.53251e-05
5.47332e-05
8.81368e-05
5.10607e-05
9.90366e-05
4.2518e-05
0.000107326
2.99539e-05
0.000112194
1.6172e-05
0.000115973
5.53726e-06
0.000116156
2.01175e-06
9.54488e-05
4.04508e-05
-1.05733e-05
4.23952e-05
-1.77189e-05
8.94683e-05
-3.00574e-05
0.000110988
-4.5678e-05
0.000112677
-6.00913e-05
0.000109485
-6.94058e-05
0.000103824
-7.09437e-05
9.3652e-05
-6.39309e-05
7.94909e-05
-5.20862e-05
6.11133e-05
-4.37584e-05
3.41162e-05
-4.40066e-05
-6.24718e-06
-3.12357e-05
-2.44575e-05
-2.73023e-05
-1.86929e-05
-1.98499e-05
-1.60477e-05
-1.32903e-05
-1.49713e-05
-6.33856e-06
-1.63231e-05
2.02883e-05
-2.62674e-05
2.30936e-05
6.47423e-06
2.72104e-05
3.07487e-05
3.1999e-05
4.4335e-05
3.86275e-05
5.54641e-05
4.56477e-05
6.8429e-05
5.02161e-05
8.36563e-05
5.00152e-05
9.9276e-05
4.45906e-05
0.000112679
3.51029e-05
0.000121582
2.42574e-05
0.000126747
1.51706e-05
0.00012525
9.48097e-06
0.000101218
4.94158e-05
-1.41618e-05
5.59778e-05
-2.38094e-05
9.90287e-05
-3.45473e-05
0.000121743
-4.63366e-05
0.000124411
-5.63567e-05
0.000119387
-6.12898e-05
0.000108641
-5.93947e-05
9.16458e-05
-5.13433e-05
7.145e-05
-4.07337e-05
5.05925e-05
-3.42839e-05
2.648e-05
-3.78861e-05
-6.94796e-06
-2.9227e-05
-2.9037e-05
-2.52495e-05
-2.41332e-05
-1.95178e-05
-2.17317e-05
-1.48458e-05
-2.08882e-05
-9.01294e-06
-2.00732e-05
7.11872e-06
-4.03845e-05
1.33025e-05
-1.90709e-06
1.87416e-05
2.52028e-05
2.41271e-05
3.8992e-05
3.03885e-05
4.93099e-05
3.71507e-05
6.17657e-05
4.30225e-05
7.79178e-05
4.58034e-05
9.66123e-05
4.38825e-05
0.000114606
3.75395e-05
0.000127817
2.92987e-05
0.000134917
2.13208e-05
0.000133224
1.36537e-05
0.000108829
6.23965e-05
-1.50161e-05
7.05912e-05
-2.62321e-05
0.00011002
-3.58657e-05
0.000131329
-4.46341e-05
0.000133114
-5.09681e-05
0.000125596
-5.24087e-05
0.000109973
-4.85363e-05
8.76474e-05
-4.08987e-05
6.37298e-05
-3.24108e-05
4.21444e-05
-2.79607e-05
2.13903e-05
-3.39974e-05
-4.98063e-06
-3.09466e-05
-2.8463e-05
-2.51489e-05
-2.83903e-05
-2.01772e-05
-2.57205e-05
-1.4648e-05
-2.57639e-05
-8.96656e-06
-2.45807e-05
-3.30996e-06
-4.84623e-05
5.25153e-06
-1.06117e-05
1.13838e-05
1.88879e-05
1.69179e-05
3.35028e-05
2.27602e-05
4.35358e-05
2.92282e-05
5.53854e-05
3.57641e-05
7.15096e-05
4.07696e-05
9.17622e-05
4.20147e-05
0.000113428
3.85751e-05
0.000131173
3.22733e-05
0.000141139
2.46165e-05
0.00014081
1.48664e-05
0.000118365
7.67436e-05
-1.49489e-05
8.52781e-05
-2.67801e-05
0.000121633
-3.55953e-05
0.000140065
-4.22211e-05
0.000139672
-4.57125e-05
0.000128979
-4.46121e-05
0.000108776
-3.96432e-05
8.25615e-05
-3.28781e-05
5.68523e-05
-2.66049e-05
3.58864e-05
-2.40514e-05
1.86208e-05
-3.07812e-05
-1.44219e-06
-3.57596e-05
-2.50164e-05
-2.69386e-05
-3.0957e-05
-2.22542e-05
-2.85542e-05
-1.47072e-05
-3.18843e-05
-8.3612e-06
-3.0474e-05
-4.89427e-06
-5.28705e-05
1.92064e-06
-1.70963e-05
6.81954e-06
1.377e-05
1.15006e-05
2.88377e-05
1.66018e-05
3.85392e-05
2.25687e-05
4.95419e-05
2.9366e-05
6.48787e-05
3.58785e-05
8.54546e-05
3.96698e-05
0.000109762
3.87675e-05
0.000132051
3.38672e-05
0.000145947
2.62556e-05
0.000148322
1.50952e-05
0.000129277
9.14954e-05
-1.51142e-05
0.000100158
-2.68568e-05
0.000133215
-3.48815e-05
0.000148023
-3.99625e-05
0.000144664
-4.11424e-05
0.000130101
-3.80086e-05
0.000105614
-3.22411e-05
7.67594e-05
-2.62965e-05
5.08528e-05
-2.19613e-05
3.15549e-05
-2.11274e-05
1.77489e-05
-2.74465e-05
3.23828e-06
-3.96537e-05
-1.75562e-05
-3.20197e-05
-3.00575e-05
-2.7961e-05
-3.25385e-05
-1.80555e-05
-3.6807e-05
-8.6288e-06
-3.96913e-05
-4.24806e-06
-5.88146e-05
5.66079e-07
-2.16485e-05
3.90866e-06
1.01576e-05
7.53024e-06
2.52611e-05
1.1782e-05
3.44075e-05
1.71046e-05
4.4396e-05
2.382e-05
5.84026e-05
3.12859e-05
7.82803e-05
3.71005e-05
0.00010416
3.84237e-05
0.000130769
3.46362e-05
0.000149617
2.71326e-05
0.000155751
1.52881e-05
0.000140934
0.000106538
-1.57545e-05
0.00011562
-2.71934e-05
0.000144515
-3.44339e-05
0.000155222
-3.81341e-05
0.000148285
-3.71951e-05
0.00012918
-3.21829e-05
0.000100691
-2.56624e-05
7.03482e-05
-2.03898e-05
4.56272e-05
-1.76369e-05
2.88139e-05
-1.81672e-05
1.82862e-05
-2.41209e-05
8.57131e-06
-3.91507e-05
-6.98584e-06
-3.59994e-05
-2.61448e-05
-3.17131e-05
-3.79233e-05
-2.16897e-05
-4.05343e-05
-9.29309e-06
-5.06754e-05
-3.72835e-06
-6.69216e-05
-3.03519e-07
-2.51196e-05
1.91398e-06
7.63532e-06