/*--------------------------------*- C++ -*----------------------------------*\
| =========                 |                                                 |
| \\      /  F ield         | OpenFOAM: The Open Source CFD Toolbox           |
|  \\    /   O peration     | Version:  v1606+                                |
|   \\  /    A nd           | Web:      www.OpenFOAM.com                      |
|    \\/     M anipulation  |                                                 |
\*---------------------------------------------------------------------------*/
FoamFile
{
    version     2.0;
    format      ascii;
    class       volScalarField;
    location    "1.27";
    object      epsilon.air;
}
// * * * * * * * * * * * * * * * * * * * * * * * * * * * * * * * * * * * * * //

dimensions      [0 2 -3 0 0 0 0];

internalField   nonuniform List<scalar> 
6000
(
134.428
16.5004
10.741
10.0681
9.90424
9.80851
9.78118
9.76259
9.78553
9.8229
9.86732
9.92674
9.99788
10.0288
10.0221
10.002
9.95591
9.89075
9.8348
9.81348
9.8552
9.95037
10.0848
10.2648
10.3778
10.3461
10.3158
10.8419
16.5482
134.609
80.9901
24.3064
14.9732
12.6447
11.8176
11.3477
11.1136
10.9792
10.9279
10.9405
10.9934
11.19
11.4954
11.7316
11.7686
11.6349
11.4241
11.223
11.1157
11.1113
11.302
11.8022
12.5575
13.5385
14.0436
13.8377
13.6644
15.2377
24.0392
76.355
49.5427
23.1662
15.8596
13.3607
12.1952
11.5226
11.0944
10.8109
10.6632
10.583
10.568
10.6462
10.7999
10.94
10.9937
10.9338
10.8263
10.7748
10.8416
11.0526
11.4774
12.1674
13.3226
14.8772
15.6885
15.7032
15.869
17.3068
22.9355
43.7065
34.0685
19.9528
15.7676
14.2649
13.321
12.5523
11.7765
11.2846
10.9915
10.8153
10.7164
10.6975
10.7398
10.8025
10.8505
10.8288
10.7751
10.7843
10.9438
11.3467
12.0683
13.2547
15.4451
17.2285
17.3664
16.9262
16.4029
16.5291
18.5941
26.9322
24.2868
16.6338
15.2622
15.0299
14.626
14.371
13.4581
12.6829
12.1822
11.7731
11.4018
11.0889
10.8914
10.7857
10.7311
10.7058
10.746
10.9307
11.3178
11.9992
13.0642
14.6855
16.4847
17.2823
17.7487
17.4105
15.9318
14.8439
14.7814
20.0488
19.7487
14.3708
14.6025
15.4434
15.8482
15.8854
16.0129
15.2604
14.201
13.1087
12.1633
11.4161
10.9417
10.6674
10.5161
10.4609
10.5526
10.883
11.5469
12.57
13.965
15.5179
16.3887
16.8548
17.7116
16.8958
14.8842
13.4471
13.1517
19.9798
19.8433
13.5567
14.1236
15.5713
16.7568
16.7968
17.5792
17.3668
15.7362
13.9697
12.5222
11.5062
10.8859
10.4865
10.2458
10.1784
10.3206
10.7417
11.5217
12.685
14.3022
16.0557
16.6606
16.4816
17.151
15.764
13.9313
12.6739
12.7808
21.6313
22.2791
13.8078
14.0082
15.427
16.9108
17.1473
17.7893
17.6222
16.0535
14.2559
12.6703
11.5249
10.8261
10.3707
10.0953
10.0306
10.2067
10.6713
11.4533
12.6093
14.3382
16.2996
16.7951
16.1306
16.4586
14.9989
13.5049
12.559
13.1229
24.3543
26.6735
14.7398
14.3254
15.5495
17.273
17.7061
17.6172
17.3925
16.1647
14.4508
12.855
11.6326
10.8913
10.4178
10.1208
10.0372
10.2076
10.6629
11.4096
12.5161
14.2131
16.2365
16.8116
16.012
16.3332
15.1015
13.7965
13.0451
14.0379
27.4155
31.1774
16.134
15.1706
16.2622
18.2319
18.406
17.4736
17.0102
16.0718
14.6589
13.0825
11.8917
11.1585
10.675
10.3482
10.2247
10.3551
10.7548
11.4505
12.5124
14.0914
16.1255
16.8692
16.1455
16.7745
16.1447
14.8053
14.1406
15.5091
31.1756
36.2779
17.9697
16.5132
17.5095
19.4937
18.9178
17.5366
17.0474
16.2868
14.9966
13.4261
12.347
11.6816
11.2165
10.873
10.6994
10.7407
11.0102
11.5979
12.5507
13.8312
15.5446
16.7315
16.4578
17.3993
17.858
16.421
15.6599
17.3449
35.5117
41.8529
20.1351
18.1917
19.117
20.9202
19.3363
17.8612
17.4866
16.9565
15.3888
13.8472
12.91
12.3395
11.9588
11.6802
11.4761
11.3879
11.5006
11.9467
12.6526
13.634
14.8928
16.196
16.829
17.5469
19.0247
18.1694
17.3138
19.302
39.9554
47.3023
22.4199
20.0188
20.9098
22.3117
19.8871
18.6914
18.5369
17.3443
15.5384
14.316
13.5964
13.1537
12.8884
12.6978
12.4915
12.3033
12.3144
12.592
13.1627
14.1121
15.1055
16.0035
17.0203
17.8748
19.2066
19.4642
18.8248
21.1324
44.0055
52.0528
24.6022
21.7584
22.4192
22.8995
20.6358
20.0754
18.9304
17.2274
15.9304
15.1362
14.6317
14.3121
14.1355
13.9911
13.7957
13.5877
13.5678
13.8248
14.4461
15.3286
16.0823
16.654
17.4644
18.465
19.3565
20.095
20.0128
22.6717
47.7922
55.9228
26.6861
23.309
23.2759
22.9132
21.8252
20.7401
18.9572
17.6695
16.9496
16.4915
16.1753
15.9668
15.8523
15.7402
15.5597
15.3911
15.4166
15.75
16.3878
17.1147
17.709
18.1254
18.5972
19.2977
20.068
20.5258
20.7521
23.3858
48.5799
62.1174
28.59
24.2814
23.9501
23.8106
23.0749
21.1568
19.549
18.7918
18.4792
18.3087
18.2121
18.1518
18.1281
18.0898
17.957
17.8371
17.9026
18.2488
18.7726
19.3266
19.8087
20.1856
20.4151
20.7102
21.1956
21.725
22.3187
24.9397
50.0192
64.2677
29.0624
24.7454
24.5105
24.8011
23.4788
21.7326
20.6879
20.3592
20.405
20.5632
20.744
20.8916
21.0126
21.1006
21.0553
20.9374
20.9595
21.1885
21.5489
21.9435
22.3186
22.7234
22.7958
22.723
22.6742
22.6073
22.8128
25.3903
48.2095
59.4068
28.0709
24.017
23.8574
24.0605
23.3895
22.5641
22.2227
22.3562
22.8029
23.3449
23.8543
24.2436
24.5347
24.7487
24.7629
24.5902
24.466
24.5437
24.7571
25.0024
25.2477
25.6551
25.6434
25.3112
24.6672
23.72
22.9943
25.0918
41.6406
48.0331
25.4359
22.2864
22.3983
23.2226
23.8014
24.0071
24.3402
24.9571
25.8131
26.7801
27.6781
28.2905
28.6929
28.9472
28.9407
28.6459
28.3347
28.2768
28.4395
28.5703
28.6441
28.767
28.8469
28.4493
27.5216
26.1327
24.7739
25.4145
37.8124
39.7545
23.4341
21.4739
22.2952
23.877
25.2904
26.3686
27.3062
28.3737
29.5973
30.9826
32.3231
33.0427
33.4017
33.5281
33.3853
32.8753
32.4128
32.1211
32.0911
32.1306
32.0412
32.2753
32.2744
31.8589
31.3534
30.7972
29.3634
28.5454
39.4694
37.8349
24.7426
23.1877
24.2479
26.0499
27.9409
29.5384
30.9431
32.2358
33.6708
35.324
37.027
38.1774
38.2889
38.1041
37.6526
36.91
36.0125
35.365
34.9252
34.6041
34.2954
34.3502
34.7605
35.016
35.4313
36.1352
36.788
36.6456
46.158
45.7014
31.1022
28.4958
28.4792
29.6569
31.2952
32.6762
33.9604
35.3568
37.0732
38.9039
40.6721
42.1725
42.6437
42.0481
41.0975
39.8011
38.4253
37.0987
35.9644
35.231
34.7641
34.6339
34.9676
35.8639
37.352
39.5234
43.5258
48.4371
65.1491
59.1547
38.4864
32.4676
30.7815
30.7569
31.5607
32.7933
34.3179
36.3369
38.6398
40.4928
42.1247
43.8894
44.6431
44.4295
42.8006
40.8755
38.9403
37.246
35.9208
35.0465
34.5212
34.329
34.592
35.3669
36.6688
38.899
43.386
52.5406
86.161
63.2637
38.2635
32.5159
30.6825
30.3657
30.897
32.141
33.9034
36.2375
38.7966
40.7818
42.4702
44.0789
44.3821
43.8018
42.6376
40.7479
38.7443
37.0089
35.6363
34.6703
34.077
33.8065
33.9354
34.4953
35.5944
37.7873
41.7518
50.4594
97.9917
67.3469
36.2583
30.8329
29.3134
29.2251
29.946
31.4594
33.4666
35.9215
38.6761
41.0365
43.2322
45.0023
44.4572
43.1892
42.2657
40.6284
38.4329
36.5393
35.0998
34.078
33.4131
33.0681
33.0838
33.5538
34.7315
37.0225
40.7765
48.9207
101.781
70.1845
35.0514
29.345
27.9494
28.126
29.1679
31.0161
33.2631
35.6011
38.3306
41.1618
44.1054
46.0856
44.9483
43.0355
42.1101
40.2969
37.9017
35.8715
34.3551
33.283
32.5666
32.168
32.1313
32.6125
33.8531
36.0483
39.6076
47.6321
102.478
71.2561
34.2982
28.4321
26.9876
27.304
28.5926
30.6979
33.2493
35.5484
38.0699
41.2374
44.7753
46.5711
44.9018
42.6924
41.5226
39.5606
37.0979
35.0055
33.4331
32.312
31.5564
31.1321
31.0932
31.5863
32.7419
34.684
37.9493
45.7853
99.9681
71.7275
33.5489
27.762
26.34
26.7291
28.1609
30.4162
33.217
35.6253
37.8932
41.1898
45.0506
46.4163
44.2925
41.9043
40.5085
38.458
36.0254
33.9505
32.3667
31.2174
30.4362
30.0061
29.9692
30.4005
31.3585
32.996
35.9533
43.3827
95.0723
71.6244
32.8707
27.0875
25.8497
26.2811
27.7921
30.1116
33.0423
35.6296
37.6989
40.9605
44.8564
45.6506
43.1464
40.6878
39.1195
37.0344
34.7198
32.7334
31.1884
30.0428
29.2529
28.8191
28.753
29.068
29.8092
31.1697
33.6831
40.5752
89.3786
71.0578
32.3365
26.488
25.3822
25.9194
27.4303
29.7515
32.6929
35.4192
37.3513
40.4178
44.0345
44.2362
41.5473
39.1029
37.4493
35.3929
33.2402
31.3853
29.9154
28.8021
28.0173
27.5666
27.435
27.5994
28.1104
29.2515
31.4057
37.8002
83.5936
71.0155
32.0176
26.0386
24.9628
25.5806
27.0829
29.2967
32.059
34.8074
36.7076
39.5018
42.5818
42.305
39.5972
37.2528
35.6257
33.6276
31.6458
29.939
28.5636
27.4984
26.7244
26.2441
26.0329
26.0591
26.4008
27.2977
29.0589
35.1115
77.8291
71.4957
31.8555
25.7183
24.5931
25.2103
26.6825
28.6825
31.1851
33.7412
35.6774
38.1966
40.5574
39.9962
37.429
35.2224
33.6482
31.7605
29.971
28.4217
27.1486
26.1391
25.3808
24.8691
24.5797
24.4613
24.6792
25.3706
26.8609
32.6492
72.0434
71.9014
31.7479
25.5192
24.2912
24.7946
26.1961
27.9566
30.0983
32.3632
34.3185
36.5054
38.1494
37.3631
35.0294
33.0287
31.5328
29.8613
28.26
26.8615
25.6884
24.7381
24.001
23.451
23.0855
22.9158
23.0289
23.457
24.877
30.4906
67.2106
71.4243
31.6578
25.4901
24.1403
24.3682
25.6061
27.1598
28.914
30.8628
32.7515
34.4773
35.3842
34.4932
32.5163
30.7756
29.4131
27.9089
26.4893
25.2582
24.1921
23.2999
22.5947
22.0598
21.683
21.4483
21.378
21.7033
23.1483
28.5639
62.745
70.2899
31.6023
25.6287
24.1527
24.0047
25.03
26.4297
27.757
29.3169
31.0214
32.213
32.443
31.5825
30.0233
28.5579
27.2963
25.9922
24.7567
23.6658
22.7133
21.8934
21.2309
20.7418
20.3172
19.974
19.8323
20.1551
21.6079
26.7605
58.5579
69.8652
31.4119
25.4591
23.8132
23.5557
24.4933
25.6973
26.5153
27.5402
28.8488
29.5947
29.5339
28.8425
27.6727
26.4539
25.2703
24.1117
23.048
22.1061
21.2719
20.5333
19.9077
19.3959
18.941
18.5731
18.4328
18.7608
20.1459
24.9346
54.4218
68.4372
30.5364
24.6813
23.1839
23.03
23.6286
24.4943
24.9162
25.5455
26.451
26.9263
26.786
26.2588
25.4729
24.4712
23.3596
22.308
21.3802
20.5633
19.8332
19.1703
18.5834
18.0756
17.6254
17.2743
17.1471
17.4416
18.6781
23.0162
50.078
63.6783
28.9798
23.6257
22.4949
22.5923
22.8905
22.8929
23.0964
23.5572
24.0512
24.3194
24.2305
23.96
23.4377
22.585
21.5447
20.5642
19.7335
19.0259
18.3981
17.8217
17.2899
16.8118
16.3901
16.0615
15.92
16.1339
17.1797
21.0494
45.608
55.7273
27.16
22.6029
21.7174
21.9321
22.1793
21.7799
21.628
21.6886
21.8529
21.9967
22.0255
21.8999
21.4863
20.744
19.8175
18.9194
18.1546
17.5237
16.9879
16.5065
16.0467
15.6132
15.2211
14.8932
14.7035
14.8186
15.6807
19.1059
41.1805
51.0015
25.5467
21.4822
20.706
20.8412
20.929
20.6017
20.2498
20.0274
20.0424
20.1135
20.1428
20.0197
19.6239
18.9632
18.1668
17.3839
16.6993
16.1312
15.6592
15.245
14.8463
14.4515
14.0714
13.7248
13.4838
13.5166
14.2251
17.245
36.972
47.4836
23.8637
20.1977
19.4516
19.4219
19.3889
19.1938
18.8759
18.6231
18.5614
18.5631
18.5257
18.3432
17.9396
17.3432
16.655
15.9776
15.3731
14.8593
14.4247
14.0397
13.6677
13.2889
12.9081
12.5491
12.2807
12.2584
12.8456
15.5006
33.0627
43.5192
22.0904
18.8049
18.0897
17.9759
17.9188
17.7793
17.5523
17.3537
17.2619
17.2042
17.0938
16.8524
16.443
15.8982
15.2922
14.6959
14.1534
13.6781
13.2609
12.8787
12.5058
12.1287
11.7519
11.3975
11.1248
11.07
11.5612
13.8909
29.4675
39.3021
20.2867
17.3987
16.7704
16.6743
16.651
16.5619
16.3989
16.2409
16.1276
16.0122
15.8317
15.5382
15.1209
14.6116
14.0627
13.5227
13.0218
12.5692
12.1575
11.7704
11.3922
11.0165
10.6486
10.3073
10.042
9.96979
10.3843
12.429
26.2133
35.3084
18.5541
16.0793
15.6027
15.5921
15.6466
15.6152
15.4834
15.3268
15.1701
14.9847
14.7313
14.3867
13.9552
13.4643
12.951
12.4483
11.9745
11.5359
11.127
10.7372
10.3577
9.98665
9.62974
9.30377
9.05044
8.96994
9.32322
11.1228
23.3251
31.914
17.0283
14.952
14.6515
14.7718
14.9346
14.9517
14.8046
14.5966
14.3648
14.0949
13.7662
13.3714
12.9212
12.4379
11.9467
11.4678
11.0133
10.5856
10.1813
9.79371
9.41819
9.05517
8.71094
8.40086
8.16131
8.07829
8.38326
9.97526
20.8089
29.3261
15.862
14.1201
13.9977
14.2309
14.4897
14.5125
14.2726
13.9594
13.6363
13.2866
12.8948
12.4602
11.9949
11.5161
11.0404
10.5797
10.1406
9.72448
9.32796
8.94742
8.58052
8.22892
7.89912
7.6055
7.38067
7.29973
7.56788
8.98854
18.6622
28.1061
15.2944
13.7719
13.7838
14.0356
14.1075
13.9237
13.6157
13.2537
12.8886
12.5007
12.0771
11.6249
11.1569
10.6872
10.227
9.78372
9.36055
8.95743
8.57239
8.20296
7.8484
7.51094
7.19712
6.92053
6.7111
6.63581
6.87941
8.17319
16.8958
28.4377
15.4881
14.006
14.1348
13.9603
13.5119
13.1492
12.8131
12.4599
12.0994
11.7183
11.2995
10.8548
10.3998
9.94724
9.50626
9.0821
8.67658
8.28922
7.91871
7.56356
7.22394
6.90248
6.60564
6.34637
6.15267
6.08528
6.31304
7.50965
15.4621
30.7968
16.4204
14.8652
14.7085
13.6804
12.8892
12.4497
12.0765
11.7206
11.361
10.9875
10.5867
10.1627
9.73028
9.30084
8.8824
8.4794
8.09332
7.72385
7.37003
7.03133
6.70823
6.40373
6.12422
5.88212
5.70408
5.64591
5.86426
6.98634
14.3389
36.1479
18.288
15.8672
14.5755
13.2655
12.3925
11.9189
11.5108
11.1261
10.7515
10.3701
9.9796
9.57391
9.1636
8.75757
8.36208
7.98078
7.61493
7.26439
6.92854
6.60723
6.30136
6.01403
5.75158
5.52609
5.36327
5.31514
5.52948
6.59748
13.5068
42.4862
20.4558
16.3661
14.1383
12.8955
12.0964
11.62
11.1685
10.728
10.3206
9.91675
9.51379
9.11236
8.7149
8.32685
7.95134
7.59025
7.24408
6.91247
6.59484
6.29112
6.00254
5.73203
5.48595
5.27615
5.12787
5.09039
5.30573
6.33966
12.9507
47.8555
22.1466
16.3467
13.7975
12.7014
12.0591
11.6212
11.1167
10.586
10.1099
9.65472
9.21223
8.79294
8.39396
8.01466
7.6536
7.30962
6.98151
6.66802
6.36823
6.08192
5.81021
5.55598
5.32541
5.13022
4.99553
4.96901
5.19031
6.212
12.6719
52.0941
21.9799
15.9092
13.569
12.6857
12.1581
11.8123
11.3144
10.7132
10.1491
9.60336
9.08535
8.62097
8.20339
7.82206
7.46886
7.13814
6.82596
6.52949
6.24688
5.97749
5.72235
5.48403
5.26835
5.08696
4.96491
4.94894
5.17803
6.20048
12.6308
52.2235
20.8142
15.4185
13.4451
12.5773
12.0692
11.8856
11.5555
11.0433
10.415
9.74647
9.11933
8.58893
8.1374
7.74446
7.39335
7.07254
6.77456
6.49432
6.22847
5.97512
5.734
5.50858
5.30453
5.13323
5.01965
5.01032
5.24428
6.26898
12.726
48.6553
19.5973
15.1255
13.1799
12.2131
11.7448
11.6269
11.4949
11.2034
10.7407
10.0711
9.28427
8.66417
8.17429
7.7672
7.41548
7.10182
6.8155
6.54939
6.29895
6.06188
5.8381
5.62932
5.44059
5.28301
5.18165
5.18405
5.43176
6.48139
13.0923
40.7507
17.9102
14.3042
12.5684
11.7296
11.3801
11.2204
11.2242
11.0604
10.8205
10.3665
9.51625
8.82606
8.29936
7.87793
7.52656
7.22246
6.95147
6.70407
6.47406
6.25778
6.05372
5.86276
5.69018
5.54717
5.45885
5.47551
5.74441
6.84691
13.7751
31.4533
15.7364
12.9995
11.8285
11.3296
11.1204
10.939
11.0052
10.8429
10.7043
10.4534
9.72928
9.03153
8.49783
8.07472
7.72922
7.43747
7.18352
6.95609
6.74751
6.55297
6.37016
6.19957
6.0457
5.91951
5.84618
5.87936
6.17378
7.34325
14.6915
23.4224
13.7332
11.9064
11.3693
11.2433
11.1204
10.8375
10.9446
10.7924
10.559
10.4121
9.91819
9.27158
8.7534
8.33992
8.00678
7.73242
7.49987
7.29653
7.11351
6.94507
6.78814
6.64249
6.51182
6.40674
6.35253
6.40664
6.73368
7.99051
15.8908
21.0437
12.8792
11.5844
11.4419
11.3781
11.0989
10.8911
11.0522
10.8658
10.511
10.378
10.1307
9.56571
9.06635
8.66774
8.3524
8.10139
7.8963
7.72296
7.57138
7.43511
7.31042
7.19635
7.09581
7.0189
6.99072
7.07303
7.44282
8.81226
17.4184
22.5451
13.2978
11.959
11.6364
11.3902
11.166
10.9633
11.0274
10.8612
10.526
10.4226
10.4061
9.94153
9.44176
9.05394
8.7609
8.54038
8.37036
8.23442
8.12171
8.0254
7.94145
7.8683
7.80799
7.76968
7.77839
7.8998
8.32589
9.83675
19.3215
29.3081
15.0345
12.843
11.9469
11.7371
11.353
11.1616
11.1214
10.8195
10.5988
10.5849
10.7046
10.3737
9.87093
9.4912
9.2283
9.04823
8.92256
8.83268
8.76756
8.72068
8.68824
8.66836
8.66215
8.67749
8.73903
8.91561
9.41585
11.1002
21.6508
38.0154
16.6026
13.3111
12.6702
12.0742
11.6123
11.5278
11.4031
10.9759
10.827
10.8786
10.9544
10.7834
10.318
9.96675
9.75273
9.62752
9.55723
9.52294
9.51512
9.52854
9.56067
9.60973
9.67608
9.76615
9.90301
10.1576
10.7565
12.6528
24.474
41.3222
17.4916
14.0454
12.9864
12.2209
12.0271
12.0822
11.8656
11.3542
11.2456
11.3005
11.29
11.1376
10.7327
10.4687
10.3367
10.2856
10.2832
10.3142
10.3739
10.4597
10.5715
10.7089
10.872
11.0654
11.3094
11.6751
12.4074
14.5661
27.8887
40.8768
17.6745
14.1794
12.8325
12.3748
12.5295
12.8617
12.5106
11.8996
11.8205
11.7835
11.669
11.4264
11.126
11.0041
10.9938
11.0367
11.1145
11.221
11.3577
11.528
11.7361
11.9849
12.2754
12.6105
13.0064
13.5316
14.4465
16.93
32.0021
38.3226
17.1854
13.7983
12.6137
12.4532
12.9147
13.5149
12.912
12.3568
12.2686
12.1706
11.9815
11.7157
11.5673
11.6237
11.7549
11.9059
12.074
12.2645
12.4864
12.7518
13.0731
13.459
13.914
14.4405
15.0495
15.8034
16.9742
19.8681
36.9595
32.172
15.9091
13.1256
12.3466
12.4231
12.9465
13.3881
12.8683
12.5179
12.417
12.3793
12.2336
12.0804
12.1501
12.3875
12.6589
12.9293
13.1995
13.4803
13.7908
14.1572
14.6056
15.1551
15.8163
16.595
17.4973
18.5765
20.1162
23.568
43.0291
23.2534
14.6693
12.5358
12.1973
12.3818
12.7848
12.9863
12.7367
12.5336
12.4642
12.5333
12.5535
12.6515
12.9353
13.3344
13.7607
14.1738
14.5596
14.9297
15.321
15.7836
16.3664
17.104
18.0144
19.1115
20.4018
21.9269
24.0096
28.2889
50.7752
19.4778
13.5184
12.1908
12.1873
12.4144
12.716
12.9783
12.8774
12.7069
12.6774
12.8647
13.1192
13.4655
13.9529
14.5409
15.1638
15.759
16.2728
16.7142
17.1543
17.6884
18.4004
19.3445
20.542
22.0208
23.7938
25.85
28.7484
34.3132
61.1149
19.8743
13.1163
12.141
12.2319
12.4999
12.879
13.3207
13.4135
13.2645
13.2887
13.5791
14.0154
14.5817
15.2939
16.1304
17.0285
17.8824
18.5381
18.9921
19.4011
19.9466
20.7623
21.9189
23.4283
25.339
27.6801
30.4644
34.4803
41.9311
74.7567
21.9121
13.3547
12.3705
12.434
12.8089
13.4082
14.0989
14.371
14.3062
14.403
14.7615
15.3382
16.1082
17.0885
18.2666
19.5682
20.8443
21.6606
21.9675
22.1699
22.6172
23.4902
24.8519
26.6879
29.0847
32.11
35.8512
41.5302
51.8019
93.8646
25.682
14.3484
13.0063
13.075
13.638
14.4563
15.3137
15.7493
15.8376
16.057
16.5179
17.2284
18.2089
19.5045
21.1362
22.9871
24.9918
25.951
25.6529
25.3912
25.6404
26.5516
28.1259
30.3141
33.2453
37.0114
42.1211
50.3671
65.2455
124.911
28.7478
16.1215
14.3514
14.4883
15.3039
16.3655
17.3507
17.9389
18.2753
18.6364
19.1625
19.9681
21.1314
22.7307
24.9195
27.0339
28.5564
29.3781
29.4289
28.6475
28.7867
29.8537
31.7589
34.3911
37.9986
42.8146
49.573
61.2395
83.5952
178.367
29.0535
17.4339
16.0184
16.8745
18.4074
20.1539
21.4163
22.388
22.7612
22.8281
23.1053
23.8503
25.1677
27.0185
28.9005
30.6922
31.9176
32.4647
32.3008
31.4324
31.882
33.4881
35.8608
39.0145
43.3412
49.6044
58.5224
73.9014
106.988
272.23
31.2123
20.4623
19.6415
21.3352
24.1205
27.0011
29.6025
30.6981
29.5628
28.2331
27.5792
27.6505
28.3452
29.9677
32.1768
33.5828
33.4227
33.4417
33.6888
33.482
35.0565
37.3501
40.148
43.9445
49.5936
57.5561
69.245
90.0274
140.334
381.634
27.6478
19.9643
20.1906
22.1826
25.0211
27.7538
29.612
30.2952
29.8492
29.1286
28.596
28.56
29.4715
31.7667
33.8206
33.581
33.3446
33.5705
34.6277
36.4102
38.878
42.1823
46.0047
51.3185
58.6819
68.7951
84.2498
113.933
184.319
448.161
18.8454
16.0278
18.13
20.6455
22.4371
24.1537
25.4334
25.5759
25.4737
25.8713
26.8093
28.0967
29.6651
31.2957
32.5744
33.2023
33.8754
35.1565
37.7336
41.4162
45.7518
49.9994
55.422
62.5635
71.9857
84.8855
104.476
139.287
217.237
440.41
12.6924
11.5764
14.2631
16.8732
18.3076
19.3484
20.1928
20.8699
21.9771
23.6916
25.5014
27.1182
28.7685
30.4855
32.2611
34.054
36.3964
39.7875
44.4224
49.6516
55.0868
60.6601
67.5114
76.4212
87.7358
102.211
122.156
156.303
224.654
399.133
8.48696
9.10656
12.1306
14.87
16.7026
18.0478
19.0124
20.1212
21.8981
24.0507
26.0768
27.7898
29.534
31.589
34.1885
37.7086
42.7246
48.927
54.9155
60.3396
66.1547
72.2152
79.271
88.7914
101.058
116.357
135.674
163.718
219.371
332.582
6.71861
8.91422
13.4735
16.9895
19.4284
20.806
21.733
22.8807
24.5324
26.575
28.5608
30.3719
32.5209
35.2834
38.943
43.8767
50.7351
59.1064
66.5265
71.1877
74.9701
79.5374
86.5171
97.568
112.182
129.526
148.817
169.629
200.978
275.584
9.05794
13.6573
19.665
23.9111
26.5717
28.0023
28.4817
28.6815
29.4277
30.764
32.7424
35.0809
37.8909
40.977
44.5028
48.9394
55.3736
64.1134
72.5266
77.3864
79.5547
81.9025
87.8553
100.156
118.198
138.767
157.137
169.028
178.389
240.053
19.0206
24.4734
30.1135
33.9505
36.7799
37.5323
35.8969
33.6292
33.5427
35.3014
37.8596
40.4764
43.056
45.5096
48.0494
51.497
57.2201
65.5123
73.7506
78.8649
81.2642
83.119
87.8915
98.9885
116.833
137.644
155.197
163.167
161.712
221.959
40.134
40.1463
41.9391
44.5918
46.996
45.3717
40.307
37.22
37.5695
39.7462
42.0617
43.9925
45.7432
47.4521
49.438
52.6578
58.6181
67.5908
76.1758
80.8664
83.0158
84.5549
87.9226
96.3603
111.734
131.009
147.376
153.43
151.544
225.486
71.153
55.7295
52.0999
52.9388
54.1596
49.4135
43.2409
40.3965
40.8983
42.6913
44.1987
45.4059
46.6294
48.0802
50.0945
53.596
60.2104
70.4224
80.1183
84.115
85.1641
86.3047
88.6234
94.4887
106.17
122.065
136.494
142.95
145.205
236.609
103.559
66.8946
58.3816
58.9242
58.8285
52.6953
46.055
43.227
43.6134
44.6314
45.2537
45.8815
46.8197
48.254
50.4876
54.3354
61.4054
72.5352
83.8954
88.027
87.3441
87.9255
90.0718
94.2394
102.25
114.132
125.98
132.948
140.769
252.083
128.745
72.4295
61.5894
62.8544
62.4185
55.3039
48.4353
45.6758
45.638
45.7126
45.5871
45.8136
46.6255
48.1882
50.6955
54.768
61.8004
72.8977
85.5346
91.2435
89.2649
88.7822
91.3035
95.0948
100.373
108.204
116.98
124.027
136.912
263.171
145.756
74.7338
62.9205
64.6869
64.4446
57.1391
50.3578
47.66
46.9958
46.1803
45.482
45.4625
46.2347
47.9826
50.7185
54.8122
61.389
71.5685
84.1259
92.3904
91.4039
89.7414
91.5125
95.7356
100.019
104.551
110.025
116.504
133.015
268.977
157.159
75.4378
62.9778
64.4971
64.6459
58.0833
51.7651
49.1515
47.8086
46.2295
45.1031
44.9257
45.745
47.6594
50.5093
54.4667
60.339
69.1399
80.7256
91.3839
94.4922
92.746
92.437
95.5388
100.144
103.008
105.404
110.477
128.686
267.599
164.095
75.1322
61.7616
62.4424
63.0767
58.0753
52.5648
50.0288
48.0785
45.9462
44.5394
44.2967
45.1952
47.2024
50.0318
53.7541
58.9519
66.5248
76.9562
89.0712
97.9098
98.5546
95.9928
95.8036
100.024
102.937
103.243
106.201
124.407
263.138
164.951
72.9427
59.6183
59.2276
60.1826
57.1962
52.6734
50.1872
47.8122
45.3808
43.8549
43.6312
44.6152
46.6457
49.373
52.8373
57.4747
64.112
73.589
85.8827
97.895
103.272
100.513
97.2487
99.2224
102.68
103.015
104.213
120.642
254.724
156.347
68.9882
57.1917
55.5805
56.3955
55.473
52.1189
49.6632
47.0766
44.5652
43.0751
42.9596
44.0343
46.0403
48.6332
51.8396
56.0047
61.8826
70.4312
82.0105
94.61
102.658
103.1
99.499
98.513
101.332
103.325
104.566
117.573
242.708
142.7
64.4278
55.017
52.1908
52.3629
53.0881
50.9933
48.5759
45.9588
43.538
42.2172
42.2837
43.4649
45.4313
47.88
50.8402
54.5931
59.7791
67.2953
77.5757
89.2873
98.8012
102.675
101.403
98.9707
99.4481
102.863
105.934
117.588
228.254
131.629
61.1836
52.8079
49.2497
48.6496
50.1595
49.4004
47.0831
44.5527
42.3608
41.3143
41.6099
42.9179
44.8463
47.1576
49.8887
53.2655
57.7978
64.2267
72.9699
83.2063
92.6614
99.1486
101.057
99.4688
98.1184
100.737
105.654
117.939
210.433
129.757
60.2293
50.4524
46.4751
45.4271
46.8117
47.311
45.3354
42.9707
41.1048
40.4024
40.9563
42.3946
44.2954
46.4833
48.9985
52.0251
55.9469
61.3212
68.5109
77.0507
85.5582
92.6959
97.4172
98.1644
96.7846
97.3593
102.808
116.581
188.537
133.093
59.9554
48.0382
43.8896
42.6271
43.3446
44.6769
43.4451
41.3305
39.8424
39.5155
40.3306
41.8903
43.7729
45.8474
48.1571
50.8518
54.2083
58.6164
64.3671
71.2285
78.358
84.9082
90.351
93.7902
94.3145
93.8876
96.7489
110.535
162.397
128.695
58.0584
45.2308
41.3544
40.2426
40.3502
41.6336
41.4017
39.7328
38.6409
38.6824
39.7428
41.403
43.2715
45.2396
47.3478
49.7173
52.5468
56.097
60.5869
65.9368
71.6555
77.191
82.2326
86.452
89.1255
89.4643
89.398
97.4541
135.74
119.024
53.9236
41.958
38.6994
38.0165
37.8249
38.5983
39.1771
38.2367
37.5552
37.925
39.2001
40.9397
42.7912
44.6529
46.5555
48.5994
50.9323
53.7273
57.1479
61.2191
65.6917
70.1971
74.5154
78.4595
81.599
82.8959
81.7769
83.198
113.448
107.139
48.6362
38.7215
36.0401
35.6308
35.6167
35.9337
36.8659
36.8495
36.6253
37.2747
38.7121
40.5041
42.3287
44.079
45.7695
47.4854
49.3458
51.473
54.0042
57.0393
60.4784
64.0678
67.626
71.0019
73.8064
75.1326
73.9958
72.2951
99.471
95.9768
44.3413
35.915
33.6251
33.3026
33.6321
33.8211
34.6232
35.525
35.8743
36.7647
38.301
40.1075
41.8879
43.5196
44.9935
46.3815
47.7889
49.3183
51.1133
53.3274
55.9331
58.7393
61.5875
64.3656
66.7113
67.7646
66.8626
66.0639
100.34
84.6315
40.6327
33.4802
31.5476
31.269
31.8586
32.2888
32.8136
34.2244
35.2826
36.4143
37.9921
39.7698
41.4853
42.9933
44.2514
45.3144
46.2825
47.2672
48.4505
50.0161
51.9525
54.1022
56.3267
58.5612
60.5361
61.4576
61.0338
62.5837
104.95
75.0338
37.5062
31.4492
29.8322
29.5991
30.2793
31.1045
31.5675
33.0492
34.785
36.2323
37.8192
39.5189
41.1471
42.5276
43.5727
44.3131
44.8504
45.3332
46.0033
47.0472
48.4441
50.0561
51.7598
53.5364
55.2392
56.1842
56.3861
60.1491
111.098
69.7406
35.6099
29.9904
28.4931
28.2836
28.9308
30.0558
30.6988
32.127
34.2494
36.1734
37.8083
39.3942
40.9024
42.1453
42.9747
43.3901
43.5041
43.5284
43.763
44.3769
45.338
46.5155
47.801
49.2166
50.7268
51.7685
52.6023
58.1129
114.159
69.7095
35.1927
29.2101
27.5588
27.3135
27.85
28.9721
29.9594
31.4411
33.6349
36.1012
37.953
39.4073
40.7593
41.8473
42.4513
42.5365
42.2433
41.8574
41.7204
41.9751
42.5798
43.4095
44.3678
45.5138
46.9045
48.0681
49.4162
56.0303
113.466
72.4213
35.7771
28.9052
27.0039
26.6433
27.0842
28.0134
29.2243
30.8247
33.1094
35.8859
38.1607
39.5241
40.6827
41.5992
41.9704
41.7308
41.0594
40.3179
39.8629
39.8174
40.1277
40.6778
41.3825
42.3295
43.6435
44.9232
46.6585
53.9162
111.071
67.0966
33.5289
28.1622
26.5246
26.1616
26.5411
27.3577
28.5698
30.2675
32.6711
35.5129
38.2059
39.5996
40.5842
41.3367
41.4831
40.9399
39.9376
38.8988
38.1781
37.8799
37.9461
38.2685
38.774
39.5689
40.8248
42.1964
44.1868
51.6513
106.245
52.1252
29.6781
26.3861
25.8672
25.8472
26.2522
27.0232
28.2025
29.9571
32.2964
35.082
38.0086
39.4871
40.3748
40.999
40.9484
40.1383
38.8635
37.5863
36.6477
36.138
35.9997
36.1338
36.478
37.1456
38.3407
39.7803
41.9331
49.3672
100.456
43.187
25.8938
24.4788
25.0097
25.6456
26.2352
26.9945
28.1465
29.8981
32.1091
34.7491
37.7081
39.1744
40.0414
40.5734
40.3517
39.3163
37.8257
36.3645
35.252
34.564
34.2541
34.2302
34.4392
34.9894
36.106
37.5946
39.8682
47.2311
94.4781
36.5666
24.1634
23.5702
24.5902
25.6185
26.5066
27.3599
28.4889
30.1323
32.1517
34.625
37.412
38.7851
39.6439
40.0876
39.7026
38.4724
36.8144
35.2177
33.9716
33.1375
32.6798
32.5259
32.6203
33.0584
34.0707
35.5862
37.9475
45.1307
88.1304
35.8351
24.4363
23.9732
24.943
26.0511
27.0505
28.0637
29.2161
30.6791
32.4659
34.76
37.1948
38.4325
39.2498
39.5775
39.013
37.6036
35.8189
34.1342
32.7968
31.8534
31.2742
31.0144
31.017
31.3504
32.2269
33.7342
36.1639
42.9952
81.4694
43.2259
27.6486
26.0038
26.4086
27.1622
27.9947
28.985
30.1407
31.4598
33.058
35.1881
37.0941
38.1821
38.8926
39.0544
38.2815
36.7026
34.8332
33.116
31.7411
30.7323
30.0643
29.7168
29.6517
29.8921
30.5951
31.9927
34.4854
40.9491
74.5263
55.7855
32.1753
28.99
28.5604
28.8634
29.4273
30.1957
31.1736
32.3389
33.841
35.845
37.2303
38.0813
38.5852
38.5139
37.5023
35.7685
33.8658
32.1841
30.8375
29.8152
29.0949
28.6736
28.5478
28.7021
29.2069
30.3419
32.7169
38.8007
67.2096
68.8055
36.9445
32.2002
31.128
31.0616
31.3151
31.8012
32.5086
33.4608
34.7086
36.3355
37.4208
38.03
38.2845
37.9328
36.6726
34.8137
32.9378
31.3666
30.1231
29.1464
28.4096
27.92
27.7143
27.7686
28.0633
28.8237
30.7659
36.1637
59.9203
77.9211
41.2905
35.5799
34.011
33.6278
33.5653
33.737
34.1576
34.7868
35.7961
36.7734
37.5636
37.9435
37.9479
37.3059
35.8097
33.8644
32.0674
30.6672
29.5957
28.7245
28.0024
27.4425
27.1043
26.9933
27.0542
27.4079
28.6677
32.9228
53.006
86.2609
45.6296
39.1035
37.1009
36.4061
36.0963
35.9724
36.2115
36.7411
37.0075
37.3694
37.8329
37.9492
37.6526
36.6905
34.9616
32.9535
31.2549
30.0451
29.1811
28.468
27.804
27.1833
26.6599
26.2854
26.0654
26.058
26.6572
29.5738
47.1429
94.0622
50.3327
43.2786
41.0208
39.8409
39.0747
38.6604
38.643
38.5946
38.3981
38.3609
38.451
38.2053
37.5002
36.1526
34.1751
32.1017
30.479
29.4279
28.7586
28.2347
27.6888
27.0573
26.3487
25.6493
25.0916
24.7583
24.8515
26.5378
42.845
102.186
55.8106
48.5063
46.091
44.4041
42.835
41.6761
41.1131
40.6524
40.1757
39.7857
39.4704
38.7597
37.5333
35.7262
33.4744
31.3133
29.7164
28.7539
28.2192
27.8757
27.506
26.9569
26.147
25.1455
24.2268
23.5742
23.345
24.5862
42.0395
114.613
62.6828
54.674
51.627
49.3381
46.9913
45.1483
44.0798
43.3184
42.5199
41.6806
40.8738
39.6042
37.7568
35.4251
32.8703
30.5904
28.9629
28.0078
27.522
27.3058
27.1347
26.7619
26.0035
24.8271
23.565
22.6018
22.1644
23.4275
42.8436
134.81
69.5127
59.5067
55.9451
54.1248
51.7543
49.569
47.9929
46.929
45.6156
44.1576
42.6603
40.7211
38.1739
35.2622
32.3723
29.9407
28.2346
27.2186
26.6983
26.5226
26.5062
26.3675
25.833
24.6998
23.1877
21.8981
21.3058
22.8026
44.778
150.818
73.6075
62.6944
59.7274
58.9812
57.4028
55.2116
53.2783
51.7514
49.6952
47.3249
44.8556
42.1069
38.7812
35.2525
31.9925
29.3754
27.5532
26.4335
25.8141
25.5884
25.6339
25.7176
25.5409
24.7114
23.1779
21.5454
20.7506
22.5337
47.312
160.744
78.0642
66.5008
64.0133
64.0596
63.9691
62.2716
60.1737
58.0964
54.9962
51.2564
47.4535
43.7326
39.5628
35.3892
31.7413
28.9055
26.9341
25.6855
24.9288
24.589
24.5973
24.8355
25.0421
24.7065
23.4149
21.627
20.5699
22.5852
49.8381
168.423
83.1534
70.9333
68.7523
69.5587
71.1837
70.8044
69.0184
66.435
61.9316
56.2414
50.6596
45.6197
40.5177
35.6941
31.6351
28.5427
26.3866
24.985
24.0799
23.5918
23.5005
23.7774
24.2786
24.5371
23.8836
22.1096
20.7371
22.8049
52.1337
177.291
88.6552
75.9399
74.2711
76.0688
79.221
80.7656
80.2938
77.419
71.0937
62.795
54.7276
47.8918
41.7105
36.1935
31.6918
28.3031
25.9214
24.3341
23.2761
22.6315
22.4175
22.6342
23.2548
24.0038
24.2488
23.1692
21.3909
23.2961
54.4902
199.234
95.8549
82.211
81.0546
84.0304
88.4936
92.3382
94.1068
91.5754
82.9471
71.347
60.0386
50.7987
43.2963
36.9715
31.9479
28.2144
25.5577
23.7459
22.518
21.7198
21.3821
21.4888
22.0901
23.1102
24.2026
24.5208
22.9127
24.1951
56.809
214.669
103.522
89.5693
89.1955
93.4388
99.4094
105.681
110.286
108.617
97.6821
82.2881
66.9397
54.5786
45.4179
38.1284
32.4743
28.304
25.324
23.2488
21.8216
20.8672
20.4094
20.4056
20.9482
22.075
23.8134
25.5283
25.5227
25.9571
59.9339
210.653
109.265
97.427
98.4386
104.246
112.169