/*--------------------------------*- C++ -*----------------------------------*\
| =========                 |                                                 |
| \\      /  F ield         | OpenFOAM: The Open Source CFD Toolbox           |
|  \\    /   O peration     | Version:  v1606+                                |
|   \\  /    A nd           | Web:      www.OpenFOAM.com                      |
|    \\/     M anipulation  |                                                 |
\*---------------------------------------------------------------------------*/
FoamFile
{
    version     2.0;
    format      ascii;
    class       surfaceScalarField;
    location    "0.7";
    object      phi;
}
// * * * * * * * * * * * * * * * * * * * * * * * * * * * * * * * * * * * * * //

dimensions      [0 3 -1 0 0 0 0];

internalField   nonuniform List<scalar> 
5856
(
8.47905e-08
-8.47905e-08
3.03054e-07
-2.18264e-07
5.18662e-07
-2.15607e-07
6.54317e-07
-1.35656e-07
6.71504e-07
-1.71863e-08
6.02232e-07
6.92718e-08
4.62014e-07
1.40218e-07
2.9548e-07
1.66533e-07
1.21925e-07
1.73555e-07
-1.00369e-07
2.22294e-07
-4.37523e-07
3.37154e-07
4.98212e-07
-9.35735e-07
1.73945e-07
-2.58736e-07
4.55589e-07
-4.99907e-07
6.8044e-07
-4.40458e-07
7.73744e-07
-2.28959e-07
7.32071e-07
2.44861e-08
5.22379e-07
2.78964e-07
1.98557e-07
4.6404e-07
-1.79376e-07
5.44466e-07
-5.98911e-07
5.9309e-07
-1.17011e-06
7.93494e-07
-1.97887e-06
1.14591e-06
1.46324e-06
-2.94389e-06
3.02793e-07
-5.61529e-07
6.43542e-07
-8.40656e-07
8.47765e-07
-6.44681e-07
8.61842e-07
-2.43037e-07
6.58582e-07
2.27746e-07
3.27685e-07
6.09862e-07
-6.0882e-08
8.52607e-07
-4.99155e-07
9.82739e-07
-1.08888e-06
1.18282e-06
-1.91513e-06
1.61974e-06
-2.90443e-06
2.13521e-06
2.40706e-06
-3.84825e-06
2.99568e-07
-8.61096e-07
5.48133e-07
-1.08922e-06
6.40393e-07
-7.36942e-07
5.89088e-07
-1.91731e-07
4.00594e-07
4.1624e-07
1.07107e-07
9.03349e-07
-2.4435e-07
1.20406e-06
-7.06259e-07
1.44465e-06
-1.39829e-06
1.87485e-06
-2.3052e-06
2.52664e-06
-3.24254e-06
3.07254e-06
3.14289e-06
-3.97837e-06
2.24696e-07
-1.08579e-06
3.15702e-07
-1.18023e-06
3.08623e-07
-7.29862e-07
1.97827e-07
-8.09356e-08
3.75902e-08
5.76476e-07
-1.76547e-07
1.11749e-06
-4.6939e-07
1.49691e-06
-9.38075e-07
1.91333e-06
-1.6343e-06
2.57108e-06
-2.44373e-06
3.33608e-06
-3.15669e-06
3.78549e-06
3.57564e-06
-3.58943e-06
6.82702e-08
-1.15406e-06
-9.83446e-12
-1.11195e-06
-9.0835e-08
-6.39037e-07
-1.97265e-07
2.54945e-08
-3.29816e-07
7.09027e-07
-4.95688e-07
1.28336e-06
-7.62034e-07
1.76325e-06
-1.2028e-06
2.3541e-06
-1.78148e-06
3.14976e-06
-2.34602e-06
3.90062e-06
-2.72979e-06
4.16927e-06
3.6809e-06
-2.83505e-06
-1.05951e-07
-1.04811e-06
-3.01293e-07
-9.16605e-07
-4.47788e-07
-4.92542e-07
-5.45785e-07
1.23492e-07
-6.46329e-07
8.09571e-07
-7.90855e-07
1.42788e-06
-1.03532e-06
2.00772e-06
-1.38425e-06
2.70303e-06
-1.74539e-06
3.5109e-06
-1.9866e-06
4.14183e-06
-2.01734e-06
4.20001e-06
3.49459e-06
-1.83103e-06
-2.25827e-07
-8.22285e-07
-5.121e-07
-6.30332e-07
-6.85685e-07
-3.18957e-07
-7.64911e-07
2.02718e-07
-8.27077e-07
8.71736e-07
-9.37297e-07
1.53811e-06
-1.12008e-06
2.1905e-06
-1.32138e-06
2.90433e-06
-1.43319e-06
3.62271e-06
-1.36796e-06
4.0766e-06
-1.11379e-06
3.94584e-06
3.12424e-06
-7.43439e-07
-2.50594e-07
-5.71691e-07
-5.67983e-07
-3.12943e-07
-7.29761e-07
-1.5718e-07
-7.72652e-07
2.45609e-07
-7.68193e-07
8.67277e-07
-7.99651e-07
1.56956e-06
-8.75035e-07
2.26588e-06
-9.17801e-07
2.9471e-06
-8.29529e-07
3.53443e-06
-5.67833e-07
3.8149e-06
-1.83136e-07
3.56114e-06
2.74965e-06
1.91456e-07
-1.88331e-07
-3.83361e-07
-4.20424e-07
-8.08497e-08
-5.22738e-07
-5.48648e-08
-4.96953e-07
2.19824e-07
-4.03647e-07
7.73971e-07
-3.28496e-07
1.49441e-06
-2.84401e-07
2.22179e-06
-2.06457e-07
2.86915e-06
-2.0366e-08
3.34834e-06
2.81233e-07
3.5133e-06
6.13113e-07
3.22927e-06
2.51951e-06
8.43257e-07
5.4508e-09
-3.88811e-07
-5.21899e-08
-2.32089e-08
-1.01589e-08
-9.68958e-08
1.14862e-07
9.48026e-08
2.83612e-07
6.05221e-07
4.3581e-07
1.34222e-06
5.66693e-07
2.0909e-06
7.05899e-07
2.72995e-06
8.92096e-07
3.16215e-06
1.11903e-06
3.28637e-06
1.3196e-06
3.02869e-06
2.40279e-06
1.43631e-06
7.19186e-08
-4.6073e-07
3.02066e-07
-2.53356e-07
6.57886e-07
-4.52716e-07
1.00858e-06
-2.55893e-07
1.3126e-06
3.01199e-07
1.5077e-06
1.14712e-06
1.65623e-06
1.94238e-06
1.79541e-06
2.59076e-06
1.9434e-06
3.01416e-06
2.09721e-06
3.13256e-06
2.24212e-06
2.88378e-06
2.39698e-06
2.24793e-06
-1.58719e-06
6.51453e-07
-2.29407e-06
7.06884e-07
-2.88816e-06
5.94088e-07
-3.22198e-06
3.3382e-07
-3.24949e-06
2.75129e-08
-2.94673e-06
-3.02766e-07
-2.35734e-06
-5.8939e-07
-1.58432e-06
-7.7302e-07
-7.72777e-07
-8.11539e-07
-1.38824e-07
-6.33952e-07
9.59717e-08
-2.34796e-07
9.59717e-08
-3.84615e-06
1.55372e-06
-4.48207e-06
1.34281e-06
-4.77841e-06
8.90424e-07
-4.77656e-06
3.31965e-07
-4.51335e-06
-2.35688e-07
-4.10407e-06
-7.12051e-07
-3.54158e-06
-1.15188e-06
-2.80146e-06
-1.51314e-06
-1.89222e-06
-1.72078e-06
-9.17153e-07
-1.60902e-06
-1.6715e-07
-9.84799e-07
-7.11779e-08
-4.53425e-06
2.23971e-06
-4.86793e-06
1.67649e-06
-4.89252e-06
9.15009e-07
-4.70928e-06
1.48725e-07
-4.42248e-06
-5.22489e-07
-4.05805e-06
-1.07648e-06
-3.65714e-06
-1.5528e-06
-3.18206e-06
-1.98822e-06
-2.53352e-06
-2.36932e-06
-1.60897e-06
-2.53357e-06
-5.27755e-07
-2.06601e-06
-5.98933e-07
-4.36215e-06
2.6235e-06
-4.38276e-06
1.6971e-06
-4.14114e-06
6.73388e-07
-3.77801e-06
-2.14406e-07
-3.41327e-06
-8.87223e-07
-3.08956e-06
-1.40019e-06
-2.82057e-06
-1.82178e-06
-2.59217e-06
-2.21662e-06
-2.323e-06
-2.63849e-06
-1.81743e-06
-3.03913e-06
-8.91288e-07
-2.99216e-06
-1.49022e-06
-3.67052e-06
2.70458e-06
-3.46088e-06
1.48746e-06
-3.10574e-06
3.1825e-07
-2.74511e-06
-5.75036e-07
-2.43624e-06
-1.19609e-06
-2.18171e-06
-1.65472e-06
-1.97231e-06
-2.03118e-06
-1.80769e-06
-2.38123e-06
-1.68831e-06
-2.75787e-06
-1.51803e-06
-3.20941e-06
-9.64007e-07
-3.54619e-06
-2.45423e-06
-2.67237e-06
2.5419e-06
-2.3471e-06
1.16218e-06
-2.00867e-06
-2.01799e-08
-1.74997e-06
-8.33733e-07
-1.57453e-06
-1.37153e-06
-1.44428e-06
-1.78497e-06
-1.32688e-06
-2.14859e-06
-1.2083e-06
-2.49982e-06
-1.10199e-06
-2.86418e-06
-1.02964e-06
-3.28175e-06
-7.86316e-07
-3.78951e-06
-3.24054e-06
-1.50481e-06
2.21567e-06
-1.16389e-06
8.21265e-07
-9.56662e-07
-2.27407e-07
-8.62917e-07
-9.27478e-07
-8.14435e-07
-1.42002e-06
-7.64694e-07
-1.83471e-06
-7.05682e-07
-2.2076e-06
-6.43369e-07
-2.56213e-06
-5.8186e-07
-2.92569e-06
-5.47171e-07
-3.31644e-06
-5.02196e-07
-3.83449e-06
-3.74274e-06
-3.87042e-07
1.85928e-06
-1.94232e-07
6.28455e-07
-1.66508e-07
-2.55131e-07
-1.86015e-07
-9.07971e-07
-1.58394e-07
-1.44764e-06
-9.61016e-08
-1.897e-06
-3.25051e-08
-2.27119e-06
4.22272e-09
-2.59886e-06
1.627e-09
-2.92309e-06
-4.34078e-08
-3.27141e-06
-1.45304e-07
-3.73259e-06
-3.88804e-06
4.04603e-07
1.64613e-06
4.1476e-07
6.18298e-07
3.79541e-07
-2.19912e-07
4.32015e-07
-9.60444e-07
5.56619e-07
-1.57224e-06
6.89607e-07
-2.02999e-06
7.76981e-07
-2.35857e-06
7.87713e-07
-2.60959e-06
7.10078e-07
-2.84546e-06
5.40787e-07
-3.10212e-06
2.6869e-07
-3.4605e-06
-3.61935e-06
9.03609e-07
1.58578e-06
9.05254e-07
6.16653e-07
1.01502e-06
-3.29676e-07
1.23381e-06
-1.17923e-06
1.47985e-06
-1.81828e-06
1.67474e-06
-2.22489e-06
1.76732e-06
-2.45114e-06
1.73206e-06
-2.57433e-06
1.55801e-06
-2.67141e-06
1.24004e-06
-2.78415e-06
7.59645e-07
-2.9801e-06
-2.85971e-06
1.51737e-06
1.50471e-06
1.69568e-06
4.38346e-07
1.99747e-06
-6.31462e-07
2.34974e-06
-1.53151e-06
2.66002e-06
-2.12856e-06
2.86299e-06
-2.42786e-06
2.9243e-06
-2.51245e-06
2.8293e-06
-2.47933e-06
2.55879e-06
-2.4009e-06
2.07222e-06
-2.29757e-06
1.33527e-06
-2.24315e-06
-1.52444e-06
2.6307e-06
1.271e-06
2.98407e-06
8.49737e-08
3.39608e-06
-1.04347e-06
3.77728e-06
-1.91271e-06
4.05512e-06
-2.4064e-06
4.19208e-06
-2.56482e-06
4.18039e-06
-2.50075e-06
4.02688e-06
-2.32583e-06
3.72491e-06
-2.09893e-06
3.1881e-06
-1.76077e-06
2.13267e-06
-1.18772e-06
6.08237e-07
8.73916e-08
-8.73917e-08
3.03535e-07
-2.16143e-07
5.23155e-07
-2.19621e-07
6.60512e-07
-1.37357e-07
6.77251e-07
-1.6739e-08
6.06353e-07
7.08976e-08
4.64891e-07
1.41462e-07
2.98169e-07
1.66722e-07
1.24337e-07
1.73832e-07
-9.92989e-08
2.23636e-07
-4.38864e-07
3.39565e-07
5.01564e-07
-9.40428e-07
1.75025e-07
-2.62417e-07
4.5989e-07
-5.01008e-07
6.8218e-07
-4.41911e-07
7.72344e-07
-2.27521e-07
7.27405e-07
2.82003e-08
5.16272e-07
2.82031e-07
1.92179e-07
4.65554e-07
-1.84099e-07
5.43e-07
-6.04165e-07
5.93897e-07
-1.18044e-06
7.99916e-07
-1.99593e-06
1.15505e-06
1.47052e-06
-2.96488e-06
3.00966e-07
-5.63383e-07
6.39042e-07
-8.39084e-07
8.37445e-07
-6.40314e-07
8.45945e-07
-2.36022e-07
6.40142e-07
2.34003e-07
3.10559e-07
6.11614e-07
-7.43061e-08
8.5042e-07
-5.11495e-07
9.80189e-07
-1.1057e-06
1.18811e-06
-1.93819e-06
1.6324e-06
-2.92998e-06
2.14684e-06
2.41075e-06
-3.87021e-06
2.9636e-07
-8.59743e-07
5.398e-07
-1.08252e-06
6.26732e-07
-7.27245e-07
5.71478e-07
-1.80768e-07
3.81258e-07
4.24223e-07
8.94199e-08
9.03452e-07
-2.59667e-07
1.19951e-06
-7.24708e-07
1.44523e-06
-1.42337e-06
1.88677e-06
-2.33333e-06
2.54236e-06
-3.26661e-06
3.08012e-06
3.13675e-06
-3.99261e-06
2.20904e-07
-1.08065e-06
3.07334e-07
-1.16896e-06
2.96129e-07
-7.1604e-07
1.84071e-07
-6.87105e-08
2.36779e-08
5.84616e-07
-1.90296e-07
1.11743e-06
-4.85779e-07
1.49499e-06
-9.61063e-07
1.92051e-06
-1.66182e-06
2.58753e-06
-2.46881e-06
3.34935e-06
-3.17251e-06
3.78381e-06
3.55705e-06
-3.59281e-06
6.54782e-08
-1.14613e-06
-4.90251e-09
-1.09857e-06
-9.73947e-08
-6.23548e-07
-2.04845e-07
3.874e-08
-3.37949e-07
7.17719e-07
-5.06747e-07
1.28622e-06
-7.7927e-07
1.76751e-06
-1.22562e-06
2.36687e-06
-1.80398e-06
3.16589e-06
-2.36139e-06
3.90675e-06
-2.73386e-06
4.15629e-06
3.65099e-06
-2.8278e-06
-1.0633e-07
-1.0398e-06
-3.01448e-07
-9.03456e-07
-4.47865e-07
-4.77131e-07
-5.46638e-07
1.37512e-07
-6.49419e-07
8.205e-07
-7.98858e-07
1.43566e-06
-1.04891e-06
2.01756e-06
-1.39939e-06
2.71735e-06
-1.75593e-06
3.52243e-06
-1.98829e-06
4.13911e-06
-2.00941e-06
4.17741e-06
3.45773e-06
-1.81614e-06
-2.23742e-07
-8.16054e-07
-5.07313e-07
-6.19885e-07
-6.80962e-07
-3.03483e-07
-7.59904e-07
2.16455e-07
-8.24118e-07
8.84714e-07
-9.38188e-07
1.54973e-06
-1.12344e-06
2.20282e-06
-1.32273e-06
2.91663e-06
-1.42845e-06
3.62815e-06
-1.35615e-06
4.0668e-06
-1.09728e-06
3.91855e-06
3.08734e-06
-7.26893e-07
-2.46455e-07
-5.696e-07
-5.61646e-07
-3.04694e-07
-7.19727e-07
-1.45402e-07
-7.61983e-07
2.58711e-07
-7.57857e-07
8.80587e-07
-7.90388e-07
1.58226e-06
-8.6528e-07
2.27771e-06
-9.0463e-07
2.95598e-06
-8.11653e-07
3.53518e-06
-5.47183e-07
3.80233e-06
-1.64439e-07
3.5358e-06
2.72055e-06
2.0235e-07
-1.84798e-07
-3.84801e-07
-4.12609e-07
-7.68837e-08
-5.1157e-07
-4.64409e-08
-4.82988e-07
2.30128e-07
-3.87586e-07
7.85186e-07
-3.10816e-07
1.50549e-06
-2.64503e-07
2.2314e-06
-1.83553e-07
2.87503e-06
4.51258e-09
3.34711e-06
3.04161e-07
3.50268e-06
6.28693e-07
3.21127e-06
2.50156e-06
8.47679e-07
6.12656e-09
-3.90928e-07
-4.67181e-08
-2.40392e-08
-5.22657e-10
-9.26363e-08
1.28615e-07
1.0099e-07
3.01175e-07
6.12626e-07
4.56583e-07
1.35008e-06
5.90353e-07
2.09763e-06
7.3169e-07
2.73369e-06
9.17667e-07
3.16113e-06
1.14033e-06
3.28002e-06
1.3327e-06
3.01889e-06
2.3933e-06
1.44096e-06
7.2022e-08
-4.6295e-07
3.03422e-07
-2.5544e-07
6.61772e-07
-4.50986e-07
1.01649e-06
-2.53729e-07
1.3259e-06
3.03217e-07
1.52602e-06
1.14997e-06
1.67806e-06
1.94559e-06
1.81892e-06
2.59283e-06
1.96612e-06
3.01393e-06
2.11626e-06
3.12989e-06
2.25562e-06
2.87953e-06
2.40572e-06
2.2432e-06
-1.59562e-06
6.55191e-07
-2.30513e-06
7.09513e-07
-2.89974e-06
5.94614e-07
-3.23248e-06
3.32736e-07
-3.25852e-06
2.60424e-08
-2.95392e-06
-3.04602e-07
-2.36323e-06
-5.90693e-07
-1.58899e-06
-7.74236e-07
-7.7597e-07
-8.13022e-07
-1.40223e-07
-6.35747e-07
9.60185e-08
-2.36242e-07
9.60185e-08
-3.86608e-06
1.55638e-06
-4.49741e-06
1.34084e-06
-4.78853e-06
8.85734e-07
-4.78253e-06
3.26741e-07
-4.51702e-06
-2.3947e-07
-4.10681e-06
-7.14815e-07
-3.54405e-06
-1.15345e-06
-2.8043e-06
-1.51399e-06
-1.8955e-06
-1.72182e-06
-9.20057e-07
-1.61119e-06
-1.68324e-07
-9.87974e-07
-7.23055e-08
-4.54817e-06
2.23434e-06
-4.87306e-06
1.66574e-06
-4.89092e-06
9.03587e-07
-4.70377e-06
1.39597e-07
-4.41504e-06
-5.282e-07
-4.05057e-06
-1.07928e-06
-3.65071e-06
-1.55331e-06
-3.17751e-06
-1.98719e-06
-2.53154e-06
-2.3678e-06
-1.60957e-06
-2.53315e-06
-5.2944e-07
-2.0681e-06
-6.01746e-07
-4.36494e-06
2.60667e-06
-4.37644e-06
1.67723e-06
-4.12988e-06
6.5703e-07
-3.76535e-06
-2.24929e-07
-3.40111e-06
-8.92445e-07
-3.07847e-06
-1.40192e-06
-2.81064e-06
-1.82114e-06
-2.58354e-06
-2.2143e-06
-2.31638e-06
-2.63495e-06
-1.81404e-06
-3.0355e-06
-8.91128e-07
-2.99102e-06
-1.49287e-06
-3.66291e-06
2.67678e-06
-3.44693e-06
1.46125e-06
-3.09052e-06
3.00627e-07
-2.73158e-06
-5.83871e-07
-2.42503e-06
-1.199e-06
-2.17257e-06
-1.65438e-06
-1.96452e-06
-2.02919e-06
-1.80054e-06
-2.37827e-06
-1.68158e-06
-2.75392e-06
-1.51266e-06
-3.20442e-06
-9.61728e-07
-3.54195e-06
-2.4546e-06
-2.65749e-06
2.50646e-06
-2.32974e-06
1.1335e-06
-1.99404e-06
-3.5076e-08
-1.73912e-06
-8.38788e-07
-1.56678e-06
-1.37134e-06
-1.43838e-06
-1.78279e-06
-1.3219e-06
-2.14566e-06
-1.20373e-06
-2.49644e-06
-1.09745e-06
-2.8602e-06
-1.02516e-06
-3.27671e-06
-7.83503e-07
-3.7836e-06
-3.2381e-06
-1.48786e-06
2.17818e-06
-1.15045e-06
7.96093e-07
-9.48374e-07
-2.37154e-07
-8.59298e-07
-9.27864e-07
-8.12314e-07
-1.41832e-06
-7.62558e-07
-1.83254e-06
-7.03151e-07
-2.20507e-06
-6.4058e-07
-2.55901e-06
-5.7903e-07
-2.92175e-06
-5.44322e-07
-3.31142e-06
-4.99953e-07
-3.82797e-06
-3.73806e-06
-3.76044e-07
1.82733e-06
-1.91841e-07
6.1189e-07
-1.69856e-07
-2.59138e-07
-1.89151e-07
-9.0857e-07
-1.59792e-07
-1.44768e-06
-9.59035e-08
-1.89643e-06
-3.13238e-08
-2.26965e-06
5.84946e-09
-2.59618e-06
3.33776e-09
-2.91924e-06
-4.18014e-08
-3.26628e-06
-1.43798e-07
-3.72597e-06
-3.88186e-06
4.04458e-07
1.62522e-06
4.08001e-07
6.08347e-07
3.73054e-07
-2.24191e-07
4.2848e-07
-9.63996e-07
5.55494e-07
-1.57469e-06
6.89808e-07
-2.03074e-06
7.77713e-07
-2.35756e-06
7.88556e-07
-2.60703e-06
7.10893e-07
-2.84157e-06
5.41553e-07
-3.09694e-06
2.69585e-07
-3.45401e-06
-3.61227e-06
8.9906e-07
1.57384e-06
8.99702e-07
6.07705e-07
1.01181e-06
-3.36296e-07
1.23273e-06
-1.18492e-06
1.4798e-06
-1.82177e-06
1.67493e-06
-2.22588e-06
1.76735e-06
-2.44997e-06
1.73189e-06
-2.57157e-06
1.55781e-06
-2.6675e-06
1.24007e-06
-2.7792e-06
7.60026e-07
-2.97396e-06
-2.85225e-06
1.51801e-06
1.49679e-06
1.69599e-06
4.2972e-07
1.99827e-06
-6.3857e-07
2.35039e-06
-1.53704e-06
2.66009e-06
-2.13147e-06
2.86234e-06
-2.42812e-06
2.92302e-06
-2.51065e-06
2.82768e-06
-2.47622e-06
2.55725e-06
-2.39707e-06
2.07134e-06
-2.2933e-06
1.33556e-06
-2.23818e-06
-1.51668e-06
2.63732e-06
1.26519e-06
2.98802e-06
7.90206e-08
3.39847e-06
-1.04902e-06
3.77784e-06
-1.91641e-06
4.05408e-06
-2.40771e-06
4.18983e-06
-2.56387e-06
4.1774e-06
-2.49822e-06
4.02366e-06
-2.32249e-06
3.72191e-06
-2.09531e-06
3.18571e-06
-1.7571e-06
2.13182e-06
-1.18428e-06
6.15133e-07
8.48923e-08
-8.48924e-08
3.03061e-07
-2.18169e-07
5.18642e-07
-2.15581e-07
6.54258e-07
-1.35616e-07
6.71433e-07
-1.71754e-08
6.02136e-07
6.92972e-08
4.61927e-07
1.40208e-07
2.95478e-07
1.66449e-07
1.21918e-07
1.7356e-07
-1.00515e-07
2.22433e-07
-4.37807e-07
3.37292e-07
4.98217e-07
-9.36024e-07
1.73912e-07
-2.58804e-07
4.55489e-07
-4.99746e-07
6.80108e-07
-4.402e-07
7.73125e-07
-2.28633e-07
7.31113e-07
2.48364e-08
5.2124e-07
2.7917e-07
1.97382e-07
4.64067e-07
-1.80313e-07
5.44144e-07
-5.99733e-07
5.9298e-07
-1.17105e-06
7.93746e-07
-1.97978e-06
1.14603e-06
1.4629e-06
-2.94447e-06
3.02614e-07
-5.61418e-07
6.43057e-07
-8.40189e-07
8.46851e-07
-6.43995e-07
8.60409e-07
-2.42191e-07
6.56722e-07
2.28523e-07
3.25713e-07
6.10179e-07
-6.26042e-08
8.52384e-07
-5.00717e-07
9.82257e-07
-1.09065e-06
1.18291e-06
-1.91704e-06
1.62015e-06
-2.90606e-06
2.13505e-06
2.40605e-06
-3.84921e-06
2.993e-07
-8.60718e-07
5.47521e-07
-1.08841e-06
6.3941e-07
-7.35883e-07
5.87702e-07
-1.90483e-07
3.98774e-07
4.17451e-07
1.0507e-07
9.03883e-07
-2.46395e-07
1.20385e-06
-7.08664e-07
1.44453e-06
-1.40123e-06
1.87548e-06
-2.30819e-06
2.5271e-06
-3.24486e-06
3.07172e-06
3.14077e-06
-3.97958e-06
2.24471e-07
-1.08519e-06
3.15259e-07
-1.1792e-06
3.07888e-07
-7.28512e-07
1.96851e-07
-7.94463e-08
3.621e-08
5.78091e-07
-1.78378e-07
1.11847e-06
-4.71861e-07
1.49733e-06
-9.41455e-07
1.91412e-06
-1.63823e-06
2.57226e-06
-2.44736e-06
3.33622e-06
-3.15918e-06
3.78355e-06
3.57198e-06
-3.5904e-06
6.81867e-08
-1.15338e-06
-1.18085e-10
-1.11089e-06
-9.10344e-08
-6.37596e-07
-1.97731e-07
2.72497e-08
-3.30681e-07
7.11042e-07
-4.97299e-07
1.28509e-06
-7.64755e-07
1.76479e-06
-1.20654e-06
2.35591e-06
-1.78547e-06
3.15119e-06
-2.34932e-06
3.90007e-06
-2.7317e-06
4.16593e-06
3.6756e-06
-2.83532e-06
-1.05888e-07
-1.04749e-06
-3.01118e-07
-9.15665e-07
-4.4749e-07
-4.91224e-07
-5.45601e-07
1.2536e-07
-6.46545e-07
8.11985e-07
-7.91903e-07
1.43045e-06
-1.03744e-06
2.01033e-06
-1.38709e-06
2.70555e-06
-1.74814e-06
3.51224e-06
-1.98854e-06
4.14047e-06
-2.01805e-06
4.19545e-06
3.48809e-06
-1.83054e-06
-2.2565e-07
-8.2184e-07
-5.11704e-07
-6.2961e-07
-6.8508e-07
-3.17848e-07
-7.64189e-07
2.04469e-07
-8.26494e-07
8.7429e-07
-9.37221e-07
1.54117e-06
-1.12062e-06
2.19373e-06
-1.3222e-06
2.90713e-06
-1.43376e-06
3.62381e-06
-1.36797e-06
4.07467e-06
-1.11327e-06
3.94074e-06
3.1176e-06
-7.42773e-07
-2.50371e-07
-5.71469e-07
-5.67549e-07
-3.12433e-07
-7.29018e-07
-1.5638e-07
-7.71599e-07
2.4705e-07
-7.66897e-07
8.69587e-07
-7.9831e-07
1.57259e-06
-8.73723e-07
2.26914e-06
-9.16385e-07
2.94979e-06
-8.27921e-07
3.53534e-06
-5.66236e-07
3.81299e-06
-1.82074e-07
3.55658e-06
2.74428e-06
1.91245e-07
-1.88158e-07
-3.83311e-07
-4.20016e-07
-8.05752e-08
-5.22081e-07
-5.43145e-08
-4.95885e-07
2.20854e-07
-4.02056e-07
7.75758e-07
-3.2639e-07
1.49692e-06
-2.81847e-07
2.2246e-06
-2.0356e-07
2.8715e-06
-1.74424e-08
3.34922e-06
2.83506e-07
3.51204e-06
6.13936e-07
3.22615e-06
2.51613e-06
8.42083e-07
5.49763e-09
-3.88809e-07
-5.18836e-08
-2.3194e-08
-9.67158e-09
-9.65266e-08
1.1572e-07
9.54624e-08
2.85038e-07
6.0644e-07
4.37946e-07
1.34401e-06
5.69515e-07
2.09303e-06
7.09167e-07
2.73185e-06
8.95277e-07
3.16311e-06
1.12134e-06
3.28598e-06
1.32032e-06
3.02717e-06
2.40091e-06
1.43554e-06
7.20805e-08
-4.60889e-07
3.0216e-07
-2.53274e-07
6.5818e-07
-4.52546e-07
1.00915e-06
-2.55512e-07
1.31361e-06
3.01988e-07
1.50934e-06
1.14828e-06
1.65856e-06
1.94381e-06
1.79824e-06
2.59217e-06
1.94624e-06
3.01511e-06
2.09945e-06
3.13277e-06
2.24338e-06
2.88324e-06
2.39749e-06
2.24681e-06
-1.58729e-06
6.51269e-07
-2.29387e-06
7.06574e-07
-2.88769e-06
5.93825e-07
-3.22141e-06
3.33722e-07
-3.24898e-06
2.75683e-08
-2.94643e-06
-3.02554e-07
-2.3573e-06
-5.89125e-07
-1.58456e-06
-7.72747e-07
-7.73218e-07
-8.11339e-07
-1.3928e-07
-6.33937e-07
9.57571e-08
-2.35038e-07
9.57571e-08
-3.84623e-06
1.55302e-06
-4.48171e-06
1.34206e-06
-4.77778e-06
8.89898e-07
-4.77581e-06
3.31749e-07
-4.5126e-06
-2.3564e-07
-4.10334e-06
-7.1181e-07
-3.54096e-06
-1.15151e-06
-2.80102e-06
-1.51269e-06
-1.89199e-06
-1.72037e-06
-9.17123e-07
-1.6088e-06
-1.67208e-07
-9.84953e-07
-7.14506e-08
-4.53443e-06
2.23824e-06
-4.8675e-06
1.67513e-06
-4.89171e-06
9.14109e-07
-4.70829e-06
1.48336e-07
-4.42145e-06
-5.2248e-07
-4.05707e-06
-1.0762e-06
-3.65623e-06
-1.55234e-06
-3.18127e-06
-1.98765e-06
-2.53293e-06
-2.36871e-06
-1.60865e-06
-2.53308e-06
-5.27725e-07
-2.06588e-06
-5.99176e-07
-4.36222e-06
2.62088e-06
-4.38195e-06
1.69486e-06
-4.13983e-06
6.71989e-07
-3.77656e-06
-2.14933e-07
-3.41188e-06
-8.87164e-07
-3.08829e-06
-1.39978e-06
-2.81945e-06
-1.82119e-06
-2.59117e-06
-2.21593e-06
-2.32216e-06
-2.63772e-06
-1.81687e-06
-3.03837e-06
-8.91084e-07
-2.99166e-06
-1.49026e-06
-3.67003e-06
2.7005e-06
-3.45938e-06
1.48421e-06
-3.10384e-06
3.16451e-07
-2.74326e-06
-5.75509e-07
-2.43467e-06
-1.19576e-06
-2.18041e-06
-1.65404e-06
-1.97121e-06
-2.03039e-06
-1.80672e-06
-2.38042e-06
-1.68744e-06
-2.757e-06
-1.51735e-06
-3.20847e-06
-9.6369e-07
-3.54532e-06
-2.45395e-06
-2.67126e-06
2.53645e-06
-2.34525e-06
1.15819e-06
-2.00693e-06
-2.18656e-08
-1.74869e-06
-8.33753e-07
-1.57363e-06
-1.37082e-06
-1.44356e-06
-1.7841e-06
-1.32622e-06
-2.14774e-06
-1.20764e-06
-2.49899e-06
-1.10133e-06
-2.86331e-06
-1.02904e-06
-3.28076e-06
-7.85951e-07
-3.78841e-06
-3.2399e-06
-1.5036e-06
2.2095e-06
-1.16286e-06
8.17451e-07
-9.56245e-07
-2.28477e-07
-8.63069e-07
-9.26929e-07
-8.14632e-07
-1.41925e-06
-7.64713e-07
-1.83402e-06
-7.05504e-07
-2.20695e-06
-6.43056e-07
-2.56144e-06
-5.81481e-07
-2.92489e-06
-5.46771e-07
-3.31547e-06
-5.01885e-07
-3.83329e-06
-3.74179e-06
-3.86971e-07
1.8537e-06
-1.95303e-07
6.25782e-07
-1.68319e-07
-2.55462e-07
-1.87467e-07
-9.07781e-07
-1.5924e-07
-1.44748e-06
-9.6447e-08
-1.89681e-06
-3.25373e-08
-2.27086e-06
4.35107e-09
-2.59833e-06
1.81859e-09
-2.92235e-06
-4.32036e-08
-3.27045e-06
-1.45102e-07
-3.7314e-06
-3.88689e-06
4.02634e-07
1.64231e-06
4.1194e-07
6.16477e-07
3.77166e-07
-2.20688e-07
4.30597e-07
-9.61212e-07
5.55948e-07
-1.57283e-06
6.89368e-07
-2.03023e-06
7.76941e-07
-2.35843e-06
7.87745e-07
-2.60913e-06
7.10135e-07
-2.84474e-06
5.40855e-07
-3.10117e-06
2.68793e-07
-3.45933e-06
-3.61809e-06
9.01036e-07
1.58336e-06
9.02832e-07
6.14682e-07
1.01353e-06
-3.31384e-07
1.23309e-06
-1.18078e-06
1.47958e-06
-1.81932e-06
1.67466e-06
-2.22532e-06
1.76727e-06
-2.45104e-06
1.73199e-06
-2.57385e-06
1.55793e-06
-2.67069e-06
1.24e-06
-2.78324e-06
7.59673e-07
-2.979e-06
-2.85842e-06
1.5161e-06
1.5028e-06
1.69481e-06
4.35976e-07
1.99704e-06
-6.33621e-07
2.34956e-06
-1.5333e-06
2.65991e-06
-2.12967e-06
2.86285e-06
-2.42826e-06
2.92409e-06
-2.51227e-06
2.82903e-06
-2.47879e-06
2.55853e-06
-2.40019e-06
2.07207e-06
-2.29678e-06
1.33529e-06
-2.24223e-06
-1.52313e-06
2.63109e-06
1.26919e-06
2.98418e-06
8.28938e-08
3.39609e-06
-1.04554e-06
3.77709e-06
-1.9143e-06
4.05474e-06
-2.40732e-06
4.19155e-06
-2.56507e-06
4.17978e-06
-2.5005e-06
4.02626e-06
-2.32528e-06
3.72436e-06
-2.09829e-06
3.18771e-06
-1.76013e-06
2.13254e-06
-1.18706e-06
6.09407e-07
8.74452e-08
-8.74452e-08
3.03661e-07
-2.16216e-07
5.23324e-07
-2.19663e-07
6.60689e-07
-1.37365e-07
6.7742e-07
-1.67311e-08
6.06497e-07
7.09222e-08
4.65005e-07
1.41493e-07
2.98241e-07
1.66764e-07
1.24358e-07
1.73883e-07
-9.9264e-08
2.23622e-07
-4.3868e-07
3.39416e-07
5.01259e-07
-9.39939e-07
1.75076e-07
-2.62522e-07
4.59966e-07
-5.01105e-07
6.82249e-07
-4.41946e-07
7.72402e-07
-2.27518e-07
7.27451e-07
2.82195e-08
5.16327e-07
2.82047e-07
1.9225e-07
4.65569e-07
-1.84021e-07
5.43035e-07
-6.03975e-07
5.93837e-07
-1.17986e-06
7.99507e-07
-1.99474e-06
1.1543e-06
1.46974e-06
-2.96323e-06
3.0098e-07
-5.63502e-07
6.38979e-07
-8.39104e-07
8.3729e-07
-6.40257e-07
8.45726e-07
-2.35955e-07
6.39917e-07
2.34028e-07
3.10396e-07
6.11568e-07
-7.43634e-08
8.50328e-07
-5.11376e-07
9.80048e-07
-1.10521e-06
1.18767e-06
-1.93717e-06
1.63147e-06
-2.92858e-06
2.14571e-06
2.41e-06
-3.86884e-06
2.96291e-07
-8.59793e-07
5.39566e-07
-1.08238e-06
6.26361e-07
-7.27051e-07
5.71034e-07
-1.80628e-07
3.80798e-07
4.24264e-07
8.9018e-08
9.03349e-07
-2.59938e-07
1.19928e-06
-7.24707e-07
1.44482e-06
-1.42294e-06
1.8859e-06
-2.3325e-06
2.54103e-06
-3.26571e-06
3.07892e-06
3.13631e-06
-3.99202e-06
2.20758e-07
-1.08055e-06
3.06981e-07
-1.1686e-06
2.95623e-07
-7.15693e-07
1.83482e-07
-6.84875e-08
2.303e-08
5.84716e-07
-1.90961e-07
1.11734e-06
-4.86369e-07
1.49469e-06
-9.61406e-07
1.91985e-06
-1.66182e-06
2.58631e-06
-2.46857e-06
3.34779e-06
-3.17228e-06
3.78263e-06
3.55686e-06
-3.59283e-06
6.52716e-08
-1.14582e-06
-5.30951e-09
-1.09802e-06
-9.79655e-08
-6.23037e-07
-2.05545e-07
3.90921e-08
-3.38761e-07
7.17932e-07
-5.07658e-07
1.28624e-06
-7.80183e-07
1.76722e-06
-1.22637e-06
2.36604e-06
-1.80448e-06
3.16442e-06
-2.3617e-06
3.90501e-06
-2.73413e-06
4.15506e-06
3.65082e-06
-2.8281e-06
-1.06523e-07
-1.0393e-06
-3.01816e-07
-9.02728e-07
-4.48443e-07
-4.7641e-07
-5.47359e-07
1.38008e-07
-6.50272e-07
8.20845e-07
-7.99834e-07
1.4358e-06
-1.04992e-06
2.0173e-06
-1.4003e-06
2.71642e-06
-1.75666e-06
3.52078e-06
-1.98886e-06
4.13721e-06
-2.00985e-06
4.17605e-06
3.45741e-06
-1.81644e-06
-2.23858e-07
-8.15441e-07
-5.07462e-07
-6.19124e-07
-6.81455e-07
-3.02418e-07
-7.60483e-07
2.17036e-07
-8.24787e-07
8.85149e-07
-9.38919e-07
1.54993e-06
-1.12418e-06
2.20256e-06
-1.32339e-06
2.91563e-06
-1.42903e-06
3.62642e-06
-1.35664e-06
4.06482e-06
-1.09767e-06
3.91709e-06
3.08687e-06
-7.27132e-07
-2.46371e-07
-5.6907e-07
-5.61728e-07
-3.03767e-07
-7.19741e-07
-1.44405e-07
-7.62191e-07
2.59487e-07
-7.58136e-07
8.81094e-07
-7.90647e-07
1.58244e-06
-8.65476e-07
2.27739e-06
-9.04782e-07
2.95494e-06
-8.11823e-07
3.53346e-06
-5.47421e-07
3.80041e-06
-1.64732e-07
3.5344e-06
2.72008e-06
2.02057e-07
-1.84566e-07
-3.84504e-07
-4.12266e-07
-7.60664e-08
-5.11254e-07
-4.54171e-08
-4.82768e-07
2.31001e-07
-3.87428e-07
7.85753e-07
-3.10613e-07
1.50563e-06
-2.64208e-07
2.23099e-06
-1.83233e-07
2.87397e-06
4.71751e-09
3.34551e-06
3.04137e-07
3.50099e-06
6.28435e-07
3.2101e-06
2.50124e-06
8.47278e-07
6.53976e-09
-3.91044e-07
-4.61718e-08
-2.33548e-08
7.013e-11
-9.1659e-08
1.29194e-07
1.01877e-07
3.01671e-07
6.13277e-07
4.57056e-07
1.35024e-06
5.90876e-07
2.09717e-06
7.32215e-07
2.73263e-06
9.18044e-07
3.15968e-06
1.14041e-06
3.27862e-06
1.33248e-06
3.01803e-06
2.3932e-06
1.44052e-06
7.16877e-08
-4.62731e-07
3.0322e-07
-2.54887e-07
6.61966e-07
-4.50405e-07
1.01694e-06
-2.53094e-07
1.32638e-06
3.03837e-07
1.52647e-06
1.15015e-06
1.6785e-06
1.94514e-06
1.81934e-06
2.59178e-06
1.96644e-06
3.01258e-06
2.11634e-06
3.12873e-06
2.25541e-06
2.87896e-06
2.40525e-06
2.24337e-06
-1.59472e-06
6.54782e-07
-2.3039e-06
7.09177e-07
-2.8984e-06
5.94505e-07
-3.23124e-06
3.32835e-07
-3.25745e-06
2.62133e-08
-2.95309e-06
-3.04358e-07
-2.3626e-06
-5.90492e-07
-1.58856e-06
-7.74041e-07
-7.7574e-07
-8.12819e-07
-1.40179e-07
-6.35562e-07
9.59748e-08
-2.36153e-07
9.59748e-08
-3.86437e-06
1.55592e-06
-4.49601e-06
1.34082e-06
-4.78754e-06
8.8604e-07
-4.78188e-06
3.2717e-07
-4.51653e-06
-2.39132e-07
-4.10636e-06
-7.14532e-07
-3.54362e-06
-1.15323e-06
-2.80388e-06
-1.51379e-06
-1.89511e-06
-1.72159e-06
-9.19765e-07
-1.6109e-06
-1.68215e-07
-9.87703e-07
-7.22405e-08
-4.54723e-06
2.23431e-06
-4.87269e-06
1.66628e-06
-4.89097e-06
9.04327e-07
-4.70404e-06
1.40236e-07
-4.41537e-06
-5.27804e-07
-4.05083e-06
-1.07908e-06
-3.65084e-06
-1.55321e-06
-3.1775e-06
-1.98712e-06
-2.53141e-06
-2.36768e-06
-1.60937e-06
-2.53294e-06
-5.29269e-07
-2.06781e-06
-6.01509e-07
-4.36485e-06
2.60714e-06
-4.37677e-06
1.67819e-06
-4.13037e-06
6.57932e-07
-3.76583e-06
-2.24308e-07
-3.40145e-06
-8.92186e-07
-3.07868e-06
-1.40184e-06
-2.81076e-06
-1.82113e-06
-2.58359e-06
-2.2143e-06
-2.31638e-06
-2.63489e-06
-1.81397e-06
-3.03535e-06
-8.91038e-07
-2.99074e-06
-1.49255e-06
-3.6632e-06
2.6775e-06
-3.44729e-06
1.46229e-06
-3.09076e-06
3.01403e-07
-2.7316e-06
-5.83466e-07
-2.42494e-06
-1.19885e-06
-2.17243e-06
-1.65435e-06
-1.96437e-06
-2.02919e-06
-1.80041e-06
-2.37825e-06
-1.68148e-06
-2.75383e-06
-1.51259e-06
-3.20423e-06
-9.61692e-07
-3.54164e-06
-2.45424e-06
-2.65775e-06
2.50716e-06
-2.32985e-06
1.13439e-06
-1.99396e-06
-3.44935e-08
-1.73894e-06
-8.38487e-07
-1.56659e-06
-1.37119e-06
-1.43822e-06
-1.78272e-06
-1.32179e-06
-2.14562e-06
-1.20365e-06
-2.49639e-06
-1.09738e-06
-2.8601e-06
-1.02509e-06
-3.27652e-06
-7.83457e-07
-3.78328e-06
-3.2377e-06
-1.48796e-06
2.17868e-06
-1.15036e-06
7.96792e-07
-9.48227e-07
-2.36629e-07
-8.59188e-07
-9.27526e-07
-8.12311e-07
-1.41807e-06
-7.62651e-07
-1.83238e-06
-7.03298e-07
-2.20498e-06
-6.40734e-07
-2.55895e-06
-5.79152e-07
-2.92168e-06
-5.44385e-07
-3.31129e-06
-4.99954e-07
-3.82771e-06
-3.73765e-06
-3.76129e-07
1.82767e-06
-1.91857e-07
6.1252e-07
-1.69934e-07
-2.58553e-07
-1.894e-07
-9.0806e-07
-1.60175e-07
-1.4473e-06
-9.63515e-08
-1.8962e-06
-3.17737e-08
-2.26956e-06
5.44607e-09
-2.59617e-06
3.01583e-09
-2.91925e-06
-4.20264e-08
-3.26625e-06
-1.43905e-07
-3.72583e-06
-3.88156e-06
4.04189e-07
1.62554e-06
4.07645e-07
6.09064e-07
3.72544e-07
-2.23451e-07
4.27829e-07
-9.63345e-07
5.54767e-07
-1.57423e-06
6.89079e-07
-2.03051e-06
7.77037e-07
-2.35751e-06
7.87971e-07
-2.60711e-06
7.10421e-07
-2.8417e-06
5.41207e-07
-3.09703e-06
2.69391e-07
-3.45401e-06
-3.61216e-06
8.98601e-07
1.57422e-06
8.99018e-07
6.08647e-07
1.01101e-06
-3.35439e-07
1.23184e-06
-1.18418e-06
1.47891e-06
-1.82131e-06
1.6741e-06
-2.2257e-06
1.76661e-06
-2.45002e-06
1.73126e-06
-2.57175e-06
1.5573e-06
-2.66774e-06
1.23969e-06
-2.77942e-06
7.59811e-07
-2.97413e-06
-2.85235e-06
1.51736e-06
1.49738e-06
1.6952e-06
4.30812e-07
1.99735e-06
-6.37589e-07
2.34946e-06
-1.53629e-06
2.65924e-06
-2.13109e-06
2.86161e-06
-2.42808e-06
2.92241e-06
-2.51083e-06
2.82717e-06
-2.47651e-06
2.55682e-06
-2.39739e-06
2.071e-06
-2.2936e-06
1.33531e-06
-2.23845e-06
-1.51704e-06
2.63653e-06
1.26609e-06
2.98719e-06
8.01572e-08
3.39757e-06
-1.04797e-06
3.77704e-06
-1.91576e-06
4.05346e-06
-2.4075e-06
4.18938e-06
-2.564e-06
4.17708e-06
-2.49853e-06
4.02342e-06
-2.32285e-06
3.72169e-06
-2.09567e-06
3.18553e-06
-1.75743e-06
2.13166e-06
-1.18459e-06
6.14622e-07
4.57582e-06
6.61563e-09
-5.04317e-06
4.28438e-06
3.80843e-08
3.68831e-06
1.43355e-07
3.10149e-06
3.30928e-07
2.78389e-06
6.18797e-07
2.80879e-06
1.12222e-06
2.96549e-06
1.78568e-06
3.13331e-06
2.42294e-06
3.289e-06
2.85846e-06
3.45061e-06
2.97096e-06
3.64863e-06
2.68576e-06
1.9756e-06
3.92096e-06
6.07346e-06
-1.18885e-07
-5.94796e-06
6.08961e-06
2.19358e-08
5.91962e-06
3.13346e-07
5.52512e-06
7.25426e-07
5.0333e-06
1.11062e-06
4.68495e-06
1.47057e-06
4.59541e-06
1.87523e-06
4.70306e-06
2.31529e-06
4.90338e-06
2.65814e-06
5.15155e-06
2.72279e-06
5.45456e-06
2.38276e-06
1.60622e-06
5.82393e-06
6.869e-06
-1.86385e-07
-6.8015e-06
6.90985e-06
-1.89127e-08
6.96185e-06
2.61341e-07
6.98873e-06
6.98544e-07
6.91424e-06
1.18511e-06
6.76125e-06
1.62356e-06
6.64126e-06
1.99521e-06
6.64303e-06
2.31352e-06
6.78771e-06
2.51346e-06
7.05476e-06
2.45574e-06
7.40577e-06
2.03175e-06
1.2204e-06
7.79159e-06
7.63586e-06
-7.61801e-06
7.63578e-06
7.66779e-06
7.77399e-06
7.93879e-06
8.12882e-06
8.31937e-06
8.49999e-06
8.70187e-06
8.96368e-06
9.27091e-06
9.55402e-06