/*--------------------------------*- C++ -*----------------------------------*\
| =========                 |                                                 |
| \\      /  F ield         | OpenFOAM: The Open Source CFD Toolbox           |
|  \\    /   O peration     | Version:  v1606+                                |
|   \\  /    A nd           | Web:      www.OpenFOAM.com                      |
|    \\/     M anipulation  |                                                 |
\*---------------------------------------------------------------------------*/
FoamFile
{
    version     2.0;
    format      ascii;
    class       volScalarField;
    location    "0.7";
    object      k;
}
// * * * * * * * * * * * * * * * * * * * * * * * * * * * * * * * * * * * * * //

dimensions      [0 2 -2 0 0 0 0];

internalField   nonuniform List<scalar> 
2268
(
0.00377784
0.00606042
0.00858284
0.0108124
0.0126463
0.0141981
0.0155847
0.0168852
0.0181334
0.0193092
0.0203864
0.0213267
0.0220821
0.0225978
0.0228059
0.0226275
0.0219842
0.0208092
0.0190899
0.0169283
0.0145732
0.0121063
0.0084461
0.00594772
0.0118022
0.0174079
0.022217
0.0263656
0.0300201
0.0333206
0.0363642
0.0391685
0.0417505
0.044089
0.0461244
0.0477727
0.0489352
0.0494952
0.0493192
0.0482726
0.0462491
0.043237
0.0393527
0.034712
0.0275713
0.0155748
0.00688432
0.0145275
0.0212359
0.0273319
0.0327963
0.0376658
0.0420539
0.0460384
0.0496793
0.053001
0.0559845
0.0585719
0.0606814
0.0622185
0.0630741
0.0631265
0.0622562
0.060372
0.0574413
0.0534293
0.0478085
0.038641
0.0202764
0.00715275
0.0159027
0.0234332
0.0305935
0.0371405
0.0429854
0.0481951
0.0528802
0.0571278
0.0609766
0.0644152
0.0673933
0.0698403
0.0716763
0.0728115
0.0731493
0.0725996
0.0711021
0.0686033
0.0648946
0.0591439
0.0489442
0.0250474
0.00704579
0.0165214
0.0248615
0.0330668
0.0406238
0.0473148
0.0532135
0.058472
0.0632089
0.06748
0.0712827
0.0745759
0.0773042
0.0794072
0.0808187
0.0814707
0.0813067
0.0802895
0.078338
0.075179
0.0697854
0.0591449
0.0305615
0.00700195
0.0167104
0.0259281
0.0352276
0.0437432
0.0511775
0.0576543
0.0633871
0.0685298
0.0731531
0.0772609
0.0808208
0.0837952
0.0861461
0.0878322
0.0888138
0.0890666
0.0885591
0.0872208
0.0847597
0.0800801
0.0696907
0.0381774
0.00710064
0.0169061
0.0270435
0.0373894
0.0467897
0.0548442
0.0617824
0.0678978
0.0733766
0.0782979
0.0826662
0.0864555
0.0896489
0.0922328
0.0941901
0.0955063
0.0961832
0.0961964
0.0954981
0.0938273
0.0901734
0.0810534
0.0505937
0.00757392
0.0175256
0.0285922
0.0398449
0.0499637
0.0584763
0.0657446
0.0721511
0.0779029
0.0830767
0.0876682
0.0916551
0.0950446
0.097848
0.10007
0.101716
0.102813
0.10334
0.10328
0.102442
0.100058
0.0935733
0.0717201
0.25239
0.428743
0.518734
0.488639
0.37515
0.259961
0.196457
0.167379
0.155325
0.151477
0.151397
0.153223
0.155429
0.155097
0.147224
0.129538
0.104529
0.0707473
0.0308051
0.522708
1.00311
1.35991
1.39453
1.10397
0.717219
0.473287
0.356692
0.30901
0.291234
0.28438
0.282631
0.284055
0.284398
0.27287
0.242739
0.197819
0.138342
0.0527693
0.597669
1.40915
2.19007
2.46249
2.08414
1.35942
0.814149
0.524596
0.410747
0.370035
0.353182
0.345724
0.343079
0.340429
0.324865
0.28798
0.234594
0.166167
0.0683732
0.536031
1.36819
2.10712
2.74619
3.25857
2.52852
1.43848
0.757197
0.51134
0.431405
0.399675
0.38575
0.378734
0.372205
0.352813
0.312116
0.254933
0.183476
0.0783848
0.469858
1.14592
1.44414
1.92252
2.56798
2.99027
2.2481
1.11326
0.636065
0.490054
0.435309
0.414761
0.403586
0.392399
0.368855
0.32601
0.267453
0.194957
0.0855818
0.380702
0.743407
0.8989
1.2826
1.86589
2.28106
2.19737
1.39433
0.750405
0.535499
0.462066
0.437514
0.423236
0.406051
0.377695
0.333803
0.275515
0.203154
0.0911894
0.273152
0.407601
0.574465
0.887687
1.38153
1.81531
1.89272
1.409
0.788279
0.559217
0.474752
0.453073
0.440375
0.415457
0.381967
0.337882
0.280831
0.209402
0.0957356
0.174672
0.282243
0.433548
0.687361
1.08796
1.4946
1.64935
1.33117
0.786928
0.571166
0.485236
0.465874
0.454575
0.420952
0.383618
0.340099
0.284531
0.21424
0.0994303
0.00996117
0.0198869
0.032215
0.0445237
0.0553883
0.0642894
0.0718363
0.0785498
0.0846335
0.0901347
0.0950188
0.0992653
0.102928
0.106054
0.108673
0.110814
0.112516
0.113755
0.114558
0.114824
0.114123
0.111408
0.102943
0.014967
0.0281615
0.0410961
0.0535337
0.0641697
0.0724774
0.0797619
0.0865989
0.0929858
0.0988432
0.104015
0.108492
0.112445
0.115951
0.119059
0.121815
0.124243
0.126343
0.128235
0.129988
0.131656
0.133567
0.136439
0.0199909
0.0393505
0.0505303
0.0611168
0.071016
0.0795148
0.0871851
0.0944129
0.101238
0.10752
0.112795
0.117237
0.121332
0.1251
0.128572
0.1318
0.134784
0.13761
0.140443
0.143463
0.147053
0.152041
0.159419
0.0229949
0.046117
0.0584854
0.0679985
0.0764112
0.084325
0.092192
0.100067
0.107856
0.115017
0.120901
0.125616
0.129836
0.133748
0.137391
0.140825
0.1442
0.147666
0.151354
0.155521
0.160924
0.168691
0.179603
0.0236474
0.0500143
0.0633817
0.0730062
0.0810305
0.0883096
0.0954955
0.102935
0.110596
0.117981
0.124593
0.130434
0.135611
0.140454
0.144913
0.148831
0.152479
0.156481
0.161064
0.166521
0.174208
0.18545
0.201417
0.0239481
0.0517409
0.0660717
0.0762012
0.0844067
0.0916089
0.0984576
0.105355
0.112366
0.119207
0.125567
0.131551
0.137416
0.143181
0.148522
0.153416
0.157964
0.163025
0.169131
0.176763
0.186706
0.202571
0.228277
0.0239654
0.0525277
0.0673369
0.0779699
0.0865875
0.0940537
0.100931
0.10759
0.114173
0.120589
0.126685
0.132524
0.13831
0.144083
0.149715
0.155316
0.161251
0.16807
0.176059
0.185433
0.197543
0.216876
0.245344
0.0239993
0.0526858
0.0677373
0.0786962
0.0876854
0.0955008
0.102608
0.109318
0.115788
0.122029
0.127989
0.133708
0.139327
0.144952
0.150636
0.15656
0.16309
0.170659
0.179571
0.190268
0.203755
0.2217
0.242357
0.0239616
0.0525331
0.0676136
0.0787054
0.0879207
0.0960122
0.103376
0.110261
0.116811
0.123073
0.129045
0.134761
0.140323
0.145858
0.151497
0.157449
0.164039
0.171645
0.180622
0.1914
0.204711
0.220904
0.238441
0.0238397
0.0521546
0.0671173
0.0781932
0.0874897
0.0957363
0.103287
0.110349
0.117041
0.123418
0.129495
0.135302
0.140914
0.146444
0.152037
0.157892
0.164287
0.171556
0.180041
0.190098
0.202126
0.21628
0.231797
0.0236354
0.0515728
0.066319
0.0772747
0.0865365
0.094822
0.102463
0.109641
0.116457
0.12296
0.129171
0.135114
0.14084
0.146439
0.152036
0.157805
0.16398
0.170846
0.178711
0.187874
0.198593
0.21098
0.225008
0.0233537
0.0507968
0.0652666
0.0760308
0.0851736
0.0934033
0.101042
0.108257
0.11514
0.121736
0.128065
0.134145
0.14001
0.145726
0.151391
0.15715
0.163196
0.169772
0.177144
0.185574
0.195284
0.206436
0.219295
0.0229951
0.0498511
0.0640035
0.0745336
0.0834981
0.0916014
0.0991598
0.106337
0.113221
0.119856
0.126262
0.132453
0.138452
0.144306
0.150091
0.155923
0.161962
0.168413
0.175509
0.183485
0.192555
0.202926
0.214958
0.0225456
0.048786
0.0625772
0.0728488
0.0816
0.0895266
0.0969467
0.104024
0.110847
0.117463
0.123896
0.130158
0.136267
0.142258
0.14819
0.154157
0.160292
0.166771
0.173799
0.181595
0.190374
0.200372
0.211964
0.0220151
0.047624
0.0610482
0.0710399
0.0795589
0.0872796
0.0945192
0.101448
0.108159
0.114706
0.121115
0.127403
0.133588
0.139698
0.145781
0.151915
0.158215
0.164834
0.171959
0.1798
0.188577
0.198549
0.210091
0.0214248
0.0463925
0.059464
0.0691734
0.0774467
0.0849459
0.0919814
0.0987275
0.105288
0.111721
0.118062
0.124335
0.130557
0.136757
0.142978
0.149288
0.155789
0.162619
0.169954
0.178001
0.186994
0.197213
0.209045
0.0208001
0.045129
0.0578627
0.0673062
0.0753313
0.0825993
0.0894184
0.095963
0.102344
0.108632
0.114869
0.121087
0.127311
0.133569
0.139905
0.146382
0.153094
0.160172
0.167786
0.176145
0.1855
0.196158
0.20853
0.020167
0.0438734
0.0562869
0.06548
0.0732707
0.0803049
0.0869003
0.0932337
0.0994198
0.105538
0.111645
0.117777
0.123969
0.130255
0.136679
0.143305
0.150223
0.157561
0.165488
0.17422
0.184023
0.195232
0.208287
0.0195506
0.0426645
0.0547781
0.0637365
0.0713052
0.0781167
0.0844857
0.0906025
0.096586
0.102522
0.108476
0.1145
0.120633
0.126918
0.133403
0.140154
0.147264
0.154858
0.163109
0.172237
0.182524
0.194327
0.208107
0.0189738
0.0415376
0.0533741
0.0621132
0.0694716
0.0760698
0.0822215
0.0881189
0.0938957
0.0996431
0.105434
0.111329
0.117381
0.12364
0.130161
0.137014
0.144295
0.152131
0.160696
0.170217
0.180984
0.193364
0.207825
0.0184552
0.0405231
0.0521075
0.0606424
0.067801
0.0741943
0.0801356
0.0858206
0.0913877
0.0969421
0.102563
0.108318
0.114271
0.120483
0.127017
0.133948
0.141376
0.149432
0.158291
0.16818
0.179391
0.192288
0.207326
0.018008
0.0396453
0.0510042
0.0593494
0.0663178
0.0725131
0.0782497
0.0837275
0.0890894
0.0944474
0.0998928
0.105501
0.111342
0.117488
0.124013
0.130998
0.138549
0.146797
0.155918
0.166137
0.177736
0.191063
0.206537
0.0176417
0.0389217
0.050083
0.0582529
0.0650393
0.0710422
0.0765786
0.0818525
0.0870124
0.0921753
0.0974407
0.102894
0.108614
0.114679
0.121173
0.128189
0.135834
0.144244
0.15359
0.16409
0.17601
0.189668
0.205431
0.0173611
0.038363
0.0493556
0.057364
0.0639759
0.069791
0.0751301
0.0802022
0.0851612
0.0901297
0.0952122
0.100504
0.106092
0.112062
0.118506
0.125525
0.133236
0.141774
0.151306
0.162037
0.174209
0.1881
0.204015
0.0171672
0.0379729
0.0488264
0.0566871
0.0631315
0.0687623
0.0739059
0.078777
0.0835348
0.0883071
0.0932041
0.0983262
0.10377
0.10963
0.116004
0.123001
0.130745
0.139374
0.14905
0.159962
0.172323
0.186366
0.202324
0.0170576
0.0377494
0.0484937
0.0562204
0.062504
0.0679537
0.0729029
0.0775725
0.082127
0.0866996
0.0914052
0.0963496
0.101636
0.107366
0.113648
0.120595
0.128336
0.137017
0.146794
0.157839
0.170336
0.184468
0.200398
0.0170283
0.0376858
0.0483504
0.0559572
0.0620871
0.0673588
0.0721143
0.076581
0.080929
0.0852963
0.0898024
0.094558
0.0996703
0.10525
0.111411
0.118276
0.125977
0.134663
0.144493
0.155625
0.168212
0.182393
0.198261
0.0170737
0.0377722
0.0483863
0.0558878
0.0618715
0.0669689
0.0715313
0.0757933
0.0799305
0.0840852
0.0883815
0.0929339
0.0978543
0.103257
0.109266
0.116008
0.123625
0.132266
0.142092
0.15326
0.165898
0.180102
0.195903
0.017187
0.0379972
0.0485897
0.0560012
0.0618476
0.066775
0.0711453
0.0752006
0.0791219
0.0830558
0.0871299
0.0914622
0.0961681
0.101366
0.107183
0.113757
0.121233
0.12977
0.13953
0.15067
0.163314
0.17752
0.193269
0.0173621
0.0383509
0.0489505
0.0562886
0.0620075
0.0667704
0.0709503
0.0747971
0.0784972
0.0822011
0.0860393
0.0901323
0.0945981
0.0995582
0.105143
0.111493
0.118766
0.127125
0.136742
0.147778
0.160363
0.17454
0.19025
0.0175945
0.0388273
0.0494638
0.056746
0.0623487
0.0669534
0.0709452
0.074582
0.0780556
0.0815201
0.0851081
0.0889414
0.0931393
0.0978249
0.10313
0.1092
0.116196
0.124292
0.133671
0.144507
0.15694
0.171033
0.186697
0.017884
0.0394283
0.0501335
0.057379
0.0628774
0.0673308
0.0711371
0.0745626
0.0778045
0.0810201
0.0843435
0.0878967
0.0917986
0.0961718
0.101148
0.106876
0.113517
0.121255
0.130284
0.140799
0.152963
0.166865
0.182434
0.0182381
0.0401694
0.0509786
0.0582076
0.0636135
0.0679217
0.0715442
0.0747565
0.0777612
0.0807185
0.0837634
0.0870172
0.0905963
0.0946206
0.0992196
0.104539
0.110745
0.118024
0.126582
0.13663
0.14837
0.161927
0.177293
0.0186752
0.0410868
0.0520405
0.0592735
0.0645964
0.068762
0.0721994
0.0751943
0.0779551
0.0806447
0.0833983
0.0863351
0.0895676
0.0932101
0.0973864
0.102237
0.107925
0.114641
0.122599
0.13203
0.143159
0.156172
0.171143
0.0192303
0.042246
0.0533938
0.0606494
0.0658917
0.0699096
0.0731536
0.075922
0.0784297
0.0808417
0.0832922
0.085897
0.088763
0.0919966
0.0957126
0.100042
0.10514
0.111193
0.118419
0.127067
0.137394
0.14963
0.163925
0.019959
0.0437612
0.0551647
0.0624525
0.0676004
0.0714491
0.0744791
0.0770037
0.0792444
0.081367
0.0835034
0.085764
0.0882485
0.0910534
0.0942813
0.0980495
0.102499
0.107806
0.114183
0.121887
0.131204
0.142419
0.155756
0.020954
0.0458276
0.0575582
0.064861
0.0698663
0.0734959
0.0762708
0.0785217
0.0804747
0.0822938
0.0841056
0.086013
0.0881061
0.0904701
0.0931932
0.0963757
0.10014
0.10464
0.110077
0.116702
0.124817
0.134757
0.146835
0.0223808
0.0487888
0.0609021
0.0681309
0.0728792
0.0761934
0.078644
0.0805758
0.0822131
0.0837123
0.0851898
0.086738
0.0884353
0.0903536
0.0925655
0.0951523
0.0982134
0.101878
0.10632
0.111771
0.118534
0.126978
0.137506
0.0245716
0.053267
0.0656946
0.0725939
0.0768585
0.0796994
0.0817263
0.08328
0.0845688
0.0857313
0.0868674
0.0880544
0.0893563
0.0908305
0.0925333
0.0945264
0.0968852
0.0997095
0.103138
0.10737
0.112684
0.119464
0.128196
0.0282548
0.0603149
0.0725758
0.0785852
0.0819981
0.0841544
0.0856421
0.0867572
0.0876683
0.0884826
0.0892755
0.0901044
0.0910166
0.0920536
0.0932552
0.0946644
0.0963329
0.0983298
0.100755
0.10376
0.107577
0.112568
0.119278
0.0350101
0.0708155
0.0819526
0.0862284
0.0883643
0.0896399
0.0905005
0.0911404
0.0916621
0.0921294
0.0925867
0.093068
0.0936016
0.0942125
0.0949245
0.0957624
0.0967561
0.0979452
0.0993885
0.10118
0.103476
0.106553
0.110919
0.0461429
0.0818365
0.0932941
0.0951667
0.0958136
0.0961652
0.0964043
0.0965874
0.0967412
0.0968829
0.0970248
0.0971774
0.0973495
0.0975492
0.0977844
0.0980633
0.0983954
0.098793
0.0992745
0.0998699
0.100633
0.101668
0.10321
0.0826724
0.0805096
0.0861447
0.102288
0.141919
0.148206
0.157879
0.172345
0.168246
0.175534
0.185187
0.19876
0.19056
0.198335
0.207191
0.218814
0.216657
0.225462
0.231939
0.238067
0.255406
0.270092
0.268773
0.262428
0.267362
0.279394
0.292365
0.286573
0.25665
0.266283
0.278898
0.291799
0.251575
0.261352
0.274433
0.290846
0.244709
0.254356
0.26631
0.281103
0.237338
0.246461
0.257118
0.269558
0.230776
0.239209
0.248728
0.259299
0.225681
0.233515
0.242181
0.251567
0.222207
0.229651
0.237794
0.246518
0.220211
0.227534
0.235501
0.244028
0.219382
0.226843
0.234949
0.243657
0.219342
0.227136
0.235612
0.244758
0.219715
0.227947
0.236909
0.24661
0.220175
0.228856
0.238306
0.248547
0.220465
0.229533
0.239387
0.250053
0.220405
0.229751
0.239874
0.250794
0.219895
0.229392
0.239628
0.250617
0.218907
0.22843
0.238634
0.249524
0.217471
0.226915
0.236969
0.247627
0.215658
0.224948
0.23477
0.245107
0.21355
0.222645
0.232193
0.242169
0.211216
0.220107
0.229378
0.238995
0.208682
0.217389
0.226411
0.235709
0.205917
0.214478
0.223303
0.232348
0.20282
0.211282
0.219974
0.228846
0.199232
0.207639
0.216259
0.225038
0.194951
0.203329
0.211922
0.220676
0.189761
0.198106
0.20669
0.215453
0.183468
0.191738
0.200288
0.209057
0.175954
0.184063
0.192507
0.201225
0.167234
0.175047
0.183262
0.191821
0.157495
0.164844
0.172663
0.180911
0.147093
0.15381
0.161069
0.168835
0.136492
0.142436
0.149014
0.156199
0.126076
0.131142
0.136983
0.143624
0.115807
0.119748
0.124732
0.130989
0.105195
0.107076
0.110037
0.114977
0.170958
0.259127
0.38309
0.566218
0.838536
1.15819
1.33921
1.13671
0.752272
0.574805
0.494831
0.48442
0.465733
0.423815
0.38459
0.342112
0.288127
0.218969
0.102567
0.206943
0.291251
0.420222
0.569458
0.756867
0.978788
1.09508
0.930549
0.691602
0.56026
0.504833
0.501452
0.466159
0.425645
0.386764
0.3438
0.290822
0.223676
0.105856
0.229766
0.321912
0.471975
0.616729
0.744688
0.862836
0.900395
0.785052
0.637471
0.558964
0.531826
0.516122
0.473827
0.432975
0.390802
0.344149
0.290064
0.223871
0.1063
0.245398
0.332735
0.478038
0.631324
0.72672
0.791816
0.781573
0.686956
0.601806
0.581825
0.588194
0.541374
0.493368
0.44665
0.396942
0.344071
0.286191
0.218166
0.103117
0.253627
0.317037
0.43509
0.587509
0.68605
0.743492
0.709707
0.621514
0.589467
0.621882
0.641886
0.572136
0.518576
0.463897
0.404836
0.344202
0.280801
0.208402
0.096113
0.262994
0.299378
0.383719
0.512619
0.626949
0.684945
0.6493
0.580784
0.596809
0.692504
0.688426
0.601115
0.544869
0.483298
0.414845
0.346365
0.277458
0.199101
0.0883301
0.277057
0.292469
0.340753
0.424182
0.527907
0.593346
0.592103
0.560405
0.626012
0.759472
0.687729
0.624114
0.573167
0.506792
0.429628
0.355225
0.283223
0.19643
0.0834832
0.295006
0.298574
0.321737
0.366916
0.428838
0.488602
0.527344
0.568725
0.663286
0.775373
0.679616
0.650243
0.609946
0.539754
0.453315
0.370993
0.296929
0.202235
0.084663
0.313096
0.316408
0.323819
0.345155
0.380003
0.422412
0.469478
0.55128
0.668367
0.67924
0.682203
0.694068
0.6658
0.587522
0.485246
0.385569
0.300763
0.212798
0.0877336
0.308754
0.336575
0.340359
0.348358
0.368182
0.398731
0.441414
0.508406
0.597264
0.658475
0.725008
0.773919
0.75179
0.650211
0.521025
0.400943
0.298681
0.212363
0.0825118
0.29313
0.332326
0.357082
0.366105
0.378853
0.40445
0.44475
0.507389
0.598433
0.706574
0.825921
0.90178
0.869194
0.717415
0.559681
0.423559
0.307819
0.210023
0.0859311
0.278702
0.312454
0.349283
0.378351
0.400611
0.429663
0.477835
0.553342
0.669561
0.829046
1.00881
1.07506
0.97022
0.771521
0.593241
0.448028
0.325897
0.221235
0.0955985
0.268324
0.296212
0.329733
0.368139
0.410743
0.46094
0.539689
0.646382
0.801987
1.02777
1.23847
1.16293
0.984079
0.786395
0.607016
0.464107
0.343598
0.234941
0.107236
0.261919
0.286727
0.317494
0.356512
0.408213
0.479033
0.587362
0.738577
0.942153
1.14504
1.19232
1.09776
0.93877
0.753862
0.594763
0.469078
0.35638
0.247389
0.12027
0.259107
0.283268
0.313981
0.355562
0.416618
0.513158
0.663266
0.841435
1.00605
1.08811
1.0889
1.01983
0.882179
0.732248
0.596159
0.485347
0.374767
0.264201
0.135413
0.259182
0.284351
0.316966
0.362518
0.4311
0.538935
0.697764
0.863069
0.974694
1.01552
1.02061
0.980841
0.871167
0.740432
0.624517
0.519301
0.406516
0.291562
0.15171
0.261196
0.288219
0.323447
0.372564
0.444823
0.552101
0.695837
0.831975
0.914612
0.944228
0.953289
0.928685
0.846184
0.738245
0.656126
0.563219
0.445865
0.324778
0.16789
0.264136
0.29315
0.330676
0.381765
0.453526
0.552716
0.674579
0.784024
0.849579
0.875073
0.883705
0.866427
0.809746
0.742095
0.682021
0.599724
0.484332
0.35787
0.182983
0.267082
0.297711
0.33662
0.387779
0.455864
0.543517
0.643778
0.731989
0.786303
0.810853
0.82247
0.81755
0.790006
0.752709
0.713225
0.638315
0.516681
0.386294
0.197028
0.269334
0.300914
0.340096
0.389685
0.452306
0.528044
0.609809
0.680957
0.727345
0.752705
0.770049
0.779708
0.777581
0.766177
0.74651
0.673884
0.543748
0.407506
0.20779
0.270467
0.302246
0.340664
0.387502
0.443914
0.508658
0.575554
0.633376
0.673705
0.700443
0.723842
0.745934
0.763213
0.772682
0.771998
0.702749
0.565668
0.422957
0.214279
0.270317
0.301595
0.33842
0.381774
0.431871
0.486946
0.54201
0.589663
0.62543
0.653352
0.681588
0.71252
0.742902
0.768137
0.786998
0.726894
0.584444
0.434228
0.21731
0.268925
0.299143
0.333801
0.373306
0.41735
0.464121
0.509823
0.549778
0.582087
0.610762
0.642323
0.678891
0.717551
0.75405
0.786536
0.74518
0.602498
0.442707
0.217524
0.266481
0.295259
0.327425
0.363009
0.401465
0.441203
0.479507
0.513628
0.54329
0.572343
0.606059
0.646198
0.690118
0.733441
0.770255
0.749243
0.619886
0.449836
0.215745
0.26326
0.290398
0.319975
0.351788
0.385241
0.419082
0.451524
0.481186
0.508791
0.537953
0.57301
0.615384
0.662462
0.709092
0.745669
0.734111
0.629102
0.456711
0.213643
0.259555
0.285021
0.3121
0.340462
0.369561
0.398514
0.426297
0.452503
0.478453
0.50749
0.543227
0.586713
0.635056
0.682034
0.716106
0.70859
0.623708
0.460693
0.212691
0.255633
0.279534
0.304351
0.329697
0.355123
0.380088
0.404173
0.427651
0.452188
0.480843
0.5166
0.56005
0.60787
0.653107
0.684155
0.678355
0.608886
0.457544
0.210787
0.251684
0.274236
0.297134
0.31997
0.342407
0.364194
0.385366
0.406656
0.429905
0.457878
0.492966
0.535204
0.580848
0.622874
0.64992
0.644524
0.587422
0.446973
0.204764
0.247796
0.26929
0.290676
0.311547
0.331663
0.351001
0.369918
0.389439
0.411457
0.438424
0.472178
0.512201
0.55441
0.591821
0.613858
0.607583
0.559512
0.433728
0.200079
0.24393
0.264701
0.285021
0.304479
0.322912
0.340456
0.357683
0.375774
0.396581
0.422238
0.45408
0.491123
0.529137
0.561319
0.578591
0.571057
0.528884
0.420163
0.198407
0.239927
0.260319
0.280021
0.298607
0.315954
0.332297
0.348325
0.365272
0.384878
0.408954
0.438401
0.471911
0.505326
0.532522
0.546265
0.53857
0.500489
0.405151
0.198412
0.235513
0.255844
0.275355
0.293577
0.31039
0.326067
0.34133
0.357384
0.375794
0.398056
0.424698
0.454193
0.482639
0.505048
0.516032
0.509512
0.478915
0.386981
0.186133
0.230335
0.250864
0.270551
0.288863
0.30564
0.321131
0.336022
0.351415
0.368655
0.388921
0.412422
0.437485
0.460538
0.477811
0.485503
0.480855
0.457915
0.367865
0.170719
0.224009
0.244897
0.265038
0.283811
0.300977
0.316708
0.331589
0.346557
0.362709
0.380905
0.401092
0.421537
0.439046
0.450699
0.455072
0.452399
0.434782
0.352637
0.161359
0.216187
0.237465
0.258214
0.277705
0.295585
0.311908
0.327108
0.341921
0.357171
0.373412
0.390381
0.406404
0.418565
0.424861
0.426043
0.422906
0.406702
0.337409
0.159695
0.206636
0.228188
0.249545
0.269862
0.28865
0.305811
0.321605
0.336544
0.35119
0.365814
0.379962
0.391964
0.399315
0.401102
0.398301
0.391227
0.372647
0.324455
0.17005
0.195342
0.216905
0.238707
0.259788
0.27951
0.297605
0.314146
0.329429
0.343774
0.357217
0.369083
0.377704
0.381103
0.378863
0.371831
0.36031
0.340512
0.301707
0.173729
0.182617
0.203833
0.225772
0.247384
0.267887
0.286831
0.304089
0.319752
0.333927
0.346455
0.356541
0.362561
0.362726
0.356611
0.345477
0.33023
0.309281
0.273599
0.161866
0.169161
0.189721
0.211428
0.233212
0.254185
0.273723
0.291491
0.307365
0.321257
0.332854
0.341306
0.345019
0.342012
0.331584
0.31603
0.297079
0.274059
0.239061
0.141461
0.155964
0.175931
0.19715
0.218731
0.239793
0.259575
0.277537
0.29334
0.306701
0.317162
0.323797
0.324829
0.317426
0.300197
0.278875
0.255761
0.230317
0.196481
0.116683
0.143658
0.16427
0.185133
0.206285
0.227113
0.24681
0.264675
0.280167
0.292808
0.30197
0.306527
0.304059
0.289172
0.25553
0.226034
0.199829
0.174563
0.146216
0.0898889
0.128874
0.156618
0.177852
0.198614
0.219073
0.238507
0.256143
0.271321
0.283425
0.291639
0.294425
0.287926
0.260451
0.170696
0.14161
0.127716
0.116912
0.105841
0.0862264
)
;

boundaryField
{
    leftWall
    {
        type            kqRWallFunction;
        value           nonuniform List<scalar> 
50
(
0.00377784
0.00594772
0.00688432
0.00715275
0.00704579
0.00700195
0.00710064
0.00757392
0.00996117
0.014967
0.0199909
0.0229949
0.0236474
0.0239481
0.0239654
0.0239993
0.0239616
0.0238397
0.0236354
0.0233537
0.0229951
0.0225456
0.0220151
0.0214248
0.0208001
0.020167
0.0195506
0.0189738
0.0184552
0.018008
0.0176417
0.0173611
0.0171672
0.0170576
0.0170283
0.0170737
0.017187
0.0173621
0.0175945
0.017884
0.0182381
0.0186752
0.0192303
0.019959
0.020954
0.0223808
0.0245716
0.0282548
0.0350101
0.0461429
)
;
    }
    rightWall
    {
        type            kqRWallFunction;
        value           nonuniform List<scalar> 
50
(
0.0308051
0.0527693
0.0683732
0.0783848
0.0855818
0.0911894
0.0957356
0.0994303
0.102567
0.105856
0.1063
0.103117
0.096113
0.0883301
0.0834832
0.084663
0.0877336
0.0825118
0.0859311
0.0955985
0.107236
0.12027
0.135413
0.15171
0.16789
0.182983
0.197028
0.20779
0.214279
0.21731
0.217524
0.215745
0.213643
0.212691
0.210787
0.204764
0.200079
0.198407
0.198412
0.186133
0.170719
0.161359
0.159695
0.17005
0.173729
0.161866
0.141461
0.116683
0.0898889
0.0862264
)
;
    }
    lowerWall
    {
        type            kqRWallFunction;
        value           nonuniform List<scalar> 
62
(
0.00377784
0.00606042
0.00858284
0.0108124
0.0126463
0.0141981
0.0155847
0.0168852
0.0181334
0.0193092
0.0203864
0.0213267
0.0220821
0.0225978
0.0228059
0.0226275
0.0219842
0.0208092
0.0190899
0.0169283
0.0145732
0.0121063
0.0084461
0.0084461
0.0155748
0.0202764
0.0250474
0.0305615
0.0381774
0.0505937
0.0717201
0.0826724
0.0805096
0.0861447
0.102288
0.25239
0.522708
0.597669
0.536031
0.469858
0.380702
0.273152
0.174672
0.25239
0.428743
0.518734
0.488639
0.37515
0.259961
0.196457
0.167379
0.155325
0.151477
0.151397
0.153223
0.155429
0.155097
0.147224
0.129538
0.104529
0.0707473
0.0308051
)
;
    }
    atmosphere
    {
        type            inletOutlet;
        inletValue      uniform 0.1;
        value           nonuniform List<scalar> 
46
(
0.0461429
0.0818365
0.1
0.1
0.1
0.1
0.1
0.1
0.1
0.1
0.1
0.1
0.1
0.1
0.1
0.1
0.1
0.1
0.1
0.1
0.1
0.1
0.1
0.1
0.1
0.1
0.1
0.1
0.156618
0.177852
0.198614
0.219073
0.238507
0.256143
0.271321
0.283425
0.291639
0.294425
0.287926
0.260451
0.1
0.1
0.1
0.1
0.1
0.1
)
;
    }
    defaultFaces
    {
        type            empty;
    }
}


// ************************************************************************* //
