/*--------------------------------*- C++ -*----------------------------------*\
| =========                 |                                                 |
| \\      /  F ield         | OpenFOAM: The Open Source CFD Toolbox           |
|  \\    /   O peration     | Version:  v1606+                                |
|   \\  /    A nd           | Web:      www.OpenFOAM.com                      |
|    \\/     M anipulation  |                                                 |
\*---------------------------------------------------------------------------*/
FoamFile
{
    version     2.0;
    format      ascii;
    class       volScalarField;
    location    "0.7";
    object      alpha.particles;
}
// * * * * * * * * * * * * * * * * * * * * * * * * * * * * * * * * * * * * * //

dimensions      [0 0 0 0 0 0 0];

internalField   nonuniform List<scalar> 
6000
(
0.4057
0.405734
0.405766
0.405779
0.405783
0.405784
0.405784
0.405784
0.405785
0.405785
0.40438
0.406851
0.406896
0.40693
0.406965
0.406959
0.406912
0.406895
0.406727
0.406539
0.406545
0.406544
0.406534
0.406517
0.406455
0.406404
0.406377
0.40637
0.406353
0.406314
0.367308
0.373922
0.366955
0.366129
0.366245
0.371337
0.380913
0.395629
0.405784
0.405573
0.404068
0.404683
0.406867
0.406967
0.406959
0.406975
0.406954
0.406858
0.403638
0.403626
0.406279
0.40633
0.393964
0.37982
0.371163
0.366898
0.36663
0.365939
0.373197
0.366659
0.30838
0.312817
0.303553
0.299896
0.298056
0.300519
0.309054
0.335233
0.380675
0.406898
0.40694
0.406975
0.407012
0.407003
0.407044
0.406966
0.406926
0.406947
0.406916
0.406923
0.406867
0.372559
0.330086
0.306764
0.299962
0.298469
0.300478
0.302657
0.31064
0.306343
0.290738
0.290598
0.285335
0.285068
0.285283
0.284998
0.285279
0.284995
0.312715
0.385067
0.406899
0.406939
0.369312
0.351714
0.339518
0.337969
0.344752
0.372055
0.406922
0.406868
0.378691
0.304638
0.283768
0.284081
0.283787
0.284093
0.283921
0.284157
0.287469
0.287613
0.334235
0.351833
0.329395
0.315938
0.30232
0.285954
0.285016
0.285282
0.285128
0.329277
0.393738
0.355563
0.294617
0.287637
0.286405
0.282025
0.281844
0.294848
0.371624
0.398598
0.322014
0.283859
0.284085
0.283802
0.287381
0.304755
0.317534
0.327898
0.346161
0.329473
0.430166
0.464672
0.416643
0.389259
0.360662
0.323945
0.295629
0.285055
0.285323
0.295906
0.323051
0.285311
0.282419
0.282358
0.282249
0.279702
0.279656
0.279686
0.296058
0.33089
0.292418
0.284127
0.283859
0.297087
0.329078
0.366564
0.392655
0.414256
0.458139
0.424416
0.51868
0.533028
0.507366
0.479761
0.442985
0.399784
0.346695
0.305281
0.286532
0.282972
0.282469
0.282422
0.282353
0.295708
0.313531
0.298408
0.279704
0.27966
0.279708
0.28457
0.28267
0.285557
0.306418
0.351956
0.406595
0.448886
0.481967
0.504648
0.530567
0.515536
0.541255
0.541255
0.541241
0.530951
0.507863
0.475722
0.424329
0.363862
0.308039
0.28309
0.282528
0.282379
0.28767
0.344258
0.380495
0.355954
0.304002
0.279708
0.279726
0.279767
0.282468
0.309115
0.368348
0.431868
0.480914
0.511086
0.5312
0.539937
0.539943
0.539949
0.541271
0.541273
0.54126
0.541252
0.534256
0.515373
0.48437
0.443133
0.362892
0.291707
0.282429
0.282525
0.329845
0.415809
0.452005
0.430762
0.371163
0.289037
0.279767
0.279799
0.291898
0.366489
0.447559
0.490976
0.518818
0.535219
0.539947
0.539948
0.53997
0.53996
0.54124
0.541257
0.541266
0.541249
0.541223
0.530672
0.511787
0.504557
0.441848
0.315909
0.282535
0.304924
0.417004
0.479652
0.504418
0.493102
0.461732
0.343849
0.282098
0.280608
0.319108
0.445391
0.505415
0.517154
0.53327
0.539937
0.539934
0.539958
0.539946
0.539942
0.398357
0.461874
0.531297
0.54122
0.541234
0.541161
0.533934
0.533809
0.497497
0.367155
0.310024
0.378636
0.49873
0.523184
0.530419
0.53029
0.518944
0.442627
0.325324
0.309253
0.372864
0.498532
0.534321
0.536564
0.539893
0.539919
0.539894
0.516561
0.446058
0.38331
0.232397
0.273702
0.352278
0.477254
0.541156
0.541201
0.541159
0.541165
0.515935
0.438137
0.389737
0.466051
0.530382
0.530431
0.530411
0.530425
0.530405
0.521732
0.414016
0.386934
0.44025
0.51527
0.539848
0.539875
0.539899
0.539822
0.442759
0.327813
0.260214
0.229051
0.223903
0.223903
0.241266
0.323364
0.459566
0.541082
0.541129
0.521455
0.492677
0.4882
0.478319
0.480296
0.481668
0.530373
0.530423
0.530396
0.530378
0.49765
0.475385
0.467029
0.478151
0.482131
0.510125
0.539811
0.539771
0.41609
0.298681
0.238658
0.222637
0.222637
0.223903
0.228682
0.256928
0.302597
0.365686
0.44083
0.418642
0.340257
0.341795
0.418166
0.424372
0.362154
0.275371
0.35206
0.480581
0.442074
0.343307
0.318529
0.387738
0.412136
0.399976
0.315278
0.312586
0.389724
0.400423
0.344732
0.301803
0.264018
0.236987
0.225095
0.236323
0.25698
0.294727
0.335686
0.368045
0.359676
0.280056
0.16948
0.146537
0.200466
0.212215
0.152606
0.150277
0.248326
0.345263
0.316116
0.21848
0.150078
0.176993
0.209469
0.188457
0.13001
0.139088
0.220806
0.31645
0.354731
0.344209
0.314546
0.282024
0.263714
0.278327
0.300797
0.333494
0.363263
0.381408
0.36126
0.256529
0.123148
0.0739614
0.076302
0.0793174
0.0821601
0.135594
0.242529
0.3284
0.319078
0.223087
0.11202
0.0732998
0.0793874
0.075479
0.0715386
0.0998811
0.184838
0.303046
0.375525
0.38603
0.366821
0.341895
0.329474
0.33493
0.35105
0.373627
0.386277
0.384853
0.344121
0.234845
0.113186
0.0630604
0.0575955
0.0576606
0.0764787
0.137458
0.236372
0.32355
0.330362
0.239645
0.110183
0.0585421
0.0586796
0.0587381
0.0654164
0.101504
0.190399
0.315115
0.410169
0.432529
0.422685
0.405213
0.398938
0.399759
0.405379
0.415852
0.409637
0.387042
0.31305
0.205635
0.107482
0.0622978
0.0576208
0.0576269
0.077174
0.139232
0.232877
0.321742
0.341794
0.248515
0.106486
0.0586854
0.0585883
0.0587001
0.0695897
0.120883
0.234042
0.371706
0.467005
0.489119
0.477162
0.463216
0.462316
0.473087
0.466081
0.471762
0.452612
0.403984
0.298316
0.189087
0.10508
0.0629122
0.0576247
0.0576216
0.0790956
0.144873
0.239096
0.324495
0.350013
0.251314
0.0991818
0.0586013
0.0586974
0.0602362
0.0855639
0.164611
0.296356
0.427991
0.492198
0.506531
0.508206
0.502988
0.503917
0.526158
0.517205
0.517389
0.512769
0.495024
0.381577
0.213694
0.112655
0.0658985
0.0576232
0.0585697
0.0849309
0.156157
0.251453
0.333091
0.351469
0.251393
0.0937517
0.0587011
0.0586903
0.0690284
0.119696
0.21894
0.334931
0.444383
0.502024
0.511707
0.516154
0.517628
0.520924
0.547955
0.542271
0.539582
0.534206
0.527483
0.494207
0.325448
0.164055
0.084278
0.0633913
0.0653602
0.0963088
0.171834
0.26712
0.344005
0.351482
0.237101
0.0923658
0.0620834
0.0635328
0.0918991
0.170136
0.275004
0.389275
0.482
0.509383
0.515665
0.520592
0.524162
0.527879
0.555974
0.553049
0.55115
0.548395
0.543293
0.524943
0.448307
0.297891
0.152486
0.0935645
0.0878048
0.118749
0.192447
0.282253
0.350744
0.3514
0.210193
0.0973012
0.0733216
0.0836094
0.13338
0.228121
0.343335
0.453896
0.510952
0.523221
0.528563
0.531781
0.533913
0.535602
0.56143
0.560303
0.559939
0.559626
0.558305
0.55388
0.531415
0.449059
0.308917
0.18758
0.145578
0.167414
0.227064
0.303081
0.35385
0.342269
0.189022
0.11182
0.0974429
0.121941
0.187247
0.291189
0.408611
0.496414
0.528937
0.539565
0.545134
0.547041
0.547256
0.546973
0.564732
0.564234
0.564225
0.564212
0.564197
0.564169
0.562793
0.545056
0.480213
0.359949
0.275836
0.265695
0.296563
0.341754
0.354303
0.310163
0.185376
0.13521
0.134577
0.170232
0.24548
0.353017
0.463008
0.523716
0.542172
0.549961
0.553715
0.555595
0.555738
0.55579
0.564739
0.564168
0.563758
0.563584
0.563584
0.564139
0.564125
0.564058
0.556446
0.516863
0.447176
0.399557
0.398784
0.40506
0.360882
0.286985
0.191734
0.166354
0.179343
0.22253
0.304692
0.414402
0.50615
0.538932
0.54526
0.548559
0.54915
0.552403
0.555076
0.556585
0.563452
0.560359
0.556427
0.549154
0.542417
0.544215
0.551191
0.563995
0.564001
0.562504
0.539784
0.500936
0.480707
0.47963
0.398357
0.294994
0.21499
0.208274
0.22743
0.278299
0.364028
0.466392
0.526224
0.535973
0.535338
0.53245
0.526609
0.528978
0.537215
0.552941
0.558038
0.550002
0.535521
0.508148
0.491814
0.485389
0.485009
0.535046
0.561062
0.562581
0.562469
0.544047
0.525947
0.5266
0.449343
0.335059
0.265447
0.263877
0.286381
0.340127
0.419417
0.495763
0.525552
0.525052
0.516149
0.505677
0.498846
0.492034
0.484766
0.534831
0.548787
0.530372
0.498288
0.458791
0.452082
0.43868
0.426991
0.469858
0.534345
0.561598
0.563998
0.560886
0.550699
0.531263
0.463291
0.393772
0.340337
0.334833
0.357831
0.406692
0.466391
0.509175
0.521941
0.511381
0.481503
0.458316
0.470515
0.465363
0.465244
0.507788
0.534807
0.500727
0.458483
0.430041
0.434515
0.42707
0.427147
0.427529
0.498005
0.548104
0.564044
0.565621
0.558771
0.521899
0.468551
0.430463
0.412645
0.408249
0.429228
0.465528
0.499653
0.515256
0.512701
0.485197
0.446786
0.44526
0.447416
0.454139
0.472796
0.496815
0.52282
0.495516
0.447113
0.427578
0.427481
0.427178
0.42707
0.427259
0.491075
0.535042
0.560323
0.566179
0.562907
0.526598
0.469027
0.43056
0.444718
0.458176
0.480084
0.503633
0.519718
0.520868
0.507988
0.472915
0.445261
0.445261
0.447505
0.465242
0.504573
0.517973
0.53316
0.518346
0.465635
0.435607
0.434067
0.432052
0.438077
0.471608
0.515785
0.537912
0.558479
0.566203
0.565882
0.540857
0.472757
0.430698
0.440327
0.476761
0.498046
0.518217
0.529282
0.529863
0.519363
0.495121
0.473354
0.461208
0.464946
0.496348
0.529501
0.529508
0.533123
0.533109
0.50777
0.464035
0.460016
0.463178
0.491496
0.536181
0.544265
0.550725
0.561535
0.566619
0.56662
0.554551
0.497534
0.435912
0.450458
0.493992
0.505464
0.52477
0.529878
0.529864
0.529865
0.529849
0.527617
0.509346
0.504845
0.529471
0.529488
0.529495
0.39452
0.400069
0.456083
0.467865
0.473195
0.473696
0.477519
0.465227
0.437932
0.531164
0.555889
0.566662
0.566634
0.561989
0.52137
0.453182
0.499157
0.526549
0.52619
0.526683
0.527683
0.509755
0.489847
0.479489
0.468175
0.458729
0.449954
0.447212
0.452157
0.483402
0.107654
0.10867
0.181989
0.270156
0.299784
0.285601
0.2462
0.179969
0.160491
0.323492
0.513348
0.565585
0.566721
0.565824
0.532765
0.462948
0.498785
0.457204
0.384932
0.349059
0.291949
0.233213
0.206104
0.205513
0.194999
0.198734
0.191938
0.170376
0.155661
0.165721
0.0457008
0.0353318
0.0387302
0.0563918
0.0666889
0.0638852
0.0562421
0.0486539
0.0594394
0.179824
0.446827
0.555485
0.566618
0.566646
0.543375
0.4683
0.35351
0.166642
0.115822
0.0957886
0.0753032
0.0602195
0.051824
0.0475088
0.0430537
0.042662
0.0413853
0.0381022
0.0397848
0.0490286
0.0425459
0.0310636
0.0257241
0.0255322
0.0262428
0.0280317
0.0314883
0.0369655
0.0510797
0.140223
0.405427
0.547524
0.566746
0.566583
0.544705
0.419331
0.173363
0.0834053
0.0586006
0.0529928
0.0493919
0.0447729
0.0387942
0.0326969
0.0280742
0.0259836
0.0255636
0.0256474
0.0308945
0.0411455
0.0413385
0.0304671
0.0253816
0.0253386
0.0253331
0.0274373
0.0328591
0.0403223
0.051709
0.111148
0.365272
0.54065
0.566573
0.566709
0.542318
0.365265
0.151738
0.0849637
0.0594454
0.0548669
0.0522905
0.0481153
0.042068
0.0352346
0.029322
0.0260924
0.0255148
0.0254995
0.0302646
0.0399123
0.0398923
0.029886
0.0253374
0.0253331
0.0254448
0.0287037
0.0361791
0.045396
0.0548577
0.0874788
0.30597
0.533658
0.563446
0.566536
0.547134
0.35305
0.163717
0.0941427
0.0624256
0.0580449
0.0560943
0.0523952
0.0467491
0.0395588
0.0321094
0.0270252
0.0255079
0.0255021
0.0297655
0.0387832
0.0380423
0.0292824
0.0253388
0.0253396
0.0261838
0.0311219
0.0402444
0.0504634
0.0588796
0.0723027
0.207109
0.505719
0.549698
0.566615
0.558092
0.437224
0.196051
0.0999463
0.0650448
0.0612139
0.0594859
0.0562597
0.0512734
0.0443239
0.0358084
0.028668
0.025554
0.0254928
0.029232
0.0375204
0.0360564
0.0286204
0.0253444
0.025339
0.0277163
0.0346769
0.0451598
0.055533
0.0630276
0.0678097
0.110883
0.368871
0.535332
0.564358
0.56436
0.525962
0.267363
0.112486
0.06859
0.0647353
0.063077
0.0601312
0.0557384
0.0493791
0.0402505
0.0310844
0.0260063
0.0255036
0.0286549
0.036042
0.0340222
0.0280361
0.0253482
0.0258675
0.0302372
0.0394969
0.051003
0.0604878
0.0667272
0.0702169
0.0767251
0.184752
0.496093
0.548377
0.564261
0.550637
0.404143
0.137491
0.0732488
0.0687989
0.0670851
0.0641009
0.060019
0.0542838
0.0450012
0.0342219
0.027025
0.0255033
0.0280263
0.0343582
0.0319909
0.0275843
0.0255557
0.0271466
0.033804
0.0453911
0.0573847
0.0653045
0.0700253
0.0728704
0.0734899
0.0937882
0.272411
0.519425
0.564029
0.556769
0.497657
0.165366
0.0789301
0.0737609
0.0714383
0.0681402
0.0638605
0.0582576
0.049085
0.0375497
0.0284276
0.0255101
0.0273476
0.0325011
0.0299362
0.0271949
0.0260909
0.0289827
0.0380698
0.0517067
0.063628
0.0698527
0.0732275
0.0755224
0.0768187
0.0805755
0.134354
0.406367
0.554112
0.556683
0.516303
0.178998
0.084527
0.0793003
0.0765559
0.0723369
0.0670605
0.0607119
0.0515743
0.0403003
0.0299609
0.0255028
0.0265218
0.0304664
0.0279148
0.0267349
0.0267148
0.0310247
0.0423205
0.0575173
0.0691837
0.0742129
0.0767994
0.0789066
0.0807148
0.0835047
0.102088
0.264382
0.535393
0.556615
0.506648
0.17354
0.0891386
0.0855008
0.0825344
0.0768958
0.0696188
0.0616759
0.0523958
0.0419492
0.0313975
0.0254844
0.0254453
0.0283222
0.0260892
0.0262199
0.0272589
0.0329413
0.0457555
0.061794
0.0735362
0.0784456
0.0809712
0.0833365
0.0853723
0.0884743
0.0992607
0.204645
0.465167
0.550487
0.434583
0.144304
0.0936242
0.0924283
0.0896848
0.0818034
0.0717474
0.0617791
0.0523638
0.0425073
0.0325751
0.0254905
0.0241611
0.026162
0.0247744
0.0259008
0.027724
0.0343996
0.0478689
0.0639448
0.0762504
0.0824841
0.0859033
0.0889518
0.0911691
0.0942344
0.103563
0.188118
0.4228
0.531826
0.368485
0.135891
0.100651
0.0997448
0.0978246
0.0874597
0.0736214
0.0611424
0.0513159
0.0424422
0.0332519
0.0256629
0.0229791
0.0240465
0.0243569
0.025824
0.0280742
0.0353353
0.0487372
0.0644376
0.077287
0.0860826
0.0915756
0.0957336
0.0980227
0.100921
0.109356
0.182037
0.407735
0.511688
0.344436
0.145731
0.107952
0.107546
0.106765
0.0941169
0.075541
0.0599187
0.0490621
0.0413888
0.0334388
0.0260107
0.0221741
0.0221081
0.0243711
0.0259209
0.0283493
0.0358898
0.0488807
0.0638918
0.0773057
0.0888804
0.097536
0.103643
0.106149
0.108789
0.116331
0.17761
0.399377
0.503876
0.342701
0.154835
0.115893
0.11584
0.115953
0.101652
0.0780064
0.058892
0.0463749
0.03915
0.0331715
0.0264029
0.021823
0.0205358
0.0243805
0.0261463
0.0286326
0.0362135
0.0483926
0.0617348
0.0757256
0.0902265
0.103319
0.112378
0.115325
0.117621
0.12426
0.174665
0.381848
0.505984
0.344526
0.163482
0.124489
0.123983
0.124734
0.109461
0.0814452
0.0585612
0.0443723
0.0366033
0.0321802
0.0266357
0.0217686
0.0194779
0.0243957
0.026354
0.0290278
0.0363775
0.046879
0.0579059
0.072238
0.0902573
0.108363
0.121426
0.12554
0.127134
0.133128
0.17388
0.36294
0.505921
0.353416
0.176055
0.133651
0.131948
0.132992
0.116707
0.0859729
0.0595979
0.0435868
0.0347737
0.0306193
0.0266975
0.0220567
0.018912
0.0243976
0.0264301
0.0296063
0.0364096
0.0443891
0.0536027
0.0681594
0.0889886
0.112261
0.130454
0.136613
0.137288
0.142641
0.180758
0.342854
0.48286
0.36195
0.194679
0.143604
0.140134
0.140959
0.123544
0.0913791
0.0624241
0.0435823
0.0340293
0.0292717
0.0266018
0.0228334
0.0186919
0.0244224
0.0264175
0.0301931
0.0360126
0.0417664
0.0503333
0.0651115
0.0874946
0.115273
0.138929
0.147709
0.148072
0.153465
0.193511
0.333583
0.446965
0.365476
0.214912
0.154564
0.148537
0.149181
0.131178
0.0978351
0.0670966
0.0451524
0.033959
0.0285873
0.0261963
0.023703
0.0186262
0.0247335
0.0264051
0.0304842
0.0350255
0.0399429
0.048751
0.0636976
0.086852
0.11782
0.146438
0.158599
0.159309
0.165056
0.205045
0.329212
0.423861
0.358457
0.228151
0.16657
0.157791
0.157949
0.140054
0.106086
0.0735929
0.0489441
0.0347788
0.0284058
0.0255267
0.0241435
0.0185866
0.0253647
0.0264783
0.0304967
0.0339509
0.0391814
0.0483806
0.0633984
0.087323
0.120412
0.152919
0.169259
0.171095
0.177702
0.219451
0.32576
0.393782
0.348701
0.242032
0.180164
0.168123
0.166797
0.149598
0.116056
0.0817822
0.0546708
0.0370742
0.0285745
0.0249981
0.0241985
0.0185053
0.0261017
0.026639
0.0301832
0.0332948
0.0390684
0.0486617
0.0642194
0.0893015
0.123568
0.158953
0.180157
0.184005
0.192092
0.233563
0.323083
0.373368
0.338589
0.251601
0.193887
0.178896
0.175248
0.159313
0.127054
0.0915149
0.062095
0.0411952
0.029596
0.0248299
0.023773
0.0184808
0.0267347
0.0268303
0.0296068
0.0330837
0.0394949
0.0500085
0.0669253
0.0931734
0.128204
0.165594
0.191139
0.198615
0.209271
0.251029
0.32334
0.353863
0.32773
0.259205
0.20613
0.189241
0.183853
0.169585
0.139054
0.102755
0.0711376
0.0472434
0.0321957
0.0251627
0.0229843
0.0184549
0.0270492
0.0271107
0.0292649
0.0332353
0.0408146
0.0529756
0.0716568
0.0990269
0.134809
0.173955
0.202815
0.214893
0.228848
0.267564
0.323048
0.340433
0.319495
0.266253
0.218916
0.199868
0.194106
0.18131
0.152201
0.115369
0.0815806
0.0548146
0.036518
0.0265478
0.0225885
0.0184512
0.027066
0.0277646
0.0294232
0.0343019
0.0436526
0.0578684
0.0783085
0.106745
0.143039
0.18409
0.21756
0.233561
0.249798
0.284827
0.324076
0.330192
0.313058
0.273994
0.235194
0.214972
0.20708
0.194673
0.16673
0.129651
0.0933673
0.0635006
0.0421519
0.0291919
0.0227895
0.018472
0.0270874
0.0290424
0.0307006
0.0370967
0.0484094
0.0646466
0.0868227
0.116292
0.153148
0.195999
0.234563
0.254695
0.271784
0.301461
0.326608
0.325222
0.310173
0.282722
0.253005
0.234096
0.223502
0.20979
0.182857
0.145717
0.106605
0.0732992
0.0487378
0.0329043
0.023706
0.0184898
0.0271173
0.0309856
0.0338517
0.0419488
0.0550766
0.0732529
0.0973197
0.128
0.165813
0.210772
0.253046
0.277154
0.294315
0.317538
0.331022
0.323841
0.310666
0.293789
0.272376
0.255544
0.243988
0.228318
0.200617
0.162417
0.120808
0.0839397
0.0560684
0.0374381
0.0256168
0.0184993
0.0271349
0.0336346
0.0387616
0.0486128
0.0636226
0.0841375
0.110495
0.142712
0.18193
0.229002
0.273709
0.300337
0.316291
0.332803
0.337857
0.32809
0.317506
0.308236
0.294088
0.280487
0.269097
0.251676
0.221045
0.180157
0.136051
0.0954686
0.0642919
0.0429054
0.0285769
0.0186995
0.0271531
0.0369453
0.0447567
0.0567628
0.0743606
0.0979201
0.126999
0.161214
0.202301
0.250951
0.296427
0.323436
0.336854
0.346863
0.346925
0.337271
0.329883
0.325852
0.317954
0.308209
0.297745
0.278936
0.245231
0.200956
0.153588
0.10863
0.073749
0.0496996
0.0328757
0.0203039
0.0274445
0.0409154
0.0516053
0.0666789
0.0879912
0.115461
0.147856
0.184667
0.227873
0.276974
0.320579
0.345144
0.355042
0.359627
0.357762
0.350062
0.3462
0.345859
0.343141
0.337762
0.329605
0.311229
0.27561
0.227226
0.175446
0.124991
0.0850733
0.0581976
0.0392293
0.0248988
0.0289082
0.0456483
0.0597863
0.0792361
0.10564
0.138037
0.174651
0.214895
0.260167
0.307562
0.345948
0.365677
0.37202
0.373337
0.371176
0.366732
0.366023
0.368119
0.369022
0.36772
0.362949
0.347494
0.313861
0.26434
0.207395
0.149555
0.100541
0.0691064
0.0489961
0.0336904
0.0324201
0.051685
0.0704662
0.095844
0.128861
0.167564
0.209873
0.254619
0.300993
0.344055
0.374628
0.388238
0.391488
0.391354
0.389955
0.38876
0.390253
0.393749
0.396546
0.397628
0.395973
0.385138
0.35694
0.310467
0.252096
0.187987
0.12479
0.0834898
0.0627129
0.0473674
0.0386137
0.0604806
0.0853792
0.118345
0.160014
0.207489
0.257697
0.307318
0.352626
0.388057
0.408909
0.416902
0.418785
0.419073
0.41922
0.420312
0.422539
0.42553
0.427977
0.42921
0.428521
0.421767
0.40164
0.362845
0.306661
0.237171
0.158855
0.102364
0.0795614
0.0660219
0.0482445
0.0743256
0.106908
0.149867
0.203714
0.263582
0.322112
0.373718
0.413501
0.439113
0.452113
0.45768
0.460402
0.462273
0.463874
0.465602
0.466832
0.467497
0.467351
0.466143
0.463452
0.457526
0.443542
0.414469
0.365653
0.295228
0.202411
0.126425
0.0983482
0.0890994
0.0630819
0.0961451
0.138952
0.196361
0.267155
0.338715
0.400621
0.447027
0.476275
0.492578
0.501567
0.507176
0.511094
0.513828
0.515548
0.516361
0.515938
0.514281
0.511407
0.507265
0.50188
0.494968
0.484021
0.462014
0.423987
0.360541
0.257495
0.1574
0.119258
0.115533
0.0867799
0.130769
0.187911
0.265849
0.352486
0.425576
0.477659
0.50737
0.5236
0.533122
0.53917
0.543206
0.545864
0.547477
0.548232
0.548226
0.547427
0.545763
0.543103
0.539233
0.533958
0.527184
0.518454
0.503999
0.478527
0.428527
0.326373
0.199793
0.144492
0.144264
0.126132
0.186445
0.262197
0.359747
0.444848
0.498839
0.526447
0.53998
0.547534
0.552225
0.555245
0.557204
0.558448
0.559172
0.559484
0.559424
0.558988
0.55811
0.556665
0.554477
0.551273
0.546711
0.540433
0.531454
0.517044
0.487242
0.406701
0.261588
0.177498
0.173923
0.191834
0.27257
0.362475
0.455406
0.511305
0.536329
0.547525
0.553593
0.557255
0.559576
0.561042
0.561981
0.562586
0.56295
0.563121
0.563123
0.562955
0.562578
0.561919
0.560812
0.559015
0.556261
0.552164
0.546193
0.537356
0.522472
0.476778
0.347771
0.227983
0.204886
0.293018
0.384621
0.460192
0.516082
0.540685
0.550979
0.556374
0.559535
0.561357
0.562477
0.563162
0.563563
0.563788
0.563862
0.563864
0.563865
0.563865
0.563864
0.563835
0.563456
0.562608
0.561124
0.558548
0.554474
0.548401
0.539524
0.518515
0.43595
0.306553
0.246905
0.414544
0.484353
0.518371
0.540606
0.551988
0.557658
0.560519
0.561998
0.562637
0.56289
0.563063
0.563146
0.563138
0.563185
0.563324
0.563498
0.563682
0.563818
0.563827
0.563825
0.563816
0.56335
0.562069
0.559609
0.55534
0.549094
0.537912
0.498428
0.403849
0.313333
0.496775
0.53153
0.541487
0.551096
0.557838
0.56095
0.561978
0.561991
0.561936
0.561452
0.560751
0.559882
0.559235
0.558868
0.558957
0.559257
0.559883
0.56068
0.561665
0.562597
0.563264
0.563342
0.563328
0.562459
0.559991
0.555316
0.547327
0.529778
0.485537
0.406059
0.506025
0.541356
0.551788
0.557632
0.561117
0.56156
0.561555
0.56038
0.558169
0.555172
0.551952
0.548711
0.546993
0.545814
0.545708
0.545788
0.547049
0.549015
0.55215
0.555709
0.559207
0.561837
0.56303
0.563018
0.562618
0.559789
0.553949
0.544512
0.526594
0.482889
0.506079
0.545856
0.557958
0.561595
0.56232
0.56152
0.559021
0.554332
0.547077
0.537388
0.530428
0.525636
0.524955
0.523925
0.523571
0.523177
0.523766
0.524966
0.529342
0.536071
0.54569
0.554681
0.560228
0.562755
0.563269
0.562729
0.559329
0.553171
0.538168
0.498192
0.506094
0.550754
0.562196
0.563615
0.562329
0.559188
0.552342
0.540726
0.524211
0.509247
0.504265
0.504172
0.508042
0.508937
0.50849
0.508286
0.506877
0.505497
0.506443
0.509884
0.519142
0.536222
0.551913
0.559997
0.56327
0.564276
0.563115
0.558792
0.542235
0.498003
0.513223
0.556882
0.564568
0.564285
0.561017
0.553661
0.539865
0.519837
0.502717
0.502645
0.502643
0.502646
0.504976
0.506516
0.506578
0.506256
0.506199
0.503512
0.499469
0.499246
0.501167
0.509238
0.534076
0.552956
0.561425
0.564643
0.56545
0.56264
0.545883
0.498
0.530025
0.56176
0.564586
0.564047
0.557734
0.544062
0.523084
0.505721
0.502891
0.50319
0.502646
0.502647
0.503209
0.506548
0.507143
0.506156
0.506137
0.503053
0.499564
0.497996
0.500268
0.493385
0.508932
0.539566
0.556892
0.564042
0.56663
0.565475
0.550615
0.498017
0.544803
0.563824
0.564605
0.562748
0.551208
0.528895
0.506872
0.50045
0.503324
0.503323
0.502647
0.502649
0.503207
0.507083
0.507158
0.506779
0.505187
0.50227
0.499832
0.496762
0.49675
0.488595
0.488028
0.520232
0.548667
0.561997
0.566929
0.567073
0.556899
0.50499
0.553606
0.564557
0.564579
0.558875
0.537214
0.509229
0.493311
0.489955
0.497817
0.500352
0.502999
0.502903
0.504813
0.507025
0.507157
0.507157
0.504745
0.502044
0.497853
0.492754
0.487916
0.483095
0.477194
0.499962
0.535911
0.557938
0.566551
0.567103
0.562689
0.524181
0.559759
0.564571
0.564547
0.54817
0.516445
0.498056
0.486875
0.475473
0.488155
0.493555
0.503922
0.50553
0.50777
0.507736
0.507148
0.507091
0.505508
0.502054
0.495019
0.487349
0.478909
0.474936
0.467138
0.480918
0.518809
0.550632
0.565045
0.567111
0.565412
0.542286
0.563745
0.564523
0.556585
0.530597
0.51766
0.507886
0.4879
0.465094
0.477852
0.488495
0.504257
0.510199
0.510219
0.509857
0.507848
0.508625
0.507942
0.503792
0.496855
0.48695
0.476644
0.467519
0.454607
0.457028
0.494309
0.539225
0.561495
0.567128
0.566423
0.552614
0.563913
0.561317
0.544708
0.530399
0.529716
0.521702
0.488847
0.465074
0.47102
0.487868
0.499663
0.509147
0.510449
0.510422
0.510451
0.510443
0.510429
0.508254
0.501066
0.489108
0.477314
0.466716
0.446548
0.435929
0.464136
0.52253
0.552968
0.567077
0.567062
0.559679
0.563381
0.551888
0.542506
0.537263
0.536791
0.519364
0.481699
0.465022
0.466399
0.485872
0.49214
0.497375
0.510425
0.510457
0.510447
0.510524
0.510446
0.510446
0.503814
0.492931
0.480124
0.469252
0.448768
0.435872
0.451056
0.490436
0.537831
0.561604
0.566983
0.564458
0.550619
0.539973
0.542202
0.536828
0.525557
0.499181
0.469236
0.46507
0.467871
0.486672
0.49134
0.485241
0.503343
0.510447
0.510525
0.510455
0.510526
0.510445
0.504185
0.496204
0.48565
0.475507
0.455783
0.436214
0.445711
0.458389
0.53498
0.552368
0.564228
0.565492
0.498959
0.5092
0.533788
0.515115
0.498069
0.478135
0.469172
0.469949
0.480899
0.493843
0.49334
0.485201
0.485363
0.499981
0.509971
0.510543
0.510455
0.507987
0.502248
0.498921
0.491291
0.482677
0.463782
0.439079
0.437158
0.459774
0.522332
0.543149
0.557587
0.564983
0.43141
0.454425
0.491577
0.482914
0.485461
0.484822
0.487033
0.492319
0.503229
0.505972
0.50057
0.487569
0.482372
0.483042
0.49582
0.503293
0.502001
0.495425
0.496876
0.497848
0.493541
0.486596
0.46579
0.443526
0.437089
0.458573
0.498287
0.539998
0.551264
0.560949
0.43094
0.430914
0.446422
0.472641
0.495769
0.510313
0.517435
0.519288
0.521123
0.51754
0.510789
0.49767
0.482264
0.47808
0.478404
0.480814
0.478455
0.476931
0.485263
0.491037
0.48397
0.479018
0.462828
0.452903
0.443328
0.44883
0.481234
0.523925
0.545866
0.556402
0.430942
0.43096
0.454094
0.493819
0.523525
0.532624
0.531881
0.530128
0.528975
0.52519
0.519626
0.510202
0.489115
0.478021
0.472924
0.468762
0.466308
0.466276
0.468902
0.471815
0.453391
0.453533
0.455895
0.475258
0.467444
0.451126
0.456997
0.497685
0.52135
0.548524
0.430963
0.458837
0.497963
0.529556
0.536798
0.534358
0.53037
0.530276
0.530276
0.52891
0.525184
0.519286
0.504212
0.488623
0.479979
0.473569
0.468298
0.464863
0.459881
0.451716
0.450374
0.450374
0.453615
0.499575
0.49433
0.460313
0.437285
0.468472
0.474678
0.532804
0.459032
0.512939
0.535943
0.538504
0.536796
0.526143
0.526168
0.527783
0.530817
0.531613
0.529875
0.527265
0.521709
0.512133
0.503964
0.496218
0.487443
0.478204
0.467395
0.452895
0.450374
0.450374
0.452227
0.499565
0.499582
0.469732
0.42874
0.431719
0.443258
0.500942
0.514693
0.541154
0.54114
0.538497
0.528161
0.510775
0.519075
0.527199
0.533531
0.536651
0.537037
0.537322
0.537545
0.535805
0.532907
0.528664
0.522047
0.512557
0.498269
0.477372
0.460686
0.453384
0.455844
0.489333
0.499542
0.467025
0.423243
0.423311
0.425112
0.469354
0.542066
0.542073
0.541077
0.533713
0.507312
0.50477
0.517994
0.531997
0.5412
0.54427
0.545447
0.546552
0.547529
0.547938
0.547843
0.547212
0.545533
0.542079
0.535224
0.522118
0.502021
0.484318
0.478175
0.486889
0.496105
0.459363
0.423325
0.423247
0.423324
0.447276
0.542441
0.539214
0.536682
0.512498
0.492992
0.504632
0.525463
0.543544
0.54945
0.550503
0.550787
0.550751
0.550334
0.549823
0.549467
0.549252
0.549238
0.549217
0.548975
0.547339
0.541
0.529706
0.518811
0.505096
0.499445
0.462803
0.427902
0.423323
0.423292
0.43873
0.525649
0.521772
0.527063
0.48226
0.491784
0.514964
0.542543
0.552666
0.553532
0.552611
0.551391
0.550358
0.549224
0.548184
0.547431
0.54696
0.547011
0.547363
0.547952
0.548208
0.548202
0.547962
0.544841
0.53487
0.520758
0.488966
0.451138
0.428392
0.429796
0.440814
0.457989
0.482754
0.501527
0.482201
0.502816
0.539013
0.554182
0.555069
0.55381
0.55166
0.549413
0.546931
0.54448
0.542356
0.540755
0.539577
0.539329
0.539449
0.540994
0.543176
0.54577
0.547154
0.547155
0.547061
0.542343
0.526384
0.493181
0.457457
0.453208
0.448538
0.447551
0.447536
0.459488
0.491012
0.533722
0.554764
0.555992
0.555065
0.551666
0.547342
0.543195
0.539158
0.535903
0.533327
0.531439
0.529837
0.528988
0.528261
0.528921
0.531503
0.53561
0.540752
0.544709
0.546706
0.546696
0.545116
0.530905
0.501748
0.48429
0.458155
0.447552
0.447563
0.469747
0.527493
0.554747
0.556004
0.555976
0.551585
0.544711
0.538351
0.533698
0.530135
0.528273
0.526925
0.525999
0.52529
0.524365
0.524045
0.521557
0.522279
0.523796
0.530039
0.535685
0.54129
0.545409
0.545972
0.545977
0.534315
0.510704
0.469737
0.447564
0.465961
0.520578
0.554216
0.556005
0.555991
0.55167
0.541669
0.533655
0.528342
0.526048
0.525031
0.525053
0.524983
0.525117
0.525116
0.52434
0.524303
0.520576
0.519417
0.515735
0.519361
0.523348
0.529578
0.538177
0.545169
0.547003
0.547027
0.531878
0.488871
0.465699
0.52123
0.554061
0.556003
0.556001
0.552628
0.540915
0.529512
0.526183
0.523603
0.522308
0.522324
0.523329
0.524008
0.524595
0.5251
0.524304
0.524032
0.519759
0.518532
0.507213
0.506031
0.512793
0.518246
0.526455
0.537838
0.54595
0.548641
0.54521
0.513828
0.51744
0.553442
0.556002
0.556007
0.553641
0.542196
0.531262
0.528568
0.525708
0.521964
0.518464
0.518176
0.521397
0.52296
0.523585
0.524886
0.524045
0.522887
0.517461
0.514647
0.49561
0.492001
0.513297
0.519396
0.52443
0.53137
0.54121
0.548643
0.549686
0.535515
0.551204
0.555995
0.55601
0.554457
0.543194
0.533221
0.530148
0.527662
0.521978
0.518945
0.517981
0.517961
0.519869
0.522502
0.523184
0.524482
0.523188
0.52091
0.513656
0.507679
0.486912
0.48202
0.512247
0.526029
0.528339
0.532657
0.537343
0.545769
0.549711
0.548366
0.555997
0.555998
0.554968
0.541255
0.528589
0.522583
0.522778
0.51817
0.513642
0.516753
0.518211
0.518281
0.520083
0.522626
0.523209
0.523465
0.520714
0.514804
0.506071
0.499619
0.483348
0.481555
0.49974
0.52216
0.530573
0.535425
0.537144
0.541154
0.546761
0.549965
0.555975
0.549258
0.537585
0.513879
0.50721
0.501938
0.504266
0.504537
0.510234
0.517956
0.520319
0.520378
0.521073
0.522569
0.522259
0.520352
0.514368
0.502402
0.497317
0.49502
0.482727
0.481554
0.482988
0.503186
0.519323
0.531022
0.533473
0.537467
0.529995
0.545452
0.546386
0.505481
0.508335
0.491358
0.490004
0.489903
0.489935
0.503666
0.515182
0.523137
0.525027
0.523738
0.521933
0.521448
0.518929
0.513448
0.504342
0.496152
0.49651
0.49702
0.488271
0.481889
0.481977
0.484572
0.495296
0.511483
0.512629
0.521894
0.482851
0.501019
0.496448
0.493075
0.496202
0.49009
0.489902
0.4902
0.496727
0.51464
0.526384
0.528708
0.528515
0.524284
0.521232
0.517182
0.512787
0.504851
0.497169
0.496136
0.501166
0.506071
0.504062
0.494529
0.487267
0.484764
0.484943
0.485861