/*--------------------------------*- C++ -*----------------------------------*\
| =========                 |                                                 |
| \\      /  F ield         | OpenFOAM: The Open Source CFD Toolbox           |
|  \\    /   O peration     | Version:  v1606+                                |
|   \\  /    A nd           | Web:      www.OpenFOAM.com                      |
|    \\/     M anipulation  |                                                 |
\*---------------------------------------------------------------------------*/
FoamFile
{
    version     2.0;
    format      ascii;
    class       volScalarField;
    location    "1.38";
    object      alphat.air;
}
// * * * * * * * * * * * * * * * * * * * * * * * * * * * * * * * * * * * * * //

dimensions      [1 -1 -1 0 0 0 0];

internalField   nonuniform List<scalar> 
6000
(
0.000366981
0.00319227
0.00528823
0.00583135
0.00601666
0.00611128
0.00615618
0.00618047
0.00619433
0.00620119
0.00618892
0.00617355
0.00616584
0.00616511
0.00616672
0.00617092
0.00618199
0.00619637
0.00620372
0.00620195
0.00618846
0.00617034
0.00614438
0.00611118
0.00603489
0.00593551
0.00576912
0.00527933
0.00322573
0.000364498
0.0002668
0.00168622
0.0034492
0.00459027
0.0051986
0.00554484
0.00579367
0.00591048
0.00596017
0.00597736
0.00595951
0.00593317
0.00591516
0.0059167
0.00592096
0.00593399
0.0059646
0.0060081
0.00602702
0.00600111
0.00593254
0.00583496
0.00574818
0.00562969
0.00546314
0.00518984
0.00467138
0.00362034
0.00189173
0.000271272
0.000215463
0.00141569
0.0029687
0.00414653
0.00487967
0.00532523
0.00564295
0.00582327
0.00589701
0.00591433
0.00591692
0.00591623
0.00591336
0.00591485
0.00591467
0.00591985
0.00593427
0.00595751
0.00596786
0.00594565
0.00587941
0.00576638
0.00566491
0.00552399
0.00527511
0.00487876
0.00422813
0.00313299
0.00157131
0.00022637
0.000195488
0.00145817
0.00283293
0.00393224
0.0047031
0.00520839
0.0055719
0.00581615
0.00592589
0.00595316
0.00596821
0.00597977
0.00598358
0.0059862
0.00598605
0.00598298
0.00598193
0.00598557
0.00598225
0.00596156
0.00590668
0.00578872
0.00564656
0.00545367
0.00515757
0.00469771
0.00398512
0.00292338
0.00151821
0.000206319
0.000186239
0.00148765
0.00280412
0.00384968
0.00460915
0.00513413
0.0054948
0.00577087
0.00593113
0.00601126
0.00604155
0.00604969
0.00604643
0.00604672
0.00604679
0.00603839
0.00603364
0.00603078
0.00601497
0.0059773
0.0059056
0.00577467
0.00560453
0.00537148
0.00503382
0.00452997
0.00380297
0.00281382
0.00150308
0.000204219
0.000188569
0.00150881
0.00279749
0.00380138
0.00454932
0.00508181
0.00545433
0.00572967
0.00593763
0.00605974
0.00611236
0.0061226
0.00612046
0.00611713
0.00611028
0.00609533
0.0060816
0.00606911
0.00604226
0.00598971
0.00589337
0.00574716
0.00555648
0.00530254
0.0049286
0.00440148
0.00370194
0.00273104
0.00145352
0.000200739
0.000196857
0.00152733
0.00284741
0.00385003
0.00455948
0.00507603
0.0054491
0.00572057
0.00594376
0.00609244
0.00617047
0.00620452
0.00622308
0.00622321
0.00620712
0.00618047
0.00614755
0.00611138
0.00606524
0.0059936
0.00588009
0.00572907
0.00553941
0.00526892
0.00484568
0.00429633
0.00357863
0.00258767
0.00133466
0.000190236
0.000194339
0.0014715
0.00285116
0.00392743
0.00464641
0.00513294
0.0055124
0.00577349
0.0059746
0.00613715
0.00624707
0.00632568
0.00637917
0.0063924
0.00637617
0.00634368
0.00629675
0.00622649
0.00614489
0.00604579
0.00592141
0.00576902
0.00557744
0.00526316
0.00477557
0.00418726
0.00342347
0.00242996
0.00123099
0.000179353
0.000183684
0.00136387
0.00275624
0.00387211
0.00468839
0.00525178
0.00566493
0.00594152
0.00611971
0.00629453
0.00645678
0.00659814
0.00669387
0.00672456
0.00670525
0.00665656
0.00658
0.00647101
0.00634524
0.0062163
0.00608849
0.00594049
0.00570238
0.00533917
0.00483677
0.00416176
0.00330586
0.00228358
0.00110942
0.000167586
0.000171202
0.00129128
0.00268195
0.00382736
0.00473098
0.00544156
0.00589852
0.00622872
0.00645591
0.00667993
0.00689685
0.00706864
0.00717839
0.00723015
0.00723551
0.00720011
0.00712418
0.00699987
0.00683547
0.006661
0.0064927
0.00627499
0.00597002
0.0055934
0.00513203
0.00433407
0.00332517
0.00225011
0.0010033
0.000153498
0.000163359
0.00126655
0.00271719
0.00392618
0.00495933
0.00580374
0.00632928
0.00669429
0.00698299
0.00723702
0.00745299
0.00761453
0.00772787
0.00779457
0.00782303
0.007816
0.00776726
0.00766414
0.00752166
0.00734187
0.0071097
0.00680716
0.00642678
0.00602512
0.00558267
0.00478329
0.00367318
0.00240436
0.00101536
0.000148388
0.000165046
0.00132884
0.00293213
0.00427409
0.0054349
0.00635657
0.00697452
0.00731924
0.00764237
0.00793336
0.00816843
0.00833896
0.00845876
0.00853449
0.00857356
0.0085756
0.00852365
0.00840274
0.00822255
0.00799206
0.00769527
0.00730176
0.0068207
0.00632314
0.00577101
0.00515657
0.00415623
0.00277825
0.0011841
0.000154639
0.000177416
0.0014864
0.00323992
0.00473341
0.00596975
0.00683278
0.00743995
0.00782157
0.00816957
0.00848763
0.00873781
0.00891178
0.00902917
0.00910695
0.00914459
0.00912968
0.00904101
0.00886527
0.00861344
0.00830065
0.00791308
0.00744984
0.00692668
0.00639771
0.00586578
0.00528472
0.00449319
0.00315017
0.00143713
0.000173629
0.000198296
0.00166078
0.0035477
0.0051337
0.00630109
0.00701224
0.0075606
0.0079917
0.00834028
0.00864606
0.00889859
0.00908617
0.00921516
0.0092975
0.00933029
0.00930231
0.00918976
0.00898182
0.00869335
0.008338
0.00792537
0.00745046
0.00694658
0.00645801
0.00593798
0.00537134
0.00466484
0.00345028
0.00169448
0.000191503
0.000215381
0.00185734
0.00382453
0.00541736
0.00646127
0.00705217
0.00754867
0.0079762
0.00832378
0.00862388
0.00888411
0.00909436
0.00926027
0.00936374
0.00940649
0.00938101
0.00925689
0.00903654
0.00874117
0.0083867
0.00796448
0.00748279
0.00698332
0.00651054
0.00599827
0.00542573
0.00475395
0.00366804
0.00193317
0.000204405
0.000229595
0.00204768
0.00407579
0.0056197
0.00654666
0.00707017
0.00753036
0.00793972
0.00828136
0.00857737
0.00884155
0.00907882
0.0092801
0.00942227
0.0094926
0.00947321
0.0093449
0.00911814
0.00882461
0.00848254
0.00806522
0.0075674
0.00705278
0.00656592
0.00604945
0.00546624
0.00479356
0.00379497
0.0021085
0.000212984
0.000241948
0.00221981
0.00429159
0.00576272
0.00658601
0.00707391
0.0075114
0.00790491
0.0082365
0.00852261
0.00879415
0.00906291
0.00930712
0.00949268
0.00958955
0.00957732
0.00944672
0.00922274
0.00894937
0.00862073
0.00820162
0.00769093
0.00715375
0.00662749
0.00608714
0.00549066
0.00481272
0.0038396
0.00217571
0.000218447
0.00025038
0.00238403
0.0044774
0.00584543
0.00658328
0.00706116
0.00748339
0.00786101
0.00817727
0.00845646
0.00874257
0.00904998
0.00934199
0.00957172
0.009694
0.009687
0.00955638
0.00933948
0.00908177
0.00877874
0.00836071
0.00782802
0.00726045
0.00669362
0.00611754
0.0055033
0.00479908
0.00382331
0.00219124
0.000221435
0.000254573
0.00250298
0.00457964
0.00585241
0.00654418
0.00702298
0.00743278
0.00779193
0.00809434
0.00837683
0.00869306
0.00904565
0.00938288
0.00965761
0.0097995
0.00979596
0.00966791
0.00946297
0.00922284
0.00893176
0.00851375
0.0079591
0.00735823
0.00675952
0.00615163
0.00550838
0.0047692
0.00377589
0.00216827
0.00022123
0.000255849
0.00255645
0.00459044
0.00579429
0.00646905
0.0069548
0.00735083
0.00769268
0.00799273
0.0082995
0.00865783
0.00905885
0.00943516
0.00974503
0.00990013
0.00989838
0.00977615
0.00958876
0.00936693
0.00907617
0.0086456
0.00807761
0.00745011
0.0068177
0.00618584
0.00551178
0.00473225
0.0037079
0.00210438
0.000219918
0.00025635
0.00254719
0.00451631
0.00567996
0.00635277
0.00684954
0.00723657
0.00757093
0.00788816
0.00823881
0.00864935
0.00909334
0.00950387
0.00982853
0.00999038
0.00999001
0.00987592
0.00970836
0.00950553
0.009206
0.00876122
0.00818764
0.00753866
0.00687302
0.00620737
0.00550566
0.00468638
0.003624
0.00203155
0.000223512
0.000258755
0.00246723
0.00437226
0.00551982
0.00621531
0.00671669
0.00710524
0.00745191
0.00781062
0.00821667
0.00868006
0.00915525
0.00958481
0.00990589
0.0100674
0.0100679
0.00996386
0.00981844
0.00962903
0.00931804
0.00885899
0.00828548
0.00762477
0.00692753
0.00621721
0.00546984
0.00461172
0.00351087
0.00196007
0.000221794
0.000257743
0.00235769
0.00419744
0.00533319
0.00606004
0.00656783
0.00697815
0.007364
0.00777984
0.00824761
0.00875774
0.00924901
0.00967248
0.00997718
0.0101319
0.0101317
0.0100385
0.0099124
0.00972833
0.00939987
0.00893964
0.00837377
0.00771387
0.00699018
0.00622783
0.00541348
0.00449638
0.00336467
0.00186066
0.000214382
0.000250529
0.00223449
0.00400728
0.00515425
0.00590977
0.00643537
0.00688689
0.00733022
0.00781411
0.00834468
0.00888334
0.00937033
0.00976413
0.0100447
0.0101879
0.0101836
0.010103
0.00999069
0.00979836
0.00945838
0.0090179
0.00846691
0.00781396
0.00707746
0.00626437
0.0053723
0.00437523
0.00320272
0.00173943
0.000202747
0.00024041
0.00211489
0.00380735
0.00497876
0.00578788
0.00636356
0.00686079
0.00737497
0.00793507
0.00851247
0.00905093
0.00950974
0.00986288
0.010116
0.0102435
0.0102365
0.0101581
0.0100478
0.00983628
0.0095141
0.00910839
0.00858671
0.00794542
0.00719495
0.00634696
0.00539522
0.00431666
0.00308035
0.00162781
0.000190398
0.000229732
0.00200878
0.00363262
0.00482777
0.00571749
0.00638656
0.00695113
0.00753576
0.00814387
0.00872128
0.0092396
0.00966192
0.00997682
0.0102021
0.0103192
0.0102991
0.0102135
0.0100892
0.00987319
0.00959696
0.00923299
0.00873786
0.00811286
0.00736468
0.00649535
0.00550001
0.00436055
0.00305601
0.00155435
0.00018016
0.000220168
0.00193756
0.00353404
0.00477146
0.00575442
0.00652877
0.00716889
0.00778636
0.00839413
0.00896217
0.00944516
0.00982484
0.0100999
0.0102935
0.0103951
0.0103711
0.0102717
0.0101241
0.00993242
0.00971157
0.00938031
0.00890541
0.00829538
0.00755602
0.00668911
0.00568061
0.00450173
0.0031308
0.00155515
0.000177749
0.000215003
0.00192272
0.00354946
0.00483822
0.00588421
0.00672797
0.00745136
0.00811411
0.00872017
0.00924795
0.00967897
0.0100083
0.0102454
0.0104088
0.0104942
0.0104594
0.0103417
0.010197
0.0100537
0.00987598
0.00955705
0.00909861
0.00850548
0.00778146
0.00691443
0.00589911
0.00470509
0.00328169
0.00162439
0.000179618
0.000215966
0.00195961
0.00364883
0.00499436
0.00610473
0.00699731
0.00776338
0.0084391
0.00903141
0.00952561
0.00992124
0.0102226
0.0104372
0.0105793
0.010648
0.0106007
0.010479
0.010367
0.0102683
0.0100799
0.00975911
0.00931276
0.00874643
0.00806804
0.00720913
0.00617096
0.00493558
0.00345203
0.00171422
0.000185058
0.000223231
0.00202204
0.0038067
0.00523403
0.00631732
0.00720778
0.00800344
0.0087036
0.00930466
0.00978879
0.0101653
0.0104562
0.0106756
0.0108294
0.0108984
0.0108344
0.0107396
0.010664
0.0105428
0.0103149
0.00997365
0.00953849
0.00900015
0.00840351
0.007625
0.00652227
0.00520457
0.0036266
0.00179291
0.000191088
0.000235318
0.00209262
0.00403563
0.0055487
0.00655037
0.00738926
0.00820622
0.00893819
0.00955518
0.0100394
0.0104076
0.0106944
0.0109356
0.0111319
0.0112403
0.0112041
0.0111293
0.0110326
0.010839
0.0105508
0.0101676
0.00972582
0.00921641
0.0087154
0.00801692
0.00694647
0.00551315
0.00379851
0.00184875
0.000195248
0.000242953
0.00219351
0.00420632
0.00565189
0.00660592
0.00754161
0.0084025
0.00916121
0.00979708
0.0102803
0.0106145
0.01091
0.0111621
0.0114065
0.0115873
0.0116746
0.0115784
0.011389
0.0111184
0.0107747
0.0103629
0.0099076
0.00936276
0.00876185
0.00812408
0.00718568
0.00582377
0.00395253
0.00186227
0.000198375
0.000244217
0.00225273
0.00423395
0.00561821
0.0065617
0.00750229
0.00840865
0.00918768
0.00985151
0.0103931
0.0107857
0.011052
0.0112945
0.0115589
0.0118481
0.0119262
0.011811
0.0115942
0.0112985
0.0109202
0.0104545
0.00990217
0.00927457
0.00862722
0.00796727
0.00716619
0.00591653
0.00409076
0.00186676
0.000202535
0.000240494
0.00229039
0.00424923
0.00560114
0.00657176
0.00743397
0.00829151
0.00905961
0.00972996
0.0102982
0.0107506
0.0110879
0.0113642
0.0116126
0.0118197
0.0118401
0.0117147
0.0115022
0.0112139
0.0108309
0.0103453
0.00977088
0.00913148
0.00846424
0.00777916
0.0070272
0.00588562
0.00420175
0.00191955
0.000208386
0.000235798
0.00227818
0.00427969
0.0056721
0.00666749
0.00747722
0.00824846
0.0089677
0.00960648
0.0101505
0.0106024
0.0109637
0.0112448
0.0114614
0.0116155
0.0116194
0.0114911
0.0112919
0.0110185
0.0106514
0.0101848
0.00962644
0.00899556
0.00832037
0.00761671
0.00686906
0.00585645
0.00426098
0.00200682
0.000214451
0.00023262
0.00225286
0.00432986
0.00578642
0.00679898
0.00756751
0.00826214
0.00891879
0.00950793
0.0100145
0.010439
0.010781
0.0110429
0.0112371
0.011371
0.0113765
0.0112588
0.0110704
0.0108098
0.0104597
0.0100142
0.0094776
0.00886436
0.00819304
0.00747873
0.00672149
0.00579139
0.00428645
0.00212286
0.000221275
0.00023321
0.00220712
0.00438945
0.00590744
0.00692129
0.00765781
0.00829376
0.00888642
0.00941753
0.00987734
0.0102667
0.0105846
0.0108295
0.0110116
0.0111333
0.0111414
0.0110333
0.0108516
0.0106005
0.0102664
0.00984305
0.00933134
0.00874062
0.00808132
0.00736607
0.00660429
0.00570704
0.00432782
0.00227309
0.000228637
0.000237636
0.00224973
0.00449454
0.00601881
0.00701108
0.00771866
0.0083089
0.00884287
0.00931854
0.00973396
0.01009
0.0103848
0.0106152
0.0107894
0.0109039
0.0109153
0.0108142
0.0106388
0.0103972
0.0100789
0.00967707
0.00919015
0.0086233
0.00798127
0.00727524
0.00652044
0.00564709
0.00434661
0.00233182
0.000234422
0.00024213
0.00240134
0.00460724
0.00609215
0.00705213
0.00773364
0.00828771
0.00877324
0.00920337
0.00958289
0.00991176
0.0101874
0.0104053
0.0105713
0.0106795
0.0106925
0.0105979
0.0104304
0.0101994
0.0098969
0.00951559
0.0090525
0.00851008
0.00788939
0.00720057
0.00646238
0.00561824
0.00436228
0.00234563
0.000235363
0.000244995
0.00248279
0.00466372
0.00610702
0.00703791
0.00769932
0.00822622
0.00867692
0.00907388
0.00942669
0.00973527
0.00999577
0.0102049
0.0103641
0.0104635
0.010473
0.0103832
0.0102246
0.0100052
0.00971823
0.00935662
0.00891648
0.0083987
0.00780216
0.00713591
0.00641825
0.00559911
0.00437631
0.00236038
0.000233612
0.000244903
0.00248611
0.00464096
0.00605892
0.00697377
0.00762197
0.00813057
0.00855918
0.00893425
0.00926765
0.00956088
0.00980844
0.0100084
0.010163
0.0102539
0.0102582
0.0101715
0.0100213
0.00981299
0.0095408
0.00919785
0.0087798
0.00828625
0.00771493
0.00707328
0.00637564
0.00557137
0.00436279
0.00234907
0.000231642
0.000241672
0.00244574
0.00456215
0.00596322
0.00686839
0.0075103
0.00801008
0.00842712
0.00878794
0.00910795
0.00938952
0.00962696
0.00981921
0.00996481
0.0100481
0.0100468
0.00996352
0.0098209
0.00962274
0.00936385
0.00903758
0.00864012
0.00816964
0.00762294
0.00700444
0.00632183
0.00552454
0.00432789
0.00233053
0.000228575
0.000237597
0.00237283
0.00444056
0.0058321
0.0067352
0.00737607
0.00787408
0.00828705
0.00863948
0.00895003
0.00922167
0.00944876
0.00963349
0.00977229
0.00984698
0.00983864
0.00975864
0.00962283
0.0094337
0.00918654
0.00887501
0.00849643
0.00804729
0.00752381
0.00692585
0.00625521
0.00545729
0.00426762
0.00230304
0.000225018
0.000232928
0.0022894
0.00429609
0.00567599
0.00658963
0.00723748
0.0077362
0.00814478
0.00849249
0.00879697
0.00905989
0.00927727
0.00945161
0.00958246
0.0096511
0.0096353
0.00955707
0.0094266
0.00924513
0.00900801
0.00870966
0.00834817
0.00791892
0.00741758
0.00683841
0.00617554
0.00536986
0.00418595
0.00226725
0.00022076
0.000228197
0.00220547
0.00414181
0.0055064
0.00643467
0.0070976
0.00760315
0.00801136
0.00835748
0.00865567
0.00890741
0.00911253
0.00927445
0.00939337
0.00945214
0.00943304
0.00935709
0.00923112
0.00905614
0.00882757
0.00854112
0.00819502
0.00778388
0.00730318
0.0067405
0.0060818
0.00526576
0.00408351
0.00221547
0.000216439
0.000222455
0.0021202
0.00398115
0.00532846
0.00627657
0.00696029
0.00747896
0.00789319
0.00823679
0.00852536
0.00876215
0.00895133
0.00909878
0.00920366
0.00924958
0.00923206
0.00915838
0.00903572
0.00886599
0.00864477
0.00836916
0.00803714
0.00764046
0.00717562
0.00663016
0.00597788
0.00515425
0.00396435
0.00214278
0.000213293
0.000215567
0.00202662
0.00381457
0.00514993
0.0061227
0.00683628
0.00737275
0.00778798
0.00812059
0.00839375
0.00861353
0.00878835
0.0089221
0.00901379
0.00904971
0.00902998
0.00895761
0.00883865
0.00867327
0.00845857
0.00819182
0.00787121
0.00748988
0.00704047
0.00650654
0.0058536
0.00501376
0.00381534
0.00205047
0.000209937
0.000206935
0.00193409
0.00366556
0.00499575
0.00599071
0.00673179
0.0072814
0.00768397
0.00798999
0.00824101
0.00844661
0.00861317
0.00873736
0.00882166
0.00885215
0.0088299
0.00875905
0.00864231
0.00848025
0.00827145
0.0080131
0.00770362
0.007337
0.00689536
0.00635968
0.00569728
0.00483787
0.00363975
0.0019446
0.000205199
0.000197965
0.00186901
0.00356891
0.00489016
0.00588717
0.00663661
0.00718561
0.00757791
0.00785608
0.00806685
0.00824496
0.00840643
0.00853918
0.00862437
0.0086567
0.00863546
0.00856578
0.00845062
0.00829123
0.00808725
0.00783631
0.007535
0.00717355
0.00673396
0.00619378
0.00551621
0.0046354
0.00344178
0.00182488
0.000196551
0.00019324
0.00183338
0.00351784
0.00481604
0.00579322
0.0065303
0.00706904
0.00744978
0.00772322
0.00792868
0.008082
0.00819726
0.00831484
0.00841437
0.00846027
0.00844715
0.00838153
0.00826845
0.00811053
0.0079085
0.00766114
0.0073635
0.00700402
0.0065642
0.00601842
0.00532947
0.0044381
0.00326196
0.00172052
0.000186529
0.000192452
0.00181581
0.00347073
0.00472692
0.00567136
0.00637478
0.00689763
0.00728671
0.00759256
0.00782109
0.00798135
0.00808149
0.00813381
0.00820386
0.00826336
0.00826701
0.00820916
0.00809939
0.00794263
0.00774086
0.00749374
0.00719624
0.0068364
0.00639478
0.00584343
0.00514756
0.00425536
0.00310314
0.00163106
0.000178759
0.000193469
0.00178252
0.00336902
0.00457726
0.00547732
0.00615341
0.00669305
0.00714146
0.00748458
0.00773043
0.00789677
0.0079955
0.00803875
0.00805143
0.00808731
0.00810188
0.00805278
0.00794592
0.00778989
0.00758812
0.00734046
0.00704164
0.00667884
0.00623133
0.00567239
0.00497052
0.00408304
0.00295664
0.00154639
0.00017196
0.000192014
0.00170026
0.00318514
0.00433251
0.00521981
0.00595383
0.00655976
0.00704027
0.0074017
0.00765527
0.00782237
0.00791807
0.00795877
0.00796045
0.00796416
0.00796278
0.007918
0.00781175
0.00765537
0.00745321
0.00720381
0.00690034
0.00652943
0.00607197
0.00550546
0.00480151
0.00392316
0.00282234
0.00146621
0.000165714
0.000186882
0.00154427
0.00293934
0.00409798
0.00505821
0.00584402
0.00648152
0.00698168
0.00734926
0.00760217
0.00776452
0.00785372
0.0078905
0.00788959
0.00787526
0.00786108
0.0078074
0.00769755
0.00753794
0.00733159
0.00707611
0.00676397
0.00638294
0.00591708
0.00534642
0.00464495
0.00377843
0.00270305
0.00139324
0.000159064
0.000174892
0.00140184
0.00278667
0.0039884
0.00498803
0.00580693
0.00646457
0.00696499
0.00732493
0.00756859
0.00772023
0.00779908
0.00782974
0.0078269
0.00780697
0.00777876
0.00771227
0.00759442
0.00742829
0.00721495
0.00695136
0.00663054
0.00624179
0.00577079
0.00519921
0.00450312
0.00365053
0.00260057
0.00133085
0.000152177
0.000163406
0.00130572
0.00273807
0.00397803
0.00500883
0.00584638
0.0064986
0.00697831
0.00731341
0.00753905
0.0076733
0.0077426
0.00776871
0.007766
0.00774332
0.00770172
0.00762182
0.00749479
0.00732139
0.00710119
0.00683077
0.00650352
0.00610967
0.00563612
0.00506596
0.00437701
0.00353915
0.00251295
0.00127444
0.000146513
0.000161533
0.00132135
0.00278413
0.00404726
0.00511007
0.00594246
0.00655876
0.00699208
0.00729364
0.00749421
0.00761346
0.00767633
0.00769997
0.00769891
0.00767448
0.00762269
0.00753215
0.00739759
0.00721829
0.00699279
0.00671737
0.00638574
0.00598883
0.00551461
0.00494745
0.00426667
0.00344383
0.0024409
0.00123258
0.000142019
0.000162561
0.0013789
0.00289675
0.00423161
0.005282
0.00604318
0.00658567
0.0069773
0.00725511
0.00743426
0.00753721
0.00759173
0.00761854
0.00762212
0.0075976
0.00754003
0.00744313
0.0073038
0.00712067
0.00689171
0.0066131
0.0062788
0.00588042
0.00540682
0.00484354
0.00417123
0.00336311
0.00238283
0.00120373
0.000138343
0.000166511
0.00149056
0.00311001
0.00440482
0.00535291
0.00603885
0.006545
0.00691472
0.00716979
0.00733381
0.00742955
0.00748804
0.00752592
0.00753651
0.00751412
0.00745501
0.00735585
0.00721466
0.00702994
0.00679939
0.00651923
0.00618372
0.00578501
0.00531277
0.00475351
0.00408916
0.00329465
0.00233562
0.00118446
0.000135397
0.000175752
0.00162412
0.00324546
0.00445149
0.0053129
0.00596389
0.00644687
0.00679765
0.00703363
0.00718979
0.00729548
0.00737384
0.00742541
0.00744441
0.00742669
0.00736981
0.00727192
0.00713163
0.00694747
0.00671712
0.00643687
0.00610128
0.00570299
0.0052323
0.00467657
0.00401865
0.00323551
0.0022948
0.00116801
0.000133173
0.000189996
0.00169566
0.00326185
0.00440059
0.00523399
0.00585337
0.00631141
0.0066268
0.0068527
0.00702196
0.00715372
0.00725338
0.00731934
0.00734848
0.00733821
0.0072869
0.00719334
0.00705646
0.00687487
0.0066463
0.00636717
0.00603233
0.0056348
0.00516538
0.00461206
0.00395822
0.00318294
0.00225572
0.00114967
0.000131353
0.000198797
0.00171539
0.00318991
0.00431249
0.00511973
0.00570576
0.00611931
0.00641667
0.00665381
0.00685016
0.00700825
0.0071282
0.00720983
0.00725156
0.00725172
0.00720904
0.00712257
0.00699138
0.00681414
0.00658867
0.00631157
0.00597796
0.00558116
0.00511234
0.00455991
0.00390743
0.0031358
0.00221651
0.0011278
0.000129735
0.000201965
0.00170607
0.00313031
0.00420032
0.00495849
0.00550182
0.00588169
0.00618934
0.00645325
0.0066772
0.00685932
0.00700008
0.00709964
0.00715698
0.00717071
0.00713963
0.00706281
0.00693933
0.00676795
0.00654661
0.00627211
0.00593982
0.00554334
0.00507411
0.00452076
0.00386688
0.00309475
0.00217834
0.00110309
0.000128229
0.000202918
0.00162696
0.00300952
0.00403038
0.00474129
0.00524138
0.00562141
0.00595756
0.00625135
0.00650159
0.00670829
0.00687202
0.00699267
0.00706908
0.0070997
0.00708316
0.00701836
0.00690436
0.00673997
0.00652338
0.00625166
0.00592042
0.00552348
0.00505249
0.0044962
0.00383816
0.00306162
0.00214301
0.0010773
0.000126685
0.000200626
0.00149122
0.0027804
0.00377458
0.00445779
0.00495034
0.00535594
0.00572252
0.00604588
0.00632461
0.00655874
0.0067489
0.00689439
0.00699365
0.00704463
0.0070455
0.00699489
0.0068917
0.00673496
0.00652326
0.00625407
0.00592324
0.00552475
0.00505036
0.00448894
0.00382402
0.00303939
0.00211349
0.00104952
0.000125045
0.000190885
0.00128958
0.00248288
0.00342295
0.0041155
0.00463838
0.00508109
0.00548296
0.00584007
0.00615115
0.00641694
0.00663782
0.00681215
0.00693818
0.00701293
0.00703375
0.00699897
0.00690734
0.00675826
0.00655109
0.00628381
0.00595254
0.00555127
0.00507175
0.004503
0.00382861
0.00303235
0.00209342
0.00102042
0.000123369
0.000178124
0.00103532
0.00208924
0.00296129
0.00370747
0.00429616
0.00479659
0.00524462
0.00564216
0.00599091
0.00629268
0.00654775
0.00675463
0.00691134
0.00701274
0.0070551
0.00703425
0.00695122
0.00680822
0.00660514
0.00634001
0.00600877
0.00560515
0.00512063
0.00454355
0.00385751
0.00304668
0.0020905
0.00100124
0.000121782
0.000164277
0.000828042
0.00166877
0.00248533
0.00327527
0.00394941
0.00452157
0.00502392
0.00546716
0.00585734
0.00619785
0.00648964
0.00673099
0.00691726
0.0070451
0.00710929
0.00710564
0.00703299
0.0068946
0.0066929
0.00642712
0.00609285
0.00568336
0.00518985
0.00460127
0.00390181
0.00307568
0.00210409
0.00100141
0.000121045
0.000146452
0.000648309
0.00135931
0.00211042
0.00291631
0.00365622
0.00429256
0.00484715
0.00533549
0.00576637
0.00614442
0.00647247
0.00674825
0.00696929
0.00712865
0.00722056
0.00723431
0.00716776
0.00703165
0.00683163
0.00656709
0.00623219
0.00581864
0.0053165
0.00471382
0.00399504
0.0031445
0.00214535
0.00101623
0.000121127
0.000131248
0.000527842
0.00118519
0.00191452
0.00272072
0.00347561
0.00414957
0.00474268
0.00526682
0.00573073
0.00614158
0.00650052
0.0068108
0.00706945
0.00726038
0.00736777
0.00738592
0.00731375
0.00717772
0.00698408
0.00672793
0.00640013
0.00599003
0.00548578
0.00487381
0.00413783
0.00326026
0.00222492
0.00105347
0.000121939
0.000124278
0.000518556
0.00116995
0.0018915
0.00268002
0.00342878
0.0041165
0.00472758
0.00527042
0.00575404
0.00618522
0.0065707
0.00690889
0.00719341
0.00740926
0.00752327
0.00753225
0.00744878
0.00731619
0.00713561
0.00689532
0.00658216
0.00618208
0.00568111
0.00506385
0.00431248
0.00340745
0.00233343
0.00111047
0.000123998
0.000121136
0.00053263
0.00121263
0.00197699
0.00276387
0.00350386
0.0041711
0.00478586
0.0053368
0.00582842
0.00626631
0.00665947
0.00701519
0.00732245
0.00754615
0.00763976
0.00762118
0.00754187
0.00743264
0.00728174
0.00707159
0.00678437
0.00640267
0.00591078
0.00529212
0.00452664
0.00359166
0.00246851
0.00117564
0.000127425
0.000117314
0.000541933
0.00130344
0.00211133
0.0028956
0.00362636
0.00430939
0.00492137
0.00545703
0.00592877
0.00635666
0.00675191
0.0071172
0.00742613
0.00760854
0.007669
0.00764425
0.00759467
0.00753625
0.00743498
0.00726806
0.00701711
0.00666184
0.00618258
0.00556189
0.00477897
0.00380847
0.00262848
0.00125179
0.000132118
0.00011408
0.000597303
0.00144062
0.00231094
0.00311494
0.00385748
0.00452405
0.00509364
0.00559312
0.00604001
0.0064529
0.00684535
0.00720549
0.00748006
0.0076024
0.00764123
0.00763672
0.00765496
0.00766086
0.0076163
0.00750095
0.00729628
0.00697794
0.0065169
0.00589127
0.0050768
0.00405585
0.00280648
0.00133517
0.000138297
0.000113005
0.000699293
0.00172543
0.00263893
0.00342871
0.00413608
0.00475064
0.00527979
0.00574411
0.00616607
0.00656266
0.00694853
0.00729416
0.00748992
0.00758278
0.00762142
0.00767609
0.00776012
0.00782234
0.00783796
0.00777903
0.00762565
0.0073442
0.00690114
0.0062759
0.00543151
0.00434423
0.00300394
0.00142482
0.000146379
0.000117553
0.000929532
0.00204253
0.00295911
0.00372811
0.00440842
0.00499393
0.00548677
0.00592311
0.00632578
0.00670566
0.00706677
0.00738072
0.00752398
0.00760415
0.00767802
0.00779848
0.00792586
0.00803746
0.00810831
0.00809522
0.00796626
0.00768971
0.00725126
0.00663616
0.0057967
0.00466905
0.00323707
0.00153186
0.000156944
0.000130232
0.00124065
0.00234652
0.00325228
0.0040245
0.00470186
0.00526874
0.00573109
0.00615089
0.00654535
0.00691445
0.00724742
0.00749991
0.00762875
0.00771367
0.0078464
0.00800277
0.00816676
0.00831448
0.00841607
0.00840899
0.00826036
0.00796311
0.0075228
0.00690993
0.00608781
0.00497338
0.00349627
0.00167775
0.000172097
0.000151168
0.00146488
0.00261772
0.00354515
0.00433762
0.00502266
0.00557553
0.00601884
0.00643682
0.006835
0.00720195
0.00751175
0.00771244
0.00783039
0.00794522
0.00811583
0.00829407
0.00847902
0.00863899
0.00872553
0.00867057
0.00849176
0.00819803
0.00776233
0.00714919
0.00630712
0.00519398
0.00373956
0.00186699
0.000191815
0.000166405
0.00154691
0.00281465
0.003826
0.00465975
0.00535317
0.00590007
0.00634585
0.00677856
0.00719027
0.00755857
0.00784897
0.00804274
0.00814819
0.00829268
0.00848024
0.00867079
0.00885066
0.00898807
0.00901126
0.00891978
0.00873139
0.00843908
0.00800622
0.00739289
0.00654609
0.00540927
0.00392119
0.00202115
0.0002131
0.000176387
0.00160766
0.00300491
0.00410453
0.0049852
0.00569943
0.00625939
0.00671787
0.00717632
0.0076105
0.00798769
0.0082693
0.00845759
0.00856639
0.00874666
0.0089456
0.00912645
0.00927443
0.00935675
0.00932278
0.00920786
0.00901278
0.00871381
0.00827463
0.00765904
0.00680476
0.00565886
0.00411715
0.00214668
0.00023154
0.00018678
0.0016937
0.00320804
0.00439345
0.00533189
0.00608268
0.00666328
0.00713948
0.00763001
0.00809362
0.00848629
0.0087677
0.00894325
0.00908832
0.00930273
0.00950607
0.00965636
0.00975622
0.00976836
0.0096956
0.00956527
0.00935648
0.00904146
0.00859319
0.00798169
0.00713409
0.00597507
0.0044355
0.00234541
0.000247227
0.000198412
0.0017703
0.00340998
0.00469445
0.0057027
0.00649402
0.00709989
0.0076078
0.00813705
0.00863421
0.00904814
0.00933948
0.00953294
0.00974839
0.00997136
0.0101516
0.0102561
0.0102957
0.0102448
0.0101492
0.0100058
0.00977858
0.00944625
0.00898943
0.00837788
0.00753027
0.00637368
0.00481938
0.00260281
0.000278194
0.000210816
0.00183464
0.00360223
0.00500038
0.00608129
0.0069192
0.00756446
0.00811888
0.00869207
0.00922403
0.00966922
0.00999646
0.0102557
0.0105105
0.0107312
0.0108733
0.0109352
0.0109031
0.0107983
0.0106891
0.0105333
0.0102891
0.00993712
0.00945607
0.00883533
0.00797349
0.00681037
0.00518278
0.00282297
0.000324524
0.000223048
0.00190309
0.00379802
0.00531216
0.00646696
0.00735573
0.00805552
0.00866824
0.00928335
0.00985045
0.0103416
0.010734
0.0110603
0.011342
0.0115527
0.0116666
0.0116912
0.0116211
0.0115014
0.0113586
0.0111674
0.0108945
0.0104994
0.00997106
0.00929368
0.00843727
0.00719835
0.00541188
0.00294548
0.000356263
0.000236278
0.00200199
0.00402601
0.00564731
0.00687297
0.00781259
0.00856743
0.00923898
0.00988636
0.0104898
0.0110429
0.0115173
0.0119114
0.0122111
0.012422
0.0125366
0.0125536
0.0124867
0.0123517
0.0121559
0.0119124
0.011593
0.0111388
0.0105571
0.00982681
0.00885786
0.00744853
0.00548377
0.0028797
0.000353624
0.000254501
0.00213687
0.00431696
0.00604355
0.00733554
0.00831249
0.00908878
0.00980535
0.0104627
0.0111079
0.0117392
0.0123081
0.0127767
0.0130959
0.0133313
0.0134919
0.0135226
0.0134381
0.0132577
0.0130156
0.0127267
0.0123583
0.0118443
0.0112049
0.0103548
0.00909903
0.00742385
0.00526072
0.00263718
0.000337074
0.000270345
0.00235771
0.00467674
0.00649364
0.00785131
0.00884001
0.00960229
0.010338
0.0109788
0.011669
0.0123892
0.0130644
0.0136165
0.0139821
0.0142522
0.014427
0.0144435
0.0143172
0.0140845
0.0138082
0.0134724
0.0130402
0.012462
0.0116983
0.0106152
0.00915748
0.00728928
0.0049853
0.0023431
0.000317679
0.000310799
0.00261568
0.00513723
0.00704859
0.00844414
0.00942964
0.0101539
0.0107661
0.0113851
0.0121447
0.0129579
0.0137316
0.014379
0.0148304
0.0151117
0.0151934
0.0151226
0.0149212
0.0146759
0.0143893
0.0140243
0.0135328
0.0128592
0.0119601
0.0107962
0.00927625
0.0072982
0.00488608
0.00219003
0.000301808
0.00032392
0.00281398
0.00535125
0.00723018
0.00858825
0.00957189
0.0103345
0.010985
0.0116894
0.0125515
0.0134149
0.0142475
0.0149513
0.0154374
0.0156185
0.0155804
0.0154184
0.0152148
0.0149807
0.0146952
0.0143206
0.0138146
0.0131334
0.0122278
0.0110521
0.00952639
0.00752079
0.00503079
0.00224717
0.000291797
0.00031911
0.00287498
0.00531031
0.0071355
0.00847612
0.00947097
0.010272
0.0110604
0.0119375
0.0128616
0.0137691
0.0146584
0.0153621
0.0157908