/*--------------------------------*- C++ -*----------------------------------*\
| =========                 |                                                 |
| \\      /  F ield         | OpenFOAM: The Open Source CFD Toolbox           |
|  \\    /   O peration     | Version:  v1606+                                |
|   \\  /    A nd           | Web:      www.OpenFOAM.com                      |
|    \\/     M anipulation  |                                                 |
\*---------------------------------------------------------------------------*/
FoamFile
{
    version     2.0;
    format      ascii;
    class       volVectorField;
    location    "0.64";
    object      U.air;
}
// * * * * * * * * * * * * * * * * * * * * * * * * * * * * * * * * * * * * * //

dimensions      [0 1 -1 0 0 0 0];

internalField   nonuniform List<vector> 
6000
(
(-0.0172378 0.224786 0)
(-0.00203855 0.187016 0)
(0.0107474 0.197383 0)
(0.0323883 0.204297 0)
(0.051484 0.210614 0)
(0.0604859 0.220932 0)
(0.0586593 0.21506 0)
(0.0539735 0.211368 0)
(0.0455941 0.200566 0)
(0.0422057 0.176801 0)
(0.0434435 0.163256 0)
(0.044977 0.160053 0)
(0.0327603 0.175275 0)
(0.0154264 0.157582 0)
(0.00347453 0.166596 0)
(-0.00595367 0.158145 0)
(-0.0187624 0.166917 0)
(-0.0392696 0.172473 0)
(-0.0470733 0.160765 0)
(-0.0494074 0.168866 0)
(-0.0509034 0.182251 0)
(-0.0557327 0.203975 0)
(-0.0643217 0.211176 0)
(-0.0684032 0.215886 0)
(-0.0699846 0.221204 0)
(-0.0592587 0.209189 0)
(-0.0376805 0.20211 0)
(-0.0138615 0.193646 0)
(0.00130202 0.183476 0)
(0.0182539 0.226822 0)
(0.00302794 0.921348 0)
(-0.0193769 0.917348 0)
(0.00971632 0.888127 0)
(0.066329 0.872534 0)
(0.123064 0.884221 0)
(0.157519 0.911046 0)
(0.161726 0.938217 0)
(0.145292 0.957192 0)
(0.123419 0.974337 0)
(0.0947355 0.990171 0)
(0.049853 1.00537 0)
(0.00308046 1.01097 0)
(-0.020462 1.01945 0)
(-0.0228244 1.01828 0)
(-0.0078324 1.01077 0)
(0.0153705 1.00918 0)
(0.0228042 1.02518 0)
(0.0142859 1.01834 0)
(-0.0192674 1.01413 0)
(-0.0687664 1.00586 0)
(-0.110139 0.988013 0)
(-0.138137 0.971261 0)
(-0.160137 0.954458 0)
(-0.175362 0.934484 0)
(-0.167805 0.907306 0)
(-0.130309 0.880389 0)
(-0.0720688 0.869947 0)
(-0.0144628 0.887994 0)
(0.0149819 0.915211 0)
(-0.00433001 0.91909 0)
(-0.0317773 0.794146 0)
(-0.0463333 0.69475 0)
(-0.00107616 0.626951 0)
(0.054437 0.602513 0)
(0.118293 0.63454 0)
(0.170329 0.702754 0)
(0.189772 0.760448 0)
(0.177107 0.785131 0)
(0.145619 0.800445 0)
(0.106049 0.809199 0)
(0.0525408 0.820334 0)
(0.000999346 0.814985 0)
(-0.0332354 0.77857 0)
(-0.0373411 0.732663 0)
(-0.00887963 0.699505 0)
(0.025716 0.707356 0)
(0.0389195 0.751666 0)
(0.0230627 0.795205 0)
(-0.0207631 0.826918 0)
(-0.0737095 0.821911 0)
(-0.125777 0.810683 0)
(-0.16313 0.797856 0)
(-0.192102 0.782949 0)
(-0.200879 0.753959 0)
(-0.177241 0.695396 0)
(-0.123668 0.627638 0)
(-0.0601656 0.597009 0)
(-0.00403524 0.6215 0)
(0.043926 0.686669 0)
(0.0320983 0.791124 0)
(0.00146226 0.897752 0)
(-0.0173303 0.783319 0)
(-0.0131595 0.698256 0)
(-0.00460859 0.655934 0)
(0.0219358 0.653655 0)
(0.0710345 0.6984 0)
(0.116326 0.767601 0)
(0.138578 0.814381 0)
(0.139517 0.847757 0)
(0.118683 0.874959 0)
(0.0632998 0.900835 0)
(-0.00606654 0.885148 0)
(-0.0612303 0.838651 0)
(-0.0664833 0.774277 0)
(-0.0163996 0.717404 0)
(0.0470142 0.741726 0)
(0.0726058 0.80422 0)
(0.0444325 0.862178 0)
(-0.0209234 0.899986 0)
(-0.0885764 0.899173 0)
(-0.135254 0.87292 0)
(-0.149477 0.840936 0)
(-0.145197 0.809944 0)
(-0.121069 0.759378 0)
(-0.0746394 0.692562 0)
(-0.0274554 0.652249 0)
(-0.00331125 0.654293 0)
(0.00576985 0.694451 0)
(0.0128842 0.774312 0)
(-0.00170093 0.892968 0)
(-0.00803153 0.992228 0)
(-0.0283773 0.88814 0)
(-0.0487621 0.776301 0)
(-0.0637026 0.711945 0)
(-0.0640539 0.67828 0)
(-0.0457688 0.704168 0)
(-0.0175538 0.76953 0)
(0.0133068 0.8197 0)
(0.0340845 0.865142 0)
(0.031124 0.918366 0)
(-0.00170722 0.974206 0)
(-0.0613424 0.964113 0)
(-0.114546 0.872135 0)
(-0.102916 0.724652 0)
(-0.0259813 0.626501 0)
(0.066366 0.661211 0)
(0.117728 0.78962 0)
(0.096412 0.916806 0)
(0.0329972 0.982774 0)
(-0.0194792 0.964194 0)
(-0.040974 0.908047 0)
(-0.0371323 0.855328 0)
(-0.0151288 0.817264 0)
(0.0132523 0.763951 0)
(0.0393406 0.700043 0)
(0.0557241 0.682101 0)
(0.0537028 0.712607 0)
(0.0394447 0.771645 0)
(0.0233103 0.874645 0)
(0.00740221 0.984645 0)
(-0.0404453 1.13296 0)
(-0.0948105 1.01025 0)
(-0.133508 0.913473 0)
(-0.157615 0.86064 0)
(-0.160122 0.81009 0)
(-0.141001 0.80802 0)
(-0.114693 0.832907 0)
(-0.0911921 0.8579 0)
(-0.090113 0.914287 0)
(-0.101906 0.974533 0)
(-0.106879 1.03008 0)
(-0.11416 1.02531 0)
(-0.120862 0.908173 0)
(-0.0904882 0.693338 0)
(-0.0203482 0.570697 0)
(0.0568404 0.612536 0)
(0.105769 0.792377 0)
(0.109518 0.970685 0)
(0.0982683 1.04356 0)
(0.0968395 1.01408 0)
(0.0950786 0.961341 0)
(0.0840764 0.901656 0)
(0.0876265 0.861792 0)
(0.10991 0.838439 0)
(0.135932 0.811553 0)
(0.151336 0.817278 0)
(0.143226 0.856196 0)
(0.117274 0.900343 0)
(0.0817949 0.982598 0)
(0.0349709 1.11424 0)
(-0.0129304 0.98353 0)
(-0.0449786 0.88366 0)
(-0.0831157 0.811294 0)
(-0.112748 0.790049 0)
(-0.162687 0.783555 0)
(-0.20668 0.852931 0)
(-0.189718 0.92967 0)
(-0.150036 0.989831 0)
(-0.146355 1.03639 0)
(-0.167189 1.06355 0)
(-0.16456 1.08774 0)
(-0.137158 1.07121 0)
(-0.108021 0.93704 0)
(-0.0680883 0.683274 0)
(-0.0112749 0.54786 0)
(0.0465786 0.599394 0)
(0.080262 0.811468 0)
(0.0970827 1.01514 0)
(0.129359 1.08964 0)
(0.158096 1.07334 0)
(0.158661 1.05848 0)
(0.143066 1.03083 0)
(0.15177 0.993813 0)
(0.183409 0.925279 0)
(0.182212 0.835847 0)
(0.133817 0.774874 0)
(0.0897355 0.776796 0)
(0.0649304 0.795457 0)
(0.0325336 0.855423 0)
(0.00684543 0.958923 0)
(0.0211623 1.0208 0)
(0.0401556 0.938632 0)
(0.0266185 0.837074 0)
(0.0308952 0.795238 0)
(0.0270187 0.800322 0)
(0.00305426 0.781215 0)
(-0.0278217 0.818306 0)
(-0.0875784 0.947105 0)
(-0.142417 1.10365 0)
(-0.168084 1.16913 0)
(-0.164289 1.18256 0)
(-0.136557 1.15143 0)
(-0.129947 1.01288 0)
(-0.109339 0.703331 0)
(-0.0136246 0.512487 0)
(0.0883649 0.594939 0)
(0.112382 0.889219 0)
(0.090553 1.0981 0)
(0.115612 1.16255 0)
(0.154877 1.16274 0)
(0.158597 1.14703 0)
(0.12337 1.06516 0)
(0.0569603 0.920009 0)
(-0.0088655 0.815737 0)
(-0.0512518 0.793282 0)
(-0.0795526 0.800745 0)
(-0.0747621 0.785776 0)
(-0.0564508 0.817174 0)
(-0.055473 0.89953 0)
(-0.027403 0.985844 0)
(0.0361691 0.778963 0)
(0.0840999 0.736922 0)
(0.148808 0.674266 0)
(0.257584 0.625983 0)
(0.393091 0.696584 0)
(0.481636 0.798739 0)
(0.448119 0.934113 0)
(0.29813 1.02172 0)
(0.114316 1.01189 0)
(0.014492 1.01753 0)
(-0.0358286 1.02671 0)
(-0.0606993 1.02543 0)
(-0.132406 0.960366 0)
(-0.198323 0.653844 0)
(-0.0384596 0.369893 0)
(0.166617 0.524186 0)
(0.151709 0.851117 0)
(0.0389365 0.997513 0)
(0.00957234 1.00027 0)
(0.00817438 0.993097 0)
(-0.0380685 0.999901 0)
(-0.174491 1.02529 0)
(-0.383751 1.03733 0)
(-0.528218 0.939065 0)
(-0.544248 0.79216 0)
(-0.442646 0.674985 0)
(-0.299033 0.59691 0)
(-0.176132 0.631643 0)
(-0.0968828 0.694273 0)
(-0.0412133 0.736586 0)
(0.0113643 0.722898 0)
(0.0496851 0.677857 0)
(0.150562 0.52547 0)
(0.285387 0.427116 0)
(0.444261 0.454144 0)
(0.611562 0.559427 0)
(0.755174 0.822678 0)
(0.764724 1.04873 0)
(0.605454 1.19176 0)
(0.338532 1.13517 0)
(0.122339 1.11126 0)
(-0.0302428 1.03939 0)
(-0.151478 0.969856 0)
(-0.199838 0.554019 0)
(-0.0589736 0.1296 0)
(0.110244 0.362254 0)
(0.171459 0.877828 0)
(0.0468984 1.02654 0)
(-0.0704366 1.03425 0)
(-0.219462 1.03309 0)
(-0.436464 1.15103 0)
(-0.698655 1.19785 0)
(-0.820497 1.02254 0)
(-0.790829 0.795178 0)
(-0.63992 0.545157 0)
(-0.476116 0.438079 0)
(-0.320897 0.401386 0)
(-0.184194 0.477067 0)
(-0.0711355 0.625913 0)
(-0.0175695 0.672457 0)
(0.00527779 0.705395 0)
(0.0714158 0.599487 0)
(0.175209 0.423815 0)
(0.261684 0.328018 0)
(0.355638 0.322509 0)
(0.462772 0.37794 0)
(0.605731 0.618974 0)
(0.69649 0.900532 0)
(0.667645 1.19516 0)
(0.459262 1.2378 0)
(0.223889 1.15726 0)
(0.0104999 1.06444 0)
(-0.142618 0.936881 0)
(-0.197925 0.539421 0)
(-0.0851068 -0.031481 0)
(-0.0028928 0.235967 0)
(0.103544 0.801083 0)
(0.0126213 0.993084 0)
(-0.142981 1.04706 0)
(-0.356518 1.12683 0)
(-0.573056 1.22003 0)
(-0.739157 1.16361 0)
(-0.730431 0.862415 0)
(-0.635188 0.596994 0)
(-0.494385 0.37076 0)
(-0.391179 0.312408 0)
(-0.296829 0.30249 0)
(-0.208403 0.371781 0)
(-0.0985483 0.527988 0)
(-0.0144676 0.638765 0)
(0.0314936 0.662813 0)
(0.114532 0.504639 0)
(0.192578 0.362052 0)
(0.236704 0.282515 0)
(0.277397 0.260155 0)
(0.322589 0.288811 0)
(0.386607 0.485218 0)
(0.453066 0.806106 0)
(0.464431 1.22091 0)
(0.323767 1.32617 0)
(0.146041 1.26142 0)
(-0.0410472 1.12883 0)
(-0.150679 0.883063 0)
(-0.135491 0.364116 0)
(-0.0704175 -0.129349 0)
(-0.0671827 0.0565415 0)
(0.0516986 0.682804 0)
(0.0337165 0.987652 0)
(-0.0958554 1.12126 0)
(-0.271934 1.21983 0)
(-0.425767 1.28804 0)
(-0.5311 1.1654 0)
(-0.495437 0.756483 0)
(-0.429363 0.464167 0)
(-0.363071 0.282177 0)
(-0.314205 0.245987 0)
(-0.267736 0.250757 0)
(-0.217977 0.305104 0)
(-0.137042 0.42611 0)
(-0.0435193 0.575419 0)
(0.0441791 0.589417 0)
(0.117851 0.439472 0)
(0.167331 0.328753 0)
(0.1869 0.261866 0)
(0.19814 0.23033 0)
(0.205264 0.246167 0)
(0.2265 0.421247 0)
(0.251153 0.751848 0)
(0.261933 1.25871 0)
(0.167682 1.46136 0)
(0.0137265 1.4267 0)
(-0.145104 1.26021 0)
(-0.188193 0.896569 0)
(-0.106643 0.336614 0)
(-0.0617276 -0.136906 0)
(-0.0870254 -0.00690181 0)
(0.0255303 0.625392 0)
(0.103067 1.04257 0)
(0.0156387 1.25838 0)
(-0.132634 1.36929 0)
(-0.262277 1.39458 0)
(-0.326605 1.17183 0)
(-0.300256 0.694188 0)
(-0.275584 0.395014 0)
(-0.246235 0.232499 0)
(-0.232905 0.209054 0)
(-0.216202 0.223135 0)
(-0.191057 0.266168 0)
(-0.13805 0.355355 0)
(-0.0542674 0.483787 0)
(0.0354751 0.539678 0)
(0.0851819 0.399136 0)
(0.111769 0.312559 0)
(0.114575 0.255603 0)
(0.109327 0.219268 0)
(0.102621 0.230911 0)
(0.107238 0.389023 0)
(0.115698 0.725748 0)
(0.126429 1.28039 0)
(0.0571942 1.56941 0)
(-0.0869246 1.56958 0)
(-0.219669 1.35548 0)
(-0.19145 0.847529 0)
(-0.0682158 0.237201 0)
(-0.0513921 -0.112497 0)
(-0.0915266 -0.0271091 0)
(-0.0124966 0.50384 0)
(0.141012 1.04194 0)
(0.111795 1.36714 0)
(-0.0209277 1.49352 0)
(-0.138128 1.47249 0)
(-0.175481 1.16366 0)
(-0.155542 0.654812 0)
(-0.148351 0.350781 0)
(-0.136606 0.2103 0)
(-0.141539 0.199206 0)
(-0.145114 0.216732 0)
(-0.139005 0.245891 0)
(-0.107832 0.3078 0)
(-0.0450212 0.415242 0)
(0.0275652 0.506639 0)
(0.0542184 0.385494 0)
(0.0558337 0.323264 0)
(0.035261 0.281728 0)
(0.00169027 0.242435 0)
(-0.0184995 0.223757 0)
(0.00579834 0.357867 0)
(0.0306551 0.700927 0)
(0.0482661 1.2827 0)
(0.00489905 1.66346 0)
(-0.125957 1.6942 0)
(-0.207687 1.39469 0)
(-0.126 0.75302 0)
(-0.0325835 0.169523 0)
(-0.0412208 -0.0824862 0)
(-0.097287 -0.0206612 0)
(-0.0583157 0.403736 0)
(0.108049 0.983227 0)
(0.141801 1.44214 0)
(0.0344964 1.60713 0)
(-0.0746043 1.54186 0)
(-0.0892708 1.14558 0)
(-0.0533621 0.669984 0)
(-0.0139723 0.319006 0)
(-0.0217757 0.212731 0)
(-0.0442967 0.211829 0)
(-0.0628938 0.22766 0)
(-0.0762451 0.245896 0)
(-0.0713476 0.280905 0)
(-0.0356716 0.361655 0)
(0.0242257 0.480692 0)
(0.0403367 0.385125 0)
(0.0275819 0.341969 0)
(-0.000915873 0.315472 0)
(-0.0413215 0.286132 0)
(-0.0781006 0.24918 0)
(-0.10988 0.314643 0)
(-0.0387073 0.711652 0)
(0.0324576 1.27089 0)
(0.01722 1.74047 0)
(-0.104213 1.79705 0)
(-0.154982 1.38394 0)
(-0.0606962 0.699704 0)
(-0.00167613 0.145656 0)
(-0.0275325 -0.0413489 0)
(-0.101911 0.0125919 0)
(-0.0815135 0.308897 0)
(0.0341095 0.875534 0)
(0.0989427 1.47205 0)
(0.0246539 1.70391 0)
(-0.0635799 1.58956 0)
(-0.0313119 1.1077 0)
(0.0657852 0.601553 0)
(0.0996259 0.294243 0)
(0.0821185 0.23527 0)
(0.051377 0.237461 0)
(0.0246581 0.254043 0)
(0.000225622 0.272309 0)
(-0.0156446 0.296397 0)
(-0.0142961 0.341049 0)
(0.0164866 0.464814 0)
(0.0199201 0.405343 0)
(-0.00758223 0.374258 0)
(-0.0425473 0.353643 0)
(-0.0839347 0.336787 0)
(-0.132166 0.318883 0)
(-0.156311 0.323847 0)
(-0.151107 0.616451 0)
(0.0023727 1.22497 0)
(0.057171 1.80257 0)
(-0.0348493 1.89181 0)
(-0.0825115 1.36652 0)
(-0.00785687 0.618335 0)
(0.0182597 0.138175 0)
(-0.0282589 0.0026654 0)
(-0.102284 0.0445078 0)
(-0.116959 0.272901 0)
(-0.0602588 0.854854 0)
(0.0100894 1.48087 0)
(-0.0349645 1.77777 0)
(-0.0528811 1.59355 0)
(0.0607112 1.02037 0)
(0.173485 0.524305 0)
(0.190043 0.309144 0)
(0.159515 0.274831 0)
(0.119846 0.268854 0)
(0.0802204 0.284151 0)
(0.0450195 0.301595 0)
(0.0128756 0.32832 0)
(-0.000787203 0.364336 0)
(0.00732724 0.469365 0)
(-0.00630432 0.436015 0)
(-0.0442888 0.412557 0)
(-0.0900113 0.391353 0)
(-0.13928 0.378028 0)
(-0.195295 0.375058 0)
(-0.237772 0.39848 0)
(-0.230425 0.554949 0)
(-0.124666 1.11164 0)
(0.0493033 1.8079 0)
(0.0568095 1.96727 0)
(0.0147499 1.37619 0)
(0.0451369 0.573042 0)
(0.0411627 0.154112 0)
(-0.0135107 0.0671529 0)
(-0.103982 0.0996767 0)
(-0.145524 0.269399 0)
(-0.136989 0.801193 0)
(-0.0998137 1.49103 0)
(-0.110411 1.81969 0)
(-0.0236585 1.52032 0)
(0.171803 0.950894 0)
(0.280097 0.476638 0)
(0.295401 0.355448 0)
(0.260637 0.324018 0)
(0.20601 0.315984 0)
(0.142262 0.33118 0)
(0.0888593 0.341403 0)
(0.0356754 0.373504 0)
(0.00262133 0.38016 0)
(-0.00199302 0.478229 0)
(-0.0292055 0.474868 0)
(-0.08168 0.461718 0)
(-0.144757 0.442156 0)
(-0.216028 0.436536 0)
(-0.288823 0.438106 0)
(-0.344969 0.464233 0)
(-0.330311 0.570599 0)
(-0.259932 1.0286 0)
(-0.0393629 1.69904 0)
(0.114274 1.97861 0)
(0.115513 1.40527 0)
(0.0915748 0.568675 0)
(0.0698261 0.183916 0)
(0.0110975 0.144716 0)
(-0.100216 0.176942 0)
(-0.162208 0.311813 0)
(-0.218139 0.826399 0)
(-0.238441 1.51091 0)
(-0.174021 1.78116 0)
(0.0402892 1.35367 0)
(0.287019 0.790551 0)
(0.422973 0.444983 0)
(0.450593 0.387733 0)
(0.401725 0.371157 0)
(0.323365 0.351496 0)
(0.212831 0.381139 0)
(0.131862 0.386047 0)
(0.0630637 0.424121 0)
(0.0210349 0.397176 0)
(-0.00870539 0.489871 0)
(-0.0521802 0.514652 0)
(-0.124021 0.517695 0)
(-0.207559 0.516136 0)
(-0.326836 0.514389 0)
(-0.43068 0.520743 0)
(-0.501557 0.534589 0)
(-0.508249 0.595772 0)
(-0.413623 0.930729 0)
(-0.192761 1.5962 0)
(0.0881721 1.89535 0)
(0.176868 1.50963 0)
(0.14201 0.604789 0)
(0.106407 0.231313 0)
(0.0450003 0.238966 0)
(-0.0868312 0.278444 0)
(-0.180188 0.408535 0)
(-0.302442 0.936861 0)
(-0.348783 1.54633 0)
(-0.190554 1.63932 0)
(0.12683 1.18891 0)
(0.414919 0.638384 0)
(0.512816 0.440811 0)
(0.504053 0.458625 0)
(0.460855 0.474175 0)
(0.344553 0.49626 0)
(0.258324 0.51804 0)
(0.206043 0.48504 0)
(0.116391 0.484505 0)
(0.0544492 0.464732 0)
(-0.0362495 0.509562 0)
(-0.10911 0.576907 0)
(-0.193003 0.590226 0)
(-0.31258 0.589445 0)
(-0.496464 0.589478 0)
(-0.604925 0.576482 0)
(-0.673611 0.600712 0)
(-0.696839 0.632 0)
(-0.613753 0.856837 0)
(-0.382353 1.39119 0)
(-0.0248812 1.7972 0)
(0.175236 1.51755 0)
(0.174921 0.663871 0)
(0.130124 0.294671 0)
(0.0775501 0.345757 0)
(-0.0670689 0.40601 0)
(-0.201524 0.563744 0)
(-0.375058 1.09049 0)
(-0.391623 1.57767 0)
(-0.141205 1.46237 0)
(0.285836 0.943306 0)
(0.422937 0.578841 0)
(0.450121 0.539225 0)
(0.387287 0.566434 0)
(0.293358 0.596753 0)
(0.212796 0.596437 0)
(0.164918 0.577948 0)
(0.135508 0.559814 0)
(0.0904457 0.573762 0)
(0.0535954 0.562436 0)
(-0.0671018 0.589016 0)
(-0.162001 0.606456 0)
(-0.282508 0.635074 0)
(-0.393381 0.761735 0)
(-0.489878 0.767822 0)
(-0.649805 0.672444 0)
(-0.737659 0.658249 0)
(-0.80514 0.696697 0)
(-0.790039 0.810271 0)
(-0.572159 1.18935 0)
(-0.163476 1.56521 0)
(0.121607 1.49191 0)
(0.171484 0.746416 0)
(0.119867 0.362193 0)
(0.0914724 0.449141 0)
(-0.0472922 0.553702 0)
(-0.216005 0.763472 0)
(-0.389512 1.23642 0)
(-0.3128 1.49893 0)
(0.0719356 1.1813 0)
(0.398384 0.825554 0)
(0.485066 0.701019 0)
(0.456367 0.683307 0)
(0.35023 0.704087 0)
(0.256906 0.730706 0)
(0.18067 0.723369 0)
(0.111838 0.693806 0)
(0.0550207 0.658755 0)
(0.0353722 0.632166 0)
(0.00815686 0.66655 0)
(-0.0394567 0.630621 0)
(-0.107306 0.712187 0)
(-0.20421 0.784692 0)
(-0.274034 0.841209 0)
(-0.312796 0.863881 0)
(-0.399105 0.870552 0)
(-0.630269 0.799373 0)
(-0.745752 0.792617 0)
(-0.792052 0.838221 0)
(-0.688118 1.01599 0)
(-0.313752 1.32759 0)
(0.0245566 1.4273 0)
(0.137063 0.827445 0)
(0.0920701 0.426367 0)
(0.0725484 0.527105 0)
(-0.043568 0.713866 0)
(-0.216064 0.970628 0)
(-0.327253 1.32515 0)
(-0.122546 1.32694 0)
(0.260463 0.980209 0)
(0.459613 0.837503 0)
(0.527421 0.802224 0)
(0.464765 0.800857 0)
(0.36585 0.823083 0)
(0.26368 0.843626 0)
(0.166525 0.834104 0)
(0.0821803 0.791835 0)
(0.0171177 0.75065 0)
(-0.0288291 0.717904 0)
(-0.0291287 0.740381 0)
(0.0113942 0.682134 0)
(-0.101025 0.743276 0)
(-0.120574 0.849157 0)
(-0.171983 0.952841 0)
(-0.247717 1.0163 0)
(-0.317603 1.06147 0)
(-0.456291 1.04918 0)
(-0.636512 0.94227 0)
(-0.713957 0.921689 0)
(-0.694931 0.946298 0)
(-0.481041 1.10176 0)
(-0.112575 1.27589 0)
(0.0617751 0.875084 0)
(0.0395741 0.472752 0)
(0.0315897 0.580462 0)
(-0.05884 0.86131 0)
(-0.201663 1.11875 0)
(-0.192282 1.29414 0)
(0.117187 1.10325 0)
(0.365848 0.900166 0)
(0.520408 0.859303 0)
(0.530633 0.862352 0)
(0.478702 0.888695 0)
(0.395181 0.924164 0)
(0.285163 0.955253 0)
(0.152842 0.951412 0)
(0.0492795 0.882409 0)
(-0.00363703 0.822456 0)
(-0.0339623 0.778188 0)
(-0.0259828 0.767214 0)
(0.00569373 0.727103 0)
(-0.0474002 0.844453 0)
(-0.0946477 0.966506 0)
(-0.150716 1.0751 0)
(-0.237057 1.15722 0)
(-0.332271 1.21326 0)
(-0.398578 1.24155 0)
(-0.525247 1.12138 0)
(-0.621757 1.01697 0)
(-0.65125 0.942858 0)
(-0.554706 0.951655 0)
(-0.306964 1.05156 0)
(-0.0575115 0.844989 0)
(-0.0367412 0.481528 0)
(-0.0199007 0.593628 0)
(-0.0826476 0.970113 0)
(-0.169403 1.1472 0)
(-0.0140353 1.13282 0)
(0.242086 0.936211 0)
(0.46867 0.836283 0)
(0.54503 0.855375 0)
(0.546021 0.898174 0)
(0.507841 0.946397 0)
(0.440485 0.997373 0)
(0.326551 1.05903 0)
(0.148141 1.07427 0)
(0.0070191 0.940723 0)
(-0.0346513 0.858906 0)
(-0.034903 0.812381 0)
(-0.0175509 0.76395 0)
(-0.00803185 0.805431 0)
(-0.0520297 0.944982 0)
(-0.093631 1.06147 0)
(-0.137979 1.1619 0)
(-0.228973 1.2772 0)
(-0.34661 1.3287 0)
(-0.39969 1.33506 0)
(-0.451138 1.27772 0)
(-0.544754 1.12446 0)
(-0.598196 0.969703 0)
(-0.564132 0.87107 0)
(-0.4341 0.862724 0)
(-0.205305 0.726975 0)
(-0.128006 0.452992 0)
(-0.110557 0.5849 0)
(-0.107339 1.03883 0)
(-0.0670787 1.08547 0)
(0.112548 0.952209 0)
(0.374154 0.76953 0)
(0.521677 0.783578 0)
(0.564506 0.848434 0)
(0.562651 0.912412 0)
(0.530597 0.966463 0)
(0.471812 1.02033 0)
(0.343691 1.10113 0)
(0.163555 1.11917 0)
(0.0126987 0.942009 0)
(-0.0235223 0.83201 0)
(-0.0278541 0.805343 0)
(-0.0174241 0.752225 0)
(-0.0198343 0.906933 0)
(-0.0744799 1.05103 0)
(-0.123695 1.12181 0)
(-0.166995 1.20324 0)
(-0.233991 1.35869 0)
(-0.330294 1.40257 0)
(-0.383703 1.39259 0)
(-0.420973 1.35559 0)
(-0.487711 1.2277 0)
(-0.55351 1.0074 0)
(-0.555721 0.835957 0)
(-0.474628 0.732109 0)
(-0.320164 0.598278 0)
(-0.216182 0.401533 0)
(-0.206438 0.539581 0)
(-0.0905379 0.924962 0)
(0.0246907 0.976616 0)
(0.245957 0.717299 0)
(0.459093 0.672396 0)
(0.542716 0.748665 0)
(0.570488 0.834842 0)
(0.548456 0.910239 0)
(0.497718 0.953294 0)
(0.408016 1.01318 0)
(0.283159 1.1834 0)
(0.233664 1.19943 0)
(0.134569 0.989339 0)
(0.102426 0.770227 0)
(0.0620982 0.780021 0)
(0.0222423 0.72388 0)
(-0.0572027 0.948179 0)
(-0.163999 1.08669 0)
(-0.25865 1.10777 0)
(-0.279931 1.21228 0)
(-0.2633 1.35956 0)
(-0.228809 1.42516 0)
(-0.260268 1.44699 0)
(-0.360489 1.4598 0)
(-0.475312 1.32125 0)
(-0.534371 1.02931 0)
(-0.548028 0.807232 0)
(-0.487991 0.641224 0)
(-0.381054 0.490713 0)
(-0.285467 0.339525 0)
(-0.235632 0.459979 0)
(-0.132549 0.810534 0)
(0.103045 0.796877 0)
(0.354771 0.557806 0)
(0.491988 0.612446 0)
(0.550296 0.716911 0)
(0.550197 0.815375 0)
(0.487087 0.899126 0)
(0.379048 0.989372 0)
(0.225387 1.10031 0)
(0.140258 1.17981 0)
(0.212383 1.12845 0)
(0.303495 1.03457 0)
(0.332367 0.876759 0)
(0.202898 0.888191 0)
(0.13278 0.746661 0)
(-0.210259 1.07216 0)
(-0.252119 1.18687 0)
(-0.325879 1.12918 0)
(-0.275435 1.17304 0)
(-0.210356 1.23388 0)
(-0.120279 1.30541 0)
(-0.111261 1.37373 0)
(-0.259632 1.39155 0)
(-0.462432 1.29454 0)
(-0.511103 1.04942 0)
(-0.541185 0.757353 0)
(-0.501801 0.561892 0)
(-0.419201 0.400519 0)
(-0.335472 0.276908 0)
(-0.2641 0.372176 0)
(-0.0936265 0.663567 0)
(0.188294 0.515094 0)
(0.397618 0.464535 0)
(0.489808 0.568384 0)
(0.522741 0.67476 0)
(0.476942 0.779296 0)
(0.398681 0.938245 0)
(0.30865 0.967926 0)
(0.140398 1.03641 0)
(0.0605649 1.03348 0)
(0.120015 0.928565 0)
(0.22023 0.837807 0)
(0.261336 0.740722 0)
(0.156293 0.836934 0)
(0.0911467 0.85646 0)
(0.0186991 1.15317 0)
(0.058042 1.09726 0)
(-0.0234182 0.954308 0)
(-0.0724472 0.98841 0)
(-0.072009 1.03627 0)
(-0.0616459 1.12034 0)
(-0.120778 1.34547 0)
(-0.252796 1.48724 0)
(-0.37909 1.198 0)
(-0.490631 0.83568 0)
(-0.49359 0.70287 0)
(-0.500542 0.477563 0)
(-0.44264 0.320668 0)
(-0.355874 0.211922 0)
(-0.263281 0.244619 0)
(-0.000414259 0.438556 0)
(0.238237 0.34117 0)
(0.384858 0.399489 0)
(0.452601 0.508582 0)
(0.426539 0.615506 0)
(0.421448 0.735055 0)
(0.449179 0.807643 0)
(0.31761 1.02025 0)
(0.194184 1.14159 0)
(0.11908 1.06115 0)
(0.0647589 0.893788 0)
(0.00802049 0.843407 0)
(-0.0872123 0.858543 0)
(-0.134795 0.900082 0)
(-0.0616676 0.801373 0)
(0.118407 0.843623 0)
(0.277892 0.968089 0)
(0.218476 1.05148 0)
(0.0591099 1.04702 0)
(-0.0828611 1.05629 0)
(-0.210645 1.14903 0)
(-0.284478 1.27478 0)
(-0.268573 1.32142 0)
(-0.250988 1.17609 0)
(-0.368179 0.889734 0)
(-0.51544 0.532338 0)
(-0.473972 0.38151 0)
(-0.440872 0.219545 0)
(-0.348808 0.126474 0)
(-0.213776 0.111864 0)
(0.0143472 0.20361 0)
(0.223882 0.215954 0)
(0.34145 0.31109 0)
(0.365482 0.418192 0)
(0.420697 0.513337 0)
(0.432149 0.558155 0)
(0.322982 0.798518 0)
(0.248699 0.934058 0)
(0.239999 0.995895 0)
(0.21582 0.957341 0)
(0.115981 0.867086 0)
(-0.0284215 0.811789 0)
(-0.159092 0.728519 0)
(-0.169337 0.612592 0)
(-0.0574686 0.510151 0)
(0.101256 0.528534 0)
(0.189028 0.784398 0)
(0.122749 0.981768 0)
(-0.00524208 1.01224 0)
(-0.146723 1.02491 0)
(-0.267882 1.06784 0)
(-0.31451 1.11869 0)
(-0.268877 1.09551 0)
(-0.199523 0.947547 0)
(-0.206622 0.74503 0)
(-0.361054 0.545406 0)
(-0.570083 0.273103 0)
(-0.451202 0.102583 0)
(-0.325649 -0.00979867 0)
(-0.181905 -0.0337761 0)
(0.0110338 0.0160986 0)
(0.187638 0.0792159 0)
(0.288686 0.172405 0)
(0.424332 0.270526 0)
(0.442133 0.38559 0)
(0.291267 0.526021 0)
(0.218849 0.667779 0)
(0.229244 0.816757 0)
(0.250387 0.911353 0)
(0.237003 0.923229 0)
(0.163888 0.88549 0)
(0.0567936 0.851423 0)
(-0.0466226 0.774938 0)
(-0.100462 0.586569 0)
(-0.0550951 0.434158 0)
(0.0895274 0.442014 0)
(0.110284 0.836722 0)
(0.00982524 1.09334 0)
(-0.0788876 1.13669 0)
(-0.183045 1.14265 0)
(-0.265888 1.14653 0)
(-0.295845 1.13307 0)
(-0.265721 1.05951 0)
(-0.21895 0.91326 0)
(-0.201439 0.7248 0)
(-0.241693 0.499036 0)
(-0.424389 0.24126 0)
(-0.457059 -0.122902 0)
(-0.307381 -0.190851 0)
(-0.160962 -0.186661 0)
(0.0124832 -0.15052 0)
(0.161508 -0.0937348 0)
(0.352422 -0.00837454 0)
(0.478168 0.130619 0)
(0.328556 0.328423 0)
(0.246193 0.49415 0)
(0.229757 0.66463 0)
(0.238145 0.814053 0)
(0.24775 0.923603 0)
(0.234301 0.973197 0)
(0.182826 0.977723 0)
(0.107426 0.953874 0)
(0.0267616 0.867537 0)
(-0.069312 0.618436 0)
(-0.0688147 0.355864 0)
(0.0696631 0.337562 0)
(0.0534266 0.905943 0)
(-0.0623132 1.1714 0)
(-0.121992 1.22265 0)
(-0.198058 1.22407 0)
(-0.253278 1.19527 0)
(-0.274201 1.13486 0)
(-0.259523 1.03215 0)
(-0.233492 0.894491 0)
(-0.218829 0.737384 0)
(-0.223708 0.532943 0)
(-0.300064 0.226064 0)
(-0.412332 -0.19623 0)
(-0.295764 -0.369625 0)
(-0.128374 -0.335745 0)
(0.00740316 -0.306711 0)
(0.16468 -0.309724 0)
(0.422761 -0.249037 0)
(0.377118 0.075641 0)
(0.274763 0.335832 0)
(0.251913 0.524843 0)
(0.242768 0.675555 0)
(0.241651 0.812534 0)
(0.240318 0.927082 0)
(0.225783 1.00059 0)
(0.188279 1.03119 0)
(0.131565 1.01952 0)
(0.0737482 0.94813 0)
(-0.038989 0.691406 0)
(-0.067774 0.285258 0)
(0.0321281 0.291998 0)
(0.00698432 0.997793 0)
(-0.0998396 1.23879 0)
(-0.143907 1.28371 0)
(-0.202165 1.27664 0)
(-0.24132 1.22678 0)
(-0.260013 1.13939 0)
(-0.256458 1.01763 0)
(-0.242414 0.878284 0)
(-0.230559 0.735712 0)
(-0.228623 0.558352 0)
(-0.27422 0.268196 0)
(-0.449332 -0.196013 0)
(-0.313638 -0.4757 0)
(-0.114441 -0.478121 0)
(0.0432049 -0.464012 0)
(0.231439 -0.540977 0)
(0.444219 -0.336872 0)
(0.300633 0.0761111 0)
(0.252548 0.361311 0)
(0.249523 0.540537 0)
(0.246371 0.68097 0)
(0.242603 0.81576 0)
(0.235113 0.936061 0)
(0.218575 1.02364 0)
(0.189634 1.07093 0)
(0.143297 1.07158 0)
(0.101186 1.01609 0)
(-0.00842192 0.782316 0)
(-0.0436281 0.235275 0)
(-0.00243123 0.283503 0)
(-0.0273337 1.07286 0)
(-0.110903 1.29581 0)
(-0.152922 1.33396 0)
(-0.201307 1.31738 0)
(-0.233434 1.2527 0)
(-0.251536 1.14712 0)
(-0.251103 1.01079 0)
(-0.237494 0.865664 0)
(-0.218216 0.728778 0)
(-0.20304 0.571805 0)
(-0.216318 0.311794 0)
(-0.382085 -0.152886 0)
(-0.278351 -0.666281 0)
(-0.194667 -0.553584 0)
(0.214163 -0.557168 0)
(0.30835 -0.761377 0)
(0.398348 -0.341877 0)
(0.237287 0.101725 0)
(0.218759 0.372042 0)
(0.230391 0.540633 0)
(0.238882 0.681038 0)
(0.239485 0.819706 0)
(0.231878 0.94768 0)
(0.214217 1.04493 0)
(0.189095 1.10318 0)
(0.14925 1.11539 0)
(0.112943 1.07507 0)
(0.0208351 0.865902 0)
(-0.0120273 0.217665 0)
(-0.0300025 0.31203 0)
(-0.0502587 1.12673 0)
(-0.10872 1.34877 0)
(-0.156625 1.38094 0)
(-0.200509 1.35311 0)
(-0.230418 1.27594 0)
(-0.245975 1.15319 0)
(-0.240018 1.0011 0)
(-0.215169 0.844078 0)
(-0.179074 0.70456 0)
(-0.142836 0.5601 0)
(-0.117747 0.325089 0)
(-0.185144 -0.116921 0)
(-0.164112 -0.653533 0)
(-0.0654794 -0.773753 0)
(0.202758 -0.788603 0)
(0.256089 -0.747674 0)
(0.252619 -0.308632 0)
(0.149002 0.115951 0)
(0.163751 0.363568 0)
(0.192283 0.523667 0)
(0.217598 0.669085 0)
(0.230692 0.818893 0)
(0.229207 0.957124 0)
(0.21343 1.06496 0)
(0.189416 1.13181 0)
(0.152565 1.1555 0)
(0.113576 1.12581 0)
(0.0450499 0.931916 0)
(0.0162661 0.231942 0)
(-0.051365 0.364474 0)
(-0.0651788 1.15857 0)
(-0.107445 1.40088 0)
(-0.160935 1.42752 0)
(-0.203741 1.38794 0)
(-0.232268 1.2968 0)
(-0.240914 1.15437 0)
(-0.220781 0.979413 0)
(-0.178204 0.80616 0)
(-0.126054 0.661813 0)
(-0.0745657 0.521337 0)
(-0.0284411 0.296257 0)
(-0.0221874 -0.139444 0)
(0.0124637 -0.67657 0)
(0.0472938 -0.773692 0)
(0.125991 -0.774957 0)
(0.122868 -0.748075 0)
(0.126445 -0.301592 0)
(0.0748168 0.101675 0)
(0.107587 0.334744 0)
(0.146636 0.491012 0)
(0.185335 0.642207 0)
(0.214856 0.806435 0)
(0.226473 0.961859 0)
(0.216663 1.08318 0)
(0.193234 1.16034 0)
(0.156712 1.19532 0)
(0.111725 1.17447 0)
(0.0617079 0.976992 0)
(0.0406272 0.274896 0)
(-0.061218 0.435344 0)
(-0.080301 1.18086 0)
(-0.116881 1.45194 0)
(-0.171037 1.47472 0)
(-0.213189 1.42244 0)
(-0.237865 1.31124 0)
(-0.232593 1.14233 0)
(-0.192384 0.940553 0)
(-0.133233 0.753851 0)
(-0.0720324 0.608866 0)
(-0.0165634 0.472761 0)
(0.0311633 0.254456 0)
(0.0520202 -0.162605 0)
(0.0678334 -0.683222 0)
(0.0686206 -0.796755 0)
(0.09989 -0.799825 0)
(0.070573 -0.740736 0)
(0.0634984 -0.303125 0)
(0.0302926 0.0777377 0)
(0.0621739 0.298873 0)
(0.10237 0.451111 0)
(0.147189 0.603006 0)
(0.190926 0.778324 0)
(0.221111 0.954871 0)
(0.223729 1.09622 0)
(0.202876 1.18942 0)
(0.165592 1.23682 0)
(0.11572 1.22299 0)
(0.0740489 1.00624 0)
(0.0548614 0.336267 0)
(-0.0718053 0.50926 0)
(-0.111743 1.2092 0)
(-0.143166 1.49928 0)
(-0.191055 1.5197 0)
(-0.228157 1.45344 0)
(-0.242162 1.31614 0)
(-0.215418 1.11022 0)
(-0.156374 0.885389 0)
(-0.0866342 0.692731 0)
(-0.0237985 0.554231 0)
(0.0280704 0.426612 0)
(0.0705688 0.218914 0)
(0.0869682 -0.174792 0)
(0.0880702 -0.666691 0)
(0.0722624 -0.78683 0)
(0.0893167 -0.790489 0)
(0.049264 -0.716467 0)
(0.0339561 -0.297997 0)
(0.00304462 0.0587348 0)
(0.0290557 0.267663 0)
(0.0640852 0.411509 0)
(0.1083 0.55749 0)
(0.160237 0.735622 0)
(0.208117 0.92945 0)
(0.231108 1.10082 0)
(0.21871 1.21716 0)
(0.183755 1.27943 0)
(0.133422 1.27221 0)
(0.0935567 1.03666 0)
(0.0607316 0.408894 0)
(-0.0914483 0.619887 0)
(-0.157097 1.24448 0)
(-0.181287 1.53806 0)
(-0.217904 1.55662 0)
(-0.243501 1.47276 0)
(-0.237955 1.3017 0)
(-0.188289 1.06005 0)
(-0.115999 0.819573 0)
(-0.0435071 0.630061 0)
(0.0147325 0.503762 0)
(0.0597067 0.386696 0)
(0.0945488 0.190321 0)
(0.102807 -0.176552 0)
(0.0941707 -0.634766 0)
(0.0710993 -0.759831 0)
(0.08194 -0.766248 0)
(0.0370761 -0.686197 0)
(0.0198886 -0.289973 0)
(-0.012515 0.0448454 0)
(0.006348 0.242423 0)
(0.0340585 0.376959 0)
(0.0729614 0.512219 0)
(0.126321 0.68371 0)
(0.18651 0.886202 0)
(0.232406 1.08758 0)
(0.23846 1.2363 0)
(0.211751 1.31848 0)
(0.167524 1.3183 0)
(0.1341 1.0749 0)
(0.0774822 0.489853 0)
(-0.104755 0.75856 0)
(-0.195093 1.28799 0)
(-0.218557 1.56626 0)
(-0.242595 1.57895 0)
(-0.251424 1.47517 0)
(-0.221166 1.26279 0)
(-0.153655 0.99482 0)
(-0.0750575 0.749794 0)
(-0.00584353 0.571307 0)
(0.0443963 0.460454 0)
(0.0810929 0.354538 0)
(0.106626 0.170243 0)
(0.10838 -0.17159 0)
(0.0967341 -0.598384 0)
(0.0732254 -0.727139 0)
(0.0772461 -0.735385 0)
(0.0345421 -0.65334 0)
(0.0158032 -0.279347 0)
(-0.0195293 0.0370842 0)
(-0.0100023 0.224284 0)
(0.0104644 0.349513 0)
(0.0426139 0.470716 0)
(0.0929887 0.628584 0)
(0.159248 0.828287 0)
(0.224141 1.05032 0)
(0.255904 1.23959 0)
(0.243785 1.34771 0)
(0.209167 1.35576 0)
(0.17999 1.11876 0)
(0.0977049 0.620713 0)
(-0.107119 0.913144 0)
(-0.219731 1.34682 0)
(-0.247091 1.58863 0)
(-0.25918 1.59013 0)
(-0.245991 1.45576 0)
(-0.192438 1.20661 0)
(-0.11311 0.920999 0)
(-0.0338574 0.681206 0)
(0.0279549 0.519429 0)
(0.067878 0.425344 0)
(0.095198 0.331214 0)
(0.113476 0.15772 0)
(0.112229 -0.164778 0)
(0.102465 -0.56393 0)
(0.0772907 -0.688531 0)
(0.0710772 -0.699732 0)
(0.0289193 -0.622605 0)
(0.0107412 -0.267823 0)
(-0.0258774 0.036968 0)
(-0.0231512 0.21412 0)
(-0.00954629 0.328153 0)
(0.015717 0.434506 0)
(0.0609079 0.573996 0)
(0.128066 0.761188 0)
(0.205754 0.993329 0)
(0.26294 1.22058 0)
(0.271692 1.36439 0)
(0.247016 1.38755 0)
(0.210524 1.17577 0)
(0.10219 0.766731 0)
(-0.108493 1.07553 0)
(-0.234681 1.41924 0)
(-0.264362 1.60519 0)