/*--------------------------------*- C++ -*----------------------------------*\
| =========                 |                                                 |
| \\      /  F ield         | OpenFOAM: The Open Source CFD Toolbox           |
|  \\    /   O peration     | Version:  v1606+                                |
|   \\  /    A nd           | Web:      www.OpenFOAM.com                      |
|    \\/     M anipulation  |                                                 |
\*---------------------------------------------------------------------------*/
FoamFile
{
    version     2.0;
    format      ascii;
    class       volScalarField;
    location    "0.24";
    object      alphat.air;
}
// * * * * * * * * * * * * * * * * * * * * * * * * * * * * * * * * * * * * * //

dimensions      [1 -1 -1 0 0 0 0];

internalField   nonuniform List<scalar> 
6000
(
0.000370659
0.00340768
0.00544402
0.00590821
0.00606254
0.00612893
0.00617191
0.00619931
0.00622051
0.00623312
0.00623392
0.00623523
0.00624443
0.00624623
0.00625199
0.00624775
0.00624669
0.00623919
0.00623861
0.00623912
0.00623158
0.00621616
0.00619695
0.00616942
0.00613061
0.00606285
0.0059067
0.00544143
0.0034075
0.000370511
0.000282236
0.00202112
0.00381865
0.00486006
0.0053317
0.00554788
0.00565126
0.00570266
0.0057282
0.00574117
0.00574813
0.00575051
0.00574882
0.00574696
0.00574515
0.00574606
0.00574771
0.00575002
0.00574973
0.00574719
0.0057421
0.00573047
0.0057047
0.00565259
0.00554835
0.00533213
0.00486087
0.00381985
0.00202257
0.000282456
0.000241745
0.00168446
0.00327303
0.00433847
0.00493656
0.00525601
0.00542737
0.00552051
0.00557172
0.00560001
0.0056157
0.00562313
0.005625
0.00562512
0.00562472
0.00562533
0.00562602
0.00562627
0.00562328
0.00561568
0.00560139
0.00557401
0.00552301
0.00542952
0.00525742
0.00493795
0.00434032
0.00327512
0.00168707
0.000242076
0.000220028
0.00151759
0.0029228
0.00396633
0.00463918
0.00504795
0.00529074
0.00543277
0.00551453
0.00555981
0.00558324
0.00559402
0.00559821
0.00559927
0.00559952
0.00559975
0.00560022
0.00559952
0.00559562
0.0055853
0.00556252
0.00551798
0.00543679
0.00529504
0.00505218
0.00464344
0.00397073
0.00292653
0.00151999
0.000220403
0.000197605
0.00144967
0.0027783
0.00379559
0.00450014
0.00496387
0.0052601
0.00544317
0.00555183
0.00560915
0.0056371
0.00564942
0.00565526
0.00565718
0.00565803
0.00565823
0.00565849
0.00565731
0.00565267
0.00564164
0.00561451
0.00555799
0.00545005
0.00526776
0.00497216
0.00450917
0.00380511
0.00278631
0.00145355
0.000198081
0.000196881
0.00153747
0.00292207
0.0039507
0.00466386
0.0051393
0.00544914
0.00564161
0.00575505
0.00583036
0.0058745
0.00589677
0.00590273
0.00590354
0.00590438
0.00590501
0.00590559
0.00590629
0.00590118
0.00587966
0.00583707
0.00576439
0.00565272
0.00546148
0.00515248
0.00467896
0.00396836
0.00293793
0.00154435
0.000197466
0.000215673
0.00179674
0.0032674
0.00428498
0.00498815
0.00547711
0.00582134
0.00605375
0.00620189
0.00628529
0.00632895
0.00634996
0.00636028
0.00636481
0.00636636
0.00636749
0.00636753
0.00636491
0.00635631
0.00633725
0.00629592
0.00621332
0.00606603
0.00583389
0.00548905
0.00500188
0.004305
0.00328996
0.00181042
0.000216625
0.000232085
0.00187379
0.00333618
0.00431958
0.00500322
0.00549551
0.00586429
0.00614374
0.00635199
0.00649845
0.00660317
0.00667592
0.00672503
0.00675541
0.00676963
0.00677045
0.00675751
0.00672847
0.00668087
0.00660981
0.00650686
0.00636075
0.00615382
0.00587426
0.00550129
0.0050077
0.00433415
0.00335684
0.00188806
0.000233573
0.000229356
0.00180156
0.00319648
0.00414
0.00481267
0.00530853
0.00568637
0.00598083
0.0062148
0.00638471
0.00651385
0.00661188
0.00668351
0.00673018
0.00675363
0.00675407
0.00673175
0.00668622
0.00661598
0.00651967
0.00639221
0.00622314
0.00599196
0.00569713
0.00530859
0.00480702
0.00414912
0.00321508
0.00181478
0.000230899
0.000221416
0.00165824
0.00296155
0.00386833
0.00453159
0.00503234
0.00541927
0.00572762
0.00597442
0.00616771
0.00632155
0.0064411
0.00652848
0.00658617
0.00661507
0.00661548
0.00658745
0.00653074
0.00644447
0.00632608
0.00617344
0.00598138
0.00573711
0.0054309
0.00504694
0.00454118
0.00387979
0.00297833
0.00167062
0.000223073
0.000212334
0.00152832
0.00273298
0.00360373
0.00426541
0.00478239
0.00518473
0.00550159
0.00575674
0.00596257
0.00612941
0.00626273
0.00636196
0.00642773
0.00646061
0.00646094
0.0064288
0.00636388
0.0062655
0.00613309
0.00596715
0.0057618
0.00550733
0.00519127
0.00479429
0.00427885
0.00361622
0.00274707
0.00153923
0.000213963
0.000203849
0.00141162
0.00252478
0.0033566
0.00401278
0.00454379
0.00496343
0.00529057
0.00555515
0.00576893
0.00594245
0.00608265
0.00618951
0.00626101
0.00629677
0.00629707
0.00626195
0.00619121
0.00608509
0.00594558
0.00577262
0.00555899
0.00529406
0.00496545
0.00454672
0.0040159
0.00335909
0.00253096
0.00141872
0.000205283
0.000196037
0.00130334
0.00232537
0.00311201
0.00376086
0.0043058
0.00474949
0.00509314
0.00536548
0.00558482
0.00576125
0.00590281
0.00601193
0.00608621
0.00612364
0.00612392
0.00608709
0.00601347
0.00590493
0.00576386
0.00558777
0.00536821
0.00509493
0.00474878
0.00430258
0.00375463
0.00310509
0.00232515
0.00130627
0.000197239
0.000188591
0.00119993
0.0021251
0.00286714
0.00350804
0.00407139
0.00454262
0.00490552
0.00518586
0.00540881
0.0055856
0.00572523
0.00583143
0.00590421
0.00594124
0.00594149
0.00590495
0.00583267
0.00572691
0.00558761
0.005411
0.00518736
0.00490519
0.00453889
0.00406271
0.00349492
0.0028537
0.00212
0.00120014
0.000189514
0.000181449
0.00108649
0.00191836
0.00262339
0.00326025
0.00384369
0.00434184
0.00472549
0.00501334
0.00523867
0.00541508
0.00555166
0.00565292
0.00572102
0.00575561
0.00575577
0.00572151
0.00565372
0.00555276
0.00541634
0.00523984
0.00501361
0.00472338
0.00433499
0.00383042
0.0032418
0.00260451
0.00190786
0.00108089
0.000182176
0.000173826
0.000951318
0.00170377
0.0023852
0.00302389
0.00362522
0.00414694
0.00454941
0.00484768
0.005074
0.00524881
0.00538163
0.00547814
0.00554119
0.00557282
0.0055729
0.00554142
0.00547854
0.00538216
0.00524932
0.00507421
0.00484667
0.00454538
0.00413733
0.00360876
0.00300261
0.00236359
0.00168906
0.000940479
0.000174307
0.00016501
0.000797684
0.00148634
0.00215535
0.00280402
0.0034218
0.00396142
0.00437882
0.00468524
0.00491279
0.00508337
0.00521197
0.00530439
0.00536338
0.00539258
0.00539258
0.00536336
0.00530435
0.00521189
0.00508308
0.00491198
0.00468294
0.00437319
0.00394993
0.00340376
0.00278265
0.00213454
0.00147048
0.000787533
0.000165297
0.000154463
0.000644463
0.0012896
0.00194617
0.00260226
0.00323474
0.00378454
0.00421196
0.00452497
0.00475275
0.0049197
0.00504271
0.00512978
0.00518544
0.00521276
0.00521269
0.0051852
0.00512935
0.00504204
0.00491864
0.00475088
0.00452139
0.00420504
0.00377201
0.00321595
0.00258067
0.00192699
0.00127616
0.000637919
0.000154667
0.000142819
0.000538431
0.00113033
0.00176353
0.00242164
0.00306098
0.00361583
0.00404932
0.00436714
0.00459498
0.00475732
0.00487357
0.00495506
0.00500718
0.00503258
0.00503246
0.00500679
0.00495434
0.00487245
0.00475554
0.00459213
0.00436248
0.00404162
0.00360332
0.00304269
0.0024006
0.00174582
0.00111904
0.000533925
0.000142966
0.000132117
0.000454764
0.00098532
0.00160068
0.00226334
0.00290202
0.0034561
0.00389124
0.00421168
0.00443945
0.004598
0.0047075
0.00478201
0.00482915
0.00485189
0.00485172
0.00482861
0.00478104
0.0047059
0.00459553
0.00443574
0.00420611
0.00388294
0.00344403
0.00288488
0.0022431
0.00158386
0.000975883
0.000451796
0.000132239
0.000121129
0.000351395
0.000847309
0.00147119
0.00213304
0.00276343
0.00330848
0.00373891
0.00405926
0.0042867
0.00444228
0.00454655
0.00461497
0.00465704
0.00467707
0.00467685
0.00465634
0.00461367
0.00454443
0.00443907
0.00428211
0.00405292
0.00373028
0.00329732
0.00274877
0.00211427
0.00145484
0.000838799
0.000349428
0.000121256
0.000109722
0.000267384
0.000726523
0.00138267
0.00203992
0.00265502
0.00317903
0.00359733
0.00391398
0.00414013
0.0042939
0.00439501
0.00445944
0.00449786
0.00451584
0.00451557
0.00449699
0.00445777
0.00439226
0.00428986
0.00413471
0.00390722
0.003589
0.00316891
0.00264304
0.00202424
0.00136698
0.000718128
0.000265797
0.000109858
9.91206e-05
0.000214486
0.00065933
0.00135518
0.00199419
0.00257639
0.00307102
0.00347294
0.00378157
0.00400508
0.00415917
0.00426116
0.00432573
0.00436359
0.00438104
0.00438075
0.00436264
0.00432388
0.0042581
0.00415468
0.00399921
0.00377456
0.00346494
0.00306145
0.00256485
0.00198019
0.0013399
0.000650247
0.000212693
9.92658e-05
8.91812e-05
0.000226157
0.000736042
0.00138654
0.0019829
0.00251763
0.00298074
0.00336366
0.00366292
0.0038859
0.00404608
0.00415611
0.00422764
0.00427016
0.00428984
0.00428956
0.00426923
0.00422585
0.00415317
0.0040418
0.00388017
0.0036559
0.00335553
0.0029711
0.00250536
0.00196791
0.00136879
0.000724756
0.000223202
8.93013e-05
8.32122e-05
0.000295411
0.00086686
0.00145067
0.00198625
0.00247183
0.00290399
0.00326854
0.00356072
0.00378627
0.00395472
0.00407497
0.00415576
0.00420492
0.00422797
0.00422766
0.00420393
0.00415396
0.00407221
0.00395084
0.00378112
0.00355419
0.00326072
0.00289455
0.00245947
0.00197027
0.00143418
0.000854183
0.000291709
8.32092e-05
8.30944e-05
0.000419005
0.00101912
0.00152472
0.0019919
0.00243663
0.00284204
0.00319118
0.00347821
0.00370619
0.00388041
0.00400806
0.00409578
0.00415008
0.00417583
0.0041755
0.00414908
0.00409404
0.00400552
0.00387698
0.0037017
0.00347251
0.00318423
0.00283353
0.00242551
0.00197739
0.00150785
0.00100423
0.00041222
8.30372e-05
8.62685e-05
0.000590295
0.00113634
0.00157866
0.00200035
0.00241295
0.00279659
0.00313353
0.00341628
0.00364505
0.00382258
0.00395424
0.00404619
0.00410387
0.00413144
0.00413113
0.00410295
0.00404465
0.00395204
0.0038197
0.0036413
0.00341152
0.0031276
0.00278916
0.00240307
0.0019873
0.00156272
0.00112054
0.000579538
8.60913e-05
9.51203e-05
0.000659524
0.00117107
0.00159912
0.00200159
0.00239587
0.00276578
0.00309491
0.00337482
0.00360366
0.00378283
0.00391617
0.00400972
0.00406859
0.00409682
0.00409657
0.00406784
0.0040085
0.00391449
0.00378069
0.00360088
0.00337119
0.00309016
0.00275948
0.00238716
0.00198954
0.00158322
0.00115269
0.000647976
9.47541e-05
9.9625e-05
0.000630617
0.00114792
0.00158581
0.00199118
0.00238297
0.00274897
0.00307648
0.0033569
0.00358665
0.00376524
0.00389718
0.00398907
0.00404664
0.00407422
0.00407404
0.00404614
0.00398829
0.0038962
0.00376409
0.00358516
0.00335482
0.00307336
0.00274418
0.00237567
0.00198068
0.00157138
0.00113198
0.000617239
9.90124e-05
9.97962e-05
0.000563423
0.00109779
0.00155283
0.00197304
0.00237685
0.00275066
0.0030851
0.00336984
0.00360054
0.00377404
0.00389977
0.00398585
0.00403933
0.00406482
0.00406474
0.00403913
0.00398561
0.00389962
0.00377408
0.00360079
0.00337003
0.00308451
0.00274819
0.00237188
0.00196421
0.00154016
0.00108294
0.000551605
9.91346e-05
9.8878e-05
0.000496982
0.00102836
0.00150845
0.0019575
0.00238868
0.00278312
0.00312583
0.00341227
0.00364119
0.00380928
0.00392245
0.00399848
0.0040454
0.00406763
0.00406764
0.00404549
0.00399875
0.00392311
0.00381042
0.00364234
0.00341352
0.00312669
0.00278365
0.00238731
0.00195157
0.00149822
0.00101521
0.000487195
9.82067e-05
9.58396e-05
0.000420284
0.000951485
0.00146919
0.00196186
0.00242457
0.00283497
0.0031898
0.00347761
0.00370075
0.00385002
0.00395445
0.00402007
0.00405976
0.00407834
0.00407842
0.00406008
0.00402071
0.00395552
0.003852
0.00370401
0.0034824
0.00319478
0.00283887
0.00242562
0.00196068
0.00146316
0.00094207
0.000413168
9.51226e-05
9.0493e-05
0.000367526
0.000903873
0.0014689
0.00200732
0.00250631
0.00295086
0.00330465
0.00356762
0.00376877
0.00389994
0.00398571
0.00404103
0.00407472
0.00409015
0.00409028
0.00407519
0.00404192
0.00398736
0.00390251
0.00377256
0.00357391
0.00331292
0.00296028
0.00251356
0.00201047
0.00147029
0.000901008
0.000364186
8.98211e-05
8.5239e-05
0.000362069
0.000933531
0.00153534
0.00212037
0.00266203
0.0030881
0.00339499
0.00362303
0.00379883
0.00392824
0.00400498
0.00405511
0.00408418
0.00409778
0.00409796
0.00408479
0.00405625
0.00400682
0.00393132
0.00380337
0.00362922
0.00340292
0.0030982
0.00267584
0.0021322
0.00154232
0.000939847
0.000365072
8.47243e-05
8.10107e-05
0.000415509
0.00102856
0.00168581
0.00232604
0.0028334
0.00319135
0.00345003
0.00365511
0.00381903
0.00394135
0.0040138
0.00405832
0.00408629
0.00410007
0.00410031
0.00408707
0.00405959
0.00401576
0.00394441
0.0038248
0.0036623
0.00345823
0.00320159
0.00284899
0.00234657
0.00170403
0.00103866
0.000420512
8.07716e-05
8.04196e-05
0.000492022
0.00121256
0.00195178
0.00254515
0.00296495
0.00326036
0.0034963
0.00369322
0.00383894
0.00393886
0.00400283
0.0040505
0.00408259
0.0040986
0.00409895
0.00408369
0.00405227
0.0040052
0.0039423
0.00384499
0.00370189
0.0035063
0.00327196
0.00297993
0.00256644
0.00197983
0.00123643
0.000500867
8.05186e-05
8.27606e-05
0.000659465
0.00151212
0.00221306
0.00271062
0.00305408
0.00331989
0.00355259
0.00372461
0.00383593
0.00391581
0.00398145
0.00403791
0.00407621
0.00409536
0.00409586
0.00407773
0.00404047
0.00398493
0.00391966
0.0038417
0.00373222
0.00356427
0.0033333
0.00306911
0.00272959
0.00223781
0.00153893
0.000678616
8.31799e-05
9.04123e-05
0.000876254
0.00175588
0.00239286
0.0028106
0.00312118
0.00338605
0.00359002
0.00371631
0.00380837
0.00388081
0.00395961
0.00402518
0.00406924
0.00409137
0.00409202
0.00407123
0.00402858
0.00396451
0.00388656
0.00381364
0.0037232
0.00359881
0.00339959
0.00313576
0.00282727
0.00241234
0.00177532
0.000889125
9.1395e-05
0.000102539
0.00101856
0.00190736
0.00248716
0.00287836
0.00318372
0.00341764
0.00356244
0.00367147
0.00375913
0.00385315
0.00394296
0.00401435
0.00406249
0.00408695
0.00408775
0.00406491
0.00401843
0.00394877
0.00386029
0.00376609
0.00367822
0.00357065
0.0034276
0.00319739
0.00289184
0.0025015
0.00192253
0.001026
0.000103553
0.000114438
0.00108155
0.00196196
0.00252626
0.00291221
0.00318456
0.00335633
0.00348636
0.00359967
0.00372065
0.00383334
0.00393027
0.0040053
0.00405618
0.00408228
0.00408322
0.004059
0.00401
0.00393685
0.00384155
0.00372974
0.00360897
0.00349534
0.00336655
0.00319669
0.00292625
0.00254176
0.00197614
0.0010879
0.000115194
0.000123466
0.00109396
0.00192433
0.00249609
0.00284491
0.00307489
0.00324559
0.00339816
0.00355399
0.00369647
0.00381996
0.00392134
0.00399862
0.00405109
0.00407813
0.00407921
0.00405431
0.00400397
0.00392879
0.00382933
0.00370724
0.00356567
0.00341051
0.00325768
0.00308778
0.00286064
0.00251595
0.00194094
0.00110011
0.00012409
0.000127181
0.00104986
0.0018417
0.00237293
0.00272317
0.00294961
0.00315161
0.00334857
0.00352892
0.00368578
0.00381534
0.00391837
0.00399609
0.00404879
0.004076
0.0040772
0.00405243
0.00400217
0.0039269
0.0038262
0.00369843
0.00354273
0.00336209
0.00316411
0.00296169
0.00273586
0.00238924
0.00185744
0.00105922
0.000127844
0.000126499
0.000976769
0.00172705
0.00223584
0.00255937
0.00283935
0.00309196
0.0033231
0.0035253
0.00369173
0.00382215
0.00392332
0.00399911
0.00405041
0.00407691
0.00407822
0.00405439
0.00400588
0.00393303
0.00383505
0.00370702
0.00354176
0.00333807
0.00310438
0.00284931
0.00256695
0.00224429
0.00173995
0.000987255
0.000127168
0.000122436
0.000836381
0.00152957
0.00204501
0.00243341
0.0027641
0.00306267
0.00332777
0.00354343
0.00371086
0.00384014
0.00393594
0.00400745
0.00405583
0.00408084
0.00408219
0.00405992
0.00401449
0.00394615
0.00385213
0.00372506
0.00355887
0.00334493
0.00307681
0.00277381
0.00243882
0.00204849
0.00153461
0.000842918
0.000123085
0.000114196
0.000691053
0.00135424
0.00189734
0.00234047
0.00272953
0.0030766
0.00335757
0.00358189
0.00374481
0.00386317
0.00395273
0.0040187
0.00406335
0.00408642
0.00408768
0.00406714
0.00402527
0.0039624
0.00387704
0.00376321
0.00360418
0.00337863
0.00309486
0.00274215
0.00234635
0.00189832
0.00135352
0.000692351
0.000114571
0.000106156
0.000568772
0.0012172
0.00179555
0.00230254
0.00275589
0.00312614
0.00342427
0.00363888
0.00378538
0.00389026
0.00396817
0.00402866
0.00406986
0.00409117
0.00409221
0.0040729
0.00403391
0.00397669
0.00390253
0.00380116
0.00365861
0.0034473
0.00314773
0.00277305
0.0023128
0.00179765
0.00121416
0.000566693
0.000106394
9.76675e-05
0.000489895
0.00114341
0.00177562
0.00235061
0.00282886
0.0032192
0.00348285
0.00366799
0.00380626
0.00390151
0.00397649
0.00403308
0.00407225
0.00409246
0.00409313
0.00407411
0.0040365
0.00398175
0.00391164
0.00382106
0.00368346
0.00350097
0.00324057
0.00284945
0.00236658
0.00178496
0.00114363
0.000486015
9.76385e-05
9.01822e-05
0.000488418
0.00118421
0.00186418
0.00245584
0.00295463
0.0032823
0.00350563
0.00367759
0.00380842
0.00390072
0.00397334
0.00402919
0.00406862
0.00408889
0.00408914
0.00406919
0.00403035
0.00397547
0.00390442
0.00381766
0.00369096
0.00352141
0.00329936
0.00297424
0.00247632
0.00187972
0.00119478
0.00049083
9.00752e-05
8.67124e-05
0.000561234
0.00130269
0.00201775
0.00262989
0.00303846
0.00330651
0.00351686
0.0036739
0.0037914
0.00388025
0.00395652
0.00401716
0.00405921
0.00408055
0.00408046
0.00405877
0.00401651
0.00395592
0.00388086
0.00379739
0.00368711
0.00353308
0.00332562
0.00305461
0.00265124
0.00204362
0.00131834
0.000565356
8.69219e-05
8.73923e-05
0.000663353
0.00151612
0.00224655
0.00274368
0.00307068
0.00332813
0.00351741
0.00365369
0.00375567
0.0038498
0.00393387
0.00400011
0.00404547
0.0040683
0.00406799
0.00404444
0.0039985
0.00393189
0.00384811
0.0037564
0.00366264
0.00353293
0.003344
0.00308913
0.00276112
0.00227483
0.00154649
0.000677772
8.78924e-05
9.22692e-05
0.000866498
0.00175271
0.00237996
0.00278639
0.00309996
0.0033299
0.00348912
0.00360776
0.0037147
0.00381871
0.00390947
0.00398033
0.00402868
0.00405302
0.00405264
0.00402752
0.00397851
0.00390718
0.00381629
0.00371289
0.00360839
0.00349638
0.00334493
0.00311348
0.0028044
0.00240194
0.00178259
0.000891414
9.3488e-05
0.000103012
0.00101632
0.0018808
0.00243437
0.00281418
0.00310603
0.00328833
0.00342973
0.00355544
0.00367715
0.00378944
0.00388488
0.00395914
0.00400991
0.0040356
0.00403534
0.00400915
0.00395796
0.00388339
0.00378768
0.00367497
0.00355232
0.00342658
0.00329108
0.00311492
0.0028295
0.00244629
0.0019001
0.00103167
0.000105022
0.000115094
0.00106467
0.00191609
0.00245044
0.00282239
0.00304568
0.00321316
0.00336262
0.0035099
0.0036443
0.00376238
0.00386101
0.00393766
0.00399022
0.004017
0.00401709
0.00399046
0.0039381
0.00386164
0.00376297
0.00364409
0.00350745
0.00335657
0.0032035
0.00304126
0.00281797
0.00246658
0.0019219
0.00107786
0.000117017
0.000123289
0.00105823
0.00187642
0.00241431
0.00272724
0.00294473
0.00313161
0.00331203
0.00347503
0.00361702
0.00373845
0.00383893
0.00391697
0.00397064
0.00399827
0.00399889
0.00397252
0.00392009
0.00384319
0.00374335
0.00362139
0.00347666
0.00330803
0.00312002
0.00292468
0.00271369
0.00238966
0.00186257
0.00105902
0.000124125
0.000125269
0.00101607
0.00178504
0.00229115
0.00259273
0.00284258
0.00307343
0.00327797
0.00345108
0.0035963
0.00371869
0.00381957
0.00389797
0.00395211
0.00398032
0.00398165
0.00395618
0.00390479
0.00382909
0.00373049
0.00360889
0.00346101
0.00327941
0.00306333
0.00282053
0.00255101
0.00224548
0.00175187
0.00100631
0.000125009
0.000123535
0.000919251
0.0016296
0.00208862
0.00245479
0.0027662
0.00303859
0.00326105
0.00343808
0.00358212
0.00370305
0.00380296
0.00388094
0.00393512
0.00396377
0.00396593
0.00394184
0.00389237
0.00381939
0.00372443
0.00360695
0.00346211
0.003276
0.00303523
0.00274864
0.00242162
0.00203862
0.00155567
0.000877943
0.000122368
0.000117561
0.000741112
0.00138443
0.00191367
0.00235204
0.00272876
0.0030342
0.0032588
0.00343054
0.0035707
0.00368915
0.00378779
0.00386541
0.00391975
0.00394891
0.00395195
0.00392931
0.00388199
0.00381228
0.00372213
0.00361106
0.00347299
0.00329201
0.00304639
0.00272151
0.00233092
0.00188234
0.00134429
0.000689751
0.000114937
0.000107198
0.000551208
0.00120265
0.00179656
0.00231512
0.00273566
0.00304228
0.00325497
0.00341931
0.00355541
0.0036728
0.00377198
0.00385055
0.00390579
0.00393576
0.00393962
0.00391798
0.00387205
0.00380463
0.00371835
0.00361439
0.00348825
0.00332558
0.00308333
0.00274386
0.0023059
0.00178053
0.00118604
0.000536902
0.00010524
9.70074e-05
0.000444688
0.00112038
0.00178872
0.00234523
0.00275653
0.00303704
0.00323859
0.00339453
0.00353018
0.0036514
0.0037546
0.00383609
0.0038932
0.00392429
0.00392874
0.00390723
0.003861
0.00379293
0.00370655
0.00360512
0.00348697
0.00333135
0.00312736
0.00281311
0.00235354
0.00178126
0.00111761
0.000452671
9.60829e-05
8.94506e-05
0.000470946
0.00119499
0.00186473
0.00239661
0.00275753
0.00300502
0.00319974
0.00335154
0.0034967
0.00362738
0.00373701
0.00382265
0.00388215
0.00391448
0.00391924
0.003897
0.00384888
0.00377713
0.00368494
0.0035771
0.00346158
0.00331926
0.00313016
0.00286604
0.00245814
0.00187336
0.00119223
0.000476371
8.8837e-05
8.70111e-05
0.000557599
0.00131474
0.00197207
0.00242545
0.00274325
0.00296689
0.00313665
0.00330337
0.00346487
0.00360589
0.00372216
0.00381119
0.00387292
0.00390628
0.00391107
0.00388769
0.00383709
0.00376079
0.00366082
0.00354049
0.00341045
0.00328342
0.0031163
0.00287815
0.00253895
0.00203616
0.00132033
0.000555584
8.64292e-05
8.89045e-05
0.000712549
0.00150808
0.00204799
0.00244346
0.00270921
0.00290282
0.00308175
0.00326825
0.00344139
0.00359073
0.00371147
0.00380343
0.00386614
0.00389986
0.00390432
0.00387981
0.00382704
0.00374701
0.00364081
0.00351025
0.00336194
0.00321273
0.0030616
0.0028737
0.0025717
0.00216518
0.00155476
0.0007046
8.81527e-05
9.74538e-05
0.00089381
0.00161183
0.00211093
0.00240896
0.00263516
0.00283808
0.00304602
0.00324702
0.00342928
0.00358263
0.00370537
0.00379865
0.00386237
0.00389615
0.00390014
0.00387475
0.00382068
0.00373853
0.00362811
0.00349029
0.00332966
0.0031549
0.00298241
0.00280989
0.0025878
0.00220788
0.00170073
0.000932259
9.58002e-05
0.000109203
0.000920368
0.00157937
0.00201916
0.00232336
0.00256577
0.00280004
0.00302808
0.00324232
0.0034293
0.0035843
0.00370747
0.00380005
0.00386263
0.00389545
0.00389883
0.00387308
0.00381877
0.00373623
0.00362537
0.00348495
0.00331421
0.00312106
0.00291641
0.00271258
0.00249622
0.0022056
0.00171183
0.00099147
0.000110423
0.000112412
0.000846199
0.00147922
0.00192076
0.00223703
0.002517
0.00278057
0.00303204
0.00325496
0.00344612
0.00360114
0.00372156
0.00381057
0.0038699
0.00390043
0.00390267
0.00387704
0.00382388
0.00374323
0.00363413
0.00349342
0.00331705
0.00310803
0.0028754
0.00263348
0.0023829
0.0020896
0.00161652
0.000937228
0.000116706
0.000110808
0.000761179
0.00134625
0.00179773
0.00216147
0.00248362
0.00278579
0.0030563
0.00329572
0.00348973
0.00363975
0.00375205
0.00383332
0.0038867
0.00391322
0.0039139
0.00388918
0.00383942
0.00376422
0.00366127
0.00352473
0.00334504
0.0031207
0.00286069
0.00257559
0.00227233
0.00192436
0.00149305
0.000859273
0.00011625
0.000106101
0.000617554
0.00119653
0.00168757
0.00210346
0.00248012
0.00281738
0.00312126
0.0033766
0.00356256
0.00369747
0.00379518
0.00386439
0.00390928
0.00393092
0.00393046
0.0039077
0.00386309
0.00379654
0.00370575
0.00358252
0.00341005
0.00317127
0.00288039
0.00255028
0.00218757
0.00178489
0.0013014
0.000718741
0.000112279
9.94522e-05
0.000501705
0.00108156
0.00161148
0.00208855
0.00251644
0.00290351
0.00323587
0.00348399
0.00364953
0.00376329
0.0038425
0.0038979
0.00393363
0.00395004
0.00394785
0.00392672
0.00388759
0.00383128
0.00375579
0.00365172
0.00349978
0.00326865
0.00295227
0.00257545
0.00214879
0.00168067
0.00115686
0.000569203
0.00010492
9.26033e-05
0.000437992
0.00102405
0.00160584
0.00213858
0.00262632
0.00305097
0.00336078
0.00357845
0.00372315
0.00381779
0.00388075
0.00392519
0.00395409
0.00396643
0.00396249
0.00394172
0.00390564
0.00385626
0.00379332
0.0037069
0.00357395
0.00337279
0.00307953
0.00266671
0.00218685
0.00164526
0.00106255
0.000467231
9.71928e-05
8.65213e-05
0.000442231
0.00106854
0.00168623
0.00227625
0.00280808
0.00318412
0.0034382
0.00362816
0.00376549
0.00384583
0.00389991
0.00394001
0.00396672
0.00397756
0.00397222
0.00394999
0.00391246
0.00386251
0.00380283
0.00372986
0.00361022
0.00343186
0.00318675
0.00282334
0.00230263
0.00171267
0.00107369
0.000435959
8.97574e-05
8.33916e-05
0.000503455
0.00117532
0.00186566
0.00249659
0.00295428
0.00325277
0.00347817
0.00365448
0.00377281
0.00384295
0.0038981
0.00394208
0.00397157
0.00398358
0.00397747
0.00395258
0.00391018
0.00385275
0.00378409
0.00371249
0.00361336
0.00345365
0.00323685
0.00294022
0.0024975
0.00186957
0.00117885
0.000497892
8.5092e-05
8.38871e-05
0.000596217
0.00139341
0.00213618
0.00267684
0.00302917
0.00329522
0.00351043
0.00365597
0.00374751
0.00381606
0.00388265
0.00393575
0.00397088
0.0039857
0.00397942
0.00395165
0.00390349
0.00383703
0.00375649
0.00367306
0.00358347
0.00346232
0.00326367
0.00299418
0.00263951
0.00211872
0.00138544
0.000585854
8.50368e-05
8.81607e-05
0.00079219
0.00167307
0.00234184
0.00277477
0.00308277
0.00333779
0.00351777
0.00362182
0.0037012
0.00378427
0.00386351
0.0039256
0.00396662
0.00398467
0.00397866
0.0039484
0.00389498
0.00381998
0.00372534
0.00361708
0.00352312
0.003418
0.00327436
0.00303317
0.00271323
0.00229244
0.00165828
0.000786166
8.86802e-05
9.8433e-05
0.000969814
0.00185324
0.00244491
0.00282674
0.00313112
0.00334248
0.00346389
0.00355659
0.0036509
0.00375466
0.00384473
0.00391393
0.00395993
0.00398092
0.00397554
0.00394359
0.00388629
0.00380526
0.00370172
0.00357889
0.0034481
0.00333349
0.00321263
0.00304686
0.00275519
0.00238195
0.00182723
0.000987796
9.88177e-05
0.000110503
0.00105586
0.00192353
0.00246996
0.00285323
0.0030968
0.00325204
0.00337217
0.0034912
0.00361627
0.00373198
0.00382863
0.00390258
0.00395227
0.00397571
0.00397133
0.00393891
0.00387973
0.00379561
0.00368645
0.00355421
0.00340511
0.00324893
0.00310332
0.00294696
0.00273387
0.00239161
0.00186532
0.00105158
0.000113332
0.000121184
0.00107531
0.00189568
0.0024489
0.00276225
0.00298318
0.00314011
0.00329348
0.00344964
0.00359307
0.00371794
0.00381808
0.00389409
0.00394573
0.00397083
0.00396773
0.00393616
0.00387734
0.00379312
0.00368344
0.00354641
0.00338256
0.00320114
0.00301295
0.0028245
0.00261343
0.00228643
0.00179161
0.00103342
0.000121678
0.000125431
0.00102627
0.00179626
0.00229603
0.0026201
0.00283505
0.00304541
0.00324378
0.00342773
0.00358642
0.00371351
0.00381418
0.00389049
0.00394222
0.00396801
0.00396634
0.00393694
0.00388075
0.00379883
0.00369123
0.00355415
0.00338266
0.00317631
0.0029511
0.00271343
0.00245047
0.00214698
0.00167103
0.000963256
0.000122168
0.000124697
0.000954229
0.00166749
0.00213438
0.00245101
0.00273067
0.0029866
0.00322435
0.00343078
0.00359586
0.00372128
0.00381839
0.00389202
0.00394247
0.00396828
0.00396814
0.00394219
0.00389128
0.00381636
0.00371617
0.0035835
0.00340701
0.0031868
0.00292134
0.00263453
0.00232288
0.00196015
0.00148654
0.000835132
0.000119308
0.000120228
0.000805361
0.00144994
0.00194578
0.0023273
0.00266112
0.0029703
0.00324274
0.00346339
0.00362764
0.00374455
0.00383279
0.00390005
0.00394699
0.00397176
0.00397296
0.00395086
0.00390663
0.00384178
0.0037551
0.00363807
0.00346928
0.00323011
0.00293848
0.00259542
0.00222477
0.00180813
0.00129847
0.000675809
0.000112215
0.000111517
0.000648571
0.00127291
0.00179834
0.00224209
0.00264434
0.00300154
0.00330513
0.00352671
0.00367185
0.00377334
0.00385015
0.00391018
0.00395347
0.00397711
0.00397925
0.00396017
0.00392142
0.00386579
0.00379305
0.00369348
0.00354705
0.00332089
0.00299927
0.00262023
0.00217913
0.00170032
0.00115705
0.000546483
0.000104084
0.000102865
0.00052936
0.00114658
0.00171326
0.00222751
0.00268561
0.00308511
0.00338382
0.00357579
0.00370284
0.003792
0.00386066
0.00391697
0.00395903
0.00398272
0.00398541
0.00396715
0.0039301
0.00387837
0.00381368
0.00372579
0.00359045
0.00339869
0.00311172
0.00269735
0.00221994
0.00167146
0.00108083
0.000468736
9.57646e-05
9.42386e-05
0.000472089
0.00110532
0.00172648
0.00229233
0.00279089
0.00316909
0.00341769
0.00358795
0.00370595
0.00378709
0.00385732
0.00391765
0.00396324
0.00398897
0.00399201
0.00397197
0.00393128
0.00387456
0.00380658
0.003725
0.00359943
0.00342334
0.00318795
0.00283422
0.00232154
0.00174934
0.001113
0.000467199
8.85628e-05
8.79645e-05
0.000507296
0.00118388
0.00183233
0.00242078
0.00289272
0.00320332
0.0034208
0.00357934
0.00368035
0.00376498
0.00384549
0.00391584
0.00396849
0.00399801
0.00400104
0.00397743
0.00392963
0.00386235
0.00378325
0.00370029
0.00359771
0.00343279
0.00321363
0.00292946
0.00249074
0.00188704
0.00121898
0.000533738
8.52065e-05
8.65224e-05
0.000579804
0.00130727
0.00200228
0.0025652
0.0029446
0.00321581
0.00341771
0.00354419
0.00364033
0.00373617
0.00383296
0.00391559
0.00397654
0.00401028
0.00401332
0.0039854
0.00392929
0.00384981
0.0037542
0.00365914
0.00356458
0.00343868
0.00323449
0.00296362
0.00261477
0.00210062
0.0013978
0.000619421
8.56393e-05
8.81805e-05
0.000703318
0.00152637
0.00219309
0.00264971
0.0029698
0.00321962
0.00337701
0.00348904
0.00359047
0.0037103
0.00382347
0.00391841
0.00398784
0.00402594
0.00402885
0.00399635
0.0039317
0.0038401
0.00372842
0.00360903
0.00350893
0.00339856
0.0032483
0.00299404
0.00267991
0.00225604
0.00162711
0.000789865
8.9494e-05
9.46144e-05
0.000880653
0.00171312
0.0022995
0.00268065
0.00298798
0.00317591
0.00330762
0.00341323
0.00355031
0.00368995
0.00381835
0.0039254
0.00400354
0.00404614
0.00404889
0.00401158
0.00393813
0.00383459
0.0037081
0.00356934
0.0034325
0.0033274
0.00319812
0.00301977
0.00271468
0.00234603
0.00177094
0.000928585
9.84575e-05
0.000105063
0.000976333
0.00179845
0.00232482
0.00270378
0.00293152
0.00309152
0.00320953
0.00335866
0.00351914
0.00367876
0.00382134
0.00393967
0.00402565
0.00407223
0.0040748
0.00403323
0.00395183
0.00383718
0.00369694
0.00353845
0.00337805
0.00322792
0.00311068
0.00295441
0.002734
0.00236027
0.00183422
0.000998648
0.000108122
0.000114538
0.00100832
0.00179722
0.00231669
0.00262213
0.00283131
0.00297044
0.00313652
0.00331542
0.00350187
0.00367972
0.00383578
0.00396291
0.00405376
0.0041024
0.00410482
0.0040609
0.00397452
0.0038512
0.00369806
0.00352133
0.00333489
0.00315508
0.00298858
0.00284712
0.00263608
0.00233161
0.00181215
0.00101624
0.000116313
0.000118033
0.000977002
0.0017166
0.0021964
0.00249659