/*--------------------------------*- C++ -*----------------------------------*\
| =========                 |                                                 |
| \\      /  F ield         | OpenFOAM: The Open Source CFD Toolbox           |
|  \\    /   O peration     | Version:  v1606+                                |
|   \\  /    A nd           | Web:      www.OpenFOAM.com                      |
|    \\/     M anipulation  |                                                 |
\*---------------------------------------------------------------------------*/
FoamFile
{
    version     2.0;
    format      ascii;
    class       volScalarField;
    location    "0.24";
    object      nut.air;
}
// * * * * * * * * * * * * * * * * * * * * * * * * * * * * * * * * * * * * * //

dimensions      [0 2 -1 0 0 0 0];

internalField   nonuniform List<scalar> 
6000
(
0.000529713
0.00488526
0.00779092
0.00845847
0.00866863
0.00874822
0.00878221
0.00879719
0.00880446
0.00880785
0.00880852
0.00880782
0.00880639
0.00880488
0.00880487
0.00880416
0.00880523
0.00880666
0.00880793
0.00880875
0.00880782
0.00880476
0.0087981
0.00878285
0.00874893
0.00866968
0.0084595
0.00779187
0.00488593
0.000529761
0.000446694
0.00319774
0.00602989
0.0076701
0.00841169
0.00874976
0.00890888
0.00898634
0.00902338
0.00904204
0.00905359
0.0090572
0.00905253
0.00904892
0.00904452
0.00904702
0.00905013
0.0090557
0.00905547
0.00905066
0.0090436
0.0090277
0.00899014
0.00891159
0.00875045
0.00841261
0.00767198
0.00603228
0.00319995
0.000447008
0.000384314
0.00267917
0.00520481
0.0068984
0.00784894
0.00835627
0.00862805
0.00877553
0.00885643
0.00890109
0.00892604
0.00893775
0.00894041
0.00894047
0.00893961
0.00894073
0.00894191
0.0089426
0.00893795
0.00892581
0.00890326
0.0088601
0.00877954
0.00863155
0.00835852
0.00785121
0.00690144
0.0052082
0.0026833
0.000384822
0.000350203
0.00241584
0.00465264
0.00631357
0.0073844
0.00803479
0.00842099
0.00864679
0.00877669
0.00884853
0.00888565
0.00890264
0.00890915
0.00891073
0.00891106
0.00891144
0.00891226
0.00891126
0.00890519
0.00888892
0.00885284
0.00878218
0.0086532
0.00842784
0.00804154
0.00739119
0.00632059
0.00465859
0.00241967
0.000350795
0.000314824
0.0023097
0.00442642
0.00604693
0.00716904
0.0079074
0.00837889
0.00867011
0.0088428
0.00893371
0.00897785
0.00899716
0.00900622
0.0090091
0.00901038
0.00901069
0.0090112
0.00900948
0.00900235
0.0089851
0.00894226
0.00885263
0.0086811
0.00839113
0.00792065
0.00718347
0.00606214
0.00443922
0.00231591
0.000315583
0.000314039
0.00245244
0.0046609
0.00630119
0.00743809
0.00819562
0.00868901
0.0089952
0.00917537
0.00929472
0.00936441
0.0093993
0.00940833
0.0094093
0.00941051
0.00941152
0.00941259
0.00941402
0.00940636
0.00937266
0.00930548
0.00919032
0.00901299
0.00870879
0.00821675
0.00746228
0.00632948
0.00468627
0.00246346
0.000314977
0.000344285
0.00286814
0.00521555
0.0068395
0.00796148
0.00874154
0.0092907
0.00966145
0.00989782
0.0100306
0.0100999
0.0101331
0.0101492
0.0101561
0.0101584
0.0101602
0.0101605
0.0101566
0.0101432
0.0101132
0.0100476
0.00991608
0.00968108
0.00931077
0.00876065
0.00798345
0.00687151
0.00525162
0.00289002
0.000345808
0.00037056
0.00299176
0.0053265
0.00689632
0.0079875
0.00877326
0.00936195
0.00980812
0.0101407
0.0103745
0.0105417
0.0106579
0.0107363
0.0107848
0.0108074
0.0108088
0.0107881
0.0107418
0.0106658
0.0105524
0.010388
0.0101546
0.00982422
0.00937788
0.00878252
0.00799468
0.0069196
0.00535951
0.00301456
0.000372938
0.000366231
0.00287665
0.0051039
0.00661024
0.00768405
0.0084756
0.00907879
0.00954894
0.00992255
0.0101939
0.0104002
0.0105568
0.0106713
0.0107458
0.0107833
0.010784
0.0107483
0.0106756
0.0105634
0.0104095
0.0102059
0.00993586
0.00956672
0.00909599
0.00847574
0.00767507
0.00662481
0.00513362
0.00289778
0.000368695
0.000353575
0.002648
0.00472915
0.00617699
0.0072359
0.00803532
0.00865306
0.00914537
0.00953946
0.00984817
0.0100939
0.0102848
0.0104244
0.0105166
0.0105627
0.0105634
0.0105186
0.010428
0.0102902
0.0101011
0.00985733
0.00955058
0.00916053
0.00867164
0.00805865
0.00725122
0.00619529
0.00475596
0.00266778
0.000356221
0.000339097
0.00244071
0.0043645
0.00575496
0.00681145
0.00763685
0.00827923
0.00878516
0.00919259
0.00952131
0.00978779
0.0100008
0.0101593
0.0102643
0.0103168
0.0103174
0.010266
0.0101623
0.0100052
0.00979368
0.00952864
0.00920067
0.00879431
0.00828966
0.00765582
0.00683288
0.0057749
0.00438701
0.00245814
0.000341698
0.000325571
0.00225451
0.00403234
0.00536075
0.00640854
0.0072564
0.00792645
0.00844888
0.00887137
0.00921278
0.00948994
0.00971388
0.00988457
0.00999878
0.0100559
0.0100564
0.0100003
0.00988728
0.00971777
0.00949493
0.00921868
0.0088775
0.00845443
0.00792967
0.00726106
0.00641351
0.00536473
0.0040422
0.00226585
0.000327861
0.000313117
0.00208174
0.00371414
0.00497052
0.00600671
0.0068769
0.0075854
0.00813422
0.00856914
0.00891945
0.00920123
0.00942734
0.00960165
0.0097203
0.0097801
0.00978055
0.00972171
0.00960411
0.00943072
0.00920538
0.00892414
0.0085735
0.00813706
0.00758425
0.00687174
0.00599676
0.00495947
0.00371378
0.0020864
0.000315035
0.000301245
0.00191669
0.00339451
0.00457977
0.0056034
0.00650307
0.00725559
0.00783518
0.00828295
0.00863901
0.00892137
0.00914438
0.00931403
0.00943029
0.00948944
0.00948983
0.00943147
0.00931601
0.00914706
0.00892457
0.00864249
0.00828532
0.00783464
0.00724964
0.00648919
0.00558243
0.00455829
0.00338635
0.00191702
0.000302718
0.000289856
0.00173561
0.00306448
0.00419073
0.00520802
0.00613988
0.00693548
0.00754823
0.00800802
0.00836792
0.00864968
0.00886782
0.00902956
0.00913835
0.00919359
0.00919386
0.00913912
0.00903084
0.00886958
0.00865168
0.0083698
0.00800844
0.00754485
0.00692453
0.00611868
0.00517854
0.00416057
0.0030477
0.00172666
0.000291017
0.000277699
0.00151979
0.00272188
0.00381053
0.00483083
0.00579139
0.00662471
0.00726756
0.007744
0.00810553
0.00838478
0.00859691
0.00875107
0.00885178
0.0089023
0.00890244
0.00885215
0.0087517
0.00859776
0.00838559
0.00810587
0.00774238
0.00726111
0.00660935
0.00576508
0.00479683
0.00377599
0.00269836
0.00150247
0.000278465
0.000263632
0.00127444
0.0023747
0.00344358
0.00447994
0.00546689
0.00632891
0.00699566
0.00748512
0.00784863
0.00812116
0.00832661
0.00847424
0.00856848
0.00861511
0.00861512
0.00856844
0.00847417
0.00832647
0.00812069
0.00784734
0.00748144
0.00698665
0.00631053
0.00543806
0.00444577
0.00341031
0.00234934
0.00125821
0.000264089
0.0002468
0.00102972
0.00206055
0.00310962
0.00415794
0.0051685
0.00604691
0.00672973
0.00722976
0.00759363
0.00786034
0.00805688
0.00819597
0.00828488
0.00832852
0.00832841
0.0082845
0.00819528
0.0080558
0.00785865
0.00759064
0.00722403
0.00671867
0.00602687
0.00513846
0.00412343
0.00307896
0.00203905
0.00101926
0.000247126
0.000228218
0.000860387
0.00180622
0.00281807
0.00386973
0.00489141
0.00577802
0.00647064
0.0069784
0.00734236
0.00760169
0.00778738
0.00791752
0.00800077
0.00804133
0.00804115
0.00800015
0.00791638
0.00778558
0.00759884
0.0073378
0.00697094
0.00645834
0.00575802
0.00486215
0.00383608
0.00278974
0.00178817
0.00085318
0.00022845
0.00021114
0.000726776
0.00157468
0.00255814
0.00361724
0.00463805
0.00552365
0.00621906
0.00673107
0.00709491
0.00734814
0.00752299
0.00764195
0.00771721
0.00775351
0.00775324
0.00771634
0.00764039
0.00752044
0.00734419
0.00708899
0.00672217
0.00620581
0.00550436
0.00461065
0.00358487
0.00253124
0.00155959
0.000722027
0.000211334
0.00019361
0.000561664
0.00135434
0.00235159
0.00340963
0.00441751
0.00528899
0.0059771
0.00648905
0.00685238
0.0071008
0.00726721
0.00737636
0.00744347
0.00747541
0.00747506
0.00744235
0.00737429
0.00726381
0.00709566
0.00684505
0.00647894
0.00596333
0.00527117
0.00439408
0.00337961
0.00232545
0.00134073
0.000558517
0.000193813
0.000175417
0.000427487
0.00116157
0.00221072
0.00326179
0.00424573
0.00508399
0.005753
0.00625921
0.00662049
0.00686596
0.00702721
0.00712991
0.00719111
0.00721975
0.00721932
0.00718972
0.00712724
0.00702284
0.00685952
0.00661186
0.00624842
0.00573971
0.00506783
0.0042266
0.00323671
0.00218561
0.00114814
0.000424947
0.000175633
0.000158529
0.000343051
0.00105459
0.00216776
0.00319028
0.00412217
0.00491391
0.00555712
0.00605079
0.00640803
0.00665407
0.00681673
0.00691961
0.00697989
0.00700766
0.00700721
0.00697839
0.00691668
0.00681187
0.00664693
0.00639868
0.00603962
0.00554436
0.00489865
0.00410375
0.00316789
0.0021433
0.00104006
0.000340181
0.00015876
0.000142718
0.000361942
0.00117804
0.00221934
0.00317431
0.0040308
0.00477263
0.00538592
0.00586503
0.00622181
0.00647795
0.00665377
0.00676799
0.00683583
0.00686723
0.00686679
0.00683437
0.00676516
0.00664913
0.00647117
0.00621271
0.00585384
0.00537296
0.00475724
0.0040112
0.00315034
0.00219091
0.00115997
0.00035721
0.000142909
0.000133274
0.000473156
0.00138847
0.0023237
0.00318204
0.00396041
0.00465326
0.00523769
0.00570602
0.00606749
0.00633737
0.00652997
0.00665931
0.006738
0.0067749
0.00677441
0.00673645
0.00665649
0.00652562
0.00633123
0.00605931
0.00569564
0.00522525
0.00463821
0.00394067
0.00315647
0.00229731
0.00136815
0.000467222
0.000133268
0.000133205
0.000671694
0.00163369
0.00244435
0.0031937
0.00390727
0.00455788
0.00511824
0.00557891
0.0059448
0.00622438
0.00642919
0.0065699
0.006657
0.00669828
0.00669777
0.00665542
0.00656718
0.0064252
0.00621897
0.00593768
0.00556986
0.00510718
0.00454432
0.00388951
0.0031705
0.00241734
0.00160982
0.000660815
0.000133112
0.000138417
0.000947093
0.00182321
0.00253309
0.00321015
0.00387285
0.00448921
0.00503061
0.00548498
0.00585261
0.00613788
0.0063494
0.00649709
0.00658972
0.00663398
0.0066335
0.00658827
0.00649467
0.00634594
0.00613334
0.00584668
0.00547745
0.0050212
0.00447738
0.00385709
0.00318928
0.00250755
0.00179786
0.000929833
0.000138132
0.000152756
0.00105909
0.00188065
0.00256836
0.00321527
0.00384926
0.00444422
0.0049737
0.00542402
0.00579218
0.0060804
0.00629482
0.00644521
0.00653982
0.00658519
0.00658479
0.00653864
0.00644329
0.00629218
0.00607703
0.0057878
0.00541829
0.00496617
0.0044342
0.00383536
0.003196
0.00254287
0.00185116
0.00104055
0.000152168
0.000160136
0.00101362
0.00184528
0.00254955
0.00320184
0.00383252
0.00442186
0.00494932
0.00540096
0.00577096
0.00605849
0.0062708
0.00641858
0.00651114
0.00655546
0.00655519
0.00651035
0.00641738
0.00626929
0.00605672
0.00576866
0.00539772
0.00494441
0.00441427
0.00382088
0.00318504
0.00252641
0.00181969
0.000992128
0.000159152
0.000160562
0.000906514
0.00176649
0.00249915
0.00317604
0.00382679
0.00442938
0.0049686
0.00542769
0.00579956
0.00607904
0.00628141
0.00641983
0.00650577
0.00654673
0.0065466
0.00650548
0.00641949
0.00628123
0.00607919
0.00580005
0.0054281
0.00496777
0.00442551
0.00381888
0.00316191
0.00247881
0.00174263
0.000887514
0.0001595
0.000159241
0.000800428
0.0016565
0.00243031
0.00315443
0.00385005
0.00448661
0.0050398
0.00550206
0.00587134
0.00614215
0.00632422
0.00644638
0.00652172
0.00655738
0.0065574
0.00652189
0.00644687
0.00632534
0.00614406
0.0058733
0.00550421
0.0050413
0.00448759
0.00384794
0.00314497
0.00241389
0.00163537
0.000784686
0.000158164
0.000154503
0.000677604
0.0015343
0.00236959
0.0031649
0.0039122
0.0045753
0.00514861
0.00561339
0.00597353
0.00621393
0.00638183
0.00648714
0.00655076
0.00658054
0.00658067
0.0065513
0.00648821
0.00638362
0.0062172
0.00597888
0.00562124
0.00515677
0.00458173
0.00391402
0.00316309
0.00235994
0.00151917
0.000666154
0.000153352
0.000146035
0.000593168
0.00145906
0.00237164
0.00324172
0.0040485
0.00476741
0.00533933
0.00576407
0.00608877
0.00630008
0.00643786
0.00652655
0.00658053
0.00660523
0.00660545
0.00658131
0.00652803
0.00644058
0.0063043
0.00609497
0.00577434
0.00535281
0.00478277
0.00406035
0.00324692
0.00237397
0.00145448
0.0005878
0.000144956
0.0001377
0.000584967
0.00150848
0.00248149
0.00342787
0.00430438
0.00499371
0.00548976
0.00585805
0.00614187
0.00635067
0.00647407
0.00655454
0.00660115
0.00662297
0.00662327
0.00660216
0.00655642
0.00647708
0.00635571
0.00614927
0.00586815
0.00550267
0.00501015
0.00432684
0.00344711
0.00249285
0.00151874
0.000589842
0.000136874
0.000131001
0.000671975
0.00166369
0.0027274
0.00376396
0.00458538
0.00516441
0.0055825
0.00591383
0.00617861
0.00637624
0.006493
0.00656467
0.00660972
0.00663193
0.00663233
0.00661101
0.00656678
0.00649621
0.00638124
0.00618803
0.00592555
0.00559584
0.00518106
0.0046107
0.00379731
0.00275696
0.00168008
0.000680093
0.000130619
0.000130169
0.000796464
0.00196316
0.00316055
0.00412183
0.00480151
0.00527939
0.00566092
0.00597929
0.0062148
0.00637633
0.00647974
0.00655686
0.00660881
0.00663475
0.00663532
0.00661062
0.00655977
0.00648364
0.00638197
0.00622467
0.00599343
0.00567721
0.00529827
0.00482585
0.00415641
0.00320607
0.00200188
0.00081081
0.000130334
0.000134078
0.00106845
0.00245022
0.00358638
0.00439261
0.00494877
0.00537903
0.00575562
0.00603387
0.00621387
0.00634313
0.00644963
0.00654136
0.00660359
0.00663471
0.00663553
0.0066061
0.00654557
0.00645536
0.00634946
0.00622331
0.0060463
0.00577466
0.00540086
0.00497323
0.00442344
0.00362658
0.00249374
0.00109952
0.000134761
0.000146595
0.00142083
0.00284727
0.00388015
0.00455719
0.00506042
0.00548947
0.00581977
0.00602419
0.00617326
0.0062908
0.00641907
0.00652583
0.00659756
0.00663358
0.00663465
0.00660082
0.00653141
0.00642711
0.00630024
0.00618192
0.00603546
0.00583414
0.00551155
0.00508417
0.00458433
0.00391183
0.00287888
0.00144174
0.000148193
0.000166384
0.00165275
0.00309479
0.00403525
0.00466965
0.00516472
0.00554389
0.00577854
0.00595536
0.00609779
0.00625089
0.00639729
0.00651364
0.00659209
0.00663193
0.00663324
0.00659604
0.00652032
0.00640681
0.00626259
0.0061092
0.00596642
0.00579199
0.00556017
0.00518702
0.00469164
0.00405864
0.0031195
0.00166486
0.000168032
0.000185823
0.00175609
0.00318517
0.00410089
0.00472717
0.005169
0.00544766
0.00565877
0.00584319
0.00604039
0.00622416
0.00638225
0.00650458
0.00658752
0.00663005
0.00663159
0.00659212
0.00651225
0.006393
0.00623759
0.00605525
0.00585841
0.00567348
0.00546438
0.00518885
0.00475012
0.00412621
0.0032083
0.00176644
0.000187051
0.000200622
0.00177745
0.00312598
0.0040543
0.00462072
0.00499409
0.00527146
0.00552002
0.00577421
0.00600669
0.00620817
0.00637354
0.00649954
0.00658507
0.00662915
0.00663091
0.00659032
0.00650826
0.00638568
0.00622346
0.00602427
0.00579328
0.00554019
0.00529122
0.00501516
0.00464641
0.00408672
0.00315302
0.00178746
0.000201636
0.000206809
0.00170702
0.00299403
0.00385714
0.00442617
0.0047944
0.00512354
0.00544488
0.00573922
0.00599522
0.00620661
0.00637466
0.00650136
0.00658726
0.00663159
0.00663356
0.00659318
0.00651125
0.00638854
0.00622431
0.00601585
0.00576173
0.00546691
0.00514391
0.00481407
0.00444683
0.00388369
0.00301961
0.00172221
0.000207883
0.000205854
0.00158936
0.00280995
0.00363749
0.0041639
0.00462004
0.00503208
0.00540935
0.00573943
0.00601103
0.00622379
0.00638873
0.00651226
0.00659584
0.00663901
0.00664115
0.00660231
0.00652325
0.00640452
0.00624478
0.00603592
0.00576623
0.00543373
0.00505229
0.0046362
0.00417614
0.00365112
0.00283087
0.00160638
0.000206937
0.000199398
0.00136203
0.0024909
0.00333041
0.00396339
0.00450279
0.00499017
0.00542307
0.00577522
0.00604841
0.00625921
0.00641531
0.0065318
0.00661059
0.0066513
0.00665348
0.00661721
0.00654321
0.00643188
0.00627869
0.00607151
0.00580034
0.00545098
0.00501313
0.00451851
0.00397207
0.00333593
0.00249898
0.00137261
0.000200446
0.000186141
0.00112643
0.0022076
0.00309331
0.00381639
0.00445168
0.00501872
0.00547783
0.00584419
0.00610993
0.00630277
0.0064486
0.00655598
0.00662865
0.0066662
0.00666823
0.00663476
0.00656659
0.00646424
0.00632526
0.00613982
0.00588044
0.00551208
0.00504838
0.00447212
0.00382583
0.00309476
0.00220631
0.00112848
0.000186741
0.000173199
0.000928043
0.00198631
0.00293059
0.00375882
0.00449987
0.00510533
0.00559258
0.00594305
0.00618193
0.0063527
0.00647946
0.00657791
0.00664496
0.00667963
0.00668129
0.00664981
0.00658629
0.00649314
0.00637249
0.00620745
0.005975
0.00562996
0.00514037
0.0045277
0.00377539
0.00293386
0.00198123
0.000924592
0.000173578
0.00015951
0.000800173
0.00186788
0.00290121
0.00384155
0.00462407
0.00526252
0.00569332
0.00599555
0.00622118
0.00637631
0.00649842
0.00659058
0.00665441
0.00668733
0.00668837
0.00665732
0.00659596
0.00650671
0.00639252
0.00624497
0.0060204
0.00572254
0.0052971
0.00465744
0.00386743
0.00291629
0.00186812
0.000793782
0.000159452
0.000147438
0.000798587
0.00193653
0.00304912
0.00401769
0.00483413
0.00536994
0.00573478
0.00601559
0.00622929
0.00637987
0.00649837
0.00658955
0.00665392
0.00668699
0.00668736
0.0066547
0.0065912
0.00650151
0.00638549
0.0062439
0.00603697
0.0057601
0.00539738
0.0048658
0.00405091
0.00307434
0.00195367
0.000802472
0.000147252
0.00014191
0.000918567
0.00213241
0.00330354
0.00430619
0.00497496
0.00541328
0.00575712
0.00601372
0.00620578
0.00635107
0.00647587
0.00657511
0.00664392
0.00667882
0.00667863
0.00664306
0.00657382
0.00647454
0.00635162
0.00621508
0.00603482
0.00578314
0.00544407
0.00500092
0.00434077
0.00334565
0.00215788
0.000925237
0.000142241
0.000143162
0.00108675
0.00248411
0.00368122
0.00449566
0.00503099
0.00545233
0.00576188
0.00598475
0.00615163
0.00630594
0.00644383
0.00655246
0.00662684
0.00666425
0.00666371
0.00662505
0.00654965
0.00644031
0.0063028
0.00615237
0.00599891
0.00578677
0.00547779
0.00506071
0.00452376
0.00372722
0.00253366
0.00111027
0.000143968
0.000151289
0.00142083
0.0028741
0.00390255
0.00456853
0.00508223
0.00545876
0.0057194
0.00591373
0.00608911
0.00625994
0.00640902
0.0065254
0.00660481
0.00664476
0.00664412
0.00660284
0.00652232
0.00640509
0.0062557
0.00608577
0.00591429
0.00573074
0.00548281
0.00510383
0.00459754
0.00393814
0.00292278
0.00146154
0.000153272
0.000169048
0.00166787
0.00308636
0.00399431
0.00461708
0.00509546
0.00539413
0.00562598
0.00583241
0.00603245
0.00621709
0.00637404
0.00649613
0.00657959
0.0066218
0.00662138
0.00657833
0.00649417
0.00637153
0.00621409
0.00602867
0.00582693
0.00562031
0.00539804
0.0051094
0.00464161
0.00401333
0.0031176
0.00169284
0.000172326
0.000189024
0.00174849
0.00314635
0.00402333
0.00463356
0.0049997
0.00527449
0.00552019
0.00576253
0.00598371
0.00617803
0.00634032
0.00646642
0.0065529
0.00659698
0.00659713
0.00655336
0.00646722
0.00634143
0.00617905
0.00598334
0.00575837
0.00550995
0.00525814
0.00499184
0.00462568
0.00404923
0.00315541
0.00176991
0.000192156
0.000202628
0.00173909
0.00308326
0.00396666
0.00448033
0.00483742
0.00514486
0.00544198
0.00571043
0.00594425
0.00614419
0.00630961
0.00643809
0.00652647
0.00657197
0.00657304
0.00652967
0.0064434
0.00631683
0.00615248
0.00595164
0.00571324
0.0054354
0.00512565
0.00480413
0.00445756
0.00392564
0.00306008
0.00174017
0.000203974
0.000206025
0.00167093
0.00293517
0.00376693
0.00426258
0.0046738
0.00505415
0.00539122
0.00567645
0.00591566
0.00611726
0.00628341
0.00641257
0.00650178
0.00654829
0.00655054
0.00650866
0.00642408
0.00629946
0.0061371
0.00593684
0.0056932
0.00539391
0.00503771
0.00463761
0.00419386
0.0036915
0.00288032
0.00165468
0.00020557
0.000203307
0.00151274
0.0026815
0.00343672
0.0040397
0.00455292
0.00500205
0.00536879
0.00566053
0.00589784
0.0060971
0.00626176
0.00639032
0.00647968
0.00652696
0.00653059
0.00649096
0.00640952
0.00628934
0.00613296
0.00593948
0.00570086
0.00539409
0.004997
0.0045244
0.00398538
0.00335457
0.00255977
0.00144464
0.00020137
0.000193608
0.00122047
0.00227998
0.00315199
0.00387474
0.00449621
0.00500016
0.0053705
0.00565352
0.0058845
0.00607977
0.00624247
0.00637054
0.00646025
0.00650844
0.00651354
0.00647627
0.00639832
0.00628348
0.00613498
0.00595206
0.00572465
0.00542638
0.00502109
0.00448491
0.00384047
0.00310078
0.0022141
0.00113593
0.000189288
0.000176683
0.000908538
0.00198261
0.00296229
0.00381816
0.00451249
0.00501851
0.00536924
0.00564015
0.0058646
0.00605833
0.0062221
0.0063519
0.00644321
0.00649278
0.00649923
0.00646358
0.00638782
0.00627664
0.0061344
0.00596313
0.00575539
0.0054873
0.0050876
0.00452703
0.00380367
0.0029364
0.00195559
0.000885123
0.000173483
0.000160045
0.000733749
0.00184899
0.00295261
0.00387195
0.00455123
0.00501422
0.00534675
0.00560409
0.00582812
0.00602849
0.00619917
0.00633398
0.00642849
0.00647997
0.00648739
0.00645187
0.0063755
0.00626304
0.00612041
0.00595306
0.00575827
0.0055016
0.00516515
0.00464622
0.00388673
0.00294098
0.00184485
0.0007471
0.000158559
0.000147745
0.000777947
0.00197429
0.00308133
0.00396036
0.00455654
0.00496517
0.00528681
0.00553775
0.005778
0.00599441
0.00617601
0.00631787
0.00641644
0.00647
0.00647792
0.00644113
0.00636146
0.0062427
0.00609014
0.00591175
0.00572086
0.00548586
0.0051738
0.00473766
0.00406351
0.00309646
0.00197021
0.000787096
0.000146768
0.00014388
0.000922112
0.00217444
0.00326164
0.00401115
0.00453639
0.00490597
0.00518678
0.00546302
0.00573084
0.00596473
0.00615756
0.00630519
0.00640753
0.00646284
0.00647077
0.00643202
0.00634813
0.00622163
0.00605586
0.00585635
0.00564085
0.00543072
0.00515456
0.00476111
0.0042004
0.00336875
0.00218424
0.000918971
0.000142948
0.00014717
0.00117961
0.00249652
0.00338995
0.00404407
0.00448358
0.004804
0.00510069
0.00541031
0.0056978
0.00594574
0.00614615
0.00629874
0.00640278
0.00645871
0.00646609
0.0064254
0.00633782
0.00620499
0.00602868
0.00581186
0.00556558
0.00531805
0.00506779
0.00475707
0.00425755
0.00358497
0.00257442
0.00116665
0.000145949
0.000161487
0.00148106
0.00267048
0.00349691
0.0039902
0.0043648
0.00470148
0.00504691
0.00538098
0.00568386
0.00593865
0.0061425
0.00629736
0.00640312
0.00645917
0.00646575
0.00642356
0.00633376
0.0061973
0.00601382
0.00578475
0.00551769
0.00522719
0.00494071
0.00465481
0.00428722
0.00365823
0.00281829
0.00154501
0.000158764
0.000181121
0.00152638
0.00261887
0.0033477
0.00385199
0.00425437
0.00464375
0.00502297
0.00537932
0.00569026
0.00594791
0.00615257
0.00630631
0.00641019
0.00646464
0.00647019
0.00642739
0.00633713
0.00619997
0.00601567
0.00578215
0.00549809
0.00517668
0.00483621
0.00449743
0.00413863
0.00365712
0.00283873
0.00164445
0.000183156
0.000186598
0.00140452
0.00245498
0.00318772
0.00371301
0.00417851
0.00461703
0.0050356
0.00540665
0.00572473
0.0059825
0.00618261
0.00633042
0.00642888
0.00647951
0.00648316
0.00644054
0.00635218
0.00621814
0.00603675
0.00580267
0.00550908
0.00516105
0.0047737
0.00437107
0.00395446
0.00346756
0.00268281
0.00155566
0.00019373
0.000184088
0.00126448
0.0022365
0.0029869
0.00359193
0.00412819
0.00463146
0.00508215
0.00548097
0.00580391
0.00605338
0.00623993
0.00637483
0.00646336
0.0065073
0.00650833
0.0064672
0.00638451
0.00625956
0.00608844
0.00586132
0.00556215
0.00518835
0.00475507
0.00428014
0.00377532
0.00319661
0.00248003
0.00142735
0.000193125
0.000176432
0.00102692
0.00198998
0.0028072
0.00349981
0.00412752
0.00468991
0.00519669
0.00562232
0.00593187
0.0061561
0.00631827
0.00643302
0.00650737
0.00654316
0.00654226
0.00650438
0.00643026
0.00631973
0.00616896
0.00596412
0.00567701
0.00527897
0.00479382
0.00424335
0.00363892
0.00296839
0.00216391
0.00119497
0.000186683
0.000165548
0.000835219
0.00180087
0.00268383
0.00347925
0.00419322
0.00483936
0.00539408
0.00580787
0.00608332
0.00627218
0.00640343
0.00649512
0.00655421
0.00658126
0.00657748
0.00654227
0.00647724
0.00638378
0.00625856
0.00608576
0.00583299
0.00544762
0.00491965
0.00429064
0.00357881
0.00279841
0.00192581
0.000947369
0.000174618
0.000154322
0.000729999
0.00170709
0.00267758
0.00356691
0.00438166
0.00509105
0.00560822
0.00597118
0.00621198
0.00636897
0.00647317
0.00654664
0.00659442
0.00661473
0.00660802
0.00657335
0.00651329
0.00643127
0.00632686
0.00618347
0.0059623
0.00562702
0.00513763
0.00444815
0.00364667
0.00274273
0.00177088
0.000778549
0.000161933
0.000144354
0.000737909
0.0017833
0.00281486
0.00380088
0.00468994
0.00531814
0.00574213
0.00605885
0.00628767
0.00642107
0.0065107
0.00657715
0.00662144
0.00663933
0.00663028
0.00659311
0.00653048
0.00644724
0.00634795
0.00622671
0.00602748
0.00573021
0.00532131
0.00471442
0.00384421
0.00285844
0.0017915
0.00072728
0.000149718
0.000139287
0.000840988
0.00196364
0.00311775
0.00417296
0.00493818
0.00543671
0.00581293
0.00610703
0.00630437
0.00642111
0.00651297
0.00658628
0.00663543
0.0066554
0.00664509
0.00660338
0.00653241
0.00643636
0.00632161
0.00620217
0.00603689
0.00577057
0.00540881
0.00491353
0.00417363
0.00312372
0.00196916
0.000831527
0.000142097
0.000140261
0.000996969
0.00233038
0.00357321
0.00447775
0.00506671
0.00551126
0.00587069
0.00611358
0.00626638
0.00638095
0.00649244
0.00658138
0.00664022
0.00666501
0.00665445
0.00660788
0.0065271
0.00641563
0.00628053
0.00614069
0.00599098
0.00578878
0.00545713
0.00500693
0.00441422
0.00354327
0.00231664
0.00097947
0.000142158
0.000147549
0.00132594
0.00280059
0.00392023
0.00464456
0.0051596
0.00558598
0.00588672
0.00606051
0.00619333
0.00633284
0.006466
0.00657031
0.00663919
0.00666949
0.0066594
0.00660862
0.00651894
0.00639295
0.00623391
0.00605194
0.00589423
0.00571837
0.00547841
0.0050753
0.00454036
0.00383662
0.00277533
0.00131567
0.000148398
0.00016489
0.00162463
0.00310447
0.00409536
0.00473443
0.00524378
0.00559729
0.00580031
0.00595562
0.00611419
0.00628889
0.00644049
0.0065569
0.00663425
0.00666956
0.00666055
0.00660691
0.00651065
0.00637444
0.00620031
0.0059936
0.00577351
0.00558094
0.00537859
0.00510141
0.0046135
0.00398898
0.00306037
0.00165456
0.000165518
0.000185262
0.00177012
0.00322434
0.00413979
0.00478174
0.00518953
0.00544939
0.00565087
0.00585123
0.00606199
0.00625697
0.00641975
0.00654423
0.00662783
0.0066673
0.00666
0.00660556
0.00650611
0.00636466
0.00618102
0.00595839
0.0057073
0.00544432
0.00519948
0.00493748
0.00458082
0.00400775
0.00312628
0.00176276
0.000189989
0.000203328
0.00180406
0.00317979
0.00410719
0.00463235
0.00500255
0.00526599
0.00552427
0.00578755
0.00602938
0.00623984
0.00640851
0.00653649
0.00662341
0.00666568
0.00666052
0.00660753
0.00650869
0.00636707
0.00618255
0.00595185
0.00567586
0.00537022
0.00505327
0.00473638
0.0043823
0.00383435
0.00300495
0.00173362
0.000204141
0.000210617
0.00172309
0.00301539
0.00385377
0.00439738
0.0047585
0.00511268
0.00544708
0.00575727
0.00602483
0.00623901
0.00640855
0.00653701
0.00662407
0.00666751
0.00666477
0.00661544
0.00652104
0.00638335
0.00620238
0.00597162
0.00568272
0.00533499
0.00495553
0.00455535
0.0041132
0.00360367
0.00280504
0.00161714
0.000205119
0.000209545
0.00160336
0.00280155
0.00358574
0.00411796
0.00458873
0.00502005
0.00542099
0.00576919
0.00604752
0.00625878
0.00642224
0.00654613
0.00663103
0.00667448
0.00667434
0.0066308
0.00654534
0.00641949
0.0062511
0.00602788
0.00573058
0.0053593
0.00491172
0.00442841
0.00390369
0.0032936
0.00249766
0.00140316
0.000200473
0.000202198
0.00135435
0.00243837
0.00327251
0.00391487
0.00447745
0.00499896
0.00545876
0.00583104
0.00610786
0.00630462
0.006453
0.00656611
0.00664506
0.00668678
0.00668887
0.00665182
0.00657761
0.00646881
0.00632329
0.00612658
0.00584235
0.00543899
0.00494686
0.00436817
0.00374341
0.00304172
0.00218397
0.00113656
0.000188722
0.000187718
0.00109177
0.002143
0.00302812
0.00377617
0.00445483
0.00505799
0.00557066
0.0059445
0.0061889
0.00635951
0.00648856
0.00658945
0.00666228
0.00670211
0.00670579
0.00667379
0.00660877
0.00651544
0.00639347
0.0062263
0.00597987
0.00559848
0.00505553
0.00441546
0.00367108
0.00286372
0.00194832
0.000920054
0.000175222
0.000173332
0.000892071
0.00193252
0.00288825
0.00375615
0.00452996
0.005205
0.00570946
0.00603313
0.00624697
0.00639683
0.00651223
0.006607
0.00667787
0.00671782
0.00672241
0.00669171
0.00662939
0.00654248
0.00643388
0.00628625
0.00605838
0.00573517
0.0052508
0.0045508
0.00374426
0.00281836
0.00182204
0.000790044
0.000161391
0.000158971
0.000796453
0.00186509
0.00291386
0.00386997
0.00471276
0.00535181
0.00577142
0.0060585
0.00625729
0.00639387
0.00651225
0.00661409
0.00669112
0.00673462
0.00673979
0.00670596
0.00663726
0.00654156
0.00642701
0.00628967
0.00607807
0.00578114
0.00538395
0.00478652
0.00391996
0.00295298
0.00187836
0.000788332
0.000149421
0.000148552
0.000856794
0.00199983
0.00309593
0.00409107
0.00488904
0.00541374
0.00578082
0.00604829
0.0062187
0.00636164
0.00649788
0.00661704
0.00670622
0.00675625
0.00676139
0.00672139
0.00664042
0.00652646
0.00639259
0.00625243
0.00607936
0.0058011
0.00543114
0.00495122
0.00420962
0.00318873
0.00205939
0.000901574
0.000143915
0.000146274
0.000980287
0.00221057
0.00338643
0.00433885
0.00498033
0.0054386
0.00577957
0.00599311
0.00615569
0.00631823
0.00648254
0.00662283
0.00672631
0.00678357
0.00678872
0.00674132
0.00664604
0.00651106
0.0063487
0.00618743
0.0060275
0.00581496
0.00547008
0.00501235
0.0044226
0.00355289
0.00236386
0.00104737
0.000144796
0.000149227
0.00119031
0.00258354
0.00371226
0.00448495
0.00502628
0.00544864
0.00571456
0.00590411
0.00607638
0.00628018
0.00647267
0.00663411
0.00675215
0.00681691
0.00682185
0.00676657
0.00665662
0.00650081
0.0063108
0.00610769
0.00593763
0.00575089
0.00549702
0.00506711
0.00453585
0.00381875
0.00275411
0.00133686
0.000151461
0.000160269
0.00149182
0.00290204
0.00389518
0.00454026
0.00506032
0.00537815
0.00560106
0.00578057
0.006014
0.00625182
0.0064705
0.00665275
0.00678576
0.00685827
0.00686292
0.00679939
0.00667432
0.00649799
0.00628253
0.00604614
0.00581306
0.00563438
0.00541558
0.00511396
0.00459771
0.00397384
0.00299994
0.00157303
0.000166783
0.000178126
0.00165529
0.00304887
0.00394071
0.00458255
0.00496798
0.00523886
0.00543945
0.0056936
0.0059672
0.0062393
0.00648232
0.00668397
0.00683047
0.00690981
0.00691418
0.00684333
0.00670459
0.00650918
0.00627009
0.00599986
0.00572636
0.00547046
0.00527116
0.00500657
0.00463359
0.00400063
0.00310939
0.00169308
0.000183309
0.000194343
0.0017108
0.00304894
0.00392962
0.00444714
0.00480152
0.00503789
0.00532096
0.00562609
0.00594415
0.00624753
0.0065137
0.00673047
0.00688534
0.00696824
0.00697235
0.00689747
0.00675019
0.00653989
0.00627864
0.00597713
0.00565905
0.00535234
0.00506853
0.00482815
0.00447062
0.00395476
0.00307413
0.00172417
0.000197348
0.000200406
0.00165873
0.00291407
0.00372804
0.00423719
0.00454652
0.00488397
0.00522926
0.00559405
0.00595608
0.0062831
0.00656281
0.0067828
0.0069346
0.00701437
0.00701817
0.0069459
0.00680135