/*--------------------------------*- C++ -*----------------------------------*\
| =========                 |                                                 |
| \\      /  F ield         | OpenFOAM: The Open Source CFD Toolbox           |
|  \\    /   O peration     | Version:  v1606+                                |
|   \\  /    A nd           | Web:      www.OpenFOAM.com                      |
|    \\/     M anipulation  |                                                 |
\*---------------------------------------------------------------------------*/
FoamFile
{
    version     2.0;
    format      ascii;
    class       volVectorField;
    location    "0.24";
    object      U.particles;
}
// * * * * * * * * * * * * * * * * * * * * * * * * * * * * * * * * * * * * * //

dimensions      [0 1 -1 0 0 0 0];

internalField   nonuniform List<vector> 
6000
(
(-0.0142122 -0.322131 0)
(-0.0211183 -0.364735 0)
(-0.0270836 -0.368564 0)
(-0.0337336 -0.372709 0)
(-0.0337449 -0.37771 0)
(-0.0330088 -0.384361 0)
(-0.0308229 -0.396709 0)
(-0.0296974 -0.409209 0)
(-0.0285787 -0.419425 0)
(-0.0280889 -0.427776 0)
(-0.0252437 -0.432678 0)
(-0.0191438 -0.437135 0)
(-0.0133239 -0.443866 0)
(-0.00749693 -0.447003 0)
(-0.00239005 -0.445156 0)
(0.00225183 -0.447402 0)
(0.00791913 -0.446489 0)
(0.0141854 -0.441805 0)
(0.0210504 -0.437648 0)
(0.0252275 -0.433143 0)
(0.0270228 -0.426962 0)
(0.0285597 -0.41847 0)
(0.0301325 -0.408085 0)
(0.0319355 -0.395004 0)
(0.0339863 -0.384526 0)
(0.0342544 -0.37588 0)
(0.0343921 -0.371006 0)
(0.0285789 -0.36629 0)
(0.0218492 -0.363139 0)
(0.0141216 -0.32005 0)
(-0.00552154 0.0867167 0)
(-0.0324522 0.126353 0)
(-0.0340108 0.109482 0)
(-0.0435267 0.109826 0)
(-0.0445593 0.100758 0)
(-0.0445936 0.0880268 0)
(-0.0440103 0.0792103 0)
(-0.0428276 0.0729109 0)
(-0.0396994 0.0682077 0)
(-0.0352317 0.0654241 0)
(-0.0299332 0.0579713 0)
(-0.0245021 0.0531001 0)
(-0.0181215 0.0552952 0)
(-0.011331 0.0544693 0)
(-0.00367778 0.0551081 0)
(0.00438587 0.0530236 0)
(0.0118196 0.0540005 0)
(0.0186401 0.0512063 0)
(0.0248072 0.0552086 0)
(0.030991 0.0629026 0)
(0.0365521 0.0645421 0)
(0.0405627 0.0672678 0)
(0.0429402 0.0719363 0)
(0.0441939 0.0790344 0)
(0.0450254 0.0923185 0)
(0.0452842 0.104702 0)
(0.0449708 0.111238 0)
(0.0364901 0.110703 0)
(0.034551 0.125852 0)
(0.00659923 0.0887655 0)
(-0.0235464 0.114958 0)
(-0.0376694 0.0857286 0)
(-0.0367792 0.0859811 0)
(-0.0466157 0.0777131 0)
(-0.044411 0.0658975 0)
(-0.0440276 0.0610926 0)
(-0.0432772 0.0584147 0)
(-0.0421119 0.0532329 0)
(-0.0396185 0.0471657 0)
(-0.0359944 0.0407655 0)
(-0.0311344 0.0327214 0)
(-0.0261227 0.027358 0)
(-0.019878 0.0250049 0)
(-0.0124202 0.0226633 0)
(-0.00395451 0.022326 0)
(0.00473 0.0214024 0)
(0.0129382 0.0226298 0)
(0.02028 0.0239657 0)
(0.0260599 0.0277471 0)
(0.0319348 0.0343375 0)
(0.0372356 0.0410186 0)
(0.0405276 0.0474765 0)
(0.0425604 0.0535935 0)
(0.0435274 0.0578301 0)
(0.0446457 0.0617736 0)
(0.0455275 0.0655896 0)
(0.0483402 0.0760733 0)
(0.0392832 0.0854262 0)
(0.0397456 0.0885392 0)
(0.0244206 0.117259 0)
(-0.011046 0.167583 0)
(-0.0227675 0.109183 0)
(-0.0353288 0.108945 0)
(-0.0426672 0.0964485 0)
(-0.0413465 0.08728 0)
(-0.0421986 0.0888773 0)
(-0.0414169 0.0926512 0)
(-0.0405552 0.0934705 0)
(-0.0389704 0.0920555 0)
(-0.0368877 0.0885754 0)
(-0.0333558 0.0832126 0)
(-0.0283497 0.0788105 0)
(-0.0217549 0.0753142 0)
(-0.0137073 0.0724886 0)
(-0.00450618 0.0710514 0)
(0.00514052 0.0708728 0)
(0.0143174 0.0723597 0)
(0.0223071 0.0750479 0)
(0.0286694 0.0789379 0)
(0.0337808 0.0836693 0)
(0.0373449 0.0886808 0)
(0.039543 0.0922082 0)
(0.0412701 0.0934241 0)
(0.0419849 0.0917585 0)
(0.0430941 0.0881571 0)
(0.0427898 0.0855018 0)
(0.0441554 0.0939858 0)
(0.0370116 0.107565 0)
(0.024043 0.111854 0)
(0.011701 0.171088 0)
(-0.00297528 0.144001 0)
(-0.0199943 0.0556786 0)
(-0.0359587 0.0430635 0)
(-0.0371259 0.015576 0)
(-0.0324414 0.00359044 0)
(-0.031061 0.0154426 0)
(-0.0302848 0.0320059 0)
(-0.0309618 0.0453994 0)
(-0.0311611 0.0538878 0)
(-0.0299622 0.0580038 0)
(-0.0273617 0.0570084 0)
(-0.023647 0.0553693 0)
(-0.0183678 0.0535168 0)
(-0.0116273 0.0505567 0)
(-0.00382329 0.0486588 0)
(0.00443878 0.0483715 0)
(0.0121304 0.0503522 0)
(0.0187271 0.053099 0)
(0.0238383 0.0553186 0)
(0.0276403 0.0572843 0)
(0.0301363 0.0576665 0)
(0.0313553 0.0533077 0)
(0.0315001 0.0445362 0)
(0.0306015 0.029632 0)
(0.0316508 0.0125714 0)
(0.0337144 -0.000906558 0)
(0.0384949 0.0105437 0)
(0.0369667 0.0398954 0)
(0.0207569 0.0583194 0)
(0.00344426 0.148583 0)
(0.000627012 -0.0412623 0)
(-0.0281061 -0.141585 0)
(-0.0335736 -0.179979 0)
(-0.02632 -0.214024 0)
(-0.0138774 -0.219589 0)
(-0.003674 -0.198542 0)
(0.00237134 -0.167014 0)
(0.00176646 -0.135351 0)
(-0.00114138 -0.110285 0)
(-0.00304092 -0.0904997 0)
(-0.00449612 -0.0777076 0)
(-0.00552055 -0.0694076 0)
(-0.00490591 -0.0638479 0)
(-0.0033119 -0.0622465 0)
(-0.00096187 -0.0621761 0)
(0.00149564 -0.0622989 0)
(0.00346817 -0.0624709 0)
(0.00484769 -0.0643693 0)
(0.00519464 -0.0699173 0)
(0.00448105 -0.0781541 0)
(0.00305891 -0.0915747 0)
(0.000902615 -0.112001 0)
(-0.00184685 -0.137513 0)
(-0.00250054 -0.170616 0)
(0.00386832 -0.202949 0)
(0.0146688 -0.225199 0)
(0.0272859 -0.220007 0)
(0.0339184 -0.184535 0)
(0.028464 -0.140794 0)
(-0.000291488 -0.0366891 0)
(-0.00110512 -0.26676 0)
(-0.0361546 -0.334385 0)
(-0.0283428 -0.379913 0)
(-0.0169319 -0.404612 0)
(-0.00101279 -0.408816 0)
(0.0149943 -0.397849 0)
(0.0285844 -0.377302 0)
(0.0367254 -0.353644 0)
(0.0388666 -0.332382 0)
(0.0368772 -0.314965 0)
(0.0327144 -0.300512 0)
(0.0263056 -0.287975 0)
(0.0192375 -0.278141 0)
(0.0116731 -0.271735 0)
(0.00389905 -0.268022 0)
(-0.00400681 -0.268311 0)
(-0.0119733 -0.272045 0)
(-0.0196043 -0.278732 0)
(-0.0268202 -0.288633 0)
(-0.0331277 -0.301188 0)
(-0.0372588 -0.315956 0)
(-0.0392793 -0.333768 0)
(-0.0369872 -0.355338 0)
(-0.0286648 -0.379646 0)
(-0.0148231 -0.400569 0)
(0.00128996 -0.412003 0)
(0.0172417 -0.407728 0)
(0.0285043 -0.382458 0)
(0.0362794 -0.334043 0)
(0.00105494 -0.263514 0)
(-0.00309101 -0.320291 0)
(-0.0286538 -0.364103 0)
(-0.0161251 -0.416414 0)
(-0.00811129 -0.443231 0)
(0.00453506 -0.450358 0)
(0.0183012 -0.447423 0)
(0.0322827 -0.43741 0)
(0.0443799 -0.426441 0)
(0.0512793 -0.417918 0)
(0.052067 -0.413975 0)
(0.0493623 -0.411321 0)
(0.0424074 -0.409712 0)
(0.0322125 -0.408274 0)
(0.020107 -0.40715 0)
(0.00664146 -0.406126 0)
(-0.00721365 -0.40616 0)
(-0.0206412 -0.407247 0)
(-0.0327389 -0.408341 0)
(-0.0429243 -0.409845 0)
(-0.0499006 -0.41133 0)
(-0.0526008 -0.414192 0)
(-0.0516902 -0.418223 0)
(-0.0446237 -0.427218 0)
(-0.0323246 -0.438538 0)
(-0.0183071 -0.448679 0)
(-0.00481496 -0.4521 0)
(0.00762748 -0.44481 0)
(0.0152463 -0.416996 0)
(0.027911 -0.362463 0)
(0.00274049 -0.317977 0)
(0.00447828 -0.276415 0)
(-0.0127414 -0.335212 0)
(-0.00139415 -0.393275 0)
(0.00296219 -0.424281 0)
(0.0102443 -0.434392 0)
(0.01826 -0.433367 0)
(0.0272412 -0.422206 0)
(0.0360388 -0.412583 0)
(0.0433875 -0.405301 0)
(0.0467226 -0.403095 0)
(0.0457048 -0.403581 0)
(0.0408884 -0.405428 0)
(0.0320901 -0.409318 0)
(0.0204505 -0.412548 0)
(0.00682636 -0.414304 0)
(-0.00744932 -0.414219 0)
(-0.0210318 -0.412411 0)
(-0.0326329 -0.409092 0)
(-0.0413987 -0.405156 0)
(-0.0462542 -0.403496 0)
(-0.047256 -0.403091 0)
(-0.0438291 -0.405673 0)
(-0.0364661 -0.4133 0)
(-0.0273468 -0.423367 0)
(-0.0186398 -0.434717 0)
(-0.0111606 -0.43601 0)
(-0.00405497 -0.425975 0)
(6.37676e-06 -0.393934 0)
(0.0115046 -0.333977 0)
(-0.00527468 -0.273397 0)
(0.0103579 -0.234732 0)
(-0.00192162 -0.292663 0)
(0.0122875 -0.357119 0)
(0.013253 -0.392965 0)
(0.0175871 -0.408628 0)
(0.0236135 -0.40793 0)
(0.0292258 -0.398601 0)
(0.0339867 -0.387299 0)
(0.0391066 -0.380404 0)
(0.0424783 -0.376167 0)
(0.0419453 -0.37538 0)
(0.0378321 -0.377494 0)
(0.0292632 -0.380482 0)
(0.0184142 -0.382922 0)
(0.00609461 -0.384304 0)
(-0.00668127 -0.384271 0)
(-0.0189911 -0.382853 0)
(-0.0298494 -0.380315 0)
(-0.0384649 -0.377333 0)
(-0.0425618 -0.375299 0)
(-0.0430639 -0.376363 0)
(-0.0396393 -0.380867 0)
(-0.0346356 -0.388102 0)
(-0.0298788 -0.399855 0)
(-0.0247714 -0.411634 0)
(-0.0187962 -0.410694 0)
(-0.0149875 -0.394466 0)
(-0.0142826 -0.357227 0)
(0.000526385 -0.290785 0)
(-0.0113256 -0.23201 0)
(0.0161463 -0.195777 0)
(0.00920193 -0.259782 0)
(0.0266415 -0.326644 0)
(0.0266479 -0.36453 0)
(0.0265764 -0.373914 0)
(0.0283763 -0.372559 0)
(0.032125 -0.371916 0)
(0.033952 -0.35903 0)
(0.0353599 -0.350132 0)
(0.0370849 -0.345814 0)
(0.0369863 -0.34312 0)
(0.0340434 -0.342543 0)
(0.0273497 -0.344559 0)
(0.0175029 -0.347143 0)
(0.00581419 -0.348822 0)
(-0.00644282 -0.348786 0)
(-0.0181138 -0.347085 0)
(-0.0279331 -0.34443 0)
(-0.0345935 -0.342531 0)
(-0.0375245 -0.343256 0)
(-0.0375771 -0.346228 0)
(-0.0358318 -0.350911 0)
(-0.0346094 -0.360193 0)
(-0.0331106 -0.373179 0)
(-0.0294012 -0.373993 0)
(-0.0279765 -0.375829 0)
(-0.0287778 -0.365863 0)
(-0.0288875 -0.326845 0)
(-0.0107066 -0.258293 0)
(-0.0171783 -0.193153 0)
(0.0212277 -0.160165 0)
(0.0183138 -0.224761 0)
(0.0430354 -0.290842 0)
(0.0455796 -0.329565 0)
(0.042629 -0.340751 0)
(0.0394042 -0.340157 0)
(0.0373668 -0.331345 0)
(0.0377551 -0.326351 0)
(0.0363183 -0.318055 0)
(0.035338 -0.314128 0)
(0.0344917 -0.312084 0)
(0.0316515 -0.310778 0)
(0.025626 -0.311462 0)
(0.0164461 -0.3135 0)
(0.00543929 -0.314965 0)
(-0.00605483 -0.31497 0)
(-0.0169992 -0.313534 0)
(-0.0260751 -0.311521 0)
(-0.0319614 -0.310883 0)
(-0.034689 -0.312339 0)
(-0.0354592 -0.314647 0)
(-0.036494 -0.318891 0)
(-0.0379242 -0.328148 0)
(-0.0378226 -0.332678 0)
(-0.0406509 -0.341464 0)
(-0.0446991 -0.342277 0)
(-0.0482439 -0.330777 0)
(-0.0454823 -0.290848 0)
(-0.019645 -0.223585 0)
(-0.0222448 -0.15799 0)
(0.0255053 -0.127676 0)
(0.0262306 -0.194295 0)
(0.0602161 -0.256932 0)
(0.0678956 -0.296137 0)
(0.0633977 -0.307285 0)
(0.0557087 -0.3051 0)
(0.0463101 -0.296719 0)
(0.0427894 -0.289445 0)
(0.0400311 -0.282641 0)
(0.036724 -0.278356 0)
(0.0340376 -0.276 0)
(0.0306014 -0.273919 0)
(0.0248762 -0.272876 0)
(0.0161633 -0.273633 0)
(0.00543857 -0.274799 0)
(-0.00581806 -0.274839 0)
(-0.0163963 -0.273758 0)
(-0.0248538 -0.272991 0)
(-0.030306 -0.2741 0)
(-0.0335193 -0.276333 0)
(-0.0360993 -0.278914 0)
(-0.0395657 -0.283413 0)
(-0.0424909 -0.290003 0)
(-0.0465224 -0.297963 0)
(-0.0571394 -0.306708 0)
(-0.065878 -0.309025 0)
(-0.0706955 -0.297179 0)
(-0.0624693 -0.257027 0)
(-0.0273973 -0.193659 0)
(-0.0264607 -0.12612 0)
(0.0295795 -0.0975831 0)
(0.0339786 -0.166481 0)
(0.0758726 -0.223496 0)
(0.0910629 -0.261685 0)
(0.0862975 -0.273267 0)
(0.0743538 -0.270712 0)
(0.0561218 -0.259107 0)
(0.0470959 -0.249733 0)
(0.0424719 -0.244964 0)
(0.037929 -0.238229 0)
(0.0332776 -0.235167 0)
(0.0286015 -0.232811 0)
(0.0228621 -0.230814 0)
(0.0150193 -0.230101 0)
(0.0052717 -0.230449 0)
(-0.00507461 -0.230493 0)
(-0.0146586 -0.230226 0)
(-0.0222303 -0.230941 0)
(-0.0277046 -0.233014 0)
(-0.0322384 -0.235389 0)
(-0.0369403 -0.238575 0)
(-0.0417321 -0.245651 0)
(-0.0468375 -0.250494 0)
(-0.0567346 -0.260308 0)
(-0.0763311 -0.2724 0)
(-0.0888978 -0.274909 0)
(-0.0937618 -0.262677 0)
(-0.0777299 -0.223778 0)
(-0.0349798 -0.166274 0)
(-0.0304772 -0.0966562 0)
(0.034834 -0.0702659 0)
(0.041827 -0.13797 0)
(0.0900518 -0.191491 0)
(0.111159 -0.226043 0)
(0.106818 -0.236798 0)
(0.0918514 -0.233678 0)
(0.0633276 -0.217456 0)
(0.0447777 -0.203335 0)
(0.0345927 -0.195924 0)
(0.0275622 -0.192862 0)
(0.0213532 -0.190256 0)
(0.0166609 -0.188831 0)
(0.0127979 -0.187599 0)
(0.00849681 -0.186922 0)
(0.00318056 -0.187071 0)
(-0.00258356 -0.187084 0)
(-0.00786084 -0.186952 0)
(-0.0120931 -0.187574 0)
(-0.0158784 -0.188854 0)
(-0.0205037 -0.190463 0)
(-0.0266985 -0.193113 0)
(-0.0338744 -0.196191 0)
(-0.0445441 -0.203866 0)
(-0.0641249 -0.218522 0)
(-0.0939975 -0.235264 0)
(-0.109215 -0.238245 0)
(-0.113486 -0.22687 0)
(-0.0915387 -0.19204 0)
(-0.0427202 -0.137983 0)
(-0.0356133 -0.0701308 0)
(0.0414638 -0.0443542 0)
(0.0501545 -0.10573 0)
(0.101991 -0.158792 0)
(0.126758 -0.187502 0)
(0.123426 -0.19529 0)
(0.10516 -0.189605 0)
(0.0629832 -0.166283 0)
(0.0321439 -0.149015 0)
(0.0154104 -0.14257 0)
(0.0070091 -0.14358 0)
(0.00203752 -0.145116 0)
(-0.0010112 -0.145313 0)
(-0.00197429 -0.145665 0)
(-0.00152079 -0.14612 0)
(-0.000629113 -0.14678 0)
(0.00038366 -0.146835 0)
(0.00136983 -0.146271 0)
(0.00199782 -0.145908 0)
(0.00126475 -0.14558 0)
(-0.00148309 -0.145378 0)
(-0.00621896 -0.143839 0)
(-0.0145383 -0.142791 0)
(-0.0315813 -0.149299 0)
(-0.0634507 -0.166978 0)
(-0.106921 -0.190775 0)
(-0.125316 -0.196375 0)
(-0.128554 -0.188143 0)
(-0.103184 -0.159216 0)
(-0.0509026 -0.105636 0)
(-0.0422375 -0.0447249 0)
(0.0490874 -0.0164746 0)
(0.0568513 -0.0713064 0)
(0.113803 -0.120794 0)
(0.136904 -0.142626 0)
(0.133753 -0.146189 0)
(0.107319 -0.134436 0)
(0.0552658 -0.106115 0)
(0.0198086 -0.0889596 0)
(0.000469035 -0.0837412 0)
(-0.00823675 -0.0858659 0)
(-0.0114432 -0.0905539 0)
(-0.011878 -0.0947128 0)
(-0.0101907 -0.0964232 0)
(-0.00689611 -0.0979393 0)
(-0.00268702 -0.0991155 0)
(0.00184587 -0.0991629 0)
(0.00614437 -0.0980768 0)
(0.00961967 -0.0966091 0)
(0.0115489 -0.0949128 0)
(0.0114129 -0.0907878 0)
(0.00847205 -0.0861472 0)
(0.000134904 -0.0840673 0)
(-0.0191032 -0.0891627 0)
(-0.0551444 -0.106322 0)
(-0.108398 -0.13498 0)
(-0.135052 -0.146841 0)
(-0.138058 -0.143359 0)
(-0.114694 -0.121252 0)
(-0.0571407 -0.0716039 0)
(-0.0495705 -0.017068 0)
(0.0551998 0.0151749 0)
(0.0632742 -0.0344214 0)
(0.121463 -0.080066 0)
(0.142556 -0.0909724 0)
(0.138612 -0.0893422 0)
(0.103871 -0.0682798 0)
(0.0496451 -0.037955 0)
(0.0109223 -0.0222594 0)
(-0.0104164 -0.0192301 0)
(-0.0194444 -0.0224497 0)
(-0.0221342 -0.0279742 0)
(-0.0206647 -0.0336615 0)
(-0.0165577 -0.0389077 0)
(-0.0108319 -0.0429361 0)
(-0.00413984 -0.0452492 0)
(0.0028457 -0.0452946 0)
(0.00957878 -0.043071 0)
(0.0154132 -0.0391002 0)
(0.0196912 -0.033895 0)
(0.0214262 -0.0282913 0)
(0.0190747 -0.0228984 0)
(0.0103887 -0.0197733 0)
(-0.0107228 -0.0226591 0)
(-0.0496991 -0.0378981 0)
(-0.104417 -0.0679741 0)
(-0.13944 -0.0893811 0)
(-0.143146 -0.0912207 0)
(-0.121677 -0.0804308 0)
(-0.0636148 -0.0348669 0)
(-0.0554106 0.0145999 0)
(0.0587075 0.0531356 0)
(0.0725409 0.00188825 0)
(0.128054 -0.0306322 0)
(0.145694 -0.0305799 0)
(0.137708 -0.0195495 0)
(0.0914984 0.0133174 0)
(0.0401924 0.0382282 0)
(0.0030261 0.0484074 0)
(-0.0172903 0.0484191 0)
(-0.0258444 0.0447173 0)
(-0.0282751 0.0392003 0)
(-0.0259662 0.0331775 0)
(-0.0204345 0.0272416 0)
(-0.0130317 0.0225311 0)
(-0.00494535 0.0198199 0)
(0.00321963 0.0197564 0)
(0.0113021 0.0223389 0)
(0.0187418 0.0269518 0)
(0.0243982 0.0328208 0)
(0.0268942 0.038747 0)
(0.0246855 0.0440553 0)
(0.016319 0.047479 0)
(-0.00361154 0.0473354 0)
(-0.0401338 0.0376801 0)
(-0.0913381 0.0134364 0)
(-0.137849 -0.019113 0)
(-0.145926 -0.0305496 0)
(-0.128294 -0.0308773 0)
(-0.072863 0.00134022 0)
(-0.0589858 0.0526151 0)
(0.0670781 0.0889145 0)
(0.0878734 0.0450685 0)
(0.135842 0.0304834 0)
(0.145092 0.0397055 0)
(0.122939 0.0666216 0)
(0.0736746 0.0987442 0)
(0.0289731 0.113884 0)
(-2.46337e-05 0.11671 0)
(-0.0173784 0.114236 0)
(-0.0252588 0.111033 0)
(-0.0274155 0.106482 0)
(-0.0245394 0.101036 0)
(-0.0185547 0.0955496 0)
(-0.0113876 0.0911408 0)
(-0.0042846 0.0886476 0)
(0.0025683 0.0885931 0)
(0.0095982 0.0909559 0)
(0.0166724 0.0952237 0)
(0.0226496 0.100559 0)
(0.025651 0.105833 0)
(0.0237181 0.11011 0)
(0.0160558 0.112957 0)
(-0.00123674 0.115164 0)
(-0.0295404 0.112575 0)
(-0.0740716 0.0987129 0)
(-0.12377 0.0673437 0)
(-0.145612 0.0400739 0)
(-0.136208 0.0305191 0)
(-0.0883723 0.0446212 0)
(-0.0675987 0.0882642 0)
(0.0717769 0.118913 0)
(0.101577 0.0901763 0)
(0.136205 0.0955487 0)
(0.134103 0.120388 0)
(0.0979797 0.156988 0)
(0.0524244 0.17585 0)
(0.0219288 0.175842 0)
(0.00497282 0.1723 0)
(-0.00746085 0.169206 0)
(-0.0135588 0.167766 0)
(-0.014865 0.165957 0)
(-0.012318 0.163534 0)
(-0.0083057 0.160856 0)
(-0.00456593 0.158652 0)
(-0.00180205 0.157413 0)
(0.000398218 0.157379 0)
(0.00300562 0.158517 0)
(0.00647875 0.160559 0)
(0.0102328 0.163001 0)
(0.0126518 0.165109 0)
(0.0113619 0.166543 0)
(0.0051649 0.167464 0)
(-0.00721817 0.169805 0)
(-0.0238049 0.173085 0)
(-0.0512423 0.17435 0)
(-0.0962408 0.157767 0)
(-0.133974 0.121318 0)
(-0.136456 0.0959828 0)
(-0.102451 0.0901057 0)
(-0.0720901 0.118204 0)
(0.0668687 0.135568 0)
(0.11188 0.132804 0)
(0.129227 0.162628 0)
(0.107154 0.200607 0)
(0.0591989 0.221391 0)
(0.0374872 0.217617 0)
(0.0278275 0.209883 0)
(0.0219223 0.204249 0)
(0.0164997 0.203442 0)
(0.0136822 0.206165 0)
(0.0130072 0.210147 0)
(0.012563 0.213504 0)
(0.0108673 0.216016 0)
(0.00737717 0.21771 0)
(0.00234172 0.218583 0)
(-0.00335903 0.218582 0)
(-0.00858895 0.217676 0)
(-0.0124557 0.215871 0)
(-0.0146497 0.213137 0)
(-0.0156407 0.209442 0)
(-0.0168112 0.204894 0)
(-0.0199897 0.20131 0)
(-0.0252126 0.200912 0)
(-0.0304376 0.20556 0)
(-0.0385901 0.21363 0)
(-0.055411 0.218588 0)
(-0.104217 0.200829 0)
(-0.128906 0.164135 0)
(-0.112315 0.133226 0)
(-0.0672638 0.134458 0)
(0.068283 0.131092 0)
(0.102963 0.172542 0)
(0.117168 0.219342 0)
(0.0698241 0.248412 0)
(0.0373983 0.23902 0)
(0.0379687 0.230089 0)
(0.0385546 0.219596 0)
(0.0412786 0.215471 0)
(0.042463 0.218866 0)
(0.04167 0.227466 0)
(0.038631 0.23708 0)
(0.0333184 0.245571 0)
(0.0257123 0.252477 0)
(0.0161308 0.257331 0)
(0.00526231 0.259824 0)
(-0.00606534 0.2598 0)
(-0.0170129 0.257246 0)
(-0.0267669 0.252287 0)
(-0.0346552 0.245211 0)
(-0.0403651 0.236475 0)
(-0.0439334 0.226528 0)
(-0.0452486 0.217107 0)
(-0.0442796 0.212382 0)
(-0.041167 0.215151 0)
(-0.0400108 0.225328 0)
(-0.0380208 0.234477 0)
(-0.0669747 0.247573 0)
(-0.116284 0.221871 0)
(-0.102787 0.173909 0)
(-0.0681155 0.13078 0)
(0.051595 0.119671 0)
(0.0741218 0.196865 0)
(0.0875069 0.246517 0)
(0.0414512 0.270943 0)
(0.0356223 0.241133 0)
(0.0429811 0.226409 0)
(0.0493585 0.218425 0)
(0.0540528 0.21929 0)
(0.054235 0.227965 0)
(0.0499228 0.239861 0)
(0.0432667 0.250897 0)
(0.0353003 0.260166 0)
(0.0261179 0.267459 0)
(0.0159503 0.272484 0)
(0.00516794 0.275023 0)
(-0.0058256 0.274966 0)
(-0.0166248 0.272308 0)
(-0.0268353 0.26715 0)
(-0.0360994 0.259701 0)
(-0.0441838 0.250248 0)
(-0.0510226 0.239001 0)
(-0.055746 0.226682 0)
(-0.0562095 0.216913 0)
(-0.0518988 0.214566 0)
(-0.0455546 0.221423 0)
(-0.0384745 0.235765 0)
(-0.0409635 0.266066 0)
(-0.0865543 0.246637 0)
(-0.0737426 0.198687 0)
(-0.051312 0.120814 0)
(0.0240316 0.112053 0)
(0.0311533 0.200559 0)
(0.0359699 0.264575 0)
(0.0296557 0.260645 0)
(0.0437555 0.228773 0)
(0.0524975 0.215411 0)
(0.0584838 0.214576 0)
(0.0604482 0.222132 0)
(0.0574916 0.234906 0)
(0.0512185 0.248544 0)
(0.0435773 0.260739 0)
(0.0350756 0.270988 0)
(0.0257273 0.279053 0)
(0.0156728 0.284622 0)
(0.00517635 0.287445 0)
(-0.00547029 0.287395 0)
(-0.0159865 0.284468 0)
(-0.0260833 0.27878 0)
(-0.0354915 0.270574 0)
(-0.0440578 0.260161 0)
(-0.0517641 0.247786 0)
(-0.0582202 0.233872 0)
(-0.0616366 0.220429 0)
(-0.0601817 0.211748 0)
(-0.0545975 0.211269 0)
(-0.0465369 0.222617 0)
(-0.0336011 0.249293 0)
(-0.0313628 0.266152 0)
(-0.0296719 0.20391 0)
(-0.0238554 0.114184 0)
(0.00199299 0.116433 0)
(-0.0106827 0.214284 0)
(0.00332856 0.236508 0)
(0.0398049 0.214535 0)
(0.0537613 0.205028 0)
(0.0600821 0.205135 0)
(0.0633463 0.21277 0)
(0.0627912 0.2257 0)
(0.0585218 0.2411 0)
(0.0519918 0.256211 0)
(0.0442654 0.269667 0)
(0.0355201 0.281013 0)
(0.0259537 0.289902 0)
(0.0158111 0.296008 0)
(0.00533199 0.299097 0)
(-0.00525565 0.299057 0)
(-0.0157525 0.295884 0)
(-0.0259323 0.289682 0)
(-0.0355516 0.280676 0)
(-0.0443618 0.26919 0)
(-0.052151 0.255575 0)
(-0.0587902 0.240243 0)
(-0.0633131 0.224421 0)
(-0.0641596 0.210826 0)
(-0.0610961 0.202342 0)
(-0.0549119 0.201084 0)
(-0.0422642 0.207909 0)
(-0.00993352 0.229463 0)
(0.0109654 0.219692 0)
(-0.00153028 0.11898 0)
(-0.0186139 0.135748 0)
(-0.00757368 0.235959 0)
(0.0285454 0.191215 0)
(0.0503781 0.18388 0)
(0.058921 0.189678 0)
(0.063197 0.199825 0)
(0.0647789 0.213501 0)
(0.0631867 0.229913 0)
(0.0586507 0.2473 0)
(0.0521029 0.263889 0)
(0.0442744 0.27863 0)
(0.035272 0.291035 0)
(0.0254635 0.300649 0)
(0.0153852 0.307147 0)
(0.00526767 0.310396 0)
(-0.00486204 0.310363 0)
(-0.0149912 0.307046 0)
(-0.0250887 0.300473 0)
(-0.0349426 0.290767 0)
(-0.04402 0.278243 0)
(-0.0519206 0.263358 0)
(-0.0585652 0.246577 0)
(-0.0632882 0.228873 0)
(-0.0650758 0.212026 0)
(-0.0636372 0.197838 0)
(-0.0594387 0.187224 0)
(-0.0513372 0.180987 0)
(-0.031706 0.187214 0)
(0.00389391 0.233877 0)
(0.02008 0.138781 0)
(-0.024987 0.168002 0)
(0.0223026 0.183192 0)
(0.0444523 0.16286 0)
(0.0551593 0.168621 0)
(0.0606019 0.181956 0)
(0.0635757 0.197889 0)
(0.0643408 0.215546 0)
(0.0622831 0.234582 0)
(0.0575321 0.253839 0)
(0.0506413 0.272024 0)
(0.0423455 0.2881 0)
(0.0331825 0.301387 0)
(0.0236046 0.311442 0)
(0.0141318 0.318077 0)
(0.00490766 0.321336 0)
(-0.00419893 0.321309 0)
(-0.0134297 0.317994 0)
(-0.0229203 0.311299 0)
(-0.0325398 0.301172 0)
(-0.0417698 0.287786 0)
(-0.0501381 0.271583 0)
(-0.0571338 0.25322 0)
(-0.0620614 0.23369 0)
(-0.064311 0.214308 0)
(-0.0636966 0.196279 0)
(-0.0607942 0.180051 0)
(-0.0554848 0.166531 0)
(-0.0454978 0.160276 0)
(-0.0244381 0.17834 0)
(0.0240131 0.170114 0)
(0.00720168 0.170426 0)
(0.0354414 0.14343 0)
(0.048589 0.146147 0)
(0.0556503 0.159876 0)
(0.0598429 0.177913 0)
(0.0621885 0.197578 0)
(0.0624257 0.218207 0)
(0.0598115 0.239657 0)
(0.0544422 0.260971 0)
(0.0470349 0.280828 0)
(0.0382366 0.298183 0)
(0.0288043 0.312155 0)
(0.0196915 0.3222 0)
(0.0114825 0.328485 0)
(0.004053 0.331447 0)
(-0.00306422 0.331421 0)
(-0.0104939 0.328409 0)
(-0.0187102 0.322077 0)
(-0.0278471 0.311982 0)
(-0.0373363 0.29794 0)
(-0.0462232 0.280472 0)
(-0.0537527 0.260444 0)
(-0.0593 0.238879 0)
(-0.0621202 0.217115 0)
(-0.062057 0.196167 0)
(-0.059785 0.176279 0)
(-0.0556013 0.158128 0)
(-0.0487899 0.144054 0)
(-0.0363398 0.14045 0)
(-0.00940287 0.16851 0)
(0.0244914 0.136524 0)
(0.0387763 0.124815 0)
(0.0478781 0.135775 0)
(0.0535555 0.154285 0)
(0.0572736 0.175576 0)
(0.0592316 0.198034 0)
(0.058838 0.221342 0)
(0.0553875 0.2453 0)
(0.0491343 0.26883 0)
(0.0404653 0.290624 0)
(0.0305219 0.309281 0)
(0.0208285 0.323352 0)
(0.0127852 0.332314 0)
(0.00695128 0.337301 0)
(0.0025603 0.339441 0)
(-0.00130265 0.339411 0)
(-0.00568583 0.337213 0)
(-0.0115063 0.332186 0)
(-0.0195359 0.3232 0)
(-0.0292596 0.309104 0)
(-0.0393089 0.290363 0)
(-0.0481268 0.26841 0)
(-0.0545823 0.244635 0)
(-0.0582666 0.220369 0)
(-0.0588571 0.196758 0)
(-0.0569961 0.174097 0)
(-0.0532632 0.152733 0)
(-0.0476656 0.134009 0)
(-0.0390216 0.122333 0)
(-0.0254496 0.131873 0)
(0.0289622 0.1053 0)
(0.0379981 0.111107 0)
(0.0446118 0.128547 0)
(0.0496815 0.150312 0)
(0.053214 0.174018 0)
(0.0547351 0.198989 0)
(0.0536002 0.224959 0)
(0.0489576 0.251604 0)
(0.0410487 0.277848 0)
(0.0294375 0.302114 0)
(0.0168337 0.321775 0)
(0.00788175 0.334328 0)
(0.00248365 0.340218 0)
(0.000607896 0.342632 0)
(0.000500846 0.34339 0)
(0.0010203 0.343353 0)
(0.000924864 0.342515 0)
(-0.000917325 0.340042 0)
(-0.00623263 0.334136 0)
(-0.0151503 0.321643 0)
(-0.0278417 0.301984 0)
(-0.0396532 0.277569 0)
(-0.0478435 0.251053 0)
(-0.0527665 0.224093 0)
(-0.0541324 0.19782 0)
(-0.0527316 0.172649 0)
(-0.0492025 0.148884 0)
(-0.0441241 0.127033 0)
(-0.0377125 0.109064 0)
(-0.0290531 0.101377 0)
(0.0292345 0.0773875 0)
(0.0342557 0.0995492 0)
(0.0393538 0.12303 0)
(0.0444464 0.146958 0)
(0.0478761 0.172769 0)
(0.0490565 0.200137 0)
(0.0473028 0.228661 0)
(0.0408414 0.258652 0)
(0.0291242 0.289767 0)
(0.0114459 0.317675 0)
(-0.00523987 0.335574 0)
(-0.00968671 0.342967 0)
(-0.00959307 0.3435 0)
(-0.00616368 0.342692 0)
(-0.00154879 0.342169 0)
(0.00332192 0.342124 0)
(0.007941 0.34254 0)
(0.0114058 0.343233 0)
(0.0116517 0.342629 0)
(0.00730853 0.335402 0)
(-0.009192 0.317728 0)
(-0.027134 0.289824 0)
(-0.039371 0.258278 0)
(-0.0462484 0.22786 0)
(-0.0482741 0.199029 0)
(-0.0472348 0.171468 0)
(-0.0438464 0.145567 0)
(-0.0387458 0.121554 0)
(-0.0336648 0.0977246 0)
(-0.0285861 0.0740707 0)
(0.0225599 0.0521862 0)
(0.0280851 0.0884043 0)
(0.0330806 0.116834 0)
(0.0382726 0.143227 0)
(0.0415225 0.171381 0)
(0.0426541 0.200779 0)
(0.0404091 0.232277 0)
(0.0297207 0.271123 0)
(0.00770215 0.311671 0)
(-0.01834 0.345913 0)
(-0.0315873 0.350279 0)
(-0.0268454 0.34599 0)
(-0.0192753 0.340342 0)
(-0.0109951 0.337583 0)
(-0.00293604 0.336617 0)
(0.00494805 0.33657 0)
(0.0129939 0.337416 0)
(0.021273 0.339983 0)
(0.028956 0.345431 0)
(0.0338677 0.350062 0)
(0.0211446 0.346789 0)
(-0.00515362 0.312366 0)
(-0.0274064 0.271734 0)
(-0.0391604 0.231553 0)
(-0.0417884 0.199631 0)
(-0.0408122 0.170064 0)
(-0.0376368 0.141805 0)
(-0.0324222 0.115348 0)
(-0.0273401 0.0868023 0)
(-0.0215895 0.0499385 0)
(0.0140687 0.035947 0)
(0.020406 0.0785293 0)
(0.026322 0.109431 0)
(0.0313089 0.138903 0)
(0.0342998 0.169242 0)
(0.0354767 0.200457 0)
(0.0336809 0.243726 0)
(0.0158769 0.307467 0)
(-0.0243879 0.358346 0)
(-0.0585442 0.390138 0)
(-0.0524341 0.355497 0)
(-0.0362465 0.339083 0)
(-0.0231493 0.331661 0)
(-0.012665 0.329239 0)
(-0.00334846 0.328608 0)
(0.00560024 0.328578 0)
(0.014886 0.329103 0)
(0.0253102 0.331292 0)
(0.0383572 0.33831 0)
(0.0547107 0.354324 0)
(0.0628596 0.389729 0)
(0.0290358 0.360869 0)
(-0.0128129 0.309249 0)
(-0.0323829 0.24476 0)
(-0.0345747 0.199232 0)
(-0.033611 0.16783 0)
(-0.0306681 0.137535 0)
(-0.0257132 0.108029 0)
(-0.0197526 0.0771527 0)
(-0.0134211 0.034709 0)
(0.00834137 0.0267716 0)
(0.0135444 0.0697167 0)
(0.019707 0.101831 0)
(0.0234799 0.134746 0)
(0.0263546 0.165136 0)
(0.0297367 0.204061 0)
(0.00919584 0.277473 0)
(-0.0370468 0.359741 0)
(-0.0761018 0.397438 0)
(-0.0876047 0.390898 0)
(-0.0560184 0.344908 0)
(-0.035054 0.325481 0)
(-0.0213698 0.320718 0)
(-0.011531 0.320126 0)
(-0.00288351 0.320402 0)
(0.00538736 0.320399 0)
(0.0139945 0.320076 0)
(0.0237358 0.320468 0)
(0.0371362 0.324686 0)
(0.0580337 0.343207 0)
(0.0901044 0.388401 0)
(0.0812398 0.398671 0)
(0.0427394 0.363561 0)
(-0.0058191 0.280385 0)
(-0.0290241 0.204364 0)
(-0.0257138 0.163523 0)
(-0.0229438 0.133393 0)
(-0.0192696 0.100491 0)
(-0.0131013 0.0685455 0)
(-0.00797051 0.0260499 0)
(0.00482546 0.0213881 0)
(0.0080708 0.0620171 0)
(0.0127775 0.0958575 0)
(0.0161849 0.128079 0)
(0.0240792 0.158779 0)
(0.00181516 0.237111 0)
(-0.0652013 0.347319 0)
(-0.100205 0.398713 0)
(-0.112145 0.401617 0)
(-0.0903351 0.374048 0)
(-0.0463306 0.322705 0)
(-0.0256659 0.310645 0)
(-0.0158236 0.310829 0)
(-0.00835509 0.312541 0)
(-0.0017481 0.313763 0)
(0.00451551 0.313795 0)
(0.0110764 0.312608 0)
(0.0184573 0.310819 0)
(0.0279978 0.310243 0)
(0.0476196 0.320787 0)
(0.0911166 0.37119 0)
(0.11451 0.400689 0)
(0.105195 0.400039 0)
(0.0719457 0.352665 0)
(0.00241017 0.241025 0)
(-0.0241749 0.157213 0)
(-0.0158633 0.126421 0)
(-0.012473 0.0948001 0)
(-0.00778525 0.0611179 0)
(-0.00459117 0.0210119 0)
(0.00186186 0.0188794 0)
(0.00327682 0.0555536 0)
(0.00615672 0.0904319 0)
(0.0126662 0.11888 0)
(-0.00604745 0.192346 0)
(-0.0866819 0.322329 0)
(-0.127651 0.388103 0)
(-0.132837 0.401644 0)
(-0.110932 0.388153 0)
(-0.0547257 0.324375 0)
(-0.0215407 0.298968 0)
(-0.0132241 0.300566 0)
(-0.00818818 0.304568 0)
(-0.00382031 0.307871 0)
(-0.00015932 0.309796 0)
(0.00317726 0.309868 0)
(0.00678804 0.308065 0)
(0.0110766 0.30482 0)
(0.0160025 0.300786 0)
(0.0235127 0.298638 0)
(0.0534939 0.32113 0)
(0.111596 0.385587 0)
(0.135043 0.401139 0)
(0.132263 0.389245 0)
(0.0952739 0.329524 0)
(0.0115571 0.197149 0)
(-0.0129713 0.117559 0)
(-0.00582399 0.0894285 0)
(-0.00304071 0.0549114 0)
(-0.00166619 0.0187049 0)
(-0.00116847 0.0183122 0)
(-0.00170272 0.0518996 0)
(0.000141543 0.0832174 0)
(-0.000385996 0.138137 0)
(-0.115272 0.292702 0)
(-0.146667 0.36733 0)
(-0.147436 0.388652 0)
(-0.126822 0.38952 0)
(-0.0537532 0.323143 0)
(-0.00534472 0.286293 0)
(-0.0014112 0.289603 0)
(-0.00139781 0.296643 0)
(0.000121411 0.302288 0)
(0.00116998 0.306595 0)
(0.00154445 0.309039 0)
(0.00166086 0.309148 0)
(0.0019958 0.306907 0)
(0.00296545 0.30276 0)
(0.00446664 0.297273 0)
(0.00462343 0.290415 0)
(0.00811713 0.286834 0)
(0.0517184 0.318995 0)
(0.12706 0.387093 0)
(0.149278 0.388404 0)
(0.150424 0.369369 0)
(0.122728 0.300191 0)
(0.00467854 0.142873 0)
(-0.000124954 0.0822665 0)
(0.00198722 0.0513862 0)
(0.00129321 0.0181762 0)
(-0.00522329 0.0195955 0)
(-0.00666746 0.0498785 0)
(-0.00558465 0.0819583 0)
(-0.126258 0.254465 0)
(-0.162782 0.339659 0)
(-0.155628 0.368479 0)
(-0.133947 0.373057 0)
(-0.0446821 0.312486 0)
(0.0109781 0.274001 0)
(0.0126158 0.279924 0)
(0.0103713 0.288304 0)
(0.00870333 0.296743 0)
(0.00748746 0.303489 0)
(0.00545962 0.308559 0)
(0.00294225 0.311326 0)
(0.00033074 0.311459 0)
(-0.00220618 0.308955 0)
(-0.00429843 0.304125 0)
(-0.00557254 0.297618 0)
(-0.00710883 0.289513 0)
(-0.00918945 0.281364 0)
(-0.00804404 0.275137 0)
(0.042045 0.308311 0)
(0.133276 0.370924 0)
(0.156781 0.368972 0)
(0.164382 0.342199 0)
(0.131365 0.261636 0)
(0.00629694 0.0834168 0)
(0.00639793 0.0494925 0)
(0.00538693 0.0195529 0)
(-0.0115817 0.0236188 0)
(-0.00940701 0.0559688 0)
(-0.103038 0.201989 0)
(-0.161705 0.310808 0)
(-0.160685 0.339793 0)
(-0.125402 0.344354 0)
(-0.0164249 0.279883 0)
(0.0289178 0.257452 0)
(0.0262428 0.268627 0)
(0.0222693 0.279933 0)
(0.0193964 0.29042 0)
(0.0163122 0.299849 0)
(0.0125977 0.307531 0)
(0.00825375 0.313055 0)
(0.00380654 0.315965 0)
(-0.000613456 0.316112 0)
(-0.00506307 0.313498 0)
(-0.00944128 0.308266 0)
(-0.0132338 0.300874 0)
(-0.0163395 0.291783 0)
(-0.0191531 0.28165 0)
(-0.0229578 0.270699 0)
(-0.0257521 0.259646 0)
(0.014944 0.278149 0)
(0.12363 0.342507 0)
(0.161228 0.340576 0)
(0.162223 0.313242 0)
(0.105789 0.202715 0)
(0.00988262 0.0564549 0)
(0.0116887 0.0236192 0)
(-0.0192233 0.0366487 0)
(-0.0399684 0.116201 0)
(-0.122462 0.234198 0)
(-0.137725 0.301093 0)
(-0.0841169 0.289582 0)
(0.0304975 0.232921 0)
(0.0443253 0.236883 0)
(0.0379456 0.253712 0)
(0.0331332 0.26896 0)
(0.0295273 0.282607 0)
(0.0253297 0.294859 0)
(0.0203441 0.305339 0)
(0.0148497 0.313498 0)
(0.00931622 0.319049 0)