/*--------------------------------*- C++ -*----------------------------------*\
| =========                 |                                                 |
| \\      /  F ield         | OpenFOAM: The Open Source CFD Toolbox           |
|  \\    /   O peration     | Version:  2.4.0                                 |
|   \\  /    A nd           | Web:      www.OpenFOAM.org                      |
|    \\/     M anipulation  |                                                 |
\*---------------------------------------------------------------------------*/
FoamFile
{
    version     2.0;
    format      ascii;
    class       volVectorField;
    location    "3";
    object      U;
}
// * * * * * * * * * * * * * * * * * * * * * * * * * * * * * * * * * * * * * //

dimensions      [0 1 -1 0 0 0 0];

internalField   nonuniform List<vector> 
4608
(
(0.00640063 0.136017 0)
(0.0165613 0.134476 0)
(0.0255107 0.131946 -2.12715e-26)
(0.0338543 0.128648 -2.06349e-26)
(0.0418025 0.124803 0)
(0.0493823 0.12057 0)
(0.0568072 0.116026 -7.73486e-26)
(0.0638708 0.111366 -3.95049e-26)
(0.0707412 0.10648 2.60948e-26)
(0.0776323 0.101274 -3.70945e-26)
(0.0842695 0.095914 -9.37136e-26)
(0.0905652 0.0903348 -3.37181e-26)
(0.00298157 0.15723 0)
(0.0103453 0.15584 -8.94435e-27)
(0.0185169 0.153078 -1.50129e-27)
(0.0272766 0.149215 0)
(0.0363994 0.144663 7.10615e-26)
(0.0454474 0.139743 4.51866e-26)
(0.0546107 0.134409 -6.66487e-26)
(0.0634739 0.128937 0)
(0.0720432 0.123289 1.35654e-25)
(0.080487 0.117147 -1.16152e-26)
(0.0884696 0.11073 -1.13961e-25)
(0.0960967 0.104318 0)
(0.00360203 0.177791 0)
(0.0111157 0.175874 4.32856e-26)
(0.019587 0.17242 0)
(0.0293406 0.167831 5.4615e-26)
(0.0399371 0.162414 5.39908e-26)
(0.0506894 0.156553 1.12739e-25)
(0.0619077 0.150466 1.38507e-25)
(0.0728403 0.144378 8.34118e-26)
(0.0832665 0.13802 1.35353e-25)
(0.093189 0.131179 0)
(0.102826 0.123715 -1.38453e-25)
(0.112131 0.115894 0)
(0.00248935 0.198902 2.49525e-26)
(0.00943965 0.197182 5.20658e-26)
(0.0183045 0.194061 0)
(0.0293527 0.189488 2.71827e-25)
(0.0419757 0.183769 5.67401e-26)
(0.055737 0.177632 3.46821e-25)
(0.0703196 0.171652 1.70182e-25)
(0.0839735 0.166141 1.76333e-25)
(0.0962677 0.16011 0)
(0.107486 0.15296 3.73909e-25)
(0.118259 0.144416 -1.72234e-25)
(0.128978 0.134741 -4.19329e-26)
(0.00222419 0.219896 1.99561e-26)
(0.00952176 0.218823 1.09393e-25)
(0.0192966 0.216686 -1.17546e-25)
(0.0316967 0.21278 2.23553e-25)
(0.0464569 0.206859 0)
(0.0638246 0.199418 4.2863e-26)
(0.0826914 0.192593 -4.52349e-27)
(0.0992632 0.187757 -2.8703e-26)
(0.11271 0.182173 -8.31472e-26)
(0.124284 0.174638 8.916e-25)
(0.135496 0.164817 5.0373e-25)
(0.147422 0.153017 -4.53994e-25)
(0.00299433 0.241115 0)
(0.011718 0.24167 1.3742e-25)
(0.0226645 0.241516 -1.36662e-25)
(0.0354272 0.238977 -2.67497e-25)
(0.0511368 0.232722 1.41825e-25)
(0.0717607 0.22252 -1.40033e-25)
(0.0966429 0.211582 -3.34586e-28)
(0.113738 0.207017 -8.6021e-26)
(0.125041 0.203322 -1.29383e-25)
(0.135491 0.196912 1.19245e-24)
(0.147165 0.187608 6.05638e-25)
(0.161346 0.174797 -5.5109e-25)
(0.00575324 0.26261 -9.13807e-27)
(0.0173479 0.266128 -8.75843e-27)
(0.0294674 0.268917 0)
(0.0414464 0.269297 -3.27065e-25)
(0.0553335 0.264703 8.47381e-25)
(0.0743885 0.252338 -4.04029e-25)
(0.102726 0.232694 -4.34636e-25)
(0.123682 0.220516 -4.58935e-25)
(0.138134 0.215401 -5.60319e-25)
(0.151938 0.21105 6.23137e-25)
(0.168205 0.203922 -1.27119e-24)
(0.18548 0.193026 1.3299e-24)
(0.0117148 0.28438 0)
(0.0276065 0.292041 0)
(0.0417334 0.298463 3.63116e-25)
(0.0543125 0.303672 0)
(0.068456 0.304824 9.85242e-25)
(0.0884626 0.300502 8.23829e-26)
(0.118185 0.280299 -6.69981e-25)
(0.143011 0.257025 -5.84052e-25)
(0.16121 0.242381 -6.1966e-25)
(0.177989 0.233449 -1.32653e-24)
(0.195361 0.225678 -1.38971e-24)
(0.212359 0.214974 1.34037e-24)
(0.0212916 0.306261 8.17097e-26)
(0.0413608 0.317662 3.85995e-25)
(0.0573149 0.324631 1.68832e-35)
(0.0706753 0.331614 4.41839e-26)
(0.0860869 0.335452 1.31596e-25)
(0.105639 0.338207 4.27553e-26)
(0.131807 0.332833 -2.17094e-24)
(0.16193 0.316365 -5.07494e-26)
(0.188823 0.298725 1.62083e-25)
(0.211515 0.283947 -1.81348e-24)
(0.230025 0.269753 2.01063e-25)
(0.24458 0.25611 -1.38742e-24)
(0.0329387 0.327844 9.34309e-36)
(0.0539869 0.340835 3.86714e-25)
(0.0691491 0.342054 -4.01825e-25)
(0.0816808 0.345138 0)
(0.0980753 0.345082 1.26856e-26)
(0.119477 0.346129 9.70766e-25)
(0.147189 0.343875 -2.11548e-24)
(0.17796 0.335374 0)
(0.206052 0.321951 2.04153e-24)
(0.228556 0.30696 0)
(0.245614 0.290584 1.48193e-25)
(0.259221 0.273263 -3.31699e-24)
(0.0491447 0.347755 -5.36696e-26)
(0.0624768 0.355383 3.8173e-25)
(0.0723591 0.345693 7.7343e-25)
(0.0828613 0.342548 7.63826e-25)
(0.0992368 0.336356 -9.28861e-26)
(0.120453 0.332262 3.58263e-24)
(0.146208 0.327485 0)
(0.174013 0.319872 6.45537e-26)
(0.200765 0.30915 1.73497e-24)
(0.221571 0.297439 0)
(0.235851 0.283187 -1.7124e-24)
(0.246466 0.266 -1.78313e-24)
(0.0254476 0.339396 2.09311e-25)
(0.042423 0.337344 -1.97956e-34)
(0.0550451 0.316882 1.87017e-34)
(0.0699368 0.312407 7.04488e-25)
(0.0877345 0.306564 1.42524e-24)
(0.109176 0.301286 2.92833e-24)
(0.133477 0.292991 1.42671e-24)
(0.157779 0.282818 0)
(0.180448 0.272661 0)
(0.195936 0.263356 0)
(0.203223 0.251215 -1.04258e-24)
(0.207238 0.232616 -2.14472e-24)
(0.0968983 0.084214 -4.03175e-26)
(0.103005 0.0779042 -3.94605e-26)
(0.108454 0.0716429 -1.64467e-25)
(0.114425 0.0642001 1.2912e-25)
(0.120443 0.0568489 0)
(0.126005 0.0496512 2.69958e-26)
(0.130647 0.0424204 1.10758e-25)
(0.134055 0.0348639 0)
(0.136228 0.0267927 0)
(0.137232 0.0183601 0)
(0.137174 0.0101184 1.12924e-26)
(0.136428 0.00269823 5.11773e-27)
(0.104012 0.0974975 -5.45923e-29)
(0.111794 0.0905069 -4.35048e-26)
(0.119539 0.0837334 -1.74341e-25)
(0.128818 0.075088 -1.45367e-25)
(0.137655 0.0670918 -1.13969e-25)
(0.145762 0.0597441 8.00241e-26)
(0.152116 0.053477 2.1732e-25)
(0.15588 0.0473025 3.0672e-26)
(0.157499 0.0399655 -6.27819e-26)
(0.15782 0.0312765 0)
(0.157431 0.0210045 2.21909e-26)
(0.157022 0.00835431 1.01809e-26)
(0.121297 0.10739 -2.82513e-25)
(0.130437 0.0982972 0)
(0.140165 0.0886996 0)
(0.150184 0.077527 -1.53617e-25)
(0.160766 0.0660088 0)
(0.170205 0.0579815 -3.59955e-25)
(0.175549 0.0538337 -3.41249e-25)
(0.177917 0.0504292 -2.78505e-25)
(0.179339 0.0443045 -1.01748e-25)
(0.179839 0.0358718 0)
(0.179277 0.0246739 5.09821e-26)
(0.178509 0.00963592 -2.30609e-26)
(0.139791 0.124344 -4.64884e-25)
(0.150686 0.113131 -1.09718e-25)
(0.16138 0.100994 -2.6821e-25)
(0.171653 0.0875846 4.35461e-25)
(0.182358 0.0720931 -3.03497e-25)
(0.186663 0.0630407 -1.93265e-25)
(0.189097 0.0560462 -2.14347e-25)
(0.193054 0.0534731 -2.9144e-25)
(0.196508 0.0484205 2.36276e-25)
(0.198662 0.0410087 0)
(0.199307 0.0297402 5.09886e-26)
(0.199179 0.0122703 -8.43418e-26)
(0.159724 0.140602 4.21813e-25)
(0.171615 0.127486 -4.88875e-25)
(0.182496 0.113272 -5.73028e-25)
(0.192847 0.0983176 4.13481e-25)
(0.201694 0.0816114 2.06216e-25)
(0.205633 0.0726854 3.02712e-25)
(0.20923 0.0629323 -3.39085e-25)
(0.212234 0.0557191 -3.05215e-26)
(0.215369 0.0502911 2.82168e-25)
(0.218035 0.0449493 9.91023e-26)
(0.219274 0.035184 -1.4925e-25)
(0.219916 0.0153705 -3.32008e-26)
(0.174601 0.161177 5.46256e-25)
(0.186297 0.146597 -5.25694e-25)
(0.19651 0.130374 -3.16248e-25)
(0.204954 0.111782 1.54783e-25)
(0.212457 0.0913633 0)
(0.214903 0.0787458 -5.87336e-25)
(0.219939 0.0650048 -2.0303e-25)
(0.220669 0.0591727 -5.07137e-26)
(0.222096 0.0513706 0)
(0.228322 0.0456658 1.56533e-25)
(0.234806 0.0365867 -1.73083e-25)
(0.240323 0.015475 4.00072e-26)
(0.200507 0.179516 0)
(0.21156 0.164792 0)
(0.217753 0.148296 -1.07049e-24)
(0.218679 0.1292 0)
(0.214655 0.105443 -9.86344e-26)
(0.208521 0.0867083 -3.63461e-25)
(0.201566 0.0656051 7.16582e-25)
(0.197806 0.0510747 1.78358e-25)
(0.208686 0.036122 4.38214e-26)
(0.224484 0.0275208 -2.7945e-25)
(0.243872 0.0190039 4.14522e-26)
(0.259461 0.00502531 1.44501e-26)
(0.225896 0.201143 5.68433e-26)
(0.233479 0.187431 1.48996e-24)
(0.235264 0.172456 7.04374e-25)
(0.233893 0.155868 -1.30351e-24)
(0.230722 0.133131 -1.1615e-24)
(0.226292 0.112869 -5.19482e-25)
(0.218099 0.0905595 6.56376e-25)
(0.211519 0.0623575 9.69384e-25)
(0.219375 0.0296789 0)
(0.237232 0.0106308 -1.81239e-25)
(0.260523 -0.000637149 9.36811e-26)
(0.278699 -0.00603256 4.48219e-26)
(0.255673 0.241257 1.45148e-24)
(0.261999 0.227814 1.37675e-24)
(0.265151 0.213013 1.92189e-24)
(0.267797 0.197306 -1.47568e-24)
(0.269899 0.175365 -1.43645e-24)
(0.267473 0.153212 -7.56574e-25)
(0.263358 0.129817 6.43348e-25)
(0.258801 0.0854174 1.07173e-24)
(0.256431 0.0336166 6.83194e-26)
(0.26649 -0.00129223 0)
(0.284569 -0.018303 1.65477e-25)
(0.299078 -0.0185321 9.17052e-26)
(0.270886 0.255741 1.44477e-24)
(0.277507 0.240688 -3.57292e-25)
(0.281919 0.225444 0)
(0.286341 0.210136 -1.7481e-24)
(0.291555 0.191647 0)
(0.293258 0.173337 0)
(0.29277 0.156397 1.01372e-24)
(0.289128 0.12361 1.13443e-25)
(0.287187 0.0488672 -4.58194e-27)
(0.291775 -0.00436414 6.12474e-25)
(0.306195 -0.0298403 6.63536e-26)
(0.317872 -0.0299695 3.41716e-26)
(0.257395 0.248497 -8.73874e-26)
(0.26357 0.235284 -1.70462e-24)
(0.269328 0.221577 0)
(0.276883 0.206971 -1.53602e-24)
(0.287793 0.190996 1.22659e-25)
(0.297403 0.17579 0)
(0.307448 0.163306 -1.96255e-24)
(0.319559 0.143044 -9.63624e-25)
(0.32112 0.0819683 -5.89885e-26)
(0.316719 0.000480093 1.23923e-24)
(0.323946 -0.0363833 0)
(0.333441 -0.0438694 5.03892e-26)
(0.217105 0.215167 -1.89932e-24)
(0.222597 0.20806 -1.23775e-24)
(0.230289 0.200131 0)
(0.243311 0.186643 0)
(0.262665 0.173033 1.50106e-24)
(0.281764 0.161471 -1.54596e-24)
(0.303563 0.149528 -3.28299e-24)
(0.331697 0.135527 7.97572e-26)
(0.363291 0.0980896 -1.28028e-24)
(0.359152 0.0179549 6.12032e-25)
(0.335076 -0.0361932 9.05614e-26)
(0.338578 -0.0624638 8.37194e-26)
(0.136046 -0.00629372 5.15717e-27)
(0.135118 -0.0167557 -1.15208e-26)
(0.133981 -0.0263144 4.77643e-26)
(0.132419 -0.0354293 0)
(0.130319 -0.0443241 6.08819e-27)
(0.127625 -0.0529637 -1.76788e-26)
(0.124267 -0.0612752 1.77365e-26)
(0.120178 -0.0691805 0)
(0.115325 -0.0766334 -4.70867e-26)
(0.109749 -0.0832068 -4.98425e-26)
(0.103099 -0.0897158 -2.96211e-27)
(0.0963528 -0.0954539 5.85446e-26)
(0.157438 -0.00449766 9.45605e-27)
(0.157671 -0.0149374 -5.63193e-26)
(0.157653 -0.0258106 -5.82668e-26)
(0.157136 -0.0366202 1.04464e-25)
(0.156 -0.0471889 3.55554e-27)
(0.154052 -0.0571823 -1.80897e-26)
(0.151084 -0.0666863 0)
(0.147113 -0.075453 0)
(0.142156 -0.083473 2.52153e-25)
(0.136645 -0.0909231 2.17412e-25)
(0.129598 -0.0985712 -9.13559e-26)
(0.121772 -0.105202 2.24305e-25)
(0.177982 -0.00769164 -7.96889e-27)
(0.178093 -0.0219506 -9.36626e-26)
(0.178058 -0.0353638 -9.10576e-26)
(0.177599 -0.0481226 9.3183e-26)
(0.176552 -0.0601411 0)
(0.174873 -0.0712033 0)
(0.17226 -0.0816756 0)
(0.168814 -0.0914695 0)
(0.164331 -0.100556 -5.06857e-36)
(0.158665 -0.108937 2.05709e-25)
(0.151582 -0.116797 -2.02534e-25)
(0.143113 -0.124087 3.32385e-25)
(0.199196 -0.00929268 2.26809e-26)
(0.199858 -0.0265828 -4.35161e-26)
(0.200561 -0.042453 2.44275e-26)
(0.200729 -0.0571585 -1.39103e-25)
(0.200062 -0.0707411 5.51458e-26)
(0.19865 -0.0832686 0)
(0.196462 -0.095015 0)
(0.193414 -0.106036 0)
(0.189329 -0.116418 -7.78281e-25)
(0.184121 -0.126167 0)
(0.177529 -0.135318 1.22781e-25)
(0.169118 -0.144008 -9.89669e-26)
(0.220119 -0.0119412 8.11798e-26)
(0.221009 -0.0327648 -1.18437e-25)
(0.22191 -0.051166 0)
(0.222417 -0.0675809 -4.66006e-25)
(0.221979 -0.0825582 3.52814e-26)
(0.220581 -0.0965709 -7.0549e-26)
(0.218426 -0.109842 0)
(0.21555 -0.122437 0)
(0.211947 -0.134353 -6.06761e-25)
(0.20762 -0.1456 0)
(0.202166 -0.156244 6.32537e-25)
(0.195157 -0.166079 0)
(0.241125 -0.0147682 1.57111e-36)
(0.242255 -0.0391324 -1.31138e-25)
(0.243169 -0.0599482 0)
(0.243484 -0.0777618 1.41399e-34)
(0.242576 -0.0938058 -6.8368e-26)
(0.24062 -0.109117 -9.68718e-26)
(0.23788 -0.123912 0)
(0.234582 -0.138332 -4.08411e-26)
(0.230932 -0.152426 -8.90308e-26)
(0.226788 -0.166162 -6.07881e-25)
(0.221982 -0.180038 -7.36636e-25)
(0.21618 -0.19445 0)
(0.262133 -0.0177569 3.30322e-26)
(0.263392 -0.0453747 3.4892e-26)
(0.263949 -0.0682308 -2.29151e-25)
(0.263925 -0.08685 5.29189e-25)
(0.261899 -0.103441 4.36733e-25)
(0.258392 -0.119621 -8.02165e-25)
(0.254051 -0.135581 -5.86184e-25)
(0.249187 -0.151438 9.35421e-26)
(0.244153 -0.167123 -8.56984e-25)
(0.238836 -0.182477 -7.38461e-25)
(0.232999 -0.197516 -7.20367e-25)
(0.226207 -0.212449 -3.95135e-26)
(0.283216 -0.0207819 7.24778e-26)
(0.284812 -0.0507928 -1.56341e-25)
(0.284141 -0.0754632 -3.20083e-25)
(0.28342 -0.0941717 1.17548e-24)
(0.279815 -0.110461 9.84354e-25)
(0.273973 -0.126987 -1.15943e-24)
(0.267238 -0.143714 -5.12844e-25)
(0.260014 -0.160536 -8.74612e-26)
(0.252906 -0.177238 -9.46035e-25)
(0.24582 -0.193276 -1.20079e-25)
(0.238431 -0.208654 3.30252e-27)
(0.230425 -0.223359 -7.43832e-26)
(0.304844 -0.0252126 -1.57669e-25)
(0.309375 -0.0566001 -1.72885e-25)
(0.305953 -0.0816777 -2.16227e-25)
(0.30116 -0.0995851 8.9867e-25)
(0.295462 -0.114358 0)
(0.287155 -0.13082 1.70915e-25)
(0.277424 -0.147904 2.28027e-25)
(0.267348 -0.165366 1.45441e-24)
(0.257928 -0.182816 1.3777e-24)
(0.249048 -0.199014 0)
(0.240059 -0.213883 8.23965e-27)
(0.230778 -0.227677 9.77549e-26)
(0.326924 -0.0325861 -9.74977e-26)
(0.337016 -0.0634017 -4.89455e-26)
(0.330872 -0.0835993 2.128e-25)
(0.318581 -0.0995757 -2.9247e-25)
(0.30708 -0.115233 -2.24761e-25)
(0.296323 -0.130495 6.51363e-25)
(0.283149 -0.147433 1.06354e-25)
(0.269855 -0.165458 1.66151e-24)
(0.258213 -0.183811 2.92732e-24)
(0.24814 -0.200145 1.39489e-24)
(0.238355 -0.214226 -8.78108e-27)
(0.228887 -0.226722 -1.49497e-24)
(0.349379 -0.0447388 1.87867e-25)
(0.363771 -0.0717183 -2.05527e-25)
(0.353 -0.078704 8.72056e-25)
(0.333127 -0.0924147 0)
(0.316223 -0.110043 1.50476e-24)
(0.300668 -0.124399 1.60119e-25)
(0.282452 -0.140575 1.66678e-25)
(0.264722 -0.159287 1.40395e-24)
(0.250242 -0.178737 1.31948e-24)
(0.239375 -0.19515 1.21441e-24)
(0.229682 -0.208369 -1.16561e-24)
(0.221941 -0.219757 -1.16875e-24)
(0.371979 -0.0476668 -1.29627e-25)
(0.373826 -0.0683691 -7.76183e-25)
(0.354832 -0.0611789 0)
(0.331324 -0.073889 0)
(0.309995 -0.0947062 1.33106e-24)
(0.293251 -0.108495 -1.32803e-24)
(0.274199 -0.125065 -1.25788e-24)
(0.252886 -0.144248 2.50913e-24)
(0.233009 -0.164371 -9.92848e-25)
(0.220241 -0.180112 0)
(0.211126 -0.191628 -9.77833e-25)
(0.204487 -0.201388 -1.79121e-25)
(0.0893152 -0.100344 1.06478e-25)
(0.081591 -0.105259 -2.94291e-26)
(0.073669 -0.110541 -8.3638e-26)
(0.0654616 -0.116406 5.97436e-26)
(0.0589914 -0.120868 1.18598e-25)
(0.0514331 -0.12491 3.96085e-36)
(0.0434213 -0.128391 -9.32931e-26)
(0.0350313 -0.131273 -2.94657e-27)
(0.0264941 -0.133566 5.79776e-26)
(0.0179568 -0.135194 -2.15724e-26)
(0.00968803 -0.136105 7.38214e-27)
(0.00238093 -0.136195 -2.77924e-27)
(0.113367 -0.111463 2.74664e-25)
(0.103487 -0.118393 -4.51107e-26)
(0.092682 -0.12553 -9.6675e-26)
(0.0814759 -0.132274 2.74376e-25)
(0.0731137 -0.137351 1.57202e-25)
(0.0647613 -0.142392 -9.41416e-26)
(0.056287 -0.146536 -6.07337e-26)
(0.0469067 -0.15009 -1.30522e-26)
(0.0372899 -0.153152 1.8551e-25)
(0.0275012 -0.155335 2.85821e-26)
(0.0174079 -0.156588 -4.44604e-26)
(0.00642006 -0.157009 1.16318e-26)
(0.133173 -0.131371 7.95289e-26)
(0.121235 -0.139098 1.85554e-25)
(0.107987 -0.146901 -1.74819e-25)
(0.0948481 -0.154099 1.73014e-25)
(0.0828782 -0.160253 0)
(0.0716027 -0.165174 -1.77063e-25)
(0.0608054 -0.168737 1.73189e-25)
(0.0491652 -0.172082 -2.08884e-26)
(0.0382218 -0.175301 1.78204e-26)
(0.0277672 -0.17758 8.62083e-26)
(0.0175995 -0.178669 -8.95587e-26)
(0.00659103 -0.178429 1.0646e-26)
(0.158396 -0.152629 4.989e-25)
(0.144747 -0.16163 3.94882e-25)
(0.128709 -0.171319 -5.74602e-26)
(0.113162 -0.180005 1.63989e-26)
(0.0985732 -0.188474 4.30596e-25)
(0.0887991 -0.192422 -5.3697e-25)
(0.0755369 -0.193985 2.86286e-25)
(0.0586896 -0.195704 4.34883e-26)
(0.0444824 -0.197772 -1.32095e-25)
(0.0333857 -0.198584 -5.35765e-26)
(0.0233453 -0.198996 -6.31682e-27)
(0.0116594 -0.199553 -8.74483e-27)
(0.18589 -0.175321 1.07237e-24)
(0.172895 -0.184239 -9.3674e-25)
(0.154337 -0.195539 0)
(0.135981 -0.207304 0)
(0.11404 -0.222738 4.71289e-25)
(0.109768 -0.221321 -6.0648e-25)
(0.0950347 -0.218662 -4.19337e-26)
(0.0748878 -0.216599 1.88878e-25)
(0.0550829 -0.212829 1.97678e-25)
(0.0390471 -0.209273 -6.84889e-26)
(0.0236676 -0.209365 -2.96124e-26)
(0.00601413 -0.216276 -1.15475e-26)
(0.208474 -0.209999 7.66468e-25)
(0.197654 -0.228205 -7.92273e-25)
(0.179346 -0.247556 3.03712e-25)
(0.155385 -0.259156 7.64479e-26)
(0.137922 -0.250809 7.58435e-25)
(0.122125 -0.233338 3.08453e-25)
(0.104099 -0.231498 7.16472e-25)
(0.0882202 -0.235657 1.31794e-25)
(0.0679879 -0.232467 4.95007e-25)
(0.0453537 -0.230631 0)
(0.0186191 -0.234975 0)
(-0.00174493 -0.240396 0)
(0.21771 -0.226943 0)
(0.206641 -0.23992 1.56938e-24)
(0.194609 -0.24894 0)
(0.181139 -0.256125 0)
(0.180292 -0.259257 -3.09756e-25)
(0.167216 -0.277269 1.27071e-25)
(0.139416 -0.28883 9.17347e-25)
(0.119559 -0.292471 6.39976e-26)
(0.0974917 -0.292644 4.2161e-25)
(0.0656557 -0.287185 -3.73387e-25)
(0.0241854 -0.276505 1.24081e-25)
(0.00105618 -0.264621 -5.2714e-26)
(0.221155 -0.237268 -1.62552e-24)
(0.209847 -0.250971 1.63882e-24)
(0.196919 -0.26448 1.6533e-24)
(0.182031 -0.278065 1.63438e-24)
(0.169076 -0.289492 1.85764e-24)
(0.158345 -0.305025 1.78151e-24)
(0.142151 -0.31736 -2.34104e-26)
(0.127173 -0.322213 2.22786e-26)
(0.111529 -0.324069 3.50702e-26)
(0.0902619 -0.320927 -8.95985e-25)
(0.0570915 -0.307861 1.9593e-25)
(0.0247954 -0.28843 -9.70393e-26)
(0.220375 -0.239677 -1.60244e-24)
(0.207605 -0.251395 8.45578e-26)
(0.193463 -0.263608 3.09165e-24)
(0.17848 -0.276419 1.65514e-24)
(0.163554 -0.288362 1.67099e-24)
(0.151262 -0.30052 8.42119e-25)
(0.137564 -0.311777 -1.8187e-26)
(0.125869 -0.319506 5.63773e-26)
(0.114813 -0.32511 8.72623e-25)
(0.100715 -0.328888 -4.87263e-25)
(0.0758977 -0.321331 -2.06456e-26)
(0.0381869 -0.310293 1.28168e-27)
(0.21825 -0.236132 0)
(0.203716 -0.244717 -1.38701e-24)
(0.18695 -0.254219 4.32034e-35)
(0.169867 -0.26439 0)
(0.153144 -0.274736 1.26834e-26)
(0.139421 -0.28461 -1.09632e-25)
(0.126463 -0.293934 0)
(0.115751 -0.302596 0)
(0.107164 -0.310868 1.55756e-24)
(0.099725 -0.320455 -7.95559e-25)
(0.0861246 -0.321142 0)
(0.0458475 -0.327121 -1.17543e-25)
(0.213757 -0.22699 2.3385e-26)
(0.199841 -0.233132 -3.51479e-26)
(0.181638 -0.241212 -2.28958e-24)
(0.162956 -0.249297 0)
(0.143958 -0.258258 0)
(0.12899 -0.266226 0)
(0.115311 -0.273711 1.25063e-24)
(0.103655 -0.28259 0)
(0.0932066 -0.292718 1.34677e-24)
(0.0851933 -0.308363 -7.3764e-35)
(0.0753738 -0.324959 -4.44384e-25)
(0.0471501 -0.345463 -2.9947e-25)
(0.199082 -0.207522 0)
(0.189982 -0.213635 1.99176e-24)
(0.173778 -0.224509 -8.57114e-25)
(0.156686 -0.232773 9.30695e-25)
(0.136521 -0.241937 0)
(0.120811 -0.247739 9.76153e-25)
(0.105225 -0.253001 1.06605e-24)
(0.0924412 -0.262596 6.28177e-26)
(0.0794567 -0.27423 5.12983e-25)
(0.0669657 -0.290337 1.13374e-24)
(0.0499455 -0.309843 -6.30555e-26)
(0.0139124 -0.340696 -1.29111e-25)
(-0.00613718 -0.135987 7.96e-27)
(-0.0165572 -0.13485 9.39891e-27)
(-0.0263005 -0.133548 1.0882e-27)
(-0.035875 -0.132009 -1.37569e-26)
(-0.0454304 -0.130271 4.86736e-26)
(-0.0549976 -0.12846 -3.32009e-26)
(-0.0644691 -0.126614 -7.85e-26)
(-0.0739775 -0.124324 0)
(-0.0829119 -0.121393 -4.14897e-26)
(-0.0922564 -0.11714 5.20845e-27)
(-0.10073 -0.11238 4.33787e-26)
(-0.108891 -0.106602 6.96139e-26)
(-0.00391544 -0.157345 9.75681e-27)
(-0.0141217 -0.157283 4.35376e-26)
(-0.0255853 -0.157055 -8.8408e-26)
(-0.0378918 -0.156536 0)
(-0.0509797 -0.155784 1.0023e-25)
(-0.0648851 -0.154881 -1.21289e-25)
(-0.07906 -0.154412 -3.98003e-27)
(-0.0915034 -0.154092 5.0322e-26)
(-0.10302 -0.152806 3.20324e-25)
(-0.113899 -0.150034 0)
(-0.124109 -0.145317 2.38914e-25)
(-0.134512 -0.139442 0)
(-0.0069344 -0.17803 4.94717e-26)
(-0.0211954 -0.178109 9.64073e-26)
(-0.0359071 -0.178092 -1.88884e-25)
(-0.0511905 -0.177717 1.39413e-26)
(-0.0674294 -0.176781 2.66206e-26)
(-0.0848498 -0.175122 2.48735e-26)
(-0.101709 -0.172967 -3.46851e-25)
(-0.114123 -0.171889 -2.03501e-25)
(-0.126359 -0.169435 4.70021e-25)
(-0.137671 -0.167165 7.14724e-26)
(-0.150077 -0.163462 4.20401e-25)
(-0.162386 -0.157447 -4.47775e-25)
(-0.00828963 -0.199146 2.27224e-26)
(-0.0256735 -0.199448 1.17638e-25)
(-0.0433096 -0.199676 -2.04334e-26)
(-0.0612643 -0.199301 -3.0045e-25)
(-0.0801332 -0.197911 0)
(-0.0997505 -0.195475 3.81291e-25)
(-0.117134 -0.191952 4.55862e-25)
(-0.13063 -0.189113 1.32181e-25)
(-0.14464 -0.185705 -6.73816e-26)
(-0.158084 -0.181969 5.71774e-25)
(-0.171468 -0.177708 4.89732e-25)
(-0.184448 -0.172187 -1.3812e-24)
(-0.0105116 -0.220072 1.9227e-36)
(-0.031261 -0.220396 1.93926e-25)
(-0.0515925 -0.22051 3.8927e-26)
(-0.0715775 -0.219909 -2.65024e-25)
(-0.0920759 -0.217963 -8.89664e-26)
(-0.112127 -0.214281 -1.40624e-25)
(-0.129595 -0.209431 2.76531e-25)
(-0.144793 -0.20457 0)
(-0.160183 -0.199314 -1.19642e-24)
(-0.174938 -0.193821 6.14805e-25)
(-0.188898 -0.187955 6.30494e-25)
(-0.201846 -0.181478 -1.2858e-24)
(-0.0125858 -0.241014 9.45344e-26)
(-0.0363465 -0.241074 1.53038e-25)
(-0.0590128 -0.240567 -1.39071e-25)
(-0.0802957 -0.239206 -3.79044e-25)
(-0.101488 -0.236039 5.58417e-26)
(-0.121836 -0.231218 7.28769e-26)
(-0.139582 -0.225357 2.97244e-25)
(-0.156006 -0.218615 -1.93075e-25)
(-0.172418 -0.211336 -2.73279e-25)
(-0.187469 -0.203869 6.48526e-25)
(-0.201135 -0.196067 1.56893e-25)
(-0.213441 -0.187993 -4.45926e-25)
(-0.0145058 -0.262003 1.38673e-25)
(-0.0406194 -0.261858 -2.33038e-26)
(-0.0650647 -0.260189 -5.71976e-26)
(-0.0872794 -0.257397 -2.26757e-25)
(-0.108853 -0.252887 3.63734e-25)
(-0.129418 -0.246902 3.14076e-25)
(-0.148116 -0.240394 -4.99085e-25)
(-0.165092 -0.232932 -5.12974e-25)
(-0.181375 -0.223259 3.89475e-25)
(-0.195835 -0.2133 1.19502e-34)
(-0.208754 -0.203287 -1.18948e-24)
(-0.22013 -0.193268 2.10805e-25)
(-0.0166649 -0.283209 7.58329e-26)
(-0.0443044 -0.283425 2.90183e-26)
(-0.0697623 -0.280543 4.71277e-25)
(-0.0926589 -0.276155 9.08426e-25)
(-0.114773 -0.269946 4.54578e-26)
(-0.135636 -0.262384 5.4838e-25)
(-0.153884 -0.253682 0)
(-0.170335 -0.244394 0)
(-0.186277 -0.233491 0)
(-0.200315 -0.22181 -2.04442e-24)
(-0.212592 -0.20992 -2.694e-24)
(-0.223143 -0.198112 1.33035e-24)
(-0.0198119 -0.304662 -1.62282e-25)
(-0.0477515 -0.305811 -3.60034e-25)
(-0.0731679 -0.301228 3.66412e-25)
(-0.096157 -0.294803 9.66905e-26)
(-0.118747 -0.286196 1.36404e-25)
(-0.139609 -0.27678 -1.74583e-25)
(-0.157521 -0.265897 1.006e-24)
(-0.173458 -0.254349 -2.35793e-25)
(-0.188408 -0.241699 -1.30959e-25)
(-0.201668 -0.228491 -1.55134e-24)
(-0.213122 -0.215062 -2.54888e-24)
(-0.22287 -0.201765 2.26784e-25)
(-0.0242856 -0.326098 -8.33508e-26)
(-0.050328 -0.327921 -7.18037e-25)
(-0.0739524 -0.319289 7.43816e-26)
(-0.0960815 -0.309426 -1.48331e-24)
(-0.118912 -0.297447 5.00238e-26)
(-0.139771 -0.286325 -1.08355e-25)
(-0.156836 -0.273854 1.40014e-24)
(-0.171837 -0.259946 0)
(-0.18576 -0.245142 1.31525e-24)
(-0.197972 -0.230298 1.26925e-24)
(-0.208268 -0.21545 -1.17424e-24)
(-0.217034 -0.200886 -1.0886e-24)
(-0.0307186 -0.345689 7.46882e-26)
(-0.0500366 -0.34396 -4.5719e-25)
(-0.0693718 -0.328084 -7.24661e-26)
(-0.0904739 -0.313635 -8.41e-25)
(-0.113978 -0.298055 -6.80384e-26)
(-0.134905 -0.285972 0)
(-0.149771 -0.27305 -6.98826e-26)
(-0.162563 -0.257078 -1.81845e-25)
(-0.174906 -0.239921 1.05453e-24)
(-0.185359 -0.22323 1.09556e-24)
(-0.193507 -0.206465 1.05086e-24)
(-0.200312 -0.1899 0)
(-0.0161536 -0.34596 3.56947e-25)
(-0.0345358 -0.336236 3.50469e-25)
(-0.0522585 -0.314119 -7.26844e-25)
(-0.0744448 -0.298584 -1.59817e-25)
(-0.10071 -0.282458 1.52087e-26)
(-0.12309 -0.271207 3.99867e-26)
(-0.13456 -0.259967 -1.0072e-25)
(-0.143797 -0.243804 2.49395e-27)
(-0.15438 -0.225812 -2.08088e-26)
(-0.162519 -0.209159 0)
(-0.16717 -0.191776 8.12669e-25)
(-0.169553 -0.172157 1.64764e-24)
(-0.116581 -0.100168 -1.0916e-26)
(-0.123192 -0.093432 1.55297e-25)
(-0.128952 -0.0857757 6.00335e-26)
(-0.133611 -0.0772379 5.9791e-26)
(-0.137366 -0.0677289 0)
(-0.140016 -0.0581844 -6.89328e-26)
(-0.142108 -0.0480739 -7.43842e-26)
(-0.142364 -0.0395725 3.45779e-26)
(-0.141454 -0.0299589 0)
(-0.139778 -0.0205211 -4.86151e-26)
(-0.137896 -0.0108955 6.42945e-27)
(-0.136477 -0.00277213 -4.94009e-27)
(-0.144016 -0.133038 -1.93041e-25)
(-0.151638 -0.125912 3.31743e-25)
(-0.157733 -0.117739 1.24243e-26)
(-0.16237 -0.10864 -1.69906e-25)
(-0.165594 -0.0978431 0)
(-0.167195 -0.0862389 0)
(-0.16743 -0.073616 -3.32475e-26)
(-0.165415 -0.0639297 -3.81133e-26)
(-0.164151 -0.0511934 -3.42468e-26)
(-0.161746 -0.0407043 4.38531e-26)
(-0.159265 -0.0257422 -3.21675e-26)
(-0.157593 -0.0104115 -1.08191e-26)
(-0.17273 -0.150871 -1.48472e-25)
(-0.181333 -0.14409 2.69346e-25)
(-0.188116 -0.136816 0)
(-0.19291 -0.128672 2.46058e-36)
(-0.195663 -0.119122 0)
(-0.196679 -0.10744 0)
(-0.195784 -0.0936373 0)
(-0.19302 -0.0814402 0)
(-0.188375 -0.0661457 -9.28708e-26)
(-0.182796 -0.0524739 1.05387e-25)
(-0.17943 -0.0330797 -2.67756e-26)
(-0.178072 -0.0133042 1.70729e-26)
(-0.195786 -0.16613 -7.2416e-26)
(-0.205385 -0.159891 -4.40937e-25)
(-0.213196 -0.153395 0)
(-0.219259 -0.146459 9.52787e-25)
(-0.223469 -0.138745 0)
(-0.225689 -0.129457 3.13301e-25)
(-0.224975 -0.117853 -2.9294e-25)
(-0.221002 -0.105637 9.03848e-26)
(-0.215038 -0.0903055 4.70857e-25)
(-0.207661 -0.0719382 1.40714e-25)
(-0.200958 -0.0452153 1.59524e-25)
(-0.198592 -0.0158519 3.97736e-26)
(-0.213266 -0.17476 0)
(-0.223016 -0.168128 -6.59261e-25)
(-0.230983 -0.161714 0)
(-0.237175 -0.155498 6.69376e-25)
(-0.24151 -0.149245 0)
(-0.243771 -0.14245 3.34278e-25)
(-0.243549 -0.134458 -4.26684e-25)
(-0.240625 -0.124961 4.18025e-26)
(-0.235553 -0.11211 7.97354e-25)
(-0.230133 -0.0920976 0)
(-0.223326 -0.0606076 2.05238e-25)
(-0.219362 -0.0195684 -5.15634e-26)
(-0.224191 -0.179968 0)
(-0.233322 -0.172362 7.34103e-25)
(-0.240748 -0.165435 7.60179e-25)
(-0.246551 -0.159283 -8.86557e-26)
(-0.25086 -0.153828 2.52497e-26)
(-0.253722 -0.148764 0)
(-0.255093 -0.143526 -7.97769e-25)
(-0.254783 -0.137056 -1.10602e-25)
(-0.252981 -0.12691 -2.67156e-34)
(-0.249824 -0.108547 0)
(-0.245869 -0.0757424 1.65032e-25)
(-0.242144 -0.0257277 -6.48868e-26)
(-0.229934 -0.183566 8.92308e-26)
(-0.238199 -0.174571 8.05616e-25)
(-0.244823 -0.16664 6.58677e-25)
(-0.249983 -0.159818 3.2856e-27)
(-0.254069 -0.154109 8.85995e-26)
(-0.257503 -0.149389 7.01644e-25)
(-0.260584 -0.14545 -9.00876e-26)
(-0.263135 -0.141451 -9.58545e-25)
(-0.264704 -0.134453 -8.87236e-25)
(-0.264759 -0.119231 4.86969e-25)
(-0.261835 -0.0862926 9.54981e-26)
(-0.260888 -0.030517 8.63054e-34)
(-0.232101 -0.18676 6.39108e-26)
(-0.239702 -0.176341 1.19039e-25)
(-0.245593 -0.167383 2.95898e-26)
(-0.249906 -0.159587 1.35685e-25)
(-0.253313 -0.152811 8.95898e-26)
(-0.256692 -0.14698 7.27693e-25)
(-0.260845 -0.142501 1.50552e-24)
(-0.265495 -0.139364 -5.82279e-25)
(-0.27042 -0.135355 -1.04855e-24)
(-0.274594 -0.125886 4.02965e-25)
(-0.274178 -0.0954368 1.98446e-25)
(-0.277212 -0.029282 0)
(-0.23113 -0.18899 8.36465e-26)
(-0.238563 -0.177399 -7.13182e-26)
(-0.244144 -0.167978 0)
(-0.247574 -0.159635 -1.13004e-24)
(-0.249876 -0.151669 1.41003e-25)
(-0.252613 -0.143781 -2.64261e-26)
(-0.25736 -0.137164 -6.36728e-26)
(-0.263615 -0.132594 0)
(-0.272334 -0.128694 -6.90211e-25)
(-0.282903 -0.123259 5.90717e-25)
(-0.29273 -0.0972782 2.28429e-25)
(-0.298251 -0.0212711 7.08146e-26)
(-0.224611 -0.18692 1.18641e-24)
(-0.232568 -0.174649 -6.39636e-27)
(-0.238798 -0.165935 0)
(-0.2416 -0.158781 -2.11467e-24)
(-0.242721 -0.150453 -1.31346e-25)
(-0.244581 -0.140341 -1.88657e-25)
(-0.249939 -0.13072 -6.1934e-25)
(-0.257476 -0.122997 7.3271e-26)
(-0.269542 -0.115352 -8.20741e-27)
(-0.286791 -0.109048 -5.02042e-25)
(-0.31118 -0.0913626 -5.19932e-26)
(-0.320307 -0.0132192 5.13849e-26)
(-0.206463 -0.17392 1.05502e-24)
(-0.21506 -0.160997 1.11419e-24)
(-0.223604 -0.154451 0)
(-0.226571 -0.153015 -7.39374e-25)
(-0.227878 -0.146553 -6.96027e-25)
(-0.229908 -0.135384 -1.90271e-25)
(-0.23691 -0.123076 -2.28428e-25)
(-0.245837 -0.112775 -1.29652e-24)
(-0.260024 -0.0991074 0)
(-0.281325 -0.0824735 -7.44593e-25)
(-0.325033 -0.070188 3.75271e-25)
(-0.347824 -0.016273 -2.30675e-25)
(-0.171361 -0.149394 -6.66443e-26)
(-0.176539 -0.12965 4.55144e-25)
(-0.187218 -0.120745 0)
(-0.190485 -0.131599 1.12968e-24)
(-0.197025 -0.132692 -1.48289e-24)
(-0.204417 -0.124526 9.79972e-25)
(-0.216864 -0.111565 9.4082e-25)
(-0.228811 -0.102098 -1.158e-24)
(-0.243113 -0.0881673 0)
(-0.254235 -0.0576619 0)
(-0.291183 -0.0255522 4.46374e-25)
(-0.340862 0.0103453 5.34519e-26)
(-0.134985 0.00367302 -8.86509e-27)
(-0.132751 0.0173607 -8.65616e-27)
(-0.13306 0.0281338 0)
(-0.133055 0.0363309 0)
(-0.131966 0.0432845 0)
(-0.129195 0.0522498 3.50261e-26)
(-0.125712 0.0617357 9.02319e-26)
(-0.122143 0.0713278 0)
(-0.118461 0.0810985 -5.82118e-26)
(-0.114593 0.0896737 1.40915e-25)
(-0.10948 0.0977577 1.93529e-26)
(-0.103544 0.104929 5.14448e-26)
(-0.158882 0.00178887 -1.40043e-26)
(-0.160707 0.0183575 1.98258e-26)
(-0.161251 0.0315941 0)
(-0.162065 0.0416955 3.18267e-26)
(-0.163841 0.0522529 1.13615e-28)
(-0.165573 0.0640013 -1.23768e-25)
(-0.164284 0.0763535 2.0077e-27)
(-0.160744 0.0914902 -9.95466e-26)
(-0.157803 0.104279 -1.59806e-25)
(-0.153977 0.114577 -8.62564e-26)
(-0.149484 0.122847 -1.40772e-25)
(-0.143292 0.129477 -1.27327e-25)
(-0.178028 0.00988376 9.85199e-27)
(-0.179515 0.0283482 -4.51254e-36)
(-0.181636 0.0441253 0)
(-0.183847 0.0578567 0)
(-0.184715 0.0738813 1.47108e-26)
(-0.186878 0.0882745 -3.66814e-26)
(-0.189553 0.10347 7.62568e-26)
(-0.188832 0.121183 2.73199e-25)
(-0.187802 0.134232 2.97585e-25)
(-0.185246 0.146409 -2.85578e-25)
(-0.181913 0.156675 0)
(-0.17731 0.165407 5.88543e-25)
(-0.199729 0.012574 -2.97372e-26)
(-0.2005 0.035101 -7.44104e-26)
(-0.200685 0.0545366 0)
(-0.202955 0.0719042 -2.56082e-25)
(-0.204925 0.0915101 6.49885e-26)
(-0.206569 0.109424 3.68189e-25)
(-0.208055 0.127406 0)
(-0.208538 0.145208 3.86667e-25)
(-0.208896 0.160335 -5.86851e-25)
(-0.208557 0.173956 6.21285e-25)