/*--------------------------------*- C++ -*----------------------------------*\
| =========                 |                                                 |
| \\      /  F ield         | OpenFOAM: The Open Source CFD Toolbox           |
|  \\    /   O peration     | Version:  v1606+                                |
|   \\  /    A nd           | Web:      www.OpenFOAM.com                      |
|    \\/     M anipulation  |                                                 |
\*---------------------------------------------------------------------------*/
FoamFile
{
    version     2.0;
    format      ascii;
    class       surfaceVectorField;
    location    "1.9";
    object      Uf;
}
// * * * * * * * * * * * * * * * * * * * * * * * * * * * * * * * * * * * * * //

dimensions      [0 1 -1 0 0 0 0];

internalField   nonuniform List<vector> 
1460
(
(-0.0317151 0.0484721 2.68752e-21)
(-0.0339142 0.0376864 -1.88378e-21)
(-0.0407836 0.0408007 -9.27584e-22)
(-0.020289 0.0549429 1.37504e-20)
(-0.0243235 0.0452461 6.428e-21)
(-0.00779322 0.059541 9.94528e-21)
(-0.0131926 0.0509092 -1.70367e-21)
(0.00483559 0.0625379 -3.50239e-20)
(-0.00141622 0.0543451 0)
(0.0170296 0.0642597 -4.40218e-20)
(0.0102795 0.0561791 -9.2278e-21)
(0.0285613 0.0642499 3.76928e-20)
(0.0212882 0.0569717 -3.85448e-20)
(0.0392801 0.0612836 4.67073e-20)
(0.0314921 0.056391 3.21455e-20)
(0.0484172 0.0544759 3.07711e-20)
(0.0406445 0.0533376 -5.78833e-22)
(0.054499 0.0442815 2.03016e-20)
(0.0480036 0.0469204 1.70475e-20)
(0.0558179 0.0321019 -1.30957e-22)
(0.0514669 0.0369761 -1.05393e-20)
(0.0526705 0.0193097 2.74307e-20)
(0.0488041 0.0243811 1.05893e-20)
(0.0420568 0.00997664 3.99027e-20)
(-0.0269475 0.0345254 2.06315e-21)
(-0.0288378 0.0251123 -7.68703e-22)
(-0.0342043 0.0256555 -7.12021e-22)
(-0.0175418 0.0412023 -8.87056e-21)
(-0.020972 0.0328303 -7.95059e-22)
(-0.00711506 0.0455821 -1.1794e-20)
(-0.0116177 0.0382484 -2.01177e-21)
(0.00374298 0.0478916 2.62045e-20)
(-0.00157162 0.0412335 5.85637e-21)
(0.0143698 0.0487978 -3.28953e-21)
(0.00853284 0.0422775 -1.28348e-20)
(0.0242662 0.0489257 -4.50981e-20)
(0.0180084 0.0421338 -9.50475e-21)
(0.033248 0.0483887 -1.5762e-20)
(0.0267666 0.0413163 -5.60133e-20)
(0.0407541 0.0457162 -1.4079e-20)
(0.0341949 0.0398193 1.23883e-20)
(0.0451798 0.0393347 -1.40224e-20)
(0.0397009 0.0371397 -1.55288e-20)
(0.0444243 0.0292488 0)
(0.0416079 0.0321845 -2.04917e-21)
(0.0385179 0.016095 2.3032e-20)
(0.0370075 0.02317 -4.31827e-20)
(0.0270143 0.00886213 -2.32244e-21)
(-0.0228613 0.0235104 -3.62401e-21)
(-0.0238927 0.0157954 0)
(-0.0284594 0.0146336 0)
(-0.0152675 0.0299614 5.81976e-21)
(-0.017771 0.0230401 2.87238e-21)
(-0.00648859 0.0339185 1.53379e-20)
(-0.0102061 0.0278747 9.50209e-21)
(0.00273804 0.0356846 -3.22068e-20)
(-0.00183383 0.0304148 2.59673e-20)
(0.0118106 0.0356698 -1.79024e-20)
(0.00666118 0.0309121 -3.84086e-20)
(0.0201845 0.034522 -2.02887e-20)
(0.0145691 0.0299212 3.20276e-20)
(0.0274356 0.0329593 -2.75108e-20)
(0.0216733 0.0278854 1.12312e-20)
(0.0330469 0.0315088 1.2335e-20)
(0.0272287 0.0251404 5.9294e-22)
(0.0357851 0.0297699 -4.1746e-21)
(0.0304685 0.0223997 -1.43446e-21)
(0.0337252 0.0261283 -4.63871e-20)
(0.0301974 0.0204984 -2.07513e-21)
(0.0263788 0.0178487 -6.62848e-20)
(0.0240777 0.0175478 -4.732e-20)
(0.0112662 0.00870061 -1.55627e-20)
(-0.0190481 0.0154652 6.55928e-21)
(-0.0232157 0.00766197 0)
(-0.0196713 0.00928572 -1.02138e-21)
(-0.0130436 0.021087 6.55928e-21)
(-0.0150427 0.0155356 -2.52978e-23)
(-0.00591418 0.0244856 2.01613e-20)
(-0.00899601 0.0197473 0)
(0.00172107 0.0257779 2.01613e-20)
(-0.0021193 0.0218541 3.89913e-23)
(0.00918903 0.025238 1.16656e-20)
(0.00489927 0.0219501 -5.56541e-21)
(0.015855 0.0233198 6.31722e-20)
(0.0113187 0.0204216 -1.83175e-20)
(0.0211185 0.0202495 3.91101e-20)
(0.0166625 0.0176849 6.35249e-20)
(0.0242599 0.0164314 -1.26241e-20)
(0.020033 0.0139216 -1.26993e-20)
(0.0242516 0.0131543 0)
(0.0205572 0.00942542 0)
(0.0197693 0.0120168 -7.71438e-21)
(0.0173934 0.00606679 9.01549e-21)
(0.0101728 0.0115357 -8.51693e-21)
(0.00921031 0.00517649 1.35485e-20)
(-0.0024097 0.00598812 7.49196e-21)
(-0.0443403 0.00568847 4.74633e-21)
(-0.0381508 0.004237 2.89149e-21)
(-0.0400102 0.0128718 1.78163e-21)
(-0.0354191 0.0138685 7.089e-21)
(-0.0344253 0.015058 6.18544e-20)
(-0.030404 0.0181811 -7.14081e-21)
(-0.0294979 0.0121615 2.13563e-20)
(-0.024633 0.017743 4.43623e-20)
(-0.0267039 0.00544649 2.07418e-20)
(-0.0198914 0.013161 -3.8619e-20)
(-0.0259379 -0.00345851 9.90153e-20)
(-0.0168866 0.00550275 5.19423e-20)
(-0.0259511 -0.0136963 3.58162e-20)
(-0.0150864 -0.00422418 2.87087e-20)
(-0.0258891 -0.0250515 8.17605e-21)
(-0.0136057 -0.0154466 2.75408e-20)
(-0.0258583 -0.0360128 0)
(-0.0123441 -0.0275064 5.9849e-21)
(-0.0278423 -0.0436951 1.8284e-21)
(-0.0135712 -0.0374628 -6.05266e-21)
(-0.033079 -0.0455512 1.98877e-21)
(-0.0191768 -0.0422902 2.8979e-21)
(-0.028053 -0.0407912 -3.89972e-22)
(-0.0407191 -0.0411556 3.72163e-21)
(-0.0280498 0.0132309 5.13178e-21)
(-0.0231198 0.00896697 3.96746e-21)
(-0.0250266 0.019601 0)
(-0.0220435 0.0198163 -8.52273e-21)
(-0.0198862 0.0214475 -2.4721e-20)
(-0.0171434 0.0237576 -5.08056e-21)
(-0.0143046 0.019436 -1.31761e-20)
(-0.0107005 0.0237862 -3.53176e-20)
(-0.00956756 0.0139146 -7.32177e-21)
(-0.00447822 0.0203221 -3.01801e-21)
(-0.00566535 0.0055601 -1.78616e-20)
(0.000867751 0.0134798 -1.79761e-20)
(-0.00231264 -0.00513555 1.94399e-20)
(0.0053411 0.00386942 -6.0114e-21)
(-0.000128352 -0.0171845 2.5737e-20)
(0.00863194 -0.00781655 4.95658e-21)
(-0.000891295 -0.0283817 -6.82193e-23)
(0.00936297 -0.0203876 1.13545e-21)
(-0.00613744 -0.0358771 -5.0289e-21)
(0.00531078 -0.0303954 1.25211e-21)
(-0.0151479 -0.037783 4.12922e-22)
(-0.00359776 -0.0351748 -4.21912e-22)
(-0.0146463 -0.0342857 -8.57692e-22)
(-0.0252948 -0.0342987 -2.0181e-21)
(-0.0163077 0.0161996 -1.13934e-20)
(-0.0119238 0.0103146 -7.28034e-21)
(-0.0135564 0.0239648 -1.34365e-20)
(-0.0137367 0.0212659 4.24722e-21)
(-0.00738154 0.0261646 -1.56188e-20)
(-0.00781301 0.0259302 1.78364e-21)
(-0.00017787 0.0250873 -2.63356e-20)
(-0.000382033 0.0264154 -8.76652e-21)
(0.00649842 0.0205337 -1.42923e-20)
(0.00723706 0.0241252 1.24065e-20)
(0.0122903 0.0126378 -6.0502e-21)
(0.0140812 0.0181861 1.02244e-20)
(0.0166067 0.00196223 -2.01645e-20)
(0.019484 0.00902374 -3.54598e-20)
(0.0179557 -0.0101862 -1.82607e-20)
(0.0223784 -0.00228504 -1.3488e-20)
(0.014629 -0.0213626 9.67516e-22)
(0.0212426 -0.0141506 -1.7678e-20)
(0.00672946 -0.0287938 4.93042e-21)
(0.0150045 -0.0234682 5.96422e-21)
(-0.0037463 -0.0310473 -1.46146e-21)
(0.00488701 -0.0281116 -6.91725e-23)
(-0.00619849 -0.027766 5.049e-22)
(-0.0145826 -0.0286328 -3.55396e-21)
(-0.0095938 0.0151038 8.8008e-21)
(-0.00857736 0.0100019 -1.11881e-20)
(-0.00770708 0.0231693 2.02473e-20)
(-0.0105608 0.0190074 3.21839e-20)
(-0.000526926 0.0260778 8.92542e-21)
(-0.0032216 0.0240256 -1.80401e-20)
(0.00773659 0.0258937 3.05334e-20)
(0.00417202 0.0246983 1.82587e-21)
(0.0154457 0.0225377 3.72415e-20)
(0.0122014 0.0234721 -7.58401e-21)
(0.0217874 0.0155955 -1.76473e-20)
(0.0194023 0.0188117 1.89244e-21)
(0.0256138 0.00572102 -2.95547e-20)
(0.0246039 0.0108925 -2.04347e-21)
(0.0256141 -0.00544545 -1.27661e-20)
(0.0266099 0.00089757 1.042e-20)
(0.0207876 -0.0155871 -1.27661e-20)
(0.0243737 -0.00938438 3.12561e-21)
(0.0121341 -0.0223825 9.39984e-22)
(0.0178267 -0.0175184 0)
(0.00195533 -0.0247488 1.87363e-21)
(0.0085875 -0.0219129 1.60598e-22)
(-0.00760882 -0.023249 4.73815e-21)
(-0.00104768 -0.0222765 4.16345e-22)
(-0.048668 -0.0320657 3.56126e-21)
(-0.0374873 -0.0341322 1.54507e-21)
(-0.055206 -0.0203944 1.01404e-20)
(-0.0454377 -0.0243732 -7.76059e-22)
(-0.0597379 -0.00776085 -2.08028e-21)
(-0.0510618 -0.0131265 -1.91362e-22)
(-0.062602 0.00485003 -1.22207e-20)
(-0.0544394 -0.0013775 -1.23022e-20)
(-0.0642311 0.0169476 -1.65714e-20)
(-0.0562077 0.0102163 -3.32945e-20)
(-0.0641526 0.028409 -1.82719e-20)
(-0.0569429 0.0211498 -3.93607e-20)
(-0.0611476 0.039084 6.21341e-20)
(-0.0563045 0.0313131 -2.54702e-21)
(-0.0543366 0.0481937 7.86015e-20)
(-0.0532158 0.0404512 7.90569e-20)
(-0.0441705 0.0542535 -2.42373e-20)
(-0.046817 0.0478198 -2.7223e-20)
(-0.0320528 0.055585 -4.82616e-20)
(-0.0369355 0.0513301 7.80433e-21)
(-0.0192719 0.0526802 -2.86011e-20)
(-0.0243723 0.0487774 -1.07722e-20)
(-0.00999888 0.0423538 5.66914e-21)
(-0.00579998 0.0482482 -1.77486e-20)
(-0.034377 -0.0270008 -2.35557e-21)
(-0.0248809 -0.0289257 -4.70452e-21)
(-0.0412428 -0.0175541 -1.07523e-20)
(-0.0328842 -0.0209202 -3.95542e-23)
(-0.0456509 -0.00708139 -9.971e-21)
(-0.0382925 -0.0115501 -1.0035e-20)
(-0.0479365 0.00370254 -3.3518e-20)
(-0.0412752 -0.00157058 -2.17915e-20)
(-0.0488158 0.0142508 -5.62728e-20)
(-0.0423067 0.00843939 -8.70406e-23)
(-0.0489131 0.0240993 -2.41216e-20)
(-0.0421558 0.01786 1.08952e-20)
(-0.0483336 0.0330695 1.28999e-20)
(-0.041316 0.026598 -4.45871e-20)
(-0.0456262 0.0406027 -2.76267e-20)
(-0.0397959 0.0340422 -3.85575e-20)
(-0.0392483 0.0451034 5.07317e-21)
(-0.0371265 0.0396049 -9.16503e-20)
(-0.0292236 0.0444901 4.75127e-20)
(-0.0322171 0.041625 9.95645e-20)
(-0.016167 0.0387671 2.38479e-20)
(-0.0232312 0.0371898 -9.74475e-21)
(-0.00887464 0.0273864 -2.80896e-20)
(0.000421583 0.0315522 2.38479e-20)
(-0.0235095 -0.0229082 -2.38386e-21)
(-0.0157937 -0.0239434 8.30475e-22)
(-0.0299723 -0.0151998 7.51546e-22)
(-0.0230646 -0.0177105 1.46064e-21)
(-0.0339449 -0.00645876 -2.19321e-20)
(-0.0278996 -0.0101369 0)
(-0.0357092 0.0026819 1.06372e-20)
(-0.0304276 -0.00185233 5.72449e-21)
(-0.0356931 0.0116811 6.6594e-20)
(-0.0309352 0.00655262 3.33044e-20)
(-0.0345655 0.0200396 -8.50185e-21)
(-0.0299555 0.0144338 2.64406e-20)
(-0.0329941 0.0273039 -9.5784e-20)
(-0.0279334 0.0215255 -4.27782e-20)
(-0.031558 0.0329668 -1.02523e-19)
(-0.0251903 0.0271394 -3.62278e-20)
(-0.0298318 0.0357995 2.82658e-21)
(-0.0224694 0.0304652 -1.06401e-20)
(-0.0261776 0.0338843 4.1355e-20)
(-0.020607 0.0303224 4.88321e-20)
(-0.0178263 0.0266831 -5.91778e-20)
(-0.0176656 0.0243366 2.44522e-20)
(-0.00873902 0.0116817 1.10203e-20)
(0.000933195 0.0176474 -4.93702e-20)
(-0.0154883 -0.0190165 4.47015e-21)
(-0.00930483 -0.0196769 2.59034e-21)
(-0.0211105 -0.0129805 7.08831e-22)
(-0.0155681 -0.0149798 -1.08423e-21)
(-0.0244894 -0.00589531 2.69905e-20)
(-0.0197554 -0.00894527 1.80384e-21)
(-0.0257913 0.00165473 2.76645e-20)
(-0.0218469 -0.0021482 2.71513e-20)
(-0.0252768 0.00905762 -6.82497e-21)
(-0.0219686 0.00479275 -2.62281e-20)
(-0.0233612 0.0157103 -7.47981e-21)
(-0.0204682 0.0111865 -2.61492e-20)
(-0.0203176 0.0210267 1.51243e-20)
(-0.0177458 0.0165491 5.80875e-20)
(-0.0165074 0.0242464 5.18024e-20)
(-0.0139911 0.0199823 5.25154e-20)
(-0.0132641 0.0243499 3.50251e-20)
(-0.00949355 0.0206104 3.6501e-20)
(-0.0121758 0.0199835 3.32739e-20)
(-0.00614675 0.0175705 -2.49998e-21)
(-0.0116791 0.0104854 8.87562e-20)
(-0.00526533 0.00948017 3.42184e-21)
(0.00230398 0.00347368 5.23942e-20)
(-0.00601378 -0.002113 3.65695e-20)
(0.00570092 0.0445035 -6.8348e-21)
(0.00432647 0.0382613 1.52721e-22)
(0.0127989 0.0402228 -1.77925e-21)
(0.0138789 0.0355539 -7.03311e-21)
(0.01492 0.0346948 7.0373e-21)
(0.0181201 0.0305784 7.08424e-21)
(0.0119948 0.029799 0)
(0.0176318 0.0248387 1.24845e-20)
(0.00528104 0.0269698 -8.77051e-20)
(0.0130213 0.0200834 1.72077e-21)
(-0.00362827 0.0260916 -8.35017e-20)
(0.00534341 0.0170062 -6.92081e-20)
(-0.0139008 0.0259564 -1.93648e-20)
(-0.00441579 0.0150915 -2.87477e-20)
(-0.0252834 0.0257869 -2.41587e-20)
(-0.0156767 0.0135009 1.03363e-21)
(-0.0362063 0.0257749 8.30914e-21)
(-0.0277104 0.0122458 0)
(-0.0437933 0.0279599 1.01125e-20)
(-0.0375079 0.0136132 3.46706e-21)
(-0.0454528 0.0333225 1.99336e-21)
(-0.0422363 0.0194382 6.59917e-22)
(-0.0406487 0.0283385 2.42738e-22)
(0.0133337 0.0281467 0)
(0.0091317 0.023191 0)
(0.0196433 0.0251386 0)
(0.0199288 0.0221019 -8.39527e-21)
(0.0214337 0.0200107 1.25683e-20)
(0.0238058 0.0172105 3.0372e-21)
(0.0193753 0.0144142 1.57756e-20)
(0.0237718 0.0107653 1.49653e-20)
(0.0138151 0.0096183 2.05868e-20)
(0.0202468 0.0045077 -8.72213e-21)
(0.00540924 0.00563198 -1.49081e-20)
(0.0133521 -0.000898199 7.11959e-21)
(-0.0053414 0.002215 -7.20807e-21)
(0.00368467 -0.00542362 -5.1637e-20)
(-0.017384 5.67497e-05 2.55237e-20)
(-0.00803852 -0.00871272 1.1087e-20)
(-0.0284682 0.000944855 -4.93038e-21)
(-0.020562 -0.00932591 -4.90981e-21)
(-0.0358113 0.00632305 -6.67912e-21)
(-0.0303998 -0.00512387 2.397e-21)
(-0.0376418 0.0154379 -8.54624e-22)
(-0.0350613 0.00385051 -4.60143e-22)
(-0.0341 0.0148783 5.21159e-23)
(0.016379 0.01635 -8.44946e-21)
(0.0104899 0.0119717 -1.81707e-21)
(0.0240907 0.0135768 -5.14391e-21)
(0.0214353 0.0137417 -7.57042e-21)
(0.0262224 0.00739944 5.82987e-21)
(0.0260545 0.0078109 3.07569e-21)
(0.0250795 0.000161727 -6.62967e-21)
(0.026463 0.000353024 2.34573e-21)
(0.0204552 -0.00655058 -2.14214e-20)
(0.0240949 -0.00729011 -7.54946e-22)
(0.0124904 -0.01237 -2.7932e-20)
(0.0180816 -0.0141585 -7.24587e-21)
(0.00176549 -0.0166565 -3.28701e-20)
(0.00885992 -0.0195473 1.037e-20)
(-0.0103735 -0.0179034 -1.82237e-20)
(-0.00247738 -0.0223651 -1.34447e-20)
(-0.0214485 -0.0144344 9.53652e-22)
(-0.0142819 -0.0210934 7.68019e-21)
(-0.0287409 -0.00648714 6.61025e-21)
(-0.0234685 -0.0147587 5.93156e-21)
(-0.0309035 0.00395431 7.151e-22)
(-0.0280206 -0.00465995 8.07621e-22)
(-0.0276664 0.00629906 0)
(0.0152716 0.00961927 2.22789e-21)
(0.0101172 0.00861663 -1.83925e-21)
(0.0233359 0.00769194 1.23768e-21)
(0.019165 0.0105536 1.43198e-20)
(0.0261928 0.000481199 0)
(0.0241735 0.00319123 -4.34237e-21)
(0.0259271 -0.00780605 9.90439e-21)
(0.0247867 -0.00424246 0)
(0.022489 -0.0155295 1.38994e-20)
(0.0234775 -0.0122904 9.96337e-21)
(0.0154699 -0.0218477 3.00923e-20)
(0.0187418 -0.0194842 -6.20765e-21)
(0.00555456 -0.0256081 2.94842e-20)
(0.0107628 -0.0246371 1.51538e-20)
(-0.00559698 -0.0254806 1.27308e-20)
(0.000759585 -0.0265481 3.92711e-21)
(-0.0156522 -0.0205636 1.27308e-20)
(-0.00947859 -0.0242143 1.19238e-22)
(-0.0223503 -0.0119209 2.64909e-22)
(-0.0175259 -0.0176306 0)
(-0.0246811 -0.00183115 2.64909e-22)
(-0.0218661 -0.00844174 -5.51332e-22)
(-0.0222151 0.00109622 4.59278e-22)
(-0.0158533 0.00948778 -7.43537e-21)
(-0.0161971 0.00464323 7.81219e-24)
(-0.0188632 0.00285938 -5.65474e-22)
(-0.0111988 0.0143218 -6.40787e-21)
(-0.0127314 0.0100458 -6.44471e-21)
(-0.00544252 0.0172526 -1.96664e-20)
(-0.00789836 0.013737 -1.44619e-20)
(0.000790485 0.0181864 -2.52651e-20)
(-0.00230933 0.0155351 -1.51249e-20)
(0.00683134 0.0172545 -3.56161e-20)
(0.00339334 0.0154 -1.03171e-20)
(0.0119583 0.014891 -1.84868e-20)
(0.00849815 0.013561 4.9906e-22)
(0.0153471 0.0114343 1.16413e-20)
(0.0123499 0.0104732 3.32197e-20)
(0.0161643 0.00709377 0)
(0.014026 0.0066451 -1.07992e-20)
(0.0134006 0.0022243 9.0695e-21)
(0.0125967 0.00235942 0)
(0.00669296 -0.00133323 3.18968e-20)
(0.00770702 -0.00114349 9.12165e-21)
(-0.00125052 -4.71474e-05 2.42371e-20)
(8.08307e-05 -0.00251921 2.43765e-20)
(-0.00522354 0.0020257 0)
(-0.0131948 0.00530155 1.00217e-21)
(-0.0133891 0.00159556 1.14078e-22)
(-0.0153796 -0.000208926 5.52428e-22)
(-0.00955086 0.00955205 -1.45455e-20)
(-0.0106956 0.0063421 -6.8168e-21)
(-0.00491544 0.0121272 -9.86404e-21)
(-0.0068387 0.00962348 1.16628e-21)
(0.000124577 0.0128941 9.4144e-23)
(-0.00230646 0.0112184 4.70749e-21)
(0.0049144 0.0118177 2.6038e-20)
(0.0022632 0.0110371 -4.73944e-21)
(0.00876782 0.00925737 5.22099e-20)
(0.0062682 0.00918359 -5.79717e-20)
(0.0108468 0.00571974 1.07032e-20)
(0.00899016 0.00606213 7.1229e-20)
(0.0103767 0.00193394 -1.08616e-20)
(0.00965375 0.00242943 -1.0922e-20)
(0.00689576 -0.00147102 0)
(0.00760235 -0.000970838 -9.38354e-21)
(0.00122165 -0.00306297 0)
(0.00336921 -0.00304483 1.8171e-20)
(-0.00406354 -0.0010876 0)
(-0.00187645 -0.00336304 -8.78617e-21)
(-0.00393625 0.000540885 0)
(-0.0109391 0.0027629 -7.75355e-21)
(-0.0110037 -0.000157415 -1.88464e-23)
(-0.0125499 -0.00203197 -4.55646e-22)
(-0.00804961 0.00647573 8.81165e-21)
(-0.00890942 0.00403161 -1.71573e-21)
(-0.00430728 0.00880355 1.56979e-20)
(-0.00579583 0.00695659 3.24334e-21)
(-0.000256893 0.00946765 0)
(-0.0021517 0.00841275 1.08101e-20)
(0.00353437 0.00849149 -8.89814e-20)
(0.00151626 0.00829235 -1.26301e-20)
(0.00641809 0.0060631 -3.93206e-20)
(0.00463951 0.00666361 -9.70876e-20)
(0.00769173 0.00274872 4.97494e-20)
(0.00659866 0.00384485 -1.63686e-20)
(0.00680207 -0.000530399 -9.43598e-21)
(0.00677014 0.000598123 -9.32601e-21)
(0.00386132 -0.00272878 9.03425e-21)
(0.00481937 -0.002159 -1.40982e-22)
(-5.7918e-05 -0.00346785 8.7968e-21)
(0.00151472 -0.00312931 5.33641e-20)
(-0.00250117 -0.00201935 -8.83527e-21)
(-0.00169748 -0.00281427 -8.88279e-21)
(-0.00222125 -6.51017e-05 0)
(-0.00899856 0.0012301 6.0486e-21)
(-0.00900403 -0.00107264 8.78706e-22)
(-0.0102034 -0.00288963 4.43283e-22)
(-0.00668009 0.00459101 -7.43236e-21)
(-0.00729965 0.00260757 5.20141e-21)
(-0.00367224 0.00666571 -1.73822e-21)
(-0.00482829 0.00522464 -4.07752e-22)
(-0.000413534 0.00731153 -1.90375e-21)
(-0.00189754 0.00656632 -3.50624e-21)
(0.00259594 0.00653629 -2.0519e-20)
(0.0010532 0.00655021 -3.18377e-20)
(0.00479713 0.00449104 -7.4533e-20)
(0.00350904 0.00524542 7.3314e-20)
(0.00562989 0.0016521 -7.59883e-20)
(0.00496785 0.00291004 -4.84904e-20)
(0.00474771 -0.00109775 1.65681e-22)
(0.00497488 0.000198413 3.47481e-20)
(0.0024121 -0.00271206 4.45788e-20)
(0.00338706 -0.00203828 9.44524e-21)
(-0.00022012 -0.00271219 3.51825e-20)
(0.000975323 -0.0025943 1.38116e-21)
(-0.00164691 -0.00134888 0)
(-0.00101961 -0.00210477 -3.27548e-20)
(-0.00101008 -0.000311085 0)
(-0.00732358 0.000467095 0)
(-0.00727047 -0.00157137 0)
(-0.00823821 -0.00320308 0)
(-0.00547765 0.00332733 1.22619e-20)
(-0.00595476 0.00166912 1.25654e-21)
(-0.00306144 0.00519151 -2.2096e-21)
(-0.00395823 0.00401852 1.10657e-20)
(-0.000430998 0.00587922 -3.36952e-20)
(-0.0015879 0.00526085 -1.10302e-20)
(0.00196366 0.00531647 6.22597e-20)
(0.000766828 0.00535629 3.68402e-20)
(0.00367525 0.00368815 1.001e-19)
(0.00271162 0.00436992 4.11328e-20)
(0.00428672 0.00141096 6.30694e-20)
(0.00384223 0.00252394 2.68262e-20)
(0.00358433 -0.000796676 4.44048e-20)
(0.00383114 0.00035752 1.03118e-20)
(0.00183884 -0.00208444 -3.41612e-20)
(0.00262563 -0.00144539 -8.29712e-21)
(5.59198e-05 -0.00206765 -6.70876e-20)
(0.000868326 -0.00191239 -2.60207e-20)
(-0.000676548 -0.00127005 -3.29264e-20)
(-0.000466991 -0.00155519 -1.29168e-21)
(-0.000237364 -0.000458353 0)
(-0.00590236 -0.000111396 1.26292e-21)
(-0.00579717 -0.00189649 0)
(-0.00657606 -0.00332489 0)
(-0.00443952 0.0024247 3.38433e-23)
(-0.00479485 0.000972559 2.45788e-21)
(-0.00249068 0.00412907 2.26766e-21)
(-0.00318245 0.00309486 -2.46089e-21)
(-0.000385496 0.00479656 6.0007e-20)
(-0.00128969 0.00426578 3.54948e-21)
(0.00152899 0.00445965 1.5409e-20)
(0.000603293 0.00445358 2.4451e-20)
(0.0028802 0.0032167 -3.28492e-20)
(0.0021348 0.00373786 -4.53415e-20)
(0.00336308 0.00143225 -2.62622e-20)
(0.00302145 0.00230561 -7.42724e-21)
(0.00284253 -0.000332365 -4.28278e-20)
(0.00302141 0.000605236 -7.47993e-20)
(0.00157181 -0.00138104 2.18626e-22)
(0.00214246 -0.000856894 2.37791e-20)
(0.000296869 -0.00145237 4.03191e-20)
(0.00085043 -0.00130804 8.3963e-21)
(-0.000160304 -0.000952325 3.19637e-20)
(-4.86684e-05 -0.0011226 9.44586e-20)
(0.000225342 -0.000498559 0)
(-0.00468058 -0.000566397 1.19462e-21)
(-0.00453488 -0.00215959 0)
(-0.00516424 -0.00340547 0)
(-0.00353076 0.00173186 6.06899e-23)
(-0.00377771 0.000404097 2.33155e-21)
(-0.00197865 0.00328381 -1.19606e-21)
(-0.00250219 0.00234499 7.73605e-21)
(-0.000298807 0.00396065 -3.23839e-20)
(-0.00100189 0.00346342 3.1645e-21)
(0.00121779 0.00377613 -3.65599e-20)
(0.000506022 0.00373338 -9.13651e-21)
(0.00227655 0.00283724 -1.991e-20)
(0.00170437 0.00323789 -1.1574e-20)
(0.00266035 0.00144464 -5.62058e-20)
(0.00239644 0.00213012 2.22262e-20)
(0.00229284 4.91135e-05 -8.0217e-21)
(0.00240804 0.000790565 2.16239e-20)
(0.00136032 -0.000848343 3.23177e-20)
(0.00176471 -0.000400052 6.3171e-20)
(0.000460921 -0.00100239 6.26453e-20)
(0.000824385 -0.000849567 7.63902e-21)
(0.000204359 -0.000759345 6.26453e-20)
(0.000224369 -0.000813547 5.52624e-20)
(0.00047671 -0.000487638 0)
(-0.00361787 -0.000958394 1.13665e-21)
(-0.00344014 -0.00240453 0)
(-0.00395075 -0.00349743 0)
(-0.00273458 0.00114247 1.0191e-20)
(-0.00287963 -8.03232e-05 1.14191e-21)
(-0.00151987 0.00256673 1.21602e-20)
(-0.00190275 0.00172378 -7.77934e-22)
(-0.000188553 0.00328001 2.67482e-20)
(-0.00071292 0.00280745 3.19437e-21)
(0.000997129 0.0032217 1.60595e-20)
(0.000461573 0.00316128 2.32419e-20)
(0.00182224 0.00253963 3.07388e-20)
(0.00139541 0.00284763 -1.46026e-20)
(0.00211648 0.00144141 1.00655e-19)
(0.00191833 0.0020007 4.55164e-20)
(0.00184811 0.000311798 9.33186e-20)
(0.00193417 0.000939011 3.26257e-20)
(0.00116884 -0.000466602 3.85697e-20)
(0.00146587 -4.09436e-05 2.30755e-20)
(0.00055317 -0.000677444 5.68938e-23)
(0.00080041 -0.000490697 7.49469e-20)
(0.000417819 -0.000594659 -7.54851e-21)
(0.000413799 -0.000572006 -6.68461e-20)
(0.000597386 -0.000437668 5.8588e-20)
(-0.00268668 -0.00131161 0)
(-0.00247377 -0.00259701 0)
(-0.00289308 -0.00361847 0)
(-0.00203174 0.000591314 -9.85897e-21)
(-0.00208785 -0.000437486 3.64736e-21)
(-0.00108847 0.00198326 -9.85897e-21)
(-0.00132656 0.00127619 -1.9194e-20)
(-5.59474e-05 0.00271772 -3.85898e-22)
(-0.00040796 0.0023602 2.91348e-21)
(0.000862686 0.00280256 -7.53286e-21)
(0.000504308 0.00280183 -3.13647e-20)
(0.00149112 0.00232374 -3.21421e-23)
(0.00121875 0.00265198 1.57982e-20)
(0.00171577 0.00147822 -2.30476e-20)
(0.00161228 0.0020189 -2.11108e-20)
(0.00151941 0.00055645 -3.81e-20)
(0.00162785 0.00117697 -2.32032e-20)
(0.00103568 -0.00013242 5.98236e-20)
(0.00129412 0.000354844 -6.64789e-20)
(0.000627086 -0.000400537 8.1652e-21)
(0.000839121 -0.000108667 1.68302e-20)
(0.000544233 -0.000440456 -5.22789e-22)
(0.000587921 -0.000307121 -6.68876e-20)
(0.000645688 -0.000340302 1.96679e-21)
(-0.00184236 -0.00151988 3.66387e-21)
(-0.00157609 -0.00232066 0)
(-0.00195186 -0.00368941 0)
(-0.00135734 0.000349671 -5.66875e-21)
(-0.00128516 -0.000246274 -6.96868e-21)
(-0.000639051 0.00169361 -6.40595e-21)
(-0.000704875 0.00142216 -2.94758e-22)
(0.000156718 0.00247796 -2.81019e-20)
(2.29944e-05 0.00251052 2.93951e-21)
(0.000858246 0.00266737 -8.02455e-21)
(0.000733086 0.00301678 -3.43287e-20)
(0.00133792 0.00236411 -5.36787e-21)
(0.00129115 0.00298027 6.95677e-21)
(0.00150872 0.00171177 -2.12324e-20)
(0.00159237 0.00249647 -5.52782e-20)
(0.00137101 0.000946787 -5.15613e-20)
(0.00161343 0.00179385 -6.75168e-21)
(0.00104063 0.000318135 -1.09874e-19)
(0.00138044 0.00104383 1.17236e-20)
(0.000760416 -3.60468e-05 -5.85325e-20)
(0.00105022 0.000501524 -1.90869e-21)
(0.000637987 -0.000235837 -6.45756e-20)
(0.000814333 0.000116755 -7.30133e-21)
(0.000651318 -0.000164038 -5.75575e-20)
(-0.00101297 -0.000852081 -1.06819e-20)
(-0.000658205 -0.00021685 -1.21577e-21)
(-0.00109423 -0.002984 0)
(-0.000628399 0.00094792 -1.58525e-21)
(-0.000374752 0.00157604 -1.06821e-20)
(-4.4656e-05 0.00230514 9.09664e-21)
(0.000125481 0.00295159 9.13552e-21)
(0.000597818 0.00311088 -3.1177e-21)
(0.00070136 0.00379212 2.70873e-21)
(0.00116212 0.00335954 -1.94122e-20)
(0.0012354 0.00412384 -5.83969e-21)
(0.00154489 0.00313711 -4.31053e-20)
(0.00163976 0.00399068 -4.76032e-20)
(0.00168539 0.00257621 -4.0908e-20)
(0.00183919 0.00347895 8.44334e-20)
(0.00159278 0.00185651 5.71157e-20)
(0.00182563 0.00276402 -1.40593e-20)
(0.00134199 0.00116645 1.20527e-19)
(0.00161934 0.00196922 1.6543e-20)
(0.00106977 0.000617796 4.96916e-20)
(0.00130421 0.00126687 -4.81591e-21)
(0.000771053 0.000136116 0)
(0.000960477 0.000645034 -5.44292e-20)
(0.000541046 9.03325e-05 5.40904e-20)
(-2.63605e-05 0.00235982 -1.20611e-21)
(-0.00023342 0.000692253 -5.21512e-22)
(0.000368593 0.00368247 1.48791e-23)
(0.000856672 0.00453008 2.72036e-21)
(0.00133396 0.00488582 8.7137e-23)
(0.00171713 0.00480567 -3.41266e-20)
(0.00194013 0.00436317 8.04084e-20)
(0.00197325 0.00366787 1.11877e-19)
(0.00182809 0.00284581 -5.49795e-20)
(0.00153599 0.00200805 -1.09928e-19)
(0.00116174 0.00125224 -1.09611e-19)
(0.000680858 0.00053373 -3.40267e-22)
(-0.00862062 0.0124575 2.32713e-20)
(-0.0086562 0.00805529 4.35435e-21)
(-0.00544595 0.0195698 -5.40512e-21)
(-0.00883555 0.015474 3.24562e-21)
(0.00162946 0.0225359 -2.52033e-20)
(-0.00152122 0.0202633 -1.74519e-21)
(0.00938104 0.0226416 -3.47215e-20)
(0.00490876 0.020938 0)
(0.0168051 0.0202119 -4.3229e-20)
(0.0122047 0.0201608 -5.40937e-20)
(0.022769 0.0146498 1.71699e-20)
(0.0187515 0.0166495 -1.56573e-20)
(0.0259586 0.00648294 3.75491e-20)
(0.0233413 0.0103481 5.36908e-20)
(0.0254238 -0.00281121 2.60115e-20)
(0.0249177 0.00219278 9.04282e-21)
(0.0208736 -0.0113004 1.56502e-20)
(0.0228497 -0.00621067 1.57401e-20)
(0.0134369 -0.0171771 -9.13646e-22)
(0.017441 -0.0130375 0)
(0.00494892 -0.0196091 -1.37991e-21)
(0.0100407 -0.0170539 -9.18899e-22)
(0.00224759 -0.0179608 -9.30411e-22)
(-0.00287035 -0.0188841 -1.59073e-21)
(-0.00803567 0.0111049 -1.84244e-20)
(-0.00763976 0.00757491 0)
(-0.00432523 0.0161237 5.12362e-21)
(-0.00713734 0.0127471 -2.9319e-20)
(0.00196791 0.0185453 2.455e-20)
(-0.000795772 0.0165899 2.43104e-21)
(0.00851392 0.0186629 -1.92834e-20)
(0.00463549 0.0173135 0)
(0.014833 0.0167167 -2.50756e-20)
(0.0107697 0.0166333 -8.77784e-22)
(0.0199524 0.0123877 1.94795e-20)
(0.0162668 0.0138666 -1.8741e-20)
(0.0227479 0.0060124 2.47279e-20)
(0.0201982 0.00895022 -6.72915e-21)
(0.0224982 -0.00133749 -1.89361e-21)
(0.0217008 0.00250722 2.03956e-21)
(0.0190881 -0.00820052 0)
(0.0203 -0.00419029 4.87169e-21)
(0.0133992 -0.0131796 0)
(0.0162693 -0.00983128 0)
(0.00670041 -0.0155709 -4.64137e-22)
(0.0105346 -0.0133857 9.00975e-23)
(0.00424337 -0.0145065 4.81117e-25)
(0.000197648 -0.0153856 -2.46263e-21)
(-0.00651654 0.00974835 -1.08526e-20)
(-0.00651094 0.00712488 0)
(-0.00316687 0.0134444 -3.21303e-20)
(-0.00543239 0.0109036 3.71501e-21)
(0.00214977 0.0153224 -2.23798e-20)
(-0.000139382 0.0136999 1.198e-20)
(0.00762046 0.015453 1.95268e-20)
(0.00452178 0.0144403 0)
(0.0128385 0.0138239 6.68919e-21)
(0.00962748 0.0138259 2.50698e-20)
(0.0171046 0.0103815 -4.53928e-20)
(0.0141642 0.0115425 5.3712e-21)
(0.019583 0.00536856 -3.1649e-20)
(0.0174796 0.00762336 -5.4836e-20)
(0.0196685 -0.000472911 8.67532e-21)
(0.0188893 0.00250365 -5.59341e-21)
(0.0172664 -0.0060319 4.89891e-21)
(0.0179911 -0.00286252 4.3272e-21)
(0.0129033 -0.0102245 9.06011e-23)
(0.0149448 -0.007498 -2.12665e-22)
(0.00750772 -0.0124317 5.41607e-22)
(0.0103775 -0.0105683 4.09889e-22)
(0.0051722 -0.0117083 3.43506e-22)
(0.00202469 -0.012549 8.27724e-22)
(-0.00509735 0.00866442 1.46131e-20)
(-0.00539938 0.00652236 -3.47703e-21)
(-0.00195985 0.011449 4.96112e-20)
(-0.00389549 0.00950139 2.20432e-20)
(0.0025288 0.0128725 3.49981e-20)
(0.000587172 0.0115337 1.91447e-20)
(0.00715778 0.0130031 5.46735e-21)
(0.00461521 0.012197 -4.3465e-21)
(0.0115055 0.0116339 2.44275e-20)
(0.00891217 0.0116756 -1.82525e-20)
(0.0150496 0.00880873 -2.0288e-21)
(0.0126824 0.00976177 2.28353e-20)
(0.0171679 0.00475511 -2.93567e-20)
(0.0154392 0.00656238 1.41605e-20)
(0.0173596 4.3988e-05 -1.03639e-20)
(0.0166488 0.00242678 -9.07028e-21)
(0.015534 -0.00447836 -1.1079e-21)
(0.0159851 -0.00192422 -5.95131e-21)
(0.0120316 -0.00798196 2.05133e-22)
(0.0135418 -0.00573623 3.39222e-21)
(0.00755053 -0.00993599 2.46247e-22)
(0.00977741 -0.00834463 2.37154e-22)
(0.00539012 -0.00941935 7.51053e-22)
(0.00288576 -0.0102038 -1.1052e-22)
(-0.00389286 0.00766307 3.08899e-21)
(-0.00436648 0.00579012 -3.51289e-21)
(-0.000902249 0.00987387 -7.84539e-21)
(-0.00260268 0.00827902 1.11888e-20)
(0.00296889 0.0109602 -2.00332e-20)
(0.00126626 0.00982483 -2.01681e-20)
(0.00691069 0.0110672 -2.8242e-20)
(0.00476063 0.0103903 -4.39134e-21)
(0.0105751 0.00992415 -1.99688e-20)
(0.00841727 0.0099648 -1.0284e-20)
(0.01352 0.00757853 3.9702e-20)
(0.0115789 0.00836879 2.2216e-20)
(0.0152655 0.00425221 3.48967e-20)
(0.0138582 0.00573124 2.25156e-20)
(0.0154205 0.000409744 -4.98806e-21)
(0.014836 0.00235367 1.89311e-21)
(0.0139115 -0.00329244 -1.59101e-21)
(0.0142636 -0.00120371 -6.75187e-21)
(0.0109905 -0.00621229 3.62604e-21)
(0.0122109 -0.00434568 1.27425e-21)
(0.00720253 -0.00790696 8.66665e-22)
(0.00903619 -0.0065462 0)
(0.00529325 -0.00752218 1.12467e-23)
(0.00319605 -0.00824078 1.9911e-21)
(-0.00284805 0.0066508 3.77818e-21)
(-0.00343269 0.00499231 -2.69205e-20)
(-3.26474e-05 0.00850896 9.84586e-22)
(-0.00154947 0.00714498 -2.06286e-20)
(0.00334948 0.00938613 -3.77443e-21)
(0.00183178 0.00839433 -3.54379e-21)
(0.00673657 0.0094814 1.4029e-20)
(0.00488911 0.00888874 -3.88093e-21)
(0.009854 0.0085419 3.04843e-20)
(0.00803416 0.0085591 -2.01578e-21)
(0.0123169 0.00660306 3.72027e-21)
(0.010713 0.00724784 -2.82789e-21)
(0.0137395 0.00386487 -1.13772e-20)
(0.0126081 0.0050792 -9.03518e-21)
(0.013825 0.000713222 1.5428e-22)
(0.0133849 0.00231208 1.45401e-21)
(0.0125202 -0.00233234 -3.96409e-21)
(0.0128565 -0.000607578 -1.44988e-21)
(0.0100271 -0.00476548 -2.52128e-21)
(0.0110859 -0.00320302 -2.53365e-21)
(0.00678128 -0.00622395 -8.43841e-22)
(0.00836294 -0.00505716 2.10503e-22)
(0.0051327 -0.00593074 -7.2641e-22)
(0.00331243 -0.00657811 -2.90832e-21)
(-0.00195991 0.00566355 -5.15989e-20)
(-0.00259792 0.00418727 -4.14821e-21)
(0.000669347 0.00728222 -2.34311e-20)
(-0.000686738 0.00608554 6.00777e-21)
(0.0036527 0.00804141 -2.99043e-21)
(0.00230067 0.00716338 2.51567e-22)
(0.00659927 0.00815046 -2.0093e-20)
(0.00500532 0.00761872 -3.91863e-21)
(0.00928105 0.00740017 -3.67633e-20)
(0.00774088 0.00738609 1.06617e-20)
(0.0113648 0.00581679 -1.74605e-20)
(0.0100367 0.00633195 -3.50066e-20)
(0.0125348 0.00357325 3.87079e-21)
(0.0116305 0.00456526 1.90487e-20)
(0.0125594 0.000987988 0)
(0.0122497 0.00230559 1.33539e-20)
(0.0114061 -0.0015224 0)
(0.0117532 -9.05559e-05 -1.15479e-21)
(0.00924171 -0.00355237 2.1154e-22)
(0.0101999 -0.00223596 5.99453e-23)
(0.00642449 -0.0048065 2.63458e-22)
(0.00782938 -0.00379985 -1.85768e-22)
(0.00500607 -0.00457769 -6.77244e-22)