/*--------------------------------*- C++ -*----------------------------------*\
| =========                 |                                                 |
| \\      /  F ield         | OpenFOAM: The Open Source CFD Toolbox           |
|  \\    /   O peration     | Version:  v1606+                                |
|   \\  /    A nd           | Web:      www.OpenFOAM.com                      |
|    \\/     M anipulation  |                                                 |
\*---------------------------------------------------------------------------*/
FoamFile
{
    version     2.0;
    format      ascii;
    class       volScalarField;
    location    "1.58";
    object      nut.particles;
}
// * * * * * * * * * * * * * * * * * * * * * * * * * * * * * * * * * * * * * //

dimensions      [0 2 -1 0 0 0 0];

internalField   nonuniform List<scalar> 
6000
(
1.2477e-05
1.02291e-05
1.03267e-05
1.05981e-05
1.15317e-05
1.38758e-05
1.58682e-05
1.67976e-05
1.56908e-05
1.44188e-05
1.41169e-05
1.39912e-05
1.36844e-05
1.42204e-05
1.49486e-05
1.46215e-05
1.36532e-05
1.37497e-05
1.49104e-05
1.57201e-05
1.54888e-05
1.30247e-05
1.10862e-05
9.72888e-06
8.95758e-06
8.67001e-06
8.34196e-06
8.74172e-06
9.05574e-06
1.26046e-05
3.34029e-06
3.41024e-06
3.3531e-06
3.36363e-06
3.53226e-06
3.76324e-06
4.46434e-06
5.26777e-06
6.23664e-06
6.9415e-06
6.83471e-06
6.82366e-06
6.88154e-06
7.39e-06
7.92125e-06
7.73095e-06
7.01038e-06
6.81687e-06
6.24613e-06
6.42892e-06
5.76857e-06
4.46889e-06
3.96236e-06
3.7283e-06
3.76579e-06
4.06511e-06
4.39099e-06
4.86495e-06
5.30268e-06
5.75799e-06
5.97096e-06
5.73209e-06
5.61768e-06
4.54548e-06
4.09708e-06
3.96151e-06
3.76904e-06
3.78539e-06
4.7611e-06
6.54065e-06
8.21984e-06
8.84733e-06
8.96545e-06
9.38784e-06
9.61128e-06
9.41147e-06
8.95221e-06
8.67221e-06
6.54849e-06
4.86276e-06
4.47823e-06
5.14846e-06
5.49551e-06
5.85625e-06
6.6977e-06
7.85519e-06
9.47152e-06
1.16161e-05
1.09998e-05
1.14346e-05
1.39571e-05
1.26791e-05
9.5937e-06
6.22664e-06
4.55532e-06
3.74016e-06
3.16794e-06
3.19037e-06
3.29902e-06
3.81744e-06
5.04924e-06
7.1558e-06
8.41996e-06
9.03956e-06
9.3152e-06
9.37393e-06
8.58424e-06
7.96539e-06
4.9278e-06
3.56816e-06
3.50583e-06
5.07136e-06
7.7396e-06
1.03605e-05
1.33263e-05
1.57416e-05
1.82707e-05
1.89158e-05
1.68847e-05
1.565e-05
2.52569e-05
8.80554e-05
8.32329e-05
2.13578e-05
8.57029e-06
5.90878e-06
4.04937e-06
3.31202e-06
3.1741e-06
3.21485e-06
3.62218e-06
4.72396e-06
6.30867e-06
5.87419e-06
4.52074e-06
5.10857e-06
7.29787e-06
6.11879e-06
3.99982e-06
3.3366e-06
3.2816e-06
5.2109e-06
1.13869e-05
1.46363e-05
1.72679e-05
2.04857e-05
1.76345e-05
1.04731e-05
9.3976e-06
1.16084e-05
9.59695e-06
1.5697e-05
8.95523e-05
8.67084e-05
8.18759e-05
1.19541e-05
6.65732e-06
3.74701e-06
3.04288e-06
2.97758e-06
3.08836e-06
3.52554e-06
3.68973e-06
2.89745e-06
2.39925e-06
2.48365e-06
3.47488e-06
4.1325e-06
3.49968e-06
3.15311e-06
3.06071e-06
4.4721e-06
9.74147e-06
1.37187e-05
1.38552e-05
7.67609e-06
4.42271e-06
3.48791e-06
3.33758e-06
4.22556e-06
3.13072e-06
3.49838e-06
5.35983e-06
1.10473e-05
8.5578e-05
8.13943e-05
1.07885e-05
4.25067e-06
2.81198e-06
2.76685e-06
2.74279e-06
2.87285e-06
2.77484e-06
2.31737e-06
2.09502e-06
2.09427e-06
2.12622e-06
2.86908e-06
3.13198e-06
2.9342e-06
2.81907e-06
4.03733e-06
8.97106e-06
1.29825e-05
4.14669e-06
2.55463e-06
2.33397e-06
2.51897e-06
2.65719e-06
2.8223e-06
2.71798e-06
2.53396e-06
2.4396e-06
2.63636e-06
4.88811e-06
2.94214e-05
1.24343e-05
4.44796e-06
2.70083e-06
2.48978e-06
2.50726e-06
2.54187e-06
2.43456e-06
2.16585e-06
2.05725e-06
2.04643e-06
2.03835e-06
2.19973e-06
2.77126e-06
2.75954e-06
2.84723e-06
4.36865e-06
8.87778e-06
5.86607e-06
3.20107e-06
2.55089e-06
2.41012e-06
2.36892e-06
2.54971e-06
2.71418e-06
2.49118e-06
2.3164e-06
2.19897e-06
2.1289e-06
2.13304e-06
4.53434e-06
8.60828e-06
5.01043e-06
3.23473e-06
2.61525e-06
2.55329e-06
2.49913e-06
2.29541e-06
2.02869e-06
1.98292e-06
1.97764e-06
1.98607e-06
2.00902e-06
2.5006e-06
2.79831e-06
3.52289e-06
5.66914e-06
9.35236e-06
7.10769e-06
5.81095e-06
5.62594e-06
4.48632e-06
3.1496e-06
2.54323e-06
2.65333e-06
2.39961e-06
2.39484e-06
2.82104e-06
2.72249e-06
3.29342e-06
5.55751e-06
9.3433e-06
7.71707e-06
5.38558e-06
3.80296e-06
3.29888e-06
2.82742e-06
2.32549e-06
1.97588e-06
1.89851e-06
1.89309e-06
1.91019e-06
1.9454e-06
2.35021e-06
3.1522e-06
5.03381e-06
8.76509e-06
6.16935e-05
4.24629e-05
8.01491e-05
0.000338654
1.26195e-05
6.44422e-06
3.21016e-06
2.8123e-06
3.34813e-06
4.78872e-06
6.83976e-06
6.71269e-06
1.02109e-05
6.08124e-05
0.00133517
0.00066357
2.48407e-05
7.90825e-06
5.37014e-06
3.84495e-06
2.72633e-06
2.1647e-06
1.96175e-06
1.92473e-06
1.95504e-06
2.05126e-06
2.53395e-06
4.02594e-06
7.67011e-06
2.78262e-05
0.000508646
0.000701046
0.000703275
0.000705546
0.000704317
1.48631e-05
6.50318e-06
4.25615e-06
8.4289e-06
1.53718e-05
0.000644351
0.000351224
0.00428098
0.00728366
0.00732149
0.00729593
0.00515726
0.00064388
1.08172e-05
6.43458e-06
4.10068e-06
3.1155e-06
2.73014e-06
2.67189e-06
2.71604e-06
2.94163e-06
3.69704e-06
6.17077e-06
1.20279e-05
0.000390556
0.000610026
0.000703971
0.000712659
0.000713367
3.63075e-05
1.95807e-05
1.56806e-05
1.02958e-05
5.90362e-05
0.000678434
0.0041977
0.00671134
0.0073121
0.00733789
0.0073316
0.00733669
0.0073145
0.00717458
0.00149321
1.26102e-05
8.02017e-06
6.23857e-06
5.47756e-06
5.64878e-06
5.6987e-06
6.1111e-06
7.59947e-06
1.13875e-05
6.67258e-05
0.000670595
0.000704187
0.000716192
3.36444e-05
1.32498e-05
8.83701e-06
1.10233e-05
1.48685e-05
2.10241e-05
2.38537e-05
2.18617e-05
0.000889606
0.00729531
0.00733614
0.00732604
0.0073607
0.00732225
0.00733204
0.00730992
0.00723107
0.00135708
1.72226e-05
1.25245e-05
1.24922e-05
1.43933e-05
1.48616e-05
1.55668e-05
1.86393e-05
0.00021969
0.000673515
0.000678156
3.74763e-05
1.26587e-05
3.72506e-06
3.45481e-06
4.67363e-06
5.21734e-06
6.42421e-06
1.22156e-05
1.1845e-05
8.77208e-06
1.90658e-05
0.00719332
0.007261
0.00371316
0.000489619
0.00254649
0.00564278
0.00730134
0.00727402
0.00458967
0.000609734
0.000132099
0.000913013
0.000916776
0.000919263
0.000658665
7.67257e-05
3.53132e-05
2.98896e-05
1.60893e-05
4.71188e-06
1.67203e-06
1.48239e-06
2.26856e-06
3.68117e-06
3.91916e-06
3.9857e-06
5.28069e-06
6.35981e-06
4.63555e-06
7.29605e-06
2.3718e-05
2.32164e-05
1.17804e-05
9.93906e-06
1.99e-05
0.00164032
0.00534725
0.00721576
0.00708339
0.00267895
0.000829332
3.19981e-05
2.7187e-05
2.07198e-05
1.42456e-05
9.53601e-06
5.76526e-06
3.29642e-06
1.62571e-06
1.01603e-06
9.49133e-07
1.15412e-06
2.07426e-06
3.23587e-06
3.42798e-06
3.5007e-06
3.79424e-06
5.2727e-06
3.80564e-06
4.04814e-06
4.75679e-06
5.29858e-06
2.68506e-06
1.57709e-06
3.27763e-06
1.67681e-05
0.00273064
0.00713721
0.00702364
6.19718e-05
1.19359e-05
4.72345e-06
3.08758e-06
2.08888e-06
1.49801e-06
1.13969e-06
9.28114e-07
8.28236e-07
7.92713e-07
7.78685e-07
8.4207e-07
1.13939e-06
2.16595e-06
3.62362e-06
3.65704e-06
3.37812e-06
3.73886e-06
5.10765e-06
3.35211e-06
3.31297e-06
2.7637e-06
2.11547e-06
1.08688e-06
7.85267e-07
7.54881e-07
1.85856e-06
9.6809e-06
2.02073e-05
1.77792e-05
6.95018e-06
2.53959e-06
1.77303e-06
1.3627e-06
1.02776e-06
8.41411e-07
7.17317e-07
7.16373e-07
7.51521e-07
7.52065e-07
7.63549e-07
9.35087e-07
1.63145e-06
3.09746e-06
5.07626e-06
5.30766e-06
4.61045e-06
5.04709e-06
5.23628e-06
2.91891e-06
2.78369e-06
2.20761e-06
1.77688e-06
8.83695e-07
6.98156e-07
6.70528e-07
6.31014e-07
1.30303e-06
3.87959e-06
4.85249e-06
3.29967e-06
2.66783e-06
2.19204e-06
1.73036e-06
1.25172e-06
9.26859e-07
7.83074e-07
7.42266e-07
7.41528e-07
7.4432e-07
8.80761e-07
1.46099e-06
3.1798e-06
6.68691e-06
9.2841e-06
9.45672e-06
8.43207e-06
9.03737e-06
5.95072e-06
3.22614e-06
3.15409e-06
2.32333e-06
1.64871e-06
7.94974e-07
6.70744e-07
6.67484e-07
5.84369e-07
7.56696e-07
1.8113e-06
3.43239e-06
3.69482e-06
3.52664e-06
3.33465e-06
2.81265e-06
1.99892e-06
1.32755e-06
9.95895e-07
8.51202e-07
7.80089e-07
8.6947e-07
1.33381e-06
3.25422e-06
8.43193e-06
7.78172e-05
0.000299485
0.000322079
0.000179223
0.000317205
8.38832e-06
5.24748e-06
5.18917e-06
4.1289e-06
2.32252e-06
9.80513e-07
6.35243e-07
6.64709e-07
6.05568e-07
6.62439e-07
1.47298e-06
2.93094e-06
4.16062e-06
4.5809e-06
4.72614e-06
4.46727e-06
3.4517e-06
2.26693e-06
1.48181e-06
1.12827e-06
1.03578e-06
1.3311e-06
3.19216e-06
9.36538e-06
0.000291398
0.00109536
0.00173045
0.00210165
0.0022693
0.00332386
0.000182321
1.04936e-05
1.0736e-05
1.01541e-05
6.23355e-06
2.49154e-06
7.34131e-07
6.42544e-07
6.07344e-07
7.39055e-07
1.6254e-06
2.72096e-06
4.54135e-06
5.67456e-06
6.43869e-06
6.74758e-06
6.14034e-06
4.42765e-06
2.78952e-06
1.92945e-06
1.87752e-06
3.37606e-06
9.56999e-06
0.000469639
0.00234958
0.00334111
0.00420319
0.00492201
0.00563932
0.00704952
0.00286917
0.00160818
0.00188723
0.00151395
7.46333e-05
8.10933e-06
2.29594e-06
1.00758e-06
7.94439e-07
1.20546e-06
2.38962e-06
3.93859e-06
6.20315e-06
7.87683e-06
9.20859e-06
1.01548e-05
1.05115e-05
9.15184e-06
6.1124e-06
4.41409e-06
5.05352e-06
1.04104e-05
0.000505659
0.00527325
0.00761219
0.00862335
0.0087538
0.00949509
0.0102226
0.0109868
0.00332904
0.003326
0.00332917
0.00332333
0.00331735
0.000419867
1.36528e-05
4.66436e-06
1.96694e-06
3.32209e-06
5.6888e-06
8.84184e-06
1.14323e-05
1.31364e-05
2.63606e-05
4.63376e-05
5.20131e-05
2.17023e-05
1.28667e-05
1.12631e-05
1.51013e-05
0.000789445
0.00877894
0.0116185
0.0148513
0.0170923
0.0156934
0.0157574
0.0160946
0.0159379
0.00333035
0.00333561
0.00332464
0.00332017
0.00330541
0.000426493
7.19267e-05
2.9561e-05
9.9299e-06
1.14004e-05
2.63228e-05
0.000463781
0.000810661
0.000926797
0.000982932
0.00108397
0.00105089
0.000788483
0.000330621
0.000424813
0.0026924
0.0101032
0.0110365
0.0131919
0.0152031
0.0191576
0.0205586
0.0202191
0.0203393
0.0205645
0.00332856
0.00331144
3.60305e-05
1.33437e-05
1.24069e-05
1.29684e-05
1.7811e-05
3.02795e-05
0.00114317
0.00111368
0.00203235
0.00263931
0.00248147
0.00316287
0.0036338
0.00436971
0.00480656
0.00457505
0.00439054
0.00648662
0.00989078
0.00997308
0.00755176
0.0086051
0.00765874
0.00707249
0.0205008
0.0205991
0.0206028
0.020603
3.17621e-05
1.27836e-05
3.44615e-06
1.88734e-06
1.79034e-06
1.95984e-06
2.65809e-06
4.96321e-06
3.05339e-05
0.00154373
0.00263794
0.00263988
0.00235821
0.00368332
0.00639143
0.0082569
0.00959395
0.0097184
0.00974528
0.009789
0.00984289
0.00689036
0.00103257
3.50335e-05
2.19709e-05
3.49603e-05
0.0093277
0.0195129
0.0205937
0.0206041
7.67525e-06
2.02628e-06
1.32438e-06
1.27555e-06
1.28747e-06
1.37863e-06
1.50326e-06
1.78126e-06
3.04323e-06
1.19931e-05
2.84981e-05
4.88376e-05
0.00254987
0.00551708
0.00804293
0.00969715
0.00973359
0.00975322
0.00973987
0.00975133
0.00575013
6.84837e-05
1.33358e-05
4.41864e-06
3.31825e-06
5.69443e-06
1.54249e-05
0.00154365
0.0187851
0.0203927
4.21927e-06
1.64294e-06
1.46623e-06
1.31252e-06
1.27487e-06
1.29378e-06
1.35409e-06
1.47776e-06
1.61699e-06
2.02684e-06
3.0443e-06
5.47729e-06
1.42885e-05
4.0821e-05
0.00832667
0.00962704
0.00966254
0.0096899
0.00953512
0.0078198
0.000319337
8.43581e-06
2.17784e-06
1.82347e-06
1.7386e-06
1.80834e-06
2.43656e-06
8.11873e-06
2.37329e-05
4.2977e-05
4.62818e-06
1.88481e-06
1.7261e-06
1.56331e-06
1.51925e-06
1.51922e-06
1.55811e-06
1.60774e-06
1.67243e-06
1.70927e-06
1.7567e-06
1.85285e-06
2.48345e-06
6.35564e-06
2.25061e-05
0.000118353
0.000121835
2.98027e-05
2.28405e-05
6.97768e-05
1.04896e-05
2.16766e-06
1.81929e-06
1.71599e-06
1.66544e-06
1.66674e-06
1.67116e-06
1.86319e-06
3.21938e-06
1.29969e-05
5.20422e-06
2.15949e-06
1.98487e-06
1.85341e-06
1.85539e-06
1.90836e-06
1.98689e-06
2.05062e-06
2.06458e-06
1.95948e-06
1.90801e-06
2.05064e-06
2.6445e-06
4.12513e-06
7.06605e-06
1.09838e-05
9.51765e-06
7.55536e-06
6.58722e-06
5.64772e-06
2.69187e-06
2.21262e-06
2.00155e-06
1.87092e-06
1.79327e-06
1.69612e-06
1.61081e-06
1.60755e-06
1.43132e-06
7.44833e-06
5.81606e-06
2.51452e-06
2.39352e-06
2.28653e-06
2.33295e-06
2.48596e-06
2.6574e-06
2.78312e-06
2.80536e-06
2.67417e-06
2.62062e-06
3.03275e-06
4.27878e-06
6.14558e-06
6.74937e-06
4.71343e-06
2.89179e-06
2.0634e-06
1.71512e-06
1.68454e-06
2.05822e-06
2.3683e-06
2.37009e-06
2.23515e-06
2.05696e-06
1.80712e-06
1.56146e-06
1.48585e-06
1.36324e-06
5.65191e-06
6.8378e-06
3.10204e-06
2.97413e-06
3.05755e-06
3.2702e-06
3.5818e-06
3.87268e-06
4.07106e-06
4.08651e-06
3.98458e-06
4.2213e-06
5.45419e-06
8.46123e-06
9.94316e-06
6.58959e-06
2.54603e-06
1.55159e-06
1.3627e-06
1.20043e-06
1.18158e-06
1.67641e-06
2.29219e-06
2.57033e-06
2.62824e-06
2.38721e-06
1.93444e-06
1.50412e-06
1.3494e-06
1.29572e-06
4.65386e-06
8.71441e-06
4.10856e-06
4.04719e-06
4.30428e-06
4.77044e-06
5.42017e-06
6.02888e-06
6.25974e-06
6.28733e-06
6.30536e-06
7.1846e-06
1.03679e-05
1.47728e-05
1.15218e-05
3.72277e-06
1.31358e-06
1.07106e-06
1.2358e-06
1.22501e-06
1.15809e-06
1.31337e-06
1.86162e-06
2.42282e-06
2.88929e-06
2.83727e-06
2.12112e-06
1.48965e-06
1.23398e-06
1.19306e-06
3.95164e-06
1.10038e-05
5.67522e-06
5.76809e-06
6.31665e-06
7.14359e-06
7.95207e-06
8.73041e-06
9.20647e-06
9.37031e-06
9.82842e-06
1.18264e-05
1.71263e-05
1.75687e-05
5.54276e-06
1.37701e-06
9.09261e-07
9.23864e-07
1.07567e-06
1.15277e-06
1.1254e-06
1.10659e-06
1.28646e-06
1.79465e-06
2.9856e-06
3.79305e-06
2.58777e-06
1.61741e-06
1.19646e-06
1.09812e-06
3.361e-06
1.37306e-05
7.72052e-06
8.14467e-06
8.97657e-06
1.01218e-05
1.07842e-05
1.11726e-05
1.15459e-05
1.19128e-05
1.28581e-05
1.59056e-05
1.92497e-05
1.00266e-05
1.81113e-06
7.68447e-07
8.10526e-07
9.04623e-07
9.65645e-07
1.02441e-06
1.01769e-06
9.82747e-07
9.46145e-07
1.08737e-06
2.94862e-06
6.35993e-06
3.36402e-06
1.89745e-06
1.23834e-06
1.013e-06
3.12082e-06
1.6177e-05
9.85939e-06
1.10488e-05
1.27708e-05
4.28239e-05
3.98368e-05
1.88164e-05
1.24554e-05
1.25227e-05
1.33546e-05
2.29973e-05
1.54941e-05
3.84034e-06
8.59543e-07
6.85985e-07
7.90056e-07
8.89132e-07
9.27756e-07
9.51194e-07
9.46125e-07
9.04917e-07
8.63202e-07
8.65863e-07
3.49582e-06
9.40697e-06
3.84122e-06
2.19234e-06
1.37974e-06
1.10784e-06
3.81349e-06
2.36642e-05
1.16495e-05
8.30709e-05
0.000500655
0.00102669
0.000907933
0.000408244
5.48842e-05
1.16655e-05
1.20082e-05
2.23169e-05
8.27695e-06
1.38553e-06
6.28928e-07
6.80582e-07
7.82682e-07
8.76125e-07
9.12069e-07
9.13625e-07
9.05743e-07
8.71284e-07
8.37562e-07
9.93452e-07
7.03516e-06
7.88663e-06
3.63941e-06
2.36964e-06
1.69205e-06
1.53918e-06
4.97848e-06
0.000343751
0.000174211
0.00106134
0.00311992
0.00344001
0.00343708
0.00290453
0.00109822
4.8837e-05
9.93785e-06
9.56005e-06
2.86924e-06
7.12938e-07
5.91812e-07
7.10852e-07
7.94121e-07
8.69122e-07
9.08787e-07
8.98912e-07
8.7171e-07
8.43348e-07
8.13467e-07
1.39896e-06
1.28895e-05
4.71393e-06
3.24181e-06
2.45719e-06
2.20386e-06
2.47132e-06
6.30528e-06
0.000997952
0.00235426
0.00342273
0.00345145
0.00343939
0.00344341
0.00343962
0.00343278
0.00116149
1.54954e-05
4.85506e-06
1.28264e-06
5.72701e-07
5.86334e-07
7.23229e-07
8.29201e-07
8.70445e-07
8.87924e-07
8.63295e-07
8.32657e-07
8.09612e-07
7.81076e-07
1.68387e-06
1.05097e-05
3.72754e-06
3.29893e-06
2.78027e-06
2.954e-06
3.75981e-06
8.22159e-06
2.11002e-05
0.0034168
0.00346198
0.00342
0.000240163
0.0027626
0.00343628
0.00343773
0.00317465
0.000254766
3.66198e-06
1.05998e-06
5.54168e-07
6.01979e-07
7.37191e-07
8.02777e-07
8.21701e-07
8.31093e-07
7.99531e-07
7.74272e-07
7.34387e-07
6.99423e-07
2.41155e-06
1.06021e-05
4.14542e-06
4.73177e-06
3.9232e-06
4.17658e-06
5.22742e-06
1.09493e-05
1.93063e-05
0.00343682
0.0033929
1.92685e-05
5.36587e-06
1.20416e-05
0.000308933
0.00341867
0.00343176
0.0012149
6.49111e-06
1.53643e-06
6.21131e-07
6.46228e-07
7.35287e-07
7.62312e-07
7.59066e-07
7.36683e-07
7.06775e-07
6.77097e-07
6.24508e-07
7.70126e-07
4.77874e-06
8.30688e-06
6.30179e-06
7.33211e-06
6.07341e-06
5.93689e-06
6.44901e-06
1.34601e-05
1.95466e-05
0.00338454
1.56556e-05
1.67557e-06
7.73658e-07
1.1388e-06
4.23902e-06
2.69114e-05
0.00276501
0.00271658
3.70724e-05
3.75736e-06
9.02571e-07
6.98478e-07
7.25905e-07
7.76371e-07
8.34225e-07
8.53487e-07
7.80622e-07
7.13076e-07
7.25966e-07
1.2215e-06
7.88523e-06
0.000174595
0.000227027
0.000416834
8.22771e-05
1.50579e-05
4.22191e-05
0.00021245
2.04062e-05
0.000116031
3.28273e-06
6.31713e-07
5.83e-07
5.66611e-07
6.4733e-07
1.91243e-06
9.20493e-06
2.02187e-05
1.68993e-05
6.39753e-06
2.00092e-06
1.37193e-06
1.34539e-06
1.47069e-06
1.74248e-06
1.84352e-06
1.7532e-06
1.74658e-06
2.37056e-06
5.4448e-06
1.14488e-05
0.000521685
0.00119936
0.00215185
0.00151506
0.000797858
0.000676817
0.000585459
3.01987e-05
1.31208e-05
1.3479e-06
5.87115e-07
5.83726e-07
5.64112e-07
5.56549e-07
7.09569e-07
1.15065e-06
1.74362e-06
2.85066e-06
5.05199e-06
5.32733e-06
3.9298e-06
3.26078e-06
3.23294e-06
3.5635e-06
3.8304e-06
4.16214e-06
5.09526e-06
8.03508e-06
2.8784e-05
0.000649751
0.000646853
0.000979251
0.00294635
0.00295278
0.0029514
0.00188424
6.94557e-05
0.000361494
1.34128e-05
1.07344e-06
5.82326e-07
5.84727e-07
5.66532e-07
5.56576e-07
6.99871e-07
9.50917e-07
8.55757e-07
8.19095e-07
1.46484e-06
3.05936e-06
3.19096e-06
2.97601e-06
2.88098e-06
2.90834e-06
3.03851e-06
3.29522e-06
3.95318e-06
4.58873e-06
7.29895e-06
1.16373e-05
1.242e-05
1.24213e-05
2.46164e-05
0.00105175
0.00295183
0.00294795
3.66775e-05
0.000535436
1.23211e-05
8.05751e-07
5.59929e-07
5.71025e-07
5.54802e-07
5.48142e-07
6.99936e-07
9.77155e-07
9.02778e-07
7.10444e-07
8.0685e-07
1.06546e-06
1.29938e-06
1.42468e-06
1.46508e-06
1.46707e-06
1.45876e-06
1.44246e-06
1.41691e-06
1.20181e-06
9.49789e-07
9.46829e-07
9.61366e-07
8.54245e-07
1.54967e-06
7.86406e-06
0.000737913
0.00294454
2.63925e-05
0.000220293
4.61622e-06
5.90695e-07
5.35193e-07
5.60963e-07
5.44794e-07
5.31707e-07
6.70991e-07
9.50139e-07
9.08361e-07
7.0549e-07
7.53805e-07
8.06429e-07
8.51824e-07
8.88136e-07
9.01709e-07
8.93556e-07
8.73656e-07
8.45441e-07
7.95624e-07
7.20219e-07
6.44088e-07
5.85961e-07
5.34667e-07
4.9426e-07
4.85e-07
9.06382e-07
8.07489e-06
0.00193936
1.79718e-05
2.39558e-05
2.19043e-06
5.32343e-07
5.12378e-07
5.38002e-07
5.29541e-07
5.2388e-07
6.8648e-07
9.42281e-07
8.9606e-07
7.00265e-07
7.43514e-07
7.84657e-07
7.96521e-07
8.01673e-07
8.06245e-07
7.98253e-07
7.76544e-07
7.52691e-07
7.16788e-07
6.7072e-07
6.21927e-07
5.74046e-07
5.27664e-07
4.93015e-07
4.62628e-07
4.64015e-07
1.30559e-06
1.36427e-05
1.54307e-05
1.69133e-05
1.85794e-06
5.11522e-07
4.9184e-07
5.20448e-07
5.22885e-07
5.43953e-07
7.18915e-07
9.42297e-07
8.95053e-07
6.98276e-07
7.32319e-07
7.78886e-07
7.93736e-07
7.93341e-07
7.94096e-07
7.83086e-07
7.58749e-07
7.33664e-07
7.01719e-07
6.61668e-07
6.16285e-07
5.69106e-07
5.31887e-07
5.03716e-07
4.77954e-07
4.54484e-07
6.69553e-07
4.49527e-06
1.63815e-05
1.30469e-05
1.97855e-06
5.5806e-07
4.8852e-07
5.12913e-07
5.18309e-07
5.68876e-07
7.91264e-07
1.00381e-06
9.04698e-07
6.88667e-07
7.27406e-07
7.74987e-07
7.91742e-07
7.90707e-07
7.83311e-07
7.71302e-07
7.48688e-07
7.16089e-07
6.8212e-07
6.4534e-07
6.06085e-07
5.67356e-07
5.31518e-07
5.02177e-07
4.77708e-07
4.82678e-07
6.73764e-07
2.71635e-06
1.87973e-05
1.12364e-05
2.2747e-06
6.69654e-07
5.02255e-07
5.17163e-07
5.32881e-07
6.21023e-07
8.54971e-07
1.03363e-06
8.92289e-07
6.75634e-07
7.21336e-07
7.7167e-07
7.88068e-07
7.88518e-07
7.75649e-07
7.5788e-07
7.35229e-07
7.04218e-07
6.70391e-07
6.36369e-07
5.98168e-07
5.60976e-07
5.31264e-07
5.08018e-07
4.97338e-07
4.95772e-07
7.90687e-07
2.78741e-06
1.78526e-05
1.19238e-05
2.3424e-06
7.38569e-07
5.35403e-07
5.42764e-07
5.64813e-07
6.91531e-07
8.92819e-07
1.05837e-06
8.4975e-07
6.68937e-07
7.15838e-07
7.61575e-07
7.8054e-07
7.84035e-07
7.70953e-07
7.44424e-07
7.20747e-07
6.92988e-07
6.59601e-07
6.27175e-07
5.93411e-07
5.62509e-07
5.38399e-07
5.20217e-07
5.11342e-07
5.41248e-07
9.14741e-07
2.6175e-06
1.75085e-05
1.27421e-05
2.1933e-06
7.69996e-07
5.84422e-07
5.79559e-07
6.12788e-07
7.62413e-07
9.5528e-07
1.08365e-06
7.81862e-07
6.64057e-07
7.15368e-07
7.5061e-07
7.64714e-07
7.68181e-07
7.61175e-07
7.36277e-07
7.08229e-07
6.82156e-07
6.50932e-07
6.19763e-07
5.89557e-07
5.6427e-07
5.44847e-07
5.31835e-07
5.37348e-07
5.81907e-07
1.17161e-06
2.85113e-06
1.62009e-05
1.3677e-05
2.24418e-06
8.56329e-07
6.42836e-07
6.24846e-07
6.72968e-07
8.27353e-07
1.0903e-06
1.135e-06
7.14205e-07
6.58505e-07
7.10825e-07
7.42709e-07
7.513e-07
7.51825e-07
7.44425e-07
7.25564e-07
6.99074e-07
6.68573e-07
6.41606e-07
6.13163e-07
5.87508e-07
5.67284e-07
5.52438e-07
5.47658e-07
5.70731e-07
6.54307e-07
1.53063e-06
2.89072e-06
1.44371e-05
1.56109e-05
2.57968e-06
9.44507e-07
7.0365e-07
6.82588e-07
7.32433e-07
9.14789e-07
1.28892e-06
1.06114e-06
6.58739e-07
6.5693e-07
7.06932e-07
7.33309e-07
7.42197e-07
7.43165e-07
7.29625e-07
7.08636e-07
6.86091e-07
6.57577e-07
6.31845e-07
6.08478e-07
5.87194e-07
5.70653e-07
5.60579e-07
5.67674e-07
6.09598e-07
8.58991e-07
2.1148e-06
3.06112e-06
1.32879e-05
1.47609e-05
2.29175e-06
1.04735e-06
7.72957e-07
7.31239e-07
7.73301e-07
1.08711e-06
1.41298e-06
9.17448e-07
6.28412e-07
6.53373e-07
6.9727e-07
7.19465e-07
7.28225e-07
7.29043e-07
7.18729e-07
6.96795e-07
6.72429e-07
6.49713e-07
6.26411e-07
6.06475e-07
5.88285e-07
5.75669e-07
5.73136e-07
5.93893e-07
6.61496e-07
1.15896e-06
3.00961e-06
3.98375e-06
6.48687e-05
6.67995e-06
1.87565e-06
1.19987e-06
9.62382e-07
8.86609e-07
9.73593e-07
1.38437e-06
1.46007e-06
7.46387e-07
6.16118e-07
6.51478e-07
6.8586e-07
7.03295e-07
7.11292e-07
7.1243e-07
7.01937e-07
6.85881e-07
6.6438e-07
6.414e-07
6.22386e-07
6.03567e-07
5.89676e-07
5.83921e-07
5.91125e-07
6.30849e-07
7.27344e-07
1.57868e-06
4.34787e-06
1.46963e-05
0.00102977
3.25232e-06
1.80736e-06
1.59162e-06
1.29839e-06
1.174e-06
1.31361e-06
1.70557e-06
1.21196e-06
6.35229e-07
6.04919e-07
6.44339e-07
6.72225e-07
6.88535e-07
6.9688e-07
6.97619e-07
6.86683e-07
6.71615e-07
6.51717e-07
6.34085e-07
6.16462e-07
6.02512e-07
5.95547e-07
5.97589e-07
6.1786e-07
6.76119e-07
8.7111e-07
2.04771e-06
1.99469e-05
0.00065637
0.00108709
2.69824e-06
2.04931e-06
1.96983e-06
1.80118e-06
1.70934e-06
1.88858e-06
1.71274e-06
8.16159e-07
5.80686e-07
5.96872e-07
6.30703e-07
6.55101e-07
6.72121e-07
6.79534e-07
6.78661e-07
6.71441e-07
6.59221e-07
6.42325e-07
6.27521e-07
6.15075e-07
6.06831e-07
6.07449e-07
6.18081e-07
6.51924e-07
7.16803e-07
1.08651e-06
2.78535e-06
0.000344165
0.00104806
0.00108672
2.50483e-06
2.22139e-06
2.56918e-06
2.68159e-06
2.9575e-06
3.3677e-06
1.48096e-06
6.24846e-07
5.54099e-07
5.87189e-07
6.12969e-07
6.39033e-07
6.56733e-07
6.61124e-07
6.60429e-07
6.57743e-07
6.46862e-07
6.34008e-07
6.23529e-07
6.16278e-07
6.14183e-07
6.21566e-07
6.42057e-07
6.91345e-07
8.03861e-07
1.36156e-06
3.78767e-06
0.000776021
0.00098419
0.00108611
3.00628e-06
2.96563e-06
3.64436e-06
4.43457e-06
5.8581e-06
7.41036e-06
1.80795e-06
5.97989e-07
5.33207e-07
5.78584e-07
6.01873e-07
6.2601e-07
6.41032e-07
6.43517e-07
6.45767e-07
6.44314e-07
6.36431e-07
6.27912e-07
6.21425e-07
6.19355e-07
6.23907e-07
6.40536e-07
6.74938e-07
7.39906e-07
9.30322e-07
1.70051e-06
4.76016e-06
0.000591944
0.000285079
0.000627266
5.64075e-06
5.12766e-06
6.69865e-06
8.41138e-06
2.45306e-05
1.11154e-05
4.41458e-06
8.80174e-07
5.04844e-07
5.62091e-07
6.03309e-07
6.19631e-07
6.22256e-07
6.29255e-07
6.3381e-07
6.31823e-07
6.2779e-07
6.23455e-07
6.21452e-07
6.24776e-07
6.37627e-07
6.65481e-07
7.16162e-07
7.94943e-07
1.10963e-06
2.22601e-06
6.28549e-06
0.000282086
0.000285925
0.0011559
0.000134345
8.55522e-05
0.000419654
0.000644058
0.00033582
3.66354e-05
6.79002e-06
1.58033e-06
5.55536e-07
5.3881e-07
5.87041e-07
6.1162e-07
6.12425e-07
6.14287e-07
6.22383e-07
6.21635e-07
6.20933e-07
6.21224e-07
6.24091e-07
6.33315e-07
6.5585e-07
6.97514e-07
7.64697e-07
9.17174e-07
1.40056e-06
3.16471e-06
4.67585e-05
0.000394297
0.000817282
0.00258807
0.00227577
0.00217419
0.00212817
0.00150589
0.000938512
0.000245733
8.86756e-06
2.34218e-06
7.13992e-07
5.589e-07
5.64362e-07
5.8704e-07
6.08262e-07
6.00572e-07
6.07551e-07
6.15123e-07
6.16603e-07
6.22638e-07
6.30535e-07
6.46438e-07
6.79598e-07
7.36703e-07
8.16239e-07
1.09131e-06
1.84803e-06
4.5862e-06
0.000333876
0.000825202
0.00189579
0.00294882
0.00227732
0.00160544
0.00107015
0.000519615
0.000563853
0.000275342
8.90825e-06
2.51214e-06
9.15313e-07
6.48433e-07
5.73096e-07
5.64353e-07
5.97687e-07
5.98404e-07
5.98574e-07
6.13545e-07
6.18764e-07
6.29773e-07
6.44131e-07
6.67707e-07
7.11158e-07
7.8012e-07
9.26288e-07
1.34633e-06
2.49793e-06
6.40354e-06
0.000658135
0.00127567
0.00220943
0.00297047
0.00155083
0.000350404
0.000243784
0.000213793
0.000212325
0.000210674
1.10006e-05
3.87584e-06
1.42448e-06
7.9151e-07
6.26841e-07
5.90557e-07
6.06111e-07
6.07469e-07
6.03118e-07
6.19402e-07
6.31046e-07
6.42481e-07
6.62018e-07
6.95514e-07
7.48119e-07
8.30405e-07
1.10426e-06
1.75441e-06
3.50196e-06
8.72042e-06
0.000771116
0.00138175
0.00222022
0.00298199
0.000435862
0.000352739
0.000543146
0.000958412
0.0010908
0.00107823
0.000330721
8.48255e-06
2.94058e-06
1.27792e-06
8.47499e-07
7.2208e-07
6.88261e-07
6.75179e-07
6.63982e-07
6.75701e-07
6.87386e-07
6.99529e-07
7.15927e-07
7.47178e-07
8.10707e-07
1.00505e-06
1.52136e-06
2.71377e-06
5.82273e-06
2.24803e-05
0.000833594
0.00135034
0.00219707
0.00298796
0.000999188
0.00250571
0.00452155
0.00451931
0.00425278
0.00272704
0.000970838
1.49969e-05
7.28706e-06
3.3548e-06
1.81396e-06
1.24058e-06
1.0191e-06
9.27967e-07
8.9283e-07
8.81447e-07
8.86338e-07
8.97156e-07
9.23126e-07
1.04038e-06
1.31712e-06
1.98084e-06
3.57805e-06
7.07723e-06
1.28426e-05
0.000419857
0.000885518
0.00129789
0.00185368
0.00298562
0.00435784
0.00521135
0.00521685
0.00406772
0.00301096
0.00164513
0.000462722
0.000115331
1.70588e-05
1.05578e-05
5.84509e-06
3.45717e-06
2.39704e-06
1.92244e-06
1.69332e-06
1.59609e-06
1.59502e-06
1.67482e-06
1.92169e-06
2.52461e-06
4.05672e-06
7.65147e-06
1.35406e-05
0.000243693
0.00113228
0.00131028
0.00113734
0.00127177
0.0012794
0.00299352
0.00621218
0.00523315
0.00235322
0.00203163
0.00173281
0.00142386
0.00110122
0.00191326
0.00251142
0.000834011
3.08966e-05
1.16403e-05
7.63763e-06
5.53266e-06
4.52756e-06
4.11462e-06
4.1053e-06
4.47819e-06
5.50802e-06
7.83194e-06
1.2454e-05
0.00010357
0.0010896
0.00273421
0.00469293
0.00470544
0.00329417
0.00209427
0.00128396
0.00195586
0.00551257
0.00113855
0.00113693
0.00194456
0.0035881
0.00515824
0.00839662
0.013988
0.014624
0.0109544
0.00687341
0.00234119
0.000286455
1.72195e-05
1.36795e-05
1.21213e-05
1.18806e-05
1.2858e-05
1.52535e-05
4.98328e-05
0.000374695
0.000977432
0.00214086
0.00442984
0.00776665
0.0100636
0.00919821
0.00606902
0.00235039
0.00127916
0.00113517
0.00113474
0.00171456
0.00665387
0.0161109
0.0248759
0.0329563
0.0341499
0.0278136
0.0223932
0.0196908
0.0167527
0.0118897
0.00614865
0.00268239
0.00133265
0.000955625
0.00108615
0.00162738
0.00226771
0.00243968
0.00254909
0.00350153
0.00585758
0.00949214
0.0132058
0.0149415
0.0133621
0.00697462
0.00171564
0.000654427
0.00151912
0.00923729
0.0303741
0.0472472
0.0542351
0.0501453
0.0377569
0.0276982
0.0224326
0.020463
0.019862
0.0191046
0.0165388
0.0128699
0.009712
0.00771721
0.00676427
0.00650774
0.00638704
0.0058658
0.00534963
0.00586528
0.00787891
0.0111756
0.0148529
0.0176674
0.0185449
0.0138414
0.00360586
0.000721485
0.00920978
0.042208
0.0660294
0.0664289
0.0586867
0.0417268
0.0272054
0.0198764
0.0177652
0.0177682
0.0184786
0.0188637
0.018909
0.017543
0.0154624
0.0135303
0.0121872
0.0114664
0.0110053
0.0102948
0.00948179
0.00948168
0.0108848
0.0135372
0.0166298
0.0192353
0.0206263
0.0177896
0.00672807
0.00352094
0.0423355
0.0683156
0.0688645
0.0662057
0.03471
0.0137348
0.00688258
0.00583788
0.00813506
0.011689
0.0154197
0.0181008
0.0196759
0.019972
0.0192312
0.0181083
0.0171193
0.0164687
0.0159814
0.0152856
0.014416
0.0140586
0.0148535
0.0167681
0.019111
0.0210617
0.0218964
0.0192637
0.00931416
0.0230241
0.0684801
0.0691584
0.0680446
0.0260896
0.00308327
0.000390817
0.000152402
0.000265535
0.00170129
0.00579885
0.0119267
0.0170954
0.0202857
0.0218571
0.0222813
0.0220844
0.0216924
0.0213389
0.0209733
0.0203947
0.0196286
0.0191456
0.0194977
0.0207596
0.0224031
0.0236466
0.0236356
0.02035
0.0110754
0.0552649
0.06924
0.0684262
0.0258975
0.000647522
1.50175e-05
1.35473e-05
1.3163e-05
1.46821e-05
0.000224435
0.00308758
0.010147
0.0170998
0.0212845
0.023711
0.0249732
0.0255444
0.0257595
0.0258108
0.0257123
0.0253771
0.0248363
0.0244043
0.0245094
0.0252972
0.0264047
0.0271043
0.0263007
0.0219495
0.0125845
0.0693381
0.0688719
0.0314031
0.000646159
1.18185e-05
1.04576e-05
1.07633e-05
1.13172e-05
1.28817e-05
7.05068e-05
0.00317844
0.0110686
0.0184695
0.023154
0.0259034
0.0276118
0.0287057
0.0294194
0.0298852
0.0301286
0.0301195
0.0298833
0.0296208
0.029652
0.0301575
0.0309367
0.0313538
0.0300293
0.0245132
0.0143596
0.0689377
0.0317717
0.000889092
1.21175e-05
9.53611e-06
9.44419e-06
1.02166e-05
1.05339e-05
1.2357e-05
9.25385e-05
0.00449836
0.0144559
0.0219002
0.0260522
0.0285957
0.0304291
0.0318147
0.0328782
0.0336928
0.0342735
0.0346018
0.0346905
0.0346607
0.0347388
0.0351163
0.0357539
0.0361771
0.0347716
0.0283183
0.0168847
0.0318704
0.00108215
1.08684e-05
8.6063e-06
9.50131e-06
9.91327e-06
1.15171e-05
1.13537e-05
1.35237e-05
0.000393724
0.00954884
0.021017
0.0267549
0.0296012
0.0316896
0.0334737
0.0349902
0.0362743
0.0373511
0.0382162
0.038848
0.0392423
0.0394612
0.0396512
0.039987
0.0405748
0.041204
0.0402427
0.0334753
0.0206752
0.0031082
1.07429e-05
7.98352e-06
7.91479e-06
9.8527e-06
1.35486e-05
1.52262e-05
1.64318e-05
0.00013895
0.00421573
0.0208304
0.0291265
0.0316251
0.0332198
0.0349419
0.0366478
0.0382233
0.0396503
0.04092
0.0420122
0.0428997
0.0435641
0.0440237
0.0443558
0.0446878
0.0452061
0.0460246
0.045866
0.0397513
0.0261862
0.000193137
7.20819e-06
7.63732e-06
7.75694e-06
1.18212e-05
7.99059e-05
0.00171207
0.00273077
0.00465194
0.0197234
0.0332802
0.0351871
0.0353901
0.0364846
0.0381026
0.0398031
0.0414444
0.04299
0.0444146
0.0456916
0.0467933
0.0476942
0.0483843
0.0488857
0.0492573
0.0496647
0.0504685
0.051031
0.0464528
0.0334588
8.12558e-05
8.91414e-06
9.5916e-06
9.95034e-06
0.000193098
0.00599971
0.014162
0.0169791
0.0241071
0.0362561
0.0387344
0.0379881
0.0379915
0.0392718
0.0410299
0.0428365
0.044592
0.0462649
0.0478296
0.0492651
0.0505506
0.0516624
0.052578
0.0532846
0.0537776
0.0541289
0.0547377
0.0555993
0.0528156
0.0418326
0.000153777
1.48422e-05