/*--------------------------------*- C++ -*----------------------------------*\
| =========                 |                                                 |
| \\      /  F ield         | OpenFOAM: The Open Source CFD Toolbox           |
|  \\    /   O peration     | Version:  v1606+                                |
|   \\  /    A nd           | Web:      www.OpenFOAM.com                      |
|    \\/     M anipulation  |                                                 |
\*---------------------------------------------------------------------------*/
FoamFile
{
    version     2.0;
    format      ascii;
    class       volScalarField;
    location    "1.58";
    object      p_rgh;
}
// * * * * * * * * * * * * * * * * * * * * * * * * * * * * * * * * * * * * * //

dimensions      [1 -1 -2 0 0 0 0];

internalField   nonuniform List<scalar> 
6000
(
107871
107869
107864
107856
107848
107843
107840
107838
107839
107841
107844
107847
107848
107850
107850
107846
107839
107832
107825
107822
107820
107821
107827
107836
107845
107855
107862
107868
107871
107874
107858
107855
107848
107838
107827
107816
107807
107801
107801
107805
107808
107812
107813
107814
107813
107809
107803
107797
107786
107782
107783
107791
107804
107818
107830
107840
107846
107850
107850
107852
107897
107893
107883
107862
107843
107825
107806
107793
107791
107798
107807
107815
107816
107814
107810
107809
107807
107803
107783
107768
107770
107795
107821
107844
107861
107872
107877
107878
107873
107873
107929
107930
107918
107892
107865
107838
107809
107791
107779
107777
107786
107801
107806
107800
107791
107792
107796
107795
107767
107750
107756
107795
107843
107874
107889
107890
107882
107866
107855
107856
107914
107930
107939
107938
107913
107883
107837
107798
107779
107769
107768
107778
107786
107768
107741
107748
107778
107777
107753
107745
107750
107798
107868
107887
107883
107869
107841
107801
107790
107807
107831
107868
107914
107932
107948
107941
107892
107817
107781
107770
107764
107764
107756
107727
107704
107704
107732
107753
107747
107745
107749
107797
107870
107887
107863
107805
107757
107733
107725
107741
107752
107765
107806
107869
107939
107960
107947
107844
107786
107776
107767
107762
107748
107720
107704
107701
107701
107732
107747
107749
107753
107805
107882
107897
107793
107743
107729
107727
107725
107723
107763
107762
107761
107769
107837
107962
107969
107874
107804
107785
107778
107769
107752
107725
107713
107710
107708
107715
107747
107757
107772
107837
107907
107863
107803
107778
107762
107740
107735
107733
107776
107777
107779
107779
107784
107879
107963
107917
107857
107818
107804
107789
107763
107732
107722
107719
107717
107715
107748
107774
107818
107890
107945
107910
107892
107895
107859
107793
107745
107742
107792
107804
107838
107838
107866
107935
108010
107995
107952
107897
107865
107830
107785
107746
107733
107729
107726
107724
107754
107806
107884
107956
107993
107987
107994
108011
107985
107898
107785
107758
107852
107916
107980
107976
108027
108063
108089
108088
108069
108016
107960
107900
107831
107780
107757
107751
107747
107746
107777
107854
107950
108010
108015
108010
108010
108014
108020
107982
107884
107822
107982
108063
108101
108087
108109
108108
108104
108111
108121
108112
108066
107994
107912
107856
107828
107822
107815
107814
107843
107920
108005
108029
108005
107991
107986
107981
107954
107959
107965
107935
108063
108079
108094
108095
108087
108079
108076
108085
108105
108130
108134
108090
108021
107973
107951
107957
107946
107940
107956
107998
108030
108014
107980
107953
107886
107804
107785
107844
107906
107978
107986
107963
108028
108058
108048
108035
108027
108043
108071
108104
108136
108140
108104
108073
108075
108092
108080
108062
108053
108047
108019
107980
107895
107699
107545
107590
107692
107735
107778
107878
107847
107778
107891
108026
108004
107967
107926
107974
108027
108073
108110
108132
108117
108103
108128
108116
108096
108066
108005
107957
107891
107752
107523
107367
107397
107551
107693
107720
107726
107759
107739
107665
107728
107891
107878
107716
107633
107821
107972
108041
108087
108115
108110
108088
108010
107953
107881
107792
107704
107596
107474
107336
107265
107282
107397
107588
107724
107739
107741
107742
107728
107649
107647
107654
107607
107385
107227
107411
107794
108016
108073
108104
108038
107846
107685
107595
107507
107416
107331
107262
107224
107216
107230
107306
107459
107663
107803
107798
107769
107783
107763
107657
107648
107601
107493
107203
107042
107068
107339
107717
107913
107941
107784
107610
107543
107492
107424
107341
107258
107215
107217
107221
107266
107404
107609
107803
107922
107919
107870
107889
107829
107673
107668
107617
107521
107167
107012
107010
107073
107336
107615
107713
107679
107653
107632
107591
107509
107403
107301
107236
107222
107245
107365
107582
107823
108006
108069
108061
108024
108038
107920
107746
107757
107687
107565
107183
107014
107013
107013
107221
107516
107695
107746
107763
107774
107748
107661
107531
107397
107299
107261
107333
107544
107834
108071
108160
108164
108156
108143
108152
108042
107911
107924
107877
107705
107331
107039
107015
107014
107197
107519
107725
107831
107873
107896
107897
107834
107704
107543
107418
107380
107515
107817
108106
108216
108210
108196
108187
108183
108189
108162
108100
108115
108111
107990
107654
107182
107060
107037
107228
107573
107762
107907
107969
108006
108027
108010
107914
107746
107608
107600
107808
108113
108261
108249
108220
108201
108189
108185
108187
108228
108219
108230
108240
108206
108024
107579
107270
107170
107395
107707
107887
108021
108080
108117
108143
108156
108121
107986
107869
107914
108125
108290
108287
108246
108213
108190
108178
108173
108172
108227
108228
108229
108238
108267
108263
108075
107744
107503
107737
107979
108115
108179
108202
108217
108231
108244
108245
108182
108134
108204
108305
108302
108248
108209
108183
108164
108156
108153
108152
108216
108212
108199
108186
108200
108181
108200
108155
107999
108125
108261
108295
108287
108278
108273
108276
108279
108281
108271
108279
108302
108282
108219
108169
108134
108121
108120
108121
108124
108127
108206
108190
108006
107693
107651
107656
107768
107944
108290
108304
108306
108296
108280
108278
108276
108277
108277
108273
108268
108263
108236
108178
108106
108054
108018
108015
108062
108078
108090
108098
108022
107750
107348
107147
107117
107127
107207
107387
107886
108215
108240
108240
108234
108243
108255
108253
108245
108232
108214
108186
108142
108069
107953
107728
107605
107764
107982
108034
108058
108075
107569
107291
107130
107070
107047
107045
107044
107080
107245
107616
107884
108068
108199
108218
108226
108214
108191
108167
108141
108111
108051
107862
107391
107097
107022
107180
107495
107937
108029
108062
107489
107285
107206
107139
107109
107093
107080
107075
107068
107114
107218
107382
107645
107986
108200
108170
108128
108092
108066
108044
107921
107263
106896
106851
106853
106885
106984
107318
107664
107870
107571
107365
107306
107245
107222
107207
107190
107162
107127
107089
107069
107060
107142
107416
107779
107999
107937
107856
107815
107863
107351
106903
106856
106860
106875
106892
106898
106940
107059
107498
107660
107449
107398
107356
107350
107352
107347
107324
107278
107202
107146
107135
107181
107285
107393
107457
107369
107265
107199
107150
106957
106919
106918
106931
106949
106942
106913
106907
106836
107372
107754
107544
107510
107489
107498
107519
107530
107515
107474
107402
107346
107355
107420
107445
107337
107087
106817
106679
106615
106649
106829
106957
107014
107043
107057
107022
106937
106896
106844
107310
107871
107666
107644
107658
107690
107727
107746
107736
107695
107635
107612
107659
107733
107630
107309
106801
106478
106412
106390
106457
106711
106941
107063
107142
107172
107112
106973
106889
106855
107273
108010
107823
107818
107852
107900
107948
107976
107963
107925
107880
107883
107951
107933
107654
107062
106480
106265
106286
106317
106365
106556
106821
107031
107203
107296
107224
107036
106897
106867
107259
108137
107996
108010
108056
108108
108139
108155
108146
108116
108091
108104
108133
107956
107371
106616
106231
106135
106183
106249
106282
106385
106590
106859
107221
107464
107392
107148
106938
106880
107267
108244
108156
108189
108234
108276
108282
108268
108248
108223
108208
108211
108151
107769
106910
106302
106110
106063
106097
106161
106188
106230
106341
106571
107172
107705
107592
107286
107013
106895
107325
108322
108279
108335
108375
108400
108383
108343
108295
108257
108239
108228
108100
107431
106545
106172
106063
106031
106045
106080
106102
106118
106169
106386
107151
107914
107726
107401
107121
107002
107502
108405
108368
108441
108490
108505
108485
108438
108354
108266
108233
108239
107911
106993
106330
106116
106041
106026
106028
106037
106048
106057
106092
106383
107449
107999
107773
107483
107286
107255
107707
108500
108473
108530
108562
108551
108539
108521
108466
108341
108222
108128
107534
106639
106224
106079
106029
106026
106027
106029
106030
106035
106076
106520
107909
108043
107780
107568
107496
107595
107897
108547
108579
108579
108559
108538
108532
108532
108527
108472
108318
107970
107177
106459
106157
106052
106024
106026
106028
106029
106031
106032
106083
106673
108166
108035
107863
107721
107737
107902
108090
108358
108599
108577
108541
108397
108505
108534
108543
108543
108438
107958
107065
106395
106127
106041
106024
106026
106028
106030
106032
106034
106121
106944
108355
108139
108127
107985
108001
108142
108259
108352
108607
108573
108051
107209
107743
108438
108562
108579
108543
108207
107216
106417
106127
106054
106049
106066
106078
106078
106074
106089
106291
107605
108406
108345
108386
108271
108251
108314
108393
108362
108624
108056
106666
106223
106410
107107
108158
108602
108617
108464
107509
106579
106244
106185
106211
106272
106311
106309
106302
106379
106780
108165
108536
108538
108560
108505
108462
108490
108542
108390
108515
107390
106201
106066
106116
106348
106864
107526
107993
107994
107520
106906
106616
106553
106596
106703
106770
106788
106828
107050
107729
108464
108613
108641
108669
108657
108633
108631
108628
108513
108476
107074
106130
106069
106101
106293
106594
106842
106830
106859
107126
107139
106982
106896
106917
107021
107092
107145
107262
107574
108370
108657
108642
108657
108717
108727
108736
108722
108584
108668
108535
106958
106118
106072
106102
106293
106629
106882
106620
106280
106478
106840
106869
106840
106843
106894
106935
106980
107073
107201
107484
107755
107849
107871
108366
108712
108778
108788
108600
108750
108435
106720
106097
106075
106105
106289
106650
106950
106703
106214
106116
106313
106437
106487
106496
106493
106491
106502
106515
106447
106351
106358
106374
106375
106649
107787
108751
108834
108620
108765
108061
106489
106081
106078
106131
106302
106666
106969
106745
106238
106056
106057
106102
106138
106150
106141
106131
106127
106115
106079
106056
106072
106102
106145
106236
106649
107988
108862
108480
108558
107852
106415
106084
106085
106176
106349
106710
106988
106762
106261
106053
106017
106016
106023
106028
106027
106023
106021
106023
106027
106041
106072
106114
106175
106240
106378
107193
108595
108429
108498
107854
106430
106102
106118
106230
106425
106779
107013
106779
106270
106056
106016
106015
106014
106014
106014
106013
106013
106020
106035
106060
106096
106149
106220
106298
106401
106953
108262
108484
108457
107986
106574
106171
106185
106296
106518
106878
107075
106794
106262
106060
106019
106016
106016
106015
106015
106016
106019
106030
106055
106088
106132
106191
106266
106356
106496
107019
108163
108627
108471
108125
106777
106289
106286
106384
106631
106977
107107
106780
106237
106062
106023
106017
106017
106017
106019
106026
106035
106052
106084
106122
106172
106240
106324
106431
106588
107197
108245
108688
108574
108171
106923
106436
106413
106502
106761
107066
107128
106725
106206
106065
106026
106018
106018
106021
106029
106042
106058
106080
106115
106160
106219
106298
106392
106513
106719
107403
108300
108769
108689
108175
107042
106596
106554
106642
106902
107154
107150
106640
106181
106070
106030
106019
106020
106031
106044
106062
106083
106111
106151
106203
106272
106360
106465
106613
106877
107680
108426
108827
108831
108223
107166
106758
106705
106799
107065
107290
107172
106520
106162
106075
106038
106026
106028
106043
106062
106085
106110
106145
106191
106250
106327
106421
106543
106728
107097
107989
108505
108889
108971
108273
107290
106934
106879
106972
107240
107445
107113
106400
106149
106080
106050
106041
106044
106059
106081
106108
106139
106181
106234
106299
106381
106484
106626
106859
107389
108333
108628
109019
108955
108138
107424
107146
107093
107173
107438
107524
106950
106315
106144
106087
106065
106061
106064
106079
106103
106134
106172
106220
106279
106349
106437
106552
106721
107007
107723
108691
108892
109217
108426
107985
107594
107403
107359
107451
107685
107549
106730
106266
106145
106099
106085
106085
106088
106101
106129
106162
106206
106260
106323
106400
106498
106629
106832
107186
108054
109020
109229
109418
108101
107985
107867
107723
107685
107800
107894
107393
106543
106240
106150
106116
106110
106112
106113
106127
106156
106191
106241
106301
106371
106457
106567
106718
106958
107401
108357
109301
109453
109483
108111
108112
108104
108069
108099
108203
107936
107056
106428
106230
106160
106140
106140
106141
106141
106157
106187
106224
106278
106345
106423
106521
106643
106816
107096
107652
108665
109479
109540
109540
108161
108234
108383
108473
108626
108734
107856
106815
106374
106232
106180
106173
106175
106173
106173
106192
106220
106260
106318
106392
106480
106589
106726
106927
107256
107915
108946
109583
109592
109595
108456
108548
108764
108964
109212
109318
108034
106786
106360
106242
106212
106213
106212
106207
106211
106230
106258
106300
106362
106442
106541
106663
106821
107055
107444
108187
109168
109620
109570
109613
109059
109051
109295
109458
109514
109496
108769
107121
106379
106254
106248
106257
106250
106244
106254
106273
106301
106346
106411
106497
106607
106745
106929
107205
107664
108484
109390
109628
109621
109704
109605
109583
109672
109706
109679
109587
109222
107699
106532
106292
106277
106295
106298
106287
106300
106322
106351
106398
106465
106557
106679
106836
107053
107381
107923
108808
109601
109697
109734
109809
109804
109803
109808
109796
109782
109722
109465
108154
106864
106415
106325
106328
106357
106343
106351
106380
106411
106460
106529
106626
106760
106939
107195
107583
108206
109099
109748
109790
109838
109864
109822
109802
109783
109751
109780
109767
109464
108344
107253
106661
106438
106395
106436
106425
106422
106456
106488
106535
106605
106708
106853
107057
107359
107810
108487
109333
109834
109861
109888
109904
109809
109716
109707
109719
109745
109781
109604
108733
107718
107020
106675
106563
106571
106556
106539
106569
106600
106641
106707
106814
106972
107207
107565
108074
108773
109524
109882
109901
109921
109935
109735
109730
109772
109833
109870
109907
109874
109332
108387
107607
107146
106925
106848
106803
106767
106778
106800
106834
106895
107005
107188
107477
107910
108482
109161
109740
109914
109923
109942
109957
109799
109875
109932
109952
109975
109979
109950
109719
109173
108519
107961
107594
107388
107272
107195
107171
107180
107213
107295
107458
107739
108156
108694
109256
109696
109914
109930
109932
109941
109969
109904
109923
109934
109933
109937
109928
109883
109851
109790
109507
109040
108583
108241
108020
107886
107821
107819
107869
108012
108293
108741
109281
109716
109953
110019
109991
109948
109931
109914
109970
109913
109904
109853
109861
109876
109896
109921
110014
110089
110058
109897
109614
109283
109007
108822
108727
108718
108792
108977
109283
109656
109950
110068
110098
110103
110072
110017
109960
109906
109928
109877
109760
109774
109835
109908
109967
110042
110122
110170
110197
110211
110171
110051
109887
109736
109643
109622
109677
109797
109938
110027
110055
110075
110095
110107
110101
110073
110023
109935
109879
109725
109733
109780
109904
109991
110045
110091
110124
110146
110172
110208
110242
110257
110238
110194
110150
110125
110125
110137
110135
110107
110073
110062
110070
110080
110083
110075
110053
109993
109875
109656
109729
109883
109982
110020
110041
110051
110054
110063
110085
110121
110161
110197
110219
110224
110216
110201
110184
110165
110141
110107
110070
110047
110041
110044
110046
110044
110037
110009
109898
109632
109842
109958
109985
109983
109975
109958
109944
109948
109978
110020
110064
110103
110134
110152
110157
110152
110141
110125
110105
110079
110049
110024
110010
110006
110004
110001
109998
109981
109902
109722
109917
109941
109929
109914
109859
109788
109746
109761
109828
109901
109965
110014
110050
110073
110084
110086
110081
110071
110056
110036
110013
109990
109974
109965
109960
109955
109950
109935
109875
109828
109901
109886
109866
109774
109588
109428
109379
109443
109624
109771
109871
109934
109974
109999
110012
110018
110017
110010
109999
109984
109966
109948
109932
109921
109914
109907
109900
109883
109832
109844
109850
109831
109735
109413
109098
109016
109010
109138
109419
109663
109797
109868
109907
109930
109944
109950
109951
109947
109939
109927
109913
109898
109884
109874
109865
109858
109849
109830
109783
109815
109803
109724
109384
108879
108744
108808
108872
109026
109315
109627
109756
109818
109850
109869
109880
109885
109886
109883
109876
109867
109856
109844
109832
109822
109814
109807
109798
109778
109732
109779
109706
109389
108855
108623
108667
108787
108823
109012
109312
109627
109737
109780
109800
109812
109818
109822
109821
109818
109813
109805
109796
109786
109776
109767
109760
109754
109745
109726
109681
109696
109394
108722
108403
108606
108744
108884
108882
109080
109394
109663
109727
109745
109752
109757
109759
109760
109758
109754
109749
109742
109734
109725
109717
109709
109702
109697
109691
109674
109632
109488
108790
108314
108326
108664
108994
109116
109145
109305
109571
109694
109708
109706
109703
109702
109700
109698
109695
109690
109685
109678
109671
109663
109655
109648
109642
109638
109634
109620
109584
109265
108310
108309
108324
108844
109244
109487
109525
109557
109663
109684
109670
109658
109650
109645
109641
109636
109631
109626
109620
109613
109606
109598
109591
109585
109579
109575
109572
109563
109535
109207
108457
108486
108563
109287
109569
109630
109631
109642
109653
109636
109617
109603
109594
109587
109580
109574
109567
109561
109554
109547
109539
109533
109526
109520
109514
109511
109508
109502
109482
109231
108874
109016
109337
109612
109650
109625
109609
109604
109590
109571
109555
109543
109534
109526
109518
109511
109503
109495
109487
109479
109472
109465
109459
109453
109448
109445
109442
109439
109425
109288
109358
109498
109620
109612
109582
109553
109535
109526
109516
109503
109491
109481
109473
109464
109456
109446
109437
109428
109419
109410
109403
109396
109390
109385
109381
109378
109376
109374
109366
109311
109515
109567
109544
109516
109487
109456
109447
109444
109440
109434
109427
109420
109411
109402
109392
109381
109370
109360
109349
109340
109332
109325
109319
109315
109312
109310
109308
109308
109304
109336
109476
109460
109438
109408
109356
109344
109353
109363
109368
109368
109365
109359
109350
109340
109328
109316
109303
109290
109278
109267
109258
109251
109246
109243
109241
109241
109241
109242
109241
109336
109373
109355
109331
109232
109197
109229
109265
109290
109303
109306
109305
109299
109290
109278
109264
109249
109234
109218
109204
109192
109182
109176
109171
109170
109170
109171
109173
109176
109177
109283
109272
109249
109126
108975
109044
109132
109193
109227
109244
109250
109248
109242
109231
109217
109201
109183
109164
109145
109128
109114
109103
109097
109094
109095
109097
109101
109105
109109
109112
109189
109174
109014
108706
108744
108936
109070
109139
109175
109192
109197
109195
109187
109174
109157
109138
109115
109092
109069
109047
109030
109019
109014
109014
109018
109023
109029
109037
109043
109048
109105
109000
108301
108358
108656
108900
109031
109098
109131
109146
109149
109145
109134
109119
109099
109075
109048
109017
108987
108957
108932
108919
108919
108926
108937
108947
108958
108969
108978
108984
108984
108426
108225
108322
108661
108894
109009
109065
109092
109103
109104
109097
109085
109066
109043
109014
108979
108940
108892
108838
108792
108775
108785
108812
108841
108864
108885
108903
108916
108924
108709
108176
108188
108344
108693
108894
108988
109034
109055
109063
109062
109054
109039
109017
108990
108956
108911
108849
108756
108634
108527
108504
108536
108610
108691
108755
108801
108836
108856
108866
108454
108143
108236
108383
108724
108887
108965
109004
109021
109027
109024
109014
108996
108972
108941
108899
108834
108719
108511
108221
108035
108010
108065
108197
108394
108558
108667
108748
108791
108808
108325
108118
108412
108367
108727
108874
108944
108977
108991
108994
108990
108978
108958
108932
108898
108842
108731
108486
108036
107703
107552
107565
107615
107735
107928
108147
108354
108575
108692
108749
108355
108334
108566
108240
108693
108861
108925
108952
108963
108965
108959
108945
108924
108898
108858
108773
108557
108011
107433
107351
107360
107410
107346
107380
107471
107630
107763
108158
108470
108647
108477
108529
108528
108203
108645
108848
108909
108931
108939
108939
108931
108916
108896
108869
108815
108671
108238
107339
107091
107175
107236
107266
107228
107213
107215
107294
107378
107808
108006
108422
108479
108479
108486
108164
108583
108835
108896
108913
108918
108916
108906
108891
108873
108843
108760
108495
107734
107086
107087
107191
107285
107264
107234
107248
107298
107370
107483
107744
107469
107871
108303
108062
108444
108128
108556
108824
108884
108897
108898
108894
108883
108870
108853
108812
108682
108256
107125
107091
107120
107533
107736
107472
107347
107403
107503
107508
107551
107582
107173
107160
107360
107015
107936
108110
108582
108819
108873
108882
108880
108873
108863
108852
108833
108770
108546
107751
107126
107256
107646
108071
108274
108061
107869
107846
107853
107730
107586
107362
107160
107150
106779
106782
107137
108201
108657
108824
108863
108866
108860
108853
108845
108836
108807
108710
108360
107427
107357
107832
108397
108608
108624
108545
108438
108361
108291
108146
107879
107486
107176
107134
106933
106813
107239
108376
108734
108831
108850
108846
108839
108834
108828
108813
108760
108588
108001
107611
108133
108624
108761
108719
108626
108558
108519
108486
108454
108410
108293
108008
107538
107133
107480
107242
107825
108588
108776
108828
108827
108816
108815
108815
108811
108785
108699
108474
108109
108436
108736
108804
108722
108594
108458
108393
108364
108357
108363
108375
108374
108364
108143
107497
108042
107924
108346
108675
108785
108807
108785
108772
108787
108800
108804
108782
108718
108611
108607
108826
108827
108747
108607
108386
108141
108043
108020
108047
108122
108198
108290
108331
108346
108081
108289
108281
108465
108665
108775
108768
108711
108702
108755
108794
108815
108815
108793
108781
108814
108795
108758
108685
108573
108282
107954
107735
107707
107672
107639
107720
107911
108173
108258
108272
108311
108332
108451
108644
108744
108724
108571
108587
108722
108793
108821
108815
108796
108768
108729
108698
108627
108602
108606
108466
108080
107887
107918
107759
107431
107272
107322
107722
108053
108175
108280
108321
108440
108628
108697
108653
108283
108404
108695
108790
108801
108782
108751
108701
108473
108349
108316
108427
108503
108520
108367
108123
107975
107865
107595
107228
107182
107405
107566
107985
108245
108262
108427
108618
108656
108556
107626
108156
108675
108781
108780
108753
108670
108354
107069
106692
106771
108211
108230
108444
108399
108201
108028
107980
107799
107379
107155
106741
106134
106744
108241
108163
108350
108593
108624
108377
106854
107934
108650
108774
108766
108698
108265
106225
104092
103652
103749
105253
107406
108213
108172
108148
108054
108036
108010
107834
106829
105175
103662
103638
108230
108081
108075
108531
108599
107853
106837
107728
108606
108778
108762
108504
107948
105194
103112
102625
102577
102829
103905
105048
106026
106553
106761
106683
105879
104532
103378
102350
101591
101391
108184
107391
107392
108377
108576
107420
106824
107579
108587
108781
108752
108528
108220
105505
103186
102510
102399
102314
102290
102500
102853
103075
103272
103358
103015
102399
101800
101312
100963
100835
107275
105971
107025
108231
108530
107555
106772
107547
108595
108781
108707
108498
108326
106109
103298
102430
102306
102197
102088
102006
101960
101950
102060
102338
102576
102478
101956
101309
100912
100791
103991
104392
107151
108107
108523
108043
106605
107488
108598
108775
108669
108400
108341
106586
103333
102386
102255
102126
102006
101904
101824
101795
101859
102100
102461
102494
102234
101560
101021
100800
102628
102650
104528
107641
108391
108389
106546
107489
108614
108769
108641
108367
108376
106680
103270
102396
102244
102093
101954
101838
101763
101759
101770
101888
102216
102500
102388
101929
101314
100865
102431
101787
101942
104415
107700
107057
106043
107759
108685
108765
108617
108393
108415
106350
103172
102528
102288
102087
101932
101810
101758
101757
101755
101782
101992
102333
102460
102281
101663
101047
102493
101596
101596
102482
104803
104571
105538
108058
108741
108749
108596
108419
108452
105594
103103
102716
102372
102120
101933
101804
101755
101753
101754
101755
101850
102173
102474
102535
102013
101364
102806
101598
101599
102206
103787
103880
105730
108238
108770
108723
108553
108446
108481
104550
103071
102861
102489
102206
101979
101823
101751
101751
101753
101754
101786
101997
102428
102667
102425
101814
103210
101601
101707
102406
103823
104318
106520
108456
108799
108679
108510
108500
107525
103814
103084
102959
102653
102359
102105
101913
101807
101776
101771
101769
101776
101875
102224
102696
102847
102393
103731
101744
102152
102801
104175
105266
107423
108645
108804
108601
108433
108503
105609
103411
103081
103024
102843
102588
102332
102112
101967
101897
101870
101851
101834
101851
102043
102581
103094
103024
104406
102188
103037
103691
104743
106026
108097
108777
108753
108412
108248
107261
103615
102939
103021
103035
102984
102843
102645
102431
102257
102147
102088
102045
102001
101959
101995
102324
103120
103419
105096
102699
104015
104842
105662
107028
108573
108803
108658
108052
107963
103301
102162
102466
102844
103003
103023
103019
102952
102820
102660
102525
102435
102368
102302
102220
102139
102207
102769
103426
105648
103079
104565
105781
106733
108252
108820
108773
108453
108115
103335
101290
101351
101797
102321
102742
102969
103072
103135
103155
103093
102988
102890
102806
102720
102612
102465
102328
102569
103433
106376
103503
104706
106459
108012
108775
108797
108578
108172
103746
100928
100690
100811
101056
101466
102028
102575
102950
103179
103325
103421
103432
103388
103313
103212
103074
102896
102706
102579
103424
107875
104633
104877
106928
108673
108778
108497
107745
104029
100814
100456
100461
100492
100556
100734
101121
101718
102381
102936
103322
103563
103740
103821
103821
103738
103576
103367
103141
102938
103013
108731
107079
105614
107106
108659
108118
106943
104219
100791
100373
100354
100354
100349
100351
100392
100531
100854
101409
102143
102890
103474
103851
104105
104249
104259
104117
103868
103594
103362
103223
108766
108702
107330
106970
106507
104352
102577
101014
100392
100330
100317
100308
100300
100296
100299
100325
100416
100647
101106
101848
102774
103607
104168
104507
104716
104700
104450
104091
103796
103675
108791
108783
108544
106751
103040
100932
100563
100498
100372
100324
100302
100292
100287
100286
100286
100286
100299
100351
100497
100837
101507
102528
103639
104494
104975
105246
105149
104737
104317
104163
108838
108826
108637
106285
101666
100483
100424
100442
100381
100326
100299
100287
100286
100285
100285
100285
100284
100290
100324
100422
100659
101185
102188
103567
104850
105538
105847
105605
104999
104713
108941
108930
108690
103808
100889
100448
100424
100432
100393
100334
100300
100287
100285
100285
100285
100284
100284
100285
100302
100350
100436
100592
100960
101831
103490
105357
106237
106496
105844
105403
108433
108658
105268
101789
100692
100453
100425
100426
100404
100349
100306
100288
100285
100285
100284
100284
100285
100291
100316
100366
100429
100500
100590
100799
101589
103731
106231
107069
106705
106195
106288
105124
102985
101440
100706
100461
100425
100425
100415
100371
100321
100294
100286
100285
100285
100288
100296
100323
100378
100453
100520
100554
100568
100595
100723
101719
104892
107232
107441
106967
105168
104025
102823
101489
100715
100464
100437
100436
100432
100400
100348
100310
100296
100294
100297
100309
100341
100409
100508
100600
100651
100660
100646
100622
100621
100786
102790
107082
107906
107580
105164
103919
103016
101527
100719
100466
100451
100461
100461
100438
100393
100350
100330
100331
100345
100382
100454
100563
100676
100740
100749
100731
100705
100671
100634
100648
101422
106156
108109
107970
105142
103861
103162
101565
100734
100466
100460
100487
100499
100490
100463
100432
100418
100430
100467
100535
100633
100736
100804
100819
100792
100750
100720
100704
100678
100664
101021
104914
108187
108165
105125
103841
103309
101632
100751
100466
100461
100504
100536
100550
100556
100557
100570
100604
100655
100724
100793
100836
100847
100839
100795
100740
100713
100713
100709
100692
100934
103924
108241
108242
105121
103859
103425
101721
100785
100467
100461
100512
100560
100598
100644
100687
100731
100777
100809
100837
100851
100850
100849
100819
100766
100725
100711
100715
100713
100697
100872
103180
108294
108296
105120
103856
103568
101842
100825
100470
100461
100516
100571
100620
100692
100759
100813
100850
100854
100853
100853
100852
100840
100782
100739
100720
100713
100716
100711
100679
100787
102644
108268
108350
105113
103872
103703
101965
100875
100477
100461
100523
100577
100623
100701
100771
100820
100847
100855
100855
100854
100854
100807
100758
100732
100726