/*--------------------------------*- C++ -*----------------------------------*\
| =========                 |                                                 |
| \\      /  F ield         | OpenFOAM: The Open Source CFD Toolbox           |
|  \\    /   O peration     | Version:  v1606+                                |
|   \\  /    A nd           | Web:      www.OpenFOAM.com                      |
|    \\/     M anipulation  |                                                 |
\*---------------------------------------------------------------------------*/
FoamFile
{
    version     2.0;
    format      ascii;
    class       volScalarField;
    location    "4.8";
    object      k_0;
}
// * * * * * * * * * * * * * * * * * * * * * * * * * * * * * * * * * * * * * //

dimensions      [0 2 -2 0 0 0 0];

internalField   nonuniform List<scalar> 
11640
(
0.000391091508602
0.000469645180239
0.000520522420839
0.000549342201792
0.000563386182961
0.000567216182846
0.000564762486889
0.000559325126334
0.000552773515572
0.000545951337651
0.000539331049957
0.000534525208356
0.000533219241167
0.000534473347381
0.000534726713695
0.000530063538439
0.000516835799443
0.000489933479976
0.000443146694158
0.000373768774731
0.000472097104108
0.000771951057954
0.000936490553172
0.00102726502502
0.00107458761802
0.00109390719414
0.00109432583458
0.00108367773381
0.00107032329837
0.00105844109237
0.00105109595863
0.00105445038141
0.00106485750123
0.0010747623184
0.00107408450804
0.00105282174331
0.00100397594896
0.00091318730425
0.000748332868662
0.000448413612899
0.000523746488753
0.000937596926504
0.00116925997378
0.00130598289029
0.00138022605982
0.00140625358861
0.00139749451574
0.00137104027375
0.00134133541841
0.00131412099763
0.0013019733316
0.00131594313629
0.00133941511786
0.00136409673675
0.00137456641812
0.00135217242369
0.00128047694194
0.00114545502586
0.000914510311804
0.000496345624281
0.000552762047347
0.00103247786184
0.00131304999414
0.00148124028223
0.00156405711206
0.00157903343496
0.0015468317039
0.001493987736
0.00144226924131
0.0013968230487
0.00138395424535
0.00141180083615
0.00145334810314
0.00150182734671
0.00153545883126
0.00152628832934
0.00145036845717
0.00128732748995
0.00100896644177
0.000523368445331
0.000569277705903
0.00108931480168
0.0014005284001
0.00157996076599
0.00165334686532
0.00164069631478
0.00157042437033
0.00148290119019
0.00140606570042
0.00134233564637
0.00133229154585
0.00137369952884
0.00143675583177
0.00152139551159
0.00159382488307
0.00161311653712
0.00154810090728
0.00137594138607
0.00106737651217
0.000539188861585
0.000578905811482
0.00111898829457
0.00144161336166
0.0016148894609
0.00166238415733
0.00160345818507
0.00147268086434
0.001336648658
0.00123507915612
0.00115819459253
0.0011492435301
0.00119691471337
0.00128379418814
0.00142755040343
0.00156543174432
0.00163128863973
0.00159094004174
0.0014231337593
0.00110163131673
0.000550101457232
0.000581321966531
0.00112555346661
0.00144545021645
0.00160223925166
0.00161245094412
0.00148757501832
0.0012597887349
0.00104889669143
0.000926156040934
0.00084925689953
0.000859075615297
0.000904017254745
0.00100918421957
0.00123291202415
0.00146858556813
0.00159868637318
0.00159284448211
0.0014378861118
0.00111551212589
0.000556060350159
0.000577358233685
0.00111762143858
0.00142880888301
0.00156729363224
0.0015437405047
0.00135981681845
0.00103923770067
0.000789490242709
0.000670800894862
0.000616061218131
0.000612056764876
0.000649875055443
0.000765252933667
0.0010327297177
0.00136010329387
0.00154911949472
0.00157406360036
0.00143272955452
0.0011145603247
0.000556633813133
0.00057113195887
0.00110794503732
0.00141248291261
0.00153955199706
0.00149738860968
0.00128364851455
0.000926948815153
0.00066314709401
0.000541006970152
0.000495389661466
0.000492085192979
0.000530902815136
0.000653153635502
0.000930659652891
0.0012988048704
0.00151795103574
0.00156062337856
0.00142697358749
0.00111165365134
0.000555645367091
0.000566077005895
0.00110530294628
0.00141033287783
0.00153627618639
0.00149166803045
0.00127225626732
0.000903495982352
0.000627289899903
0.000504295206111
0.000465381460301
0.000465827638886
0.000507114023445
0.000635807286452
0.000923633034143
0.0013047211261
0.00152832905588
0.00157098266976
0.00143429871135
0.00111510993195
0.000555662690184
0.000562844165398
0.00111188462041
0.00142471579734
0.00156126798973
0.00153232238781
0.00133434413819
0.000982330640257
0.000696374999831
0.000576964911209
0.000536013290807
0.000536466210776
0.000583002231824
0.000716187513974
0.00101557362876
0.00138166000002
0.00158348697587
0.00160853913927
0.00145774515058
0.00112726029894
0.000557434846249
0.000559648582052
0.00112308517355
0.00145057216182
0.00160876023503
0.00161681655804
0.00148310288811
0.00122979043343
0.000993997556584
0.000883946901552
0.000831553894554
0.000805680283722
0.000867628616264
0.00100964726023
0.0012770783118
0.00154689900524
0.00168450104271
0.00166938353584
0.00149312614391
0.00114465266088
0.000559458995192
0.000553352987733
0.00112887160525
0.00147136767075
0.00165546565162
0.00170618826957
0.0016441552886
0.00149869966733
0.00134683925687
0.00125369659606
0.00119276546507
0.00119088290992
0.00127415126146
0.00139831288488
0.00157224332308
0.00172873104295
0.00179042551629
0.00172765508296
0.00152285251097
0.00115721945987
0.000558704986732
0.000544036858671
0.00112177054339
0.00147138620796
0.00167774169411
0.00176782041611
0.00176576180305
0.00170211725652
0.00162349971224
0.00156155846411
0.00151519727419
0.00152432883
0.00160043276817
0.00169068024381
0.00179088343834
0.00186322832568
0.00186118331551
0.00175676371847
0.00152965798564
0.00115724409708
0.000554752801321
0.000536470679141
0.00110224853541
0.00144404180783
0.00165953716496
0.00177817055584
0.00181899019347
0.00180645898352
0.00177163942581
0.00173733689625
0.00171249658406
0.00172757853618
0.00178305460839
0.00184139478334
0.00189400643094
0.0019147558642
0.0018705652813
0.00174043003166
0.00150668403724
0.00114470278012
0.000549712539595
0.000528774123315
0.00107353513918
0.00138944834224
0.00159410892483
0.00172145628933
0.00178693214825
0.00180704399018
0.00180274113905
0.00179315477328
0.00179053078899
0.00180475045984
0.00183648659471
0.00186659366289
0.00188594844054
0.00187424779974
0.00180853049374
0.00167289796238
0.00145443977806
0.00111835134067
0.000542279335934
0.000513304095848
0.00102259849298
0.00131057416105
0.00148390708819
0.00159771616149
0.00166607563072
0.00170000320838
0.00171375233751
0.00172250576718
0.00173156816882
0.00174246323873
0.00175645973998
0.00176731523963
0.0017673605064
0.00174162498871
0.00167508533996
0.00155656776273
0.00136869220509
0.00106398314813
0.000526423174905
0.000484620820419
0.00092267631142
0.00117298010753
0.00132284835131
0.00141264717665
0.00146716836501
0.00149996282307
0.00151884213211
0.00153049801687
0.00153869442847
0.00154540650878
0.00155050827636
0.00155227897477
0.00154585656662
0.0015216724647
0.00146955779441
0.00137666497247
0.00122077738432
0.000959013842651
0.000495998345801
0.000437299262863
0.000748202569087
0.000927839082455
0.0010363505507
0.00110234575887
0.00114176572124
0.0011642228688
0.00117671667475
0.00118386230168
0.00118842114399
0.00119177380662
0.0011941723663
0.00119455142514
0.00118956161915
0.00117371999144
0.0011390968731
0.00107401311076
0.000962079710738
0.000773082796136
0.000444111307345
0.000369273736899
0.000443813827555
0.000494407802042
0.000525620969685
0.000544484422987
0.000555466367561
0.000561447883085
0.000564168609947
0.000565226043454
0.00056555306061
0.00056574845049
0.000565787199848
0.000565496217576
0.000563774649953
0.000559365409213
0.000549641385176
0.000531269796827
0.00049932490756
0.000446332087239
0.000368258117695
0.000631403063973
0.000850165199169
0.000988680858652
0.00106443566842
0.00109787700769
0.00110599380855
0.00110517846468
0.00110383275763
0.00110360870484
0.00110413229806
0.00110422686486
0.00110172446606
0.00109910583997
0.00109776084303
0.00109487608037
0.00108241450209
0.00104601266931
0.000968385865714
0.000829527953626
0.000617604488299
0.000855368681357
0.00162396729611
0.00199591059764
0.00218705667537
0.00227290360186
0.00230371032452
0.00231208611481
0.00231185498266
0.00231160192494
0.00231530853978
0.00231819445819
0.00231628502441
0.00231638088952
0.00231864265738
0.00231278129625
0.00227821414237
0.00218533836175
0.00198825836345
0.00161346021038
0.000840492756366
0.000996148875469
0.00199978343842
0.00247476186761
0.00271800293442
0.00282718638681
0.002863998593
0.00286271928199
0.00285039310215
0.00284336561876
0.00284237542021
0.00283659949736
0.00282572563558
0.00282566603052
0.00283825135164
0.00284738334039
0.00282133820674
0.00271531430684
0.00246998368041
0.00199245897685
0.000981083668046
0.00107125975539
0.00219300596593
0.00271618658885
0.00297617125014
0.00308039195579
0.00309059770837
0.00305656137915
0.00301902288158
0.00300023616121
0.0029949502514
0.0029825545026
0.00296780311811
0.00297754232652
0.00301795818244
0.00306187790636
0.00306448742494
0.00297154115705
0.00271532370474
0.00219096649897
0.00105674934168
0.00110312893766
0.00227312208588
0.00280820424719
0.00305804581257
0.00312968884962
0.00308808924014
0.00299040559679
0.00290239483563
0.00285920762645
0.00284526716653
0.00282630661431
0.00281221628561
0.00284739553099
0.00294958622376
0.00306351078082
0.00312039170223
0.00306016240073
0.00281547350885
0.00227887070883
0.00108951152591
0.0011102952239
0.0022854712769
0.0028095584761
0.00302947047628
0.00304638372729
0.0029155360217
0.00269557592248
0.00250865644493
0.00242629235431
0.00240040729669
0.00237185881479
0.00235815951711
0.00243737089988
0.00266602961772
0.00291169696834
0.0030591429512
0.00305096385301
0.00283163851542
0.00230134571387
0.00109846290339
0.00110543805876
0.00226621086041
0.0027680905405
0.00294773940317
0.0028912322098
0.00262591299117
0.0021802696726
0.00180112923468
0.00167420690582
0.00166195252714
0.00162387603997
0.0016064406448
0.00174398093899
0.00219366360369
0.00265846620368
0.00293567275624
0.00299580438404
0.00280982802429
0.00229425270521
0.00109703620594
0.00109725226679
0.00224220823632
0.00272271945496
0.00286488770101
0.00274112050481
0.00234602393299
0.00165677939995
0.00117456335902
0.00104462344853
0.00105904144696
0.00105515636053
0.00105024000476
0.0011999039613
0.0017100536288
0.00240689688322
0.00281381775567
0.0029381379943
0.00278211209903
0.00227992158981
0.00109226746162
0.00109100752966
0.00222891704473
0.00269697980804
0.00281799504383
0.0026587837898
0.00220649570863
0.00144128895255
0.000943867808616
0.000789417833326
0.000794995388432
0.000797616411388
0.000797840070591
0.000961296298325
0.00148447424023
0.00227773969434
0.00275099164675
0.00291138937156
0.00277107999281
0.00227445379958
0.00108936232567
0.00109029044694
0.00223510531829
0.00270465027783
0.00282587245451
0.00266643546209
0.00221284032938
0.00143973838298
0.000927839479967
0.000765887688161
0.000770773133457
0.000776071157887
0.000770876202313
0.000937013480875
0.00147724097793
0.00229333334496
0.00277583370156
0.0029367453596
0.00279096750939
0.00228611261116
0.0010909641277
0.00109710196605
0.0022644130102
0.00275004703745
0.00289430521756
0.00277194100812
0.00237780661802
0.00167556856062
0.00115533556386
0.00100325773458
0.00101662533444
0.00102556370023
0.00100559286938
0.00115578143082
0.00171350186201
0.00247110003338
0.00290012813508
0.00302246334253
0.00284759793762
0.00231904436882
0.00109870254414
0.00111040500106
0.00231494346344
0.00283175574477
0.00301918621591
0.00297163575342
0.00271843602334
0.00226912051005
0.00182026936475
0.00168274129652
0.00170038277139
0.00172909443736
0.00173558729947
0.00188653408267
0.00233797772773
0.00284029353386
0.00312577293833
0.00316611835193
0.00293972280008
0.00237314828202
0.00111284819523
0.00112698780616
0.00237901821145
0.00293756967098
0.00317905491364
0.00321328695468
0.00310153520053
0.00289101139735
0.00269395531492
0.00262739087755
0.00264012968081
0.00266042111133
0.00268703086443
0.00279182462693
0.00301912763467
0.00326631153554
0.00339266200596
0.00333861895704
0.0030515765963
0.0024394020289
0.00113073497438
0.00114033816692
0.00243750397849
0.00304146514531
0.00334010628763
0.00344846582826
0.00344340693179
0.0033813553384
0.00332701888754
0.00332092230816
0.00334867957994
0.00337661231912
0.0034003740346
0.00345360884304
0.00354592637412
0.00363250857162
0.00363742828502
0.00350045703815
0.00315561933138
0.0024992133525
0.00114603002709
0.00114194671621
0.00246275979845
0.00310288141958
0.00345068668407
0.00362166455556
0.00368880219703
0.00370800000708
0.00372106871217
0.00374738279803
0.00378412320022
0.00381456432048
0.00383035055858
0.00385015264698
0.00387211284857
0.00387049476789
0.00379796979934
0.00360071041984
0.00321152217091
0.00252436126828
0.00114956561039
0.00112346647134
0.00242751324445
0.00307893985527
0.00345608551834
0.00366742144492
0.00378103312349
0.00384364405327
0.00388655704232
0.0039246244848
0.00395995110876
0.00398446006996
0.00399329572599
0.00399474880023
0.00398213384672
0.00393506577108
0.00381847719649
0.00358666008651
0.00317720584692
0.00248689778152
0.00113271666017
0.00107469619328
0.00230540314482
0.00293215691151
0.00330885883122
0.00353153777951
0.00366119669168
0.00373811212883
0.00378796404042
0.00382321553309
0.00384846366232
0.00386516695148
0.00387097632935
0.00386641067465
0.00384198009139
0.00377903654294
0.00364900582721
0.00341301910998
0.00301536641364
0.00236034505779
0.00108415291493
0.000984438874518
0.00206733238242
0.00262188017724
0.00296175360895
0.00317014361898
0.00329321730608
0.00336468854005
0.00340672923518
0.00343241145467
0.00344858475316
0.00345769520688
0.0034608422295
0.003454701868
0.00342986136717
0.00336978041744
0.00325064056106
0.00303934897229
0.00268786937185
0.00211127280191
0.000991379350084
0.00083577693667
0.00165651042215
0.00208101833604
0.00234127926736
0.00250177652268
0.0025982650227
0.00265369530227
0.00268375944141
0.00269985002103
0.00270807001093
0.00271224915407
0.00271245012431
0.00270617255442
0.00268576634445
0.00263903346263
0.0025479838025
0.00238727340752
0.00212000384978
0.00168057273678
0.000836171987759
0.000617139333837
0.000848362901826
0.00100312066875
0.00109965439
0.00115910109531
0.00119451504298
0.00121445668876
0.00122463114935
0.00122877221184
0.0012297197101
0.00122893397977
0.00122634077784
0.0012212573626
0.00121121748366
0.00119171956385
0.00115647920355
0.00109670951817
0.00099847349122
0.000840531320149
0.000606215381038
0.000732830462677
0.00104847136333
0.00124742158619
0.00135737431163
0.00140770811112
0.00142164997861
0.00142102454928
0.00141717577029
0.00141430710493
0.00141313997578
0.00141345730495
0.00141390340873
0.00141527976908
0.00141689068917
0.00141283307171
0.00139172130039
0.00133574848384
0.00122164366808
0.00101997182051
0.000709745574397
0.00105490523717
0.00207958128295
0.00256595982972
0.00282376550939
0.00294505631736
0.00298990242816
0.00299764309463
0.00298910764441
0.00297915614517
0.00297542461622
0.00297687314323
0.00298101346994
0.00299045402288
0.00300043229458
0.00299474604773
0.00294548698008
0.00281520131296
0.00255025487156
0.00206137150634
0.00103430686595
0.00125682702751
0.0025719974086
0.00318270311587
0.00350670153524
0.0036584439009
0.00370716120415
0.00369704062007
0.00366649427277
0.00364055571315
0.00362597515817
0.00361871906518
0.00361963137733
0.00363628109175
0.00366500282081
0.00368105153781
0.00364195934248
0.00349351657439
0.00316835145219
0.00255758597905
0.00123884606797
0.00136643598615
0.00283487003629
0.00350996046907
0.00385935538986
0.0040052968804
0.00401847120599
0.00396157466782
0.00389158209938
0.00384240703862
0.00381630664222
0.0038026005827
0.0038059443972
0.00384313216705
0.00391353773806
0.00397793618928
0.00397627386304
0.00384204712473
0.00349939211607
0.00282798021067
0.00135185781561
0.00141578855755
0.00295476862939
0.00365249065878
0.00399332079218
0.00409810060879
0.00404097331625
0.00389584581787
0.00375336965995
0.00366663892429
0.00362628728313
0.00360668636514
0.00361746491417
0.00369427827492
0.00384926098204
0.0040076130166
0.00407756575508
0.00398424729252
0.00365197691588
0.0029590346445
0.00140482024441
0.00142936418064
0.00298573853676
0.00367652897117
0.0039826181092
0.00401613573259
0.00383819314159
0.00352055892136
0.00323041337428
0.00308441501126
0.00302830818622
0.00300018664078
0.0030171584222
0.00316113886357
0.00349685985097
0.0038332486863
0.00402261564323
0.00399666383614
0.00369468484977
0.00300420723455
0.00142275709717
0.0014249422571
0.00297124608191
0.00363884560684
0.00389571397417
0.00383464738291
0.0034724158169
0.00281120823473
0.00216531882452
0.00194001385443
0.00188422359576
0.00183536444582
0.00183908939997
0.00207726313147
0.00285710527883
0.00351811724638
0.00388005355845
0.00394159406363
0.00368119978652
0.00300604619923
0.00142394750555
0.0014155220667
0.00294631902639
0.00358970936756
0.00380082090031
0.00365106805448
0.00309340833302
0.00196044384707
0.0010534953822
0.000844439518397
0.000829497242906
0.000846698189242
0.000900066915141
0.00116233261692
0.00208645376825
0.00319024264298
0.00373244925857
0.00387699227785
0.00365448685565
0.00299473485239
0.0014192910967
0.00140902052234
0.00293376476118
0.00356411601348
0.00375107260507
0.00355850534173
0.00292798820929
0.00169230693956
0.000838982575778
0.000598326409483
0.000554743555834
0.000561579426925
0.000613478531718
0.000875772215251
0.00178059377626
0.00302942956498
0.00366019389247
0.00385012967404
0.00364695264846
0.0029928533233
0.00141725432906
0.00141099900705
0.00294667966143
0.00358145684486
0.00377217002846
0.00358455235378
0.00296279661195
0.00173033059529
0.000861013790201
0.000616230691056
0.000569738524191
0.000566718605649
0.000603563399621
0.000856859535133
0.00178520130777
0.00306030683952
0.00370066883438
0.00388978339964
0.00367878401028
0.00301335086285
0.00142232367109
0.00142358329833
0.00298905957771
0.00364715470605
0.00387124314788
0.00373897123784
0.00321433727451
0.0021178542788
0.00116001279726
0.000924394746225
0.000894143876089
0.000895932991898
0.00091137338356
0.00113388547375
0.00214680449403
0.00331169590614
0.00387115102988
0.00400692670878
0.003757453819
0.00306138239558
0.00143644595945
0.00144551687773
0.00305647817091
0.00375490987805
0.00403810162617
0.00400769011296
0.00369110890773
0.00307825150642
0.00227711195608
0.00204139822713
0.00205038527356
0.00210484801642
0.00217029823818
0.0024103927718
0.00311868608332
0.00380486607507
0.00416374943576
0.00419294292969
0.00387734037618
0.00313387164316
0.0014593538838
0.00147066793793
0.00313435491377
0.00388290586407
0.00423716567229
0.00431742089539
0.00419259077177
0.00392515167204
0.00363926020736
0.00352284505735
0.00351778574714
0.00354736723526
0.00360499152142
0.00375529346845
0.00404899953044
0.00435562103962
0.00449972532405
0.00440555477569
0.00401326509738
0.00321555920916
0.00148614023105
0.00148891670964
0.00319748568466
0.00399394595779
0.00441741661591
0.00459478697092
0.00460923629335
0.0045329997009
0.0044473617525
0.00441309808284
0.00442368135842
0.00445327379254
0.00449572285091
0.00457607384419
0.00469550992158
0.00479815078851
0.00478842607041
0.00459003305825
0.00412822205028
0.00328230006158
0.00150677238262
0.00148813071957
0.00321436643779
0.00404156424084
0.00451709912342
0.00476978939829
0.00487731088403
0.00490589623635
0.00491082787675
0.00492349266789
0.00494892321963
0.00497863898152
0.0050062600947
0.00504022023538
0.00507118764144
0.00506364850331
0.0049568780204
0.00468576223664
0.00417507260197
0.00330014222669
0.00150829103104
0.001458136001
0.00315383258964
0.00398211202926
0.00448038644902
0.00477502129368
0.00493832057544
0.00502357214871
0.00507164438721
0.00510683609769
0.00513743116322
0.00516277871878
0.00517866690437
0.0051858890431
0.0051712769117
0.00510625849182
0.00494605344148
0.00463669704571
0.00410812807553
0.00323656947905
0.00147924506001
0.00138524186388
0.00298492990999
0.00377586391314
0.00426312323853
0.00456285299259
0.00474245491006
0.00484740555026
0.00491001619867
0.00494998649672
0.00497812005919
0.00499740888667
0.00500658587735
0.00500176563169
0.00496864729186
0.00488199378577
0.00470619087385
0.00439552966771
0.00388549385833
0.00305921147067
0.00140489584972
0.00125291494158
0.00266931493383
0.00337443486549
0.00381347492577
0.00408936074371
0.00425770356534
0.00435657722741
0.00441472578441
0.004449501686
0.00447075984037
0.00448341585543
0.00448767661375
0.00447807377016
0.00444157174964
0.00435691306951
0.00419448792094
0.00391454969365
0.00346009809193
0.00272694843642
0.00126758394494
0.00103488496484
0.0021329590123
0.00268813958033
0.00303322746681
0.0032505798264
0.00338369296996
0.00346199639464
0.00350640888093
0.00353107776863
0.00354450595822
0.00355124075103
0.00355153027218
0.00354069787762
0.00350901146255
0.00344055403404
0.00331246009046
0.00309345883762
0.00273818014961
0.00216472218185
0.00104042602487
0.000710292155741
0.00105044218445
0.00127657116324
0.00141871796318
0.00150774467988
0.00156182890241
0.00159328082075
0.00161035868333
0.00161864067324
0.00162199593486
0.00162224071995
0.0016195001136
0.0016119940381
0.00159632184758
0.00156581758645
0.00151181305566
0.00142164009742
0.00127631614587
0.00104528746811
0.000702863579537
0.000796915578604
0.00118498858815
0.00143020063641
0.00156723419061
0.00163174979303
0.00165064961512
0.00164923999922
0.00164130105265
0.00163384854789
0.00162938323356
0.00162878039627
0.00163140254416
0.00163667375241
0.00164178109628
0.00163790506681
0.00161027361149
0.00153848943999
0.00139598932121
0.00114713558639
0.000763964001877
0.00119227038923
0.00239616358697
0.00296838492402
0.00327783755202
0.00342726378493
0.00348205295568
0.00348643238395
0.00346848061595
0.00344851170873
0.0034377376909
0.00343817934409
0.00344782937902
0.00346623398097
0.0034844444615
0.00348033730191
0.00342008481423
0.00326047421968
0.0029431231206
0.00236921815452
0.00116430626191
0.00144089868339
0.00297586124195
0.00368584558797
0.00406934574027
0.00425193833122
0.00430788548887
0.00428923098283
0.00424226444068
0.00420021637411
0.0041752602549
0.00416796149613
0.00417839249553
0.00420980856283
0.00425268942914
0.00427524906978
0.00422671445638
0.00404632641408
0.003661913507
0.00295358777641
0.00141750179949
0.00157821118348
0.00329295804333
0.00407699581775
0.00449036192456
0.004666381032
0.00468113811938
0.00460487149826
0.00450707956688
0.00443322031506
0.00439313974028
0.00438061180326
0.00439940588579
0.00445948978038
0.00455294470915
0.00463322113938
0.00462835144794
0.0044635388467
0.00405829123803
0.00328056024379
0.00156051108981
0.00164239466874
0.00344598072743
0.00426008545138
0.00466697069942
0.00479777611084
0.00472997910257
0.00454742435957
0.00435947676068
0.0042370720193
0.00418033478826
0.00416461394409
0.00419788361408
0.00430862281402
0.00449957443168
0.0046896282278
0.00476787642085
0.00464946351122
0.00425407341043
0.00344827617623
0.00163118532038
0.00166204078857
0.00349478948341
0.00430644553168
0.00467783514342
0.00472870091171
0.00451952236052
0.00412617431351
0.00373906595129
0.00353493134074
0.00346517380844
0.00344936864456
0.00349852084569
0.00369814715607
0.00411046914178
0.00451022071601
0.00472663325877
0.00468477918802
0.0043221654712
0.00351560162534
0.00165839907708
0.00165876018881
0.00348730295791
0.00427737616403
0.00459651567924
0.00454194539578
0.00411722060462
0.00326310455624
0.0022511528566
0.00192057468784
0.00184214611938
0.00183646142099
0.00189313115384
0.00219835083038
0.00334156172651
0.00416395895796
0.00458117229111
0.00463774985556
0.00432087966562
0.00352880558507
0.00166371385701
0.00164880456788
0.00346397238358
0.00422958056784
0.0044991861918
0.0043473544852
0.00370807908525
0.00215412108388
0.00222289964643
0.00379551078851
0.00442645008188
0.0045753894733
0.0043001146299
0.00352347670799
0.00166084263305
0.00164227895268
0.00345330666743
0.00420647628487
0.00445112775077
0.00425351287047
0.00353307860213
0.00184631721937
0.00188753250238
0.00362688489273
0.00435588603255
0.00455385650322
0.00429904996875
0.00352709598139
0.00166081849997
0.00164653732864
0.00347221693435
0.00423223845112
0.00448347835512
0.00429405047202
0.00358493281995
0.00188314633265
0.00190580480092
0.00367497146604
0.00441207607481
0.00460729643962
0.00434253939019
0.00355661679384
0.00166974756122
0.00166359956669
0.00352498862214
0.00431292628067
0.00460414105534
0.00447966478664
0.00388253778123
0.00231281771903
0.00231572395115
0.00397312921957
0.00461534340326
0.00474837702043
0.00443916722603
0.00361779800569
0.00168983836618
0.00169130473532
0.00360424592874
0.00443812106623
0.00479785106355
0.00479015006821
0.00443665062416
0.00368739094758
0.00244680461762
0.00214859898956
0.00210556808014
0.00211705702387
0.00218836302624
0.00252690107445
0.00368026349333
0.00454774505733
0.00495106330261
0.00496360537419
0.00457952942473
0.00370486700942
0.00172034030458
0.00172181284004
0.00369051362177
0.00457833557405
0.00501885764224
0.00514042192115
0.00501341692686
0.00470908351362
0.00436273105176
0.00420876525849
0.00417913411057
0.00420422305544
0.00427339548696
0.00446176507915
0.00483014779484
0.00517923588809
0.0053299559063
0.00520139067145
0.00473084892341
0.00379680424196
0.00175340034446
0.00174233283305
0.00375416668477
0.00468966780932
0.00520443418129
0.0054368833569
0.0054714056743
0.0053895918395
0.00528690918426
0.00523366342456
0.00523166495734
0.00526272872003
0.00531762344025
0.00541727463238
0.0055560594727
0.00566687063976
0.00564212688309
0.00539637495257
0.00484966185226
0.00386545948793
0.00177668681068
0.00173811609888
0.00376116711416
0.00472285833284
0.00528917297847
0.00560282407088
0.00574356217704
0.00578263412397
0.0057846499449
0.00578952383564
0.00580887179683
0.00583958512129
0.00587549684037
0.00591953930956
0.00595666201069
0.00594249336093
0.00580846151875
0.00548266755528
0.00488494385009
0.00387400606218
0.00177456831538
0.00169731709907
0.0036780292121
0.00463391689822
0.00521823923511
0.00557346663592
0.00577482084549
0.00587928659184
0.00593374696831
0.00596898308486
0.00599853984027
0.0060258256576
0.00604692143524
0.00605823561662
0.00604181642695
0.00596238280884
0.00576906048229
0.00540295589887
0.0047892624939
0.00378712876134
0.00173416183832
0.00160465999222
0.00347060605544
0.00438072146515
0.0049482901503
0.00530539530963
0.0055232852947
0.00565078701042
0.00572465876334
0.00576998054948
0.00580188931255
0.00582371385552
0.00583576324315
0.0058308760505
0.00579103772853
0.00568601044532
0.00547551601788
0.00510958223489
0.00451849367024
0.00356857793611
0.00163854279059
0.00143972288934
0.00309498358886
0.00391064284885
0.00442356877303
0.00475147396223
0.00495557760903
0.00507779571175
0.00514932274812
0.00519172008638
0.00521807364675
0.0052342262859
0.00523991040112
0.00522790389484
0.00518236203775
0.00507833641996
0.00488222552674
0.00455014628318
0.00401948364033
0.00317159556083
0.00146564966868
0.00116914813776
0.00246477558327
0.0031175991349
0.00352789096277
0.00379007880889
0.00395330376525
0.00405118419854
0.00410795503794
0.00414042478628
0.00415881406045
0.00416843735497
0.00416935337595
0.00415554360628
0.00411508164744
0.00402919414963
0.00387151740863
0.00360662467686
0.00318360858426
0.0025088373175
0.00118223428107
0.000765046430948
0.0011870616056
0.00146738997105
0.00164486809943
0.00175735444122
0.00182672811492
0.00186792505611
0.00189104484828
0.00190330782654
0.00190920215488
0.00191095087238
0.0019085406095
0.00189998772507
0.0018800009912
0.00184123339401
0.00177218308202
0.0016577004919
0.00147510530871
0.0011871368684
0.000760854672954
0.000845102327213
0.00128791509717
0.00156910359008
0.00172771068806
0.00180374710341
0.00182642977598
0.00182253472437
0.0018099799293
0.00179812303463
0.00179007264713
0.00178785806977
0.00179170924355
0.00180027778332
0.00180871300389
0.00180568076885
0.00177343066315
0.00168926277052
0.00152440274213
0.0012394995606
0.000802273133203
0.00129583968182
0.00263383595529
0.00327556708298
0.00362756706795
0.00379991547463
0.00386168931061
0.00386112129895
0.00383305029834
0.00380302275774
0.00378561368266
0.00378517240496
0.00379989773628
0.00382642694572
0.00385259176306
0.00385068853341
0.00378192366911
0.00359845896102
0.00323831447408
0.00259644849043
0.00125948043941
0.00158096511604
0.00328408917565
0.00407534820837
0.00450773841993
0.00471497828461
0.0047753744402
0.00474829988438
0.00468619613076
0.00462952926559
0.00459536508516
0.0045875723739
0.00460603200598
0.00465019322592
0.00470537210372
0.00473400360104
0.00467837906253
0.00447224067323
0.0040395517487
0.00325211122217
0.00155050067972
0.00174012449743
0.00364603335511
0.00451928476029
0.00498456467958
0.00518450640564
0.00520008493256
0.00510699956539
0.00498437281168
0.00488847111686
0.00483612946189
0.00482457551167
0.00485592859175
0.00493527973572
0.0050476924479
0.00514151261411
0.00513480550972
0.00494593986203
0.00449031247929
0.00362619449157
0.00171772011078
0.00181620166161
0.00382715370243
0.00473648842876
0.00519694361657
0.00534920619083
0.00527355509667
0.00506084612093
0.00483293184788
0.00467774346047
0.00460503088112
0.00459217592367
0.00464423254519
0.00478384325363
0.00500341180145
0.00522025104784
0.00530625068574
0.00516862268282
0.00472297395122
0.00382560300935
0.00180317884761
0.00184076200655
0.00389164948031
0.00480252579261
0.00522749714298
0.00529442037761
0.00506388850673
0.00461471228626
0.00414999709038
0.00389045967813
0.00379917977428
0.00378949477358
0.00386659065741
0.00411546382476
0.00458425009121
0.00503846573234
0.00527828539166
0.00522479408502
0.00481417360412
0.00391344885151
0.0018385558214
0.00183822396013
0.00389094641932
0.00478219698396
0.00515364577756
0.00510907451575
0.00464294881704
0.00366197035943
0.00242912748157
0.00201666774799
0.00191849978002
0.00191873379494
0.00200437018118
0.0023774734366
0.00370562588778
0.00467035615409
0.00513424627477