/*--------------------------------*- C++ -*----------------------------------*\
| =========                 |                                                 |
| \\      /  F ield         | OpenFOAM: The Open Source CFD Toolbox           |
|  \\    /   O peration     | Version:  v1606+                                |
|   \\  /    A nd           | Web:      www.OpenFOAM.com                      |
|    \\/     M anipulation  |                                                 |
\*---------------------------------------------------------------------------*/
FoamFile
{
    version     2.0;
    format      ascii;
    class       volScalarField;
    location    "1.74";
    object      alpha.air;
}
// * * * * * * * * * * * * * * * * * * * * * * * * * * * * * * * * * * * * * //

dimensions      [0 0 0 0 0 0 0];

internalField   nonuniform List<scalar> 
6000
(
0.562005
0.562005
0.562005
0.562005
0.562005
0.563353
0.559976
0.560085
0.559084
0.559083
0.559083
0.559082
0.559082
0.559082
0.559082
0.559085
0.559215
0.558698
0.558696
0.558697
0.558697
0.558697
0.558697
0.558697
0.558697
0.558697
0.558697
0.558698
0.558926
0.5689
0.588403
0.605078
0.610669
0.6148
0.620825
0.625622
0.625507
0.633884
0.633707
0.628478
0.61613
0.595016
0.591879
0.59273
0.599228
0.60545
0.605575
0.605462
0.600223
0.59277
0.588354
0.580838
0.568235
0.563466
0.561084
0.565657
0.558699
0.558698
0.568996
0.569009
0.564755
0.564755
0.564755
0.564756
0.58255
0.605744
0.612699
0.627488
0.635839
0.641507
0.612651
0.57573
0.567028
0.566874
0.566984
0.571419
0.584486
0.590881
0.58276
0.571882
0.57173
0.570995
0.569787
0.571893
0.595679
0.623212
0.603082
0.559721
0.559735
0.55972
0.564755
0.564755
0.572208
0.576539
0.584018
0.603391
0.607602
0.617123
0.641602
0.641602
0.633135
0.597841
0.566877
0.566938
0.566733
0.568174
0.590402
0.602285
0.592602
0.591914
0.617932
0.634091
0.651906
0.673734
0.714416
0.740474
0.728327
0.675766
0.598873
0.60844
0.640893
0.618269
0.64867
0.650402
0.635894
0.633684
0.618749
0.605064
0.634478
0.641601
0.641601
0.617146
0.567006
0.566724
0.566847
0.566723
0.598903
0.62116
0.620135
0.647671
0.683088
0.698663
0.718103
0.744251
0.761918
0.761961
0.761948
0.761986
0.734917
0.732986
0.687115
0.68713
0.687144
0.687157
0.68716
0.677457
0.642609
0.605114
0.621377
0.640211
0.640838
0.621763
0.584996
0.566738
0.566593
0.568122
0.612816
0.645691
0.658006
0.686513
0.706996
0.709139
0.710659
0.725759
0.748322
0.761917
0.761948
0.761941
0.761933
0.761891
0.6871
0.687115
0.68713
0.687141
0.687146
0.663471
0.630585
0.602284
0.603758
0.621093
0.62681
0.615233
0.61261
0.617826
0.615366
0.60467
0.631113
0.657379
0.668643
0.681242
0.694347
0.683763
0.660994
0.654339
0.671115
0.69739
0.724463
0.757358
0.761891
0.761866
0.683726
0.682434
0.677194
0.660216
0.627342
0.589381
0.577926
0.574654
0.573005
0.586671
0.594222
0.596145
0.625885
0.680533
0.702343
0.679509
0.656303
0.65341
0.655115
0.654966
0.657389
0.630149
0.585457
0.561598
0.555712
0.575958
0.616127
0.682554
0.735701
0.745006
0.61216
0.608634
0.589027
0.55562
0.516579
0.501991
0.510036
0.522413
0.528171
0.54501
0.550215
0.560337
0.622703
0.71274
0.747546
0.741862
0.688733
0.647525
0.627047
0.612959
0.598999
0.5615
0.514875
0.491237
0.483218
0.484516
0.502993
0.547203
0.629755
0.664484
0.511188
0.511053
0.483121
0.467966
0.466949
0.466913
0.470551
0.482852
0.496292
0.504734
0.513111
0.514006
0.60695
0.722472
0.751304
0.751529
0.719837
0.64989
0.596327
0.565097
0.537625
0.502894
0.477054
0.467906
0.465827
0.465824
0.465845
0.466632
0.518132
0.546925
0.530803
0.56116
0.55217
0.544186
0.496402
0.466959
0.466908
0.47078
0.486185
0.487005
0.502906
0.48029
0.57078
0.715814
0.751261
0.751216
0.737771
0.658012
0.575055
0.525105
0.497352
0.476653
0.466105
0.465904
0.465823
0.465867
0.520315
0.538616
0.557733
0.506247
0.658241
0.70177
0.706058
0.705839
0.672956
0.55968
0.466989
0.467359
0.486418
0.488091
0.495494
0.471388
0.520089
0.695105
0.751208
0.751265
0.741691
0.664471
0.56076
0.49764
0.481297
0.475791
0.467915
0.465891
0.476602
0.592138
0.666631
0.673094
0.673414
0.567735
0.734782
0.747523
0.747526
0.747526
0.747522
0.728176
0.60139
0.471406
0.486196
0.485173
0.476872
0.464702
0.475214
0.657803
0.748832
0.751224
0.735616
0.656221
0.542975
0.482073
0.469192
0.471965
0.465623
0.477038
0.609789
0.691092
0.692106
0.692107
0.692107
0.654966
0.729296
0.747519
0.747522
0.747522
0.747518
0.747514
0.722959
0.577641
0.475324
0.473947
0.459985
0.461604
0.464098
0.59599
0.720911
0.731353
0.703247
0.617864
0.513224
0.470982
0.459843
0.460742
0.456555
0.549228
0.669163
0.686725
0.692105
0.692106
0.692107
0.662052
0.694481
0.745192
0.736657
0.732261
0.729438
0.726762
0.715706
0.644555
0.497701
0.45961
0.453477
0.453678
0.455572
0.541776
0.647447
0.660798
0.626184
0.548475
0.47719
0.459004
0.456222
0.456415
0.456318
0.561055
0.637168
0.655507
0.673353
0.686109
0.691286
0.620075
0.653511
0.72231
0.698718
0.686452
0.679657
0.67462
0.669295
0.633528
0.519946
0.453502
0.453431
0.453446
0.455267
0.518316
0.565798
0.574307
0.5422
0.488457
0.460097
0.456223
0.456382
0.456209
0.456458
0.533967
0.584515
0.613322
0.635678
0.648528
0.654097
0.549055
0.624614
0.684017
0.65128
0.632959
0.623836
0.61851
0.613544
0.602187
0.536904
0.453536
0.453466
0.453526
0.536538
0.562976
0.571342
0.569306
0.546075
0.514526
0.504806
0.498681
0.483069
0.458427
0.460477
0.518965
0.548772
0.578179
0.597138
0.5942
0.577132
0.490739
0.596766
0.646644
0.612043
0.590505
0.579729
0.574487
0.570491
0.566274
0.547217
0.499378
0.484742
0.566635
0.708256
0.724751
0.697806
0.681936
0.675716
0.683558
0.70011
0.697757
0.6675
0.601973
0.55272
0.533902
0.535154
0.552119
0.563234
0.540314
0.499203
0.460444
0.568409
0.615902
0.581121
0.558225
0.547699
0.543001
0.540432
0.538008
0.536777
0.530271
0.549126
0.658499
0.787673
0.839363
0.85091
0.856119
0.86491
0.880507
0.891248
0.889061
0.859922
0.763438
0.630968
0.55142
0.532188
0.535145
0.527459
0.492238
0.460778
0.452241
0.533997
0.586978
0.55606
0.534208
0.524403
0.518966
0.516228
0.515572
0.516827
0.520016
0.543548
0.637111
0.767182
0.84819
0.892482
0.919129
0.935936
0.942408
0.942938
0.941146
0.924395
0.826508
0.652174
0.552703
0.52375
0.515465
0.491199
0.463528
0.451947
0.452223
0.494965
0.550512
0.533814
0.515382
0.50534
0.498064
0.493141
0.491657
0.493351
0.498858
0.512787
0.575164
0.697481
0.806568
0.880075
0.92454
0.94404
0.943992
0.944025
0.943988
0.935535
0.842493
0.620979
0.527893
0.507833
0.489353
0.468448
0.45464
0.450916
0.453688
0.465941
0.501863
0.511865
0.499466
0.488731
0.480115
0.472926
0.468905
0.469332
0.474471
0.485029
0.514309
0.603955
0.719457
0.846834
0.923528
0.943986
0.944011
0.943979
0.944002
0.935464
0.848862
0.58623
0.490725
0.478944
0.470056
0.458552
0.451482
0.450611
0.455147
0.454528
0.466746
0.487588
0.485096
0.475469
0.465168
0.457944
0.454401
0.453601
0.456687
0.463541
0.478829
0.525827
0.617455
0.81237
0.923688
0.944006
0.943972
0.943992
0.939552
0.920128
0.829292
0.574241
0.46471
0.460336
0.460357
0.453285
0.450543
0.450544
0.455432
0.454515
0.454211
0.46699
0.47255
0.464317
0.455389
0.451988
0.45197
0.451983
0.451971
0.452395
0.459026
0.477644
0.541328
0.79365
0.916657
0.937458
0.937528
0.934768
0.915283
0.863717
0.753588
0.598575
0.524115
0.476452
0.460105
0.451532
0.450542
0.450636
0.502998
0.459637
0.45268
0.457121
0.462121
0.456246
0.45199
0.451967
0.451998
0.455168
0.451998
0.452656
0.455762
0.46175
0.549471
0.775023
0.883527
0.905785
0.907431
0.899901
0.857273
0.768383
0.667679
0.666901
0.70715
0.644242
0.480661
0.45556
0.452723
0.508394
0.55721
0.466134
0.452677
0.452663
0.455333
0.452451
0.45197
0.45203
0.471722
0.55661
0.476993
0.461184
0.468198
0.526471
0.641186
0.761548
0.823327
0.844121
0.848135
0.837896
0.786796
0.7146
0.695289
0.759645
0.784091
0.737898
0.57804
0.475812
0.501548
0.555328
0.578028
0.472039
0.457264
0.452212
0.452217
0.452202
0.453703
0.492625
0.660527
0.794623
0.719807
0.643166
0.658376
0.712811
0.753683
0.766277
0.781578
0.795984
0.800857
0.792441
0.759392
0.751589
0.776269
0.80795
0.785862
0.720474
0.62574
0.53037
0.533218
0.560812
0.561522
0.493907
0.493567
0.453347
0.452207
0.452219
0.464384
0.532652
0.759326
0.902472
0.906258
0.850908
0.827053
0.826492
0.823345
0.804234
0.796404
0.798964
0.801187
0.801631
0.794117
0.820837
0.830435
0.811322
0.765218
0.67856
0.593887
0.549063
0.542047
0.554725
0.552624
0.509233
0.509139
0.469102
0.45734
0.452223
0.458195
0.543407
0.773317
0.914823
0.935934
0.918284
0.885655
0.86352
0.853371
0.843945
0.835547
0.831282
0.832503
0.842889
0.8541
0.863061
0.842127
0.797617
0.724098
0.637703
0.567463
0.538075
0.538857
0.550206
0.547834
0.50919
0.509185
0.488077
0.493341
0.466641
0.458332
0.567508
0.770205
0.902427
0.935922
0.935209
0.908317
0.876827
0.860585
0.855972
0.858027
0.865075
0.871002
0.878635
0.884511
0.875825
0.837553
0.766376
0.678218
0.603444
0.550063
0.532498
0.535305
0.544017
0.54221
0.491521
0.509138
0.507855
0.506842
0.49403
0.495079
0.587594
0.723716
0.868917
0.935936
0.941058
0.918655
0.881477
0.856651
0.848795
0.857817
0.875519
0.884297
0.884469
0.884405
0.877932
0.826236
0.728912
0.634667
0.573409
0.538707
0.52953
0.53099
0.535398
0.534166
0.459279
0.49243
0.507607
0.507573
0.500307
0.507064
0.542637
0.654321
0.819888
0.933841
0.941446
0.922572
0.880673
0.843981
0.833103
0.850972
0.873811
0.883997
0.884401
0.884469
0.873646
0.810206
0.696507
0.590428
0.544967
0.528785
0.525478
0.52502
0.525653
0.524922
0.448424
0.457603
0.475596
0.484461
0.487547
0.490119
0.50316
0.585967
0.759708
0.928266
0.941508
0.92285
0.872549
0.823649
0.813333
0.834193
0.859175
0.872052
0.874702
0.872937
0.854111
0.787028
0.666641
0.545805
0.516576
0.512961
0.514317
0.515708
0.515681
0.515776
0.448397
0.448882
0.456638
0.46791
0.47493
0.479448
0.489387
0.54044
0.700227
0.916954
0.941451
0.919446
0.856539
0.801189
0.791384
0.809202
0.828801
0.838525
0.840209
0.834787
0.812379
0.750392
0.635312
0.516041
0.489379
0.491272
0.494554
0.500339
0.504641
0.506896
0.448399
0.448419
0.451213
0.459004
0.46744
0.473938
0.48434
0.523221
0.674595
0.898409
0.94155
0.915759
0.840392
0.778485
0.767354
0.780127
0.788201
0.785753
0.777477
0.766114
0.746255
0.69732
0.60031
0.506297
0.475277
0.475666
0.477403
0.48337
0.491863
0.496905
0.448471
0.448423
0.449017
0.45449
0.462429
0.470404
0.481295
0.518154
0.68144
0.883533
0.941438
0.916028
0.829748
0.751734
0.735023
0.73957
0.731981
0.709081
0.68574
0.670014
0.657796
0.627021
0.56489
0.507463
0.475158
0.471305
0.471308
0.474021
0.481358
0.487305
0.455283
0.448423
0.448432
0.451795
0.458295
0.46536
0.473013
0.512287
0.691275
0.880099
0.941386
0.918816
0.826316
0.725929
0.695347
0.68185
0.649337
0.607702
0.581585
0.570394
0.567757
0.560041
0.538524
0.512261
0.491094
0.473945
0.471431
0.472162
0.475629
0.480156
0.467169
0.448456
0.448423
0.450416
0.455803
0.460689
0.464799
0.504249
0.687334
0.881411
0.941361
0.921504
0.829258
0.710443
0.658133
0.614372
0.563924
0.521559
0.506287
0.502292
0.504451
0.512793
0.52055
0.516605
0.510945
0.488251
0.474018
0.472361
0.474002
0.475495
0.49652
0.462485
0.44848
0.450075
0.458479
0.47204
0.475522
0.500377
0.657856
0.875201
0.939541
0.920276
0.837328
0.718011
0.643653
0.563756
0.511717
0.486831
0.474968
0.471981
0.473203
0.48083
0.500983
0.516496
0.516441
0.504499
0.480746
0.472621
0.473765
0.472582
0.509412
0.521
0.456797
0.453166
0.475923
0.531859
0.522032
0.500316
0.603298
0.84794
0.930598
0.913758
0.847264
0.749935
0.665951
0.580404
0.521468
0.493631
0.471502
0.463236
0.462549
0.462747
0.475143
0.502353
0.516347
0.514988
0.494244
0.474464
0.473839
0.47201
0.50982
0.590295
0.464668
0.460814
0.504958
0.539578
0.537399
0.510922
0.569527
0.796629
0.909447
0.899615
0.852281
0.781906
0.705456
0.621536
0.55568
0.512376
0.482872
0.471128
0.462265
0.46099
0.46103
0.474695
0.504155
0.51485
0.511326
0.478631
0.475398
0.472007
0.511626
0.590244
0.464666
0.470701
0.530458
0.539578
0.521272
0.487027
0.543833
0.740266
0.87292
0.877015
0.847175
0.781039
0.683036
0.586492
0.542071
0.530174
0.527948
0.515729
0.49196
0.462002
0.460948
0.46101
0.478173
0.50979
0.511145
0.485665
0.481591
0.472382
0.51678
0.590362
0.503533
0.505025
0.531905
0.532188
0.485779
0.485594
0.536671
0.699873
0.824396
0.845445
0.823985
0.738589
0.573389
0.48743
0.496124
0.51826
0.53051
0.530505
0.53047
0.502123
0.46264
0.460964
0.461663
0.487739
0.511084
0.494846
0.49673
0.479873
0.482803
0.590272
0.579508
0.546578
0.531401
0.487529
0.48572
0.51058
0.561164
0.677127
0.774022
0.804168
0.774601
0.642706
0.479235
0.452695
0.450183
0.462804
0.488996
0.520321
0.530444
0.53041
0.497345
0.463492
0.461766
0.471228
0.502622
0.509823
0.524137
0.478907
0.456783
0.523682
0.579079
0.542189
0.49334
0.467392
0.491034
0.592234
0.609953
0.663224
0.724674
0.752834
0.706929
0.559919
0.469523
0.455376
0.444845
0.441945
0.442007
0.457952
0.481636
0.495279
0.491046
0.473756
0.463844
0.467701
0.492001
0.529794
0.55809
0.477528
0.464249
0.460155
0.516214
0.494017
0.463365
0.467077
0.546914
0.626322
0.640002
0.647581
0.672767
0.690771
0.636928
0.523423
0.474671
0.470359
0.458565
0.444795
0.439187
0.438551
0.438629
0.445224
0.452638
0.455031
0.454553
0.458328
0.477672
0.518667
0.558361
0.507037
0.481022
0.460119
0.464964
0.459822
0.459045
0.459328
0.560845
0.613863
0.628814
0.619555
0.616632
0.619906
0.575919
0.5084
0.490183
0.490157
0.488839
0.47858
0.456556
0.440434
0.436255
0.436179
0.43621
0.438863
0.442077
0.446364
0.457359
0.487452
0.558293
0.584901
0.481268
0.460031
0.459482
0.459111
0.459349
0.566857
0.560235
0.570834
0.577883
0.566652
0.554666
0.54933
0.531107
0.501385
0.489465
0.490171
0.490156
0.490158
0.482696
0.459313
0.443613
0.437943
0.436119
0.436069
0.43654
0.439002
0.444951
0.460139
0.502483
0.597693
0.481299
0.481155
0.464124
0.466023
0.623389
0.808034
0.620288
0.54409
0.503787
0.497107
0.496217
0.495051
0.496801
0.492412
0.486502
0.486409
0.489006
0.490111
0.483679
0.462369
0.455833
0.490848
0.442309
0.436135
0.436115
0.436204
0.438959
0.447162
0.46816
0.577329
0.481195
0.499545
0.486057
0.549904
0.871685
0.948447
0.842694
0.696944
0.582965
0.498228
0.474467
0.474455
0.474442
0.474903
0.474708
0.474672
0.47489
0.47492
0.481093
0.52
0.603378
0.761874
0.593287
0.442386
0.437933
0.436191
0.436268
0.44292
0.470388
0.545933
0.463107
0.499329
0.499585
0.791449
0.965706
0.973498
0.956789
0.915991
0.849524
0.712302
0.574728
0.510072
0.489129
0.485069
0.484245
0.490825
0.512428
0.561652
0.668429
0.805124
0.88639
0.939842
0.83431
0.558081
0.469135
0.438391
0.436221
0.440536
0.472117
0.488183
0.457182
0.487872
0.590597
0.91529
0.975025
0.974946
0.970965
0.966582
0.959396
0.933145
0.864804
0.778659
0.718243
0.699482
0.703561
0.730963
0.786283
0.858658
0.92323
0.955089
0.963729
0.966668
0.941742
0.718554
0.511975
0.485284
0.436363
0.43688
0.450881
0.456513
0.449907
0.474059
0.672712
0.935296
0.975126
0.975165
0.972189
0.969974
0.968737
0.967294
0.9623
0.95085
0.937869
0.932925
0.934616
0.942211
0.953675
0.963141
0.967823
0.968729
0.968147
0.967772
0.964111
0.885644
0.5902
0.470723
0.436321
0.438808
0.449382
0.449498
0.44986
0.454112
0.696932
0.937557
0.975098
0.97568
0.973129
0.970898
0.969438
0.968582
0.968327
0.968463
0.968993
0.969459
0.969384
0.969041
0.969358
0.969376
0.969154
0.968887
0.968108
0.967904
0.966673
0.95162
0.76412
0.466742
0.437953
0.448592
0.493599
0.449628
0.449935
0.450089
0.692621
0.931332
0.974573
0.976023
0.974094
0.971884
0.970114
0.968933
0.968479
0.968904
0.969911
0.970112
0.970112
0.969628
0.969605
0.969446
0.969162
0.968894
0.96813
0.968181
0.966904
0.963657
0.899923
0.624211
0.454052
0.45504
0.603678
0.53532
0.449269
0.450056
0.687769
0.920603
0.973456
0.976019
0.974803
0.97262
0.970653
0.969336
0.968724
0.969124
0.970047
0.970108
0.970106
0.969727
0.969677
0.969507
0.969289
0.969078
0.968314
0.968482
0.966939
0.9655
0.942959
0.785019
0.587868
0.545227
0.683449
0.630574
0.449377
0.516553
0.687338
0.908412
0.971808
0.976016
0.975237
0.972869
0.970815
0.969567
0.969004
0.969332
0.970102
0.970104
0.970103
0.969906
0.969789
0.969637
0.969452
0.969182
0.968515
0.968586
0.967012
0.965964
0.955519
0.842319
0.661988
0.653414
0.684055
0.597861
0.489923
0.606356
0.663793
0.890999
0.969044
0.976015
0.975494
0.972795
0.970514
0.969554
0.969135
0.969416
0.970053
0.970103
0.970097
0.970061
0.969853
0.969682
0.969488
0.969152
0.96862
0.968601
0.966929
0.96599
0.960402
0.855888
0.654807
0.683915
0.684032
0.516864
0.539384
0.647172
0.642011
0.865729
0.964588
0.976016
0.975593
0.972129
0.96939
0.968902
0.968938
0.96919
0.96956
0.969961
0.970089
0.970067
0.969786
0.96954
0.96932
0.968925
0.968575
0.968573
0.966468
0.965587
0.96191
0.859189
0.580671
0.605207
0.554581
0.472146
0.558393
0.655616
0.633444
0.830338
0.959073
0.975482
0.975459
0.970558
0.96734
0.96725
0.967772
0.968098
0.968223
0.968847
0.969421
0.969534
0.969261
0.968927
0.968621
0.968099
0.968021
0.968073
0.965593
0.964303
0.959632
0.850411
0.543759
0.52699
0.473344
0.463549
0.572205
0.655618
0.628484
0.796626
0.953153
0.97408
0.974561
0.967935
0.964513
0.964749
0.965444
0.965822
0.966085
0.966843
0.967752
0.96816
0.968013
0.967685
0.967314
0.966753
0.966949
0.966927
0.964121
0.962025
0.956676
0.846769
0.529101
0.47272
0.463615
0.463618
0.577454
0.655565
0.626899
0.765501
0.948274
0.971859
0.972354
0.964274
0.961048
0.961595
0.962329
0.962775
0.963471
0.964485
0.965558
0.966191
0.966219
0.966003
0.965672
0.965151
0.965449
0.965217
0.962307
0.959384
0.954782
0.871227
0.534018
0.463639
0.463619
0.469539
0.577761
0.655566
0.612741
0.738399
0.943927
0.969354
0.969017
0.959802
0.956932
0.957778
0.958707
0.95953
0.96078
0.962136
0.963334
0.964049
0.964209
0.964127
0.963916
0.963496
0.963771
0.963354
0.960578
0.95694
0.953481
0.913562
0.639102
0.463682
0.463629
0.469007
0.547254
0.655555
0.582175
0.716437
0.940038
0.967117
0.965206
0.954881
0.952113
0.953101
0.954431
0.956168
0.958199
0.959938
0.96126
0.962005
0.962236
0.96226
0.962192
0.961938
0.962092
0.96156
0.959012
0.9552
0.952219
0.92899
0.759772
0.505808
0.497805
0.49074
0.497821
0.59594
0.543542
0.701503
0.937704
0.965057
0.961507
0.949686
0.946572
0.94741
0.949206
0.952353
0.955584
0.957834
0.959285
0.960083
0.960374
0.960468
0.96047
0.960394
0.960399
0.959856
0.957537
0.95408
0.951529
0.929577
0.801197
0.610259
0.618331
0.537104
0.469597
0.511765
0.508873
0.696901
0.936701
0.962726
0.957869
0.944281
0.940258
0.940524
0.942893
0.947813
0.952688
0.955703
0.957336
0.958183
0.958551
0.9587
0.95871
0.958798
0.958654
0.958099
0.955896
0.95332
0.951106
0.926327
0.782613
0.622359
0.635019
0.575339
0.468014
0.475166
0.4833
0.724507
0.936005
0.95949
0.953819
0.938637
0.933077
0.932174
0.935533
0.942743
0.949566
0.953513
0.955382
0.956241
0.956669
0.956853
0.956873
0.957026
0.956761
0.956064
0.954006
0.952716
0.950331
0.91951
0.734718
0.602516
0.634771
0.578337
0.468154
0.468193
0.474561
0.760666
0.934546
0.954776
0.948705
0.932487
0.924815
0.922307
0.927263
0.937608
0.946697
0.951425
0.953444
0.954325
0.954756
0.954971
0.955025
0.955104
0.954753
0.953625
0.951828
0.951817
0.948514
0.907612
0.689475
0.579645
0.634936
0.562525
0.468188
0.468203
0.513107
0.779469
0.928424
0.948087
0.94169
0.925269
0.915201
0.911038
0.918403
0.93301
0.944573
0.949679
0.951623
0.952531
0.952925
0.953152
0.953253
0.953121
0.952677
0.950847
0.949305
0.950112
0.945666
0.896171
0.652514
0.551603
0.634746
0.548193
0.475616
0.518121
0.54914
0.776281
0.918108
0.938693
0.931817
0.915991
0.903669
0.898382
0.909529
0.929741
0.943162
0.948213
0.949988
0.950904
0.951247
0.951435
0.951513
0.951115
0.950481
0.947848
0.945982
0.947156
0.942128
0.888606
0.63351
0.518729
0.58185
0.498727
0.520626
0.562879
0.559303
0.763501
0.905885
0.926074
0.919143
0.904257
0.889188
0.884408
0.902149
0.928452
0.942084
0.946743
0.948413
0.949308
0.949608
0.949709
0.949616
0.948925
0.947919
0.9445
0.94152
0.942561
0.937246
0.882047
0.627724
0.488172
0.512112
0.471827
0.54498
0.56288
0.559415
0.752242
0.890063
0.910481
0.905195
0.890355
0.871658
0.870548
0.898715
0.928564
0.94114
0.945154
0.946668
0.947567
0.947758
0.947718
0.94736
0.946261
0.944687
0.940612
0.935821
0.936469
0.930744
0.872403
0.638476
0.476726
0.474653
0.466335
0.529018
0.56288
0.559436
0.746538
0.874176
0.89375
0.890678
0.874231
0.852592
0.858823
0.899076
0.929559
0.940223
0.943445
0.944701
0.945554
0.945564
0.945328
0.94461
0.942922
0.94064
0.936055
0.929321
0.929099
0.922259
0.858678
0.650902
0.501744
0.466353
0.46634
0.516591
0.552423
0.559179
0.757467
0.860147
0.876817
0.874829
0.856043
0.83469
0.851407
0.90172
0.930207
0.939034
0.941422
0.942367
0.943099
0.942949
0.942419
0.94116
0.938847
0.935603
0.930622
0.922111
0.920332
0.911715
0.836879
0.618406
0.54691
0.521501
0.505625
0.502881
0.518211
0.567444
0.758013
0.843375
0.858239
0.856433
0.837829
0.820424
0.849504
0.904995
0.929659
0.937225
0.938926
0.939454
0.940023
0.939737
0.938775
0.936842
0.933925
0.929679
0.924109
0.91402
0.910038
0.899883
0.822785
0.601111
0.55658
0.558222
0.522616
0.490529
0.503626
0.605286
0.748452
0.820246
0.835514
0.833206
0.818268
0.810662
0.854697
0.907406
0.92843
0.934628
0.9359
0.93597
0.936303
0.935857
0.934333
0.931672
0.928146
0.923181
0.916697
0.905327
0.897973
0.886404
0.813031
0.609603
0.517305
0.558224
0.53996
0.474375
0.483203
0.628217
0.734747
0.78812
0.805636
0.801577
0.790985
0.805532
0.862817
0.908829
0.926932
0.931157
0.932224
0.932033
0.931946
0.931248
0.929147
0.925785
0.92167
0.916248
0.908557
0.89598
0.883348
0.8701
0.798268
0.582994
0.507211
0.557561
0.517248
0.473742
0.531425
0.627829
0.695958
0.744301
0.767356
0.762502
0.760735
0.804034
0.865935
0.908186
0.924937
0.927018
0.927752
0.927639
0.926841
0.925819
0.923226
0.919249
0.914523
0.908719
0.899893
0.885906
0.866831
0.849258
0.767437
0.558057
0.500469
0.530344
0.490331
0.553766
0.572599
0.598717
0.641261
0.690588
0.726794
0.736515
0.747376
0.790099
0.846427
0.895587
0.919969
0.923125
0.922386
0.922508
0.921004
0.919452
0.916473
0.911979
0.906638
0.900365
0.890861
0.874538
0.849355
0.822972
0.733668
0.548432
0.485136
0.491874
0.467026
0.569126
0.569101
0.579497
0.586444
0.625877
0.694949
0.724885
0.738242
0.762636
0.805922
0.868151
0.910349
0.919174
0.91674
0.916194
0.914527
0.912088
0.908759
0.903871
0.897939
0.891068
0.88113
0.862468
0.830951
0.789338
0.707051
0.561835
0.469699
0.467061
0.458843
0.569126
0.546996
0.558214
0.546986
0.525948
0.618799
0.711007
0.725473
0.727677
0.760457
0.839137
0.898902
0.914461
0.911348
0.908375
0.907213
0.903734
0.899967
0.894741
0.888251
0.880692
0.870254
0.849767
0.811151
0.749645
0.677186
0.570515
0.48158
0.460521
0.458837
0.554841
0.508217
0.515501
0.490765
0.470919
0.530305
0.672043
0.698749
0.685962
0.724306
0.821508
0.889816
0.908173
0.904791
0.899089
0.898214
0.893892
0.889621
0.884065
0.877061
0.868764
0.857651
0.835622
0.790136
0.708135
0.605655
0.528854
0.492701
0.479813
0.488117
0.497452
0.470177
0.471431
0.462867
0.470905
0.531801
0.627079
0.661337
0.646225
0.704898
0.813085
0.880801
0.898163
0.894643
0.887001
0.885779
0.881079
0.876312
0.870425
0.862973
0.85393
0.841958
0.818807
0.767968
0.667697
0.539704
0.482116
0.473562
0.481339
0.483243
0.459726
0.459654
0.459677
0.462801
0.483018
0.548858
0.603267
0.621457
0.616362
0.693091
0.798542
0.86179
0.879658
0.87729
0.869274
0.867423
0.862719
0.857455
0.851063
0.843048
0.833065
0.820032
0.796269
0.743098
0.64087
0.516878
0.471124
0.461584
0.460626
0.461253
0.460719
0.460534
0.461961
0.471328
0.515237
0.558519
0.586838
0.586702
0.584087
0.654217
0.755256
0.821349
0.845382
0.847165
0.841424
0.839386
0.834785
0.828779
0.821212
0.811711
0.799819
0.784966
0.761042
0.710879
0.62047
0.516879
0.472237
0.464551
0.460354
0.460349
0.471965
0.466457
0.469555
0.495471
0.539756
0.552577
0.559256
0.545179
0.537043
0.579978
0.667677
0.746061
0.786266
0.797553
0.797039
0.795433
0.790176
0.782254
0.771956
0.758954
0.743416
0.727088
0.705921
0.665845
0.594017
0.515775
0.478664
0.472051
0.461915
0.460341
0.473353
0.469378
0.481365
0.517286
0.530001
0.520793
0.503519
0.48633
0.480981
0.498313
0.555137
0.634684
0.693745
0.721291
0.728174
0.727494
0.719962
0.708202
0.693565
0.675995
0.656944
0.643027
0.632218
0.609458
0.561945
0.50847
0.48736
0.477081
0.490179
0.460344
0.473733
0.473877
0.483484
0.502437
0.486175
0.466728
0.454335
0.449202
0.449419
0.453951
0.471776
0.517723
0.577673
0.618567
0.633373
0.634388
0.624765
0.610224
0.593571
0.575571
0.558654
0.550665
0.553606
0.552342
0.535607
0.505648
0.492314
0.48565
0.496399
0.469943
0.473588
0.47019
0.46962
0.463902
0.448618
0.44375
0.443772
0.446987
0.450443
0.452741
0.452742
0.456397
0.484235
0.51783
0.535618
0.538659
0.530825
0.519297
0.50771
0.497238
0.489253
0.486117
0.490901
0.502992
0.512971
0.506734
0.497932
0.490981
0.496399
0.495251
0.472181
0.457435
0.450195
0.442904
0.442847
0.443723
0.451419
0.462448
0.469312
0.469596
0.459762
0.453807
0.452021
0.463777
0.474734
0.477938
0.475001
0.470292
0.466264
0.463358
0.461585
0.460583
0.46092
0.467049
0.484142
0.500154
0.499138
0.494885
0.493688
0.501542
0.45877
0.446025
0.442342
0.442343
0.444999
0.463843
0.485188
0.497819
0.500977
0.501503
0.480559
0.459874
0.451471
0.451462
0.455543
0.457629
0.457213
0.455816
0.454508
0.453539
0.452936
0.452368
0.451242
0.450964
0.457866
0.476403
0.490724
0.493535
0.487635
0.501407
0.446483
0.44233
0.442346
0.447917
0.4775
0.504649
0.519001
0.523902
0.52159
0.525389
0.500472
0.466119
0.450597
0.448036
0.449815
0.451242
0.451208
0.450486
0.449776
0.449247
0.448909
0.448612
0.447776
0.446065
0.445771
0.452502
0.468185
0.481209
0.47789
0.496085
0.442352
0.442348
0.447689
0.486281
0.523875
0.533028
0.533245
0.531337
0.532976
0.532947
0.501879
0.464253
0.447984
0.445112
0.446276
0.44738
0.447445
0.44703
0.446647
0.446441
0.446429
0.446528
0.446537
0.445543
0.443076
0.442563
0.448463
0.460497
0.464974
0.485071
0.442616
0.448039
0.473692
0.529965
0.542437
0.542522
0.536552
0.535756
0.535707
0.530826
0.496846
0.457586
0.444257
0.442471
0.44354
0.444392
0.444505
0.444337
0.444243
0.444374
0.444798
0.445529
0.446551
0.446468
0.443986
0.440961
0.440513
0.444944
0.452961
0.477309
0.4486
0.463366
0.51059
0.5311
0.542407
0.541483
0.5353
0.535705
0.534115
0.516122
0.481409
0.44852
0.440907
0.440407
0.441367
0.441974
0.44212
0.44214
0.44228
0.442708
0.443605
0.445181
0.447408
0.449625
0.44814
0.442669
0.439084
0.438961
0.443627
0.468608
0.453277
0.470578
0.501806
0.518014
0.517786
0.51451
0.526704
0.532109
0.519218
0.489824
0.457727
0.441428
0.438487
0.438802
0.439537
0.439947
0.440114
0.440248
0.440518
0.441118
0.442382
0.444865
0.449267
0.455803
0.459606
0.451351
0.441099
0.438883
0.438946
0.454656
0.467714
0.487575
0.485733
0.487854
0.464077
0.451822
0.489374
0.508074
0.486312
0.458757
0.442705
0.437489
0.4369
0.437426
0.437917
0.438194
0.438361
0.438527
0.438803
0.439363
0.440663
0.443765
0.450488
0.463041
0.47698
0.477981
0.453836
0.43896
0.438872
0.443243
0.487563
0.487526
0.456129
0.4496
0.440052
0.440712
0.454786
0.46404
0.454043
0.44169
0.436699
0.435519
0.435729
0.436156
0.436461
0.436656
0.436799
0.436938
0.437128
0.437461
0.438327
0.440986
0.448166
0.464238
0.487087
0.491284
0.490583
0.450505
0.43891
0.438862
0.487534
0.453059
0.437498
0.43745
0.437688
0.442439
0.446997
0.44397
0.439048
0.435526
0.434419
0.4344
0.434698
0.434975
0.435169
0.43531
0.435419
0.435509
0.435598
0.435688
0.435939
0.437267
0.442284
0.458025
0.481135
0.491282
0.491282
0.488781
0.44906
0.438894
0.463154
0.437504
0.437409
0.437418
0.439637
0.442025
0.440078
0.43684
0.434603
0.433563
0.433388
0.433533
0.433741
0.433912
0.434047
0.434154
0.434231
0.434281
0.434307
0.434265
0.434121
0.434278
0.436459
0.445636
0.466924
0.482548
0.491276
0.49128
0.49118
0.445545
0.441821
0.437414
0.437402
0.438667
0.443038
0.440615
0.436815
0.434373
0.433058
0.432607
0.432599
0.432719
0.43286
0.432988
0.433098
0.433186
0.433244
0.43327
0.43327
0.433206
0.432957
0.432569
0.432881
0.436552
0.448269
0.46422
0.481555
0.486126
0.491217
0.46498
0.437401
0.437395
0.438402
0.452533
0.446548
0.439144
0.434693
0.432662
0.43189
0.431738
0.431816
0.431949
0.43209
0.432217
0.432323
0.432403
0.432452
0.432468
0.43246
0.432415
0.432228
0.431761
0.431278
0.432099
0.43668
0.446765
0.460877
0.473827
0.491184
0.480517
0.437389
0.437466
0.479671
0.467362
0.445775
0.435833
0.431979
0.430933
0.430803
0.430926
0.431111
0.4313
0.431473
0.431617
0.431727
0.431802
0.431846
0.431856
0.431841
0.431811
0.431713
0.431385
0.430787
0.430438
0.431685
0.436216
0.444774
0.455508
0.478691
0.484674
0.437536
0.487789
0.488053
0.463687
0.438459
0.430793
0.429372
0.4296
0.430019
0.430351
0.43061
0.430851
0.431063
0.431223
0.431328
0.431388
0.431417
0.431415
0.431387
0.431352
0.431303
0.431134
0.430706
0.430144
0.429998
0.431432
0.43553
0.442236
0.455083
0.479023
0.457857
0.527088
0.476618
0.446111
0.43015
0.427244
0.427911
0.428856
0.429549
0.430024
0.430365
0.430659
0.43091
0.43108
0.431166
0.431188
0.431177
0.431138
0.431083
0.431022
0.430972
0.430893
0.430652
0.430214
0.429792
0.42979
0.43125
0.434769
0.442433
0.465659
0.47816
0.527076
0.455543
0.431254
0.425436
0.425938
0.427379
0.428487
0.429276
0.42987
0.430334
0.430709
0.430999
0.431173
0.431232
0.431212
0.431131
0.431024
0.430917
0.430814
0.43073
0.430664
0.430538
0.430248
0.429853
0.429559
0.429628
0.43104
0.436545
0.455754
0.481258
0.484683
0.435754
0.424205
0.423848
0.425643
0.427252
0.428339
0.42917
0.429865
0.430442
0.430968
0.431348
0.431514
0.431496
0.431373
0.431207
0.43104
0.430867
0.430711
0.43058
0.430482
0.43039
0.430214
0.429913
0.429557
0.429191
0.42932
0.433045
0.447567
0.473321
0.440181
0.424239
0.423594
0.423835
0.425748
0.427284
0.428323
0.429166
0.430002
0.430924
0.431757
0.432241
0.432315
0.4321
0.431766
0.431424
0.431127
0.430882
0.430672
0.430499
0.430364
0.43026
0.430132
0.429906
0.429593
0.429146
0.428962
0.43096
0.441082
0.452697
0.42714
0.42361
0.423585
0.424183
0.426035
0.427374
0.428337
0.429352
0.430852
0.432641
0.433994
0.434348
0.433975
0.433257
0.432502
0.431844
0.431321
0.430938
0.430658
0.430447
0.430288
0.430166
0.430041
0.429865
0.429615
0.429207
0.428963
0.429839
0.436451
0.437189
0.425068
0.42359
0.423587
0.424821
0.426415