/*--------------------------------*- C++ -*----------------------------------*\
| =========                 |                                                 |
| \\      /  F ield         | OpenFOAM: The Open Source CFD Toolbox           |
|  \\    /   O peration     | Version:  v1606+                                |
|   \\  /    A nd           | Web:      www.OpenFOAM.com                      |
|    \\/     M anipulation  |                                                 |
\*---------------------------------------------------------------------------*/
FoamFile
{
    version     2.0;
    format      ascii;
    class       volScalarField;
    location    "1.74";
    object      k.air;
}
// * * * * * * * * * * * * * * * * * * * * * * * * * * * * * * * * * * * * * //

dimensions      [0 2 -2 0 0 0 0];

internalField   nonuniform List<scalar> 
6000
(
0.886817
0.947691
0.961669
0.969027
0.97498
0.978474
0.979358
0.986587
0.996044
1.00104
0.996164
0.985558
0.980752
0.9816
0.986319
0.992584
0.997422
0.997386
0.991288
0.985859
0.983522
0.981722
0.980774
0.983649
0.991414
0.998643
0.986503
0.965691
0.947962
0.886549
0.613287
0.899738
0.97242
1.00188
1.02004
1.0324
1.0453
1.07766
1.12065
1.14635
1.13389
1.10404
1.092
1.09609
1.10638
1.12195
1.13872
1.13493
1.10644
1.07583
1.06145
1.05221
1.04425
1.04459
1.05861
1.0759
1.05313
0.991407
0.900124
0.621406
0.431755
0.765445
0.887645
0.943092
0.979579
1.01111
1.04488
1.08604
1.11838
1.13266
1.12925
1.12004
1.11709
1.12007
1.12502
1.13152
1.1376
1.13606
1.12379
1.10714
1.09748
1.09536
1.09257
1.08616
1.08166
1.07437
1.03482
0.947493
0.788215
0.438097
0.374417
0.687793
0.827248
0.902157
0.9527
0.999579
1.04655
1.09622
1.13518
1.15253
1.16147
1.17395
1.18395
1.19407
1.19456
1.18967
1.18752
1.1867
1.18191
1.17317
1.17151
1.17327
1.16469
1.14441
1.12578
1.09998
1.04244
0.944781
0.769147
0.395121
0.348372
0.651829
0.791902
0.876738
0.940805
0.998841
1.05451
1.11673
1.17271
1.19931
1.21636
1.24774
1.29238
1.32246
1.32239
1.30492
1.28684
1.28122
1.2728
1.25254
1.23923
1.2318
1.21226
1.18664
1.16856
1.1424
1.06302
0.937833
0.766353
0.392037
0.314816
0.613308
0.757799
0.853412
0.930922
0.99981
1.06007
1.12979
1.20302
1.25257
1.29054
1.34536
1.43947
1.51747
1.53023
1.49035
1.43032
1.3947
1.35897
1.30722
1.27161
1.24885
1.2209
1.19733
1.17963
1.14247
1.05227
0.915561
0.744183
0.376851
0.290021
0.574854
0.720115
0.824135
0.916134
0.996444
1.063
1.14107
1.22764
1.30608
1.37744
1.46177
1.59434
1.74091
1.79906
1.73722
1.60078
1.49894
1.4189
1.34186
1.29167
1.25773
1.22145
1.1861
1.15289
1.10451
1.01609
0.877714
0.711315
0.363524
0.268299
0.531151
0.674517
0.787434
0.892958
0.989779
1.07966
1.17313
1.27203
1.37449
1.47939
1.59461
1.74437
1.91313
2.01359
1.97517
1.78717
1.61655
1.49627
1.40717
1.34836
1.30539
1.25978
1.20876
1.14677
1.06543
0.95729
0.819062
0.646255
0.335278
0.230027
0.468858
0.627372
0.766756
0.903125
1.02735
1.13892
1.24661
1.35829
1.47832
1.60813
1.74868
1.90977
2.04592
2.11276
2.10466
1.96357
1.76936
1.62677
1.5323
1.46584
1.41247
1.35916
1.2974
1.21831
1.11326
0.970501
0.781161
0.55453
0.276484
0.198547
0.435834
0.634013
0.811473
0.980119
1.12285
1.24435
1.36332
1.48897
1.62274
1.77166
1.93308
2.11528
2.20878
2.20172
2.17948
2.11285
1.955
1.81193
1.71657
1.64426
1.58412
1.52508
1.45423
1.3639
1.247
1.08196
0.844925
0.526929
0.23562
0.210131
0.480556
0.715654
0.912891
1.08458
1.23485
1.37155
1.50969
1.6556
1.80881
1.97432
2.15536
2.36197
2.43309
2.3515
2.29358
2.26028
2.17075
2.04667
1.95506
1.88451
1.82218
1.75186
1.66242
1.55308
1.42597
1.25104
1.00015
0.610123
0.252512
0.267086
0.586999
0.814694
1.00448
1.18038
1.34284
1.49684
1.66687
1.84697
2.02876
2.21283
2.41077
2.62314
2.69289
2.55397
2.46363
2.44478
2.42029
2.33041
2.25295
2.19128
2.12601
2.03468
1.91026
1.76656
1.61525
1.40515
1.14405
0.797614
0.352781
0.296957
0.641849
0.871895
1.06739
1.24995
1.4379
1.62248
1.81708
2.0476
2.27368
2.49429
2.7188
2.92331
2.98166
2.79417
2.68431
2.6816
2.70734
2.67034
2.62768
2.57514
2.49565
2.3644
2.18154
1.99435
1.78085
1.53251
1.25895
0.93163
0.433579
0.299959
0.662908
0.91029
1.11832
1.31265
1.5097
1.72875
1.95748
2.23584
2.54259
2.83819
3.11869
3.33284
3.33837
3.09238
2.96219
2.98111
3.05154
3.08864
3.09926
3.05554
2.9419
2.73169
2.47049
2.2156
1.94794
1.67189
1.37502
1.0193
0.462935
0.309825
0.689652
0.952523
1.17386
1.38332
1.59558
1.8284
2.1065
2.42978
2.82858
3.2411
3.62637
3.90929
3.8658
3.53582
3.3711
3.39324
3.504
3.62161
3.6811
3.63873
3.47219
3.1591
2.79646
2.46557
2.15264
1.83659
1.50564
1.11287
0.506817
0.333778
0.734405
1.0106
1.24747
1.47692
1.71285
1.96784
2.27274
2.64715
3.12931
3.68118
4.22458
4.65465
4.60936
4.23359
4.01384
4.00772
4.13328
4.29347
4.37252
4.31696
4.08463
3.66581
3.19616
2.78746
2.41132
2.04747
1.67845
1.25316
0.584368
0.36365
0.790686
1.08627
1.34448
1.59945
1.86523
2.15274
2.48071
2.8906
3.43534
4.11195
4.84083
5.42071
5.45635
5.14496
4.88083
4.823
4.9271
5.07459
5.14796
5.07846
4.78661
4.26209
3.6803
3.18067
2.72932
2.31787
1.91199
1.44239
0.674438
0.391378
0.858626
1.18209
1.46685
1.75018
2.04776
2.37153
2.73462
3.16585
3.72271
4.44361
5.25785
5.88692
6.02715
5.85794
5.63522
5.57116
5.66153
5.7876
5.8461
5.75113
5.41209
4.82517
4.1845
3.59934
3.08517
2.62901
2.17839
1.64533
0.7545
0.426015
0.941138
1.29759
1.61064
1.92118
2.24654
2.59971
2.99386
3.4463
3.98677
4.63777
5.34771
5.91884
6.14572
6.11849
6.03102
6.0561
6.16228
6.24196
6.23615
6.08125
5.73814
5.21131
4.5803
3.96419
3.41989
2.92052
2.41457
1.81723
0.815715
0.472515
1.04508
1.43386
1.77416
2.10864
2.4555
2.8271
3.23454
3.68929
4.20243
4.76769
5.3498
5.87056
6.12391
6.13765
6.1538
6.27671
6.39316
6.41464
6.33627
6.1551
5.87095
5.40968
4.81996
4.22322
3.66745
3.13346
2.58372
1.93673
0.862006
0.532032
1.17488
1.59431
1.95961
2.316
2.68121
3.0653
3.47501
3.91521
4.38635
4.87432
5.35201
5.8025
6.08915
6.14565
6.19342
6.33799
6.44094
6.43137
6.33487
6.19524
5.98914
5.54163
4.96613
4.38407
3.82086
3.26738
2.69438
2.01733
0.895492
0.595733
1.32441
1.77987
2.17095
2.55133
2.93774
3.33645
3.74848
4.17135
4.59794
5.0161
5.40964
5.77406
6.07198
6.18286
6.21201
6.3085
6.38903
6.38449
6.31948
6.23983
6.08192
5.65258
5.08137
4.49314
3.92205
3.35706
2.76863
2.07138
0.918906
0.660171
1.48634
1.98616
2.41068
2.82156
3.23785
3.66167
4.08649
4.50096
4.88888
5.24471
5.56669
5.85521
6.11655
6.25754
6.23643
6.25401
6.30422
6.3205
6.3072
6.26643
6.09866
5.71798
5.19423
4.60141
4.015
3.43203
2.82126
2.0991
0.92622
0.728953
1.6526
2.20753
2.67625
3.12923
3.58957
4.05521
4.51173
4.93644
5.29227
5.59205
5.84806
6.07233
6.28068
6.37822
6.27451
6.23053
6.24921
6.27867
6.30801
6.28102
6.09202
5.77232
5.3302
4.74257
4.12346
3.5061
2.86006
2.09436
0.87052
0.79996
1.82107
2.43944
2.96198
3.47062
3.99165
4.52267
5.04481
5.51401
5.83175
6.07235
6.26127
6.41969
6.53939
6.51332
6.35071
6.28413
6.28054
6.30189
6.33178
6.30329
6.11456
5.8404
5.44467
4.88009
4.23229
3.57077
2.88757
2.08847
0.878312
0.869425
1.98913
2.67478
3.25829
3.83288
4.4314
5.0616
5.68064
6.1792
6.49701
6.69058
6.79249
6.8539
6.84243
6.66616
6.52207
6.45497
6.42768
6.41267
6.41493
6.35756
6.16858
5.85966
5.41724
4.87803
4.26313
3.59742
2.90504
2.12764
0.927613
0.93349
2.14929
2.90385
3.55008
4.19215
4.8763
5.5967
6.25793
6.76197
7.17331
7.3593
7.34807
7.22895
7.06041
6.90109
6.79626
6.71195
6.65137
6.58606
6.52549
6.42698
6.19617
5.79826
5.32455
4.79916
4.21598
3.58519
2.91937
2.16679
0.955483
1.00672
2.29836
3.12242
3.82334
4.52091
5.26122
6.00703
6.65702
7.16351
7.65201
7.89477
7.75833
7.45103
7.22221
7.11656
7.03286
6.91385
6.77392
6.64325
6.52665
6.38081
6.08095
5.66524
5.21278
4.69816
4.126
3.52953
2.90192
2.17171
0.96261
1.09384
2.4859
3.34034
4.07439
4.80678
5.578
6.3378
6.99566
7.50485
7.9572
8.1948
7.99388
7.59453
7.30926
7.17274
7.07088
6.90827
6.71443
6.543
6.3841
6.18305
5.88142
5.50965
5.07869
4.56249
4.00909
3.43968
2.84454
2.1443
0.953598
1.18753
2.68076
3.55437
4.30599
5.0619
5.86306
6.64929
7.35131
7.89232
8.2747
8.432
8.19062
7.72451
7.34768
7.12649
6.96079
6.76576
6.55388
6.35545
6.15995
5.94536
5.67689
5.33921
4.90622
4.39874
3.87063
3.33109
2.76659
2.095
0.934348
1.2713
2.83837
3.73531
4.51143
5.29596
6.12237
6.95083
7.73459
8.35258
8.64733
8.67417
8.39542
7.88003
7.3954
7.05652
6.80941
6.58875
6.37812
6.17323
5.96063
5.73551
5.47773
5.14563
4.71233
4.22326
3.72205
3.21301
2.67825
2.03504
0.909627
1.33134
2.94401
3.87828
4.68024
5.49136
6.35255
7.25191
8.14768
8.87664
9.09366
8.95872
8.6351
8.07939
7.48459
7.02251
6.69154
6.43914
6.2263
6.02148
5.80193
5.55899
5.28224
4.94396
4.51826
4.04873
3.57281
3.09221
2.58494
1.96933
0.882218
1.34275
3.013
3.98201
4.81648
5.65987
6.56257
7.54066
8.55892
9.42221
9.59021
9.28774
8.91403
8.32512
7.62144
7.03999
6.6243
6.3315
6.10898
5.90118
5.67073
5.39929
5.09528
4.75221
4.33595
3.88292
3.42868
2.97204
2.48882
1.89937
0.852494
1.35337
3.05755
4.05672
4.92309
5.80127
6.75078
7.80033
8.92956
9.94095
10.1046
9.63024
9.21566
8.60205
7.79213
7.09936
6.60277
6.26106
6.01342
5.78837
5.53589
5.23642
4.91177
4.56765
4.16596
3.72842
3.29201
2.85478
2.39191
1.8264
0.82034
1.3663
3.08529
4.10515
4.99759
5.90945
6.9041
8.01915
9.25153
10.3941
10.5861
9.94907
9.49586
8.86034
7.96379
7.18344
6.61929
6.22679
5.93757
5.675
5.38995
5.06842
4.73107
4.38706
4.00327
3.58406
3.16421
2.7439
2.29864
1.75445
0.787791
1.37163
3.09488
4.12803
5.03922
5.97688
7.00783
8.17787
9.49853
10.7471
11.0003
10.2233
9.70832
9.06821
8.11798
7.28336
6.66437
6.21553
5.86133
5.53873
5.21784
4.88797
4.54855
4.20386
3.8391
3.44571
3.0448
2.64133
2.21284
1.68804
0.757509
1.35893
3.08542
4.12493
5.04657
5.99758
7.04688
8.24945
9.62674
10.9483
11.2954
10.4341
9.83511
9.21122
8.26427
7.40075
6.73094
6.21163
5.77713
5.39145
5.03628
4.69869
4.36426
4.02176
3.67146
3.30944
2.9338
2.54773
2.13534
1.62875
0.730887
1.33248
3.05658
4.098
5.02311
5.97285
7.01551
8.21296
9.59766
10.9567
11.4139
10.5545
9.88236
9.2875
8.39418
7.52878
6.81465
6.22467
5.71848
5.27627
4.88355
4.52536
4.18615
3.85044
3.51308
3.17544
2.82866
2.46336
2.06645
1.57651
0.708575
1.28391
2.99503
4.05032
4.97765
5.9148
6.92066
8.06259
9.40152
10.7728
11.3368
10.5516
9.86545
9.30809
8.49796
7.65142
6.90424
6.25403
5.69101
5.20077
4.77118
4.38779
4.03503
3.70044
3.3754
3.05419
2.72991
2.38732
2.00654
1.53131
0.689757
1.26545
2.91649
3.9899
4.92002
5.83688
6.78282
7.82784
9.058
10.3858
11.0342
10.413
9.79313
9.2974
8.57107
7.74667
6.9795
6.29455
5.68993
5.15821
4.69596
4.29053
3.92474
3.58442
3.26369
2.95387
2.64412
2.32053
1.95634
1.49357
0.673068
1.27077
2.83964
3.9222
4.85058
5.72662
6.61096
7.56985
8.67636
9.87577
10.5076
10.0907
9.63903
9.26512
8.62547
7.80346
7.00078
6.29433
5.6766
5.13002
4.64751
4.22814
3.85331
3.50826
3.18461
2.87769
2.5766
2.26515
1.9152
1.46246
0.659458
1.26557
2.81073
3.86698
4.77847
5.61275
6.44109
7.32205
8.30402
9.31022
9.84185
9.6248
9.37737
9.16007
8.62072
7.79238
6.93475
6.19665
5.58402
5.06381
4.6001
4.18823
3.81583
3.46698
3.14045
2.82992
2.53033
2.22496
1.88136
1.4359
0.649261
1.29446
2.85127
3.85039
4.71615
5.52309
6.31223
7.14328
8.01101
8.7819
9.15127
9.08338
8.99151
8.87209
8.41376
7.59893
6.73916
6.01942
5.43469
4.94532
4.52356
4.1446
3.79349
3.45381
3.12609
2.81223
2.50639
2.19972
1.85706
1.41519
0.641729
1.35457
2.91826
3.87369
4.69717
5.48504
6.27043
7.07998
7.8515
8.37365
8.57977
8.60009
8.55887
8.42542
7.97628
7.2249
6.46151
5.80331
5.25305
4.7997
4.41973
4.08088
3.76355
3.45146
3.13424
2.8193
2.50756
2.19212
1.84412
1.4022
0.644185
1.37214
2.9752
3.92455
4.73736
5.53449
6.33894
7.12644
7.761
8.03136
8.14124
8.23598
8.19375
7.97313
7.4798
6.81669
6.16534
5.5869
5.09096
4.6749
4.31886
4.01019
3.7274
3.44768
3.15328
2.84611
2.53082
2.2034
1.84522
1.40027
0.65226
1.35684
3.04628
4.02102
4.86537
5.70156
6.51771
7.20117
7.55148
7.65699
7.76806
7.89954
7.85215
7.536
7.01427
6.43118
5.87862
5.38255
4.95004
4.5797
4.26228
3.98642
3.72925
3.46899
3.19115
2.8923
2.57417
2.23437
1.8607
1.41025
0.64723
1.35617
3.11825
4.17321
5.08979
5.98107
6.7739
7.155
7.21101
7.26349
7.36988
7.46357
7.38537
7.0523
6.5668
6.06129
5.59365
5.17907
4.82028
4.50974
4.24161
4.00716
3.78657
3.54725
3.27304
2.97003
2.64283
2.28724
1.88913
1.41122
0.629055
1.39998
3.24354
4.37716
5.38407
6.40408
7.11716
6.99802
6.89128
6.88228
6.91404
6.91766
6.80698
6.52452
6.12302
5.69956
5.3096
4.97048
4.68191
4.44023
4.23884
4.07058
3.91004
3.68769
3.4027
3.08182
2.73625
2.36247
1.94087
1.41594
0.597697
1.47433
3.37492
4.5719
5.6733
6.74423
7.20213
6.85118
6.62446
6.50812
6.43571
6.36112
6.22807
5.99908
5.68721
5.35059
5.03626
4.76546
4.54167
4.36403
4.23683
4.16085
4.08649
3.90237
3.57634
3.22008
2.84693
2.45109
2.00939
1.44601
0.580078
1.52513
3.50114
4.7019
5.75859
6.6516
6.80091
6.56741
6.33926
6.15415
5.99587
5.86374
5.70916
5.50877
5.26526
5.00822
4.76782
4.56259
4.39913
4.28327
4.22993
4.24382
4.25566
4.09516
3.77255
3.37091
2.96402
2.5429
2.08094
1.49839
0.60251
1.56805
3.55241
4.72458
5.65766
6.25389
6.30996
6.15761
6.00892
5.84457
5.65662
5.46488
5.27846
5.08751
4.88875
4.69278
4.51656
4.37414
4.27365
4.2253
4.22631
4.24542
4.24229
4.16291
3.88124
3.50001
3.07666
2.62965
2.14999
1.56976
0.662297
1.55949
3.54001
4.6156
5.46898
5.88926
5.87553
5.72661
5.59606
5.48021
5.34043
5.16785
4.98626
4.80366
4.63125
4.47577
4.34612
4.2488
4.1856
4.15312
4.13232
4.11346
4.10032
4.06421
3.87333
3.56093
3.1644
2.70593
2.20266
1.60401
0.68946
1.51074
3.45145
4.44624
5.25636
5.56468
5.48113
5.32366
5.19004
5.07484
4.96253
4.8409
4.7078
4.56201
4.41984
4.29343
4.18926
4.10804
4.04705
4.00396
3.97691
3.96375
3.961
3.94749
3.85252
3.58783
3.21809
2.75224
2.22648
1.5956
0.674236
1.41337
3.26772
4.23273
5.01927
5.23749
5.11717
4.96054
4.83194
4.72026
4.61435
4.50805
4.4007
4.29155
4.18556
4.08957
4.00819
3.94307
3.8937
3.8578
3.83422
3.82629
3.83962
3.86244
3.82696
3.62458
3.27487
2.79875
2.23896
1.56056
0.652663
1.28937
3.00721
3.97576
4.73948
4.90528
4.7784
4.63563
4.51986
4.41804
4.32213
4.22949
4.14041
4.05534
3.97575
3.90441
3.84302
3.79199
3.75084
3.71911
3.69917
3.69717
3.72177
3.77031
3.78807
3.64495
3.31374
2.87482
2.28403
1.57911
0.675588
1.16178
2.70332
3.70262
4.43717
4.59292
4.47636
4.35266
4.25211
4.16112
4.07476
3.9934
3.91837
3.85015
3.78865
3.73423
3.68683
3.64614
3.61222
3.58609
3.57106
3.57322
3.5999
3.65112
3.694
3.60937
3.309
2.93626
2.37137
1.69169
0.74852
1.10609
2.48253
3.47926
4.16901
4.33549
4.22702
4.11623
4.02712
3.94405
3.86462
3.79153
3.72659
3.6699
3.62063
3.57787
3.54063
3.50817
3.48086
3.46027
3.44962
3.45372
3.47686
3.51724
3.55383
3.51004
3.27366
2.92382
2.46145
1.8563
0.842552
1.12513
2.42534
3.33794
3.97535
4.15324
4.03819
3.92711
3.84199
3.76202
3.68601
3.6182
3.56018
3.51143
3.47062
3.43604
3.40615
3.38004
3.35823
3.34242
3.33549
3.34104
3.36161
3.39572
3.43222
3.42755
3.25724
2.93584
2.53652
1.98395
0.944629
1.14936
2.44867
3.25433
3.84733
4.03566
3.90241
3.77951
3.69136
3.61
3.53428
3.46912
3.41546
3.37201
3.33693
3.30805
3.28345
3.26221
3.24485
3.23307
3.22953
3.2374
3.25943
3.29724
3.34976
3.39468
3.2877
2.96639
2.57208
2.02007
0.939996
1.14654
2.43209
3.18442
3.74999
3.95445
3.80271
3.6633
3.56819
3.48264
3.4053
3.34096
3.28972
3.24958
3.21813
3.19292
3.17196
3.15436
3.14058
3.13225
3.13202
3.14318
3.16974
3.21685
3.29057
3.38043
3.32832
2.99566
2.5682
1.98074
0.874907
1.13137
2.4003
3.11918
3.66517
3.88125
3.72125
3.56789
3.46527
3.37466
3.29529
3.23097
3.18086
3.14256
3.11312
3.08992
3.07117
3.05611
3.04513
3.03977
3.04262
3.05731
3.08904
3.14532
3.23546
3.35537
3.35184
3.00361
2.52679
1.89233
0.830949
1.11788
2.36987
3.05966
3.5895
3.81716
3.64933
3.48557
3.37659
3.28165
3.20091
3.1366
3.08698
3.04942
3.02075
2.99829
2.98056
2.96704
2.95809
2.95511
2.96053
2.97823
3.0141
3.07609
3.17299
3.30284
3.33375
2.98059
2.46907
1.81545
0.798609
1.11133
2.34105
3.00697
3.52264
3.75338
3.57974
3.40981
3.29661
3.19939
3.11885
3.05524
3.00604
2.96854
2.93965
2.91697
2.89935
2.88655
2.87892
2.8777
2.88508
2.905
2.94325
3.00656
3.10026
3.21886
3.2503
2.92826
2.42085
1.76053
0.77032
1.11814
2.30806
2.95742
3.46057
3.68682
3.50724
3.3347
3.21982
3.12331
3.04536
2.98396
2.93578
2.89809
2.86828
2.84466
2.82654
2.81388
2.80699
2.80698
2.81579
2.83718
2.87625
2.93776
3.02318
3.12149
3.13487
2.86431
2.39234
1.7464
0.780877
1.09199
2.27029
2.90274
3.39198
3.6058
3.42429
3.25457
3.14135
3.04896
2.97655
2.91976
2.87396
2.8362
2.80501
2.77994
2.76094
2.74808
2.74159
2.74237
2.75226
2.77463
2.81379
2.87293
2.95189
3.03808
3.04416
2.79924
2.37962
1.80015
0.839761
0.996943
2.1808
2.8241
3.30267
3.49942
3.3249
3.16518
3.05786
2.97298
2.90917
2.86001
2.81852
2.78107
2.74822
2.72142
2.70137
2.68816
2.68188
2.68328
2.69405
2.71723
2.75636
2.81412
2.89151
2.97852
2.99569
2.76311
2.36513
1.82484
0.856214
0.906779
2.05594
2.71307
3.18523
3.36159
3.2059
3.06444
2.96811
2.89387
2.84135
2.80287
2.7678
2.73112
2.69639
2.66774
2.64662
2.63304
2.62691
2.62887
2.64043
2.66435
2.70349
2.76073
2.83968
2.93406
2.96716
2.7403
2.34446
1.8204
0.856676
0.849926
1.92392
2.57051
3.03409
3.19067
3.06696
2.95268
2.87274
2.81185
2.7727
2.7475
2.72056
2.6848
2.64796
2.6175
2.59546
2.58158
2.57563
2.57809
2.59038
2.61495
2.65413
2.71129
2.79275
2.89605
2.93993
2.71446
2.31955
1.80294
0.858866
0.794479
1.79372
2.41189
2.85292
2.99958
2.9153
2.83405
2.77433
2.72849
2.7039
2.69374
2.67565
2.64039
2.60131
2.56926
2.54655
2.53251
2.52674
2.52965
2.54251
2.56754
2.60664
2.66357
2.74702
2.85723
2.90638
2.67805
2.28617
1.77921
0.861344
0.767503
1.68775
2.26713
2.66316
2.80521
2.76177
2.71408
2.6758
2.64577
2.63633
2.64185
2.63177
2.59596
2.55471
2.52163
2.49859
2.48454
2.4789
2.48205
2.49516
2.52018
2.55867
2.61442
2.69766
2.80964
2.8587
2.6278
2.2432
1.75089
0.842931
0.743682
1.63079
2.14282
2.49318
2.62945
2.6168
2.5969
2.57892
2.56494
2.57133
2.59262
2.58748
2.54957
2.5068
2.47342
2.45042
2.43645
2.43082
2.43387
2.44663
2.4707
2.50729
2.55965
2.63816
2.74388
2.78482
2.55363
2.17539
1.68447
0.777671
0.718995
1.56702
2.02852
2.34625
2.47032
2.48161
2.48378
2.48431
2.48643
2.50986
2.54567
2.54132
2.50043
2.45704
2.42396
2.40125
2.38735
2.38154
2.38402
2.3956
2.41746
2.45029
2.49599
2.56381
2.65313
2.67525
2.44775
2.08012
1.59323
0.712578
0.69604
1.4975
1.92306
2.2077
2.32396
2.35469
2.37516
2.39215
2.41063
2.45282
2.49971
2.49237
2.44876
2.40567
2.37329
2.35092
2.33696
2.33069
2.3321
2.34172
2.36023
2.38769
2.4244
2.4773
2.54388
2.5441
2.32519
1.96976
1.49526
0.66477
0.67024
1.42999
1.82404
2.078
2.1872
2.23486
2.27096
2.30278
2.33872
2.39994
2.45249
2.44014
2.39523
2.35331
2.32185
2.29976
2.28556
2.27849
2.27835
2.28541
2.29984
2.32134
2.34868
2.38629
2.43042
2.41042
2.201
1.86979
1.42246
0.645831
0.634877
1.36546
1.72652
1.9521
2.05936
2.12154
2.17217
2.21825
2.27198
2.34958
2.40274
2.38609
2.34135
2.30096
2.27038
2.24843
2.23372
2.22547
2.22335
2.22732
2.23739
2.25309
2.27222
2.29664
2.32144
2.28948
2.08916
1.78964
1.38988
0.640234
0.608227
1.30641
1.63293
1.83199
1.94101
2.01663
2.08049
2.14054
2.21038
2.29855
2.35031
2.3325
2.28885
2.24975
2.21975
2.1977
2.18219
2.17235
2.16766
2.16795
2.17346
2.18381
2.19636
2.21054
2.22115
2.17877
1.99299
1.71288
1.33513
0.622438
0.572946
1.24006
1.54597
1.72464
1.83751
1.92202
1.99705
2.07174
2.15263
2.24395
2.2977
2.28245
2.2393
2.20044
2.17058
2.1482
2.13162
2.11969
2.11175
2.10779
2.10835
2.11331
2.11986
2.12437
2.12224
2.07407
1.89946
1.63617
1.2808
0.603656
0.55115
1.17669
1.46281
1.632
1.75243
1.84418
1.92912
2.01372
2.09932
2.19076
2.25
2.23712
2.19261
2.15302
2.12313
2.10036
2.08253
2.06807
2.05634
2.04752
2.04253
2.04169
2.04195
2.03701
2.02249
1.96466
1.8001
1.55577
1.22402
0.574565
0.52458
1.12286
1.39054
1.55773
1.68303
1.78398
1.87656
1.96437
2.04856
2.14092
2.20671
2.19329
2.1469
2.10704
2.07767
2.05469
2.03548
2.01819
2.00226
1.98822
1.97729
1.97035
1.96443
1.95114
1.92298
1.85443
1.69918
1.47519
1.16147
0.536111
0.508721
1.07442
1.33308
1.49996
1.63033
1.74027
1.83535
1.92188
2.00125
2.09186
2.16063
2.14694
2.10042
2.06289
2.035
2.01187
1.99094
1.97057
1.9503
1.931
1.91407
1.90093
1.88948
1.86971
1.83145
1.75238
1.60484
1.40065
1.102
0.502131
0.48523
1.02913
1.28055
1.44918
1.58548
1.70431
1.80039
1.88265
1.95515
2.03805
2.10275
2.0947
2.05394
2.02178
1.99557
1.97176
1.94861
1.92509
1.90077
1.8766
1.85406
1.83508
1.81957
1.79842
1.75321
1.66559
1.52625
1.33773
1.054
0.481649
0.452885
0.977471
1.22575
1.4007
1.54711
1.67256
1.76537
1.84502
1.91022
1.98205
2.04087
2.04121
2.01131
1.98402
1.95776
1.9321
1.90647
1.8803
1.85295
1.82494
1.79759
1.77316
1.75335
1.73326
1.68781
1.59297
1.45819
1.28067
1.01172
0.466147
0.424404
0.929862
1.18119
1.36491
1.52032
1.6461
1.72671
1.80686
1.86763
1.92827
1.982
1.99381
1.9743
1.94588
1.91619
1.88797
1.86067
1.83345
1.80508
1.77513
1.74436
1.71552
1.69185
1.66884
1.62591
1.53338
1.40068
1.22727
0.9744
0.450825
0.412555
0.897845
1.14982
1.33726
1.49356
1.60799
1.68127
1.76008
1.82471
1.88147
1.92867
1.94866
1.93193
1.89743
1.86341
1.83396
1.80731
1.78154
1.75469
1.72504
1.69217
1.66156
1.6334
1.60931
1.57248
1.48947
1.36144
1.19043
0.940194
0.434922
0.406308
0.875822
1.12378
1.30959
1.45804
1.55443
1.62765
1.70236
1.77359
1.82844
1.86686
1.88071
1.86067
1.82525
1.79241
1.76536
1.74195
1.71955
1.69607
1.67059
1.64178
1.60999
1.57919
1.55401
1.52467
1.45371
1.33522
1.16902
0.92189
0.425356
0.39436
0.851479
1.09423
1.27334
1.40579
1.49638
1.57087
1.64248
1.71236
1.76023
1.78185
1.78531
1.76851
1.74012
1.71331
1.69081
1.67126
1.65215
1.63208
1.61102
1.58968
1.56167
1.53037
1.50358
1.47624
1.41318
1.30559
1.15069
0.913051
0.423728
0.379299
0.819167
1.05373
1.22139
1.34178
1.43358
1.50919
1.58025
1.64425
1.6799
1.68644
1.68031
1.66916
1.65136
1.63189
1.61374
1.59677
1.57957
1.56184
1.54382
1.52597
1.50577
1.4824
1.45516
1.42342
1.36189
1.25959
1.11494
0.895768
0.429091
0.361601
0.777863
0.999909
1.15554
1.27151
1.36597
1.44777
1.52124
1.57976
1.60721
1.6043
1.59002
1.57826
1.56646
1.552
1.53612
1.51967
1.5026
1.48551
1.46899
1.45335
1.43824
1.42337
1.40103
1.36247
1.29872
1.19871
1.06034
0.859544
0.42339
0.338468
0.729695
0.940244
1.09017
1.20936
1.30919
1.39548
1.46906
1.52286
1.54574
1.53931
1.5223
1.50736
1.49536
1.48147
1.46506
1.44749
1.42954
1.41196
1.39509
1.37882
1.36273
1.34679
1.32629
1.28756
1.22191
1.12533
0.993557
0.802655
0.402118
0.31182
0.683514
0.888854
1.03959
1.16104
1.26442
1.35225
1.42336
1.47239
1.49212
1.48491
1.47035
1.4566
1.44236
1.42522
1.40558
1.38512
1.36492
1.34532
1.32612
1.30677
1.28641
1.26384
1.23576
1.19475
1.13175
1.04084
0.91671
0.735718
0.368399
0.292649
0.648595
0.852232
1.00379
1.12839
1.23208
1.31564
1.37684
1.41599
1.43387
1.43249
1.42365
1.41174
1.39603
1.37541
1.35216
1.32845
1.30528
1.28266
1.26012
1.23688
1.21184
1.1831
1.14717
1.09928
1.03505
0.949376
0.83386
0.664255
0.334505
0.284624
0.630317
0.832599
0.985277
1.10886
1.20394
1.27129
1.31863
1.35073
1.3693
1.37555
1.37111
1.35986
1.34281
1.32057
1.29578
1.27048
1.24548
1.2207
1.19558
1.16928
1.14063
1.10765
1.06694
1.01412
0.945999
0.860076
0.749699
0.590404
0.294846
0.285276
0.630513
0.830147
0.978029
1.08821
1.16209
1.21662
1.2585
1.28856
1.30742
1.31482
1.30962
1.2985
1.28139
1.25951
1.23525
1.2102
1.18495
1.15937
1.13292
1.10483
1.07398
1.03867
0.995839
0.941095
0.870798
0.782887
0.672766
0.518446
0.256227
0.293092
0.642875
0.834162
0.966269
1.0486
1.11165
1.16407
1.20333
1.23016
1.24752
1.25074
1.24262
1.23228
1.21626
1.19586
1.17312
1.14927
1.12472
1.09933
1.07263
1.04395
1.01237
0.976456
0.933668
0.879333
0.808717
0.720039
0.609404
0.457902
0.224244
0.311099
0.663765
0.839815
0.93646
1.00152
1.06157
1.11305
1.14926
1.17156
1.18462
1.18154
1.1745
1.16559
1.15113
1.13256
1.1116
1.08923
1.06577
1.04111
1.01491
0.986645
0.955598
0.920635
0.879648
0.827881
0.758742
0.670043
0.559399
0.409844
0.197466
0.329711
0.675179
0.815809
0.887643
0.948495
1.00392
1.05379
1.08745
1.10558
1.11261
1.11075
1.10818
1.10101
1.08819
1.07142
1.05216
1.03122
1.00889
0.985167
0.959832
0.932565
0.902876
0.869872
0.831739
0.78463
0.719387
0.632221
0.521703
0.375662
0.176617
0.34235
0.664445
0.771869
0.839685
0.890428
0.937207
0.980204
1.01187
1.02971
1.03996
1.04537
1.04576
1.03989
1.02857
1.01344
0.995689
0.976029
0.954756
0.931932
0.907483
0.881255
0.852997
0.822174
0.78707
0.74412
0.686142
0.605482
0.498401
0.355819
0.164451
0.336105
0.623307
0.722711
0.787967
0.840657
0.884876
0.915627
0.942203
0.963749
0.97834
0.98623
0.987468
0.982565
0.972627
0.958978
0.942593
0.924079
0.903751
0.88173
0.858016
0.832527
0.805107
0.775593
0.743557
0.703669
0.652271
0.58363
0.487832
0.352353
0.160976
0.306786
0.5492
0.667423
0.738937
0.792466
0.83419
0.864761
0.889979
0.910208
0.92388
0.931388
0.932917
0.928967
0.92036
0.908092
0.892954
0.87549
0.856024
0.834717
0.811602
0.78659
0.759487
0.730212
0.699706
0.666152
0.618892
0.560327
0.481233
0.35899
0.16332
0.254552
0.48538
0.61389
0.692746
0.746886
0.786474
0.817637
0.842127
0.860241
0.872745
0.879976
0.88197
0.879023
0.871688
0.860698
0.84671
0.830219
0.811552
0.790892
0.768296
0.743673
0.716796
0.687541
0.656848
0.626948
0.58908
0.5356
0.468572
0.365232
0.17365
0.223866
0.438541
0.571186
0.654024
0.706137
0.744038
0.773853
0.796386
0.81301
0.824854
0.832123
0.834714
0.832741
0.826566
0.816726
0.803778
0.788175
0.770242
0.750175
0.728055
0.703819
0.677262
0.648232
0.617276
0.586076
0.55311
0.510054
0.447185
0.364487
0.184556
0.204522
0.407509
0.545883
0.624073
0.671328
0.706209
0.732902
0.753374
0.769045
0.780624
0.788104
0.791293
0.790181
0.785001
0.776153
0.764112
0.749295
0.73202
0.712496
0.690824
0.666989
0.640847
0.612245
0.581388
0.549089
0.515238
0.476746
0.424587
0.353609
0.184886
0.188809
0.403709
0.531831
0.596716
0.639368
0.670049
0.694207
0.713496
0.728769
0.740346
0.748105
0.751824
0.751424
0.747048
0.739006
0.72771
0.713553
0.696851
0.677819
0.656579
0.633157
0.607476
0.579401
0.548917
0.516222
0.481114
0.441984
0.393531
0.326816
0.179156
0.190549
0.407571
0.511519
0.568836
0.604692
0.634097
0.657843
0.677014
0.692366
0.70415
0.712244
0.716429
0.716588
0.71281
0.705359
0.694619
0.68097
0.664736
0.646141
0.62532
0.602322
0.577113
0.549581
0.51958
0.486941
0.451144
0.410655
0.361238
0.292456
0.163687
0.198786
0.404248
0.482223
0.532667
0.568843
0.599531
0.624185
0.643988
0.659873
0.672141
0.680696
0.685321
0.685886
0.68247
0.675353
0.664932
0.651607
0.635716
0.617491
0.597068
0.574499
0.549764
0.522754
0.493258
0.460902
0.424949
0.383682
0.333062
0.26192
0.144086
0.203197
0.384285
0.445301
0.494102
0.534096
0.567045
0.593347
0.61449
0.631488
0.644655
0.653886
0.658955
0.659734
0.656363
0.649226
0.638809
0.625573
0.60987
0.591929
0.57187
0.549728
0.525463
0.498955
0.469955
0.437998
0.402188
0.360715
0.309477
0.237272
0.129171
0.194424
0.34062
0.402316
0.456941
0.50121
0.536917
0.565605
0.58894
0.607834
0.622498
0.632736
0.638228
0.638879
0.635042
0.627357
0.616507
0.603042
0.587327
0.569562
0.549819
0.528086
0.504285
0.478262
0.449742
0.418212
0.382727
0.341409
0.290155
0.218124
0.117059
0.172347
0.29579
0.365817
0.423195
0.470976
0.50982
0.541771
0.568358
0.590221
0.607257
0.6189
0.624624
0.624455
0.619263
0.610223
0.598333
0.584243
0.56828
0.550561
0.531068
0.509711
0.48635
0.460791
0.432729
0.40163
0.366544
0.325624
0.27485
0.204208
0.107799
0.148389
0.25735
0.33416
0.394397
0.444815
0.487219
0.523487
0.554716
0.581026
0.601593
0.614953
0.620248
0.617868
0.609847
0.598307
0.584619
0.569452
0.552996
0.535188
0.515865
0.494826
0.47186
0.44672
0.419073
0.388382
0.353719
0.313319
0.263391
0.194761
0.101165
0.12993
0.227193
0.308143
0.370971
0.424394
0.471334
0.513459
0.551155
0.582969
0.607051
0.6216
0.625346
0.619447
0.607119
0.59186
0.575667
0.559033
0.541869
0.523849
0.504603
0.483795
0.461131
0.436318
0.409
0.378647
0.344368
0.304503
0.255561
0.188941
0.0966798
0.11564
0.204996
0.288022
0.354236
0.412007
0.465395
0.514858
0.559389
0.597786
0.626309
0.641021
0.640062
0.627479
0.609778
0.590764
0.57186
0.55359
0.535582
0.517219
0.497906
0.477172
0.454643
0.429992
0.40285
0.372693
0.338674
0.29925
0.251221
0.186429
0.0943257
0.103468
0.188691
0.274548
0.345951
0.410739
0.471265
0.529807
0.585586
0.632436
0.660697
0.667834
0.65812
0.639706
0.617095
0.594459
0.573541
0.554056
0.535273
0.516398
0.496764
0.475818
0.453137
0.428367
0.401135
0.370933
0.336946
0.297724
0.25025
0.186493
0.0938299
0.0941477
0.180304
0.270808
0.348527
0.421113
0.493321
0.566491
0.634817
0.67801
0.690196
0.686985
0.675858
0.654334
0.628398
0.603909
0.581485
0.560859
0.541165
0.52157
0.501298
0.479761
0.456534
0.431267
0.403587
0.372991
0.338669
0.299196
0.251606
0.188017
0.0941094
0.0883833
0.18197
0.277367
0.364439
0.450503
0.538685
0.625631
0.686183
0.70834
0.710116
0.710922
0.697373
0.669378
0.643244
0.619843
0.597968
0.577118
0.556645
0.535953
0.514403
0.491496
0.466928
0.440426
0.411638
0.38005
0.344829
0.304553
0.256319
0.192323
0.095469
0.0888553
0.193034
0.300069
0.401543
0.503137
0.606666
0.687566
0.719912
0.730486
0.742664
0.743601
0.715614
0.686207
0.66326
0.642703
0.622944
0.603373
0.583
0.561411
0.53823
0.513234
0.486385
0.457753
0.427078
0.39383
0.3571
0.315394
0.265781
0.200267
0.0989493
0.0945498
0.222346
0.344752
0.459599
0.57686
0.686561
0.736747
0.752531
0.775701
0.793135
0.767798
0.733597
0.708866
0.689302
0.672074
0.655648
0.638555
0.619191
0.597632
0.573257
0.545168
0.515133
0.483428
0.450069
0.414436
0.375491
0.331579
0.279622
0.211198
0.10409
0.110589
0.269438
0.405643
0.535066
0.663429
0.753886
0.779903
0.808855
0.845823
0.827788
0.786312
0.757857
0.738034
0.722848
0.70911
0.695099
0.680009
0.662156
0.641894
0.617782
0.587285
0.553141
0.517886
0.481331
0.442725
0.400886
0.353935
0.298534
0.22566
0.110644
0.136937
0.326693
0.479436
0.623086
0.747124
0.798227
0.836106
0.888395
0.88729
0.843418
0.810712
0.790447
0.777963
0.768255
0.756498
0.741225
0.723454
0.704551
0.685086
0.66368
0.636391
0.599902
0.561114
0.521462
0.479683
0.434404
0.383562
0.323511
0.244454
0.118989
0.16762
0.391456
0.559798
0.707484
0.798444
0.846754
0.912244
0.932416
0.895896
0.864075
0.844937
0.836782
0.834455
0.829925
0.815974
0.791097
0.763454
0.740547
0.721373
0.70408
0.684857
0.65395
0.613824
0.5715
0.526636
0.477516
0.421906