/*--------------------------------*- C++ -*----------------------------------*\
| =========                 |                                                 |
| \\      /  F ield         | OpenFOAM: The Open Source CFD Toolbox           |
|  \\    /   O peration     | Version:  v1606+                                |
|   \\  /    A nd           | Web:      www.OpenFOAM.com                      |
|    \\/     M anipulation  |                                                 |
\*---------------------------------------------------------------------------*/
FoamFile
{
    version     2.0;
    format      ascii;
    class       volScalarField;
    location    "1.74";
    object      nut.air;
}
// * * * * * * * * * * * * * * * * * * * * * * * * * * * * * * * * * * * * * //

dimensions      [0 2 -1 0 0 0 0];

internalField   nonuniform List<scalar> 
6000
(
0.000528711
0.00472984
0.00771954
0.00843894
0.00868055
0.00878583
0.00883372
0.00887173
0.00890701
0.00893323
0.00892593
0.00890449
0.00889335
0.00889649
0.00891256
0.00892992
0.00894039
0.00893784
0.00892137
0.00891025
0.00889965
0.00888553
0.00886906
0.00884957
0.00881925
0.00875674
0.00850181
0.00776403
0.00486764
0.000528631
0.00043965
0.00304275
0.00590695
0.00765151
0.00849926
0.00893169
0.009187
0.00939151
0.00955545
0.00965128
0.00968399
0.0096493
0.0096378
0.00965637
0.00969
0.00973253
0.0097708
0.00975901
0.00968237
0.00959003
0.00952555
0.00946001
0.00937247
0.00925346
0.0090546
0.0086407
0.00777031
0.00597065
0.00302795
0.000442607
0.000368481
0.00258522
0.00514967
0.0069695
0.00808334
0.00876384
0.00920715
0.0095196
0.00973204
0.00986128
0.00995319
0.0100064
0.01003
0.0100589
0.0100884
0.010117
0.0101507
0.0101611
0.0101319
0.0100816
0.0100257
0.00994809
0.00981781
0.00957796
0.00919604
0.00854302
0.00736797
0.00532838
0.00256079
0.000371401
0.00034261
0.00244246
0.00475774
0.00657727
0.00783845
0.0086957
0.00927954
0.00969436
0.00999578
0.0102091
0.0104056
0.0106116
0.0107167
0.0107896
0.0108243
0.0108232
0.0108239
0.010841
0.0108645
0.0108454
0.0107601
0.0105866
0.0103148
0.00992476
0.0093774
0.00855552
0.00728899
0.00534246
0.00272849
0.000352436
0.000330939
0.00241509
0.00461662
0.00638816
0.00772141
0.00868701
0.0093834
0.00993028
0.0103732
0.0107172
0.010996
0.0112763
0.0115199
0.0116986
0.0118021
0.0118394
0.0118345
0.011795
0.0117027
0.0115243
0.0112765
0.0109536
0.0105296
0.0100016
0.00934852
0.00848851
0.00722372
0.00537641
0.00287833
0.000351338
0.000315199
0.00237885
0.00452075
0.00626744
0.00763742
0.00867325
0.00947782
0.0101623
0.0107358
0.0112113
0.0116151
0.0120099
0.0124374
0.0127809
0.0129539
0.0129661
0.0128514
0.012684
0.0124353
0.0120588
0.0116283
0.0111681
0.0106076
0.00995714
0.00921774
0.00832787
0.00709594
0.00532138
0.00291363
0.000345063
0.000302524
0.00232981
0.00441692
0.00613826
0.00751883
0.00863196
0.00956867
0.0104107
0.0111277
0.0117519
0.012298
0.0128299
0.0134168
0.0139588
0.0142363
0.0141898
0.0138904
0.0135267
0.0130924
0.0125423
0.0119852
0.0114252
0.010766
0.00999485
0.00911713
0.00811377
0.00683852
0.00512415
0.00283991
0.000339061
0.000291067
0.00223022
0.00425418
0.00597479
0.00742364
0.00867548
0.00978814
0.0107766
0.011628
0.0123733
0.0130442
0.0137
0.0143909
0.0150096
0.0153416
0.0153188
0.0149274
0.0144035
0.0138263
0.0131932
0.01255
0.0119008
0.0111555
0.0102853
0.00926957
0.00806323
0.00659408
0.00479665
0.0025902
0.000325931
0.000269707
0.00201114
0.00407999
0.00593651
0.00756004
0.00898692
0.0102372
0.011317
0.0122572
0.013077
0.01384
0.0145746
0.015322
0.0159038
0.0161636
0.0161954
0.0159267
0.0153756
0.0147301
0.0140454
0.0133358
0.0126086
0.0118001
0.0108593
0.00973902
0.00839352
0.00672574
0.00461571
0.00220128
0.000296364
0.000250438
0.00193302
0.00423267
0.00632034
0.00809121
0.00957512
0.0108435
0.011959
0.0129562
0.0138393
0.0146714
0.0154402
0.0162151
0.0167667
0.0169249
0.0169681
0.0168722
0.0164132
0.0157334
0.0149847
0.0142081
0.0134168
0.012567
0.0115956
0.0104456
0.00905549
0.00730929
0.00496467
0.00205064
0.000272889
0.00025736
0.00217723
0.00484656
0.00706801
0.00880035
0.0102442
0.0115071
0.0126597
0.0137134
0.0146616
0.0155367
0.0163314
0.017099
0.0176662
0.0178246
0.0178737
0.0178216
0.0174764
0.0168141
0.0160251
0.015203
0.0143623
0.0134615
0.0124396
0.011244
0.00985947
0.00810299
0.00572057
0.00238805
0.000281698
0.000289774
0.00262193
0.00536022
0.00760946
0.00939951
0.0108672
0.0121474
0.0133597
0.0144932
0.0155173
0.01643
0.0172724
0.0180237
0.0185907
0.018742
0.018821
0.0187951
0.0185367
0.0179301
0.0171489
0.0163129
0.0154353
0.0144659
0.0133522
0.0120765
0.0106559
0.00879171
0.00629578
0.00304535
0.000331887
0.000305859
0.0027567
0.00555764
0.00788759
0.0097878
0.0113891
0.0127493
0.0140133
0.0152748
0.0164008
0.0173966
0.018318
0.0190675
0.0195642
0.019707
0.019808
0.0198017
0.0196106
0.01911
0.0184084
0.0175772
0.0166377
0.0155537
0.0142775
0.0129253
0.0113325
0.00928395
0.0066454
0.00337286
0.000368752
0.000307363
0.00275975
0.00570072
0.00812805
0.0101154
0.0118115
0.0133054
0.0146457
0.0160275
0.0173535
0.0185211
0.0195621
0.0203443
0.0206927
0.0207706
0.0208617
0.0208967
0.0208019
0.0204692
0.0199106
0.0190984
0.0180481
0.016733
0.0152605
0.0137379
0.0119382
0.00971153
0.00688976
0.00341527
0.000381043
0.000312301
0.00285279
0.00590428
0.00843163
0.0105171
0.012308
0.0138968
0.0153749
0.0168491
0.0184026
0.0198238
0.0210653
0.0219938
0.0222876
0.0221838
0.0222283
0.0223092
0.0223468
0.0222135
0.0217705
0.0209385
0.0197271
0.0181285
0.0163911
0.0146332
0.0126319
0.0101746
0.00713465
0.0034872
0.000398268
0.000324182
0.00307598
0.00621493
0.00886057
0.011075
0.0129917
0.0146971
0.0162902
0.017881
0.0196176
0.0213314
0.0228829
0.0241343
0.0245048
0.0243026
0.0242872
0.0244017
0.0245319
0.0244894
0.024049
0.0231364
0.0217171
0.0198305
0.0178142
0.0157907
0.0135227
0.0108048
0.00753858
0.00374921
0.000427496
0.000338537
0.00327958
0.00658711
0.0094224
0.011814
0.0138897
0.0157416
0.0174602
0.0191686
0.0210421
0.0230388
0.0250009
0.0265408
0.0270746
0.0270132
0.0269987
0.027112
0.027219
0.0270925
0.0265851
0.0256244
0.0240497
0.0219067
0.0195799
0.0172312
0.0146559
0.0116896
0.008216
0.00418967
0.000459646
0.000351346
0.00346079
0.00701148
0.0100917
0.012694
0.0149476
0.0169609
0.0188311
0.0206716
0.0226194
0.0247543
0.0268867
0.028422
0.0291213
0.0293291
0.0294451
0.0295371
0.029517
0.0292406
0.0286803
0.0277451
0.0262088
0.0240195
0.0214734
0.0187976
0.0159485
0.0127716
0.0090805
0.00467609
0.000486762
0.000366668
0.0036319
0.00747332
0.0108215
0.0136455
0.0160745
0.0182353
0.0202356
0.0221757
0.0241474
0.0261775
0.0280581
0.0293807
0.0302022
0.0305818
0.0308232
0.0309106
0.0307869
0.0303999
0.0297945
0.0289058
0.0275593
0.0255713
0.0230377
0.0202163
0.0172148
0.0138611
0.0098899
0.00505268
0.000506607
0.000386268
0.00385322
0.00798547
0.011589
0.0146172
0.0172005
0.0194799
0.0215619
0.023528
0.0254369
0.02727
0.0288675
0.0300577
0.030777
0.0311477
0.0313912
0.0314909
0.0312898
0.0308455
0.0302091
0.0293734
0.0282306
0.0264795
0.0240972
0.0213151
0.018262
0.0147476
0.0104814
0.00526997
0.000521216
0.000410109
0.0041676
0.00857484
0.0123915
0.0155915
0.0183045
0.0206762
0.0228051
0.0247563
0.0265609
0.0281936
0.0295635
0.0306041
0.0312806
0.0316125
0.0317467
0.0317471
0.0314878
0.0310125
0.0303643
0.0296141
0.0286269
0.0270249
0.0247688
0.0220775
0.0190129
0.0153668
0.0108783
0.00541696
0.000531558
0.000434256
0.00454827
0.00923976
0.0132336
0.016579
0.019406
0.0218541
0.0240125
0.0259332
0.0276313
0.0290897
0.0302622
0.0311416
0.0317423
0.0320123
0.0320145
0.0318496
0.0315288
0.0310607
0.030466
0.0297542
0.0288411
0.0273687
0.0252183
0.0225884
0.0195271
0.0158028
0.0111683
0.0055375
0.000538699
0.00045734
0.00491668
0.00991663
0.0141061
0.0175938
0.0205347
0.0230604
0.0252472
0.0271377
0.0287346
0.030043
0.0310502
0.0317516
0.0322138
0.0324174
0.0322553
0.0319512
0.0315608
0.0310785
0.0304939
0.0297927
0.0288831
0.0275354
0.0255504
0.0229978
0.0199474
0.0161638
0.0114066
0.00563282
0.000541125
0.000480691
0.00521295
0.0105484
0.0149817
0.0186435
0.0217219
0.0243426
0.026572
0.0284503
0.029941
0.0311074
0.0319578
0.032497
0.0327688
0.0327918
0.0324632
0.0320611
0.0316068
0.0310953
0.0305035
0.0297928
0.0288686
0.0276277
0.0258473
0.0234484
0.0203968
0.0165142
0.0116008
0.00565832
0.000525057
0.000503646
0.00546414
0.0111338
0.0158454
0.0197264
0.0229791
0.0257401
0.0280778
0.0300089
0.0313353
0.0323337
0.0330215
0.0333902
0.0334229
0.0331961
0.0327085
0.0322326
0.0317302
0.0311872
0.0305847
0.0298718
0.0289476
0.0277807
0.0261454
0.023934
0.0208977
0.0168397
0.0116943
0.00560872
0.000526839
0.000525097
0.00569012
0.0116819
0.0166872
0.0208165
0.0242917
0.0272939
0.0298169
0.0317011
0.0328936
0.033746
0.0342609
0.0344609
0.0343057
0.0337712
0.0331549
0.0326147
0.0320722
0.0314721
0.0308411
0.0301376
0.0292003
0.0279295
0.0262154
0.0240671
0.0211585
0.0170607
0.0117738
0.00567734
0.000541397
0.000544216
0.00588349
0.0121778
0.017471
0.0218492
0.0255851
0.0288214
0.0313924
0.0331351
0.0343552
0.0351362
0.0355335
0.0355421
0.0351763
0.0345195
0.0338376
0.0331877
0.0325624
0.0319086
0.0312431
0.0304897
0.029415
0.0279515
0.0261856
0.0240139
0.0211528
0.0171597
0.0119307
0.00579152
0.000549779
0.000565208
0.00605118
0.0126071
0.018153
0.0227313
0.0266306
0.0298989
0.0323404
0.0340075
0.0352939
0.0361259
0.0364058
0.0362447
0.0357743
0.0351963
0.0345239
0.0337989
0.0330437
0.0322964
0.0314986
0.0305913
0.029384
0.0278927
0.0261263
0.023932
0.0210291
0.0171084
0.0120115
0.0058806
0.000552048
0.000589235
0.00635105
0.013059
0.0187287
0.0233962
0.0273516
0.0305841
0.032934
0.0345665
0.035823
0.0366488
0.0368698
0.0366335
0.0361288
0.0355613
0.03489
0.0340845
0.0332376
0.0323998
0.0315275
0.0304977
0.0292672
0.0278078
0.0260418
0.0238029
0.0208636
0.0169681
0.0119639
0.00590354
0.00054959
0.000614135
0.00667175
0.0135636
0.019257
0.023905
0.0278444
0.0310146
0.033346
0.0350076
0.0362432
0.0369955
0.0371677
0.0368693
0.0363212
0.0356732
0.034946
0.0341486
0.0332791
0.0323606
0.0313984
0.0303453
0.0291472
0.0277097
0.0259144
0.0236211
0.0206501
0.0167824
0.0118549
0.00586554
0.00054416
0.000635648
0.00691111
0.0139697
0.0197278
0.0243566
0.0281848
0.0312801
0.0336477
0.0353926
0.0366098
0.0372667
0.037388
0.0370342
0.0364169
0.0356877
0.0348993
0.0340718
0.0331989
0.0322702
0.0312801
0.0302185
0.0290312
0.0275896
0.0257504
0.0233995
0.0204017
0.0165708
0.0117189
0.00580606
0.000537041
0.000650952
0.00706868
0.0142839
0.0200728
0.0246558
0.0283861
0.0314512
0.0339044
0.0357464
0.0369365
0.0374891
0.0375598
0.0371488
0.0364473
0.035646
0.0348192
0.0339717
0.0330975
0.0321724
0.0311758
0.0300947
0.0288897
0.0274363
0.0255556
0.0231462
0.0201305
0.0163412
0.0115631
0.00573256
0.000528997
0.000653838
0.00720647
0.0145052
0.0203126
0.0248458
0.0284947
0.0315456
0.0340963
0.0360505
0.0372073
0.0376598
0.0376872
0.037214
0.0364189
0.0355689
0.0347143
0.0338526
0.032974
0.0320438
0.0310329
0.0299237
0.0286927
0.0272296
0.0253201
0.0228668
0.0198447
0.0160918
0.0113808
0.005642
0.000520094
0.00065644
0.00726443
0.0146195
0.0204447
0.0249439
0.0285445
0.0315789
0.0341952
0.0362667
0.0373934
0.0377547
0.0377577
0.0372364
0.0363553
0.0354556
0.0345867
0.03372
0.0328266
0.0318735
0.0308321
0.029688
0.0284273
0.0269495
0.0250325
0.0225676
0.0195512
0.0158281
0.0111748
0.00553384
0.000510244
0.000659645
0.0072838
0.014656
0.0204811
0.0249596
0.0285301
0.0315525
0.0342147
0.0363711
0.0374691
0.0377516
0.0377486
0.0372053
0.0362561
0.0353163
0.0344529
0.0335821
0.0326687
0.0316758
0.0305878
0.0294022
0.0281053
0.0265983
0.0246882
0.0222496
0.0192578
0.0155687
0.0109696
0.00542169
0.000500042
0.000661012
0.00728368
0.0146426
0.0204435
0.0248933
0.0284358
0.031447
0.03414
0.0363449
0.0374325
0.0376389
0.0376261
0.0370953
0.0361074
0.0351413
0.034271
0.0334044
0.0324662
0.0314278
0.0302946
0.0290737
0.0277362
0.0261929
0.0242952
0.0219101
0.0189618
0.0153168
0.0107776
0.00531614
0.000490329
0.000657997
0.0072739
0.0145858
0.0203389
0.024745
0.0282448
0.0312285
0.033925
0.0361491
0.0372545
0.0374031
0.0373633
0.0368823
0.0359201
0.0349458
0.0340525
0.0331617
0.0321907
0.0311258
0.0299686
0.0287187
0.0273434
0.025763
0.0238695
0.0215521
0.0186688
0.0150694
0.010591
0.00521522
0.000481581
0.000651433
0.0072398
0.0144811
0.020178
0.024526
0.0279533
0.0308652
0.0335174
0.0357383
0.036882
0.0370232
0.0369554
0.0365543
0.0356791
0.03472
0.0337925
0.0328589
0.0318655
0.0307968
0.0296349
0.0283623
0.0269487
0.0253375
0.0234452
0.0211725
0.0183639
0.0148261
0.0104057
0.00511394
0.000474069
0.000639355
0.00711248
0.0143011
0.0199752
0.0242727
0.0275916
0.0303647
0.0329165
0.0351374
0.0363668
0.0365046
0.036452
0.0361296
0.0353696
0.0344351
0.0334708
0.032494
0.0314934
0.0304363
0.0292897
0.0280188
0.0265814
0.0249398
0.0230394
0.0207829
0.0180277
0.0145692
0.0102217
0.00501482
0.000467586
0.000635308
0.00682282
0.0140128
0.0197393
0.024014
0.0272184
0.0298127
0.0321672
0.034304
0.0355603
0.035898
0.0359166
0.0356552
0.03498
0.0340555
0.0330701
0.032081
0.0310901
0.0300455
0.028931
0.0276906
0.0262618
0.0245929
0.0226601
0.020395
0.0176664
0.0142862
0.0100381
0.00492268
0.000461724
0.000637014
0.00655149
0.0136823
0.0194566
0.0236653
0.0267834
0.029264
0.0314514
0.0334221
0.0346334
0.035033
0.0352064
0.0351024
0.0344979
0.0335565
0.0325396
0.0315688
0.0306184
0.029637
0.0285782
0.027392
0.025993
0.0243204
0.0223382
0.0200238
0.0172906
0.0139712
0.00983645
0.00482593
0.000456812
0.000635745
0.00650002
0.0134222
0.0191296
0.023267
0.0263373
0.0287566
0.0308107
0.0325777
0.0336847
0.0341719
0.0344431
0.0344722
0.0339118
0.0329387
0.0319006
0.0309629
0.0301047
0.0292365
0.0282658
0.0271508
0.0257983
0.024119
0.0220984
0.0197081
0.016928
0.013635
0.00958255
0.00469834
0.000453007
0.000642535
0.00652581
0.0132156
0.018723
0.0228389
0.025921
0.0283656
0.0303469
0.0318763
0.0328107
0.0333097
0.0336238
0.0336164
0.0331433
0.0321735
0.0311517
0.0303339
0.0296
0.0288395
0.0279927
0.0269622
0.0256588
0.0239912
0.0219304
0.0194768
0.0166086
0.0132887
0.0093006
0.00454835
0.000450074
0.000657119
0.00660198
0.0130946
0.018356
0.0224329
0.0256085
0.0281453
0.0301053
0.0313815
0.0321101
0.0325528
0.0328009
0.0327099
0.0321701
0.0313429
0.0305502
0.0298296
0.0291453
0.0284565
0.0276979
0.0267369
0.0254908
0.0238787
0.0218187
0.0193194
0.016383
0.012987
0.00901843
0.00440223
0.000450706
0.000661257
0.00673118
0.0130774
0.0181219
0.0221743
0.0254566
0.0280491
0.0299271
0.0309661
0.0315396
0.0319156
0.0320576
0.0318526
0.0313194
0.0306668
0.0300516
0.0294618
0.0288663
0.028218
0.0274342
0.0264741
0.0252581
0.0236957
0.0216872
0.0192038
0.0162421
0.0127769
0.00880457
0.00432136
0.000453109
0.000656761
0.00684421
0.01312
0.0180817
0.0221044
0.0253933
0.02789
0.0295096
0.030425
0.0309594
0.031284
0.0313454
0.0310639
0.0305747
0.0300824
0.0296343
0.0291922
0.0287118
0.0281229
0.0273596
0.0263838
0.0251338
0.0235509
0.0215761
0.0191467
0.0162142
0.0127287
0.00873706
0.0043404
0.000451496
0.000656078
0.00680811
0.0131802
0.0182016
0.0221314
0.0252734
0.0275037
0.0288556
0.0297177
0.0302613
0.0305412
0.030554
0.0302983
0.0299197
0.0295731
0.029261
0.0289531
0.0285975
0.0280998
0.0273865
0.0264137
0.025157
0.0235724
0.0216109
0.0192208
0.0163331
0.0128601
0.00880559
0.00434913
0.00044509
0.000666292
0.00682984
0.0133307
0.0184509
0.0224092
0.0252402
0.0268566
0.0280872
0.0289076
0.0294346
0.0296925
0.0297172
0.0295722
0.0293322
0.0290981
0.0289074
0.0287216
0.0284605
0.0280495
0.0274139
0.0265087
0.0253264
0.0237699
0.0218166
0.0194501
0.0165912
0.0131486
0.00905739
0.00440982
0.000433664
0.000684162
0.00687449
0.0135216
0.0188397
0.0226728
0.0250281
0.0262661
0.0272941
0.0280359
0.0285527
0.0288379
0.0289298
0.0289042
0.0288055
0.0286909
0.0285933
0.0284898
0.028302
0.027948
0.0273836
0.0265992
0.0255928
0.024194
0.0221983
0.0198096
0.0169419
0.0134964
0.00936286
0.0045027
0.000427788
0.000696301
0.00703985
0.0137436
0.0188818
0.0222882
0.0241972
0.0255233
0.0265644
0.0272898
0.0277533
0.028059
0.0282222
0.0282953
0.0283186
0.0283231
0.0283161
0.0282704
0.0281186
0.0278039
0.0273214
0.0266939
0.0259533
0.0246351
0.0227267
0.0202576
0.0173295
0.0138257
0.00960823
0.00461187
0.000436582
0.000706213
0.00714282
0.0138609
0.0184061
0.0212645
0.0230515
0.0244652
0.0256703
0.0265747
0.0271319
0.0274341
0.027649
0.0278137
0.0279452
0.0280479
0.0281169
0.0281177
0.0280035
0.0277617
0.0273616
0.0267409
0.0259387
0.024848
0.0230748
0.0206608
0.0177027
0.0140986
0.00978958
0.00475652
0.000457849
0.00070419
0.00721192
0.0134982
0.0175561
0.0200889
0.0218109
0.0232152
0.024465
0.0255206
0.0263285
0.0268856
0.0272736
0.0275584
0.0277959
0.0279822
0.0281013
0.0281189
0.0279857
0.0276616
0.0271177
0.0263879
0.0255335
0.0245576
0.0230424
0.020838
0.0179341
0.0142974
0.00988429
0.0047929
0.000467008
0.000692543
0.00715933
0.0128623
0.0165573
0.0188896
0.0205403
0.0219467
0.0232154
0.0243267
0.0252627
0.0260294
0.0266445
0.0271198
0.0274854
0.0277422
0.027871
0.0278419
0.0276262
0.0272163
0.0266272
0.0258916
0.0250348
0.0240501
0.0227615
0.0207745
0.0179544
0.014253
0.00979609
0.00471671
0.000462316
0.000668908
0.00684162
0.0121001
0.0155688
0.0177065
0.0193247
0.0207522
0.022057
0.0232175
0.0242223
0.0250801
0.0258041
0.0263965
0.0268581
0.02718
0.0273431
0.0273258
0.0271145
0.0267075
0.026119
0.0253733
0.0244964
0.023481
0.0222406
0.020449
0.0177826
0.01404
0.00951143
0.00448373
0.000454558
0.000638792
0.00634441
0.0113285
0.0146746
0.0166505
0.0182527
0.0196976
0.0210364
0.0222409
0.0233025
0.0242272
0.0250226
0.0256873
0.0262133
0.0265866
0.0267869
0.0267949
0.0265995
0.0262004
0.0256095
0.0248445
0.0239275
0.022862
0.0216093
0.0199175
0.0173454
0.0137972
0.00921253
0.00427863
0.000460731
0.00060537
0.0056805
0.0106487
0.0139466
0.0158327
0.0173919
0.0188318
0.0201824
0.0214104
0.0225077
0.0234776
0.0243219
0.0250346
0.0256034
0.0260117
0.0262393
0.0262685
0.0260893
0.0257005
0.0251086
0.0243253
0.0233674
0.0222471
0.0209407
0.0193129
0.0168546
0.0134326
0.00903942
0.00431827
0.000484423
0.000587867
0.005045
0.0101322
0.0134288
0.0152808
0.016763
0.0181666
0.0194999
0.0207249
0.0218333
0.0228254
0.0236973
0.0244379
0.0250328
0.0254636
0.0257109
0.0257575
0.0255934
0.0252159
0.0246275
0.023835
0.0228536
0.0216979
0.0203573
0.0187826
0.0165164
0.0132279
0.00903406
0.00448185
0.000514475
0.000591943
0.00484938
0.00992887
0.0131656
0.0149748
0.0163489
0.0176852
0.0189745
0.020172
0.0212692
0.0222629
0.0231436
0.0238964
0.0245046
0.0249485
0.0252088
0.0252689
0.0251179
0.0247528
0.0241727
0.0233825
0.0223992
0.0212429
0.0199257
0.0184274
0.0163891
0.0133417
0.00929529
0.00477238
0.000545112
0.000598665
0.00513372
0.00999722
0.0130971
0.0148499
0.0161047
0.0173536
0.0185807
0.0197333
0.020802
0.0217807
0.0226552
0.0234073
0.0240185
0.0244679
0.0247358
0.0248057
0.0246661
0.024314
0.0237456
0.022966
0.0219958
0.020862
0.0195997
0.0182137
0.0164226
0.0136502
0.00970799
0.00508163
0.000543778
0.000599691
0.00534534
0.0100809
0.0131125
0.0148274
0.0159801
0.0171356
0.0182915
0.0193895
0.0204186
0.0213701
0.022227
0.0229689
0.0235746
0.0240229
0.0242934
0.0243698
0.0242396
0.0239006
0.0233455
0.0225808
0.0216311
0.0205294
0.0193264
0.0180591
0.0164611
0.0139177
0.0100506
0.00522143
0.000524713
0.000596276
0.00540309
0.0101092
0.0131509
0.0148395
0.0159267
0.0169962
0.0180809
0.0191215
0.020106
0.0210234
0.0218551
0.0225798
0.0231739
0.0236152
0.0238839
0.0239633
0.0238405
0.0235138
0.0229721
0.0222248
0.0212981
0.0202294
0.0190775
0.0178978
0.0164503
0.0140248
0.0101169
0.00504452
0.000511487
0.000593116
0.00541661
0.0101069
0.0131853
0.0148644
0.0159013
0.0169026
0.0179244
0.0189107
0.0198509
0.0207318
0.0215347
0.0222376
0.0228157
0.0232459
0.023509
0.0235883
0.0234707
0.0231549
0.0226263
0.0218974
0.020995
0.0199574
0.0188423
0.0177053
0.0163598
0.0139971
0.0100506
0.00486747
0.000501588
0.000591542
0.00539483
0.0100885
0.0132036
0.0148761
0.0158766
0.0168277
0.0177988
0.0187392
0.0196395
0.0204857
0.0212593
0.0219382
0.0224973
0.0229139
0.0231686
0.0232454
0.0231308
0.0228243
0.0223086
0.0215992
0.0207219
0.0197134
0.0186227
0.0174917
0.0161607
0.013891
0.0100471
0.00476567
0.000492781
0.000593447
0.00534966
0.0100754
0.0132083
0.0148614
0.0158316
0.0167486
0.0176834
0.0185898
0.0194586
0.0202752
0.0210218
0.0216764
0.022215
0.022616
0.0228608
0.0229332
0.0228201
0.0225212
0.0220184
0.0213288
0.0204768
0.0194953
0.0184227
0.0172795
0.015911
0.0137448
0.0100445
0.00475598
0.000496595
0.000586436
0.00537866
0.0101164
0.013198
0.0148081
0.0157518
0.0166495
0.0175628
0.018449
0.0192974
0.0200923
0.020816
0.0214471
0.0219644
0.0223488
0.0225825
0.0226493
0.0225364
0.0222431
0.0217526
0.0210824
0.0202545
0.0192981
0.0182441
0.0170989
0.0157063
0.0135676
0.0100135
0.00495617
0.000514979
0.000560455
0.00540686
0.0101691
0.0131495
0.0147032
0.0156307
0.0165231
0.0174292
0.0183089
0.0191489
0.0199319
0.0206379
0.0212465
0.0217419
0.0221086
0.0223301
0.0223902
0.0222761
0.0219865
0.0215069
0.020854
0.0200477
0.0191138
0.0180801
0.0169507
0.0155762
0.0134676
0.00998958
0.00506153
0.000519872
0.000534515
0.00532365
0.0101232
0.0130289
0.0145349
0.0154684
0.0163711
0.017283
0.0181677
0.0190107
0.0197917
0.0204852
0.021072
0.0215442
0.0218919
0.0220999
0.0221517
0.0220347
0.0217467
0.0212758
0.0206377
0.0198496
0.0189358
0.017925
0.0168262
0.015497
0.0134176
0.00992445
0.00505085
0.000519921
0.00051738
0.00514056
0.00993896
0.0128214
0.014309
0.0152742
0.0162031
0.0171314
0.0180299
0.0188849
0.0196719
0.0203566
0.0209209
0.0213678
0.0216949
0.0218878
0.0219296
0.0218077
0.021519
0.0210542
0.0204281
0.0196557
0.018761
0.0177756
0.0167167
0.0154366
0.013388
0.00985599
0.00499858
0.000520581
0.000500104
0.00495121
0.00965912
0.0125428
0.0140494
0.0150687
0.0160352
0.0169865
0.0179036
0.0187765
0.019574
0.0202504
0.0207894
0.0212085
0.0215132
0.0216893
0.0217191
0.0215902
0.0212984
0.0208376
0.020221
0.0194626
0.0185864
0.0176282
0.0166121
0.0153811
0.0133607
0.00980296
0.00494525
0.000521305
0.000491215
0.00471429
0.00934453
0.0122332
0.01379
0.0148749
0.0158829
0.0168598
0.0177983
0.0186921
0.0194992
0.020163
0.020673
0.0210612
0.021342
0.0214995
0.0215154
0.0213775
0.0210805
0.020622
0.0200132
0.0192677
0.0184087
0.0174763
0.0164984
0.0153121
0.0133344
0.00982331
0.00497086
0.000515794
0.000483543
0.0046961
0.00912226
0.0119689
0.0135639
0.0147068
0.015755
0.0167591
0.0177212
0.0186366
0.0194511
0.0200895
0.0205642
0.0209211
0.021177
0.0213143
0.0213145
0.0211658
0.0208626
0.0204053
0.0198035
0.0190703
0.0182264
0.0173135
0.01636
0.0152018
0.0132664
0.00984472
0.00499035
0.000495587
0.000475532
0.00463821
0.00892542
0.011739
0.0133655
0.0145648
0.015654
0.0166872
0.0176756
0.0186114
0.0194258
0.0200251
0.0204592
0.0207852
0.0210153
0.0211309
0.0211138
0.0209536
0.0206446
0.0201885
0.0195941
0.0188736
0.0180435
0.0171424
0.0161946
0.0150341
0.0131116
0.00976103
0.00493672
0.000474299
0.000467943
0.00454146
0.00874483
0.0115246
0.0131928
0.0144494
0.0155796
0.0166433
0.0176604
0.018617
0.0194139
0.0199639
0.0203565
0.0206525
0.0208562
0.0209489
0.0209135
0.0207422
0.0204283
0.0199746
0.0193894
0.0186837
0.0178683
0.0169744
0.0160178
0.0148312
0.0128877
0.00953266
0.00477656
0.00045789
0.000459212
0.00447218
0.00860436
0.0113386
0.0130416
0.0143566
0.015529
0.016626
0.0176736
0.0186396
0.0194005
0.0199018
0.0202559
0.0205225
0.0206995
0.0207692
0.0207158
0.0205338
0.0202165
0.0197672
0.0191931
0.0185042
0.017706
0.016819
0.0158491
0.01463
0.0126256
0.00922492
0.00458793
0.000451176
0.000447104
0.00444466
0.00847044
0.0111554
0.0129047
0.0142825
0.0155016
0.0166346
0.0177067
0.0186664
0.0193786
0.0198362
0.0201571
0.0203951
0.0205458
0.0205932
0.0205228
0.0203311
0.020012
0.0195683
0.0190066
0.0183351
0.0175553
0.0166761
0.0156926
0.0144494
0.0124061
0.00902548
0.00456728
0.000449411
0.000437836
0.00442279
0.00831432
0.0109677
0.0127853
0.0142321
0.0154991
0.0166662
0.0177515
0.018684
0.0193453
0.0197681
0.0200593
0.0202699
0.0203956
0.0204223
0.0203367
0.0201364
0.0198165
0.0193787
0.0188292
0.0181737
0.017411
0.0165385
0.0155429
0.0142791
0.0122425
0.00888131
0.00445249
0.000443001
0.000424957
0.00435116
0.00815304
0.0108004
0.0126964
0.0142104
0.0155231
0.0167182
0.0177945
0.0186803
0.0193001
0.0196964
0.0199596
0.0201443
0.0202477
0.0202563
0.0201582
0.019951
0.0196304
0.0191984
0.0186594
0.018017
0.0172675
0.0163964
0.0153857
0.0141023
0.0120549
0.0087167
0.00435888
0.00043643
0.000416461
0.00417819
0.00794501
0.0106557
0.0126497
0.0142255
0.015579
0.0167838
0.0178209
0.0186486
0.0192384
0.0196129
0.0198512
0.0200142
0.0200997
0.0200936
0.0199861
0.0197736
0.0194534
0.0190266
0.0184965
0.0178652
0.0171255
0.0162538
0.0152237
0.0139018
0.0118324
0.00855074
0.00429377
0.000425991
0.000406239
0.00404758
0.00775444
0.0105455
0.0126357
0.0142784
0.0156562
0.0168355
0.0178044
0.0185788
0.0191475
0.0195055
0.0197279
0.0198758
0.0199485
0.0199316
0.0198173
0.0196016
0.0192828
0.018862
0.0183406
0.0177198
0.0169896
0.0161191
0.0150645
0.0136928
0.0115987
0.00840047
0.00422809
0.00041152
0.000400211
0.00395055
0.00759693
0.0104388
0.0126286
0.0143386
0.0157125
0.0168441
0.0177502
0.0184817
0.019029
0.0193733
0.0195875
0.0197278
0.0197906
0.0197652
0.0196452
0.0194288
0.0191137
0.0186998
0.0181891
0.0175795
0.0168606
0.0159947
0.0149168
0.0134881
0.0113713
0.00825765
0.00415053
0.000398142
0.000391054
0.00386842
0.00744262
0.0102853
0.0125554
0.0143377
0.0157156
0.0167999
0.0176604
0.0183588
0.0188822
0.0192188
0.0194305
0.0195656
0.0196166
0.0195827
0.0194587
0.0192441
0.0189364
0.0185331
0.0180342
0.0174397
0.0167354
0.0158827
0.0147915
0.013311
0.0111587
0.00809185
0.00407401
0.000389721
0.000377783
0.00375875
0.00726316
0.0101169
0.0124524
0.0142748
0.01564
0.0166976
0.0175284
0.018203
0.0187084
0.0190399
0.0192488
0.0193715
0.0194077
0.0193647
0.0192398
0.0190318
0.0187367
0.0183496
0.0178664
0.0172874
0.016602
0.0157676
0.014683
0.0131431
0.0109293
0.00787889
0.00396463
0.000383254
0.000365663
0.00365768
0.00714988
0.0100372
0.0123825
0.0141772
0.0154918
0.0165378
0.0173473
0.0179919
0.0184879
0.0188113
0.0190139
0.0191159
0.019137
0.0190886
0.0189688
0.0187739
0.0184979
0.0181329
0.0176715
0.0171101
0.0164465
0.0156292
0.014553
0.012981
0.0107098
0.00766889
0.00387297
0.000377114
0.000360645
0.00359645
0.00709848
0.00998514
0.012277
0.0140092
0.0152848
0.0163039
0.017101
0.0177156
0.0181873
0.0184947
0.0186846
0.0187687
0.0187838
0.0187395
0.0186325
0.0184567
0.0182045
0.0178661
0.0174305
0.0168952
0.0162473
0.015457
0.0143932
0.0128255
0.0105518
0.00754674
0.00380629
0.000370532
0.000358015
0.00356804
0.00705943
0.00990601
0.0121105
0.0137454
0.0149998
0.0159918
0.0167739
0.0173542
0.017786
0.0180649
0.0182384
0.0183225
0.0183485
0.0183187
0.0182295
0.0180739
0.017845
0.0175353
0.0171327
0.0166248
0.015995
0.0152318
0.0141866
0.012654
0.0104286
0.00747556
0.00378017
0.000366512
0.000352879
0.00353426
0.00698615
0.00974417
0.0118335
0.0134041
0.0146367
0.0156157
0.0163798
0.0169317
0.0172953
0.0175513
0.0177234
0.0178238
0.0178681
0.0178547
0.0177809
0.0176406
0.0174285
0.0171396
0.0167666
0.0162879
0.0156821
0.0149342
0.0139111
0.0124191
0.0102683
0.00739339
0.00375513
0.000365797
0.000346298
0.00346468
0.00682726
0.00945956
0.0114429
0.0129851
0.014215
0.0152035
0.0159686
0.0164812
0.0167992
0.0170231
0.0171958
0.0173133
0.0173717
0.0173682
0.0173016
0.0171681
0.0169643
0.0166858
0.0163258
0.0158714
0.0152966
0.0145525
0.0135387
0.0120775
0.010011
0.00722029
0.00367001
0.000368153
0.000338336
0.00334735
0.00656472
0.00907151
0.0110052
0.0125662
0.0138404
0.014857
0.0156263
0.0161197
0.0164042
0.016576
0.0167214
0.0168334
0.0168911
0.0168857
0.0168167
0.0166817
0.016478
0.0162005
0.0158411
0.0153883
0.0148184
0.0140759
0.0130624
0.0116334
0.00964546
0.00697081
0.00356647
0.000366065
0.000327533
0.00320565
0.00626969
0.00870952
0.0106712
0.0122744
0.0135771
0.0146045
0.0153729
0.0158653
0.0161497
0.0162944
0.016382
0.0164521
0.0164852
0.016462
0.0163802
0.0162364
0.0160253
0.0157385
0.0153631
0.0148814
0.0142715
0.0134992
0.0124802
0.0110882
0.00918095
0.00663773
0.00340146
0.000357112
0.000314337
0.00307789
0.00604801
0.00848365
0.0104667
0.0120943
0.0134067
0.0144268
0.0151841
0.0156791
0.0159686
0.0161146
0.0161798
0.0162043
0.0161936
0.0161375
0.016031
0.0158671
0.015636
0.0153251
0.0149183
0.0143947
0.013728
0.012886
0.0118217
0.0104497
0.00862761
0.006224
0.00318479
0.000341839
0.000304271
0.00297363
0.00592183
0.00836662
0.0103742
0.011994
0.0132693
0.0142404
0.0149582
0.0154528
0.015763
0.0159194
0.0159811
0.0159882
0.0159483
0.0158621
0.0157269
0.0155351
0.0152752
0.0149331
0.0144917
0.0139295
0.013218
0.0123194
0.0111902
0.0097851
0.00801631
0.0057537
0.00293301
0.0003257
0.000299899
0.00293167
0.0058901
0.00835097
0.0103272
0.0118667
0.0130526
0.0139642
0.0146461
0.0151402
0.0154665
0.0156374
0.0157062
0.0157116
0.0156618
0.0155602
0.0154057
0.0151924
0.0149096
0.0145433
0.0140764
0.0134875
0.012748
0.0118186
0.0106524
0.00920538
0.00743511
0.0052717
0.00266383
0.000305802
0.000300199
0.00297035
0.00594916
0.00835294
0.010209
0.0116385
0.0127599
0.0136313
0.0142926
0.0147716
0.0150881
0.0152671
0.0153536
0.01537
0.0153241
0.0152199
0.015058
0.0148336
0.0145377
0.0141575
0.0136766
0.0130742
0.0123228
0.0113844
0.0102096
0.00874948
0.00696896
0.00484423
0.00236979
0.00028506
0.000304198
0.00305612
0.0059957
0.00827762
0.00999045
0.0113412
0.012421
0.0132623
0.0138948
0.0143416
0.0146465
0.0148361
0.0149503
0.014987
0.0149531
0.0148545
0.0146929
0.0144654
0.0141644
0.0137789
0.0132943
0.0126913
0.011944
0.0110162
0.00985552
0.00840562
0.00663449
0.00453085
0.00214225
0.000266688
0.000313448
0.00313792
0.00597889
0.0080909
0.00968657
0.0109614
0.0120051
0.0128216
0.0134212
0.0138394
0.0141469
0.0143726
0.0145214
0.0145824
0.0145647
0.014476
0.0143195
0.0140938
0.0137931
0.0134086
0.012928
0.012335
0.011606
0.0107074
0.00958396
0.00816639
0.00641581
0.00433185
0.00198608
0.000250247
0.000322804
0.00311573
0.00582952
0.00777363
0.00925379
0.0104374
0.011453
0.0122649
0.012848
0.0132804