/*--------------------------------*- C++ -*----------------------------------*\
| =========                 |                                                 |
| \\      /  F ield         | OpenFOAM: The Open Source CFD Toolbox           |
|  \\    /   O peration     | Version:  v1606+                                |
|   \\  /    A nd           | Web:      www.OpenFOAM.com                      |
|    \\/     M anipulation  |                                                 |
\*---------------------------------------------------------------------------*/
FoamFile
{
    version     2.0;
    format      ascii;
    class       volVectorField;
    location    "1.74";
    object      Ur;
}
// * * * * * * * * * * * * * * * * * * * * * * * * * * * * * * * * * * * * * //

dimensions      [0 1 -1 0 0 0 0];

internalField   nonuniform List<vector> 
6000
(
(-0.0210089 -0.555908 0)
(-0.055364 -0.58193 0)
(-0.0628785 -0.58587 0)
(-0.0678457 -0.58513 0)
(-0.061733 -0.584481 0)
(-0.0350316 -0.586971 0)
(-0.0101466 -0.591274 0)
(0.00328213 -0.627604 0)
(0.0231528 -0.654626 0)
(0.0527977 -0.667999 0)
(0.0842792 -0.661094 0)
(0.0760058 -0.63987 0)
(0.0240323 -0.642006 0)
(-0.0390525 -0.644905 0)
(-0.087404 -0.648525 0)
(-0.105645 -0.654457 0)
(-0.103964 -0.662176 0)
(-0.0934006 -0.662489 0)
(-0.0884677 -0.64307 0)
(-0.083244 -0.611443 0)
(-0.0680348 -0.600338 0)
(-0.0562159 -0.592593 0)
(-0.0530009 -0.57928 0)
(-0.04771 -0.584563 0)
(-0.0256142 -0.600228 0)
(0.0306442 -0.629682 0)
(0.0688172 -0.632491 0)
(0.0312457 -0.628277 0)
(-0.0075314 -0.617808 0)
(-0.0120014 -0.607558 0)
(-0.0209691 -0.846093 0)
(-0.0543864 -0.876714 0)
(-0.071006 -0.884838 0)
(-0.082849 -0.885549 0)
(-0.0872326 -0.91635 0)
(-0.0738213 -0.962934 0)
(-0.0637859 -0.978021 0)
(-0.0574304 -1.03474 0)
(-0.0225399 -1.06375 0)
(0.0385422 -1.07096 0)
(0.0892916 -1.02298 0)
(0.0817639 -0.927547 0)
(0.024433 -0.900516 0)
(-0.0461642 -0.903202 0)
(-0.107581 -0.923306 0)
(-0.15566 -0.958151 0)
(-0.164356 -0.999684 0)
(-0.129779 -1.02423 0)
(-0.0968601 -1.00085 0)
(-0.0917862 -0.96597 0)
(-0.0911461 -0.971354 0)
(-0.083331 -0.963773 0)
(-0.0833439 -0.941048 0)
(-0.090302 -0.949127 0)
(-0.0766219 -0.998441 0)
(-0.00840767 -1.06705 0)
(0.0702543 -1.03989 0)
(0.078002 -0.968432 0)
(0.0476372 -0.933461 0)
(0.0172395 -0.935139 0)
(-0.000658575 -0.778403 0)
(-0.0227346 -0.764731 0)
(-0.0450982 -0.775078 0)
(-0.0518864 -0.76306 0)
(-0.0643508 -0.790155 0)
(-0.058612 -0.853798 0)
(-0.0415122 -0.846623 0)
(-0.0487688 -0.882383 0)
(-0.0405919 -0.944111 0)
(-0.00125279 -0.988896 0)
(0.0466122 -0.907693 0)
(0.07344 -0.769152 0)
(0.0348715 -0.709261 0)
(-0.0392396 -0.712471 0)
(-0.10083 -0.730754 0)
(-0.158667 -0.768521 0)
(-0.179706 -0.861971 0)
(-0.14582 -0.918895 0)
(-0.117356 -0.887412 0)
(-0.123018 -0.870821 0)
(-0.125185 -0.914084 0)
(-0.117896 -0.920202 0)
(-0.118367 -0.911419 0)
(-0.122156 -0.917756 0)
(-0.100463 -1.00782 0)
(-0.0236358 -1.12055 0)
(0.0777574 -1.04886 0)
(0.144235 -0.905897 0)
(0.0971002 -0.839105 0)
(0.0143521 -0.863632 0)
(0.0137161 -0.925659 0)
(-0.00467201 -0.885864 0)
(-0.0207292 -0.913362 0)
(0.0127837 -0.890241 0)
(0.0272719 -0.870742 0)
(0.0285041 -0.899718 0)
(0.0282254 -0.853483 0)
(-0.0149334 -0.848375 0)
(-0.0600115 -0.970258 0)
(-0.0660133 -1.01646 0)
(-0.0395257 -0.998523 0)
(0.0169269 -0.864435 0)
(0.0116321 -0.760822 0)
(-0.0574281 -0.786063 0)
(-0.117696 -0.804116 0)
(-0.167554 -0.822172 0)
(-0.188312 -0.944025 0)
(-0.159222 -1.007 0)
(-0.14403 -0.942732 0)
(-0.149438 -0.928904 0)
(-0.130923 -0.993487 0)
(-0.106502 -0.987237 0)
(-0.105657 -0.975651 0)
(-0.0995052 -0.995298 0)
(-0.0728658 -1.1332 0)
(-0.0467595 -1.27464 0)
(-0.0344066 -1.23321 0)
(0.0207707 -1.04244 0)
(0.0350591 -0.852174 0)
(0.00782294 -0.914908 0)
(0.0132427 -1.00078 0)
(0.0325134 -0.919031 0)
(0.0476955 -1.00557 0)
(0.0636446 -0.98638 0)
(0.0806294 -0.92427 0)
(0.0936039 -0.907187 0)
(0.0783759 -0.820743 0)
(0.0190773 -0.760523 0)
(-0.0649572 -0.895629 0)
(-0.108129 -0.968038 0)
(-0.10789 -0.993658 0)
(-0.0817017 -0.907543 0)
(-0.0649543 -0.77865 0)
(-0.0909415 -0.827622 0)
(-0.126427 -0.848898 0)
(-0.153937 -0.831534 0)
(-0.159558 -0.960697 0)
(-0.126893 -1.0258 0)
(-0.0929873 -0.946453 0)
(-0.0553322 -0.955829 0)
(0.00437918 -1.00987 0)
(0.0499996 -0.963788 0)
(0.0490019 -0.920846 0)
(0.0234615 -0.932794 0)
(-0.0232223 -0.987907 0)
(-0.0948739 -1.03033 0)
(-0.158917 -1.05326 0)
(-0.171066 -1.05661 0)
(-0.0927807 -0.947395 0)
(-0.0203767 -0.980029 0)
(0.00892627 -0.975969 0)
(0.0589083 -0.955329 0)
(0.100658 -0.970497 0)
(0.102554 -0.945966 0)
(0.110091 -0.907787 0)
(0.0935147 -0.86224 0)
(0.0368828 -0.756391 0)
(-0.0103397 -0.676179 0)
(-0.0736305 -0.784556 0)
(-0.142083 -0.899574 0)
(-0.181139 -0.949365 0)
(-0.218435 -0.914641 0)
(-0.215588 -0.857543 0)
(-0.167462 -0.912444 0)
(-0.11341 -0.941616 0)
(-0.0717647 -0.886485 0)
(-0.0377497 -0.992493 0)
(0.0127509 -1.04515 0)
(0.0821425 -0.97117 0)
(0.145613 -0.968063 0)
(0.196365 -0.975333 0)
(0.22904 -0.884836 0)
(0.212566 -0.775713 0)
(0.143284 -0.735877 0)
(0.0207262 -0.768502 0)
(-0.117295 -0.815265 0)
(-0.208408 -0.841 0)
(-0.235273 -0.887985 0)
(-0.156425 -0.90857 0)
(-0.0436139 -0.928553 0)
(0.018861 -0.894975 0)
(0.071268 -0.882694 0)
(0.126483 -0.867636 0)
(0.149499 -0.826419 0)
(0.118044 -0.778632 0)
(0.0173354 -0.707049 0)
(-0.0680838 -0.649042 0)
(-0.0870436 -0.612298 0)
(-0.106121 -0.67558 0)
(-0.164681 -0.784445 0)
(-0.239459 -0.848285 0)
(-0.339199 -0.852448 0)
(-0.410401 -0.923732 0)
(-0.340773 -1.06291 0)
(-0.149576 -1.0935 0)
(0.0406125 -1.00359 0)
(0.16228 -1.03672 0)
(0.224365 -1.03752 0)
(0.280116 -0.958136 0)
(0.295373 -0.924152 0)
(0.283123 -0.911573 0)
(0.271332 -0.795468 0)
(0.231101 -0.646482 0)
(0.165887 -0.573207 0)
(0.0781758 -0.564735 0)
(-0.0456938 -0.600939 0)
(-0.17169 -0.674445 0)
(-0.24763 -0.811865 0)
(-0.189687 -0.898222 0)
(-0.0579019 -0.922192 0)
(0.0223698 -0.877948 0)
(0.0826404 -0.875591 0)
(0.133666 -0.828413 0)
(0.127303 -0.742088 0)
(0.0486962 -0.641344 0)
(-0.0536876 -0.570174 0)
(-0.111442 -0.561074 0)
(-0.117311 -0.561795 0)
(-0.116923 -0.587119 0)
(-0.154737 -0.661689 0)
(-0.233925 -0.703848 0)
(-0.367825 -0.72434 0)
(-0.50469 -0.899426 0)
(-0.488964 -1.21811 0)
(-0.250508 -1.33924 0)
(0.0667987 -1.22149 0)
(0.290316 -1.11252 0)
(0.367174 -1.02147 0)
(0.373038 -0.92299 0)
(0.331751 -0.852789 0)
(0.261174 -0.809922 0)
(0.194046 -0.674981 0)
(0.141705 -0.528267 0)
(0.10821 -0.471865 0)
(0.0741818 -0.461562 0)
(0.0295423 -0.483289 0)
(-0.0211227 -0.540072 0)
(-0.107577 -0.673077 0)
(-0.140638 -0.898613 0)
(-0.0509997 -0.960484 0)
(0.00407312 -0.854152 0)
(0.0359565 -0.880959 0)
(0.0546746 -0.803999 0)
(0.0238873 -0.719839 0)
(-0.0227205 -0.603722 0)
(-0.0547944 -0.533894 0)
(-0.0679951 -0.513411 0)
(-0.0770981 -0.514828 0)
(-0.0838449 -0.525452 0)
(-0.111519 -0.561715 0)
(-0.165706 -0.574736 0)
(-0.287026 -0.561753 0)
(-0.446043 -0.798137 0)
(-0.48203 -1.30036 0)
(-0.30012 -1.53787 0)
(-0.0206891 -1.49767 0)
(0.257261 -1.24408 0)
(0.381796 -1.01319 0)
(0.359658 -0.852608 0)
(0.282784 -0.747742 0)
(0.182169 -0.671991 0)
(0.0923033 -0.549214 0)
(0.0465764 -0.449274 0)
(0.0343378 -0.428721 0)
(0.0383272 -0.441576 0)
(0.0454279 -0.475365 0)
(0.0602792 -0.544567 0)
(0.0413394 -0.639306 0)
(-0.00232361 -0.872969 0)
(-0.00566966 -0.938877 0)
(-0.0215242 -0.93601 0)
(-0.0272154 -1.01937 0)
(-0.0223256 -0.928468 0)
(-0.0107084 -0.845409 0)
(0.0150231 -0.695846 0)
(0.0162153 -0.566705 0)
(0.00321733 -0.497984 0)
(-0.022348 -0.478398 0)
(-0.0374282 -0.489967 0)
(-0.0573753 -0.494579 0)
(-0.0846173 -0.494069 0)
(-0.15852 -0.431012 0)
(-0.323489 -0.667103 0)
(-0.417427 -1.32796 0)
(-0.293108 -1.62344 0)
(-0.116405 -1.63605 0)
(0.137336 -1.41932 0)
(0.303121 -1.02279 0)
(0.286689 -0.75777 0)
(0.199427 -0.625061 0)
(0.10095 -0.547679 0)
(0.0223382 -0.464042 0)
(-0.0114588 -0.415242 0)
(-0.0117874 -0.420348 0)
(-0.00739555 -0.450813 0)
(-0.0109526 -0.527546 0)
(0.0207159 -0.668153 0)
(0.0855965 -0.771096 0)
(0.122668 -1.00446 0)
(0.0650327 -0.93786 0)
(-0.0386985 -1.02814 0)
(-0.0707027 -1.17442 0)
(-0.0395216 -1.08467 0)
(0.0270228 -1.00376 0)
(0.102308 -0.830414 0)
(0.126514 -0.625929 0)
(0.088052 -0.489976 0)
(0.02968 -0.444069 0)
(-0.00420496 -0.460196 0)
(-0.0198933 -0.45127 0)
(-0.0255064 -0.449843 0)
(-0.0446485 -0.361106 0)
(-0.184809 -0.533531 0)
(-0.374545 -1.29897 0)
(-0.308467 -1.69561 0)
(-0.155904 -1.72165 0)
(0.0375599 -1.56256 0)
(0.187082 -1.04607 0)
(0.19105 -0.66818 0)
(0.120116 -0.51404 0)
(0.0430779 -0.461895 0)
(-0.012181 -0.421911 0)
(-0.039139 -0.399406 0)
(-0.0494245 -0.41558 0)
(-0.084833 -0.469705 0)
(-0.106665 -0.631168 0)
(-0.0423019 -0.850616 0)
(0.0708657 -0.950027 0)
(0.186526 -1.17304 0)
(0.117052 -0.92848 0)
(-0.0173499 -1.03675 0)
(-0.0482224 -1.25914 0)
(-0.0435781 -1.22622 0)
(-0.00898619 -1.21587 0)
(0.0619209 -1.08089 0)
(0.132214 -0.736839 0)
(0.140773 -0.499953 0)
(0.0806524 -0.398311 0)
(0.0226917 -0.422994 0)
(0.00925246 -0.413661 0)
(0.0113137 -0.40617 0)
(0.016791 -0.341237 0)
(-0.0741577 -0.432973 0)
(-0.306209 -1.20589 0)
(-0.320014 -1.73982 0)
(-0.158504 -1.77326 0)
(-0.0160119 -1.62281 0)
(0.0810762 -1.05851 0)
(0.0926804 -0.596563 0)
(0.0512502 -0.439838 0)
(0.00578854 -0.413622 0)
(-0.028286 -0.399462 0)
(-0.0551592 -0.377879 0)
(-0.0873936 -0.388804 0)
(-0.135049 -0.524264 0)
(-0.116027 -0.82627 0)
(-0.000959657 -1.09503 0)
(0.0792599 -1.15496 0)
(0.106947 -1.27198 0)
(0.0456174 -0.853393 0)
(-0.0137525 -0.975328 0)
(-0.0365552 -1.12199 0)
(-0.0558981 -1.11292 0)
(-0.0807938 -1.11864 0)
(-0.0800437 -1.11574 0)
(0.02178 -1.01637 0)
(0.110139 -0.63395 0)
(0.0910885 -0.362588 0)
(0.0391096 -0.355299 0)
(0.0191877 -0.367752 0)
(0.0132544 -0.368322 0)
(0.0303021 -0.353791 0)
(0.0130467 -0.39921 0)
(-0.175781 -1.05718 0)
(-0.277905 -1.7468 0)
(-0.141895 -1.80504 0)
(-0.0484108 -1.61905 0)
(-0.0159913 -1.03962 0)
(-0.00882659 -0.563474 0)
(-0.00714785 -0.43145 0)
(-0.00601122 -0.40663 0)
(-0.022614 -0.386399 0)
(-0.051455 -0.333986 0)
(-0.0974141 -0.373419 0)
(-0.124212 -0.714873 0)
(-0.0305011 -0.996539 0)
(0.0467341 -1.05364 0)
(0.0508923 -1.07167 0)
(0.0276462 -1.09734 0)
(0.00467006 -0.807081 0)
(-0.0429764 -0.822594 0)
(-0.0634201 -0.994777 0)
(-0.0523694 -0.978419 0)
(-0.0864233 -0.97219 0)
(-0.125435 -0.974547 0)
(-0.132852 -0.979425 0)
(-0.0316526 -0.864284 0)
(0.0214113 -0.447511 0)
(-0.00555882 -0.272437 0)
(-0.0213437 -0.309898 0)
(-0.0228296 -0.341924 0)
(0.0112188 -0.382756 0)
(0.0770537 -0.444933 0)
(0.0150714 -0.976498 0)
(-0.130874 -1.71159 0)
(-0.108266 -1.79487 0)
(-0.0938462 -1.55564 0)
(-0.118103 -1.00725 0)
(-0.107914 -0.59753 0)
(-0.0537267 -0.49625 0)
(0.00729146 -0.453372 0)
(0.0302144 -0.400068 0)
(0.00821623 -0.304372 0)
(-0.0371607 -0.450092 0)
(-0.0305072 -0.844907 0)
(0.0282807 -0.947938 0)
(0.0386672 -0.977156 0)
(0.045215 -0.973816 0)
(0.0678073 -0.960918 0)
(0.042886 -0.690485 0)
(-0.0391721 -0.696031 0)
(-0.051172 -0.975564 0)
(-0.0332442 -0.902115 0)
(-0.0791182 -0.872321 0)
(-0.128324 -0.869171 0)
(-0.177425 -0.883641 0)
(-0.177961 -0.863673 0)
(-0.101069 -0.616762 0)
(-0.0874069 -0.275546 0)
(-0.0994317 -0.270579 0)
(-0.0908965 -0.341513 0)
(-0.0566622 -0.428463 0)
(0.0485291 -0.558887 0)
(0.135343 -1.05312 0)
(0.0617988 -1.65165 0)
(-0.0538192 -1.73399 0)
(-0.13088 -1.47759 0)
(-0.191208 -1.02237 0)
(-0.16158 -0.717029 0)
(-0.0528236 -0.626394 0)
(0.0594666 -0.562382 0)
(0.123684 -0.470411 0)
(0.116744 -0.350247 0)
(0.0762329 -0.561662 0)
(0.0550702 -0.835132 0)
(0.0670545 -0.889117 0)
(0.0800488 -0.919274 0)
(0.0857404 -0.916557 0)
(0.104425 -0.895911 0)
(0.0544676 -0.537237 0)
(-0.0111333 -0.617977 0)
(-0.0147983 -0.937468 0)
(-0.0247769 -0.805573 0)
(-0.0717581 -0.754738 0)
(-0.124134 -0.752434 0)
(-0.177494 -0.777698 0)
(-0.221041 -0.806333 0)
(-0.198384 -0.709856 0)
(-0.176416 -0.392511 0)
(-0.186767 -0.292 0)
(-0.194245 -0.391524 0)
(-0.194059 -0.530227 0)
(-0.0699611 -0.771536 0)
(0.133161 -1.22458 0)
(0.12496 -1.64287 0)
(-0.038331 -1.7167 0)
(-0.155337 -1.48982 0)
(-0.205241 -1.12209 0)
(-0.143028 -0.896098 0)
(0.00278321 -0.804353 0)
(0.150554 -0.736021 0)
(0.246641 -0.622066 0)
(0.234385 -0.506506 0)
(0.170866 -0.700349 0)
(0.138778 -0.831711 0)
(0.143396 -0.856944 0)
(0.157608 -0.870843 0)
(0.144006 -0.833106 0)
(0.096147 -0.777066 0)
(0.0285801 -0.41159 0)
(0.00530978 -0.584145 0)
(-0.00224778 -0.877017 0)
(-0.036058 -0.726292 0)
(-0.0774222 -0.668063 0)
(-0.123713 -0.663873 0)
(-0.174787 -0.689205 0)
(-0.231232 -0.730513 0)
(-0.267674 -0.742864 0)
(-0.267147 -0.56473 0)
(-0.283921 -0.389271 0)
(-0.336978 -0.467336 0)
(-0.370086 -0.651046 0)
(-0.247933 -1.06907 0)
(0.0126006 -1.41541 0)
(0.040413 -1.70105 0)
(-0.1013 -1.76212 0)
(-0.210959 -1.56938 0)
(-0.209549 -1.25214 0)
(-0.0974226 -1.05267 0)
(0.0585967 -0.960144 0)
(0.222937 -0.903591 0)
(0.351751 -0.806749 0)
(0.37593 -0.746971 0)
(0.326633 -0.844278 0)
(0.273849 -0.829388 0)
(0.244048 -0.829527 0)
(0.222461 -0.823994 0)
(0.173729 -0.731117 0)
(0.0718602 -0.609493 0)
(0.00433068 -0.35182 0)
(-0.000355547 -0.549797 0)
(-0.0208132 -0.80886 0)
(-0.056992 -0.662849 0)
(-0.0909015 -0.600634 0)
(-0.130199 -0.592097 0)
(-0.179073 -0.611019 0)
(-0.2419 -0.645491 0)
(-0.3203 -0.685272 0)
(-0.386428 -0.655471 0)
(-0.448481 -0.526329 0)
(-0.564439 -0.522252 0)
(-0.676868 -0.764356 0)
(-0.684862 -1.4507 0)
(-0.45361 -1.75809 0)
(-0.353049 -1.85227 0)
(-0.352216 -1.83121 0)
(-0.333016 -1.66929 0)
(-0.229491 -1.4671 0)
(-0.0326012 -1.34493 0)
(0.210497 -1.26287 0)
(0.475487 -1.16125 0)
(0.664243 -1.03285 0)
(0.679588 -0.939745 0)
(0.566069 -0.852268 0)
(0.427142 -0.764662 0)
(0.326559 -0.756184 0)
(0.248299 -0.732334 0)
(0.157146 -0.603153 0)
(0.0503905 -0.467726 0)
(-0.00211069 -0.334303 0)
(-0.0112961 -0.501145 0)
(-0.0427858 -0.733902 0)
(-0.0749244 -0.604583 0)
(-0.103233 -0.541544 0)
(-0.135777 -0.528134 0)
(-0.179768 -0.535659 0)
(-0.240844 -0.55349 0)
(-0.326196 -0.574299 0)
(-0.435439 -0.579762 0)
(-0.557722 -0.527609 0)
(-0.708249 -0.501133 0)
(-0.879517 -0.734158 0)
(-1.04875 -1.35855 0)
(-1.03544 -1.74308 0)
(-0.999723 -1.95562 0)
(-0.846503 -1.98537 0)
(-0.590938 -1.88483 0)
(-0.272798 -1.77066 0)
(0.0739007 -1.70896 0)
(0.427915 -1.65121 0)
(0.779618 -1.50236 0)
(0.95826 -1.25518 0)
(0.826577 -0.862958 0)
(0.654204 -0.672 0)
(0.479587 -0.621415 0)
(0.343535 -0.630321 0)
(0.228813 -0.584417 0)
(0.120168 -0.464948 0)
(0.0395507 -0.376372 0)
(0.00419381 -0.326756 0)
(-0.018156 -0.435737 0)
(-0.0596054 -0.648993 0)
(-0.0897998 -0.553908 0)
(-0.109811 -0.494268 0)
(-0.134016 -0.4749 0)
(-0.169247 -0.469004 0)
(-0.219274 -0.469036 0)
(-0.285206 -0.468138 0)
(-0.366085 -0.453156 0)
(-0.451996 -0.403929 0)
(-0.530981 -0.352287 0)
(-0.640354 -0.485214 0)
(-0.888 -0.97148 0)
(-1.07464 -1.38485 0)
(-1.17605 -1.74951 0)
(-1.02869 -1.95578 0)
(-0.688455 -1.98305 0)
(-0.287138 -1.92778 0)
(0.0852449 -1.86723 0)
(0.412381 -1.78764 0)
(0.703544 -1.57803 0)
(0.796619 -1.12104 0)
(0.65628 -0.60306 0)
(0.527034 -0.436898 0)
(0.401723 -0.452787 0)
(0.285436 -0.472912 0)
(0.17996 -0.428338 0)
(0.0938964 -0.35878 0)
(0.0389352 -0.321026 0)
(0.00942712 -0.311849 0)
(-0.0163165 -0.377614 0)
(-0.0624566 -0.545748 0)
(-0.0964188 -0.509608 0)
(-0.108831 -0.458833 0)
(-0.125909 -0.433902 0)
(-0.151321 -0.418194 0)
(-0.185185 -0.405314 0)
(-0.226093 -0.391365 0)
(-0.269457 -0.366941 0)
(-0.303772 -0.318452 0)
(-0.318424 -0.258435 0)
(-0.347184 -0.301716 0)
(-0.516521 -0.60295 0)
(-0.756916 -1.0176 0)
(-0.944206 -1.53995 0)
(-0.842662 -1.97245 0)
(-0.542875 -2.15762 0)
(-0.203346 -2.13273 0)
(0.0935883 -2.05566 0)
(0.31666 -1.92483 0)
(0.48274 -1.62569 0)
(0.514649 -1.00713 0)
(0.384823 -0.392533 0)
(0.323833 -0.270705 0)
(0.272469 -0.313939 0)
(0.201944 -0.335716 0)
(0.134596 -0.316646 0)
(0.080628 -0.290514 0)
(0.0390593 -0.280496 0)
(0.0102226 -0.287193 0)
(-0.0073616 -0.345839 0)
(-0.0487958 -0.442489 0)
(-0.0904033 -0.463427 0)
(-0.102641 -0.431159 0)
(-0.116614 -0.403315 0)
(-0.1347 -0.382455 0)
(-0.154164 -0.364668 0)
(-0.172743 -0.347247 0)
(-0.186212 -0.323869 0)
(-0.18866 -0.283667 0)
(-0.173655 -0.234099 0)
(-0.157055 -0.224616 0)
(-0.220423 -0.362115 0)
(-0.418801 -0.697579 0)
(-0.604047 -1.33025 0)
(-0.510302 -2.023 0)
(-0.26851 -2.32062 0)
(-0.0395114 -2.30715 0)
(0.165368 -2.19607 0)
(0.293688 -1.98727 0)
(0.312151 -1.57895 0)
(0.255612 -0.886315 0)
(0.174389 -0.285423 0)
(0.169767 -0.190857 0)
(0.161464 -0.231745 0)
(0.135333 -0.255251 0)
(0.105003 -0.252483 0)
(0.0716983 -0.243731 0)
(0.0355832 -0.243268 0)
(0.00847403 -0.255914 0)
(-0.00320881 -0.336598 0)
(-0.0320686 -0.373368 0)
(-0.0733634 -0.409668 0)
(-0.094224 -0.401496 0)
(-0.108481 -0.376329 0)
(-0.12366 -0.355143 0)
(-0.135788 -0.341746 0)
(-0.141394 -0.331318 0)
(-0.132822 -0.318788 0)
(-0.113227 -0.283129 0)
(-0.0880487 -0.242051 0)
(-0.0583105 -0.215581 0)
(-0.0569834 -0.249227 0)
(-0.150851 -0.427161 0)
(-0.266446 -1.15611 0)
(-0.153453 -1.97782 0)
(0.0409116 -2.31964 0)
(0.147304 -2.31071 0)
(0.262197 -2.17431 0)
(0.278174 -1.88687 0)
(0.12022 -1.42777 0)
(0.0304754 -0.794228 0)
(0.007253 -0.287307 0)
(0.0653605 -0.195802 0)
(0.10107 -0.217868 0)
(0.102283 -0.222314 0)
(0.0914895 -0.216384 0)
(0.0686206 -0.209649 0)
(0.0320686 -0.210176 0)
(0.0056436 -0.227616 0)
(-0.001781 -0.333814 0)
(-0.0204108 -0.334568 0)
(-0.0568239 -0.358647 0)
(-0.0856273 -0.365027 0)
(-0.104638 -0.34728 0)
(-0.12142 -0.334292 0)
(-0.132279 -0.334965 0)
(-0.136013 -0.344955 0)
(-0.108344 -0.363999 0)
(-0.0650571 -0.313817 0)
(-0.0325793 -0.266639 0)
(0.00107807 -0.232554 0)
(0.0265958 -0.223144 0)
(0.00833825 -0.318002 0)
(-0.0130714 -1.19542 0)
(0.144863 -1.85663 0)
(0.260866 -2.19506 0)
(0.25403 -2.19531 0)
(0.25546 -2.05594 0)
(0.151304 -1.73618 0)
(-0.0702906 -1.27141 0)
(-0.194769 -0.770281 0)
(-0.137524 -0.458482 0)
(-0.00140769 -0.357118 0)
(0.0869091 -0.306528 0)
(0.103374 -0.211134 0)
(0.0928589 -0.188855 0)
(0.0708865 -0.185028 0)
(0.0459592 -0.20311 0)
(0.0203047 -0.27966 0)
(-0.000780446 -0.326236 0)
(-0.0158208 -0.309215 0)
(-0.0479982 -0.317399 0)
(-0.0798494 -0.325279 0)
(-0.106599 -0.316639 0)
(-0.130656 -0.31851 0)
(-0.151071 -0.343629 0)
(-0.168039 -0.386553 0)
(-0.0982503 -0.450253 0)
(-0.00581468 -0.353425 0)
(0.0206488 -0.298876 0)
(0.0480434 -0.261039 0)
(0.095516 -0.270753 0)
(0.158402 -0.476259 0)
(0.255014 -1.3289 0)
(0.387257 -1.82053 0)
(0.366401 -2.08074 0)
(0.241968 -2.07728 0)
(0.12128 -1.96596 0)
(-0.0231047 -1.61505 0)
(-0.21684 -1.20364 0)
(-0.325697 -0.825291 0)
(-0.301544 -0.745549 0)
(-0.0337025 -0.737612 0)
(0.184549 -0.53759 0)
(0.157079 -0.230343 0)
(0.102071 -0.163455 0)
(0.0800225 -0.17801 0)
(0.0531309 -0.262521 0)
(0.0172639 -0.389203 0)
(-0.00150776 -0.311877 0)
(-0.0141037 -0.28686 0)
(-0.0431999 -0.281291 0)
(-0.0787895 -0.285077 0)
(-0.115431 -0.282216 0)
(-0.158825 -0.29556 0)
(-0.1965 -0.338917 0)
(-0.209707 -0.46725 0)
(-0.138296 -0.590693 0)
(0.00988657 -0.408581 0)
(0.0713499 -0.341725 0)
(0.11107 -0.356373 0)
(0.195697 -0.48804 0)
(0.40593 -0.930104 0)
(0.623441 -1.51727 0)
(0.556441 -1.78989 0)
(0.397657 -1.95615 0)
(0.177218 -1.9431 0)
(-0.0259761 -1.84592 0)
(-0.216145 -1.59619 0)
(-0.331588 -1.28543 0)
(-0.337926 -1.06043 0)
(-0.18408 -1.02865 0)
(0.0609143 -0.947961 0)
(0.22256 -0.670064 0)
(0.205734 -0.308853 0)
(0.13737 -0.176699 0)
(0.0852874 -0.215194 0)
(0.0488602 -0.341359 0)
(0.0120225 -0.406055 0)
(-0.00409908 -0.301186 0)
(-0.0134353 -0.273848 0)
(-0.0387312 -0.251536 0)
(-0.077707 -0.246735 0)
(-0.124444 -0.240553 0)
(-0.186117 -0.247083 0)
(-0.285237 -0.290222 0)
(-0.392107 -0.659889 0)
(-0.289592 -1.03677 0)
(-0.00469356 -0.771462 0)
(0.187049 -0.554608 0)
(0.347142 -0.691686 0)
(0.568785 -0.989511 0)
(0.82331 -1.35414 0)
(0.858406 -1.66367 0)
(0.649608 -1.85885 0)
(0.408863 -1.97546 0)
(0.145512 -1.87253 0)
(-0.0936674 -1.88715 0)
(-0.272097 -1.66982 0)
(-0.298294 -1.46786 0)
(-0.134047 -1.2867 0)
(0.0718485 -1.10258 0)
(0.173562 -0.943683 0)
(0.162958 -0.596384 0)
(0.155188 -0.317175 0)
(0.136868 -0.223271 0)
(0.0883096 -0.261596 0)
(0.0504447 -0.339808 0)
(0.0191759 -0.350405 0)
(0.000936548 -0.310292 0)
(-0.0155455 -0.302565 0)
(-0.0409441 -0.235906 0)
(-0.0679893 -0.216379 0)
(-0.115034 -0.193628 0)
(-0.170307 -0.175111 0)
(-0.24163 -0.224026 0)
(-0.412046 -0.684088 0)
(-0.370141 -1.07212 0)
(0.00129108 -1.14484 0)
(0.374825 -0.999186 0)
(0.669546 -1.0273 0)
(0.864417 -1.19823 0)
(0.952966 -1.41203 0)
(0.867707 -1.6095 0)
(0.68749 -1.84851 0)
(0.424397 -1.94976 0)
(0.169242 -1.85033 0)
(-0.0256129 -1.82246 0)
(-0.131227 -1.75454 0)
(-0.0419155 -1.53492 0)
(0.126947 -1.32273 0)
(0.223435 -1.08991 0)
(0.20492 -0.850855 0)
(0.110619 -0.485634 0)
(0.0776536 -0.268691 0)
(0.0766594 -0.222042 0)
(0.0656334 -0.256421 0)
(0.0409587 -0.304242 0)
(0.0133722 -0.311585 0)
(-0.00572331 -0.312258 0)
(-0.019304 -0.3289 0)
(-0.0299152 -0.235336 0)
(-0.0451347 -0.207286 0)
(-0.0756925 -0.161581 0)
(-0.114038 -0.115424 0)
(-0.156622 -0.152761 0)
(-0.300759 -0.615187 0)
(-0.28483 -1.06951 0)
(0.0230311 -1.30396 0)
(0.408048 -1.28628 0)
(0.748987 -1.2438 0)
(0.92366 -1.26508 0)
(0.959609 -1.3522 0)
(0.860095 -1.48677 0)
(0.679775 -1.64161 0)
(0.449369 -1.73517 0)
(0.261705 -1.75705 0)
(0.155757 -1.77219 0)
(0.138336 -1.71294 0)
(0.208509 -1.56514 0)
(0.278031 -1.30413 0)
(0.27385 -1.04948 0)
(0.158797 -0.678366 0)
(0.0591078 -0.379538 0)
(0.0373851 -0.236011 0)
(0.036993 -0.209144 0)
(0.0333029 -0.236911 0)
(0.022132 -0.27757 0)
(0.00716023 -0.283099 0)
(-0.0166932 -0.269263 0)
(-0.0188378 -0.295022 0)
(-0.0142995 -0.23807 0)
(-0.0255293 -0.219785 0)
(-0.0334499 -0.162391 0)
(-0.0602607 -0.106678 0)
(-0.109812 -0.162472 0)
(-0.197842 -0.577162 0)
(-0.208003 -1.1102 0)
(0.0152463 -1.50044 0)
(0.375123 -1.60241 0)
(0.720802 -1.4806 0)
(0.895988 -1.33033 0)
(0.929286 -1.25629 0)
(0.842812 -1.28504 0)
(0.675335 -1.41352 0)
(0.521632 -1.54997 0)
(0.414997 -1.62411 0)
(0.336368 -1.66568 0)
(0.301674 -1.64479 0)
(0.309735 -1.50735 0)
(0.301767 -1.19746 0)
(0.21605 -0.8671 0)
(0.0821219 -0.499988 0)
(0.0169113 -0.29884 0)
(0.00771191 -0.2158 0)
(0.0108804 -0.207618 0)
(0.0126639 -0.230234 0)
(0.00887195 -0.25947 0)
(0.00253171 -0.26345 0)
(-0.0237829 -0.202934 0)
(-0.0223307 -0.230407 0)
(-0.00337201 -0.231219 0)
(-0.00941138 -0.218636 0)
(-0.00257049 -0.172225 0)
(-0.0136625 -0.141054 0)
(-0.0458501 -0.199251 0)
(-0.078883 -0.49005 0)
(-0.14611 -1.10302 0)
(-0.0183661 -1.6988 0)
(0.306482 -1.90359 0)
(0.659736 -1.71109 0)
(0.834356 -1.40137 0)
(0.87747 -1.18542 0)
(0.791052 -1.14115 0)
(0.65381 -1.23636 0)
(0.5384 -1.38562 0)
(0.4683 -1.47401 0)
(0.400413 -1.51004 0)
(0.336679 -1.50272 0)
(0.290644 -1.39282 0)
(0.228305 -1.05734 0)
(0.125896 -0.678265 0)
(0.023878 -0.362308 0)
(-0.0143486 -0.243185 0)
(-0.0161537 -0.205592 0)
(-0.00882903 -0.209349 0)
(-0.00242528 -0.227141 0)
(-0.000834495 -0.246767 0)
(-0.000802571 -0.250393 0)
(-0.0128733 -0.158642 0)
(-0.0194824 -0.174573 0)
(-0.00452399 -0.197329 0)
(0.010622 -0.193372 0)
(0.0185905 -0.17085 0)
(0.0233952 -0.160336 0)
(0.0298053 -0.173565 0)
(-0.00074617 -0.373746 0)
(-0.0941678 -1.02337 0)
(-0.0485182 -1.88404 0)
(0.289525 -2.17223 0)
(0.598044 -1.92591 0)
(0.772697 -1.46799 0)
(0.806903 -1.13776 0)
(0.715012 -1.05656 0)
(0.629596 -1.13637 0)
(0.567599 -1.2505 0)
(0.48953 -1.32527 0)
(0.397193 -1.34384 0)
(0.301047 -1.33006 0)
(0.211891 -1.22198 0)
(0.121376 -0.900079 0)
(0.0454838 -0.52289 0)
(-0.0176658 -0.260685 0)
(-0.039345 -0.204786 0)
(-0.0359901 -0.199864 0)
(-0.0252281 -0.211355 0)
(-0.015344 -0.226054 0)
(-0.00905857 -0.239151 0)
(-0.00349676 -0.243181 0)
(-0.00297537 -0.147233 0)
(-0.00630329 -0.150536 0)
(-0.00119521 -0.161545 0)
(0.012114 -0.16766 0)
(0.0296426 -0.162086 0)
(0.0472556 -0.151563 0)
(0.0567769 -0.152672 0)
(0.0392597 -0.282132 0)
(-0.0494685 -0.939458 0)
(-0.0442601 -1.9963 0)
(0.244329 -2.39637 0)
(0.546129 -2.11416 0)
(0.727466 -1.51455 0)
(0.697874 -1.10448 0)
(0.635096 -0.986246 0)
(0.602878 -1.02799 0)
(0.553129 -1.12273 0)
(0.471495 -1.17282 0)
(0.361271 -1.17178 0)
(0.227111 -1.14664 0)
(0.101382 -1.03092 0)
(0.016782 -0.799239 0)
(-0.0286927 -0.416 0)
(-0.0533197 -0.200654 0)
(-0.0595589 -0.181459 0)
(-0.0501262 -0.194991 0)
(-0.0373483 -0.210172 0)
(-0.0260159 -0.225073 0)
(-0.0160618 -0.236137 0)
(-0.00572541 -0.241114 0)
(0.000460663 -0.154979 0)
(0.00243628 -0.150543 0)
(0.0068179 -0.152047 0)
(0.0184969 -0.155417 0)
(0.0372257 -0.154053 0)
(0.0561014 -0.14804 0)
(0.0696398 -0.149582 0)
(0.0644552 -0.231882 0)
(0.00602859 -0.807554 0)
(-0.0232946 -2.02849 0)
(0.22522 -2.5821 0)
(0.51998 -2.2777 0)
(0.631938 -1.57209 0)
(0.59961 -1.08871 0)
(0.602986 -0.987823 0)
(0.569018 -0.962599 0)
(0.531417 -1.01069 0)
(0.433942 -1.0109 0)
(0.292807 -0.982332 0)
(0.134518 -0.944055 0)
(0.00389772 -0.84586 0)
(-0.0771467 -0.680241 0)
(-0.0975647 -0.366327 0)
(-0.0855454 -0.19223 0)
(-0.0744726 -0.176823 0)
(-0.0574251 -0.194375 0)
(-0.0422818 -0.208206 0)
(-0.0314294 -0.223085 0)
(-0.0202867 -0.235868 0)
(-0.00710094 -0.242522 0)
(0.00436228 -0.165656 0)
(0.0103739 -0.157291 0)
(0.0156845 -0.154454 0)
(0.0270278 -0.154402 0)
(0.0452481 -0.154047 0)
(0.0652955 -0.150221 0)
(0.0790177 -0.150087 0)
(0.0759924 -0.213063 0)
(0.0611685 -0.764827 0)
(0.0297938 -2.05639 0)
(0.228009 -2.74324 0)
(0.467795 -2.45558 0)
(0.55208 -1.61465 0)
(0.571433 -1.12974 0)
(0.561064 -0.95918 0)
(0.554543 -0.944441 0)
(0.517699 -0.936138 0)
(0.401491 -0.870186 0)
(0.234821 -0.800665 0)
(0.0567004 -0.756405 0)
(-0.0827068 -0.706977 0)
(-0.149496 -0.585787 0)
(-0.148899 -0.367623 0)
(-0.117729 -0.228798 0)
(-0.0870656 -0.197254 0)
(-0.0617035 -0.204905 0)
(-0.0424604 -0.213359 0)
(-0.0304849 -0.224236 0)
(-0.0198515 -0.237568 0)
(-0.00698805 -0.245676 0)
(0.00902768 -0.176926 0)
(0.0181035 -0.167797 0)
(0.0230902 -0.162376 0)
(0.0360246 -0.160725 0)
(0.0550909 -0.159441 0)
(0.0775098 -0.155141 0)
(0.0934577 -0.149121 0)
(0.0871323 -0.20148 0)
(0.0964773 -0.777323 0)
(0.080564 -2.0636 0)
(0.206182 -2.88531 0)
(0.370052 -2.59611 0)
(0.487826 -1.65201 0)
(0.498489 -1.0968 0)
(0.483017 -0.898451 0)
(0.462895 -0.846357 0)
(0.393519 -0.76324 0)
(0.263627 -0.645316 0)
(0.115303 -0.566519 0)
(-0.0203677 -0.544098 0)
(-0.128983 -0.550484 0)
(-0.18405 -0.511375 0)
(-0.181353 -0.393393 0)
(-0.141566 -0.28674 0)
(-0.0961306 -0.240627 0)
(-0.0636518 -0.228345 0)
(-0.042433 -0.227926 0)
(-0.0277008 -0.232194 0)
(-0.0163564 -0.24218 0)
(-0.00547445 -0.250112 0)
(0.01166 -0.198584 0)
(0.0243404 -0.185168 0)
(0.0307372 -0.175327 0)
(0.0448872 -0.171683 0)
(0.0662125 -0.169367 0)
(0.092862 -0.162785 0)
(0.113307 -0.146988 0)
(0.103865 -0.188171 0)
(0.103037 -0.761031 0)
(0.0701551 -2.04359 0)
(0.148174 -2.94419 0)
(0.254068 -2.66382 0)
(0.359315 -1.6864 0)
(0.36957 -1.06409 0)
(0.366053 -0.840673 0)
(0.326403 -0.727338 0)
(0.227866 -0.592759 0)
(0.111762 -0.47897 0)
(0.0203362 -0.436482 0)
(-0.0524152 -0.437131 0)
(-0.120066 -0.457771 0)
(-0.173284 -0.461656 0)
(-0.181032 -0.41167 0)
(-0.152141 -0.344061 0)
(-0.105043 -0.296722 0)
(-0.0629379 -0.260661 0)
(-0.0394947 -0.246502 0)
(-0.0246005 -0.244145 0)
(-0.0130337 -0.249094 0)
(-0.00383399 -0.254833 0)
(0.0109561 -0.231997 0)
(0.0299468 -0.209793 0)
(0.0414967 -0.193402 0)
(0.0542522 -0.185916 0)
(0.0781209 -0.183737 0)
(0.111786 -0.179977 0)
(0.141194 -0.159011 0)
(0.133182 -0.184205 0)
(0.0834424 -0.676811 0)
(0.00766666 -1.94181 0)
(0.043993 -2.89862 0)
(0.0830019 -2.65605 0)
(0.161584 -1.69998 0)
(0.198876 -1.02995 0)
(0.217708 -0.754485 0)
(0.175474 -0.596557 0)
(0.0919114 -0.469758 0)
(0.0252854 -0.396203 0)
(-0.0169345 -0.377863 0)
(-0.0508959 -0.382463 0)
(-0.0902979 -0.395384 0)
(-0.134389 -0.40766 0)
(-0.159484 -0.406421 0)
(-0.146252 -0.379671 0)
(-0.109186 -0.346599 0)
(-0.0655716 -0.299607 0)
(-0.0360421 -0.265843 0)
(-0.0212731 -0.25539 0)
(-0.0107908 -0.256506 0)
(-0.0028179 -0.258247 0)
(0.000613743 -0.2721 0)
(0.0258414 -0.262742 0)
(0.0537259 -0.215472 0)
(0.0668817 -0.201354 0)
(0.093719 -0.204677 0)
(0.142584 -0.230295 0)
(0.187314 -0.216185 0)
(0.181727 -0.201225 0)
(0.105643 -0.56941 0)
(-0.0561371 -1.77131 0)
(-0.0981985 -2.7706 0)
(-0.121977 -2.59907 0)
(-0.0864186 -1.72537 0)
(6.03139e-06 -1.04299 0)
(0.0687497 -0.697794 0)
(0.0526297 -0.490892 0)
(0.00881356 -0.391447 0)
(-0.0161133 -0.355549 0)
(-0.0297119 -0.339137 0)
(-0.0465408 -0.342769 0)
(-0.0647452 -0.348899 0)
(-0.0898657 -0.354285 0)
(-0.118681 -0.370735 0)
(-0.126085 -0.383248 0)
(-0.104549 -0.373159 0)
(-0.068702 -0.33797 0)
(-0.0347202 -0.289354 0)
(-0.0173035 -0.264451 0)
(-0.00885167 -0.262645 0)
(-0.002409 -0.260027 0)
(-0.0214294 -0.307877 0)
(0.00863469 -0.37589 0)
(0.0684348 -0.232435 0)
(0.0886075 -0.220032 0)
(0.128749 -0.25422 0)
(0.213902 -0.325389 0)
(0.290009 -0.291928 0)
(0.271478 -0.232803 0)
(0.15344 -0.457674 0)
(-0.0550379 -1.56621 0)
(-0.188216 -2.56834 0)
(-0.273097 -2.48499 0)
(-0.270544 -1.7363 0)
(-0.166375 -1.08379 0)
(-0.0727308 -0.652247 0)
(-0.0530633 -0.429181 0)
(-0.0572321 -0.3454 0)
(-0.0554857 -0.321211 0)
(-0.0515186 -0.310018 0)
(-0.05498 -0.316142 0)
(-0.0564247 -0.321265 0)
(-0.0594647 -0.318652 0)
(-0.0733344 -0.326524 0)
(-0.0941415 -0.354073 0)
(-0.0941996 -0.374072 0)
(-0.0699105 -0.363811 0)
(-0.0364549 -0.319227 0)
(-0.0139309 -0.272427 0)
(-0.00633323 -0.267536 0)
(-0.00171147 -0.261459 0)
(-0.0238934 -0.345928 0)
(0.000790435 -0.550841 0)
(0.0654325 -0.248231 0)
(0.100059 -0.251025 0)
(0.167953 -0.342922 0)
(0.277151 -0.407792 0)
(0.351444 -0.345299 0)
(0.328841 -0.260954 0)
(0.217069 -0.409436 0)
(0.0303822 -1.43757 0)
(-0.158947 -2.35643 0)
(-0.273038 -2.33685 0)
(-0.277742 -1.70924 0)
(-0.211024 -1.08899 0)
(-0.152147 -0.58111 0)
(-0.157045 -0.336837 0)
(-0.149792 -0.28788 0)
(-0.123917 -0.304612 0)
(-0.107373 -0.321448 0)
(-0.08632 -0.322439 0)
(-0.0636246 -0.318685 0)
(-0.0486943 -0.309351 0)
(-0.0448876 -0.303415 0)
(-0.055759 -0.314046 0)
(-0.0716345 -0.347144 0)
(-0.0649663 -0.367517 0)
(-0.0371717 -0.34697 0)
(-0.0141078 -0.281692 0)
(-0.00434993 -0.274182 0)
(-0.000558429 -0.261937 0)
(-0.0154493 -0.384299 0)
(0.00687555 -0.668371 0)