/*--------------------------------*- C++ -*----------------------------------*\
| =========                 |                                                 |
| \\      /  F ield         | OpenFOAM: The Open Source CFD Toolbox           |
|  \\    /   O peration     | Version:  v1606+                                |
|   \\  /    A nd           | Web:      www.OpenFOAM.com                      |
|    \\/     M anipulation  |                                                 |
\*---------------------------------------------------------------------------*/
FoamFile
{
    version     2.0;
    format      ascii;
    class       volScalarField;
    location    "0.66";
    object      dgdt;
}
// * * * * * * * * * * * * * * * * * * * * * * * * * * * * * * * * * * * * * //

dimensions      [0 0 -1 0 0 0 0];

internalField   nonuniform List<scalar> 
6000
(
-15.1126
-15.2403
-15.1803
-15.1847
-15.6409
-16.265
-17.0093
-17.2242
-17.1499
-17.0756
-17.0447
-17.0872
-17.1451
-17.1794
-17.2008
-17.2082
-17.21
-17.1428
-17.0701
-17.0439
-17.1085
-17.178
-17.2421
-16.8921
-16.1934
-15.6004
-15.1823
-15.1553
-15.1883
-15.0721
-2.20812
-2.12138
-2.11046
-2.11613
-2.11498
-2.09188
-2.04679
-1.98751
-2.04491
-2.06637
-2.07459
-2.09292
-2.10442
-2.10456
-2.099
-2.09983
-2.11266
-2.10608
-2.09436
-2.07695
-2.07861
-2.0469
-1.98113
-2.05815
-2.09523
-2.11212
-2.1093
-2.11616
-2.13783
-2.22618
-0.182174
-0.178888
-0.192385
-0.195789
-0.208815
-0.231786
-0.254999
-0.275481
-0.282212
-0.285097
-0.29542
-0.310582
-0.317983
-0.296881
-0.286583
-0.288338
-0.30669
-0.318907
-0.312422
-0.295891
-0.283991
-0.285037
-0.275142
-0.253752
-0.228967
-0.206321
-0.194265
-0.193262
-0.178783
-0.181051
-0.0461899
-0.0334846
-0.0303803
-0.0304793
-0.0339364
-0.0411794
-0.0526397
-0.0653142
-0.0736659
-0.0831258
-0.0987952
-0.105351
-0.0946032
-0.0803999
-0.0759304
-0.077676
-0.0847613
-0.0991592
-0.10931
-0.0987312
-0.0810939
-0.0741031
-0.0649019
-0.0519914
-0.0408133
-0.034045
-0.0310748
-0.0313578
-0.033911
-0.0460399
-0.0372648
-0.0268699
-0.0224651
-0.0206644
-0.0205708
-0.0222296
-0.0254786
-0.0298489
-0.0340027
-0.0454935
-0.0582062
-0.0549792
-0.0438311
-0.0358964
-0.0335112
-0.0351344
-0.0396719
-0.0478641
-0.0598197
-0.0590414
-0.0431982
-0.0344902
-0.0304744
-0.0260637
-0.0229656
-0.0215475
-0.0219236
-0.0239491
-0.0283121
-0.0388554
-0.0527679
-0.0405307
-0.0311352
-0.026713
-0.0242181
-0.0234663
-0.0244781
-0.0261579
-0.0288124
-0.0378535
-0.0432403
-0.0374738
-0.0298701
-0.0247372
-0.0226348
-0.0241951
-0.0282302
-0.0338263
-0.0419852
-0.0451985
-0.036935
-0.0296028
-0.0274396
-0.0255261
-0.0246791
-0.0258978
-0.0283029
-0.0330802
-0.042807
-0.0560068
-0.0605916
-0.0502234
-0.0403025
-0.0343694
-0.0287382
-0.0270204
-0.0289256
-0.0312819
-0.0351959
-0.0403038
-0.040828
-0.0353942
-0.0299148
-0.0241497
-0.0211329
-0.02318
-0.0288069
-0.0343059
-0.0394996
-0.0436323
-0.0415429
-0.0364178
-0.0329819
-0.0304161
-0.0279834
-0.0314138
-0.0367315
-0.0415295
-0.0515942
-0.0627624
-0.0422075
-0.0397318
-0.0362574
-0.0298033
-0.0272225
-0.0296151
-0.031546
-0.0375031
-0.0474275
-0.0541716
-0.0547449
-0.0502752
-0.0409862
-0.0269386
-0.0211414
-0.0246755
-0.0372387
-0.0499784
-0.0551042
-0.0582616
-0.0561091
-0.0491259
-0.0394916
-0.034093
-0.0289395
-0.0297568
-0.0307981
-0.0371359
-0.0406246
-0.0426762
-0.017704
-0.0186624
-0.020521
-0.0225023
-0.0229285
-0.0182828
-0.0240568
-0.037963
-0.0560832
-0.0709511
-0.0757669
-0.0731602
-0.0577407
-0.0309616
-0.0188316
-0.0262748
-0.0505478
-0.0737527
-0.079295
-0.0790871
-0.0716354
-0.0561307
-0.0376911
-0.0255416
-0.0258091
-0.0255755
-0.0230798
-0.0211616
-0.01923
-0.0182165
-0.0131443
-0.0127966
-0.0127169
-0.0137718
-0.0157148
-0.0176097
-0.0243902
-0.0342247
-0.0465066
-0.0564895
-0.0591438
-0.0581694
-0.0495442
-0.0263024
-0.0115263
-0.0218015
-0.0461451
-0.0587342
-0.0612761
-0.0608183
-0.05637
-0.0458688
-0.0345223
-0.0252873
-0.0200838
-0.0171072
-0.0150382
-0.0139219
-0.0139165
-0.0142461
-0.0121629
-0.0118941
-0.0122988
-0.0137473
-0.0159645
-0.0184916
-0.0202955
-0.0209294
-0.0226449
-0.0253181
-0.0275934
-0.0273967
-0.0244416
-0.0192783
-0.0107686
-0.0181728
-0.0224124
-0.0253326
-0.0271045
-0.0265276
-0.0239863
-0.0218401
-0.0209786
-0.0209124
-0.0194917
-0.0172732
-0.015172
-0.0136708
-0.0131054
-0.0133782
-0.011889
-0.012014
-0.0129655
-0.0143203
-0.0161532
-0.018288
-0.0177678
-0.0130055
-0.00951704
-0.00900484
-0.00955189
-0.0100536
-0.011093
-0.0128133
-0.0125489
-0.0140645
-0.01169
-0.0102649
-0.00996399
-0.00942183
-0.00929044
-0.0100005
-0.0141774
-0.0188884
-0.0192713
-0.0175484
-0.0159984
-0.0146344
-0.0134853
-0.0131329
-0.0122562
-0.0128266
-0.0135913
-0.0145492
-0.0158686
-0.0167792
-0.0151602
-0.010443
-0.00685515
-0.00591243
-0.00582108
-0.00671585
-0.00917707
-0.0127602
-0.0136763
-0.0142708
-0.0111238
-0.00788408
-0.00687663
-0.00635905
-0.00570521
-0.0077982
-0.0118862
-0.0168551
-0.0183128
-0.017575
-0.016567
-0.0156479
-0.0147162
-0.0139477
-0.0133925
-0.0136852
-0.0140717
-0.0146266
-0.0152569
-0.0153155
-0.0134769
-0.00954665
-0.006769
-0.00592319
-0.00617204
-0.00715393
-0.0101715
-0.0135695
-0.0141574
-0.0146747
-0.012692
-0.00880861
-0.00730602
-0.00648138
-0.00726628
-0.00750854
-0.0109622
-0.0154993
-0.0174252
-0.017513
-0.017179
-0.0167514
-0.0162531
-0.0158545
-0.0143936
-0.0143599
-0.0145347
-0.0148229
-0.0149639
-0.0146844
-0.0127619
-0.00921377
-0.00681051
-0.00633429
-0.00618501
-0.00801893
-0.0114527
-0.0135357
-0.014327
-0.0146816
-0.0137473
-0.010318
-0.00796028
-0.00730483
-0.00650604
-0.00759582
-0.0107157
-0.0149869
-0.0170007
-0.017499
-0.0177925
-0.0180265
-0.0180917
-0.0180802
-0.0151275
-0.0148542
-0.0148514
-0.0149534
-0.014996
-0.0151258
-0.0136448
-0.00957898
-0.00687833
-0.0061857
-0.00633355
-0.00862435
-0.0117674
-0.0133807
-0.0144979
-0.0147862
-0.0138798
-0.0112483
-0.0084337
-0.00669911
-0.00721239
-0.00757148
-0.0111237
-0.0151922
-0.0167264
-0.0173317
-0.0181584
-0.0191605
-0.0202009
-0.0209156
-0.0157709
-0.0152395
-0.0148577
-0.0147274
-0.0147719
-0.0151158
-0.0150365
-0.011241
-0.00718644
-0.00639369
-0.00638975
-0.00874315
-0.0118197
-0.0136442
-0.0145027
-0.0149543
-0.0142283
-0.0118016
-0.00866726
-0.00734715
-0.00665369
-0.00793288
-0.0120305
-0.0156995
-0.0172915
-0.0180652
-0.0190348
-0.0204743
-0.0223189
-0.0241297
-0.0167184
-0.0157932
-0.0148659
-0.0145391
-0.014587
-0.0150464
-0.0154211
-0.0131637
-0.00814034
-0.00633693
-0.00640699
-0.0086445
-0.0119908
-0.0137692
-0.0144208
-0.0150278
-0.014997
-0.0123102
-0.00898783
-0.00732956
-0.00697315
-0.0088342
-0.0135397
-0.01804
-0.0215053
-0.0228864
-0.0236778
-0.0250707
-0.0270617
-0.0288705
-0.0178676
-0.016687
-0.0153766
-0.0147303
-0.0148753
-0.0155044
-0.0155519
-0.0139438
-0.0094058
-0.00643146
-0.00624155
-0.00847797
-0.0122576
-0.0139935
-0.014688
-0.0155539
-0.016375
-0.0142451
-0.00987659
-0.00765793
-0.00790569
-0.0113437
-0.0184035
-0.0278078
-0.0325857
-0.0326379
-0.0325115
-0.0332306
-0.0348653
-0.0358531
-0.0188171
-0.0183927
-0.0169417
-0.0167087
-0.0172116
-0.0180623
-0.0164677
-0.0138674
-0.00990978
-0.00703993
-0.00624298
-0.00883532
-0.013016
-0.0148606
-0.0154734
-0.0164217
-0.0180003
-0.0171231
-0.0120267
-0.00953643
-0.0110845
-0.0186063
-0.0333272
-0.0425808
-0.0428057
-0.0417142
-0.0415548
-0.041705
-0.0423504
-0.0424003
-0.0212642
-0.0216936
-0.0217245
-0.0245138
-0.0264831
-0.0276412
-0.022457
-0.0147773
-0.0109908
-0.00847232
-0.00768518
-0.0107925
-0.0152727
-0.0171389
-0.0173589
-0.0184186
-0.0211052
-0.0207526
-0.0164555
-0.0143017
-0.0197441
-0.0365174
-0.0537981
-0.0557607
-0.0525465
-0.0510074
-0.0505554
-0.0499337
-0.0491876
-0.0484417
-0.0211464
-0.0291122
-0.0304754
-0.0330688
-0.03666
-0.0392247
-0.0384139
-0.023978
-0.0150965
-0.0116909
-0.0119085
-0.0166054
-0.0209542
-0.0210455
-0.0209116
-0.0233359
-0.0278856
-0.0287723
-0.0247491
-0.0259825
-0.0412697
-0.0681142
-0.0786674
-0.0738328
-0.0673797
-0.0623818
-0.0588205
-0.0563418
-0.0543755
-0.0532855
-0.0518576
-0.0435452
-0.049152
-0.0538519
-0.0563908
-0.0590483
-0.0637291
-0.0574364
-0.0339377
-0.0212506
-0.0222028
-0.0314493
-0.0316503
-0.025881
-0.0269411
-0.032936
-0.0398939
-0.0425534
-0.0408527
-0.0522992
-0.0843884
-0.106259
-0.103895
-0.0949566
-0.0846057
-0.0740952
-0.0648251
-0.0591139
-0.0553615
-0.0538179
-0.0654746
-0.0700712
-0.0738505
-0.0777414
-0.0806131
-0.0838825
-0.0903551
-0.0990528
-0.0860178
-0.0564097
-0.0482609
-0.0559671
-0.0434525
-0.0307185
-0.0353675
-0.0478297
-0.0582409
-0.0598177
-0.0667892
-0.0951598
-0.125398
-0.129766
-0.122232
-0.110293
-0.0921217
-0.0770415
-0.0655825
-0.0576122
-0.052136
-0.0492524
-0.0937725
-0.089415
-0.0900737
-0.0927355
-0.0998355
-0.108309
-0.116151
-0.127466
-0.134836
-0.116339
-0.0887676
-0.0714379
-0.0511534
-0.0364858
-0.046181
-0.0642161
-0.0757321
-0.0768606
-0.0951305
-0.125276
-0.138648
-0.137099
-0.124109
-0.09884
-0.0743183
-0.062344
-0.0545456
-0.0494565
-0.0452527
-0.0414733
-0.0982036
-0.0932955
-0.0948598
-0.0989392
-0.112315
-0.127383
-0.134749
-0.141866
-0.147917
-0.143108
-0.116164
-0.07762
-0.0540662
-0.0415507
-0.0572494
-0.0762217
-0.0806991
-0.086177
-0.108324
-0.127325
-0.133719
-0.124019
-0.0943284
-0.0628339
-0.0491744
-0.043554
-0.0373866
-0.0347292
-0.0336796
-0.0309093
-0.085842
-0.0866802
-0.086817
-0.0888456
-0.0995057
-0.108949
-0.129139
-0.137963
-0.143953
-0.138213
-0.12026
-0.0896977
-0.0581298
-0.0421806
-0.0611476
-0.0750713
-0.0766027
-0.0841145
-0.104563
-0.116932
-0.11403
-0.0884981
-0.0563755
-0.0415349
-0.0383552
-0.0364621
-0.0291369
-0.0220321
-0.0203521
-0.0179935
-0.0699317
-0.0678791
-0.0649892
-0.0624724
-0.0618622
-0.0646932
-0.0875481
-0.105574
-0.121901
-0.125305
-0.114056
-0.0940622
-0.0673173
-0.0425915
-0.057039
-0.0671037
-0.0701319
-0.0823664
-0.0977995
-0.101082
-0.0836917
-0.0555579
-0.0396879
-0.035205
-0.0349049
-0.0346309
-0.0296753
-0.0205687
-0.012469
-0.00872719
-0.0497633
-0.0442332
-0.0396492
-0.0395619
-0.0428149
-0.0448239
-0.049819
-0.0633091
-0.0836516
-0.100421
-0.100596
-0.0870984
-0.0679661
-0.0477412
-0.0545808
-0.0608477
-0.0682102
-0.0822864
-0.0897071
-0.0802006
-0.0577409
-0.0448132
-0.0408901
-0.0383288
-0.0392247
-0.0383854
-0.0336198
-0.0243197
-0.0171409
-0.0141992
-0.0269282
-0.0267378
-0.0239929
-0.0271506
-0.0331439
-0.0340031
-0.0338399
-0.0362505
-0.0468187
-0.0639274
-0.0747465
-0.0738461
-0.0620532
-0.0514538
-0.0555858
-0.0645344
-0.0696261
-0.0774653
-0.0750453
-0.0582331
-0.0432504
-0.0369174
-0.0332711
-0.0306675
-0.0297092
-0.028302
-0.0238966
-0.0187829
-0.0131281
-0.00924171
-0.00813178
-0.00924431
-0.0121629
-0.015852
-0.0197427
-0.0203834
-0.0192078
-0.0159994
-0.0176538
-0.0243342
-0.040808
-0.0498183
-0.0496605
-0.0431566
-0.0459355
-0.0563181
-0.0601298
-0.0616422
-0.0503538
-0.0344686
-0.0211399
-0.0137482
-0.00979504
-0.00820904
-0.00778421
-0.00812945
-0.00669521
-0.00439571
-0.00264913
-0.00233546
-0.00251197
-0.00209344
-0.00271592
-0.00405124
-0.00558278
-0.00538222
-0.00447674
-0.00350451
-0.00347233
-0.00437563
-0.0106706
-0.0241831
-0.0296381
-0.0262743
-0.0268367
-0.0341995
-0.0390728
-0.0343333
-0.0222499
-0.00905601
-0.00342136
-0.00207473
-0.00156767
-0.00138173
-0.0013027
-0.00130439
-0.00122136
-0.000976435
-0.00105465
-0.0014896
-0.00206773
-0.00125428
-0.00112512
-0.0011888
-0.00133687
-0.00132664
-0.0013427
-0.00135698
-0.00139728
-0.00142646
-0.00207477
-0.00679713
-0.0140433
-0.00966357
-0.0105481
-0.0157167
-0.0188548
-0.0134313
-0.00477745
-0.00149568
-0.00104917
-0.000981071
-0.000929295
-0.000882285
-0.000916118
-0.000787085
-0.000861204
-0.000834437
-0.000960918
-0.00152895
-0.00211493
-0.00123165
-0.00113186
-0.00110727
-0.00110073
-0.00110552
-0.00117268
-0.00129025
-0.0013727
-0.00137961
-0.00141465
-0.0030006
-0.00701833
-0.00456673
-0.00373827
-0.00724593
-0.00881459
-0.004139
-0.0014224
-0.0010614
-0.00104343
-0.00101734
-0.000962049
-0.000926355
-0.000799642
-0.000940437
-0.000761457
-0.000892148
-0.000958115
-0.00158428
-0.00213797
-0.00132882
-0.00116579
-0.00112539
-0.00113832
-0.00116841
-0.00119738
-0.00130213
-0.00141831
-0.00148226
-0.00150492
-0.00250215
-0.00587691
-0.00535156
-0.00433284
-0.00561512
-0.00628219
-0.00246688
-0.00126856
-0.00117841
-0.00112889
-0.00104583
-0.000964188
-0.000913756
-0.000915729
-0.000855875
-0.000967868
-0.000918789
-0.00098588
-0.00159203
-0.00212502
-0.00145242
-0.00118879
-0.00109329
-0.0011547
-0.00116024
-0.00120471
-0.00132161
-0.00148483
-0.00159796
-0.00162839
-0.0023111
-0.00538899
-0.00710603
-0.00669731
-0.00681592
-0.00651156
-0.00221734
-0.00138305
-0.00128796
-0.0012095
-0.00108863
-0.000970227
-0.00091267
-0.00090608
-0.000954741
-0.000912357
-0.000941919
-0.0010761
-0.00159107
-0.00217236
-0.00153815
-0.00122555
-0.00120689
-0.00115237
-0.00116051
-0.00123441
-0.00139104
-0.00159798
-0.00172937
-0.00174947
-0.00213377
-0.00458398
-0.00962945
-0.0070688
-0.00801001
-0.00610387
-0.00209079
-0.0014561
-0.00136724
-0.0012925
-0.00116515
-0.00101823
-0.000928399
-0.000905143
-0.000868086
-0.000954936
-0.000957445
-0.00116284
-0.00163026
-0.00224853
-0.00158354
-0.00125403
-0.00123946
-0.00120561
-0.00119852
-0.00129571
-0.00151363
-0.00174413
-0.00187756
-0.00189472
-0.00215133
-0.00464135
-0.00712474
-0.0062063
-0.00655408
-0.00493677
-0.00202748
-0.00151162
-0.00143284
-0.00137265
-0.00126016
-0.00110423
-0.000972758
-0.000916322
-0.000962775
-0.000858718
-0.00097255
-0.00121619
-0.00164737
-0.00203209
-0.00158465
-0.00126625
-0.00128415
-0.00119572
-0.00124246
-0.0013964
-0.00165178
-0.00189178
-0.00201642
-0.00202714
-0.00214807
-0.00434451
-0.00656307
-0.00562277
-0.00545953
-0.00435733
-0.00201976
-0.00156695
-0.00149281
-0.001445
-0.0013486
-0.00120052
-0.00105021
-0.000946216
-0.000969273
-0.000991167
-0.000996286
-0.00123064
-0.00169454
-0.00184155
-0.00153845
-0.00126878
-0.00115775
-0.00123609
-0.00129319
-0.0015037
-0.00178172
-0.00202478
-0.00213919
-0.00214886
-0.00220396
-0.00354185
-0.00592727
-0.00579035
-0.00571392
-0.0043059
-0.0020609
-0.00163508
-0.00155229
-0.00150711
-0.00142584
-0.00129167
-0.00113678
-0.00100786
-0.000947918
-0.000999717
-0.00100354
-0.00121355
-0.0014711
-0.00172869
-0.00147988
-0.00127017
-0.00121713
-0.00124415
-0.00135433
-0.00160537
-0.00189615
-0.00214215
-0.00224641
-0.00226086
-0.00231102
-0.00301438
-0.00468989
-0.00696171
-0.00631891
-0.00441044
-0.00212709
-0.00170016
-0.00161051
-0.00156577
-0.00149573
-0.00137554
-0.00122769
-0.00107304
-0.000976427
-0.00102069
-0.000999138
-0.00117334
-0.00134964
-0.00166563
-0.00144065
-0.00127641
-0.00126459
-0.00127
-0.00143045
-0.00170811
-0.00200742
-0.00224945
-0.00234306
-0.00236774
-0.00244872
-0.00288102
-0.00431659
-0.00465271
-0.00586022
-0.00426784
-0.00217859
-0.00176231
-0.00167227
-0.00162872
-0.00156628
-0.00146283
-0.00132538
-0.00115241
-0.00101785
-0.00097705
-0.00100234
-0.00113957
-0.00130156
-0.0016142
-0.00141491
-0.00128904
-0.00125162
-0.00132391
-0.0015215
-0.00183053
-0.00212836
-0.00235099
-0.0024289
-0.00246699
-0.00258474
-0.00305329
-0.00463206
-0.00366675
-0.00571894
-0.00421211
-0.00225606
-0.00183993
-0.00174109
-0.00169566
-0.00164701
-0.00156183
-0.00144171
-0.00125893
-0.00108036
-0.00101177
-0.00101881
-0.00112595
-0.00128381
-0.00155796
-0.00141203
-0.00131992
-0.00131898
-0.00140843
-0.00165408
-0.00198904
-0.0022631
-0.00244747
-0.00251225
-0.00255848
-0.00269452
-0.0031731
-0.00489732
-0.00567033
-0.00651043
-0.00434022
-0.00233898
-0.0019183
-0.00181683
-0.00177661
-0.00174123
-0.00167537
-0.00158406
-0.00140295
-0.00118321
-0.0010479
-0.00103787
-0.00112693
-0.00126577
-0.00146659
-0.00143006
-0.00137707
-0.00139781
-0.00154576
-0.00184443
-0.00218404
-0.00240373
-0.00254185
-0.00259679
-0.00264384
-0.00278578
-0.0032513
-0.00495324
-0.00644207
-0.00693414
-0.00441165
-0.00241131
-0.00199862
-0.0019068
-0.0018749
-0.00184816
-0.00180099
-0.00174693
-0.00158824
-0.00133675
-0.00113205
-0.00107507
-0.00113846
-0.0012345
-0.00149255
-0.00146422
-0.00145639
-0.00151981
-0.00173901
-0.00209079
-0.00239771
-0.00254172
-0.00263734
-0.00267995
-0.00273404
-0.00289102
-0.00334922
-0.00495638
-0.00654059
-0.00707313
-0.00451529
-0.00251989
-0.00210435
-0.00201495
-0.00198424
-0.00196776
-0.00193381
-0.00191305
-0.00179386
-0.00153666
-0.00125913
-0.00113333
-0.00114733
-0.00119145
-0.00141651
-0.0015099
-0.00155131
-0.00167849
-0.00198065
-0.00237114
-0.00260722
-0.00267489
-0.00273635
-0.00277452
-0.00283813
-0.00300501
-0.00345948
-0.00496233
-0.00648362
-0.00703962
-0.00462089
-0.00264535
-0.00221947
-0.00214005
-0.00211154
-0.00209742
-0.00206829
-0.00206347
-0.00198257
-0.00175541
-0.00143053
-0.00120462
-0.00114309
-0.00111
-0.00144063
-0.00155221
-0.00165198
-0.00185938
-0.00225162
-0.00265371
-0.00279923
-0.00281083
-0.00284706
-0.00288486
-0.00295722
-0.00313275
-0.00359735
-0.00504846
-0.0064494
-0.00654724
-0.00476018
-0.00278525
-0.00234711
-0.00227562
-0.00225238
-0.00223543
-0.00220078
-0.00218653
-0.00212102
-0.00194118
-0.0016109
-0.0012928
-0.00114544
-0.00112895
-0.00144643
-0.00161418
-0.00174574
-0.00203995
-0.00252311
-0.00290604
-0.00297477
-0.00295797
-0.00297757
-0.00301878
-0.0030937
-0.00326839
-0.0037263
-0.00509878
-0.00633121
-0.00613017
-0.00471913
-0.00294163
-0.00248697
-0.00241624
-0.00240118
-0.00237754
-0.0023282
-0.00227958
-0.00219257
-0.00203734
-0.00174285
-0.00138244
-0.00115865
-0.00095458
-0.00164889
-0.00165665
-0.00181573
-0.00219735
-0.00275439
-0.0031024
-0.0031396
-0.00311915
-0.00313745
-0.00318095
-0.003252
-0.00342364
-0.00386245
-0.00511181
-0.00602917
-0.00552575
-0.00467192
-0.00316589
-0.00264912
-0.00256874
-0.00255655
-0.0025242
-0.00245475
-0.00234964
-0.0022034
-0.00202443
-0.00178232
-0.00144875
-0.0011495
-0.000947188
-0.00163956
-0.0016735
-0.00184925
-0.00231617
-0.00289784
-0.0032286
-0.00329545
-0.00329975
-0.00332849
-0.00337432
-0.00344086
-0.00361294
-0.00403803
-0.00514299
-0.00577923
-0.00520951
-0.0046941
-0.00344706
-0.00284231
-0.00273722
-0.00272071
-0.0026887
-0.00259782
-0.00241659
-0.00218573
-0.00197166
-0.001753
-0.00146928
-0.00115046
-0.00123992
-0.0015769
-0.00166096
-0.00185995
-0.00238158
-0.00292521
-0.00328185
-0.00343531
-0.00349938
-0.00354401
-0.0035921
-0.00364961
-0.00381438
-0.0042078
-0.00518716
-0.0055715
-0.00505151
-0.0047254
-0.00377429
-0.00307864
-0.00292788
-0.00290138
-0.00287741
-0.00276555
-0.00250019
-0.0021681
-0.00189545
-0.00167499
-0.00144369
-0.00116791
-0.000745343
-0.00147192
-0.00162535
-0.00187019
-0.00237924
-0.00287617
-0.00326394
-0.00354213
-0.00370062
-0.00378088
-0.00383625
-0.00389452
-0.00404693
-0.00448894
-0.00520487
-0.00543774
-0.00502741
-0.00476045
-0.00406912
-0.00335325
-0.00314637
-0.00310238
-0.00307019
-0.00293249
-0.0026036
-0.00217182
-0.00182231
-0.00158238
-0.00140232
-0.00118395
-0.00136684
-0.00155273
-0.00158522
-0.00188317
-0.00232775
-0.00276884
-0.0032021
-0.00361083
-0.00388924
-0.00402714
-0.00409596
-0.0041629
-0.00429511
-0.00479329
-0.00526291
-0.00533857
-0.00501113
-0.00478716
-0.00431387
-0.00365786
-0.00338253
-0.00330801
-0.00324713
-0.00307651
-0.00272249
-0.00221857
-0.00178484
-0.00151968
-0.00134595
-0.00120034
-0.00127091
-0.00151483
-0.00155442
-0.00188008
-0.002244
-0.0026451
-0.00313616
-0.00366899
-0.00407195
-0.00427133
-0.0043594
-0.00443822
-0.00453161
-0.0049625
-0.0052903
-0.00524491
-0.00499315
-0.00482373
-0.00451967
-0.00397362
-0.00363033
-0.00352048
-0.00343081
-0.00322559
-0.00286522
-0.00233586
-0.00182505
-0.00149116
-0.0012976
-0.00119693
-0.000987099
-0.00148526
-0.0015444
-0.00185703
-0.00216679
-0.00256605
-0.00311466
-0.00374454
-0.00425529
-0.00451711
-0.00459246
-0.00469111
-0.00481768
-0.00517589
-0.00535662
-0.00521751
-0.00500123
-0.00487969
-0.00471457
-0.00429271
-0.00389319
-0.00375856
-0.00366369
-0.00343862
-0.00305108
-0.00253192
-0.00196999
-0.00153241
-0.00128053
-0.00118824
-0.000603129
-0.00149254
-0.00155526
-0.00183501
-0.00213211
-0.00256868
-0.00317179
-0.00386364
-0.00444284
-0.00475234
-0.00486383
-0.00501039
-0.00519426
-0.00544137
-0.00546581
-0.0052646
-0.00506859
-0.00498826
-0.00492263
-0.00463078
-0.00422312
-0.00403725
-0.00390635
-0.00368112
-0.00330477
-0.00280043
-0.00221839
-0.0017021
-0.00135136
-0.0011922
-0.0010302
-0.00152722
-0.00160101
-0.00184002
-0.00217332
-0.00267254
-0.00332102
-0.00404789
-0.00466691
-0.0050515
-0.00525901
-0.00544293
-0.00562635
-0.00574938
-0.00563541
-0.00538993
-0.00521881
-0.00517342
-0.00518833
-0.00503834
-0.00469221
-0.00442923
-0.00420883
-0.00393878
-0.003589
-0.00312568
-0.00254376
-0.00199028
-0.00155164
-0.00126385
-0.00104546
-0.00159747
-0.0017097
-0.00191748
-0.00231531
-0.00288303
-0.00358754
-0.00433387
-0.00497389
-0.00544296
-0.00570972
-0.00591741
-0.00608352
-0.00609762
-0.00588032
-0.00563554
-0.0054926
-0.00547207
-0.00553939
-0.00551588
-0.00526692
-0.00496367
-0.00467852
-0.00433572
-0.00391166
-0.00348095
-0.00292134
-0.00234426
-0.00185139
-0.00144883
-0.000998868
-0.00169677
-0.00188967
-0.00211276
-0.00256966
-0.0032046
-0.00396291
-0.00473068
-0.00541906
-0.00593716
-0.00623338
-0.00645976
-0.00659652
-0.00651818
-0.00625368
-0.00603864
-0.00595597
-0.00594852
-0.00601891
-0.00607846
-0.00593298
-0.00562881
-0.00528915
-0.00490594
-0.00440145
-0.00388391
-0.00333961
-0.00274763
-0.00221561
-0.00174606
-0.00128487
-0.00182779
-0.00214338
-0.00243329
-0.0029411
-0.0036662
-0.00442534
-0.0052682
-0.00606266
-0.00657914
-0.00686361
-0.00707748
-0.00717406
-0.00704192
-0.00679924
-0.00665548
-0.00664304
-0.00665542
-0.0066896
-0.0067708
-0.00671448
-0.0064446
-0.00607043
-0.00564509
-0.0050929
-0.00439917
-0.00379049
-0.0032183
-0.00265385
-0.00216407
-0.00167346
-0.00202931
-0.00247563
-0.00285449
-0.0034393
-0.00423283
-0.0050692
-0.00607597
-0.00695277
-0.00740419
-0.00761158
-0.00777428
-0.00783201
-0.00770714
-0.00755031
-0.00749805
-0.00755088
-0.00758408
-0.00758198
-0.00762344
-0.00760694
-0.00740251
-0.00704996
-0.0066145
-0.00600981
-0.00513522
-0.00428066
-0.0037262
-0.00319564
-0.00273458
-0.002338
-0.00236668
-0.0029005
-0.00338398
-0.0040597
-0.00496688
-0.00606581
-0.00731087
-0.00812956
-0.00839558
-0.00846073
-0.00855354
-0.00860694
-0.00856354
-0.0085341
-0.00857931
-0.00866443
-0.00869744
-0.00865077
-0.00860472
-0.00855916
-0.00842365
-0.00818648
-0.0078936
-0.00740603
-0.00638188
-0.00500868
-0.00425188
-0.00387493
-0.00354501
-0.00321944
-0.00291945
-0.00348578
-0.00410946
-0.00494059
-0.00613834
-0.00765535
-0.00894546
-0.00951698
-0.00952426
-0.0094654
-0.00952392
-0.00961608
-0.00968825
-0.00977638
-0.00988093
-0.00994692
-0.00993065
-0.00981274
-0.00965872
-0.00952955
-0.00941629
-0.00931131
-0.00926075
-0.00917644
-0.00859818
-0.0066898
-0.00507153
-0.00480545
-0.00483041
-0.00461413
-0.00377317
-0.0044082
-0.00519592
-0.00632944
-0.00808872
-0.00991413
-0.0109086
-0.0109649
-0.010772
-0.0107397
-0.0108757
-0.0110621
-0.0112416
-0.0114012
-0.0115179
-0.0115437
-0.0114548
-0.0112467
-0.0109731
-0.0107083
-0.010499
-0.0103792
-0.0104037
-0.0105367
-0.010621
-0.0094907
-0.00686125
-0.00630593
-0.00669256
-0.0067718
-0.00531007
-0.00594336
-0.00706653
-0.00891501
-0.0112773
-0.0127099
-0.0129941
-0.0128628
-0.0127527
-0.0128305
-0.0130659
-0.0133594
-0.0136387
-0.013859
-0.0139816
-0.0139643
-0.0137871
-0.0134535
-0.0130065
-0.0125163
-0.0120565
-0.0117009
-0.0115267
-0.0115508
-0.0117945
-0.0114044
-0.0100143
-0.00959929
-0.00971338
-0.0098297
-0.00836034
-0.00893765
-0.0111634
-0.0136203
-0.0152679
-0.0158779
-0.0157633
-0.015551
-0.0155242
-0.015699
-0.0159933
-0.0163182
-0.0166072
-0.0168113
-0.0168926
-0.0168173
-0.0165654
-0.016133
-0.0155424
-0.0148423
-0.0141056
-0.0134246
-0.0128872
-0.0125432
-0.0124669
-0.0124656
-0.0129307
-0.0159633
-0.0159785
-0.0148075
-0.0156453
-0.0158431
-0.018755
-0.0195448
-0.0196257
-0.019166
-0.018679
-0.0185061
-0.0185868
-0.018825
-0.0191348
-0.0194434
-0.0196992
-0.0198636
-0.0199078
-0.0198054
-0.0195351
-0.0190781
-0.0184361
-0.0176254
-0.0166969
-0.0157358
-0.014825
-0.0140089
-0.0133092
-0.0129609
-0.0154839
-0.0232058
-0.0241605
-0.0208734
-0.0340471
-0.0275466
-0.0266512
-0.0247012
-0.022976
-0.0219181
-0.0215188
-0.0215212
-0.0217327
-0.022034
-0.0223483
-0.022629
-0.0228323
-0.0229477
-0.0229638
-0.0228651
-0.0226372
-0.0222381
-0.0216623
-0.0209002
-0.0199505
-0.0188772
-0.0177505
-0.0165686
-0.0151061
-0.0135148
-0.0173495
-0.0255332
-0.0273501
-0.0227482
-0.0533051
-0.0349532
-0.0301602
-0.0269854
-0.0250234
-0.0242586
-0.0241892
-0.0244392
-0.024802
-0.025148
-0.0254425
-0.0256822
-0.0258289
-0.0259045
-0.0259112
-0.0258511
-0.025691
-0.0254629
-0.0250358
-0.0244999
-0.0237288
-0.0228102
-0.0218286
-0.0207397
-0.0188924
-0.0155739
-0.0171619
-0.0226402
-0.0225348
-0.0193853
-0.0523037
-0.034594
-0.0291938
-0.0271002
-0.0261746
-0.0260896
-0.0264765
-0.027004
-0.0275109
-0.0279171
-0.0282244
-0.0283831
-0.0284404
-0.0284489
-0.0284413
-0.0284557
-0.0284458
-0.0284566
-0.0283474
-0.0280256
-0.0276439
-0.0270457
-0.0265396
-0.0262269
-0.0253365
-0.0224664
-0.0211578
-0.0211727
-0.0197517
-0.0193852
-0.0459495
-0.030426
-0.0266499
-0.0261809
-0.0265159
-0.027226
-0.0280999
-0.0289198
-0.029601
-0.0301033
-0.0303895
-0.030355
-0.0301113
-0.0298838
-0.0297676
-0.0298779
-0.0301021
-0.0305751
-0.0310543
-0.0312309
-0.0311798
-0.0309385
-0.0308303
-0.0312637
-0.0320506
-0.0316318
-0.0301859
-0.027633
-0.0257262
-0.0275945
-0.0389741
-0.0258046
-0.0239367
-0.0248239
-0.0261711
-0.0275508
-0.0287847
-0.0299484
-0.0308059
-0.0312316
-0.0309751
-0.0302082
-0.0291463
-0.0283422
-0.0279263
-0.028093
-0.0286047
-0.0298455
-0.0314644
-0.0328543
-0.0336832
-0.0339423
-0.0339836
-0.0344145
-0.0355286
-0.0365524
-0.036558
-0.0355808
-0.0317827
-0.0352148
-0.0325254
-0.0219678
-0.0216185
-0.0233296
-0.0252749
-0.0271127
-0.028761
-0.0300668
-0.0305335
-0.0298891
-0.0283121
-0.0262199
-0.0241129
-0.0226916
-0.0219665
-0.0220742
-0.02279
-0.024574
-0.0272177
-0.0304796
-0.0333143
-0.0350968
-0.0355618
-0.0356434
-0.0359551
-0.0364701
-0.0362436
-0.0349335
-0.0320504
-0.0432974
-0.0268571
-0.0193013
-0.0198123
-0.0217553
-0.0239126
-0.0259694
-0.0276287
-0.028309
-0.0274878
-0.0251595
-0.0222366
-0.0196559
-0.0177974
-0.0167203
-0.0162334
-0.0163023
-0.016887
-0.0183149
-0.0202366
-0.023914
-0.0282776
-0.032823
-0.0348186
-0.0350417
-0.0346381
-0.0341241
-0.0330506
-0.030976
-0.0292385
-0.0360811
-0.0227233
-0.0174064
-0.0181998
-0.0199392
-0.0220624
-0.0239933
-0.0250682
-0.0245205
-0.0221624
-0.0192973
-0.0169421
-0.0154955
-0.0148775
-0.014724
-0.0147353
-0.0148312
-0.0149714
-0.0156085
-0.0167802
-0.01841
-0.0214867
-0.0267902
-0.0311507
-0.0325354
-0.0321368
-0.0309148
-0.0292691
-0.0270004
-0.0254627
-0.0316143
-0.0183695
-0.0153666
-0.0160967
-0.0177789
-0.0197184
-0.0211931
-0.0213355
-0.0197488
-0.0176196
-0.0162374
-0.0153126
-0.0149123
-0.0146302
-0.0149129
-0.0150405
-0.015096
-0.0151702
-0.0156189
-0.0163067
-0.0171649
-0.0182484
-0.0208906
-0.0252438
-0.0282526
-0.0287319
-0.027488
-0.0255474
-0.0232719
-0.0215859
-0.027742
-0.0139514
-0.012896
-0.0136772
-0.0153331
-0.0168838
-0.0176844
-0.0172371
-0.0160523
-0.0153647
-0.0152399
-0.0150422
-0.0150871
-0.0151557
-0.0150698
-0.015497
-0.0154431
-0.0155931
-0.0160146
-0.0165875
-0.0173653
-0.0178722
-0.0184653
-0.020331
-0.0229603
-0.0246598
-0.0239829
-0.0220524
-0.0200109
-0.018576
-0.0233835
-0.0101448
-0.0103404
-0.0112175
-0.0125928
-0.0135228
-0.0136876
-0.0137826
-0.0135732
-0.0136498
-0.014414
-0.0149493
-0.0151212
-0.0150745
-0.0147559
-0.0176673
-0.0153517
-0.0157341
-0.0161498
-0.0165933
-0.0172967
-0.0179563
-0.018607
-0.0185431
-0.0185572
-0.0204663
-0.0204262
-0.0187196
-0.0167813
-0.0157822
-0.0186931
-0.00725249
-0.00806413
-0.00880597
-0.00958254
-0.00982327
-0.0101422
-0.0112569
-0.012135
-0.0126215
-0.0134846
-0.0144809
-0.0147505
-0.0146049
-0.0142905
-0.0145974
-0.0150342
-0.0156377
-0.0161469
-0.0164539
-0.0171273
-0.0178974
-0.0188648
-0.0191785
-0.0166613
-0.0170195
-0.0168219
-0.0154104
-0.0134486
-0.0125348
-0.0135575
-0.00518808
-0.00619688
-0.00659919
-0.00690735
-0.00714034
-0.00914581
-0.0108703
-0.011634
-0.0118159
-0.0123332
-0.0137569
-0.0141453
-0.0139474
-0.0140016
-0.0116649
-0.014686
-0.0152708
-0.0159228
-0.0165604
-0.0170727
-0.0176789
-0.018598
-0.0194569
-0.0164967
-0.0144438
-0.0130502
-0.0118249
-0.0100724
-0.00907184
-0.00886656
-0.00355568
-0.00509047
-0.00529856
-0.00585019
-0.00746215
-0.0102899
-0.0119371
-0.0119687
-0.0112362
-0.0111589
-0.0128333
-0.0133402
-0.0133731
-0.013534
-0.0139103
-0.0142571
-0.0146783
-0.0154654
-0.0164048
-0.0168846
-0.0171934
-0.017748
-0.0186318
-0.0162115
-0.0126231
-0.0100535
-0.00796025
-0.00702837
-0.00625099
-0.00527804
-0.00261951
-0.00495266
-0.00523111
-0.0069822
-0.00980847
-0.0118554
-0.0122506
-0.0116515
-0.0108032
-0.0109815
-0.0124325
-0.0129753
-0.0129977
-0.0131123
-0.0133976
-0.0137401
-0.0138724
-0.0147513
-0.015716
-0.0163389
-0.0165654
-0.0169292
-0.0177364
-0.0159397
-0.0133576
-0.00908818
-0.00467164
-0.00418321
-0.00372358
-0.00277197
-0.00200463
-0.00540207
-0.00595307
-0.00839167
-0.0100858
-0.0121297
-0.0113659
-0.0110894
-0.0107285
-0.0111192
-0.0124776
-0.0131759
-0.0127704
-0.0127363
-0.0128424
-0.0131674
-0.0134721
-0.0134913
-0.0146884
-0.0155353
-0.0160001
-0.0162851
-0.0170208
-0.0163004
-0.0145961
-0.0107429
-0.00442539
-0.00236989
-0.00187736
-0.000956028
-0.00269083
-0.00535411
-0.00659873
-0.00891568
-0.00960098
-0.0107251
-0.0114341
-0.0112268
-0.0111846
-0.011733
-0.0128866
-0.0133099
-0.0126245
-0.0123662
-0.0122993
-0.012438
-0.0125542
-0.0127089
-0.0133697
-0.014354
-0.0154358
-0.0157846
-0.0164485
-0.0160247
-0.015035
-0.0137937
-0.00805638
-0.00308906
-0.00156241
-0.000435841
-0.00402676
-0.00562836
-0.00656969
-0.00819961
-0.0100528
-0.0111108
-0.012767
-0.0126423
-0.0126928
-0.0128815
-0.0134863
-0.0135913
-0.0125306
-0.0120743
-0.0117852
-0.011708
-0.0116337
-0.0116612
-0.0120215
-0.012838
-0.0145064
-0.0153161
-0.015739
-0.0147021
-0.0143313
-0.0155508
-0.0129071
-0.00555522
-0.00201253
-0.000295275
-0.00406487
-0.00509178
-0.00653987