/*--------------------------------*- C++ -*----------------------------------*\
| =========                 |                                                 |
| \\      /  F ield         | OpenFOAM: The Open Source CFD Toolbox           |
|  \\    /   O peration     | Version:  v1606+                                |
|   \\  /    A nd           | Web:      www.OpenFOAM.com                      |
|    \\/     M anipulation  |                                                 |
\*---------------------------------------------------------------------------*/
FoamFile
{
    version     2.0;
    format      ascii;
    class       volScalarField;
    location    "0.66";
    object      nut.particles;
}
// * * * * * * * * * * * * * * * * * * * * * * * * * * * * * * * * * * * * * //

dimensions      [0 2 -1 0 0 0 0];

internalField   nonuniform List<scalar> 
6000
(
1.04141e-05
7.39807e-06
7.00084e-06
7.0336e-06
7.90796e-06
9.60211e-06
1.16707e-05
1.27544e-05
1.26157e-05
1.22861e-05
1.23806e-05
1.33193e-05
1.41496e-05
1.39022e-05
1.36769e-05
1.37146e-05
1.3975e-05
1.40379e-05
1.31745e-05
1.24345e-05
1.23261e-05
1.26242e-05
1.26889e-05
1.13142e-05
9.33934e-06
7.73767e-06
6.95638e-06
6.92218e-06
7.2697e-06
1.03304e-05
3.18608e-06
3.05569e-06
2.90528e-06
2.9117e-06
2.99643e-06
3.15215e-06
3.28251e-06
3.63062e-06
4.26231e-06
4.80507e-06
5.0156e-06
4.77378e-06
4.33575e-06
4.08917e-06
3.92279e-06
3.9119e-06
4.00468e-06
4.40854e-06
4.9154e-06
5.08622e-06
4.73874e-06
4.14649e-06
3.53664e-06
3.27146e-06
3.13509e-06
2.9828e-06
2.90477e-06
2.90749e-06
3.07651e-06
3.19038e-06
2.84533e-06
2.91549e-06
2.91245e-06
2.93211e-06
2.8858e-06
2.88558e-06
3.00737e-06
3.13443e-06
3.35143e-06
4.07966e-06
4.45375e-06
3.83203e-06
3.45555e-06
3.45473e-06
3.42889e-06
3.44034e-06
3.47979e-06
3.48569e-06
3.98986e-06
4.44321e-06
3.89348e-06
3.27201e-06
3.12053e-06
2.99384e-06
2.87248e-06
2.90242e-06
2.9622e-06
2.95335e-06
2.96022e-06
2.87125e-06
3.33348e-06
3.66893e-06
3.76129e-06
3.71034e-06
3.31214e-06
2.87223e-06
2.80577e-06
2.95922e-06
3.10414e-06
3.24891e-06
3.40119e-06
3.29719e-06
3.17627e-06
3.02977e-06
2.961e-06
3.00494e-06
3.12288e-06
3.26319e-06
3.34369e-06
3.40151e-06
3.24264e-06
3.09021e-06
2.94597e-06
2.78879e-06
2.91926e-06
3.39615e-06
3.81572e-06
3.85193e-06
3.72415e-06
3.36673e-06
8.35223e-06
9.75972e-06
9.73809e-06
9.26465e-06
7.26558e-06
5.00287e-06
3.62385e-06
3.14333e-06
3.01674e-06
3.18096e-06
3.29039e-06
3.25869e-06
3.11658e-06
2.95323e-06
3.03221e-06
3.01752e-06
3.06449e-06
3.23073e-06
3.32313e-06
3.30274e-06
3.1694e-06
3.04693e-06
3.21248e-06
3.76729e-06
5.31003e-06
7.65107e-06
9.67188e-06
1.00238e-05
9.79449e-06
8.32664e-06
0.000716775
0.000793323
0.00079331
0.000793609
0.000540864
1.50232e-05
8.26819e-06
5.37186e-06
3.94423e-06
3.51495e-06
3.33688e-06
3.24314e-06
3.19725e-06
3.74642e-06
4.33871e-06
4.05518e-06
3.43846e-06
3.23279e-06
3.31415e-06
3.40539e-06
3.60757e-06
4.17762e-06
5.77297e-06
8.91592e-06
3.19965e-05
0.000619038
0.000728902
0.000727377
0.000728013
0.000648882
0.000802925
0.000803152
0.000803877
0.000801431
0.00079832
0.000793569
0.000638696
1.3829e-05
8.39038e-06
5.63716e-06
4.36413e-06
3.99175e-06
4.56443e-06
7.1631e-06
8.77989e-06
7.94991e-06
5.68025e-06
4.09181e-06
4.05592e-06
4.59559e-06
6.134e-06
9.27935e-06
1.76627e-05
0.000708384
0.00072787
0.000733414
0.000735825
0.000739216
0.000738007
0.000738795
1.76492e-05
2.69187e-05
0.00056337
0.000809782
0.000804891
0.000800329
0.000795189
0.000790934
0.000213461
1.31121e-05
9.14014e-06
8.14707e-06
9.99674e-06
1.55166e-05
0.000220706
7.21353e-05
1.27137e-05
8.52167e-06
8.08717e-06
9.71441e-06
1.45777e-05
0.000404264
0.000726355
0.000730542
0.000736488
0.000739835
0.000744898
0.000138516
2.32607e-05
1.54932e-05
2.6011e-06
3.02468e-06
4.44945e-06
9.21009e-06
2.07043e-05
0.000802614
0.00080392
0.00079939
0.00079125
0.000720757
0.000148475
5.18143e-05
0.000328709
0.000531901
0.000530505
0.000532366
0.000533594
7.66758e-05
4.99683e-05
0.000218851
0.00072177
0.000727953
0.000735855
0.000738925
0.000635062
1.57204e-05
7.24797e-06
3.75714e-06
2.66216e-06
2.34226e-06
1.58163e-06
1.3496e-06
1.39035e-06
1.92715e-06
3.15336e-06
6.96416e-06
1.76679e-05
3.22269e-05
3.62921e-05
3.29844e-05
3.48566e-05
3.05776e-05
2.93849e-05
0.000539064
0.000534673
0.000537531
2.67531e-05
2.67573e-05
3.09351e-05
3.23553e-05
3.1613e-05
3.1416e-05
2.38371e-05
1.25683e-05
4.97632e-06
2.72391e-06
1.76156e-06
1.3304e-06
1.30489e-06
1.54479e-06
1.42405e-06
1.23121e-06
1.33943e-06
1.75961e-06
2.24831e-06
2.59904e-06
2.81015e-06
3.09001e-06
3.96766e-06
5.14328e-06
6.52537e-06
6.00997e-06
4.82261e-06
7.22147e-06
0.000440049
7.7024e-06
3.44904e-06
4.13092e-06
5.34056e-06
5.19528e-06
4.03816e-06
3.11936e-06
2.53648e-06
2.47745e-06
2.41697e-06
2.14795e-06
1.71869e-06
1.32259e-06
1.18875e-06
1.38888e-06
1.3166e-06
1.24619e-06
1.59118e-06
2.12224e-06
2.54152e-06
2.60337e-06
1.83619e-06
1.11953e-06
9.06713e-07
9.22294e-07
1.01051e-06
1.02438e-06
1.05203e-06
1.43526e-06
4.07508e-06
1.86153e-06
9.45725e-07
8.99769e-07
9.47803e-07
9.18828e-07
8.50465e-07
8.75033e-07
1.13648e-06
1.85182e-06
2.51676e-06
2.45742e-06
2.11881e-06
1.61386e-06
1.2404e-06
1.2763e-06
1.36345e-06
1.51382e-06
1.98087e-06
2.51088e-06
2.90151e-06
2.66606e-06
1.58243e-06
9.16126e-07
7.36451e-07
7.10071e-07
7.39283e-07
7.26415e-07
7.86553e-07
1.33511e-06
2.80859e-06
1.91568e-06
8.19645e-07
6.89136e-07
7.26746e-07
7.25852e-07
7.09294e-07
7.40971e-07
9.48529e-07
1.68381e-06
2.73094e-06
2.90014e-06
2.57144e-06
2.06978e-06
1.57255e-06
1.39633e-06
1.72217e-06
1.99196e-06
2.47564e-06
2.9103e-06
3.03773e-06
2.45483e-06
1.36323e-06
8.39314e-07
7.39773e-07
7.41101e-07
7.44386e-07
7.32358e-07
8.5065e-07
1.61294e-06
2.59105e-06
2.12515e-06
9.51384e-07
7.10183e-07
7.4147e-07
7.42785e-07
7.35195e-07
7.33379e-07
8.64182e-07
1.54516e-06
2.8429e-06
3.33752e-06
3.19694e-06
2.78221e-06
2.23487e-06
1.9495e-06
2.33474e-06
2.71095e-06
3.32366e-06
3.87771e-06
3.81297e-06
2.59699e-06
1.25116e-06
7.99311e-07
7.49919e-07
7.5912e-07
7.49355e-07
7.64511e-07
9.991e-07
1.61911e-06
2.60219e-06
2.04502e-06
1.14963e-06
7.85883e-07
7.61257e-07
7.55439e-07
7.49131e-07
7.29613e-07
8.22709e-07
1.4946e-06
3.10913e-06
4.10826e-06
4.34756e-06
4.19064e-06
3.57358e-06
3.13628e-06
3.34871e-06
3.84741e-06
4.52799e-06
4.82085e-06
4.77788e-06
4.17632e-06
1.65451e-06
7.90375e-07
7.37861e-07
7.79717e-07
7.63271e-07
7.64888e-07
9.69708e-07
1.60498e-06
2.99718e-06
2.17318e-06
1.18353e-06
8.16593e-07
7.47834e-07
7.74383e-07
7.58576e-07
7.05625e-07
8.36231e-07
1.6097e-06
3.16795e-06
4.86028e-06
6.28955e-06
6.97005e-06
6.74597e-06
6.03867e-06
5.37099e-06
6.19239e-06
6.70071e-06
6.10579e-06
5.18914e-06
4.32793e-06
2.60935e-06
9.67065e-07
7.30146e-07
7.67802e-07
7.56146e-07
7.46104e-07
1.003e-06
1.88187e-06
3.16509e-06
2.53034e-06
1.31609e-06
8.58957e-07
7.21453e-07
7.57633e-07
7.35315e-07
6.96575e-07
8.90506e-07
1.85101e-06
3.9215e-06
6.92481e-06
9.94176e-06
3.41597e-05
2.88942e-05
1.34175e-05
1.03114e-05
3.29991e-05
5.06551e-05
9.7521e-06
6.68623e-06
4.65788e-06
2.93582e-06
1.33202e-06
7.71042e-07
7.33515e-07
7.37634e-07
7.45247e-07
1.09796e-06
2.12311e-06
3.32533e-06
2.93575e-06
1.6428e-06
9.55353e-07
7.21173e-07
7.30116e-07
7.10816e-07
7.09236e-07
1.09245e-06
2.9913e-06
7.67656e-06
0.00013351
0.00078421
0.00148954
0.00139656
0.00226267
0.0013453
0.00134073
0.00133686
0.000775631
4.9724e-05
6.02567e-06
3.15038e-06
1.50416e-06
8.39514e-07
7.1749e-07
7.02088e-07
7.37691e-07
1.25186e-06
2.4491e-06
3.64165e-06
3.509e-06
2.08121e-06
1.06253e-06
7.53498e-07
7.14579e-07
7.09529e-07
8.32104e-07
2.55115e-06
1.21189e-05
0.000944318
0.00183241
0.00263787
0.00416349
0.00441278
0.00565506
0.00143609
0.000823765
0.00134492
0.00114419
0.00035797
9.1862e-06
3.99351e-06
1.67822e-06
8.93585e-07
7.10955e-07
6.77262e-07
7.67391e-07
1.58441e-06
3.34492e-06
4.27142e-06
4.3166e-06
2.61387e-06
1.27279e-06
8.3292e-07
7.51436e-07
8.30447e-07
2.02075e-06
1.38143e-05
0.000951609
0.0032402
0.00444178
0.00444772
0.00525744
0.00594858
0.00660094
0.000141571
1.33961e-05
5.23401e-05
0.000214543
0.00016108
1.14138e-05
6.36723e-06
2.0591e-06
9.99374e-07
7.64938e-07
6.98571e-07
9.27903e-07
2.61153e-06
5.79961e-06
5.63649e-06
5.3713e-06
3.24158e-06
1.58782e-06
1.06027e-06
9.49033e-07
1.7115e-06
8.98651e-06
0.000247591
0.00307744
0.00838613
0.0131445
0.0129971
0.0117923
0.010858
0.00893075
1.41401e-05
1.31958e-05
1.22629e-05
1.26208e-05
0.000170583
0.000944919
0.00229972
9.69317e-06
1.72144e-06
1.00209e-06
9.28982e-07
1.55177e-06
6.21396e-06
9.60854e-06
8.18509e-06
6.68594e-06
3.99525e-06
2.16057e-06
1.55626e-06
2.21626e-06
6.72491e-06
0.000129965
0.00768244
0.0150741
0.0262593
0.03664
0.038048
0.0349429
0.0299511
0.0212302
1.51042e-05
6.10237e-05
0.00200633
0.00540873
0.0148878
0.0299538
0.024495
0.0014558
8.50484e-06
2.47303e-06
1.91511e-06
4.01845e-06
1.35718e-05
1.53135e-05
1.17616e-05
8.23627e-06
5.11033e-06
3.46239e-06
3.81118e-06
8.72363e-06
0.000104138
0.0158321
0.0347513
0.0426546
0.0495924
0.0537161
0.0540628
0.054247
0.0543647
0.0502855
0.000229464
0.0198964
0.0809172
0.0955571
0.0982428
0.091894
0.0806394
0.0406651
0.000643931
1.23335e-05
7.14207e-06
1.04671e-05
2.03779e-05
0.000149724
1.37572e-05
1.03768e-05
7.72334e-06
6.68369e-06
1.21646e-05
0.000343665
0.0232838
0.0386546
0.0385136
0.0331481
0.0215329
0.0209326
0.0444126
0.0540756
0.0546085
0.0546058
0.0328017
0.104733
0.109549
0.109328
0.107892
0.101619
0.0948606
0.0906966
0.0803972
0.00921283
0.000117398
2.00195e-05
1.73237e-05
0.000249512
1.55129e-05
1.27783e-05
1.25379e-05
1.50089e-05
0.00084153
0.028973
0.0409166
0.0387839
0.018439
0.00289539
0.000169016
0.000128785
0.00458676
0.0259753
0.0529159
0.0545262
0.110918
0.111927
0.109943
0.107224
0.0992767
0.0924434
0.0911592
0.091143
0.0911678
0.0908575
0.0398526
0.000666116
1.72863e-05
0.000265672
1.71403e-05
1.55882e-05
1.61256e-05
0.000437443
0.0270733
0.0548331
0.0406688
0.0123359
0.00081876
1.56264e-05
1.30207e-05
1.26058e-05
1.50464e-05
0.00129353
0.0170623
0.0522733
0.11273
0.111877
0.102233
0.0866771
0.016753
0.00682159
0.0296236
0.0775298
0.0907342
0.0911966
0.0906729
0.0282074
0.000137737
0.000266013
1.40081e-05
1.34132e-05
1.64802e-05
0.00645523
0.0727856
0.0550096
0.0149841
0.000569729
1.45675e-05
1.15632e-05
1.17027e-05
1.21808e-05
1.15038e-05
1.30833e-05
0.000903937
0.0174031
0.112699
0.101269
0.0753643
0.00648286
1.48787e-05
1.40055e-05
9.03991e-05
0.00739624
0.0479772
0.0902379
0.0911647
0.0905028
0.0236207
0.00041427
1.10544e-05
1.10209e-05
1.89941e-05
0.0290271
0.0755932
0.0322862
0.00147125
1.56944e-05
1.19228e-05
1.12217e-05
1.07973e-05
1.06723e-05
1.12579e-05
1.3489e-05
2.68458e-05
0.00184887
0.11051
0.0338189
0.00279669
2.56339e-05
1.19288e-05
1.17415e-05
1.23865e-05
0.000283399
0.00237227
0.0407087
0.0905383
0.0910504
0.0902292
0.00509014
1.21592e-05
1.0691e-05
0.00145581
0.076952
0.0756006
0.00842904
2.69012e-05
1.62675e-05
2.07846e-05
2.46703e-05
2.22102e-05
1.71687e-05
1.75909e-05
8.40327e-05
0.000605756
0.000864953
0.0072365
0.00014645
6.13583e-05
1.67253e-05
1.63618e-05
1.88704e-05
2.33729e-05
3.06144e-05
3.82747e-05
0.00192332
0.0275536
0.0903462
0.0908036
0.0491945
7.16059e-05
1.80101e-05
0.0232448
0.0774904
0.0367293
0.000488231
5.05214e-05
3.74672e-05
3.70586e-05
3.41537e-05
2.99783e-05
3.32557e-05
3.53707e-05
3.4102e-05
1.77596e-05
1.11427e-05
1.0507e-05
6.70088e-06
1.23196e-05
1.88958e-05
2.48515e-05
2.20689e-05
1.68628e-05
1.01141e-05
1.08394e-05
1.82551e-05
4.85061e-05
0.0251443
0.0901802
0.0903631
0.0254747
0.0148797
0.0814576
0.0772653
0.0025973
3.82389e-05
2.14342e-05
7.96613e-06
3.72933e-06
2.98077e-06
3.09262e-06
4.68829e-06
4.0642e-06
2.41096e-06
1.52614e-06
2.72942e-06
2.51244e-06
1.17812e-06
1.2007e-06
1.76402e-06
2.56196e-06
2.17033e-06
1.65837e-06
1.15777e-06
1.08515e-06
1.34268e-06
5.17535e-06
3.01838e-05
0.0297967
0.0900648
0.0899663
0.0893068
0.0845092
0.00637731
2.76933e-05
5.82088e-06
1.27831e-06
8.67403e-07
8.16101e-07
8.20957e-07
8.2923e-07
8.61656e-07
8.23908e-07
7.91827e-07
1.02823e-06
2.12449e-06
1.84299e-06
8.87181e-07
7.95887e-07
8.04087e-07
8.43698e-07
8.37917e-07
8.18189e-07
7.82253e-07
7.50163e-07
7.14408e-07
7.69153e-07
2.77793e-06
1.63203e-05
0.0762742
0.0900049
0.0896987
0.00598007
2.55138e-05
2.46766e-06
7.03862e-07
6.61667e-07
6.97823e-07
7.35001e-07
7.67468e-07
7.80829e-07
7.7556e-07
7.59904e-07
7.66659e-07
9.00418e-07
1.96002e-06
1.74056e-06
8.24513e-07
8.15052e-07
8.09069e-07
8.1635e-07
8.1595e-07
7.98002e-07
7.66831e-07
7.31234e-07
6.88701e-07
6.31566e-07
8.5581e-07
7.65295e-06
0.0253498
0.0897653
0.0538676
1.32849e-05
1.84151e-06
5.73894e-07
5.86141e-07
6.40703e-07
6.85668e-07
7.2649e-07
7.63897e-07
7.83404e-07
7.87723e-07
7.75895e-07
7.77284e-07
8.0791e-07
1.80461e-06
1.68562e-06
8.23087e-07
8.24553e-07
8.24785e-07
8.29978e-07
8.20534e-07
7.91982e-07
7.51287e-07
7.06842e-07
6.60583e-07
6.12784e-07
7.14764e-07
5.36428e-06
0.0211212
0.0896794
0.0281182
8.67985e-06
6.45756e-07
5.22525e-07
5.72315e-07
6.19936e-07
6.66043e-07
7.12117e-07
7.53184e-07
7.83279e-07
7.91663e-07
7.86732e-07
7.87453e-07
7.97295e-07
1.72347e-06
1.64779e-06
8.23742e-07
8.31412e-07
8.36429e-07
8.35814e-07
8.21116e-07
7.83185e-07
7.32771e-07
6.80536e-07
6.37162e-07
5.91458e-07
6.57515e-07
4.29282e-06
0.0134291
0.0894825
0.0254094
8.08651e-06
5.46743e-07
5.14478e-07
5.49572e-07
6.00378e-07
6.43938e-07
6.957e-07
7.43152e-07
7.79651e-07
7.93013e-07
7.94327e-07
7.91597e-07
7.95701e-07
1.67988e-06
1.60072e-06
8.20087e-07
8.41064e-07
8.5001e-07
8.39533e-07
8.17026e-07
7.70855e-07
7.10639e-07
6.57477e-07
6.14185e-07
5.73237e-07
6.01099e-07
3.03965e-06
0.00632999
0.0892722
0.0154193
6.76907e-06
4.87352e-07
4.98752e-07
5.37698e-07
5.78948e-07
6.2415e-07
6.75455e-07
7.30415e-07
7.72332e-07
7.92912e-07
8.02738e-07
7.97416e-07
7.91502e-07
1.62553e-06
1.58338e-06
8.19398e-07
8.48732e-07
8.56339e-07
8.4291e-07
8.13009e-07
7.56797e-07
6.9054e-07
6.36068e-07
5.95639e-07
5.59475e-07
5.58846e-07
2.04669e-06
0.000488913
0.0821687
0.00601804
3.56492e-06
4.59633e-07
4.87177e-07
5.20534e-07
5.60825e-07
6.03955e-07
6.56069e-07
7.1596e-07
7.65767e-07
7.92705e-07
8.06216e-07
8.02572e-07
7.88413e-07
1.60013e-06
1.55565e-06
8.188e-07
8.51885e-07
8.60759e-07
8.44816e-07
8.0566e-07
7.39101e-07
6.68539e-07
6.14751e-07
5.79343e-07
5.46787e-07
5.27343e-07
1.29032e-06
2.11023e-05
0.052487
0.00292724
1.79155e-06
4.59148e-07
4.7403e-07
5.07709e-07
5.44513e-07
5.82205e-07
6.33697e-07
6.96286e-07
7.56382e-07
7.93512e-07
8.09001e-07
8.04915e-07
7.87468e-07
1.57626e-06
1.54172e-06
8.2056e-07
8.52468e-07
8.62411e-07
8.44335e-07
7.92488e-07
7.16034e-07
6.43854e-07
5.95164e-07
5.65194e-07
5.37783e-07
5.14162e-07
7.79637e-07
1.13785e-05
0.0259794
0.00197787
1.44197e-06
4.57135e-07
4.69025e-07
4.95897e-07
5.29873e-07
5.62763e-07
6.07458e-07
6.70262e-07
7.40667e-07
7.91881e-07
8.09907e-07
8.05284e-07
7.88605e-07
1.56263e-06
1.52348e-06
8.28978e-07
8.51297e-07
8.62041e-07
8.36697e-07
7.72532e-07
6.87799e-07
6.18446e-07
5.78248e-07
5.5299e-07
5.30027e-07
5.08695e-07
5.52446e-07
3.43365e-06
0.0115255
0.00116174
1.60194e-06
4.62489e-07
4.67362e-07
4.88974e-07
5.14853e-07
5.45112e-07
5.81788e-07
6.3974e-07
7.15768e-07
7.82569e-07
8.0962e-07
8.04905e-07
7.95611e-07
1.54427e-06
1.50557e-06
8.42771e-07
8.49587e-07
8.54636e-07
8.19368e-07
7.43461e-07
6.57391e-07
5.95854e-07
5.63642e-07
5.43964e-07
5.23143e-07
5.02926e-07
4.99913e-07
1.29958e-06
0.000855274
0.000797181
1.73869e-06
4.66461e-07
4.59347e-07
4.80062e-07
5.05967e-07
5.28032e-07
5.59261e-07
6.08178e-07
6.81524e-07
7.6083e-07
8.03774e-07
8.04726e-07
8.08832e-07
1.5244e-06
1.48302e-06
8.52555e-07
8.46354e-07
8.42128e-07
7.95014e-07
7.10644e-07
6.28722e-07
5.77308e-07
5.52331e-07
5.3405e-07
5.16623e-07
5.03164e-07
5.05169e-07
1.013e-06
1.21454e-05
0.000750957
1.74059e-06
4.70514e-07
4.59557e-07
4.7461e-07
4.94433e-07
5.14007e-07
5.39219e-07
5.79751e-07
6.45075e-07
7.30458e-07
7.91856e-07
8.04495e-07
8.20902e-07
1.49476e-06
1.44494e-06
8.57021e-07
8.41193e-07
8.24411e-07
7.65089e-07
6.75911e-07
6.04041e-07
5.62501e-07
5.42024e-07
5.26201e-07
5.12456e-07
5.01168e-07
5.06446e-07
1.00709e-06
7.90692e-06
0.000728168
1.82975e-06
4.76789e-07
4.59362e-07
4.69513e-07
4.8518e-07
5.02992e-07
5.22563e-07
5.55882e-07
6.10417e-07
6.94551e-07
7.72691e-07
8.0402e-07
8.2996e-07
1.45183e-06
1.38964e-06
8.61085e-07
8.35499e-07
8.03182e-07
7.32326e-07
6.44428e-07
5.8355e-07
5.50303e-07
5.3426e-07
5.22619e-07
5.07892e-07
4.96251e-07
5.05823e-07
9.758e-07
8.05317e-06
0.000710465
1.96148e-06
4.79776e-07
4.55756e-07
4.66321e-07
4.82066e-07
4.94354e-07
5.09624e-07
5.37325e-07
5.82393e-07
6.58974e-07
7.47828e-07
8.01113e-07
8.40334e-07
1.40173e-06
1.32417e-06
8.65884e-07
8.28394e-07
7.80289e-07
6.98599e-07
6.16589e-07
5.67495e-07
5.41226e-07
5.28606e-07
5.16387e-07
5.04956e-07
4.99829e-07
5.13195e-07
9.52031e-07
7.41192e-06
0.00069735
2.0897e-06
4.92661e-07
4.60324e-07
4.66541e-07
4.76964e-07
4.89256e-07
5.01021e-07
5.24398e-07
5.61658e-07
6.26018e-07
7.16953e-07
7.91488e-07
8.50883e-07
1.35359e-06
1.24984e-06
8.71851e-07
8.20299e-07
7.56106e-07
6.66624e-07
5.93664e-07
5.56102e-07
5.33409e-07
5.23627e-07
5.14181e-07
5.054e-07
5.02452e-07
5.21255e-07
9.45434e-07
6.8583e-06
0.000684931
2.18956e-06
5.08471e-07
4.64173e-07
4.69739e-07
4.77215e-07
4.86614e-07
4.95372e-07
5.15999e-07
5.46491e-07
5.99406e-07
6.84716e-07
7.77028e-07
8.59013e-07
1.30034e-06
1.17011e-06
8.7973e-07
8.13616e-07
7.33634e-07
6.39511e-07
5.78823e-07
5.47724e-07
5.27656e-07
5.2067e-07
5.13104e-07
5.07961e-07
5.10309e-07
5.39947e-07
9.91064e-07
6.37633e-06
0.000675897
2.16515e-06
5.25751e-07
4.7121e-07
4.75802e-07
4.80582e-07
4.87013e-07
4.93116e-07
5.0989e-07
5.35558e-07
5.80264e-07
6.57608e-07
7.60255e-07
8.65421e-07
1.24369e-06
1.10282e-06
8.90752e-07
8.11157e-07
7.14715e-07
6.19651e-07
5.71127e-07
5.4233e-07
5.2547e-07
5.19123e-07
5.15294e-07
5.13384e-07
5.19534e-07
5.5963e-07
1.01884e-06
6.07552e-06
0.000454867
2.10479e-06
5.49649e-07
4.80847e-07
4.82531e-07
4.86721e-07
4.90116e-07
4.92706e-07
5.0468e-07
5.26139e-07
5.66403e-07
6.38743e-07
7.48042e-07
8.74028e-07
1.18905e-06
1.04681e-06
9.05921e-07
8.11059e-07
6.96111e-07
6.04982e-07
5.65177e-07
5.39455e-07
5.25316e-07
5.21223e-07
5.20761e-07
5.21832e-07
5.33829e-07
5.83876e-07
1.0328e-06
5.3843e-06
1.40924e-05
2.199e-06
5.8748e-07
4.94786e-07
4.92272e-07
4.96179e-07
4.95034e-07
4.93048e-07
4.97584e-07
5.14258e-07
5.51667e-07
6.23935e-07
7.42066e-07
8.80468e-07
1.13408e-06
1.01484e-06
9.17424e-07
8.05929e-07
6.77672e-07
5.92168e-07
5.58044e-07
5.38053e-07
5.27936e-07
5.28406e-07
5.31481e-07
5.36259e-07
5.54449e-07
6.21112e-07
1.09324e-06
4.31579e-06
8.55087e-06
2.35784e-06
6.59336e-07
5.17618e-07
5.07062e-07
5.09822e-07
5.06012e-07
4.9657e-07
4.89676e-07
4.98972e-07
5.35423e-07
6.09706e-07
7.33371e-07
8.8276e-07
1.07663e-06
1.00441e-06
9.2203e-07
7.94468e-07
6.60512e-07
5.78322e-07
5.49034e-07
5.38376e-07
5.36211e-07
5.40742e-07
5.49444e-07
5.57602e-07
5.82979e-07
6.68742e-07
1.18988e-06
3.57859e-06
5.50549e-06
2.43128e-06
7.51295e-07
5.55477e-07
5.29225e-07
5.29234e-07
5.26865e-07
5.09166e-07
4.84543e-07
4.84124e-07
5.18691e-07
5.92391e-07
7.23936e-07
8.85405e-07
1.02818e-06
1.00857e-06
9.14336e-07
7.80194e-07
6.43082e-07
5.62346e-07
5.35453e-07
5.37296e-07
5.48407e-07
5.61098e-07
5.75522e-07
5.85909e-07
6.18933e-07
7.13614e-07
1.24415e-06
2.94022e-06
4.04078e-06
2.47501e-06
8.89015e-07
6.08299e-07
5.61557e-07
5.58259e-07
5.55148e-07
5.27895e-07
4.85184e-07
4.70938e-07
5.01542e-07
5.72024e-07
7.06151e-07
8.81312e-07
9.94524e-07
9.99787e-07
8.90163e-07
7.62842e-07
6.24125e-07
5.42546e-07
5.17175e-07
5.32036e-07
5.62931e-07
5.90301e-07
6.10941e-07
6.26718e-07
6.63429e-07
7.88988e-07
1.33292e-06
2.48862e-06
3.02358e-06
2.34096e-06
1.03315e-06
6.70072e-07
6.02138e-07
5.93224e-07
5.85513e-07
5.47376e-07
4.90897e-07
4.59542e-07
4.85278e-07
5.559e-07
6.79027e-07
8.68459e-07
9.64003e-07
9.59353e-07
8.74385e-07
7.43217e-07
6.00094e-07
5.20571e-07
4.99199e-07
5.27462e-07
5.81693e-07
6.25171e-07
6.50986e-07
6.69013e-07
7.08801e-07
8.87206e-07
1.42887e-06
2.22682e-06
2.46072e-06
2.13534e-06
1.17807e-06
7.23046e-07
6.4747e-07
6.30184e-07
6.18401e-07
5.6932e-07
5.02892e-07
4.54847e-07
4.68953e-07
5.39642e-07
6.52971e-07
8.41032e-07
9.52655e-07
9.28023e-07
8.55401e-07
7.09196e-07
5.75547e-07
5.03215e-07
4.85924e-07
5.27413e-07
6.04083e-07
6.63177e-07
6.92395e-07
7.08943e-07
7.84849e-07
1.03184e-06
1.55013e-06
2.0583e-06
2.11926e-06
1.94462e-06
1.31684e-06
8.42493e-07
6.99488e-07
6.7418e-07
6.58515e-07
6.06564e-07
5.25001e-07
4.60389e-07
4.53183e-07
5.1222e-07
6.17568e-07
7.82515e-07
9.35391e-07
8.97821e-07
8.08177e-07
6.71615e-07
5.53422e-07
4.89929e-07
4.79845e-07
5.3481e-07
6.27911e-07
7.04202e-07
7.68902e-07
8.35916e-07
9.50482e-07
1.23405e-06
1.69609e-06
1.9894e-06
1.95224e-06
1.84135e-06
1.45501e-06
1.01443e-06
7.93492e-07
7.28393e-07
6.97857e-07
6.53487e-07
5.68004e-07
4.85752e-07
4.51205e-07
4.88106e-07
5.90594e-07
7.44164e-07
8.89162e-07
8.36567e-07
7.56431e-07
6.35505e-07
5.35865e-07
4.80341e-07
4.83543e-07
5.56877e-07
6.65983e-07
8.26066e-07
9.45626e-07
1.04914e-06
1.19924e-06
1.50473e-06
1.88136e-06
1.99909e-06
1.90947e-06
1.82714e-06
1.61439e-06
1.24667e-06
9.90047e-07
8.80009e-07
8.14754e-07
7.20467e-07
6.22826e-07
5.30038e-07
4.6794e-07
4.75468e-07
5.58901e-07
7.13186e-07
8.58781e-07
7.93307e-07
7.15849e-07
5.98039e-07
5.13963e-07
4.76212e-07
5.03487e-07
6.01513e-07
7.74073e-07
1.0255e-06
1.22193e-06
1.37296e-06
1.56164e-06
1.86819e-06
2.14122e-06
2.13362e-06
2.00136e-06
1.92645e-06
1.84397e-06
1.57268e-06
1.29979e-06
1.14376e-06
1.0351e-06
8.88251e-07
7.0469e-07
5.92824e-07
5.05225e-07
4.7937e-07
5.37588e-07
6.88806e-07
8.26017e-07
7.56904e-07
6.71506e-07
5.65171e-07
4.98889e-07
4.8664e-07
5.45086e-07
6.7672e-07
9.65693e-07
1.35099e-06
1.65985e-06
1.8723e-06
2.09553e-06
2.37621e-06
2.54084e-06
2.47789e-06
2.31268e-06
2.24179e-06
2.23609e-06
2.06469e-06
1.79987e-06
1.59359e-06
1.41965e-06
1.19174e-06
9.09905e-07
6.82236e-07
5.7262e-07
5.06741e-07
5.27971e-07
6.56759e-07
7.83949e-07
7.21136e-07
6.38588e-07
5.41885e-07
4.96798e-07
5.18198e-07
6.19093e-07
8.54109e-07
1.31296e-06
1.90068e-06
2.36627e-06
2.65135e-06
2.8957e-06
3.12875e-06
3.20572e-06
3.13057e-06
2.98771e-06
2.93428e-06
2.96163e-06
2.88614e-06
2.65999e-06
2.40179e-06
2.13124e-06
1.76994e-06
1.3148e-06
9.02525e-07
6.72924e-07
5.65444e-07
5.4471e-07
6.32981e-07
7.35147e-07
6.89403e-07
6.14442e-07
5.31206e-07
5.18096e-07
5.85581e-07
7.66791e-07
1.21611e-06
1.9703e-06
2.85698e-06
3.51171e-06
3.86944e-06
4.12325e-06
4.31037e-06
4.35662e-06
4.31588e-06
4.26037e-06
4.26053e-06
4.3248e-06
4.34031e-06
4.18005e-06
3.88072e-06
3.48402e-06
2.90296e-06
2.11304e-06
1.35464e-06
8.67891e-07
6.6337e-07
5.97419e-07
6.36478e-07
6.96619e-07
6.62888e-07
6.00935e-07
5.44611e-07
5.78912e-07
7.20709e-07
1.15022e-06
2.00484e-06
3.27048e-06
4.54926e-06
5.39128e-06
5.85051e-06
6.15976e-06
6.37264e-06
6.49248e-06
6.56961e-06
6.66676e-06
6.76444e-06
6.87118e-06
6.93051e-06
6.81612e-06
6.48274e-06
5.97292e-06
5.1704e-06
3.90337e-06
2.42112e-06
1.29848e-06
8.28661e-07
7.01412e-07
6.88455e-07
6.86407e-07
6.48378e-07
6.11781e-07
6.04043e-07
7.27209e-07
1.13742e-06
2.11043e-06
3.80733e-06
5.92225e-06
7.66291e-06
8.71678e-06
9.40146e-06
9.95427e-06
1.0456e-05
1.28557e-05
1.70103e-05
2.27786e-05
2.77025e-05
3.05784e-05
2.98063e-05
2.28653e-05
1.33972e-05
1.00466e-05
9.1003e-06
7.64061e-06
5.45767e-06
2.77707e-06
1.28643e-06
8.79851e-07
8.18892e-07
7.48757e-07
6.65512e-07
6.80468e-07
7.72499e-07
1.18769e-06
2.32212e-06
4.61352e-06
7.93218e-06
1.09155e-05
7.4699e-05
0.000245793
0.000501502
0.000813862
0.00113287
0.0014207
0.00163354
0.00175132
0.00174504
0.0016212
0.00140773
0.00113482
0.000831683
0.000542624
0.000287842
9.99068e-05
1.11659e-05
7.65107e-06
3.02407e-06
1.34559e-06
1.06746e-06
9.50229e-07
7.61602e-07
8.96371e-07
1.31563e-06
2.64501e-06
5.7558e-06
1.04206e-05
0.000146047
0.000740953
0.00167638
0.00288906
0.00425566
0.00560079
0.00675846
0.00759993
0.0080305
0.00802363
0.00761261
0.0068698
0.00590928
0.00486219
0.00382194
0.00283909
0.00195659
0.00125173
0.000670749
0.000304098
8.48299e-06
2.62219e-06
1.56899e-06
1.3724e-06
1.08803e-06
1.62443e-06
3.13756e-06
6.9884e-06
1.60438e-05
0.000598272
0.00195242
0.00380852
0.00608363
0.00859111
0.0110808
0.0133369
0.0151746
0.0164315
0.0169964
0.0168279
0.015959
0.0144902
0.0125989
0.0105333
0.00850941
0.00665588
0.00511076
0.00400095
0.00306876
0.00229341
0.000133028
5.47165e-06
2.76277e-06
2.3837e-06
2.29615e-06
4.28723e-06
8.38588e-06
3.41492e-05
0.00110211
0.00312659
0.0057026
0.0089021
0.0125186
0.0162312
0.0197618
0.0228819
0.0254176
0.0272216
0.0281617
0.028147
0.0271364
0.0251327
0.0222622
0.0188757
0.0154099
0.0122859
0.00994841
0.0085289
0.00710197
0.00483595
0.000409963
9.71402e-06
5.05977e-06
4.59728e-06
7.13229e-06
1.23912e-05
4.32379e-05
0.000992134
0.0035556
0.00698664
0.0111651
0.0159939
0.0210512
0.0259145
0.0303483
0.0340855
0.0369934
0.0391706
0.0405671
0.0410952
0.0405708
0.0388947
0.0358042
0.0313953
0.0262557
0.0212334
0.0173144
0.0144812
0.0108505
0.00442347
6.23955e-05
1.15156e-05
8.31301e-06
8.18519e-06
1.98315e-05
0.000812606
0.00136991
0.00312504
0.00711605
0.01271
0.0189883
0.0253448
0.0311902
0.0359201
0.0397692
0.0428112
0.0450558
0.0468486
0.0483263
0.0495108
0.049865
0.0499374
0.0489295
0.0459125
0.0411998
0.0351994
0.0295002
0.0231936
0.012191
0.00137353
1.3666e-05
1.13856e-05
1.04819e-05
1.20153e-05
6.1332e-05
0.00321993
0.00523397
0.00759638
0.0132297
0.0211518
0.02885
0.0347193
0.0387975
0.0409917
0.0420297
0.0427398
0.0437241
0.0446057
0.0456523
0.0469663
0.0486788
0.0502207
0.0526277
0.0531953
0.0532448
0.0508647
0.0472487
0.0394638
0.0180516
0.00157929
1.76181e-05
1.25832e-05
1.41763e-05
1.71498e-05
5.95747e-05
0.00455519
0.011146
0.0153364
0.0225606
0.031239
0.0370779
0.038769
0.0387921
0.0385504
0.0371109
0.0352834
0.0334843
0.032215
0.0319881
0.0327892
0.0353913
0.0392796
0.0443628
0.0498872
0.0535646
0.058025
0.0610738
0.0606422
0.0382603
0.00720211
0.000633266
2.79863e-05
0.000177288
9.72339e-05
5.84871e-05
0.00596799
0.0187089
0.0259814
0.0332949
0.0389164
0.0389101
0.0374972
0.0336371
0.0282637
0.0227566
0.0177248
0.0140193
0.0115718
0.010544
0.0104309
0.0122288
0.0153951
0.0213971
0.030816
0.0417159
0.052177
0.0618686
0.0681494
0.0651258
0.0288496
0.00532121
0.00162345
0.00153683
9.88863e-05
5.77447e-05
0.00863378
0.02936
0.0381276
0.0415893
0.0408058
0.0365856
0.0291159
0.0202833
0.0121665
0.00639797
0.00312382
0.00168877
0.000986297
0.000739812
0.000662377
0.000959749
0.00140452
0.00281789
0.00718514
0.0171691
0.0331277
0.051883
0.0681659
0.0742462
0.0580637
0.02042
0.0057904
0.00350958
0.000103829
0.000109651
0.015402
0.0441464
0.0485058
0.0449038
0.0377484
0.0273712
0.0157607
0.00670336
0.00204434
0.000497006
0.00013832
5.88824e-05
2.35195e-05
1.63024e-05
1.47012e-05
2.41988e-05
2.83886e-05
4.87113e-05
0.000274811
0.00189405
0.0102535
0.0303132
0.0564472
0.074315
0.0749455
0.0462011
0.0168537
0.00605637
0.00010396
0.000660603
0.0287977
0.0561532
0.0538792
0.0430822
0.029352
0.0150121
0.00494418
0.000926636
0.000139098
2.69919e-05
1.51615e-05
1.57127e-05
1.42701e-05
1.33156e-05
1.29341e-05
1.29647e-05
1.25335e-05
1.2295e-05
1.26033e-05
3.10113e-05
0.00070029
0.00932613
0.0350809
0.0650317
0.0750575
0.069824
0.0381447
0.0099469
0.000102972
0.00360112
0.0414677
0.0564722
0.053927
0.0366585
0.0178147
0.00524791
0.000776688
0.000100124
2.79787e-05
1.95612e-05
1.52766e-05
1.58606e-05
1.58248e-05
1.585e-05
1.30961e-05
1.28739e-05
1.27065e-05
1.2319e-05
1.19181e-05
1.22624e-05
1.33511e-05
0.000766403
0.0135986
0.047002
0.0750452
0.0764306
0.0649132
0.0187857
0.000102493
0.0101384
0.0493468
0.0563759
0.0504789
0.0254702
0.00724411
0.000987119
9.75734e-05
2.11775e-05
1.33459e-05
1.32317e-05
1.37126e-05
1.58982e-05
1.58203e-05
1.50297e-05
1.33629e-05
1.25953e-05
1.24907e-05
1.25342e-05
1.19194e-05
1.15083e-05
1.09203e-05
1.36896e-05
0.00214781
0.0247878
0.0655491
0.0764476
0.0764554
0.0380872
0.00043589
0.0209133
0.0555718
0.0566645
0.0396046
0.0118605
0.00142747
9.48518e-05
1.33023e-05
1.19225e-05
1.13193e-05
1.19677e-05
1.25761e-05
1.31371e-05
1.57251e-05
1.24312e-05
1.28289e-05
1.23498e-05
1.21671e-05
1.21539e-05
1.17463e-05
1.12217e-05
1.10243e-05
1.06973e-05
6.24256e-05
0.00717169
0.0459673
0.0764962
0.0764522
0.0597707
0.00355218
0.0370933
0.0563292
0.0561137
0.0204374
0.00252111
0.00012681
1.24111e-05
1.1157e-05
1.04625e-05
1.02456e-05
1.05154e-05
1.13582e-05
1.23406e-05
1.30558e-05
1.22902e-05
1.25548e-05
1.23404e-05
1.21171e-05
1.17433e-05
1.16214e-05
1.12383e-05
1.09848e-05
1.03183e-05
1.19309e-05
0.000648259
0.0210459
0.0755071
0.0765706
0.0705316
0.0132068
0.0550667
0.0559378
0.0327872
0.00503138
0.0003407
1.92103e-05
1.0905e-05
9.82079e-06
9.71377e-06
9.77481e-06
1.00552e-05
1.10115e-05
1.1656e-05
1.23855e-05
1.23743e-05
1.25996e-05
1.25727e-05
1.21212e-05
1.194e-05
1.15855e-05
1.12718e-05
1.05888e-05
9.62408e-06
1.04521e-05
1.28426e-05
0.003545
0.0480847
0.0764311
0.0755991
0.0272063
0.0550446
0.0386856
0.00906963
0.00128225
0.000146263
1.23774e-05
9.95304e-06
9.60907e-06
1.02017e-05
1.0289e-05
9.90837e-06
1.04123e-05
1.11506e-05
1.18644e-05
1.24142e-05
1.24948e-05
1.24844e-05
1.22582e-05
1.19917e-05
1.16051e-05
1.11919e-05
9.99448e-06
8.50864e-06
8.94304e-06
8.34055e-06
3.4268e-05
0.0148212
0.0762338
0.0761821
0.0464531
0.0417926
0.00653899
0.00257304
0.000419225
1.78729e-05
1.05435e-05
9.87423e-06
9.68659e-06
1.15812e-05
1.81244e-05
1.02783e-05
1.02397e-05
1.09465e-05
1.15038e-05
1.21671e-05
1.2156e-05
1.21399e-05
1.22463e-05
1.18101e-05
1.16506e-05
1.11793e-05
9.95605e-06
8.08371e-06
7.47876e-06
7.68685e-06
8.78091e-06
0.002187
0.0360348
0.0759244
0.069412
0.00450218
6.8712e-05
0.000226925
1.33784e-05
1.21557e-05
1.01704e-05
9.4687e-06
1.12378e-05
0.000221727
0.000381253
1.16715e-05
1.03008e-05
1.09344e-05
1.13465e-05
1.178e-05
1.18808e-05
1.18928e-05
1.20498e-05
1.2159e-05
1.19993e-05
1.13021e-05
1.00476e-05
8.0965e-06
7.1593e-06
7.22025e-06
7.91242e-06
0.000211309
0.00857633
0.0482564
0.0693317
1.27672e-05
8.82851e-06
1.15407e-05
1.06246e-05