/*--------------------------------*- C++ -*----------------------------------*\
| =========                 |                                                 |
| \\      /  F ield         | OpenFOAM: The Open Source CFD Toolbox           |
|  \\    /   O peration     | Version:  v1606+                                |
|   \\  /    A nd           | Web:      www.OpenFOAM.com                      |
|    \\/     M anipulation  |                                                 |
\*---------------------------------------------------------------------------*/
FoamFile
{
    version     2.0;
    format      ascii;
    class       volVectorField;
    location    "0.66";
    object      U.particlesMean;
}
// * * * * * * * * * * * * * * * * * * * * * * * * * * * * * * * * * * * * * //

dimensions      [0 1 -1 0 0 0 0];

internalField   nonuniform List<vector> 
6000
(
(-0.00754408 -0.342117 0)
(-0.00289656 -0.374095 0)
(0.00241796 -0.369965 0)
(0.00836274 -0.368352 0)
(0.0133597 -0.372137 0)
(0.0170725 -0.377583 0)
(0.0195928 -0.382842 0)
(0.0201128 -0.388364 0)
(0.0188678 -0.395159 0)
(0.0159389 -0.402769 0)
(0.0125697 -0.409042 0)
(0.00956154 -0.412833 0)
(0.00605148 -0.417962 0)
(0.00311455 -0.42181 0)
(0.000635024 -0.423781 0)
(-0.0018326 -0.422954 0)
(-0.00406525 -0.420823 0)
(-0.00712783 -0.416408 0)
(-0.0103139 -0.412767 0)
(-0.0140092 -0.408866 0)
(-0.0176036 -0.401404 0)
(-0.0202796 -0.393457 0)
(-0.0213226 -0.386742 0)
(-0.0203821 -0.381528 0)
(-0.0177668 -0.377274 0)
(-0.0139442 -0.370501 0)
(-0.00870047 -0.366745 0)
(-0.00239231 -0.369276 0)
(0.00331296 -0.373312 0)
(0.00799094 -0.343349 0)
(0.0148136 0.0341387 0)
(0.0027508 0.0625346 0)
(0.00481391 0.0576098 0)
(0.00630929 0.0542453 0)
(0.0121473 0.0522268 0)
(0.0169933 0.0500814 0)
(0.0214337 0.0470848 0)
(0.0240443 0.0458934 0)
(0.0252086 0.0463217 0)
(0.022791 0.048621 0)
(0.0167051 0.0504019 0)
(0.0109758 0.0485859 0)
(0.00693552 0.0460641 0)
(0.00391428 0.0441482 0)
(0.00105202 0.0431255 0)
(-0.00193391 0.042846 0)
(-0.00490929 0.0443795 0)
(-0.00805449 0.045721 0)
(-0.0125582 0.0495365 0)
(-0.0187458 0.050801 0)
(-0.0244689 0.048083 0)
(-0.026577 0.0461646 0)
(-0.025445 0.0456427 0)
(-0.0225177 0.0471874 0)
(-0.0178485 0.0503939 0)
(-0.0126982 0.051527 0)
(-0.00640564 0.0534724 0)
(-0.00448154 0.0574783 0)
(-0.00257772 0.0624134 0)
(-0.0146053 0.0330605 0)
(-0.00712648 -0.0259465 0)
(-0.00452083 -0.0346044 0)
(0.00300836 -0.0371377 0)
(0.00448323 -0.0399636 0)
(0.0117163 -0.0411358 0)
(0.017922 -0.0382167 0)
(0.0237347 -0.0346822 0)
(0.0271886 -0.0321657 0)
(0.0283571 -0.0274046 0)
(0.0246418 -0.0217109 0)
(0.0165405 -0.0203362 0)
(0.00985263 -0.0226123 0)
(0.00630022 -0.0264091 0)
(0.00422729 -0.0293877 0)
(0.00154141 -0.0295243 0)
(-0.00209634 -0.0297918 0)
(-0.00499818 -0.0289243 0)
(-0.00737995 -0.0259452 0)
(-0.0116311 -0.0216104 0)
(-0.018535 -0.0196901 0)
(-0.0263716 -0.0221244 0)
(-0.0295445 -0.0277962 0)
(-0.0283045 -0.0326093 0)
(-0.0245824 -0.0356051 0)
(-0.0182503 -0.0387815 0)
(-0.0116619 -0.0418464 0)
(-0.00437179 -0.0409062 0)
(-0.00265183 -0.0380529 0)
(0.00495562 -0.0346258 0)
(0.00729198 -0.0254074 0)
(-0.000792957 -0.021057 0)
(-0.00275626 -0.0376914 0)
(-0.00189642 -0.0397961 0)
(-0.00177064 -0.0428607 0)
(0.0044934 -0.0455552 0)
(0.0137295 -0.0442669 0)
(0.0234687 -0.0395136 0)
(0.0301219 -0.0327398 0)
(0.0331078 -0.0233324 0)
(0.031111 -0.0122347 0)
(0.0231284 -0.00476925 0)
(0.0128434 -0.0049034 0)
(0.00512037 -0.00896698 0)
(0.00236558 -0.0119459 0)
(0.000866662 -0.012245 0)
(-0.00105966 -0.0120174 0)
(-0.00296676 -0.0113805 0)
(-0.00649056 -0.00834771 0)
(-0.0149441 -0.00441261 0)
(-0.0249896 -0.00522512 0)
(-0.0321845 -0.0132587 0)
(-0.0337665 -0.0241789 0)
(-0.0304658 -0.0335499 0)
(-0.0236147 -0.0408381 0)
(-0.0134673 -0.0454367 0)
(-0.00391424 -0.0466446 0)
(0.00233173 -0.0436954 0)
(0.00246368 -0.0403522 0)
(0.00319603 -0.0374264 0)
(0.0010082 -0.02059 0)
(-2.44196e-05 -0.0371852 0)
(-0.0083112 -0.0538678 0)
(-0.0112161 -0.0582925 0)
(-0.0118704 -0.0710266 0)
(-0.00412565 -0.0794344 0)
(0.00713272 -0.0798844 0)
(0.0194454 -0.0723895 0)
(0.0287624 -0.0609972 0)
(0.0347226 -0.0466553 0)
(0.0354051 -0.0306208 0)
(0.0317609 -0.0177211 0)
(0.0214871 -0.0117737 0)
(0.0100528 -0.0151432 0)
(0.00292762 -0.0209196 0)
(0.00060203 -0.0235595 0)
(-0.000482641 -0.0229621 0)
(-0.00361551 -0.0196751 0)
(-0.0117082 -0.0142099 0)
(-0.0234838 -0.0117208 0)
(-0.0331911 -0.018758 0)
(-0.0361334 -0.0320641 0)
(-0.0350633 -0.0478837 0)
(-0.0286167 -0.0620519 0)
(-0.0189764 -0.0739075 0)
(-0.00643761 -0.0812957 0)
(0.0048765 -0.0806802 0)
(0.0126046 -0.0721673 0)
(0.0120594 -0.0593128 0)
(0.00904704 -0.0535163 0)
(0.00045992 -0.0362093 0)
(0.000684809 -0.0399441 0)
(-0.0161371 -0.0523351 0)
(-0.0224013 -0.0673818 0)
(-0.0215505 -0.0860914 0)
(-0.0141232 -0.0976466 0)
(-0.00137972 -0.100266 0)
(0.0138252 -0.0916476 0)
(0.0265274 -0.0763382 0)
(0.0356753 -0.0581704 0)
(0.0398609 -0.0400838 0)
(0.0411369 -0.0260858 0)
(0.0345396 -0.0163843 0)
(0.0220026 -0.0167372 0)
(0.009145 -0.0231473 0)
(0.00198203 -0.0291973 0)
(-0.00209991 -0.0279017 0)
(-0.0103799 -0.0208392 0)
(-0.0239805 -0.0155513 0)
(-0.0363714 -0.016657 0)
(-0.0420153 -0.0274927 0)
(-0.0404823 -0.0418209 0)
(-0.0355718 -0.0598083 0)
(-0.0259791 -0.077826 0)
(-0.0127874 -0.0936037 0)
(0.00256108 -0.101785 0)
(0.0152248 -0.0989488 0)
(0.0224349 -0.0871792 0)
(0.0230847 -0.068348 0)
(0.0167343 -0.0518656 0)
(-0.000601714 -0.0385495 0)
(-0.0013416 -0.0287093 0)
(-0.0216345 -0.0508023 0)
(-0.0288394 -0.0716602 0)
(-0.0284627 -0.0926956 0)
(-0.0226992 -0.108349 0)
(-0.00996356 -0.115007 0)
(0.00603454 -0.10931 0)
(0.0232458 -0.0927916 0)
(0.0354934 -0.0698371 0)
(0.0438923 -0.0479005 0)
(0.0478525 -0.0302941 0)
(0.0459724 -0.0162075 0)
(0.0338828 -0.0142419 0)
(0.0180199 -0.0210661 0)
(0.00440898 -0.0290886 0)
(-0.00557288 -0.0271832 0)
(-0.0200784 -0.0179481 0)
(-0.0363736 -0.0129041 0)
(-0.0476075 -0.0172183 0)
(-0.0483409 -0.0319903 0)
(-0.0443182 -0.0502463 0)
(-0.0349462 -0.0720613 0)
(-0.0220487 -0.0948653 0)
(-0.00458389 -0.111198 0)
(0.0112331 -0.116378 0)
(0.0237227 -0.10941 0)
(0.0291464 -0.0932429 0)
(0.0292948 -0.0719429 0)
(0.0217256 -0.0496272 0)
(0.000918326 -0.0271491 0)
(0.00141324 -0.0207814 0)
(-0.0207995 -0.0407153 0)
(-0.0258751 -0.0645423 0)
(-0.0252341 -0.0887354 0)
(-0.0215502 -0.108949 0)
(-0.0142487 -0.120233 0)
(-0.00202636 -0.119537 0)
(0.0144619 -0.104756 0)
(0.0287746 -0.0795704 0)
(0.0418683 -0.0560661 0)
(0.0482111 -0.0366917 0)
(0.0529898 -0.0214366 0)
(0.0439119 -0.0153552 0)
(0.0271678 -0.0213219 0)
(0.00801281 -0.0290793 0)
(-0.0111188 -0.0266057 0)
(-0.0302939 -0.0178358 0)
(-0.046834 -0.0140838 0)
(-0.0539199 -0.0231893 0)
(-0.0482464 -0.0385984 0)
(-0.0417055 -0.0587416 0)
(-0.0279251 -0.082168 0)
(-0.013178 -0.106983 0)
(0.00331353 -0.12139 0)
(0.015343 -0.121567 0)
(0.0225589 -0.110036 0)
(0.0258449 -0.0891359 0)
(0.0259952 -0.0644643 0)
(0.0207704 -0.0396055 0)
(-0.0023899 -0.0173536 0)
(0.000442831 -0.0130429 0)
(-0.015344 -0.0243965 0)
(-0.0186891 -0.0500487 0)
(-0.0192177 -0.078388 0)
(-0.0200937 -0.103442 0)
(-0.0157243 -0.122324 0)
(-0.00940008 -0.126483 0)
(0.00440372 -0.113277 0)
(0.0195676 -0.0881296 0)
(0.0353045 -0.0621287 0)
(0.0417159 -0.0398346 0)
(0.051386 -0.0231374 0)
(0.0476563 -0.0126935 0)
(0.0319426 -0.016403 0)
(0.010724 -0.0222226 0)
(-0.015671 -0.0195803 0)
(-0.0359801 -0.013131 0)
(-0.0504444 -0.0127788 0)
(-0.0514901 -0.0256214 0)
(-0.0415615 -0.0420376 0)
(-0.0346794 -0.065066 0)
(-0.0186995 -0.091074 0)
(-0.00328072 -0.115301 0)
(0.0104585 -0.128631 0)
(0.0159913 -0.122881 0)
(0.0201707 -0.103244 0)
(0.019319 -0.0777081 0)
(0.0183011 -0.0488848 0)
(0.0148081 -0.0228846 0)
(-0.000723148 -0.0113169 0)
(0.00318951 0.00429458 0)
(-0.00810801 -0.00351044 0)
(-0.0105782 -0.0303839 0)
(-0.0127606 -0.0628381 0)
(-0.0156835 -0.0911361 0)
(-0.0144294 -0.11307 0)
(-0.0130376 -0.12394 0)
(-0.0046013 -0.117293 0)
(0.00692576 -0.0903804 0)
(0.0247326 -0.0642396 0)
(0.0315789 -0.0419378 0)
(0.0430507 -0.0238942 0)
(0.0450208 -0.00726312 0)
(0.0316306 -0.00658917 0)
(0.0105983 -0.0104403 0)
(-0.018528 -0.00939854 0)
(-0.0367262 -0.00562612 0)
(-0.047677 -0.00993431 0)
(-0.0419831 -0.0267856 0)
(-0.0318356 -0.0447145 0)
(-0.023505 -0.0672109 0)
(-0.00577603 -0.0934138 0)
(0.0050436 -0.119599 0)
(0.013427 -0.124335 0)
(0.0150982 -0.113218 0)
(0.0162357 -0.0906205 0)
(0.0128995 -0.0618987 0)
(0.0103076 -0.0291291 0)
(0.00771238 -0.00191355 0)
(-0.00330508 0.00624635 0)
(0.00386029 0.0178188 0)
(-0.0035181 0.010918 0)
(-0.00404102 -0.0166644 0)
(-0.00556249 -0.053195 0)
(-0.0111362 -0.0804173 0)
(-0.0133594 -0.102951 0)
(-0.0167738 -0.115877 0)
(-0.0115775 -0.11266 0)
(-0.00474965 -0.0935736 0)
(0.0108319 -0.0652218 0)
(0.0211687 -0.0437362 0)
(0.0268331 -0.0205924 0)
(0.0379594 -0.000307856 0)
(0.0296482 0.00548361 0)
(0.00947041 0.00482136 0)
(-0.0197456 0.00478191 0)
(-0.0340495 0.0055222 0)
(-0.0384187 -0.00456213 0)
(-0.0259529 -0.0233332 0)
(-0.0212906 -0.0470904 0)
(-0.00866707 -0.0683457 0)
(0.00473537 -0.0965365 0)
(0.0123731 -0.113897 0)
(0.017277 -0.116187 0)
(0.013532 -0.10267 0)
(0.0109992 -0.0799477 0)
(0.00514547 -0.0525083 0)
(0.00346817 -0.0153605 0)
(0.0027224 0.0123335 0)
(-0.00386056 0.0193893 0)
(0.00392177 0.0269128 0)
(-0.00180407 0.0198191 0)
(0.00168184 -0.00638751 0)
(0.00266973 -0.0449103 0)
(-0.00468606 -0.0733845 0)
(-0.00732863 -0.0935523 0)
(-0.0165088 -0.105114 0)
(-0.0192807 -0.105236 0)
(-0.0141751 -0.0893561 0)
(-0.00589036 -0.067017 0)
(0.00781013 -0.0427481 0)
(0.0103142 -0.0169658 0)
(0.0240898 0.00483994 0)
(0.0253844 0.0166324 0)
(0.00955816 0.02043 0)
(-0.0171958 0.0206959 0)
(-0.0280211 0.0161887 0)
(-0.0234105 0.000447265 0)
(-0.0103224 -0.0210126 0)
(-0.00726742 -0.0461784 0)
(0.0073649 -0.0704997 0)
(0.0151861 -0.0915628 0)
(0.019794 -0.106337 0)
(0.0162584 -0.105575 0)
(0.0073266 -0.093724 0)
(0.00435631 -0.0728745 0)
(-0.00319546 -0.0440399 0)
(-0.00200635 -0.00487287 0)
(0.00155491 0.0210488 0)
(-0.00395676 0.0282173 0)
(0.00378207 0.032719 0)
(-0.000812942 0.0248192 0)
(0.00657412 0.00077188 0)
(0.0093118 -0.0379788 0)
(0.00206545 -0.0674541 0)
(-0.00397878 -0.0864539 0)
(-0.0133604 -0.0945438 0)
(-0.0224897 -0.094384 0)
(-0.0257972 -0.0827697 0)
(-0.018677 -0.0637189 0)
(-0.00698032 -0.0392967 0)
(-0.00468731 -0.0130971 0)
(0.00651784 0.00962423 0)
(0.0176534 0.0264996 0)
(0.00701976 0.0354329 0)
(-0.0137029 0.035768 0)
(-0.0198696 0.025532 0)
(-0.00463247 0.00662096 0)
(0.00420551 -0.0173881 0)
(0.00807619 -0.0435565 0)
(0.0191582 -0.0666884 0)
(0.0260826 -0.085188 0)
(0.0223469 -0.0954558 0)
(0.0132557 -0.094847 0)
(0.00403615 -0.0860578 0)
(-0.00298333 -0.0665532 0)
(-0.0101511 -0.0361704 0)
(-0.0072068 0.00199398 0)
(0.000482762 0.0259982 0)
(-0.00375905 0.0337846 0)
(0.00437666 0.0375606 0)
(0.000132014 0.0284503 0)
(0.0118148 0.00690834 0)
(0.015322 -0.0297943 0)
(0.00827488 -0.061545 0)
(-0.00131977 -0.0787938 0)
(-0.013031 -0.0844065 0)
(-0.0242272 -0.0824822 0)
(-0.0319908 -0.0739774 0)
(-0.0308235 -0.0591452 0)
(-0.021283 -0.0378357 0)
(-0.0160968 -0.0112143 0)
(-0.010449 0.0125969 0)
(0.00820535 0.0327011 0)
(0.00296177 0.0449018 0)
(-0.00975691 0.0462115 0)
(-0.0103357 0.03166 0)
(0.0125358 0.00971242 0)
(0.0156132 -0.0156048 0)
(0.0219201 -0.0421506 0)
(0.0314652 -0.0627181 0)
(0.0316538 -0.076342 0)
(0.0240731 -0.0836364 0)
(0.0127534 -0.0843235 0)
(0.000543519 -0.0773801 0)
(-0.0099351 -0.0597767 0)
(-0.0171498 -0.0271615 0)
(-0.0126912 0.00806758 0)
(-0.000722653 0.0292851 0)
(-0.00424087 0.0383051 0)
(0.00637188 0.0419041 0)
(0.0016308 0.0301808 0)
(0.0174446 0.0119655 0)
(0.0214627 -0.0221319 0)
(0.0121706 -0.0546043 0)
(-0.00065241 -0.0678662 0)
(-0.0149339 -0.0726385 0)
(-0.0288044 -0.0701265 0)
(-0.0381063 -0.0640063 0)
(-0.0425727 -0.0518243 0)
(-0.0378926 -0.0335637 0)
(-0.0243252 -0.00963889 0)
(-0.0233314 0.014016 0)
(-0.00752518 0.0389642 0)
(-0.00364653 0.0491872 0)
(3.54879e-05 0.0506193 0)
(0.00491415 0.0393662 0)
(0.0241306 0.0105345 0)
(0.0236754 -0.0145032 0)
(0.0377915 -0.0374747 0)
(0.0420724 -0.0555446 0)
(0.0373799 -0.0667031 0)
(0.0286951 -0.0705749 0)
(0.0140493 -0.0715545 0)
(-0.00211095 -0.0667266 0)
(-0.0148825 -0.0544555 0)
(-0.0223858 -0.0214015 0)
(-0.0170344 0.0118651 0)
(-0.00136518 0.0301026 0)
(-0.00590003 0.0418065 0)
(0.0086797 0.0444253 0)
(0.00237433 0.0295668 0)
(0.0211828 0.0131132 0)
(0.0256728 -0.0173346 0)
(0.0195992 -0.0487491 0)
(0.00327257 -0.0567027 0)
(-0.0189885 -0.058239 0)
(-0.03728 -0.0562271 0)
(-0.0453261 -0.0547228 0)
(-0.0493945 -0.0462298 0)
(-0.0482467 -0.0305564 0)
(-0.0373664 -0.012807 0)
(-0.0360785 0.0130471 0)
(-0.0238127 0.0321825 0)
(-0.00633789 0.0464858 0)
(0.00399447 0.0469391 0)
(0.0248961 0.0310234 0)
(0.0361804 0.00905399 0)
(0.0385806 -0.0161808 0)
(0.0480626 -0.0340435 0)
(0.048596 -0.0495496 0)
(0.045843 -0.0559411 0)
(0.0355968 -0.0568172 0)
(0.015118 -0.0587688 0)
(-0.00329296 -0.0576513 0)
(-0.0180615 -0.0483272 0)
(-0.023406 -0.0154655 0)
(-0.0177405 0.0129302 0)
(0.000112671 0.0295868 0)
(-0.00725669 0.0440886 0)
(0.0111337 0.0433815 0)
(0.00548918 0.0267338 0)
(0.0264827 0.0129819 0)
(0.0331981 -0.00771761 0)
(0.0219931 -0.0396431 0)
(0.0071519 -0.0463086 0)
(-0.0160501 -0.0447242 0)
(-0.0427678 -0.0426695 0)
(-0.0533498 -0.0437036 0)
(-0.054853 -0.0382041 0)
(-0.0533643 -0.026028 0)
(-0.046893 -0.012162 0)
(-0.035891 -0.000268596 0)
(-0.0301693 0.0284756 0)
(-0.00734425 0.0389794 0)
(0.00327892 0.0378087 0)
(0.0291949 0.0258017 0)
(0.0355009 1.41068e-05 0)
(0.0469665 -0.01426 0)
(0.0519706 -0.0289632 0)
(0.0546662 -0.0402399 0)
(0.0522586 -0.0461671 0)
(0.0397615 -0.0436956 0)
(0.0176596 -0.0459348 0)
(-0.004978 -0.047992 0)
(-0.0206151 -0.0411945 0)
(-0.0322521 -0.00646154 0)
(-0.024144 0.0122822 0)
(-0.00372369 0.0260576 0)
(-0.00974239 0.0434214 0)
(0.0149727 0.0388352 0)
(0.013992 0.0241645 0)
(0.0370168 0.0177382 0)
(0.0487215 0.00319209 0)
(0.0327683 -0.0310441 0)
(0.0129241 -0.0406444 0)
(-0.0156934 -0.0327209 0)
(-0.0408483 -0.0302867 0)
(-0.057519 -0.0342115 0)
(-0.0579386 -0.0314995 0)
(-0.0526152 -0.0239232 0)
(-0.0458687 -0.0151492 0)
(-0.0328904 -0.0178166 0)
(-0.0272314 0.0121149 0)
(-0.0055634 0.0176262 0)
(0.00346231 0.0166336 0)
(0.024892 0.00835317 0)
(0.0313567 -0.0163985 0)
(0.0453934 -0.0145229 0)
(0.0527876 -0.025706 0)
(0.0566441 -0.0355012 0)
(0.0547552 -0.0366588 0)
(0.0443839 -0.0329595 0)
(0.0197416 -0.0365384 0)
(-0.0107078 -0.0425565 0)
(-0.0330882 -0.0302375 0)
(-0.0490069 0.00332745 0)
(-0.0354984 0.0164315 0)
(-0.0134083 0.0225584 0)
(-0.0143156 0.0380641 0)
(0.0191486 0.0323454 0)
(0.022962 0.0146114 0)
(0.0432969 0.00877558 0)
(0.0614792 0.00562107 0)
(0.0481132 -0.0140666 0)
(0.0293679 -0.0274786 0)
(-0.00697264 -0.0354784 0)
(-0.0403026 -0.0237969 0)
(-0.0528507 -0.0245443 0)
(-0.0565155 -0.0307046 0)
(-0.0483331 -0.0257004 0)
(-0.0367933 -0.0271435 0)
(-0.0262253 -0.0384673 0)
(-0.0171364 -0.0248233 0)
(-0.00441428 -0.011079 0)
(0.0033638 -0.0114405 0)
(0.0141918 -0.0291683 0)
(0.0238486 -0.0383927 0)
(0.0366352 -0.0271923 0)
(0.0482452 -0.0290256 0)
(0.0555686 -0.0351785 0)
(0.0569529 -0.0304003 0)
(0.0481119 -0.0322258 0)
(0.0109107 -0.0437869 0)
(-0.0252282 -0.0327574 0)
(-0.0418815 -0.0160895 0)
(-0.0572648 0.00193054 0)
(-0.0412793 0.00282256 0)
(-0.0224732 0.0118356 0)
(-0.0188677 0.0311144 0)
(0.0237137 0.0195068 0)
(0.0306006 -0.00200082 0)
(0.0449923 -0.0234706 0)
(0.052892 -0.0203288 0)
(0.0445543 -0.023488 0)
(0.0255812 -0.0345617 0)
(-0.00169186 -0.0408586 0)
(-0.0303545 -0.0496489 0)
(-0.0473558 -0.0298232 0)
(-0.050723 -0.0327268 0)
(-0.0416956 -0.0356846 0)
(-0.0288942 -0.0397765 0)
(-0.0136038 -0.0631232 0)
(-0.0104966 -0.0537132 0)
(-0.00300267 -0.0405875 0)
(0.00333595 -0.0414974 0)
(0.00877576 -0.0544013 0)
(0.0112862 -0.0618639 0)
(0.0292039 -0.0408188 0)
(0.041999 -0.0404106 0)
(0.051085 -0.0426129 0)
(0.0522602 -0.043301 0)
(0.0312896 -0.0641575 0)
(0.00467962 -0.0472378 0)
(-0.0190089 -0.039375 0)
(-0.0390199 -0.0251285 0)
(-0.0482841 -0.0247103 0)
(-0.0434382 -0.0313933 0)
(-0.030524 -0.00513134 0)
(-0.0229285 0.0182677 0)
(0.0248812 -0.0149459 0)
(0.0359783 -0.0383539 0)
(0.0419376 -0.0692216 0)
(0.0345445 -0.0678766 0)
(0.0195376 -0.0548231 0)
(0.00140806 -0.0413442 0)
(-0.0139223 -0.0409942 0)
(-0.0246295 -0.0656556 0)
(-0.0317826 -0.0704688 0)
(-0.0391896 -0.0555012 0)
(-0.0339175 -0.047508 0)
(-0.021319 -0.0535215 0)
(-0.00831597 -0.0690903 0)
(-0.00649647 -0.0689903 0)
(-0.00123004 -0.0621388 0)
(0.00221554 -0.0615918 0)
(0.00476637 -0.0661331 0)
(0.00575863 -0.0661036 0)
(0.0217376 -0.0554757 0)
(0.0341996 -0.0549989 0)
(0.0407538 -0.0719487 0)
(0.0260642 -0.0856621 0)
(0.0169365 -0.0776604 0)
(0.00881473 -0.0502776 0)
(-0.00642852 -0.0450453 0)
(-0.0237247 -0.0585275 0)
(-0.033561 -0.0675066 0)
(-0.041602 -0.0692496 0)
(-0.0391437 -0.0425211 0)
(-0.0250787 -0.0207133 0)
(0.017948 -0.0840494 0)
(0.0274848 -0.10002 0)
(0.0222018 -0.091836 0)
(0.0127241 -0.0690086 0)
(0.00167191 -0.051479 0)
(-0.00947794 -0.0389509 0)
(-0.0125496 -0.0499432 0)
(-0.0142452 -0.0762411 0)
(-0.0197673 -0.0861894 0)
(-0.0273377 -0.0777796 0)
(-0.0258639 -0.0635834 0)
(-0.0176273 -0.0574354 0)
(-0.00489814 -0.0696378 0)
(-0.00383334 -0.0744661 0)
(0.000169145 -0.0683592 0)
(0.00109254 -0.0659495 0)
(0.000822414 -0.0673872 0)
(0.0018632 -0.0636779 0)
(0.0177734 -0.060348 0)
(0.0278197 -0.0730759 0)
(0.0220277 -0.0888466 0)
(0.00654525 -0.0964708 0)
(0.00250446 -0.0864827 0)
(6.04822e-05 -0.0623407 0)
(-0.00268203 -0.0521912 0)
(-0.00683134 -0.0652559 0)
(-0.012216 -0.0783659 0)
(-0.0186723 -0.0918829 0)
(-0.0253608 -0.102124 0)
(-0.0198404 -0.0878519 0)
(0.0132871 -0.114215 0)
(0.0129388 -0.108919 0)
(0.0103541 -0.0834857 0)
(0.00316469 -0.0626612 0)
(-0.00154196 -0.0513562 0)
(0.00155978 -0.0480989 0)
(0.00326014 -0.0653975 0)
(0.00397225 -0.0881437 0)
(-0.00210634 -0.0955589 0)
(-0.0154674 -0.087511 0)
(-0.0182196 -0.0714782 0)
(-0.0135567 -0.0610644 0)
(-0.00189099 -0.0711463 0)
(-0.00153091 -0.0721779 0)
(5.10737e-05 -0.0658311 0)
(-0.00022629 -0.0601926 0)
(-0.00238617 -0.0611926 0)
(-0.000871933 -0.0620785 0)
(0.0138552 -0.0655809 0)
(0.015994 -0.0823883 0)
(0.00372591 -0.0956602 0)
(-0.00938303 -0.105056 0)
(-0.0141272 -0.0991434 0)
(-0.0161348 -0.0765058 0)
(-0.0106921 -0.0640849 0)
(-0.00286764 -0.0646353 0)
(-0.00382438 -0.074174 0)
(-0.00675437 -0.0907489 0)
(-0.00626444 -0.112774 0)
(-0.0105 -0.113459 0)
(0.00520283 -0.109088 0)
(0.00126102 -0.100895 0)
(0.00043166 -0.0738009 0)
(-0.00292327 -0.0552526 0)
(0.00474135 -0.0517628 0)
(0.0189655 -0.0614728 0)
(0.0248061 -0.0780313 0)
(0.0249423 -0.101044 0)
(0.018373 -0.104565 0)
(0.00106998 -0.0947723 0)
(-0.0116165 -0.0787588 0)
(-0.00927656 -0.06523 0)
(-0.00108591 -0.0721592 0)
(-0.000479593 -0.0678288 0)
(-0.00102987 -0.0655984 0)
(-0.00239137 -0.0581334 0)
(-0.00426821 -0.0555745 0)
(0.00172021 -0.06372 0)
(0.00974439 -0.0711914 0)
(0.00333871 -0.0851074 0)
(-0.0109606 -0.101514 0)
(-0.0265981 -0.113788 0)
(-0.0343476 -0.109747 0)
(-0.0341937 -0.0912365 0)
(-0.0256252 -0.0770125 0)
(-0.0101514 -0.0651629 0)
(-0.000243389 -0.0669488 0)
(-0.000396277 -0.081937 0)
(-0.000163613 -0.103956 0)
(-0.00215324 -0.108747 0)
(-0.000788554 -0.100117 0)
(3.05473e-05 -0.0924649 0)
(-0.0074158 -0.0654999 0)
(-0.000744454 -0.0559585 0)
(0.0197989 -0.0627623 0)
(0.0370489 -0.0755265 0)
(0.0452011 -0.0893619 0)
(0.0449157 -0.109892 0)
(0.0351211 -0.108226 0)
(0.017896 -0.0980556 0)
(0.000325028 -0.0835222 0)
(-0.00572452 -0.0687265 0)
(-0.00103455 -0.0699092 0)
(-0.000526336 -0.0641448 0)
(-0.00279917 -0.0623275 0)
(-0.00445341 -0.0545726 0)
(-0.00324439 -0.0549393 0)
(0.00341232 -0.064234 0)
(0.00148599 -0.06999 0)
(-0.00771822 -0.0873499 0)
(-0.0247263 -0.104612 0)
(-0.0426305 -0.117434 0)
(-0.0534573 -0.119611 0)
(-0.0524804 -0.103118 0)
(-0.0426427 -0.0899602 0)
(-0.0264447 -0.0774534 0)
(-0.00538699 -0.0680976 0)
(0.00416663 -0.0739916 0)
(-0.0010198 -0.09565 0)
(0.00135786 -0.0993964 0)
(-0.00714465 -0.0881197 0)
(-0.00964755 -0.0757963 0)
(-0.0083918 -0.0609449 0)
(0.0153657 -0.066036 0)
(0.0399929 -0.0794416 0)
(0.0535529 -0.0867757 0)
(0.0630945 -0.0994502 0)
(0.0640124 -0.115612 0)
(0.0519605 -0.112792 0)
(0.0320898 -0.100814 0)
(0.0127715 -0.0839155 0)
(0.000669144 -0.0679146 0)
(0.000875469 -0.0645464 0)
(-0.000889786 -0.0605098 0)
(-0.00443924 -0.0592125 0)
(-0.00494377 -0.0533826 0)
(-2.69333e-05 -0.0556023 0)
(-0.00118176 -0.0588826 0)
(-0.00506742 -0.0689959 0)
(-0.0184033 -0.0875383 0)
(-0.0379745 -0.108512 0)
(-0.058155 -0.121849 0)
(-0.0702654 -0.126466 0)
(-0.0689499 -0.113241 0)
(-0.0578869 -0.100481 0)
(-0.045151 -0.0917988 0)
(-0.0230053 -0.0788103 0)
(0.00208537 -0.0699279 0)
(0.00576236 -0.0774823 0)
(0.00665737 -0.0857546 0)
(-0.0128989 -0.0705046 0)
(-0.0067572 -0.0627952 0)
(0.00919534 -0.0717539 0)
(0.0381685 -0.0866265 0)
(0.0560151 -0.0925516 0)
(0.0693973 -0.0973136 0)
(0.0797167 -0.10772 0)
(0.0793909 -0.118802 0)
(0.0657685 -0.112597 0)
(0.0460533 -0.102584 0)
(0.0244533 -0.0844211 0)
(0.00852083 -0.0663015 0)
(0.00435105 -0.0565763 0)
(0.000688775 -0.0547852 0)
(-0.00434522 -0.0571643 0)
(-0.00193608 -0.0592681 0)
(-0.000964351 -0.0508907 0)
(-0.00561313 -0.0527441 0)
(-0.0113629 -0.0661662 0)
(-0.0276982 -0.0865632 0)
(-0.0497872 -0.106596 0)
(-0.0693421 -0.119073 0)
(-0.0832407 -0.126459 0)
(-0.0825584 -0.117763 0)
(-0.0707865 -0.105235 0)
(-0.0562604 -0.0970298 0)
(-0.0424652 -0.0939641 0)
(-0.0156848 -0.0804751 0)
(0.00264298 -0.065002 0)
(0.0128644 -0.0673348 0)
(-0.0117663 -0.0491436 0)
(0.00384618 -0.0669822 0)
(0.0308513 -0.0890162 0)
(0.0535185 -0.0985533 0)
(0.0703913 -0.101507 0)
(0.0835353 -0.104382 0)
(0.0928773 -0.111761 0)
(0.0919453 -0.118157 0)
(0.0776655 -0.110518 0)
(0.057031 -0.098438 0)
(0.0334214 -0.081323 0)
(0.0145362 -0.0630909 0)
(0.00826672 -0.0491956 0)
(0.00279344 -0.0485509 0)
(-0.00148765 -0.0544282 0)
(-0.00492632 -0.0632058 0)
(-0.00229491 -0.0450707 0)
(-0.00864922 -0.0468384 0)
(-0.0158067 -0.0620725 0)
(-0.0347894 -0.0805573 0)
(-0.0581798 -0.0997292 0)
(-0.0794556 -0.113934 0)
(-0.0923082 -0.120011 0)
(-0.0934079 -0.116504 0)
(-0.0847412 -0.110868 0)
(-0.0699727 -0.104844 0)
(-0.0532182 -0.100882 0)
(-0.0326618 -0.0932211 0)
(-0.00658185 -0.0691831 0)
(0.0110697 -0.0441656 0)
(0.00375005 -0.037281 0)
(0.0182059 -0.0824196 0)
(0.0431702 -0.101256 0)
(0.0634744 -0.107195 0)
(0.0794529 -0.105483 0)
(0.0933956 -0.106329 0)
(0.102109 -0.109033 0)
(0.100858 -0.113293 0)
(0.0872624 -0.107712 0)
(0.0662525 -0.0948178 0)
(0.0408128 -0.0754772 0)
(0.0201878 -0.0581952 0)
(0.0112264 -0.0427038 0)
(0.00521723 -0.0427147 0)
(0.000877489 -0.0501893 0)
(-0.00347785 -0.0624064 0)
(-0.0034402 -0.041428 0)
(-0.0113511 -0.0407877 0)
(-0.0206083 -0.055711 0)
(-0.0409346 -0.072038 0)
(-0.0660308 -0.0922846 0)
(-0.0868289 -0.10626 0)
(-0.0989375 -0.115424 0)
(-0.101902 -0.119655 0)
(-0.0958754 -0.119678 0)
(-0.0816794 -0.116073 0)
(-0.0648461 -0.114163 0)
(-0.0434061 -0.108236 0)
(-0.020906 -0.0899136 0)
(-0.00614573 -0.0352016 0)
(0.0152602 -0.0478144 0)
(0.0256226 -0.0940594 0)
(0.0493166 -0.110576 0)
(0.069842 -0.114428 0)
(0.086337 -0.111466 0)
(0.0994055 -0.109905 0)
(0.105985 -0.108058 0)
(0.104535 -0.107424 0)
(0.0945968 -0.10408 0)
(0.0736252 -0.0937246 0)
(0.0460431 -0.0721126 0)
(0.0240486 -0.0518155 0)
(0.0135303 -0.0363564 0)
(0.00745853 -0.0375515 0)
(0.00222412 -0.0448204 0)
(-0.00290708 -0.0516413 0)
(-0.00673432 -0.0375122 0)
(-0.0147295 -0.0340547 0)
(-0.0247092 -0.0469808 0)
(-0.04572 -0.0631325 0)
(-0.0715881 -0.0842326 0)
(-0.0918623 -0.106392 0)
(-0.103245 -0.116356 0)
(-0.106705 -0.123321 0)
(-0.101628 -0.126882 0)
(-0.0894306 -0.126435 0)
(-0.0730804 -0.127604 0)
(-0.0530085 -0.124338 0)
(-0.0297624 -0.1085 0)
(-0.0205071 -0.0578764 0)
(0.0233843 -0.0653217 0)
(0.0329514 -0.110456 0)
(0.0559539 -0.124258 0)
(0.0748871 -0.124593 0)
(0.0895243 -0.118224 0)
(0.100217 -0.112718 0)
(0.105626 -0.106475 0)
(0.104101 -0.102993 0)
(0.095588 -0.0987184 0)
(0.0792933 -0.0949642 0)
(0.0512749 -0.0824956 0)
(0.0260569 -0.0492945 0)
(0.0143514 -0.0306659 0)
(0.00858274 -0.0328839 0)
(0.00215752 -0.0376524 0)
(-0.00413566 -0.038681 0)
(-0.0103315 -0.031089 0)
(-0.0184064 -0.0274778 0)
(-0.0295578 -0.0395686 0)
(-0.050814 -0.064488 0)
(-0.0764826 -0.0941273 0)
(-0.0948509 -0.104183 0)
(-0.103962 -0.109731 0)
(-0.105671 -0.116257 0)
(-0.101129 -0.124091 0)
(-0.0911342 -0.130079 0)
(-0.0769613 -0.134708 0)
(-0.0579757 -0.131609 0)
(-0.0341269 -0.111624 0)
(-0.024589 -0.0641522 0)
(0.0265322 -0.0735697 0)
(0.035861 -0.112337 0)
(0.0584353 -0.126103 0)
(0.0766188 -0.125008 0)
(0.089298 -0.116103 0)
(0.0980223 -0.106414 0)
(0.101624 -0.0968228 0)
(0.0987565 -0.0875091 0)
(0.0905135 -0.0809958 0)
(0.0762123 -0.0781225 0)
(0.0596304 -0.0842804 0)
(0.031096 -0.0724659 0)
(0.0127089 -0.0300007 0)
(0.00790443 -0.0283839 0)
(0.000760069 -0.0288174 0)
(-0.00463714 -0.0286994 0)
(-0.0117857 -0.0262496 0)
(-0.0205002 -0.0217753 0)
(-0.031225 -0.0462968 0)
(-0.0567811 -0.0835602 0)
(-0.0766148 -0.0815889 0)
(-0.0901124 -0.0839765 0)
(-0.0983406 -0.0900341 0)
(-0.101491 -0.0991876 0)
(-0.0980804 -0.108902 0)
(-0.0896723 -0.118792 0)
(-0.0769538 -0.126487 0)
(-0.058886 -0.125766 0)
(-0.0363759 -0.109531 0)
(-0.0269843 -0.0664898 0)
(0.0282183 -0.0781596 0)
(0.0378975 -0.11035 0)
(0.0586926 -0.11901 0)
(0.0752814 -0.114406 0)
(0.0865973 -0.103781 0)
(0.0937399 -0.0907773 0)
(0.0957287 -0.0760338 0)
(0.0917046 -0.0630573 0)
(0.0824535 -0.0557837 0)
(0.0712392 -0.0554842 0)
(0.0614843 -0.0654705 0)
(0.0408034 -0.0701704 0)
(0.014278 -0.0515565 0)
(0.00562261 -0.0227074 0)
(3.23443e-05 -0.0182392 0)
(-0.00389979 -0.0176738 0)
(-0.0111186 -0.0203405 0)
(-0.0162656 -0.029175 0)
(-0.0366612 -0.069221 0)
(-0.061412 -0.07025 0)
(-0.0718261 -0.0589854 0)
(-0.0821689 -0.0588172 0)
(-0.0912624 -0.064912 0)
(-0.0954047 -0.077612 0)
(-0.0939534 -0.0918668 0)
(-0.0868175 -0.104645 0)
(-0.0757035 -0.115278 0)
(-0.0594013 -0.119132 0)
(-0.0387651 -0.108109 0)
(-0.0287733 -0.0711868 0)
(0.0294736 -0.0848621 0)
(0.0395884 -0.108378 0)
(0.0578837 -0.111048 0)
(0.0728333 -0.102436 0)
(0.0828934 -0.0884541 0)
(0.0886119 -0.070133 0)
(0.0877587 -0.051169 0)
(0.0824193 -0.0369291 0)
(0.0757224 -0.0331118 0)
(0.067721 -0.0373488 0)
(0.060532 -0.0471399 0)
(0.0451365 -0.0517871 0)
(0.0211267 -0.0426113 0)
(0.00434934 -0.0198106 0)
(-0.000219625 -0.00719721 0)
(-0.00339729 -0.00592227 0)
(-0.00772607 -0.0145929 0)
(-0.0198461 -0.0499422 0)
(-0.0431619 -0.0560366 0)
(-0.0608899 -0.0508716 0)
(-0.068216 -0.0408834 0)
(-0.0753891 -0.0361784 0)
(-0.0819037 -0.039084 0)
(-0.0873559 -0.0522856 0)
(-0.0884983 -0.0710223 0)
(-0.0832303 -0.0891378 0)
(-0.0731351 -0.103255 0)
(-0.0584887 -0.111023 0)
(-0.04036 -0.106631 0)
(-0.0303034 -0.0790228 0)
(0.030321 -0.0943587 0)
(0.0401216 -0.106713 0)
(0.0561774 -0.102865 0)
(0.0697312 -0.0901206 0)
(0.0778654 -0.0703812 0)
(0.0801453 -0.0465053 0)
(0.0774879 -0.0255431 0)
(0.0742691 -0.0151486 0)
(0.0698859 -0.0157309 0)
(0.0655783 -0.022295 0)
(0.0602769 -0.0310123 0)
(0.0463431 -0.0343906 0)
(0.0242663 -0.0274535 0)
(0.00632136 -0.00879449 0)
(-0.000802769 0.00314222 0)
(-0.00368498 0.00490742 0)
(-0.00928031 -0.00620549 0)
(-0.0247745 -0.0345152 0)
(-0.0445031 -0.0364946 0)
(-0.0600853 -0.0342995 0)
(-0.066019 -0.025483 0)
(-0.0697801 -0.0188553 0)
(-0.0738789 -0.0173653 0)
(-0.0770154 -0.0268431 0)
(-0.0800588 -0.0469812 0)
(-0.0779801 -0.0708018 0)
(-0.0700747 -0.0908401 0)
(-0.0566199 -0.102945 0)
(-0.0406886 -0.105363 0)
(-0.0308817 -0.089353 0)
(0.0292081 -0.104153 0)
(0.0387797 -0.10427 0)
(0.0529486 -0.0938519 0)
(0.0649023 -0.0740346 0)
(0.0692601 -0.047917 0)
(0.069433 -0.020522 0)
(0.0679466 -0.00350129 0)
(0.0667405 0.00197398 0)
(0.0665945 -0.00218527 0)
(0.0650771 -0.00940017 0)
(0.0596578 -0.0159905 0)
(0.0473228 -0.0180588 0)
(0.0273755 -0.0131038 0)
(0.00852199 0.00344601 0)
(-0.000327488 0.0149159 0)
(-0.00390667 0.0162554 0)
(-0.01104 0.00525388 0)
(-0.0265554 -0.0167271 0)
(-0.044853 -0.0197753 0)
(-0.0594558 -0.0186376 0)
(-0.0654029 -0.0123474 0)
(-0.0667534 -0.00533384 0)
(-0.0667356 -0.000551263 0)
(-0.0677339 -0.00509026 0)
(-0.0692773 -0.0211851 0)
(-0.0694735 -0.0479265 0)
(-0.0652095 -0.0745582 0)
(-0.0534361 -0.0938692 0)
(-0.039198 -0.103094 0)
(-0.0296086 -0.0992726 0)
(0.0259758 -0.111127 0)
(0.0361071 -0.100888 0)
(0.0477197 -0.08089 0)
(0.0562702 -0.0541559 0)
(0.0580133 -0.0227056 0)
(0.0585495 0.00167322 0)
(0.0590885 0.0135481 0)
(0.0618963 0.0146967 0)
(0.0647338 0.00801325 0)
(0.0645459 0.00253527 0)
(0.0601428 -0.00177308 0)
(0.0487334 -0.00222198 0)
(0.0305671 0.00208017 0)
(0.011117 0.0164169 0)
(0.00117025 0.0273686 0)
(-0.00425308 0.0282076 0)
(-0.0129084 0.016648 0)
(-0.0280522 -2.38261e-05 0)
(-0.0455333 -0.00302789 0)
(-0.0590647 -0.00372196 0)
(-0.064833 0.000339797 0)
(-0.0650954 0.00534299 0)
(-0.0624142 0.0119986 0)
(-0.05939 0.0117312 0)
(-0.0589103 0.000715551 0)
(-0.0581437 -0.0228839 0)
(-0.0565607 -0.0544441 0)
(-0.0482279 -0.0808988 0)
(-0.0367683 -0.0997685 0)
(-0.0264426 -0.10632 0)
(0.0198445 -0.115285 0)
(0.0331096 -0.0957354 0)
(0.0393558 -0.0653048 0)
(0.0452976 -0.0306992 0)
(0.0464234 -0.000232699 0)
(0.0488935 0.0192116 0)
(0.0527344 0.0261248 0)
(0.0589879 0.023508 0)
(0.0640355 0.0173511 0)
(0.0654698 0.0138991 0)
(0.0613514 0.0120335 0)
(0.0500102 0.013275 0)
(0.0331537 0.0173398 0)
(0.0132019 0.0301138 0)
(0.00215326 0.0399724 0)
(-0.00449469 0.0398762 0)
(-0.0137017 0.0278403 0)
(-0.0289894 0.0171271 0)
(-0.0458459 0.0131837 0)
(-0.0592362 0.0111054 0)
(-0.0648516 0.0126036 0)
(-0.0640154 0.0155241 0)
(-0.0595781 0.0211733 0)
(-0.0533222 0.0241294 0)
(-0.0496093 0.0179559 0)
(-0.0471978 -0.00071137 0)
(-0.0457473 -0.0310431 0)
(-0.0397833 -0.0651898 0)
(-0.0339275 -0.0944739 0)
(-0.0205095 -0.110769 0)
(0.0110515 -0.115895 0)
(0.0271333 -0.0863938 0)
(0.029562 -0.0471076 0)
(0.0327071 -0.00831518 0)
(0.0346223 0.0196147 0)
(0.0414486 0.0326985 0)
(0.0502398 0.0336282 0)
(0.0603312 0.0289266 0)