/*--------------------------------*- C++ -*----------------------------------*\
| =========                 |                                                 |
| \\      /  F ield         | OpenFOAM: The Open Source CFD Toolbox           |
|  \\    /   O peration     | Version:  v1606+                                |
|   \\  /    A nd           | Web:      www.OpenFOAM.com                      |
|    \\/     M anipulation  |                                                 |
\*---------------------------------------------------------------------------*/
FoamFile
{
    version     2.0;
    format      ascii;
    class       volScalarField;
    location    "0.5";
    object      p;
}
// * * * * * * * * * * * * * * * * * * * * * * * * * * * * * * * * * * * * * //

dimensions      [0 2 -2 0 0 0 0];

internalField   nonuniform List<scalar> 
768
(
-5.60905e-08
-0.000260863
1.60911e-05
-4.77443e-05
-0.000165606
-0.000308086
-0.000428131
-0.000524782
-0.000664045
-0.000985452
-0.00175505
-0.00318376
-0.000412708
-0.000253047
-0.000109455
-7.82625e-05
-0.00017035
-0.000307143
-0.000453095
-0.00061757
-0.000862281
-0.0013004
-0.0021011
-0.00338808
-0.000633691
-0.000150861
-9.00762e-05
-8.9953e-05
-0.000185317
-0.000329796
-0.000503175
-0.000718427
-0.00102703
-0.00151337
-0.00228389
-0.00340422
-0.000514975
4.85421e-05
-2.93429e-05
-8.77422e-05
-0.00020791
-0.000372108
-0.000572714
-0.000824577
-0.00116982
-0.00166858
-0.00238498
-0.00334727
-0.00563039
-0.00815007
-0.00936946
-0.00920153
-0.00817522
-0.00675957
-0.00530005
-0.00393229
-0.0027221
-0.00186397
-0.00138457
-0.000753402
-0.00522647
-0.00704289
-0.00804175
-0.0080664
-0.00738213
-0.00630483
-0.00509225
-0.00391153
-0.00282661
-0.00201379
-0.00166512
-0.00128779
-0.00483842
-0.00620976
-0.00702876
-0.00714018
-0.00667688
-0.00585508
-0.00487554
-0.00389421
-0.00296466
-0.00225748
-0.00205784
-0.00195763
-0.00449092
-0.00555764
-0.0062296
-0.00637946
-0.00607223
-0.00545473
-0.00468185
-0.00388624
-0.00313924
-0.0025718
-0.00242514
-0.00262518
-8.42161e-05
-0.000312151
-2.28321e-05
-7.83896e-05
-0.000191639
-0.00033144
-0.000450461
-0.000548033
-0.000690704
-0.0010185
-0.00179773
-0.00323732
-0.000476477
-0.000301813
-0.000147161
-0.000110375
-0.00019857
-0.000333153
-0.000478432
-0.000643955
-0.000891776
-0.00133536
-0.00214379
-0.00343946
-0.000687502
-0.000195918
-0.000128133
-0.00012317
-0.000215301
-0.00035801
-0.000530985
-0.000747336
-0.00105874
-0.00154977
-0.00232675
-0.00345429
-0.000563445
6.53101e-06
-6.6897e-05
-0.000121694
-0.000239282
-0.000402118
-0.000602554
-0.000855548
-0.00120333
-0.00170615
-0.00242806
-0.00339637
-0.00569569
-0.00822485
-0.00944812
-0.00927699
-0.00824777
-0.00682855
-0.00536525
-0.00399408
-0.00278127
-0.00192002
-0.00143758
-0.000805261
-0.00528707
-0.00711123
-0.00811407
-0.00813801
-0.00745214
-0.00637227
-0.00515692
-0.00397288
-0.0028862
-0.0020707
-0.00171864
-0.00133884
-0.00489599
-0.00627371
-0.00709642
-0.00720849
-0.00674436
-0.0059208
-0.00493882
-0.00395444
-0.00302404
-0.00231442
-0.00211163
-0.00200662
-0.00454619
-0.00561827
-0.0062937
-0.00644487
-0.0061374
-0.00551852
-0.00474366
-0.00394572
-0.00319726
-0.00262792
-0.00248098
-0.00267175
0.000138904
0.000229739
5.37063e-05
-8.18704e-05
-0.00023437
-0.000421039
-0.00064556
-0.000923893
-0.00128945
-0.0017839
-0.00244318
-0.00327349
0.000380087
0.000289242
8.20987e-05
-8.99657e-05
-0.000266628
-0.000471895
-0.000714488
-0.00101047
-0.00138601
-0.0018692
-0.00247743
-0.0032041
0.000418539
0.000278938
7.39166e-05
-0.000112648
-0.000303993
-0.000522401
-0.00077765
-0.00108433
-0.00146264
-0.00193113
-0.00249516
-0.0031412
0.000375528
0.000233647
4.4269e-05
-0.000144089
-0.000343503
-0.000570286
-0.00083378
-0.00114633
-0.00152304
-0.00197565
-0.00250178
-0.00308445
0.000310391
0.000179042
6.11044e-06
-0.000179098
-0.000382235
-0.000613875
-0.000882295
-0.0011974
-0.00157021
-0.00200752
-0.0025018
-0.00303473
0.000243452
0.000125626
-3.31898e-05
-0.000213725
-0.00041797
-0.000652095
-0.000923141
-0.00123869
-0.00160657
-0.00203003
-0.00249811
-0.00299227
0.000182847
7.77371e-05
-6.97672e-05
-0.0002454
-0.000449246
-0.000684335
-0.000956487
-0.00127129
-0.00163404
-0.00204552
-0.0024925
-0.00295674
0.000131591
3.71916e-05
-0.00010154
-0.000272611
-0.000475231
-0.000710331
-0.00098263
-0.00129612
-0.00165409
-0.00205567
-0.00248614
-0.00292772
9.05359e-05
4.66019e-06
-0.000127422
-0.000294524
-0.000495521
-0.00073005
-0.00100193
-0.00131395
-0.00166786
-0.00206168
-0.00247975
-0.00290476
5.96101e-05
-1.9794e-05
-0.000146875
-0.000310635
-0.000509848
-0.000743501
-0.00101469
-0.00132539
-0.00167614
-0.00206433
-0.00247374
-0.00288735
3.74099e-05
-3.67198e-05
-0.00015992
-0.000320743
-0.000518197
-0.000750814
-0.00102125
-0.00133095
-0.00167951
-0.00206413
-0.00246826
-0.00287492
2.01555e-05
-4.81232e-05
-0.000167968
-0.000326289
-0.000521741
-0.000753245
-0.00102286
-0.00133181
-0.00167938
-0.00206148
-0.00246297
-0.00286613
-0.00420662
-0.00505968
-0.00561945
-0.00578692
-0.00559111
-0.00513121
-0.00452617
-0.00388896
-0.00329663
-0.0028531
-0.00279693
-0.00299839
-0.00398662
-0.00469113
-0.00516881
-0.00534117
-0.00522053
-0.00487741
-0.00440219
-0.00388918
-0.00340527
-0.00304927
-0.00289472
-0.0029597
-0.00381446
-0.0044135
-0.00482969
-0.00500043
-0.00493333
-0.00467671
-0.00430114
-0.00388495
-0.00348616
-0.00319221
-0.00303749
-0.00306008
-0.00367635
-0.00419841
-0.00456845
-0.00473707
-0.00470867
-0.00451691
-0.0042182
-0.00387753
-0.00354576
-0.00329634
-0.00314832
-0.00312956
-0.00356529
-0.00403039
-0.00436619
-0.00453361
-0.00453251
-0.00438966
-0.00415031
-0.00386851
-0.00358919
-0.00337348
-0.00323554
-0.00319528
-0.00347652
-0.00389921
-0.00420957
-0.00437627
-0.00439472
-0.00428894
-0.00409529
-0.00385927
-0.00362081
-0.00343122
-0.00330337
-0.00325378
-0.00340618
-0.00379744
-0.00408876
-0.00425424
-0.00428784
-0.00421014
-0.00405146
-0.00385082
-0.00364393
-0.00347473
-0.00335606
-0.00330287
-0.00335137
-0.0037196
-0.00399682
-0.00416086
-0.00420635
-0.00414978
-0.00401753
-0.00384378
-0.00366095
-0.00350747
-0.00339656
-0.00334245
-0.00330985
-0.00366169
-0.00392881
-0.00409187
-0.00414618
-0.0041052
-0.0039924
-0.00383856
-0.0036735
-0.00353179
-0.00342699
-0.00337314
-0.00327984
-0.00362066
-0.00388104
-0.0040437
-0.00410427
-0.00407427
-0.00397521
-0.00383536
-0.00368275
-0.00354938
-0.00344893
-0.00339571
-0.00325975
-0.00359402
-0.00385091
-0.00401331
-0.004078
-0.00405518
-0.00396503
-0.00383423
-0.00368958
-0.00356147
-0.00346366
-0.00341122
-0.00324708
-0.00357791
-0.00383369
-0.0039973
-0.00406475
-0.00404605
-0.00396069
-0.00383459
-0.00369382
-0.00356863
-0.00347255
-0.00342218
9.53172e-05
0.000189509
1.62265e-05
-0.000116455
-0.00026688
-0.000452514
-0.000677046
-0.000956532
-0.00132441
-0.00182241
-0.00248641
-0.00332179
0.000339029
0.000250044
4.4894e-05
-0.00012491
-0.000300065
-0.000504592
-0.000747344
-0.00104448
-0.00142218
-0.00190849
-0.00252078
-0.0032518
0.000378962
0.000240475
3.6918e-05
-0.000147983
-0.000338187
-0.000556111
-0.000811647
-0.00111948
-0.00149982
-0.00197107
-0.00253862
-0.00318852
0.000336883
0.00019572
7.4128e-06
-0.000179738
-0.000378327
-0.000604826
-0.000868711
-0.00118241
-0.00156107
-0.00201616
-0.0025453
-0.00313149
0.000272364
0.000141495
-3.06553e-05
-0.00021499
-0.000417553
-0.000649082
-0.00091798
-0.00123423
-0.00160891
-0.00204847
-0.00254539
-0.00308155
0.000205838
8.83408e-05
-6.99062e-05
-0.000249814
-0.000453674
-0.000687829
-0.000959426
-0.00127612
-0.00164578
-0.0020713
-0.0025418
-0.00303892
0.000145512
4.06283e-05
-0.000106462
-0.000281653
-0.000485263
-0.000720488
-0.000993245
-0.00130919
-0.00167364
-0.00208703
-0.0025363
-0.00300327
9.44412e-05
1.98971e-07
-0.000138231
-0.000309001
-0.000511507
-0.000746814
-0.00101975
-0.00133437
-0.00169397
-0.00209737
-0.00253003
-0.00297416
5.35055e-05
-3.22589e-05
-0.000164119
-0.000331019
-0.00053199
-0.000766782
-0.00103933
-0.00135246
-0.00170793
-0.00210351
-0.00252372
-0.00295114
2.26511e-05
-5.6671e-05
-0.000183583
-0.000347204
-0.000546444
-0.000780406
-0.00105228
-0.00136408
-0.00171632
-0.00210621
-0.0025178
-0.00293374
4.82993e-07
-7.35791e-05
-0.000196641
-0.000357361
-0.000554871
-0.000787824
-0.00105896
-0.00136976
-0.00171976
-0.00210602
-0.00251236
-0.0029213
-1.67782e-05
-8.49874e-05
-0.000204702
-0.000362925
-0.000558454
-0.000790305
-0.00106064
-0.00137066
-0.00171965
-0.0021034
-0.00250709
-0.00291253
-0.00426008
-0.0051177
-0.0056806
-0.00584979
-0.00565395
-0.00519319
-0.00458663
-0.00394751
-0.00335319
-0.00290747
-0.00284186
-0.00304449
-0.00403874
-0.00474718
-0.00522759
-0.00540102
-0.00528136
-0.00493788
-0.00446152
-0.00394694
-0.00346124
-0.00310303
-0.00294425
-0.00300819
-0.00386563
-0.00446813
-0.00488676
-0.00505851
-0.00499259
-0.00473593
-0.00435955
-0.00394206
-0.0035417
-0.00324575
-0.00308813
-0.00310941
-0.00372682
-0.00425198
-0.00462431
-0.00479401
-0.00476678
-0.00457515
-0.00427587
-0.00393413
-0.00360099
-0.00334986
-0.00319983
-0.00317986
-0.00361523
-0.00408316
-0.00442122
-0.00459006
-0.00458983
-0.00444716
-0.00420739
-0.0039247
-0.0036442
-0.00342706
-0.00328761
-0.00324636
-0.00352608
-0.00395142
-0.00426399
-0.00443248
-0.00445146
-0.00434587
-0.0041519
-0.00391513
-0.00367566
-0.00348486
-0.00335584
-0.00330545
-0.00345546
-0.00384923
-0.00414271
-0.00430986
-0.00434408
-0.00426661
-0.0041077
-0.00390643
-0.00369868
-0.00352844
-0.00340881
-0.00335499
-0.00340042
-0.00377109
-0.00405039
-0.0042161
-0.00426219
-0.00420589
-0.00407347
-0.00389919
-0.00371561
-0.00356124
-0.00344953
-0.00339489
-0.00335873
-0.00371293
-0.00398208
-0.00414669
-0.0042017
-0.00416102
-0.00404812
-0.00389382
-0.0037281
-0.00358562
-0.00348012
-0.00342582
-0.00332861
-0.00367173
-0.0039341
-0.00409821
-0.00415955
-0.00412988
-0.00403075
-0.00389052
-0.00373731
-0.00360325
-0.00350218
-0.00344855
-0.00330843
-0.00364495
-0.00390385
-0.00406761
-0.00413312
-0.00411067
-0.00402047
-0.00388933
-0.00374411
-0.00361536
-0.00351698
-0.00346417
-0.00329572
-0.00362874
-0.00388626
-0.00405148
-0.00411978
-0.00410146
-0.00401607
-0.00388966
-0.00374834
-0.00362253
-0.00352591
-0.00347518
)
;

boundaryField
{
    rotor
    {
        type            zeroGradient;
    }
    stator
    {
        type            zeroGradient;
    }
    AMI1
    {
        type            cyclicAMI;
        value           nonuniform 0();
    }
    AMI2
    {
        type            cyclicAMI;
        value           nonuniform List<scalar> 
48
(
0.000349034
-0.000384406
5.34324e-06
-6.71746e-06
-0.000155729
-0.00031819
-0.000428609
-0.00047553
-0.000529019
-0.000748899
-0.00147242
-0.00298832
-0.00596517
-0.00899449
-0.0102422
-0.00985926
-0.00857291
-0.00694411
-0.00534343
-0.00389268
-0.00265834
-0.00182271
-0.00129338
-0.000462042
0.000271931
-0.000436503
-3.27195e-05
-3.60212e-05
-0.000180167
-0.000339658
-0.000448781
-0.000496498
-0.000553593
-0.000780696
-0.00151583
-0.00304543
-0.00603706
-0.00907649
-0.0103276
-0.00993776
-0.00864696
-0.00701325
-0.00540783
-0.00395355
-0.00271613
-0.0018772
-0.00134548
-0.00051397
)
;
    }
    front
    {
        type            empty;
    }
    back
    {
        type            empty;
    }
    procBoundary0to1
    {
        type            processor;
        value           nonuniform List<scalar> 8(-0.000690856 -0.00123002 -0.00190291 -0.00257193 -0.000137703 -0.000530511 -0.000741298 -0.000616449);
    }
}


// ************************************************************************* //
