/*--------------------------------*- C++ -*----------------------------------*\
| =========                 |                                                 |
| \\      /  F ield         | OpenFOAM: The Open Source CFD Toolbox           |
|  \\    /   O peration     | Version:  v1606+                                |
|   \\  /    A nd           | Web:      www.OpenFOAM.com                      |
|    \\/     M anipulation  |                                                 |
\*---------------------------------------------------------------------------*/
FoamFile
{
    version     2.0;
    format      ascii;
    class       volScalarField;
    location    "0.16";
    object      dgdt;
}
// * * * * * * * * * * * * * * * * * * * * * * * * * * * * * * * * * * * * * //

dimensions      [0 0 -1 0 0 0 0];

internalField   nonuniform List<scalar> 
6000
(
-19.3493
-19.32
-19.36
-19.3546
-19.3448
-19.335
-19.3382
-19.2287
-19.313
-19.2516
-19.2834
-19.2862
-19.272
-19.2744
-19.2467
-19.0755
-19.1241
-19.2833
-19.2755
-19.2861
-19.2804
-19.2845
-19.193
-19.3299
-19.3356
-19.3521
-19.3541
-19.3724
-19.337
-19.3519
-2.33646
-2.20779
-2.22134
-2.19146
-2.17633
-2.1644
-2.15602
-2.14304
-2.14166
-2.13212
-2.13574
-2.13661
-2.13422
-2.13435
-2.13313
-2.12743
-2.12837
-2.13619
-2.13559
-2.13727
-2.13505
-2.13701
-2.13583
-2.15234
-2.1636
-2.17486
-2.19088
-2.22316
-2.2139
-2.33588
-0.0870591
-0.101947
-0.133765
-0.143787
-0.149504
-0.153815
-0.156771
-0.15696
-0.159587
-0.160377
-0.161695
-0.162277
-0.162581
-0.162949
-0.163001
-0.162629
-0.162428
-0.162574
-0.161924
-0.161452
-0.160415
-0.158916
-0.155899
-0.155608
-0.152624
-0.14876
-0.142628
-0.132798
-0.101709
-0.0886612
-0.0197132
-0.0199155
-0.0222188
-0.0235742
-0.0250301
-0.0264352
-0.0280156
-0.0294628
-0.0315884
-0.0336094
-0.0347709
-0.0359914
-0.0367983
-0.0373389
-0.0378562
-0.0373955
-0.0370844
-0.0365869
-0.0357663
-0.0345905
-0.0331653
-0.0310528
-0.0289487
-0.0274785
-0.0259283
-0.024462
-0.0230744
-0.0217492
-0.0194846
-0.0193087
-0.0105802
-0.0108047
-0.0109072
-0.0110724
-0.0112552
-0.0114206
-0.0117322
-0.0121562
-0.0129102
-0.0142865
-0.0152635
-0.0160932
-0.016708
-0.0171269
-0.0173247
-0.0173321
-0.0170807
-0.0165931
-0.0158795
-0.015009
-0.0140051
-0.0127004
-0.0118613
-0.0114329
-0.0111029
-0.0109388
-0.0107461
-0.0105686
-0.0104364
-0.0102667
-0.00947684
-0.00926179
-0.00918521
-0.00917514
-0.00905531
-0.00880514
-0.00863982
-0.00831246
-0.00887284
-0.00952796
-0.00992835
-0.0102916
-0.0105253
-0.0106216
-0.0107055
-0.0107043
-0.0105712
-0.0103752
-0.0101721
-0.0097888
-0.00936198
-0.00869364
-0.00810816
-0.00840876
-0.00853861
-0.00879454
-0.00890084
-0.00889163
-0.00893395
-0.00913503
-0.00937016
-0.00926592
-0.00920167
-0.0091582
-0.00896997
-0.00865217
-0.00817159
-0.00668206
-0.00848469
-0.00910668
-0.00927588
-0.00938381
-0.00944383
-0.00950423
-0.00952709
-0.00944461
-0.00941418
-0.00941922
-0.00929528
-0.00915014
-0.00895499
-0.00827193
-0.00649342
-0.00795703
-0.00842283
-0.00872983
-0.0089074
-0.00893681
-0.00897664
-0.00907666
-0.00950626
-0.0095356
-0.00969649
-0.00970908
-0.00951817
-0.00928569
-0.00911037
-0.00931723
-0.00937169
-0.0093681
-0.00933871
-0.00940301
-0.00945011
-0.00935069
-0.00938324
-0.00939524
-0.00935182
-0.00940247
-0.0093132
-0.00921215
-0.00923423
-0.00921521
-0.00915351
-0.00891376
-0.00909476
-0.00928827
-0.00947135
-0.00944848
-0.00928276
-0.009162
-0.00975574
-0.0101306
-0.0105343
-0.0106297
-0.0105565
-0.0105088
-0.0108216
-0.0121869
-0.0103516
-0.0096992
-0.00939626
-0.00926633
-0.00926998
-0.00901862
-0.00914404
-0.00918955
-0.00903503
-0.0092533
-0.00921055
-0.00929527
-0.00957196
-0.0102002
-0.0120203
-0.0106228
-0.0102935
-0.0103129
-0.0103742
-0.0102733
-0.0098727
-0.00943315
-0.0101769
-0.0109456
-0.0114
-0.0115789
-0.0116668
-0.0117306
-0.0118147
-0.011842
-0.0109052
-0.0102118
-0.00970144
-0.00939385
-0.00927887
-0.00916223
-0.00916234
-0.00914988
-0.0091316
-0.00921889
-0.00931697
-0.00959595
-0.0100853
-0.0107531
-0.011667
-0.0116072
-0.011498
-0.0114023
-0.0112939
-0.0111065
-0.0106559
-0.00987454
-0.010672
-0.0117831
-0.0121558
-0.0124091
-0.0126807
-0.0128588
-0.0128465
-0.0125559
-0.0118139
-0.0110714
-0.0104177
-0.00996827
-0.00967241
-0.00961336
-0.00939967
-0.00939376
-0.00958222
-0.00961917
-0.00988997
-0.010315
-0.0109422
-0.0116548
-0.0123658
-0.01262
-0.0125996
-0.0123855
-0.0120895
-0.0118295
-0.0114623
-0.0103792
-0.0118219
-0.0126761
-0.0128898
-0.0131563
-0.013618
-0.0139808
-0.0140572
-0.0137399
-0.0130627
-0.0122898
-0.0115727
-0.0109856
-0.0105211
-0.0102548
-0.0100571
-0.010046
-0.0102219
-0.0104655
-0.010906
-0.0114656
-0.0121501
-0.012885
-0.0135216
-0.0137988
-0.0136868
-0.0132917
-0.0128095
-0.0125464
-0.0123517
-0.011517
-0.0147034
-0.0142117
-0.0139986
-0.0140207
-0.014545
-0.0150855
-0.015385
-0.0152526
-0.0147091
-0.0139671
-0.0132128
-0.0125499
-0.0120251
-0.0116936
-0.0114758
-0.011464
-0.011658
-0.0119634
-0.0124587
-0.0130864
-0.0137992
-0.0144957
-0.0149965
-0.0150934
-0.0147647
-0.0141993
-0.0136652
-0.0136609
-0.0138999
-0.0143962
-0.0192643
-0.0165312
-0.0155906
-0.0150831
-0.015452
-0.0161064
-0.0167233
-0.0170392
-0.0169156
-0.0164486
-0.015824
-0.0151821
-0.0146244
-0.0142177
-0.0139705
-0.0139549
-0.0141703
-0.0145422
-0.0150612
-0.01566
-0.0162425
-0.0166697
-0.0167643
-0.0164265
-0.0157885
-0.015116
-0.0147425
-0.0152723
-0.0162382
-0.0189551
-0.024342
-0.0187395
-0.0172487
-0.0163478
-0.0166081
-0.017501
-0.0185934
-0.0195885
-0.0202469
-0.0204742
-0.0203016
-0.0198778
-0.0194002
-0.0190064
-0.0187635
-0.0187427
-0.0189438
-0.0192934
-0.0197237
-0.0201031
-0.0202431
-0.0199948
-0.0193254
-0.0183199
-0.0172145
-0.0163086
-0.0160392
-0.0169534
-0.0184734
-0.0240668
-0.0283295
-0.0200731
-0.0187229
-0.0180742
-0.0186182
-0.0200152
-0.0216984
-0.0232506
-0.0244628
-0.0252812
-0.0257537
-0.0259934
-0.0260898
-0.0260868
-0.0260358
-0.0260124
-0.0260194
-0.0259822
-0.0258482
-0.0255729
-0.0250717
-0.024234
-0.0230119
-0.0214568
-0.0197627
-0.0183693
-0.0178115
-0.0184553
-0.0198268
-0.0280914
-0.029522
-0.0208432
-0.0201957
-0.0205497
-0.0218369
-0.0238225
-0.0257612
-0.0272585
-0.0284241
-0.0293567
-0.0302094
-0.0309558
-0.0315459
-0.0319298
-0.0320976
-0.0320796
-0.031878
-0.0314628
-0.0308418
-0.030061
-0.0291673
-0.028193
-0.0270132
-0.0255249
-0.0235702
-0.0216439
-0.020342
-0.0199681
-0.0205993
-0.0292508
-0.0280703
-0.0212179
-0.0217614
-0.023336
-0.0253509
-0.0273085
-0.0290267
-0.0295605
-0.0300304
-0.0307133
-0.0315995
-0.0326237
-0.0335761
-0.0342785
-0.034637
-0.0346284
-0.0342543
-0.033536
-0.0325611
-0.0314975
-0.030543
-0.0298019
-0.0292787
-0.0287698
-0.0272709
-0.0252019
-0.0231809
-0.0215842
-0.0209955
-0.0277613
-0.0258302
-0.0213329
-0.0229043
-0.0253957
-0.028025
-0.03017
-0.0308437
-0.0301133
-0.0298546
-0.0302551
-0.0311395
-0.0322752
-0.0333563
-0.034172
-0.0346049
-0.0346087
-0.0341826
-0.0333695
-0.0322783
-0.0311074
-0.0301476
-0.0296658
-0.0298097
-0.0304959
-0.0300042
-0.0279152
-0.0253063
-0.0227887
-0.0211754
-0.0255559
-0.0233383
-0.0210859
-0.0232141
-0.0262809
-0.0290253
-0.0307145
-0.0299195
-0.0287019
-0.0282648
-0.0290196
-0.0303564
-0.0318219
-0.0330936
-0.0340078
-0.0344866
-0.0345006
-0.0340472
-0.033157
-0.0319007
-0.03043
-0.0290447
-0.0281897
-0.0284591
-0.0296556
-0.0305539
-0.0290553
-0.0262557
-0.0231516
-0.0210009
-0.0231465
-0.0201023
-0.0199837
-0.0225544
-0.0254581
-0.0270007
-0.0271934
-0.0263256
-0.0253973
-0.0260977
-0.0279127
-0.0299513
-0.0317655
-0.0331751
-0.0341325
-0.0346232
-0.0346417
-0.0341885
-0.0332704
-0.0319015
-0.0301238
-0.0280964
-0.0262305
-0.0254378
-0.0263362
-0.0279631
-0.0271635
-0.0254322
-0.0225622
-0.0199465
-0.0199807
-0.0162754
-0.0179578
-0.0207404
-0.0226365
-0.0228146
-0.0235197
-0.0223357
-0.022484
-0.0249343
-0.027764
-0.0301865
-0.0320825
-0.0334693
-0.0343718
-0.0348254
-0.0348437
-0.0344295
-0.0335702
-0.0322343
-0.0303979
-0.0280408
-0.025259
-0.02276
-0.0224045
-0.0236675
-0.0234922
-0.0230245
-0.020799
-0.0179492
-0.0161863
-0.0121998
-0.0148844
-0.0173602
-0.0192067
-0.0216431
-0.0203416
-0.019664
-0.0219903
-0.0254359
-0.0284281
-0.0307141
-0.032423
-0.0336688
-0.0344672
-0.0348649
-0.0348823
-0.0345203
-0.03376
-0.0325585
-0.0309044
-0.0286896
-0.025777
-0.0223294
-0.0197223
-0.0201724
-0.0215639
-0.0193145
-0.0174047
-0.0148641
-0.0120937
-0.00802715
-0.0111765
-0.014187
-0.0176479
-0.0182796
-0.0179986
-0.0196761
-0.023277
-0.0266027
-0.0291979
-0.0311517
-0.0325866
-0.0335733
-0.0342043
-0.0345092
-0.0345245
-0.0342516
-0.0336531
-0.0327
-0.0313053
-0.0294021
-0.0268688
-0.0235934
-0.0198898
-0.0178629
-0.0179752
-0.0174225
-0.0142512
-0.0111499
-0.00793827
-0.00457576
-0.00869625
-0.0132407
-0.0152063
-0.0155148
-0.0178722
-0.0215258
-0.0249559
-0.027698
-0.0298444
-0.031438
-0.0325259
-0.0331592
-0.0334718
-0.0335956
-0.0336073
-0.0335095
-0.0332245
-0.0326207
-0.0315602
-0.0299908
-0.0278763
-0.0251755
-0.0217723
-0.0180249
-0.0154502
-0.0150154
-0.0133611
-0.00881588
-0.00454209
-0.00331525
-0.00835605
-0.0118774
-0.0126717
-0.0154252
-0.019856
-0.0235504
-0.0264202
-0.0287363
-0.0305054
-0.0316411
-0.032161
-0.0322317
-0.0321059
-0.0320182
-0.0320262
-0.0321294
-0.0322767
-0.0322324
-0.0317347
-0.030611
-0.0288548
-0.0265542
-0.0237225
-0.0201002
-0.0156716
-0.0126236
-0.0118453
-0.00843864
-0.00334327
-0.00353031
-0.00758771
-0.0098976
-0.0129421
-0.0178115
-0.0220715
-0.0252254
-0.0278259
-0.029888
-0.0312447
-0.031741
-0.0314855
-0.0309935
-0.0306485
-0.0304539
-0.0304608
-0.0306619
-0.0310151
-0.0315236
-0.0318044
-0.0313187
-0.0299695
-0.0279117
-0.0253329
-0.0222326
-0.0180975
-0.0131143
-0.00992925
-0.00754715
-0.00415528
-0.00654446
-0.00727983
-0.0107379
-0.0158298
-0.0203879
-0.023805
-0.026823
-0.0293334
-0.0311936
-0.0320888
-0.0317813
-0.0308187
-0.0301219
-0.0297551
-0.0295669
-0.0295612
-0.0297499
-0.0301166
-0.0308116
-0.0317989
-0.03211
-0.0312415
-0.0293882
-0.0268824
-0.0239462
-0.0205358
-0.0160568
-0.0109488
-0.00739458
-0.00665551
-0.00921351
-0.00968053
-0.0141989
-0.0187479
-0.0222371
-0.025451
-0.028413
-0.030866
-0.032385
-0.0327834
-0.0315751
-0.030434
-0.0297196
-0.0292901
-0.0291486
-0.0291366
-0.0292553
-0.0296716
-0.0303803
-0.0315367
-0.0327237
-0.032382
-0.0308864
-0.0284311
-0.0254729
-0.0222725
-0.0188382
-0.0144124
-0.00984893
-0.00859022
-0.013604
-0.0139745
-0.0174604
-0.0205095
-0.0236044
-0.0267565
-0.029662
-0.0316228
-0.0322611
-0.0320654
-0.0304065
-0.029512
-0.0286768
-0.0282544
-0.0281928
-0.0281736
-0.0281945
-0.0285906
-0.0294372
-0.0303399
-0.0320385
-0.0321851
-0.0315956
-0.0296634
-0.0267518
-0.0235845
-0.0205131
-0.0175317
-0.0141422
-0.0139186
-0.0186174
-0.0174313
-0.018966
-0.0213403
-0.0243347
-0.0272821
-0.0292656
-0.0297368
-0.0295569
-0.0288104
-0.0282531
-0.0268836
-0.0264017
-0.0263729
-0.0264884
-0.0264697
-0.0263133
-0.0263017
-0.0267525
-0.0280937
-0.0288911
-0.0292814
-0.0296163
-0.0292062
-0.0272471
-0.0242935
-0.0213017
-0.0189273
-0.0174859
-0.0187872
-0.0187399
-0.017746
-0.0188339
-0.0212585
-0.0239577
-0.0256468
-0.0252808
-0.0248116
-0.0251428
-0.0255768
-0.0243659
-0.0235289
-0.0237263
-0.0242345
-0.0245779
-0.0245709
-0.0242083
-0.0236672
-0.0233997
-0.0242717
-0.0248789
-0.0255586
-0.0246803
-0.0250389
-0.0254649
-0.0238346
-0.0211603
-0.0186899
-0.0175888
-0.0185467
-0.0151793
-0.0157309
-0.0173627
-0.0197767
-0.021275
-0.0209152
-0.0205967
-0.0213117
-0.0216637
-0.0213155
-0.0202926
-0.020681
-0.0216541
-0.0225283
-0.0230002
-0.0230093
-0.022553
-0.0216819
-0.0206763
-0.0201515
-0.0212821
-0.0217032
-0.0211074
-0.0203102
-0.0205829
-0.0209812
-0.0195425
-0.0170916
-0.0153884
-0.0147606
-0.0111809
-0.0128525
-0.0147369
-0.0163159
-0.0165746
-0.0165876
-0.0186181
-0.0197888
-0.0196541
-0.0180737
-0.018143
-0.0193346
-0.0206047
-0.0215077
-0.0219636
-0.0219833
-0.0215652
-0.0206902
-0.0194108
-0.0180829
-0.0178726
-0.0191385
-0.019529
-0.0184531
-0.016339
-0.0162253
-0.0159162
-0.0143232
-0.0123628
-0.0106404
-0.00763442
-0.00961155
-0.0108341
-0.0122178
-0.0132222
-0.0162584
-0.0178444
-0.0179076
-0.0170969
-0.0166488
-0.0177974
-0.0192402
-0.0203331
-0.0210489
-0.0214117
-0.021436
-0.0211192
-0.0204362
-0.0193521
-0.017862
-0.0165445
-0.0166828
-0.0175063
-0.0175566
-0.0161069
-0.0128712
-0.011672
-0.0102032
-0.00892667
-0.00691061
-0.00403711
-0.0062785
-0.00758259
-0.00997575
-0.0136513
-0.0157915
-0.0161883
-0.0154867
-0.0160981
-0.0171582
-0.0186509
-0.0197266
-0.0204395
-0.0208982
-0.0211448
-0.0211736
-0.020976
-0.0205453
-0.0198375
-0.0187436
-0.0171847
-0.0159399
-0.0150928
-0.0156809
-0.0154356
-0.0132053
-0.00932998
-0.0066564
-0.00531333
-0.00309362
-0.000658502
-0.00416159
-0.00682845
-0.0108778
-0.0132533
-0.0140389
-0.0138137
-0.0151886
-0.0173293
-0.0189273
-0.0197741
-0.020339
-0.0206553
-0.0208182
-0.0208868
-0.0209194
-0.0209087
-0.0207804
-0.0204648
-0.0198717
-0.0188688
-0.0173023
-0.0150387
-0.0132757
-0.0133899
-0.0126525
-0.0101114
-0.00582341
-0.00322384
0.000425175
0.00146797
-0.00282468
-0.00728361
-0.0105623
-0.0115145
-0.0117607
-0.0140703
-0.0173025
-0.0196946
-0.019703
-0.020872
-0.0208259
-0.020641
-0.0203887
-0.0202231
-0.0202634
-0.0205163
-0.0208133
-0.0210028
-0.0209045
-0.020518
-0.0195894
-0.017205
-0.0137572
-0.0110839
-0.0106098
-0.00965957
-0.00788234
-0.00176546
0.0026895
0.00094412
-0.00444977
-0.00781018
-0.0088839
-0.00967239
-0.012928
-0.0170626
-0.0203312
-0.0216717
-0.0225274
-0.0217215
-0.0209168
-0.0199018
-0.0189643
-0.0184986
-0.0185094
-0.0191485
-0.0201302
-0.0211828
-0.021887
-0.0220363
-0.0214906
-0.0200437
-0.0167007
-0.0123618
-0.00872367
-0.00800179
-0.00511333
-0.00352933
0.00207393
-0.000826294
-0.0052783
-0.0070664
-0.00787208
-0.0118142
-0.0167706
-0.0206609
-0.0226289
-0.0235108
-0.023391
-0.0221186
-0.0202277
-0.0183797
-0.0170965
-0.0166108
-0.0165601
-0.0171403
-0.0186691
-0.0205887
-0.0224154
-0.0234096
-0.0233436
-0.0222607
-0.0200751
-0.0160141
-0.0108974
-0.0064575
-0.00554307
-0.00448733
-0.00014232
-0.00429063
-0.00512653
-0.00680991
-0.0109578
-0.0162872
-0.0205194
-0.0231101
-0.0247168
-0.025104
-0.0241666
-0.0218547
-0.0192488
-0.0176594
-0.0172842
-0.0170014
-0.0170461
-0.0170852
-0.0178034
-0.0195214
-0.0221501
-0.0242468
-0.0249114
-0.024354
-0.022547
-0.01965
-0.0151783
-0.00962809
-0.00494081
-0.00332056
-0.00182507
-0.00630035
-0.00657
-0.0106957
-0.015798
-0.019919
-0.022809
-0.0252539
-0.0264437
-0.0260235
-0.0241809
-0.0213863
-0.0195212
-0.0193746
-0.0195821
-0.0197112
-0.019486
-0.0191334
-0.0187854
-0.0192765
-0.0211578
-0.0238523
-0.0254297
-0.0258724
-0.0246678
-0.022292
-0.0188917
-0.0144435
-0.00847921
-0.0038942
-0.00356563
-0.0108245
-0.011804
-0.0157001
-0.0191694
-0.021979
-0.0249035
-0.0267902
-0.0269088
-0.0253745
-0.0231561
-0.0215534
-0.0212467
-0.0218246
-0.022312
-0.022556
-0.0222495
-0.0214338
-0.0205306
-0.019899
-0.0206216
-0.0218732
-0.0240071
-0.0257036
-0.025627
-0.024139
-0.0212099
-0.0176708
-0.0132074
-0.00820941
-0.00722039
-0.0174314
-0.0169392
-0.018747
-0.0208097
-0.0234978
-0.0259018
-0.0263219
-0.0247665
-0.0234655
-0.022203
-0.0215728
-0.0224524
-0.0233876
-0.0240836
-0.0243752
-0.0240681
-0.023177
-0.0218869
-0.0205435
-0.0199111
-0.0208101
-0.0224461
-0.0227164
-0.0240577
-0.0242087
-0.0228169
-0.0191493
-0.0157813
-0.0126763
-0.0123378
-0.019882
-0.0188693
-0.0195783
-0.0216833
-0.0239177
-0.0239539
-0.0226925
-0.0221993
-0.0213691
-0.0211621
-0.0214185
-0.0228107
-0.0241524
-0.0250265
-0.0253555
-0.0250956
-0.0242517
-0.0228459
-0.0210402
-0.0193823
-0.0194877
-0.018946
-0.0196369
-0.0205365
-0.0214859
-0.0218246
-0.0198442
-0.0163494
-0.014372
-0.0141143
-0.0176
-0.0178155
-0.0191526
-0.0208784
-0.0209916
-0.0207256
-0.0197413
-0.0199792
-0.0200149
-0.0196611
-0.0214946
-0.0233116
-0.0247666
-0.025642
-0.0259673
-0.0257669
-0.0250425
-0.0237726
-0.0219566
-0.0198092
-0.0179207
-0.0181037
-0.0188859
-0.0202058
-0.0187993
-0.0186393
-0.0184867
-0.0149684
-0.0135202
-0.0122913
-0.0141049
-0.015728
-0.0170525
-0.0174679
-0.0169148
-0.0176366
-0.0192662
-0.018509
-0.0180097
-0.0198494
-0.0222586
-0.0241132
-0.0254155
-0.0261852
-0.0264963
-0.0263687
-0.0257939
-0.0247552
-0.0232053
-0.0210936
-0.0185444
-0.0169764
-0.0180656
-0.0159823
-0.0168606
-0.0145663
-0.01532
-0.0139872
-0.0110451
-0.00938497
-0.0105314
-0.0125422
-0.013207
-0.0139123
-0.0157876
-0.0169311
-0.0169419
-0.0168171
-0.018622
-0.0212645
-0.023533
-0.0251275
-0.0261824
-0.0268537
-0.0271579
-0.0270981
-0.0266624
-0.0258377
-0.0246163
-0.0228992
-0.0205646
-0.0179182
-0.0160471
-0.0163794
-0.0158115
-0.0152379
-0.0116623
-0.0120641
-0.00975722
-0.00699218
-0.00615117
-0.0086472
-0.0102248
-0.0130525
-0.0148662
-0.0150033
-0.0151001
-0.0177475
-0.0207161
-0.0233702
-0.0253854
-0.0262454
-0.0270164
-0.0275778
-0.0278869
-0.0278995
-0.0275857
-0.0269637
-0.0260588
-0.0248177
-0.0229889
-0.0204111
-0.0170833
-0.0145557
-0.0144746
-0.0141857
-0.0134901
-0.00850785
-0.0078148
-0.00422538
-0.00229757
-0.00568568
-0.00964264
-0.012188
-0.0127101
-0.0131853
-0.0164618
-0.0202417
-0.0236092
-0.0255462
-0.0263564
-0.0272447
-0.0278487
-0.0283676
-0.0286963
-0.028768
-0.0285628
-0.0280713
-0.0273718
-0.0265179
-0.0253159
-0.0234245
-0.0199689
-0.0157335
-0.0123386
-0.0128012
-0.0107462
-0.00936266
-0.00458015
-0.00155304
-0.000669071
-0.00650346
-0.0086742
-0.0101866
-0.0109584
-0.0147745
-0.0194229
-0.0229142
-0.0254808
-0.0273304
-0.02756
-0.0279459
-0.0285496
-0.0291005
-0.0294682
-0.0296003
-0.0294694
-0.0290806
-0.0285197
-0.027929
-0.027261
-0.025547
-0.0229138
-0.0189312
-0.0139358
-0.00996538
-0.00892658
-0.0077988
-0.00559736
0.000216886
-0.00418317
-0.00538019
-0.00732138
-0.00862215
-0.0126463
-0.0182603
-0.0222629
-0.0253612
-0.0274728
-0.0276586
-0.0278264
-0.028234
-0.028845
-0.029395
-0.0298003
-0.029993
-0.0299563
-0.0297036
-0.0292884
-0.0288499
-0.0285058
-0.027675
-0.0252465
-0.0219294
-0.0175595
-0.0119571
-0.00753251
-0.00627693
-0.0044066
-0.00082907
-0.00400013
-0.00473433
-0.00648727
-0.0100199
-0.0158018
-0.0205721
-0.0246216
-0.0273936
-0.0286016
-0.027608
-0.0273655
-0.0278299
-0.0284503
-0.0290976
-0.0295607
-0.0297797
-0.0297594
-0.0295666
-0.0292961
-0.0290622
-0.0290655
-0.0291148
-0.027667
-0.0245349
-0.0204811
-0.0158297
-0.00978643
-0.00555555
-0.00328644
-0.00280615
-0.00106201
-0.00518333
-0.00743494
-0.012088
-0.0174992
-0.0221747
-0.0257926
-0.0274259
-0.0270092
-0.0261817
-0.0259539
-0.0265731
-0.0275259
-0.0283531
-0.0288779
-0.0290717
-0.0289408
-0.0285908
-0.0282742
-0.0281978
-0.0279623
-0.0292062
-0.0290589
-0.026833
-0.0230041
-0.0183251
-0.0134851
-0.00763484
-0.00388952
-0.00344173
-0.00712251
-0.00634676
-0.00932104
-0.0139709
-0.0181778
-0.0227099
-0.0242781
-0.0251093
-0.0243473
-0.0235165
-0.0239146
-0.0251562
-0.0265145
-0.0275023
-0.028048
-0.0281699
-0.0278903
-0.0272766
-0.0264743
-0.0258508
-0.0261149
-0.0272203
-0.027346
-0.0271716
-0.0246065
-0.0203932
-0.0155851
-0.0112223
-0.00684658
-0.00588721
-0.00798372
-0.00824622
-0.0108428
-0.015435
-0.0188508
-0.0209422
-0.0213366
-0.0217535
-0.0217503
-0.0210108
-0.0223903
-0.0242994
-0.0258673
-0.0268641
-0.0273511
-0.0273836
-0.0269852
-0.0261546
-0.0249403
-0.0237503
-0.0237957
-0.0239034
-0.024342
-0.0239089
-0.0233993
-0.0211206
-0.0171222
-0.0130638
-0.0103692
-0.0100646
-0.0070078
-0.00802744
-0.0119416
-0.0150142
-0.0173366
-0.0170823
-0.0190932
-0.0193734
-0.0187239
-0.0199372
-0.0221706
-0.0242545
-0.0256877
-0.0265514
-0.0269459
-0.0269105
-0.0264648
-0.0256081
-0.0243246
-0.0227231
-0.0213865
-0.0209972
-0.0214642
-0.0211674
-0.0200071
-0.0193129
-0.0171974
-0.013954
-0.0115149
-0.0111952
-0.00520081
-0.00645967
-0.010211
-0.0129229
-0.0140935
-0.0166786
-0.0170501
-0.0167426
-0.0182637
-0.0205928
-0.0229388
-0.0246792
-0.0258529
-0.0265597
-0.0268647
-0.0267929
-0.0263593
-0.0255891
-0.0244707
-0.0229447
-0.0209579
-0.0193151
-0.0187859
-0.0186654
-0.0177822
-0.0155584
-0.0154972
-0.0133239
-0.0112152
-0.00966542
-0.00295814
-0.00699934
-0.00833359
-0.0114177
-0.0145428
-0.0148937
-0.0149718
-0.0171351
-0.0196579
-0.0221178
-0.0238085
-0.0252372
-0.0262205
-0.0268268
-0.0270717
-0.026987
-0.0266023
-0.0259402
-0.0250227
-0.0238066
-0.0221201
-0.0199961
-0.0179073
-0.0167815
-0.0167046
-0.015423
-0.0123107
-0.0116872
-0.00961175
-0.00746441
-0.000917641
-0.00535566
-0.00826098
-0.0116801
-0.0128096
-0.013072
-0.0158719
-0.0191309
-0.0216912
-0.023034
-0.0247575
-0.0258808
-0.0267121
-0.0272296
-0.0274406
-0.027361
-0.0270262
-0.0264703
-0.0257392
-0.0248376
-0.0238047
-0.0221811
-0.0194492
-0.0165183
-0.0148747
-0.0146545
-0.0131002
-0.00917421
-0.00765494
-0.00448215
-7.03408e-05
-0.0053965
-0.00934796
-0.0104738
-0.0111271
-0.0146074
-0.0184782
-0.0215
-0.0228493
-0.024553
-0.025713
-0.026626
-0.0273144
-0.0278048
-0.02806
-0.0279922
-0.027626
-0.0270818
-0.0265037
-0.0259122
-0.0252552
-0.0242867
-0.0223808
-0.0187354
-0.0149433
-0.0127544
-0.0120582
-0.00966312
-0.00543236
-0.00183903
-0.00155907
-0.00616077
-0.00858373
-0.00930805
-0.0131591
-0.0178104
-0.0212119
-0.0228995
-0.0246065
-0.0258822
-0.0267591
-0.0274245
-0.0280571
-0.028568
-0.0288333
-0.0287552
-0.0283589
-0.0277515
-0.0271762
-0.0268053
-0.0265364
-0.0260156
-0.0245868
-0.0223314
-0.0177836
-0.0132868
-0.0102731
-0.00911185
-0.00691612
-0.00138883
-0.00301952
-0.00615514
-0.0078888
-0.0116764
-0.0168545
-0.0207401
-0.0218671
-0.0250077
-0.0264393
-0.0273606
-0.0277093
-0.0281255
-0.0286391
-0.0290207
-0.0291701
-0.0290536
-0.0287023
-0.0281889
-0.0276378
-0.0273841
-0.0275656
-0.0275259
-0.0264982
-0.0245206
-0.0217752
-0.0166169
-0.0116944
-0.00844822
-0.006471
-0.00237258
-0.00598714
-0.00672196
-0.0104133
-0.0156932
-0.0198874
-0.0224902
-0.025815
-0.0268173
-0.0281825
-0.0283033
-0.0281009
-0.0282063
-0.0283771
-0.0285258
-0.0285475
-0.0284038
-0.0281071
-0.0277582
-0.0274323
-0.0273786
-0.0279045
-0.028767
-0.0283882
-0.0265833
-0.0238483
-0.020496
-0.0153504
-0.0103408
-0.00669795
-0.00549046
-0.00980952
-0.0104617
-0.0146544
-0.0186325
-0.0214234
-0.0241908
-0.0265309
-0.027989
-0.0285995
-0.0275522
-0.0271656
-0.0269026
-0.0268284
-0.0269152
-0.0269357
-0.026795
-0.0264864
-0.0261286
-0.0259607
-0.0261911
-0.0267684
-0.0285911
-0.0291065
-0.0279353
-0.0256042
-0.0222447
-0.0188637
-0.0142534
-0.0101701
-0.00907522
-0.0151745
-0.0150476
-0.017489
-0.0198573
-0.0227031
-0.0253973
-0.0268112
-0.0271164
-0.0263142
-0.0257147
-0.0247471
-0.0241637
-0.0242672
-0.024564
-0.0247085
-0.0246074
-0.0242327
-0.0236946
-0.023221
-0.0233124
-0.0245776
-0.0257199
-0.0266161
-0.027133
-0.0261033
-0.0233525
-0.0201058
-0.0175286
-0.014921
-0.0150313
-0.017557
-0.0167607
-0.0178512
-0.0202566
-0.0229904
-0.0244862
-0.0242818
-0.0240842
-0.023759
-0.0228206
-0.0215016
-0.0211858
-0.0216008
-0.0221167
-0.0223887
-0.022314
-0.0218916
-0.0211367
-0.020227
-0.019776
-0.0206607
-0.0212672
-0.0204112
-0.0222202
-0.0231149
-0.0226073
-0.0201405
-0.0177376
-0.016923
-0.0182319
-0.0147725
-0.0150748
-0.0166307
-0.0191361
-0.0205017
-0.0202188
-0.0203642
-0.0210762
-0.0207446
-0.019165
-0.018235
-0.0186506
-0.0194058
-0.0200416
-0.0203658
-0.0203293
-0.0198991
-0.0190575
-0.0178609
-0.016633
-0.0161129
-0.0171218
-0.0176133
-0.016991
-0.0171111
-0.0176926
-0.017878
-0.0159304
-0.014604
-0.0148608
-0.0103457
-0.0119817
-0.0138821
-0.0155323
-0.015626
-0.0154835
-0.0177944
-0.0184332
-0.0169205
-0.0160313
-0.0162302
-0.0170841
-0.0179457
-0.0185583
-0.0188654
-0.0188431
-0.0184626
-0.0176816
-0.0164683
-0.0148933
-0.0135082
-0.0134815
-0.0149278
-0.0147152
-0.0131858
-0.0126034
-0.0121961
-0.0119995
-0.0104508
-0.00902139
-0.00640378
-0.00842478
-0.00977309
-0.0111607
-0.0116454
-0.0148255
-0.0159776
-0.0147699
-0.0138994
-0.0144746
-0.015533
-0.0164954
-0.0172229
-0.0176994
-0.0179289
-0.0179066
-0.0176101
-0.0169875
-0.0159808
-0.0145482
-0.0127916
-0.0114347
-0.0115911
-0.0128716
-0.0121782
-0.00952219
-0.00756315
-0.00631321
-0.00535591
-0.00334757
-0.00274423
-0.00510263
-0.00660909
-0.00876225
-0.0124984
-0.013976
-0.0135384
-0.0124865
-0.013307
-0.0147887
-0.0158876
-0.0166057
-0.0170816
-0.0173684
-0.0174953
-0.0174706
-0.0172736
-0.0168561
-0.0161522
-0.0150936
-0.0136166
-0.0116552
-0.0101567
-0.00987159
-0.0101108
-0.00890833
-0.0055054
-0.00192955
7.84756e-05
0.00220353
8.78415e-05
-0.00313304
-0.00586327
-0.0104335
-0.0124218
-0.0123613
-0.012124
-0.0133989
-0.0151373
-0.0162846
-0.0168947
-0.0172099
-0.0173699
-0.0174364
-0.0174471
-0.0174167
-0.0173294
-0.0171383
-0.0167728
-0.0161558
-0.0152066
-0.0137745
-0.0115092
-0.00904396
-0.00736144
-0.00648145
-0.00433058
0.00015179
0.00282869
0.00651231
0.00138539
-0.00277243
-0.00718479
-0.0105697
-0.0110038
-0.0117938
-0.0143391
-0.0168204
-0.0179608
-0.0182651
-0.0182662
-0.0181205
-0.0179206
-0.0177442
-0.0176331
-0.0176004
-0.0176345
-0.0176964
-0.0177164
-0.0175875
-0.0170543
-0.0172552
-0.0150197
-0.0117652
-0.00758975
-0.0041875
-0.00340952
-0.00154746
0.00284022
0.00812401
-0.000348387
-0.00560867
-0.00848912
-0.00952168
-0.0113209
-0.0152552
-0.0193441
-0.0207744
-0.0208347
-0.0204298
-0.0197708
-0.0190841
-0.0185009
-0.0180882
-0.0178671
-0.017835
-0.0179839
-0.0182983
-0.018734
-0.0191911
-0.0194987
-0.0183786
-0.0183147
-0.0165015
-0.0121308
-0.00659637
-0.00180401
-0.000675966
0.00189037
0.00680136
-0.00343005
-0.00762422
-0.00901482
-0.0111396
-0.0159077
-0.0213857
-0.0237856
-0.0242426
-0.0236548
-0.0224725
-0.0210446
-0.0198071
-0.018897
-0.0183129
-0.0180271
-0.0179986
-0.0182225
-0.0187255
-0.0195268
-0.02061
-0.0217801
-0.0225935
-0.0221911
-0.0207265
-0.0179599
-0.0128091
-0.00615173
-0.000575676
0.00196187
0.00467199
-0.00659896
-0.00841484
-0.011308
-0.0165539
-0.0225568
-0.02577
-0.027517
-0.0274934
-0.0261021
-0.0238403
-0.0216518
-0.0200171
-0.0189726
-0.0183775
-0.0181035
-0.0180809
-0.018305
-0.0188359
-0.0198047
-0.0213502
-0.023411
-0.0253069
-0.0261945
-0.025177
-0.0226734
-0.0189782
-0.0133891
-0.00633388
0.000381129
0.00162747
-0.010308
-0.0122895
-0.017286
-0.0230408
-0.0265733
-0.0294762
-0.0307882
-0.0297485
-0.0270703
-0.0237157
-0.0211616
-0.0195922
-0.018727
-0.0183278
-0.0181619
-0.0181435
-0.0182699
-0.0186213
-0.0194314
-0.0209456
-0.0234371
-0.0265689
-0.0290988
-0.0291554
-0.0271898
-0.0234649
-0.0196883
-0.0136742
-0.00712259
-0.00313881
-0.0180554
-0.0195396
-0.0233797
-0.0263265
-0.0296391
-0.0320705
-0.0313671
-0.028576
-0.0249134
-0.0217746
-0.019522
-0.0186516
-0.0183856
-0.018339
-0.0183435
-0.0183271
-0.0182893
-0.0182979
-0.0185212
-0.0193555
-0.0215349
-0.0245083
-0.0280712
-0.030332
-0.030136
-0.0277183
-0.0232238
-0.0194181
-0.0157029
-0.0131482
-0.0248919
-0.0243436
-0.0253796
-0.0279377
-0.0300892
-0.029337
-0.026657
-0.0238668
-0.0203425
-0.0184833
-0.0177311
-0.0179166
-0.0183642
-0.0187024
-0.0188626
-0.0188439
-0.0186493
-0.0182861
-0.0178286
-0.0176291
-0.018362
-0.0202032
-0.0236199
-0.0262195
-0.0282894
-0.0279211
-0.02542
-0.0214771
-0.0197645
-0.0199673
-0.0237342
-0.0234135
-0.0246998
-0.0261605
-0.024613
-0.0214702
-0.0198168
-0.0186155
-0.0164378
-0.015854
-0.016889
-0.0181256
-0.0190279
-0.0195777
-0.0198253
-0.0198018
-0.0195132
-0.0189442
-0.0180626
-0.0168992
-0.0159662
-0.0165373
-0.019035
-0.020138
-0.021206
-0.0234117
-0.0236666
-0.0211764
-0.0189904
-0.018288
-0.0185502
-0.0199437
-0.0208722
-0.0198358
-0.0159864
-0.0151806
-0.0154952
-0.0143135
-0.0140571
-0.0157398
-0.0177963
-0.0193218
-0.0203069
-0.0209127
-0.0211953
-0.0211686
-0.0208389
-0.0202083
-0.0192412
-0.0178058
-0.0159342
-0.0144635
-0.0147701
-0.0159215
-0.0155984
-0.0160847
-0.0181212
-0.0183963
-0.016469
-0.0146836
-0.0131314
-0.0146942
-0.0147025
-0.0125387
-0.0132448
-0.0136858
-0.0130173
-0.0125613
-0.0147643
-0.017707
-0.0197378
-0.0210721
-0.0219978
-0.0226134
-0.0229201
-0.0228948
-0.0225427
-0.021899
-0.0209776
-0.0197007
-0.0178116
-0.0151074
-0.0130555
-0.0134778
-0.0141224
-0.0137192
-0.0129066
-0.0131909
-0.0133332
-0.0115483
-0.00740228
-0.0095499
-0.00922713
-0.0118043
-0.0125768
-0.0121791
-0.0127771
-0.0148516
-0.01831
-0.0205951
-0.0220068
-0.0230779
-0.0239125
-0.024513
-0.0248328
-0.0248145
-0.0244607
-0.0238372
-0.0229987
-0.0219482
-0.0206388
-0.0184871
-0.0153191
-0.0134406
-0.0126678
-0.01319
-0.0127724
-0.0104037
-0.00988532
-0.0082678
-0.0033825
-0.00623145
-0.00904887
-0.0110325
-0.0110554
-0.012635
-0.0159447
-0.0199359
-0.022028
-0.0233269
-0.0242476
-0.0250638
-0.0257327
-0.0262417
-0.0265381
-0.0265329
-0.0262233
-0.0257047
-0.0250397
-0.0242383
-0.0233143
-0.0221391
-0.0202541
-0.0166715
-0.0135674
-0.0118611
-0.0121855
-0.0110212
-0.00790452
-0.00452607
-0.00333841
-0.00786828
-0.00938576
-0.00989853
-0.012392
-0.0164212
-0.0214243
-0.0235612
-0.0247761
-0.0253993
-0.0259177
-0.0263072
-0.0265865
-0.0267804
-0.0269274
-0.0269394
-0.026804
-0.0266231
-0.0263732
-0.0260119
-0.0255104
-0.0248956
-0.0236268
-0.0219271
-0.0174698
-0.0136376
-0.0111428
-0.0108222
-0.00942755
-0.00521647
-0.00537733
-0.00847136
-0.00961052
-0.012337
-0.016311
-0.0212966
-0.0235964
-0.0253366
-0.0260131
-0.0262247
-0.0260515
-0.0255826
-0.0250835
-0.0245431
-0.0241953
-0.0242667
-0.0245971
-0.025178
-0.0257499
-0.0262773
-0.0264945
-0.0263128
-0.0257919
-0.0238393
-0.0220472
-0.0176739
-0.013815
-0.0109088
-0.00986127
-0.00696712
-0.00838483
-0.00941128
-0.0124277
-0.015737
-0.019704
-0.0222753
-0.0239234
-0.0254377
-0.0256303
-0.0248887
-0.0234648
-0.0218759
-0.0205225
-0.0194119
-0.0187215
-0.0189274
-0.0195294
-0.0206832
-0.0221364
-0.0238087
-0.0252941
-0.0260854
-0.0260938
-0.0248672
-0.0229676
-0.0206392
-0.0171265
-0.0139226
-0.0107166
-0.00978751
-0.0118022
-0.0129333
-0.0148603
-0.0176462
-0.0198186
-0.0216317
-0.0235978
-0.0240618
-0.0228871
-0.0206236
-0.0182054
-0.0163175
-0.0148253
-0.0143972
-0.0144484
-0.0141558
-0.0145701
-0.0151851
-0.0166581
-0.0186028
-0.021102
-0.0234181
-0.0245773
-0.0247027
-0.0227132
-0.0217016
-0.0185373
-0.0161268
-0.0144296
-0.0131645
-0.0161047
-0.0148547
-0.0157331
-0.0172295
-0.019145
-0.0215037
-0.0218018
-0.0200498
-0.017313
-0.0147488
-0.0132919
-0.0124322
-0.0118022
-0.011778
-0.0115211
-0.0117312
-0.0119444