/*--------------------------------*- C++ -*----------------------------------*\
| =========                 |                                                 |
| \\      /  F ield         | OpenFOAM: The Open Source CFD Toolbox           |
|  \\    /   O peration     | Version:  v1606+                                |
|   \\  /    A nd           | Web:      www.OpenFOAM.com                      |
|    \\/     M anipulation  |                                                 |
\*---------------------------------------------------------------------------*/
FoamFile
{
    version     2.0;
    format      ascii;
    class       volScalarField;
    location    "0.16";
    object      nut.air;
}
// * * * * * * * * * * * * * * * * * * * * * * * * * * * * * * * * * * * * * //

dimensions      [0 2 -1 0 0 0 0];

internalField   nonuniform List<scalar> 
6000
(
0.00052808
0.00489275
0.00780943
0.008468
0.00866037
0.00873656
0.00876971
0.00878522
0.00879359
0.00879749
0.00879889
0.00879909
0.00879889
0.00879852
0.00879841
0.00879824
0.0087984
0.00879886
0.00879916
0.00879891
0.0087975
0.00879345
0.00878529
0.00876985
0.00873684
0.00866057
0.00846803
0.00780962
0.00489332
0.000528037
0.000444325
0.00321011
0.00610819
0.00773817
0.00848484
0.00882911
0.00899827
0.0090854
0.00913358
0.0091596
0.00917213
0.00917812
0.00918084
0.00918168
0.0091816
0.00918152
0.00918149
0.00918073
0.00917836
0.00917274
0.00916067
0.00913522
0.00908697
0.00899934
0.00883052
0.00848548
0.00773973
0.00611009
0.00321211
0.000444292
0.000394415
0.0027468
0.00540336
0.00716125
0.00816167
0.00869173
0.00897523
0.00912514
0.00920364
0.00924271
0.00926004
0.00926625
0.00926707
0.00926603
0.00926504
0.00926507
0.00926616
0.00926759
0.00926738
0.00926187
0.0092452
0.00920672
0.00912882
0.00897859
0.00869527
0.00816496
0.00716388
0.00540677
0.00275037
0.000394601
0.000367954
0.00253698
0.0049333
0.00669216
0.00784191
0.00855611
0.00898795
0.009242
0.00938864
0.00947176
0.00951608
0.00953824
0.00954809
0.00955169
0.00955274
0.00955276
0.00955186
0.00954874
0.00953955
0.00951815
0.00947448
0.00939222
0.00924585
0.00899113
0.00855946
0.00784521
0.00669668
0.00494085
0.00254933
0.000368368
0.000336332
0.0023749
0.00453139
0.00620338
0.00741193
0.00823887
0.00878532
0.00914372
0.00937565
0.00952057
0.00961305
0.00967147
0.00970674
0.00972617
0.00973475
0.00973469
0.00972614
0.00970687
0.00967196
0.00961398
0.00952215
0.0093777
0.00914604
0.00878762
0.00824147
0.00741564
0.00620961
0.00454223
0.00239233
0.000336728
0.000310982
0.00228036
0.00424793
0.00579362
0.00696664
0.00782277
0.00842427
0.00884516
0.00914009
0.0093423
0.00947764
0.00956957
0.00962949
0.00966533
0.00968201
0.00968198
0.00966524
0.00962939
0.00956953
0.00947777
0.0093428
0.0091408
0.00884643
0.00842602
0.00782455
0.00696891
0.0057971
0.0042538
0.00228833
0.000311644
0.000295463
0.00221184
0.0040415
0.00547009
0.00657047
0.00740325
0.0080298
0.00849316
0.0088313
0.00907482
0.00924399
0.00936146
0.0094403
0.0094887
0.00951156
0.0095115
0.0094886
0.00944016
0.00936134
0.00924396
0.00907486
0.00883126
0.00849362
0.00803103
0.00740472
0.00657152
0.00547088
0.00404323
0.00221515
0.000296214
0.000287554
0.00216616
0.00389059
0.0052102
0.00623182
0.00702953
0.00765983
0.00814594
0.00851605
0.00879108
0.00898804
0.00912951
0.00922554
0.00928452
0.00931243
0.00931234
0.00928446
0.00922549
0.00912938
0.00898802
0.00879115
0.00851599
0.00814617
0.00766072
0.00703104
0.00623236
0.00520937
0.00389026
0.00216688
0.00028818
0.000282969
0.00208684
0.00370215
0.00492938
0.005911
0.00669762
0.0073257
0.00781842
0.00820298
0.00849888
0.00872136
0.00888521
0.00899771
0.0090657
0.00909837
0.00909839
0.00906573
0.0089977
0.00888504
0.00872119
0.00849873
0.0082028
0.00781847
0.0073261
0.00669818
0.00591033
0.00492717
0.00370061
0.00208672
0.000283444
0.000277622
0.00193838
0.00343412
0.00462159
0.00559971
0.00638922
0.00701904
0.00751645
0.00790746
0.00821277
0.00844714
0.00862316
0.00874755
0.00882596
0.0088637
0.00886374
0.00882596
0.00874749
0.00862301
0.00844687
0.00821245
0.00790711
0.00751618
0.00701874
0.00638848
0.00559741
0.00461704
0.00342924
0.0019359
0.000277939
0.000268115
0.00173981
0.00311146
0.00429929
0.00529838
0.00610246
0.0067382
0.0072378
0.00763017
0.007937
0.00817315
0.00835088
0.00847848
0.00856211
0.00860344
0.00860345
0.00856209
0.00847839
0.00835071
0.0081729
0.00793667
0.00762975
0.00723721
0.00673711
0.00610021
0.00529379
0.00429147
0.00310276
0.00173558
0.000268207
0.000250693
0.00145023
0.00273854
0.00396549
0.00500284
0.00582985
0.00647532
0.00697653
0.00736623
0.00766885
0.00790116
0.00807563
0.00820091
0.00828226
0.00832232
0.00832234
0.00828231
0.00820095
0.00807564
0.00790112
0.00766873
0.00736595
0.00697576
0.0064735
0.00582608
0.00499576
0.00395421
0.00272617
0.00144415
0.00025089
0.000229128
0.0010754
0.00237062
0.00364561
0.00471797
0.00556587
0.00622137
0.00672408
0.0071094
0.00740465
0.00762919
0.00779659
0.00791619
0.0079937
0.00803188
0.00803195
0.00799391
0.00791653
0.007797
0.00762961
0.00740496
0.00710933
0.00672315
0.00621888
0.0055608
0.00470893
0.00363172
0.00235508
0.00106749
0.000229201
0.000207551
0.000848988
0.00210692
0.00337954
0.00445712
0.00531203
0.00597222
0.00647504
0.00685523
0.00714148
0.00735561
0.00751314
0.00762468
0.0076966
0.00773195
0.0077321
0.00769703
0.00762532
0.00751388
0.00735624
0.00714176
0.00685484
0.00647352
0.0059689
0.00530597
0.00444714
0.00336488
0.00209034
0.000839361
0.000207411
0.000189489
0.000757389
0.00196265
0.0031829
0.00423164
0.00507551
0.00573287
0.00623486
0.00661157
0.00689074
0.00709543
0.00724276
0.00734477
0.00740931
0.00744067
0.0074408
0.00740966
0.00734522
0.00724312
0.00709548
0.0068902
0.00661021
0.00623239
0.00572878
0.00506895
0.00422186
0.00316913
0.00194713
0.000747209
0.000189162
0.000177261
0.0007547
0.0019036
0.00304843
0.00405495
0.00488002
0.00553471
0.00603845
0.00641617
0.00669325
0.00689222
0.00703163
0.00712566
0.00718382
0.00721164
0.00721169
0.00718391
0.00712559
0.00703114
0.00689104
0.00669127
0.00641339
0.00603489
0.00553015
0.00487386
0.00404641
0.00303678
0.00189043
0.000745005
0.000176779
0.000170816
0.000784585
0.00188501
0.00296767
0.00394106
0.00475087
0.00540043
0.00590169
0.00627918
0.00655833
0.00676009
0.00690168
0.0069964
0.00705412
0.00708126
0.00708117
0.00705374
0.00699556
0.00690011
0.00675759
0.00655483
0.00627485
0.00589679
0.00539533
0.0047454
0.00393456
0.00295916
0.00187518
0.000776644
0.000170266
0.000166881
0.000798399
0.00187864
0.00293616
0.00388928
0.00468567
0.00532179
0.00580933
0.00617728
0.00645354
0.00665765
0.00680427
0.00690438
0.00696621
0.00699543
0.00699517
0.00696534
0.00690275
0.00680166
0.00665382
0.00644836
0.00617087
0.00580235
0.00531534
0.00468048
0.00388451
0.00293144
0.00187258
0.000792923
0.000166353
0.000161297
0.00078292
0.00188369
0.00295168
0.0038975
0.00468266
0.00529595
0.00575441
0.00610185
0.00636724
0.00656801
0.00671587
0.00681916
0.00688415
0.0069152
0.00691479
0.00688284
0.00681679
0.00671216
0.00656265
0.00635997
0.00609271
0.00574412
0.00528656
0.0046764
0.003894
0.00295009
0.00188166
0.000780226
0.000160791
0.000154586
0.000784931
0.00192926
0.00303325
0.00398188
0.00473762
0.00530523
0.0057201
0.00604086
0.00629124
0.00648635
0.00663415
0.0067398
0.00680743
0.00684011
0.0068396
0.00680582
0.00673688
0.00662959
0.00647968
0.006282
0.00602898
0.00570609
0.00529109
0.00472851
0.00397844
0.003034
0.00193169
0.000787135
0.000154226
0.000150416
0.000853384
0.00204663
0.0031639
0.00408891
0.0047967
0.00530381
0.00568152
0.00597659
0.00621733
0.00641146
0.00656167
0.00667066
0.00674123
0.0067756
0.00677504
0.00673947
0.0066675
0.00655675
0.00640426
0.00620722
0.00596299
0.00566482
0.00528721
0.00478675
0.00408452
0.0031642
0.00205003
0.000856865
0.000150346
0.000150372
0.000949939
0.00220327
0.00334185
0.00419286
0.00482735
0.00527166
0.00561425
0.00590299
0.00614786
0.00634745
0.00650269
0.00661592
0.00668958
0.00672562
0.00672505
0.00668781
0.00661275
0.00649784
0.00634047
0.00613819
0.00588987
0.00559688
0.00525171
0.00480911
0.00418083
0.00334041
0.00220744
0.000954914
0.000150403
0.000152367
0.0011238
0.00247242
0.00351192
0.00425645
0.00479868
0.00519361
0.00553271
0.00583551
0.00609112
0.0062983
0.00645933
0.00657698
0.00665364
0.00669122
0.00669067
0.00665195
0.00657399
0.00645481
0.00629188
0.00608251
0.00582404
0.00551744
0.00517248
0.0047765
0.004243
0.00350225
0.00247535
0.00113122
0.000152533
0.000158886
0.0013692
0.00266713
0.00357782
0.00424004
0.00471272
0.00509925
0.00546367
0.00578292
0.00604957
0.00626447
0.00643141
0.00655365
0.00663359
0.00667284
0.00667237
0.00663212
0.00655105
0.00642745
0.0062589
0.00604214
0.00577349
0.00545129
0.00508209
0.00468957
0.00422063
0.00356712
0.00266481
0.00137217
0.000159151
0.000171312
0.00149349
0.00270466
0.00356417
0.00415648
0.00459925
0.00502378
0.0054119
0.00574654
0.00602383
0.00624776
0.00642149
0.00654806
0.00663033
0.00667059
0.00667023
0.00662921
0.00654606
0.00641839
0.00624336
0.00601793
0.00573904
0.00540231
0.00501088
0.00458039
0.00413412
0.0035466
0.00269571
0.0014924
0.000171506
0.000180688
0.00153159
0.00267453
0.00346576
0.00400518
0.00450457
0.00496776
0.00537897
0.00572959
0.00602021
0.00625368
0.00643231
0.00655979
0.00664077
0.00667993
0.0066797
0.00664006
0.00655853
0.00643033
0.00625075
0.00601608
0.00572406
0.00537205
0.00495838
0.00449142
0.00398665
0.00344599
0.00266233
0.0015271
0.000180623
0.000182512
0.00148358
0.00255888
0.00327084
0.00387684
0.00443328
0.00493303
0.00537078
0.00574197
0.00604794
0.00628795
0.00646401
0.00658403
0.00665705
0.00669207
0.00669197
0.00665667
0.00658344
0.0064632
0.00628672
0.00604588
0.00573881
0.0053663
0.00492716
0.00442443
0.00386424
0.00325202
0.00254198
0.00147702
0.000182435
0.000181311
0.00135856
0.00233079
0.00309742
0.00377851
0.00438703
0.00492964
0.00539922
0.00579805
0.00611705
0.00635339
0.00651128
0.00661388
0.00667534
0.00670472
0.00670464
0.00667516
0.00661367
0.00651127
0.00635379
0.00611713
0.00579772
0.00539836
0.00492712
0.00438291
0.00377046
0.00308432
0.00231237
0.00134693
0.000181101
0.000176243
0.00116398
0.00212581
0.00296787
0.00371483
0.00438202
0.00496955
0.00546674
0.00587376
0.00619576
0.00641949
0.00656445
0.00664852
0.00669954
0.00672293
0.00672281
0.00669931
0.00664828
0.00656449
0.00642004
0.00619742
0.00587596
0.00546696
0.00497026
0.00438138
0.00371112
0.00296025
0.00211434
0.00115346
0.00017576
0.000165044
0.000928123
0.00195885
0.0028818
0.00370051
0.00443057
0.00504704
0.00558469
0.00602261
0.00633622
0.00651847
0.00662214
0.00669087
0.00673061
0.00674836
0.00674809
0.00672992
0.00668998
0.00662173
0.00651943
0.00633944
0.00602923
0.00559155
0.00505222
0.00443345
0.00370171
0.00287846
0.00195112
0.000916638
0.000164206
0.000154592
0.000792286
0.00186451
0.00286384
0.00375499
0.00452977
0.00521638
0.00579242
0.00620943
0.00646335
0.00660009
0.00668443
0.006731
0.00676178
0.00677561
0.0067751
0.00676038
0.00672907
0.00668314
0.00659966
0.00646561
0.00621627
0.00580428
0.00522887
0.00453823
0.00375857
0.00286547
0.00186168
0.000787352
0.000154014
0.000148329
0.00078558
0.00188441
0.00292771
0.0038846
0.00474154
0.00546129
0.00599063
0.00633807
0.00654284
0.0066585
0.00672334
0.0067615
0.00678656
0.00679886
0.00679813
0.00678451
0.00675869
0.00671928
0.00665588
0.00654343
0.00634294
0.00600246
0.00547749
0.00475925
0.00389714
0.00293261
0.00188839
0.000787794
0.000148122
0.000145717
0.000848425
0.00197649
0.00309692
0.00414445
0.00500786
0.00565412
0.006102
0.00639605
0.00656522
0.00666669
0.0067255
0.0067736
0.00680235
0.00681653
0.00681566
0.00679982
0.00676947
0.00672067
0.00666172
0.00656129
0.00639599
0.006109
0.0056689
0.00502708
0.0041653
0.00311177
0.00198323
0.000851817
0.000145723
0.000145908
0.000938773
0.00217658
0.00340876
0.00443092
0.00520325
0.00575053
0.00613772
0.00639802
0.00654377
0.00663843
0.00671507
0.00677428
0.0068123
0.00683039
0.00682953
0.0068098
0.00677031
0.00670984
0.00663201
0.00653986
0.00639435
0.00614107
0.00575928
0.00522057
0.00445295
0.00343272
0.00219332
0.000944696
0.000145994
0.000148038
0.00110361
0.00251004
0.0037236
0.00464191
0.00529765
0.0057828
0.00614259
0.00634417
0.00648087
0.00659782
0.00669835
0.00677256
0.00681985
0.00684237
0.00684164
0.00681775
0.00676929
0.00669411
0.00659234
0.00647161
0.00633664
0.00614045
0.00578737
0.0053078
0.00466099
0.00374745
0.00253272
0.00111517
0.000148272
0.000154527
0.00135363
0.00282183
0.00394476
0.00474201
0.00533858
0.00579221
0.00606646
0.0062493
0.00641013
0.00656155
0.00668272
0.00677056
0.00682679
0.00685394
0.00685347
0.00682544
0.00676842
0.00667985
0.00655777
0.00640423
0.00623898
0.0060578
0.00579254
0.0053441
0.00475332
0.00396487
0.00284545
0.00136908
0.00015503
0.000167112
0.00157653
0.00303183
0.00404688
0.00478141
0.00534597
0.00569461
0.00593805
0.00614989
0.00635579
0.00653253
0.00667085
0.00677085
0.00683543
0.00686715
0.00686716
0.00683538
0.00677053
0.00667005
0.00653089
0.00635257
0.00614322
0.00592524
0.00568452
0.00534482
0.00478855
0.00406065
0.00304916
0.00159209
0.000167955
0.000180914
0.00167093
0.00307686
0.00405792
0.00475933
0.00521505
0.00553281
0.00580829
0.00607621
0.00631467
0.00651387
0.00666827
0.00677956
0.0068514
0.00688688
0.00688763
0.00685347
0.00678243
0.00667117
0.00651587
0.00631521
0.00607293
0.00580082
0.00551914
0.00520568
0.00475604
0.00406384
0.00308401
0.00168111
0.000181875
0.000189841
0.00168142
0.00302596
0.00396508
0.00459929
0.00501414
0.00537154
0.00571365
0.00602489
0.00629526
0.00651505
0.00668267
0.0068004
0.00687418
0.00691015
0.00691184
0.00687901
0.00680808
0.00669151
0.0065226
0.00630029
0.00602601
0.00570953
0.00536191
0.004996
0.00458949
0.00395811
0.0030261
0.00168499
0.00019048
0.000191604
0.00164224
0.00290524
0.00378003
0.00433054
0.00481177
0.00525202
0.00565182
0.00600685
0.00630749
0.00654387
0.00671418
0.00682455
0.0068889
0.00691995
0.00692231
0.00689568
0.00683537
0.00672608
0.00655855
0.00632112
0.00601519
0.0056536
0.00524575
0.0047979
0.00430405
0.00375822
0.00289489
0.00164092
0.000191971
0.000190381
0.00152511
0.00267486
0.003439
0.00409064
0.00466517
0.00517947
0.00563757
0.00603383
0.00634904
0.00658312
0.00674044
0.0068313
0.00688307
0.00690878
0.00691291
0.00689539
0.0068507
0.00676466
0.00660754
0.00636935
0.00605253
0.00565008
0.00518125
0.00465657
0.00407337
0.00340985
0.00264483
0.00151138
0.000190483
0.000184873
0.00129122
0.0023106
0.00317542
0.0039228
0.00458362
0.00517302
0.00568362
0.00609907
0.00642633
0.00663904
0.00675482
0.00682233
0.00686221
0.00688316
0.00688857
0.0068784
0.0068472
0.00678737
0.00667638
0.00646437
0.00612941
0.00570279
0.00518582
0.00458517
0.00391362
0.00315859
0.0022854
0.00126866
0.00018429
0.000171644
0.00100925
0.00205727
0.00300198
0.0038384
0.00458629
0.00523069
0.00577924
0.00621853
0.00650627
0.00666428
0.00674938
0.00680548
0.00684155
0.0068609
0.00686624
0.00685758
0.00683307
0.00678678
0.00670569
0.00654925
0.00626213
0.00581885
0.00525754
0.00460291
0.00384238
0.00299562
0.00204261
0.000986115
0.000170011
0.000156812
0.000810746
0.00190449
0.00293187
0.00386157
0.00467171
0.00537748
0.00594194
0.00631861
0.00653902
0.00666153
0.00673714
0.00678919
0.00682564
0.00684608
0.00685088
0.00683959
0.00681259
0.00676939
0.006704
0.00658263
0.00635914
0.0059882
0.00542411
0.0047041
0.00388416
0.00294517
0.00190539
0.000804404
0.000155331
0.000147812
0.000780133
0.00190393
0.00299534
0.00398462
0.00486589
0.00556837
0.00605248
0.00635022
0.00652977
0.0066371
0.00671155
0.00676935
0.00681075
0.00683354
0.00683791
0.0068233
0.00678921
0.00674031
0.00666949
0.00656547
0.00638213
0.00607679
0.00559778
0.00490886
0.00402284
0.00301954
0.00192807
0.000794665
0.00014713
0.000145002
0.000852271
0.0020094
0.00316537
0.00423189
0.00507192
0.00567264
0.00607098
0.00632737
0.00648636
0.00659032
0.00667723
0.00674755
0.00679501
0.00682006
0.00682376
0.00680569
0.00676432
0.00669864
0.00661591
0.00651473
0.00635064
0.00608397
0.00568596
0.00510151
0.0042806
0.00321564
0.00204244
0.000871591
0.000145055
0.000145432
0.000955684
0.00223507
0.00348475
0.00446695
0.00518448
0.00568088
0.00603148
0.00626061
0.00640642
0.00653499
0.00664421
0.00672464
0.00677701
0.00680373
0.00680652
0.00678515
0.00673747
0.00666044
0.00655354
0.00642238
0.00627657
0.00604971
0.0056907
0.0051975
0.00450105
0.0035386
0.00229562
0.00098441
0.000145816
0.000148542
0.00115867
0.0025948
0.00374526
0.00459355
0.00520151
0.00565917
0.0059504
0.00614404
0.00632879
0.00648848
0.00661192
0.00669977
0.00675558
0.00678341
0.0067854
0.00676139
0.00670895
0.00662349
0.00650072
0.00633955
0.00615406
0.0059601
0.00566819
0.00520927
0.00460488
0.00377895
0.00263895
0.00120672
0.000149706
0.000157843
0.00142702
0.00285564
0.00388123
0.00461974
0.00518971
0.00555675
0.00581029
0.00605198
0.00627212
0.00644927
0.00658255
0.0066748
0.00673241
0.00676067
0.00676204
0.00673639
0.00668103
0.00659042
0.00645777
0.00627949
0.00605844
0.00581651
0.00556245
0.00519169
0.00462432
0.00389195
0.0028824
0.00145586
0.000160171
0.000173919
0.00158107
0.00295166
0.00390183
0.00459463
0.00507229
0.00539892
0.00570886
0.00599341
0.00623515
0.00642484
0.00656172
0.00665357
0.00671021
0.00673782
0.00673886
0.00671302
0.00665746
0.00656577
0.00642851
0.00623774
0.00599517
0.00570891
0.00539746
0.00507215
0.00459438
0.00390314
0.00295313
0.00159182
0.000175393
0.00018509
0.00162594
0.00290675
0.00381417
0.00444926
0.00487822
0.00528527
0.00565128
0.00597123
0.00622998
0.00642128
0.00655188
0.00663799
0.00669146
0.00671776
0.00671872
0.00669391
0.0066406
0.00655259
0.00641892
0.00622466
0.00596431
0.00564474
0.00527773
0.00487241
0.00444814
0.00381523
0.00290716
0.0016245
0.000185726
0.000187145
0.00156822
0.00277406
0.00361874
0.0042042
0.0047474
0.00522591
0.00564775
0.00599319
0.00625488
0.00643378
0.00655194
0.00663016
0.00667984
0.00670475
0.00670587
0.0066828
0.00663331
0.00655231
0.00642812
0.00624289
0.00597795
0.00563185
0.00521256
0.00473715
0.00420104
0.00362631
0.00277992
0.00157277
0.000187206
0.000185386
0.00143689
0.00252941
0.00334668
0.00406179
0.00468807
0.00524053
0.00570128
0.00606764
0.00631126
0.00646167
0.00656096
0.00663172
0.00667803
0.00670154
0.00670287
0.00668184
0.00663633
0.00656341
0.00645669
0.00629477
0.00603754
0.00567126
0.00521579
0.00466894
0.00405028
0.00334301
0.0025452
0.00144934
0.000185708
0.000178293
0.00120419
0.0022635
0.00319533
0.00400856
0.00472037
0.00532831
0.00583359
0.00617719
0.00637033
0.00649007
0.00657626
0.00663848
0.00668081
0.00670333
0.00670546
0.00668713
0.00664732
0.00658478
0.00649463
0.0063643
0.00614788
0.00579029
0.00528802
0.00468718
0.00397946
0.00317898
0.00226409
0.0012246
0.000179627
0.00016275
0.000962868
0.00210955
0.00315324
0.00405731
0.00484495
0.00550651
0.00597415
0.00624923
0.00640353
0.00650504
0.00658302
0.00664458
0.00668787
0.00671115
0.00671383
0.00669632
0.00665876
0.00660209
0.00652442
0.00641229
0.00625028
0.00594798
0.00545931
0.00479144
0.00401395
0.00311315
0.00209329
0.000975012
0.000165064
0.000151889
0.000895194
0.00211791
0.00323009
0.00423512
0.00506655
0.00566621
0.00604272
0.0062603
0.00639184
0.00649293
0.0065806
0.00664935
0.00669649
0.00672146
0.00672444
0.00670575
0.00666526
0.00660404
0.00652456
0.00642476
0.00628541
0.00604927
0.00564412
0.00501008
0.00415661
0.00316934
0.00206467
0.000865391
0.000152272
0.000149768
0.000964991
0.00223688
0.00346942
0.00448974
0.00523233
0.00572503
0.00602894
0.00621706
0.00635645
0.0064766
0.00657675
0.00665343
0.00670469
0.00673157
0.0067348
0.00671448
0.00666968
0.00659981
0.00650687
0.0063925
0.00625609
0.00605699
0.00573651
0.00521734
0.00443013
0.00336492
0.00216325
0.000924581
0.000148629
0.000151006
0.00109433
0.00253142
0.00375996
0.00466931
0.0052773
0.00570414
0.00595835
0.00614123
0.00630473
0.00645328
0.0065706
0.00665459
0.00671001
0.00673879
0.00674221
0.00672027
0.00667159
0.00659434
0.00648501
0.00634848
0.00619856
0.00600935
0.00572941
0.00530473
0.00465562
0.0037027
0.00241338
0.00103208
0.000149376
0.000156424
0.00134904
0.00283932
0.00395594
0.00471396
0.00527514
0.00560758
0.00584509
0.00606285
0.0062674
0.00643464
0.00656179
0.00665261
0.00671106
0.00674122
0.00674453
0.00672114
0.00666936
0.00658509
0.0064646
0.00630557
0.00611135
0.00592018
0.00567084
0.00529999
0.00474922
0.00394197
0.00277685
0.00125893
0.000153364
0.0001695
0.00156482
0.00301934
0.00399948
0.00470466
0.00514772
0.00546086
0.00574165
0.00600973
0.00623896
0.00642037
0.00655499
0.00664935
0.00670937
0.00673922
0.00674207
0.00671798
0.00666423
0.00657629
0.00644811
0.00627318
0.00605099
0.00579535
0.00555553
0.0052338
0.00474256
0.00403868
0.00301207
0.0015173
0.000163951
0.000184548
0.00165941
0.00301059
0.00395406
0.00455879
0.00496788
0.00532743
0.005671
0.00597445
0.00622427
0.00641505
0.00655331
0.00664673
0.00670404
0.00673171
0.00673368
0.00671034
0.00665828
0.00657085
0.00643948
0.00625461
0.00601096
0.00571765
0.00539093
0.00508118
0.00465352
0.00401419
0.0030587
0.00164994
0.000180822
0.000190944
0.00165864
0.0029249
0.00378688
0.00432979
0.00479901
0.00523704
0.0056305
0.00596603
0.00623066
0.0064247
0.00655882
0.00664617
0.00669762
0.0067217
0.00672261
0.00670076
0.0066529
0.00657168
0.00644442
0.00625762
0.00599923
0.00567117
0.00529217
0.00487272
0.00445138
0.00387393
0.00298829
0.0016765
0.00019107
0.000190903
0.00157281
0.00273552
0.00348991
0.00411783
0.00468378
0.00519064
0.00563367
0.00599134
0.00626044
0.00645025
0.00657473
0.00665235
0.0066983
0.00671968
0.00671927
0.00669747
0.00665275
0.00657853
0.00646156
0.00628168
0.00602308
0.00567115
0.00523769
0.00474883
0.00420407
0.00360494
0.00281393
0.00161238
0.000192084
0.000186556
0.00135765
0.00239083
0.00323676
0.0039761
0.00463043
0.00520673
0.00568073
0.0060599
0.00633274
0.00650348
0.0066075
0.00667146
0.0067093
0.00672639
0.00672465
0.00670403
0.00666271
0.00659787
0.00649957
0.00634051
0.0060827
0.00571564
0.00524787
0.00468498
0.00405024
0.00333048
0.00249512
0.00143603
0.000189182
0.000174683
0.00108044
0.00212887
0.00307847
0.00391995
0.00466227
0.00528639
0.00580511
0.0061956
0.00643608
0.00656999
0.00665136
0.00670194
0.0067314
0.00674349
0.00673972
0.00672021
0.00668417
0.00662983
0.00654875
0.00642309
0.00620288
0.00583314
0.00532707
0.00470753
0.00397849
0.00315427
0.00221637
0.00116176
0.000179473
0.000159497
0.000847973
0.00197192
0.00303169
0.00396923
0.00477947
0.00547099
0.0060075
0.00634919
0.00652952
0.00663186
0.006694
0.00673324
0.00675656
0.00676522
0.00675974
0.00673992
0.0067063
0.00665904
0.00659407
0.00649402
0.00633322
0.00601847
0.00550791
0.00482231
0.0040193
0.00308615
0.00203361
0.000894392
0.000162437
0.000149426
0.000799826
0.00198398
0.00310657
0.00413657
0.0050324
0.00572911
0.00619474
0.00644978
0.00658888
0.0066718
0.00672132
0.00675653
0.00677826
0.0067856
0.00677874
0.00675746
0.00672229
0.00667469
0.00661646
0.00653749
0.00640458
0.00616249
0.00573552
0.00506667
0.00417546
0.0031518
0.00201916
0.000816277
0.000150754
0.000146379
0.000873096
0.0021033
0.00333923
0.00445918
0.00532903
0.00593748
0.00629279
0.00649428
0.00660791
0.00667791
0.00673024
0.00677002
0.00679403
0.00680144
0.00679343
0.00677016
0.00673121
0.00667665
0.00660915
0.00653178
0.00641647
0.00622109
0.00588306
0.00532516
0.00448592
0.00336904
0.00212988
0.000885658
0.000147443
0.00014733
0.000999907
0.00239661
0.00374214
0.00479444
0.00554801
0.00601887
0.0063164
0.0064846
0.0065854
0.00666298
0.00672795
0.00677415
0.00680034
0.00680824
0.00679955
0.00677447
0.00673198
0.0066706
0.00659035
0.00649484
0.00637654
0.00620299
0.00591292
0.00547505
0.00477309
0.00375938
0.00241163
0.00100393
0.000148344
0.000152217
0.00125288
0.00281408
0.00410571
0.00502069
0.00561515
0.00601901
0.00627392
0.00643375
0.00654197
0.00663979
0.00671776
0.00677141
0.006802
0.00681166
0.0068024
0.00677464
0.00672682
0.00665591
0.00655899
0.00643664
0.00630093
0.00613517
0.00590145
0.00550678
0.00494053
0.00406898
0.00282785
0.00125352
0.000153064
0.000163654
0.00154081
0.00316524
0.00433562
0.00509474
0.00561749
0.00596575
0.00618917
0.00633472
0.00648211
0.00660554
0.00669817
0.00675972
0.00679368
0.0068045
0.00679494
0.00676519
0.00671331
0.00663546
0.00652675
0.00638401
0.00620985
0.00602438
0.00580848
0.00550034
0.00497418
0.00424485
0.00312908
0.00153938
0.000165093
0.000180642
0.00176186
0.00336765
0.00440915
0.00509119
0.00555221
0.00585035
0.00603869
0.00624586
0.0064281
0.00657054
0.00667313
0.00674033
0.00677788
0.00679063
0.00678127
0.00675005
0.00669484
0.00661129
0.00649344
0.0063353
0.00613439
0.00589925
0.00566021
0.00537517
0.0049591
0.00426452
0.00326936
0.00173083
0.000182424
0.000197154
0.00184643
0.00337084
0.00436012
0.00499107
0.00539535
0.00564494
0.0059196
0.00617258
0.0063795
0.0065362
0.00664677
0.00671874
0.00675936
0.00677392
0.00676517
0.00673331
0.00667601
0.00658855
0.00646404
0.00629438
0.00607344
0.00580315
0.0054964
0.00517999
0.00479139
0.00420068
0.00323467
0.00179
0.00019647
0.000206047
0.00183946
0.00327956
0.00419915
0.00477193
0.00512752
0.00549533
0.00583179
0.00611823
0.00634391
0.00651003
0.00662521
0.00669977
0.00674218
0.00675806
0.00675022
0.0067188
0.00666136
0.00657285
0.00644535
0.00626857
0.00603318
0.00573338
0.00537563
0.00497197
0.00453892
0.00400637
0.00313145
0.00177352
0.000201586
0.000207145
0.00177315
0.00307923
0.00390317
0.00444044
0.00494196
0.00539108
0.00577975
0.00609344
0.00633079
0.00649912
0.00661348
0.0066871
0.00672931
0.00674575
0.00673901
0.00670917
0.00665397
0.00656835
0.00644406
0.00626702
0.0060227
0.0056995
0.00529619
0.00482
0.0042777
0.00366309
0.00290288
0.00167625
0.0002011
0.000204172
0.00158257
0.00270519
0.00352179
0.00421721
0.00481905
0.0053457
0.00578028
0.00611075
0.00634711
0.00650672
0.00661321
0.0066821
0.00672235
0.00673867
0.00673306
0.00670563
0.00665441
0.00657475
0.00645728
0.00628893
0.00604751
0.00571612
0.0052752
0.0047292
0.00409118
0.0033559
0.00249219
0.00143637
0.000196216
0.000192988
0.00127327
0.0023351
0.00326902
0.00407624
0.00478406
0.00537803
0.00583271
0.00616167
0.00637999
0.00652327
0.00661951
0.0066835
0.00672171
0.00673777
0.0067333
0.00670815
0.00666098
0.00658912
0.00648761
0.00634196
0.00612076
0.00578737
0.00532165
0.00472575
0.00399433
0.0031481
0.00218108
0.0011021
0.000182375
0.000171969
0.000938724
0.00207779
0.00312714
0.0040574
0.00484881
0.00548529
0.00595629
0.00625521
0.00643307
0.00655084
0.00663299
0.00668978
0.00672626
0.00674267
0.00673944
0.00671669
0.00667417
0.00661068
0.00652244
0.00639976
0.00622237
0.00593302
0.00546641
0.004819
0.00402219
0.00306749
0.00197802
0.000821504
0.000162467
0.000154937
0.00079305
0.00200414
0.00316109
0.00417692
0.00504185
0.00568132
0.0060785
0.00631306
0.00645883
0.00655948
0.00663912
0.00669887
0.00673755
0.00675579
0.00675378
0.00673128
0.00668749
0.0066225
0.0065371
0.00643125
0.00628409
0.00605563
0.00567269
0.00504175
0.00417491
0.00314307
0.00198936
0.000777111
0.000150113
0.000148525
0.00085964
0.00211484
0.00335077
0.00445282
0.00527124
0.0058
0.00611662
0.00630715
0.00643692
0.00654798
0.00664124
0.00671103
0.00675627
0.006778
0.00677698
0.00675297
0.00670484
0.00663138
0.00653341
0.00641721
0.00628514
0.00609508
0.00579119
0.00528413
0.00448415
0.00339163
0.00212703
0.000861433
0.000147381
0.000149116
0.000981757
0.00239232
0.00373537
0.00472195
0.0053817
0.00580221
0.00607285
0.0062424
0.00639377
0.00653432
0.00664754
0.00673033
0.00678383
0.00680997
0.00680981
0.00678317
0.00672861
0.00664395
0.00652789
0.00638392
0.00623061
0.0060618
0.00580296
0.00539437
0.00475987
0.0038037
0.00248506
0.0010325
0.000149466
0.000155684
0.00127224
0.00284379
0.00403649
0.00484515
0.00538639
0.00574794
0.00596256
0.00615819
0.00635537
0.00652518
0.00665886
0.00675631
0.00681987
0.00685142
0.00685195
0.00682127
0.0067581
0.0066603
0.00652541
0.00635335
0.00615168
0.00595669
0.00574516
0.00540251
0.0048705
0.00408766
0.00290824
0.00135474
0.000158496
0.000173722
0.00156061
0.00311789
0.00416394
0.00485943
0.00531969
0.00559477
0.0058368
0.00609073
0.00632345
0.00652085
0.00667578
0.00679029
0.00686609
0.00690423
0.00690526
0.006869
0.00679464
0.00668096
0.00652619
0.00632859
0.00609523
0.00584
0.00559168
0.00531805
0.00487589
0.00418994
0.00315791
0.00159849
0.000178575
0.000196158
0.0017125
0.00316825
0.0041331
0.00473147
0.00512402
0.00541746
0.00572563
0.00602859
0.0063031
0.00652642
0.00670452
0.00683814
0.00692754
0.00697295
0.00697431
0.00693143
0.00684414
0.00671206
0.00653502
0.00631242
0.00604015
0.00573345
0.00542215
0.00512605
0.00473546
0.00414639
0.00317996
0.0017316
0.00019951
0.000207951
0.00173521
0.00304942
0.00392032
0.00449738
0.0048817
0.00527018
0.00564171
0.00599096
0.00629646
0.0065509
0.00675443
0.00690735
0.00700989
0.00706214
0.00706371
0.00701437
0.00691422
0.00676324
0.00656146
0.00630734
0.0060024
0.00565245
0.00527793
0.00488268
0.00449434
0.00392183
0.00305567
0.00174402
0.000209567
0.000208685
0.00164712
0.00283263
0.0036168
0.00417223
0.00469091
0.00515996
0.00559934
0.00599198
0.00633171
0.00660866
0.00683376
0.00700054
0.00711088
0.00716659
0.00716823
0.00711556
0.00700771
0.00684288
0.00661924
0.00634236
0.00600349
0.00561122
0.00517061
0.0046981
0.00417504
0.00361377
0.0028375
0.00165503
0.000209745
0.000203531
0.00144449
0.00247082
0.00327416
0.00395875
0.00456182
0.00511172
0.00560748
0.00604344
0.00640625
0.00670542
0.00693587
0.00710122
0.00720596
0.00725634
0.00725769
0.00721026
0.00710802
0.00694439
0.00671433
0.00641845
0.00605447
0.00561881
0.00512289
0.00457085
0.00396423
0.00327521
0.0024622
0.00143866
0.000203943
0.000186743
0.00109147
0.00212651
0.00303227
0.00381651
0.00451293
0.00513497
0.00568415
0.00613936
0.00651766
0.00681353
0.00702565
0.00716824
0.00725533
0.00729757
0.00729878
0.0072589
0.00717403
0.00703334
0.00682273
0.00652701
0.00615171
0.00569475
0.00514477
0.00452132
0.0038212
0.00303128
0.00211971
0.00107863
0.000185862
0.000163156
0.000829245
0.00191254
0.00290529
0.00378502
0.00456855
0.00524755
0.0058028
0.00627294
0.00662941
0.00688819
0.00706952
0.00719249
0.00726958