/*--------------------------------*- C++ -*----------------------------------*\
| =========                 |                                                 |
| \\      /  F ield         | OpenFOAM: The Open Source CFD Toolbox           |
|  \\    /   O peration     | Version:  v1606+                                |
|   \\  /    A nd           | Web:      www.OpenFOAM.com                      |
|    \\/     M anipulation  |                                                 |
\*---------------------------------------------------------------------------*/
FoamFile
{
    version     2.0;
    format      ascii;
    class       volScalarField;
    location    "1.66";
    object      k.air;
}
// * * * * * * * * * * * * * * * * * * * * * * * * * * * * * * * * * * * * * //

dimensions      [0 2 -2 0 0 0 0];

internalField   nonuniform List<scalar> 
6000
(
0.886257
0.955751
0.971924
0.981368
0.987446
0.985816
0.979139
0.973392
0.974471
0.980764
0.987126
0.990716
0.989601
0.988607
0.988557
0.988501
0.988026
0.984072
0.980065
0.97749
0.977377
0.979154
0.979407
0.978725
0.976205
0.975215
0.979961
0.977044
0.950671
0.88291
0.653436
0.93795
1.00342
1.03565
1.05071
1.0492
1.04173
1.03569
1.04505
1.06703
1.08632
1.08896
1.08825
1.08179
1.08001
1.09227
1.09934
1.08142
1.06619
1.06401
1.06407
1.05986
1.05381
1.04583
1.03547
1.02468
1.01169
0.979008
0.911023
0.614993
0.487864
0.830411
0.943666
0.999338
1.02514
1.03671
1.0435
1.05143
1.0605
1.06806
1.07319
1.07476
1.07375
1.07042
1.07022
1.07578
1.08103
1.08214
1.08504
1.08858
1.0945
1.09227
1.07956
1.05824
1.03166
1.00239
0.970832
0.916983
0.801146
0.464136
0.395335
0.723223
0.875343
0.964957
1.02039
1.05915
1.08569
1.09813
1.09636
1.08752
1.08378
1.08427
1.08354
1.07944
1.0784
1.08479
1.09106
1.10141
1.12421
1.15915
1.18605
1.16015
1.11079
1.06262
1.01669
0.96822
0.915601
0.845082
0.713416
0.384655
0.321014
0.625794
0.801218
0.916771
1.00067
1.07397
1.14497
1.20415
1.19902
1.16415
1.13054
1.11793
1.1138
1.10994
1.1093
1.11722
1.12876
1.15578
1.20724
1.27615
1.30072
1.22618
1.13722
1.06315
0.994817
0.926026
0.853613
0.765953
0.626947
0.326373
0.261248
0.537348
0.724313
0.856942
0.965511
1.0752
1.1977
1.339
1.38082
1.31604
1.24169
1.19933
1.18525
1.17944
1.17798
1.18789
1.20791
1.24695
1.31896
1.41467
1.41713
1.31679
1.20618
1.10315
1.00567
0.904468
0.795979
0.683047
0.533484
0.272197
0.219497
0.472109
0.667282
0.820271
0.957851
1.1009
1.26341
1.44844
1.59281
1.52547
1.42537
1.35465
1.31874
1.30234
1.29579
1.30483
1.3299
1.37293
1.44441
1.53842
1.51046
1.45294
1.35517
1.22874
1.08576
0.937004
0.789476
0.641085
0.460696
0.218482
0.198674
0.452132
0.66962
0.849726
1.01866
1.1935
1.38342
1.58424
1.75064
1.7722
1.69138
1.59236
1.5233
1.48533
1.46681
1.46955
1.49296
1.5342
1.59603
1.66996
1.64117
1.64227
1.5282
1.37247
1.21002
1.03289
0.857446
0.6795
0.469432
0.210885
0.209308
0.497331
0.747645
0.949917
1.13011
1.30687
1.50603
1.72978
1.8759
1.95742
1.97699
1.90217
1.80375
1.7281
1.68851
1.68387
1.70371
1.74259
1.79772
1.84911
1.81556
1.80906
1.63933
1.45437
1.28103
1.10371
0.93094
0.749982
0.524742
0.237313
0.27204
0.600341
0.828152
1.01713
1.20134
1.38809
1.58746
1.81296
1.96801
2.03224
2.09718
2.10229
2.05436
1.9983
1.95957
1.95685
1.98365
2.02823
2.07257
2.04526
1.95426
1.88189
1.69148
1.49836
1.31627
1.13335
0.946465
0.751891
0.518275
0.238288
0.29432
0.639429
0.854111
1.04068
1.22552
1.41571
1.60862
1.8146
1.97164
2.03168
2.06802
2.09554
2.12002
2.14524
2.17164
2.21718
2.28158
2.34351
2.34544
2.18618
2.02901
1.89997
1.71987
1.53935
1.3612
1.1715
0.970054
0.756118
0.492067
0.210557
0.289879
0.640935
0.852139
1.03405
1.21209
1.39541
1.58524
1.7847
1.94739
2.01456
2.0394
2.05717
2.08828
2.14358
2.23992
2.36829
2.49242
2.56296
2.5032
2.30942
2.11006
1.9481
1.78034
1.61589
1.43673
1.23849
1.03026
0.809513
0.538288
0.214151
0.287742
0.633721
0.84343
1.02055
1.19122
1.36789
1.5537
1.74829
1.92883
2.01712
2.03763
2.04742
2.07522
2.13084
2.22872
2.37371
2.52532
2.60863
2.56274
2.40003
2.2166
2.05517
1.89338
1.72643
1.53607
1.33034
1.12028
0.902045
0.646641
0.269392
0.29032
0.637245
0.847332
1.02287
1.19049
1.36146
1.53819
1.71732
1.89415
2.02851
2.0586
2.05816
2.07392
2.11609
2.19812
2.33073
2.47672
2.56369
2.54211
2.43348
2.31127
2.20297
2.06157
1.87026
1.6582
1.43899
1.22192
0.999869
0.73787
0.321812
0.300995
0.656924
0.870935
1.04818
1.21505
1.38081
1.54596
1.70723
1.86176
2.00904
2.08716
2.08599
2.08485
2.10861
2.16749
2.27537
2.40453
2.49177
2.49505
2.43884
2.38354
2.36394
2.27303
2.04887
1.79845
1.55738
1.32782
1.09506
0.817583
0.353188
0.316292
0.696182
0.919847
1.10185
1.26855
1.42774
1.58011
1.7236
1.85525
1.97515
2.08206
2.11212
2.10784
2.11639
2.15287
2.2319
2.34086
2.43455
2.47115
2.46713
2.48067
2.54052
2.49484
2.23878
1.947
1.68232
1.4364
1.18801
0.893497
0.391844
0.338644
0.751034
0.989638
1.17932
1.34807
1.50335
1.64593
1.77363
1.88384
1.97452
2.05548
2.11467
2.12737
2.13129
2.15181
2.20662
2.29491
2.39387
2.47364
2.53151
2.60712
2.7176
2.68723
2.40513
2.08859
1.80546
1.54193
1.27873
0.969863
0.438067
0.367888
0.818554
1.07649
1.27804
1.45366
1.61058
1.74886
1.86561
1.95773
2.0228
2.06786
2.11183
2.14211
2.15184
2.16275
2.19947
2.27026
2.37213
2.48513
2.60127
2.72743
2.87215
2.83256
2.53954
2.21611
1.91853
1.63772
1.36007
1.03779
0.459441
0.402417
0.897321
1.17932
1.39853
1.58805
1.75453
1.89615
2.00773
2.08675
2.13286
2.15043
2.15912
2.17682
2.18893
2.19802
2.22824
2.28863
2.3824
2.50964
2.65525
2.81601
2.99314
2.93736
2.66073
2.33595
2.01935
1.71478
1.4088
1.06479
0.476469
0.441233
0.985382
1.29653
1.54021
1.75234
1.93877
2.09457
2.20718
2.27631
2.30751
2.31047
2.29962
2.29695
2.29935
2.31348
2.33779
2.37813
2.45073
2.57015
2.73058
2.93787
3.12382
3.04962
2.80168
2.46024
2.11143
1.76812
1.43406
1.06564
0.47699
0.482595
1.07828
1.42342
1.69894
1.9448
2.16476
2.34976
2.47121
2.53309
2.55014
2.53866
2.51933
2.51016
2.51444
2.55409
2.57064
2.58006
2.63431
2.75157
2.92584
3.16975
3.32105
3.23668
2.96845
2.59336
2.1949
1.81466
1.45807
1.06828
0.474245
0.524075
1.1675
1.55111
1.86569
2.15731
2.41405
2.63859
2.79078
2.86156
2.86644
2.82885
2.77558
2.73461
2.7458
2.77115
2.78126
2.81155
2.89934
3.04799
3.23681
3.4649
3.52938
3.37428
3.06348
2.66776
2.2554
1.86666
1.49741
1.08865
0.478152
0.562275
1.23792
1.66629
2.02253
2.34542
2.64886
2.90372
3.11721
3.24098
3.25171
3.17676
3.05452
2.95433
2.8982
2.87768
2.89881
2.96108
3.06318
3.2162
3.41148
3.58948
3.57767
3.35755
3.03404
2.65586
2.27556
1.907
1.54022
1.12735
0.496153
0.600567
1.31209
1.76178
2.13718
2.47744
2.78864
3.05999
3.32102
3.56333
3.65842
3.56442
3.3499
3.13346
3.00509
2.96748
2.98121
3.03009
3.10961
3.23445
3.40328
3.52893
3.47676
3.26563
2.95248
2.60213
2.26019
1.91896
1.56862
1.16395
0.519848
0.638347
1.40886
1.85419
2.22291
2.56147
2.87551
3.16365
3.41362
3.69454
3.92337
3.87967
3.57792
3.26884
3.10668
3.0463
3.03959
3.05805
3.10514
3.19547
3.3146
3.38962
3.32206
3.11783
2.82932
2.52495
2.21925
1.9074
1.57822
1.18758
0.537088
0.680012
1.47882
1.92796
2.29025
2.61921
2.92758
3.22312
3.47833
3.70938
3.92765
3.92573
3.6765
3.39175
3.20286
3.1157
3.08
3.07455
3.09162
3.14748
3.22732
3.26095
3.15962
2.95272
2.70554
2.44292
2.16944
1.88379
1.57499
1.19796
0.547559
0.69931
1.52358
1.98031
2.34282
2.66846
2.96984
3.256
3.52628
3.69926
3.83542
3.84945
3.69808
3.47353
3.28182
3.17415
3.11798
3.0904
3.0877
3.11529
3.15126
3.13003
2.99706
2.81096
2.60123
2.37097
2.12357
1.859
1.56655
1.20066
0.552271
0.716473
1.56811
2.03505
2.39981
2.72059
3.01089
3.27615
3.53478
3.68643
3.72505
3.72853
3.66535
3.51675
3.34597
3.23303
3.17057
3.12122
3.09124
3.0812
3.06573
2.99427
2.86512
2.71049
2.52805
2.32004
2.09111
1.8414
1.55998
1.20131
0.554082
0.737211
1.61761
2.09748
2.4678
2.7873
3.06584
3.3026
3.5172
3.66385
3.64763
3.62347
3.60198
3.52255
3.3893
3.28689
3.22186
3.1592
3.09184
3.03663
2.97803
2.89714
2.79456
2.66032
2.49246
2.29742
2.0799
1.83886
1.56251
1.20566
0.555871
0.761071
1.67455
2.17243
2.55502
2.88202
3.15639
3.36815
3.52115
3.63147
3.60399
3.56259
3.54437
3.49938
3.40474
3.31654
3.24077
3.15732
3.07579
3.00274
2.94101
2.87916
2.78877
2.65869
2.49539
2.30589
2.09324
1.85518
1.57933
1.21936
0.560858
0.789551
1.74267
2.2638
2.66684
3.01528
3.30187
3.50954
3.61593
3.64824
3.61211
3.56313
3.52445
3.47877
3.40932
3.33146
3.24986
3.1607
3.08503
3.02688
2.98087
2.92384
2.82937
2.69679
2.53378
2.34543
2.13332
1.8942
1.61456
1.24646
0.571569
0.82106
1.82556
2.37468
2.80402
3.18801
3.50529
3.74331
3.85008
3.80394
3.72015
3.6491
3.57539
3.50605
3.44571
3.39285
3.32053
3.23637
3.17072
3.12534
3.08179
3.01527
2.91321
2.77626
2.60955
2.41715
2.20019
1.95492
1.6669
1.2861
0.588675
0.859918
1.92994
2.5071
2.96576
3.36703
3.72059
4.0237
4.18724
4.13129
3.98645
3.86837
3.73134
3.62766
3.57794
3.5503
3.4913
3.41778
3.35391
3.29833
3.23537
3.15065
3.03733
2.89273
2.71854
2.51776
2.29127
2.03523
1.73461
1.33688
0.611173
0.952953
2.03241
2.65392
3.13641
3.5582
3.95742
4.32951
4.57291
4.57833
4.39672
4.2327
4.04843
3.919
3.85821
3.81922
3.76044
3.68672
3.6104
3.53305
3.44531
3.33899
3.20808
3.04891
2.8611
2.64622
2.40469
2.13264
1.81475
1.39586
0.636963
1.02932
2.14865
2.77512
3.2596
3.71878
4.16349
4.58222
4.89567
4.98531
4.84656
4.67283
4.50048
4.34484
4.24432
4.17581
4.10675
4.02352
3.92719
3.82386
3.71192
3.5836
3.43026
3.24859
3.0387
2.80197
2.53844
2.24405
1.90314
1.45777
0.662472
1.0217
2.17277
2.80051
3.30955
3.81195
4.30385
4.77887
5.15162
5.29036
5.27388
5.1281
4.98009
4.82028
4.69476
4.59979
4.51239
4.41026
4.29139
4.16481
4.03295
3.88368
3.70444
3.49233
3.25084
2.98321
2.68957
2.36548
1.99403
1.51511
0.684657
0.978957
2.1147
2.75529
3.30973
3.85635
4.39106
4.91496
5.37644
5.60645
5.63718
5.58478
5.45839
5.32682
5.18834
5.05945
4.93311
4.80296
4.67555
4.54401
4.40875
4.24279
4.0314
3.77787
3.49325
3.18476
2.8524
2.4906
2.07991
1.56178
0.701108
0.940903
2.03801
2.71008
3.3125
3.90772
4.48824
5.05923
5.60678
6.00477
6.08984
6.07593
6.04652
5.91637
5.7317
5.53048
5.34474
5.18404
5.05874
4.9526
4.8429
4.66755
4.41195
4.09893
3.7573
3.39757
3.01777
2.60939
2.1428
1.56368
0.721494
0.948443
2.0391
2.73675
3.37092
4.0055
4.62504
5.24402
5.88072
6.468
6.72751
6.7043
6.75693
6.59522
6.30977
6.01745
5.77827
5.59463
5.4648
5.38334
5.30848
5.13801
4.83165
4.44032
4.02628
3.60972
3.17801
2.72151
2.1993
1.58741
0.726228
0.964074
2.11517
2.85317
3.50858
4.16448
4.80562
5.45231
6.14675
6.86237
7.33669
7.37444
7.38437
7.19625
6.83003
6.4718
6.18687
5.9782
5.83933
5.7599
5.69461
5.52397
5.20282
4.76204
4.28168
3.8095
3.33099
2.82402
2.26116
1.63158
0.745767
0.986555
2.21715
3.01366
3.70481
4.379
5.03016
5.67077
6.36704
7.09966
7.66325
7.74307
7.63315
7.47051
7.13414
6.76485
6.44503
6.20234
6.02726
5.90354
5.79863
5.65953
5.39966
4.99256
4.50229
3.99222
3.47824
2.92378
2.31453
1.66914
0.768587
0.977489
2.26551
3.17999
3.93728
4.64338
5.27366
5.86981
6.50239
7.13969
7.61373
7.71173
7.57914
7.43727
7.17123
6.8356
6.50653
6.23748
6.03692
5.88812
5.75592
5.61968
5.43338
5.11263
4.67872
4.17534
3.63354
3.03307
2.36401
1.70305
0.778194
0.977951
2.338
3.36325
4.18961
4.88661
5.45417
5.95038
6.52649
7.10429
7.50786
7.57885
7.43943
7.29692
7.06115
6.75418
6.44872
6.19836
6.01594
5.87841
5.74323
5.61806
5.49515
5.27321
4.88959
4.40297
3.82611
3.17516
2.43852
1.72941
0.784471
1.0133
2.44832
3.55339
4.34798
4.96107
5.47029
5.98304
6.59593
7.2966
7.69876
7.54154
7.32893
7.13438
6.89457
6.61729
6.35596
6.14325
5.9857
5.8753
5.77434
5.69863
5.66616
5.53923
5.14413
4.67268
4.07436
3.37517
2.59575
1.79269
0.787043
1.08701
2.61085
3.63814
4.34796
4.91211
5.46926
6.02179
6.76852
7.66517
8.00533
7.61819
7.29339
7.03206
6.77918
6.5234
6.29364
6.11275
5.9819
5.89998
5.85401
5.82594
5.81851
5.69181
5.3349
4.89417
4.35631
3.6405
2.84652
1.96025
0.805314
1.18066
2.69032
3.62231
4.25875
4.83023
5.4025
5.98254
6.73112
7.59647
7.94559
7.60661
7.24232
6.95637
6.7036
6.47189
6.27004
6.11685
6.01196
5.94942
5.90201
5.85221
5.76665
5.56776
5.26126
4.90216
4.50065
3.91184
3.10364
2.16122
0.877285
1.25356
2.7022
3.55887
4.16386
4.73073
5.28325
5.86944
6.56178
7.24368
7.53006
7.36488
7.07693
6.81962
6.59516
6.39548
6.22172
6.08649
5.9892
5.91439
5.83118
5.71628
5.55588
5.3351
5.06126
4.75925
4.42595
3.97418
3.30179
2.30587
0.945466
1.28098
2.70036
3.4899
4.09011
4.62954
5.16272
5.74195
6.35242
6.82323
7.00232
6.95082
6.78864
6.60097
6.41988
6.25182
6.09935
5.96653
5.85396
5.74534
5.61951
5.46585
5.28771
5.07797
4.83805
4.58008
4.28744
3.90412
3.32202
2.39108
0.986283
1.27839
2.66067
3.42429
4.02042
4.55304
5.07635
5.6386
6.15074
6.45343
6.56622
6.56116
6.47421
6.34372
6.19948
6.05358
5.91069
5.77417
5.64681
5.51917
5.37829
5.21807
5.03959
4.84063
4.62278
4.39332
4.13109
3.768
3.23454
2.41817
1.03894
1.25909
2.60799
3.36087
3.95822
4.50353
5.03522
5.56624
5.95797
6.14175
6.21753
6.22643
6.17501
6.0807
5.96364
5.8356
5.70244
5.56768
5.43411
5.2979
5.15203
4.99299
4.82034
4.63341
4.43413
4.22717
3.98947
3.63691
3.12386
2.38229
1.09436
1.23705
2.55939
3.31362
3.92579
4.48714
5.03006
5.49976
5.76665
5.87684
5.92625
5.9323
5.89477
5.82163
5.72448
5.61192
5.48923
5.36001
5.22717
5.09013
4.94572
4.792
4.62866
4.45633
4.27779
4.09743
3.88971
3.54507
3.05036
2.32627
1.10628
1.2127
2.52757
3.29363
3.92759
4.51485
5.05335
5.42372
5.58758
5.65095
5.67595
5.67157
5.63679
5.5745
5.49068
5.39058
5.27818
5.15689
5.02962
4.89693
4.758
4.61238
4.46077
4.30508
4.14922
3.99834
3.82178
3.48833
2.98706
2.27657
1.09839
1.17836
2.512
3.29685
3.96029
4.56784
5.07162
5.34305
5.43311
5.45628
5.45726
5.4401
5.40259
5.34487
5.26934
5.17865
5.07553
4.96296
4.84334
4.71772
4.58663
4.45093
4.31232
4.1738
4.04062
3.91862
3.76991
3.43917
2.94194
2.25921
1.07813
1.14714
2.50342
3.31333
4.00671
4.61883
5.07379
5.26954
5.29976
5.28492
5.26278
5.23267
5.19027
5.13376
5.06323
4.97953
4.88443
4.78021
4.66873
4.55132
4.42927
4.30435
4.17915
4.05751
3.94575
3.84961
3.72112
3.39011
2.90344
2.25223
1.07658
1.12244
2.4933
3.32592
4.03831
4.64579
5.06377
5.20042
5.17837
5.12934
5.08613
5.04412
4.99644
4.93966
4.87217
4.79375
4.70543
4.60869
4.5051
4.39618
4.28363
4.16979
4.05783
3.9521
3.85964
3.78539
3.67054
3.34076
2.86431
2.23142
1.07186
1.10296
2.47377
3.32014
4.03956
4.63904
5.03326
5.12301
5.0589
4.98261
4.92202
4.87011
4.81778
4.7602
4.69469
4.62038
4.53768
4.44752
4.35136
4.2508
4.14771
4.04473
3.94534
3.85411
3.77829
3.72151
3.6158
3.28997
2.82686
2.21261
1.07346
1.08632
2.44234
3.28784
4.00305
4.59638
4.97714
5.02914
4.93438
4.8397
4.76684
4.70756
4.6516
4.59309
4.52894
4.45784
4.37978
4.29543
4.20611
4.11345
4.01942
3.92674
3.83895
3.76056
3.69869
3.65536
3.55728
3.2396
2.79273
2.20009
1.08784
1.06929
2.4052
3.23847
3.94197
4.52865
4.89375
4.91599
4.80297
4.69865
4.61866
4.55436
4.49573
4.43635
4.37307
4.30445
4.23027
4.151
4.06789
3.98248
3.89683
3.81358
3.73611
3.66867
3.61798
3.58476
3.49436
3.18641
2.75698
2.19239
1.06989
1.05703
2.3782
3.19304
3.87546
4.44387
4.78497
4.78841
4.66843
4.5603
4.47655
4.4089
4.34829
4.2881
4.22525
4.15851
4.08761
4.01276
3.9351
3.85619
3.77804
3.70312
3.63442
3.57565
3.5329
3.50565
3.42219
3.12409
2.70505
2.13485
0.985782
1.05844
2.36933
3.16153
3.81382
4.35301
4.66241
4.65487
4.53572
4.42601
4.33964
4.26952
4.20743
4.14652
4.08376
4.01844
3.95027
3.87924
3.80633
3.7331
3.66148
3.59361
3.53184
3.47906
3.44023
3.41294
3.32997
3.03965
2.62173
2.0289
0.908007
1.07451
2.37122
3.13877
3.75867
4.25746
4.52896
4.52068
4.40662
4.29551
4.2064
4.13406
4.07092
4.0097
3.94702
3.88277
3.81688
3.74918
3.68044
3.61216
3.54612
3.48401
3.42741
3.37788
3.33858
3.304
3.21285
2.93108
2.52202
1.92361
0.864259
1.09256
2.37089
3.10933
3.68952
4.14712
4.39092
4.38636
4.27774
4.16565
4.07418
4.00009
3.93634
3.87556
3.81345
3.75023
3.68634
3.62163
3.55664
3.49277
3.43155
3.37419
3.32137
3.27315
3.23061
3.18417
3.07513
2.80482
2.41174
1.82904
0.815412
1.10507
2.3529
3.05348
3.5954
4.01935
4.24537
4.24614
4.14272
4.03166
3.93984
3.86529
3.80164
3.74215
3.68147
3.61965
3.55778
3.49595
3.43453
3.37474
3.31786
3.26468
3.21504
3.16794
3.12294
3.06756
2.94261
2.68294
2.31541
1.77124
0.792815
1.09986
2.30656
2.96484
3.47213
3.86764
4.08436
4.09302
3.99605
3.88943
3.80081
3.728
3.66558
3.60808
3.54976
3.49008
3.43059
3.37171
3.31384
3.258
3.20527
3.15615
3.10994
3.0653
3.02169
2.96558
2.83164
2.57828
2.23765
1.74213
0.816394
1.01604
2.209
2.84308
3.31748
3.68543
3.90131
3.92291
3.83526
3.73757
3.65618
3.58772
3.52796
3.47295
3.41765
3.3609
3.30436
3.2487
3.19444
3.14248
3.09377
3.04866
3.00625
2.96558
2.92706
2.87561
2.73658
2.48256
2.15541
1.68934
0.783344
0.942
2.09086
2.69921
3.13827
3.47883
3.69792
3.7367
3.66243
3.57855
3.50775
3.44565
3.38962
3.33746
3.28539
3.23211
3.17905
3.12694
3.07632
3.02802
2.98291
2.94137
2.90257
2.86634
2.83406
2.78623
2.64021
2.38826
2.06771
1.62409
0.758907
0.893418
1.97419
2.54801
2.95598
3.27684
3.49814
3.54676
3.48513
3.41806
3.35928
3.30405
3.25211
3.20287
3.15397
3.10437
3.05506
3.00667
2.95959
2.9145
2.87228
2.83342
2.79743
2.76491
2.73756
2.69092
2.5392
2.28781
1.97448
1.55611
0.734205
0.84732
1.86899
2.3991
2.7771
3.08662
3.30755
3.35646
3.30999
3.26124
3.21396
3.16491
3.11675
3.07033
3.02452
2.97856
2.93303
2.88828
2.84451
2.80221
2.76216
2.72508
2.691
2.6606
2.63431
2.58358
2.42923
2.18413
1.88404
1.48683
0.701015
0.82659
1.77697
2.26161
2.61691
2.91381
3.12783
3.17353
3.14227
3.11061
3.07252
3.02855
2.98394
2.94045
2.8977
2.85529
2.81347
2.77224
2.73161
2.6919
2.65375
2.61801
2.58499
2.55478
2.52554
2.46871
2.31527
2.08036
1.79469
1.41196
0.652345
0.782883
1.68507
2.14272
2.47944
2.76147
2.96012
2.99804
2.9825
2.96418
2.93276
2.89366
2.85311
2.81293
2.77342
2.73464
2.69654
2.65888
2.62142
2.5844
2.54833
2.51377
2.48068
2.44823
2.41189
2.34941
2.20152
1.97999
1.7073
1.33613
0.607032
0.73252
1.59661
2.0358
2.35691
2.6242
2.79448
2.82652
2.82806
2.81855
2.79165
2.75819
2.72322
2.68728
2.65149
2.61651
2.58225
2.54827
2.51424
2.48028
2.44657
2.41269
2.37779
2.34096
2.29717
2.22701
2.08638
1.88419
1.62584
1.26989
0.577169
0.691195
1.51887
1.94069
2.24682
2.488
2.62185
2.65906
2.67791
2.67251
2.64917
2.62195
2.59387
2.5633
2.53182
2.50092
2.47064
2.44049
2.41012
2.37947
2.34815
2.31463
2.27693
2.23451
2.18392
2.10877
1.97735
1.79706
1.55699
1.21916
0.558413
0.666098
1.45635
1.85953
2.14706
2.34965
2.45375
2.50372
2.52873
2.52352
2.50503
2.4859
2.46557
2.44107
2.41435
2.38779
2.3616
2.33528
2.30847
2.28084
2.25154
2.21819
2.17739
2.12885
2.07426
2.00023
1.87799
1.71105
1.49119
1.17412
0.543343
0.651843
1.40485
1.78446
2.03879
2.2022
2.29838
2.35618
2.37734
2.37626
2.36459
2.35217
2.33965
2.32109
2.29931
2.27721
2.25502
2.23225
2.20853
2.18308
2.15477
2.12137
2.07764
2.02605
1.96728
1.89557
1.78677
1.62832
1.42086
1.12013
0.519392
0.636184
1.34224
1.68671
1.90778
2.05612
2.14907
2.20198
2.22575
2.23278
2.23059
2.22511
2.21786
2.20459
2.18747
2.16968
2.15113
2.1313
2.10986
2.08525
2.05544
2.02129
1.98006
1.92851
1.86562
1.7961
1.7033
1.55632
1.35531
1.06603
0.493184
0.596576
1.24917
1.56308
1.76944
1.91061
2.00096
2.05502
2.08574
2.10066
2.10519
2.10519
2.10127
2.09221
2.07996
2.06598
2.04992
2.03149
2.01033
1.98525
1.95621
1.92245
1.88208
1.82982
1.76705
1.69773
1.61351
1.48612
1.29621
1.0183
0.471373
0.540588
1.13958
1.43525
1.63331
1.77323
1.86797
1.92962
1.96695
1.98565
1.99295
1.9945
1.99253
1.9876
1.9796
1.96891
1.95451
1.93642
1.91439
1.88844
1.85921
1.82222
1.77934
1.72918
1.66993
1.6004
1.51451
1.4
1.23175
0.972569
0.453882
0.479648
1.03689
1.32447
1.52234
1.66673
1.76837
1.83411
1.87037
1.88462
1.89268
1.89661
1.89551
1.89373
1.8894
1.88048
1.866
1.84671
1.82239
1.79345
1.76096
1.72376
1.68226
1.63425
1.57538
1.50296
1.41349
1.30092
1.1499
0.918043
0.440086
0.436285
0.965906
1.248
1.44735
1.59738
1.70242
1.75937
1.77613
1.78506
1.80228
1.81506
1.81287
1.81011
1.80459
1.79353
1.7766
1.75495
1.72906
1.69972
1.66769
1.63219
1.59219
1.54454
1.48368
1.40714
1.3142
1.20199
1.05965
0.852677
0.412333
0.421883
0.928343
1.20644
1.4048
1.55
1.63643
1.67649
1.6929
1.69911
1.71958
1.73982
1.73926
1.73329
1.72234
1.70615
1.68603
1.66322
1.63813
1.61092
1.58097
1.54657
1.50563
1.45564
1.39272
1.31439
1.22021
1.10821
0.970295
0.777164
0.379092
0.421898
0.919114
1.18606
1.37065
1.48514
1.55601
1.59807
1.61923
1.63648
1.64743
1.65844
1.66129
1.65319
1.63741
1.6176
1.59665
1.57516
1.55246
1.52733
1.49802
1.46236
1.4187
1.36604
1.3022
1.22451
1.13175
1.02181
0.887097
0.702105
0.342711
0.429715
0.916426
1.16018
1.31186
1.41332
1.48001
1.51211
1.54655
1.57386
1.5823
1.57512
1.57254
1.56616
1.55145
1.53275
1.51313
1.49284
1.47081
1.44533
1.41458
1.37687
1.33123
1.2772
1.21343
1.13761
1.048
0.942178
0.812547
0.634551
0.304349
0.442265
0.89868
1.10302
1.2422
1.32896
1.37982
1.42638
1.46804
1.49633
1.50102
1.49213
1.48835
1.4815
1.46857
1.45194
1.43334
1.41295
1.38991
1.36289
1.33049
1.29147
1.24504
1.19079
1.12786
1.05448
0.968808
0.868297
0.745747
0.577902
0.272792
0.431592
0.844047
1.02301
1.14135
1.2235
1.28868
1.34282
1.38564
1.4093
1.41357
1.41194
1.40904
1.40196
1.38991
1.37417
1.35559
1.33435
1.30995
1.28147
1.24787
1.20819
1.16172
1.10802
1.0465
0.975872
0.894444
0.799769
0.685431
0.530066
0.250172
0.395102
0.749661
0.923888
1.04434
1.13503
1.20708
1.26472
1.30516
1.32665
1.33474
1.33711
1.33501
1.32761
1.3156
1.29969
1.28045
1.2581
1.23239
1.2027
1.16829
1.12837
1.08231
1.02966
0.969951
0.902244
0.825089
0.736216
0.629969
0.487137
0.231413
0.33372
0.658231
0.837783
0.963883
1.06038
1.13698
1.19489
1.23378
1.2557
1.26659
1.26998
1.26692
1.25851
1.2456
1.22874
1.20842
1.1849
1.15806
1.12751
1.09264
1.05282
1.00748
0.956197
0.898547
0.83382
0.760797
0.677385
0.578543
0.447366
0.214202
0.28687
0.581295
0.767432
0.898433
1.0006
1.08033
1.13823
1.17611
1.19781
1.20807
1.20955
1.20435
1.19413
1.17961
1.16135
1.1398
1.1152
1.08751
1.05645
1.0215
0.982092
0.937727
0.887999
0.832531
0.770758
0.701655
0.6233
0.531158
0.410327
0.198077
0.250915
0.524012
0.713365
0.850797
0.959332
1.04164
1.09812
1.13283
1.15038
1.15613
1.1538
1.14571
1.13313
1.11676
1.09712
1.07457
1.04925
1.02113
0.989971
0.955327
0.916665
0.873465
0.825393
0.77213
0.713213
0.64777
0.574034
0.487836
0.375841
0.182245
0.227844
0.489262
0.681679
0.828162
0.942252
1.02369
1.07164
1.09576
1.10498
1.10546
1.09952
1.08862
1.07389
1.0561
1.03566
1.0127
0.987285
0.959331
0.928592
0.894651
0.856986
0.815135
0.768747
0.717614
0.661377
0.599284
0.529698
0.448692
0.344016
0.166725
0.21612
0.480667
0.681093
0.834146
0.946067
1.00851
1.03638
1.0502
1.05514
1.0527
1.04415
1.03126
1.01535
0.997115
0.976767
0.954286
0.929571
0.902499
0.872794
0.840009
0.803614
0.763193
0.718495
0.669346
0.615533
0.556427
0.490504
0.414022
0.315348
0.152804
0.216311
0.495002
0.705462
0.858101
0.938333
0.971706
0.989553
0.999888
1.0021
0.997252
0.987125
0.973548
0.957663
0.940016
0.920704
0.899582
0.876409
0.850962
0.822968
0.791896
0.757093
0.718201
0.675115
0.62779
0.576094
0.519556
0.456783
0.384229
0.29088
0.140881
0.231151
0.54036
0.747397
0.862268
0.902871
0.925915
0.941307
0.948718
0.948458
0.941543
0.930504
0.917044
0.901949
0.885569
0.867939
0.848859
0.827978
0.804902
0.779302
0.750568
0.717793
0.680604
0.639118
0.593457
0.543594
0.489171
0.428975
0.359683
0.270899
0.130994
0.270318
0.594342
0.763932
0.83464
0.859306
0.880247
0.892995
0.897749
0.894888
0.886709
0.875804
0.863177
0.849345
0.83458
0.818946
0.802297
0.784257
0.764238
0.741649
0.715839
0.685616
0.650485
0.610796
0.566803
0.518593
0.465874
0.407647
0.340842
0.255562
0.123169
0.294959
0.618239
0.746176
0.792108
0.815179
0.833555
0.844164
0.846134
0.841968
0.834179
0.824342
0.813077
0.800797
0.787778
0.774178
0.759993
0.744981
0.728495
0.709428
0.68689
0.659726
0.627218
0.589933
0.548009
0.501452
0.450134
0.393368
0.328335
0.245355
0.117495
0.299987
0.609883
0.707767
0.747569
0.770143
0.786034
0.794284
0.795102
0.791526
0.785293
0.777143
0.767605
0.757079
0.745859
0.734173
0.722176
0.709851
0.696794
0.681707
0.662404
0.638416
0.609157
0.575212
0.536294
0.491714
0.441765
0.386356
0.322784
0.241451
0.11514
0.295373
0.580799
0.663152
0.703219
0.724139
0.738003
0.744772
0.746435
0.744996
0.740956
0.734898
0.727378
0.718794
0.709439
0.699557
0.689363
0.67899
0.668368
0.656968
0.641873
0.620066
0.593603
0.563242
0.527809
0.486527
0.439181
0.386162
0.323742
0.242885
0.11546
0.282764
0.534295
0.61512
0.657626
0.676748
0.689591
0.697039
0.701696
0.703192
0.701696
0.698022
0.692763
0.686301
0.678909
0.670805
0.662166
0.653094
0.643573
0.633661
0.623349
0.605005
0.579703
0.551674
0.519072
0.480952
0.438603
0.390436
0.330406
0.249805
0.117952
0.26943
0.484017
0.563637
0.606796
0.626604
0.641122
0.65318
0.662156
0.666636
0.667816
0.666722
0.663911
0.659717
0.654373
0.648054
0.640872
0.632809
0.623659
0.613229
0.602359
0.589774
0.56755
0.540143
0.508816
0.472907
0.437681
0.396781
0.342407
0.264383
0.124977
0.244695
0.427547
0.501829
0.544886
0.576273
0.599585
0.617586
0.629033
0.635776
0.63954
0.641114
0.640866
0.639029
0.635768
0.631213
0.625414
0.618274
0.609445
0.59842
0.585205
0.570658
0.554136
0.530321
0.49997
0.46995
0.43935
0.401984
0.352935
0.279416
0.138077
0.204366
0.362594
0.453691
0.507512
0.546458
0.573611
0.591057
0.60249
0.610879
0.617101
0.621356
0.623712
0.624247
0.623052
0.620194
0.615677
0.609377
0.600953
0.589907
0.576019
0.559675
0.542097
0.523038
0.499677
0.473958
0.445475
0.408408
0.360735
0.291937
0.149481
0.171236
0.311685
0.419723
0.487994
0.531197
0.556255
0.570977
0.58227
0.592236
0.600844
0.607731
0.612655
0.615515
0.616307
0.615068
0.611741
0.60621
0.598235
0.587459
0.573819
0.557697
0.540124
0.52224
0.50254
0.479892
0.452295
0.415764
0.367865
0.299262
0.155536
0.147644
0.283245
0.407868
0.48283
0.523577
0.543626
0.556566
0.56848
0.580263
0.591235
0.600646
0.608054
0.613145
0.615784
0.615862
0.613465
0.608535
0.600923
0.590454
0.577081
0.561318
0.54401
0.526119
0.507148
0.484797
0.457998
0.422424
0.373946
0.302764
0.158225
0.134565
0.287181
0.411343
0.480062
0.518011
0.534518
0.547832
0.56147
0.575485
0.588832
0.600529
0.609867
0.616731
0.620976
0.62255
0.621328
0.617199
0.610086
0.599964
0.586882
0.57132
0.553908
0.535195
0.51478
0.491046
0.463341
0.427817
0.378831
0.305528
0.15957
0.139107
0.304365
0.412426
0.478876
0.51038
0.528087
0.544834
0.561442
0.577658
0.593046
0.606839
0.618517
0.627652
0.633916
0.637125
0.637105
0.633772
0.627131
0.617243
0.604251
0.588465
0.570361
0.550194
0.527575
0.50144
0.470684
0.433268
0.38311
0.307798
0.159925
0.156565
0.331247
0.41657
0.480509
0.503683
0.526443
0.547687
0.567783
0.587193
0.605465
0.621923
0.635974
0.647105
0.655097
0.659747
0.660888
0.658414
0.652288
0.642578
0.629455
0.613129
0.593961
0.572022
0.546925
0.517799
0.483367
0.441876
0.388471
0.309974
0.159609
0.183872
0.355196
0.430677
0.480609
0.502444
0.53073
0.557754
0.582816
0.605966
0.627124
0.646001
0.662172
0.675268
0.685021
0.691201
0.69361
0.692093
0.686557
0.677012
0.663585
0.646465
0.625886
0.601847
0.573971
0.541425
0.502945
0.456516
0.397815
0.314015
0.159281
0.201354
0.362801
0.435652
0.472427
0.505834
0.542419
0.576232
0.606489
0.633683
0.658035
0.679529
0.697978
0.713144
0.724777
0.732628
0.73645
0.73602
0.731167
0.721821
0.708019
0.689892
0.667582
0.641063
0.609994
0.573596
0.530576
0.478794
0.413764
0.322452
0.160492
0.201116
0.354965
0.423779
0.470034
0.516361
0.562041
0.603104
0.639379
0.671288
0.699232
0.723594
0.744526
0.761954
0.775677
0.785413
0.79085
0.791679
0.787636
0.778549
0.764359
0.745091
0.720791
0.691409
0.656649
0.615823
0.567671
0.509979
0.438093
0.338491
0.165033
0.193869
0.332676
0.409548
0.474566
0.534943
0.59053
0.639887
0.683056
0.720207
0.752026
0.779492
0.803176
0.823178
0.839306
0.851232
0.858563
0.860882
0.857816
0.849084
0.83452
0.814044
0.787585
0.755019
0.716052
0.670082
0.615963
0.5515
0.471928
0.363108
0.175381
0.176701
0.295789
0.40427
0.488566
0.563739
0.630157
0.688749
0.739505
0.782052
0.817789
0.848601
0.875465
0.898531
0.91755
0.93211
0.941718
0.945836
0.943972
0.935739
0.920866
0.899164
0.870444
0.83446
0.790827
0.738936
0.677746
0.605171
0.51636
0.396345
0.190804
0.153153
0.273286
0.411222
0.516739
0.606261
0.683941
0.752196
0.81072
0.858015
0.8975
0.932187
0.963046
0.989999
1.01264
1.03046
1.04286
1.04917
1.04881
1.04131
1.02629
1.00345
0.972458
0.932897
0.8842
0.825611
0.756059
0.673534
0.573083
0.438612
0.209848
0.14349
0.280955
0.439748
0.56474
0.667301
0.755289
0.832422
0.897715
0.948051
0.991653
1.03151
1.06773
1.0998
1.12709
1.149
1.16485
1.17382
1.17536
1.16898
1.15419
1.13053
1.09748
1.05435
1.0003
0.934251
0.854915
0.760188
0.644903
0.491552
0.232747
0.148869
0.320892
0.501543
0.638934
0.751245
0.846957
0.930295
0.998792
1.0519
1.10153
1.1483
1.1914
1.22993
1.26312
1.29018
1.31026
1.32227
1.32619
1.32163
1.30797
1.28444
1.25011
1.20393
1.14461
1.07047
0.979742
0.870083
0.736016
0.558263
0.260624
0.172847
0.403971
0.593191
0.739933
0.859592
0.960239
1.04688
1.11552
1.17311
1.23035
1.28506
1.3359
1.38187
1.42189
1.45514
1.47967
1.49446
1.50112
1.49976
1.48941
1.4685
1.43529
1.38792
1.32438
1.24206
1.13824
1.01021
0.852305
0.643248
0.295523
0.224355
0.506472
0.712189
0.867088
0.991882
1.09672
1.1876
1.25866
1.31919
1.38286
1.44476
1.50279
1.55606
1.60316
1.6421
1.66845
1.68504
1.69521
1.6999
1.69726
1.68414
1.65726
1.61344
1.5492
1.46005
1.34157
1.1907
1.0021
0.752586
0.340258
0.282141
0.631927
0.856588
1.01802
1.14636
1.25719
1.35659
1.43538
1.49462
1.56219
1.62911
1.69239
1.75145
1.80479
1.84412
1.86814
1.88586
1.90319
1.9193
1.93043
1.93225
1.92014
1.88901
1.83222
1.74075
1.6063
1.42619
1.19707
0.89446
0.398414
0.353686
0.786862
1.02472
1.18673
1.31923
1.43598
1.54551
1.64126
1.69968
1.7674
1.83616
1.90293
1.96746
2.02531
2.06273
2.08079
2.10333
2.13361
2.16632
2.19605
2.21905
2.23133
2.22682
2.19322
2.11002
1.95737
1.73686
1.45228
1.0794
0.474153
0.46105
0.971604
1.2078
1.36627
1.50148
1.62417
1.74519
1.85964
1.92479
1.99027
2.05899
2.13091
2.20463
2.26339
2.29722
2.31722
2.35558
2.40559
2.4572
2.5077
2.556
2.60178
2.64307
2.66165
2.60894
2.42908
2.14503
1.78232
1.31825
0.572005
0.543349
1.15646
1.35975
1.53238
1.67059
1.81032
1.94748
2.07883
2.15713
2.22087
2.28917
2.37166
2.45614
2.52027
2.54953
2.58962
2.65028
2.71924