/*--------------------------------*- C++ -*----------------------------------*\
| =========                 |                                                 |
| \\      /  F ield         | OpenFOAM: The Open Source CFD Toolbox           |
|  \\    /   O peration     | Version:  v1606+                                |
|   \\  /    A nd           | Web:      www.OpenFOAM.com                      |
|    \\/     M anipulation  |                                                 |
\*---------------------------------------------------------------------------*/
FoamFile
{
    version     2.0;
    format      ascii;
    class       volVectorField;
    location    "1.66";
    object      U;
}
// * * * * * * * * * * * * * * * * * * * * * * * * * * * * * * * * * * * * * //

dimensions      [0 1 -1 0 0 0 0];

internalField   nonuniform List<vector> 
6000
(
(-0.0492868 -0.00126688 0)
(-0.0905805 -0.0470667 0)
(-0.102354 -0.0203588 0)
(-0.100906 -0.0160345 0)
(-0.106275 -0.0279973 0)
(-0.102859 -0.0465351 0)
(-0.0731715 -0.0787403 0)
(-0.0205604 -0.10569 0)
(0.027133 -0.13342 0)
(0.0469559 -0.129377 0)
(0.0454947 -0.0952321 0)
(0.0224675 -0.0635351 0)
(-0.0055424 -0.0893927 0)
(-0.0239656 -0.0857367 0)
(-0.0457233 -0.080472 0)
(-0.061242 -0.102922 0)
(-0.0699904 -0.116562 0)
(-0.0674157 -0.120875 0)
(-0.0545328 -0.115994 0)
(-0.0351008 -0.0911114 0)
(-0.00840465 -0.0618242 0)
(0.0170837 -0.0266931 0)
(0.0381766 0.00545793 0)
(0.0536798 0.0150612 0)
(0.0689151 0.0168131 0)
(0.101144 0.00922119 0)
(0.107562 -0.0168435 0)
(0.0564274 -0.00198427 0)
(0.0134141 -0.0540971 0)
(0.0167422 -0.00164961 0)
(0.0162986 0.703798 0)
(-0.0307302 0.692298 0)
(-0.0668298 0.641308 0)
(-0.0802121 0.642924 0)
(-0.102195 0.669653 0)
(-0.110126 0.650806 0)
(-0.0840095 0.620849 0)
(-0.034131 0.592192 0)
(0.0276137 0.639403 0)
(0.0521957 0.656041 0)
(0.0279487 0.655376 0)
(0.00722409 0.668596 0)
(-0.00951219 0.672428 0)
(-0.0254277 0.665612 0)
(-0.0274071 0.660357 0)
(-0.03771 0.660412 0)
(-0.0748888 0.661597 0)
(-0.108815 0.654096 0)
(-0.0963608 0.66192 0)
(-0.0715925 0.632318 0)
(-0.0614252 0.614086 0)
(-0.0440615 0.610766 0)
(-0.0137517 0.579471 0)
(0.00944311 0.579804 0)
(0.0296563 0.558358 0)
(0.0374093 0.559598 0)
(0.0353027 0.680275 0)
(0.0449938 0.708567 0)
(0.0332272 0.635266 0)
(-0.0183391 0.611742 0)
(0.00934782 0.550248 0)
(0.0161414 0.556691 0)
(-0.00660777 0.486731 0)
(-0.0351297 0.477998 0)
(-0.0699515 0.469046 0)
(-0.0766113 0.412465 0)
(-0.0696943 0.347535 0)
(-0.0319266 0.297844 0)
(0.0280807 0.340891 0)
(0.0626868 0.440161 0)
(0.0678022 0.529204 0)
(0.0300825 0.537796 0)
(-0.00600597 0.517744 0)
(-0.0296405 0.499185 0)
(-0.0369901 0.489992 0)
(-0.0551925 0.520345 0)
(-0.103321 0.548632 0)
(-0.12152 0.463951 0)
(-0.094075 0.403256 0)
(-0.0757502 0.414912 0)
(-0.0936953 0.410742 0)
(-0.101217 0.400138 0)
(-0.0732437 0.414577 0)
(-0.0484966 0.427806 0)
(-0.0209468 0.431397 0)
(-0.00802488 0.449239 0)
(0.0165352 0.482557 0)
(0.0538332 0.509954 0)
(0.0450902 0.531994 0)
(0.00189548 0.526717 0)
(0.0129496 0.562166 0)
(0.0608323 0.584857 0)
(0.0655419 0.58107 0)
(0.0617137 0.599931 0)
(0.0439858 0.564362 0)
(0.0284239 0.48685 0)
(0.013152 0.411581 0)
(0.0043514 0.314909 0)
(0.0217476 0.348327 0)
(0.0190996 0.443203 0)
(0.0194384 0.555951 0)
(0.0142668 0.611519 0)
(-0.0147804 0.599092 0)
(-0.0331115 0.555534 0)
(-0.0386467 0.528314 0)
(-0.0521874 0.576814 0)
(-0.0736139 0.608489 0)
(-0.072701 0.468226 0)
(-0.0757772 0.412237 0)
(-0.0946689 0.463634 0)
(-0.161879 0.52827 0)
(-0.215748 0.470275 0)
(-0.209202 0.43919 0)
(-0.168261 0.444525 0)
(-0.127994 0.438741 0)
(-0.0633129 0.451651 0)
(0.00991233 0.508279 0)
(0.0326016 0.562303 0)
(0.020716 0.575842 0)
(-0.0112572 0.556571 0)
(0.0223489 0.51143 0)
(0.0711988 0.542699 0)
(0.102062 0.534179 0)
(0.152663 0.5558 0)
(0.185465 0.569802 0)
(0.19085 0.526269 0)
(0.177837 0.465734 0)
(0.105872 0.334806 0)
(0.0455745 0.363601 0)
(0.0184206 0.459356 0)
(-0.0245612 0.573358 0)
(-0.0460517 0.625539 0)
(-0.0455279 0.611121 0)
(-0.0428155 0.561928 0)
(-0.0361445 0.532595 0)
(-0.0345942 0.593446 0)
(-0.0145638 0.622285 0)
(-0.00901565 0.488411 0)
(-0.037594 0.43394 0)
(-0.0842426 0.500233 0)
(-0.204 0.643224 0)
(-0.293473 0.479841 0)
(-0.285885 0.392122 0)
(-0.250848 0.395953 0)
(-0.224612 0.370787 0)
(-0.169191 0.354383 0)
(-0.0894436 0.430861 0)
(-0.0201579 0.570302 0)
(-0.0150905 0.616603 0)
(-0.0127526 0.567664 0)
(0.0267978 0.465077 0)
(0.0875976 0.515118 0)
(0.151286 0.508871 0)
(0.226029 0.515575 0)
(0.278963 0.525766 0)
(0.318141 0.502412 0)
(0.342655 0.501338 0)
(0.243141 0.488964 0)
(0.106835 0.41499 0)
(0.0200906 0.525069 0)
(-0.0309779 0.593528 0)
(-0.0640004 0.643809 0)
(-0.0736757 0.60935 0)
(-0.0591829 0.547821 0)
(-0.0462716 0.518106 0)
(-0.02336 0.56941 0)
(0.0278593 0.586498 0)
(0.0546813 0.495572 0)
(0.0306465 0.477528 0)
(-0.026311 0.559177 0)
(-0.125645 0.829743 0)
(-0.215753 0.495211 0)
(-0.239745 0.375939 0)
(-0.271927 0.395285 0)
(-0.288599 0.342897 0)
(-0.270692 0.294317 0)
(-0.225259 0.347977 0)
(-0.131634 0.517495 0)
(-0.0657444 0.582046 0)
(-0.00978759 0.539825 0)
(0.0220108 0.398275 0)
(0.096096 0.436952 0)
(0.184276 0.423227 0)
(0.260262 0.445616 0)
(0.310525 0.492784 0)
(0.343077 0.457795 0)
(0.362271 0.477377 0)
(0.336862 0.600436 0)
(0.149607 0.559393 0)
(0.00584213 0.585232 0)
(-0.0423508 0.6406 0)
(-0.0585653 0.645059 0)
(-0.0651809 0.611394 0)
(-0.0621972 0.54138 0)
(-0.0515085 0.499502 0)
(-0.020249 0.520093 0)
(0.0448362 0.526058 0)
(0.0838764 0.489435 0)
(0.0869234 0.502634 0)
(0.0541956 0.593304 0)
(0.0233583 0.966782 0)
(-0.0522462 0.523547 0)
(-0.148652 0.384561 0)
(-0.242972 0.386329 0)
(-0.30324 0.30114 0)
(-0.334953 0.263072 0)
(-0.318975 0.269361 0)
(-0.215686 0.38317 0)
(-0.0954946 0.498851 0)
(-0.00872346 0.499842 0)
(0.0299193 0.332442 0)
(0.139591 0.334138 0)
(0.234008 0.338537 0)
(0.282164 0.330623 0)
(0.301191 0.363891 0)
(0.298964 0.390014 0)
(0.305753 0.425743 0)
(0.323879 0.630831 0)
(0.242646 0.808713 0)
(0.0732912 0.631914 0)
(-0.00896006 0.645168 0)
(-0.0426484 0.670224 0)
(-0.0509349 0.622873 0)
(-0.0446529 0.543649 0)
(-0.0362492 0.489509 0)
(-0.00606424 0.47394 0)
(0.0442249 0.468569 0)
(0.0824528 0.472811 0)
(0.10779 0.497567 0)
(0.0757912 0.606402 0)
(0.0697906 0.988187 0)
(-0.000816402 0.592505 0)
(-0.143807 0.543277 0)
(-0.250867 0.547177 0)
(-0.305964 0.377294 0)
(-0.3265 0.251719 0)
(-0.296121 0.163062 0)
(-0.225184 0.201807 0)
(-0.120158 0.320624 0)
(-0.00591882 0.41129 0)
(0.0546956 0.211576 0)
(0.14984 0.191881 0)
(0.173485 0.20346 0)
(0.199788 0.306015 0)
(0.247537 0.421678 0)
(0.288835 0.457825 0)
(0.305213 0.456916 0)
(0.358736 0.641124 0)
(0.445097 0.955152 0)
(0.354561 0.863673 0)
(0.171862 0.677603 0)
(0.076907 0.622761 0)
(0.0171088 0.5833 0)
(-0.0184793 0.535983 0)
(-0.0156868 0.481838 0)
(0.0171476 0.449006 0)
(0.047284 0.441495 0)
(0.0703968 0.451913 0)
(0.0917766 0.487018 0)
(0.0136574 0.677005 0)
(-0.0715108 1.02013 0)
(-0.149275 0.772075 0)
(-0.288085 0.737236 0)
(-0.343057 0.657447 0)
(-0.373954 0.496219 0)
(-0.377871 0.318858 0)
(-0.323496 0.197265 0)
(-0.22904 0.146423 0)
(-0.135398 0.218675 0)
(-0.0214945 0.316181 0)
(0.0299341 0.0873926 0)
(0.0863551 0.20663 0)
(0.107028 0.29945 0)
(0.127992 0.371121 0)
(0.175559 0.393523 0)
(0.249239 0.418351 0)
(0.346287 0.418268 0)
(0.437722 0.534587 0)
(0.607683 0.848487 0)
(0.701258 0.988457 0)
(0.614743 1.02224 0)
(0.38353 0.864783 0)
(0.218562 0.683832 0)
(0.114583 0.505047 0)
(0.0682453 0.400101 0)
(0.0551292 0.390288 0)
(0.0591609 0.394608 0)
(0.0498362 0.408451 0)
(-0.0188438 0.476142 0)
(-0.209309 0.880506 0)
(-0.341699 1.06945 0)
(-0.399998 0.879334 0)
(-0.453508 0.732741 0)
(-0.440388 0.597713 0)
(-0.423926 0.456682 0)
(-0.387572 0.25583 0)
(-0.326978 0.132646 0)
(-0.262132 0.107744 0)
(-0.172022 0.195243 0)
(-0.0625464 0.327917 0)
(-0.0064123 0.122843 0)
(0.00480946 0.21335 0)
(0.0195447 0.248918 0)
(0.0561122 0.277475 0)
(0.123207 0.295195 0)
(0.217581 0.283404 0)
(0.337937 0.270445 0)
(0.448196 0.376783 0)
(0.617524 0.659502 0)
(0.761236 0.878794 0)
(0.835989 1.05756 0)
(0.769411 1.06581 0)
(0.626875 0.961147 0)
(0.440665 0.794942 0)
(0.264116 0.535514 0)
(0.159833 0.399559 0)
(0.0947518 0.383183 0)
(0.00416868 0.450087 0)
(-0.189308 0.712869 0)
(-0.440427 1.10123 0)
(-0.514004 1.11424 0)
(-0.529744 0.908763 0)
(-0.515645 0.734206 0)
(-0.467252 0.59649 0)
(-0.39659 0.415995 0)
(-0.317239 0.172215 0)
(-0.25514 0.0434577 0)
(-0.200655 0.00743112 0)
(-0.152965 0.058069 0)
(-0.076008 0.169295 0)
(-0.00599829 0.108992 0)
(-0.0013247 0.201389 0)
(0.0110475 0.222422 0)
(0.0570761 0.240273 0)
(0.11081 0.229648 0)
(0.184666 0.181687 0)
(0.254607 0.165303 0)
(0.350788 0.249945 0)
(0.518263 0.49788 0)
(0.664398 0.747594 0)
(0.777156 0.986424 0)
(0.814925 1.05658 0)
(0.795145 1.01303 0)
(0.728991 0.916848 0)
(0.593037 0.773528 0)
(0.403015 0.660659 0)
(0.197846 0.651591 0)
(-0.0345419 0.768411 0)
(-0.279364 1.02838 0)
(-0.430025 1.20908 0)
(-0.493962 1.15973 0)
(-0.5147 0.897971 0)
(-0.485788 0.665667 0)
(-0.401936 0.503589 0)
(-0.281552 0.317186 0)
(-0.198908 0.10003 0)
(-0.153122 -0.00798553 0)
(-0.11785 -0.0319975 0)
(-0.0978565 0.0211052 0)
(-0.00975582 0.0284833 0)
(-0.00125931 0.104485 0)
(0.0168163 0.205326 0)
(0.0318635 0.173955 0)
(0.0656228 0.187695 0)
(0.101516 0.180286 0)
(0.126734 0.130003 0)
(0.146416 0.0930868 0)
(0.186835 0.128956 0)
(0.317954 0.31325 0)
(0.528803 0.645388 0)
(0.652521 0.900889 0)
(0.714955 1.02053 0)
(0.731245 1.00104 0)
(0.719429 0.940509 0)
(0.657377 0.86108 0)
(0.522201 0.822439 0)
(0.320995 0.859348 0)
(0.0952568 0.982725 0)
(-0.0947008 1.18447 0)
(-0.2112 1.315 0)
(-0.299615 1.2077 0)
(-0.377348 0.91483 0)
(-0.360693 0.578569 0)
(-0.274755 0.368989 0)
(-0.159913 0.229516 0)
(-0.0948114 0.0537184 0)
(-0.0647353 -0.0399325 0)
(-0.0367502 -0.061547 0)
(-0.0257231 -0.0121079 0)
(0.0654308 0.0187277 0)
(-0.0148494 0.0853385 0)
(0.00914556 0.167896 0)
(0.0289663 0.148494 0)
(0.0519391 0.15698 0)
(0.0782834 0.148661 0)
(0.0910153 0.121021 0)
(0.0826743 0.0959818 0)
(0.0719615 0.0892219 0)
(0.100259 0.154835 0)
(0.280202 0.438694 0)
(0.47789 0.774523 0)
(0.585793 0.974315 0)
(0.624562 0.989563 0)
(0.634816 0.957086 0)
(0.614548 0.922343 0)
(0.541125 0.939683 0)
(0.409083 1.01023 0)
(0.255512 1.12508 0)
(0.129995 1.27306 0)
(0.054125 1.39523 0)
(-0.0534675 1.35318 0)
(-0.185261 1.02216 0)
(-0.203027 0.524665 0)
(-0.159884 0.257506 0)
(-0.0675764 0.152453 0)
(-0.00777389 0.0133998 0)
(0.00402018 -0.0614151 0)
(0.0130239 -0.0665605 0)
(0.00969278 -0.0183269 0)
(0.0167944 0.0403092 0)
(-0.0203857 0.102058 0)
(0.00346443 0.149891 0)
(0.0204357 0.12907 0)
(0.036924 0.134078 0)
(0.0523029 0.133529 0)
(0.0565577 0.125233 0)
(0.0450641 0.115577 0)
(0.0220843 0.108166 0)
(0.00454041 0.110951 0)
(0.0467094 0.237916 0)
(0.273212 0.628044 0)
(0.443477 0.88871 0)
(0.524342 0.962824 0)
(0.562175 0.943421 0)
(0.585251 0.94718 0)
(0.567339 1.02166 0)
(0.491281 1.12972 0)
(0.385505 1.24955 0)
(0.282413 1.36339 0)
(0.213758 1.44696 0)
(0.145178 1.44926 0)
(0.0175984 1.14393 0)
(-0.061989 0.55646 0)
(-0.0538011 0.185011 0)
(0.0109858 0.0895449 0)
(0.0496337 -0.0114157 0)
(0.0345463 -0.058078 0)
(0.029487 -0.0531811 0)
(0.0245042 -0.0222501 0)
(0.0112584 0.0471423 0)
(-0.0147103 0.111674 0)
(0.00477707 0.126973 0)
(0.0164191 0.117557 0)
(0.025505 0.122222 0)
(0.032061 0.12644 0)
(0.0318033 0.1297 0)
(0.0220152 0.132784 0)
(0.00127414 0.13593 0)
(-0.0244387 0.135688 0)
(-0.0501732 0.160125 0)
(0.0290656 0.398222 0)
(0.246254 0.726561 0)
(0.392874 0.884593 0)
(0.474737 0.889646 0)
(0.53808 0.922685 0)
(0.578956 1.04574 0)
(0.563229 1.20258 0)
(0.481526 1.3445 0)
(0.374443 1.45107 0)
(0.276385 1.51324 0)
(0.209064 1.50321 0)
(0.0982415 1.2776 0)
(0.027227 0.637034 0)
(0.0397829 0.144566 0)
(0.0738578 0.0554508 0)
(0.0832579 -0.0117294 0)
(0.0610672 -0.0429183 0)
(0.0515462 -0.0453689 0)
(0.0369701 -0.010527 0)
(0.0125003 0.0686838 0)
(-0.00352014 0.115454 0)
(0.00622801 0.114881 0)
(0.0120808 0.112497 0)
(0.0156256 0.1184 0)
(0.01638 0.126614 0)
(0.0124194 0.136478 0)
(0.0020972 0.147906 0)
(-0.0162958 0.160626 0)
(-0.0430273 0.171723 0)
(-0.0696877 0.189229 0)
(-0.0895072 0.265281 0)
(0.0363837 0.563889 0)
(0.22141 0.744465 0)
(0.341089 0.783798 0)
(0.43067 0.838595 0)
(0.514494 1.00094 0)
(0.557032 1.24036 0)
(0.522745 1.4651 0)
(0.413125 1.57847 0)
(0.281228 1.62228 0)
(0.172382 1.58828 0)
(0.0675646 1.36005 0)
(0.0897931 0.643607 0)
(0.0948433 0.120239 0)
(0.117847 0.0475956 0)
(0.114221 -0.00293097 0)
(0.0926587 -0.02575 0)
(0.0776421 -0.0283429 0)
(0.0613783 0.0124606 0)
(0.0161257 0.108654 0)
(0.0010776 0.112588 0)
(0.00595545 0.109473 0)
(0.00787503 0.111033 0)
(0.00745093 0.118603 0)
(0.00447467 0.130041 0)
(-0.00244093 0.144861 0)
(-0.0146986 0.162846 0)
(-0.0338963 0.182711 0)
(-0.0611641 0.202403 0)
(-0.0908531 0.222178 0)
(-0.109562 0.263541 0)
(-0.125011 0.400076 0)
(0.0144943 0.627916 0)
(0.168575 0.699391 0)
(0.266171 0.771687 0)
(0.375948 0.974544 0)
(0.436005 1.21901 0)
(0.438709 1.53686 0)
(0.356119 1.72935 0)
(0.221901 1.79121 0)
(0.0951577 1.72608 0)
(0.037122 1.40452 0)
(0.131996 0.562917 0)
(0.125519 0.121767 0)
(0.142679 0.051113 0)
(0.136049 0.00465766 0)
(0.128607 -0.012627 0)
(0.122756 -0.0202196 0)
(0.101927 0.0343634 0)
(0.0230719 0.145694 0)
(0.00255892 0.108625 0)
(0.00534131 0.107054 0)
(0.00514695 0.111673 0)
(0.00265478 0.121539 0)
(-0.00254843 0.136144 0)
(-0.0119905 0.155408 0)
(-0.0272387 0.180321 0)
(-0.0499195 0.206936 0)
(-0.0801442 0.232612 0)
(-0.113274 0.256625 0)
(-0.13949 0.289066 0)
(-0.14708 0.362983 0)
(-0.144442 0.489717 0)
(-0.0216636 0.556438 0)
(0.0524052 0.637928 0)
(0.139825 0.846742 0)
(0.206292 1.17019 0)
(0.225736 1.58077 0)
(0.179067 1.80817 0)
(0.081303 1.91357 0)
(0.00240846 1.80526 0)
(0.0696691 1.40033 0)
(0.175274 0.444189 0)
(0.168509 0.151986 0)
(0.156167 0.0614006 0)
(0.14771 0.00802356 0)
(0.153353 -0.0128022 0)
(0.168755 -0.00445924 0)
(0.0833156 0.104168 0)
(0.0172397 0.222845 0)
(0.00315754 0.104349 0)
(0.00550539 0.106163 0)
(0.0050273 0.113336 0)
(0.00286219 0.125578 0)
(-0.00251052 0.144372 0)
(-0.0137939 0.168952 0)
(-0.0356869 0.20344 0)
(-0.0672315 0.236784 0)
(-0.103805 0.266272 0)
(-0.139154 0.289577 0)
(-0.164215 0.314219 0)
(-0.168989 0.35712 0)
(-0.148299 0.428785 0)
(-0.0853432 0.484272 0)
(-0.0512373 0.570691 0)
(-0.0402169 0.771852 0)
(-0.0501756 1.10816 0)
(-0.0558571 1.53707 0)
(-0.0511157 1.84503 0)
(-0.0637997 1.9547 0)
(-0.0306679 1.77271 0)
(0.155808 1.167 0)
(0.232693 0.424064 0)
(0.195712 0.214757 0)
(0.148111 0.0851402 0)
(0.133159 0.0127778 0)
(0.141693 -0.0145181 0)
(0.102069 0.0370701 0)
(0.00871791 0.202513 0)
(-0.00472779 0.247125 0)
(0.00380898 0.0995912 0)
(0.00684383 0.10504 0)
(0.00810961 0.113674 0)
(0.00995873 0.12791 0)
(0.00761143 0.152197 0)
(-0.00258272 0.181573 0)
(-0.0405848 0.235756 0)
(-0.0966806 0.274708 0)
(-0.142134 0.303353 0)
(-0.172836 0.318702 0)
(-0.183871 0.328761 0)
(-0.171924 0.342677 0)
(-0.117198 0.364981 0)
(-0.065767 0.458744 0)
(-0.151995 0.531501 0)
(-0.266654 0.762526 0)
(-0.34467 1.10125 0)
(-0.336445 1.47632 0)
(-0.232118 1.7346 0)
(-0.122772 1.83207 0)
(0.0226003 1.5876 0)
(0.217731 0.92867 0)
(0.21418 0.413221 0)
(0.154175 0.273065 0)
(0.0845621 0.0849199 0)
(0.0753536 0.0178821 0)
(0.057723 0.00330428 0)
(-0.0243908 0.109851 0)
(-0.0318527 0.233395 0)
(-0.0111233 0.235618 0)
(0.00403571 0.0936675 0)
(0.00911921 0.101909 0)
(0.0146347 0.109687 0)
(0.0259742 0.122816 0)
(0.028687 0.157482 0)
(0.0257689 0.237527 0)
(-0.0465273 0.330687 0)
(-0.152013 0.349069 0)
(-0.212083 0.349129 0)
(-0.228386 0.335911 0)
(-0.216994 0.322156 0)
(-0.176564 0.303657 0)
(-0.103894 0.327338 0)
(-0.169281 0.472067 0)
(-0.304385 0.78385 0)
(-0.443659 0.990571 0)
(-0.519768 1.18641 0)
(-0.489981 1.38732 0)
(-0.346654 1.56161 0)
(-0.166363 1.63882 0)
(0.0346693 1.35504 0)
(0.156931 0.759783 0)
(0.113876 0.579609 0)
(0.0125335 0.332596 0)
(-0.0112678 0.105742 0)
(-0.00801213 0.0233328 0)
(-0.050745 0.0481795 0)
(-0.0613009 0.137155 0)
(-0.0426252 0.200405 0)
(-0.0108817 0.202247 0)
(0.00130412 0.0906698 0)
(0.0104277 0.111113 0)
(0.023203 0.100403 0)
(0.0440419 0.108765 0)
(0.0885584 0.177658 0)
(0.134907 0.164537 0)
(0.126286 0.402321 0)
(-0.0405139 0.433078 0)
(-0.216025 0.360457 0)
(-0.280106 0.328616 0)
(-0.282454 0.31263 0)
(-0.236639 0.277216 0)
(-0.320999 0.308973 0)
(-0.465176 0.747576 0)
(-0.535718 0.940544 0)
(-0.548585 1.10454 0)
(-0.547493 1.28099 0)
(-0.509048 1.38787 0)
(-0.414085 1.4583 0)
(-0.27317 1.5364 0)
(-0.102941 1.29855 0)
(-0.0616041 0.918918 0)
(-0.0762012 0.696283 0)
(-0.0217875 0.405945 0)
(0.015751 0.133305 0)
(-0.00237073 0.0485308 0)
(-0.0295041 0.0779065 0)
(-0.0372594 0.12407 0)
(-0.027202 0.174525 0)
(-0.00584697 0.177825 0)
(0.00178324 0.0989639 0)
(0.00836699 0.0654218 0)
(0.0122092 0.100421 0)
(0.058183 0.0900821 0)
(0.0884702 0.00717375 0)
(0.191156 0.237182 0)
(0.25892 0.480498 0)
(0.270045 0.709029 0)
(0.0167095 0.653874 0)
(-0.245181 0.405828 0)
(-0.381168 0.250466 0)
(-0.512966 0.278585 0)
(-0.70836 0.515371 0)
(-0.784934 0.758232 0)
(-0.703719 0.846819 0)
(-0.634493 1.0167 0)
(-0.564909 1.2192 0)
(-0.527052 1.37538 0)
(-0.496282 1.4557 0)
(-0.416697 1.45018 0)
(-0.30456 1.23608 0)
(-0.226855 0.872613 0)
(-0.0967282 0.571638 0)
(0.0446765 0.265137 0)
(0.0730086 0.117473 0)
(0.0449616 0.0825476 0)
(0.010531 0.0980295 0)
(-0.00749358 0.128528 0)
(-0.0118808 0.167928 0)
(-0.000334068 0.167001 0)
(-0.000489349 0.0657573 0)
(-0.00660049 0.0757318 0)
(-0.0149441 0.0355931 0)
(-0.00758984 0.0142617 0)
(-0.0159246 0.0262257 0)
(0.0147349 0.0938663 0)
(0.148531 0.348248 0)
(0.265757 0.749562 0)
(0.165965 0.932284 0)
(-0.191729 0.812382 0)
(-0.539005 0.605641 0)
(-0.770009 0.549977 0)
(-0.886567 0.591861 0)
(-0.86538 0.670192 0)
(-0.783177 0.780771 0)
(-0.66124 0.905106 0)
(-0.579584 1.12933 0)
(-0.535483 1.30102 0)
(-0.508157 1.34899 0)
(-0.447575 1.31658 0)
(-0.328956 1.09955 0)
(-0.145551 0.696573 0)
(0.0327048 0.378494 0)
(0.105724 0.190106 0)
(0.104125 0.131398 0)
(0.070209 0.119173 0)
(0.0352598 0.127826 0)
(0.0120559 0.143874 0)
(0.000178737 0.170114 0)
(0.00358006 0.164862 0)
(-0.0177055 0.0935661 0)
(-0.0174302 0.103348 0)
(-0.0351919 0.0784452 0)
(-0.0547037 0.061021 0)
(-0.0804871 0.0327054 0)
(-0.0953058 0.0376197 0)
(-0.0453955 0.189361 0)
(0.0972363 0.644116 0)
(0.146772 1.05849 0)
(-0.10602 1.10154 0)
(-0.468247 0.9434 0)
(-0.67323 0.696239 0)
(-0.754006 0.605335 0)
(-0.748619 0.58614 0)
(-0.690375 0.655753 0)
(-0.600503 0.796881 0)
(-0.561807 1.07083 0)
(-0.524122 1.27561 0)
(-0.485044 1.31856 0)
(-0.387726 1.2147 0)
(-0.188422 0.901986 0)
(0.0261064 0.512839 0)
(0.1212 0.265993 0)
(0.135742 0.189562 0)
(0.108601 0.164349 0)
(0.0736303 0.156249 0)
(0.0430044 0.157085 0)
(0.0210319 0.162542 0)
(0.00701746 0.177167 0)
(0.00512715 0.168821 0)
(-0.0147847 0.113958 0)
(-0.0216312 0.110686 0)
(-0.0377945 0.0941026 0)
(-0.0563616 0.0811276 0)
(-0.0859849 0.0673281 0)
(-0.120678 0.0592804 0)
(-0.138572 0.113801 0)
(-0.060389 0.509226 0)
(0.0960716 1.1438 0)
(-0.0178967 1.33272 0)
(-0.256176 1.19145 0)
(-0.449302 0.870005 0)
(-0.546093 0.657462 0)
(-0.577933 0.564487 0)
(-0.56542 0.591524 0)
(-0.547346 0.775405 0)
(-0.533279 1.02884 0)
(-0.498522 1.22591 0)
(-0.394468 1.23781 0)
(-0.225649 1.04241 0)
(-0.00548426 0.688515 0)
(0.129051 0.361316 0)
(0.14899 0.256135 0)
(0.124303 0.219559 0)
(0.0923212 0.200597 0)
(0.0627982 0.188545 0)
(0.0390897 0.18181 0)
(0.0216496 0.180206 0)
(0.00908033 0.185936 0)
(0.00523321 0.175477 0)
(-0.00945211 0.129397 0)
(-0.0212171 0.120434 0)
(-0.0355228 0.109951 0)
(-0.0538049 0.10454 0)
(-0.0818684 0.103354 0)
(-0.118315 0.10421 0)
(-0.16223 0.128517 0)
(-0.167128 0.35439 0)
(-0.00433228 1.06928 0)
(0.0502236 1.45866 0)
(-0.0611977 1.35687 0)
(-0.206334 1.04149 0)
(-0.351947 0.768753 0)
(-0.407875 0.591059 0)
(-0.433852 0.589742 0)
(-0.47922 0.76931 0)
(-0.478477 1.02812 0)
(-0.377837 1.11607 0)
(-0.230493 1.07666 0)
(-0.0464578 0.851424 0)
(0.115195 0.503734 0)
(0.139963 0.339961 0)
(0.117597 0.281512 0)
(0.0898423 0.251374 0)
(0.0635432 0.228716 0)
(0.0427023 0.210798 0)
(0.0273373 0.199012 0)
(0.0161708 0.193494 0)
(0.00765814 0.193654 0)
(0.00484504 0.182388 0)
(-0.00777269 0.144462 0)
(-0.0225636 0.133294 0)
(-0.0367659 0.125733 0)
(-0.0540648 0.126167 0)
(-0.0792678 0.135751 0)
(-0.11587 0.152212 0)
(-0.156678 0.179528 0)
(-0.196733 0.293764 0)
(-0.134428 0.918098 0)
(0.0602538 1.46282 0)
(0.0608043 1.42554 0)
(-0.0163424 1.19121 0)
(-0.170859 0.913196 0)
(-0.251212 0.662313 0)
(-0.329086 0.629865 0)
(-0.361108 0.7644 0)
(-0.315152 0.954967 0)
(-0.192153 1.02273 0)
(-0.0519875 0.920384 0)
(0.0957123 0.678806 0)
(0.124702 0.456605 0)
(0.107773 0.357537 0)
(0.0834944 0.31209 0)
(0.0575995 0.276803 0)
(0.0376151 0.24742 0)
(0.0233505 0.224113 0)
(0.0138253 0.207965 0)
(0.00816722 0.199622 0)
(0.00457461 0.197229 0)
(0.00420821 0.187634 0)
(-0.00771288 0.159918 0)
(-0.0233233 0.147625 0)
(-0.0374463 0.140663 0)
(-0.0531364 0.145633 0)
(-0.0771238 0.166023 0)
(-0.113848 0.195913 0)
(-0.158241 0.234234 0)
(-0.187207 0.304811 0)
(-0.218421 0.72011 0)
(-0.00939818 1.34741 0)
(0.0742181 1.3907 0)
(0.0684526 1.26764 0)
(-0.0303013 1.04867 0)
(-0.113892 0.750231 0)
(-0.149175 0.68278 0)
(-0.166391 0.781115 0)
(-0.121824 0.866729 0)
(-0.0300355 0.877906 0)
(0.0757846 0.792047 0)
(0.121756 0.614744 0)
(0.110657 0.469519 0)
(0.0852605 0.394532 0)
(0.0567544 0.340836 0)
(0.0349741 0.297372 0)
(0.019683 0.262175 0)
(0.00926528 0.234121 0)
(0.00291258 0.21371 0)
(0.000353769 0.201635 0)
(0.000536702 0.19667 0)
(0.00253234 0.190156 0)
(-0.00703209 0.174693 0)
(-0.0220348 0.163676 0)
(-0.0355633 0.154469 0)
(-0.0461144 0.162552 0)
(-0.0691374 0.198264 0)
(-0.110144 0.239514 0)
(-0.162794 0.289821 0)
(-0.20455 0.354617 0)
(-0.249189 0.609135 0)
(-0.155234 1.23025 0)
(-0.00566897 1.35039 0)
(0.0515597 1.3087 0)
(0.0675543 1.11362 0)
(0.0542954 0.829552 0)
(-0.00604312 0.715092 0)
(-0.0775082 0.765106 0)
(-0.0731986 0.799482 0)
(-0.0203926 0.780574 0)
(0.0532476 0.712077 0)
(0.0906649 0.606065 0)
(0.0866541 0.507793 0)
(0.0596076 0.426908 0)
(0.0353287 0.363729 0)
(0.0182642 0.313791 0)
(0.00660176 0.273515 0)
(-0.000887275 0.241478 0)
(-0.00502134 0.21754 0)
(-0.00591629 0.202041 0)
(-0.00370112 0.194306 0)
(0.000323192 0.189986 0)
(-0.00367901 0.185867 0)
(-0.0178537 0.182365 0)
(-0.0306024 0.161368 0)
(-0.0265949 0.168833 0)
(-0.0461989 0.239907 0)
(-0.0988796 0.291948 0)
(-0.15793 0.349646 0)
(-0.226887 0.428635 0)
(-0.298735 0.586435 0)
(-0.259115 1.05746 0)
(-0.078183 1.20211 0)
(0.0334042 1.18332 0)
(0.151014 1.08722 0)
(0.0874224 0.874208 0)
(-0.0159916 0.781612 0)
(-0.0393631 0.785424 0)
(-0.0388167 0.771225 0)
(-0.0113532 0.733888 0)
(0.0234602 0.67514 0)
(0.0436404 0.602042 0)
(0.0437667 0.526601 0)
(0.0313358 0.449218 0)
(0.0164981 0.381428 0)
(0.00466501 0.326149 0)
(-0.00331994 0.281564 0)
(-0.00805632 0.246253 0)
(-0.010281 0.219572 0)
(-0.010023 0.201003 0)
(-0.00670249 0.190634 0)
(-0.00152827 0.187032 0)
(0.00783667 0.182327 0)
(-0.00587109 0.208279 0)
(-0.0186779 0.157897 0)
(-0.0107319 0.180584 0)
(-0.0386424 0.318132 0)
(-0.0784245 0.374797 0)
(-0.127685 0.448147 0)
(-0.230845 0.565237 0)
(-0.259525 0.638924 0)
(-0.255972 0.909434 0)
(-0.0659067 1.03695 0)
(0.0712422 1.07315 0)
(0.101533 1.03818 0)
(0.0769275 0.908485 0)
(0.0505876 0.826978 0)
(0.0161534 0.80353 0)
(-0.000444108 0.769531 0)
(-0.00107622 0.72199 0)
(0.00477398 0.661787 0)
(0.00943539 0.596711 0)
(0.00926866 0.530328 0)
(0.00577638 0.460033 0)
(-4.4307e-05 0.392342 0)
(-0.00579352 0.334071 0)
(-0.00980531 0.286443 0)
(-0.0118496 0.248733 0)
(-0.0125209 0.220267 0)
(-0.0115623 0.199106 0)
(-0.00793943 0.186474 0)
(-0.00271973 0.182195 0)
(0.0172929 0.169844 0)
(-0.00278389 0.309372 0)
(-0.0361836 0.165358 0)
(-0.0583458 0.147626 0)
(-0.0551264 0.253177 0)
(-0.00383125 0.309512 0)
(0.0130991 0.415377 0)
(-0.0366638 0.591001 0)
(-0.102375 0.625891 0)
(-0.184822 0.796038 0)
(0.00955982 0.8955 0)
(0.0677199 1.01496 0)
(0.110815 0.992871 0)
(0.128244 0.923433 0)
(0.103341 0.878886 0)
(0.0619782 0.84383 0)
(0.0275 0.794973 0)
(0.00639542 0.732986 0)
(-0.00333703 0.664875 0)
(-0.00825192 0.597992 0)
(-0.0107615 0.530345 0)
(-0.0115298 0.462346 0)
(-0.0119708 0.396272 0)
(-0.0122347 0.337237 0)
(-0.0121341 0.288157 0)
(-0.0115284 0.249249 0)
(-0.011124 0.22019 0)
(-0.0100356 0.197147 0)
(-0.00717944 0.182868 0)
(-0.0030546 0.176955 0)
(0.0234383 0.15608 0)
(-0.0701167 0.331743 0)
(-0.173745 0.111141 0)
(-0.185986 0.19675 0)
(-0.113777 0.245601 0)
(-0.00293918 0.304602 0)
(0.0931323 0.484507 0)
(0.146467 0.711535 0)
(0.0964884 0.870847 0)
(-0.0195871 0.759113 0)
(0.0366659 0.812535 0)
(0.112159 0.950921 0)
(0.159986 0.966021 0)
(0.174685 0.944907 0)
(0.151761 0.920898 0)
(0.104739 0.888376 0)
(0.0491828 0.830827 0)
(0.0110215 0.750915 0)
(-0.00657095 0.675905 0)
(-0.0162638 0.604405 0)
(-0.0213929 0.532348 0)
(-0.0224665 0.461634 0)
(-0.0197681 0.394953 0)
(-0.0153551 0.335635 0)
(-0.0108214 0.286447 0)
(-0.00708961 0.247829 0)
(-0.00561477 0.219724 0)
(-0.00493852 0.195989 0)
(-0.0044582 0.181452 0)
(-0.00261643 0.172392 0)
(-0.0749165 0.123083 0)
(-0.0475858 0.516676 0)
(-0.155284 0.24365 0)
(-0.143522 0.130004 0)
(-0.0635695 0.10802 0)
(0.0319142 0.153557 0)
(0.153243 0.30918 0)
(0.306149 0.623892 0)
(0.384084 0.922307 0)
(0.319777 0.829726 0)
(0.105895 0.795757 0)
(0.194867 0.900286 0)
(0.229503 0.944326 0)
(0.238489 0.955645 0)
(0.21548 0.959223 0)
(0.158997 0.94435 0)
(0.0735661 0.880863 0)
(0.0163569 0.776695 0)
(-0.00701719 0.687027 0)
(-0.018385 0.613011 0)
(-0.0270798 0.537859 0)
(-0.0303883 0.460474 0)
(-0.0261497 0.389941 0)
(-0.0174948 0.329324 0)
(-0.00777347 0.280575 0)
(0.000567629 0.243641 0)
(0.0041406 0.218665 0)
(0.00463824 0.195957 0)
(-0.000564842 0.185403 0)
(-0.00303129 0.168992 0)
(-0.0824709 0.202738 0)
(0.0148428 0.558092 0)
(-0.0209714 0.263947 0)
(-0.00775304 0.0787988 0)
(0.0291749 0.0394957 0)
(0.0758249 0.070734 0)
(0.148439 0.160703 0)
(0.29876 0.411714 0)
(0.484504 0.887789 0)
(0.553868 1.04255 0)
(0.368606 0.904655 0)
(0.313937 0.852592 0)
(0.322213 0.933737 0)
(0.306287 0.971014 0)
(0.276405 1.00597 0)
(0.222439 1.04559 0)
(0.121163 0.985636 0)
(0.0402054 0.822382 0)
(0.0136573 0.702455 0)
(-0.00506733 0.628063 0)
(-0.0272788 0.549005 0)
(-0.0377937 0.460801 0)
(-0.0337883 0.382012 0)
(-0.0213392 0.318091 0)
(-0.00589493 0.269281 0)
(0.00917509 0.234653 0)
(0.0175945 0.215963 0)
(0.0226652 0.193525 0)
(0.00248465 0.198373 0)
(-0.00806382 0.161612 0)
(-0.0925429 0.195562 0)
(0.0665636 0.511797 0)
(0.114766 0.256134 0)
(0.121821 0.0726009 0)
(0.12903 0.0237126 0)
(0.134693 0.0447244 0)
(0.155014 0.0989592 0)
(0.236539 0.234119 0)
(0.392824 0.66695 0)
(0.64725 1.03006 0)
(0.614027 1.04765 0)
(0.407798 0.910838 0)
(0.359052 0.95675 0)
(0.317442 1.0028 0)
(0.285628 1.06585 0)
(0.26157 1.12843 0)
(0.243416 1.0753 0)
(0.157815 0.925261 0)
(0.0965725 0.73826 0)
(0.0384583 0.667068 0)
(-0.0211754 0.573862 0)
(-0.0482617 0.464746 0)
(-0.0474613 0.371624 0)
(-0.0301483 0.301694 0)
(-0.00970373 0.252078 0)
(0.0117297 0.2186 0)
(0.0251074 0.211236 0)
(0.0405641 0.20044 0)
(-0.005573 0.295453 0)
(-0.00818109 0.150712 0)
(-0.0654337 0.214264 0)
(0.0470088 0.347303 0)
(0.174335 0.198963 0)
(0.189694 0.0617775 0)
(0.177735 0.029073 0)
(0.167712 0.0440253 0)
(0.17384 0.0726092 0)
(0.217543 0.148988 0)
(0.344772 0.411866 0)
(0.654566 0.806802 0)
(0.774089 1.0484 0)
(0.534358 1.06142 0)
(0.322864 1.04413 0)
(0.251319 1.04909 0)
(0.233207 1.06435 0)
(0.256796 1.09778 0)
(0.309661 1.05439 0)
(0.312375 0.955654 0)
(0.24617 0.804701 0)
(0.0835162 0.776917 0)
(-0.02293 0.657627 0)
(-0.0713781 0.471067 0)
(-0.0698355 0.354798 0)
(-0.0496242 0.280553 0)
(-0.0231044 0.230927 0)
(0.000236015 0.197408 0)
(0.0149205 0.198326 0)
(0.0884558 0.188509 0)
(-0.0434867 0.238634 0)
(-0.0352743 0.177499 0)
(-0.0215618 0.246894 0)
(0.0243049 0.177795 0)
(0.180097 0.111813 0)
(0.210883 0.0589624 0)
(0.198846 0.0480486 0)
(0.176749 0.0555261 0)
(0.173785 0.0534925 0)
(0.214963 0.0796866 0)
(0.344038 0.215038 0)
(0.60302 0.496313 0)
(0.787084 1.03333 0)
(0.67714 1.27412 0)
(0.377471 1.13833 0)
(0.232478 1.07428 0)
(0.209041 1.01282 0)
(0.237206 1.00544 0)
(0.283422 0.979507 0)
(0.272061 0.953195 0)
(0.177639 0.910745 0)
(-0.0868812 0.935122 0)
(-0.28368 0.703878 0)
(-0.154116 0.514655 0)
(-0.101198 0.330979 0)
(-0.0790159 0.248672 0)
(-0.0486936 0.207946 0)
(-0.026499 0.175436 0)
(-0.00968419 0.168665 0)
(0.0664737 0.186719 0)
(-0.0557566 0.42561 0)
(0.0316172 -0.00735197 0)
(0.0396146 0.247492 0)
(0.0966966 0.0734978 0)
(0.193242 0.0443964 0)
(0.234652 0.0483377 0)
(0.224486 0.0758746 0)
(0.17208 0.0913204 0)
(0.140836 0.0422489 0)
(0.183779 -0.00161604 0)
(0.310765 0.0273333 0)
(0.558135 0.238523 0)
(0.841714 1.11312 0)
(0.784283 1.78287 0)
(0.477178 1.56366 0)
(0.240622 1.30866 0)
(0.128649 1.09076 0)
(0.0727604 1.03953 0)
(0.0367101 1.07004 0)
(-0.0380838 1.15414 0)
(-0.156799 1.2107 0)
(-0.362504 1.27424 0)
(-0.469913 0.868602 0)
(-0.368955 0.234926 0)
(-0.183502 0.253657 0)
(-0.113846 0.198735 0)
(-0.0836346 0.183986 0)
(-0.0622662 0.157411 0)
(-0.0462534 0.137883 0)
(0.0202025 0.174838 0)
(-0.0470161 0.418058 0)
(0.0767747 0.0620812 0)
(0.135842 0.166911 0)
(0.173662 -0.0170251 0)
(0.249748 -0.0116928 0)
(0.289754 0.0319721 0)
(0.277556 0.112811 0)
(0.15685 0.187128 0)
(0.0581179 0.0337974 0)
(0.0908231 -0.0892629 0)
(0.194545 -0.150022 0)
(0.37264 -0.0132206 0)
(0.602303 1.08858 0)
(0.531167 1.85929 0)
(0.384748 1.77068 0)
(0.196463 1.50627 0)
(0.0178918 1.28391 0)
(-0.130555 1.18968 0)
(-0.21873 1.17767 0)
(-0.268518 1.22257 0)
(-0.297966 1.29131 0)
(-0.309847 1.30612 0)
(-0.283463 0.843525 0)
(-0.271113 0.270069 0)
(-0.1419 0.109255 0)
(-0.104046 0.16111 0)
(-0.105108 0.171141 0)
(-0.102141 0.147908 0)
(-0.0938017 0.116113 0)
(-0.0432168 0.152141 0)
(-0.0643733 0.378611 0)
(0.0811919 0.0672499 0)
(0.157525 -0.0141433 0)
(0.229409 -0.114062 0)
(0.30664 -0.0779465 0)
(0.345906 -0.00294192 0)
(0.3591 0.193881 0)
(0.157769 0.32332 0)