/*--------------------------------*- C++ -*----------------------------------*\
| =========                 |                                                 |
| \\      /  F ield         | OpenFOAM: The Open Source CFD Toolbox           |
|  \\    /   O peration     | Version:  v1606+                                |
|   \\  /    A nd           | Web:      www.OpenFOAM.com                      |
|    \\/     M anipulation  |                                                 |
\*---------------------------------------------------------------------------*/
FoamFile
{
    version     2.0;
    format      ascii;
    class       volScalarField;
    location    "1.1";
    object      alpha.water;
}
// * * * * * * * * * * * * * * * * * * * * * * * * * * * * * * * * * * * * * //

dimensions      [0 0 0 0 0 0 0];

internalField   nonuniform List<scalar> 
11640
(
0.999999852527
0.999999833316
0.99999983984
0.999999723278
0.999999800206
0.999999774831
0.999999525358
0.999999786244
0.999999815192
0.999999853677
0.999999501898
0.999999508263
0.999999637087
0.999999667028
0.999999685101
0.999999653848
0.999999741218
0.999999819992
0.999999798325
0.999999802563
0.999999945393
0.999999876549
0.999999859812
0.999999665318
0.999999852746
0.999999873073
0.999999828273
0.999999632755
0.999999695469
0.999999861897
0.999999450853
0.999998994062
0.999999637517
0.999999680372
0.999999718501
0.999999693027
0.999999809289
0.999999811785
0.999999803892
0.999999806895
0.999999893287
0.99999980872
0.999999858631
0.999999700117
0.999999892185
0.999999848707
0.999999954049
0.999999903728
0.999999951482
0.999999892409
0.999998934465
0.999999110175
0.999999272866
0.999999521624
0.999999719944
0.999999833046
1.00000001762
0.999999917449
0.999999792773
0.99999979548
0.999999954638
0.999999887304
0.999999920388
0.999999806991
0.999999903429
0.999999861186
0.999999962194
0.999999964882
0.999999962939
0.999999693083
0.999998899694
0.999998900486
0.999999564048
0.999999634917
0.999999576095
1.00000005588
1.00000000006
1.00000000177
0.999999937846
0.999999742059
0.999999956033
0.999999962566
0.999999965432
0.999999965435
0.999999922017
0.999999934059
0.999999965598
0.99999996595
0.999999905512
0.999999735678
0.999998933335
0.999999206562
0.999999267723
0.999999737583
0.999999352651
0.999999606973
1.00000000575
1.00000000483
1.00000000466
0.999999725326
0.999999957072
0.999999943418
0.999999956262
0.999999965415
0.999999945579
0.999999937623
0.999999967085
0.999999940458
0.999999283128
0.999999044897
0.99999893163
0.999998933951
0.999999557636
0.999999480026
0.999999365342
1.00000010049
1.00000003097
1.00000000326
1.00000000415
0.999999892138
0.999999925296
0.999999952832
0.999999962722
0.999999964051
0.999999887995
0.999999939077
0.999999948762
0.99999937103
0.999998777017
0.999999033966
0.999999645352
0.999998984201
0.999999307945
0.999999524646
0.99999995771
1.0000000006
1.0000000895
1.0000000513
1.00000000109
0.999999897739
0.999999933
0.999999932904
0.999999962729
0.999999962788
0.99999993375
0.99999924295
0.999998687345
0.999998617586
0.999998892487
0.99999942493
0.99999886046
0.9999998324
0.999999815662
1.00000043146
1.00000002388
1.00000049843
0.999999843894
0.999999944778
1.00000000171
0.999999965262
0.999999816721
0.999999889166
0.99999990569
0.999999848963
0.99999924547
0.999998563202
0.999998642913
0.999998605807
0.999999465501
0.999999500415
1.00000019395
1.0000000005
1.00000077528
1.00000000121
1.00000057771
0.999999977634
0.999999770495
0.999999947953
1.00000002189
0.999999978395
0.999999478746
0.999999654815
0.999999602653
0.999998653149
0.999998428786
0.999998514618
0.999998975164
0.999998796857
0.99999899247
1.00000073387
1
1.00000078643
1.00000000156
1.00000078442
1
1.00000094993
0.999999668393
1.00000007041
1.00000000794
0.999999970821
0.999999156713
0.999999619323
0.999999341123
0.999998714136
0.999998455384
0.999998658759
0.999999155713
0.999999120566
1.00000118063
1
1.00000082226
1.00000000596
1.00000070599
1
1.0000008081
1.00000005146
1.00000830561
1.00000006738
1.00000006563
0.999999507137
0.999999682973
0.999999015329
0.999998368522
0.999998446835
0.999998809008
0.999999844348
0.999999955542
1.00000276774
1
1.00000136594
1.00000001613
1.00000091746
1
1.00000058967
1.00000006216
1.00000719755
1.00000045676
1.00000336811
0.999999709143
0.999999268214
0.99999993755
0.999998893835
0.999999122092
0.999998845704
0.999999542452
1.00000007367
1.00000139713
1.00000000021
1.0000008925
1.00000001906
1.00000087441
1
1.00000042757
1.00000001625
1.00000682572
1.00000041862
1.00000152573
1.00000020612
1.00000037974
0.999999245351
0.999999946821
0.999999745262
0.999999380857
0.999999844912
1.00000009927
1.00000042892
1.00000000355
1.00000044391
1.00000003275
1.00000066396
0.999999987331
1.00000038864
0.999999916961
1.00000537767
1.00000041945
1.00000226702
1.00000009628
1.0000003882
1.00000002186
0.999999203678
0.999999990031
0.999999912092
0.999999654781
1.00000010161
1.00000013731
1.0000000183
1.00000021364
1.00000004283
1.00000061113
1
1.00000028944
0.999999925015
1.00000415666
1.00000039153
1.000002411
1.00000018297
1.00000005669
1.00000001369
0.999999976704
0.999999171902
0.999999986801
0.999999906288
1.00000003548
1.00000001895
1.00000001768
1.00000007619
1.00000001105
1.00000036761
0.999999999972
1.00000025818
0.999999991901
1.00000348954
1.00000045299
1.00000242027
1.00000016768
1.00000034697
1.00000000118
1.00000001278
0.99999999145
0.99999940512
0.999999971626
0.999999906249
1.00000000357
1.00000000225
1.00000004386
1.00000001611
1.00000001817
0.999999994096
0.999999582571
0.999999767511
1.0000000148
0.99999996367
1.00000060649
1.00000013291
1.00000036723
1.00000002571
1.00000001856
0.999999843115
0.999999805555
0.999999002969
0.999999997505
0.999999953429
1.00000000337
1.00000000752
1.00000001104
1.0000000647
1.00000000228
1.00000000444
0.99999985226
0.999999792626
0.999999843379
0.999999959992
0.999999944683
1.00000040541
1.0000000436
1.00000006014
0.999999572679
0.999999250477
0.999999292225
0.999998962512
0.999999995413
0.999999883995
0.999999890244
0.999999602878
1.00000003713
1.0000000168
1.00000003043
0.999999926688
1
1.00000001337
0.999999943276
0.999999983405
0.999999990476
0.999999969955
0.999999840195
0.999999679101
0.99999950851
0.99999920389
0.999998827258
0.999998779487
0.99999958037
0.999999484586
0.999999484559
0.999999484559
0.999999516755
0.999999834971
0.999999926273
0.9999999259
0.999999997046
0.999999934234
0.999999935202
0.999999970953
0.999999967359
0.999999815064
0.999999281062
0.999999306672
0.999999308482
0.999999194901
0.999998923488
0.999998799878
0.999999724239
0.999999736894
0.999999755728
0.999999664768
0.999999619361
0.999999431306
0.999999264676
0.999999328509
0.999999548581
0.999999628695
0.999999545376
0.999999455901
0.999999454534
0.999999429789
0.999999638694
0.999999482306
0.999999551795
0.999999810783
0.999999797531
0.999999807665
0.999999945393
0.99999976276
0.999999702639
0.999999557268
0.999999727507
0.999999910692
0.999999918623
0.999999717787
0.999999005194
0.999999758193
0.999999032322
0.999998918094
0.999999569943
0.999999468222
0.999999685193
0.99999998221
1.00000005096
1.00000000714
0.999999940274
0.999999837485
0.999999923745
0.999999841404
0.999999769739
0.999999825225
0.999999793744
0.999999846078
0.999999929598
0.999999694986
0.999999483355
0.999999841301
0.999999139384
0.999999521853
0.999999338513
0.999999986381
1.00000001675
1.00000005346
1.00000001621
1.00000003033
0.999999991585
0.999999790415
0.999999955697
0.999999940551
0.999999965022
0.999999964978
0.999999962717
0.999999949487
0.999999858272
0.999999960999
0.999999547257
0.999999777871
0.999999660842
0.999999695859
0.999999875001
1.00000000769
1.00000026509
1.00000004217
1.00000010126
1.0000000005
1.00000001558
0.999999908029
0.999999959521
0.999999960574
0.999999964114
0.999999965452
0.999999958624
0.999999862636
0.999999939165
0.999999535876
0.999999003585
0.999998437809
0.999999262663
0.999999856809
1.00000001375
1.00000108083
0.999999945378
1.00000014505
1.00000006981
1.00000000747
1.00000000288
0.999999908871
0.999999957638
0.999999943104
0.999999965413
0.999999963875
0.999999911583
0.999999754458
0.999999637808
0.999998777185
0.999998872197
0.999998599321
0.999999821386
0.99999993954
1.0000020823
0.999999983991
1.00000102667
0.999999903302
1.00000005132
0.999999949425
1.00000001005
0.999999980469
0.999999953845
0.99999982137
0.999999737063
0.999999964469
0.999999117202
0.999998609072
0.999998812344
0.999999101135
0.999998659157
0.999999610673
0.999999963313
1.00000353652
1.00000000332
1.00000204097
1.00000000877
1.00000080434
0.999999876634
0.999999883416
0.999999946415
1
0.999999950066
0.999999371907
0.999999722617
0.999999596143
0.999998653758
0.999998530391
0.999999133776
0.999999147263
0.999999704944
0.999999985604
1.00000429587
1.00000000047
1.00000217114
1.00000000142
1.00000139066
0.999999980421
0.999999740196
0.999999768138
0.999999863036
1.00000000006
0.999999727641
0.999999716747
0.999999773192
0.999997825076
0.99999862604
0.999999384545
0.999998893091
0.99999911063
0.99999990088
1.00000478202
1
1.00000209075
1.00000000424
1.00000184079
1
1.00000076016
0.999999628241
0.999999976009
1.00000000499
0.999999967042
0.999999706553
0.999999718548
0.999998401889
0.999997815702
0.999998712062
1.0000000196
0.999999298871
0.999999027893
1.0000046093
1
1.00000206067
1.00000001431
1.00000139694
1
1.00000041412
0.999999985196
1.00000433579
0.999999743325
1.00000015856
0.999999999805
0.9999991632
0.999998047261
0.999998316682
0.999998152846
1.00000006823
1.00000025384
0.999999862114
1.00000410751
0.999999997838
1.00000208898
1.00000002643
1.00000110459
1
1.00000046791
0.999999928351
1.00000261244
1.00000019412
1.00000309286
1.00000000062
0.999999813334
0.999999225656
0.99999821413
0.999998531215
1.00000003217
1.00000020897
1.00000021101
1.00000305444
1.00000000134
1.00000233895
1.00000003691
1.00000117744
1.0000000001
1.00000035832
0.999999939894
1.00000185509
1.00000011749
1.0000020287
1.00000014864
1.00000131104
0.999999373666
0.999999113817
0.999998920063
0.999999440972
1.00000017651
1.00000029161
1.00000121065
1.00000001778
1.00000175135
1.00000005212
1.00000109154
1.00000000001
1.0000003603
0.99999984727
1.00000163149
1.00000012457
1.00000220067
1.00000018496
1.00000064031
1.00000006416
0.999999457108
0.999999594138
0.999998982736
0.999999997982
1.00000026893
1.00000052536
1.00000009786
1.0000013984
1.00000008684
1.00000086742
1
1.00000027795
0.999999942844
1.00000171697
1.00000014124
1.00000302263
1.00000024574
1.00000047921
1.00000004069
1.00000019145
0.999999209967
0.999999749122
0.999999819175
1.00000006751
1.00000026883
1.00000014967
1.00000105773
1.00000011475
1.00000101246
1.00000000038
1.00000020229
0.999999923878
1.00000202524
1.00000019294
1.00000351559
1.00000023464
1.00000194541
1.00000000618
1.00000003041
1.00000000229
0.999999171901
0.999999813226
0.999999777908
0.999999962008
1.00000005416
1.00000045414
1.00000009049
1.00000079557
1.00000000447
1.00000031119
1
1.00000198412
1.00000030247
1.0000044414
1.00000021926
1.00000227204
1.00000001371
1.00000001153
1.00000000144
0.999999894683
0.999999791624
0.999999924032
0.999999910155
0.999999926448
1.00000000919
1.00000001092
1.00000012472
0.999999976084
0.99999939625
0.999999800328
1.00000000035
0.999999975003
0.99999988305
1.00000003046
1.00000042453
1.00000003865
1.00000009802
1.00000000357
0.999999366196
0.999999813164
0.99999962891
0.999999969791
0.999999945671
0.999999999761
1.00000000657
1.00000000548
1.00000002878
0.999999924537
0.999999962681
0.999999995602
0.999999995253
0.999999743287
0.99999994781
0.999999625932
0.999999909307
0.999999817679
1.00000000495
0.999999798633
0.999999182111
0.999999178309
0.999999013998
0.999999996729
0.999999998998
0.999999945652
1.00000000152
1.00000000212
1.0000000038
1.00000000753
1.00000002651
0.999999748455
0.999999876471
0.999999886739
0.999999731459
0.999999999863
0.999999922598
1
0.999999821456
0.999999236823
0.999998803339
0.999998734713
0.999998735457
0.999999859901
0.999999718198
0.99999950249
0.999999548249
1
1.00000001606
1.00000002661
1.00000001997
0.999999850949
0.999999781615
0.999999896096
0.999999794744
0.999999748972
0.999999768871
0.999999655478
0.999999938514
0.99999909516
0.999998830421
0.999998953578
0.999998953578
0.999999493746
0.999999687654
0.999999710361
0.999999516314
0.99999952743
0.999999682403
0.99999918174
0.999998888158
0.999999153113
0.999999289108
0.999999246835
0.999999032867
0.999999353234
0.999999328415
0.999999428447
0.999999491815
0.999999756768
1.00000000052
0.999999871747
0.999999900547
0.999999904235
0.999999841751
0.999999592839
0.999999552007
0.999999732489
0.999999920317
0.99999992535
0.999998792476
0.999998806698
0.999999317429
0.999998883477
0.999998886535
0.999999372333
1.00000017651
1.0000000535
1.00000003066
1.00000000305
1.00000000753
1.0000000007
1.00000000505
0.999999937443
0.999999738106
0.999999781134
0.999999761639
0.999999960354
0.999999956271
0.999999895911
0.999998688702
0.999998921768
0.999999653201
0.999998920051
0.999999669387
0.999999862564
1.00000014468
1.00000010921
1.00000004806
1.00000010976
1.00000000975
0.999999999808
1.00000000343
0.999999917568
0.999999887002
0.999999866916
0.999999962401
0.999999963154
0.999999927528
0.999999836927
0.999999469702
0.99999933843
0.999999399886
0.999998806463
0.999999779683
1.00000014698
1.00000013415
1.00000002445
1.00000006644
1.00000003389
0.999999982947
1.00000000369
1.00000007817
0.999999957638
0.999999926935
0.999999891998
0.999999965452
0.999999965453
0.999999864965
0.999999777681
0.999998033481
0.999998873875
0.999997334921
0.999997829978
0.999999376029
1.00000088794
0.999999941737
1.00000070553
1.0000000021
0.999999973337
0.999999742039
0.999999908327
1.00000000805
0.999999677329
0.999999816719
0.999999775128
0.999999615486
0.999999818058
0.999998511596
0.999998390723
0.999998233143
0.999998277517
0.999998350933
0.999998752324
1.00000249908
1.00000001487
1.0000019251
1.00000000427
0.999999982944
0.999999909054
0.999999648646
0.999999793518
0.999999842853
0.999999950066
0.999999577957
0.99999965454
0.99999872511
0.999998054014
0.999997894759
0.999997888815
0.999998521437
0.999999133741
0.999999067505
1.00000570712
1.00000000707
1.00000329801
1.00000000008
1.00000170286
1.0000000018
0.999999636321
0.999999714434
0.999999751455
0.999999907009
0.999999914255
0.99999925823
0.99999883356
0.999997493404
0.99999764608
0.999998372722
0.999998902378
0.999999045228
0.999998986314
1.00000580514
1.00000000044
1.00000222957
1.00000000099
1.00000256893
1.00000000001
1.00000055175
0.999999702233
0.999999986753
0.999999903141
0.999999992537
0.999999873175
0.999999032102
0.999999080944
0.999996484186
0.999997797977
0.999999299721
0.999999264934
0.999999062079
1.00000482115
1
1.00000207339
1.00000000498
1.0000018101
1
1.00000037245
0.999999929785
1.00000228342
0.999999996749
0.999999899067
0.999999998999
0.999999721653
0.999998886807
0.999998179983
0.999998212818
1.00000005729
1.00000037117
0.999999284098
1.00000385233
1.00000000211
1.00000217132
1.00000001097
1.00000123826
1
1.00000056925
0.999999949155
1.00000150402
1.0000000818
1.00000155463
0.999999953117
0.999999827432
0.999998343325
0.999997583265
0.999998798401
1.0000000246
1.00000051087
1.00000008465
1.00000589734
1.00000001475
1.00000249928
1.00000001422
1.00000088052
1.00000000008
1.00000030723
1
1.0000004366
1.00000004817
1.0000024123
1.0000000865
0.999999809965
0.999999917476
0.999998560927
0.999998442097
1.00000000674
1.00000029761
1.00000003809
1.00000304004
1.00000003268
1.00000267804
1.00000001258
1.00000117252
1.00000000034
1.00000019384
1
1.00000034596
0.99999990945
1.00000208041
1.00000019766
1.00000075338
1.00000001341
1.00000006671
0.9999986538
1.00000000082
1.00000002465
1.0000000134
1.000000801
1.00000011869
1.00000281129
1.00000000702
1.00000128196
1.00000000005
1.00000046519
1.00000000007
1.00000032054
0.9999997892
1.0000027677
1.00000018172
1.00000140423
1.00000005101
1.00000027056
1.00000000174
0.99999921875
1.00000000688
1.00000001082
1.00000020601
1.00000024497
1.00000226622
0.999999994708
1.00000101069
1.00000000005
1.00000035458
0.999999950711
1.00000036547
0.99999998902
1.00000314022
1.00000018281
1.00000373271
1.00000003052
1.00000010815
1.00000001393
0.999999400499
0.999998720757
0.999999774401
1.00000000865
1.00000023143
1.00000133448
1.00000006159
1.00000121267
1.00000000944
1.00000023476
0.999999919294
1.00000084493
0.999999979504
1.00000445873
1.00000018118
1.00000549702
1.00000002868
1.00000004477
1.00000000395
0.999999937743
0.999999247756
0.999998720757
0.99999974789
0.999999894356
1.00000052522
1.00000007456
1.00000091842
1.00000001529
1.00000044471
1
1.00000083504
1.00000012932
1.00000581707
1.00000016396
1.00000642465
1.00000001967
1.00000012152
1.00000000726
1.00000002103
0.999999906309
0.999999204195
0.999999921691
0.999999930225
0.999999887963
1.00000000089
1.00000002556
0.99999992912
0.999999514437
0.999999714163
0.999999380486
0.999999832436
0.999999371987
0.99999923589
1.00000003746
0.999998850104
0.999999700948
0.999999735509
1.00000003396
0.999999805697
0.999999590841
0.999999174724
0.999999968403
0.99999985651
0.99999979923
1.00000000082
1.00000000337
0.999999976811
0.999999998962
0.999999602857
0.999999966017
0.999999598685
0.999999883161
0.999999511138
0.999998813916
0.99999942856
0.99999931756
1.00000001128
0.99999975558
0.999999245044
0.999998756326
0.999998880345
0.999999981925
0.999999817381
0.999999906422
0.999999975062
1.00000000164
1.00000000305
1.00000000119
0.999999997148
0.999999649601
0.999999824258
0.9999996216
0.999999790582
0.999999553413
0.99999942797
0.999999756487
0.999999919989
0.999998788365
0.999998748401
0.999998690087
0.999998916974
0.999999969821
0.999999693862
0.999999553043
0.999999550735
1.00000000535
1.00000000015
1.00000001329
0.999999940888
0.999999791357
0.999999769979
0.999999775542
0.999999822782
0.999999825096
0.999999674798
0.999999703486
0.999999464789
0.999998996104
0.999998711451
0.999998793689
0.999998933037
0.999999482698
0.999999669163
0.999999554193
0.999999257174
0.999999208819
0.999999469139
0.999999512863
0.999998976198
0.999999012697
0.999999066479
0.999998870584
0.99999887063
0.999998959777
0.999999321124
0.999999625358
0.999999789921
0.99999999681
1.00000000126
0.999999984868
0.999999921128
0.999999656248
0.99999980451
0.999999804687
0.999999677965
0.999999703974
0.999999859282
0.999999891464
0.99999899013
0.999998452061
0.999998851357
0.999998869154
0.999999058292
0.999999827521
1.00000000686
1.00000014095
1.00000000784
1.00000000462
1.00000000177
1.00000000887
1.0000000015
0.999999635314
0.99999968423
0.999999736702
0.999999913029
0.999999959092
0.99999988074
0.99999989043
0.999998160297
0.999998886013
0.999999574008
0.999999019456
0.999999720248
0.999999894856
1.00000038941
1.00000011465
1.00000001713
1.00000000434
1.00000000014
0.999999997443
1.0000000211
0.999999708714
0.999999663359
0.999999869431
0.999999963645
0.999999962613
0.99999995834
0.999999501779
0.999998353338
0.99999918454
0.999998914305
0.999997077942
0.999997348442
1.00000037181
1.0000000986
1.00000019493
1.00000001147
1.00000001852
0.999999999958
0.999999967308
1.00000001292
0.999999386242
0.999999562846
0.999999811593
0.999999964536
0.999999950557
0.999999939568
0.999997178022
0.999997402473
0.999998584662
0.999996845812
0.99999655357
0.999998153095
1.00000010266
1.00000064189
0.999999750095
0.999999898795
1.00000000851
0.999999512247
0.999999871804
0.999999953547
0.999998943096
0.99999947971
0.999999528731
0.999998799826
0.99999981136
0.999998569946
0.999996950885
0.99999820997
0.999997985057
0.999997099888
0.999997299506
0.999999169836
1.00000239458
1.00000000373
1.00000143805
0.999999898121
0.999999574711
0.999999480541
0.999999641749
0.999999776126
0.999999485813
0.99999907148
0.999998335215
0.999996460925
0.999998770924
0.99999879992
0.999997723279
0.999997820562
0.999998344429
0.999998841984
0.99999854376
1.00000271104
1.00000000539
1.00000209256
0.999999992949
1.00000037789
0.999999490956
0.999999678199
0.9999998877
0.99999957374
0.999999764165
0.999999661157
0.999997004445
0.999995948289
0.999997231445
0.99999854577
0.999997600337
1
1.00000047537
0.999999893932
1.00000141294
0.999999944087
0.999999944743
0.999999856325
0.999999430394
0.999998096175
0.999996311242
0.999996446888
0.999997681066
0.999999118511
0.999998131452
1.00000044406
1
1.00000068103
1.00000001887
0.99999975633
0.99999989253
0.999999743629
0.999999295015
0.999997993238
0.999999090664
1.00000000642
1.0000001372
0.999999950113
1.00000028992
1.00000030875
1.00000017323
0.999999966128
1.00000230812
0.999999734279
0.999999473594
0.999999816406
0.999999055606
0.999997583156
1.00000000023
1.00000019181
0.999999985096
1.00000302792
1.00000005861
1.00000004023
0.999999832172
1.0000016359
1.00000012577
1.00000093028
0.999999602413
0.999999605985
0.999998638692
0.999999250822
0.999999916471
1.0000000465
1.00000243525
1.0000000163
1.00000426273
1.00000000071
1.00000084699
1.00000072447
1.00000017876
1.00000000015
1.0000000997
0.999999944805
1.00000055196
1.00000009069
1.00000236324
1.00000007514
0.999999609207
0.9999996623
0.999998902939
0.999999797733
1.00000004075
1.00000074274
1.00000001214
1.00000268813
1.00000000359
1.00000151735
1.00000000011
1.00000046492
1.00000000021
1.00000021064
0.999999930208
0.999999817168
0.999999948079
1.00000418265
1.0000000391
1.00000030978
1.00000000361
0.999999810244
0.999998918744
1.00000000941
1.00000015123
1.00000001854
1.00000131326
1.00000002682
1.00000167646
1.0000000001
1.00000044534
0.999999983099
1.00000029221
0.999999930108
1.00000113209
0.999999749451
1.00000568095
1.00000002582
1.00000017319
1.00000001966
1.00000006422
0.999999700233
0.999998832438
1.00000001497
1.00000001187
1.00000065948
1.00000006167
1.00000162413
1.00000000379
1.00000035861
0.999999963298
1.00000023165
0.999999800613
1.00000322853
0.999999934847
1.00000862304
1.00000001627
1.0000004827
1.00000000428
1.00000003692
1.00000000721
0.999999662041
0.999999065626
0.999999690644
1.00000017406
1.00000008226
1.00000109187
1.0000000146
1.00000054642
1
1.00000035515
1
1.0000045868
1.0000000026
1.00001113269
1.00000001048
1.00000058683
1.00000000267
1.0000000294
1.00000000474
0.999999421973
0.999999065946
0.999999543675
0.999999928701
0.999999999999
0.999999927919
0.999999742009
0.999999718811
0.999999970812
0.999999262294
0.999999495601
0.999999788025
0.999999816814
0.999999525116
0.999998978711
0.999998309476
0.999998864621
0.999998690344
0.99999980806
0.999999541744
0.999999340219
0.999999119697
0.999999998621
0.999999914967
0.999999790773
0.999999983819
0.999999974784
1.00000000055
0.99999958004
0.999999601862
0.999999311052
0.999999946836
0.999999124687
0.999998516304
0.999998597836
0.999999475533
0.999998802816
0.999999707774
0.999999658138
0.999999450284
0.999998633653
0.999998566422
0.999999923448
0.999999946337
0.999999802943
0.999999667021
0.999999992889
1.00000000744
1.00000000007
0.999999376232
0.999999926486
0.999999595414
0.999999829807
0.999999779677
0.999998999867
0.99999948358
0.999999482762
0.999999853183
0.999999005075
0.999998676411
0.999998677079
0.999998669383
0.999999969922
0.999999915194
0.999999709587
0.999999692682
0.999999863446
1.00000000538
1.00000000012
0.999999972721
0.999999693265
0.999999668741
0.999999489622
0.999999891242
0.999999436226
0.999999182532
0.999999152785
0.999999168352
0.999998912254
0.999999040834
0.99999895829
0.999999098428
0.999999452565
0.999999629896
0.999998990501
0.999999436947
0.999998703175
0.999999520673
0.999999234292
0.999998158787
0.999998918769
0.999998716478
0.99999877433
0.999999341489
0.999999203599
0.999999415303
0.999999529169
1.00000000084
1.00000002633
1.0000000012
0.999999980126
0.999999760994
0.999999489986
0.999999590871
0.999999789924
0.999999719621
0.999999592025
0.999999849096
0.999999522939
0.999998079799
0.999998079787
0.999999028119
0.999999029158
0.999999356051
0.999999954476
1.00000047142
1.00000000248
1.00000003181
1.00000000022
1.0000000031
1.00000000127
1.00000000244
0.999999618494
0.999999625197
0.999999640578
0.999999726508
0.999999727975
0.9999998622
0.999998910015
0.999996369746
0.999998366826
0.999999556013
0.999999535148
0.999999484634
0.999999387571
0.999999993693
1.00000019361
1.00000000365
0.999999998911
1
1.00000000757
1.00000002083
0.999998901603
0.999999592718
0.999999846183
0.999999516052
0.999999571355
0.999999722257
0.999998475163
0.999996353508
0.999998718465
0.999999159476
0.999996868226
0.999996209938
0.999998285637
0.999999889899
1.00000008742
1.00000000987
1
0.999999800872
1.0000000165
1.00000000443
0.999998803173
0.999999334056
0.999999469888
0.999999816729
0.999999863212
0.999999643319
0.999995621928
0.999997396146
0.99999718003
0.999996957239
0.999995919799
0.999997603973
1.00000151326
0.999999979958
1.00000027169
0.999999999985
0.999999643327
0.999999998349
0.999999650959
0.999999941619
0.999998803155
0.999999266321
0.999999415971
0.999999053834
0.999999482817
0.999998073294
0.999996048783
0.999998113963
0.999998150649
0.999996303851
0.999996608858
0.999999246571
0.999999936195
1.00000221149
1.00000000222
0.999999907007
0.99999988872
0.999999480695
0.999999773192
0.999999231371
0.999999666977
0.999997419237
0.999997201969
0.999995948875
0.999998464848
0.999998760729
0.999998229601
0.999998014282
0.999998521391
0.999998970864
0.999998790531
0.999999573916
1.00000121287
1.00000000171
1.00000031272
0.999999859343
1.00000029656
0.999999608281
0.999999792291
0.999999773857
0.999999712445
0.999999218464
0.999995949936
0.999995948289
0.999996441458
0.999996644354
0.999996821412
1.00000096682
1
0.999999941785
0.999999978685
0.999999973194
0.999999916253
0.99999960503
0.999999338967
0.999999338976
0.999996084678
0.999996990532
1.00000017594
0.999999212364
0.999997189419
1
1.00000004645
0.999999946684
1.00000154549
0.999999988379
0.999999457788
0.999999547089
0.999999087204
0.999996989518
0.999999145977
1.00000023504
0.999999979124
1.00000105268
0.999999894532
1.00000023538
0.999999996227
1.00000067491
0.999999976983
0.999999538548
0.999999661092
0.999999417928
0.999999090309
0.9999975916
1.00000006943
1.000000008
1.00000128264
1.00000004105
1.00000497078
1.0000001727
1.00000003039
0.99999998149
1.00000242505
0.999999799325
0.999999267027
0.999999575157
0.999998516318
0.99999976367
1.00000000179
1.00000072184
1.0000000475
1.00000570882
1.00000000132
1.00000192654
1.00000044538
1.00000065113
1.00000000129
1.00000020933
0.999999951621
0.999999823344
0.999999783561
1.00000361851
0.999999974234
1.00000056322
0.999999597058
0.999999539637
0.999999113391
0.999999832929
1.00000021355
1.00000006763
1.00000259834
1.0000000015
1.00000278762
1.00000000021
1.00000055019
1.00000000016
1.00000036229
1.00000000049
0.999999518882
0.999999441642
1.00000302355
1.00000000419
1.0000008266
1.00000001717
1.00000005224
0.99999972485
0.999999092318
0.999999616817
1.000000042
1.00000087023
0.999999979618
1.00000235211
1.00000000064
1.00000096244
1.00000000005
1.00000024228
1.00000000003
0.999999665875
0.999999360888
1.00000392096
1.00000000267
1.00000117376
1.00000014397
1.00000029216
1.00000003627
0.999999652863
0.999999380577
0.999999955922
1.00000028245
0.999999992146
1.00000143435
1.00000000726
1.00000059375
0.999999995718
0.999999974889
0.999999789455
1.00000089172
0.999999613447
1.0000073079
1.00000000199
1.00000105279
1.00000001423
1.00000004278
1.0000000048
1.00000000146
0.999999065955
0.999999111399
1.00000003001
1.00000000045
1.00000060649
1.0000000314
1.00000063367
1.00000000043
1.00000024899
0.999999822116
1.00000179393
0.999999839809
1.00001266694
1.00000000184
1.00000069026
1.0000000009
1.00000000844
0.999999848336
1.00000003002
1
0.999999066377
0.999999381266
0.999999854822
0.999999916135
0.999999970268
0.999999716132
0.999999929746
0.999999418136
0.999999549997
0.999999993781
1.00000000001
0.999999723381
0.999999681379
0.99999776814
0.999997435543
0.999997165279
0.999998305264
0.999998232826
0.999999369809
0.999999570891
0.999999067818
0.999999983983
1.00000001324
0.99999999481
0.999999867069
0.999999985682
0.999999278724
0.999999615815
0.999999245316
0.999999281862
1.00000010202
0.999999999988
0.999999297264
0.999999016061
0.999997919635
0.999999351091
0.999998981055
0.99999946375
0.999998899414
0.999998611135
0.9999990098
1.00000000805
0.999999999595
0.999999925923
0.999999930589
1
1.00000000104
0.999999360943
0.999999393444
0.999999575218
0.999999997783
0.999999791487
0.999999511952
0.999999164171
0.999998955927
0.999999497667
0.999999577879
0.999999478651
0.999998778606
0.999998827987
0.999998964772
0.999999877425
0.99999988729
0.999999752773
0.999999708321
0.999999338303
1.00000000109
0.999999998859
0.99999936691
0.999999931937
0.999999907197
0.999999994013
0.999999358031
0.999999979012
0.999999332857
0.999999264046
0.999999393058
0.999999557761
0.999999448407
0.999999174111
0.999999108492
0.999999323873
0.999999181521
0.999999000936
0.999999196747
0.999998785267
0.999998826469
0.99999902436
0.999998891109
0.999999087516
0.999998839822
0.999999033617
0.999999289255
0.999999464878
0.999999441896
0.999999559605
0.999999677577
0.999999908057
1.00000000663
0.99999998035
0.999999776597
0.999999318142
0.999999591036
0.999999787348
0.999999783536
0.999999468633
0.999999615146
0.999999415355
0.999998167234
0.999998082632
0.999998147307
0.999999346905
0.999999345525
0.999999941501
1.00000000287
1.00000033649
1.0000000002
1.00000001124
1.00000000013
1.00000002199
1.00000003735
0.999999377892
0.999999282674
0.999999276599
0.999999767619
0.999999497795
0.999999837567
0.99999834246
0.999996620091
0.999998832838
0.999999319767
0.999999267334
0.999998319906
0.99999995033
1.00000028515
0.999999988542
1.00000002239
1.00000000018
0.999999990037
1.00000000037
1.00000007506
0.99999925717
0.999999369216
0.999999691427
0.999999145721
0.999998515545
0.999999708393
0.999998191902
0.99999565679
0.999996042577
0.999997771885
0.999997554211
0.99999620796
0.999999496753
0.99999939156
1.00000004
0.99999988627
0.999999936308
0.999999965583
0.9999999395
1.00000000537