/*--------------------------------*- C++ -*----------------------------------*\
| =========                 |                                                 |
| \\      /  F ield         | OpenFOAM: The Open Source CFD Toolbox           |
|  \\    /   O peration     | Version:  v1606+                                |
|   \\  /    A nd           | Web:      www.OpenFOAM.com                      |
|    \\/     M anipulation  |                                                 |
\*---------------------------------------------------------------------------*/
FoamFile
{
    version     2.0;
    format      ascii;
    class       surfaceVectorField;
    location    "1.1";
    object      ddt0(Uf);
}
// * * * * * * * * * * * * * * * * * * * * * * * * * * * * * * * * * * * * * //

dimensions      [0 1 -2 0 0 0 0];

internalField   nonuniform List<vector> 
33146
(
(-0.00662794274858 -0.00355391694238 0.00352787277127)
(-0.00427734286065 -0.00524497355476 0.00350997545007)
(-0.00304224614234 -0.00233568539759 0.00792291150852)
(-0.0114577139818 -0.00513245249498 0.00401761475021)
(-0.0105583341816 -0.00766423431204 0.00267386385635)
(-0.0086096860281 -0.0032343277674 0.0083388959936)
(-0.0149556614582 -0.00669880307737 0.00458714692775)
(-0.0145930315557 -0.0102177677378 0.00288456365065)
(-0.0127061773849 -0.00459629864551 0.00915502670455)
(-0.0168551770644 -0.0083109178302 0.00512302561796)
(-0.0173172586501 -0.0130017006743 0.00336177458845)
(-0.0153884742816 -0.0060898151388 0.00994821062451)
(-0.0168813652723 -0.0100709496725 0.0056601612351)
(-0.0183470209903 -0.016143493422 0.0038898712676)
(-0.0162784976614 -0.00778002240628 0.0108032405386)
(-0.0147597618491 -0.0119706293791 0.00625231809389)
(-0.0173621298371 -0.0196585690082 0.0044632141181)
(-0.0151526790397 -0.00967939294074 0.0117298760702)
(-0.0103803181737 -0.0138800856419 0.00695009463465)
(-0.014077623081 -0.0233758104134 0.00510506181342)
(-0.0117673136222 -0.0117332767025 0.0127116088051)
(-0.00420801603402 -0.0156166130924 0.00777859370715)
(-0.00859923572849 -0.0270887749998 0.00591397331212)
(-0.00635089834261 -0.0137342763542 0.0139885895031)
(0.00294224402813 -0.0170750129737 0.00879182461121)
(-0.00160972110604 -0.0303191608873 0.00687067503402)
(0.000443975733146 -0.0155065098159 0.0154747732222)
(0.00988940789538 -0.0182055535693 0.00994175351836)
(0.00578329467382 -0.0328849268505 0.00808252891168)
(0.00760694700126 -0.0169668229002 0.017295651901)
(0.0156620073291 -0.019033962283 0.0111880308204)
(0.0124519148429 -0.0347354415603 0.00940372783943)
(0.014046320194 -0.0180672093788 0.0192753337786)
(0.0194676054552 -0.0196365115712 0.0125337279106)
(0.0174497932791 -0.0360852221732 0.0108688238272)
(0.0188694795581 -0.0189061073226 0.0214365824423)
(0.0207905574058 -0.0201184137193 0.0138904133395)
(0.0201133008275 -0.0369785569211 0.0123777907754)
(0.0214417227236 -0.0195361564077 0.023624384614)
(0.0198723433112 -0.0205994753325 0.0152488463388)
(0.0202775534244 -0.0378472816758 0.0138095109504)
(0.0215861274131 -0.0201411156795 0.0256481971048)
(0.0169934189523 -0.0211196642117 0.0166922854952)
(0.0182781069476 -0.0387332072283 0.0152025345083)
(0.0196355702594 -0.0207648890178 0.0275761837883)
(0.0127379233296 -0.0215485647847 0.0184465549649)
(0.014737732625 -0.0397346181133 0.016661340078)
(0.0162056866858 -0.0214532790802 0.0292744399764)
(0.00867298360589 -0.0218412594999 0.0202597769485)
(0.0106257938774 -0.0405444899152 0.0183964036678)
(0.0120589296313 -0.0220575889166 0.0297609891356)
(0.00556740579596 -0.0222546612876 0.0211784740084)
(0.00685553342459 -0.0416702280256 0.0198791920366)
(0.0078750836166 -0.0225395526681 0.0298765011561)
(0.00236884400108 -0.0224548540014 0.0209891239497)
(0.00378238905404 -0.0437472772429 0.0203206765739)
(0.00380681498052 -0.0230530824932 0.0313213568352)
(0.00140483781194 -0.0448419030941 0.0188606038518)
(0.00117194405849 -0.0235232803587 0.0314924303029)
(-0.00909414998089 -0.00842339271615 0.00265596653515)
(-0.00588018461929 -0.008649212065 0.00398549416885)
(-0.00404218412275 -0.00651118390416 0.00834168320029)
(-0.0143272793132 -0.0116905881389 0.00153995292412)
(-0.013892660693 -0.0114079235251 0.00155811904178)
(-0.0107617448711 -0.00851618538668 0.00599596714718)
(-0.0177592902699 -0.0155845353322 0.00165214034557)
(-0.0183728658275 -0.0154152294123 0.00109084858522)
(-0.0150562199574 -0.0117450947888 0.00576663937205)
(-0.0197600266889 -0.0200818788182 0.00210526931435)
(-0.0216321961881 -0.0204700798798 0.00134395143064)
(-0.0179636920131 -0.0157562570064 0.00632834005897)
(-0.019999512541 -0.0252181629489 0.00264659597176)
(-0.0231970928799 -0.0265269121792 0.00175250678605)
(-0.0191050052465 -0.0205441904962 0.00709388044813)
(-0.0180355588541 -0.0309010485484 0.00325300963909)
(-0.0226907017802 -0.0336075224164 0.00224579250731)
(-0.0181631266306 -0.0260835071206 0.00801041727956)
(-0.0134554826076 -0.0367280155719 0.00400728628415)
(-0.0195340354012 -0.0414929030397 0.00280915858349)
(-0.0148021882493 -0.0321883707966 0.00906248319978)
(-0.00687783943298 -0.042144715873 0.0049550169491)
(-0.0136409733121 -0.0491350324939 0.00349845305257)
(-0.00904605234877 -0.0382684896246 0.0103673130126)
(0.0009168551252 -0.0466977858176 0.00612669602037)
(-0.00581755416274 -0.0560332573509 0.00441870796228)
(-0.00163675359098 -0.0436485032149 0.0119759443904)
(0.00849394109695 -0.0501737373481 0.00752435744147)
(0.00261431392831 -0.061498314367 0.00566947802865)
(0.00619756348537 -0.0479572939729 0.0139770920763)
(0.0147102156748 -0.052694944622 0.00907555409385)
(0.0101624439847 -0.065585059042 0.0071614865114)
(0.0131924968689 -0.051192757859 0.0162306364008)
(0.0187796902057 -0.0545234095328 0.0107129002256)
(0.0157858991027 -0.0687001914389 0.00881872867911)
(0.0184158612992 -0.0535827864465 0.0186143556663)
(0.0202502294219 -0.0560474437483 0.0123001494387)
(0.0186760784632 -0.0709378612405 0.0105164259131)
(0.0211340735517 -0.0553955191838 0.0209405327397)
(0.0192833400758 -0.057590761758 0.0137685400842)
(0.0187678579209 -0.0731235130819 0.0120609130944)
(0.0212095704335 -0.0571060065894 0.0231352379627)
(0.0164812400681 -0.0593235775697 0.0151748425961)
(0.0166056400046 -0.0754546492671 0.0133711390041)
(0.0191293693224 -0.0589721573123 0.0252415485704)
(0.0126205989232 -0.0612401884892 0.0166123632812)
(0.0130356130708 -0.0782234050477 0.0145892416654)
(0.0156536974762 -0.0611208197733 0.0274029492609)
(0.00852276008643 -0.0631809507629 0.0180161584763)
(0.00898863617469 -0.0811958602016 0.0160287124493)
(0.0116073799426 -0.0633697994772 0.0294708406082)
(0.00473483824011 -0.0651256764942 0.0190215074421)
(0.00520767349275 -0.0840778548533 0.0175611982315)
(0.00760402195946 -0.0654403074845 0.0307485765406)
(0.00292734222251 -0.0664116869355 0.0181921564761)
(0.00293307248519 -0.0866929407285 0.0185267833179)
(0.00408880075052 -0.0672534075154 0.0298628574966)
(0.00135760777412 -0.0881459147106 0.0155337158147)
(0.001579947265 -0.0687848974274 0.030842217073)
(-0.0115724964466 -0.0110324008322 0.0028881347029)
(-0.00738496323429 -0.0108407839783 0.00459711617506)
(-0.00541706648987 -0.00922332697607 0.00918663566775)
(-0.0183817105621 -0.0145985333082 0.00110797194667)
(-0.0177167467204 -0.0133518010449 0.00174227629515)
(-0.0140388843248 -0.0113781419187 0.00585078423981)
(-0.0229244385948 -0.0198681494667 0.000772939397323)
(-0.0237556041487 -0.0181420677868 0.000824662872499)
(-0.0194957363175 -0.0155917882568 0.00483220632616)
(-0.0259696037403 -0.0266113537405 0.000964795036467)
(-0.0284437805717 -0.0248759603739 0.000812294176324)
(-0.0235315329824 -0.0214313374853 0.0048413134533)
(-0.0271446054996 -0.0347723879735 0.00130080471894)
(-0.031306332349 -0.0335234376806 0.000975179615884)
(-0.0256838948865 -0.0288257954944 0.00522455424254)
(-0.0257238706401 -0.0441354696097 0.00172906712405)
(-0.0319093627832 -0.0440882252788 0.00125488590493)
(-0.0256304953322 -0.0377863220924 0.00582257299582)
(-0.021353832869 -0.0539084721253 0.00222994608263)
(-0.0292456340694 -0.0559935405521 0.00146308930555)
(-0.0227043426277 -0.0479356515685 0.00658866013547)
(-0.0137242211486 -0.0629739631535 0.00290240341141)
(-0.0227905805024 -0.067829481229 0.00166073970827)
(-0.0164866491613 -0.0582122790471 0.00729765325559)
(-0.00455788360387 -0.0704641623839 0.00392495935308)
(-0.0134349690424 -0.0780794912897 0.00224232927097)
(-0.00787734293684 -0.0670347777317 0.00854280694663)
(0.00439667844963 -0.0761453908801 0.00528327934583)
(-0.00316771125434 -0.0860292664806 0.00338636611268)
(0.00138830696349 -0.073869867974 0.0102725857495)
(0.0116849234792 -0.0802797093595 0.00688440445266)
(0.00592585470765 -0.0919140616806 0.0049826200953)
(0.0096260065792 -0.0789043348087 0.0123497481691)
(0.0163454827437 -0.0831089057043 0.00859484554837)
(0.0128072846596 -0.0962671441165 0.006805827147)
(0.0157143464952 -0.0825821906623 0.0144791655242)
(0.0178267433161 -0.0854753548758 0.010213907428)
(0.0161534872082 -0.0989129271784 0.00808091823175)
(0.0187819170281 -0.085323231074 0.0162326734602)
(0.0166171811777 -0.0882244101721 0.0115963510918)
(0.0157791752209 -0.102211693934 0.00951457647526)
(0.0186906643912 -0.0880382602736 0.0180318380719)
(0.0136038488948 -0.0915573869557 0.012735087606)
(0.0129487465613 -0.106168703252 0.0106745794478)
(0.0162652749395 -0.0912836197912 0.0198706125671)
(0.00972062752658 -0.0955036973613 0.0139847186033)
(0.00885229870474 -0.110999468208 0.011653899348)
(0.0126361782074 -0.0951637991348 0.0220030184195)
(0.00576624918069 -0.0994735957333 0.0155675784744)
(0.00508733228186 -0.116212216051 0.0131195628363)
(0.00874796385777 -0.0994161322422 0.0243961550528)
(0.0024053241522 -0.103023850282 0.0170651684556)
(0.00206002291268 -0.119886268931 0.0141460776537)
(0.00527012795279 -0.103550948918 0.0255818162032)
(0.00195388656189 -0.10619869476 0.0158689028508)
(0.000319707621411 -0.123331288168 0.0150263574831)
(0.00238847072803 -0.107097977396 0.0246872955716)
(0.00015072002466 -0.127680650308 0.0125536762532)
(0.000841491163572 -0.109587358188 0.0276827994573)
(-0.0141669395394 -0.012524686 0.00345557644262)
(-0.00882423632997 -0.0118667973435 0.00522917547913)
(-0.00682439999655 -0.0107745024532 0.010142457673)
(-0.0232601694691 -0.0163010950829 0.00146769426628)
(-0.0218805154655 -0.0141106153105 0.00234355735272)
(-0.0179197241422 -0.0129584218254 0.00659960808092)
(-0.0297410639725 -0.0225676340881 0.000876053691686)
(-0.0301972530487 -0.0193841621375 0.00117649272291)
(-0.0253860948922 -0.017846966724 0.00503364973485)
(-0.0346501950859 -0.0311694063427 0.000827039359525)
(-0.0370189863098 -0.0273175283989 0.000929616772474)
(-0.0313450558008 -0.0250962620869 0.00451320866993)
(-0.0374365389108 -0.0420844516391 0.000904333727778)
(-0.0418741811882 -0.0381316016573 0.00081577740489)
(-0.0353716658997 -0.0348404777261 0.00436045404608)
(-0.0374068896804 -0.0550360417061 0.000885375952927)
(-0.0443371171773 -0.0516027136352 0.00063343616636)
(-0.0369863548667 -0.0470497698193 0.00440028575259)
(-0.0330691980191 -0.0688001085787 0.000749494222491)
(-0.0426720048839 -0.0674973519558 6.59743519199e-05)
(-0.0351072618187 -0.0613313879532 0.00420649485496)
(-0.02393989869 -0.0813686261746 0.000893706233736)
(-0.0354582965078 -0.0831337022987 -0.000773969909535)
(-0.0282216514755 -0.0761023269832 0.00360647347765)
(-0.0124122105473 -0.0912984403881 0.00163881219412)
(-0.0235058175049 -0.0961182388897 -0.000823706837286)
(-0.0174076883021 -0.087979023996 0.0039575016687)
(-0.00137511241775 -0.0985242923399 0.00301487070969)
(-0.0104528354904 -0.105361278112 0.000171579144779)
(-0.00575158386555 -0.0965103296222 0.00523651358644)
(0.00739607321121 -0.10369157302 0.00476355506062)
(0.000758640146634 -0.112025507905 0.00197700810649)
(0.00439562610559 -0.102578029479 0.00712628564357)
(0.0138285434811 -0.107812599245 0.0062055097091)
(0.00883955415853 -0.116737083042 0.00340573424842)
(0.0118091256689 -0.10714812217 0.00846896831624)
(0.0146856156835 -0.111988535802 0.00722695028308)
(0.0122326892355 -0.122310300929 0.00497601254035)
(0.0155438871449 -0.111054594121 0.0128846136724)
(0.0125703726066 -0.116641516757 0.00842419248801)
(0.0112813652932 -0.128089788753 0.00678181979927)
(0.0149447898885 -0.115248322631 0.0150865444218)
(0.0086128040003 -0.121861145326 0.00942150891255)
(0.00755953901355 -0.134642541175 0.00799603264716)
(0.0115530871042 -0.120486944911 0.0169407958866)
(0.00419167433653 -0.127419740846 0.0106552653997)
(0.00295770048813 -0.141233009144 0.00865079335967)
(0.00726571585335 -0.126386318529 0.0184556470177)
(0.00200225541814 -0.132886778358 0.0116717655553)
(-0.000519383826264 -0.14711888418 0.00958101012606)
(0.00365118537398 -0.13259145522 0.0188377401817)
(-0.000727284572869 -0.137832881092 0.0121093136199)
(-0.00256048091737 -0.153210083718 0.010155847728)
(0.000899097148117 -0.138229436143 0.0222868653078)
(-0.00176728288285 -0.142188321387 0.0117157090492)
(-0.00339260760497 -0.158042430504 0.0107303194988)
(-0.000535330433961 -0.143106149535 0.0234431462925)
(-0.00156193968004 -0.16163694103 0.0094989929516)
(-0.000195392165836 -0.146169796698 0.0214755468336)
(-0.016914836666 -0.0128092919934 0.00412930074502)
(-0.0102661173251 -0.011687855279 0.00590139573338)
(-0.00830026146421 -0.0111217295546 0.0112031449772)
(-0.0286380955231 -0.0165792501501 0.00208182490722)
(-0.0262196183151 -0.0136692353036 0.003080898094)
(-0.0221988888037 -0.013139904457 0.00760423646205)
(-0.0376928267929 -0.0234074833589 0.00126330527794)
(-0.037187934041 -0.0190483407766 0.00178584285779)
(-0.0322054155051 -0.0183123729041 0.00565317952512)
(-0.0450923209802 -0.0333453641409 0.000912315258417)
(-0.0466769728901 -0.0276008273803 0.00124289273232)
(-0.0408253160133 -0.0264883098269 0.00460927541697)
(-0.0503005234959 -0.0464644087489 0.000461530436867)
(-0.0542433175458 -0.0397410555428 0.000699559378439)
(-0.0475467970648 -0.0380857042039 0.00375792263504)
(-0.0519841852824 -0.0625689752515 -0.000381198957386)
(-0.0595737882524 -0.0553481663228 -0.000356412696579)
(-0.051900605967 -0.0530790025869 0.0025983811072)
(-0.0486342709448 -0.0803900100911 -0.00176236687894)
(-0.0600683617076 -0.0740659186728 -0.00226352592649)
(-0.0520474945632 -0.0712530978509 0.000879018866564)
(-0.0365920677082 -0.0964645132965 -0.00267696542313)
(-0.0517191153153 -0.0935235808218 -0.00516978740404)
(-0.0440594382321 -0.0914946054414 -0.00254847264784)
(-0.0213554476528 -0.108230044062 -0.00225192240127)
(-0.0354858014247 -0.107674199619 -0.00607072773393)
(-0.0292828540188 -0.105951066078 -0.00372438152875)
(-0.007663350589 -0.11658564992 -0.000739212180494)
(-0.0189702328317 -0.115477746135 -0.00476035546037)
(-0.0140299630634 -0.114925734847 -0.0030863073156)
(0.00343202784698 -0.122828071886 0.000887875393312)
(-0.00550876936153 -0.120760868845 -0.00266188895485)
(-0.0016796841282 -0.121587099794 -0.00182385980273)
(0.00870115622724 -0.128158809934 0.00235766420001)
(0.00387434472174 -0.125226361163 -0.00103806655784)
(0.00682710349564 -0.126517303087 0.00171690449365)
(0.00980091949634 -0.133349562321 0.00426858356855)
(0.00783465146848 -0.132487949938 0.00175815280925)
(0.0103741637094 -0.131365715397 0.00481733456828)
(0.00658247509915 -0.139496673808 0.00572788469468)
(0.00606494606211 -0.142054811271 0.00456227162735)
(0.0089685468975 -0.135810715975 0.00830042706518)
(0.00215772421712 -0.147077598241 0.00651280520902)
(0.000334434692873 -0.152635269635 0.0057933545092)
(0.00460162632805 -0.143383814741 0.0100916867122)
(-0.00210941094104 -0.154617402045 0.00713161070423)
(-0.00498457926061 -0.162639668748 0.00607496770945)
(0.000185571667446 -0.151833312429 0.0117315424266)
(-0.00450446343305 -0.161718282878 0.00789872226711)
(-0.00811578023316 -0.171453014501 0.00634939464265)
(-0.00297792660906 -0.159952439278 0.0133275761671)
(-0.00547311641173 -0.168057181603 0.00871312894176)
(-0.00889274030941 -0.178987611974 0.00694707821433)
(-0.00442933985657 -0.167291029763 0.0151706116863)
(-0.00463075107501 -0.172866801959 0.008509659013)
(-0.00764380579627 -0.18495869612 0.00746174798553)
(-0.00421478411995 -0.17312639783 0.0165314289581)
(-0.00318883952978 -0.189037694489 0.00625579643251)
(-0.00163597429386 -0.176855471133 0.0151220959112)
(-0.0196368011544 -0.0118613061926 0.0048760003151)
(-0.0116402050719 -0.0104009917053 0.00665569817634)
(-0.00979779256176 -0.0102849351739 0.0123516266237)
(-0.0341925482066 -0.0153203016818 0.00283540764936)
(-0.0303883123863 -0.011995949113 0.00396533688409)
(-0.0265931602353 -0.0119076689689 0.00881513093428)
(-0.0462465624367 -0.0221046648997 0.00180451028532)
(-0.0440878792074 -0.0169482795956 0.0026198381866)
(-0.0394956307447 -0.016902784363 0.00667194146344)
(-0.056646883991 -0.0323010225859 0.000977354915128)
(-0.0563981278407 -0.0252486125272 0.00176381696429)
(-0.051383752992 -0.0252020466896 0.00501110819276)
(-0.0650689566577 -0.0460071718361 -0.000395994847277)
(-0.0670749147284 -0.0369996313948 0.00052441793972)
(-0.0619003124355 -0.0373209140544 0.00299240159733)
(-0.0701218881333 -0.0632451544379 -0.00290278920288)
(-0.0762168753728 -0.0521343898249 -0.00194045623291)
(-0.0705724247232 -0.0533792873401 -0.000200874670319)
(-0.0688044012631 -0.0834454881587 -0.00683451470304)
(-0.0803359434465 -0.0716810108568 -0.00612145650743)
(-0.0754896830161 -0.0739403117428 -0.0046932571107)
(-0.0516534244231 -0.100566720113 -0.00988581171363)
(-0.0691482665544 -0.0932484076175 -0.0135996450276)
(-0.0652210849734 -0.100885174722 -0.0144713086735)
(-0.031179308606 -0.110232143993 -0.00989057227661)
(-0.0458436032365 -0.104326131211 -0.0163729094344)
(-0.0430728582867 -0.113508401765 -0.0185684146069)
(-0.0156662481452 -0.115289650587 -0.00849543953334)
(-0.0244073139149 -0.107952496547 -0.0154984090491)
(-0.023278964731 -0.118699534262 -0.0165276330307)
(-0.00236564791109 -0.118998608168 -0.00655793258387)
(-0.00939209771497 -0.108827029059 -0.0135406503177)
(-0.00885062216489 -0.121356549058 -0.016400401868)
(0.00423482895183 -0.12492322187 -0.00404624404267)
(-0.00170065352266 -0.111770334529 -0.0107520860993)
(0.00130624319919 -0.123543877379 -0.0121150845317)
(0.00631957811745 -0.134667053074 -0.000134322340049)
(-0.00140106195118 -0.124021781597 -0.00684013848961)
(0.00618808935661 -0.129970880293 -0.00655681639448)
(-0.000536015818112 -0.147957273766 0.00255130920817)
(-0.0065112114388 -0.140345590423 -0.000294197466009)
(0.00338127817473 -0.139382374984 0.00163045320886)
(-0.00693071765352 -0.161991733257 0.00385789968052)
(-0.0138825130613 -0.160048246015 0.00220691312602)
(-0.00437662365966 -0.154436737103 0.00487970780633)
(-0.0114015103937 -0.173796340836 0.00451968737655)
(-0.0177413072029 -0.175791549828 0.00319141335309)
(-0.00970262690681 -0.168190756724 0.00671295468009)
(-0.0128518257683 -0.183403396295 0.00503590946939)
(-0.0187568851707 -0.188319232364 0.00380443869009)
(-0.01213918965 -0.179854494197 0.00770692355357)
(-0.011555555994 -0.191032413006 0.00556579999657)
(-0.0169057175145 -0.197778389301 0.0040878808125)
(-0.011640334229 -0.189351554572 0.00887684938819)
(-0.00792607411984 -0.196623559216 0.00519069195922)
(-0.0127858528094 -0.204778510079 0.00422380144244)
(-0.00892861902883 -0.196534523932 0.00975980955905)
(-0.00507549168985 -0.209529257899 0.00281696115532)
(-0.00338008035037 -0.200942803363 0.00825733919003)
(-0.0221118040665 -0.00996768859938 0.00577766513211)
(-0.0128174164357 -0.0084832010616 0.00749099717861)
(-0.0111686838187 -0.00855708088928 0.0136669135763)
(-0.0394073249318 -0.0128702820133 0.00381930396478)
(-0.0340805154982 -0.00956331448997 0.00503909769001)
(-0.0306907312894 -0.00965541264209 0.0103784900469)
(-0.0541620872313 -0.0189685130526 0.00263351713491)
(-0.0503032112543 -0.0137449054795 0.00371486286888)
(-0.0464241934342 -0.0139813811856 0.00816869229891)
(-0.0675034547161 -0.0281372667767 0.00128766280614)
(-0.0651121988927 -0.0206970045919 0.00271562380013)
(-0.0615257600812 -0.0213162019001 0.00600212947862)
(-0.0792035790451 -0.0400800736886 -0.00115944775098)
(-0.0783010252007 -0.0301348903881 0.00102852135613)
(-0.0758878043763 -0.031710106271 0.00271762898678)
(-0.0883502891452 -0.0551365655619 -0.00573499597993)
(-0.0908853318064 -0.0411872129061 -0.00229287967281)
(-0.0899760431433 -0.0447474283162 -0.00283409883267)
(-0.0899384860679 -0.0725047610567 -0.0143798275342)
(-0.0987177549432 -0.0545339951688 -0.00761159986893)
(-0.103943715469 -0.0612914718588 -0.0136480582149)
(-0.0623295623252 -0.0842161830546 -0.0211324141007)
(-0.0820603659577 -0.0684802154379 -0.0214276161412)
(-0.08828321683 -0.0852283880867 -0.0404749180071)
(-0.0345157793233 -0.0855064375561 -0.0225225923685)
(-0.0482269597508 -0.069203444449 -0.0210957226267)
(-0.0530887226916 -0.0868958300315 -0.0466585834032)
(-0.0150718432635 -0.08248054211 -0.0212958955822)
(-0.0212535615943 -0.0617128808449 -0.0172737325294)
(-0.0257642487243 -0.0802642058716 -0.04577112902)
(-0.00429381042287 -0.0808763261663 -0.0183143915571)
(-0.00687912184052 -0.0562523040398 -0.0123261541328)
(-0.00945185353653 -0.0737941020933 -0.0411999662437)
(-0.00496756117225 -0.089256256131 -0.0146098026899)
(-0.00856609656034 -0.0545654562752 -0.00635961764289)
(-0.00398196586325 -0.0710984659856 -0.034088356235)
(-0.011827889471 -0.113842984513 -0.00741936961189)
(-0.0245686673975 -0.0743600067133 -0.00114622740215)
(-0.00680487404544 -0.0873641967948 -0.0248445294315)
(-0.021415951855 -0.144998195271 -0.0010104555242)
(-0.0370447779623 -0.118946422262 -0.0015248317714)
(-0.0148319847188 -0.126213703107 -0.00694476167418)
(-0.024949239131 -0.169707522249 0.00129240904927)
(-0.0386461237978 -0.158360928852 0.000797005151886)
(-0.0243090512605 -0.157014894717 -0.000787426248376)
(-0.0258732760281 -0.186692762706 0.00218059106717)
(-0.0361489004846 -0.183611429106 0.00149454132139)
(-0.0261237179677 -0.178227578489 0.0021721687686)
(-0.0239181528322 -0.19872386695 0.00251771419478)
(-0.0323768144857 -0.199643397639 0.00153958207372)
(-0.0250737503575 -0.193612147798 0.00300231682121)
(-0.0190313216151 -0.207456159936 0.00259654159245)
(-0.0263807287517 -0.210533054474 0.00154699380379)
(-0.0209533743684 -0.205057425306 0.00322748600663)
(-0.0114975526389 -0.213601074739 0.00182154665059)
(-0.0186414710088 -0.218128228976 0.00103893326715)
(-0.0147691854977 -0.213232462742 0.00315461901097)
(-0.00719076627216 -0.223177595973 -0.000702759070822)
(-0.00550208136929 -0.218128761079 0.00136612149766)
(-0.0242243564537 -0.00770650248046 0.00678810963073)
(-0.0137311162726 -0.0065027171314 0.00840765314453)
(-0.0123293679394 -0.00649998906258 0.0151015255489)
(-0.043939451819 -0.00991887153341 0.00501562647126)
(-0.037129045541 -0.00707963143147 0.00627379046392)
(-0.0342537667583 -0.00704938766281 0.0122430592157)
(-0.0610802489276 -0.0148862295258 0.00386597258516)
(-0.0554179941671 -0.0103809037577 0.00508587864663)
(-0.0523459477161 -0.0104805594811 0.0102629263156)
(-0.0766162100763 -0.0222184260214 0.00245104912081)
(-0.0720415844058 -0.0158450042717 0.00409499136806)
(-0.0696974460247 -0.0162934133879 0.00812314772081)
(-0.0902497921523 -0.0313469561882 -9.86520958504e-05)
(-0.0866812396075 -0.0231910981977 0.0023105388497)
(-0.0858614218544 -0.0240828635356 0.00486353811514)
(-0.101673997876 -0.0418424780811 -0.00444732902521)
(-0.100950349591 -0.0313168180363 -0.00120205205428)
(-0.102314796041 -0.032783599156 0.000383377785571)
(-0.105642824591 -0.052628914201 -0.016169594601)
(-0.110722553043 -0.0399449473178 -0.00597276043923)
(-0.12238933626 -0.0431298466868 -0.00949755887398)
(-0.0631508814306 -0.0594564265866 -0.0211108399002)
(-0.0897996440451 -0.0475669355542 -0.023866797048)
(-0.096158299356 -0.0575764420435 -0.0488618697189)
(-0.0284989752728 -0.0591173298326 -0.0139994375626)
(-0.047886381022 -0.0529921859715 -0.0190070634011)
(-0.0436741767259 -0.0568407832141 -0.0385101443234)
(-0.00789508971083 -0.0566023817608 -0.00545815037316)
(-0.0177445021298 -0.0554895612627 -0.00955470254281)
(-0.0109283570923 -0.0487850136704 -0.0197216200439)
(-0.00382201841834 -0.0575003445386 0.00455859218039)
(-0.0067949764848 -0.0622124606963 0.000196629746286)
(0.00198095722439 -0.0443922905603 0.000163101828858)
(-0.0222970106302 -0.0707950389905 0.0121955344931)
(-0.0203685781206 -0.0734975666058 0.0104779511242)
(-0.00854261522191 -0.0460613314195 0.0223156956841)
(-0.0594345932453 -0.103742052355 0.00659432811975)
(-0.0563029612256 -0.0996423685995 0.0163312456199)
(-0.0446013895896 -0.0697432184485 0.0357020946416)
(-0.0549538877096 -0.144373183646 0.000608222794521)
(-0.0758595366146 -0.13335298018 0.000716074690104)
(-0.0648380427057 -0.120435962467 0.00501232940254)
(-0.0487511541952 -0.175588620556 0.000854153842998)
(-0.0692579536634 -0.167410997302 -0.000238619378816)
(-0.0559971108725 -0.160374080788 0.000240277899436)
(-0.0433480905568 -0.195475264758 0.00024064413695)
(-0.057218352176 -0.191497652757 -0.00029685589269)
(-0.0480384172836 -0.185774747906 -0.000190549584815)
(-0.0363596181931 -0.208644400976 5.04567668932e-05)
(-0.0473399332694 -0.207202412857 -0.00084026280376)
(-0.0405163901861 -0.202913678223 -0.00100842084685)
(-0.0269246045128 -0.217711083023 -0.000219873507909)
(-0.0363550326358 -0.217830232181 -0.000944698465711)
(-0.031439447381 -0.215111531329 -0.00201380573342)
(-0.0151332027886 -0.223917287576 -0.00152450008625)
(-0.0246223361043 -0.225149962685 -0.00217313893522)
(-0.0210944522668 -0.22353060536 -0.00326365164771)
(-0.00934854070122 -0.23000885972 -0.00421515855836)
(-0.00777355284614 -0.228433962713 -0.00547309433523)
(-0.0258611123091 -0.00576304563914 0.00793066094219)
(-0.0144481363393 -0.00518509738455 0.00940797550604)
(-0.0132378595418 -0.00474593252614 0.0166911326028)
(-0.047495607995 -0.00731366184603 0.00643693503955)
(-0.0395125013094 -0.00537771683618 0.00762965657428)
(-0.0371089587997 -0.00482807386046 0.0143407637821)
(-0.0663759952311 -0.0111013557166 0.00541784477341)
(-0.0593526924939 -0.00785206900179 0.00664370420124)
(-0.0569790218649 -0.00739902890506 0.0126675563801)
(-0.0830613277626 -0.0165460234944 0.00406222389914)
(-0.0770982680903 -0.012047408739 0.00576846290801)
(-0.0757866540317 -0.0117791694571 0.0106069636306)
(-0.0975451625857 -0.0230357864193 0.00143073641391)
(-0.0923964267903 -0.0173031498106 0.00413529148422)
(-0.0929246029041 -0.0173897750126 0.00737983055794)
(-0.109661247487 -0.0295957625916 -0.00274527042184)
(-0.106920036816 -0.0229070830241 0.000610527459098)
(-0.10989696047 -0.0232889195301 0.00318303056604)
(-0.11387579994 -0.0359955306402 -0.0150915472831)
(-0.117337296336 -0.0265621488707 -0.00350896469238)
(-0.131577196309 -0.0289435873968 -0.00695957764055)
(-0.0665177330376 -0.0429534269456 -0.0205435793605)
(-0.0969150856565 -0.0300947677557 -0.0215153085202)
(-0.103305510196 -0.0369899226429 -0.0492714259792)
(-0.0298854185194 -0.0496803574304 -0.0123310376564)
(-0.054402010609 -0.0391452509114 -0.0164783323799)
(-0.0447191636103 -0.0434497827328 -0.0376802930359)
(-0.0110572181044 -0.0580820354379 -0.00194698343192)
(-0.0252738857533 -0.0528699671754 -0.00558906511869)
(-0.0110020625069 -0.0486831965926 -0.015460555041)
(-0.0148825384558 -0.0710045923558 0.00890083560324)
(-0.0188006153091 -0.071212457266 0.00430805854805)
(-0.00331662431998 -0.0592238765368 0.00754410897301)
(-0.0445660893424 -0.0921654647648 0.0162316506114)
(-0.0406334108804 -0.092742657069 0.0145235383889)
(-0.0246005349252 -0.0745955969929 0.0289477895451)
(-0.0975498723639 -0.122765360125 0.00737419068633)
(-0.0860837488007 -0.121672158194 0.01918585095)
(-0.0772091306596 -0.101867247805 0.0425549131208)
(-0.0881381149364 -0.155699400683 6.09109084355e-05)
(-0.106989353028 -0.15086677678 0.00111376958914)
(-0.102902041773 -0.136746586313 0.00424000119625)
(-0.074349956777 -0.182936773329 -7.95432171645e-05)
(-0.096594480613 -0.177236667774 -0.00104961860809)
(-0.0876901226888 -0.169072591133 -0.00212407200625)
(-0.0616308005021 -0.201536939126 -0.00150494862156)
(-0.0766809531832 -0.197756498569 -0.00182484092976)
(-0.0698886584477 -0.192688719845 -0.00357736405136)
(-0.049057769669 -0.21362279769 -0.00232065168189)
(-0.0613683520601 -0.210656833884 -0.00317448327121)
(-0.0561404084564 -0.2084778996 -0.00518762454689)
(-0.034713141768 -0.222008810769 -0.00308003740946)
(-0.0456857215491 -0.219782117154 -0.00350354564332)
(-0.0418326440966 -0.219790326039 -0.0072786131837)
(-0.0186872295647 -0.22771461887 -0.00489314247398)
(-0.0301028561614 -0.226046389585 -0.00541796616793)
(-0.0272697054147 -0.227547259661 -0.00948857125335)
(-0.0113167081894 -0.230290323513 -0.00762046674191)
(-0.00997844560747 -0.231933274296 -0.0120706420839)
(-0.0271129310839 -0.00488355832303 0.00914570545694)
(-0.0150314361474 -0.00497297071505 0.0104199862824)
(-0.0139927892108 -0.00396233693733 0.0183162838485)
(-0.0503105249487 -0.0059425049334 0.00793490679565)
(-0.0414059878022 -0.00493398671667 0.00902039517104)
(-0.0393755124901 -0.00371578487377 0.0165225699439)
(-0.0703353431471 -0.00883986451042 0.00709602637957)
(-0.062411579125 -0.00693602059512 0.00827530092519)
(-0.0605544699605 -0.00562835008843 0.0152151280316)
(-0.087636729875 -0.012817335561 0.00591188890273)
(-0.0807038220443 -0.0102281281906 0.0075773595472)
(-0.0801792375552 -0.00886557083842 0.0133699322132)
(-0.102065277664 -0.0169217360405 0.00347867109223)
(-0.0957270750931 -0.0141067059934 0.00613378749873)
(-0.0975159808004 -0.0125788590223 0.0104039033353)
(-0.114661455341 -0.0194436006278 -0.000287731994335)
(-0.109101307201 -0.0174386200336 0.00285618969803)
(-0.113760946682 -0.0154094041644 0.00681801140214)
(-0.120464766848 -0.0205590750317 -0.012218051139)
(-0.118769944701 -0.0172862161731 -0.000526337562787)
(-0.135329974917 -0.0161396430425 -0.00135108664184)
(-0.0757381307324 -0.0260929759712 -0.0178259830647)
(-0.102544463255 -0.0148712856325 -0.0172623634806)
(-0.110514298415 -0.0155370119091 -0.0449724060742)