/*--------------------------------*- C++ -*----------------------------------*\
| =========                 |                                                 |
| \\      /  F ield         | OpenFOAM: The Open Source CFD Toolbox           |
|  \\    /   O peration     | Version:  v1606+                                |
|   \\  /    A nd           | Web:      www.OpenFOAM.com                      |
|    \\/     M anipulation  |                                                 |
\*---------------------------------------------------------------------------*/
FoamFile
{
    version     2.0;
    format      ascii;
    class       volScalarField;
    location    "1.1";
    object      p_rgh;
}
// * * * * * * * * * * * * * * * * * * * * * * * * * * * * * * * * * * * * * //

dimensions      [1 -1 -2 0 0 0 0];

internalField   nonuniform List<scalar> 
11640
(
5245.17674372
5245.54995425
5246.21650442
5247.11098375
5248.16114105
5249.27896941
5250.36487901
5251.31327462
5252.03719828
5252.48506291
5252.65543269
5252.59062932
5252.36335569
5252.06703131
5251.78934866
5251.52180116
5251.25102307
5251.13741008
5251.13762869
5251.21212634
5245.53681491
5246.07135994
5246.88842823
5247.92965888
5249.13442407
5250.42183444
5251.6908892
5252.82118538
5253.71015635
5254.29417852
5254.57371865
5254.59718849
5254.44175336
5254.2052015
5253.96276665
5253.77327711
5253.66384183
5253.56279549
5253.55179765
5253.62203131
5246.1623223
5246.84464375
5247.84845294
5249.12089343
5250.60446883
5252.22111106
5253.85595338
5255.35702424
5256.57881742
5257.43585085
5257.93007408
5258.1243867
5258.10934101
5258.02249678
5257.91960732
5257.8555847
5257.86545196
5257.89127767
5258.01914793
5258.1759399
5246.99687591
5247.81632285
5249.04067306
5250.62003879
5252.50510708
5254.61059508
5256.80165786
5258.86717004
5260.5896643
5261.84325817
5262.64091922
5263.08192513
5263.21058919
5263.32559177
5263.453615
5263.63499251
5263.86956904
5264.14374292
5264.45292891
5264.71003504
5247.98670909
5248.93847205
5250.40917446
5252.35957335
5254.74705558
5257.47884914
5260.39775705
5263.20492303
5265.55784931
5267.26834929
5268.38218847
5269.06098524
5269.51565183
5269.94495612
5270.42741663
5270.97296031
5271.53618273
5272.08346513
5272.58445021
5272.95081023
5249.07272754
5250.1530923
5251.88754735
5254.24747485
5257.20191177
5260.6602532
5264.48948374
5268.2742862
5271.41655565
5273.66310861
5275.18619528
5276.16827219
5276.87966456
5277.45865198
5278.33733124
5279.39527676
5280.42188803
5281.33067374
5282.0725591
5282.56811798
5250.19632037
5251.39776436
5253.38926409
5256.14934132
5259.65043337
5263.80614393
5268.58355356
5273.39538949
5277.12968029
5279.43937242
5280.88905356
5281.85700283
5282.94567305
5284.45793168
5286.39273077
5288.35343188
5290.07777246
5291.4802395
5292.52778785
5293.18674886
5251.31392333
5252.62446234
5254.84722523
5257.95861165
5261.9128299
5266.6007488
5272.11236544
5277.60942261
5281.51595118
5283.3801514
5284.47827647
5285.16112639
5287.22850147
5290.75552123
5294.54391027
5297.65704526
5300.20243762
5302.17976968
5303.5763876
5304.4268753
5252.40367361
5253.80488154
5256.22273224
5259.62263927
5263.93480431
5269.02684317
5275.01521438
5280.99018998
5285.11838689
5286.84341814
5288.04993711
5289.05744353
5292.22203157
5297.49665063
5302.98506341
5307.22298932
5310.58522898
5313.13472202
5314.87706516
5315.91978908
5253.46716184
5254.94241489
5257.520713
5261.15379654
5265.74070275
5271.12983328
5277.38540202
5283.75637933
5288.34662757
5290.59752914
5292.57043772
5294.45366297
5298.93303835
5305.38866634
5312.00025286
5317.06209149
5321.07600808
5324.10065865
5326.12633934
5327.32653153
5254.52871117
5256.06639658
5258.78080754
5262.60251649
5267.38035823
5272.89491146
5279.11193386
5285.34562534
5290.41011988
5293.84498203
5297.23451875
5300.80036649
5306.67282704
5313.94874875
5321.23405881
5326.89365809
5331.39764413
5334.77742915
5337.00679152
5338.31723382
5255.62663188
5257.22697019
5260.0722054
5264.0869712
5269.06009579
5274.7415449
5280.77317731
5286.54271385
5292.10513589
5297.40360157
5302.78955068
5308.52638961
5315.60124564
5323.1719701
5330.49085221
5336.51638905
5341.33528634
5344.9174675
5347.24508099
5348.58624766
5256.76794009
5258.46337116
5261.41922558
5265.65423078
5270.94276681
5276.97626155
5283.37633609
5289.77410025
5296.34100466
5303.0159681
5309.88620488
5317.04581673
5324.72961524
5332.30387904
5339.49164997
5345.62749516
5350.56194924
5354.2445857
5356.96132102
5358.57429458
5257.78987568
5259.59035231
5262.7989939
5267.34259145
5273.02717992
5279.57209468
5286.65712924
5294.04469023
5301.6620297
5309.41934985
5317.26805137
5325.20258461
5333.18533915
5340.79310367
5347.87039771
5353.96670022
5358.87398231
5362.94307211
5365.34941621
5366.8338859
5258.91010321
5260.80706027
5264.20962534
5269.05953879
5275.14569864
5282.19563417
5289.9112186
5298.05844665
5306.49053147
5315.07639795
5323.68216521
5332.20153817
5340.47145011
5348.12755771
5355.17598837
5361.18562474
5366.49902636
5370.08287283
5372.38570896
5373.77461617
5259.99945022
5261.98423049
5265.5620489
5270.69891209
5277.16409745
5284.68220496
5292.96246439
5301.75694747
5310.85213049
5320.06063199
5329.20268849
5338.13195789
5346.65008594
5354.403426
5361.34891745
5367.26206647
5372.24223179
5375.87902658
5378.14632905
5379.46664041
5261.00203124
5263.06137457
5266.78785741
5272.16917667
5278.96572653
5286.88548006
5295.63143422
5304.92971936
5314.52264853
5324.17899211
5333.71559134
5342.98362253
5351.5634723
5359.36906785
5366.28809583
5372.30234843
5376.99840725
5380.49834163
5382.78098238
5383.92740965
5261.85895565
5263.97216985
5267.82660555
5273.39980871
5280.45284004
5288.68237924
5297.77649872
5307.43555354
5317.37015386
5327.30979257
5337.23622855
5346.56280394
5355.20193919
5362.9949531
5369.80483984
5375.74913656
5380.38273634
5383.8319829
5386.06754421
5387.14929247
5262.51218174
5264.66771365
5268.63339581
5274.34766713
5281.56925228
5289.9974269
5299.31246579
5309.19458588
5319.33459921
5329.44538339
5339.58090953
5348.93504577
5357.5890681
5365.32507512
5372.00598896
5377.84609881
5382.49926203
5385.94229091
5388.15500667
5389.22769798
5262.92290405
5265.09418822
5269.13813017
5274.94146583
5282.26526318
5290.80828904
5300.24744412
5310.25631497
5320.52462756
5330.77853899
5340.87870055
5350.31904236
5358.98273825
5366.76046554
5373.51078694
5379.15876981
5383.69529169
5386.97694294
5389.1557306
5390.24202724
5244.75237354
5245.09810051
5245.73366212
5246.60087203
5247.62676462
5248.72061491
5249.78047819
5250.70048903
5251.38726177
5251.78865559
5251.90237535
5251.77322533
5251.47218663
5251.0843528
5250.67085412
5250.31702521
5250.17257197
5250.0964516
5250.10046967
5250.18649666
5245.08752205
5245.56002154
5246.33349908
5247.33467651
5248.51114806
5249.78259089
5251.04842316
5252.17899902
5253.06029211
5253.62550313
5253.87487559
5253.85957314
5253.65577991
5253.36090819
5253.04247738
5252.74952825
5252.50599458
5252.50709096
5252.57948507
5252.67943535
5245.68110841
5246.28652478
5247.23945493
5248.45899608
5249.91570034
5251.53751152
5253.2107149
5254.76015467
5256.02062156
5256.89642656
5257.39562896
5257.5827544
5257.54457477
5257.40806348
5257.25183406
5257.11794386
5257.02715441
5257.07223987
5257.20289631
5257.3638747
5246.48626466
5247.2143245
5248.37091116
5249.89069566
5251.76692054
5253.92162755
5256.22352625
5258.41380768
5260.23444707
5261.54171276
5262.36465201
5262.79659114
5262.98050721
5263.11721106
5263.24164895
5263.37366576
5263.50433666
5263.64686647
5263.85100307
5264.07314958
5247.44682522
5248.2984852
5249.69103331
5251.59275758
5254.0115043
5256.86144912
5260.00191583
5263.04993133
5265.56979445
5267.34964572
5268.48180071
5269.2032124
5269.66211895
5270.04386309
5270.51110547
5271.02190776
5271.49187329
5271.8913634
5272.24145048
5272.53438239
5248.49919152
5249.47966043
5251.1362177
5253.47603785
5256.52722957
5260.20877752
5264.45220002
5268.71713194
5272.11887692
5274.41657333
5275.81709331
5276.78128011
5277.42551189
5277.83123205
5278.66371662
5279.66773522
5280.60413759
5281.38531206
5281.98524986
5282.39263719
5249.58589901
5250.69481798
5252.61452309
5255.38158363
5259.03168359
5263.49482461
5268.93487621
5274.76154444
5278.82886278
5281.03079835
5282.28326321
5283.01686191
5283.84335209
5285.03024478
5286.86535682
5288.74658885
5290.38676805
5291.70034419
5292.65530404
5293.24639705
5250.66599001
5251.8956849
5254.05301058
5257.18260755
5261.291815
5266.26705855
5272.50391047
5279.39068647
5283.0572248
5284.20039565
5284.59120544
5284.55376448
5286.35233785
5290.90151308
5294.97587872
5298.08828508
5300.5970379
5302.53415589
5303.90018233
5304.7137068
5251.7157554
5253.04934796
5255.40526351
5258.82542275
5263.28473173
5268.64705705
5275.34162034
5282.87738541
5286.70469842
5287.61767034
5287.99987551
5288.41807363
5291.23995319
5297.68265208
5303.47884397
5307.72895587
5311.0815508
5313.62816601
5315.39645362
5316.42713679
5252.73562468
5254.15454619
5256.67472204
5260.33365757
5265.06843658
5270.73148167
5277.67422757
5285.53587379
5289.81842269
5291.25000288
5292.50780501
5293.80817813
5297.94703961
5305.69205928
5312.59472621
5317.66777795
5321.68804046
5324.72991597
5326.83004962
5328.03661441
5253.7438162
5255.23690031
5257.89701007
5261.74332806
5266.65790734
5272.45236997
5279.18607363
5286.65625951
5291.59021543
5294.29147419
5297.19847027
5300.23217407
5305.8572172
5314.33454593
5321.90019524
5327.58810088
5332.11085354
5335.53372923
5337.8772931
5339.21037687
5254.76795489
5256.34408773
5259.15415749
5263.20161567
5268.32834034
5274.19860563
5280.29126118
5285.75811005
5291.20775006
5296.58460165
5302.16167054
5308.12497955
5315.51825092
5323.70909512
5331.21792727
5337.25835723
5342.0905343
5345.76697644
5348.27797672
5349.66266848
5255.81604786
5257.48615265
5260.51398656
5264.8477081
5270.30165394
5276.57481898
5283.15018783
5289.53463774
5296.25288668
5303.12129861
5310.20297156
5317.55108912
5325.40469998
5333.12152626
5340.33054445
5346.42083074
5351.36976389
5355.18690377
5358.02287103
5359.69884022
5257.01346338
5258.81791187
5262.03135831
5266.64655358
5272.5085858
5279.31957009
5286.65333106
5294.19050178
5301.98673559
5309.95015931
5317.98585205
5326.05408131
5334.12638494
5341.7492162
5348.78480232
5354.84051572
5359.82312214
5363.91794904
5366.49196309
5368.0323297
5258.15658367
5260.09686206
5263.53989225
5268.46998238
5274.72587369
5282.02614177
5289.99681258
5298.35128406
5306.97468967
5315.75103153
5324.51189526
5333.12762109
5341.4718874
5349.14141623
5356.12927015
5362.23267849
5367.40791951
5371.15204212
5373.62197399
5375.0888638
5259.25218461
5261.30571284
5264.96867974
5270.2079344
5276.83801313
5284.58400879
5293.11274456
5302.13133869
5311.42704949
5320.81690894
5330.09322021
5339.07260048
5347.73995522
5355.46453735
5362.42029332
5368.42253738
5373.38408595
5377.00361792
5379.38239193
5380.78491213
5260.25462464
5262.38963131
5266.23240049
5271.74548546
5278.71078029
5286.83930574
5295.81394011
5305.33354705
5315.12876095
5324.96410506
5334.60148765
5344.03424644
5352.65997766
5360.48707253
5367.4485173
5373.39522164
5378.01889206
5381.51893332
5383.82012813
5384.98030711
5261.10415562
5263.29695435
5267.27283524
5272.99617512
5280.22604536
5288.65651613
5297.96691639
5307.84129156
5317.9800776
5328.12339568
5338.13227811
5347.60318268
5356.31902554
5364.17330692
5371.09003602
5376.79637914
5381.37592314
5384.79230763
5387.02751854
5388.12724424
5261.74795811
5263.99323556
5268.07412327
5273.9378377
5281.33956432
5289.96940479
5299.49439264
5309.58562869
5319.92597771
5330.2265057
5340.47998706
5349.96583277
5358.69935133
5366.527998
5373.3673154
5378.99131588
5383.5203233
5386.88177169
5389.07917425
5390.15941831
5262.16452922
5264.43316893
5268.58429491
5274.53494687
5282.03391362
5290.77052671
5300.40902096
5310.61387622
5321.06444588
5331.46798869
5341.76100711
5351.29224965
5360.05059904
5367.90509772
5374.77645545
5380.36032914
5384.65684045
5387.92674837
5390.0824858
5391.16402067
5244.06132622
5244.38051142
5244.97989462
5245.80617023
5246.7862226
5247.82791963
5248.82809609
5249.67601823
5250.27467512
5250.57010127
5250.56570617
5250.31091328
5249.88325046
5249.37749533
5248.8758581
5248.47693481
5248.19005276
5248.04671751
5248.01698251
5248.09748631
5244.36986111
5244.8096852
5245.54507822
5246.50228951
5247.63820509
5248.87145331
5250.09914908
5251.18436111
5252.00292498
5252.48484962
5252.63666575
5252.51543519
5252.20218175
5251.80111396
5251.38575341
5251.01843678
5250.7639999
5250.62984909
5250.64796921
5250.7386407
5244.92251266
5245.4900126
5246.40763795
5247.5908262
5249.02813568
5250.64512426
5252.32563765
5253.87834218
5255.11795884
5255.94183372
5256.37068452
5256.4807637
5256.36316502
5256.13582613
5255.89381926
5255.67420458
5255.51603761
5255.44346276
5255.51568807
5255.66850929
5245.67819996
5246.3620956
5247.48819886
5248.99299239
5250.89013646
5253.09898144
5255.48565109
5257.76421309
5259.62590899
5260.91672769
5261.70149921
5262.0957043
5262.2552044
5262.20952583
5262.21673245
5262.27503133
5262.32391761
5262.37546996
5262.51012572
5262.71594062
5246.58118538
5247.39150424
5248.77047501
5250.69642948
5253.19999397
5256.19242116
5259.54042104
5262.82064792
5265.4662778
5267.26284967
5268.39695874
5269.01079238
5269.33399169
5269.51630241
5269.8793133
5270.33586142
5270.73593803
5271.05184771
5271.32961569
5271.59391633
5247.56818866
5248.51740314
5250.18843016
5252.6093971
5255.83771772
5259.80395297
5264.50346106
5269.37276475
5273.07105378
5275.43576209
5276.95340261
5277.72799507
5278.05906599
5277.87650151
5278.47160109
5279.40448062
5280.27860646
5280.9947138
5281.5355739
5281.91547047
5248.58317391
5249.67363093
5251.63492175
5254.533952
5258.43760738
5263.31936327
5269.58178397
5277.32217255
5282.0945835
5284.24466714
5285.3130548
5285.67392096
5285.79335488
5285.60839457
5287.06211072
5288.84492181
5290.4428497
5291.73285419
5292.66638245
5293.24849374
5249.58507799
5250.80942792
5253.02724271
5256.31810337
5260.688869
5266.02632607
5273.07676369
5283.16302291
5286.90879478
5286.01898888
5284.18118067
5282.12159523
5283.08777465
5290.70879396
5295.33599668
5298.46509822
5300.99173947
5302.9650363
5304.35799273
5305.18775184
5250.55156924
5251.89034173
5254.32111748
5257.9191639
5262.63519197
5268.3279531
5275.75232909
5286.9138456
5290.32508938
5288.80322067
5286.99410977
5284.92711961
5287.48944269
5297.64268176
5304.15859086
5308.41402089
5311.8170909
5314.4436539
5316.28100712
5317.34970371
5251.48590448
5252.91929567
5255.52694101
5259.38177065
5264.37918453
5270.3506169
5278.13962388
5289.53456018
5293.2156566
5292.24117428
5291.53328335
5290.18807393
5294.35002942
5306.04102336
5313.65472182
5318.68195079
5322.75370926
5325.90895806
5328.10803186
5329.36587617
5252.41189981
5253.92515653
5256.68154401
5260.73441158
5265.90904833
5271.92826075
5279.20719733
5289.5713304
5293.88900033
5294.73112246
5295.73455857
5296.70482349
5302.78757442
5314.86770147
5323.21207572
5328.86134043
5333.46333072
5337.02095479
5339.4948295
5340.89271754
5253.37216805
5254.97412082
5257.88860605
5262.15122037
5267.54260515
5273.65495296
5279.6403551
5283.69953437
5288.78058038
5294.26025831
5300.10110439
5306.44856188
5314.79559723
5324.47171244
5332.56531731
5338.7256534
5343.68062649
5347.51706447
5350.16280061
5351.7575763
5254.40196262
5256.12098316
5259.2368574
5263.78478524
5269.55677858
5276.1651792
5282.87830176
5289.00986452
5295.88015721
5303.02250227
5310.45422368
5318.18738783
5326.50242267
5334.50773106
5341.92940034
5348.1033315
5353.17448222
5357.18926956
5360.10116961
5361.71708235
5255.52679581
5257.40256212
5260.7511902
5265.61564689
5271.83644657
5279.05819834
5286.70342515
5294.39284329
5302.42840471
5310.72398191
5319.07849032
5327.42694432
5335.74575217
5343.49834939
5350.6243306
5356.73968299
5361.84773372
5365.88614385
5368.60570483
5370.18297309
5256.6431751
5258.68281213
5262.28796347
5267.47420234
5274.09596005
5281.82022104
5290.18034222
5298.84277142
5307.77343389
5316.87120512
5325.91921365
5334.76484932
5343.29152866
5351.06018695
5358.13995533
5364.23582633
5369.33517939
5373.20969895
5375.80352004
5377.19575582
5257.71726174
5259.8935142
5263.74509787
5269.24949049
5276.23705815
5284.40276262
5293.34297661
5302.73227972
5312.36915989
5322.08141564
5331.63137938
5340.82715445
5349.62838401
5357.45252603
5364.45089543
5370.46870526
5375.39797909
5379.09858614
5381.53406287
5382.74537801
5258.70119479
5260.96991108
5265.02203162
5270.81160017
5278.12606048
5286.65506414
5296.03830406
5305.94379628
5316.09461823
5326.25625618
5336.1690389
5345.78328555
5354.56587796
5362.48239015
5369.45643891
5375.34817782
5380.0723877
5383.59936343
5385.89911984
5387.02572344
5259.53780253
5261.86531161
5266.05878385
5272.06816667
5279.64559118
5288.46428634
5298.17422545
5308.43500341
5318.9360857
5329.40855183
5339.67338075
5349.34582634
5358.21612479
5366.16103251
5373.08328888
5378.8243827
5383.40494569
5386.7992237
5389.01286628
5390.08381077
5260.17237937
5262.56077841
5266.85975595
5273.01293773
5280.76445626
5289.77840015
5299.69739691
5310.17288092
5320.87370789
5331.49097962
5342.0216846
5351.69757519
5360.57867029
5368.49048666
5375.3187862
5381.01776525
5385.50473787
5388.82101406
5390.98195734
5392.03707088
5260.59525027
5263.01581716
5267.3814751
5273.62441362
5281.47138364
5290.58710222
5300.61335204
5311.19514989
5321.99799361
5332.74605274
5343.25283759
5352.99245224
5361.89746591
5369.83392207
5376.65999271
5382.19462214
5386.56046609
5389.79818387
5391.93857998
5392.99608267
5243.09753794
5243.39335225
5243.94974362
5244.71890922
5245.62746117
5246.58199915
5247.47777683
5248.19873259
5248.64378531
5248.75989663
5248.55753839
5248.09493599
5247.45807555
5246.75549795
5246.07983854
5245.51372061
5245.09870011
5244.86398611
5244.78484633
5244.86161424
5243.37955189
5243.82335347
5244.5334837
5245.44165068
5246.51678141
5247.67945234
5248.82525395
5249.81181869
5250.50195401
5250.82703159
5250.80187119
5250.49199383
5249.98562704
5249.39873334
5248.81612194
5248.29832569
5247.90216613
5247.66898392
5247.63154929
5247.71370601
5243.87966712
5244.46574163
5245.37345615
5246.52658296
5247.93227776
5249.51935022
5251.16944787
5252.67994499
5253.84097598
5254.54525146
5254.82825667
5254.77820398
5254.4839432
5254.09141745
5253.69866624
5253.33210386
5253.04818159
5252.85231787
5252.86143197
5253.00793048
5244.56326735
5245.26938013
5246.40084751
5247.90702974
5249.8241794
5252.07534038
5254.52160029
5256.86236513
5258.72298936
5259.94199954
5260.61377199
5260.86909982
5260.81246212
5260.611867
5260.48973107
5260.43777968
5260.37077615
5260.30651591
5260.36946715
5260.56793843
5245.37581075
5246.21410415
5247.62235926
5249.59923914
5252.20005814
5255.34508348
5258.8947681
5262.42972855
5265.17672779
5266.95073011
5267.99320998
5268.47308344
5268.5837663
5268.50363606
5268.70748668
5269.08090172
5269.39066616
5269.61237886
5269.82346111
5270.07959724
5246.25627855
5247.24368489
5248.97793365
5251.51767013
5254.95327766
5259.24645845
5264.43432457
5270.09536647
5273.99142954
5276.39940823
5277.80995223
5278.48471809
5278.40591616
5277.6102243
5277.93015769
5278.77347417
5279.5742583
5280.2282085
5280.72847313
5281.11366618
5247.15184047
5248.2916948
5250.34901289
5253.43218009
5257.64373631
5263.02614579
5270.27958577
5282.06230035
5288.12198152
5290.69985068
5291.73538828
5291.66882823
5290.18329715
5286.32060173
5287.090639
5288.78830391
5290.347263
5291.62864643
5292.57106147
5293.18969388
5248.0224491
5249.30829876
5251.64645278
5255.16162045
5259.8408517
5265.53228771
5272.94329012
5290.82146247
5295.66074926
5298.86347382
5301.45557208
5303.49669817
5304.96009954
5305.86633035
5248.84801977
5250.25681424
5252.8276858
5256.67944522
5261.70814616
5267.7104918
5275.07651462
5298.58086033
5305.1691182
5309.35349454
5312.84639209
5315.59655105
5317.5535673
5318.72879122
5249.63921269
5251.14950311
5253.91820166
5258.05066913
5263.37346192
5269.59256638
5276.73350012
5307.80159933
5315.37368608
5320.18130382
5324.34519112
5327.64741002
5329.99801033
5331.37779387
5250.42847282
5252.02140633
5254.95084049
5259.30080229
5264.83746909
5271.22878709
5278.09143346
5316.72770082
5325.46318342
5330.82497101
5335.5330132
5339.27148562
5341.9207732
5343.42515561
5251.26802893
5252.95541415
5256.05101895
5260.62714603
5266.39807328
5272.83584541
5278.5222139
5277.21233387
5281.28637907
5288.32167633
5295.59314896
5303.62027526
5313.76293494
5325.84223286
5334.672555
5341.00615643
5346.14534372
5350.18536616
5353.09000621
5354.86440274
5252.20388115
5254.02718612
5257.34613499
5262.22205701
5268.44417186
5275.52762821
5282.42719008
5287.99104459
5294.98762784
5302.96293265
5311.22871219
5319.78084083
5328.65433395
5336.6882552
5344.3851759
5350.72486743
5355.93265655
5360.17349835
5363.16640186
5364.91047907
5253.23799422
5255.2402418
5258.81554799
5264.05111069
5270.78040778
5278.56593548
5286.6603439
5294.5472327
5302.93901358
5311.79135217
5320.68226777
5329.50688964
5338.1956796
5346.1282904
5353.43702564
5359.65749774
5364.92709926
5369.02232678
5371.84625865
5373.52863902
5254.29879699
5256.49083996
5260.34723049
5265.9211547
5273.06397437
5281.39081286
5290.30484574
5299.42455254
5308.81922491
5318.41639763
5327.91632698
5337.1498124
5345.95710143
5353.91199049
5361.17241095
5367.32367346
5372.47444163
5376.46681571
5379.14798076
5380.50593881
5255.32765636
5257.67813573
5261.8095375
5267.71344907
5275.22472482
5283.98986534
5293.5295266
5303.46587396
5313.6209904
5323.82785629
5333.82506762
5343.38668823
5352.40116617
5360.42048905
5367.55062788
5373.63324499
5378.61990708
5382.39550796
5384.84787833
5386.02179997
5256.27831355
5258.73270592
5263.08471969
5269.28891055
5277.12159425
5286.24045028
5296.22829434
5306.70987807
5317.4022171
5328.0665323
5338.44356407
5348.32481076
5357.39075846
5365.49674204
5372.57570936
5378.52299396
5383.29299097
5386.82518089
5389.08917406
5390.15873196
5257.09630752
5259.61090802
5264.11516893
5270.55303083
5278.65208855
5288.05277888
5298.36236978
5309.20784909
5320.25768637
5331.22909924
5341.92377486
5351.91500158
5361.0482762
5369.17059532
5376.17912069
5381.97358857
5386.54565082
5389.89796489
5392.04730347
5393.05743394
5257.72209115
5260.30827441
5264.92532483
5271.51650604
5279.79698463
5289.39275021
5299.91014267
5310.96984357
5322.22519359
5333.38067484
5344.22996211
5354.2611389
5363.38654834
5371.45379383
5378.40811985
5384.08965716
5388.53659587
5391.78423155
5393.87293169
5394.87113442
5258.15663777
5260.78440598
5265.47422421
5272.16363747
5280.5439841
5290.24341825
5300.86725896
5312.02959292
5323.37444404
5334.64808058
5345.49876991
5355.56045969
5364.69811387
5372.766374
5379.60312101
5385.13414467
5389.48507233
5392.66149098
5394.73094625
5395.74893208
5241.86716309
5242.1393788
5242.64442647
5243.3397801
5244.14784301
5244.97610234
5245.71394728
5246.24389993
5246.46229967
5246.31635164
5245.82862012
5245.06929805
5244.13517688
5243.15137338
5242.22218021
5241.43202513
5240.83677216
5240.48041787
5240.33153116
5240.39350459
5242.11915463
5242.57248607
5243.25719989
5244.10653182
5245.0974892
5246.15290636
5247.16577643
5247.98976381
5248.48004078
5248.56979063
5248.28356956
5247.70035869
5246.9179398
5246.06951799
5245.2488095
5244.51720322
5243.91579406
5243.56645959
5243.46018184
5243.52401148
5242.55260377
5243.17115639
5244.07635403
5245.19630921
5246.55252356
5248.07788169
5249.64793473
5251.05519216
5252.07047983
5252.58379214
5252.64674326
5252.36094078
5251.82005797
5251.20070778
5250.60418934
5250.06042489
5249.58595047
5249.2429394
5249.17853484
5249.31407995
5243.1369545
5243.88926781
5245.04087682
5246.55267885
5248.47982197
5250.74948513
5253.20846551
5255.55083642
5257.34890078
5258.43886895
5258.94025131
5259.0067165
5258.70701445
5258.31592354
5258.00950726
5257.81415357
5257.59855486
5257.39783336
5257.38273261
5257.57560981
5243.82316132
5244.71843189
5246.17658061
5248.21844336
5250.91750363
5254.20245603
5257.90324992
5261.61363166
5264.40525754
5266.1245276
5267.06257208
5267.45714269
5267.23390579
5266.90076965
5266.93956698
5267.22046707
5267.42886735
5267.55272853
5267.70032254
5267.95713828
5244.55190051
5245.60961755
5247.43512825
5250.12010815
5253.77658463
5258.39563584
5263.96959512
5270.1275028
5274.16982695
5276.58138614
5277.93964256
5278.33957972
5277.91669988
5276.81377802
5276.94424199
5277.73604122
5278.48013887
5279.0875323
5279.56687409
5279.97509155
5245.27444094
5246.49775909
5248.69089408
5252.00484605
5256.57125779
5262.51757704
5270.58731769
5284.40846123
5291.42096308
5294.61008994
5295.92284106
5295.67492294
5293.18896883
5286.49110838
5286.82902183
5288.53685443
5290.10319227
5291.41186214
5292.39943816
5293.08546245
5245.95339097
5247.34125963
5249.85232506
5253.66795396
5258.78763464
5265.17318907
5273.51198177
5290.95625126
5295.648483
5299.23761123
5302.00418063
5304.17831703
5305.76475359
5306.78877122
5246.57494111
5248.10223666
5250.87658979
5255.08041043
5260.60613105
5267.38503142
5275.68948522
5299.12201002
5305.7961055
5310.46512963
5314.20753563
5317.15518663
5319.29416971
5320.62495252
5247.1581757
5248.79427623
5251.79716543
5256.32462379
5262.18562904
5269.23032268
5277.40037789
5309.247015
5316.85405047
5322.08834042
5326.49777196
5330.03083204
5332.59874055
5334.1547045
5247.74703137
5249.47247001
5252.65436877
5257.43107725
5263.5409396
5270.75045184
5278.31400973
5318.77026118
5327.7978651
5333.45410382
5338.39506764
5342.37282243
5345.2584258
5347.01401804
5248.40623011
5250.23235862
5253.59367305
5258.61814029
5264.95135985
5272.00834472
5277.88405937
5273.79296959
5278.28837875
5286.04554894
5294.16725363
5303.26696997
5314.69240086
5328.11925246
5337.52720402
5344.18410852
5349.57621362
5353.88604144
5357.05628207
5358.97285472
5249.19384489
5251.17045951
5254.77130402
5260.13260951
5266.99774734
5274.78076912
5282.19188297
5287.6936828
5295.22996953
5303.99874589
5313.03249363
5322.28008739
5331.65213996
5339.83093432
5347.80827771
5354.37118709
5359.85348904
5364.2724916
5367.43793255
5369.33302147
5250.10379116
5252.28529853
5256.1804645
5261.93238835
5269.34891792
5277.92343186
5286.69639143
5295.04795231
5304.01666542
5313.57492131
5323.11150558
5332.49179325
5341.602522
5349.7951741
5357.29418404
5363.69830088
5369.07841192
5373.39279685
5376.38786517
5378.08023158
5251.07419712
5253.47739887
5257.68285303
5263.78796387
5271.64099709
5280.77630285
5290.47436877
5300.26829505
5310.33014692
5320.60189929
5330.70528246
5340.43526608
5349.64353777
5357.86930305
5365.25643392
5371.56660304
5376.84092992
5380.97251754
5383.74024584
5385.10038246
5252.03161955
5254.61755014
5259.12903218
5265.58293915
5273.80104784
5283.38260955
5293.74034406
5304.4411868
5315.31502324
5326.20321973
5336.78807457
5346.87232293
5356.18533081
5364.49441937
5371.79037207
5377.98686866
5383.05806293
5386.89654513
5389.34056161
5390.46061764
5252.93135275
5255.63198834
5260.39036753
5267.16324646
5275.70419947
5285.62703581
5296.43986933
5307.71636241
5319.15322432
5330.50055107
5341.48332704
5351.80999985
5361.24298525
5369.60801829
5376.83757532
5382.87397497
5387.66981464
5391.18237477
5393.37629444
5394.37230487
5253.71929292
5256.48607312
5261.41154416
5268.43726984
5277.25278888
5287.45037397
5298.58422705
5310.23073819
5322.03156948
5333.66815741
5344.98462248
5355.41267871
5364.90174847
5373.26883725
5380.4004859
5386.23374003
5390.77381757
5394.04506888
5396.08697064
5397.01144121
5254.33347213
5257.18176475
5262.23357522
5269.428688
5278.43654915
5288.83235249
5300.17060636
5312.03139159
5324.03572444
5335.89560719
5347.25289143
5357.73658771
5367.19274803
5375.46669262
5382.54546577
5388.21512652
5392.5864737
5395.71939012
5397.68893026
5398.60097425
5254.78006337
5257.67463523
5262.81105182
5270.11613436
5279.23231174
5289.73745707
5301.18374031
5313.13991319
5325.21518525
5337.20941242
5348.55569516
5359.04529719
5368.4932128
5376.73568387
5383.63826516
5389.14450198
5393.39987627
5396.45164041
5398.40332893
5399.34680953
5240.39060472
5240.63527827
5241.07930628
5241.67850491
5242.35379262
5243.00650526
5243.52646522
5243.79220074
5243.69575387
5243.19362277
5242.32092117
5241.16326821
5239.83565308
5238.47919383
5237.21422547
5236.13316943
5235.31119923
5234.78061655
5234.53438551
5234.56882473
5240.60438802
5241.06327112
5241.71384957
5242.48711768
5243.36386009
5244.26756216
5245.08818897
5245.6761389
5245.88180484
5245.64399919
5245.00578101
5244.05675232
5242.91257135
5241.72290128
5240.59565344
5239.59173675
5238.78598131
5238.22466702
5238.01934952
5238.05034803
5240.95205041
5241.60122566
5242.49961215
5243.57448799
5244.85508625
5246.27863378
5247.71067403
5248.94335451
5249.73026798
5249.96831301
5249.72868215
5249.12957136
5248.28122333
5247.37719328
5246.5283288
5245.75840642
5245.05775021
5244.52855098
5244.36906594
5244.48408671
5241.40738836
5242.20734132
5243.38008025
5244.890886
5246.80800838
5249.06479488
5251.47973538
5253.7424258
5255.38853008
5256.27572006
5256.541232
5256.35500018
5255.79805709
5255.17721812
5254.69398384
5254.33542383
5253.94545043
5253.58521332
5253.47677308
5253.65846726
5241.92273573
5242.88204029
5244.39659556
5246.50608261
5249.29639808
5252.69969295
5256.49239373
5260.25499386
5262.99600252
5264.58541493
5265.3402278
5265.5177077
5265.09268783
5264.58243942
5264.50307986
5264.70835839
5264.81708106
5264.83620991
5264.91990786
5265.17515126
5242.44223839
5243.58174798
5245.51533277
5248.36185899
5252.25056356
5257.18534912
5263.06059586
5269.43602571
5273.53236517
5275.86985389
5276.99343563
5277.21574889
5276.61169749
5275.33849395
5275.44207859
5276.25838899
5276.98802905
5277.5714497
5278.04365812
5278.4854538
5242.92546171
5244.25567551
5246.61385381
5250.19677798
5255.16416056
5261.70404925
5270.53920194
5284.95572707
5292.2301121
5295.51580281
5296.62170189
5296.32353016
5293.4397757
5285.72115597
5286.18152257
5288.06233769
5289.72317379
5291.11217481
5292.1793178
5292.95230752
5243.3418243
5244.8583927
5247.59381908
5251.78653786
5257.48386849