/*--------------------------------*- C++ -*----------------------------------*\
| =========                 |                                                 |
| \\      /  F ield         | OpenFOAM: The Open Source CFD Toolbox           |
|  \\    /   O peration     | Version:  v1606+                                |
|   \\  /    A nd           | Web:      www.OpenFOAM.com                      |
|    \\/     M anipulation  |                                                 |
\*---------------------------------------------------------------------------*/
FoamFile
{
    version     2.0;
    format      ascii;
    class       surfaceVectorField;
    location    "1.1";
    object      Uf;
}
// * * * * * * * * * * * * * * * * * * * * * * * * * * * * * * * * * * * * * //

dimensions      [0 1 -1 0 0 0 0];

internalField   nonuniform List<vector> 
33146
(
(0.00308438542588 0.00185329854682 -0.00243936965128)
(0.00157590575195 0.00360594703462 -0.00247052826248)
(0.00159600921032 0.00185853829726 -0.00446023057401)
(0.00606688033052 0.00185521504112 -0.00236957341516)
(0.0045941348227 0.00347149749918 -0.00247319730525)
(0.00470558993307 0.0019453008818 -0.00430267251594)
(0.00890844682091 0.00181762656485 -0.00228478521587)
(0.00739287025535 0.00331894308171 -0.0024339285004)
(0.00758245771896 0.00191759211091 -0.00410701756791)
(0.0115278339998 0.00177199182997 -0.00217381981776)
(0.0101433156933 0.00319806363559 -0.00236357333267)
(0.0103557702257 0.00188222253048 -0.00387922452425)
(0.0138822200442 0.00172257687343 -0.00204227962769)
(0.0126364709616 0.00309178750279 -0.00228380171715)
(0.0128543473642 0.00184421143427 -0.00363934014302)
(0.0158790155654 0.00166810238371 -0.00186446173726)
(0.0148236953578 0.00299621961514 -0.00215561319939)
(0.0150597184844 0.001805330168 -0.0033466548109)
(0.0174344454532 0.00161974585374 -0.00166522204267)
(0.0166051837266 0.00290301241523 -0.00195501119379)
(0.0168506412422 0.00175981606796 -0.00299044282693)
(0.0185109315311 0.00155436442173 -0.00144849980886)
(0.0178734193334 0.00280608982364 -0.0017467374234)
(0.01814865872 0.00172946326451 -0.0025997394846)
(0.0191183371219 0.00146019455059 -0.00121184796639)
(0.0186488573924 0.00262357540609 -0.00148989861503)
(0.0189652586069 0.00164318671245 -0.00215841387216)
(0.019251734652 0.0013640696722 -0.000976843533665)
(0.0189827776327 0.00242768511008 -0.00123686760275)
(0.0193138509754 0.00155514735691 -0.00170715661818)
(0.0188991321014 0.00126851778205 -0.000739690263239)
(0.0188480057984 0.00223029669259 -0.00098606588745)
(0.0191863560136 0.00146411448673 -0.0012492878329)
(0.0180795183734 0.00116488847923 -0.00051484563039)
(0.0182363030082 0.00202569187509 -0.00074268817054)
(0.018574610581 0.00136777344962 -0.000801532944148)
(0.0168463647493 0.00105211779368 -0.000300069415053)
(0.0171743320312 0.00181628257244 -0.000515991372996)
(0.017508090191 0.00125616786113 -0.000388185277451)
(0.0152502825318 0.000929879412442 -9.41316192982e-05)
(0.0157722022369 0.00159062028097 -0.000305942111586)
(0.0160877631074 0.00112918706483 5.60072530565e-07)
(0.013354664336 0.000793850086089 9.23752762392e-05)
(0.0140730325407 0.00137807132414 -0.000116233512171)
(0.0143615234192 0.000998237160468 0.000339792975242)
(0.0112103081686 0.000668361264692 0.000259836624458)
(0.0120880899759 0.0011513129307 4.6895037286e-05)
(0.0123358591059 0.000869613439766 0.000658615859145)
(0.00881121614922 0.000599191681545 0.000414806879547)
(0.00989318294819 0.000951090065164 0.000200516422817)
(0.0100720238383 0.000781790813857 0.000964895071765)
(0.00617103118359 0.000605809104179 0.000520965586415)
(0.00743873291832 0.00088779446937 0.000334572114781)
(0.00751904892173 0.000747777168274 0.0011682570162)
(0.00326517444942 0.000708737706694 0.000562930152894)
(0.00481366994582 0.000978634591658 0.000430124539911)
(0.00477744568268 0.00078387818418 0.00128481093356)
(0.00181330764544 0.00128969489199 0.00060087027395)
(0.00180222324466 0.000823240701318 0.00131698331173)
(0.0028794202008 0.00546906386768 -0.00250435591645)
(0.00155529444814 0.00730155850419 -0.00243204006853)
(0.0015802700933 0.00555241987476 -0.0043833652842)
(0.00585209550665 0.00534904838602 -0.00253760762939)
(0.0044192921762 0.00717561440916 -0.00252931068391)
(0.00457002143318 0.00556493965333 -0.00445120715128)
(0.00868436818526 0.00519543612189 -0.00251318852004)
(0.00715094592639 0.00698245649189 -0.00254019034251)
(0.0073742727734 0.00541461526852 -0.00434030017521)
(0.0112971767767 0.00505650274327 -0.00247546341081)
(0.0099030040538 0.00683600042207 -0.0025648248643)
(0.01016530804 0.00527915925143 -0.00421515458282)
(0.0136361431061 0.00492893193909 -0.00240145638892)
(0.0124059204728 0.00671371335928 -0.00255845755352)
(0.0126948507647 0.00515240615651 -0.00408065455642)
(0.0156167484002 0.00481427066786 -0.00225243164221)
(0.0145963290653 0.00659947040875 -0.00247158006447)
(0.014905073656 0.00503002561574 -0.00386672416384)
(0.017110685716 0.00468660293113 -0.00204344287062)
(0.0163720985102 0.00650856285987 -0.0023048044525)
(0.0167148952337 0.0049051145397 -0.00353278096594)
(0.0181502946606 0.00447997713523 -0.00179326522331)
(0.0175670562231 0.00630139326838 -0.00204062771546)
(0.0179790272415 0.00477382641595 -0.0031105422523)
(0.0187117034218 0.00419831622822 -0.00151844834829)
(0.018249052951 0.00594857433016 -0.00175634965803)
(0.0187173397871 0.00451319695874 -0.0026314424249)
(0.0188084778287 0.00390052695276 -0.00124858424036)
(0.0185287006182 0.00552112356717 -0.00145314378804)
(0.0190164508905 0.00422389285756 -0.00213222581507)
(0.0184335261446 0.00359596286294 -0.00099077379955)
(0.0183552991209 0.00508274608501 -0.00114944263851)
(0.0188459596331 0.0039273886627 -0.00163486265018)
(0.0175963392686 0.00328873598021 -0.000744936163154)
(0.0177213050827 0.00464682290959 -0.000859904431446)
(0.0182072027104 0.00361008512794 -0.00116282091943)
(0.016340907996 0.00296189650131 -0.000523152751294)
(0.0166455131217 0.0041935289134 -0.000602436280512)
(0.0171276386954 0.00329348495131 -0.000723866822917)
(0.0148215915416 0.00262724078738 -0.000328475433607)
(0.0152748653444 0.00365761489892 -0.000414044025267)
(0.0157296330209 0.00291699295048 -0.00035500316105)
(0.012981768142 0.00229268960939 -0.000161776919074)
(0.0136327872542 0.00321400090982 -0.00023089707398)
(0.0140427314467 0.00258704698229 -6.31114862168e-06)
(0.0108935877659 0.00195674329417 -1.23069486335e-05)
(0.0116907432938 0.00277271656472 -8.31781593282e-05)
(0.0120564638659 0.00225238630163 0.000292661009487)
(0.00858211141518 0.00171629797795 0.000120371983645)
(0.00956365906433 0.002411834925 6.45267222455e-05)
(0.00983891730912 0.00198348216432 0.000553966801503)
(0.00604156493271 0.00168102203303 0.000243747037278)
(0.0072047847158 0.00220210100749 0.000183141466542)
(0.00735372620949 0.00186236182992 0.000813766439878)
(0.00329027475709 0.00186468172261 0.000468064660967)
(0.00471241898813 0.00222972032188 0.000329894334568)
(0.00471747033457 0.00191261931363 0.00100013111147)
(0.00177235791203 0.00244725109048 0.000677387997869)
(0.00174073295807 0.00197008213067 0.00142180793364)
(0.00271769774466 0.00903823991993 -0.0024569650045)
(0.00152429893751 0.0108704089113 -0.00234183444554)
(0.0015301725492 0.00921195261283 -0.00419104288012)
(0.00562728272988 0.0088625637081 -0.00253196869059)
(0.00424667403991 0.0107293392332 -0.00247613822539)
(0.00437078079126 0.00912146566915 -0.00431982739494)
(0.00845188292862 0.0086905761035 -0.00259188743932)
(0.0069243181377 0.0105468117796 -0.00256474558648)
(0.00711341500774 0.0089225948736 -0.00434753182679)
(0.0110774498427 0.0085642470523 -0.00264881378418)
(0.00967395287571 0.0104452228149 -0.00269358304492)
(0.00991000083226 0.00876556343007 -0.00440019938719)
(0.0134021645176 0.008468886617 -0.00263169537935)
(0.0121720094716 0.010384706941 -0.00273802284471)
(0.0124553305017 0.00862901465953 -0.00438865808979)
(0.015314590841 0.0083619269214 -0.00252997522879)
(0.0143391929303 0.0103474159348 -0.00268787876966)
(0.0146806932991 0.00849066332978 -0.00421764943099)
(0.0168698915283 0.00821572152218 -0.00230414161166)
(0.0161201485304 0.0102213019954 -0.00253695437927)
(0.0165113083423 0.00830600855868 -0.00390457577036)
(0.0177432725792 0.00791035172499 -0.00200589609994)
(0.0172077690364 0.0101291079459 -0.00219516354608)
(0.017706151173 0.00816346831331 -0.00339342594897)
(0.0182349618529 0.00742239799557 -0.00168954535567)
(0.0177148582977 0.00955959411986 -0.00188100991896)
(0.0183296287097 0.00773159029015 -0.00286709721302)
(0.0182871192729 0.00688623486072 -0.00135144133569)
(0.0179147762333 0.00884721949179 -0.00150948538162)
(0.0185615267381 0.00722132977735 -0.00228311547012)
(0.0178731222465 0.00632835503806 -0.00101583322854)
(0.0176972947879 0.00809289351005 -0.00112038433439)
(0.018343081663 0.00668781788094 -0.00169434347784)
(0.017035123825 0.00578233812832 -0.000714740593095)
(0.0170600639619 0.00731268446295 -0.000753378815229)
(0.0176857957384 0.00612004868332 -0.00115017128367)
(0.0157582649152 0.00519952417828 -0.000497957542888)
(0.0159634607829 0.00662641176804 -0.000475589031308)
(0.0165778335044 0.00558231708514 -0.00069876609684)
(0.0143085502798 0.00461412559291 -0.000320766309271)
(0.0146460452397 0.00579035257477 -0.000349927718287)
(0.0152040495263 0.00490938554326 -0.000403594869355)
(0.0125161276676 0.00405771392187 -0.000157378057343)
(0.0130984370017 0.00514576904253 -0.000171415507269)
(0.0135874059537 0.00437152391615 -8.5119007456e-05)
(0.0104996495519 0.00350958940763 -8.91145683271e-06)
(0.0111968436683 0.00443491467961 -2.55108011081e-05)
(0.0116441273986 0.00380458303033 0.000204668238224)
(0.00828143597647 0.00306891175633 0.000126621234748)
(0.00914605081536 0.00383367416447 0.00013440967265)
(0.0094935414582 0.00333911925877 0.000488359998864)
(0.00583852226764 0.00283615608234 0.000269026064604)
(0.00688017091983 0.00343969905513 0.000268154118773)
(0.00709244418991 0.00303771517455 0.000778177838416)
(0.00322478803848 0.00284913861026 0.000539169954795)
(0.00452672919645 0.00331162804816 0.000424130871863)
(0.00459420760378 0.00294028994276 0.00101706481917)
(0.00172572160502 0.00336219179627 0.000781698120425)
(0.0017202747716 0.00291257246201 0.00153989043381)
(0.00260532398332 0.0124722341403 -0.00236070589198)
(0.00149085664227 0.0141427173505 -0.00219176941815)
(0.00150854221879 0.0126881682469 -0.00391976174115)
(0.00545762078796 0.0123076644736 -0.00250793377974)
(0.00408016963948 0.0139787446787 -0.00239915020535)
(0.00421732063832 0.0125897950317 -0.00413117395704)
(0.00824900523483 0.0121833758237 -0.00266144470354)
(0.00671014263773 0.0138399840662 -0.002573335283)
(0.00689762445031 0.0124102595006 -0.00433451080737)
(0.0108581307117 0.012144329725 -0.00277553162793)
(0.00944102295044 0.0137962728119 -0.00275570280375)
(0.00968148482128 0.0122870599172 -0.00453145676092)
(0.0131105851692 0.0121364057888 -0.00278811710389)
(0.0118798962413 0.0138406495064 -0.00280265761532)
(0.0122149859853 0.0121733181069 -0.00455612455888)
(0.0150303964762 0.0120875491167 -0.00269329382932)
(0.0139832583546 0.0138304551584 -0.00274237066929)
(0.0144095482474 0.0120127326867 -0.00438775276037)
(0.0165001753332 0.0120292463398 -0.00241624173822)
(0.015851223133 0.0137858112181 -0.00262622287663)
(0.016307944121 0.0117861725415 -0.00403504929388)
(0.0171826805936 0.0116679535765 -0.002059835226)
(0.0167517521547 0.0138775876662 -0.00215835824599)
(0.0173906741641 0.0117779737273 -0.00339829348477)
(0.0175474438311 0.0108819289916 -0.0016805025494)
(0.0168951689453 0.0130526864472 -0.00185292553341)
(0.0177626774295 0.0111277059938 -0.0028054516353)
(0.0175491816307 0.0099682068669 -0.00125375312506)
(0.0169523900894 0.0119058852768 -0.00141797595917)
(0.0178886544731 0.0103056787372 -0.00210631770522)
(0.017134786053 0.00904557006663 -0.000835560609725)
(0.0167163199711 0.010679534967 -0.000938001331379)
(0.0176138615429 0.00942695294922 -0.0014077984552)
(0.016301751811 0.00819625091091 -0.000493513750099)
(0.0161557764871 0.00952995270093 -0.000554323890833)
(0.0169522283433 0.00854396311962 -0.000842140307702)
(0.0150257697183 0.00734125583767 -0.000327270446931)
(0.015111237299 0.00853105835505 -0.000272326948662)
(0.0158053653917 0.00775218659582 -0.000349694345694)
(0.0136799253349 0.00652998595842 -0.000201145654131)
(0.0139596978516 0.00745822326084 -0.000258110265715)
(0.014496646651 0.00682067120126 -0.00017513547387)
(0.0119194137425 0.00573693561528 -5.01846558002e-05)
(0.012532562614 0.00667426019698 -7.74250182876e-05)
(0.0130026483075 0.00611785399684 0.000112833416795)
(0.00999801359178 0.00492373750599 0.000112045534747)
(0.0106459405979 0.00568535366778 5.0844866183e-05)
(0.0111076069472 0.00528448891447 0.000344884209565)
(0.00788466444942 0.00427262047933 0.000273344326583)
(0.00869322040764 0.00482874148139 0.000239801634514)
(0.00906174235191 0.00458241541847 0.000622208165898)
(0.00556714219823 0.00385069891027 0.000421916082396)
(0.00652597587191 0.00420381346299 0.000418673313157)
(0.00676577051 0.00409617304055 0.000944519157659)
(0.00305692919843 0.00365601008779 0.00066631649137)
(0.00426923916688 0.00389869333219 0.000585739225491)
(0.00436814474417 0.00381309296295 0.00125373861668)
(0.00163541594922 0.00382933804409 0.00089420092426)
(0.00165836098569 0.00360419073633 0.0017257548323)
(0.002496638153 0.0155326696423 -0.00222928222288)
(0.00143338650389 0.0169791739402 -0.00198728784089)
(0.00148017137782 0.0157777550526 -0.00356974705931)
(0.00527959179861 0.015401858895 -0.00246068611874)
(0.0038992495523 0.0168287966244 -0.00227494157958)
(0.00406136397663 0.0156904757092 -0.00391858783387)
(0.00802892052533 0.0153389974098 -0.00265573003974)
(0.00647786115052 0.0167222270831 -0.00250470641476)
(0.00668771534188 0.0155451240506 -0.0042624359952)
(0.0105685333375 0.0154001212662 -0.00276958397996)
(0.00916528736943 0.0167343815679 -0.0026674484819)
(0.00944199660837 0.0154311617308 -0.004500550413)
(0.0127428790646 0.0154922371628 -0.00275102496824)
(0.0115108364867 0.016852262401 -0.00266593118599)
(0.0119171721877 0.0153162356284 -0.00449115830013)
(0.0145519663861 0.0154693558094 -0.00268540223653)
(0.0134991509544 0.0168882051037 -0.00257378189237)
(0.0140759599645 0.0150880015265 -0.00426410560654)
(0.0161656684439 0.0155679645325 -0.00235049745373)
(0.0156359449124 0.0167620687026 -0.00259522886327)
(0.0161943132135 0.0147323147425 -0.00396058507201)
(0.0163178715733 0.0151706463372 -0.0019505792726)
(0.0161461493765 0.0175517244546 -0.0019423998157)
(0.0170193513966 0.015059187989 -0.00311051659627)
(0.0164723130521 0.0139109991766 -0.0015525552696)
(0.0155483325497 0.0162627821768 -0.001763695009)
(0.0168743842535 0.014072607721 -0.0025520299343)
(0.0163921536566 0.0124125308102 -0.00104832410281)
(0.015385416432 0.0144709816937 -0.00125521578311)
(0.0168046777547 0.0127719342261 -0.00175466178882)
(0.0160414203393 0.0108943231224 -0.000589973693247)
(0.0151832366441 0.012603947968 -0.000688534899999)
(0.0164797217128 0.0113390769484 -0.00102012900288)
(0.0153472306628 0.00962845918451 -0.00025805827576)
(0.0149167646219 0.0108490473151 -0.000218614227876)
(0.0159168504838 0.00995307515772 -0.000360801012696)
(0.0142010718568 0.00864149737059 -0.000189119081231)
(0.014276165197 0.00947260134065 0.000175138690349)
(0.0148700417055 0.00894438161423 0.00014882217328)
(0.0130757176601 0.00782207533763 -0.000133238083218)
(0.0134633672401 0.00845080749799 -7.50939654276e-05)
(0.0137792976174 0.00802777637994 7.37339795482e-05)
(0.0113092343631 0.00688672449802 -1.05038818949e-05)
(0.0120872161322 0.00767668028558 8.04449142814e-05)
(0.0124268762112 0.00733864381722 0.00034577431342)
(0.00947889111521 0.00579436804164 0.000164758450156)
(0.0101233295334 0.00640952963724 0.000133498716489)
(0.0105351051411 0.00625378336757 0.000499783915715)
(0.00746013690804 0.00488435820179 0.000377960596233)
(0.00824647314408 0.0052687452801 0.000287305125742)
(0.00860022382399 0.00529056342525 0.000781872941613)
(0.00524758642965 0.00426976594115 0.000578294257462)
(0.00616870705834 0.00439639985611 0.000523452199907)
(0.00641070674704 0.00458421475263 0.00113747090876)
(0.00283764703434 0.0039450655217 0.000812420511462)
(0.00398544270002 0.0039423774786 0.000744960632754)
(0.00411561881395 0.00414873970946 0.00149233694998)
(0.00151497140873 0.00380974096229 0.000987338772291)
(0.00156939771999 0.00380967379112 0.00189511541807)
(0.00237062201586 0.018110065733 -0.00203083870359)
(0.0013561039714 0.0192679845199 -0.00174780304414)
(0.00142850565045 0.0183725787124 -0.00314321729063)
(0.00508912138572 0.01800482793 -0.00231028294487)
(0.00370785780313 0.0191270214091 -0.00207105092247)
(0.00390478944663 0.0182964844565 -0.00359962668326)
(0.00780061044863 0.0179962628686 -0.00249715708479)
(0.00622711864546 0.0190287270451 -0.00229348322432)
(0.00647791632751 0.0181696257958 -0.00400448117695)
(0.0102460566599 0.0181370017366 -0.00254833261298)
(0.00886449248949 0.0190997412724 -0.00237900229483)
(0.00918178970068 0.0180467548881 -0.00419797887889)
(0.0123002255976 0.0183456958485 -0.00249117101921)
(0.0111705860402 0.0192680573065 -0.00224777391682)
(0.0115860785737 0.0179123458372 -0.00409550504635)
(0.0140896947663 0.0185319244599 -0.00255820423465)
(0.0131204679009 0.0193299964579 -0.00208142214399)
(0.0135899048328 0.0176991805198 -0.00387136170434)
(0.0157198712199 0.0195765390786 -0.00226307309925)
(0.0161333070987 0.0193463285995 -0.00211079302315)
(0.016156619061 0.0175696929988 -0.00377122405061)
(0.0149719103156 0.0199380998448 -0.00195160257468)
(0.01599270803 0.0214847917435 -0.000416936120826)
(0.016439430736 0.0195269714112 -0.0025453814635)
(0.0147297713522 0.0185437365672 -0.00166071715143)
(0.014072732545 0.0197570501043 -0.00049032354794)
(0.0153018779012 0.0183862841952 -0.00238126815765)
(0.0145375218112 0.0168055609683 -0.0011571658452)
(0.0136193782174 0.0172323644194 -1.190607242e-05)
(0.0149516648617 0.0167763395411 -0.00171503665942)
(0.0144292432158 0.0149370281914 -0.000642561123499)
(0.0133783049112 0.0143515660833 0.000561032962249)
(0.0146472068626 0.0150418733553 -0.00096451718863)
(0.014261031023 0.0129836650881 -0.00012449004019)
(0.0131089976294 0.0116340720541 0.00104376504416)
(0.0145029929844 0.0132906031028 -0.000293122583388)
(0.013880502036 0.0109707523739 1.64740309399e-05)
(0.0126207353253 0.00910530905235 0.00130443471499)
(0.0141178113462 0.0114670037643 0.000448277254363)
(0.0127057681959 0.00920905139303 -5.2228504119e-06)
(0.0120577271681 0.00934963673485 0.000264339187635)
(0.0133963202973 0.00962399762788 0.000144716247336)
(0.0107813589089 0.0076582051841 0.00010760048444)
(0.0111426293887 0.00827079731511 0.000249374149448)
(0.0120221131837 0.00827613783652 0.000543115886888)
(0.00897478153479 0.0061657811144 0.000219193976257)
(0.00940656002014 0.00665567856702 0.000249653033118)
(0.00999206963185 0.00676860552526 0.000637195795765)
(0.00703658691549 0.00493226044762 0.000417244907983)
(0.00775392064506 0.00524239280744 0.000333573596969)
(0.00813696423538 0.00548155634156 0.000880502877739)
(0.00488840941015 0.00410107893258 0.000681807720891)
(0.0058186453316 0.0040984857161 0.000589971918604)
(0.00604123775936 0.00450866204408 0.00128246604117)
(0.00256797103446 0.00369820106647 0.000917703453114)
(0.00370935113517 0.00347901522986 0.0008717595729)
(0.0038427793506 0.00394387020375 0.0016954020407)
(0.00139277144168 0.00330715390794 0.00105759937962)
(0.00146006498185 0.00352696970989 0.00201867978114)
(0.00224236659194 0.0200856625157 -0.00178517743361)
(0.00128419417131 0.02094464428 -0.0014787513725)
(0.00138286630548 0.0203582474325 -0.00265943198268)
(0.00489928826215 0.0199694032451 -0.00204160519216)
(0.0035035771003 0.0207624681337 -0.00180138570223)
(0.00375224332759 0.0202701792313 -0.0031436087656)
(0.00752652509446 0.0199441448493 -0.0021491911581)
(0.00593557975282 0.0206488971873 -0.00197040449249)
(0.00626724660975 0.0201038521448 -0.00349650351977)
(0.00995200666506 0.0200137938482 -0.0020493504296)
(0.00847860215848 0.02063624654 -0.00198366112696)
(0.00892589982195 0.0198882130361 -0.00357758922693)
(0.0120974873638 0.0199952870664 -0.00180271021619)
(0.0106512027359 0.0206261871981 -0.00177224320544)
(0.0112979246905 0.0195504123017 -0.00332079913581)
(0.0143732705524 0.0198302043983 -0.00166627147842)
(0.0124661479071 0.0202572677764 -0.00171636864214)
(0.0132653443846 0.0189176481124 -0.0030230982745)
(0.0165543943016 0.0209548612456 -0.000189015869988)
(0.016695442608 0.0196384924013 -0.00194553163251)
(0.0171439096213 0.0182212463871 -0.00244497663847)
(0.0143381077996 0.0208056654648 0.00103083648212)
(0.0154916864195 0.0213279183765 0.00182719595102)
(0.0169735103783 0.0207293429933 0.00202101075341)
(0.0135975263566 0.0176006682772 0.0013570170801)
(0.0111421401915 0.0184153897252 0.000776950539252)
(0.0141055261051 0.0180170521865 0.00168403481244)
(0.01307141783 0.0135872760572 0.00197541901545)
(0.010066589743 0.0151483290635 0.000484784801755)
(0.0133122438354 0.0144874992717 0.00181177408767)
(0.0127335927932 0.00965525453216 0.00258902550597)
(0.00979620876004 0.0113699493199 0.000356762673108)
(0.0128507772954 0.0106287058352 0.00201140126861)
(0.0119269819874 0.00626468394914 0.00283626525899)
(0.00979726388098 0.00817230059438 0.000509892071027)
(0.0123469246114 0.00744659658079 0.00232360773193)
(0.0110713483752 0.00623460134938 0.0018549999071)
(0.0119936433673 0.00497819624091 2.59731886843e-05)
(0.0118962741412 0.00444302768393 0.0024162306831)
(0.0106100334199 0.00756481202072 0.000738304732708)
(0.0130278260131 0.00759197804285 0.000547320119304)
(0.0111545080534 0.00742684130773 0.00109257686122)
(0.00956742779248 0.00682590619964 0.000445884720193)
(0.0108660330119 0.00691910034218 0.000454709625197)
(0.0105514894204 0.00722017824555 0.000972179649271)
(0.00822954429247 0.00559939282957 0.000392734356571)
(0.00903399770605 0.0057648443456 0.000388061777652)
(0.00905310154282 0.0061143349294 0.000875497023166)
(0.0065523768786 0.00437251537273 0.000501550219625)
(0.00744652881581 0.004533398095 0.000456261193002)
(0.00756077293635 0.00495125786478 0.00102402617608)
(0.00453792955404 0.00343411186587 0.00076994844483)
(0.00553580778599 0.00329976766556 0.000634648996856)
(0.00565408184796 0.00388406609569 0.00141810403306)
(0.00230273805576 0.00299776019648 0.00100838603139)
(0.0034533571597 0.00261685865058 0.000960188787281)
(0.00356921963323 0.00325793943095 0.00184723300828)
(0.00128029778774 0.00243794326786 0.0011078466474)
(0.00136523368925 0.00281657611267 0.00207270516577)
(0.00211039131528 0.0213945327092 -0.00149216372671)
(0.00120938646593 0.02196296963 -0.00118657349152)
(0.00133807604774 0.0216794872072 -0.00212538060799)
(0.00464467933658 0.0212476650934 -0.00171662203822)
(0.00326907086655 0.0217504445 -0.00148634083615)
(0.00355816416869 0.0215641386298 -0.00259403305788)
(0.00712800548913 0.0211828853302 -0.00178217311576)
(0.0055634126074 0.0216267771818 -0.00159686731127)
(0.00593806765881 0.0213640654602 -0.00287423466554)
(0.00935278506149 0.0211595047593 -0.00168914264261)
(0.00793926610442 0.0216043274812 -0.00154985597163)
(0.00840250173851 0.0210913799278 -0.00290468384746)
(0.0112574051979 0.0209419922209 -0.00167399716935)
(0.00986801237704 0.0215954799726 -0.00132153626022)
(0.0104195348754 0.0206450273187 -0.0027283356699)
(0.0135898006631 0.0204049749103 -0.00214346522689)
(0.0113807708666 0.0212030069076 -0.00148146694061)
(0.0118002628408 0.0197599640573 -0.00305065375732)
(0.0159666519262 0.0204535375593 9.83607877983e-05)
(0.0161511497495 0.0205057583913 -0.00220764961027)
(0.0163547555802 0.0186033201596 -0.00325177375658)
(0.0110874905945 0.0194651840838 0.00135739548089)
(0.0139584513528 0.0203542679911 0.00266212993731)
(0.0151809189931 0.0193392359221 0.0047870470683)
(0.00876096513714 0.0166110605881 -6.22878146204e-05)
(0.00770452272393 0.018424525362 0.000534369998594)
(0.00942803689428 0.0164918622242 0.00191047047813)
(0.00733178511925 0.0133193825528 -0.00113379311167)
(0.00637510164253 0.0166717376606 -0.000382515695797)
(0.00808851328765 0.0134752987516 -7.39532607182e-05)
(0.00796545428016 0.00998628344205 -0.00157312383268)
(0.00627440353999 0.0144223390786 -0.00110247517529)
(0.00786050867469 0.0101206725492 -0.00247984431947)
(0.00955674717092 0.00696519161827 -0.00240077031829)
(0.0065554988126 0.012133110575 -0.00107689824685)
(0.00820419635717 0.0074016270637 -0.0032075784994)
(0.0144379763588 0.006805125117 -0.00126351171043)
(0.0115297961971 0.00975569768838 -0.00238981381996)
(0.0134996844051 0.00473850714021 -0.00529130304951)
(0.0125144962827 0.00752204780936 -6.31268846854e-05)
(0.0142779998544 0.0100336389563 0.00025265981553)
(0.0158284163771 0.00731988223129 -0.000509538306292)
(0.0102392695446 0.00637621101973 0.000247869490888)
(0.0106149466723 0.00781419510391 0.000211122495352)
(0.0115104073446 0.00671683210664 0.000472571407775)
(0.00828563405366 0.00502541973159 0.000390981639556)
(0.00867703838393 0.00580676563788 0.000330449631186)
(0.00927720550458 0.0055664900062 0.00070058450509)
(0.006323426679 0.00363849540136 0.000548431563209)
(0.00712386071357 0.00402595686084 0.000548337644018)
(0.00750052811926 0.00426469007108 0.00103696092668)
(0.00425956643982 0.00254789617748 0.000803222363186)
(0.00521106157327 0.00244101979381 0.000653502477124)
(0.00543473204499 0.00303993898531 0.00146014636886)
(0.00207009713148 0.002038923879 0.00105437649638)
(0.00316162770818 0.00157355569703 0.00102094529323)
(0.00332967827258 0.0023072196785 0.00191797154846)
(0.00115852707219 0.00136265201741 0.00112658280739)
(0.00127502026288 0.0018313476689 0.00205276435301)
(0.00195001853559 0.0220542005701 -0.00117773765525)
(0.00111639873376 0.0223357667056 -0.000895430013075)
(0.00126848415634 0.0223443672931 -0.00157557952684)
(0.00431316775546 0.0218684644923 -0.00135137388635)
(0.00298141158164 0.0220913567489 -0.00116161499189)
(0.00332443833646 0.0222076437723 -0.0019880122108)
(0.00662841068745 0.0217659295836 -0.00133519859178)
(0.00509030887106 0.0219164521446 -0.00120650923516)
(0.00554912097866 0.0219886271378 -0.00216180382758)
(0.00864585087822 0.0216979644542 -0.00114347709476)
(0.00726407781586 0.0218606131775 -0.00107713019488)
(0.00784792338788 0.02171412482 -0.00206376522752)
(0.0103743618362 0.0214797914654 -0.00106353849724)
(0.00898399888031 0.0217532246251 -0.000769595633038)
(0.00967129303734 0.0212963137819 -0.00177761657442)
(0.0125433644926 0.0208746123992 -0.00162721837773)
(0.0102901391677 0.0213779255161 -0.000927924106045)
(0.0108597033096 0.0205602213866 -0.00212402886017)
(0.0145950680404 0.0198745564191 0.000528386150546)
(0.0147585740065 0.0204559016644 -0.0017255993634)
(0.0153493289589 0.0195360935418 -0.0020581243193)
(0.00908679835168 0.0184744358784 0.00177051515249)
(0.0121201681595 0.0184386163892 0.0031071832317)
(0.0136543344034 0.0181355684499 0.00605198802324)
(0.00684685951839 0.017066815616 0.000594528318147)
(0.0057502840791 0.0171187694754 0.00104867843514)
(0.0072956953337 0.0162964676765 0.00293308011205)
(0.00559821805283 0.0158569637453 -1.68944189232e-05)
(0.00451983576929 0.0161399744734 0.000410163386147)
(0.00637429934825 0.0149383350586 0.00137746414511)
(0.00631627985458 0.0144860664108 -1.0232272314e-05)
(0.00440466045108 0.0149088303634 -8.79216010313e-05)
(0.00625192053507 0.013693208167 -0.000682532889778)
(0.00741162254277 0.0128372818727 -0.000895110183401)
(0.0044357544131 0.013365797115 7.20610177185e-05)
(0.0062112946031 0.0124218654981 -0.00107283704943)
(0.0123269717465 0.0113226894205 -0.000241942262651)
(0.00961192890114 0.0118776532089 -0.00156061194245)
(0.0115967718286 0.01086533238 -0.00361178492918)
(0.0106890022746 0.00935172156613 0.000365294056437)
(0.0127880847667 0.0103496409288 0.000885152389145)
(0.0141630486154 0.00974454362838 0.000414702874952)
(0.00915332035158 0.00689559783057 0.000407209310878)
(0.0091929538463 0.00780723465141 0.000470850045458)
(0.0101397285812 0.00756705130767 0.000610167988064)
(0.00756019471915 0.00479048368948 0.000499479113993)
(0.0076177656521 0.00544434027799 0.000468143693191)
(0.0083802051467 0.00555530914791 0.000744433692463)
(0.00577759890274 0.00292538872731 0.000613264574571)
(0.00638102483267 0.00327276679904 0.000669348425397)
(0.00690649941262 0.00369846304415 0.00107806667294)
(0.00385059864935 0.00154852752345 0.000844967316307)
(0.00468207122154 0.00138894470489 0.000681466037716)
(0.00497655001271 0.00211633170869 0.00149519084838)
(0.00180719964601 0.000923801129572 0.00108696254664)
(0.00278623244766 0.000363680546845 0.00105918613067)
(0.00298656209464 0.00120781989664 0.00193126135464)
(0.00101444381348 0.000140216021081 0.00112064680243)
(0.00114992119961 0.000681290309419 0.00197840286885)
(0.00175130474173 0.0220865470805 -0.000876185023509)
(0.00100030819481 0.0221262816529 -0.000614119377249)
(0.00117270979842 0.0223837643293 -0.00104290765038)
(0.00390524518764 0.0218552454104 -0.00100156732282)
(0.00262593424001 0.0218371504328 -0.000846558345955)
(0.00301815020766 0.0222225972106 -0.00139353944915)
(0.00598783814005 0.0216905376785 -0.000917828015038)
(0.00448987467934 0.0215984488739 -0.000835414126257)
(0.00504117285873 0.0219600128909 -0.00146397061955)
(0.00778931518138 0.0215355110817 -0.000662737758625)
(0.00640974697766 0.0214476541519 -0.000642439337513)
(0.00713061353086 0.0216325773214 -0.00125793349258)
(0.0092681232372 0.0212347359231 -0.000565520079891)
(0.00791735611907 0.0212162591047 -0.000291969556679)
(0.00873307588769 0.0211450791653 -0.000879892764866)
(0.0112120658494 0.0207370976475 -0.00112444656183)
(0.00921492130423 0.0207577084093 -0.000453055914878)
(0.00974363366095 0.0204025735768 -0.00116517844008)
(0.0126502692008 0.0195867162291 0.00087425219017)
(0.0131923164511 0.0197570702087 -0.000944106010945)
(0.0135417817079 0.019775065 -0.000860979817436)