/*--------------------------------*- C++ -*----------------------------------*\
| =========                 |                                                 |
| \\      /  F ield         | OpenFOAM: The Open Source CFD Toolbox           |
|  \\    /   O peration     | Version:  v1606+                                |
|   \\  /    A nd           | Web:      www.OpenFOAM.com                      |
|    \\/     M anipulation  |                                                 |
\*---------------------------------------------------------------------------*/
FoamFile
{
    version     2.0;
    format      ascii;
    class       volScalarField;
    location    "0.3";
    object      alpha.particlesMean;
}
// * * * * * * * * * * * * * * * * * * * * * * * * * * * * * * * * * * * * * //

dimensions      [0 0 0 0 0 0 0];

internalField   nonuniform List<scalar> 
6000
(
0.414906
0.418939
0.414994
0.41349
0.410081
0.407695
0.403913
0.400681
0.397758
0.395919
0.395291
0.39486
0.393807
0.393268
0.392362
0.39296
0.393338
0.394203
0.394545
0.394878
0.396155
0.398365
0.401017
0.404361
0.40767
0.410339
0.413815
0.415659
0.419359
0.414485
0.390599
0.394295
0.392137
0.391101
0.389674
0.388751
0.387945
0.387431
0.387021
0.386727
0.386514
0.386352
0.386293
0.386154
0.38606
0.386158
0.386232
0.38629
0.386344
0.386471
0.386614
0.386855
0.387282
0.387839
0.388664
0.389634
0.391013
0.39213
0.394036
0.390035
0.390601
0.404193
0.400707
0.402286
0.401304
0.400123
0.398657
0.397842
0.397049
0.396483
0.396007
0.395637
0.39547
0.395298
0.395293
0.395212
0.395362
0.39546
0.395714
0.39607
0.396398
0.396929
0.397715
0.398751
0.400151
0.401447
0.40247
0.400922
0.403835
0.39012
0.382034
0.397338
0.394532
0.397767
0.398118
0.398105
0.397504
0.397524
0.397454
0.397586
0.397768
0.397921
0.398126
0.398231
0.398344
0.398258
0.398265
0.398057
0.397907
0.397741
0.397434
0.397252
0.397276
0.397502
0.398053
0.398202
0.397836
0.394464
0.396675
0.381241
0.370184
0.383998
0.384835
0.389135
0.390221
0.390361
0.389696
0.389559
0.39
0.391006
0.392292
0.39342
0.394305
0.394969
0.395381
0.395313
0.394963
0.394211
0.393315
0.392152
0.390801
0.389817
0.389422
0.389734
0.390507
0.390382
0.389191
0.384589
0.38303
0.368948
0.359781
0.374194
0.379127
0.38431
0.385548
0.385312
0.38419
0.382965
0.382662
0.38321
0.384367
0.385699
0.386958
0.387988
0.388662
0.38858
0.387948
0.386848
0.385609
0.384274
0.383085
0.382607
0.383026
0.384333
0.385538
0.385728
0.38444
0.37897
0.373204
0.358355
0.351563
0.368085
0.375746
0.381301
0.382259
0.381085
0.379329
0.377691
0.376959
0.376903
0.377327
0.378118
0.379054
0.379938
0.380567
0.380482
0.379906
0.378967
0.378089
0.377324
0.376867
0.376952
0.377766
0.379392
0.381219
0.38243
0.381441
0.375643
0.367225
0.350174
0.343573
0.361227
0.371895
0.379065
0.380438
0.378056
0.373741
0.369938
0.367975
0.367114
0.366782
0.366924
0.367378
0.367876
0.368294
0.368229
0.367872
0.367314
0.36692
0.366817
0.367109
0.367996
0.370019
0.373949
0.378456
0.380836
0.37932
0.37175
0.360398
0.342304
0.332995
0.351633
0.366182
0.377274
0.380907
0.37858
0.372195
0.364742
0.359024
0.355649
0.353406
0.352202
0.351637
0.351466
0.351533
0.351491
0.351462
0.351577
0.352194
0.353426
0.35567
0.359136
0.365015
0.372595
0.37907
0.381323
0.377395
0.365793
0.350672
0.331842
0.320721
0.340167
0.357057
0.37206
0.379867
0.379903
0.373177
0.363112
0.353037
0.346083
0.34147
0.338677
0.336904
0.335881
0.335459
0.335443
0.335884
0.336877
0.338654
0.341435
0.346118
0.353201
0.363513
0.373688
0.380339
0.380101
0.371822
0.356351
0.339067
0.31955
0.312175
0.333823
0.35458
0.374561
0.386793
0.389292
0.382082
0.369648
0.356761
0.347159
0.340214
0.335965
0.33352
0.332057
0.3314
0.331405
0.332072
0.333534
0.335971
0.34024
0.347281
0.357052
0.370192
0.382869
0.39003
0.38712
0.374302
0.353802
0.332756
0.311102
0.315228
0.339021
0.361401
0.384326
0.400885
0.407169
0.401046
0.386467
0.371535
0.360428
0.351925
0.345761
0.342574
0.340847
0.340077
0.340085
0.34087
0.342604
0.345768
0.351958
0.360542
0.371833
0.387053
0.401903
0.407869
0.400993
0.383855
0.360544
0.338023
0.314244
0.325249
0.349275
0.370216
0.393871
0.413427
0.423641
0.419896
0.40439
0.388085
0.376405
0.367418
0.360018
0.355366
0.353154
0.352196
0.352204
0.353173
0.355374
0.359966
0.367369
0.37641
0.388301
0.40498
0.420642
0.424062
0.413198
0.393168
0.369326
0.348361
0.324363
0.336889
0.360477
0.378934
0.401808
0.42289
0.436588
0.436002
0.420984
0.403938
0.392335
0.383553
0.376004
0.370258
0.367267
0.366048
0.366046
0.367249
0.370189
0.375876
0.383412
0.392252
0.404083
0.421564
0.436695
0.436761
0.422393
0.401004
0.378105
0.359683
0.336133
0.349658
0.372499
0.388402
0.409245
0.430273
0.446513
0.450109
0.436619
0.41973
0.408614
0.400222
0.393061
0.387255
0.383763
0.382375
0.382366
0.383729
0.387166
0.392927
0.400072
0.408528
0.419879
0.437203
0.450741
0.44643
0.429638
0.40848
0.387717
0.371863
0.34905
0.36373
0.385947
0.399495
0.417669
0.437424
0.455503
0.463306
0.451733
0.43571
0.425061
0.416999
0.410227
0.404833
0.401285
0.399799
0.399794
0.401275
0.404792
0.41015
0.416911
0.425036
0.43591
0.452354
0.46393
0.455338
0.436809
0.417068
0.399017
0.385493
0.363266
0.379027
0.401077
0.41282
0.428605
0.446419
0.465226
0.475574
0.465898
0.451168
0.440899
0.433137
0.4267
0.421753
0.418485
0.417044
0.417051
0.418516
0.421782
0.426705
0.433143
0.440958
0.451418
0.466508
0.476191
0.465165
0.44596
0.428216
0.412532
0.400789
0.378686
0.395473
0.417609
0.428163
0.441788
0.457446
0.475648
0.487083
0.47914
0.465782
0.456007
0.448638
0.442576
0.438084
0.435243
0.433997
0.434022
0.435318
0.438185
0.442664
0.448729
0.456144
0.46608
0.479743
0.487715
0.475774
0.457217
0.441566
0.428016
0.417446
0.395265
0.413101
0.434618
0.444443
0.456169
0.469915
0.486976
0.49775
0.490986
0.479437
0.470481
0.463625
0.458052
0.454086
0.451714
0.450724
0.450764
0.451825
0.454246
0.45821
0.463782
0.470686
0.479797
0.491541
0.498343
0.487232
0.46991
0.456074
0.444361
0.434513
0.41303
0.431559
0.451148
0.460343
0.470387
0.482607
0.497314
0.506605
0.501556
0.492367
0.484394
0.4781
0.473111
0.469723
0.467805
0.467051
0.467103
0.467938
0.469926
0.473318
0.478307
0.484659
0.492826
0.502207
0.507196
0.497581
0.482753
0.470345
0.460246
0.451005
0.431527
0.449829
0.466163
0.474603
0.482878
0.492887
0.504233
0.513956
0.511542
0.5048
0.497792
0.492008
0.487628
0.484804
0.483274
0.4827
0.482756
0.483421
0.485035
0.487879
0.492267
0.498135
0.505369
0.512348
0.514508
0.504798
0.493362
0.482991
0.474466
0.465953
0.449753
0.466996
0.479012
0.486249
0.490916
0.501373
0.512103
0.521599
0.52214
0.517046
0.510626
0.505299
0.50152
0.499175
0.497936
0.497484
0.497542
0.498094
0.499425
0.501816
0.505624
0.511036
0.517655
0.522915
0.522138
0.512973
0.501991
0.491311
0.486093
0.478724
0.466816
0.482255
0.489886
0.491141
0.497651
0.511212
0.521795
0.530706
0.533223
0.528783
0.522714
0.517934
0.514705
0.512729
0.511688
0.511306
0.511364
0.511849
0.512987
0.515026
0.5183
0.523126
0.529236
0.533736
0.531398
0.522792
0.511595
0.498398
0.491146
0.489512
0.481932
0.494628
0.493123
0.49508
0.50682
0.519248
0.531721
0.54014
0.54282
0.539057
0.533806
0.52974
0.527037
0.52537
0.524462
0.524108
0.524163
0.524615
0.525617
0.527348
0.530087
0.534144
0.539302
0.543044
0.540798
0.53257
0.519963
0.507383
0.495485
0.492537
0.494158
0.50157
0.49258
0.503217
0.515758
0.528992
0.541681
0.548394
0.549771
0.547175
0.543387
0.540296
0.538151
0.536739
0.535907
0.535552
0.535598
0.536034
0.536945
0.538409
0.540577
0.543619
0.547284
0.549837
0.548781
0.542383
0.529966
0.516134
0.503876
0.492279
0.500906
0.504281
0.498054
0.513556
0.525316
0.541014
0.55094
0.554387
0.554668
0.553224
0.551002
0.548905
0.54727
0.546086
0.545319
0.544971
0.545004
0.545409
0.546234
0.547455
0.549097
0.551146
0.553271
0.554687
0.55454
0.551397
0.542031
0.526187
0.514192
0.49827
0.503691
0.506715
0.50822
0.525353
0.539725
0.552226
0.557237
0.558388
0.558258
0.557504
0.556235
0.5548
0.553504
0.552513
0.551869
0.55161
0.551626
0.551919
0.552598
0.553602
0.554889
0.556303
0.557496
0.558274
0.558443
0.557436
0.55286
0.540984
0.526278
0.508706
0.506426
0.512489
0.52108
0.540742
0.552951
0.559151
0.560868
0.561076
0.560712
0.55992
0.558726
0.557372
0.55623
0.55554
0.555295
0.555219
0.555211
0.555324
0.55556
0.556237
0.557342
0.558707
0.559847
0.560696
0.561084
0.560927
0.559395
0.553692
0.541829
0.52209
0.51291
0.522102
0.539153
0.553613
0.560204
0.562523
0.562945
0.562618
0.561632
0.560122
0.558309
0.556662
0.555839
0.555783
0.556029
0.556191
0.556169
0.55607
0.555782
0.555817
0.556532
0.558183
0.559993
0.561555
0.562568
0.562921
0.562553
0.560469
0.5543
0.540329
0.52289
0.533318
0.552872
0.560711
0.563322
0.564138
0.563913
0.562704
0.560504
0.557761
0.555019
0.55384
0.554107
0.554943
0.555569
0.555934
0.555914
0.555623
0.554956
0.554099
0.5537
0.554827
0.557559
0.560362
0.562599
0.563845
0.564102
0.563361
0.56101
0.553575
0.534136
0.542499
0.559564
0.563805
0.564761
0.564918
0.563564
0.560537
0.556119
0.551967
0.54863
0.550289
0.552244
0.554108
0.555196
0.555705
0.555706
0.555255
0.554151
0.552276
0.550233
0.548551
0.551632
0.555852
0.560334
0.563441
0.564864
0.564745
0.563862
0.559861
0.543221
0.549765
0.562808
0.565236
0.565571
0.56447
0.560411
0.553626
0.546475
0.542646
0.540727
0.546536
0.550647
0.553722
0.555168
0.555753
0.55577
0.555227
0.553804
0.550783
0.546588
0.540755
0.54228
0.546094
0.553243
0.560119
0.564333
0.565539
0.565219
0.562884
0.550252
0.555053
0.564489
0.565936
0.565645
0.560852
0.551808
0.541777
0.534075
0.533002
0.534734
0.543457
0.54997
0.553886
0.555531
0.556142
0.556157
0.55558
0.553981
0.550172
0.54367
0.534965
0.532829
0.533602
0.541207
0.551403
0.560492
0.565504
0.565902
0.564491
0.555361
0.559353
0.565582
0.566199
0.562208
0.551985
0.538815
0.528036
0.524235
0.527495
0.532727
0.542092
0.550251
0.55451
0.556186
0.556753
0.556759
0.556213
0.554589
0.550465
0.542432
0.533111
0.527686
0.523942
0.52752
0.538156
0.551477
0.56184
0.566149
0.565555
0.559531
0.562572
0.566086
0.563502
0.553311
0.538599
0.523824
0.517879
0.520127
0.527924
0.534974
0.542295
0.55131
0.555404
0.556918
0.557363
0.557358
0.556913
0.55545
0.551517
0.542856
0.535311
0.528367
0.520251
0.517628
0.523286
0.537882
0.552861
0.563129
0.566045
0.562628
0.564616
0.564069
0.555167
0.540695
0.523469
0.514887
0.514692
0.521928
0.532348
0.539403
0.543721
0.552732
0.556336
0.557513
0.557809
0.557792
0.557478
0.556335
0.552929
0.544381
0.539668
0.532871
0.522526
0.514731
0.51439
0.522967
0.539965
0.55473
0.563751
0.564588
0.564089
0.555105
0.544335
0.527121
0.513342
0.510811
0.51696
0.52789
0.538493
0.544144
0.547276
0.554289
0.557155
0.557914
0.558035
0.55801
0.557847
0.557102
0.554416
0.5476
0.544331
0.538922
0.528679
0.517525
0.510777
0.513112
0.526575
0.543829
0.554595
0.563861
0.559267
0.544862
0.532462
0.515694
0.509717
0.513245
0.523692
0.535284
0.544097
0.548302
0.550702
0.555726
0.557653
0.557948
0.557886
0.55786
0.55785
0.557543
0.555748
0.550864
0.548356
0.544359
0.536034
0.524548
0.513656
0.509712
0.515406
0.532225
0.544441
0.558873
0.551501
0.534529
0.522352
0.511791
0.514083
0.521009
0.532247
0.542333
0.548694
0.551753
0.553658
0.556809
0.557646
0.557467
0.557225
0.557207
0.55733
0.557486
0.556698
0.553634
0.551654
0.548776
0.542736
0.533042
0.521645
0.51428
0.51122
0.522353
0.534491
0.551069
0.542338
0.523263
0.523332
0.519256
0.525315
0.532559
0.541155
0.548393
0.552478
0.5546
0.555956
0.55714
0.556899
0.556314
0.55599
0.555978
0.556128
0.556691
0.55687
0.555719
0.554299
0.552296
0.548326
0.541349
0.5323
0.524761
0.518663
0.5234
0.523965
0.542199
0.534152
0.522533
0.532314
0.535281
0.541511
0.545164
0.549655
0.553655
0.555863
0.556667
0.5567
0.556212
0.555565
0.555273
0.555135
0.555117
0.555125
0.555344
0.5558
0.556266
0.556139
0.555312
0.553101
0.548965
0.544214
0.54019
0.534448
0.532231
0.522709
0.533935
0.52677
0.527695
0.541915
0.549161
0.553011
0.554212
0.556214
0.557653
0.557577
0.556468
0.555198
0.55459
0.554578
0.55489
0.554963
0.554941
0.55476
0.554332
0.55413
0.554516
0.555692
0.556797
0.556783
0.55525
0.553268
0.552229
0.548705
0.542003
0.528374
0.526689
0.526854
0.538568
0.552586
0.557623
0.558712
0.558789
0.559282
0.558181
0.555692
0.553264
0.552794
0.55341
0.554231
0.554866
0.555139
0.555138
0.554803
0.554011
0.552877
0.551873
0.551903
0.554584
0.557164
0.558363
0.557972
0.558348
0.557409
0.552279
0.538613
0.527056
0.535504
0.551726
0.559777
0.5614
0.560698
0.559693
0.557927
0.553991
0.550024
0.548889
0.550705
0.552762
0.554288
0.555117
0.555458
0.555491
0.555173
0.554239
0.552316
0.549723
0.547035
0.548335
0.552348
0.556628
0.558723
0.560328
0.561293
0.559581
0.551305
0.535833
0.544923
0.559352
0.562905
0.562861
0.560461
0.557176
0.551485
0.545203
0.542288
0.545679
0.54944
0.552866
0.554678
0.555484
0.555796
0.555851
0.55562
0.554803
0.552732
0.548684
0.544224
0.54038
0.543045
0.549593
0.555558
0.55955
0.562633
0.562825
0.559172
0.545061
0.552025
0.562627
0.564043
0.561951
0.557141
0.549588
0.540786
0.535426
0.536331
0.543908
0.549461
0.553398
0.555132
0.555837
0.556113
0.556181
0.556032
0.555395
0.553544
0.549103
0.543208
0.534905
0.533964
0.539052
0.547791
0.555518
0.561097
0.563942
0.562584
0.552052
0.557547
0.564042
0.563276
0.557602
0.548607
0.537703
0.529399
0.528641
0.534607
0.54355
0.550181
0.554009
0.555522
0.556104
0.556344
0.556424
0.556343
0.555901
0.554405
0.550249
0.543478
0.533917
0.527845
0.528423
0.536133
0.546878
0.556224
0.562433
0.563982
0.557499
0.561194
0.563645
0.558038
0.548476
0.536861
0.525249
0.520992
0.52716
0.536632
0.544216
0.55122
0.554578
0.55583
0.556288
0.556483
0.556574
0.556568
0.556316
0.555202
0.551724
0.544551
0.536646
0.52701
0.520856
0.524563
0.535363
0.546967
0.55691
0.562967
0.561163
0.562521
0.557455
0.54929
0.537704
0.52502
0.51657
0.520842
0.531783
0.540776
0.546066
0.552483
0.555137
0.556024
0.556338
0.556505
0.5566
0.556644
0.556556
0.555907
0.55331
0.546624
0.541223
0.532089
0.521298
0.516517
0.524166
0.536368
0.548154
0.556353
0.562161
0.559681
0.548447
0.540073
0.527256
0.515986
0.517103
0.527116
0.538738
0.54513
0.54867
0.553682
0.555459
0.556029
0.556278
0.556448
0.556533
0.556583
0.55658
0.556303
0.554688
0.549415
0.545783
0.539134
0.527708
0.517725
0.515634
0.526113
0.539083
0.547482
0.558914
0.55298
0.539655
0.532227
0.519094
0.517718
0.524138
0.534988
0.544384
0.548651
0.551046
0.554382
0.555473
0.555962
0.556238
0.556454
0.556506
0.556507
0.55645
0.556361
0.555568
0.552154
0.549629
0.545033
0.535515
0.525077
0.518072
0.517852
0.531233
0.539284
0.552466
0.544617
0.532638
0.526628
0.519055
0.525412
0.532248
0.541854
0.548548
0.551235
0.552593
0.554521
0.555395
0.55602
0.556379
0.556613
0.556627
0.556552
0.556333
0.556175
0.555829
0.554286
0.552736
0.54975
0.542805
0.5333
0.526102
0.51903
0.524782
0.532099
0.544412
0.53655
0.527271
0.525761
0.52705
0.53348
0.539562
0.547206
0.551303
0.552424
0.552931
0.554354
0.55551
0.556268
0.556696
0.556899
0.556874
0.556724
0.556394
0.555932
0.555465
0.555021
0.554911
0.553465
0.549048
0.541617
0.534995
0.527668
0.525953
0.52493
0.536438
0.529596
0.526095
0.53231
0.535414
0.540975
0.545863
0.55071
0.552079
0.551378
0.552334
0.554353
0.555885
0.556776
0.557178
0.557301
0.557247
0.557057
0.556635
0.555903
0.554881
0.554036
0.554474
0.555633
0.554557
0.549552
0.544194
0.538427
0.53607
0.523466
0.528713
0.528218
0.530358
0.541588
0.543621
0.547656
0.550156
0.551026
0.549139
0.548718
0.551798
0.554878
0.556667
0.557468
0.557745
0.557785
0.557713
0.557538
0.557131
0.556252
0.554594
0.552389
0.55114
0.553265
0.55581
0.556236
0.554251
0.548703
0.544497
0.531962
0.526895
0.531703
0.538174
0.548642
0.550977
0.552289
0.550289
0.546914
0.542763
0.546983
0.552271
0.556015
0.557636
0.558191
0.558313
0.558284
0.558201
0.558058
0.55774
0.55694
0.555052
0.551481
0.547397
0.546496
0.551175
0.555589
0.558208
0.557745
0.553007
0.541378
0.532054
0.537535
0.546098
0.554909
0.554983
0.551136
0.545358
0.539399
0.538718
0.547197
0.553931
0.557432
0.558589
0.558843
0.558805
0.558713
0.558621
0.558515
0.558306
0.557717
0.556011
0.551924
0.545898
0.539263
0.542747
0.549336
0.555554
0.559424
0.55984
0.553068
0.541616
0.545422
0.555454
0.557058
0.551649
0.544256
0.535747
0.532494
0.539537
0.54937
0.556305
0.558847
0.559421
0.559365
0.559178
0.559021
0.558922
0.558861
0.558766
0.558411
0.557144
0.553354
0.546281
0.536471
0.534048
0.539464
0.548032
0.5555
0.560424
0.560237
0.550799
0.553632
0.557397
0.551844
0.543486
0.533614
0.526964
0.531957
0.54411
0.553454
0.558771
0.560099
0.560077
0.559722
0.559393
0.559175
0.559079
0.559089
0.559146
0.559061
0.558292
0.555335
0.547934
0.538148
0.527956
0.528377
0.537726
0.547356
0.55575
0.560903
0.557145
0.557349
0.551207
0.544087
0.532096
0.524158
0.52885
0.538847
0.550559
0.558
0.560796
0.560949
0.560382
0.559772
0.559321
0.559047
0.558972
0.55907
0.559313
0.559571
0.559419
0.557689
0.551376
0.542228
0.528834
0.52109
0.525393
0.53695
0.548044
0.555115
0.559942
0.554275
0.543199
0.534434
0.520093
0.526072
0.536214
0.548155
0.557211
0.561345
0.561893
0.561136
0.560167
0.559367
0.55885
0.558555
0.558519
0.558683
0.559104
0.559692
0.56022
0.559832
0.556116
0.548215
0.536825
0.524186
0.517321
0.52461
0.538706
0.546998
0.557754
0.547771
0.533804
0.52332
0.522806
0.534517
0.547135
0.557318
0.561892
0.562744
0.561879
0.560549
0.559346
0.558516
0.558218
0.558109
0.558119
0.558205
0.558489
0.55917
0.560199
0.561025
0.56015
0.555101
0.546143
0.533509
0.523593
0.516766
0.528467
0.537991
0.551433
0.539464
0.519311
0.525763
0.531585
0.547287
0.558002
0.562732
0.563526
0.562495
0.560842
0.559158
0.558049
0.557726
0.557704
0.557753
0.55779
0.557787
0.557784
0.558108
0.559083
0.560638
0.561717
0.560709
0.555782
0.545032
0.533793
0.524085
0.521849
0.527966
0.542904
0.52983
0.522774
0.535866
0.546635
0.558769
0.563549
0.56425
0.563036
0.561015
0.558702
0.557113
0.55679
0.557049
0.557278
0.557457
0.557515
0.557452
0.557272
0.557075
0.557278
0.558618
0.560697
0.562294
0.561777
0.556831
0.546586
0.534918
0.528145
0.517771
0.533866
0.525274
0.533368
0.549672
0.559039
0.564039
0.56485
0.563494
0.560947
0.557781
0.555343
0.554992
0.55571
0.55644
0.556919
0.557165
0.557237
0.557143
0.556815
0.556201
0.555528
0.555584
0.557522
0.56032
0.562612
0.562667
0.558324
0.548676
0.539559
0.52597
0.525565
0.533508
0.548195
0.559745
0.564236
0.565233
0.563894
0.560691
0.556414
0.552135
0.551535
0.552999
0.554773
0.556003
0.556637
0.556915
0.556995
0.556889
0.556473
0.555516
0.553898
0.552383
0.552381
0.555846
0.559534
0.562644
0.563331
0.559629
0.551782
0.538117
0.528056
0.544641
0.558865
0.564266
0.56542
0.564238
0.560194
0.554651
0.548836
0.545313
0.547966
0.551223
0.554176
0.555743
0.55648
0.556793
0.556885
0.556768
0.556286
0.555087
0.552602
0.549093
0.545802
0.548054
0.553138
0.558264
0.562638
0.563818
0.560641
0.551671
0.539203
0.553555
0.563507
0.565541
0.564745
0.560057
0.552465
0.544207
0.538203
0.537622
0.544254
0.549783
0.55376
0.555638
0.556485
0.556851
0.556966
0.556852
0.556327
0.554918
0.551641
0.545877
0.538939
0.537776
0.543247
0.550693
0.557996
0.563136
0.564132
0.560463
0.54933
0.560023
0.56507
0.565316
0.560805
0.55178
0.540908
0.531147
0.527936
0.531397
0.540848
0.548689
0.553595
0.555733
0.556653
0.557059
0.557215
0.557137
0.556631
0.555125
0.551246
0.54346
0.53358
0.529151
0.530991
0.539588
0.549574
0.558389
0.563829
0.563815
0.556744
0.563395
0.565464
0.562064
0.552187
0.53955
0.526537
0.51838
0.521612
0.529103
0.539196
0.548461
0.553828
0.556059
0.556956
0.557334
0.5575
0.557505
0.557154
0.555774
0.551727
0.542858
0.531565
0.524299
0.520129
0.52577
0.537713
0.549435
0.558976
0.564178
0.561535
0.564714
0.562962
0.553737
0.539839
0.525113
0.512599
0.511856
0.521752
0.531476
0.540214
0.54939
0.554557
0.556593
0.557325
0.557624
0.55779
0.557875
0.55772
0.556746
0.553222
0.544404
0.534611
0.525244
0.515548
0.514251
0.523747
0.537821
0.550362
0.558974
0.563485
0.563494
0.553882
0.542659
0.526609
0.511854
0.50653
0.515299
0.527198
0.536611
0.542845
0.551254
0.55566
0.557213
0.557712
0.557904
0.558041
0.55818
0.558228
0.557724
0.555157
0.547659
0.540475
0.531482
0.519941
0.510862
0.512397
0.524772
0.539882
0.550038
0.5614
0.558399
0.543058
0.53094
0.514246
0.505772
0.511397
0.522916
0.534191
0.541983
0.546699
0.553466
0.556848
0.557842
0.558073
0.558143
0.55823
0.558372
0.55855
0.558528
0.557119
0.551766
0.54649
0.539348
0.528782
0.517683
0.509847
0.512985
0.528965
0.54073
0.555151
0.550949
0.533524
0.521123
0.507797
0.512327
0.520748
0.531879
0.541108
0.5471
0.550787
0.555815
0.55794
0.55829
0.558298
0.558279
0.558314
0.558402
0.558589
0.558845
0.558607
0.556047
0.552241
0.546939
0.538923
0.528614
0.519487
0.510588
0.518948
0.530688
0.547388
0.541235
0.522515
0.517353
0.514945
0.523461
0.531399
0.541103
0.547546
0.55175
0.554896
0.557743
0.558417
0.558375
0.558295
0.55826
0.558255
0.55827
0.558355
0.558568
0.558827
0.558526
0.557244
0.55414
0.548462
0.540624
0.532761
0.523526
0.522747
0.517877
0.537292
0.531199
0.516075
0.529009
0.53022
0.536784
0.542954
0.549465
0.553583
0.555802
0.557316
0.558066
0.558146
0.558123
0.558108
0.558102
0.558075
0.558022
0.557943
0.557874
0.557906
0.558099
0.558418
0.558549
0.556889
0.552275
0.545935
0.539689
0.536379
0.520007
0.52744
0.523238
0.526025
0.541129
0.544769
0.549904
0.554243
0.556349
0.556179
0.556225
0.556625
0.55709
0.55749
0.557742
0.557874
0.557915
0.55788
0.557759
0.5575
0.557054
0.556447
0.555904
0.555959
0.557175
0.559448
0.559346
0.556454
0.551927
0.547292
0.532536
0.522856
0.526194
0.537936
0.549896
0.555247
0.558313
0.558307
0.555602
0.552891
0.552964
0.554239
0.555819
0.55684
0.557401
0.557665
0.557758
0.557713
0.557525
0.557106
0.556286
0.554878
0.552881
0.551383
0.551489
0.555323
0.55948
0.561012
0.559082
0.555149
0.545536
0.532167
0.537125
0.549357
0.557201
0.560369
0.558749
0.553027
0.548194
0.54575
0.547955
0.551619
0.554604
0.556317
0.557177
0.557552
0.557676
0.557623
0.557384
0.556832
0.555661
0.553354
0.549526
0.54519
0.542884
0.546154
0.551887
0.55906
0.561964
0.560208
0.555028
0.543042
0.54639
0.55731
0.561209
0.558817
0.550808
0.543118
0.537906
0.537525
0.542917
0.549154
0.553647
0.55604
0.557111
0.557556
0.557696
0.55764
0.55737
0.556717
0.55526
0.552081
0.546459
0.539058
0.533748
0.534237
0.540504
0.54956
0.558794
0.5625
0.560025
0.550581
0.55282
0.561047
0.559381
0.550175
0.54068
0.531792
0.528217
0.531398
0.539013
0.547366
0.553071
0.555996
0.557215
0.557687
0.557823
0.55777
0.557505
0.556809
0.555134
0.551272
0.544372
0.534917
0.527529
0.523534
0.527554
0.537783
0.548698
0.559127
0.562276
0.555752
0.557408
0.559213
0.550508
0.539733
0.529825
0.522935
0.522175
0.528271
0.537316
0.54659
0.553033
0.556245
0.557467
0.557866
0.557949
0.557906
0.557719
0.557118
0.555447
0.551381
0.544101
0.534376
0.524809
0.517247
0.518701
0.525855
0.537079
0.549142
0.558841
0.559492
0.558763
0.549528
0.540833
0.529719
0.5224
0.518693
0.520112
0.52889
0.538858
0.547453
0.553751
0.556747
0.557695
0.557858
0.557822
0.557792
0.557754
0.55745
0.556186
0.55259
0.545859
0.53764
0.527207
0.516339
0.513903
0.518802
0.526523
0.538581
0.548313
0.559512
0.553467
0.539823
0.532094
0.523627
0.520093
0.517922
0.522712
0.533589
0.543002
0.549756
0.555062
0.557174
0.557542
0.557365
0.55717
0.557154
0.557308
0.557396
0.556791
0.554207
0.548633
0.542411
0.533322
0.522682
0.514414
0.516418
0.521034
0.529786
0.538241
0.553098
0.544948
0.532065
0.52884
0.523461
0.521522
0.522129
0.530265
0.539583
0.547318
0.55225
0.555992
0.55699
0.556636
0.556024
0.555618
0.55561
0.555996
0.556566
0.556779
0.555408
0.551392
0.546766
0.53955
0.530915
0.522465
0.518244
0.521193
0.527622
0.530804
0.544058
0.537143
0.527555
0.530085
0.526688
0.524947
0.530563
0.537719
0.544729
0.550577
0.553937
0.55592
0.555562
0.554402
0.553271
0.552627
0.552619
0.553248
0.554363
0.555463
0.555592
0.55333
0.55008
0.544685
0.538218
0.531162
0.524672
0.52484
0.529581
0.526962
0.536387
0.529946
0.529035
0.532931
0.529809
0.532557
0.537831
0.543363
0.548228
0.552205
0.553973
0.553835
0.552188
0.550337
0.548988
0.548266
0.548249
0.548943
0.550288
0.552123
0.553679
0.553607
0.55179
0.548112
0.543737
0.538423
0.533437
0.529111
0.532447
0.528762
0.529331
0.528062
0.531581
0.534569
0.534484
0.539633
0.542966
0.546307
0.549315
0.551378
0.550996
0.549065
0.546693
0.544749
0.543516
0.542805
0.542782
0.54345
0.544661
0.546603
0.548936
0.550786
0.551084
0.549177
0.546551
0.543473
0.540523
0.535664
0.53475
0.531428
0.527729
0.53017
0.532638
0.537039
0.540887
0.543743
0.544255
0.545971
0.547548
0.547189
0.544955
0.542269
0.540017
0.538455
0.53759
0.537061
0.537042
0.537539
0.538347
0.539869
0.542089
0.544747
0.546952
0.547405
0.546109
0.544644
0.544517
0.542313
0.538265
0.532976
0.530093
0.531495
0.534241
0.541235
0.544315
0.541905
0.541932
0.543085
0.542681
0.540097
0.537217
0.535023
0.533589
0.532775
0.532614
0.532289
0.532273
0.532574
0.532654
0.533405
0.5348
0.536944
0.539797
0.542441
0.543075
0.542205
0.542496
0.545423
0.542723
0.535263
0.531812
0.532507
0.537372
0.54336
0.538956
0.53689
0.537273
0.537525
0.534983
0.531979
0.530054
0.529052
0.52866
0.528747
0.529285
0.529286
0.529272
0.529256
0.528631
0.528463
0.528807
0.529755
0.531617
0.534601
0.537278
0.537362
0.537329
0.539739
0.544681
0.538791
0.533279
0.535276
0.540256
0.536232
0.533812
0.532362
0.531111
0.529784
0.526877
0.525115
0.524663
0.524753
0.525454
0.526488
0.527583
0.527782
0.527755
0.52755
0.526386
0.525267
0.524508
0.524356
0.52474
0.526439
0.52936
0.53088
0.532502
0.534319
0.537245
0.541587
0.536539
0.539963
0.533558
0.531275
0.5287
0.526249
0.523534
0.522317
0.520272
0.519884
0.520461
0.521984
0.523835
0.525736
0.52721
0.527608
0.527585
0.527141
0.525615
0.523658
0.521763
0.520164
0.519496
0.519838
0.521833
0.523118
0.526052
0.528894
0.532044
0.534587
0.54122
0.540556
0.530059
0.527947
0.523732
0.520106
0.517185
0.516748
0.515003
0.515764
0.51732
0.520716
0.523536
0.525994
0.527568
0.528097
0.528078
0.527483
0.525868
0.523348
0.520506
0.517082
0.515377
0.514587
0.516244
0.516718
0.519735
0.523597
0.528333
0.5308
0.541571
0.53873
0.527344
0.52493
0.518716
0.515161
0.512886
0.512837
0.511198
0.512783
0.516255
0.520698
0.523924
0.52655
0.527991
0.528534
0.52852
0.5279
0.526421
0.523731
0.520494
0.516067
0.51247
0.510724
0.512349
0.512424
0.514763
0.51839
0.524961
0.527773
0.539481
0.537218
0.524991
0.522991
0.514455
0.511865
0.510016
0.510117
0.508381
0.511789
0.516572
0.52118
0.524486
0.527053
0.528337
0.528846
0.528837
0.528249
0.526918
0.524312
0.520989
0.516418
0.511727
0.507904
0.509695
0.509598
0.511498
0.514122
0.522842
0.525084
0.537702
0.53495
0.522711
0.523161
0.513201
0.51056
0.508553
0.50876
0.508379
0.512318
0.51723
0.521818
0.525053
0.527437
0.528594
0.529046
0.529035
0.528521
0.527305
0.5249
0.521647
0.517109
0.51228
0.508169
0.508428
0.508212
0.510241
0.512926
0.522982
0.522646
0.535148
0.529347
0.523411
0.526766
0.516769
0.512609
0.509186
0.509332
0.509831
0.513116
0.517949
0.522342
0.52538
0.527494
0.528553
0.528982
0.528972
0.528494
0.527376
0.525245
0.522203
0.517856
0.513063
0.509716
0.509079
0.508879
0.512302
0.516546
0.526637
0.523349
0.529357
0.523983
0.525714
0.527673
0.520324
0.515257
0.510228
0.509644
0.509442
0.511395
0.51585
0.519838
0.522573
0.524375
0.525346
0.525788
0.525776
0.525298
0.524273
0.522458
0.51973
0.515788
0.511352
0.50935
0.509449
0.509861
0.514978
0.520194
0.527585
0.525684
0.523949
0.502516
0.508979
0.50977
0.503339
0.49782
0.492519
0.49078
0.489245
0.489986
0.493447
0.496861
0.499204
0.500659
0.501528
0.501951
0.50194
0.501484
0.500572
0.4991
0.496789
0.493402
0.489935
0.489158
0.490587
0.492265
0.49765
0.503288
0.509694
0.508961
0.502489
0.421649
0.430714
0.434586
0.429376
0.425235
0.420875
0.418716
0.416915
0.417089
0.41976
0.42268
0.42468
0.425868
0.426663
0.427077
0.427062
0.426622
0.425787
0.42454
0.422606
0.419701
0.417006
0.416806
0.418454
0.420642
0.4251
0.429357
0.434525
0.430708
0.421628
0.373981
0.381762
0.389631
0.386103
0.384453
0.381864
0.380909
0.379873
0.380695
0.383158
0.385775
0.387557
0.388739
0.389557
0.390004
0.389987
0.389517
0.38866
0.387405
0.385664
0.383055
0.380585
0.379743
0.380635
0.381627
0.384297
0.386061
0.389587
0.381767
0.373964
0.342791
0.349047
0.358249
0.355679
0.356194
0.354704
0.356063
0.3562
0.358047
0.36049
0.362856
0.364479
0.365762
0.366632
0.367107
0.36709
0.366591
0.365688
0.364329
0.362689
0.360324
0.357913
0.355999
0.355799
0.354469
0.356012
0.355577
0.358211
0.349062
0.342785
0.314814
0.319352
0.329286
0.328599
0.330815
0.330687
0.333916
0.33557
0.338302
0.340756
0.342902
0.344469
0.345865
0.346769
0.347263
0.347246
0.34673
0.345793
0.344333
0.342686
0.340536
0.338124
0.335338
0.333673
0.330466
0.330603
0.328449
0.329222
0.319378
0.314815
0.285583
0.288747
0.300148
0.303923
0.306656
0.308689
0.312819
0.315867
0.319223
0.321806
0.323883
0.325488
0.326986
0.327919
0.328418
0.328402
0.32788
0.326916
0.325366
0.323652
0.321586
0.319026
0.315642
0.312578
0.308446
0.306392
0.303721
0.300055
0.288776
0.285588
0.252839
0.256511
0.272125
0.279601
0.283512
0.287132
0.292008
0.296085
0.299939
0.302888
0.305179
0.30697
0.308495
0.309455
0.309944
0.309932
0.309421
0.308434
0.306867
0.305002
0.302719
0.299779
0.295883
0.291765
0.286863
0.283216
0.279374
0.272041
0.256541
0.252857
0.221231
0.225853
0.245933
0.256386
0.261379
0.266225
0.271263
0.27579
0.280145
0.283687
0.286526
0.288689
0.290264
0.29124
0.291691
0.291684
0.291221
0.290228
0.288631
0.286437
0.283589
0.280038
0.2756
0.271035
0.265977
0.261113
0.256177
0.245866
0.225872
0.221222
0.195096
0.200388
0.221478
0.234213
0.240467
0.246104
0.250895
0.255283
0.259947
0.264174
0.267605
0.270046
0.271672
0.272631
0.273046
0.273043
0.272623
0.271658
0.270024
0.26758
0.26414
0.259881
0.255116
0.250688
0.245898
0.240252
0.234036
0.221433
0.200376
0.195082
0.171981
0.178739
0.198339
0.211958
0.219142
0.225169
0.230394
0.234784
0.239512
0.244149
0.247841
0.250362
0.25199
0.252925
0.253326
0.253326
0.252924
0.251991
0.250365
0.247841
0.244142
0.239458
0.234634
0.230215
0.224985
0.218941
0.211799
0.198299
0.178713
0.171972
0.152514
0.158415
0.174309
0.187241
0.195488
0.201514
0.207818