/*--------------------------------*- C++ -*----------------------------------*\
| =========                 |                                                 |
| \\      /  F ield         | OpenFOAM: The Open Source CFD Toolbox           |
|  \\    /   O peration     | Version:  v1606+                                |
|   \\  /    A nd           | Web:      www.OpenFOAM.com                      |
|    \\/     M anipulation  |                                                 |
\*---------------------------------------------------------------------------*/
FoamFile
{
    version     2.0;
    format      ascii;
    class       volScalarField;
    location    "0.3";
    object      Theta.particles;
}
// * * * * * * * * * * * * * * * * * * * * * * * * * * * * * * * * * * * * * //

dimensions      [0 2 -2 0 0 0 0];

internalField   nonuniform List<scalar> 
6000
(
0.000963901
0.000786018
0.000902363
0.000891698
0.000907463
0.0009157
0.000982483
0.0010524
0.00111304
0.00113259
0.00110971
0.00108455
0.00110839
0.00113329
0.00116236
0.00113943
0.00111283
0.00110077
0.00109755
0.00114004
0.00113245
0.00108226
0.00102476
0.000960666
0.000918375
0.000906884
0.000881912
0.000884576
0.000773873
0.000941082
0.000221365
0.000238734
0.000245769
0.000236902
0.000238526
0.000233959
0.000237113
0.000240284
0.000242994
0.000244439
0.000244384
0.000244236
0.00024489
0.000245248
0.000245429
0.000244629
0.000244604
0.000244776
0.0002447
0.000245172
0.000244619
0.000242048
0.000239103
0.000236474
0.000234181
0.000239309
0.000237964
0.000245622
0.000238973
0.000220859
0.000260085
0.000252342
0.000242377
0.000229193
0.000220223
0.000217929
0.000220933
0.000227235
0.000233259
0.000239387
0.000245166
0.000248119
0.000249425
0.000249172
0.000248529
0.000249116
0.000249884
0.000249416
0.000248168
0.00024392
0.000239025
0.000233572
0.000226994
0.000220471
0.000216428
0.000218769
0.000228638
0.000242786
0.000253375
0.000260857
0.000234549
0.000213816
0.000196498
0.000176479
0.000164983
0.000162344
0.000167526
0.000177635
0.000186502
0.000192919
0.000196805
0.000198919
0.000199706
0.000199482
0.00019921
0.000199151
0.000199652
0.000199773
0.000199033
0.000196791
0.000192849
0.000186271
0.000177023
0.000166346
0.000161246
0.000164204
0.000176208
0.000197154
0.00021655
0.000236615
0.00023686
0.000204951
0.00017936
0.000154339
0.000141829
0.000138017
0.000142542
0.000154481
0.00016671
0.000174416
0.000178789
0.000181036
0.000181767
0.000181554
0.000181061
0.000181183
0.000181718
0.000182033
0.000181232
0.000178941
0.000174573
0.000166701
0.000153969
0.000142046
0.000137893
0.000141986
0.000154624
0.00018028
0.000208568
0.000241182
0.000261129
0.000198983
0.000175299
0.000152294
0.000140296
0.000134893
0.000137663
0.000147694
0.000158594
0.00016591
0.000170233
0.000172454
0.000173198
0.000172705
0.000171878
0.000172114
0.000172934
0.000173639
0.000172895
0.000170892
0.000166638
0.000159571
0.000148766
0.000138921
0.000136487
0.000141917
0.000153816
0.000176952
0.000202697
0.00026667
0.000330196
0.00021187
0.000192415
0.000173371
0.000174152
0.00017055
0.000166198
0.000169651
0.000180559
0.000187455
0.000190822
0.000191903
0.000191832
0.000190739
0.00018954
0.000189897
0.000191171
0.000192685
0.000192972
0.000192419
0.000189403
0.000182579
0.000171206
0.000168165
0.000172968
0.000176394
0.000175465
0.000193288
0.000215157
0.000340421
0.000413391
0.000281371
0.000261269
0.00025652
0.000258258
0.000252389
0.000246887
0.000248314
0.000246262
0.000245171
0.000245493
0.000245901
0.000246005
0.000245667
0.000245117
0.00024528
0.000245772
0.000246408
0.000246523
0.00024655
0.000246258
0.000247005
0.000246894
0.000243469
0.000250465
0.000257052
0.000256062
0.000261187
0.000285567
0.000424243
0.000396338
0.00035748
0.000437206
0.000541373
0.000579352
0.000568868
0.000533546
0.000509275
0.000471503
0.000453036
0.000446481
0.000447491
0.000452063
0.000456021
0.000458304
0.00045662
0.000452588
0.000446402
0.000441102
0.000438325
0.000443987
0.000460648
0.00049944
0.000524445
0.000560608
0.000567094
0.000532789
0.000426187
0.000351474
0.000394199
0.000620711
0.000879351
0.00127375
0.00127838
0.00106433
0.000908324
0.000852052
0.000921489
0.00106269
0.00118879
0.0012699
0.00129997
0.00131221
0.00132414
0.00132792
0.00132901
0.00132546
0.00131395
0.0013011
0.00126954
0.00118588
0.00105782
0.000915937
0.000851759
0.000918048
0.0010794
0.00129235
0.00127419
0.000854565
0.000605044
0.00117864
0.00117179
0.00105125
0.000818639
0.000570197
0.000404738
0.000351462
0.000382862
0.000518243
0.000646884
0.000734204
0.000786412
0.000800992
0.000804848
0.000802169
0.000804071
0.000807573
0.000805817
0.000791435
0.000739846
0.000648765
0.000514605
0.000376767
0.000349629
0.000405718
0.000583212
0.000833464
0.00107218
0.00119443
0.00118173
0.00121746
0.000826831
0.000732466
0.000595656
0.000403839
0.000237753
0.00018228
0.000184404
0.000287733
0.000380725
0.000438899
0.000481778
0.00050422
0.000508443
0.000508339
0.000508269
0.000508063
0.000504017
0.00048257
0.000439543
0.000380064
0.000284247
0.000181306
0.000180507
0.000237249
0.000408874
0.000603963
0.000739274
0.000837325
0.00123085
0.00116289
0.000776091
0.000683906
0.000543328
0.000350368
0.000191221
0.000139447
0.000143186
0.000234923
0.000326617
0.000387438
0.000435804
0.000465579
0.000471552
0.000471993
0.000471857
0.000471117
0.00046523
0.000436359
0.000387859
0.000326049
0.000232121
0.000140657
0.000137608
0.000190712
0.000356272
0.000550861
0.00068924
0.000782109
0.00117712
0.00113103
0.000778283
0.000659076
0.00051092
0.000326026
0.000164895
0.000115124
0.000126519
0.000215083
0.000304121
0.000365091
0.000414958
0.000451479
0.000460692
0.000461311
0.000461139
0.000460223
0.000451008
0.000414773
0.00036483
0.000303236
0.000212355
0.00012384
0.000113394
0.000168155
0.000331678
0.000515999
0.000662165
0.000783007
0.00114484
0.00108804
0.000760852
0.000626299
0.000477897
0.00030637
0.000152602
9.86422e-05
0.000110899
0.000195974
0.000278603
0.000336342
0.000383054
0.000419189
0.000434471
0.000436556
0.00043632
0.000433755
0.000418321
0.000382249
0.000335561
0.000277464
0.000193723
0.000108542
9.7078e-05
0.000156215
0.000310472
0.000481176
0.000628259
0.000765007
0.00110173
0.00103909
0.000725469
0.000577447
0.0004359
0.000284997
0.000143497
8.62907e-05
9.90234e-05
0.000174951
0.000254811
0.000310349
0.000355759
0.000389826
0.000409326
0.000415527
0.000415378
0.000408484
0.000388608
0.000354485
0.000309185
0.000253421
0.000172625
9.70906e-05
8.53707e-05
0.000145915
0.000287114
0.000437172
0.000577867
0.000728597
0.00105323
0.000996394
0.000679435
0.000525803
0.000395855
0.000261629
0.000130797
7.88511e-05
9.14621e-05
0.000151535
0.000234214
0.000286912
0.000329845
0.000360864
0.000379574
0.000386849
0.000386665
0.000378671
0.000359497
0.000328425
0.000285491
0.000232582
0.000146073
8.95307e-05
7.79064e-05
0.000131755
0.000262806
0.000396471
0.000525664
0.000681122
0.0010102
0.000951813
0.000627277
0.000473973
0.000357299
0.000237603
0.000120459
7.39416e-05
8.64148e-05
0.000139726
0.000215335
0.000266597
0.000307382
0.000334631
0.000349963
0.000355294
0.000354967
0.000348902
0.000333058
0.000305752
0.00026503
0.000213675
0.000138335
8.47532e-05
7.31322e-05
0.000120156
0.000238054
0.000357798
0.000473964
0.000628466
0.000962566
0.000890753
0.000576767
0.0004287
0.000325444
0.000215165
0.000112307
7.08605e-05
8.09469e-05
0.000129828
0.000196692
0.000246479
0.000284329
0.00030859
0.000321106
0.000325478
0.000325142
0.000320035
0.000306954
0.000282618
0.000244958
0.000194961
0.000128246
7.94029e-05
7.02786e-05
0.000111959
0.000214794
0.000325685
0.000429473
0.00057847
0.000898098
0.00080839
0.000536043
0.000396519
0.000297445
0.000190254
0.000102263
6.80947e-05
7.65031e-05
0.000118897
0.000173927
0.000226425
0.000261076
0.000282915
0.000293135
0.000296224
0.00029589
0.000292095
0.000281345
0.0002594
0.000224741
0.000171342
0.000117227
7.53504e-05
6.7759e-05
0.000101578
0.000188584
0.000296675
0.000398031
0.000538184
0.000812646
0.000708724
0.000501086
0.000374139
0.000267568
0.000159183
9.11781e-05
6.53276e-05
7.15853e-05
0.000107407
0.000146737
0.000202021
0.000236554
0.000256371
0.000264746
0.000266981
0.000266624
0.00026371
0.000254945
0.000234691
0.000200079
0.00014554
0.000105848
7.04576e-05
6.48634e-05
9.05574e-05
0.000156684
0.00026565
0.000375808
0.000504119
0.000712727
0.000617784
0.000469793
0.000350073
0.000229926
0.000129804
8.21588e-05
6.18148e-05
6.77687e-05
9.73503e-05
0.000134846
0.000164183
0.000205181
0.000223415
0.000230541
0.000232289
0.0002318
0.000229414
0.000221849
0.000202747
0.000162911
0.000133685
9.61569e-05
6.71384e-05
6.15788e-05
8.14419e-05
0.000128421
0.000227138
0.000348995
0.000474012
0.000623167
0.00054623
0.000438255
0.000315627
0.000185531
0.000112227
7.44765e-05
6.10635e-05
6.70354e-05
9.18188e-05
0.000124503
0.000150872
0.000165428
0.000178326
0.000186015
0.000187512
0.000187171
0.000184595
0.000174827
0.000164199
0.00014965
0.000123494
9.102e-05
6.69545e-05
6.13259e-05
7.42089e-05
0.000110916
0.000182003
0.000311419
0.00044043
0.000553126
0.000480749
0.00040624
0.000272433
0.000152092
9.89818e-05
7.19019e-05
6.33377e-05
6.97373e-05
9.05996e-05
0.000118751
0.000140358
0.000151209
0.000155504
0.000156052
0.000155733
0.000155498
0.000155451
0.000154811
0.000150102
0.000139283
0.000117952
9.02087e-05
7.00022e-05
6.37247e-05
7.19423e-05
9.83111e-05
0.000149268
0.00026852
0.000409144
0.000486536
0.000419439
0.000356585
0.000212509
0.000128482
9.09312e-05
7.35248e-05
6.87301e-05
7.48492e-05
9.23118e-05
0.000115606
0.000132232
0.000139936
0.00014207
0.000141738
0.000141021
0.000140844
0.000141247
0.00014142
0.000138997
0.00013131
0.000114974
9.22101e-05
7.52715e-05
6.92599e-05
7.38759e-05
9.08075e-05
0.000127212
0.000208128
0.000357393
0.000427057
0.000372149
0.000286508
0.000169784
0.000114266
8.90539e-05
7.79798e-05
7.57726e-05
8.08886e-05
9.44555e-05
0.000112172
0.000123965
0.000128898
0.000129871
0.000129443
0.000128857
0.000128717
0.000129056
0.000129293
0.000128125
0.000123199
0.000111674
9.44191e-05
8.12486e-05
7.62711e-05
7.84034e-05
8.90526e-05
0.000113423
0.000166913
0.000284835
0.000377834
0.000307648
0.000220866
0.000146586
0.000107974
9.06734e-05
8.30844e-05
8.15717e-05
8.47139e-05
9.41681e-05
0.000106677
0.0001151
0.000118588
0.000119508
0.000119402
0.000119186
0.000119097
0.000119167
0.000119104
0.000118004
0.00011448
0.00010622
9.40794e-05
8.48963e-05
8.18891e-05
8.34203e-05
9.07894e-05
0.000107575
0.000145262
0.00021899
0.000314176
0.000289484
0.000185499
0.000136774
0.000108666
9.47878e-05
8.77132e-05
8.55869e-05
8.7316e-05
9.34083e-05
0.000102004
0.00010917
0.000113409
0.000115499
0.000116467
0.000116797
0.000116709
0.000116209
0.000115106
0.000112896
0.000108646
0.000101685
9.34208e-05
8.75141e-05
8.58338e-05
8.7976e-05
9.48589e-05
0.000108485
0.000136076
0.000185118
0.000291094
0.000282676
0.00017606
0.000135967
0.000113009
0.000104563
0.000101308
0.000101865
0.000105666
0.000112158
0.000120274
0.000127614
0.000132667
0.000135564
0.000137044
0.00013763
0.000137612
0.000136984
0.000135453
0.000132495
0.000127432
0.000120211
0.000112295
0.000105933
0.000102191
0.000101669
0.000104859
0.000112875
0.000135415
0.000175513
0.000281584
0.000273756
0.000171107
0.000137685
0.000129878
0.000122963
0.000120985
0.000122155
0.000125395
0.000129998
0.000135606
0.000141131
0.000145446
0.00014815
0.000149617
0.000150154
0.000150053
0.000149315
0.000147695
0.000144912
0.000140639
0.000135269
0.000129847
0.00012537
0.00012222
0.000121079
0.000122982
0.000129841
0.000137518
0.000170151
0.000271666
0.000261733
0.000175144
0.000151783
0.000143198
0.000137978
0.000136099
0.00013598
0.000137091
0.000139321
0.000142319
0.000145011
0.000146925
0.000147759
0.000148135
0.000148169
0.000148089
0.00014791
0.000147416
0.000146541
0.000144652
0.000142069
0.000139193
0.000137077
0.000136043
0.000136151
0.000137928
0.000142941
0.000151434
0.000174642
0.000258994
0.000244099
0.000174468
0.000156022
0.000150733
0.000147551
0.000145396
0.000144523
0.000144689
0.000145157
0.000146361
0.000146082
0.000145572
0.000144181
0.000143012
0.000142398
0.000142366
0.000142922
0.000144036
0.000145396
0.000145958
0.00014633
0.000145209
0.000144833
0.000144734
0.000145542
0.000147531
0.000150468
0.000155495
0.000173629
0.000241647
0.000216634
0.000166338
0.000155513
0.000153807
0.000152181
0.000150694
0.000150058
0.000149518
0.000148058
0.000148711
0.00014509
0.000142299
0.000139028
0.000136779
0.000135754
0.000135771
0.000136812
0.000139082
0.000142371
0.000145193
0.000149025
0.000148402
0.000149924
0.000150458
0.000150979
0.000152238
0.000153578
0.000155088
0.000165751
0.00021562
0.000194717
0.000160557
0.000154105
0.000153535
0.000153311
0.000152954
0.000151683
0.000149063
0.000145867
0.000146431
0.000141704
0.000137223
0.000133452
0.000130872
0.000129672
0.000129731
0.000131008
0.000133653
0.00013747
0.000142059
0.00014691
0.000146427
0.000149768
0.00015228
0.000153369
0.000153463
0.000153298
0.000153742
0.000160212
0.000193839
0.00017867
0.000158042
0.000152294
0.000151126
0.000151379
0.000150842
0.000146699
0.000142863
0.000137914
0.000138309
0.000135659
0.000130614
0.000127028
0.000125109
0.000124406
0.000124478
0.000125281
0.000127243
0.000130756
0.000135517
0.000139015
0.000138685
0.000143413
0.000147512
0.000151181
0.000151631
0.000150876
0.000151796
0.000157376
0.00017749
0.000165312
0.000153654
0.000148504
0.000146859
0.000144838
0.00014346
0.00013863
0.000133603
0.000129963
0.000130733
0.000130639
0.000124214
0.000120831
0.000119939
0.000119941
0.000120017
0.000120132
0.000121061
0.000124333
0.00013039
0.000131074
0.000130792
0.000134426
0.000139387
0.000143844
0.000145452
0.000146742
0.000147913
0.000152589
0.000164073
0.000152879
0.000149041
0.000143381
0.000139712
0.000137441
0.000137196
0.000136538
0.000129214
0.000124168
0.000128263
0.000129824
0.000120714
0.000116601
0.000116208
0.00011671
0.000116786
0.000116392
0.000116802
0.000120661
0.00012977
0.000129014
0.000124823
0.000130353
0.000137987
0.000137593
0.000137642
0.000140645
0.0001427
0.000147525
0.000151407
0.000144259
0.000146073
0.0001382
0.000132696
0.000125005
0.000135592
0.0001359
0.000124201
0.000123668
0.000128394
0.000128509
0.000118412
0.000114053
0.000114431
0.000115193
0.000115236
0.000114546
0.000114248
0.000118286
0.000128902
0.000129357
0.000124475
0.000124805
0.000136283
0.000140156
0.000126364
0.000133463
0.000138074
0.000143039
0.000141866
0.000137877
0.000145831
0.000130791
0.000143079
0.000141919
0.000125523
0.000121166
0.000121438
0.000125806
0.000130931
0.000124911
0.000116463
0.000114108
0.00011505
0.000115916
0.000115889
0.000114971
0.000114044
0.000116348
0.000125208
0.000131974
0.000126961
0.000122766
0.000123162
0.000129552
0.000145441
0.000141686
0.000129434
0.000139681
0.000135259
0.000127555
0.00015394
0.000141593
0.000132415
0.000130041
0.000168123
0.000156243
0.000128112
0.000131899
0.000127831
0.000123322
0.000119725
0.000118074
0.00011849
0.000118983
0.000118837
0.000118042
0.00011732
0.000118633
0.000122804
0.000128066
0.000132789
0.000129074
0.000152171
0.000163964
0.000132015
0.000133122
0.000139185
0.00014962
0.000128211
0.000127062
0.00014805
0.000147954
0.000128351
0.000130601
0.000179742
0.000219533
0.000154942
0.00013459
0.000131082
0.000134023
0.000129072
0.000125697
0.000124605
0.000124194
0.000123948
0.000123847
0.000124302
0.000126767
0.000131453
0.000128366
0.000132613
0.000151498
0.000208436
0.000189135
0.000132312
0.000128434
0.00014543
0.000147745
0.00012622
0.000151552
0.000131169
0.000139142
0.000132074
0.000148771
0.000171436
0.000176781
0.00017048
0.000151545
0.000148074
0.000145655
0.000138418
0.000133613
0.000131307
0.000130147
0.000129842
0.000130387
0.000132001
0.000135922
0.000142353
0.000143759
0.000145174
0.000162615
0.000178566
0.000183918
0.000149476
0.000132488
0.000137289
0.000131555
0.000149082
0.000172021
0.000131803
0.000139542
0.000145116
0.000155177
0.000152129
0.000156114
0.000168091
0.000163804
0.000159598
0.000152339
0.000144721
0.000139707
0.000136653
0.000134991
0.000134665
0.000135672
0.000138078
0.000142449
0.000149536
0.0001567
0.000161156
0.00016778
0.000161249
0.000157792
0.000153049
0.000142919
0.00014003
0.000129229
0.000169158
0.000178003
0.000148024
0.000144768
0.000148964
0.000151075
0.000150628
0.000162606
0.000169366
0.000168524
0.000162999
0.000155286
0.000148263
0.000143165
0.000139712
0.000137798
0.000137428
0.00013866
0.000141504
0.00014611
0.000153019
0.000161261
0.00016782
0.000170311
0.000164718
0.00015109
0.000149785
0.00014659
0.000144429
0.000145485
0.000176207
0.00019121
0.000152137
0.000147189
0.000148609
0.000153169
0.000164517
0.000171567
0.000172146
0.000170405
0.000164077
0.000156581
0.00014971
0.000144343
0.000140642
0.000138625
0.000138209
0.000139493
0.000142518
0.000147414
0.000154168
0.000162107
0.000169288
0.000172147
0.000171357
0.000162782
0.000151134
0.000147009
0.000146111
0.000151481
0.000187548
0.000186665
0.000154135
0.000149407
0.000151681
0.000160933
0.000175474
0.000176212
0.000176376
0.000172894
0.000164473
0.000156256
0.000148964
0.00014343
0.000139798
0.000137872
0.000137497
0.000138569
0.000141415
0.000146351
0.000153352
0.000161661
0.000170821
0.000175026
0.00017577
0.000175818
0.000158712
0.000149564
0.000148157
0.000153252
0.000184215
0.000176433
0.000154798
0.000151797
0.000156814
0.000169846
0.000178724
0.000180971
0.000177889
0.000172456
0.000162341
0.000153218
0.000145857
0.000140692
0.000137563
0.000135958
0.000135569
0.000136296
0.000138537
0.000142934
0.000149814
0.000158898
0.000169487
0.000174809
0.000179233
0.000178563
0.00016849
0.00015498
0.00015088
0.000154317
0.000175686
0.000168016
0.000154583
0.000153405
0.000159855
0.00017046
0.0001801
0.000176184
0.000166763
0.000160935
0.0001526
0.000145669
0.000140104
0.000136472
0.000134512
0.00013358
0.000133214
0.00013347
0.000134536
0.000137284
0.000142411
0.000149262
0.000156775
0.000162431
0.000172696
0.000178168
0.000169817
0.000158714
0.000152901
0.000154706
0.00016834
0.00015974
0.00015261
0.000153077
0.000159521
0.000171575
0.000169394
0.000155023
0.000148733
0.000146002
0.000141784
0.000136418
0.000133234
0.000131863
0.000131479
0.000131412
0.000131271
0.000130934
0.000130645
0.000131101
0.000133699
0.000139436
0.000142927
0.000143711
0.000150063
0.000164834
0.000170068
0.000159048
0.000153426
0.000153804
0.000160393
0.000150785
0.000148702
0.000150614
0.000158289
0.00016464
0.000155881
0.00015249
0.000142813
0.000140921
0.000135137
0.000129512
0.000127829
0.000128358
0.000129369
0.000130056
0.000130151
0.000129528
0.000128236
0.000126805
0.000127557
0.000132746
0.000137226
0.000139582
0.000146538
0.000152196
0.000157324
0.000158368
0.000151804
0.000151314
0.000152017
0.000141853
0.000143573
0.000145465
0.000155261
0.000158549
0.000166897
0.000149003
0.000138167
0.000136677
0.000131734
0.000125452
0.000125216
0.000127063
0.000128859
0.000130025
0.000130322
0.000129776
0.000128315
0.000126209
0.000124756
0.000130673
0.000135068
0.000132609
0.000141788
0.000160217
0.000153243
0.000149422
0.000147561
0.000146329
0.000144152
0.000133691
0.000136275
0.000134978
0.000149985
0.000169732
0.000163287
0.000139641
0.000134282
0.00013662
0.000130138
0.000125093
0.00012594
0.000128052
0.000129992
0.000131311
0.000131947
0.000131743
0.000130736
0.000129306
0.000128565
0.000132307
0.000137044
0.000136537
0.000133543
0.000150144
0.000162734
0.000148875
0.000137359
0.000141692
0.000138435
0.000124991
0.000124114
0.000129583
0.000162039
0.000159937
0.000149356
0.000134005
0.000136723
0.000135186
0.000132197
0.000128663
0.000129319
0.000131044
0.000132711
0.000133974
0.00013484
0.000135229
0.000135292
0.000135528
0.000137428
0.000143397
0.000144365
0.000140455
0.000141686
0.000153058
0.000153026
0.000160719
0.000134632
0.000139722
0.000133027
0.000118716
0.000135362
0.000146657
0.000150058
0.000144079
0.000147441
0.000139035
0.000136567
0.000137116
0.000137572
0.000134728
0.000134439
0.000135322
0.000136414
0.000137439
0.000138352
0.000139328
0.000140479
0.000142243
0.000146005
0.000152899
0.000155437
0.000158998
0.000163405
0.000157692
0.000160609
0.000159556
0.000167667
0.000160415
0.000126062
0.000121824
0.000157755
0.00017034
0.000158235
0.000156485
0.000150217
0.000145935
0.000143736
0.000144024
0.000143345
0.000140743
0.000139818
0.000139956
0.0001405
0.000141249
0.000142194
0.000143442
0.000145204
0.000147833
0.000152126
0.000158846
0.00016471
0.000168644
0.0001714
0.000184246
0.0001833
0.000164235
0.000168024
0.0001523
0.000151358
0.000157568
0.000148789
0.000171641
0.00016582
0.000177368
0.000176251
0.000158402
0.000153708
0.000151252
0.000148543
0.000146005
0.000144771
0.000144428
0.000144558
0.00014502
0.000145802
0.000147003
0.000148825
0.000151574
0.000155769
0.000161914
0.000168951
0.0001752
0.000179566
0.000183179
0.000179656
0.000179725
0.000162319
0.000143618
0.000185731
0.000199044
0.000148013
0.000158015
0.000186217
0.000183862
0.000176734
0.000166627
0.000160309
0.000155927
0.000152662
0.000150356
0.000149103
0.000148537
0.000148389
0.000148554
0.000149016
0.000149851
0.000151248
0.000153522
0.00015713
0.000162621
0.000169829
0.000177905
0.000184695
0.00018725
0.000184876
0.000181846
0.000172942
0.000175663
0.000193106
0.000201697
0.000189887
0.000179168
0.000186939
0.000185535
0.000177117
0.000168225
0.000162204
0.00015831
0.000155661
0.000153941
0.000152913
0.000152314
0.000151984
0.00015185
0.000151885
0.000152127
0.000152683
0.000153859
0.000156272
0.000160766
0.000167891
0.000177541
0.00018802
0.000193069
0.00019049
0.000186541
0.000183356
0.000182979
0.00020211
0.000210376
0.000200713
0.000195683
0.000197069
0.000181914
0.000172824
0.000165538
0.000161546
0.00015946
0.000158038
0.000157116
0.000156441
0.000155909
0.000155459
0.000155056
0.000154666
0.000154262
0.00015388
0.000153622
0.000153849
0.000155795
0.00016113
0.000170267
0.000181722
0.000195525
0.000196015
0.000191257
0.000187181
0.000188198
0.000196277
0.000202827
0.000203922
0.000203606
0.000201572
0.0001747
0.000165745
0.000161735
0.000160614
0.000160531
0.000160503
0.000160283
0.000159916
0.000159448
0.000158918
0.000158334
0.00015766
0.000156812
0.000155693
0.000154184
0.000152253
0.000150522
0.000151182
0.000156291
0.000163505
0.000178729
0.000194941
0.000194971
0.000190226
0.000188988
0.000193304
0.000196508
0.000206588
0.000206995
0.000179837
0.000170417
0.000160285
0.000159719
0.000161197
0.000162605
0.000163421
0.000163573
0.000163336
0.000162869
0.00016228
0.000161622
0.000160879
0.000159954
0.000158642
0.000156684
0.000153944
0.000150644
0.000147721
0.000148371
0.000156909
0.000158402
0.000171119
0.000196272
0.000190141
0.000187648
0.000183714
0.000191447
0.000205906
0.00017405
0.000170433
0.000164682
0.000158534
0.00016089
0.000163574
0.000165544
0.000166544
0.000166738
0.000166437
0.000165876
0.000165195
0.000164496
0.000163811
0.000163076
0.000162134
0.000160675
0.00015833
0.000155287
0.000152996
0.000151297
0.000155546
0.000159969
0.000169663
0.000172796
0.000180066
0.000182803
0.000175918
0.00017395
0.000192614
0.000159784
0.00018168
0.000163115
0.000162003
0.000164104
0.000166715
0.000168611
0.00016947
0.000169547
0.000169022
0.000168166
0.000167242
0.000166429
0.000165829
0.000165423
0.00016503
0.000164306
0.000162966
0.000161167
0.000160217
0.000160933
0.000156876
0.000166636
0.00016635
0.000167771
0.000148507
0.000175168
0.000164731
0.000164674
0.000162191
0.000183587
0.000176869
0.000169051
0.000166915
0.000167936
0.000170146
0.000171769
0.000172322
0.000171997
0.000170927
0.000169467
0.000168024
0.000166941
0.000166392
0.000166382
0.00016672
0.000167004
0.000166907
0.000166353
0.000166123
0.000167293
0.000165848
0.000163668
0.000173123
0.000155227
0.000161001
0.000169667
0.000144819
0.000183034
0.000147685
0.000184038
0.000179827
0.000174096
0.000171206
0.000172041
0.000173985
0.0001752
0.000175194
0.000173977
0.000171825
0.000169323
0.000167155
0.000165668
0.000165049
0.000165458
0.00016664
0.000168368
0.000169906
0.000170784
0.000171308
0.00017206
0.000172861
0.000172153
0.000175042
0.000166693
0.000174537
0.000159057
0.000145771
0.000198104
0.00017434
0.000176129
0.000179685
0.000175974
0.000174751
0.000176301
0.000178206
0.000178953
0.000178023
0.000175363
0.000171559
0.000167739
0.000164536
0.000162497
0.000161851
0.000162601
0.000164778
0.000167979
0.000171626
0.000174439
0.000176223
0.000176996
0.000177627
0.000179015
0.000180238
0.00018077
0.000177963
0.000146522
0.000182376
0.000205059
0.000182911
0.000179229
0.000178142
0.000177125
0.000178061
0.00018054
0.000182814
0.000183172
0.00018064
0.000175896
0.000170097
0.000164649
0.000160499
0.000157978
0.000157223
0.000158126
0.000160992
0.000165794
0.000171674
0.000177113
0.000180935
0.00018215
0.000182372
0.000182356
0.000183891
0.000183778
0.000176441
0.000175515
0.000190036
0.000199652
0.000186248
0.000179302
0.000177564
0.000178374
0.000181221
0.00018538
0.00018785
0.000187161
0.00018163
0.000174762
0.000166965
0.00016027
0.000155561
0.000152791
0.00015176
0.00015267
0.000155745
0.000161389
0.000169396
0.000177229
0.000184876
0.00018706
0.000186961
0.000185711
0.000184287
0.000183913
0.000181757
0.000180891
0.000197205
0.000197245
0.000184188
0.000177476
0.000176552
0.000179003
0.000184014
0.0001897
0.000189636
0.000185837
0.000177543
0.00016947
0.000160876
0.000154095
0.000149707
0.000147216
0.000146156
0.000146567
0.000148955
0.000154308
0.00016243
0.000171636
0.000182538
0.000186814
0.0001901
0.000187866
0.000185072
0.000182413
0.0001816
0.000183827
0.000190146
0.000187611
0.000178175
0.000173647
0.000174158
0.000178404
0.00018456
0.000186899
0.000176545
0.000167898
0.000161106
0.000156976
0.000151096
0.000145906
0.000142984
0.000141531
0.000140725
0.000140399
0.000141097
0.000144259
0.000150919
0.000157231
0.000163644
0.000171182
0.000183908
0.000187004
0.00018427
0.00018079
0.000178807
0.000181594
0.000189589
0.000173534
0.000169308
0.00016745
0.000169864
0.000175571
0.000176559
0.000165137
0.00015498
0.000150996
0.000147405
0.000144453
0.000139055
0.000136782
0.000136395
0.000136595
0.000136382
0.000135386
0.000134027
0.000134084
0.000136994
0.000144388
0.000153832
0.00014999
0.00015674
0.000174301
0.000180734
0.000177488
0.000174589
0.000175875
0.000181143
0.000160373
0.000158953
0.000159963
0.000163974
0.000167075
0.00015395
0.00015863
0.000153724
0.000146821
0.000146104
0.000134546
0.000129424
0.000129357
0.000131696
0.000133628
0.000134138
0.000132987
0.00013022
0.000126673
0.000128584
0.000136295
0.000148201
0.000150908
0.000153542
0.000153594
0.00016523
0.000172084
0.000168229
0.000167309
0.000167488
0.000148315
0.000149811
0.000152233
0.000153208
0.000149285
0.000165548
0.000157057
0.000146375
0.000141482
0.000141603
0.00012853
0.000122566
0.000126466
0.000130871
0.000133839
0.000134965
0.000134056
0.000131289
0.00012719
0.000123112
0.00013456
0.000142896
0.000141653
0.00015234
0.000164141
0.00015282
0.000156437
0.000159889
0.000158136
0.00015567
0.000138818
0.000142994
0.000143856
0.000133337
0.00016276
0.000166943
0.00014301
0.000135224
0.000138702
0.000138324
0.000123082
0.000124783
0.000130033
0.000134339
0.00013731
0.000138741
0.000138486
0.000136821
0.00013468
0.000133668
0.000135563
0.000142998
0.000149184
0.000146167
0.00015772
0.000168528
0.000147405
0.000139608
0.000151512
0.000146262
0.000130687
0.000136712
0.000122408
0.000160162
0.000153744
0.000149239
0.00014354
0.000146421
0.000139302
0.000133579
0.000135897
0.000136927
0.000139032
0.000141632
0.000143577
0.000144704
0.000145184
0.000145127
0.000145704
0.000149708
0.00015713
0.000158954
0.000149449
0.00015383
0.000167553
0.000156876
0.000159293
0.000136972
0.000150215
0.000138264
0.00012566
0.000158749
0.000155472
0.000154192
0.000168691
0.000171511
0.000153288
0.000153159
0.000160846
0.000163228
0.000156701
0.000150753
0.000149233
0.000149476
0.000150077
0.000150848
0.000151866
0.000153126
0.000155314
0.000160318
0.000168686
0.000168576
0.000169068
0.000169088
0.00016477
0.000176072
0.000170526
0.00016345
0.000154986
0.000133867
0.000141557
0.000153597
0.000182791
0.000175999
0.000172221
0.000186077
0.000190295
0.000179867
0.000178783
0.000178847
0.000168249
0.000160849
0.000157201
0.000155488
0.000154871
0.000155302
0.000156767
0.000159074
0.000162283
0.000167333
0.000173791
0.000177629
0.000177517
0.000173099
0.000180924
0.000181822
0.000172092
0.000172048
0.000142105
0.000159093
0.000178298
0.000138755
0.000160192
0.000171656
0.000177252
0.000177133
0.000182575
0.000188268
0.000188981
0.000183365
0.000174068
0.000166337
0.000161397
0.000158184
0.00015654
0.000156714
0.000158587
0.000162002
0.000166554
0.000172081
0.000177803
0.000181579
0.000183406
0.000182387
0.000180887
0.00017625
0.000174717
0.000160975
0.00014279
0.000185272
0.000189835
0.00015355
0.000164623
0.000167155
0.000174716
0.000181058
0.000187636
0.000191953
0.000190413
0.000184785
0.000175976
0.00016774
0.000161407
0.000157109
0.00015495
0.000154902
0.000157015
0.000161301
0.000167423
0.000174519
0.000181144
0.00018612
0.000187157
0.000185889
0.000183549
0.000178476
0.000169745
0.0001606
0.000163389
0.000189683
0.000197783
0.000167542
0.000163514
0.000169409
0.000177105
0.000184049
0.000190069
0.000193816
0.000192846
0.000184878
0.00017492
0.000165671
0.000158289
0.000153205
0.000150739
0.000150474
0.000152543
0.000157305
0.000164707
0.000173793
0.000182656
0.00019092
0.00019235
0.000188974
0.000183841
0.000178698
0.000172049
0.000163553
0.000165309
0.000197018
0.000194532
0.000166222
0.000166187
0.000171599
0.000178161
0.000185494
0.000192814
0.000196882
0.000194529
0.000182398
0.000170743
0.000160334
0.000152499
0.000147669
0.00014518
0.000144709
0.000146207
0.000150175
0.000157194
0.000166746
0.000176332
0.000188799
0.000195466
0.000192928
0.000185204
0.000177512
0.000171661
0.000166312
0.0001659
0.000190099
0.000184778
0.000167034
0.000166769
0.00017135
0.000178161
0.000187046
0.00019538
0.000193718
0.00018187
0.000169276
0.000160433
0.000151345
0.00014499
0.000141467
0.000139631
0.000138899
0.00013924
0.000141298
0.000146199
0.000153691
0.000159257
0.000167104