/*--------------------------------*- C++ -*----------------------------------*\
| =========                 |                                                 |
| \\      /  F ield         | OpenFOAM: The Open Source CFD Toolbox           |
|  \\    /   O peration     | Version:  v1606+                                |
|   \\  /    A nd           | Web:      www.OpenFOAM.com                      |
|    \\/     M anipulation  |                                                 |
\*---------------------------------------------------------------------------*/
FoamFile
{
    version     2.0;
    format      ascii;
    class       volVectorField;
    location    "0.3";
    object      U.air;
}
// * * * * * * * * * * * * * * * * * * * * * * * * * * * * * * * * * * * * * //

dimensions      [0 1 -1 0 0 0 0];

internalField   nonuniform List<vector> 
6000
(
(0.00699548 0.239268 0)
(0.0421733 0.20047 0)
(0.0405582 0.211234 0)
(0.0360023 0.200657 0)
(0.0277141 0.194504 0)
(0.0176952 0.181861 0)
(0.0186688 0.167681 0)
(0.0165805 0.158974 0)
(0.0170291 0.151909 0)
(0.0176181 0.148606 0)
(0.0151396 0.149776 0)
(0.0100693 0.152821 0)
(0.00436533 0.148168 0)
(0.00121996 0.146569 0)
(-0.000413117 0.144499 0)
(-0.000511038 0.146302 0)
(-0.00111438 0.147907 0)
(-0.00491834 0.150035 0)
(-0.010351 0.15161 0)
(-0.015534 0.147602 0)
(-0.0180922 0.149542 0)
(-0.0172283 0.153381 0)
(-0.0140315 0.159794 0)
(-0.0152535 0.168266 0)
(-0.015713 0.179684 0)
(-0.026674 0.194031 0)
(-0.0378685 0.201642 0)
(-0.0441842 0.211854 0)
(-0.0451489 0.201105 0)
(-0.00850152 0.239289 0)
(0.0248592 0.942216 0)
(0.00855253 1.00165 0)
(-0.0156195 1.01395 0)
(-0.0359156 0.995846 0)
(-0.0303483 1.00415 0)
(-0.0163583 0.984539 0)
(-0.000282009 0.991773 0)
(0.0125395 1.00216 0)
(0.0212227 1.00903 0)
(0.024111 1.01562 0)
(0.0237043 1.01836 0)
(0.0219387 1.01911 0)
(0.0175145 1.02116 0)
(0.0105265 1.02153 0)
(0.00343226 1.02113 0)
(-0.0036963 1.01957 0)
(-0.0106831 1.02043 0)
(-0.0169521 1.0206 0)
(-0.021257 1.0212 0)
(-0.0238939 1.0197 0)
(-0.0246067 1.01584 0)
(-0.021112 1.0058 0)
(-0.0121573 0.999595 0)
(0.00190395 0.994212 0)
(0.0185546 0.986403 0)
(0.0323414 1.00711 0)
(0.0377254 0.999777 0)
(0.0163332 1.01505 0)
(-0.00981096 1.00155 0)
(-0.02591 0.940067 0)
(-0.0348757 0.750257 0)
(-0.0736448 0.796595 0)
(-0.100944 0.806288 0)
(-0.111012 0.755265 0)
(-0.0830575 0.727317 0)
(-0.0471418 0.704242 0)
(-0.0136298 0.703584 0)
(0.0125832 0.713885 0)
(0.0270566 0.725795 0)
(0.031746 0.734446 0)
(0.0315404 0.739121 0)
(0.0274455 0.743182 0)
(0.0213896 0.745794 0)
(0.013777 0.745944 0)
(0.00511513 0.746203 0)
(-0.00449006 0.745716 0)
(-0.0136995 0.746256 0)
(-0.0214712 0.745805 0)
(-0.0279361 0.743984 0)
(-0.0318516 0.740267 0)
(-0.0323596 0.735017 0)
(-0.0281847 0.724767 0)
(-0.0146043 0.712225 0)
(0.0134277 0.701357 0)
(0.0497056 0.702388 0)
(0.0872629 0.726279 0)
(0.116964 0.757306 0)
(0.107101 0.807961 0)
(0.0756904 0.800344 0)
(0.0341276 0.748031 0)
(-0.0686829 0.844001 0)
(-0.146751 0.852986 0)
(-0.177023 0.813203 0)
(-0.165802 0.74465 0)
(-0.114149 0.702418 0)
(-0.0532331 0.683874 0)
(0.00368016 0.694104 0)
(0.0390249 0.721999 0)
(0.0510825 0.747664 0)
(0.0501915 0.766589 0)
(0.0440855 0.780172 0)
(0.0345083 0.78852 0)
(0.0240386 0.79206 0)
(0.0138085 0.792438 0)
(0.00471526 0.791845 0)
(-0.00412176 0.791927 0)
(-0.0136882 0.792993 0)
(-0.0242113 0.792776 0)
(-0.0353264 0.789176 0)
(-0.0450193 0.780584 0)
(-0.0515032 0.766701 0)
(-0.0532336 0.747437 0)
(-0.0413997 0.720623 0)
(-0.00373708 0.691282 0)
(0.0566838 0.681857 0)
(0.120353 0.701624 0)
(0.174726 0.746033 0)
(0.187963 0.817559 0)
(0.155314 0.862261 0)
(0.071656 0.843827 0)
(-0.084991 0.953889 0)
(-0.187096 0.895942 0)
(-0.220101 0.824426 0)
(-0.200019 0.707786 0)
(-0.138734 0.644421 0)
(-0.0643674 0.621365 0)
(0.0098666 0.640598 0)
(0.0589106 0.690428 0)
(0.0756099 0.735102 0)
(0.0721292 0.75883 0)
(0.0598357 0.773292 0)
(0.0441536 0.781231 0)
(0.0283647 0.784163 0)
(0.0146619 0.782337 0)
(0.00461333 0.780252 0)
(-0.00399206 0.780645 0)
(-0.0144779 0.783126 0)
(-0.0284515 0.785169 0)
(-0.0447252 0.782593 0)
(-0.0609608 0.774925 0)
(-0.0739665 0.760097 0)
(-0.0781134 0.735776 0)
(-0.0608877 0.68871 0)
(-0.00837771 0.635507 0)
(0.0691876 0.618813 0)
(0.144981 0.642839 0)
(0.208289 0.707042 0)
(0.231331 0.827984 0)
(0.198592 0.909079 0)
(0.0899139 0.963585 0)
(-0.0777147 1.10229 0)
(-0.160049 0.953024 0)
(-0.16554 0.851554 0)
(-0.155122 0.700771 0)
(-0.12607 0.620701 0)
(-0.0805526 0.584931 0)
(-0.0240461 0.609843 0)
(0.0224525 0.68596 0)
(0.0526422 0.748191 0)
(0.0635723 0.785342 0)
(0.0585141 0.806944 0)
(0.0440098 0.817102 0)
(0.0280084 0.819067 0)
(0.014345 0.814077 0)
(0.00455843 0.808579 0)
(-0.00357228 0.809529 0)
(-0.0137664 0.815117 0)
(-0.0277514 0.820957 0)
(-0.0441264 0.819138 0)
(-0.058674 0.809715 0)
(-0.0634419 0.787894 0)
(-0.0520154 0.750717 0)
(-0.0202887 0.684511 0)
(0.0278644 0.602016 0)
(0.0862028 0.582154 0)
(0.131172 0.619868 0)
(0.15994 0.700016 0)
(0.169775 0.854298 0)
(0.166203 0.968557 0)
(0.0809812 1.11753 0)
(-0.0103239 1.26641 0)
(-0.046936 1.03298 0)
(-0.0501329 0.921057 0)
(-0.0742891 0.766505 0)
(-0.0985067 0.673353 0)
(-0.100366 0.621311 0)
(-0.075121 0.628704 0)
(-0.0247087 0.700536 0)
(0.0209141 0.78042 0)
(0.0436118 0.834651 0)
(0.0466422 0.86936 0)
(0.0373095 0.883118 0)
(0.0254684 0.883175 0)
(0.014656 0.875208 0)
(0.00514706 0.867438 0)
(-0.00385199 0.868761 0)
(-0.0135947 0.876665 0)
(-0.0246395 0.885736 0)
(-0.0368127 0.8857 0)
(-0.0458831 0.872509 0)
(-0.0419045 0.836759 0)
(-0.0175179 0.78191 0)
(0.0320619 0.696833 0)
(0.0823796 0.622453 0)
(0.105372 0.619802 0)
(0.101581 0.674743 0)
(0.0736018 0.76876 0)
(0.0462665 0.924339 0)
(0.0447279 1.04718 0)
(0.0118304 1.28739 0)
(0.105327 1.34919 0)
(0.0920629 1.15585 0)
(0.0511994 1.04218 0)
(-0.0320371 0.89842 0)
(-0.104749 0.77001 0)
(-0.125343 0.683536 0)
(-0.099772 0.668138 0)
(-0.045554 0.73139 0)
(0.00521368 0.831162 0)
(0.0300517 0.908921 0)
(0.0373877 0.956951 0)
(0.0355133 0.976961 0)
(0.0289377 0.977999 0)
(0.0194596 0.970234 0)
(0.00730912 0.96256 0)
(-0.00570454 0.963764 0)
(-0.017602 0.971882 0)
(-0.026809 0.980653 0)
(-0.0331582 0.979874 0)
(-0.0346379 0.960077 0)
(-0.0265697 0.910372 0)
(4.21755e-05 0.83008 0)
(0.0525668 0.725528 0)
(0.106431 0.661748 0)
(0.130958 0.680875 0)
(0.108118 0.772304 0)
(0.028926 0.904102 0)
(-0.06087 1.04773 0)
(-0.101153 1.16696 0)
(-0.110629 1.36782 0)
(0.085922 1.28898 0)
(0.149737 1.28071 0)
(0.0834352 1.20192 0)
(-0.0473753 1.07245 0)
(-0.154631 0.917687 0)
(-0.169177 0.78676 0)
(-0.105318 0.744918 0)
(-0.00863213 0.803664 0)
(0.0546536 0.938224 0)
(0.0633881 1.03304 0)
(0.0575853 1.08361 0)
(0.0506244 1.10738 0)
(0.0406131 1.11107 0)
(0.0266158 1.10631 0)
(0.0096713 1.09969 0)
(-0.00766624 1.10027 0)
(-0.0240183 1.10637 0)
(-0.0368824 1.11122 0)
(-0.0462139 1.1073 0)
(-0.0533373 1.08311 0)
(-0.059908 1.03031 0)
(-0.0511009 0.931608 0)
(0.0138705 0.792589 0)
(0.112561 0.733239 0)
(0.177913 0.778544 0)
(0.160371 0.916341 0)
(0.0416956 1.07609 0)
(-0.0961061 1.2007 0)
(-0.160845 1.28423 0)
(-0.091219 1.29669 0)
(0.00509718 1.24451 0)
(0.128983 1.21876 0)
(0.0798021 1.15097 0)
(-0.0395244 1.01514 0)
(-0.139731 0.826599 0)
(-0.162147 0.664941 0)
(-0.0954171 0.614184 0)
(-0.00276463 0.672445 0)
(0.0575132 0.839858 0)
(0.075297 0.948866 0)
(0.0758913 1.00131 0)
(0.0697464 1.02655 0)
(0.0559655 1.02905 0)
(0.0354427 1.02465 0)
(0.0119347 1.01721 0)
(-0.0119163 1.01833 0)
(-0.0346042 1.02498 0)
(-0.0538163 1.03001 0)
(-0.0670082 1.02717 0)
(-0.07348 1.00193 0)
(-0.0736941 0.946976 0)
(-0.0558156 0.833576 0)
(0.00663151 0.660423 0)
(0.102449 0.602765 0)
(0.170271 0.656807 0)
(0.144363 0.828936 0)
(0.0338175 1.02534 0)
(-0.0893831 1.15028 0)
(-0.13577 1.21842 0)
(-0.00492522 1.24508 0)
(0.0145315 0.920466 0)
(0.0207698 0.967188 0)
(-0.0965984 1.14312 0)
(-0.278897 1.02613 0)
(-0.41371 0.88847 0)
(-0.376084 0.603197 0)
(-0.232411 0.486642 0)
(-0.0617969 0.547388 0)
(0.0655356 0.732572 0)
(0.128571 0.85718 0)
(0.135808 0.912662 0)
(0.120375 0.946951 0)
(0.0890636 0.961824 0)
(0.0527662 0.966739 0)
(0.0174595 0.964036 0)
(-0.0172868 0.96377 0)
(-0.0518756 0.964869 0)
(-0.0874119 0.959863 0)
(-0.118768 0.946127 0)
(-0.135396 0.912184 0)
(-0.129597 0.854872 0)
(-0.0653597 0.723956 0)
(0.0670965 0.532985 0)
(0.24235 0.473021 0)
(0.387074 0.596112 0)
(0.421734 0.900109 0)
(0.278166 1.04595 0)
(0.0936651 1.13457 0)
(-0.0229108 0.964178 0)
(-0.0142672 0.919586 0)
(-0.0838434 0.976616 0)
(-0.285633 1.08358 0)
(-0.43286 1.17803 0)
(-0.539668 1.0317 0)
(-0.537117 0.665828 0)
(-0.468861 0.363193 0)
(-0.319058 0.200455 0)
(-0.146718 0.317023 0)
(0.0126421 0.513206 0)
(0.104268 0.712659 0)
(0.130343 0.810135 0)
(0.121162 0.866634 0)
(0.08825 0.889782 0)
(0.0510874 0.889154 0)
(0.0172343 0.88397 0)
(-0.0165178 0.883914 0)
(-0.0503421 0.888428 0)
(-0.0875383 0.88949 0)
(-0.120659 0.868092 0)
(-0.130376 0.812054 0)
(-0.104787 0.711973 0)
(-0.0123825 0.503529 0)
(0.149001 0.298664 0)
(0.321613 0.185062 0)
(0.473778 0.353673 0)
(0.542082 0.677931 0)
(0.546439 1.04879 0)
(0.43938 1.18124 0)
(0.285562 1.08255 0)
(0.0848907 0.973758 0)
(-0.1468 1.05929 0)
(-0.34065 1.06753 0)
(-0.413467 1.08738 0)
(-0.438374 0.895228 0)
(-0.41184 0.506184 0)
(-0.379181 0.180871 0)
(-0.271167 -0.0185461 0)
(-0.16077 0.0924289 0)
(-0.0438597 0.314987 0)
(0.0253677 0.547217 0)
(0.0593453 0.669349 0)
(0.0686911 0.748868 0)
(0.0558094 0.785382 0)
(0.0336457 0.784934 0)
(0.0113871 0.780945 0)
(-0.0116127 0.780738 0)
(-0.0338307 0.784179 0)
(-0.0558838 0.784782 0)
(-0.0683619 0.750456 0)
(-0.0584607 0.671681 0)
(-0.0240768 0.547653 0)
(0.0441803 0.307704 0)
(0.157754 0.0769392 0)
(0.264065 -0.0304894 0)
(0.381116 0.175005 0)
(0.421746 0.524871 0)
(0.44441 0.912985 0)
(0.420795 1.09183 0)
(0.345656 1.07126 0)
(0.150168 1.06213 0)
(-0.0997328 1.24312 0)
(-0.24164 1.1629 0)
(-0.27822 1.10971 0)
(-0.273963 0.878133 0)
(-0.273054 0.478066 0)
(-0.270375 0.122542 0)
(-0.194511 -0.104406 0)
(-0.143291 0.0126902 0)
(-0.0766465 0.261609 0)
(-0.0330556 0.511896 0)
(-0.000253059 0.651191 0)
(0.0212154 0.747417 0)
(0.0284009 0.803826 0)
(0.0196349 0.81048 0)
(0.00625087 0.809084 0)
(-0.00769054 0.808739 0)
(-0.0208763 0.809561 0)
(-0.0293896 0.802884 0)
(-0.0213598 0.748165 0)
(0.00163112 0.652677 0)
(0.0356725 0.512374 0)
(0.0767503 0.257987 0)
(0.137559 0.00203815 0)
(0.186524 -0.111773 0)
(0.235144 0.0653616 0)
(0.266691 0.491882 0)
(0.271274 0.892888 0)
(0.282408 1.11617 0)
(0.245849 1.16811 0)
(0.102349 1.24992 0)
(-0.0689638 1.38709 0)
(-0.161247 1.22475 0)
(-0.163695 1.11325 0)
(-0.145212 0.856057 0)
(-0.146759 0.460824 0)
(-0.144403 0.0467848 0)
(-0.125681 -0.150823 0)
(-0.116843 -0.0236769 0)
(-0.0875698 0.237766 0)
(-0.0645828 0.482544 0)
(-0.0380012 0.626489 0)
(-0.0154213 0.728275 0)
(0.00384327 0.796533 0)
(0.00888833 0.813033 0)
(0.00251972 0.812575 0)
(-0.00538326 0.812182 0)
(-0.011433 0.811744 0)
(-0.00582495 0.795114 0)
(0.0148598 0.727452 0)
(0.0398006 0.626401 0)
(0.0694909 0.483015 0)
(0.0887994 0.240045 0)
(0.114509 -0.0316757 0)
(0.128047 -0.152294 0)
(0.138468 0.0417246 0)
(0.132654 0.466144 0)
(0.139672 0.862731 0)
(0.16477 1.11635 0)
(0.164136 1.22994 0)
(0.0712708 1.39761 0)
(-0.057757 1.48616 0)
(-0.122353 1.24821 0)
(-0.0926346 1.09859 0)
(-0.0562922 0.828434 0)
(-0.0412381 0.45622 0)
(-0.0650408 0.0554514 0)
(-0.0765269 -0.155098 0)
(-0.0888227 -0.0302507 0)
(-0.0826297 0.235734 0)
(-0.0766043 0.464483 0)
(-0.0577894 0.606884 0)
(-0.0408021 0.707824 0)
(-0.0200142 0.778381 0)
(-0.00496655 0.811049 0)
(-0.00210204 0.818627 0)
(-0.00211288 0.818002 0)
(0.00112796 0.80914 0)
(0.0171252 0.775741 0)
(0.0399183 0.704513 0)
(0.0604 0.602948 0)
(0.0875811 0.460294 0)
(0.084169 0.236731 0)
(0.0807727 -0.0435835 0)
(0.0727246 -0.162402 0)
(0.0605467 0.0494186 0)
(0.0349459 0.458003 0)
(0.0532476 0.830136 0)
(0.0924275 1.09885 0)
(0.124071 1.25215 0)
(0.0597515 1.49905 0)
(-0.0546328 1.57377 0)
(-0.101528 1.24579 0)
(-0.0466278 1.06144 0)
(-0.000939303 0.788568 0)
(0.028422 0.44394 0)
(-0.00312344 0.0785217 0)
(-0.0331938 -0.145281 0)
(-0.0566675 -0.0244233 0)
(-0.0729906 0.243558 0)
(-0.0853557 0.454218 0)
(-0.0685101 0.593327 0)
(-0.0569128 0.693544 0)
(-0.0415452 0.761105 0)
(-0.0235671 0.798899 0)
(-0.00891779 0.812199 0)
(0.00352073 0.811519 0)
(0.0183589 0.796472 0)
(0.0369277 0.75725 0)
(0.0531461 0.688314 0)
(0.0660039 0.586362 0)
(0.0834183 0.447202 0)
(0.0771168 0.29828 0)
(0.0560998 -0.036104 0)
(0.0315889 -0.151692 0)
(-0.00128104 0.0724921 0)
(-0.0335974 0.444522 0)
(-0.0024769 0.789597 0)
(0.0442437 1.06048 0)
(0.100969 1.24815 0)
(0.0559717 1.58803 0)
(-0.0485425 1.65117 0)
(-0.0734403 1.22608 0)
(-0.00860637 1.01649 0)
(0.0337594 0.753251 0)
(0.0589492 0.434665 0)
(0.0323826 0.140789 0)
(0.00275332 -0.118852 0)
(-0.0351126 -0.0019883 0)
(-0.0627878 0.310319 0)
(-0.0759886 0.449977 0)
(-0.0677903 0.586325 0)
(-0.0615154 0.686719 0)
(-0.0515169 0.748628 0)
(-0.0347687 0.782689 0)
(-0.013858 0.793939 0)
(0.00765697 0.793255 0)
(0.0286448 0.780107 0)
(0.045351 0.744651 0)
(0.0547462 0.681669 0)
(0.0594267 0.580078 0)
(0.0602856 0.442335 0)
(0.0579857 0.310224 0)
(0.0401594 -0.0117292 0)
(-0.00261977 -0.122423 0)
(-0.0349798 0.141187 0)
(-0.0648529 0.435699 0)
(-0.0368443 0.753329 0)
(0.00540227 1.01472 0)
(0.0706137 1.22642 0)
(0.0485735 1.66542 0)
(-0.021183 1.70927 0)
(-0.0247477 1.19487 0)
(0.0291366 0.976261 0)
(0.0610588 0.728477 0)
(0.0748675 0.431027 0)
(0.0669122 0.159238 0)
(0.031176 -0.0783917 0)
(-0.0197664 0.0314871 0)
(-0.0395482 0.323945 0)
(-0.0482894 0.456172 0)
(-0.057943 0.588404 0)
(-0.0573436 0.684398 0)
(-0.0502671 0.741401 0)
(-0.0354213 0.769338 0)
(-0.0144021 0.7783 0)
(0.00844765 0.777552 0)
(0.0295928 0.766869 0)
(0.0441723 0.738035 0)
(0.0508059 0.680531 0)
(0.0508089 0.584743 0)
(0.0393026 0.453453 0)
(0.0354742 0.324203 0)
(0.019784 0.0248087 0)
(-0.0330643 -0.0798028 0)
(-0.0701733 0.160605 0)
(-0.0782979 0.431051 0)
(-0.0620895 0.727971 0)
(-0.0309456 0.975211 0)
(0.020931 1.19455 0)
(0.0187836 1.72169 0)
(0.0342657 1.717 0)
(0.0387046 1.17687 0)
(0.0644719 0.953304 0)
(0.0852235 0.715289 0)
(0.0957823 0.434394 0)
(0.0960578 0.180352 0)
(0.0523102 -0.0242925 0)
(-0.00260224 0.0701849 0)
(-0.0139895 0.331963 0)
(-0.0267434 0.468898 0)
(-0.0544502 0.596923 0)
(-0.0551363 0.684196 0)
(-0.0472851 0.734813 0)
(-0.0325074 0.756815 0)
(-0.0130354 0.762607 0)
(0.00802271 0.761815 0)
(0.0277973 0.754311 0)
(0.0418529 0.731631 0)
(0.0490644 0.680436 0)
(0.0487068 0.594103 0)
(0.0212796 0.465463 0)
(0.0112735 0.326311 0)
(0.000963285 0.0636891 0)
(-0.0560534 -0.0237869 0)
(-0.100617 0.18245 0)
(-0.0989314 0.432613 0)
(-0.0849868 0.714125 0)
(-0.064124 0.954029 0)
(-0.041695 1.17845 0)
(-0.0370851 1.72516 0)
(0.0814858 1.66001 0)
(0.0914598 1.17681 0)
(0.0875081 0.950112 0)
(0.110033 0.703399 0)
(0.119405 0.430752 0)
(0.113617 0.197585 0)
(0.0647834 0.0382093 0)
(0.00827295 0.109281 0)
(-0.00327934 0.330032 0)
(-0.00207618 0.535419 0)
(-0.0376347 0.606933 0)
(-0.0549492 0.687606 0)
(-0.0444654 0.727445 0)
(-0.0286423 0.745558 0)
(-0.0109928 0.749219 0)
(0.00723565 0.74849 0)
(0.0255845 0.743382 0)
(0.039956 0.726469 0)
(0.0491293 0.683932 0)
(0.0331265 0.603529 0)
(-0.00136762 0.530361 0)
(0.00148179 0.32268 0)
(-0.0106223 0.104056 0)
(-0.0684229 0.0404817 0)
(-0.117583 0.199187 0)
(-0.122644 0.426722 0)
(-0.110112 0.700462 0)
(-0.0853544 0.952454 0)
(-0.0909688 1.18063 0)
(-0.082509 1.66611 0)
(0.0872207 1.56981 0)
(0.116837 1.20071 0)
(0.0946613 0.959367 0)
(0.118452 0.68817 0)
(0.139965 0.479284 0)
(0.127078 0.224883 0)
(0.0739828 0.105211 0)
(0.0153553 0.150563 0)
(-0.0083087 0.32825 0)
(0.00226879 0.532086 0)
(-0.00652955 0.678459 0)
(-0.0367656 0.687039 0)
(-0.040859 0.719564 0)
(-0.0236347 0.737072 0)
(-0.00848496 0.740418 0)
(0.00651126 0.73929 0)
(0.0236633 0.734598 0)
(0.0373998 0.718903 0)
(0.0303918 0.682614 0)
(0.00306679 0.673296 0)
(-0.00434161 0.525757 0)
(0.00608262 0.320698 0)
(-0.0190608 0.146394 0)
(-0.0787213 0.107158 0)
(-0.130312 0.226665 0)
(-0.143774 0.473797 0)
(-0.121534 0.682088 0)
(-0.094461 0.959724 0)
(-0.113039 1.20607 0)
(-0.08634 1.57744 0)
(0.0837389 1.48257 0)
(0.104391 1.21145 0)
(0.113089 0.978598 0)
(0.126417 0.666547 0)
(0.151748 0.459781 0)
(0.149262 0.260632 0)
(0.0928696 0.171213 0)
(0.0274705 0.199638 0)
(-0.0114569 0.342068 0)
(-0.0185026 0.530557 0)
(-0.00839278 0.676024 0)
(-0.00928378 0.749306 0)
(-0.0171038 0.705904 0)
(-0.0135841 0.71621 0)
(-0.00577078 0.717859 0)
(0.00321174 0.716493 0)
(0.0110166 0.714287 0)
(0.0151978 0.715026 0)
(0.00795366 0.744277 0)
(0.00763568 0.669457 0)
(0.0178295 0.524264 0)
(0.00897766 0.336106 0)
(-0.0319906 0.19714 0)
(-0.0986886 0.172491 0)
(-0.15357 0.261241 0)
(-0.156726 0.456386 0)
(-0.131747 0.660266 0)
(-0.115301 0.974015 0)
(-0.0977851 1.21309 0)
(-0.0832097 1.49293 0)
(0.0684285 1.40956 0)
(0.0960981 1.20691 0)
(0.122072 0.957043 0)
(0.150009 0.695695 0)
(0.186922 0.447623 0)
(0.177245 0.299637 0)
(0.120567 0.239145 0)
(0.0447702 0.262133 0)
(-0.0130739 0.379085 0)
(-0.0418365 0.544135 0)
(-0.0412131 0.672289 0)
(-0.0219582 0.7361 0)
(-0.0129542 0.75182 0)
(-0.0132756 0.757506 0)
(-0.00592828 0.756061 0)
(0.00292609 0.754904 0)
(0.00831996 0.754484 0)
(0.0120299 0.749727 0)
(0.0247949 0.73054 0)
(0.0419343 0.666434 0)
(0.0416748 0.539102 0)
(0.0107547 0.375574 0)
(-0.049421 0.261364 0)
(-0.126129 0.239823 0)
(-0.18189 0.299368 0)
(-0.191994 0.444798 0)
(-0.156571 0.687431 0)
(-0.121694 0.944206 0)
(-0.0971376 1.2142 0)
(-0.0653537 1.42209 0)
(0.0397746 1.35677 0)
(0.0896144 1.19341 0)
(0.131273 0.994123 0)
(0.195094 0.643025 0)
(0.239636 0.444097 0)
(0.212804 0.342475 0)
(0.149665 0.312056 0)
(0.0615756 0.339911 0)
(-0.0143207 0.438235 0)
(-0.0587272 0.574939 0)
(-0.066714 0.677307 0)
(-0.0519405 0.727659 0)
(-0.0340963 0.739465 0)
(-0.020116 0.741193 0)
(-0.00643534 0.738557 0)
(0.00657622 0.737752 0)
(0.0196068 0.738757 0)
(0.0347133 0.737281 0)
(0.0534972 0.723015 0)
(0.0672313 0.672654 0)
(0.0583228 0.571247 0)
(0.0121642 0.436742 0)
(-0.0655187 0.340517 0)
(-0.154476 0.312717 0)
(-0.217738 0.341841 0)
(-0.244992 0.441295 0)
(-0.201555 0.635384 0)
(-0.138687 0.977946 0)
(-0.0948804 1.19922 0)
(-0.0402623 1.36732 0)
(0.034131 1.30928 0)
(0.0599234 1.16538 0)
(0.162116 0.905496 0)
(0.265323 0.597331 0)
(0.286047 0.45161 0)
(0.24849 0.393687 0)
(0.17423 0.391552 0)
(0.0771227 0.427842 0)
(-0.00835944 0.509063 0)
(-0.058204 0.613496 0)
(-0.0680462 0.690449 0)
(-0.0547084 0.72914 0)
(-0.0355809 0.741391 0)
(-0.0188451 0.74426 0)
(-0.00497323 0.743217 0)
(0.00725302 0.742514 0)
(0.0206903 0.742141 0)
(0.0371597 0.738223 0)
(0.0557861 0.72494 0)
(0.0678758 0.686414 0)
(0.056805 0.610916 0)
(0.00578655 0.508872 0)
(-0.0804022 0.429293 0)
(-0.177768 0.392734 0)
(-0.252691 0.393745 0)
(-0.290482 0.44943 0)
(-0.271506 0.591452 0)
(-0.17194 0.893746 0)
(-0.0749586 1.16485 0)
(-0.0437382 1.32508 0)
(0.00552191 1.30295 0)
(0.0960027 1.16412 0)
(0.232655 0.800551 0)
(0.322767 0.570899 0)
(0.318621 0.478231 0)
(0.26902 0.455713 0)
(0.185992 0.475336 0)
(0.0931041 0.516337 0)
(0.0137147 0.579754 0)
(-0.0314012 0.653304 0)
(-0.0414672 0.708039 0)
(-0.0328709 0.738016 0)
(-0.0199715 0.751638 0)
(-0.00925137 0.756685 0)
(-0.00175462 0.758239 0)
(0.00421522 0.757733 0)
(0.0113006 0.755213 0)
(0.0212766 0.74932 0)
(0.033085 0.735031 0)
(0.0402685 0.705177 0)
(0.0290122 0.651567 0)
(-0.0165841 0.579889 0)
(-0.0956067 0.517671 0)
(-0.187759 0.476708 0)
(-0.271001 0.456402 0)
(-0.320749 0.476896 0)
(-0.326705 0.567671 0)
(-0.23927 0.793686 0)
(-0.103774 1.16473 0)
(-0.0026991 1.28194 0)
(0.00793773 1.33076 0)
(0.158504 1.02038 0)
(0.304215 0.724694 0)
(0.347488 0.576515 0)
(0.320976 0.522701 0)
(0.261452 0.526757 0)
(0.18498 0.555217 0)
(0.112091 0.594576 0)
(0.052539 0.643119 0)
(0.0166748 0.696208 0)
(0.00351488 0.739819 0)
(0.0022908 0.768509 0)
(0.0037504 0.785484 0)
(0.00398537 0.795017 0)
(0.00246276 0.799077 0)
(9.81803e-05 0.798715 0)
(-0.0017123 0.793943 0)
(-0.00202974 0.783895 0)
(-0.00143149 0.766461 0)
(-0.00371631 0.737742 0)
(-0.0177429 0.69481 0)
(-0.0537476 0.642886 0)
(-0.112671 0.595117 0)
(-0.184665 0.556031 0)
(-0.260534 0.5277 0)
(-0.320458 0.522362 0)
(-0.347807 0.574555 0)
(-0.306971 0.71935 0)
(-0.157945 1.01291 0)
(-0.00588186 1.3427 0)
(0.0683511 1.27899 0)
(0.213079 0.905332 0)
(0.326721 0.70686 0)
(0.331513 0.610521 0)
(0.292846 0.58208 0)
(0.235228 0.595061 0)
(0.177435 0.621662 0)
(0.126173 0.65579 0)
(0.0836052 0.694865 0)
(0.0527401 0.737063 0)
(0.0339187 0.775623 0)
(0.0232472 0.80511 0)
(0.016256 0.825007 0)
(0.0103389 0.837034 0)
(0.00450209 0.84247 0)
(-0.00144686 0.842043 0)
(-0.00753315 0.835794 0)
(-0.013942 0.823107 0)
(-0.0216454 0.802811 0)
(-0.0331191 0.773369 0)
(-0.052525 0.735432 0)
(-0.0834686 0.694072 0)
(-0.125658 0.655552 0)
(-0.176337 0.621747 0)
(-0.233395 0.59535 0)
(-0.290769 0.582173 0)
(-0.329831 0.609455 0)
(-0.327186 0.703601 0)
(-0.216951 0.898953 0)
(-0.074269 1.27591 0)
(0.104937 1.20114 0)
(0.22675 0.847983 0)
(0.306126 0.716596 0)
(0.293576 0.652801 0)
(0.258497 0.638284 0)
(0.215972 0.650657 0)
(0.175613 0.674754 0)
(0.137791 0.705244 0)
(0.103176 0.739272 0)
(0.073554 0.774889 0)
(0.0504744 0.808376 0)
(0.0335427 0.83578 0)
(0.0213399 0.855227 0)
(0.0122994 0.867504 0)
(0.00503773 0.87311 0)
(-0.00167735 0.872657 0)
(-0.00923544 0.866178 0)
(-0.0188082 0.853226 0)
(-0.0316868 0.833405 0)
(-0.0492938 0.806064 0)
(-0.0728335 0.773073 0)
(-0.1026 0.738089 0)
(-0.137137 0.704504 0)
(-0.174747 0.67427 0)
(-0.214726 0.650216 0)
(-0.256704 0.637756 0)
(-0.291398 0.651783 0)
(-0.303931 0.714726 0)
(-0.227276 0.846231 0)
(-0.10711 1.19602 0)
(0.102801 1.12359 0)
(0.200915 0.81302 0)
(0.256175 0.724099 0)
(0.253835 0.685273 0)
(0.234088 0.679039 0)
(0.207085 0.69271 0)
(0.175994 0.716251 0)
(0.142754 0.74453 0)
(0.110216 0.774862 0)
(0.0802086 0.805128 0)
(0.0546036 0.832132 0)
(0.0344985 0.853903 0)
(0.0200078 0.86861 0)
(0.0104811 0.87779 0)
(0.00416225 0.881695 0)
(-0.00103708 0.881287 0)
(-0.00759082 0.876623 0)
(-0.0175157 0.866833 0)
(-0.032495 0.851803 0)
(-0.0530986 0.830058 0)
(-0.0790991 0.803396 0)
(-0.109351 0.773613 0)
(-0.142006 0.743666 0)
(-0.175251 0.715601 0)
(-0.2062 0.69191 0)
(-0.232828 0.677854 0)
(-0.25198 0.683388 0)
(-0.253467 0.721547 0)
(-0.198162 0.811048 0)
(-0.101156 1.11772 0)
(0.0807425 1.02615 0)
(0.158178 0.773037 0)
(0.209042 0.713093 0)
(0.222738 0.697906 0)
(0.216546 0.703414 0)
(0.197551 0.72214 0)
(0.170763 0.748513 0)
(0.139335 0.77719 0)
(0.107062 0.804768 0)
(0.0753913 0.832265 0)
(0.0471949 0.852429 0)
(0.0252549 0.868046 0)
(0.0106814 0.875762 0)
(0.00391537 0.880247 0)
(0.00177511 0.881766 0)
(0.00133644 0.881487 0)
(-0.00100661 0.879402 0)
(-0.00808864 0.874431 0)
(-0.0230269 0.866448 0)
(-0.0453061 0.850831 0)
(-0.073881 0.831003 0)
(-0.105918 0.80387 0)
(-0.138497 0.776664 0)
(-0.170181 0.748121 0)
(-0.197003 0.721432 0)
(-0.215788 0.702046 0)
(-0.221646 0.695591 0)
(-0.20767 0.70987 0)
(-0.156615 0.769542 0)
(-0.0790951 1.02106 0)
(0.0673788 0.928804 0)
(0.134644 0.720341 0)
(0.183433 0.689775 0)
(0.201867 0.697109 0)
(0.200707 0.716407 0)
(0.185192 0.74404 0)
(0.160357 0.774728 0)
(0.1287 0.805643 0)
(0.09559 0.830165 0)
(0.0594777 0.858992 0)
(0.0258183 0.87032 0)
(0.00342631 0.879421 0)
(-0.00822147 0.877652 0)
(-0.00816549 0.876034 0)
(-0.00222712 0.874435 0)
(0.00576149 0.874308 0)
(0.0114748 0.875534 0)
(0.0112141 0.87679 0)
(-0.000746262 0.878307 0)
(-0.0233041 0.869157 0)
(-0.0573999 0.858452 0)
(-0.0941166 0.829824 0)
(-0.127798 0.80577 0)
(-0.16004 0.774873 0)
(-0.185146 0.74357 0)
(-0.200559 0.715039 0)
(-0.201533 0.694773 0)
(-0.183259 0.686795 0)
(-0.135009 0.716907 0)
(-0.0676037 0.923658 0)
(0.0703866 0.830927 0)
(0.132762 0.672199 0)
(0.17103 0.667063 0)
(0.185705 0.690929 0)
(0.185394 0.723125 0)
(0.170802 0.760183 0)
(0.144144 0.795391 0)
(0.108566 0.828698 0)
(0.0738058 0.849118 0)
(0.0327414 0.885343 0)
(-0.0091401 0.885762 0)
(-0.028696 0.885632 0)
(-0.0323362 0.872184 0)
(-0.0222193 0.863323 0)
(-0.00644223 0.858415 0)
(0.0108933 0.85844 0)
(0.0263735 0.863207 0)
(0.0360929 0.871783 0)
(0.0321861 0.884936 0)
(0.0128061 0.884916 0)
(-0.0297067 0.885694 0)
(-0.0719231 0.849382 0)
(-0.107697 0.829726 0)
(-0.144405 0.796245 0)
(-0.171573 0.759994 0)
(-0.186037 0.721713 0)
(-0.185915 0.688435 0)
(-0.171025 0.664459 0)
(-0.13297 0.669494 0)
(-0.0706999 0.825751 0)
(0.0733225 0.733256 0)
(0.129776 0.636762 0)
(0.157264 0.64924 0)
(0.168637 0.682649 0)
(0.167119 0.724123 0)
(0.147764 0.771566 0)
(0.113564 0.810681 0)
(0.073526 0.846864 0)
(0.0373764 0.863157 0)
(-0.00311275 0.911095 0)
(-0.0448156 0.901472 0)
(-0.0592093 0.882403 0)
(-0.050434 0.856679 0)
(-0.0309707 0.842024 0)
(-0.0084213 0.836337 0)
(0.0139971 0.836512 0)
(0.0362211 0.842303 0)
(0.0551989 0.85667 0)
(0.0639778 0.881646 0)
(0.0503008 0.900163 0)
(0.00883413 0.913152 0)
(-0.0348485 0.864038 0)
(-0.0727799 0.848713 0)
(-0.114546 0.812638 0)
(-0.149676 0.771661 0)
(-0.16885 0.722602 0)
(-0.16969 0.679575 0)
(-0.157304 0.646345 0)
(-0.129213 0.63386 0)
(-0.0727224 0.728385 0)
(0.0612747 0.643255 0)
(0.111598 0.608741 0)
(0.134753 0.633152 0)
(0.143125 0.672721 0)
(0.134897 0.720103 0)
(0.104698 0.782493 0)
(0.0627396 0.827912 0)
(0.0240144 0.860145 0)
(-0.0156296 0.883263 0)
(-0.0436159 0.93032 0)
(-0.0663203 0.91868 0)
(-0.0682641 0.868951 0)
(-0.052504 0.832189 0)
(-0.0299726 0.81649 0)
(-0.00748967 0.812205 0)
(0.0142846 0.812549 0)
(0.0363642 0.817155 0)
(0.0582838 0.832569 0)
(0.0743882 0.867453 0)
(0.0721167 0.916283 0)
(0.0497267 0.933887 0)
(0.020206 0.887239 0)
(-0.0214374 0.863797 0)
(-0.0630258 0.830899 0)
(-0.107055 0.783529 0)
(-0.138561 0.718724 0)
(-0.145642 0.668892 0)
(-0.135585 0.629192 0)
(-0.110939 0.604869 0)
(-0.0603396 0.63886 0)
(0.0414275 0.571652 0)
(0.0838031 0.584142 0)
(0.101227 0.616474 0)
(0.0942072 0.665469 0)
(0.0695776 0.721867 0)
(0.0418085 0.795402 0)
(0.00250855 0.839791 0)
(-0.0389325 0.881332 0)
(-0.0624017 0.906989 0)
(-0.0701514 0.933911 0)
(-0.0671077 0.91705 0)
(-0.0555625 0.850633 0)
(-0.0401016 0.80668 0)
(-0.0212175 0.793609 0)
(-0.00408947 0.791619 0)
(0.0120698 0.792114 0)
(0.0287951 0.794697 0)
(0.0469517 0.807536 0)
(0.0622979 0.848435 0)
(0.0723206 0.915631 0)
(0.0753976 0.936693 0)
(0.0671276 0.911344 0)
(0.0443295 0.887585 0)
(0.00130481 0.844424 0)
(-0.0431923 0.799536 0)
(-0.0759002 0.719506 0)
(-0.100001 0.661687 0)
(-0.104562 0.610899 0)
(-0.0840248 0.578482 0)
(-0.0408812 0.567338 0)
(0.0249763 0.521125 0)
(0.051404 0.564235 0)
(0.0462148 0.608739 0)
(0.011006 0.67581 0)
(-0.0246435 0.715962 0)
(-0.0397093 0.786148 0)
(-0.0673878 0.8752 0)
(-0.0850799 0.900085 0)
(-0.0876961 0.913725 0)
(-0.0779277 0.923127 0)
(-0.0566498 0.903007 0)
(-0.0365256 0.830419 0)
(-0.0210676 0.786265 0)
(-0.00840254 0.777711 0)
(0.000642772 0.77809 0)
(0.00837027 0.778647 0)
(0.0171359 0.779115 0)
(0.029077 0.787803 0)
(0.0432564 0.828883 0)
(0.0614543 0.902664 0)
(0.0823273 0.925906 0)
(0.091786 0.918506 0)
(0.0889481 0.905855 0)
(0.0730736 0.881737 0)
(0.0397001 0.798154 0)
(0.0166894 0.716466 0)
(-0.0212632 0.671086 0)
(-0.0549432 0.600637 0)
(-0.0542455 0.554843 0)
(-0.0242769 0.516055 0)
(0.014372 0.488068 0)
(0.00826305 0.564014 0)
(-0.0431659 0.623207 0)
(-0.113555 0.715801 0)
(-0.168999 0.756914 0)
(-0.146124 0.802022 0)
(-0.0969998 0.87068 0)
(-0.0835815 0.90129 0)
(-0.0851485 0.908909 0)
(-0.0686978 0.90248 0)
(-0.0333255 0.873774 0)
(-0.00970264 0.807697 0)
(0.00368022 0.773781 0)
(0.00712457 0.771693 0)
(0.00591984 0.774342 0)
(0.00371297 0.774797 0)
(0.00258024 0.772987 0)
(0.00582149 0.775689 0)
(0.0180197 0.807799 0)
(0.0386893 0.875122 0)
(0.0720627 0.905818 0)
(0.0894382 0.914135 0)
(0.0884265 0.907014 0)
(0.0956517 0.881046 0)
(0.139591 0.815529 0)
(0.160288 0.756721 0)
(0.103639 0.711002 0)
(0.0288975 0.613404 0)
(-0.0140466 0.54669 0)
(-0.0140919 0.4834 0)
(-0.0130486 0.474732 0)
(-0.03852 0.613849 0)
(-0.144213 0.689021 0)
(-0.216356 0.775883 0)
(-0.208588 0.749425 0)
(-0.132365 0.745714 0)
(-0.0759996 0.871033 0)
(-0.0419146 0.920013 0)
(-0.0574284 0.908104 0)
(-0.025982 0.866486 0)
(0.008348 0.84282 0)
(0.0291137 0.793898 0)
(0.0321937 0.775992 0)
(0.0226464 0.778045 0)
(0.0105884 0.780957 0)
(-0.00135661 0.781118 0)
(-0.0129268 0.778557 0)
(-0.0217714 0.776936 0)
(-0.0187885 0.794348 0)
(0.00102503 0.846012 0)
(0.0320032 0.869889 0)
(0.0624439 0.910852 0)
(0.0465187 0.924741 0)
(0.067448 0.889808 0)
(0.125111 0.757114 0)
(0.210493 0.75143 0)
(0.225216 0.779071 0)
(0.139758 0.680754 0)
(0.0380596 0.587478 0)
(0.00888875 0.469673 0)
(-0.0472952 0.499955 0)
(-0.0839643 0.680896 0)
(-0.202698 0.76305 0)
(-0.185198 0.761581 0)
(-0.132257 0.720191 0)
(-0.0937068 0.743997 0)
(-0.0553275 0.875753 0)
(-0.0316171 0.947158 0)
(0.0140498 0.883441 0)
(0.0393761 0.843135 0)
(0.0554991 0.83099 0)
(0.0657164 0.802693 0)
(0.0527553 0.794275 0)
(0.0324066 0.795546 0)
(0.0128855 0.796607 0)
(-0.00558489 0.796396 0)
(-0.0245651 0.794981 0)
(-0.0439444 0.793427 0)
(-0.0560401 0.801274 0)
(-0.0448069 0.832013 0)
(-0.0285838 0.846263 0)
(-0.00570469 0.885641 0)
(0.0288164 0.952474 0)
(0.0427043 0.902724 0)
(0.0841782 0.741817 0)
(0.137296 0.713996 0)
(0.199528 0.766809 0)
(0.216993 0.760049 0)
(0.0828001 0.663675 0)
(0.0418304 0.491309 0)
(-0.0735666 0.568066 0)
(-0.142357 0.759261 0)
(-0.165408 0.754999 0)
(-0.0792847 0.707071 0)
(-0.0380652 0.696974 0)
(-0.0417394 0.773069 0)
(-0.0557477 0.894593 0)
(0.00491534 0.906906 0)
(0.0605289 0.869808 0)
(0.0768276 0.854171 0)
(0.0854656 0.843783 0)
(0.0782629 0.826874 0)
(0.0563599 0.820182 0)
(0.0331279 0.818387 0)
(0.0119998 0.817409 0)
(-0.00802673 0.816923 0)
(-0.0287684 0.816975 0)
(-0.0513747 0.818006 0)
(-0.0727502 0.823932 0)
(-0.0790805 0.84152 0)
(-0.0695319 0.854042 0)
(-0.0569551 0.872761 0)
(-0.00922348 0.923024 0)
(0.0547185 0.918789 0)
(0.0470899 0.773911 0)
(0.0455188 0.690681 0)
(0.0907391 0.704024 0)
(0.178555 0.761089 0)
(0.146546 0.749786 0)
(0.070886 0.554809 0)
(-0.103888 0.682075 0)
(-0.109747 0.75391 0)
(-0.0495618 0.694645 0)