/*--------------------------------*- C++ -*----------------------------------*\
| =========                 |                                                 |
| \\      /  F ield         | OpenFOAM: The Open Source CFD Toolbox           |
|  \\    /   O peration     | Version:  v1606+                                |
|   \\  /    A nd           | Web:      www.OpenFOAM.com                      |
|    \\/     M anipulation  |                                                 |
\*---------------------------------------------------------------------------*/
FoamFile
{
    version     2.0;
    format      ascii;
    class       volVectorField;
    location    "0.3";
    object      U.airMean;
}
// * * * * * * * * * * * * * * * * * * * * * * * * * * * * * * * * * * * * * //

dimensions      [0 1 -1 0 0 0 0];

internalField   nonuniform List<vector> 
6000
(
(-0.0251095 0.316654 0)
(-0.0176704 0.286716 0)
(-0.0129264 0.295815 0)
(-0.0108689 0.292789 0)
(-0.00639797 0.294067 0)
(-0.00280142 0.294005 0)
(0.00113583 0.294999 0)
(0.00288219 0.29582 0)
(0.00329361 0.297471 0)
(0.00210374 0.297736 0)
(0.000947175 0.297093 0)
(0.000913175 0.29644 0)
(0.000958981 0.295997 0)
(0.00112291 0.295694 0)
(0.000274723 0.297473 0)
(-0.000733476 0.296189 0)
(-0.000687994 0.295871 0)
(-0.000382422 0.295816 0)
(-3.25486e-07 0.296744 0)
(-0.0010543 0.29757 0)
(-0.00262186 0.297507 0)
(-0.00335395 0.296536 0)
(-0.00278537 0.295409 0)
(-0.000643054 0.294698 0)
(0.00322498 0.294069 0)
(0.00683605 0.294259 0)
(0.0116107 0.292801 0)
(0.0144637 0.295576 0)
(0.0196487 0.286921 0)
(0.0262562 0.317425 0)
(-0.0125599 0.977484 0)
(-0.0335235 0.944857 0)
(-0.0261978 0.949514 0)
(-0.0267756 0.94334 0)
(-0.0188526 0.94108 0)
(-0.0117062 0.93789 0)
(-0.00703072 0.939124 0)
(-0.00435447 0.940255 0)
(-0.0022577 0.941462 0)
(-0.000786686 0.9427 0)
(-4.60656e-05 0.942231 0)
(-0.000109649 0.941532 0)
(-0.000366144 0.942043 0)
(-0.000732885 0.942062 0)
(-0.000211014 0.942609 0)
(0.000579384 0.941803 0)
(0.000575435 0.94192 0)
(0.000329187 0.941292 0)
(0.000113379 0.942002 0)
(0.000692175 0.943027 0)
(0.00162876 0.942769 0)
(0.00254381 0.941854 0)
(0.0039667 0.940549 0)
(0.00679977 0.93873 0)
(0.0119347 0.938213 0)
(0.0196397 0.940267 0)
(0.0284799 0.942709 0)
(0.0288815 0.948472 0)
(0.0355788 0.945726 0)
(0.0133219 0.980521 0)
(-0.0233191 0.881619 0)
(-0.0409653 0.789622 0)
(-0.0335828 0.802836 0)
(-0.0333087 0.788412 0)
(-0.0213413 0.786512 0)
(-0.0120729 0.7894 0)
(-0.0056884 0.796036 0)
(-0.00225707 0.799675 0)
(-0.000655294 0.802932 0)
(-0.000339011 0.804491 0)
(-0.000239735 0.804424 0)
(-0.000765168 0.804367 0)
(-0.00117076 0.804237 0)
(-0.00110505 0.804074 0)
(-0.000293294 0.804078 0)
(0.000577544 0.803883 0)
(0.00102975 0.803722 0)
(0.00103018 0.803952 0)
(0.00043389 0.804227 0)
(0.000446504 0.80456 0)
(0.00061978 0.804631 0)
(0.000728572 0.80305 0)
(0.00211539 0.799736 0)
(0.00565732 0.794759 0)
(0.0126667 0.7888 0)
(0.0224629 0.78506 0)
(0.0352222 0.786554 0)
(0.0362348 0.801196 0)
(0.0427037 0.792032 0)
(0.0237099 0.885589 0)
(-0.00810383 0.922613 0)
(-0.0324316 0.817818 0)
(-0.0400948 0.829773 0)
(-0.0378365 0.808025 0)
(-0.0271381 0.803295 0)
(-0.0165491 0.80554 0)
(-0.00742404 0.813696 0)
(-0.00213907 0.819762 0)
(-0.000440372 0.825278 0)
(-0.0008555 0.828348 0)
(-0.00175674 0.829373 0)
(-0.00257728 0.829785 0)
(-0.00289737 0.829234 0)
(-0.00236695 0.828552 0)
(-0.000843023 0.827869 0)
(0.00102744 0.828093 0)
(0.00241877 0.828293 0)
(0.00287319 0.829283 0)
(0.0023508 0.829688 0)
(0.00156437 0.829277 0)
(0.000646515 0.828515 0)
(0.000312387 0.825584 0)
(0.00231116 0.820018 0)
(0.0077385 0.812499 0)
(0.017436 0.804707 0)
(0.0288707 0.801504 0)
(0.0400826 0.805969 0)
(0.0424728 0.828531 0)
(0.0339407 0.820935 0)
(0.00852557 0.927186 0)
(-0.00536469 0.929089 0)
(-0.0383684 0.83205 0)
(-0.049139 0.827118 0)
(-0.0415133 0.79694 0)
(-0.0287886 0.790272 0)
(-0.0156682 0.79376 0)
(-0.00443066 0.804217 0)
(0.0024617 0.813703 0)
(0.00509151 0.821011 0)
(0.00536156 0.82463 0)
(0.00420011 0.824965 0)
(0.00189319 0.82465 0)
(-0.00021356 0.823481 0)
(-0.00094653 0.821793 0)
(-0.000466532 0.820327 0)
(0.000545559 0.820552 0)
(0.000907639 0.821558 0)
(5.13803e-05 0.823538 0)
(-0.00221798 0.824665 0)
(-0.00457042 0.825036 0)
(-0.00574502 0.824843 0)
(-0.00532871 0.821097 0)
(-0.00211937 0.813556 0)
(0.0050617 0.802865 0)
(0.0167971 0.792157 0)
(0.0307126 0.787994 0)
(0.0437653 0.79459 0)
(0.0514361 0.82619 0)
(0.040378 0.836216 0)
(0.00609293 0.934066 0)
(-0.0114054 0.940112 0)
(-0.0502129 0.836542 0)
(-0.0559189 0.806333 0)
(-0.0441895 0.77113 0)
(-0.0270545 0.764426 0)
(-0.00901009 0.771322 0)
(0.00567622 0.786652 0)
(0.0141262 0.802988 0)
(0.0170529 0.81548 0)
(0.017143 0.823185 0)
(0.0148644 0.82778 0)
(0.0110677 0.831185 0)
(0.00723403 0.829273 0)
(0.00389809 0.826626 0)
(0.0012078 0.82435 0)
(-0.00124222 0.824721 0)
(-0.00412626 0.826577 0)
(-0.00762603 0.829522 0)
(-0.0116069 0.831277 0)
(-0.01531 0.827598 0)
(-0.0174576 0.823247 0)
(-0.0172406 0.815149 0)
(-0.0138175 0.802248 0)
(-0.00499492 0.785123 0)
(0.0101588 0.76907 0)
(0.0288147 0.761829 0)
(0.0461679 0.768603 0)
(0.0576331 0.805136 0)
(0.0520285 0.840378 0)
(0.0123421 0.946803 0)
(-0.0138637 0.963584 0)
(-0.0578643 0.847861 0)
(-0.064137 0.793547 0)
(-0.053117 0.749513 0)
(-0.0323526 0.739363 0)
(-0.00799107 0.747897 0)
(0.0131502 0.767765 0)
(0.0261487 0.790499 0)
(0.030642 0.80708 0)
(0.0299395 0.817472 0)
(0.0261326 0.823649 0)
(0.0209611 0.826539 0)
(0.0154874 0.826279 0)
(0.00933455 0.824637 0)
(0.00304231 0.822822 0)
(-0.00330659 0.823284 0)
(-0.00971088 0.824704 0)
(-0.0159583 0.826597 0)
(-0.0215326 0.826621 0)
(-0.026615 0.823485 0)
(-0.0302854 0.817547 0)
(-0.0308379 0.806771 0)
(-0.0259227 0.789447 0)
(-0.0123991 0.766072 0)
(0.00935522 0.745286 0)
(0.0342763 0.736507 0)
(0.0551341 0.747028 0)
(0.065498 0.7927 0)
(0.0587415 0.851725 0)
(0.0142502 0.971178 0)
(-0.0155085 0.988334 0)
(-0.0628663 0.862035 0)
(-0.0726996 0.781879 0)
(-0.0662422 0.725903 0)
(-0.0445238 0.709223 0)
(-0.0153419 0.717149 0)
(0.0138949 0.7421 0)
(0.0355189 0.773307 0)
(0.0449021 0.797202 0)
(0.0447887 0.811715 0)
(0.0397512 0.82056 0)
(0.0322338 0.824494 0)
(0.0237246 0.825121 0)
(0.0144358 0.824081 0)
(0.00470925 0.822548 0)
(-0.0051497 0.82299 0)
(-0.0148622 0.824153 0)
(-0.024188 0.825471 0)
(-0.0327749 0.824585 0)
(-0.040318 0.820355 0)
(-0.0452603 0.811653 0)
(-0.0450872 0.796596 0)
(-0.0351716 0.771791 0)
(-0.0126448 0.739773 0)
(0.0169972 0.714178 0)
(0.0462253 0.705964 0)
(0.0678266 0.723411 0)
(0.0733126 0.781482 0)
(0.0627837 0.866282 0)
(0.0152374 0.996147 0)
(-0.0168925 1.01088 0)
(-0.063764 0.869748 0)
(-0.0782566 0.764362 0)
(-0.0790431 0.693378 0)
(-0.0603431 0.66941 0)
(-0.0311916 0.675339 0)
(0.00226372 0.703613 0)
(0.0334432 0.74299 0)
(0.0515709 0.778004 0)
(0.0552587 0.798716 0)
(0.0505002 0.810763 0)
(0.0415805 0.816361 0)
(0.0307853 0.818147 0)
(0.0188785 0.817765 0)
(0.00619097 0.816661 0)
(-0.00673172 0.816994 0)
(-0.0193278 0.817838 0)
(-0.0312129 0.818468 0)
(-0.042009 0.816481 0)
(-0.0510469 0.810558 0)
(-0.0557461 0.798325 0)
(-0.0516235 0.776951 0)
(-0.0327162 0.740682 0)
(-0.000205972 0.70026 0)
(0.0330289 0.671883 0)
(0.0614768 0.665529 0)
(0.0799402 0.690647 0)
(0.078064 0.764213 0)
(0.0628951 0.873916 0)
(0.0163122 1.01807 0)
(-0.0165687 1.03042 0)
(-0.0610514 0.876733 0)
(-0.0803374 0.753899 0)
(-0.0906459 0.667819 0)
(-0.0783192 0.633889 0)
(-0.0494703 0.638276 0)
(-0.0144932 0.658929 0)
(0.0180597 0.703374 0)
(0.0437935 0.749614 0)
(0.0552131 0.780386 0)
(0.0546271 0.798472 0)
(0.0463943 0.806833 0)
(0.0345077 0.809962 0)
(0.0212011 0.810648 0)
(0.00695575 0.810259 0)
(-0.00756765 0.810466 0)
(-0.0216998 0.810716 0)
(-0.0349343 0.81029 0)
(-0.0467679 0.807016 0)
(-0.0551061 0.79843 0)
(-0.0556035 0.779807 0)
(-0.0437168 0.74806 0)
(-0.0175111 0.700431 0)
(0.0157496 0.655087 0)
(0.0524369 0.638658 0)
(0.0805713 0.63075 0)
(0.0916084 0.666046 0)
(0.0796232 0.754694 0)
(0.0597904 0.880998 0)
(0.0160149 1.03687 0)
(-0.0125677 1.05127 0)
(-0.0523551 0.888421 0)
(-0.0742285 0.756313 0)
(-0.0926014 0.654239 0)
(-0.0872957 0.60246 0)
(-0.0633539 0.59908 0)
(-0.0287419 0.629915 0)
(0.00216241 0.668834 0)
(0.0265772 0.721405 0)
(0.0438143 0.762388 0)
(0.0494476 0.789844 0)
(0.0449631 0.804367 0)
(0.0339524 0.809836 0)
(0.0208085 0.811477 0)
(0.00684662 0.81159 0)
(-0.00734488 0.81165 0)
(-0.0212121 0.811482 0)
(-0.0342381 0.80994 0)
(-0.0452006 0.804509 0)
(-0.0497666 0.789657 0)
(-0.0440858 0.761491 0)
(-0.0266066 0.719451 0)
(-0.00214963 0.665944 0)
(0.0284347 0.624572 0)
(0.0642203 0.594803 0)
(0.0885278 0.598958 0)
(0.0925893 0.653558 0)
(0.0728698 0.757803 0)
(0.0508722 0.892208 0)
(0.0119563 1.05684 0)
(-0.00699074 1.07244 0)
(-0.0337438 0.901168 0)
(-0.0478037 0.764546 0)
(-0.0675452 0.648893 0)
(-0.0689619 0.580894 0)
(-0.0563038 0.565768 0)
(-0.029368 0.592079 0)
(-0.00597851 0.649014 0)
(0.0105891 0.697855 0)
(0.0250767 0.745255 0)
(0.0339902 0.780134 0)
(0.0355009 0.803527 0)
(0.0286208 0.813321 0)
(0.0177281 0.816365 0)
(0.00586309 0.817038 0)
(-0.00622328 0.817053 0)
(-0.0180173 0.816346 0)
(-0.0288201 0.813387 0)
(-0.0356783 0.803803 0)
(-0.0342162 0.780088 0)
(-0.0253696 0.744476 0)
(-0.0109736 0.695961 0)
(0.00606785 0.646858 0)
(0.0294568 0.587149 0)
(0.0561164 0.561713 0)
(0.0682646 0.578508 0)
(0.0658719 0.64896 0)
(0.0456502 0.766475 0)
(0.0322365 0.904553 0)
(0.00640412 1.07714 0)
(0.00276607 1.08279 0)
(-0.00568213 0.906122 0)
(-0.00784242 0.775494 0)
(-0.0269688 0.654633 0)
(-0.0369311 0.576641 0)
(-0.0371716 0.55332 0)
(-0.0244363 0.573749 0)
(-0.00953639 0.640424 0)
(0.00169073 0.691658 0)
(0.00886043 0.740572 0)
(0.0163324 0.778015 0)
(0.0214356 0.807331 0)
(0.0202573 0.82404 0)
(0.0132892 0.829542 0)
(0.00443543 0.830883 0)
(-0.00473993 0.830841 0)
(-0.0135325 0.829431 0)
(-0.0204525 0.824001 0)
(-0.0215835 0.807531 0)
(-0.0164281 0.777946 0)
(-0.00898837 0.739873 0)
(-0.00203793 0.689716 0)
(0.00960532 0.63671 0)
(0.02459 0.569271 0)
(0.0365636 0.54994 0)
(0.0353152 0.574956 0)
(0.0245132 0.655134 0)
(0.00539772 0.777203 0)
(0.00420686 0.908691 0)
(-0.00327281 1.08684 0)
(0.0121142 1.08339 0)
(0.0183206 0.903409 0)
(0.0278773 0.784684 0)
(0.0127194 0.665994 0)
(-0.00362631 0.583339 0)
(-0.0148494 0.553144 0)
(-0.0152224 0.56806 0)
(-0.00905849 0.634225 0)
(-0.00303846 0.693585 0)
(-0.00172122 0.742074 0)
(0.00264799 0.779659 0)
(0.0074571 0.81094 0)
(0.00998666 0.833089 0)
(0.00771028 0.842512 0)
(0.00263712 0.845144 0)
(-0.00293152 0.845063 0)
(-0.00795694 0.842312 0)
(-0.0101752 0.832973 0)
(-0.00750185 0.810965 0)
(-0.00253424 0.779425 0)
(0.0019154 0.741297 0)
(0.00311049 0.691759 0)
(0.00904236 0.630376 0)
(0.0147956 0.563894 0)
(0.0137023 0.550133 0)
(0.00155334 0.582445 0)
(-0.0153969 0.66671 0)
(-0.0302054 0.785982 0)
(-0.0196561 0.905225 0)
(-0.0125916 1.08665 0)
(0.0190377 1.07037 0)
(0.035173 0.890758 0)
(0.0550873 0.786497 0)
(0.0456104 0.677615 0)
(0.0258612 0.597109 0)
(0.00625918 0.562976 0)
(-0.00497986 0.572034 0)
(-0.00877022 0.635172 0)
(-0.00905026 0.702117 0)
(-0.011201 0.747566 0)
(-0.00948587 0.784221 0)
(-0.00625117 0.815323 0)
(-0.00211066 0.839384 0)
(0.000218117 0.852148 0)
(0.000154446 0.856061 0)
(-0.000579909 0.855909 0)
(-0.00062826 0.851878 0)
(0.00178656 0.839104 0)
(0.00610511 0.815084 0)
(0.00951919 0.783846 0)
(0.0113283 0.746711 0)
(0.00915468 0.700614 0)
(0.00862281 0.631667 0)
(0.00422088 0.568533 0)
(-0.00782719 0.56073 0)
(-0.0281399 0.596915 0)
(-0.0481641 0.678391 0)
(-0.0571027 0.787318 0)
(-0.0362672 0.891909 0)
(-0.0193827 1.0731 0)
(0.0239761 1.04893 0)
(0.0458181 0.872371 0)
(0.073532 0.782553 0)
(0.0695326 0.68952 0)
(0.0490303 0.617411 0)
(0.023653 0.582186 0)
(0.00297138 0.586817 0)
(-0.0102377 0.644342 0)
(-0.0158694 0.713352 0)
(-0.0197022 0.75514 0)
(-0.0199503 0.79016 0)
(-0.0179262 0.820069 0)
(-0.0133504 0.843418 0)
(-0.00770167 0.857552 0)
(-0.00273561 0.862721 0)
(0.00181575 0.862644 0)
(0.00682624 0.857188 0)
(0.0126318 0.842965 0)
(0.017423 0.819632 0)
(0.0196703 0.789623 0)
(0.0195511 0.754262 0)
(0.0158417 0.711819 0)
(0.00997912 0.641179 0)
(-0.00386679 0.583925 0)
(-0.0252228 0.580656 0)
(-0.051107 0.617681 0)
(-0.0716018 0.690227 0)
(-0.0751136 0.782916 0)
(-0.0467466 0.872996 0)
(-0.0243597 1.05124 0)
(0.0282504 1.02416 0)
(0.0526073 0.850497 0)
(0.0846963 0.776005 0)
(0.0836107 0.701085 0)
(0.0641055 0.641961 0)
(0.0358668 0.608861 0)
(0.00911765 0.609698 0)
(-0.010414 0.659797 0)
(-0.0196132 0.726142 0)
(-0.023938 0.764513 0)
(-0.0256491 0.797634 0)
(-0.0241984 0.825723 0)
(-0.0197162 0.847344 0)
(-0.0126929 0.860754 0)
(-0.00469855 0.866179 0)
(0.00339724 0.866094 0)
(0.0114745 0.86029 0)
(0.0186456 0.846726 0)
(0.0233311 0.825127 0)
(0.024985 0.796955 0)
(0.0234108 0.763503 0)
(0.0193308 0.724568 0)
(0.0100115 0.65709 0)
(-0.0100097 0.607373 0)
(-0.0372431 0.607876 0)
(-0.0656615 0.642449 0)
(-0.084915 0.70174 0)
(-0.0857659 0.776194 0)
(-0.0533957 0.850896 0)
(-0.0286513 1.02606 0)
(0.0325711 0.995817 0)
(0.0586507 0.829444 0)
(0.0894629 0.769399 0)
(0.0894742 0.713678 0)
(0.0717985 0.668423 0)
(0.04393 0.638916 0)
(0.0138556 0.637635 0)
(-0.0104866 0.679277 0)
(-0.0220756 0.736978 0)
(-0.0264302 0.773826 0)
(-0.0286511 0.804629 0)
(-0.0270644 0.830657 0)
(-0.0223847 0.849983 0)
(-0.0148228 0.861752 0)
(-0.00558242 0.866365 0)
(0.00410889 0.86612 0)
(0.0134127 0.861244 0)
(0.0210889 0.849259 0)
(0.0259235 0.829953 0)
(0.0276643 0.803861 0)
(0.0255555 0.772736 0)
(0.0214171 0.735109 0)
(0.00984061 0.676821 0)
(-0.0147794 0.635671 0)
(-0.0450486 0.638299 0)
(-0.0727911 0.668845 0)
(-0.090073 0.714288 0)
(-0.0899162 0.7697 0)
(-0.0593335 0.829912 0)
(-0.0329636 0.997363 0)
(0.0374407 0.962964 0)
(0.064815 0.811623 0)
(0.0896957 0.765753 0)
(0.089146 0.727216 0)
(0.0730558 0.694556 0)
(0.0457438 0.670122 0)
(0.0129375 0.668055 0)
(-0.0131277 0.700299 0)
(-0.0247405 0.746994 0)
(-0.0278539 0.782408 0)
(-0.0291554 0.810745 0)
(-0.0269898 0.834823 0)
(-0.021992 0.85208 0)
(-0.0144728 0.862188 0)
(-0.00543477 0.866146 0)
(0.00401845 0.865924 0)
(0.013066 0.861615 0)
(0.0206233 0.851238 0)
(0.0256856 0.83404 0)
(0.0279069 0.809906 0)
(0.0266503 0.781295 0)
(0.0236767 0.744984 0)
(0.0122134 0.697903 0)
(-0.0136945 0.66616 0)
(-0.0465434 0.669414 0)
(-0.0736137 0.694688 0)
(-0.0892316 0.727727 0)
(-0.0897154 0.766289 0)
(-0.0651799 0.812373 0)
(-0.037791 0.964212 0)
(0.0425952 0.924401 0)
(0.0692504 0.79986 0)
(0.0868878 0.766288 0)
(0.0844483 0.741277 0)
(0.0688914 0.718792 0)
(0.0399268 0.700897 0)
(0.00515587 0.697193 0)
(-0.017399 0.718875 0)
(-0.0258646 0.754293 0)
(-0.0264128 0.789009 0)
(-0.0261366 0.815877 0)
(-0.023774 0.838314 0)
(-0.0189568 0.854068 0)
(-0.0122471 0.863 0)
(-0.00453804 0.866503 0)
(0.00340814 0.866296 0)
(0.0110774 0.8625 0)
(0.0177178 0.853283 0)
(0.0224791 0.837589 0)
(0.0247828 0.815119 0)
(0.0250297 0.787995 0)
(0.0244702 0.752257 0)
(0.0160188 0.716378 0)
(-0.00611266 0.695359 0)
(-0.0406434 0.700203 0)
(-0.0694343 0.718556 0)
(-0.0843511 0.741553 0)
(-0.0865167 0.767036 0)
(-0.0692373 0.800968 0)
(-0.0427625 0.925429 0)
(0.0438079 0.880761 0)
(0.0689181 0.793028 0)
(0.0800273 0.770084 0)
(0.0740843 0.75532 0)
(0.0569747 0.740377 0)
(0.0253065 0.730876 0)
(-0.00486877 0.721647 0)
(-0.0175644 0.731258 0)
(-0.0216452 0.758687 0)
(-0.0203825 0.792905 0)
(-0.0192304 0.820915 0)
(-0.0174845 0.842328 0)
(-0.0137573 0.856955 0)
(-0.00872711 0.865226 0)
(-0.00317283 0.86857 0)
(0.00243177 0.868378 0)
(0.00790925 0.864796 0)
(0.0128007 0.856262 0)
(0.0163698 0.841689 0)
(0.018005 0.82028 0)
(0.0190592 0.791924 0)
(0.0200181 0.756964 0)
(0.0156271 0.728807 0)
(0.00297546 0.719503 0)
(-0.0255308 0.729887 0)
(-0.0569418 0.740099 0)
(-0.0737965 0.755019 0)
(-0.0792677 0.770914 0)
(-0.0685356 0.794587 0)
(-0.0436794 0.881907 0)
(0.0384335 0.838463 0)
(0.0652296 0.789876 0)
(0.0665872 0.776509 0)
(0.055377 0.769304 0)
(0.0322523 0.761231 0)
(0.0080775 0.756473 0)
(-0.00308484 0.735105 0)
(-0.00755573 0.73751 0)
(-0.00979516 0.762854 0)
(-0.0101637 0.796806 0)
(-0.00993655 0.826864 0)
(-0.00916033 0.847455 0)
(-0.00725259 0.861215 0)
(-0.00454739 0.869199 0)
(-0.00160477 0.87255 0)
(0.00128596 0.872446 0)
(0.00414978 0.868878 0)
(0.0066722 0.860733 0)
(0.00840272 0.847011 0)
(0.00907239 0.826319 0)
(0.00909856 0.796162 0)
(0.00817379 0.761757 0)
(0.00518766 0.735619 0)
(0.000208589 0.73237 0)
(-0.00909896 0.753996 0)
(-0.031439 0.761171 0)
(-0.0551325 0.768776 0)
(-0.0657907 0.777219 0)
(-0.0644227 0.79179 0)
(-0.0381492 0.839845 0)
(0.0338667 0.798575 0)
(0.0507348 0.787811 0)
(0.045838 0.786527 0)
(0.0299455 0.786455 0)
(0.00802153 0.778306 0)
(0.00744176 0.761746 0)
(0.0135257 0.738503 0)
(0.0114766 0.74371 0)
(0.00678883 0.770599 0)
(0.00228198 0.80403 0)
(-0.00017957 0.832923 0)
(-0.000958394 0.853962 0)
(-0.000910896 0.867771 0)
(-0.000476095 0.875632 0)
(-8.54204e-05 0.879127 0)
(0.000190014 0.879025 0)
(0.000506165 0.875421 0)
(0.000796391 0.867519 0)
(0.000706526 0.853552 0)
(-0.000201606 0.832564 0)
(-0.00289828 0.803715 0)
(-0.00797638 0.770185 0)
(-0.0136152 0.742782 0)
(-0.0164916 0.735927 0)
(-0.0105766 0.757198 0)
(-0.00877993 0.777559 0)
(-0.029567 0.786097 0)
(-0.0458086 0.786852 0)
(-0.0495815 0.789799 0)
(-0.0335161 0.800608 0)
(0.022407 0.766986 0)
(0.0271203 0.793273 0)
(0.0187059 0.795947 0)
(0.0056085 0.797742 0)
(0.00637884 0.780993 0)
(0.0265402 0.751003 0)
(0.0367371 0.740771 0)
(0.0323758 0.754352 0)
(0.023134 0.78294 0)
(0.014768 0.814769 0)
(0.00945138 0.841569 0)
(0.0064823 0.861216 0)
(0.00463675 0.874574 0)
(0.00301703 0.882668 0)
(0.00122574 0.88639 0)
(-0.000696182 0.886323 0)
(-0.00256321 0.882523 0)
(-0.00428266 0.874341 0)
(-0.00626186 0.860964 0)
(-0.00939818 0.841352 0)
(-0.0149295 0.814662 0)
(-0.0237014 0.783001 0)
(-0.0336668 0.754238 0)
(-0.0388685 0.739216 0)
(-0.0305785 0.746712 0)
(-0.00970976 0.77799 0)
(-0.00640149 0.796932 0)
(-0.0181196 0.795197 0)
(-0.0267945 0.79527 0)
(-0.0216694 0.769471 0)
(0.00417058 0.749002 0)
(0.00684327 0.804527 0)
(-0.00735605 0.802126 0)
(0.00222173 0.794777 0)
(0.0308098 0.763764 0)
(0.0554845 0.740371 0)
(0.0583418 0.748429 0)
(0.0491972 0.769293 0)
(0.0362539 0.79805 0)
(0.0256181 0.827463 0)
(0.0183213 0.85198 0)
(0.0132263 0.870286 0)
(0.00923369 0.883046 0)
(0.00566429 0.890997 0)
(0.00219782 0.894719 0)
(-0.00127665 0.894686 0)
(-0.00480019 0.890933 0)
(-0.00846992 0.882917 0)
(-0.0126064 0.870149 0)
(-0.0178895 0.851862 0)
(-0.0254062 0.827476 0)
(-0.0362926 0.798324 0)
(-0.0495686 0.769547 0)
(-0.059519 0.747814 0)
(-0.0582529 0.738371 0)
(-0.0355981 0.758747 0)
(-0.00525019 0.792449 0)
(0.00672698 0.800728 0)
(-0.00691182 0.806434 0)
(-0.00367731 0.752207 0)
(-0.0119554 0.751586 0)
(-0.0128918 0.816299 0)
(-0.0121641 0.793119 0)
(0.0293125 0.772638 0)
(0.0671849 0.740018 0)
(0.078732 0.742403 0)
(0.0737661 0.761251 0)
(0.0605463 0.785951 0)
(0.0461106 0.813723 0)
(0.0340905 0.840648 0)
(0.0248833 0.863144 0)
(0.0176066 0.880144 0)
(0.0116395 0.89201 0)
(0.00670964 0.899376 0)
(0.00253071 0.902813 0)
(-0.00137867 0.902806 0)
(-0.00559811 0.899338 0)
(-0.0105996 0.891945 0)
(-0.0166984 0.880078 0)
(-0.0241769 0.863133 0)
(-0.033595 0.840746 0)
(-0.0457888 0.814093 0)
(-0.0603537 0.786297 0)
(-0.0740127 0.761164 0)
(-0.0801004 0.741752 0)
(-0.0704343 0.737459 0)
(-0.0343974 0.768226 0)
(0.00939775 0.790343 0)
(0.0120273 0.817351 0)
(0.0121322 0.755029 0)
(-0.0222724 0.77272 0)
(-0.0135171 0.812637 0)
(0.0186209 0.764652 0)
(0.0702536 0.739863 0)
(0.0911504 0.737185 0)
(0.091869 0.752535 0)
(0.0815131 0.776137 0)
(0.0672699 0.802363 0)
(0.0524665 0.829015 0)
(0.0389607 0.853963 0)
(0.0273445 0.874684 0)
(0.0177219 0.890069 0)
(0.0103066 0.900374 0)
(0.00522396 0.906469 0)
(0.00192709 0.90921 0)
(-0.000734702 0.909215 0)
(-0.00402644 0.906414 0)
(-0.00910336 0.900313 0)
(-0.0165926 0.890045 0)
(-0.0263782 0.874784 0)
(-0.0381791 0.854131 0)
(-0.0518065 0.829445 0)
(-0.0666717 0.80269 0)
(-0.0810577 0.776326 0)
(-0.0919491 0.752513 0)
(-0.0925565 0.736368 0)
(-0.0733515 0.737424 0)
(-0.0238946 0.760918 0)
(0.010877 0.811493 0)
(0.0223251 0.776371 0)
(-0.0188615 0.796749 0)
(0.0126645 0.780808 0)
(0.0644035 0.73235 0)
(0.0925297 0.731854 0)
(0.100947 0.742999 0)
(0.09561 0.764526 0)
(0.0842515 0.790649 0)
(0.070056 0.81781 0)
(0.0543571 0.844056 0)
(0.0383939 0.867729 0)
(0.0236996 0.886381 0)
(0.0119856 0.899181 0)
(0.00446129 0.906814 0)
(0.00109059 0.9107 0)
(0.000455936 0.912232 0)
(0.000710578 0.912257 0)
(0.000143998 0.910539 0)
(-0.00312138 0.906701 0)
(-0.0106166 0.899115 0)
(-0.0224064 0.88655 0)
(-0.0372692 0.86795 0)
(-0.0533316 0.844534 0)
(-0.0690839 0.81812 0)
(-0.0833692 0.790904 0)
(-0.0949262 0.764689 0)
(-0.100858 0.742848 0)
(-0.09388 0.730988 0)
(-0.0675321 0.730737 0)
(-0.0167881 0.777273 0)
(0.0171152 0.799113 0)
(0.00756585 0.803933 0)
(0.0462184 0.741352 0)
(0.0862659 0.721662 0)
(0.100148 0.730993 0)
(0.101491 0.749804 0)
(0.0951993 0.775442 0)
(0.0840988 0.803957 0)
(0.0689278 0.832857 0)
(0.0505908 0.859584 0)
(0.0305162 0.882445 0)
(0.0123232 0.897689 0)
(5.4873e-05 0.906178 0)
(-0.00498269 0.909456 0)
(-0.0045428 0.910304 0)
(-0.00142204 0.910438 0)
(0.00252718 0.910463 0)
(0.00572628 0.909976 0)
(0.0063119 0.909196 0)
(0.00145122 0.905952 0)
(-0.0107485 0.897847 0)
(-0.0290164 0.882687 0)
(-0.0491984 0.860092 0)
(-0.0676673 0.833218 0)
(-0.0829891 0.804255 0)
(-0.0942446 0.775649 0)
(-0.100773 0.749862 0)
(-0.100119 0.730647 0)
(-0.0874102 0.721056 0)
(-0.0484712 0.739858 0)
(-0.010381 0.8033 0)
(0.0278782 0.778965 0)
(0.061987 0.720191 0)
(0.0896304 0.714617 0)
(0.0985242 0.730792 0)
(0.099222 0.75496 0)
(0.0935184 0.784536 0)
(0.0814698 0.816612 0)
(0.0629508 0.848394 0)
(0.0396515 0.875847 0)
(0.0138672 0.89835 0)
(-0.00704284 0.907251 0)
(-0.0159183 0.909013 0)
(-0.0154051 0.906766 0)
(-0.0101477 0.905125 0)
(-0.00319638 0.904333 0)
(0.00421573 0.904325 0)
(0.0112054 0.904677 0)
(0.0165319 0.906292 0)
(0.0172971 0.908514 0)
(0.00878696 0.907293 0)
(-0.011897 0.89851 0)
(-0.0377821 0.87643 0)
(-0.0613952 0.84886 0)
(-0.0801869 0.817012 0)
(-0.0924515 0.784813 0)
(-0.0983095 0.755104 0)
(-0.0978192 0.730727 0)
(-0.0893777 0.71426 0)
(-0.062758 0.719193 0)
(-0.0288214 0.777007 0)
(0.032515 0.74946 0)
(0.0644005 0.700035 0)
(0.0851943 0.706332 0)
(0.094528 0.728792 0)
(0.0964734 0.757743 0)
(0.090081 0.792261 0)
(0.0742738 0.829194 0)
(0.04895 0.864476 0)
(0.0187772 0.891685 0)
(-0.0119459 0.913862 0)
(-0.0307846 0.911648 0)
(-0.0310448 0.904769 0)
(-0.024219 0.898484 0)
(-0.0145055 0.895947 0)
(-0.0044941 0.895063 0)
(0.00546718 0.89502 0)
(0.015436 0.895515 0)
(0.0250839 0.897928 0)
(0.0320908 0.903985 0)
(0.0322991 0.911247 0)
(0.0143651 0.913722 0)
(-0.0163397 0.892426 0)
(-0.0469338 0.86509 0)
(-0.0727143 0.829756 0)
(-0.0888761 0.792652 0)
(-0.0954956 0.75793 0)
(-0.0936589 0.728768 0)
(-0.084398 0.706065 0)
(-0.0640792 0.699197 0)
(-0.0324368 0.746943 0)
(0.0307794 0.710487 0)
(0.0609601 0.680547 0)
(0.0797305 0.696464 0)
(0.0905292 0.72421 0)
(0.0918667 0.758825 0)
(0.080916 0.800029 0)
(0.0569491 0.842591 0)
(0.0220788 0.881152 0)
(-0.0132081 0.906473 0)
(-0.0404214 0.924419 0)
(-0.0482074 0.906295 0)
(-0.0404862 0.893408 0)
(-0.0288143 0.886186 0)
(-0.016445 0.884496 0)
(-0.00497752 0.88437 0)
(0.00603897 0.884327 0)
(0.0173753 0.88422 0)
(0.0295506 0.885752 0)
(0.0412162 0.892523 0)
(0.0491839 0.905335 0)
(0.0424856 0.923597 0)
(0.0160188 0.907279 0)
(-0.0193791 0.881976 0)
(-0.0549257 0.843422 0)
(-0.0794451 0.80056 0)
(-0.0907558 0.759115 0)
(-0.0896728 0.724151 0)
(-0.0788974 0.696163 0)
(-0.0601734 0.679755 0)
(-0.0302214 0.707802 0)
(0.0269266 0.671297 0)
(0.0555816 0.661411 0)
(0.0749576 0.685143 0)
(0.084449 0.717792 0)
(0.0802675 0.760642 0)
(0.0600593 0.81017 0)
(0.0241727 0.858772 0)
(-0.0164984 0.898582 0)
(-0.0461154 0.915551 0)
(-0.0575367 0.92213 0)
(-0.0523112 0.893699 0)
(-0.0411698 0.878341 0)
(-0.0278251 0.872597 0)
(-0.0154018 0.872786 0)
(-0.00447721 0.873819 0)
(0.00578577 0.87382 0)
(0.0165296 0.872726 0)
(0.0286719 0.872399 0)
(0.0417929 0.877641 0)
(0.0529421 0.892554 0)
(0.0587102 0.920495 0)
(0.0485428 0.915748 0)
(0.0195016 0.899678 0)
(-0.0214154 0.859932 0)
(-0.058075 0.810988 0)
(-0.0789859 0.761114 0)
(-0.0835523 0.717767 0)
(-0.0742352 0.684712 0)
(-0.0548272 0.660594 0)
(-0.0263578 0.668975 0)
(0.0229739 0.63468 0)
(0.0507186 0.642679 0)
(0.0682348 0.672374 0)
(0.0714471 0.71303 0)
(0.0570137 0.76556 0)
(0.023435 0.825312 0)
(-0.0212397 0.878403 0)
(-0.0547009 0.910523 0)
(-0.0658022 0.913476 0)
(-0.0582176 0.907404 0)
(-0.0443264 0.879886 0)
(-0.033536 0.863647 0)
(-0.0216759 0.860377 0)
(-0.0115579 0.862771 0)
(-0.00305838 0.865048 0)
(0.00473719 0.865125 0)
(0.0130393 0.862948 0)
(0.0228201 0.860494 0)
(0.034296 0.863267 0)
(0.0449924 0.878723 0)
(0.0588686 0.905798 0)
(0.0669006 0.912763 0)
(0.057167 0.91117 0)
(0.0242518 0.879879 0)
(-0.0207021 0.826662 0)
(-0.0553678 0.766432 0)
(-0.0703161 0.713141 0)
(-0.0674556 0.671852 0)
(-0.0501718 0.641829 0)
(-0.0225324 0.632816 0)
(0.0196402 0.601916 0)
(0.0444402 0.624022 0)
(0.0547928 0.661295 0)
(0.0475547 0.712655 0)
(0.0185364 0.778448 0)
(-0.0260988 0.84713 0)
(-0.0639409 0.894778 0)
(-0.0767875 0.910228 0)
(-0.0676844 0.89992 0)
(-0.0461285 0.887912 0)
(-0.0290442 0.868343 0)
(-0.0203006 0.852007 0)
(-0.0119952 0.851449 0)
(-0.00581279 0.855904 0)
(-0.00104121 0.85934 0)
(0.00316195 0.859494 0)
(0.00775225 0.856317 0)
(0.0135889 0.851925 0)
(0.0214479 0.852028 0)
(0.0299459 0.867153 0)
(0.0465307 0.886957 0)
(0.0677963 0.898977 0)
(0.0779044 0.910044 0)
(0.0664689 0.895873 0)
(0.0289585 0.849076 0)
(-0.0163465 0.779763 0)
(-0.0462232 0.713036 0)
(-0.0538497 0.660929 0)
(-0.0438581 0.623123 0)
(-0.0193925 0.600445 0)
(0.0157537 0.572676 0)
(0.0325014 0.608185 0)
(0.0310941 0.654715 0)
(0.0111767 0.721361 0)
(-0.0304739 0.800357 0)
(-0.0708441 0.866351 0)
(-0.0873107 0.897993 0)
(-0.0784454 0.898226 0)
(-0.0540047 0.880645 0)
(-0.0279717 0.868393 0)
(-0.0114767 0.859388 0)
(-0.00461049 0.844962 0)
(-0.00108112 0.846919 0)
(0.000546906 0.852998 0)
(0.00116197 0.857201 0)
(0.00142115 0.857408 0)
(0.00190224 0.853606 0)
(0.00324993 0.84772 0)
(0.0064107 0.845385 0)
(0.0126397 0.858535 0)
(0.0282594 0.868207 0)
(0.0534323 0.879838 0)
(0.0783661 0.897385 0)
(0.0883477 0.898408 0)
(0.0730292 0.868497 0)
(0.0327906 0.802361 0)
(-0.00956603 0.72232 0)
(-0.0301281 0.654453 0)
(-0.0317834 0.60751 0)
(-0.0154757 0.571399 0)
(0.00782953 0.54881 0)
(0.0136787 0.601974 0)
(-0.000824543 0.658336 0)
(-0.0339655 0.739463 0)
(-0.0740884 0.82279 0)
(-0.0940533 0.873566 0)
(-0.0872539 0.888008 0)
(-0.0610725 0.878013 0)
(-0.0305671 0.859223 0)
(-0.00786883 0.853054 0)
(0.00567315 0.852242 0)
(0.0100094 0.842803 0)
(0.00894085 0.846856 0)
(0.00632552 0.853895 0)
(0.00315283 0.858409 0)
(-0.000148579 0.858644 0)
(-0.00338778 0.854626 0)
(-0.00618128 0.847876 0)
(-0.00754231 0.843563 0)
(-0.00400909 0.852178 0)
(0.00845456 0.853643 0)
(0.03006 0.859131 0)
(0.0598379 0.876965 0)
(0.0867561 0.887849 0)
(0.0946378 0.875176 0)
(0.0756631 0.824866 0)
(0.0354102 0.741389 0)
(0.00175836 0.658302 0)
(-0.0131 0.601539 0)
(-0.00746483 0.547735 0)
(-0.00422967 0.536678 0)
(-0.00789696 0.606952 0)
(-0.0398825 0.67223 0)
(-0.0742539 0.763725 0)
(-0.0977809 0.830889 0)
(-0.0905221 0.866278 0)
(-0.0639035 0.867278 0)
(-0.0299166 0.853825 0)
(-0.00347862 0.84238 0)
(0.0121998 0.843158 0)
(0.0205682 0.847907 0)
(0.0212612 0.84462 0)
(0.0165452 0.850438 0)
(0.0105729 0.857683 0)
(0.00458726 0.862036 0)
(-0.00126896 0.862242 0)
(-0.0072534 0.85846 0)
(-0.0132999 0.851539 0)
(-0.0182699 0.845646 0)
(-0.0182729 0.848555 0)
(-0.010887 0.844454 0)
(0.00377631 0.843287 0)
(0.0288454 0.85341 0)
(0.0621476 0.866789 0)
(0.0893666 0.867663 0)
(0.0971746 0.832948 0)
(0.0740926 0.766195 0)
(0.040173 0.672392 0)
(0.00820148 0.606483 0)
(0.00470488 0.535897 0)
(-0.017396 0.541833 0)
(-0.0350318 0.626825 0)
(-0.0788653 0.694218 0)
(-0.101113 0.779684 0)
(-0.0936673 0.824428 0)
(-0.060693 0.84505 0)
(-0.0242257 0.841789 0)
(0.00559345 0.834496 0)
(0.0227508 0.832868 0)
(0.0303062 0.838997 0)
(0.0320936 0.847433 0)
(0.0284342 0.84967 0)
(0.0206263 0.856465 0)
(0.0124828 0.862979 0)
(0.00515116 0.866689 0)
(-0.00169284 0.866807 0)
(-0.00894584 0.863708 0)
(-0.0170213 0.857471 0)
(-0.0249545 0.850847 0)
(-0.0291489 0.848569 0)
(-0.0280855 0.840735 0)
(-0.0212482 0.834416 0)
(-0.00533565 0.835329 0)
(0.0230114 0.841967 0)
(0.0583109 0.84653 0)
(0.0904867 0.826471 0)
(0.0961542 0.781088 0)
(0.0764898 0.693309 0)
(0.0345878 0.625601 0)
(0.0176211 0.541625 0)
(-0.0275615 0.566463 0)
(-0.0586749 0.663035 0)
(-0.10381 0.720814 0)
(-0.0916739 0.779685 0)
(-0.0549891 0.801417 0)
(-0.0131532 0.81994 0)
(0.0191648 0.82403 0)
(0.0381224 0.825242 0)
(0.0447352 0.830958 0)
(0.0436323 0.841344 0)
(0.037987 0.851928 0)
(0.0297363 0.857295 0)
(0.0197153 0.863469 0)
(0.0111606 0.868317 0)
(0.004525 0.870959 0)
(-0.00123277 0.870983 0)
(-0.00765537 0.868906 0)
(-0.0159238 0.864209 0)
(-0.0259187 0.85843 0)
(-0.0345214 0.853189 0)
(-0.0406065 0.843142 0)
(-0.0422328 0.832583 0)
(-0.0362826 0.826617 0)
(-0.0186935 0.824688 0)
(0.012057 0.821623 0)
(0.0525451 0.80464 0)
(0.0885414 0.781958 0)
(0.0995635 0.717025 0)
(0.0578256 0.660495 0)
(0.0275949 0.56643 0)
(-0.035953 0.605239 0)
(-0.0696421 0.698354 0)
(-0.0869009 0.724366 0)
(-0.0469086 0.758738 0)
(-0.0036789 0.779646 0)
(0.0318231 0.804958 0)
(0.0532217 0.817805 0)
(0.0610072 0.826062 0)
(0.0573388 0.837431 0)
(0.0469299 0.850664 0)
(0.0350043 0.860679 0)
(0.0232376 0.866016 0)
(0.0131977 0.870135 0)
(0.00659478 0.872651 0)
(0.00270093 0.873903 0)
(-0.000172987 0.873783 0)
(-0.003622 0.872833 0)
(-0.00957371 0.870459 0)
(-0.0192905 0.866934 0)
(-0.0312745 0.861873 0)
(-0.0437496 0.852319 0)
(-0.0547188 0.838827 0)
(-0.058997 0.827118 0)
(-0.0526817 0.818644 0)
(-0.0324156 0.806872 0)
(0.00265273 0.782671 0)
(0.0462473 0.761066 0)
(0.085883 0.722808 0)
(0.0671094 0.693122 0)
(0.0359005 0.605126 0)
(-0.0368644 0.656292 0)
(-0.0528145 0.7129 0)
(-0.0319917 0.709079 0)
(0.00644934 0.734738 0)