/*--------------------------------*- C++ -*----------------------------------*\
| =========                 |                                                 |
| \\      /  F ield         | OpenFOAM: The Open Source CFD Toolbox           |
|  \\    /   O peration     | Version:  v1606+                                |
|   \\  /    A nd           | Web:      www.OpenFOAM.com                      |
|    \\/     M anipulation  |                                                 |
\*---------------------------------------------------------------------------*/
FoamFile
{
    version     2.0;
    format      ascii;
    class       volVectorField;
    location    "0.3";
    object      U.particlesMean;
}
// * * * * * * * * * * * * * * * * * * * * * * * * * * * * * * * * * * * * * //

dimensions      [0 1 -1 0 0 0 0];

internalField   nonuniform List<vector> 
6000
(
(-0.00812355 -0.262824 0)
(-0.00626686 -0.281089 0)
(-0.00229058 -0.282484 0)
(-0.000691476 -0.286102 0)
(0.00218069 -0.28981 0)
(0.00409065 -0.293837 0)
(0.00584811 -0.300724 0)
(0.00603736 -0.306538 0)
(0.00559625 -0.310792 0)
(0.0042913 -0.314156 0)
(0.00320127 -0.31567 0)
(0.00294417 -0.316947 0)
(0.00251082 -0.319771 0)
(0.00189704 -0.3213 0)
(0.000622251 -0.321142 0)
(-0.000802216 -0.321197 0)
(-0.00159054 -0.320785 0)
(-0.00206821 -0.318934 0)
(-0.00220991 -0.317333 0)
(-0.00314987 -0.316141 0)
(-0.00458758 -0.314004 0)
(-0.00568432 -0.310631 0)
(-0.00609043 -0.306348 0)
(-0.00558649 -0.299935 0)
(-0.00383415 -0.293741 0)
(-0.00185086 -0.288813 0)
(0.00122742 -0.285258 0)
(0.00329813 -0.281342 0)
(0.00751589 -0.280509 0)
(0.00874417 -0.263708 0)
(0.00303062 0.0238729 0)
(-0.00820984 0.0400254 0)
(-0.00242027 0.0398801 0)
(-0.00303921 0.0417762 0)
(-0.000655359 0.0384253 0)
(0.00143908 0.0333631 0)
(0.00273599 0.0296755 0)
(0.0032689 0.0270506 0)
(0.00364715 0.0246701 0)
(0.00368751 0.0240426 0)
(0.00338737 0.0228699 0)
(0.00273757 0.0216908 0)
(0.00199725 0.0219146 0)
(0.00108932 0.0214197 0)
(0.000378631 0.0214275 0)
(-0.000192233 0.0211902 0)
(-0.000993007 0.0217592 0)
(-0.00184524 0.0213677 0)
(-0.00260916 0.0222196 0)
(-0.00302815 0.0235343 0)
(-0.00323031 0.0238962 0)
(-0.00334782 0.0250978 0)
(-0.00327709 0.0272845 0)
(-0.00270354 0.029853 0)
(-0.00129479 0.033907 0)
(0.000940417 0.0381193 0)
(0.00374814 0.0414416 0)
(0.00366892 0.0393091 0)
(0.00925411 0.0395427 0)
(-0.00248534 0.0239982 0)
(-0.00336559 0.00264 0)
(-0.00786406 -0.0208204 0)
(-0.00134295 -0.0187799 0)
(-0.00107776 -0.0173436 0)
(0.00333651 -0.0165219 0)
(0.00484247 -0.0129433 0)
(0.00498585 -0.00961936 0)
(0.00446409 -0.00839925 0)
(0.00393875 -0.00842137 0)
(0.00328494 -0.00908793 0)
(0.00274214 -0.0105337 0)
(0.00186859 -0.0112503 0)
(0.00109743 -0.0112107 0)
(0.000539959 -0.0114403 0)
(0.000231899 -0.0112786 0)
(-4.15074e-05 -0.0115682 0)
(-0.000443521 -0.0114683 0)
(-0.00103585 -0.0115692 0)
(-0.00197179 -0.0112071 0)
(-0.00256723 -0.0101564 0)
(-0.00299184 -0.00909376 0)
(-0.00368716 -0.00841512 0)
(-0.00434171 -0.00853154 0)
(-0.00489769 -0.0102194 0)
(-0.00459279 -0.0132092 0)
(-0.0029708 -0.0172805 0)
(0.00173953 -0.018614 0)
(0.00237963 -0.0198075 0)
(0.00854276 -0.0204106 0)
(0.00351871 0.00353967 0)
(0.00382188 -0.0025688 0)
(-0.00294897 -0.0297986 0)
(-0.000690852 -0.0287866 0)
(0.00209544 -0.0280847 0)
(0.00715946 -0.0256353 0)
(0.00987782 -0.0196055 0)
(0.0110147 -0.0126936 0)
(0.0103222 -0.00706334 0)
(0.00844908 -0.0029539 0)
(0.00600222 -0.000434459 0)
(0.00385565 0.0008187 0)
(0.0021037 0.00178223 0)
(0.000885191 0.00225592 0)
(0.000236108 0.00233434 0)
(7.9173e-05 0.00234333 0)
(8.29673e-05 0.00230059 0)
(-0.000123564 0.0022685 0)
(-0.000816175 0.00211485 0)
(-0.00217379 0.00165924 0)
(-0.00388709 0.000747046 0)
(-0.00600908 -0.000581226 0)
(-0.00837798 -0.00307516 0)
(-0.0101641 -0.00733083 0)
(-0.0109035 -0.0133361 0)
(-0.00962816 -0.0202131 0)
(-0.00668771 -0.0266469 0)
(-0.0015901 -0.0294698 0)
(0.00126939 -0.0298791 0)
(0.00327117 -0.0294769 0)
(-0.0037887 -0.0018048 0)
(0.00682372 -0.0115529 0)
(-0.00335421 -0.0400589 0)
(-0.00146363 -0.0425151 0)
(0.00411264 -0.0468599 0)
(0.0104304 -0.0456977 0)
(0.0150239 -0.0390031 0)
(0.0177638 -0.0307592 0)
(0.018003 -0.0233379 0)
(0.0165551 -0.0173255 0)
(0.0140706 -0.012895 0)
(0.011044 -0.0104367 0)
(0.00776381 -0.00866753 0)
(0.00479968 -0.00752675 0)
(0.00249932 -0.0073721 0)
(0.000777538 -0.00746751 0)
(-0.000697869 -0.00758075 0)
(-0.00247516 -0.00751677 0)
(-0.00484119 -0.00774147 0)
(-0.00788411 -0.00880709 0)
(-0.0111531 -0.0104698 0)
(-0.014196 -0.0130927 0)
(-0.0166155 -0.0175765 0)
(-0.0178984 -0.023682 0)
(-0.0176843 -0.0315348 0)
(-0.0148558 -0.039892 0)
(-0.0100711 -0.047051 0)
(-0.00376981 -0.048489 0)
(0.0017191 -0.0437818 0)
(0.00355265 -0.0396583 0)
(-0.00689954 -0.0104495 0)
(0.00723905 -0.0163835 0)
(-0.00453496 -0.0412737 0)
(-0.00053028 -0.0512502 0)
(0.00631564 -0.0610028 0)
(0.013752 -0.0611669 0)
(0.020586 -0.0544271 0)
(0.0253547 -0.0448256 0)
(0.0267701 -0.0357491 0)
(0.0257301 -0.0295491 0)
(0.0235873 -0.0252781 0)
(0.0202338 -0.0228055 0)
(0.015968 -0.0214697 0)
(0.0114798 -0.0202354 0)
(0.00685392 -0.0199568 0)
(0.00227505 -0.020032 0)
(-0.00227975 -0.0200741 0)
(-0.00694935 -0.0200246 0)
(-0.0116417 -0.0203493 0)
(-0.0161892 -0.0215465 0)
(-0.020392 -0.0227806 0)
(-0.0237213 -0.0253922 0)
(-0.0258659 -0.0297735 0)
(-0.026814 -0.0361269 0)
(-0.0253823 -0.0457565 0)
(-0.020486 -0.0556577 0)
(-0.0135023 -0.0627708 0)
(-0.00608926 -0.062657 0)
(0.000443305 -0.0522989 0)
(0.00442447 -0.0404558 0)
(-0.00738908 -0.0149368 0)
(0.00966289 -0.0171618 0)
(-0.0023498 -0.0455049 0)
(0.00251002 -0.0635837 0)
(0.0087319 -0.0769605 0)
(0.0157493 -0.078188 0)
(0.0230254 -0.0718024 0)
(0.0292605 -0.0604807 0)
(0.0328062 -0.0483976 0)
(0.0330973 -0.039591 0)
(0.0309701 -0.0343938 0)
(0.0271946 -0.0313981 0)
(0.0221734 -0.0295559 0)
(0.016515 -0.028966 0)
(0.0101619 -0.0291083 0)
(0.00340408 -0.0294336 0)
(-0.00350162 -0.0294051 0)
(-0.0103176 -0.0290853 0)
(-0.0167081 -0.0289602 0)
(-0.0224283 -0.0295792 0)
(-0.0273983 -0.0314198 0)
(-0.0311472 -0.0345391 0)
(-0.0332821 -0.0399527 0)
(-0.0328788 -0.0490453 0)
(-0.0292451 -0.0616761 0)
(-0.0229104 -0.0733146 0)
(-0.0155685 -0.0798206 0)
(-0.00866245 -0.0784244 0)
(-0.0028206 -0.0644373 0)
(0.00185726 -0.0447023 0)
(-0.0100039 -0.0152984 0)
(0.0120045 -0.0206614 0)
(0.00217276 -0.047891 0)
(0.00848255 -0.071707 0)
(0.012533 -0.086672 0)
(0.0178187 -0.0893547 0)
(0.0239202 -0.0846879 0)
(0.0301778 -0.0745432 0)
(0.0350151 -0.0617969 0)
(0.0367894 -0.051397 0)
(0.0354369 -0.0453455 0)
(0.031843 -0.0422857 0)
(0.0263761 -0.0411951 0)
(0.0196927 -0.0410873 0)
(0.0121592 -0.0415327 0)
(0.00406307 -0.0419733 0)
(-0.00422189 -0.0419106 0)
(-0.0123336 -0.0414537 0)
(-0.0198847 -0.0410122 0)
(-0.0266216 -0.041176 0)
(-0.0320695 -0.0422795 0)
(-0.0356237 -0.0454807 0)
(-0.0369376 -0.0517642 0)
(-0.0350731 -0.0625024 0)
(-0.030099 -0.075562 0)
(-0.0239016 -0.0859287 0)
(-0.0179516 -0.0905741 0)
(-0.0128922 -0.0876587 0)
(-0.00924099 -0.072059 0)
(-0.00300226 -0.0468825 0)
(-0.0125649 -0.0188379 0)
(0.013816 -0.0249032 0)
(0.00871438 -0.052089 0)
(0.0157683 -0.07718 0)
(0.0179578 -0.0908466 0)
(0.0211312 -0.0926413 0)
(0.0250574 -0.0882797 0)
(0.0293986 -0.0793685 0)
(0.0333507 -0.0679491 0)
(0.0356509 -0.0575432 0)
(0.0353039 -0.05104 0)
(0.032451 -0.0475414 0)
(0.0275964 -0.046249 0)
(0.0210243 -0.0465192 0)
(0.0131515 -0.0472933 0)
(0.00441298 -0.0478513 0)
(-0.00462146 -0.0477805 0)
(-0.0133472 -0.047158 0)
(-0.0212066 -0.0463517 0)
(-0.0277781 -0.0461297 0)
(-0.0326274 -0.0474705 0)
(-0.0354475 -0.0510771 0)
(-0.035743 -0.0578291 0)
(-0.0334095 -0.0685302 0)
(-0.0294174 -0.0801366 0)
(-0.0252815 -0.0892907 0)
(-0.0215333 -0.0935343 0)
(-0.0186512 -0.0915665 0)
(-0.0167864 -0.0773268 0)
(-0.00974253 -0.0511726 0)
(-0.0143975 -0.0233819 0)
(0.015218 -0.0238156 0)
(0.0143779 -0.0500928 0)
(0.0237014 -0.0738858 0)
(0.0253478 -0.0853922 0)
(0.0266046 -0.0857211 0)
(0.0283578 -0.0811719 0)
(0.0303844 -0.0730425 0)
(0.0322764 -0.0627811 0)
(0.0334293 -0.053349 0)
(0.0331106 -0.0471986 0)
(0.0308761 -0.0436007 0)
(0.0266683 -0.0421642 0)
(0.02054 -0.0421905 0)
(0.0128958 -0.0427766 0)
(0.00432582 -0.0432062 0)
(-0.00455255 -0.0431407 0)
(-0.0130986 -0.0426633 0)
(-0.0207095 -0.0420129 0)
(-0.0268076 -0.0419843 0)
(-0.0310041 -0.0434282 0)
(-0.033217 -0.0471568 0)
(-0.0335174 -0.0534603 0)
(-0.0324157 -0.0632205 0)
(-0.0306296 -0.0735432 0)
(-0.0287859 -0.0819795 0)
(-0.0271838 -0.0861942 0)
(-0.0263137 -0.0858962 0)
(-0.0248621 -0.0737996 0)
(-0.0153451 -0.049065 0)
(-0.0156896 -0.0224484 0)
(0.0182742 -0.019656 0)
(0.0187516 -0.0438768 0)
(0.030336 -0.063067 0)
(0.0332778 -0.0713109 0)
(0.0333642 -0.0702061 0)
(0.0327093 -0.0636991 0)
(0.0326534 -0.0560724 0)
(0.032587 -0.0462117 0)
(0.0319829 -0.0370929 0)
(0.0307315 -0.031209 0)
(0.0284284 -0.0272156 0)
(0.0246259 -0.0246655 0)
(0.019196 -0.0239099 0)
(0.0121556 -0.024105 0)
(0.00410047 -0.0244032 0)
(-0.00427474 -0.0243989 0)
(-0.0123021 -0.0240958 0)
(-0.019293 -0.0238801 0)
(-0.0246792 -0.0246333 0)
(-0.0284836 -0.0272335 0)
(-0.0308002 -0.0313121 0)
(-0.0321087 -0.0373559 0)
(-0.0327968 -0.0467402 0)
(-0.0330268 -0.056461 0)
(-0.0332522 -0.0639455 0)
(-0.0342798 -0.0707773 0)
(-0.0344335 -0.0717006 0)
(-0.0314411 -0.0631276 0)
(-0.0195567 -0.0433537 0)
(-0.0187921 -0.0186356 0)
(0.0199302 -0.00559332 0)
(0.0225501 -0.0256511 0)
(0.037377 -0.0418619 0)
(0.0421383 -0.0489407 0)
(0.0419017 -0.0480026 0)
(0.0391735 -0.0410812 0)
(0.0359128 -0.0308974 0)
(0.0337797 -0.0218777 0)
(0.0315407 -0.0117835 0)
(0.0290478 -0.0050664 0)
(0.0261897 -0.000545898 0)
(0.022555 0.00272568 0)
(0.0175324 0.00446472 0)
(0.0111165 0.00485717 0)
(0.0037561 0.00482112 0)
(-0.00388489 0.00481895 0)
(-0.0112223 0.00485359 0)
(-0.0176048 0.00447688 0)
(-0.0225998 0.00275017 0)
(-0.0262314 -0.000552703 0)
(-0.0291115 -0.00517409 0)
(-0.0316701 -0.0120172 0)
(-0.0339383 -0.022311 0)
(-0.0362598 -0.0315519 0)
(-0.0399838 -0.0420053 0)
(-0.0430109 -0.0486195 0)
(-0.0433723 -0.0493081 0)
(-0.0384452 -0.0419433 0)
(-0.02319 -0.0253807 0)
(-0.0204116 -0.00496113 0)
(0.0205533 0.0113234 0)
(0.0254626 -0.00885908 0)
(0.0441682 -0.0238869 0)
(0.0515645 -0.0299116 0)
(0.0518549 -0.0283864 0)
(0.0477113 -0.0199173 0)
(0.0413142 -0.0083636 0)
(0.0362757 0.00359882 0)
(0.0325066 0.0144547 0)
(0.0285844 0.0221116 0)
(0.0247862 0.0274345 0)
(0.0207075 0.0313806 0)
(0.0159686 0.034022 0)
(0.010128 0.0350209 0)
(0.00342293 0.0351884 0)
(-0.00354395 0.0351791 0)
(-0.0102157 0.0349994 0)
(-0.0159931 0.0340093 0)
(-0.0206483 0.0313613 0)
(-0.0246407 0.0273599 0)
(-0.0283675 0.021962 0)
(-0.0322978 0.0141823 0)
(-0.0361815 0.00336362 0)
(-0.0415544 -0.00879029 0)
(-0.0484155 -0.0203088 0)
(-0.0529373 -0.0289327 0)
(-0.0527156 -0.0302744 0)
(-0.0451018 -0.0241129 0)
(-0.0260086 -0.00881087 0)
(-0.0209633 0.011762 0)
(0.0210255 0.0259454 0)
(0.0280561 0.00485261 0)
(0.0507907 -0.00810395 0)
(0.0614083 -0.0124169 0)
(0.0622492 -0.0097832 0)
(0.0569677 -0.000234647 0)
(0.0477178 0.0141805 0)
(0.0395383 0.0286042 0)
(0.0338807 0.0403193 0)
(0.0288532 0.0493106 0)
(0.0241715 0.0554553 0)
(0.0195254 0.059973 0)
(0.0146255 0.0632202 0)
(0.00916661 0.0649805 0)
(0.00311017 0.0655324 0)
(-0.00312473 0.0655115 0)
(-0.00912003 0.0649297 0)
(-0.0144626 0.0631618 0)
(-0.0192154 0.0599 0)
(-0.0237209 0.0553708 0)
(-0.0283231 0.0491929 0)
(-0.0333826 0.0401066 0)
(-0.0392711 0.0282657 0)
(-0.0479473 0.0137463 0)
(-0.0576573 -0.000831971 0)
(-0.0632543 -0.010173 0)
(-0.0624334 -0.0127299 0)
(-0.0515681 -0.00835383 0)
(-0.0285118 0.00477416 0)
(-0.021382 0.0261498 0)
(0.0226608 0.0375533 0)
(0.0310663 0.015628 0)
(0.0566808 0.00454555 0)
(0.0691548 0.00291286 0)
(0.0699233 0.00798697 0)
(0.0636742 0.0197159 0)
(0.0508656 0.0369392 0)
(0.0384348 0.0541675 0)
(0.0300851 0.0672559 0)
(0.0237937 0.0767704 0)
(0.0186304 0.0830866 0)
(0.014278 0.0876867 0)
(0.0104034 0.0910158 0)
(0.00647405 0.0930236 0)
(0.0022432 0.0937664 0)
(-0.00211912 0.0937524 0)
(-0.0063188 0.0929905 0)
(-0.010178 0.0909812 0)
(-0.0139611 0.0876359 0)
(-0.0182129 0.0829925 0)
(-0.023301 0.0766617 0)
(-0.0295901 0.0671199 0)
(-0.0381299 0.0540993 0)
(-0.0510377 0.0367316 0)
(-0.064294 0.0194646 0)
(-0.0707394 0.00770655 0)
(-0.0699618 0.00268221 0)
(-0.0573075 0.00422665 0)
(-0.031481 0.0154512 0)
(-0.0229953 0.0375589 0)
(0.0257873 0.0457335 0)
(0.034444 0.0250371 0)
(0.0607337 0.0160723 0)
(0.0735329 0.0186914 0)
(0.0736359 0.027179 0)
(0.0653933 0.041936 0)
(0.0478911 0.0623563 0)
(0.0312637 0.0807596 0)
(0.0210404 0.0932995 0)
(0.0145063 0.101955 0)
(0.00971973 0.107696 0)
(0.00624297 0.11177 0)
(0.00387022 0.114604 0)
(0.00214269 0.116314 0)
(0.000627049 0.116971 0)
(-0.000835565 0.116946 0)
(-0.00230824 0.11622 0)
(-0.00394855 0.114452 0)
(-0.00619835 0.111592 0)
(-0.00952441 0.107516 0)
(-0.0141851 0.101775 0)
(-0.0206104 0.0931606 0)
(-0.0308996 0.0806691 0)
(-0.0479098 0.0623075 0)
(-0.0657709 0.0418652 0)
(-0.0741767 0.0271319 0)
(-0.0740816 0.0185684 0)
(-0.0612009 0.0158715 0)
(-0.034844 0.0248778 0)
(-0.0261951 0.0455664 0)
(0.0293838 0.0504187 0)
(0.0372101 0.0331526 0)
(0.0630148 0.0286332 0)
(0.0735683 0.0355392 0)
(0.0719618 0.04832 0)
(0.061427 0.066496 0)
(0.041519 0.0882607 0)
(0.0239287 0.106354 0)
(0.01352 0.118279 0)
(0.00758699 0.126239 0)
(0.00371944 0.131566 0)
(0.00131913 0.135325 0)
(0.000102171 0.137869 0)
(-0.000295458 0.139371 0)
(-0.000295644 0.139963 0)
(-0.0001856 0.139925 0)
(-0.000154401 0.139254 0)
(-0.000486825 0.137691 0)
(-0.00160404 0.135106 0)
(-0.00387051 0.1313 0)
(-0.00759721 0.12596 0)
(-0.0133234 0.118008 0)
(-0.0236334 0.106229 0)
(-0.0413769 0.0883213 0)
(-0.0615187 0.0666619 0)
(-0.07218 0.0484678 0)
(-0.0738008 0.0355783 0)
(-0.0633022 0.0285573 0)
(-0.0374728 0.0329552 0)
(-0.0296874 0.0500146 0)
(0.0314267 0.05157 0)
(0.0391503 0.0409611 0)
(0.0618653 0.0416661 0)
(0.0700631 0.0537932 0)
(0.0671628 0.0708542 0)
(0.0556435 0.0917662 0)
(0.0353982 0.113982 0)
(0.0174857 0.131144 0)
(0.00729592 0.141818 0)
(0.00240872 0.148763 0)
(-0.000368848 0.153627 0)
(-0.00164427 0.157152 0)
(-0.00188659 0.159559 0)
(-0.0014606 0.160965 0)
(-0.000740237 0.161534 0)
(4.29206e-05 0.16148 0)
(0.000772005 0.160815 0)
(0.00122854 0.159322 0)
(0.00104802 0.156841 0)
(-0.000110826 0.153243 0)
(-0.00273041 0.148315 0)
(-0.00742606 0.141373 0)
(-0.0174624 0.130839 0)
(-0.0353433 0.114023 0)
(-0.055598 0.0920861 0)
(-0.0671764 0.0712043 0)
(-0.0700695 0.0540615 0)
(-0.0618683 0.0417849 0)
(-0.0393717 0.0408456 0)
(-0.0315718 0.0511542 0)
(0.0315602 0.0510704 0)
(0.0402987 0.047819 0)
(0.0588481 0.055931 0)
(0.0647847 0.0733896 0)
(0.0604844 0.0943215 0)
(0.0477253 0.117388 0)
(0.0276296 0.139079 0)
(0.01128 0.154215 0)
(0.00278038 0.163083 0)
(-0.000566696 0.169017 0)
(-0.00209015 0.173505 0)
(-0.00238773 0.176991 0)
(-0.00201813 0.179442 0)
(-0.00135483 0.180945 0)
(-0.00069921 0.181593 0)
(-0.000102666 0.181546 0)
(0.000538855 0.180805 0)
(0.00119018 0.1792 0)
(0.00157859 0.176644 0)
(0.00133391 0.173051 0)
(-0.00010103 0.168434 0)
(-0.00331533 0.162417 0)
(-0.0115877 0.153638 0)
(-0.0276097 0.138907 0)
(-0.0476065 0.11757 0)
(-0.0603601 0.0946987 0)
(-0.0646618 0.0737248 0)
(-0.0588033 0.0561554 0)
(-0.0403899 0.0477613 0)
(-0.0316536 0.0506613 0)
(0.0319441 0.0481587 0)
(0.0406838 0.0552949 0)
(0.054954 0.0710485 0)
(0.0580696 0.0932685 0)
(0.0524191 0.117214 0)
(0.038731 0.141611 0)
(0.0194859 0.162585 0)
(0.00680779 0.174629 0)
(0.000956941 0.181209 0)
(-0.000768048 0.186372 0)
(-0.00127119 0.190868 0)
(-0.000985563 0.194651 0)
(-0.000504767 0.197521 0)
(-0.000211552 0.199391 0)
(-0.000254884 0.200281 0)
(-0.000472539 0.200245 0)
(-0.00055034 0.199262 0)
(-0.000314674 0.197295 0)
(0.000123721 0.194308 0)
(0.000402194 0.190386 0)
(-7.05859e-05 0.185704 0)
(-0.00172607 0.180365 0)
(-0.00749965 0.173775 0)
(-0.019787 0.162205 0)
(-0.0388398 0.141846 0)
(-0.0525311 0.117631 0)
(-0.0580069 0.0936515 0)
(-0.0548565 0.0713285 0)
(-0.0407515 0.0553327 0)
(-0.0320386 0.0477543 0)
(0.0301282 0.0434229 0)
(0.038587 0.0624797 0)
(0.0488425 0.0851935 0)
(0.0500116 0.112033 0)
(0.0440339 0.139202 0)
(0.0283681 0.166882 0)
(0.01229 0.18423 0)
(0.00620003 0.190405 0)
(0.00315884 0.195297 0)
(0.00240896 0.200757 0)
(0.00227844 0.205988 0)
(0.00248561 0.210681 0)
(0.00238331 0.214406 0)
(0.00170787 0.216964 0)
(0.000466386 0.218244 0)
(-0.00102919 0.218221 0)
(-0.00232087 0.216877 0)
(-0.00308668 0.214239 0)
(-0.00328733 0.210397 0)
(-0.00316094 0.205545 0)
(-0.00333967 0.200101 0)
(-0.00418023 0.194364 0)
(-0.00732191 0.189134 0)
(-0.0132389 0.183085 0)
(-0.0279232 0.167216 0)
(-0.0437333 0.139809 0)
(-0.0498621 0.112482 0)
(-0.0486946 0.085494 0)
(-0.0386713 0.062607 0)
(-0.0301234 0.0431556 0)
(0.0237339 0.0410946 0)
(0.0355925 0.0688473 0)
(0.0413822 0.0985288 0)
(0.04195 0.129856 0)
(0.0304442 0.164999 0)
(0.0170059 0.19408 0)
(0.0131664 0.197729 0)
(0.0114951 0.200107 0)
(0.00941946 0.205776 0)
(0.00847528 0.212741 0)
(0.00797107 0.219649 0)
(0.00736109 0.225739 0)
(0.00610881 0.230637 0)
(0.00405344 0.234055 0)
(0.0013244 0.235811 0)
(-0.00168766 0.235803 0)
(-0.00447441 0.234024 0)
(-0.00664235 0.230553 0)
(-0.00803957 0.225565 0)
(-0.00881527 0.219338 0)
(-0.0094804 0.212192 0)
(-0.0106326 0.204888 0)
(-0.0128845 0.198668 0)
(-0.0146955 0.195649 0)
(-0.0172091 0.193189 0)
(-0.0292354 0.165506 0)
(-0.0415143 0.130461 0)
(-0.0412081 0.0989585 0)
(-0.0355091 0.0689966 0)
(-0.0237154 0.0407622 0)
(0.0200021 0.0381338 0)
(0.0278523 0.0759356 0)
(0.0348264 0.112321 0)
(0.0294975 0.152888 0)
(0.0150084 0.189174 0)
(0.0166945 0.203765 0)
(0.0219649 0.200765 0)
(0.0207809 0.205768 0)
(0.0181499 0.214265 0)
(0.0161859 0.223703 0)
(0.0145411 0.232656 0)
(0.0125771 0.240344 0)
(0.00988849 0.246482 0)
(0.00634965 0.250786 0)
(0.00214977 0.253009 0)
(-0.00231312 0.253021 0)
(-0.00656736 0.250808 0)
(-0.0102168 0.246486 0)
(-0.0130566 0.240288 0)
(-0.0151983 0.232486 0)
(-0.0170397 0.223342 0)
(-0.0191914 0.213557 0)
(-0.0219497 0.204545 0)
(-0.0234897 0.198653 0)
(-0.0186303 0.200676 0)
(-0.0149535 0.188792 0)
(-0.0284712 0.153486 0)
(-0.0349742 0.113342 0)
(-0.0273879 0.0761851 0)
(-0.0198471 0.0380907 0)
(0.013745 0.0384596 0)
(0.0187199 0.0842833 0)
(0.0219701 0.130629 0)
(0.0121751 0.175666 0)
(0.0117962 0.198361 0)
(0.0266342 0.196734 0)
(0.0320644 0.199516 0)
(0.0300485 0.210134 0)
(0.0268325 0.222305 0)
(0.0236999 0.23432 0)
(0.0206644 0.245149 0)
(0.0172492 0.254368 0)
(0.0131424 0.261698 0)
(0.00828193 0.266828 0)
(0.00284041 0.269489 0)
(-0.00283116 0.269509 0)
(-0.00831494 0.266877 0)
(-0.0132598 0.261745 0)
(-0.0174799 0.254374 0)
(-0.0210263 0.245063 0)
(-0.0242001 0.234084 0)
(-0.0274671 0.221829 0)
(-0.0308095 0.20928 0)
(-0.0330489 0.198066 0)
(-0.0287546 0.193543 0)
(-0.0136524 0.196572 0)
(-0.0119098 0.175795 0)
(-0.020431 0.131546 0)
(-0.0189387 0.0848325 0)
(-0.0134079 0.038712 0)
(0.00374263 0.0451474 0)
(0.0149956 0.0944786 0)
(0.00257032 0.153055 0)
(0.00503071 0.18486 0)
(0.024281 0.189169 0)
(0.0377032 0.187241 0)
(0.0383946 0.199799 0)
(0.0360831 0.21492 0)
(0.0328151 0.230027 0)
(0.0291674 0.2441 0)
(0.0252404 0.256614 0)
(0.0207641 0.267265 0)
(0.0155625 0.275732 0)
(0.00968935 0.281647 0)
(0.00335426 0.284704 0)
(-0.00315084 0.284727 0)
(-0.00951228 0.281704 0)
(-0.0154377 0.275797 0)
(-0.0207107 0.267302 0)
(-0.0252733 0.25658 0)
(-0.0292927 0.243944 0)
(-0.033048 0.229701 0)
(-0.0364318 0.214363 0)
(-0.0388218 0.198952 0)
(-0.0385099 0.185768 0)
(-0.0267678 0.185621 0)
(-0.00636771 0.18366 0)
(-0.00212807 0.153594 0)
(-0.0147469 0.0957616 0)
(-0.00345031 0.0458295 0)
(-0.00656638 0.0589608 0)
(0.00136049 0.118472 0)
(-0.00417656 0.161379 0)
(0.0189486 0.173953 0)
(0.0396071 0.170449 0)
(0.0418642 0.184419 0)
(0.0410774 0.201964 0)
(0.0388788 0.219905 0)
(0.0357375 0.236967 0)
(0.0319467 0.252651 0)
(0.0275237 0.266653 0)
(0.0223718 0.278609 0)
(0.0165321 0.288075 0)
(0.0101762 0.294639 0)
(0.00353511 0.298007 0)
(-0.00318765 0.298031 0)
(-0.00984593 0.294693 0)
(-0.0162346 0.28814 0)
(-0.0221206 0.278654 0)
(-0.0273332 0.26665 0)
(-0.0318268 0.252546 0)
(-0.0357038 0.236736 0)
(-0.0389267 0.219519 0)
(-0.0411627 0.201426 0)
(-0.0420425 0.183577 0)
(-0.0403407 0.168761 0)
(-0.0216378 0.17067 0)
(0.00292618 0.159921 0)
(-0.00136236 0.119994 0)
(0.00674083 0.0597359 0)
(-0.0144418 0.0769947 0)
(-0.00192856 0.137407 0)
(0.0134215 0.147445 0)
(0.0383734 0.148708 0)
(0.0419506 0.165188 0)
(0.042108 0.184691 0)
(0.0411477 0.20498 0)
(0.0390789 0.224586 0)
(0.0360388 0.242958 0)
(0.0321442 0.259932 0)
(0.0273764 0.275187 0)
(0.0218311 0.288207 0)
(0.0157683 0.298421 0)
(0.00950291 0.305364 0)
(0.00327008 0.308844 0)
(-0.00288227 0.308861 0)
(-0.00911452 0.305389 0)
(-0.0153778 0.298455 0)
(-0.0214489 0.288223 0)
(-0.0270228 0.275171 0)
(-0.031832 0.259833 0)
(-0.0357973 0.242758 0)
(-0.0389024 0.22426 0)
(-0.0409914 0.20457 0)
(-0.0419741 0.18414 0)
(-0.0418436 0.164352 0)
(-0.0389366 0.14705 0)
(-0.0162445 0.144543 0)
(0.000806765 0.13696 0)
(0.0148748 0.0785019 0)
(-0.0111293 0.098814 0)
(0.0124169 0.125356 0)
(0.033696 0.124557 0)
(0.0391086 0.14208 0)
(0.0401702 0.163639 0)
(0.0403002 0.185928 0)
(0.0393935 0.207772 0)
(0.0373305 0.2285 0)
(0.0342336 0.247975 0)
(0.0301089 0.266121 0)
(0.0249847 0.282477 0)
(0.0191487 0.296319 0)
(0.013152 0.306802 0)
(0.00759439 0.313481 0)
(0.00259629 0.316629 0)
(-0.00217966 0.316629 0)
(-0.0071457 0.313459 0)
(-0.0126429 0.306808 0)
(-0.0186069 0.296322 0)
(-0.0244522 0.282456 0)
(-0.0296086 0.26603 0)
(-0.0337967 0.247778 0)
(-0.0369572 0.228194 0)
(-0.0390386 0.207398 0)
(-0.0399635 0.185502 0)
(-0.0398349 0.163108 0)
(-0.0387996 0.141379 0)
(-0.0339586 0.123267 0)
(-0.0143227 0.122245 0)
(0.010095 0.0998362 0)
(0.00913393 0.104777 0)
(0.0256996 0.100791 0)
(0.0331647 0.116924 0)
(0.0357944 0.139265 0)
(0.0370533 0.163139 0)
(0.0373359 0.186997 0)
(0.036373 0.209956 0)
(0.0341417 0.2318 0)
(0.0307612 0.252577 0)
(0.0261003 0.272062 0)
(0.0203214 0.289564 0)
(0.0141338 0.303736 0)
(0.00881195 0.313257 0)
(0.00483748 0.318706 0)
(0.00167414 0.321155 0)
(-0.00125708 0.321131 0)
(-0.0043778 0.318636 0)
(-0.00824154 0.313228 0)
(-0.013452 0.303777 0)
(-0.0196343 0.289599 0)
(-0.0254707 0.272014 0)
(-0.0301985 0.252405 0)
(-0.033642 0.23153 0)
(-0.035895 0.209612 0)
(-0.0368859 0.186615 0)
(-0.0366232 0.162727 0)
(-0.0353516 0.1388 0)
(-0.0327833 0.116258 0)
(-0.0258713 0.0995565 0)
(-0.0109258 0.10327 0)
(0.0182968 0.0804245 0)
(0.0249628 0.0912914 0)
(0.0292531 0.112348 0)
(0.0318403 0.137196 0)
(0.0333232 0.162716 0)
(0.0335571 0.187801 0)
(0.0323335 0.211964 0)
(0.0297894 0.235259 0)
(0.0257997 0.257845 0)
(0.019944 0.279219 0)
(0.0128083 0.297817 0)
(0.00721334 0.310489 0)
(0.00398652 0.317575 0)
(0.00208251 0.321577 0)
(0.000767736 0.323408 0)
(-0.000364648 0.323363 0)
(-0.00165028 0.321473 0)
(-0.00346407 0.317455 0)
(-0.00653416 0.310456 0)
(-0.0119897 0.297941 0)
(-0.0191714 0.279275 0)
(-0.0251274 0.257741 0)
(-0.029204 0.235038 0)
(-0.0317908 0.211654 0)
(-0.0330536 0.187444 0)
(-0.0328619 0.162339 0)
(-0.0313949 0.136822 0)
(-0.028799 0.111938 0)
(-0.0246672 0.0905772 0)
(-0.0184204 0.0783402 0)
(0.0170169 0.0628721 0)
(0.0213042 0.0837204 0)
(0.0249112 0.108579 0)
(0.0276548 0.135199 0)
(0.0290404 0.162136 0)
(0.0288867 0.188495 0)
(0.027283 0.214093 0)
(0.02396 0.239703 0)
(0.0185356 0.265383 0)
(0.010137 0.289353 0)
(0.00259567 0.306483 0)
(0.000561988 0.314706 0)
(-0.000243082 0.319369 0)
(-0.000292522 0.322299 0)
(-2.24934e-06 0.32375 0)
(0.000407299 0.323696 0)
(0.000713109 0.322174 0)
(0.000700582 0.319157 0)
(-3.50533e-05 0.314464 0)
(-0.0019273 0.306415 0)
(-0.00907018 0.28962 0)
(-0.017695 0.265473 0)
(-0.0232907 0.239589 0)
(-0.0266994 0.213828 0)
(-0.0283578 0.188158 0)
(-0.0285612 0.161781 0)
(-0.0272131 0.134845 0)
(-0.0244786 0.108231 0)
(-0.0209081 0.0831986 0)
(-0.0167075 0.0614272 0)
(0.0137939 0.0481208 0)
(0.017315 0.0769224 0)
(0.0206764 0.104844 0)
(0.0231943 0.132966 0)
(0.0240623 0.161303 0)
(0.0234178 0.18891 0)
(0.021013 0.217271 0)
(0.0155232 0.247935 0)
(0.00697875 0.279001 0)
(-0.00272965 0.303557 0)
(-0.00566973 0.311603 0)
(-0.00440811 0.315779 0)
(-0.00340506 0.318951 0)
(-0.00203693 0.321346 0)
(-0.000540454 0.322623 0)
(0.000997375 0.322578 0)
(0.00249403 0.321221 0)
(0.00385606 0.3187 0)
(0.00484638 0.315375 0)
(0.00608311 0.311124 0)
(0.0035925 0.303565 0)
(-0.00601714 0.279476 0)
(-0.0146553 0.248179 0)
(-0.0203594 0.217192 0)
(-0.0228899 0.1886 0)
(-0.0235914 0.160962 0)
(-0.0227646 0.132625 0)
(-0.0202731 0.104477 0)
(-0.0168927 0.0764515 0)
(-0.013355 0.0471714 0)
(0.0104876 0.0372002 0)
(0.013345 0.0705917 0)
(0.0162572 0.101005 0)
(0.0181666 0.130706 0)
(0.0185772 0.159972 0)
(0.0173722 0.190469 0)
(0.0129829 0.2263 0)
(0.00415965 0.26486 0)
(-0.00612672 0.296396 0)
(-0.0128032 0.314719 0)
(-0.0106277 0.312546 0)
(-0.00755783 0.314394 0)
(-0.00525225 0.316895 0)
(-0.00294638 0.319154 0)
(-0.000768429 0.320455 0)
(0.00134804 0.32043 0)
(0.00350571 0.319061 0)
(0.00577 0.316667 0)
(0.00802916 0.313966 0)
(0.0110187 0.311887 0)
(0.0133336 0.31392 0)
(0.00713346 0.296747 0)
(-0.0032676 0.265541 0)
(-0.0122545 0.226623 0)
(-0.0168265 0.190444 0)
(-0.0181598 0.159647 0)
(-0.0177802 0.130369 0)
(-0.0159207 0.100617 0)
(-0.0130005 0.0701701 0)
(-0.0101238 0.0366334 0)
(0.00739548 0.0293436 0)
(0.00953485 0.0653038 0)
(0.0116555 0.0973051 0)
(0.0126939 0.128151 0)
(0.0130982 0.159373 0)
(0.0103757 0.198508 0)
(0.00138853 0.244224 0)
(-0.0092169 0.284868 0)
(-0.0168725 0.309531 0)
(-0.0187182 0.31708 0)
(-0.0130278 0.310438 0)
(-0.00864469 0.311299 0)
(-0.00549781 0.313823 0)
(-0.00287426 0.31636 0)
(-0.000647579 0.317899 0)
(0.00141125 0.317899 0)
(0.00360132 0.316327 0)
(0.00615211 0.31367 0)
(0.00920598 0.310922 0)
(0.0134885 0.309737 0)
(0.0192292 0.315907 0)
(0.0175935 0.309295 0)
(0.0101755 0.285306 0)
(-0.000677686 0.245088 0)
(-0.00970355 0.198942 0)
(-0.0127155 0.15937 0)
(-0.0123813 0.12778 0)
(-0.0113458 0.0969668 0)
(-0.00926251 0.064951 0)
(-0.00714049 0.0290212 0)
(0.00453637 0.0239531 0)
(0.00576014 0.0608577 0)
(0.00673525 0.0936646 0)
(0.00779937 0.125731 0)
(0.00630356 0.165674 0)
(-0.00179828 0.21575 0)
(-0.0134379 0.26462 0)
(-0.0209921 0.297703 0)
(-0.0239119 0.31276 0)
(-0.0198307 0.313164 0)
(-0.0122289 0.306096 0)
(-0.00740925 0.307261 0)
(-0.00413609 0.310561 0)
(-0.00188578 0.313783 0)
(-0.000225528 0.315717 0)
(0.00121204 0.315743 0)
(0.00282622 0.313828 0)
(0.00498348 0.310528 0)
(0.00812208 0.307011 0)
(0.012783 0.305442 0)
(0.0203256 0.312001 0)
(0.0245253 0.312144 0)
(0.021733 0.297731 0)
(0.0143112 0.26533 0)
(0.00253776 0.216768 0)
(-0.00586581 0.166095 0)
(-0.00754967 0.125573 0)
(-0.00643525 0.0933018 0)
(-0.0055461 0.0605561 0)
(-0.00436378 0.0237912 0)
(0.00212206 0.0207345 0)
(0.0018646 0.0572003 0)
(0.00192523 0.0902201 0)
(0.00178454 0.130671 0)
(-0.00628833 0.180943 0)
(-0.0179537 0.236878 0)
(-0.0266194 0.27791 0)
(-0.0291708 0.301026 0)
(-0.0245477 0.307561 0)
(-0.016352 0.304558 0)
(-0.00871348 0.300212 0)
(-0.00414198 0.303259 0)
(-0.00159707 0.307974 0)
(-0.000295244 0.312112 0)
(0.000381474 0.314489 0)
(0.000840388 0.314543 0)
(0.0014689 0.312244 0)
(0.00267077 0.30809 0)
(0.00505315 0.303209 0)
(0.00935019 0.299806 0)
(0.0167798 0.303618 0)
(0.0248196 0.306584 0)
(0.029823 0.300726 0)
(0.0272565 0.278137 0)
(0.0187915 0.237854 0)
(0.00689815 0.182176 0)
(-0.00155003 0.130809 0)
(-0.00181498 0.0899524 0)
(-0.00169354 0.0568858 0)
(-0.00202996 0.0206424 0)
(-0.000525831 0.0197059 0)
(-0.0013271 0.0542061 0)
(-0.0040938 0.0954986 0)
(-0.0101371 0.144118 0)
(-0.0224947 0.202781 0)
(-0.0318429 0.251649 0)
(-0.0347265 0.282019 0)
(-0.0296691 0.295589 0)
(-0.0192214 0.295644 0)
(-0.00992997 0.294563 0)
(-0.00314523 0.294767 0)
(0.000256312 0.300403 0)
(0.00144314 0.306696 0)
(0.00152361 0.31174 0)
(0.0010534 0.314547 0)
(0.000392847 0.314625 0)
(-0.00012706 0.311958 0)
(-0.000148147 0.306963 0)
(0.00089454 0.300592 0)
(0.0040053 0.294652 0)
(0.0104309 0.294051 0)
(0.0193806 0.294844 0)
(0.0296756 0.294853 0)
(0.0351015 0.281922 0)
(0.0322712 0.252138 0)
(0.0232383 0.203963 0)
(0.0107038 0.144907 0)
(0.004178 0.095549 0)
(0.00117947 0.0540218 0)
(0.000648025 0.019703 0)
(-0.00574829 0.0208851 0)
(-0.001292 0.055249 0)
(-0.0137762 0.106361 0)
(-0.0247853 0.165033 0)
(-0.0362072 0.218835 0)
(-0.0388798 0.257353 0)
(-0.0333899 0.276102 0)
(-0.0216189 0.282256 0)
(-0.0099934 0.283012 0)
(-0.00159715 0.285818 0)
(0.00329775 0.291062 0)
(0.00478006 0.299262 0)
(0.00441252 0.307009 0)
(0.00324984 0.312831 0)
(0.00167682 0.315995 0)
(-4.15901e-05 0.316095 0)
(-0.00166314 0.313129 0)
(-0.00292686 0.307416 0)
(-0.0034168 0.299687 0)
(-0.00215014 0.291299 0)
(0.00237997 0.285834 0)
(0.0104189 0.282794 0)
(0.021536 0.281555 0)
(0.0331206 0.275534 0)
(0.0388664 0.257519 0)
(0.0361413 0.219484 0)
(0.0250313 0.165829 0)
(0.0141765 0.10681 0)
(0.00121947 0.0554925 0)
(0.00599765 0.0209787 0)
(-0.0117965 0.0245904 0)
(-0.00586735 0.0642884 0)
(-0.0251392 0.122933 0)
(-0.0397124 0.183285 0)
(-0.0429627 0.226926 0)
(-0.0341628 0.251044 0)
(-0.0215336 0.261636 0)
(-0.00850314 0.267695 0)
(0.00117547 0.272801 0)
(0.00755739 0.279922 0)
(0.00950229 0.289666 0)
(0.00867132 0.300093 0)
(0.00683938 0.308955 0)
(0.00461604 0.315334 0)
(0.00214974 0.318755 0)
(-0.000385592 0.318879 0)
(-0.00289183 0.315711 0)
(-0.0052082 0.309489 0)
(-0.00712519 0.300733 0)
(-0.00806066 0.290278 0)
(-0.00635104 0.280413 0)
(-0.000235376 0.273144 0)
(0.00900596 0.267683 0)
(0.0214507 0.261269 0)
(0.0335908 0.250696 0)
(0.0419677 0.226829 0)
(0.0371517 0.182834 0)
(0.0246047 0.123027 0)
(0.00586594 0.0650768 0)
(0.0119771 0.0248864 0)
(-0.0133221 0.0315811 0)
(-0.00880718 0.0788184 0)
(-0.0365465 0.148021 0)
(-0.0375506 0.190859 0)
(-0.0279145 0.21575 0)
(-0.0162748 0.234717 0)
(-0.00484328 0.246632 0)
(0.00569509 0.256082 0)
(0.0125887 0.265834 0)
(0.0154698 0.277744 0)
(0.0138106 0.290957 0)
(0.011072 0.302835 0)
(0.00818382 0.312384 0)
(0.00525882 0.319075 0)
(0.00230646 0.322607 0)