/*--------------------------------*- C++ -*----------------------------------*\
| =========                 |                                                 |
| \\      /  F ield         | OpenFOAM: The Open Source CFD Toolbox           |
|  \\    /   O peration     | Version:  v1606+                                |
|   \\  /    A nd           | Web:      www.OpenFOAM.com                      |
|    \\/     M anipulation  |                                                 |
\*---------------------------------------------------------------------------*/
FoamFile
{
    version     2.0;
    format      ascii;
    class       volScalarField;
    location    "1.89";
    object      alpha.air;
}
// * * * * * * * * * * * * * * * * * * * * * * * * * * * * * * * * * * * * * //

dimensions      [0 0 0 0 0 0 0];

internalField   nonuniform List<scalar> 
6000
(
0.570531
0.57053
0.570529
0.570528
0.570527
0.570528
0.578879
0.578889
0.578889
0.578903
0.578956
0.579142
0.579258
0.579265
0.584047
0.58677
0.586771
0.586772
0.586788
0.586826
0.586956
0.587035
0.587037
0.587047
0.58708
0.587151
0.587249
0.587294
0.587305
0.587333
0.581533
0.58547
0.589576
0.596812
0.611421
0.647951
0.683288
0.673488
0.656167
0.631725
0.611597
0.603511
0.600282
0.59934
0.599882
0.599882
0.59446
0.597842
0.602183
0.611325
0.625792
0.64264
0.654294
0.656203
0.656472
0.653853
0.63523
0.605765
0.593571
0.608854
0.636765
0.604154
0.60834
0.635461
0.66277
0.683579
0.683582
0.683586
0.683569
0.672186
0.640407
0.61044
0.597688
0.597688
0.597687
0.597688
0.605243
0.631159
0.644062
0.658705
0.670325
0.676482
0.67805
0.678864
0.682313
0.682938
0.672994
0.635517
0.613528
0.658504
0.683483
0.667997
0.673741
0.683543
0.683558
0.683563
0.683572
0.683569
0.68356
0.683543
0.678828
0.658954
0.634712
0.626367
0.605274
0.622045
0.673715
0.702985
0.705974
0.702608
0.695601
0.689143
0.68511
0.683697
0.683454
0.683241
0.683083
0.674934
0.662178
0.67071
0.683495
0.683509
0.68352
0.683534
0.683541
0.683102
0.673451
0.667653
0.669584
0.67733
0.686452
0.696409
0.701052
0.701845
0.672591
0.692637
0.728984
0.741723
0.734732
0.712961
0.688109
0.66848
0.656046
0.650694
0.653056
0.663858
0.674858
0.671113
0.670919
0.670759
0.683484
0.683494
0.677243
0.665406
0.652922
0.635065
0.617936
0.613516
0.624783
0.648495
0.67747
0.709156
0.736385
0.74129
0.728427
0.734142
0.741714
0.741838
0.741478
0.709186
0.662114
0.617985
0.59162
0.583571
0.591232
0.60915
0.631388
0.628912
0.624576
0.650562
0.647892
0.638068
0.612709
0.584814
0.561642
0.542386
0.53476
0.538209
0.557555
0.595532
0.64884
0.706164
0.741161
0.741251
0.741433
0.741621
0.741709
0.741722
0.736164
0.68784
0.614151
0.549634
0.519078
0.513092
0.521955
0.54014
0.562009
0.551474
0.505328
0.563589
0.554056
0.531336
0.510322
0.492001
0.479394
0.473007
0.474299
0.480544
0.496751
0.535422
0.605603
0.694028
0.741248
0.741289
0.741427
0.741576
0.741614
0.741705
0.715276
0.639027
0.545735
0.48731
0.472158
0.471188
0.476836
0.486972
0.494385
0.480786
0.456098
0.467421
0.494284
0.464168
0.462976
0.462959
0.462939
0.462938
0.462929
0.462945
0.467886
0.489905
0.557716
0.671243
0.740712
0.741249
0.741279
0.741038
0.740323
0.731532
0.668708
0.562955
0.48135
0.45645
0.453371
0.45358
0.456263
0.460447
0.460808
0.455531
0.455957
0.457672
0.579049
0.540243
0.524907
0.504339
0.475341
0.462957
0.462938
0.462925
0.462938
0.468305
0.512395
0.6308
0.723138
0.737932
0.732414
0.722994
0.715948
0.690231
0.593416
0.487973
0.450436
0.449545
0.449537
0.449535
0.449744
0.451105
0.452933
0.455565
0.475381
0.514813
0.715229
0.673297
0.677867
0.674138
0.635402
0.54876
0.47452
0.462966
0.462934
0.462947
0.479033
0.567267
0.663115
0.701535
0.692184
0.665947
0.651423
0.612829
0.5083
0.45116
0.449547
0.449536
0.449544
0.449532
0.449529
0.449572
0.454463
0.48256
0.607252
0.689004
0.737012
0.706914
0.731308
0.758334
0.758494
0.730011
0.652083
0.55194
0.488628
0.471739
0.475053
0.510314
0.585782
0.629562
0.617474
0.579369
0.569253
0.525175
0.459482
0.450275
0.450245
0.451141
0.462627
0.450399
0.449551
0.449546
0.457572
0.592956
0.726446
0.774211
0.734655
0.668227
0.696718
0.745383
0.766885
0.766885
0.764527
0.73219
0.683287
0.637797
0.59173
0.567485
0.576042
0.584817
0.562347
0.522462
0.522177
0.474291
0.452362
0.452257
0.462433
0.483588
0.57408
0.534985
0.466504
0.450965
0.515911
0.620445
0.686868
0.738317
0.685825
0.595561
0.614067
0.687182
0.739307
0.753683
0.759469
0.770164
0.7848
0.785519
0.774497
0.737013
0.677341
0.650249
0.614267
0.560834
0.522767
0.461529
0.45235
0.463225
0.508719
0.624213
0.765328
0.718008
0.587818
0.523772
0.540071
0.55408
0.575443
0.625586
0.594236
0.517636
0.522168
0.591168
0.668095
0.703455
0.717062
0.735923
0.765802
0.798675
0.819999
0.820024
0.803849
0.776256
0.743197
0.683349
0.570728
0.461501
0.461211
0.543358
0.693959
0.806369
0.855778
0.819657
0.676887
0.539848
0.498198
0.481479
0.485444
0.505803
0.501177
0.465727
0.468475
0.49758
0.563957
0.619025
0.644496
0.665549
0.70427
0.762071
0.809502
0.820002
0.819991
0.819969
0.809515
0.760919
0.638235
0.506613
0.565044
0.749279
0.83817
0.857895
0.857946
0.830295
0.670422
0.497598
0.464791
0.464124
0.464126
0.464136
0.456578
0.454738
0.454726
0.455582
0.476473
0.516065
0.552422
0.582447
0.621319
0.685228
0.763437
0.812948
0.819969
0.819954
0.809544
0.747897
0.639822
0.599551
0.720558
0.851378
0.854839
0.854854
0.84619
0.797682
0.617874
0.468284
0.464118
0.464112
0.464124
0.464119
0.454725
0.454713
0.454718
0.454704
0.454741
0.456885
0.47563
0.500036
0.538728
0.598691
0.687475
0.778927
0.81697
0.81208
0.775376
0.69257
0.605619
0.641175
0.785508
0.85154
0.843824
0.816129
0.782777
0.707709
0.559107
0.465048
0.464152
0.465732
0.478651
0.46418
0.454713
0.454721
0.454699
0.454719
0.454689
0.454727
0.454724
0.4582
0.478398
0.523116
0.607844
0.715959
0.777648
0.761076
0.689865
0.615484
0.57972
0.654375
0.788842
0.842289
0.801877
0.727706
0.682958
0.622179
0.586449
0.586732
0.621218
0.672419
0.682641
0.641245
0.454763
0.459525
0.468808
0.458889
0.454764
0.454718
0.45474
0.454738
0.455648
0.476184
0.537239
0.628787
0.681524
0.65614
0.582331
0.545909
0.558819
0.650864
0.760465
0.794224
0.728249
0.641267
0.640997
0.655566
0.723541
0.785099
0.815614
0.831271
0.798292
0.73712
0.509576
0.629636
0.632031
0.591071
0.540655
0.49706
0.458445
0.454781
0.454759
0.457863
0.488365
0.535215
0.558276
0.539816
0.506961
0.501154
0.532143
0.608644
0.681964
0.705771
0.647387
0.62451
0.669946
0.771454
0.832323
0.841067
0.840693
0.840942
0.800717
0.706524
0.701541
0.791603
0.806325
0.789271
0.75282
0.69694
0.605798
0.486245
0.45483
0.454822
0.464868
0.476227
0.480492
0.47704
0.474167
0.476765
0.496911
0.538419
0.582756
0.606333
0.571579
0.624529
0.761044
0.839489
0.840929
0.840685
0.840942
0.840647
0.788912
0.673332
0.767032
0.814369
0.823317
0.823319
0.823308
0.821894
0.794659
0.664568
0.487036
0.454868
0.457607
0.465459
0.473608
0.467778
0.4641
0.463739
0.468747
0.481662
0.502246
0.526816
0.538455
0.658397
0.798401
0.840793
0.84067
0.84087
0.840648
0.834575
0.762928
0.659112
0.731429
0.792858
0.823301
0.823306
0.823293
0.82328
0.823264
0.789212
0.618058
0.458277
0.457634
0.472786
0.477576
0.466948
0.458681
0.45468
0.453252
0.454403
0.459565
0.473466
0.518853
0.642854
0.762636
0.823171
0.839872
0.840638
0.836796
0.814032
0.735246
0.645531
0.664134
0.747824
0.80996
0.823292
0.823279
0.823263
0.818318
0.790025
0.71917
0.520337
0.457971
0.493713
0.480766
0.462435
0.451393
0.446926
0.444776
0.444417
0.444377
0.447407
0.471622
0.559436
0.668331
0.757408
0.807627
0.824281
0.819562
0.785743
0.71151
0.635019
0.601142
0.685344
0.769901
0.804407
0.812962
0.810956
0.79622
0.767265
0.741669
0.622244
0.491148
0.49379
0.473954
0.451355
0.444946
0.444737
0.444745
0.445125
0.442719
0.442653
0.442761
0.468283
0.545479
0.643936
0.726352
0.769947
0.780683
0.754407
0.692175
0.629765
0.557715
0.613116
0.707099
0.763373
0.782674
0.781273
0.766231
0.7466
0.73849
0.681229
0.533623
0.482939
0.454686
0.44502
0.444972
0.449683
0.461838
0.468235
0.459071
0.445127
0.442568
0.442687
0.461494
0.524632
0.60801
0.675301
0.712249
0.710006
0.666967
0.622205
0.517897
0.548745
0.633326
0.707873
0.739873
0.747397
0.742744
0.741638
0.733469
0.681269
0.525611
0.464535
0.44581
0.445038
0.454191
0.484131
0.495403
0.502196
0.50237
0.475005
0.448437
0.442568
0.442671
0.457919
0.504125
0.564704
0.615925
0.643469
0.619454
0.602582
0.489792
0.500732
0.56171
0.644502
0.690637
0.716308
0.730313
0.741322
0.72397
0.649081
0.496322
0.451211
0.44612
0.452366
0.504256
0.522037
0.48795
0.500365
0.560892
0.534652
0.484306
0.447553
0.442557
0.442979
0.457144
0.487549
0.52722
0.561889
0.55267
0.563274
0.472013
0.476068
0.509551
0.579451
0.637708
0.688878
0.724217
0.736766
0.696229
0.579332
0.469506
0.450341
0.450327
0.475134
0.547645
0.528921
0.465275
0.507631
0.598323
0.579544
0.522356
0.470637
0.44373
0.442218
0.44659
0.461742
0.48292
0.49851
0.493782
0.519631
0.463513
0.467158
0.480303
0.524244
0.58372
0.669204
0.716078
0.717359
0.639602
0.508528
0.453068
0.45056
0.465235
0.509528
0.547887
0.533743
0.451807
0.514688
0.598555
0.589809
0.539247
0.48987
0.450079
0.442115
0.44328
0.454863
0.46906
0.470033
0.466971
0.5068
0.462625
0.464908
0.468208
0.488929
0.543119
0.651435
0.699426
0.671084
0.561334
0.468258
0.451188
0.458697
0.492411
0.538224
0.538179
0.501866
0.446533
0.491364
0.563607
0.569188
0.55404
0.500772
0.453831
0.442021
0.441665
0.449259
0.458362
0.457235
0.465929
0.519052
0.462624
0.465383
0.465876
0.476098
0.533158
0.62812
0.66503
0.596852
0.494795
0.451434
0.450718
0.459756
0.477788
0.502503
0.48746
0.455374
0.435707
0.44767
0.482445
0.502945
0.534303
0.518803
0.459774
0.443784
0.441363
0.444253
0.449463
0.451465
0.471528
0.519065
0.462634
0.475729
0.46589
0.471808
0.540118
0.601358
0.602836
0.519126
0.457855
0.442785
0.443112
0.445343
0.442558
0.442717
0.435159
0.427764
0.42534
0.426201
0.43439
0.444993
0.480569
0.506999
0.472303
0.447202
0.441299
0.441029
0.444042
0.451351
0.483915
0.519063
0.479882
0.527379
0.486434
0.497213
0.556568
0.57132
0.526186
0.465613
0.440436
0.434857
0.432626
0.42941
0.423984
0.42391
0.423868
0.423837
0.423791
0.423815
0.423916
0.425663
0.436316
0.464451
0.46735
0.44907
0.441683
0.439339
0.441411
0.452013
0.491435
0.518985
0.506132
0.567199
0.567078
0.561094
0.56112
0.530006
0.468219
0.439293
0.431744
0.429351
0.426756
0.424009
0.423845
0.42382
0.423824
0.423785
0.42376
0.423761
0.423778
0.423857
0.423968
0.43125
0.447462
0.442309
0.439206
0.437443
0.439707
0.451131
0.489977
0.516542
0.515686
0.567227
0.588195
0.588194
0.560353
0.480042
0.439859
0.430071
0.427896
0.427298
0.42638
0.424975
0.425463
0.42538
0.425996
0.424861
0.423762
0.423739
0.423753
0.423796
0.423916
0.424077
0.430521
0.433679
0.434538
0.434837
0.437791
0.448372
0.483695
0.511088
0.506015
0.541203
0.586212
0.579365
0.518454
0.447376
0.429926
0.42793
0.427923
0.429568
0.431214
0.433647
0.447083
0.449787
0.444943
0.434578
0.424401
0.423748
0.423745
0.426241
0.426961
0.424896
0.425949
0.429129
0.430929
0.432172
0.435317
0.44422
0.473271
0.505752
0.48841
0.507758
0.553369
0.532378
0.463045
0.432392
0.428136
0.428073
0.432507
0.441119
0.445828
0.456438
0.522091
0.543168
0.508198
0.453385
0.430769
0.42374
0.423786
0.428731
0.432747
0.428094
0.426038
0.427888
0.428875
0.429974
0.432686
0.439826
0.463134
0.506956
0.48661
0.494031
0.504839
0.472039
0.438088
0.428733
0.428312
0.434106
0.452742
0.468839
0.464187
0.536501
0.681564
0.695095
0.618476
0.523397
0.453143
0.425125
0.423904
0.427864
0.433106
0.432185
0.42854
0.430717
0.429497
0.429524
0.430701
0.436485
0.457231
0.51196
0.48661
0.497352
0.474509
0.446312
0.432812
0.429162
0.43274
0.454728
0.497674
0.495579
0.504208
0.684576
0.781872
0.76479
0.678812
0.572882
0.481063
0.439333
0.427403
0.427985
0.433371
0.43619
0.432538
0.440152
0.43727
0.429553
0.429637
0.434405
0.454785
0.515041
0.489789
0.497379
0.467308
0.441766
0.432026
0.431197
0.442512
0.485667
0.544051
0.543112
0.643293
0.777818
0.787815
0.749314
0.647459
0.549058
0.489987
0.452232
0.44035
0.43277
0.433624
0.436932
0.435475
0.449964
0.453659
0.429658
0.42966
0.433174
0.453813
0.515243
0.516388
0.49713
0.46222
0.440099
0.43225
0.434372
0.457773
0.526597
0.615057
0.665144
0.776405
0.822892
0.78758
0.701294
0.590012
0.512165
0.483163
0.466138
0.456522
0.452714
0.447651
0.441307
0.439161
0.456238
0.466042
0.437357
0.429696
0.432247
0.453192
0.515178
0.514016
0.486978
0.457263
0.439968
0.433279
0.437351
0.463883
0.599319
0.732199
0.79504
0.845532
0.839404
0.774424
0.660254
0.557671
0.502405
0.482057
0.473408
0.467806
0.46383
0.456654
0.448317
0.444931
0.459812
0.466814
0.44822
0.430803
0.431548
0.452549
0.515181
0.483042
0.466592
0.456115
0.441854
0.435701
0.442982
0.460819
0.647344
0.812599
0.864076
0.877169
0.846376
0.763852
0.649719
0.549513
0.49927
0.482988
0.472854
0.467417
0.465143
0.458826
0.451208
0.447641
0.456783
0.466858
0.466828
0.43336
0.431662
0.452216
0.515179
0.468154
0.47039
0.457244
0.446156
0.437902
0.439666
0.4512
0.579408
0.803563
0.883593
0.890827
0.855243
0.776356
0.670846
0.562025
0.500894
0.485869
0.481427
0.47265
0.464546
0.455894
0.450845
0.448711
0.451646
0.46673
0.468991
0.434528
0.431725
0.453344
0.513208
0.556867
0.633327
0.471644
0.450612
0.441471
0.439781
0.46628
0.5024
0.757974
0.883085
0.898131
0.870323
0.810842
0.729817
0.627561
0.544842
0.520867
0.525466
0.520198
0.49953
0.475082
0.456744
0.45062
0.453081
0.472886
0.469083
0.433232
0.431771
0.459026
0.509425
0.720701
0.801161
0.653662
0.455991
0.449043
0.44103
0.452521
0.460617
0.697185
0.874006
0.903004
0.888691
0.854571
0.808346
0.747318
0.690015
0.663693
0.652392
0.614988
0.566943
0.539785
0.528125
0.52053
0.52257
0.529583
0.461662
0.431947
0.431822
0.467127
0.496334
0.742895
0.823743
0.790085
0.666612
0.471991
0.445895
0.470432
0.460435
0.633659
0.844957
0.904463
0.906251
0.892756
0.873108
0.853116
0.84088
0.837595
0.825099
0.760487
0.649988
0.595893
0.585827
0.586557
0.590905
0.547601
0.449999
0.431994
0.434334
0.467613
0.472034
0.716097
0.823956
0.803357
0.772362
0.659949
0.582044
0.647963
0.615806
0.591354
0.777944
0.898395
0.922108
0.919783
0.916026
0.915646
0.919265
0.92367
0.921966
0.897445
0.790733
0.636994
0.590557
0.600415
0.601731
0.538042
0.448008
0.436295
0.442031
0.527687
0.464215
0.696956
0.823871
0.803788
0.776024
0.745726
0.70311
0.766032
0.7944
0.591459
0.722514
0.882109
0.932011
0.939903
0.943472
0.948246
0.952925
0.95573
0.956975
0.953287
0.916337
0.753621
0.58921
0.576645
0.601733
0.577909
0.478533
0.448886
0.453592
0.688157
0.546282
0.690577
0.823807
0.806763
0.785099
0.75105
0.729909
0.789441
0.839319
0.709747
0.734377
0.865419
0.935215
0.953885
0.960807
0.965641
0.968247
0.968854
0.969088
0.968382
0.961041
0.893202
0.649704
0.560194
0.568352
0.578081
0.553089
0.52825
0.569228
0.749031
0.643255
0.684287
0.823879
0.806994
0.795065
0.763219
0.729056
0.798593
0.872712
0.843123
0.781524
0.860061
0.934333
0.962185
0.970677
0.974029
0.974942
0.974622
0.97373
0.972557
0.970096
0.953239
0.818665
0.560279
0.522457
0.533214
0.567576
0.585896
0.645666
0.749035
0.660073
0.653956
0.802773
0.792561
0.794754
0.763516
0.693767
0.780142
0.874604
0.875023
0.839703
0.870658
0.932527
0.965574
0.975076
0.976363
0.976382
0.976333
0.975583
0.973918
0.971462
0.965604
0.92408
0.714299
0.521298
0.502489
0.515793
0.590024
0.650102
0.749035
0.646784
0.532472
0.729938
0.749552
0.787453
0.733778
0.613766
0.667456
0.817643
0.875364
0.877945
0.893551
0.934796
0.966232
0.976179
0.976378
0.976347
0.976356
0.975924
0.97421
0.971681
0.967498
0.9525
0.860409
0.645402
0.502481
0.487944
0.566488
0.636227
0.737778
0.613143
0.448972
0.574179
0.669049
0.747668
0.674087
0.562547
0.547533
0.632534
0.798877
0.888259
0.917628
0.943847
0.967045
0.976093
0.976345
0.976356
0.976318
0.975842
0.974253
0.971504
0.96712
0.958041
0.924582
0.792405
0.571053
0.480815
0.546855
0.624824
0.685527
0.524761
0.430491
0.451725
0.551204
0.664225
0.621622
0.547606
0.518017
0.533192
0.602951
0.801261
0.913882
0.951275
0.968189
0.975641
0.976329
0.976315
0.976088
0.975313
0.973665
0.97076
0.96584
0.957634
0.939912
0.867158
0.705935
0.480837
0.523037
0.59742
0.554976
0.453576
0.430361
0.430527
0.451345
0.545855
0.586278
0.534842
0.515039
0.528056
0.536871
0.657886
0.869742
0.945095
0.965764
0.973376
0.975237
0.975303
0.974624
0.973451
0.971682
0.968703
0.963711
0.955329
0.9418
0.908179
0.789473
0.490459
0.4948
0.517968
0.455913
0.446602
0.430407
0.430358
0.43185
0.459261
0.534245
0.50604
0.488127
0.494171
0.53529
0.604821
0.785723
0.910818
0.950937
0.964586
0.970039
0.971122
0.970157
0.968888
0.967464
0.964694
0.960036
0.95145
0.939437
0.921947
0.815331
0.480815
0.472504
0.455222
0.446589
0.446555
0.443237
0.430401
0.430333
0.43748
0.474524
0.477441
0.468193
0.468228
0.506649
0.58065
0.703581
0.841468
0.912931
0.942374
0.956692
0.96072
0.959933
0.959401
0.958838
0.956829
0.952482
0.943792
0.931981
0.913632
0.791942
0.460935
0.447712
0.446576
0.446533
0.446557
0.492641
0.430443
0.430352
0.432369
0.457038
0.465912
0.502856
0.532727
0.506575
0.509275
0.63409
0.766149
0.852775
0.902654
0.930025
0.938362
0.937932
0.938908
0.939074
0.937555
0.93268
0.920777
0.90316
0.857722
0.679138
0.45377
0.44668
0.446691
0.446778
0.450979
0.535624
0.433631
0.430274
0.431585
0.46071
0.588057
0.829671
0.88494
0.734454
0.644673
0.634558
0.708057
0.779811
0.841979
0.878619
0.889248
0.888578
0.89078
0.890938
0.888636
0.881333
0.862861
0.818173
0.739544
0.532616
0.454016
0.479884
0.548729
0.642893
0.525484
0.564177
0.441746
0.430378
0.434334
0.497447
0.79809
0.952059
0.965585
0.946012
0.87545
0.745423
0.707543
0.718111
0.762981
0.792169
0.799382
0.798075
0.799297
0.798709
0.795138
0.785668
0.764917
0.703306
0.591548
0.533729
0.646065
0.706028
0.761843
0.797072
0.624002
0.564397
0.447469
0.430335
0.438571
0.564424
0.869201
0.959368
0.968866
0.970652
0.961956
0.903205
0.779633
0.718257
0.712313
0.71257
0.712925
0.712615
0.712366
0.711968
0.708469
0.699278
0.692281
0.692291
0.709918
0.770676
0.770645
0.75459
0.794571
0.819284
0.688426
0.564469
0.45211
0.430492
0.441325
0.61479
0.894338
0.960066
0.968573
0.971134
0.971002
0.964151
0.92053
0.83497
0.76258
0.736365
0.728318
0.728049
0.733581
0.737089
0.740088
0.746645
0.764308
0.817129
0.89449
0.876523
0.772963
0.712508
0.76543
0.819159
0.659936
0.564519
0.457382
0.430523
0.445844
0.66422
0.915361
0.961731
0.968922
0.971245
0.971208
0.971096
0.967162
0.946613
0.90365
0.868654
0.854171
0.853394
0.859089
0.864308
0.871967
0.886195
0.908854
0.93929
0.954222
0.902844
0.754348
0.669781
0.729354
0.791392
0.625676
0.564553
0.467528
0.430721
0.455809
0.717934
0.933911
0.965518
0.970958
0.971537
0.971213
0.971204
0.971185
0.96992
0.964568
0.956621
0.95191
0.950997
0.951742
0.95283
0.954605
0.957581
0.961611
0.965018
0.963818
0.92132
0.748891
0.631433
0.67794
0.740317
0.595312
0.564576
0.532248
0.431409
0.477045
0.783028
0.950225
0.969928
0.973457
0.972081
0.971224
0.971212
0.971167
0.971117
0.970992
0.970253
0.969489
0.969032
0.968669
0.968269
0.967774
0.967197
0.966745
0.966575
0.965158
0.942041
0.779212
0.605984
0.616691
0.678969
0.564671
0.564578
0.560981
0.435634
0.526566
0.854122
0.962297
0.973396
0.974305
0.972579
0.97126
0.971115
0.970725
0.970543
0.970764
0.970573
0.970012
0.969582
0.969158
0.968633
0.967968
0.966985
0.966077
0.965667
0.964688
0.954893
0.852139
0.597291
0.55916
0.604326
0.527057
0.564572
0.560366
0.439795
0.599881
0.903989
0.968787
0.974316
0.974307
0.97297
0.971335
0.970846
0.969768
0.969304
0.969907
0.969999
0.969198
0.968613
0.968201
0.967685
0.96711
0.966083
0.964884
0.964181
0.963448
0.959666
0.920435
0.646517
0.520316
0.533519
0.496929
0.542609
0.564414
0.457216
0.663499
0.929488
0.971466
0.974305
0.974306
0.9733
0.971439
0.97045
0.96864
0.967829
0.968703
0.969096
0.968044
0.967179
0.966835
0.966337
0.965893
0.96518
0.964017
0.962968
0.96221
0.961674
0.949915
0.783986
0.506031
0.482595
0.480224
0.532899
0.568141
0.496413
0.692172
0.9396
0.972186
0.974305
0.974299
0.973602
0.971544
0.97007
0.967706
0.96659
0.967539
0.968248
0.967203
0.966019
0.965761
0.965265
0.964886
0.964557
0.963585
0.962155
0.961386
0.961659
0.960358
0.880005
0.539233
0.477922
0.488249
0.525775
0.571952
0.532189
0.704802
0.941646
0.972213
0.974299
0.974286
0.973806
0.971576
0.969707
0.967026
0.965744
0.966545
0.967406
0.966631
0.965161
0.964936
0.964425
0.96405
0.964027
0.963308
0.96165
0.960968
0.961638
0.961615
0.919131
0.648405
0.489709
0.527366
0.519108
0.581873
0.560798
0.717774
0.941507
0.971292
0.974028
0.974268
0.973888
0.971586
0.969357
0.966508
0.965167
0.96568
0.966429
0.966054
0.964415
0.964139
0.963607
0.963251
0.963427
0.963034
0.961368
0.960711
0.961613
0.961587
0.915807
0.685019
0.609002
0.528252
0.516571
0.59326
0.582977
0.72494
0.934614
0.968356
0.972949
0.97409
0.97378
0.971558
0.969055
0.966056
0.964624
0.964804
0.965263
0.965172
0.963606
0.963211
0.962697
0.962399
0.962678
0.962669
0.961171
0.960432
0.961593
0.959822
0.874997
0.68425
0.658492
0.507577
0.516368
0.593742
0.594094
0.729329
0.922984
0.96253
0.970401
0.973205
0.973255
0.971407
0.96881
0.965604
0.963882
0.963686
0.963903
0.963773
0.962554
0.96203
0.961599
0.961372
0.961719
0.962139
0.960894
0.960148
0.961582
0.95591
0.836044
0.684173
0.692793
0.500533
0.516181
0.593717
0.581558
0.742923
0.916885
0.954352
0.965777
0.971123
0.972046
0.970917
0.968524
0.965097
0.962797
0.962113
0.962259
0.961878
0.961068
0.960513
0.960209
0.960056
0.960534
0.961354
0.960346
0.959781
0.961559
0.94946
0.808683
0.693164
0.71406
0.546511
0.500389
0.593741
0.556826
0.774895
0.916451
0.945452
0.959189
0.967574
0.970097
0.969881
0.967939
0.96441
0.961341
0.960048
0.960147
0.959612
0.959041
0.958564
0.958395
0.958343
0.959006
0.96009
0.959369
0.959139
0.960936
0.941738
0.793507
0.712925
0.713603
0.604697
0.467953
0.524343
0.55031
0.808243
0.917215
0.936584
0.951397
0.962577
0.967318
0.968118
0.966745
0.963318
0.959506
0.957634
0.957476
0.957005
0.956491
0.956103
0.95603
0.956117
0.956944
0.958147
0.957851
0.958038
0.959656
0.937374
0.791846
0.701869
0.713854
0.619305
0.46724
0.481816
0.549159
0.822238
0.912384
0.927216
0.942831
0.956258
0.963445
0.965482
0.964792
0.961616
0.957278
0.954964
0.954409
0.954054
0.953517
0.953123
0.953047
0.953285
0.954167
0.955399
0.955664
0.956333
0.958014
0.93769
0.815097
0.68862
0.713523
0.60548
0.467239
0.476406
0.51177
0.816987
0.900232
0.9168
0.933151
0.948625
0.958247
0.961909
0.962097
0.959312
0.954703
0.95201
0.951185
0.950835
0.950205
0.949663
0.949448
0.949744
0.950577
0.951783
0.952658
0.953977
0.956214
0.944436
0.850149
0.662708
0.713709
0.572952
0.467239
0.470591
0.480782
0.795255
0.888513
0.905493
0.922473
0.939703
0.951708
0.957503
0.958753
0.956623
0.951951
0.948824
0.947963
0.94755
0.946678
0.945847
0.945332
0.945454
0.946208
0.947394
0.948793
0.950854
0.954043
0.950814
0.879274
0.618807
0.671832
0.541727
0.471265
0.470616
0.472875
0.785336
0.87995
0.89497
0.912163
0.930216
0.944298
0.952476
0.955001
0.953824
0.949236
0.945689
0.944894
0.94438
0.943123
0.941847
0.940821
0.940487
0.941147
0.942274
0.944106
0.946929
0.951457
0.951465
0.893553
0.580802
0.583097
0.512453
0.488227
0.470683
0.495561
0.788788
0.874106
0.887322
0.903939
0.921673
0.93692
0.947131
0.951181
0.951077
0.946714
0.942928
0.942116
0.941388
0.939636
0.937745
0.935965
0.934967
0.935387
0.936429
0.938759
0.94235
0.948498
0.951465
0.892195
0.563336
0.537242
0.495854
0.488269
0.485397
0.535589
0.790426
0.868546
0.882683
0.898408
0.915217
0.93062
0.941963
0.947592
0.948445
0.944502
0.940659
0.939582
0.938516
0.936128
0.933453
0.93074
0.928861
0.928747
0.929894
0.932905
0.937506
0.945355
0.950455
0.885667
0.583514
0.527967
0.493206
0.488429
0.49156
0.581561
0.79585
0.864909
0.879936
0.894974
0.910956
0.92622
0.937926
0.944518
0.946012
0.942581
0.938702
0.937197
0.935625
0.932406
0.928811
0.924989
0.922048
0.921109
0.922605
0.926494
0.932458
0.94201
0.948812
0.893381
0.676061
0.538249
0.493033
0.488258
0.48568
0.630825
0.809508
0.861544
0.878251
0.893109
0.908478
0.92399
0.935839
0.942336
0.943885
0.940636
0.93683
0.934946
0.932504
0.928311
0.92372
0.918653
0.914431
0.91266
0.914486
0.919358
0.927056
0.938297
0.947473
0.913916
0.743976
0.530978
0.493299
0.479487
0.479293
0.686579
0.822434
0.856591
0.875997
0.891934
0.907269
0.923358
0.935393
0.941094
0.942002
0.9384
0.935074
0.93272
0.929033
0.92386
0.918231
0.911902
0.906134
0.903689
0.905561
0.911543
0.921206
0.933852
0.944891
0.93197
0.823833
0.509639
0.493042
0.468427
0.486409
0.730694
0.827929
0.848257
0.869571
0.888908
0.90639
0.923298
0.935571
0.940561
0.940413
0.93593
0.93333
0.930472
0.92527
0.919191
0.912485
0.904915
0.897563
0.894291
0.896046
0.903204
0.914815
0.928445
0.939908
0.938655
0.891783
0.556119
0.472655
0.465637
0.514034
0.731851
0.814415
0.838165
0.858465
0.88111
0.903141
0.921954
0.935459
0.940354
0.939488
0.933862
0.931332
0.928201
0.921326
0.914411
0.906546
0.897757
0.888983
0.884492
0.886352
0.894248
0.907562
0.921913
0.932971
0.936964
0.90211
0.643043
0.467534
0.465604
0.498853
0.714943
0.803728
0.827563
0.844945
0.866702
0.894038
0.916084
0.932056
0.939488
0.939304
0.933
0.928869
0.925611
0.91745
0.909383
0.900351
0.890403
0.880347
0.874623
0.876405
0.884746
0.899264
0.914267
0.9249
0.930168
0.901013
0.691369
0.467156
0.465582
0.505005
0.71601
0.793206
0.815102
0.826454
0.840251
0.874872
0.903448
0.9234
0.936661
0.939242
0.933224
0.926038
0.922183
0.913647
0.9038
0.893717
0.882693
0.871455
0.864806
0.866214
0.874841
0.889983
0.904971
0.915833
0.918533
0.896887
0.736783
0.467175
0.465559
0.542465
0.713288
0.772938
0.78792
0.789529
0.794097
0.842951
0.885493
0.912776
0.931548
0.938354
0.933935
0.923408
0.91727
0.909294
0.897379
0.886288
0.874253
0.862094
0.854706
0.855961
0.864628
0.879645
0.893892
0.905005
0.904475
0.886828
0.77739
0.50479
0.465545
0.575328
0.701733
0.739423
0.742349
0.73211
0.73678
0.803832
0.865352
0.902871
0.925532
0.935538
0.934171
0.920734
0.910999
0.903244
0.889788
0.877609
0.864625
0.851777
0.844141
0.84534
0.853988
0.868692
0.881469
0.891368
0.88938
0.872562
0.791449
0.561501
0.471103
0.590336
0.678437
0.698152
0.683456
0.665218
0.683141
0.768608
0.846639
0.892847
0.918566
0.930544
0.932071
0.917013
0.90369
0.894645
0.880542
0.867088
0.853231
0.839939
0.832512
0.833931
0.842699
0.857093
0.868274
0.875959
0.872428
0.852078
0.779665
0.623186
0.558629
0.588218
0.637578
0.651633
0.62761
0.608789
0.6368
0.737422
0.828126
0.880504
0.909158
0.922485
0.925582
0.911124
0.894753
0.883318
0.868724
0.854087
0.839403
0.82591
0.819016
0.821081
0.830216
0.843924
0.854236
0.859349
0.854004
0.829146
0.758135
0.658586
0.568135
0.570418
0.593046
0.602738
0.582025
0.567121
0.600682
0.702699
0.801345
0.861627
0.894699
0.91005
0.913782
0.901529
0.883235
0.868881
0.853487
0.837803
0.822287
0.808764
0.80244
0.805614
0.815398
0.827604
0.838052
0.839489
0.832611
0.807956
0.739747
0.669873
0.560827
0.542957
0.54435
0.541515
0.525312
0.516746
0.551377
0.651357
0.757992
0.831429
0.872388
0.891102
0.89554
0.886218
0.867166
0.850133
0.833489
0.816752
0.800135
0.786084
0.780227
0.784881
0.796241
0.807079
0.816219
0.814373
0.801572
0.778327
0.721573
0.670271
0.535048
0.500294
0.487918
0.480912
0.475205
0.476785
0.500972
0.581207
0.69289
0.784345
0.837516
0.861567
0.867632
0.861658
0.842913
0.823912
0.805604
0.787198
0.768776
0.753754
0.74854
0.754518
0.767611
0.778822
0.785069
0.776081
0.750777
0.726301
0.688829
0.655017
0.491104
0.464825
0.459722
0.459738
0.462977
0.469049
0.47561
0.519063
0.615721
0.714691
0.781193
0.813281
0.823118
0.821282
0.803974
0.78362
0.763098
0.742326
0.722042
0.706526
0.701858
0.707888
0.721302
0.732979
0.737151
0.71668
0.679555
0.649714
0.624143
0.626596
0.461833
0.45876
0.458928
0.466519
0.474232
0.477994
0.479027
0.488772
0.542197
0.622102
0.692745
0.734062
0.751232
0.754471
0.740026
0.719049
0.696365
0.673789
0.653028
0.638121
0.63353
0.638405
0.65016
0.660713
0.663572
0.63717
0.597053
0.572475
0.549351
0.578125
0.456248
0.458805
0.474513
0.490541
0.495004
0.495404
0.486898
0.485295
0.494285
0.53099
0.582542
0.623483
0.646605
0.654433
0.644179
0.625006
0.603012
0.581763
0.563418
0.55097
0.546789
0.550126
0.559445
0.568622
0.571425
0.553494
0.52731
0.510395
0.488983
0.522078
0.459431
0.484346
0.495906
0.499367
0.499368
0.498655
0.483488
0.471224
0.468748
0.479193
0.496695
0.517812
0.534656
0.541739
0.535431
0.52141
0.505121
0.490533
0.47939
0.472709
0.470603
0.472568
0.478688
0.486328
0.491737
0.490285
0.487189
0.48067
0.465693
0.481137
0.473053
0.498916
0.487588
0.492129
0.494546
0.483181
0.462656
0.45469
0.455565
0.457581
0.457995
0.460588
0.463963
0.46495
0.461628
0.455823
0.449912
0.445423
0.442551
0.441072
0.440665
0.441089
0.442931
0.44648
0.451555
0.457804
0.46537
0.467072
0.459509
0.48114
0.482254
0.49888
0.476226
0.475763
0.47188
0.458152
0.447247
0.445816
0.447091
0.446595
0.444946
0.443828
0.442856
0.441806
0.44073
0.439802
0.439224
0.439249
0.439422
0.439645
0.439536
0.43876
0.437577
0.43749
0.438977
0.44301
0.450717
0.45569
0.454484
0.481139
0.48422
0.482549
0.461793
0.459492
0.452839
0.444292
0.441143
0.441506
0.441769
0.44076
0.439676
0.438951
0.43838
0.438024
0.438002
0.438331
0.438935
0.439618
0.440709
0.441676
0.442414
0.441632
0.43968
0.437401
0.436341
0.436334
0.440199
0.444869
0.448494
0.481122
0.481306
0.460983
0.452128
0.448542
0.442687
0.439103
0.438548
0.438833
0.438392
0.437465
0.43683
0.436508
0.436385
0.436507
0.436929
0.437689
0.438805
0.440508
0.44303
0.446423
0.450596
0.45158
0.450991
0.442113
0.436871
0.43477
0.434746
0.436731
0.441601
0.476343
0.476596
0.452184
0.445358
0.441344
0.438037
0.436845
0.436875
0.436736
0.43601
0.435236
0.434789
0.434616
0.434683
0.434988
0.435539
0.436418
0.437816
0.439965
0.443761
0.451059
0.461553
0.471244
0.482139
0.461487
0.445404
0.436296
0.4338
0.433814
0.436053
0.462248
0.472548
0.446629
0.439931
0.437074
0.435698
0.435444
0.435377
0.434859
0.43402
0.433334
0.432957
0.432831
0.433005
0.433331
0.433754
0.434389
0.435524
0.437511
0.441419
0.449346
0.464702
0.489889
0.510558
0.49835
0.474675
0.446523
0.434587
0.433765
0.433848
0.447165
0.465201
0.44166
0.43601
0.434624
0.434314
0.434236