/*--------------------------------*- C++ -*----------------------------------*\
| =========                 |                                                 |
| \\      /  F ield         | OpenFOAM: The Open Source CFD Toolbox           |
|  \\    /   O peration     | Version:  v1606+                                |
|   \\  /    A nd           | Web:      www.OpenFOAM.com                      |
|    \\/     M anipulation  |                                                 |
\*---------------------------------------------------------------------------*/
FoamFile
{
    version     2.0;
    format      ascii;
    class       volScalarField;
    location    "1.3";
    object      p;
}
// * * * * * * * * * * * * * * * * * * * * * * * * * * * * * * * * * * * * * //

dimensions      [0 2 -2 0 0 0 0];

internalField   nonuniform List<scalar> 
768
(
4.68618e-05
-0.0023233
-0.00440184
-0.00593871
-0.00660128
-0.0060459
-0.00431451
-0.00183754
0.000388648
0.00225881
0.00385901
0.00530321
0.000485558
-0.00165295
-0.00345187
-0.00470847
-0.00516517
-0.00465931
-0.00323232
-0.00123508
0.000725377
0.00248362
0.00395571
0.00527801
0.000744289
-0.00108973
-0.00250762
-0.00345831
-0.00375787
-0.00334898
-0.00220838
-0.00061482
0.00104678
0.00260372
0.00396023
0.00517491
0.000548892
-0.000747917
-0.00179145
-0.00248144
-0.00267864
-0.00232111
-0.00140317
-0.000114567
0.00129336
0.00266724
0.0039197
0.00504058
0.00657298
0.00764526
0.00851444
0.00915642
0.00951169
0.00950599
0.00905027
0.00813318
0.00684043
0.00538632
0.00397667
0.00241796
0.00644338
0.00743253
0.00822901
0.00880829
0.00912972
0.00914866
0.00877778
0.00797819
0.00682141
0.00551518
0.00430495
0.00306875
0.00624788
0.00716125
0.00789629
0.00843087
0.00873577
0.00876465
0.0084674
0.00780071
0.00677839
0.00555649
0.00445062
0.00350269
0.0060338
0.00688027
0.00756063
0.00805457
0.00833797
0.00837965
0.00813995
0.00758156
0.00669113
0.00555042
0.00444854
0.00364595
-4.0188e-05
-0.00242045
-0.00450252
-0.00603579
-0.00667228
-0.0060757
-0.00431313
-0.00180803
0.000423291
0.00228915
0.0038774
0.0053089
0.000406798
-0.00174215
-0.0035393
-0.00479078
-0.00522463
-0.00468887
-0.00323538
-0.00121873
0.000745395
0.00250445
0.00396656
0.00527909
0.000674115
-0.00116726
-0.00258132
-0.00352621
-0.00380878
-0.00337835
-0.00221761
-0.000609572
0.00105705
0.00261462
0.00396438
0.00517211
0.000480315
-0.000817377
-0.00185562
-0.00253933
-0.00272407
-0.00235088
-0.00141737
-0.000117267
0.00129609
0.00267146
0.00391852
0.00503484
0.00656746
0.00763077
0.00849304
0.00912948
0.00948009
0.00947239
0.00901604
0.00810134
0.00681631
0.00537594
0.0039841
0.00244264
0.00643553
0.0074171
0.00820754
0.00878215
0.00910004
0.00911765
0.00874658
0.00794979
0.00679959
0.0055044
0.00430956
0.00308506
0.00623818
0.00714537
0.00787536
0.00840607
0.00870821
0.00873629
0.00843946
0.00777547
0.00675855
0.00554524
0.00445338
0.00352336
0.00602278
0.00686426
0.00754046
0.00803126
0.00831246
0.00835371
0.0081148
0.00755901
0.00667287
0.00553818
0.00444719
0.0036575
-0.000121122
-0.000667638
-0.0013476
-0.00180846
-0.00191804
-0.00158121
-0.000807706
0.000272818
0.00148857
0.00271003
0.00386829
0.00490503
-0.000264591
-0.000611437
-0.00104931
-0.00133907
-0.00136759
-0.00103704
-0.000358227
0.000577606
0.00164755
0.00274755
0.00381133
0.00477929
-0.000296609
-0.000532087
-0.000819918
-0.000989934
-0.000951992
-0.000624101
-1.14853e-05
0.000819796
0.00177759
0.00277781
0.00375901
0.00466941
-0.000302728
-0.000452106
-0.000638149
-0.000721808
-0.000633165
-0.000305794
0.000258979
0.00101257
0.00188322
0.00280144
0.00371175
0.00457767
-0.000291538
-0.000380237
-0.000492845
-0.000513428
-0.000386691
-5.89361e-05
0.000470634
0.00116549
0.00196815
0.00281944
0.00366815
0.00450393
-0.000269076
-0.000316898
-0.000376027
-0.000350723
-0.000195699
0.0001325
0.000635819
0.00128596
0.00203561
0.00283307
0.00362943
0.00444465
-0.000241888
-0.000262152
-0.000282569
-0.000224034
-4.83711e-05
0.00028003
0.000763595
0.00137968
0.00208833
0.0028436
0.00359749
0.00439605
-0.000214575
-0.000216347
-0.000208947
-0.00012664
6.37159e-05
0.000391987
0.000860658
0.00145099
0.00212844
0.0028521
0.00357912
0.00434944
-0.000189714
-0.000179338
-0.000152532
-5.371e-05
0.000146646
0.000474483
0.000932019
0.00150321
0.00215749
0.00285833
0.00357297
0.00430452
-0.000168764
-0.000150665
-0.00011113
-1.55748e-06
0.000204973
0.000532168
0.00098156
0.00153903
0.00217667
0.00286102
0.00356807
0.00427143
-0.000152379
-0.000129752
-8.28552e-05
3.28236e-05
0.000242367
0.000568787
0.00101245
0.00156068
0.00218706
0.00285914
0.00356429
0.00424922
-0.000141193
-0.000117369
-6.71011e-05
5.18345e-05
0.000264815
0.000587369
0.00102732
0.00157029
0.00219032
0.00285239
0.00356532
0.00423693
0.00582704
0.00661406
0.00724687
0.00770682
0.00797393
0.00802502
0.00783284
0.00737061
0.00662735
0.00564767
0.00476258
0.00436849
0.00563939
0.00637489
0.00696735
0.00739945
0.00765533
0.00771602
0.00756613
0.00719207
0.00660748
0.00580616
0.00518364
0.00482873
0.00547589
0.00616721
0.00672587
0.00713535
0.00738079
0.00745463
0.0073423
0.00704163
0.00657533
0.00595133
0.00545027
0.00517704
0.00533707
0.00599065
0.00652125
0.00691276
0.00714926
0.00723778
0.00715797
0.00691789
0.00655285
0.00603495
0.00564679
0.00542362
0.00522116
0.00584267
0.00635027
0.00672826
0.0069644
0.00706069
0.00700792
0.00681632
0.00651772
0.0061058
0.0057899
0.00559675
0.00512522
0.00572019
0.00620929
0.00657701
0.0068131
0.00691744
0.00688724
0.00673444
0.00648741
0.00616107
0.00589748
0.00576955
0.00504617
0.00562021
0.00609494
0.00645501
0.00669143
0.00680329
0.00679175
0.00666987
0.0064643
0.00620401
0.00597248
0.0058595
0.00498135
0.00554036
0.00600437
0.00635888
0.00659598
0.00671448
0.00671801
0.00662028
0.00644688
0.00622933
0.00603414
0.00593197
0.00492975
0.0054786
0.00593502
0.00628581
0.00652345
0.0066479
0.0066632
0.0065838
0.00643453
0.00624749
0.00608046
0.00598477
0.00489068
0.00543321
0.00588476
0.00623348
0.0064721
0.00660111
0.00662516
0.00655892
0.00642672
0.00626071
0.00611225
0.00602297
0.00486389
0.00540284
0.00585194
0.00619981
0.0064397
0.00657234
0.00660233
0.00654458
0.0064232
0.0062701
0.00613287
0.00604798
0.00484976
0.00538745
0.00583576
0.00618363
0.00642522
0.00655965
0.00659265
0.00653898
0.00642268
0.00627552
0.00614345
0.00606106
-0.0001843
-0.000729919
-0.00140529
-0.00186011
-0.00196
-0.00161043
-0.000825011
0.000264715
0.00148556
0.00270845
0.00386394
0.00489707
-0.000322831
-0.000668667
-0.00110253
-0.00138678
-0.00140718
-0.00106625
-0.000377878
0.000565612
0.00164025
0.00274189
0.00380427
0.00476955
-0.000351554
-0.000585764
-0.000869989
-0.00103498
-0.000990068
-0.000653791
-3.30167e-05
0.000804911
0.00176704
0.0027691
0.00374978
0.00465819
-0.000355022
-0.000503061
-0.000685843
-0.000764931
-0.000670228
-0.000335892
0.000236028
0.000995518
0.0018702
0.00279041
0.00370086
0.00456517
-0.000341674
-0.000429018
-0.000538685
-0.000555098
-0.000423007
-8.92024e-05
0.00044664
0.00114681
0.00195323
0.00280659
0.0036559
0.0044904
-0.00031749
-0.000363983
-0.000420417
-0.000391287
-0.000231439
0.000102211
0.000611092
0.00126606
0.00201924
0.00281881
0.00361612
0.00443031
-0.000288937
-0.000307925
-0.000325837
-0.000263758
-8.36687e-05
0.000249727
0.000738333
0.00135886
0.00207085
0.00282824
0.00358322
0.00438119
-0.000260564
-0.000261112
-0.000251366
-0.000165734
2.87485e-05
0.000361657
0.000834987
0.00142946
0.00211012
0.00283589
0.00356412
0.00433417
-0.000234906
-0.00022335
-0.00019432
-9.23415e-05
0.00011192
0.00044412
0.000906049
0.00148117
0.00213853
0.00284149
0.0035574
0.00428897
-0.000213391
-0.000194148
-0.000152472
-3.98617e-05
0.000170416
0.000501797
0.000955383
0.00151663
0.00215726
0.00284372
0.00355209
0.00425569
-0.000196646
-0.000172903
-0.000123915
-5.27289e-06
0.000207915
0.00053841
0.000986137
0.00153804
0.00216736
0.00284152
0.00354808
0.00423338
-0.000185284
-0.000160361
-0.000108023
1.38446e-05
0.000230459
0.000556978
0.00100092
0.00154753
0.00217048
0.00283456
0.00354904
0.00422106
0.005815
0.00659803
0.00722747
0.00768488
0.00795019
0.00800122
0.00780989
0.00734997
0.00661017
0.00563465
0.00475705
0.0043709
0.00562653
0.00635889
0.00694865
0.00737879
0.00763332
0.00769405
0.00754493
0.00717288
0.00659134
0.0057935
0.00517688
0.00482718
0.00546234
0.00615122
0.00670775
0.00711581
0.00736139
0.00743417
0.00732248
0.00702351
0.0065597
0.00593934
0.00544229
0.00517277
0.00532292
0.00597464
0.00650354
0.00689395
0.00713043
0.00721832
0.00713916
0.00690058
0.00653755
0.00602321
0.00563793
0.00541746
0.00520651
0.00582661
0.00633284
0.00670993
0.00694552
0.00704194
0.00698986
0.00679962
0.00650294
0.00609366
0.00578017
0.00558928
0.00511017
0.00570407
0.00619208
0.00655905
0.00679482
0.00689925
0.00686974
0.00671818
0.00647281
0.00614865
0.00588699
0.00576015
0.00503081
0.00560405
0.00607788
0.00643732
0.0066735
0.00678552
0.00677465
0.0066539
0.00644986
0.00619133
0.00596146
0.00584925
0.00496576
0.00552414
0.00598742
0.00634139
0.00657823
0.00669702
0.0067012
0.00660457
0.00643253
0.0062165
0.00602265
0.00592123
0.00491398
0.00546235
0.00591816
0.00626847
0.00650588
0.00663066
0.00664663
0.00656826
0.00642022
0.00623452
0.00606867
0.00597365
0.00487479
0.00541692
0.00586798
0.00621627
0.00645471
0.00658405
0.00660876
0.00654349
0.00641244
0.00624764
0.00610024
0.00601157
0.00484794
0.00538652
0.00583521
0.00618268
0.00642248
0.00655538
0.00658605
0.00652923
0.00640891
0.00625697
0.00612073
0.0060364
0.00483378
0.00537112
0.00581906
0.00616655
0.00640805
0.00654274
0.00657642
0.00652365
0.00640839
0.00626237
0.00613124
0.00604938
)
;

boundaryField
{
    rotor
    {
        type            zeroGradient;
    }
    stator
    {
        type            zeroGradient;
    }
    AMI1
    {
        type            cyclicAMI;
        value           nonuniform 0();
    }
    AMI2
    {
        type            cyclicAMI;
        value           nonuniform List<scalar> 
48
(
-0.00026135
-0.00262648
-0.00473057
-0.00633115
-0.0070523
-0.00651875
-0.00473487
-0.00219169
0.000135861
0.00203361
0.00368663
0.00522012
0.00657637
0.00770687
0.00860983
0.00926795
0.00961973
0.00962914
0.00918061
0.00823542
0.00686463
0.00528642
0.00372661
0.00204441
-0.000344832
-0.00271637
-0.00483087
-0.00643181
-0.00712718
-0.00655215
-0.00472971
-0.00215467
0.000181407
0.0020733
0.0037114
0.00522918
0.00657196
0.00769228
0.00858779
0.00924001
0.00958604
0.00959279
0.00914349
0.00820105
0.00683901
0.00527613
0.00373574
0.00207287
)
;
    }
    front
    {
        type            empty;
    }
    back
    {
        type            empty;
    }
    procBoundary0to1
    {
        type            processor;
        value           nonuniform List<scalar> 8(0.00248335 0.00313059 0.00356591 0.00369553 9.55014e-06 0.000450179 0.000701275 0.000510647);
    }
}


// ************************************************************************* //
