/*--------------------------------*- C++ -*----------------------------------*\
| =========                 |                                                 |
| \\      /  F ield         | OpenFOAM: The Open Source CFD Toolbox           |
|  \\    /   O peration     | Version:  v1606+                                |
|   \\  /    A nd           | Web:      www.OpenFOAM.com                      |
|    \\/     M anipulation  |                                                 |
\*---------------------------------------------------------------------------*/
FoamFile
{
    version     2.0;
    format      ascii;
    class       volVectorField;
    location    "1.3";
    object      U;
}
// * * * * * * * * * * * * * * * * * * * * * * * * * * * * * * * * * * * * * //

dimensions      [0 1 -1 0 0 0 0];

internalField   nonuniform List<vector> 
768
(
(0.0445159 -0.0145904 -4.31888e-21)
(0.0408935 -0.0192651 1.39277e-20)
(0.0333517 -0.0200362 -8.00194e-20)
(0.0220929 -0.0160773 7.25703e-20)
(0.00868881 -0.0069841 6.67658e-21)
(-0.00305431 0.00692471 5.26307e-20)
(-0.00969923 0.0227067 5.50602e-20)
(-0.00997676 0.0361074 1.85561e-20)
(-0.00336756 0.0445302 5.66625e-22)
(0.00825954 0.0471504 0)
(0.0221746 0.0444056 0)
(0.0354482 0.0374731 -1.62069e-20)
(0.0206047 -0.0294699 0)
(0.0152934 -0.0355419 0)
(0.00601195 -0.0347366 6.37679e-20)
(-0.00604778 -0.0289288 -2.34822e-20)
(-0.0184505 -0.018336 -2.06531e-20)
(-0.027869 -0.00328573 -1.12353e-20)
(-0.0302252 0.0118868 -3.54299e-20)
(-0.0250564 0.0246638 -2.98824e-21)
(-0.0140135 0.0327456 0)
(-9.48665e-05 0.0357225 0)
(0.0136698 0.0343264 -2.33038e-21)
(0.0253569 0.0296659 1.29835e-20)
(0.00836766 -0.0286868 0)
(0.00313162 -0.0378062 6.9909e-21)
(-0.00688049 -0.0378512 2.64893e-20)
(-0.0188247 -0.0318577 -4.67748e-20)
(-0.029203 -0.021581 -5.15342e-20)
(-0.0350358 -0.0083085 -2.08983e-20)
(-0.0343216 0.00554645 6.08468e-21)
(-0.0273309 0.0172093 4.51084e-21)
(-0.016275 0.0247486 9.22796e-21)
(-0.00383502 0.0278352 0)
(0.00765708 0.027351 2.25811e-21)
(0.0170692 0.0242218 7.82484e-21)
(0.00100798 -0.0256428 -3.30539e-21)
(0.0027272 -0.0307872 1.07237e-20)
(-0.00725266 -0.0321255 -3.26274e-20)
(-0.0180864 -0.0270563 5.53579e-20)
(-0.0264925 -0.0186976 4.27951e-21)
(-0.0304907 -0.00823331 0)
(-0.0293301 0.0028411 -3.9298e-21)
(-0.0235872 0.0122215 -2.58372e-21)
(-0.0150688 0.0185356 -7.85438e-21)
(-0.0056339 0.0215401 0)
(0.00320497 0.0216691 -1.28778e-20)
(0.0106496 0.0197285 -2.15836e-20)
(0.0460968 0.028031 6.96063e-23)
(0.0535243 0.0174688 1.58987e-20)
(0.0581325 0.00666069 0)
(0.0607069 -0.00404831 0)
(0.0617993 -0.0147075 5.83715e-20)
(0.0608836 -0.0256812 1.0063e-19)
(0.0562339 -0.0369259 1.49774e-19)
(0.0465142 -0.0471037 -3.6815e-20)
(0.0332596 -0.0539679 8.11022e-20)
(0.0198963 -0.0560089 1.9068e-20)
(0.00774655 -0.0530102 -8.69742e-20)
(-0.00414964 -0.0472184 0)
(0.034215 0.0229623 1.00596e-20)
(0.040273 0.0150541 1.12555e-20)
(0.043887 0.00644631 -3.2797e-20)
(0.0454504 -0.00263623 -1.83588e-20)
(0.0453329 -0.0121658 -5.84068e-20)
(0.0441011 -0.0220771 0)
(0.0425644 -0.0317432 -1.05895e-19)
(0.0398686 -0.0405669 -2.95712e-20)
(0.0334191 -0.0468102 -5.4247e-20)
(0.0221776 -0.047444 0)
(0.00757241 -0.0400346 6.67621e-20)
(-0.0101249 -0.0262545 0)
(0.0242616 0.0192647 6.06085e-21)
(0.0293259 0.0130987 -2.83385e-20)
(0.0324289 0.0061138 3.20616e-20)
(0.03372 -0.00142459 1.71688e-20)
(0.0333215 -0.00939499 -3.49389e-20)
(0.0312729 -0.0178377 1.74735e-20)
(0.0281485 -0.0265006 0)
(0.025941 -0.0343492 3.31181e-20)
(0.0255793 -0.0399498 2.82372e-20)
(0.0236127 -0.0404271 1.94328e-20)
(0.0156127 -0.0313904 -9.00633e-20)
(-0.00163456 -0.0125014 0)
(0.0166102 0.0161249 -1.16329e-20)
(0.0210333 0.0113323 3.96236e-20)
(0.023874 0.00565732 0)
(0.0250782 -0.000645868 -6.14563e-20)
(0.024592 -0.00739168 0)
(0.0222855 -0.0144743 -3.16838e-20)
(0.0179835 -0.0215774 -3.17987e-20)
(0.0125893 -0.02766 1.41336e-19)
(0.00936293 -0.0309194 -3.85863e-21)
(0.0101436 -0.0289798 -2.33947e-20)
(0.0110158 -0.0169438 6.95507e-20)
(0.00295991 0.00837615 -6.29776e-20)
(-0.0149282 -0.0446539 0)
(-0.019731 -0.0408071 5.70177e-20)
(-0.0203346 -0.0331483 0)
(-0.016157 -0.0216982 8.24512e-20)
(-0.00684039 -0.00822834 3.494e-20)
(0.00721408 0.00345183 -1.27043e-20)
(0.0229843 0.00992349 -1.68177e-20)
(0.0362699 0.00997462 6.47594e-21)
(0.0445219 0.00319758 2.43225e-21)
(0.0470109 -0.00847458 -1.84598e-20)
(0.0442019 -0.0223417 -7.62495e-21)
(0.0372821 -0.0355304 0)
(-0.0297923 -0.0207375 -2.71995e-21)
(-0.0359698 -0.0150809 3.23234e-21)
(-0.0349955 -0.00581424 -1.07078e-20)
(-0.0289974 0.00636777 0)
(-0.0181937 0.0188028 -3.78403e-20)
(-0.00304618 0.0280989 4.48394e-20)
(0.0121192 0.0302669 5.31612e-20)
(0.024794 0.0249275 0)
(0.0327544 0.0138016 -2.37127e-21)
(0.0356358 -9.52285e-05 -6.62732e-22)
(0.0342059 -0.0137808 -2.33364e-21)
(0.029557 -0.0253845 2.32858e-21)
(-0.0289463 -0.00823064 0)
(-0.0381794 -0.0028723 -7.19629e-21)
(-0.0381215 0.00707797 3.45449e-20)
(-0.0319456 0.0190826 -4.77601e-20)
(-0.0214805 0.0294487 3.61702e-20)
(-0.00810744 0.0351555 1.11583e-20)
(0.00573463 0.0342854 -2.97568e-20)
(0.0173125 0.027191 -6.08443e-21)
(0.0247575 0.0161055 4.41502e-22)
(0.0277662 0.00370538 1.01412e-20)
(0.0272649 -0.00771602 0)
(0.0241441 -0.0170598 5.03524e-21)
(-0.0258037 -0.000992708 -2.29571e-21)
(-0.0310367 -0.00262337 -9.98147e-21)
(-0.0323558 0.00736489 -6.34585e-20)
(-0.0271559 0.01828 5.65114e-20)
(-0.0186456 0.0266638 2.61545e-20)
(-0.00810479 0.030569 2.34364e-20)
(0.00296275 0.0293057 7.23895e-21)
(0.0122946 0.0234961 2.79737e-21)
(0.0185435 0.0149678 0)
(0.0214966 0.00556202 3.18042e-21)
(0.0216116 -0.00322873 -3.18191e-21)
(0.0196752 -0.0106251 -9.70302e-21)
(0.0278961 -0.0460918 -1.35067e-20)
(0.0174132 -0.0534509 -1.58714e-20)
(0.00668135 -0.0580093 3.56272e-20)
(-0.00396841 -0.0605482 3.85689e-20)
(-0.0145912 -0.0616248 -6.06684e-20)
(-0.0255429 -0.0607238 5.80754e-20)
(-0.0367701 -0.0561403 0)
(-0.0469525 -0.0465167 6.57955e-20)
(-0.053842 -0.0333582 0)
(-0.0559307 -0.0200784 1.07706e-19)
(-0.053003 -0.00799138 -3.2325e-20)
(-0.0473183 0.00386214 -2.09528e-20)
(0.0228931 -0.0341721 -3.49219e-21)
(0.0150414 -0.0401844 1.82389e-20)
(0.00648792 -0.0437734 -3.27142e-20)
(-0.00255603 -0.045329 -5.20781e-20)
(-0.0120705 -0.045211 3.46012e-22)
(-0.0219898 -0.0439906 -9.47983e-20)
(-0.0316624 -0.0424981 -1.03197e-19)
(-0.0405016 -0.03988 -9.36152e-20)
(-0.0467789 -0.0335263 -1.0768e-19)
(-0.0474597 -0.0223764 -8.66034e-20)
(-0.0401046 -0.00783661 0)
(-0.0264204 0.0098199 0)
(0.0192217 -0.0242016 1.21027e-20)
(0.0130984 -0.0292417 -2.18453e-20)
(0.00615628 -0.0323375 3.94451e-20)
(-0.0013566 -0.0336385 3.00443e-21)
(-0.00932162 -0.0332546 6.86279e-20)
(-0.0177777 -0.0312195 3.39694e-20)
(-0.026467 -0.0281175 1.017e-19)
(-0.0343436 -0.0259631 2.09328e-19)
(-0.0399787 -0.0256809 7.6889e-20)
(-0.0404951 -0.0237835 -8.60873e-20)
(-0.0314936 -0.0158305 0)
(-0.0126735 0.00136802 0)
(0.0161003 -0.0165537 -2.32258e-20)
(0.0113387 -0.0209668 6.95508e-21)
(0.0056932 -0.0238118 -6.98157e-21)
(-0.000594125 -0.0250327 8.0022e-20)
(-0.00734165 -0.0245674 -8.28676e-20)
(-0.0144422 -0.0222757 -3.48848e-20)
(-0.0215714 -0.0179762 1.52973e-21)
(-0.0276829 -0.0125948 2.66524e-20)
(-0.0309687 -0.00942557 -1.00932e-19)
(-0.0290527 -0.0102773 8.47193e-20)
(-0.0170301 -0.0111787 -7.19149e-20)
(0.00820958 -0.00311184 0)
(0.00940822 -0.0154989 3.23353e-21)
(0.0064344 -0.0221957 -1.04985e-20)
(-0.00443883 -0.0249634 1.77902e-20)
(-0.0134217 -0.0210979 0)
(-0.0203318 -0.0148563 4.13163e-20)
(-0.023772 -0.00694774 1.31915e-20)
(-0.0233735 0.00150776 -8.80162e-21)
(-0.0196313 0.00886158 3.67083e-21)
(-0.0136751 0.014116 0)
(-0.00674816 0.0169593 3.08665e-21)
(0.000161429 0.0174686 1.1552e-20)
(0.00631689 0.0162666 9.3384e-21)
(0.00999973 -0.0117435 -4.09036e-21)
(0.00672171 -0.0171393 3.0056e-21)
(-0.00304415 -0.0194647 -2.03762e-20)
(-0.0102684 -0.0167958 0)
(-0.0160063 -0.0120429 0)
(-0.0190653 -0.00584274 -2.18151e-20)
(-0.0191806 0.000751638 -1.66551e-22)
(-0.0167106 0.00665283 -5.11024e-21)
(-0.01235 0.0110456 2.02322e-21)
(-0.0069632 0.0135963 2.31331e-20)
(-0.00127795 0.0142846 -2.99592e-21)
(0.00400722 0.013462 4.31569e-21)
(0.00813951 -0.0100108 3.97312e-21)
(0.00502955 -0.0141702 0)
(-0.00277213 -0.015629 0)
(-0.00866521 -0.0137971 0)
(-0.0133978 -0.0100628 0)
(-0.015953 -0.00509877 -7.78058e-21)
(-0.0161845 0.000216689 1.30202e-21)
(-0.0143262 0.00505466 7.19533e-21)
(-0.0108573 0.00876202 0)
(-0.00642497 0.0110137 -1.95792e-20)
(-0.00159568 0.0117496 -1.13948e-20)
(0.00300535 0.0111276 -6.0667e-21)
(0.00646773 -0.00860325 -4.09068e-21)
(0.00338513 -0.0119115 -7.58602e-21)
(-0.00281086 -0.0128365 9.64792e-21)
(-0.00765434 -0.0114994 -8.51701e-21)
(-0.011538 -0.00856063 0)
(-0.0136368 -0.00455785 3.83888e-21)
(-0.0138495 -0.000209621 2.87554e-21)
(-0.0123284 0.00380443 -9.89046e-21)
(-0.00943211 0.00694615 2.49122e-21)
(-0.00566984 0.00891617 -2.80555e-21)
(-0.00150418 0.00963689 1.57062e-20)
(0.00253229 0.00915586 0)
(0.0051459 -0.00731638 2.2491e-22)
(0.00219962 -0.0100127 5.56422e-21)
(-0.00288313 -0.0106654 -9.25184e-21)
(-0.00688279 -0.00965937 1.57694e-20)
(-0.0100873 -0.00735301 -3.92459e-21)
(-0.0118278 -0.00412262 2.95388e-21)
(-0.0120061 -0.000558947 -1.37255e-21)
(-0.0107219 0.00277764 2.04104e-20)
(-0.00825132 0.00543816 -2.62307e-21)
(-0.00500657 0.00715349 0)
(-0.00137469 0.00783134 1.7148e-21)
(0.00218605 0.00748423 -9.22789e-21)
(0.00400941 -0.00610356 3.65329e-21)
(0.00129219 -0.00837487 0)
(-0.00294375 -0.00890834 0)
(-0.00627801 -0.00816379 -6.53239e-21)
(-0.00894739 -0.00636091 6.31048e-21)
(-0.0104013 -0.00376219 -1.73275e-21)
(-0.0105421 -0.0008482 -3.14299e-22)
(-0.00943691 0.00191987 -1.71171e-20)
(-0.00730143 0.00416795 2.70614e-21)
(-0.00447384 0.00565368 -2.63529e-21)
(-0.00127724 0.00627707 4.28752e-21)
(0.00188285 0.00604044 -1.56062e-21)
(0.00304105 -0.00500522 5.79347e-21)
(0.000562659 -0.00695068 6.93244e-21)
(-0.00299787 -0.00745449 -1.66686e-21)
(-0.00581061 -0.00693466 -1.42528e-21)
(-0.00805396 -0.00554333 -1.46334e-21)
(-0.00926982 -0.00346627 1.66119e-21)
(-0.00936833 -0.00109322 -1.65761e-21)
(-0.00839396 0.00119184 0)
(-0.00652242 0.00308745 0)
(-0.00403416 0.00436884 1.55328e-20)
(-0.0011999 0.00494201 2.56055e-21)
(0.0016243 0.00477445 7.03026e-21)
(0.0022073 -0.00402407 -5.64428e-21)
(-4.63463e-05 -0.00571424 -1.02376e-21)
(-0.00306411 -0.00623383 4.47025e-21)
(-0.00546027 -0.00591198 4.40564e-21)
(-0.00735944 -0.00486475 -9.17219e-23)
(-0.00837506 -0.00322291 1.94019e-21)
(-0.00842894 -0.00130878 -3.72439e-21)
(-0.00755084 0.000569566 1.786e-21)
(-0.0058864 0.00215851 2.64935e-20)
(-0.00367426 0.00325646 -3.7774e-20)
(-0.00114994 0.00378552 4.02503e-21)
(0.00139096 0.00366449 -8.23819e-21)
(0.00148022 -0.00316273 3.76474e-21)
(-0.000583195 -0.00465871 -4.21255e-21)
(-0.0031738 -0.00521576 -4.35703e-21)
(-0.00523549 -0.00506978 -1.50835e-21)
(-0.00685502 -0.00431268 0)
(-0.00770401 -0.00304106 6.07025e-21)
(-0.00771695 -0.00151602 1.83398e-21)
(-0.00691636 1.85712e-05 9.2252e-22)
(-0.00542515 0.00133908 -5.4683e-20)
(-0.00344259 0.00227582 1.72157e-20)
(-0.00118386 0.00275811 0)
(0.00111268 0.00269165 6.53228e-21)
(0.000804342 -0.00241804 -7.98829e-21)
(-0.00114933 -0.00380863 0)
(-0.0034308 -0.00443698 -1.65423e-22)
(-0.00524424 -0.00445028 -1.20978e-22)
(-0.0066477 -0.00393897 6.33728e-21)
(-0.00736409 -0.00297987 1.69513e-21)
(-0.00734667 -0.00177581 -4.07119e-21)
(-0.00661003 -0.000526769 2.00435e-20)
(-0.00525625 0.000574777 2.54516e-20)
(-0.00345088 0.00138313 1.44499e-20)
(-0.00138924 0.00182938 2.36501e-21)
(0.000734311 0.0018358 0)
(0.000109467 -0.00179424 3.68327e-21)
(-0.00189158 -0.0032423 0)
(-0.00401508 -0.00400935 0)
(-0.00568023 -0.00417137 -3.5626e-22)
(-0.00691324 -0.00383733 -5.12062e-21)
(-0.00748826 -0.00309333 -6.30052e-21)
(-0.00736662 -0.002114 -1.16714e-20)
(-0.0065701 -0.0010654 -3.29797e-20)
(-0.00519409 -0.00011618 -2.68324e-21)
(-0.00338594 0.000598161 -1.87021e-20)
(-0.00133952 0.00102013 2.30514e-21)
(0.000762965 0.00107973 0)
(-0.000518356 -0.00103283 3.13984e-21)
(-0.0022972 -0.00231163 0)
(-0.00392211 -0.00307146 0)
(-0.00507274 -0.00327097 4.39345e-22)
(-0.00572348 -0.00302525 -4.39322e-22)
(-0.00574471 -0.00244567 2.24023e-21)
(-0.00513982 -0.00169143 -2.32397e-21)
(-0.00398558 -0.000911833 1.73948e-20)
(-0.00242058 -0.000244025 0)
(-0.000600004 0.00021071 -1.81104e-20)
(0.00128734 0.000415134 -1.76091e-20)
(0.00307244 0.000343291 5.88833e-21)
(0.011458 0.0135421 1.85211e-22)
(0.0154488 0.00968549 -2.5381e-20)
(0.0180997 0.00498119 0)
(0.0192654 -0.000314754 4.49002e-20)
(0.0187907 -0.00596953 7.45301e-20)
(0.0164577 -0.011782 3.20578e-20)
(0.0119541 -0.0172673 2.97485e-20)
(0.00530141 -0.0212539 -1.11548e-19)
(-0.00166476 -0.0215558 0)
(-0.00515116 -0.0161241 -6.67081e-20)
(-0.00364547 -0.00325561 5.65264e-20)
(0.00478297 0.0108371 6.09191e-20)
(0.0085191 0.0113163 1.03118e-20)
(0.0121036 0.00812753 0)
(0.0145182 0.00416811 5.02189e-20)
(0.0155905 -0.000299125 0)
(0.0151449 -0.00501688 -2.1942e-21)
(0.0129331 -0.00970108 1.11464e-19)
(0.00866125 -0.0138337 2.69493e-20)
(0.00242077 -0.0161936 -1.30457e-19)
(-0.00466243 -0.0146767 0)
(-0.00915925 -0.00795293 6.38609e-20)
(-0.00730095 0.00365773 -5.34872e-20)
(0.00284226 0.00968958 0)
(0.00696876 0.00938992 -4.93381e-21)
(0.0101415 0.00671351 2.16072e-20)
(0.0122832 0.00335753 -4.87801e-20)
(0.0132202 -0.000418611 6.31868e-20)
(0.012796 -0.00434957 -2.81275e-20)
(0.010812 -0.00810782 -6.8623e-20)
(0.00704647 -0.0111789 -1.54853e-19)
(0.00167097 -0.0125634 1.26416e-19)
(-0.00428193 -0.01062 0)
(-0.00782728 -0.0047445 -6.51491e-20)
(-0.00701264 0.00314266 -2.0514e-20)
(-0.000391839 0.00526764 0)
(0.0060281 0.0077228 -2.44368e-21)
(0.0088228 0.00547214 -2.39551e-20)
(0.0107095 0.0026348 5.41183e-21)
(0.011518 -0.000550142 -1.41354e-21)
(0.0111244 -0.00381209 -5.05537e-20)
(0.00940224 -0.00683541 0)
(0.0062362 -0.00913267 1.24493e-19)
(0.00182642 -0.0099744 -2.4282e-20)
(-0.00299862 -0.00824565 0)
(-0.00564746 -0.00372696 1.67453e-19)
(-0.00488515 0.00143872 0)
(0.000123631 0.00332951 0)
(0.00529173 0.00628871 -8.68242e-21)
(0.00777287 0.00440336 0)
(0.00944565 0.0020157 3.12436e-20)
(0.0101585 -0.000653232 -4.65017e-20)
(0.00981012 -0.00335322 -2.80701e-22)
(0.00833576 -0.00578452 1.05933e-19)
(0.00571322 -0.00752773 -2.32201e-20)
(0.00218061 -0.00805959 -6.77809e-20)
(-0.00161963 -0.00667127 2.12283e-20)
(-0.00372522 -0.00327902 -8.31856e-20)
(-0.00352458 0.000361885 -3.94609e-20)
(-0.000787579 0.00124134 1.93253e-20)
(0.00465663 0.00505708 8.44713e-21)
(0.00688094 0.00348584 0)
(0.00838435 0.00148639 -4.10724e-20)
(0.00902943 -0.000736807 1.09668e-20)
(0.00873691 -0.00296038 -1.09839e-20)
(0.00748691 -0.00491025 -1.14104e-19)
(0.00530353 -0.00624001 8.97072e-20)
(0.00246251 -0.00657469 1.10792e-19)
(-0.000519771 -0.00547155 0)
(-0.00227153 -0.00295188 1.97902e-20)
(-0.00236951 -0.000353454 -1.98558e-20)
(-0.000568099 0.00054965 0)
(0.00411718 0.00398915 2.11915e-21)
(0.00612572 0.00268739 -1.986e-20)
(0.00749012 0.00102815 0)
(0.00809058 -0.000814006 0)
(0.00786318 -0.00262393 0)
(0.00680679 -0.00418395 -2.16427e-20)
(0.00497436 -0.00519415 -6.53928e-20)
(0.00265103 -0.00538728 -8.453e-20)
(0.000256215 -0.00450325 2.01692e-20)
(-0.0012492 -0.00263112 -7.85186e-22)
(-0.00156404 -0.000722319 -1.73236e-19)
(-0.000622215 -8.06755e-05 -1.51081e-19)
(0.00364625 0.00305085 7.67127e-21)
(0.00546837 0.0019827 2.17423e-20)
(0.00672316 0.000625257 -4.46925e-21)
(0.00729721 -0.000879058 1.00405e-20)
(0.00713514 -0.0023407 6.10463e-20)
(0.00625046 -0.00357427 7.23156e-20)
(0.00470951 -0.00432733 -8.27271e-20)
(0.00277685 -0.00441777 1.84755e-19)
(0.000795136 -0.00369623 0)
(-0.000527149 -0.00229493 0)
(-0.000985181 -0.000881102 1.30887e-19)
(-0.00054318 -0.000341799 1.70665e-20)
(0.0031715 0.0022256 -7.47558e-21)
(0.00484332 0.00136538 -4.30321e-21)
(0.0060191 0.000276964 4.3039e-21)
(0.00658609 -0.000937745 0)
(0.00650005 -0.00209995 -1.57764e-19)
(0.00578249 -0.00305591 -1.00732e-19)
(0.00449335 -0.00359921 8.08258e-20)
(0.00286737 -0.00361584 -7.93339e-20)
(0.00119238 -0.0030186 1.96576e-20)
(4.81846e-06 -0.00195427 1.86449e-20)
(-0.0005583 -0.000917059 -1.86735e-20)
(-0.000434193 -0.000448998 1.44372e-19)
(0.00266256 0.00149374 -7.17421e-21)
(0.00425031 0.000820895 0)
(0.00540225 -4.50188e-05 -3.45083e-20)
(0.00600426 -0.00101288 9.34177e-21)
(0.0060218 -0.00192525 5.75037e-20)
(0.00547532 -0.00265057 -9.83413e-21)
(0.0044103 -0.00303906 -3.89507e-20)
(0.00303932 -0.00300035 1.34749e-19)
(0.001596 -0.00250639 -1.32604e-19)
(0.000494502 -0.00169183 -4.63324e-22)
(-0.000160867 -0.000917117 -1.82494e-20)
(-0.000292937 -0.00048273 0)
(0.00267977 0.000805609 5.1562e-21)
(0.00426547 0.000269766 -2.50657e-20)
(0.00542963 -0.000447446 6.31076e-20)
(0.00607323 -0.00122762 0)
(0.00616514 -0.00196481 -9.32257e-21)
(0.00573554 -0.00252072 9.32002e-21)
(0.00482151 -0.00279762 5.69677e-20)
(0.00361317 -0.00272115 -2.81441e-19)
(0.00229387 -0.00230505 1.47465e-19)
(0.00118162 -0.0016552 0)
(0.000362662 -0.00100671 0)
(-8.07333e-05 -0.000490014 0)
(0.00458153 2.52642e-05 1.34683e-20)
(0.00571781 -0.0004567 2.99468e-20)
(0.00644068 -0.00103365 -6.48058e-20)
(0.00670423 -0.00160392 8.74429e-21)
(0.00651974 -0.00209619 -1.77494e-20)
(0.00593169 -0.00241089 -4.55468e-20)
(0.00499672 -0.00249278 -3.64779e-20)
(0.00386074 -0.00231868 1.82988e-20)
(0.00266764 -0.00192205 -1.25172e-19)
(0.00161158 -0.00138688 -1.76622e-20)
(0.000762915 -0.000829344 0)
(0.000153211 -0.000325012 -1.34923e-19)
(-0.01553 -0.00940958 2.24624e-21)
(-0.0223102 -0.00643065 -1.03694e-20)
(-0.0251148 0.00448246 2.41992e-20)
(-0.0211793 0.0135495 3.13947e-20)
(-0.0148378 0.0204608 -4.25841e-20)
(-0.00687753 0.023837 -3.45431e-20)
(0.00159422 0.023368 4.03884e-21)
(0.00891572 0.0195826 -1.1116e-21)
(0.0141262 0.0136182 1.63646e-21)
(0.0169358 0.00670807 0)
(0.0174292 -0.000172045 0)
(0.0162303 -0.00629603 1.24589e-22)
(-0.0117542 -0.0100175 0)
(-0.0171915 -0.00674399 1.04263e-21)
(-0.0195569 0.00306232 0)
(-0.016852 0.0103504 -2.36452e-20)
(-0.0120331 0.0160986 4.53605e-21)
(-0.00578527 0.0191248 -7.19212e-21)
(0.000817011 0.0191906 5.47547e-21)
(0.00669401 0.0166859 1.70704e-22)
(0.0110561 0.0123142 0)
(0.0135822 0.00693552 -2.00928e-20)
(0.0142575 0.00126902 0)
(0.0134368 -0.00399503 8.72179e-21)
(-0.0100243 -0.00815729 0)
(-0.0142084 -0.00505092 1.14128e-20)
(-0.0156901 0.00278429 -2.56773e-21)
(-0.0138351 0.00872281 0)
(-0.0100573 0.0134654 -1.18437e-20)
(-0.00505885 0.016 -1.22493e-21)
(0.000263374 0.0161967 -1.02632e-21)
(0.00508676 0.0143124 -9.32507e-21)
(0.00877262 0.0108327 2.2745e-21)
(0.011006 0.00640418 3.92303e-20)
(0.0117311 0.00158722 1.32302e-20)
(0.0111102 -0.00299922 -4.18638e-21)
(-0.00861594 -0.00648109 4.79557e-21)
(-0.0119439 -0.00339969 0)
(-0.0128807 0.00282201 0)
(-0.0115273 0.00769745 -1.15725e-20)
(-0.0085574 0.0115882 1.39897e-20)
(-0.00452728 0.0136748 -1.73021e-22)
(-0.000175682 0.0138625 1.72278e-22)
(0.00382896 0.0123209 6.194e-21)
(0.00695547 0.00941482 1.31556e-20)
(0.00891251 0.00565414 1.29313e-22)
(0.00962449 0.00149663 -1.28612e-20)
(0.00914346 -0.00253007 3.90898e-21)
(-0.00732746 -0.00515617 -4.66436e-21)
(-0.010039 -0.00220795 0)
(-0.0106991 0.00289401 -1.82875e-21)
(-0.00968035 0.00691538 1.70352e-20)
(-0.00735124 0.0101238 0)
(-0.00410368 0.0118563 -6.82851e-22)
(-0.000535576 0.0120193 9.02907e-21)
(0.00279612 0.0107186 -1.7492e-20)
(0.00544638 0.00823915 -8.81617e-21)
(0.00715228 0.00499465 -4.16091e-20)
(0.0078232 0.00136815 0)
(0.00747513 -0.00218607 -7.54607e-21)
(-0.00611253 -0.00401708 -1.10996e-21)
(-0.00839574 -0.00129636 5.48236e-21)
(-0.00893378 0.00295462 0)
(-0.00817939 0.00630376 -1.90144e-21)
(-0.00636133 0.008976 0)
(-0.00375331 0.0104224 -1.05296e-21)
(-0.000832241 0.0105529 -8.0639e-21)
(0.00193322 0.00943542 1.30477e-20)
(0.00417478 0.00729242 1.60048e-20)
(0.00565366 0.00446461 1.83515e-20)
(0.00627132 0.0012714 -1.17599e-20)
(0.00603382 -0.00188452 3.64348e-21)
(-0.00501223 -0.00304658 0)
(-0.00696778 -0.000564535 -1.14777e-20)
(-0.00747349 0.00300866 -8.26022e-21)
(-0.00694672 0.00583148 -3.22701e-21)
(-0.00554487 0.00807736 0)
(-0.00345882 0.00928807 3.8088e-21)
(-0.00108191 0.00937754 9.61481e-23)
(0.00120169 0.00839362 1.05705e-21)
(0.00309231 0.00651512 -1.5698e-20)
(0.00436903 0.00402678 0)
(0.00493793 0.00119456 8.28071e-23)
(0.00476945 -0.00162715 1.11526e-28)
(-0.0040296 -0.00221095 6.12623e-21)
(-0.00572803 4.5837e-05 1.38122e-20)
(-0.00624821 0.00307437 6.34547e-21)
(-0.00592192 0.0054778 3.19566e-21)
(-0.00486674 0.0073783 0)
(-0.00321765 0.00839079 1.8534e-21)
(-0.00130136 0.00843759 -3.60122e-21)
(0.000577471 0.0075518 -9.85162e-22)
(0.00216261 0.00588093 2.73507e-21)
(0.00325638 0.00366799 0)
(0.00378283 0.00114503 1.10697e-20)
(0.00366045 -0.00139424 6.67908e-21)
(-0.00316684 -0.00148236 -5.68672e-22)
(-0.00466884 0.000584665 -5.83751e-21)
(-0.00522743 0.00318318 0)
(-0.00507825 0.00525058 -1.48837e-21)
(-0.00431567 0.00687103 8.08807e-22)
(-0.00303982 0.00771685 -4.50634e-21)
(-0.0015114 0.00772434 1.09775e-20)
(2.41922e-05 0.00691757 -1.98495e-20)
(0.00134295 0.00542144 0)
(0.00227558 0.00343762 -1.71398e-20)
(0.00275669 0.0011794 0)
(0.0026884 -0.0011162 -1.29587e-20)
(-0.00242064 -0.000805291 -5.26911e-21)
(-0.00381573 0.00115235 5.09003e-22)
(-0.00444616 0.00343987 -4.03845e-21)
(-0.00445745 0.00525743 -1.27302e-21)
(-0.00394259 0.00666137 -3.45629e-21)
(-0.00298015 0.007375 6.70816e-21)
(-0.00177237 0.00735301 -1.66789e-21)
(-0.000523233 0.0066107 1.48997e-20)
(0.000577388 0.00525277 2.69684e-21)
(0.00138329 0.00344593 3.10687e-20)
(0.0018291 0.00138452 -8.09482e-21)
(0.00183299 -0.000738446 6.28908e-21)
(-0.00179561 -0.000109524 0)
(-0.00324698 0.00189491 0)
(-0.00401571 0.0040229 3.1671e-21)
(-0.0041766 0.00569046 0)
(-0.00384011 0.00692301 5.39864e-21)
(-0.00309335 0.00749473 -1.57875e-20)
(-0.00211149 0.00736873 -7.12242e-21)
(-0.0010627 0.00656735 1.58543e-20)
(-0.000113967 0.00518714 0)
(0.000598938 0.00337744 -2.61949e-23)
(0.00102075 0.00133184 3.05674e-20)
(0.00107716 -0.00076972 0)
(-0.00103314 0.000518557 3.63995e-21)
(-0.00231308 0.0022989 4.41809e-21)
(-0.00307348 0.00392522 -3.7256e-22)
(-0.0032721 0.00507551 0)
(-0.00302471 0.00572414 -1.0925e-21)
(-0.00244349 0.00574172 1.54111e-20)
(-0.00168849 0.00513268 -2.16226e-21)
(-0.000908455 0.00397523 -1.97247e-20)
(-0.00024128 0.00240836 2.58469e-21)
(0.000212149 0.000587915 -1.57979e-20)
(0.000415991 -0.0012962 -3.94983e-20)
(0.000342046 -0.00307807 5.86622e-21)
(0.0135249 -0.0114181 5.74371e-21)
(0.00969148 -0.0154056 -6.50046e-21)
(0.00500624 -0.018064 6.5209e-21)
(-0.000278243 -0.0192454 5.71149e-20)
(-0.00593704 -0.0187893 5.94144e-20)
(-0.0117663 -0.0164696 -6.18529e-20)
(-0.017277 -0.0119625 -2.84384e-20)
(-0.0212803 -0.00529562 -8.29493e-20)
(-0.0215962 0.00166466 1.97538e-19)
(-0.016171 0.00510993 0)
(-0.00330035 0.00357321 7.08616e-20)
(0.0107987 -0.00479333 0)
(0.0113038 -0.00849464 5.22493e-21)
(0.00813102 -0.0120779 0)
(0.00418419 -0.0144993 0)
(-0.000275182 -0.0155837 -2.09635e-21)
(-0.00499593 -0.0151523 -5.76255e-20)
(-0.00969086 -0.0129511 -1.39142e-19)
(-0.0138433 -0.00867874 -8.07744e-20)
(-0.016218 -0.00241846 0)
(-0.0147051 0.0046879 -9.62669e-20)
(-0.00796882 0.00917931 2.01185e-20)
(0.0036641 0.00728892 3.99447e-20)
(0.00969792 -0.00285272 9.20933e-20)
(0.00938127 -0.00695401 -4.78739e-21)
(0.00671449 -0.010126 5.71294e-21)
(0.00336857 -0.0122729 4.1337e-20)
(-0.000402877 -0.0132187 -8.89535e-20)
(-0.00433713 -0.0128056 -7.82103e-20)
(-0.00809943 -0.0108309 -9.7294e-21)
(-0.0111864 -0.00706336 1.57321e-19)
(-0.0125836 -0.0016719 7.32938e-20)
(-0.0106405 0.0043011 -9.30052e-20)
(-0.0047496 0.0078521 0)
(0.00315512 0.00701938 -7.64151e-20)
(0.00528026 0.000384611 4.23732e-21)
(0.00771674 -0.00601892 9.19696e-21)
(0.00547129 -0.0088133 0)
(0.00264284 -0.0107046 -4.57182e-20)
(-0.000537834 -0.011518 1.35762e-20)
(-0.0038068 -0.0111332 5.07029e-20)
(-0.00683133 -0.00941735 2.12814e-19)
(-0.00914238 -0.00624876 -1.2241e-19)
(-0.00999082 -0.00183235 -1.19263e-19)
(-0.00825973 0.00300652 2.0392e-19)
(-0.00373092 0.005664 -8.40945e-20)
(0.0014467 0.00489429 0)
(0.00333828 -0.000127679 -7.39249e-20)
(0.00628407 -0.00528609 -8.7469e-21)
(0.00440247 -0.00776737 0)
(0.00202047 -0.00944459 0)
(-0.000644791 -0.0101588 3.43511e-20)
(-0.00334807 -0.00981851 1.16161e-19)
(-0.00578413 -0.00834924 -1.07802e-19)
(-0.00753415 -0.00572458 9.49317e-20)
(-0.00807249 -0.0021881 -9.07622e-20)
(-0.00668285 0.00162271 -1.74999e-19)
(-0.00328379 0.00373594 -8.47456e-22)
(0.00036738 0.00353102 7.9094e-20)
(0.00124957 0.000785425 0)
(0.00505349 -0.00465383 4.21146e-21)
(0.00348459 -0.00687826 -1.84697e-20)
(0.00148882 -0.00838547 0)
(-0.000732649 -0.00903138 0)
(-0.00295402 -0.00874581 -1.01408e-19)
(-0.00491148 -0.00749803 -7.83834e-20)
(-0.00624468 -0.00531412 0)
(-0.00658561 -0.00247014 8.83245e-20)
(-0.00548197 0.00052109 6.42632e-20)
(-0.00295675 0.00227829 1.01078e-19)
(-0.000351677 0.0023742 -1.54878e-19)
(0.000555719 0.000566203 1.53155e-19)
(0.00398572 -0.00411595 -1.11457e-28)
(0.0026866 -0.00612522 2.26176e-20)
(0.00102836 -0.00749287 -4.64564e-21)
(-0.000810718 -0.00809416 -1.04424e-20)
(-0.00262047 -0.00787172 2.11882e-20)
(-0.00418554 -0.00681697 7.64321e-20)
(-0.00519697 -0.00498435 0)
(-0.00539774 -0.00265686 0)
(-0.004512 -0.000256643 8.20394e-20)
(-0.00263562 0.00125243 0)
(-0.000722064 0.00156732 5.69543e-20)
(-7.69355e-05 0.000622035 -1.29832e-19)
(0.00304794 -0.00364658 7.64702e-21)
(0.00198233 -0.005469 1.70054e-20)
(0.000624113 -0.00672695 3.68726e-20)
(-0.000876767 -0.00730222 0)
(-0.00234009 -0.00714273 1.02983e-20)
(-0.0035762 -0.00626041 -3.10432e-20)
(-0.00433122 -0.00471758 4.13447e-20)
(-0.00442719 -0.00278205 -1.22378e-19)
(-0.00370306 -0.000798194 -5.96677e-20)
(-0.0022987 0.000527841 0)
(-0.000881409 0.000986787 1.50569e-19)
(-0.000338235 0.00054255 1.48133e-19)
(0.00222331 -0.00317262 -1.48352e-20)
(0.00136506 -0.00484482 -1.65691e-20)
(0.000275263 -0.0060238 -3.59162e-20)
(-0.000937859 -0.0065913 9.64019e-21)
(-0.0021011 -0.00650737 2.7349e-22)
(-0.00305631 -0.00579228 -9.91031e-21)
(-0.00360619 -0.00449904 0)
(-0.0036225 -0.00287394 3.68903e-22)
(-0.00302452 -0.00119692 -1.91084e-20)
(-0.00195739 -5.72389e-06 1.70162e-19)
(-0.000917336 0.000558541 -1.46518e-19)
(-0.000446088 0.000433518 -1.44108e-19)
(0.00149149 -0.00266542 7.1994e-21)
(0.000821513 -0.00425288 -1.58839e-20)
(-4.89941e-05 -0.00540723 3.44098e-20)
(-0.001014 -0.00601033 0)
(-0.00192808 -0.00602974 0)
(-0.00265194 -0.00548338 -5.78687e-20)
(-0.00304429 -0.00441509 5.81853e-20)
(-0.0030062 -0.00304644 2.30886e-19)
(-0.00250927 -0.00160132 1.50937e-19)
(-0.00169412 -0.000495791 1.84574e-20)
(-0.000916624 0.000160474 -1.82125e-20)
(-0.000480015 0.000292411 0)
(0.000803553 -0.00268582 0)
(0.000269278 -0.0042694 1.54886e-20)
(-0.00045154 -0.00543488 -3.35442e-20)
(-0.00122867 -0.00607941 9.03165e-21)
(-0.0019678 -0.00617053 -9.03099e-21)
(-0.00252252 -0.00574097 7.52906e-20)
(-0.00279931 -0.00482352 -7.56151e-20)
(-0.00272449 -0.00361713 -1.49904e-19)
(-0.00230513 -0.00229641 -1.47137e-19)
(-0.00165453 -0.0011801 -1.43644e-19)
(-0.00100444 -0.000361965 1.58337e-19)
(-0.000487141 8.06873e-05 -1.74654e-20)
(2.42858e-05 -0.00458522 1.34239e-20)
(-0.000457156 -0.00571705 -2.98132e-20)
(-0.00103469 -0.00643922 0)
(-0.00160288 -0.00670082 -6.84246e-20)
(-0.00209523 -0.00651473 -7.11043e-20)
(-0.00240741 -0.00592597 0)
(-0.00248972 -0.00498819 1.81808e-20)
(-0.00231496 -0.00385493 -3.61517e-20)
(-0.00191773 -0.00266102 3.63134e-22)
(-0.00138207 -0.00160529 1.76241e-20)
(-0.000825167 -0.000759126 -2.72973e-19)
(-0.000322623 -0.000151936 0)
)
;

boundaryField
{
    rotor
    {
        type            movingWallVelocity;
        value           nonuniform 0();
    }
    stator
    {
        type            movingWallVelocity;
        value           nonuniform List<vector> 
96
(
(-1.07797e-16 -1.00963e-16 -1.99493e-16)
(-1.9073e-15 -1.56528e-15 0)
(1.51125e-15 1.08295e-15 -1.99493e-16)
(0 0 0)
(0 0 0)
(1.1999e-15 5.43666e-16 0)
(0 0 0)
(-7.30731e-16 -2.21665e-16 -1.99493e-16)
(7.05869e-16 1.64585e-16 0)
(0 0 0)
(-3.11354e-16 -3.06656e-17 1.99493e-16)
(4.74003e-18 1.55172e-19 -2.5835e-33)
(-1.0912e-16 3.57221e-18 -1.99493e-16)
(0 0 0)
(-5.13e-16 8.46966e-17 -1.99493e-16)
(7.56826e-16 -1.76467e-16 -1.99493e-16)
(7.30731e-16 -2.21665e-16 0)
(1.39792e-15 -5.2614e-16 -3.98986e-16)
(1.1999e-15 -5.43666e-16 0)
(1.2413e-15 -6.6349e-16 -1.99493e-16)
(-1.43136e-15 8.90077e-16 -1.99493e-16)
(0 0 0)
(-3.13056e-15 2.56918e-15 -3.98986e-16)
(-1.59253e-15 1.49157e-15 -1.99493e-16)
(1.49157e-15 -1.59253e-15 3.0155e-32)
(1.28459e-15 -1.56528e-15 -1.99493e-16)
(-7.55624e-16 1.05447e-15 -1.99493e-16)
(1.74397e-16 -2.80453e-16 -1.99493e-16)
(-6.6349e-16 1.2413e-15 0)
(5.99948e-16 -1.32411e-15 0)
(5.2614e-16 -1.39792e-15 0)
(0 0 -1.99493e-16)
(0 0 0)
(0 0 0)
(0 0 0)
(0 0 0)
(3.22608e-34 -1.05611e-35 -1.99493e-16)
(0 0 0)
(-4.35533e-17 -2.63799e-16 0)
(-1.76467e-16 -7.56826e-16 -1.99493e-16)
(0 0 0)
(3.9605e-16 1.05228e-15 0)
(5.43666e-16 1.1999e-15 0)
(7.09286e-16 1.32698e-15 0)
(7.1568e-16 1.15091e-15 1.99493e-16)
(-7.55624e-16 -1.05447e-15 0)
(1.28459e-15 1.56528e-15 3.19376e-32)
(0 0 -1.99493e-16)
(0 0 0)
(-7.97973e-16 7.97973e-16 0)
(-1.59595e-15 1.59595e-15 0)
(0 0 0)
(-7.97973e-16 7.97973e-16 0)
(7.97973e-16 -7.97973e-16 -1.99493e-16)
(-1.59595e-15 1.59595e-15 0)
(-1.59595e-15 1.59595e-15 0)
(0 0 0)
(0 0 -1.99493e-16)
(0 0 0)
(0 0 0)
(0 0 0)
(7.97973e-16 7.97973e-16 0)
(-7.97973e-16 -7.97973e-16 -1.99493e-16)
(7.97973e-16 7.97973e-16 0)
(0 0 -1.99493e-16)
(7.97973e-16 7.97973e-16 0)
(7.97973e-16 7.97973e-16 0)
(0 0 0)
(0 0 -1.99493e-16)
(0 0 -1.99493e-16)
(0 0 0)
(0 0 0)
(0 0 0)
(7.97973e-16 7.97973e-16 -1.99493e-16)
(-7.97973e-16 -7.97973e-16 0)
(7.97973e-16 7.97973e-16 -1.99493e-16)
(0 0 -1.99493e-16)
(0 0 -1.99493e-16)
(7.97973e-16 7.97973e-16 -1.99493e-16)
(0 0 -1.99493e-16)
(0 0 0)
(0 0 -1.99493e-16)
(0 0 -1.99493e-16)