/*--------------------------------*- C++ -*----------------------------------*\
| =========                 |                                                 |
| \\      /  F ield         | OpenFOAM: The Open Source CFD Toolbox           |
|  \\    /   O peration     | Version:  v1606+                                |
|   \\  /    A nd           | Web:      www.OpenFOAM.com                      |
|    \\/     M anipulation  |                                                 |
\*---------------------------------------------------------------------------*/
FoamFile
{
    version     2.0;
    format      ascii;
    class       volScalarField;
    location    "0.29";
    object      k.air;
}
// * * * * * * * * * * * * * * * * * * * * * * * * * * * * * * * * * * * * * //

dimensions      [0 2 -2 0 0 0 0];

internalField   nonuniform List<scalar> 
6000
(
0.886103
0.947698
0.963648
0.968077
0.969462
0.969851
0.970563
0.97182
0.973012
0.974091
0.975131
0.975718
0.975666
0.975744
0.975804
0.975694
0.975781
0.975794
0.975772
0.975066
0.97411
0.973001
0.971764
0.970585
0.969664
0.969561
0.968334
0.963826
0.947794
0.886203
0.621464
0.915665
0.984462
1.00235
1.00715
1.01151
1.01629
1.02034
1.02442
1.02792
1.02995
1.0313
1.03301
1.03384
1.03422
1.03386
1.03351
1.03281
1.03186
1.03075
1.02831
1.02476
1.02056
1.01603
1.01128
1.0072
1.00256
0.985362
0.916747
0.621589
0.472953
0.81018
0.914892
0.953287
0.969558
0.977338
0.98245
0.986104
0.989084
0.991435
0.993025
0.994166
0.99528
0.996138
0.996561
0.996282
0.995863
0.995301
0.994647
0.993696
0.991919
0.989415
0.986414
0.982896
0.978166
0.970724
0.954637
0.916449
0.81202
0.473853
0.408559
0.725308
0.834288
0.882565
0.907393
0.921183
0.930183
0.936899
0.942303
0.946431
0.949216
0.950906
0.951873
0.952309
0.952397
0.952345
0.95225
0.95199
0.951244
0.949693
0.946907
0.942753
0.937402
0.930923
0.922327
0.908883
0.884396
0.836614
0.72843
0.410851
0.369771
0.65119
0.75733
0.811908
0.844063
0.864336
0.87786
0.887655
0.895372
0.901176
0.9049
0.906825
0.907516
0.907464
0.907244
0.907272
0.907548
0.90773
0.907198
0.905419
0.901764
0.896033
0.888489
0.878996
0.865805
0.84578
0.813944
0.759973
0.655016
0.373197
0.326427
0.580466
0.690654
0.75555
0.794749
0.819424
0.836085
0.848491
0.858007
0.864597
0.868416
0.869874
0.869831
0.869143
0.868581
0.868673
0.869381
0.87024
0.870449
0.869174
0.865526
0.859141
0.849943
0.837989
0.821777
0.797537
0.758654
0.693838
0.584206
0.330161
0.277649
0.526366
0.663959
0.746161
0.789507
0.813743
0.829761
0.842006
0.850195
0.854061
0.854957
0.853844
0.851802
0.850015
0.849063
0.849185
0.850414
0.852482
0.854807
0.856241
0.855768
0.852442
0.844887
0.833401
0.818236
0.794937
0.752364
0.66911
0.529171
0.280453
0.248412
0.504747
0.678991
0.785206
0.838724
0.863285
0.875042
0.880688
0.880206
0.875142
0.868635
0.86216
0.856609
0.852826
0.851068
0.851247
0.853464
0.857662
0.863717
0.870777
0.878195
0.884464
0.886182
0.881599
0.870906
0.847238
0.794183
0.685962
0.507144
0.250231
0.256017
0.559922
0.80097
0.958259
1.018
1.03159
1.02878
1.01605
0.995161
0.969216
0.945594
0.926931
0.913572
0.905239
0.901424
0.901771
0.906307
0.915434
0.929767
0.949706
0.975085
1.00326
1.02621
1.04053
1.04477
1.03282
0.972259
0.810812
0.563493
0.257816
0.333443
0.772531
1.04804
1.20109
1.24238
1.23608
1.21708
1.18636
1.14885
1.1014
1.05857
1.02534
1.00215
0.987953
0.981422
0.981876
0.989304
1.00453
1.02894
1.06386
1.10902
1.15932
1.19908
1.23133
1.25154
1.25873
1.21624
1.05855
0.777966
0.33547
0.482041
0.917889
1.1313
1.25366
1.28921
1.29057
1.28798
1.25738
1.20725
1.14242
1.08501
1.04229
1.01363
0.996522
0.988714
0.989208
0.998001
1.0162
1.04615
1.09065
1.15063
1.21843
1.26982
1.29981
1.30281
1.30229
1.26575
1.14045
0.923942
0.484305
0.493577
0.906107
1.083
1.18066
1.21242
1.21975
1.22661
1.21247
1.1681
1.10869
1.05381
1.01165
0.983122
0.966183
0.958431
0.958933
0.967702
0.985779
1.01563
1.05952
1.11664
1.1782
1.22259
1.23496
1.22897
1.22321
1.1908
1.09144
0.912561
0.496708
0.473926
0.847266
0.994514
1.07632
1.10141
1.09933
1.10054
1.10277
1.07787
1.03535
0.99266
0.958933
0.93598
0.922171
0.9157
0.916185
0.923679
0.938666
0.963002
0.99843
1.04307
1.08702
1.11126
1.10809
1.10829
1.11112
1.08492
1.00195
0.853654
0.477314
0.430531
0.768693
0.911417
0.989691
1.00941
0.997272
0.991718
1.00495
0.996195
0.966438
0.933498
0.906781
0.888085
0.876968
0.871807
0.872281
0.878452
0.890749
0.91084
0.939215
0.97395
1.00486
1.0127
0.99889
1.00595
1.01814
0.996861
0.917631
0.774306
0.434009
0.390779
0.699942
0.838807
0.915205
0.931242
0.913954
0.903703
0.925269
0.926592
0.904216
0.878291
0.856778
0.841224
0.83188
0.827733
0.828196
0.833329
0.843819
0.860716
0.88378
0.911352
0.934769
0.932552
0.910519
0.922065
0.938526
0.920944
0.84395
0.704918
0.394054
0.358757
0.643126
0.773533
0.844825
0.859211
0.842629
0.831647
0.859084
0.866471
0.84813
0.826983
0.809023
0.79585
0.787773
0.784244
0.784685
0.789149
0.798285
0.812666
0.832008
0.85463
0.873924
0.865695
0.837837
0.849598
0.86503
0.849303
0.777722
0.647585
0.361873
0.332995
0.59339
0.710546
0.774025
0.788389
0.776694
0.769659
0.802611
0.812147
0.795285
0.77857
0.763378
0.752024
0.745088
0.742083
0.742487
0.746334
0.754192
0.76657
0.78292
0.800838
0.81841
0.808102
0.774835
0.782161
0.79274
0.777286
0.713672
0.597164
0.335924
0.310444
0.544752
0.645498
0.701349
0.717969
0.71281
0.712344
0.747075
0.759632
0.74665
0.732658
0.719623
0.709852
0.703957
0.701477
0.701829
0.705024
0.711681
0.722277
0.736224
0.751131
0.764535
0.751204
0.716257
0.716645
0.720891
0.703588
0.647636
0.547666
0.312735
0.284691
0.492792
0.578385
0.628946
0.649117
0.650968
0.657928
0.692674
0.708376
0.701161
0.689227
0.677636
0.669269
0.664307
0.662244
0.662529
0.665162
0.670724
0.679725
0.69196
0.704528
0.711918
0.695492
0.660605
0.65321
0.650683
0.630413
0.579818
0.494561
0.28641
0.257985
0.432853
0.512669
0.561355
0.584243
0.592207
0.606865
0.640176
0.659837
0.656514
0.647393
0.637464
0.630224
0.626078
0.624358
0.624577
0.626721
0.631321
0.639014
0.649314
0.658846
0.662174
0.641919
0.608504
0.593118
0.584525
0.562122
0.513681
0.433896
0.259192
0.229305
0.370775
0.451485
0.497939
0.523452
0.539409
0.560751
0.591597
0.611505
0.613273
0.60628
0.59845
0.592658
0.589333
0.587907
0.588071
0.589796
0.593437
0.599484
0.607505
0.614777
0.612954
0.592612
0.561488
0.539196
0.522669
0.497933
0.452229
0.371691
0.23021
0.201247
0.314665
0.396918
0.441661
0.466022
0.488631
0.518918
0.549115
0.56783
0.571136
0.566488
0.56052
0.556141
0.553621
0.552503
0.552614
0.553945
0.556692
0.561232
0.567262
0.572058
0.568764
0.549725
0.51894
0.487662
0.464408
0.44058
0.397007
0.315878
0.202062
0.175053
0.266855
0.346949
0.388106
0.412846
0.44313
0.481618
0.51335
0.530766
0.533588
0.529482
0.525208
0.522077
0.520155
0.519296
0.519371
0.520383
0.52246
0.525658
0.529962
0.534192
0.531446
0.513735
0.481219
0.441766
0.410679
0.386085
0.346363
0.268193
0.175938
0.150928
0.227553
0.304525
0.340864
0.363867
0.403606
0.448997
0.483176
0.499684
0.501266
0.496847
0.492936
0.490488
0.48901
0.488328
0.488374
0.489153
0.490725
0.493214
0.497162
0.501668
0.500145
0.48335
0.448385
0.40213
0.361572
0.338049
0.303189
0.228287
0.151943
0.131698
0.199939
0.26827
0.291132
0.321157
0.369362
0.419417
0.455425
0.471498
0.472486
0.468021
0.46395
0.461372
0.459909
0.459265
0.459296
0.460001
0.461517
0.464128
0.468216
0.472685
0.471631
0.455263
0.418663
0.36788
0.318794
0.288021
0.265938
0.199936
0.132455
0.117232
0.175039
0.223823
0.243809
0.284386
0.338889
0.390099
0.426103
0.442775
0.445056
0.441563
0.43765
0.434922
0.433409
0.4328
0.432834
0.433501
0.435052
0.437784
0.44164
0.444986
0.44245
0.425454
0.389098
0.337399
0.282017
0.24061
0.220745
0.17475
0.117941
0.102247
0.143773
0.174316
0.20354
0.254077
0.310461
0.359042
0.393492
0.411759
0.417183
0.416063
0.41331
0.411077
0.409808
0.409312
0.40935
0.409906
0.411198
0.41339
0.415989
0.41682
0.411031
0.392449
0.357785
0.308933
0.251899
0.20038
0.170659
0.14299
0.102794
0.0879233
0.109446
0.132565
0.174056
0.229548
0.283314
0.327982
0.360916
0.381089
0.390266
0.39256
0.392009
0.390946
0.390206
0.3899
0.389944
0.390323
0.391084
0.392075
0.39242
0.389792
0.380254
0.359806
0.326686
0.28181
0.22762
0.171189
0.128872
0.107572
0.0880973
0.0739304
0.0809543
0.103921
0.154681
0.209551
0.259079
0.300744
0.3329
0.354689
0.367029
0.372626
0.374539
0.374949
0.374957
0.374945
0.374987
0.375065
0.375065
0.374573
0.372467
0.366582
0.353941
0.331919
0.299587
0.257721
0.20784
0.15208
0.100994
0.0794784
0.0738292
0.0622202
0.0657489
0.0928504
0.14399
0.194117
0.239707
0.279084
0.310521
0.333101
0.347409
0.355302
0.359187
0.360955
0.361754
0.362085
0.362114
0.361828
0.361032
0.3592
0.355168
0.347057
0.33251
0.309716
0.278108
0.238549
0.192685
0.142087
0.0906357
0.0647701
0.0621498
0.0552596
0.0613586
0.0925981
0.138578
0.183637
0.225758
0.263052
0.293616
0.316466
0.331972
0.341255
0.346385
0.349018
0.350341
0.350909
0.350928
0.350392
0.349082
0.346423
0.341212
0.33179
0.316102
0.293056
0.262304
0.224821
0.18247
0.137083
0.0906822
0.0605199
0.0552421
0.0516518
0.061293
0.094886
0.137067
0.177942
0.217069
0.252537
0.282278
0.305122
0.321314
0.331068
0.336545
0.339367
0.340798
0.341419
0.341436
0.340848
0.33945
0.336653
0.33118
0.321391
0.305082
0.282058
0.252108
0.216421
0.17706
0.13597
0.0934617
0.0604473
0.0514549
0.0493875
0.0622478
0.0984539
0.137833
0.176615
0.21378
0.247879
0.276658
0.298994
0.315351
0.324684
0.329605
0.332074
0.333303
0.333836
0.333854
0.333365
0.332196
0.329809
0.324996
0.315783
0.299406
0.276936
0.247922
0.213538
0.176068
0.136941
0.097369
0.0614543
0.0490355
0.0472132
0.0624711
0.10117
0.140248
0.178357
0.215127
0.248659
0.276251
0.29691
0.312466
0.320778
0.324735
0.326713
0.327615
0.327963
0.327981
0.327685
0.326866
0.325019
0.321259
0.313267
0.297821
0.277026
0.249136
0.215252
0.178109
0.139669
0.100359
0.0618036
0.0468362
0.0453094
0.063278
0.104928
0.14552
0.184233
0.221075
0.253311
0.277946
0.295841
0.308782
0.316859
0.320557
0.322201
0.322695
0.322773
0.322792
0.322765
0.322365
0.320887
0.317475
0.309775
0.297049
0.27933
0.254582
0.222009
0.184675
0.145475
0.10447
0.0627829
0.0448958
0.0432712
0.0663965
0.112631
0.156249
0.196459
0.232302
0.259984
0.279434
0.293525
0.303935
0.312001
0.316154
0.317357
0.317449
0.317311
0.317337
0.317536
0.317542
0.316498
0.312732
0.304975
0.294861
0.281129
0.262004
0.234361
0.198152
0.157178
0.112855
0.0661623
0.0429754
0.0433587
0.0750735
0.12788
0.172919
0.211716
0.243319
0.264612
0.279159
0.290812
0.300542
0.308173
0.31172
0.312072
0.31179
0.311516
0.311556
0.311918
0.312303
0.312073
0.308853
0.30156
0.292177
0.280966
0.267183
0.246882
0.215005
0.175178
0.129174
0.0754936
0.043163
0.045891
0.0949021
0.150459
0.192641
0.225116
0.250155
0.26659
0.279111
0.289934
0.299251
0.305581
0.30722
0.306713
0.306252
0.305943
0.306002
0.306437
0.307026
0.307629
0.306215
0.300272
0.29143
0.281106
0.269486
0.254852
0.229751
0.195622
0.152346
0.0966209
0.0460637
0.054501
0.125516
0.178179
0.21064
0.233396
0.254773
0.269116
0.280101
0.290278
0.298654
0.302372
0.302014
0.301635
0.301439
0.301238
0.301316
0.301688
0.302083
0.302647
0.303163
0.299821
0.292016
0.282403
0.272067
0.25951
0.239219
0.214038
0.179487
0.126733
0.0550973
0.0736712
0.156167
0.201448
0.223491
0.242524
0.259779
0.27191
0.281504
0.290923
0.29625
0.296636
0.296739
0.29749
0.297744
0.29768
0.297767
0.298027
0.298038
0.297628
0.2979
0.297877
0.293216
0.284414
0.275692
0.265439
0.248504
0.226859
0.203157
0.156971
0.0744997
0.0933581
0.17945
0.211027
0.233908
0.252397
0.265061
0.274012
0.282504
0.287826
0.290072
0.291146
0.293094
0.294581
0.294976
0.294946
0.295026
0.295245
0.295127
0.294049
0.292669
0.29226
0.29057
0.285252
0.277665
0.269664
0.257244
0.237971
0.216057
0.182698
0.094414
0.105718
0.191247
0.219397
0.243316
0.263911
0.274841
0.278648
0.2801
0.28234
0.285449
0.288505
0.291169
0.292433
0.292598
0.292471
0.29253
0.292812
0.292905
0.292056
0.28994
0.287458
0.284821
0.282412
0.280406
0.276579
0.267714
0.248647
0.225725
0.197031
0.107569
0.111271
0.190518
0.222629
0.249451
0.271756
0.279807
0.278472
0.278046
0.280647
0.284622
0.288004
0.290018
0.29055
0.290278
0.289946
0.289973
0.290405
0.290904
0.290783
0.289293
0.286418
0.28266
0.279882
0.280386
0.282682
0.276618
0.255651
0.229465
0.196863
0.113825
0.10961
0.184217
0.221017
0.250331
0.271803
0.277989
0.277467
0.278389
0.281527
0.28555
0.288401
0.289352
0.288958
0.28811
0.287499
0.287486
0.288127
0.289156
0.289951
0.289596
0.28729
0.283493
0.28029
0.279794
0.282141
0.277583
0.256569
0.227759
0.190682
0.11238
0.103968
0.174664
0.216366
0.247264
0.266893
0.273391
0.276733
0.280035
0.284314
0.288
0.289631
0.289307
0.287857
0.286362
0.285435
0.285387
0.286275
0.287894
0.289707
0.290642
0.289626
0.286245
0.282096
0.279502
0.278013
0.273062
0.253657
0.222682
0.180154
0.106799
0.0960057
0.162083
0.207775
0.239511
0.259176
0.270083
0.277693
0.283975
0.289425
0.292024
0.291801
0.289819
0.287325
0.285188
0.283966
0.283899
0.285042
0.287251
0.290066
0.292582
0.29341
0.291197
0.285999
0.280281
0.274038
0.264667
0.245568
0.213385
0.166614
0.0980719
0.0866332
0.147391
0.197257
0.231064
0.254038
0.270228
0.281866
0.290644
0.295921
0.296547
0.29424
0.290719
0.287185
0.284472
0.283005
0.282942
0.284325
0.28707
0.29082
0.294738
0.297458
0.297078
0.29205
0.283889
0.273229
0.258349
0.236031
0.201949
0.151016
0.088128
0.0772137
0.134236
0.187097
0.22489
0.253616
0.274717
0.289999
0.297865
0.300623
0.299478
0.295756
0.291121
0.286871
0.28376
0.282116
0.282059
0.283633
0.286758
0.291149
0.296023
0.29981
0.300752
0.297917
0.290611
0.276628
0.256585
0.228693
0.190785
0.137076
0.0783054
0.069003
0.125216
0.181501
0.224841
0.258981
0.285052
0.296966
0.300016
0.300735
0.299674
0.295611
0.290513
0.2859
0.282536
0.280796
0.28074
0.282411
0.285765
0.290487
0.295781
0.299901
0.300556
0.299134
0.295697
0.28465
0.260651
0.227442
0.184156
0.127243
0.0696943
0.063578
0.124947
0.183527
0.231819
0.271756
0.29449
0.298479
0.299186
0.300004
0.29881
0.294144
0.28863
0.283914
0.280578
0.278852
0.278792
0.280434
0.283728
0.288473
0.294125
0.299141
0.300308
0.298552
0.296337
0.291222
0.270647
0.233346
0.185831
0.126723
0.0641419
0.0632635
0.130208
0.19486
0.248761
0.285085
0.296093
0.297999
0.299412
0.300048
0.297254
0.291298
0.285648
0.281188
0.278064
0.276443
0.27639
0.277933
0.281
0.285386
0.290942
0.297438
0.300804
0.299477
0.296382
0.291854
0.280388
0.248085
0.196603
0.132381
0.0639981
0.0664413
0.147757
0.218354
0.270203
0.290535
0.295068
0.298734
0.300767
0.299803
0.294323
0.28748
0.282153
0.278107
0.275291
0.27384
0.273826
0.275273
0.27809
0.282032
0.286916
0.293486
0.300252
0.302059
0.298489
0.29245
0.284192
0.265409
0.218814
0.151238
0.0675756
0.0771686
0.177948
0.246663
0.281737
0.290297
0.29618
0.300986
0.301756
0.297124
0.289576
0.283192
0.278498
0.274927
0.272457
0.271215
0.271281
0.272677
0.275311
0.278916
0.283132
0.28833
0.295541
0.301908
0.303451
0.297273
0.287374
0.274053
0.245238
0.183519
0.0797602
0.0976781
0.211259
0.263809
0.283104
0.292289
0.300086
0.302484
0.29825
0.291079
0.28423
0.278909
0.274855
0.271744
0.269626
0.268617
0.268794
0.270182
0.272712
0.276153
0.280097
0.284339
0.289603
0.295444
0.300777
0.304521
0.297606
0.280587
0.25806
0.217214
0.105339
0.119384
0.2355
0.265381
0.286173
0.296916
0.300727
0.296516
0.290327
0.284426
0.279096
0.274735
0.271244
0.268572
0.2668
0.266026
0.266323
0.267725
0.270198
0.273584
0.277544
0.281615
0.285676
0.289406
0.292683
0.296398
0.297296
0.291081
0.265092
0.230834
0.124913
0.131365
0.236678
0.267902
0.289014
0.292868
0.290827
0.286677
0.282687
0.278396
0.274237
0.270619
0.267659
0.26542
0.263981
0.263426
0.263828
0.265242
0.267676
0.271053
0.275136
0.279422
0.283295
0.286008
0.287304
0.288188
0.289015
0.28338
0.262715
0.22753
0.129121
0.131481
0.229852
0.262856
0.278749
0.280599
0.280283
0.278954
0.276257
0.272891
0.26953
0.266561
0.264137
0.262331
0.261209
0.260849
0.26133
0.262737
0.265128
0.268513
0.272772
0.27751
0.281868
0.284465
0.284303
0.282093
0.278786
0.26951
0.24827
0.211343
0.124044
0.124537
0.208241
0.245489
0.264057
0.270066
0.272635
0.272438
0.270379
0.267656
0.264979
0.262648
0.260767
0.259388
0.258565
0.258378
0.258921
0.260308
0.262648
0.266036
0.270486
0.27576
0.281041
0.284636
0.28439
0.279107
0.269851
0.255017
0.22913
0.185132
0.110559
0.107705
0.180848
0.225603
0.251666
0.262594
0.266483
0.266528
0.264854
0.26272
0.260714
0.259017
0.257669
0.256696
0.256154
0.256133
0.256742
0.258121
0.260415
0.263789
0.268362
0.274027
0.280133
0.285085
0.286307
0.280093
0.265323
0.242745
0.211331
0.162822
0.0964515
0.0924018
0.157051
0.209956
0.243793
0.257317
0.261028
0.26108
0.259748
0.258232
0.256909
0.255825
0.254968
0.254363
0.254079
0.254224
0.254925
0.256333
0.258606
0.261922
0.266435
0.272161
0.278629
0.284259
0.286721
0.283229
0.266919
0.237268
0.197293
0.144214
0.0842008
0.0807114
0.141119
0.202773
0.23826
0.251413
0.255591
0.255684
0.255015
0.254305
0.253703
0.253189
0.252755
0.252457
0.252395
0.252699
0.253517
0.254996
0.257278
0.260483
0.264684
0.269832
0.275905
0.28266
0.285027
0.283087
0.271573
0.240216
0.193547
0.13309
0.0746234
0.0718476
0.14125
0.201688
0.232203
0.246049
0.249209
0.250208
0.250757
0.251047
0.251168
0.251153
0.251052
0.250979
0.251083
0.251523
0.252459
0.254032
0.256346
0.259433
0.26323
0.267529
0.272368
0.279006
0.285438
0.282208
0.272029
0.248221
0.200604
0.13443
0.067949
0.0726096
0.146369
0.199572
0.229657
0.238984
0.242217
0.245126
0.247182
0.248518
0.249306
0.249695
0.24984
0.24991
0.250106
0.250623
0.251639
0.253286
0.255635
0.258659
0.262153
0.265772
0.269456
0.274355
0.281832
0.286405
0.274238
0.253868
0.217704
0.147077
0.0687283
0.0774607
0.157438
0.198779
0.225176
0.230051
0.235828
0.24082
0.244379
0.246748
0.248197
0.248948
0.24923
0.24932
0.249498
0.250011
0.251055
0.252761
0.25517
0.25818
0.261478
0.264627
0.267485
0.270878
0.275891
0.281876
0.281768
0.262703
0.229627
0.173811
0.0774204
0.0879806
0.162682
0.195347
0.213718
0.222116
0.23049
0.237418
0.242517
0.24605
0.248162
0.249119
0.249385
0.249364
0.249404
0.249813
0.250831
0.252593
0.255112
0.258217
0.261512
0.264398
0.266492
0.26828
0.270651
0.273143
0.274692
0.26748
0.235298
0.192871
0.0973183
0.0880769
0.156774
0.185638
0.203317
0.215517
0.226303
0.235248
0.242144
0.246722
0.249296
0.250372
0.250442
0.250108
0.249883
0.250133
0.251096
0.252906
0.255574
0.258909
0.2624
0.265254
0.266804
0.26692
0.266323
0.265188
0.262315
0.255555
0.233361
0.195901
0.107814
0.0848841
0.142238
0.173554
0.194531
0.210139
0.223625
0.235068
0.243646
0.249535
0.252614
0.253564
0.253092
0.252125
0.25139
0.251331
0.252189
0.254091
0.257057
0.260886
0.264929
0.268029
0.26904
0.267399
0.263603
0.258281
0.251074
0.239807
0.22026
0.186275
0.105668
0.0780865
0.126849
0.162768
0.187162
0.206521
0.223354
0.237292
0.248382
0.255945
0.259113
0.259253
0.257745
0.255811
0.254353
0.253851
0.254574
0.256658
0.260115
0.264728
0.269762
0.273804
0.274664
0.270585
0.263666
0.253629
0.241556
0.225818
0.202303
0.164741
0.0977011
0.0703763
0.113682
0.153438
0.181962
0.205672
0.225973
0.243833
0.257812
0.265943
0.267832
0.266481
0.263716
0.260627
0.258259
0.257221
0.25782
0.260208
0.264347
0.269902
0.276032
0.281635
0.283619
0.277834
0.267204
0.253109
0.23498
0.213929
0.186063
0.143626
0.0868075
0.0635761
0.103677
0.147021
0.180479
0.208435
0.233849
0.255971
0.269886
0.275764
0.275805
0.273283
0.269663
0.265464
0.2621
0.260442
0.260874
0.263589
0.268515
0.275102
0.282041
0.287991
0.291036
0.287046
0.276196
0.257533
0.234238
0.205851
0.17231
0.125897
0.075953
0.058155
0.0990472
0.146412
0.183958
0.217802
0.248775
0.268326
0.277111
0.279875
0.280278
0.27843
0.274267
0.269118
0.264913
0.262703
0.262931
0.26581
0.271207
0.278526
0.286305
0.291567
0.292596
0.291425
0.286084
0.269353
0.240205
0.205815
0.164723
0.112909
0.0667409
0.0543836
0.100265
0.15136
0.195529
0.236192
0.264791
0.275277
0.279055
0.281672
0.283222
0.281987
0.276964
0.271248
0.266648
0.264116
0.264163
0.267002
0.272409
0.279738
0.288163
0.294522
0.294955
0.292592
0.289676
0.281237
0.255525
0.214375
0.166987
0.110836
0.0602037
0.0545478
0.108183
0.167099
0.217829
0.256019
0.273964
0.278771
0.282747
0.286095
0.287682
0.28487
0.278377
0.272634
0.268078
0.265468
0.265405
0.26808
0.273172
0.279888
0.287958
0.297685
0.300871
0.296792
0.291636
0.285296
0.270829
0.23506
0.180691
0.116853
0.0586907
0.0586777
0.130368
0.195278
0.244208
0.269072
0.278333
0.284749
0.290546
0.294551
0.293539
0.285914
0.279169
0.274089
0.269833
0.267297
0.267176
0.269653
0.274324
0.280219
0.28667
0.296204
0.306704
0.306481
0.298168
0.289071
0.277771
0.257485
0.208705
0.13897
0.0623454
0.0718415
0.165771
0.229142
0.264018
0.276976
0.287495
0.295901
0.302822
0.302624
0.293582
0.28513
0.280236
0.275816
0.271835
0.269407
0.269251
0.271526
0.275804
0.281043
0.28618
0.292321
0.302205
0.31068
0.311124
0.300111
0.284265
0.265998
0.233891
0.173313
0.0760329
0.0975066
0.203233
0.250025
0.272236
0.289518
0.30386
0.309531
0.306759
0.299086
0.290582
0.285441
0.281631
0.277406
0.273552
0.271217
0.271054
0.273175
0.277158
0.281983
0.28644
0.290742
0.296555
0.303438
0.30805
0.309445
0.299065
0.276164
0.245803
0.20556
0.101842
0.12019
0.22599
0.260336
0.288791
0.3046
0.308062
0.305153
0.300247
0.294483
0.290042
0.286575
0.282944
0.278621
0.274766
0.27249
0.272361
0.274444
0.278323
0.283037
0.287298
0.290631
0.293625
0.296769
0.299469
0.301294
0.298707
0.287326
0.255899
0.218226
0.118782
0.1287
0.228444
0.26593
0.290956
0.301374
0.302511
0.299017
0.295922
0.293344
0.291092
0.288511
0.284493
0.279768
0.275743
0.273458
0.273396
0.275583
0.27962
0.284576
0.289033
0.29179
0.293054
0.293158
0.292988
0.292136
0.289747
0.280576
0.254247
0.214942
0.121992
0.126981
0.220498
0.258988
0.282633
0.293216
0.296151
0.295745
0.295017
0.294733
0.294072
0.291566
0.286793
0.281398
0.277023
0.274638
0.274649
0.277062
0.281528
0.287136
0.292299
0.295083
0.295143
0.292923
0.289146
0.284851
0.278175
0.265688
0.241639
0.201321
0.11779
0.118795
0.201367
0.242775
0.268559
0.283388
0.290804
0.294506
0.297174
0.299617
0.29992
0.296449
0.290319
0.283954
0.279063
0.276497
0.27657
0.279271
0.284348
0.290971
0.297483
0.301538
0.301183
0.296236
0.288964
0.279554
0.267872
0.250481
0.223263
0.180739
0.107157
0.106256
0.179316
0.225192
0.254851
0.274434
0.287346
0.296665
0.304029
0.309391
0.308791
0.302904
0.294908
0.287358
0.281821
0.278993
0.279095
0.282089
0.287782
0.295421
0.303506
0.310029
0.311597
0.304942
0.292925
0.278041
0.259881
0.237182
0.205891
0.159337
0.0951692
0.0938858
0.157674
0.208463
0.242636
0.267986
0.288312
0.304299
0.316773
0.322188
0.317925
0.309133
0.299481
0.290776
0.284533
0.28138
0.281463
0.284702
0.290879
0.299212
0.308006
0.315803
0.320656
0.317679
0.303307
0.28152
0.256198
0.226787
0.190401
0.139477
0.0830684
0.0816117
0.138992
0.19389
0.234003
0.267208
0.295221
0.319097
0.330123
0.328924
0.322633
0.313419
0.302606
0.293039
0.286277
0.28288
0.282917
0.286253
0.292617
0.301276
0.310415
0.317433
0.322141
0.324445
0.316162
0.292064
0.259025
0.222232
0.179516
0.124515
0.0721224
0.0712829
0.127208
0.186322
0.233075
0.273438
0.310165
0.331979
0.333882
0.329612
0.324411
0.314834
0.303442
0.293813
0.287064
0.28365
0.283661
0.286937
0.293121
0.301664
0.311341
0.318284
0.321585
0.323617
0.322694
0.30624
0.269779
0.225916
0.178012
0.119795
0.064305
0.0650873
0.126522
0.188076
0.240632
0.289328
0.325146
0.333193
0.332916
0.331318
0.326152
0.31479
0.303262
0.294231
0.287899
0.284656
0.284657
0.287737
0.293462
0.30138
0.311595
0.320537
0.32341
0.323252
0.322167
0.316528
0.287873
0.238686
0.184187
0.122386
0.0616826
0.0646447
0.131972
0.199563
0.259988
0.310878
0.329831
0.332443
0.335272
0.335944
0.327591
0.313921
0.303361
0.295324
0.28967
0.286732
0.286718
0.289466
0.294511
0.301473
0.310868
0.323012
0.328865
0.32653
0.322591
0.319123
0.306319
0.260549
0.201688
0.133379
0.0630861
0.0677858
0.14964
0.22404
0.286954
0.321963
0.330085
0.336576
0.34365
0.340599
0.326092
0.313264
0.304297
0.297536
0.292689
0.290139
0.290096
0.292418
0.296673
0.302424
0.310202
0.321861
0.334583
0.33594
0.327809
0.320587
0.312888
0.286475
0.227873
0.157399
0.0694876
0.0782499
0.178629
0.251653
0.305471
0.32347
0.33521
0.348088
0.352399
0.338651
0.323885
0.313457
0.306142
0.300591
0.29662
0.294513
0.294426
0.296249
0.299644
0.304274
0.310444
0.319666
0.332949
0.344921
0.340299
0.32726
0.315397
0.300777
0.254991
0.186028
0.0839621
0.0961065
0.208809
0.273747
0.309434
0.328982
0.348258
0.358209
0.349154
0.333879
0.32219
0.313943
0.308253
0.30399
0.300955
0.299325
0.299194
0.300474
0.302944
0.306377
0.311027
0.31815
0.328509
0.341888
0.350043
0.341637
0.323067
0.304334
0.273271
0.213697
0.101258
0.116639
0.233325
0.283519
0.315824
0.341624
0.357374
0.353648
0.340993
0.329061
0.320261
0.314401
0.310379
0.307303
0.305043
0.303794
0.30363
0.304486
0.306206
0.308553
0.311668
0.316547
0.324194
0.334607
0.345718
0.349792
0.336246
0.31164
0.280208
0.233832
0.119732
0.128975
0.240834
0.287166
0.324237
0.346664
0.350843
0.342465
0.332404
0.324128
0.31856
0.31508
0.312433
0.310064
0.308086
0.306903
0.306738
0.30753
0.309023
0.310784
0.312693
0.315339
0.319963
0.3271
0.33585
0.343306
0.339615
0.319131
0.283258
0.23806
0.128783
0.1292
0.236087
0.284415
0.319913
0.33648
0.335172
0.329534
0.323798
0.319851
0.317801
0.316158
0.31402
0.311097
0.308272
0.306688
0.306548
0.307821
0.310234
0.312663
0.314221
0.315216
0.316477
0.319563
0.324292
0.328837
0.32935
0.31397
0.279978
0.232708
0.128212
0.125122
0.223598
0.27093
0.300144
0.312486
0.315708
0.315914
0.316055
0.317161
0.317898
0.316715
0.313306
0.309234
0.305908
0.304063
0.303958
0.305565
0.308539
0.31218
0.315167
0.315852
0.314558
0.312801
0.311913
0.310781
0.30657
0.293855
0.265746
0.219552
0.123552
0.116883
0.202109
0.243561
0.26822
0.285275
0.295743
0.303535
0.310719
0.316184
0.317511
0.314536
0.30951
0.304873
0.301645
0.299969
0.299888
0.301388
0.304374
0.308663
0.313214
0.315811
0.314189
0.308321
0.300625
0.292199
0.281015
0.263346
0.23832
0.197867
0.114798
0.101259
0.170928
0.209685
0.238184
0.260643
0.278619
0.294564
0.308161
0.315573
0.314346
0.309212
0.304225
0.300175
0.297385
0.295936
0.295874
0.297188
0.299792
0.303574
0.308201
0.312907
0.313751
0.306345
0.292587
0.276289
0.257883
0.234946
0.205717
0.166577
0.0989885
0.0814306
0.133177
0.178914
0.21332
0.241609
0.266575
0.289059
0.30638
0.312667
0.308696
0.303611
0.299257
0.29578
0.293404
0.292188
0.292143
0.293256
0.295493
0.298763
0.30282
0.307438
0.310871
0.304756
0.287751
0.265296
0.240129
0.211559
0.17671
0.130262
0.0795631
0.0647027
0.10584
0.15736
0.196497
0.229726
0.259655
0.285614
0.302838
0.306687
0.303047
0.298525
0.294696
0.291766
0.289776
0.288752
0.288717
0.289658
0.29154
0.294313
0.297904
0.302012
0.305129
0.301319
0.284761
0.259115
0.229296
0.196025
0.156827
0.105273
0.0637123
0.0552625
0.0971721
0.148181
0.189048
0.224964
0.256473
0.282543
0.296805
0.300196
0.29786
0.293789
0.290431
0.287995
0.286325
0.285438
0.285401
0.286211
0.287791
0.2901
0.293252
0.296971
0.298999
0.295576
0.282043
0.256478
0.225246
0.189517
0.148855
0.0981595
0.0551148
0.052522
0.0983989
0.148253
0.189307
0.225035
0.255375
0.277308
0.289158
0.293132
0.29258
0.289085
0.286288
0.284246
0.282872
0.282169
0.282131
0.282761
0.284053
0.285993
0.288625
0.291857
0.292328
0.288381
0.276954
0.255702
0.225618
0.1901
0.149272
0.0996911
0.0528724
0.0531865
0.104422
0.153112
0.193431
0.227419
0.253919
0.270635
0.281825
0.285795
0.287001
0.284346
0.282017
0.280346
0.279327
0.278867
0.278839
0.279248
0.280196
0.281794
0.284003
0.286541
0.285344
0.281537
0.270672
0.254403
0.228286
0.194532
0.154459
0.106033
0.0537013
0.0571647
0.117117
0.164338
0.202222
0.232415
0.252432
0.265739
0.275333
0.279715
0.281889
0.279841
0.277707
0.276403
0.275788
0.275581
0.275583
0.275768
0.276339
0.277585
0.279647
0.281691
0.279548
0.275412
0.266205
0.25307
0.233312
0.203369
0.165723
0.118639
0.0579284
0.0641451
0.131625
0.177548
0.212901
0.238043
0.252834
0.263064
0.271106
0.276412
0.278104
0.276031
0.274083
0.273088
0.272848
0.272876
0.272901
0.27292
0.273156
0.274093
0.276028
0.278084
0.276515
0.271463
0.263747
0.253609
0.238952
0.213996
0.178764
0.132863
0.0648161
0.0718124
0.145974
0.190638
0.223392
0.243463
0.254901
0.262267
0.269661
0.27533
0.27558
0.273536
0.272181
0.27154
0.271529
0.271695
0.271756
0.27171
0.271803
0.272475
0.27384
0.275845
0.275729
0.2703
0.263116
0.25592
0.244631
0.224611
0.191801
0.146966
0.0723548
0.0820307
0.159563
0.201201
0.231281
0.248982
0.258124
0.262314
0.268561
0.273604
0.273768
0.272691
0.272284
0.272019
0.271992
0.272127
0.272212
0.272236
0.272398
0.272797
0.273299
0.274396
0.27436
0.269485
0.263284
0.259321
0.250449
0.232851
0.202501
0.160429
0.0823922
0.0943401
0.171885
0.210581
0.238707
0.254493
0.261149
0.262753
0.266533
0.270852
0.272435
0.273029
0.273465
0.273452
0.273117
0.272936
0.273023
0.273378
0.273909
0.274143
0.273802
0.273285
0.271825
0.267607
0.26385
0.262469
0.256083
0.240414
0.212018
0.172805
0.0945938
0.101969
0.179695
0.218176
0.245111
0.25889
0.263482
0.264397
0.26585
0.268818
0.271471
0.273425
0.27444
0.27408
0.273162
0.272611
0.272693
0.273411
0.274545
0.275184
0.274315
0.272412
0.269828
0.266934
0.265598
0.264863
0.2605
0.246845
0.219756
0.180845
0.102411
0.100891
0.18207
0.221498
0.248412
0.260664
0.263552
0.264361
0.26601
0.267846
0.270283
0.272814
0.273856
0.273171
0.2719
0.271048
0.27113
0.272157
0.273656
0.274625
0.273757
0.271256
0.268829
0.267112
0.265588
0.264925
0.262287
0.250265
0.223249
0.183409
0.101441
0.0968205
0.178981
0.220289
0.248769
0.260661
0.262516
0.2626
0.264588
0.266239
0.268233
0.27059
0.27138
0.270582
0.269354
0.268611
0.268692
0.269614
0.271074
0.272136
0.271524
0.269201
0.267226
0.265728
0.26384
0.263916
0.26234
0.250741
0.22212
0.180379
0.0974365
0.0949973
0.170925
0.213919
0.245522
0.258785
0.26051
0.260367
0.261782
0.263795
0.265806
0.267614
0.268292
0.267918
0.267246
0.266843
0.266919
0.267485
0.268356
0.26895
0.268434
0.266698
0.264755
0.262867
0.261579
0.261932
0.260527
0.247558
0.215786
0.172323
0.0955965
0.0909309
0.15837
0.202069