/*--------------------------------*- C++ -*----------------------------------*\
| =========                 |                                                 |
| \\      /  F ield         | OpenFOAM: The Open Source CFD Toolbox           |
|  \\    /   O peration     | Version:  v1606+                                |
|   \\  /    A nd           | Web:      www.OpenFOAM.com                      |
|    \\/     M anipulation  |                                                 |
\*---------------------------------------------------------------------------*/
FoamFile
{
    version     2.0;
    format      ascii;
    class       volVectorField;
    location    "0.29";
    object      Ur;
}
// * * * * * * * * * * * * * * * * * * * * * * * * * * * * * * * * * * * * * //

dimensions      [0 1 -1 0 0 0 0];

internalField   nonuniform List<vector> 
6000
(
(-0.0131333 -0.59943 0)
(-0.0433387 -0.625016 0)
(-0.0384546 -0.63505 0)
(-0.026626 -0.631431 0)
(-0.0216366 -0.643592 0)
(-0.0201124 -0.640385 0)
(-0.0234761 -0.656307 0)
(-0.0268725 -0.675944 0)
(-0.0293124 -0.690783 0)
(-0.0315899 -0.696917 0)
(-0.0295459 -0.698276 0)
(-0.0213393 -0.696464 0)
(-0.0133824 -0.699277 0)
(-0.00739106 -0.701861 0)
(-0.00187155 -0.704199 0)
(0.0027042 -0.701554 0)
(0.00849204 -0.699526 0)
(0.0159202 -0.697635 0)
(0.0246053 -0.697366 0)
(0.030249 -0.699572 0)
(0.0306863 -0.695588 0)
(0.0294797 -0.684215 0)
(0.027607 -0.669924 0)
(0.0252228 -0.653746 0)
(0.0208231 -0.640766 0)
(0.0205222 -0.645146 0)
(0.0271391 -0.632549 0)
(0.0403612 -0.631709 0)
(0.0453881 -0.62284 0)
(0.014252 -0.596454 0)
(-0.00943409 -0.928292 0)
(-0.0143418 -0.974995 0)
(0.00054762 -1.02231 0)
(0.00719119 -0.999995 0)
(-0.00167342 -0.990232 0)
(-0.0137913 -0.980688 0)
(-0.0231986 -0.98287 0)
(-0.0321992 -0.991393 0)
(-0.0388508 -0.999937 0)
(-0.0398084 -1.00462 0)
(-0.0367647 -1.0062 0)
(-0.0323566 -1.00744 0)
(-0.0248102 -1.00677 0)
(-0.0149474 -1.01133 0)
(-0.00430416 -1.01552 0)
(0.0066068 -1.01065 0)
(0.0167778 -1.00889 0)
(0.0260894 -1.00851 0)
(0.0332764 -1.00937 0)
(0.038959 -1.00883 0)
(0.0422846 -1.00537 0)
(0.0408295 -0.99772 0)
(0.0345902 -0.989126 0)
(0.0252025 -0.981913 0)
(0.0145204 -0.981535 0)
(0.00171301 -0.991622 0)
(-0.00817105 -1.00152 0)
(-0.00116774 -1.02225 0)
(0.0156066 -0.976469 0)
(0.0103731 -0.925659 0)
(0.0161842 -0.792048 0)
(0.044093 -0.815758 0)
(0.05151 -0.819166 0)
(0.0343895 -0.785544 0)
(0.0123162 -0.772914 0)
(-0.0100478 -0.770787 0)
(-0.0305873 -0.779129 0)
(-0.0446673 -0.794628 0)
(-0.0512146 -0.811296 0)
(-0.050461 -0.825181 0)
(-0.0455416 -0.836601 0)
(-0.0387411 -0.84399 0)
(-0.0287748 -0.846776 0)
(-0.0167347 -0.848461 0)
(-0.00512473 -0.849325 0)
(0.0071051 -0.848798 0)
(0.0196075 -0.848334 0)
(0.0310618 -0.847669 0)
(0.0403281 -0.844056 0)
(0.047959 -0.835803 0)
(0.0537654 -0.824571 0)
(0.0541255 -0.810151 0)
(0.0469917 -0.792962 0)
(0.0317924 -0.777746 0)
(0.0102073 -0.768556 0)
(-0.013579 -0.771952 0)
(-0.0371855 -0.785152 0)
(-0.0540229 -0.820966 0)
(-0.0446842 -0.81783 0)
(-0.0158907 -0.790232 0)
(0.0366771 -0.843841 0)
(0.0855227 -0.818301 0)
(0.0953819 -0.784686 0)
(0.0737663 -0.732572 0)
(0.0321652 -0.709648 0)
(-0.0135385 -0.706962 0)
(-0.0496733 -0.723289 0)
(-0.0689088 -0.747677 0)
(-0.0740463 -0.771674 0)
(-0.0695457 -0.791781 0)
(-0.0592958 -0.806298 0)
(-0.0464418 -0.815095 0)
(-0.0322032 -0.819247 0)
(-0.0179353 -0.821067 0)
(-0.00499329 -0.820983 0)
(0.00760695 -0.820889 0)
(0.0210703 -0.821196 0)
(0.0352071 -0.819555 0)
(0.049247 -0.815057 0)
(0.0621642 -0.805784 0)
(0.07274 -0.791128 0)
(0.0773098 -0.770793 0)
(0.0719008 -0.746162 0)
(0.0513582 -0.720955 0)
(0.0130923 -0.703862 0)
(-0.0352693 -0.704977 0)
(-0.0793178 -0.730886 0)
(-0.101892 -0.787193 0)
(-0.0903008 -0.825083 0)
(-0.0379614 -0.846405 0)
(0.0538495 -0.874925 0)
(0.110401 -0.781513 0)
(0.111934 -0.714823 0)
(0.0877806 -0.627824 0)
(0.0442276 -0.592815 0)
(-0.00373163 -0.592708 0)
(-0.0470079 -0.624216 0)
(-0.0765175 -0.667179 0)
(-0.0866049 -0.705965 0)
(-0.0810874 -0.734376 0)
(-0.0672797 -0.751622 0)
(-0.0506503 -0.760834 0)
(-0.0334571 -0.764999 0)
(-0.0176544 -0.765164 0)
(-0.00458091 -0.763183 0)
(0.00748967 -0.763628 0)
(0.0209408 -0.765212 0)
(0.0366772 -0.765231 0)
(0.0537032 -0.760717 0)
(0.0702549 -0.751454 0)
(0.0841361 -0.733858 0)
(0.0894718 -0.704896 0)
(0.0785665 -0.664845 0)
(0.0472272 -0.619674 0)
(0.00169859 -0.586823 0)
(-0.0474676 -0.586935 0)
(-0.0919045 -0.624157 0)
(-0.118322 -0.715244 0)
(-0.117094 -0.791492 0)
(-0.0564243 -0.883163 0)
(0.0355837 -0.918277 0)
(0.0640351 -0.753205 0)
(0.0572773 -0.679846 0)
(0.0484495 -0.595849 0)
(0.0384826 -0.560587 0)
(0.0234015 -0.551821 0)
(-0.00311178 -0.571612 0)
(-0.0345984 -0.612063 0)
(-0.0531685 -0.658829 0)
(-0.0553466 -0.692203 0)
(-0.0482156 -0.711938 0)
(-0.0370623 -0.721738 0)
(-0.0248685 -0.725466 0)
(-0.0133337 -0.722818 0)
(-0.00349187 -0.719148 0)
(0.00564352 -0.720049 0)
(0.0156558 -0.722869 0)
(0.0271632 -0.72582 0)
(0.0391894 -0.721428 0)
(0.0501253 -0.711899 0)
(0.0569783 -0.69172 0)
(0.0540384 -0.657642 0)
(0.0337509 -0.609481 0)
(0.000770755 -0.567939 0)
(-0.0261219 -0.548061 0)
(-0.040928 -0.558137 0)
(-0.0499135 -0.59456 0)
(-0.0588392 -0.679738 0)
(-0.067345 -0.763532 0)
(-0.0377102 -0.931465 0)
(-0.0167262 -0.948383 0)
(-0.028884 -0.791165 0)
(-0.0111311 -0.742393 0)
(0.0183766 -0.692042 0)
(0.041135 -0.669373 0)
(0.0453492 -0.650386 0)
(0.0311202 -0.639072 0)
(0.00843371 -0.654046 0)
(-0.00883079 -0.689266 0)
(-0.0175847 -0.716695 0)
(-0.0201754 -0.734483 0)
(-0.0183705 -0.74345 0)
(-0.0143798 -0.746874 0)
(-0.0091334 -0.744984 0)
(-0.00272352 -0.741742 0)
(0.00403833 -0.742686 0)
(0.0102568 -0.745194 0)
(0.015386 -0.747554 0)
(0.0192142 -0.743597 0)
(0.0208361 -0.735197 0)
(0.0177272 -0.716976 0)
(0.00802266 -0.689139 0)
(-0.0107369 -0.652811 0)
(-0.0347744 -0.638864 0)
(-0.0491815 -0.650691 0)
(-0.0443615 -0.67054 0)
(-0.0190604 -0.69494 0)
(0.014558 -0.744132 0)
(0.0313792 -0.798108 0)
(0.0164527 -0.961611 0)
(-0.0450341 -1.01502 0)
(-0.0767133 -0.953786 0)
(-0.0344689 -0.976878 0)
(0.0228989 -0.970637 0)
(0.0613864 -0.938395 0)
(0.068269 -0.896248 0)
(0.0533269 -0.865866 0)
(0.0286108 -0.862978 0)
(0.00627216 -0.886027 0)
(-0.00734467 -0.906426 0)
(-0.0130345 -0.920755 0)
(-0.0136373 -0.928476 0)
(-0.0117481 -0.931378 0)
(-0.00833017 -0.930968 0)
(-0.00288731 -0.929412 0)
(0.00327426 -0.929922 0)
(0.00844339 -0.930889 0)
(0.0116911 -0.931818 0)
(0.013446 -0.928803 0)
(0.0127227 -0.921738 0)
(0.00646855 -0.907043 0)
(-0.00786077 -0.886361 0)
(-0.031132 -0.862091 0)
(-0.0571501 -0.86582 0)
(-0.0727658 -0.897702 0)
(-0.0660078 -0.941658 0)
(-0.0243838 -0.97724 0)
(0.0406257 -0.980262 0)
(0.0847558 -0.954764 0)
(0.0479383 -1.02414 0)
(-0.0581366 -1.118 0)
(-0.126546 -1.14502 0)
(-0.0822661 -1.21382 0)
(0.0381839 -1.20166 0)
(0.12006 -1.14368 0)
(0.121894 -1.09422 0)
(0.0771797 -1.06844 0)
(0.0178107 -1.07937 0)
(-0.0191803 -1.11554 0)
(-0.0275337 -1.13998 0)
(-0.0259861 -1.15263 0)
(-0.0199209 -1.15566 0)
(-0.0136443 -1.15502 0)
(-0.00825158 -1.15287 0)
(-0.00310191 -1.15084 0)
(0.00207938 -1.15063 0)
(0.00705011 -1.15177 0)
(0.0119236 -1.15344 0)
(0.0180091 -1.154 0)
(0.0243427 -1.15068 0)
(0.0264614 -1.13761 0)
(0.0185537 -1.11211 0)
(-0.0198825 -1.07382 0)
(-0.0827197 -1.06217 0)
(-0.129239 -1.08987 0)
(-0.121559 -1.14111 0)
(-0.0334779 -1.20706 0)
(0.0878706 -1.21549 0)
(0.132904 -1.13957 0)
(0.0617615 -1.11846 0)
(-0.0377235 -1.09558 0)
(-0.0697031 -1.19784 0)
(0.01624 -1.40561 0)
(0.195121 -1.4156 0)
(0.268718 -1.24087 0)
(0.223262 -1.13131 0)
(0.129208 -1.09653 0)
(0.0335015 -1.13647 0)
(-0.0310499 -1.21588 0)
(-0.0592116 -1.26301 0)
(-0.0576203 -1.28287 0)
(-0.0443772 -1.28815 0)
(-0.0278911 -1.2851 0)
(-0.0154672 -1.28205 0)
(-0.00525969 -1.27932 0)
(0.00412974 -1.27955 0)
(0.0140409 -1.28084 0)
(0.0260636 -1.28403 0)
(0.042817 -1.28708 0)
(0.0571571 -1.28241 0)
(0.0597356 -1.26197 0)
(0.030878 -1.21272 0)
(-0.0372763 -1.12821 0)
(-0.138816 -1.08591 0)
(-0.237576 -1.12633 0)
(-0.280128 -1.25047 0)
(-0.194424 -1.43005 0)
(-0.0102772 -1.41205 0)
(0.0740215 -1.19311 0)
(0.039433 -1.09045 0)
(0.0394156 -1.25522 0)
(0.16405 -1.46715 0)
(0.361463 -1.62342 0)
(0.526238 -1.49758 0)
(0.528909 -1.19979 0)
(0.461184 -1.08325 0)
(0.292392 -1.02397 0)
(0.114789 -1.12687 0)
(-0.0223704 -1.21966 0)
(-0.0987551 -1.33806 0)
(-0.115911 -1.39663 0)
(-0.0995475 -1.42347 0)
(-0.0668445 -1.42259 0)
(-0.0371468 -1.41901 0)
(-0.0123274 -1.41515 0)
(0.01095 -1.41547 0)
(0.0355177 -1.41856 0)
(0.0650609 -1.42215 0)
(0.0983319 -1.42343 0)
(0.115941 -1.39625 0)
(0.0991098 -1.33523 0)
(0.0204301 -1.21116 0)
(-0.121453 -1.11104 0)
(-0.302302 -1.0051 0)
(-0.471581 -1.07245 0)
(-0.53755 -1.20543 0)
(-0.529269 -1.50783 0)
(-0.359434 -1.62889 0)
(-0.162011 -1.46568 0)
(-0.0385931 -1.2489 0)
(0.155463 -1.36909 0)
(0.350501 -1.43189 0)
(0.468849 -1.46751 0)
(0.539502 -1.29098 0)
(0.517784 -0.948798 0)
(0.464576 -0.780272 0)
(0.310498 -0.669412 0)
(0.153185 -0.794361 0)
(0.0201752 -0.922279 0)
(-0.0569265 -1.0783 0)
(-0.0915245 -1.16683 0)
(-0.09412 -1.2167 0)
(-0.0709552 -1.22578 0)
(-0.0408224 -1.21935 0)
(-0.0138333 -1.21481 0)
(0.0124467 -1.21481 0)
(0.0392587 -1.21893 0)
(0.0692172 -1.22541 0)
(0.0925202 -1.21805 0)
(0.0902548 -1.16794 0)
(0.0554777 -1.07655 0)
(-0.0231361 -0.913434 0)
(-0.158883 -0.777252 0)
(-0.31653 -0.656073 0)
(-0.468729 -0.778087 0)
(-0.519412 -0.959823 0)
(-0.539223 -1.30315 0)
(-0.469644 -1.47267 0)
(-0.353311 -1.43242 0)
(-0.157224 -1.36636 0)
(0.12186 -1.44601 0)
(0.260853 -1.45608 0)
(0.34009 -1.445 0)
(0.391195 -1.23326 0)
(0.402915 -0.882114 0)
(0.386511 -0.673393 0)
(0.274852 -0.526499 0)
(0.158558 -0.644468 0)
(0.0539783 -0.807074 0)
(-0.00560263 -0.986877 0)
(-0.0430416 -1.09471 0)
(-0.0625539 -1.16838 0)
(-0.0574869 -1.20013 0)
(-0.0349601 -1.19976 0)
(-0.0119304 -1.19686 0)
(0.0107638 -1.19673 0)
(0.0336286 -1.19919 0)
(0.0561309 -1.19964 0)
(0.0610504 -1.16974 0)
(0.0409647 -1.09582 0)
(0.0031394 -0.985246 0)
(-0.0567768 -0.798673 0)
(-0.161612 -0.627946 0)
(-0.277104 -0.514471 0)
(-0.386921 -0.671273 0)
(-0.401664 -0.892876 0)
(-0.39017 -1.24401 0)
(-0.342051 -1.44997 0)
(-0.264693 -1.45766 0)
(-0.124582 -1.44689 0)
(0.0871997 -1.57591 0)
(0.169938 -1.50413 0)
(0.221993 -1.43591 0)
(0.267064 -1.19604 0)
(0.29599 -0.84267 0)
(0.305551 -0.602001 0)
(0.225842 -0.422325 0)
(0.139993 -0.541256 0)
(0.0637077 -0.734574 0)
(0.0231813 -0.927407 0)
(-0.00840367 -1.04666 0)
(-0.0313197 -1.13385 0)
(-0.0399122 -1.18701 0)
(-0.0283468 -1.19497 0)
(-0.00962162 -1.19406 0)
(0.0090186 -1.19383 0)
(0.0275805 -1.1942 0)
(0.0391792 -1.18651 0)
(0.0301942 -1.13445 0)
(0.00632722 -1.04698 0)
(-0.0258451 -0.925526 0)
(-0.0661692 -0.727182 0)
(-0.141092 -0.527221 0)
(-0.225348 -0.412051 0)
(-0.303856 -0.603218 0)
(-0.292733 -0.851626 0)
(-0.266299 -1.20451 0)
(-0.224298 -1.43892 0)
(-0.173569 -1.50545 0)
(-0.089887 -1.57945 0)
(0.0740294 -1.63026 0)
(0.124666 -1.50463 0)
(0.153015 -1.41423 0)
(0.183362 -1.16312 0)
(0.207681 -0.814956 0)
(0.230642 -0.554467 0)
(0.170639 -0.347506 0)
(0.109125 -0.471647 0)
(0.0611147 -0.686908 0)
(0.0393989 -0.87403 0)
(0.0150253 -0.994755 0)
(-0.00378736 -1.08451 0)
(-0.0187378 -1.14925 0)
(-0.0194817 -1.17173 0)
(-0.00713147 -1.17199 0)
(0.00725871 -1.17165 0)
(0.0196324 -1.17082 0)
(0.0188595 -1.14861 0)
(0.00335792 -1.08411 0)
(-0.016363 -0.99406 0)
(-0.0412089 -0.871609 0)
(-0.0626063 -0.680212 0)
(-0.109398 -0.458899 0)
(-0.169295 -0.339028 0)
(-0.228223 -0.557468 0)
(-0.203468 -0.82321 0)
(-0.182633 -1.1684 0)
(-0.155423 -1.41579 0)
(-0.128427 -1.50621 0)
(-0.0770646 -1.63696 0)
(0.0775641 -1.67404 0)
(0.113692 -1.48477 0)
(0.118168 -1.37019 0)
(0.129085 -1.11836 0)
(0.141311 -0.790979 0)
(0.16469 -0.526972 0)
(0.120175 -0.297837 0)
(0.0731033 -0.420114 0)
(0.0526384 -0.65046 0)
(0.0531016 -0.823999 0)
(0.0312775 -0.943947 0)
(0.0181384 -1.03453 0)
(0.00438804 -1.10011 0)
(-0.00450238 -1.13547 0)
(-0.00246769 -1.14414 0)
(0.00363408 -1.14386 0)
(0.00572015 -1.13438 0)
(-0.00341735 -1.09888 0)
(-0.0177638 -1.03318 0)
(-0.0315443 -0.942365 0)
(-0.0536874 -0.8215 0)
(-0.0530709 -0.644233 0)
(-0.0726129 -0.409115 0)
(-0.118044 -0.290867 0)
(-0.161875 -0.531207 0)
(-0.138289 -0.796774 0)
(-0.12873 -1.12097 0)
(-0.119661 -1.36999 0)
(-0.116664 -1.48572 0)
(-0.0805971 -1.68384 0)
(0.0857269 -1.71142 0)
(0.110225 -1.44609 0)
(0.0944068 -1.30674 0)
(0.0928617 -1.06208 0)
(0.0949946 -0.760796 0)
(0.110866 -0.503919 0)
(0.0788962 -0.266954 0)
(0.0461569 -0.383877 0)
(0.0405791 -0.672809 0)
(0.0455683 -0.778886 0)
(0.033799 -0.896853 0)
(0.027933 -0.987365 0)
(0.0207613 -1.05016 0)
(0.0111457 -1.08766 0)
(0.00359387 -1.10157 0)
(-0.00147617 -1.10133 0)
(-0.00919102 -1.0863 0)
(-0.0192287 -1.04821 0)
(-0.0269831 -0.985241 0)
(-0.0332586 -0.894705 0)
(-0.0453451 -0.775978 0)
(-0.0405253 -0.66611 0)
(-0.0454299 -0.374622 0)
(-0.076579 -0.261853 0)
(-0.107989 -0.507537 0)
(-0.0932081 -0.765106 0)
(-0.0924565 -1.06374 0)
(-0.094424 -1.3057 0)
(-0.110814 -1.44602 0)
(-0.0873016 -1.72378 0)
(0.083512 -1.74636 0)
(0.092102 -1.38661 0)
(0.0671549 -1.23287 0)
(0.0638203 -1.00329 0)
(0.0647505 -0.725926 0)
(0.0700987 -0.478688 0)
(0.0454294 -0.250417 0)
(0.0273702 -0.359682 0)
(0.016878 -0.639225 0)
(0.0199206 -0.743475 0)
(0.0266504 -0.858785 0)
(0.0277647 -0.946077 0)
(0.0258933 -1.00455 0)
(0.0183116 -1.03809 0)
(0.00709224 -1.04989 0)
(-0.00475251 -1.04946 0)
(-0.0162442 -1.03643 0)
(-0.0242347 -1.00217 0)
(-0.0265364 -0.943515 0)
(-0.0256749 -0.856406 0)
(-0.0191306 -0.74011 0)
(-0.0163665 -0.632494 0)
(-0.0264627 -0.351627 0)
(-0.043311 -0.246516 0)
(-0.0674054 -0.481133 0)
(-0.0634871 -0.728924 0)
(-0.063378 -1.0047 0)
(-0.0662762 -1.23207 0)
(-0.0899469 -1.38683 0)
(-0.0825818 -1.75839 0)
(0.0546945 -1.75658 0)
(0.0513634 -1.32265 0)
(0.038332 -1.16082 0)
(0.0383641 -0.947745 0)
(0.0414802 -0.691369 0)
(0.0374216 -0.446754 0)
(0.0159379 -0.241898 0)
(0.00722696 -0.344122 0)
(-0.00832502 -0.600964 0)
(0.000620569 -0.712338 0)
(0.0262491 -0.824267 0)
(0.0287939 -0.905022 0)
(0.0270609 -0.958199 0)
(0.0195792 -0.986587 0)
(0.00780119 -0.996754 0)
(-0.00558185 -0.996149 0)
(-0.0176399 -0.984559 0)
(-0.0254507 -0.955335 0)
(-0.0275149 -0.902189 0)
(-0.0252276 -0.821535 0)
(8.47142e-05 -0.708961 0)
(0.00874432 -0.594258 0)
(-0.00645615 -0.337092 0)
(-0.0139773 -0.239105 0)
(-0.0344706 -0.448223 0)
(-0.0400131 -0.692702 0)
(-0.0383314 -0.949024 0)
(-0.0377441 -1.16131 0)
(-0.0485577 -1.32392 0)
(-0.0523335 -1.76576 0)
(0.0143206 -1.71661 0)
(0.00397431 -1.2705 0)
(0.0127455 -1.09696 0)
(0.0109221 -0.891986 0)
(0.0180869 -0.646904 0)
(0.0135131 -0.408802 0)
(-0.00406898 -0.239521 0)
(-0.00415457 -0.327478 0)
(-0.0182167 -0.549628 0)
(-0.0225506 -0.734149 0)
(0.0118706 -0.786729 0)
(0.0317383 -0.863438 0)
(0.0274774 -0.907621 0)
(0.0184181 -0.932434 0)
(0.00720138 -0.940299 0)
(-0.00535089 -0.939584 0)
(-0.0168324 -0.930244 0)
(-0.0260875 -0.904559 0)
(-0.0306274 -0.860288 0)
(-0.0111016 -0.78375 0)
(0.0229326 -0.7298 0)
(0.0183832 -0.542886 0)
(0.00461962 -0.321091 0)
(0.00588419 -0.238329 0)
(-0.00985839 -0.40932 0)
(-0.0157774 -0.645638 0)
(-0.0114811 -0.892294 0)
(-0.0136731 -1.09887 0)
(-0.00318384 -1.27336 0)
(-0.013048 -1.72323 0)
(-0.0172807 -1.62502 0)
(-0.0238168 -1.23423 0)
(0.0033373 -1.05439 0)
(0.00868287 -0.83753 0)
(-0.00180433 -0.649667 0)
(-0.0151784 -0.367861 0)
(-0.0181361 -0.242754 0)
(-0.00660523 -0.313023 0)
(-0.00833512 -0.494751 0)
(-0.025274 -0.677714 0)
(-0.0169243 -0.810563 0)
(0.0177388 -0.817161 0)
(0.0276946 -0.853776 0)
(0.0159523 -0.877991 0)
(0.00600865 -0.885408 0)
(-0.00477715 -0.88458 0)
(-0.014987 -0.875712 0)
(-0.0267668 -0.850563 0)
(-0.0170959 -0.813591 0)
(0.0169067 -0.806723 0)
(0.024722 -0.67292 0)
(0.00765812 -0.488329 0)
(0.00668151 -0.308147 0)
(0.0202566 -0.243479 0)
(0.0196154 -0.367684 0)
(0.00583014 -0.644229 0)
(-0.00876259 -0.834354 0)
(-0.00607901 -1.05696 0)
(0.0218647 -1.23793 0)
(0.017066 -1.63095 0)
(-0.0303765 -1.51526 0)
(-0.0309643 -1.21475 0)
(0.00144142 -1.0278 0)
(0.015667 -0.766059 0)
(-0.0194072 -0.556014 0)
(-0.0451381 -0.332824 0)
(-0.0268087 -0.25173 0)
(-0.002703 -0.302796 0)
(0.00632868 -0.449155 0)
(-0.000161396 -0.617984 0)
(-0.0116818 -0.751539 0)
(-0.00595689 -0.82724 0)
(0.00810085 -0.7884 0)
(0.00920846 -0.805419 0)
(0.00399946 -0.810936 0)
(-0.00333199 -0.810108 0)
(-0.00870691 -0.803164 0)
(-0.00796226 -0.785326 0)
(0.00544659 -0.82274 0)
(0.01045 -0.746978 0)
(-0.00149944 -0.613097 0)
(-0.00766267 -0.443768 0)
(0.00259592 -0.299763 0)
(0.0285182 -0.253694 0)
(0.0486644 -0.333511 0)
(0.0248972 -0.550027 0)
(-0.0123372 -0.758704 0)
(-0.00367454 -1.02822 0)
(0.0271175 -1.22142 0)
(0.0286252 -1.52387 0)
(-0.0220048 -1.41398 0)
(-0.0292028 -1.18719 0)
(0.0107853 -0.969159 0)
(-0.00463059 -0.727597 0)
(-0.0589916 -0.469624 0)
(-0.0622551 -0.319073 0)
(-0.0277091 -0.265857 0)
(0.00615483 -0.300493 0)
(0.0264879 -0.418867 0)
(0.0339383 -0.566834 0)
(0.0294131 -0.685804 0)
(0.0137004 -0.752446 0)
(0.00973011 -0.774288 0)
(0.0130929 -0.785813 0)
(0.00514741 -0.787336 0)
(-0.00526304 -0.78634 0)
(-0.0132807 -0.782946 0)
(-0.0105302 -0.770032 0)
(-0.0152113 -0.747378 0)
(-0.0314666 -0.680947 0)
(-0.0362359 -0.562444 0)
(-0.027847 -0.415517 0)
(-0.00583979 -0.29965 0)
(0.0290754 -0.268085 0)
(0.0642228 -0.320128 0)
(0.0634712 -0.466832 0)
(0.0127293 -0.718409 0)
(-0.00947828 -0.962044 0)
(0.0252646 -1.19273 0)
(0.0199702 -1.42534 0)
(-0.00589043 -1.33462 0)
(0.00732967 -1.14105 0)
(0.00342197 -0.960624 0)
(-0.0637999 -0.601558 0)
(-0.0999852 -0.41317 0)
(-0.0763768 -0.319047 0)
(-0.0290575 -0.289188 0)
(0.0172663 -0.31412 0)
(0.0513514 -0.407359 0)
(0.0704351 -0.529112 0)
(0.071994 -0.623949 0)
(0.0585292 -0.675881 0)
(0.0421132 -0.691658 0)
(0.0268032 -0.696652 0)
(0.00862267 -0.695307 0)
(-0.00991421 -0.694308 0)
(-0.0281117 -0.693767 0)
(-0.043595 -0.687299 0)
(-0.0602769 -0.670764 0)
(-0.0739902 -0.619214 0)
(-0.0723942 -0.525505 0)
(-0.0522475 -0.405881 0)
(-0.0166562 -0.315036 0)
(0.0303525 -0.291475 0)
(0.0779141 -0.32015 0)
(0.102924 -0.412455 0)
(0.0715419 -0.595929 0)
(0.00511313 -0.945292 0)
(-0.0103584 -1.14394 0)
(0.00288392 -1.34903 0)
(0.0128357 -1.24179 0)
(0.0385995 -1.06978 0)
(-0.0407108 -0.804273 0)
(-0.126147 -0.510132 0)
(-0.126691 -0.385439 0)
(-0.0880527 -0.330842 0)
(-0.0328463 -0.320533 0)
(0.0257681 -0.341455 0)
(0.0726292 -0.410314 0)
(0.0977314 -0.49992 0)
(0.0986896 -0.568027 0)
(0.082362 -0.604016 0)
(0.0590127 -0.615862 0)
(0.0348198 -0.618633 0)
(0.010704 -0.617206 0)
(-0.0127795 -0.61632 0)
(-0.0367771 -0.616046 0)
(-0.0607325 -0.61179 0)
(-0.0838124 -0.599267 0)
(-0.0999018 -0.56355 0)
(-0.0985453 -0.497013 0)
(-0.0726264 -0.409952 0)
(-0.024893 -0.343113 0)
(0.0340667 -0.322613 0)
(0.0895107 -0.332031 0)
(0.128705 -0.38524 0)
(0.129961 -0.506361 0)
(0.0481334 -0.790494 0)
(-0.033939 -1.06642 0)
(-0.0133947 -1.25617 0)
(0.0135821 -1.24539 0)
(-0.0216708 -1.01213 0)
(-0.118244 -0.658724 0)
(-0.165191 -0.456054 0)
(-0.143937 -0.378285 0)
(-0.0964718 -0.352621 0)
(-0.0362251 -0.353754 0)
(0.026565 -0.37145 0)
(0.0772794 -0.417016 0)
(0.101884 -0.474571 0)
(0.0999533 -0.516682 0)
(0.0819023 -0.537772 0)
(0.0577856 -0.545246 0)
(0.0332464 -0.546128 0)
(0.00998717 -0.545373 0)
(-0.0124517 -0.544681 0)
(-0.0354614 -0.544125 0)
(-0.0594736 -0.542127 0)
(-0.0828941 -0.534069 0)
(-0.100187 -0.513197 0)
(-0.101392 -0.472495 0)
(-0.0762872 -0.417205 0)
(-0.0254635 -0.373146 0)
(0.0371329 -0.355588 0)
(0.097555 -0.354181 0)
(0.145154 -0.37845 0)
(0.167295 -0.454059 0)
(0.124809 -0.648959 0)
(0.0293179 -1.00362 0)
(-0.0123465 -1.26004 0)
(-0.0096877 -1.13326 0)
(-0.0956122 -0.841005 0)
(-0.18163 -0.565495 0)
(-0.18855 -0.440041 0)
(-0.149917 -0.391872 0)
(-0.0973731 -0.380606 0)
(-0.0394206 -0.383834 0)
(0.0150587 -0.397507 0)
(0.0576906 -0.425721 0)
(0.0778822 -0.46145 0)
(0.0760829 -0.48909 0)
(0.0617817 -0.504114 0)
(0.0433791 -0.510675 0)
(0.0248093 -0.513086 0)
(0.0071512 -0.513509 0)
(-0.00991102 -0.513173 0)
(-0.0272462 -0.512112 0)
(-0.0451894 -0.509201 0)
(-0.0626904 -0.502313 0)
(-0.0759096 -0.487406 0)
(-0.0767632 -0.460709 0)
(-0.0562433 -0.426501 0)
(-0.0139415 -0.399241 0)
(0.0400383 -0.385717 0)
(0.0978686 -0.382566 0)
(0.150419 -0.392904 0)
(0.18951 -0.439761 0)
(0.185728 -0.560908 0)
(0.103216 -0.831709 0)
(0.0140875 -1.1412 0)
(-0.0384173 -1.03065 0)
(-0.140789 -0.720602 0)
(-0.203988 -0.541994 0)
(-0.186917 -0.457498 0)
(-0.142894 -0.42331 0)
(-0.0934736 -0.414102 0)
(-0.0469677 -0.415821 0)
(-0.0076805 -0.426789 0)
(0.022515 -0.446917 0)
(0.0397282 -0.472855 0)
(0.0434456 -0.496023 0)
(0.0378886 -0.511761 0)
(0.0278979 -0.52074 0)
(0.0163008 -0.525248 0)
(0.00432729 -0.526972 0)
(-0.00756728 -0.52684 0)
(-0.019181 -0.524849 0)
(-0.0300756 -0.520107 0)
(-0.0390779 -0.511003 0)
(-0.0435284 -0.495436 0)
(-0.0389436 -0.472967 0)
(-0.0214468 -0.448029 0)
(0.00855221 -0.428569 0)
(0.0475203 -0.417864 0)
(0.0936391 -0.416327 0)
(0.142989 -0.425269 0)
(0.187223 -0.458911 0)
(0.206264 -0.542035 0)
(0.146961 -0.716342 0)
(0.0429889 -1.03148 0)
(-0.0582277 -0.933295 0)
(-0.160827 -0.666077 0)
(-0.19898 -0.557571 0)
(-0.169965 -0.49324 0)
(-0.13142 -0.462299 0)
(-0.0938733 -0.451129 0)
(-0.061608 -0.451535 0)
(-0.0336473 -0.460565 0)
(-0.0100532 -0.475902 0)
(0.00724129 -0.494906 0)
(0.0167251 -0.513095 0)
(0.0191794 -0.527137 0)
(0.0164324 -0.536254 0)
(0.0103346 -0.541387 0)
(0.00248998 -0.543482 0)
(-0.00576271 -0.543282 0)
(-0.013234 -0.540818 0)
(-0.018699 -0.535449 0)
(-0.0206655 -0.526272 0)
(-0.0173885 -0.512441 0)
(-0.00725527 -0.494814 0)
(0.010346 -0.476524 0)
(0.0340185 -0.461781 0)
(0.0619936 -0.453149 0)
(0.0941164 -0.453002 0)
(0.131418 -0.464191 0)
(0.169753 -0.495125 0)
(0.19916 -0.559257 0)
(0.163968 -0.666805 0)
(0.0612297 -0.932441 0)
(-0.0574317 -0.873464 0)
(-0.140908 -0.652843 0)
(-0.163141 -0.575712 0)
(-0.144934 -0.524077 0)
(-0.121942 -0.494796 0)
(-0.0985337 -0.483331 0)
(-0.0749331 -0.482733 0)
(-0.0509963 -0.48911 0)
(-0.0285478 -0.499598 0)
(-0.0100253 -0.511864 0)
(0.00274074 -0.523343 0)
(0.00935167 -0.532014 0)
(0.0104725 -0.536997 0)
(0.00735707 -0.539501 0)
(0.00173536 -0.540202 0)
(-0.00465173 -0.539991 0)
(-0.0100065 -0.53892 0)
(-0.0126593 -0.536163 0)
(-0.0109785 -0.531115 0)
(-0.00379628 -0.522601 0)
(0.00946232 -0.511469 0)
(0.0283358 -0.499611 0)
(0.0509823 -0.489569 0)
(0.0750336 -0.483568 0)
(0.0986758 -0.484403 0)
(0.121881 -0.495932 0)
(0.144277 -0.525071 0)
(0.161327 -0.576321 0)
(0.139197 -0.653565 0)
(0.0568893 -0.872971 0)
(-0.0350601 -0.835415 0)
(-0.0922982 -0.635325 0)
(-0.120216 -0.574713 0)
(-0.122923 -0.53773 0)
(-0.1156 -0.515581 0)
(-0.101274 -0.50663 0)
(-0.0814695 -0.506551 0)
(-0.0587509 -0.511955 0)
(-0.0365256 -0.519067 0)
(-0.0166441 -0.526529 0)
(-0.00120764 -0.53091 0)
(0.00802711 -0.532971 0)
(0.010926 -0.531539 0)
(0.00824013 -0.52996 0)
(0.00224806 -0.528762 0)
(-0.00486893 -0.528632 0)
(-0.0107014 -0.529549 0)
(-0.0130864 -0.530918 0)
(-0.00978634 -0.532282 0)
(-0.000120246 -0.530344 0)
(0.015749 -0.526204 0)
(0.0360331 -0.518937 0)
(0.0585765 -0.512055 0)
(0.0815183 -0.506937 0)
(0.101444 -0.507153 0)
(0.115684 -0.516006 0)
(0.122466 -0.537604 0)
(0.118625 -0.573621 0)
(0.0898129 -0.633735 0)
(0.0337011 -0.832508 0)
(-0.0196709 -0.787252 0)
(-0.0631246 -0.601945 0)
(-0.0979175 -0.558075 0)
(-0.111398 -0.537781 0)
(-0.111556 -0.526011 0)
(-0.101283 -0.523007 0)
(-0.0835509 -0.526114 0)
(-0.0607143 -0.532106 0)
(-0.037159 -0.535659 0)
(-0.0138626 -0.541007 0)
(0.0052458 -0.53621 0)
(0.0158805 -0.531153 0)
(0.0183027 -0.521837 0)
(0.0131433 -0.515719 0)
(0.00398799 -0.512431 0)
(-0.00649526 -0.512366 0)
(-0.0155249 -0.515485 0)
(-0.020479 -0.521469 0)
(-0.0178051 -0.530704 0)
(-0.00690329 -0.535892 0)
(0.0126137 -0.54104 0)
(0.0364568 -0.535833 0)
(0.0604729 -0.532258 0)
(0.083671 -0.526363 0)
(0.101758 -0.523306 0)
(0.112187 -0.526157 0)
(0.111793 -0.53712 0)
(0.0978891 -0.556162 0)
(0.0629844 -0.599062 0)
(0.0196467 -0.782221 0)
(-0.02083 -0.734073 0)
(-0.0632204 -0.567391 0)
(-0.0949165 -0.538063 0)
(-0.107853 -0.531499 0)
(-0.109681 -0.530544 0)
(-0.101052 -0.53466 0)
(-0.082503 -0.542159 0)
(-0.0561026 -0.549373 0)
(-0.0301942 -0.546807 0)
(-0.00247091 -0.555717 0)
(0.0209718 -0.53766 0)
(0.0304111 -0.525624 0)
(0.0294949 -0.508192 0)
(0.0197447 -0.498121 0)
(0.00608904 -0.493121 0)
(-0.00865458 -0.493118 0)
(-0.0221475 -0.498057 0)
(-0.0316894 -0.508053 0)
(-0.0324446 -0.525365 0)
(-0.0230263 -0.537499 0)
(0.000641759 -0.556315 0)
(0.0291483 -0.547728 0)
(0.0558857 -0.549996 0)
(0.0829351 -0.542559 0)
(0.102037 -0.535085 0)
(0.111064 -0.53088 0)
(0.109315 -0.530936 0)
(0.096179 -0.536257 0)
(0.0642994 -0.564676 0)
(0.0213579 -0.728964 0)
(-0.0282545 -0.679749 0)
(-0.0733491 -0.541766 0)
(-0.0977437 -0.521323 0)
(-0.107583 -0.522637 0)
(-0.109039 -0.530251 0)
(-0.098236 -0.541679 0)
(-0.0732444 -0.554364 0)
(-0.0398196 -0.560296 0)
(-0.0133866 -0.547508 0)
(0.0127509 -0.564381 0)
(0.0369398 -0.533322 0)
(0.0442295 -0.514004 0)
(0.0382644 -0.490712 0)
(0.0239693 -0.478398 0)
(0.00713691 -0.473062 0)
(-0.00981734 -0.473146 0)
(-0.0264446 -0.478495 0)
(-0.0404253 -0.490728 0)
(-0.0462271 -0.513797 0)
(-0.0393545 -0.532893 0)
(-0.0151507 -0.565471 0)
(0.0118598 -0.54918 0)
(0.0392646 -0.56189 0)
(0.0738228 -0.555145 0)
(0.0997251 -0.542262 0)
(0.111226 -0.530979 0)
(0.110119 -0.522361 0)
(0.0999009 -0.519695 0)
(0.0747033 -0.539251 0)
(0.0287147 -0.674604 0)
(-0.0320413 -0.62243 0)
(-0.076215 -0.523153 0)
(-0.0967608 -0.508373 0)
(-0.106964 -0.511944 0)
(-0.104462 -0.526327 0)
(-0.083128 -0.546189 0)
(-0.0438789 -0.563452 0)
(-0.00740707 -0.560534 0)
(0.0125683 -0.538436 0)
(0.0226955 -0.556178 0)
(0.0373856 -0.527508 0)
(0.0472188 -0.49707 0)
(0.0383833 -0.470097 0)
(0.0228986 -0.457594 0)
(0.00655482 -0.453642 0)
(-0.0093842 -0.453809 0)
(-0.0254492 -0.457896 0)
(-0.0404767 -0.470285 0)
(-0.0492923 -0.496505 0)
(-0.0398637 -0.525786 0)
(-0.0243914 -0.557555 0)
(-0.0138171 -0.540378 0)
(0.00595217 -0.562786 0)
(0.0437482 -0.565184 0)
(0.0845526 -0.546631 0)
(0.107361 -0.527546 0)
(0.110813 -0.511856 0)
(0.0999406 -0.50632 0)
(0.077805 -0.519922 0)
(0.032401 -0.616952 0)
(-0.0289635 -0.565819 0)
(-0.0690478 -0.504115 0)
(-0.0896044 -0.494516 0)
(-0.0977384 -0.499858 0)
(-0.0834605 -0.523283 0)
(-0.04202 -0.554918 0)
(0.00617643 -0.570877 0)
(0.0265849 -0.548553 0)
(0.028341 -0.525411 0)
(0.0230154 -0.534653 0)
(0.0249497 -0.531621 0)
(0.03394 -0.481742 0)
(0.0285014 -0.450028 0)
(0.0163749 -0.439513 0)
(0.00426598 -0.437668 0)
(-0.00727115 -0.437898 0)
(-0.0190837 -0.439985 0)
(-0.0307573 -0.450411 0)
(-0.0365769 -0.480449 0)
(-0.0269039 -0.52872 0)
(-0.02311 -0.536378 0)
(-0.0283212 -0.527113 0)
(-0.0271124 -0.550211 0)
(-0.00731541 -0.57384 0)
(0.041764 -0.556796 0)
(0.0866307 -0.525431 0)
(0.103365 -0.499965 0)
(0.094462 -0.491369 0)
(0.0714242 -0.49934 0)
(0.0294196 -0.559582 0)
(-0.0226688 -0.514941 0)
(-0.0587377 -0.485907 0)
(-0.0734594 -0.477779 0)
(-0.0651585 -0.4914 0)
(-0.0342712 -0.529436 0)
(0.0122469 -0.569764 0)
(0.0406043 -0.566556 0)
(0.0351216 -0.5271 0)
(0.0234934 -0.513258 0)
(0.0142146 -0.522754 0)
(0.0120627 -0.532963 0)
(0.0164096 -0.471576 0)
(0.0136201 -0.435281 0)
(0.00651718 -0.427421 0)
(0.000827375 -0.427528 0)
(-0.0039383 -0.427764 0)
(-0.00942948 -0.427936 0)
(-0.016161 -0.435698 0)
(-0.0189784 -0.469745 0)
(-0.0134363 -0.532207 0)
(-0.0140039 -0.524725 0)
(-0.0231263 -0.515186 0)
(-0.0348666 -0.5284 0)
(-0.0423359 -0.566992 0)
(-0.0133244 -0.574939 0)
(0.0392646 -0.533691 0)
(0.0737273 -0.490796 0)
(0.0806521 -0.472847 0)
(0.0619745 -0.478612 0)
(0.0230758 -0.507778 0)
(-0.0192853 -0.475865 0)
(-0.0415049 -0.473341 0)
(-0.0302976 -0.472797 0)
(0.00470762 -0.49668 0)
(0.0336661 -0.531951 0)
(0.0390203 -0.567005 0)
(0.0299784 -0.547219 0)
(0.0190258 -0.51473 0)
(0.011607 -0.509677 0)
(0.00423499 -0.518437 0)
(0.00216228 -0.527447 0)
(0.00188819 -0.461166 0)
(-0.00305088 -0.426463 0)
(-0.00477235 -0.422648 0)
(-0.00290561 -0.424376 0)
(-6.13001e-05 -0.424527 0)
(0.00182697 -0.422983 0)
(0.000396142 -0.426761 0)
(-0.00384879 -0.459354 0)
(-0.00337465 -0.528192 0)
(-0.00470651 -0.521211 0)
(-0.0116001 -0.512249 0)
(-0.0193809 -0.515714 0)
(-0.031844 -0.546302 0)
(-0.0379763 -0.576745 0)
(-0.0231429 -0.543332 0)
(0.0103378 -0.493297 0)
(0.0408861 -0.467541 0)
(0.0445101 -0.462105 0)
(0.0187992 -0.46819 0)
(-0.0133331 -0.447666 0)
(-0.00409514 -0.484016 0)
(0.0490332 -0.494045 0)
(0.100287 -0.523039 0)
(0.085338 -0.504766 0)
(0.0197183 -0.520502 0)
(-0.00954436 -0.53481 0)
(-0.00544538 -0.512194 0)
(-0.00117924 -0.51252 0)
(-0.00149089 -0.516187 0)
(-0.0073141 -0.512388 0)
(-0.0180932 -0.449108 0)
(-0.022776 -0.425738 0)
(-0.0161787 -0.426468 0)
(-0.0062598 -0.429097 0)
(0.00387096 -0.429016 0)
(0.0135372 -0.426253 0)
(0.0199307 -0.425405 0)
(0.0159412 -0.447432 0)
(0.00601972 -0.513147 0)
(0.000738886 -0.519534 0)
(0.000475135 -0.515002 0)
(0.00402851 -0.513118 0)
(0.0064588 -0.533966 0)
(-0.0133458 -0.540403 0)
(-0.0646035 -0.515788 0)
(-0.07942 -0.509849 0)
(-0.0379528 -0.484472 0)
(0.00532892 -0.466176 0)
(0.0117273 -0.441478 0)
(0.0119052 -0.438831 0)
(0.0530843 -0.546261 0)
(0.105597 -0.528001 0)
(0.150466 -0.531218 0)
(0.122615 -0.483393 0)
(0.0032756 -0.486649 0)
(-0.0565809 -0.547943 0)
(-0.0329026 -0.526974 0)
(-0.0139251 -0.51885 0)
(-0.00587218 -0.510003 0)
(-0.0254111 -0.493247 0)
(-0.0461544 -0.448839 0)
(-0.0404987 -0.43745 0)
(-0.0242194 -0.439068 0)
(-0.00816171 -0.440546 0)
(0.00700649 -0.440181 0)
(0.0226928 -0.438007 0)
(0.0383343 -0.43573 0)
(0.0439668 -0.445865 0)
(0.0237142 -0.491899 0)
(0.00449462 -0.51188 0)
(0.0122381 -0.520231 0)
(0.0300051 -0.525757 0)
(0.0565263 -0.542477 0)
(0.0220993 -0.507133 0)
(-0.0906692 -0.472896 0)
(-0.140156 -0.513222 0)
(-0.103438 -0.510773 0)
(-0.0521198 -0.521746 0)
(-0.0122056 -0.436016 0)
(0.0250378 -0.462113 0)
(0.0886014 -0.58657 0)
(0.128972 -0.548437 0)
(0.122936 -0.512579 0)
(0.0850351 -0.481868 0)
(0.0123756 -0.536834 0)
(-0.0432978 -0.590916 0)
(-0.0340759 -0.554022 0)
(-0.0187801 -0.525358 0)