/*--------------------------------*- C++ -*----------------------------------*\
| =========                 |                                                 |
| \\      /  F ield         | OpenFOAM: The Open Source CFD Toolbox           |
|  \\    /   O peration     | Version:  v1606+                                |
|   \\  /    A nd           | Web:      www.OpenFOAM.com                      |
|    \\/     M anipulation  |                                                 |
\*---------------------------------------------------------------------------*/
FoamFile
{
    version     2.0;
    format      ascii;
    class       volVectorField;
    location    "1.4";
    object      U;
}
// * * * * * * * * * * * * * * * * * * * * * * * * * * * * * * * * * * * * * //

dimensions      [0 1 -1 0 0 0 0];

internalField   nonuniform List<vector> 
11640
(
(-0.00153721627175 -0.00155220331151 0.00192823150563)
(-0.00444267364497 -0.00174077288695 0.00200296258043)
(-0.00723511228083 -0.00189253935392 0.00199880196826)
(-0.00964367626479 -0.00204377325849 0.00199981273622)
(-0.0115724437011 -0.00225027019756 0.00196050853677)
(-0.0129196030404 -0.00247869504135 0.00189057579624)
(-0.0136985076094 -0.00270749665426 0.00181509358642)
(-0.0137742814642 -0.0028259699267 0.00171885295786)
(-0.0132547494294 -0.00296496887791 0.00164424602874)
(-0.0124171342767 -0.00298644778362 0.00159945386033)
(-0.0113757636833 -0.00294598796388 0.00156332657074)
(-0.0103108897689 -0.00285161913768 0.00154201729336)
(-0.00931529172065 -0.00273568205285 0.00150817563776)
(-0.00836642380292 -0.00265595161674 0.00148063867118)
(-0.00740342318589 -0.00264909406917 0.00144403388125)
(-0.0063210554611 -0.0027090020562 0.00143857312358)
(-0.00503122421687 -0.00281297818679 0.00143218344328)
(-0.00363461264464 -0.00288369649848 0.00148571334088)
(-0.0022060161786 -0.00294341078705 0.00154665140281)
(-0.000713329963178 -0.00291787754914 0.00160938168767)
(-0.00178476326666 -0.00432472168565 0.00190032726581)
(-0.00491338852379 -0.00465745162135 0.00176551707531)
(-0.00763644052188 -0.00507422794155 0.00170307062095)
(-0.0100676804505 -0.00558731964336 0.00166422313288)
(-0.0120038409529 -0.00616998109263 0.0016143977359)
(-0.0133399170644 -0.00677297084059 0.00155122667948)
(-0.0140270144653 -0.00743378620763 0.00148999181549)
(-0.0140327442461 -0.00797827528048 0.00141620797163)
(-0.0134417082776 -0.00842792638425 0.00142299715612)
(-0.0124717392302 -0.00860376326541 0.00141610975225)
(-0.0113561067119 -0.00855080727766 0.00149313615384)
(-0.0102410278384 -0.00837929492459 0.00154015605962)
(-0.00925486942012 -0.00812358104913 0.0016114676348)
(-0.00835492465698 -0.00797708309326 0.00167224645458)
(-0.0074461668052 -0.00799090237493 0.0016982757541)
(-0.00644791854903 -0.00815034926938 0.00171260962127)
(-0.00523912163838 -0.00846026267362 0.00174479229498)
(-0.00389605910926 -0.00872057509594 0.00174279791547)
(-0.00249234256652 -0.00884850037591 0.00169803544061)
(-0.000897139933726 -0.00881512255211 0.00145344797229)
(-0.00191688971384 -0.00663833558932 0.00190768255105)
(-0.00534361811031 -0.0069223619057 0.00169780614367)
(-0.00828452223166 -0.00747544254184 0.00157968508926)
(-0.0108023204299 -0.00821682218823 0.00147366901351)
(-0.0127630614139 -0.0090502991286 0.00134460034848)
(-0.0141904619444 -0.00999291987243 0.00120368987379)
(-0.0149049356151 -0.0110632058169 0.00109727045466)
(-0.0147746341828 -0.0121429368993 0.000977357330791)
(-0.0139310402831 -0.0129445107843 0.000941292676032)
(-0.0126704150581 -0.0133330239251 0.000967020198968)
(-0.011351804981 -0.0133624478827 0.00106256322707)
(-0.0101384413205 -0.0131424211755 0.00118957744034)
(-0.00916605847811 -0.0128440778672 0.00132164777697)
(-0.00839649606969 -0.0127145683072 0.00142318404205)
(-0.00759596662347 -0.0128370716786 0.00150140818704)
(-0.00669126123628 -0.0131919387472 0.00152319069108)
(-0.00557569905199 -0.0136826294359 0.0015639663111)
(-0.0042744226961 -0.0141466953039 0.00156399819501)
(-0.00284107012911 -0.0143993579832 0.00149011517949)
(-0.00106915695647 -0.0143801378891 0.00120960879233)
(-0.00207228315634 -0.00863425269139 0.00187379952089)
(-0.00584496284732 -0.00893004440027 0.00170118890673)
(-0.00902115752694 -0.0095533070736 0.00150283726307)
(-0.0117331119054 -0.0103361062938 0.0013413199703)
(-0.0138910669955 -0.0113207388508 0.0011532067093)
(-0.0154834268908 -0.012511522224 0.000893942597081)
(-0.0162784997245 -0.0139492693469 0.000662499154052)
(-0.0159917246026 -0.0155701760252 0.000420320798159)
(-0.0147189968368 -0.0166986687441 0.000288241726312)
(-0.0130390279938 -0.0172145597545 0.000320351141313)
(-0.0113712938477 -0.0172032234634 0.000457833207672)
(-0.00996859366514 -0.0168646192706 0.000597808348487)
(-0.00902620521329 -0.0164843431831 0.000779895801633)
(-0.00839971438357 -0.0164663411261 0.000973201786921)
(-0.00780142461903 -0.0168758189183 0.00108090864094)
(-0.00703220772932 -0.017543334937 0.00113226345213)
(-0.00593758450785 -0.018239926135 0.00118714726498)
(-0.00459426053726 -0.01888231482 0.0012061699245)
(-0.00309957772803 -0.019260208682 0.00114034804058)
(-0.00116542871507 -0.0192552576338 0.00085579454683)
(-0.0022136874843 -0.0102649340068 0.0018638193071)
(-0.00638863806602 -0.0104903593226 0.00167648394129)
(-0.00982791218832 -0.0110590182482 0.00145112926329)
(-0.0127907533068 -0.0117729674585 0.00121601091342)
(-0.0152633385109 -0.0127143434701 0.000901090448878)
(-0.0171872110744 -0.0138950186814 0.000533363523206)
(-0.0182152773819 -0.0156568464788 0.000106201111336)
(-0.0176616837792 -0.0175794541591 -0.00061886934092)
(-0.0156359816176 -0.0187940922314 -0.000976989381765)
(-0.0132773879327 -0.0191830624971 -0.00105314862422)
(-0.0111459429089 -0.0190093516304 -0.000857745805992)
(-0.00955315831562 -0.0186463781551 -0.000602975834491)
(-0.00876046052469 -0.0184599739019 -0.000233801267114)
(-0.0085340341533 -0.0189795347049 0.000250686820517)
(-0.00822112572263 -0.0197394003917 0.000507875879781)
(-0.00746780630691 -0.0207661541276 0.000632637164988)
(-0.00635367751603 -0.0217409603264 0.000684137805142)
(-0.00493292648652 -0.0226346227328 0.000755810787696)
(-0.00329616215794 -0.0231677709476 0.000711334400752)
(-0.00123343914234 -0.0231996910228 0.00046076226497)
(-0.00239946361252 -0.0114555667531 0.00181024839967)
(-0.00686869368144 -0.0115782770415 0.00163414632832)
(-0.0105509904742 -0.011961111172 0.00141755517977)
(-0.013824195282 -0.0125612037536 0.00108539420771)
(-0.016638733518 -0.0133597241364 0.000695455577755)
(-0.0190493410761 -0.0146472436462 0.000278916755846)
(-0.0203285735384 -0.0167071359082 -0.000286757588819)
(-0.0194066790638 -0.0192602487551 -0.00116830587409)
(-0.016367370558 -0.0207586309873 -0.00156114968513)
(-0.0132792527412 -0.0213343985664 -0.00155798323827)
(-0.0108246479808 -0.0212771676167 -0.00127727775856)
(-0.00929925482974 -0.0206841419195 -0.000887832325109)
(-0.00895040060656 -0.0201487669814 -0.000382297208791)
(-0.00900277653846 -0.0196624032481 -4.84220744286e-05)
(-0.00870859561047 -0.0209533291984 9.21791810954e-06)
(-0.00804128596296 -0.0224772748053 0.000189518365287)
(-0.00688308691387 -0.0240156523765 0.000167755410994)
(-0.00533576061092 -0.02527740677 0.000234932683561)
(-0.00350992567583 -0.0260038229269 0.000215360093418)
(-0.00128069422225 -0.026107415585 1.32190379626e-05)
(-0.00251660321588 -0.0122399118598 0.00176370872101)
(-0.00717628343886 -0.0122132247653 0.00160080570677)
(-0.0111703867172 -0.0123616082341 0.00134345637383)
(-0.0148222322246 -0.0126258433022 0.000944220668429)
(-0.0181642185567 -0.0129286517064 0.000594692235684)
(-0.0213858277474 -0.0134810852466 8.28041475603e-05)
(-0.0234906539686 -0.0146972104888 -0.00077192057279)
(-0.0224935899889 -0.0161697399709 -0.00341946070045)
(-0.0178352099675 -0.0151168368302 -0.00457298501876)
(-0.0139625848402 -0.0122389076132 -0.00546770799142)
(-0.0107746488153 -0.00939888172829 -0.0053884144037)
(-0.00851737954243 -0.00718739999144 -0.00494072265915)
(-0.0072037909963 -0.00818350941177 -0.00412427634266)
(-0.00846585985805 -0.0152532656788 -0.00156647721696)
(-0.00987774131324 -0.0197543337999 -0.000981166305726)
(-0.00931099679066 -0.0227980135708 -0.000458652025543)
(-0.00796028526468 -0.0251997774087 -0.000382434093404)
(-0.00596047740123 -0.0268856865737 -0.000278495223955)
(-0.00380491955679 -0.0278149824509 -0.000281271351833)
(-0.00135211297264 -0.0279718404964 -0.000392151862525)
(-0.00252602857529 -0.0127079582933 0.0016878641339)
(-0.00728242758883 -0.0125645588505 0.00159129110383)
(-0.0113856099977 -0.0124727496031 0.00136984130109)
(-0.0151016950104 -0.0123097314753 0.00104328723805)
(-0.0182947300929 -0.0120081066343 0.000714517645678)
(-0.0215742694143 -0.0116443792909 0.000357428383961)
(-0.0235509500001 -0.0116660794728 0.000327339954158)
(-0.0202256786103 -0.0114301057971 -0.00174021139514)
(-0.011949723271 -0.00897193442003 -0.0018522715648)
(-0.0068307500092 -0.00499598193646 -0.00114374999297)
(-0.00533832488195 -0.00201765086996 -0.000380304698575)
(-0.00826423917442 -0.000181883886875 0.00146287930077)
(-0.0175011336373 -0.0025381981521 0.00341042838839)
(-0.021367284194 -0.0128227965709 -0.000640626003923)
(-0.0155384370369 -0.0191311728866 -0.000721681241747)
(-0.0121788118229 -0.0229941175382 -0.000657975025069)
(-0.00959361308988 -0.0258092538715 -0.000723934037894)
(-0.00682394517147 -0.0277083519077 -0.000734015878379)
(-0.00420749532327 -0.0287325363818 -0.000710329886918)
(-0.00143643251451 -0.0288537260351 -0.000766277715336)
(-0.00248468001139 -0.0129408907265 0.00164708746375)
(-0.0072473412086 -0.0127290701042 0.00158278990616)
(-0.0114221755314 -0.0124871103958 0.00138549446902)
(-0.0151828673593 -0.012056835341 0.00112659420512)
(-0.018470464459 -0.0114474265206 0.000852705376565)
(-0.0219347201774 -0.0108415536475 0.000607697797386)
(-0.023953444395 -0.0103957066533 0.000635340201864)
(-0.0206615815657 -0.00961172222455 -0.00113232891098)
(-0.0121616887175 -0.00904603035963 -0.00134972524389)
(-0.00719408324208 -0.00857705174664 -0.000964514619287)
(-0.00585174639497 -0.00957335116348 1.62209768055e-05)
(-0.00882741040281 -0.0106645772551 0.001749104327)
(-0.019355378469 -0.0131183149874 0.00350265484936)
(-0.024654904114 -0.0164696557938 -0.000862921732177)
(-0.0186725903192 -0.0206407585482 -0.00100110170354)
(-0.0144798630821 -0.0237302153654 -0.000984099652432)
(-0.0111190845887 -0.026183343104 -0.00114914852775)
(-0.00767051443741 -0.027970297665 -0.00115525702466)
(-0.00456530740029 -0.0289159869685 -0.00110824124922)
(-0.00149708964715 -0.0289539967327 -0.00107171791602)
(-0.00242011573246 -0.0130145180411 0.0015590339562)
(-0.0071801090164 -0.0127589165505 0.00154713996548)
(-0.0113727950111 -0.0123943691545 0.00140283492497)
(-0.0150945959505 -0.0117496408792 0.00117090188266)
(-0.0182910718234 -0.0108494961133 0.000949010648539)
(-0.0214915723799 -0.00989031545045 0.000715418115648)
(-0.0229991098721 -0.00896706444547 0.00110755125946)
(-0.0195787971161 -0.00787218861518 -0.000405613612821)
(-0.0118903384294 -0.00771716631564 -0.000422592410319)
(-0.00840929706579 -0.00796455895372 -0.000163336576715)
(-0.00816247959858 -0.00937535672621 0.000833768970555)
(-0.0124722664916 -0.012060391432 0.00228892139836)
(-0.0235074731676 -0.0158052276847 0.00383094667668)
(-0.0276603830954 -0.0183062588267 -0.00101721395078)
(-0.0209385180934 -0.0217326002453 -0.0012888147793)
(-0.0161929247881 -0.0242680511925 -0.00135257831092)
(-0.0122657581108 -0.026224485843 -0.00153718196019)
(-0.00830421499693 -0.0277317589083 -0.00155600733878)
(-0.00481820882649 -0.0284535225336 -0.00147826094198)
(-0.00152819804828 -0.028337165305 -0.00134209563131)
(-0.00235177339389 -0.0128921135915 0.0014633830785)
(-0.00704500866851 -0.0126514344893 0.00153542451559)
(-0.011233358307 -0.012267384723 0.00138492366203)
(-0.0148789748876 -0.0115203128375 0.00116970346395)
(-0.0179481012743 -0.0103254750827 0.000896863735853)
(-0.0210870429022 -0.00874287186559 0.000451764132002)
(-0.0226566057357 -0.00606579521287 0.000888510197225)
(-0.0201866836645 -0.00267034276212 -0.000678904052087)
(-0.0139454895769 -0.00332625224564 -0.0010815208906)
(-0.0107930367748 -0.00661627442752 -0.000769775148533)
(-0.0110434769375 -0.0105527628559 0.000271569224609)
(-0.0163456092962 -0.0159089866663 0.00197026203673)
(-0.0260288283439 -0.019528716731 0.00340646793973)
(-0.0292018177708 -0.0199180110679 -0.000995949070264)
(-0.022805600051 -0.022182707348 -0.00152368468321)
(-0.0175355296643 -0.0243379680427 -0.00165608752079)
(-0.0130963625246 -0.0258114937532 -0.00185112598233)
(-0.00869210598341 -0.0269422273124 -0.00188799830303)
(-0.00486453673538 -0.0274099832178 -0.00179700936623)
(-0.00144948019691 -0.0270978777044 -0.00150944183992)
(-0.00229147196367 -0.0125443400388 0.00136764161075)
(-0.00700155868415 -0.0123699643311 0.0015025838238)
(-0.0111835381447 -0.0121107066687 0.00141911759302)
(-0.0145865572593 -0.0115227151953 0.00129141544585)
(-0.0170154372979 -0.0106957566248 0.00130977361905)
(-0.0182576134904 -0.00968613295336 0.00129416717627)
(-0.0176690965862 -0.00745568656648 0.00149878060912)
(-0.0169675710088 -0.00484344875854 0.00349596726039)
(-0.016936384342 -0.0062267916011 0.00360101804773)
(-0.0178020720681 -0.0107030080026 0.00371245868731)
(-0.0195332520865 -0.0157378164487 0.00369014440206)
(-0.0233563142907 -0.0213641527983 0.0034470546387)
(-0.0282389684305 -0.0236247361076 0.00263167240423)
(-0.028908885832 -0.0222027957502 -0.000107711656169)
(-0.0238331170131 -0.0228046387853 -0.00131909235879)
(-0.0184505617122 -0.0240834412073 -0.00174829808393)
(-0.0135287821403 -0.0250234991385 -0.00215790666376)
(-0.00881458635586 -0.0256866524681 -0.00217713195044)
(-0.00479862049339 -0.0259135404873 -0.00205269879112)
(-0.00133740334666 -0.0253794045723 -0.00160451941763)
(-0.00223954716243 -0.01191788819 0.00128710539963)
(-0.00702075298416 -0.0118654078778 0.00148493608703)
(-0.0113450173522 -0.0117853979329 0.00139942780248)
(-0.0149291668065 -0.0115985405175 0.0012127576874)
(-0.017749164863 -0.0114837150083 0.0010840339595)
(-0.0195630455435 -0.0115470396176 0.000961182998724)
(-0.0201626185602 -0.0122783637368 0.000874041793809)
(-0.0201777121939 -0.0141815080186 0.00092608964816)
(-0.0204491161084 -0.016736915853 0.00102852867971)
(-0.0213796698092 -0.0198324256575 0.00117689676614)
(-0.0230088558436 -0.0227820237083 0.00120738974318)
(-0.0253332525224 -0.025175789121 0.000910861795862)
(-0.0273834645201 -0.0255893082143 0.000274401561077)
(-0.0267957492397 -0.0239117909773 -0.000958101813727)
(-0.0232237650245 -0.0233056569591 -0.00171578817713)
(-0.0184859514539 -0.0234479543243 -0.00212608320269)
(-0.0134970453733 -0.0237840432832 -0.00240299724154)
(-0.00869987307639 -0.0240969037616 -0.00244121086884)
(-0.00462600334454 -0.0239247249417 -0.00222130757037)
(-0.00112683198987 -0.0231281394338 -0.00162079030628)
(-0.00220048263465 -0.0110059415848 0.00118158440075)
(-0.00706499688489 -0.0110561652049 0.00146802583565)
(-0.0116336076217 -0.0111506540987 0.00137111403194)
(-0.0155251810726 -0.0112841556862 0.00116366581305)
(-0.0184993170242 -0.0114665327902 0.00101656484229)
(-0.0204720645708 -0.0117582761282 0.000851393419646)
(-0.0216122544834 -0.0124943478603 0.000857064948642)
(-0.0223682778906 -0.0139804340734 0.00106526399166)
(-0.0232236028205 -0.0161127438748 0.00105859213371)
(-0.0241977603215 -0.0187021311799 0.000887421702182)
(-0.0253289748665 -0.0211174941903 0.000501611460675)
(-0.0264402260168 -0.0227729464593 9.59603768315e-05)
(-0.0269465194853 -0.0231894396575 -0.000505567455031)
(-0.025523151573 -0.022665591644 -0.0013624401446)
(-0.0222617175026 -0.02208028346 -0.00207480015841)
(-0.0179067752664 -0.0218981667752 -0.00249517824376)
(-0.0131890567916 -0.0219509358686 -0.00272245713781)
(-0.00846143608387 -0.0219099688597 -0.00266950960116)
(-0.00431715726497 -0.0215099880828 -0.00243810164093)
(-0.000980219106992 -0.020489840245 -0.00165206796912)
(-0.0021929720517 -0.00981044165388 0.00109588773127)
(-0.00708084883183 -0.00990584645931 0.00145537862366)
(-0.0118752601365 -0.0101413909397 0.00136298463566)
(-0.015991014374 -0.0104243453464 0.00113219470504)
(-0.019233356031 -0.0107743815827 0.000904174495058)
(-0.0215392583667 -0.0113500891975 0.000709698743385)
(-0.0230642819455 -0.0123305356038 0.000518412470641)
(-0.0242243006253 -0.0138576993509 0.000396732962908)
(-0.0252482122814 -0.0156673552808 0.000244540672346)
(-0.0261395390708 -0.0175182789188 -4.02753455963e-05)
(-0.0267972914806 -0.0191124843419 -0.000427835799952)
(-0.0270725110448 -0.0200597386691 -0.000830739882427)
(-0.0266018698155 -0.0203429744801 -0.001383530538)
(-0.0247997810495 -0.0200096870868 -0.0019781743219)
(-0.0216483796384 -0.0195763741551 -0.00246787040948)
(-0.0175399698992 -0.0193682206858 -0.00281448145376)
(-0.012925670542 -0.0193314292103 -0.00296812237662)
(-0.0083020383354 -0.0191548913562 -0.00300154035969)
(-0.00416886398037 -0.0186930577189 -0.00268401227043)
(-0.000725629560826 -0.0176135593449 -0.00171621476131)
(-0.0022155428713 -0.00836024036324 0.00103271043924)
(-0.00716047136609 -0.00848594403558 0.00143323341173)
(-0.0120476937123 -0.00877986023862 0.0013743270555)
(-0.0163639126748 -0.00914246850573 0.00109578033885)
(-0.0198490771346 -0.00963904550162 0.000808507876886)
(-0.022455829802 -0.0102895611607 0.000527639355743)
(-0.0243460905398 -0.0112517283678 0.000243831142671)
(-0.0257260805607 -0.0125297925321 -7.64709414946e-06)
(-0.0267213343532 -0.0139106291615 -0.000301037287052)
(-0.0273734485698 -0.0151758082255 -0.000647534447723)
(-0.0276278930652 -0.0161450332882 -0.00102165442031)
(-0.0273831053933 -0.0167223311828 -0.00140693360561)
(-0.026306527998 -0.0168731263328 -0.00185709921766)
(-0.0242048768061 -0.0166597605557 -0.00232561878588)
(-0.0210935019548 -0.0163464067121 -0.00278143962722)
(-0.017227055596 -0.0161413946205 -0.00313107563312)
(-0.0128760960112 -0.0160094241121 -0.00330608027295)
(-0.00832617510784 -0.0158584762325 -0.00331100310705)
(-0.0040513149519 -0.0153684973754 -0.00295249553711)
(-0.000514449726504 -0.0143438410895 -0.00166284836034)
(-0.00226612370495 -0.00667218661204 0.001007140644)
(-0.00728889874024 -0.0068632116159 0.00142282319936)
(-0.012247009343 -0.00715382517498 0.00134939487163)
(-0.0166854591408 -0.00753689513913 0.00108544111763)
(-0.0203745949419 -0.00799723074109 0.000762833786004)
(-0.023203410606 -0.00859012809346 0.000422264226461)
(-0.0252870955604 -0.00934060712491 6.01325242317e-05)
(-0.0267623209536 -0.0102306274485 -0.000250073119687)
(-0.0276888246768 -0.0111351639079 -0.000593427922614)
(-0.028121463869 -0.0119155477287 -0.000967366085237)
(-0.0280469917486 -0.012488914189 -0.00134360351725)
(-0.027396028872 -0.0127795310837 -0.00177561871138)
(-0.0260259668824 -0.012766874012 -0.00218258092511)
(-0.0238263761348 -0.0125935607665 -0.0025849158995)
(-0.0207754557213 -0.0123380729311 -0.00300101905488)
(-0.017026728539 -0.0121871706928 -0.00332017801487)
(-0.012797863509 -0.012117632101 -0.00355409567633)
(-0.00834902920822 -0.0119591460877 -0.0035743971814)
(-0.00403002177702 -0.0116033504814 -0.00316735677201)
(-0.000460722533046 -0.0107629754983 -0.00171213822415)
(-0.00235258376062 -0.00483946699209 0.00101967665467)
(-0.00743413546635 -0.00512107373691 0.0014270866794)
(-0.0124480860323 -0.00544400231965 0.00133721581605)
(-0.0169497712666 -0.00576441433498 0.00107490099124)
(-0.0207242648052 -0.00609336536882 0.000731911135296)
(-0.0236839787042 -0.00648702843752 0.000353645872808)
(-0.025883695053 -0.00698538660108 -4.74056794107e-05)
(-0.0273770811376 -0.00752773039431 -0.000409025713864)
(-0.0282069655475 -0.00804512426493 -0.000768739779696)
(-0.0284708376559 -0.0084389026207 -0.00113823035933)
(-0.0281494391176 -0.00871613951073 -0.00148419388974)
(-0.0271912424267 -0.00876668591485 -0.00186996374288)
(-0.0256093687822 -0.00863138657295 -0.00226142211636)
(-0.023300255189 -0.00839744241247 -0.0026495735989)
(-0.0202899389171 -0.00809474007818 -0.00302892093521)
(-0.0167427733578 -0.00789957570841 -0.00335130942475)
(-0.0126938061546 -0.00783159371837 -0.00354451072974)
(-0.00836729957433 -0.00778883199026 -0.00358228976296)
(-0.00411694806808 -0.00768489020446 -0.00320281469036)
(-0.000557748284362 -0.00722615933123 -0.00174272962464)
(-0.0024170388191 -0.00297960235012 0.00108128256028)
(-0.00754257928527 -0.00334049581842 0.00134311802459)
(-0.0125621773903 -0.00367673367168 0.00121951178285)
(-0.0170846040692 -0.00391958400595 0.000952533017498)
(-0.020906413686 -0.00412630707445 0.00061985641027)
(-0.0239248429031 -0.00433842157865 0.000244504925472)
(-0.0261456618704 -0.00461030670253 -0.000151048014898)
(-0.0275913357548 -0.00486793073724 -0.000525966713504)
(-0.028299908056 -0.00509089378127 -0.000875950658234)
(-0.0284014676412 -0.00521154673451 -0.00120932579856)
(-0.0278578470942 -0.00521814116286 -0.0015199652907)
(-0.0266570053255 -0.005060698274 -0.00181202038351)
(-0.0249223684185 -0.00479744706247 -0.00212183928231)
(-0.0225282479863 -0.00448006253047 -0.00242891419901)
(-0.0195563585354 -0.00410299609967 -0.00271096912232)
(-0.0161596180684 -0.00382914645262 -0.00294125818437)
(-0.0123319885453 -0.00367702779252 -0.00309947216763)
(-0.0083061725738 -0.00373948356133 -0.00315715053743)
(-0.00431226688502 -0.00390337766777 -0.00285669568465)
(-0.000882000868289 -0.00380829622683 -0.00176600061391)
(-0.00245763415101 -0.000989377953379 0.00112644761468)
(-0.00755585292942 -0.00125137654398 0.00100989369774)
(-0.0125123472008 -0.00142631498436 0.000811946378301)
(-0.0169915962694 -0.00152806894894 0.000533377088791)
(-0.0207869905303 -0.00158983373693 0.000209182406048)
(-0.0237927586775 -0.00164689706844 -0.000141380764356)
(-0.0259715794126 -0.00171951997367 -0.000482296840427)
(-0.0273225891423 -0.00177294510983 -0.000794992920512)
(-0.0278981368586 -0.00178308670839 -0.00106240843646)
(-0.0278165555517 -0.00176871001964 -0.0012868246323)
(-0.0270472974733 -0.00164416760316 -0.001482414923)
(-0.0256474527997 -0.00145484901305 -0.00156262063247)
(-0.0237963979996 -0.00122919391929 -0.00165727765299)
(-0.0213023599693 -0.000976272388719 -0.00162323375643)
(-0.0183271713523 -0.000626594264645 -0.00162579937918)
(-0.0150851554858 -0.000380401659302 -0.00162182187451)
(-0.011530608001 -0.000266500445054 -0.00168071901224)
(-0.00790519059244 -0.000379132441507 -0.00170179810752)
(-0.00422701831861 -0.000694081078388 -0.0017424055584)
(-0.00116638092299 -0.000967558029433 -0.00148964230485)
(-0.00148040476659 -0.00149378580069 0.00603032662371)
(-0.00444074967183 -0.00147881472971 0.00611518812344)
(-0.00725440543289 -0.00159797985073 0.00613588386461)
(-0.00968240686032 -0.00175862898673 0.00609012778626)
(-0.0116538198638 -0.00198685363039 0.00594370668783)
(-0.0130565936101 -0.0022426048982 0.00573247694041)
(-0.0138580857113 -0.00253001611191 0.00546546297452)
(-0.0139373066858 -0.00275737616546 0.00526436144403)
(-0.0134002475164 -0.00297270175768 0.00505284038356)
(-0.0125420290924 -0.00310344439563 0.00490434197618)
(-0.0114940859937 -0.00312702653551 0.00478579878872)
(-0.0104274977279 -0.00312388989622 0.00468603905291)
(-0.00943627802772 -0.00307099098148 0.00461001386942)
(-0.0084843548414 -0.00306049858819 0.00453472354404)
(-0.00749855841768 -0.00310660719752 0.00445856805558)
(-0.00640595635724 -0.00318966270915 0.00441830584071)
(-0.0051127226012 -0.00325248732964 0.0044130375172)
(-0.00368573957159 -0.00329182140932 0.0044644944163)
(-0.00225377205993 -0.00327562639686 0.00455189552647)
(-0.000666845829876 -0.00314219392859 0.00460546023817)
(-0.00166206908792 -0.00429100872738 0.00596830896939)
(-0.00476623757071 -0.00435555044768 0.00568467500404)
(-0.00754343521262 -0.00466012466139 0.00553616045755)
(-0.00998637234281 -0.00512225849947 0.00538575342607)
(-0.0119626648628 -0.00571830000553 0.00521039397984)
(-0.013362721791 -0.00641230639947 0.00500003970891)
(-0.014095045834 -0.00718469427751 0.0048029927507)
(-0.0140713437522 -0.00791522893275 0.004583562889)
(-0.0134401368667 -0.00850663805548 0.00446131771457)
(-0.0124467012946 -0.008837769402 0.00438626047336)
(-0.0113076461091 -0.00893081824335 0.00438924436951)
(-0.0101814632913 -0.00887614604818 0.00441660987302)
(-0.00916346472258 -0.00874230028501 0.00446320568891)
(-0.00826834384852 -0.00868271118992 0.00452491626541)
(-0.00737538167097 -0.00878571313296 0.00452934708209)
(-0.00637311930367 -0.00899243146101 0.00453105526875)
(-0.00518538743383 -0.00922844130846 0.00455211850349)
(-0.00384108499642 -0.00938593965419 0.00458190833277)
(-0.0023847370296 -0.00943586809583 0.00454454775063)
(-0.000745878952689 -0.0092657626228 0.00420140620093)
(-0.00184096470976 -0.00661397545853 0.00594903620833)
(-0.00516089991138 -0.00672101686961 0.0055081363634)
(-0.00807136363971 -0.00715746177858 0.0052170143958)
(-0.0106420056715 -0.00784272826191 0.00494230327227)
(-0.0127141221484 -0.0087447309777 0.00464953471534)
(-0.0141962534376 -0.00983778800863 0.00432744034598)
(-0.0149432512312 -0.011089309795 0.00405863743851)
(-0.0147842946155 -0.0124093529488 0.00371625375331)
(-0.0138754361773 -0.0133404625217 0.00349610604806)
(-0.0126027686935 -0.0138253508027 0.00340655670742)
(-0.0112496690734 -0.0139469135996 0.00342329993186)
(-0.0099829282208 -0.01381744151 0.00351632301565)
(-0.008933873215 -0.0135990776676 0.00366203628173)
(-0.00814944963715 -0.0134692154461 0.00385296154339)
(-0.00741513216355 -0.0136741271166 0.00391314847244)
(-0.00653601988624 -0.0140488747738 0.00392933070261)
(-0.00543765672916 -0.0144908660519 0.00394633317472)
(-0.00412518954297 -0.0148541994007 0.00394628865157)
(-0.00264138206923 -0.0150290135394 0.00385418753074)
(-0.000870620107783 -0.0149341285189 0.00347481482718)
(-0.001990043425 -0.00863012864943 0.00586509726298)
(-0.00559935613747 -0.00877419818688 0.00541734596597)
(-0.00873803672769 -0.00932887485274 0.00498435532185)
(-0.0115430831136 -0.0101837890237 0.0045861235052)
(-0.0138298436531 -0.011346751544 0.00418835614142)
(-0.015480866766 -0.0128520891128 0.00377823324457)
(-0.0163665550498 -0.0146834466689 0.00327103430511)
(-0.0160153966215 -0.016813288722 0.0025130467752)
(-0.0145926432025 -0.0180275350592 0.00208253981282)
(-0.012890716034 -0.0185446854695 0.00186927456808)
(-0.0112018030755 -0.0185106575256 0.00188045513809)
(-0.00973035925458 -0.018158885751 0.00201640082666)
(-0.00861968482571 -0.0177347505722 0.0022940770952)
(-0.00800829919966 -0.0174311254364 0.0027596566965)
(-0.00754016692142 -0.0178313751094 0.00285806030995)
(-0.00679983967315 -0.0184189023516 0.002898847015)
(-0.00576803214937 -0.019075987859 0.00291846494814)
(-0.00443514684696 -0.0196458990215 0.00291092348042)
(-0.00287884693826 -0.0199718484117 0.00280766754907)
(-0.00096347121953 -0.0199250418645 0.00243388677468)
(-0.00213989964215 -0.0102655170972 0.00577378873256)
(-0.00607390771571 -0.0104138987032 0.00528379496308)
(-0.00951471491879 -0.0109895759262 0.00477893923263)
(-0.012622040369 -0.0119155552134 0.0042862010963)
(-0.0152507504433 -0.0132552177929 0.0037970363891)
(-0.0172911374996 -0.0149969063792 0.00306846578827)
(-0.0186108364813 -0.0171702244302 0.00202671344695)
(-0.017946529465 -0.0198292326343 0.000243339163679)
(-0.0155027488546 -0.0208687718601 -0.000660316770531)
(-0.0130803046288 -0.020979802412 -0.00110492147052)
(-0.0108893317432 -0.0205077976363 -0.00111092955956)
(-0.00917615843725 -0.0198558889342 -0.000776657134212)
(-0.0080275065647 -0.0195006875065 -0.00010918001213)
(-0.00781194848874 -0.0197301953742 0.00116523566217)
(-0.0078383642959 -0.0206834121497 0.00145983280011)
(-0.00720242131886 -0.0215910523786 0.00166582155886)
(-0.00621591142913 -0.0225508612449 0.00168098487153)
(-0.00482415423145 -0.0233702494712 0.00169365580759)
(-0.0031392918116 -0.0238825498052 0.00158578289965)
(-0.00106076674363 -0.0239452331209 0.00122960102743)
(-0.00229878669117 -0.011481026364 0.00562107837227)
(-0.0065045283987 -0.0116014388346 0.00514545338754)
(-0.0102437798349 -0.0121274619168 0.00460773740383)
(-0.0137337297208 -0.0130853517759 0.00408794638008)
(-0.0167663032151 -0.0145528286382 0.00344013419528)
(-0.0192677470051 -0.0166080901212 0.00244841339173)
(-0.0211930449076 -0.0196075390123 0.00120393704096)
(-0.0199176825336 -0.0245645945814 -0.00157437483042)
(-0.0159703147094 -0.0259480785199 -0.00262003290009)
(-0.01280287563 -0.0261684260672 -0.00322767941406)
(-0.0102994061462 -0.0255854218467 -0.00312409543896)
(-0.00876275287385 -0.0244672203163 -0.0025030201583)
(-0.00818984028929 -0.0233602592607 -0.00139990510155)
(-0.00857855007446 -0.0214134810797 0.000135825879275)
(-0.0087273648817 -0.0223918037665 4.61550032748e-05)
(-0.00792681494923 -0.0234917969369 0.000453799223781)
(-0.00689900998212 -0.0248469967027 0.00042108135256)
(-0.00535772429466 -0.0259716684452 0.000402108532085)
(-0.00346812661079 -0.0266778768349 0.000273764858414)
(-0.00117068101104 -0.0268499806537 -5.77217751682e-05)
(-0.00241267447395 -0.012307278119 0.0054381347281)
(-0.00687192372621 -0.0123183110469 0.00499655280172)
(-0.0109570126804 -0.0126800464441 0.00441554944891)
(-0.014917067585 -0.0133536085826 0.00377001869402)
(-0.0186927697734 -0.0143179704748 0.00271847965147)
(-0.0225009929725 -0.0154434918263 0.000898156671758)
(-0.0270155469139 -0.0171673076253 -0.00165794959478)
(-0.0250221508474 -0.021791396946 -0.010423479663)
(-0.0178051667055 -0.0193782735551 -0.012576308516)
(-0.0134270870476 -0.0150976501346 -0.0145847265705)
(-0.00978973312191 -0.010828455898 -0.0154136784029)
(-0.00731502955532 -0.00728523019066 -0.0147301812171)
(-0.00466276064188 -0.00641172896123 -0.0126435386912)
(-0.00623120561742 -0.0161966999741 -0.00365160667809)
(-0.00905490491237 -0.020641053362 -0.00244273019779)
(-0.00877897556619 -0.0235801532688 -0.00114932072772)
(-0.00790790816118 -0.0259193586278 -0.000952552551065)
(-0.00610141612962 -0.0274956744365 -0.000908440755629)