/*--------------------------------*- C++ -*----------------------------------*\
| =========                 |                                                 |
| \\      /  F ield         | OpenFOAM: The Open Source CFD Toolbox           |
|  \\    /   O peration     | Version:  2.4.0                                 |
|   \\  /    A nd           | Web:      www.OpenFOAM.org                      |
|    \\/     M anipulation  |                                                 |
\*---------------------------------------------------------------------------*/
FoamFile
{
    version     2.0;
    format      ascii;
    class       volScalarField;
    location    "0.75";
    object      p_rgh;
}
// * * * * * * * * * * * * * * * * * * * * * * * * * * * * * * * * * * * * * //

dimensions      [1 -1 -2 0 0 0 0];

internalField   nonuniform List<scalar> 
3072
(
0
0.0087944
-0.00462463
-0.0475635
-0.0837629
-0.0892669
-0.0659947
0.0227933
0.186516
0.364924
0.7574
0.78545
1.34724
1.33025
1.30338
1.28165
1.26967
1.28369
1.38582
1.59995
1.91347
1.91288
3.24346
5.21306
2.54271
2.49561
2.41177
2.32858
2.2875
2.33392
2.48539
2.94977
3.54065
3.85767
6.43531
8.93408
3.95507
3.86878
3.75158
3.6483
3.59561
3.6346
3.80042
6.77312
5.82994
6.67005
6.14788
6.80959
5.51971
5.41761
5.30328
5.23414
5.2453
5.38216
5.77143
10.2982
9.21351
8.67319
8.51635
8.41651
7.19363
7.12003
7.05383
7.0728
7.21763
7.57167
8.21552
12.8235
12.4429
10.6419
10.8069
10.8664
8.93289
8.9503
8.97487
9.11222
9.37538
9.87715
10.6076
12.2442
13.1623
12.8528
13.0847
13.1494
10.6659
10.8835
11.051
11.3495
11.7176
12.3048
13.1036
14.1717
14.9565
15.1532
15.4312
15.3361
12.3144
12.89
13.2447
13.7526
14.2171
14.8547
15.6142
16.5106
17.3243
17.3005
17.6921
17.379
13.719
14.9244
15.4782
16.2279
16.8052
17.481
18.1653
18.746
19.3501
20.0947
21.7052
21.3635
14.5802
16.9277
17.6413
18.6117
19.2659
20.0307
20.7643
21.1979
21.4996
27.9384
29.142
24.6679
13.7186
18.6316
19.4504
20.5387
21.291
22.3107
23.2535
23.7427
24.5112
25.2404
25.0377
24.685
0.280123
0.104929
-0.798726
-0.224968
-1.26329
-0.516739
-1.20014
-1.55067
-1.08091
-0.181143
-0.270004
-0.339309
5.21348
6.21446
6.42747
4.29772
2.65389
2.86713
0.911919
2.93961
2.22023
0.353012
-0.0649053
0.757957
5.06895
3.72772
3.66015
3.7135
3.75705
3.51409
3.13418
2.79971
2.64476
3.94834
5.0106
3.93054
5.03922
5.92316
5.9699
6.04184
5.97073
5.68673
5.10333
4.60704
4.3671
3.46673
2.87864
8.49535
8.34346
8.79878
9.10227
8.66542
8.28261
8.05474
7.62835
6.95533
6.43914
5.75592
5.45402
3.71855
10.9062
10.8433
10.9229
11.0228
10.6199
10.4637
10.0258
8.8454
7.97526
7.20383
6.61829
7.12316
13.1728
13.0818
13.0024
12.9813
13.0024
12.9757
12.6891
12.7119
15.424
13.8164
9.70517
13.2118
15.2626
15.1145
15.0545
15.176
15.3702
15.6218
15.6699
16.5322
20.8472
19.1813
16.3665
20.9339
17.1184
16.8768
16.8423
17.1848
17.5988
18.1628
18.5688
19.4935
22.0488
21.1243
20.1964
21.3974
20.5863
19.2053
18.5355
18.954
19.6279
20.5008
21.2316
22.1714
24.0136
24.1653
25.3749
25.1722
24.4095
25.4385
24.5998
20.7709
21.4821
22.5674
23.4863
24.4432
26.4029
27.5671
30.9189
33.1016
24.9597
25.0875
22.7688
22.5746
23.1792
24.3774
25.3632
26.1188
28.5019
30.1379
34.8213
40.4126
-0.43164
-0.409412
-0.429809
-0.503726
-0.626717
-0.775923
-0.926495
-1.10289
-1.29622
-1.49449
-1.67871
-1.82051
0.939246
0.91817
0.865729
0.788079
0.71547
0.627883
0.549162
0.500012
0.474367
0.466953
0.475871
0.505855
2.22627
2.17108
2.07577
1.98067
1.91322
1.92058
1.99121
2.12907
2.3163
2.52632
2.73197
2.91588
3.69022
3.60243
3.49216
3.41692
3.41622
3.52672
3.7515
4.07504
4.45501
4.83533
5.1633
5.4092
5.26777
5.17101
5.07558
5.05358
5.14474
5.3845
5.76886
6.26118
6.78935
7.26812
7.62787
7.84152
6.91397
6.852
6.81225
6.88454
7.08725
7.46241
7.98847
8.60836
9.22243
9.72482
10.0412
10.1594
8.57499
8.61831
8.6875
8.90135
9.23141
9.72967
10.3563
11.0439
11.6763
12.1401
12.3662
12.3621
10.1727
10.4414
10.6812
11.0943
11.5574
12.1526
12.8172
13.4981
14.0818
14.4622
14.5793
14.456
11.5937
12.2607
12.7472
13.4299
14.0134
14.6745
15.3041
15.8967
16.3692
16.6383
16.6513
16.435
12.6549
14.0304
14.8069
15.7963
16.576
17.1874
17.7262
18.161
18.4725
18.6179
18.5482
18.2809
12.9291
15.6888
16.742
18.0248
18.9162
19.5059
19.9459
20.2049
20.3394
20.3663
20.2434
19.9721
11.3364
17.304
18.1916
19.7681
20.7623
21.473
21.7706
21.92
21.9284
21.8741
21.7312
21.4976
-1.88523
-1.83933
-1.66138
-1.35635
-0.940446
-0.393851
0.0826676
0.410262
0.523137
0.423025
0.196836
-0.0302998
0.570449
0.69013
0.885084
1.16942
1.52316
1.81187
2.03321
2.10181
1.96863
1.6521
1.25517
0.903841
3.07722
3.22999
3.39359
3.58272
3.78921
3.94359
3.99565
3.87324
3.52949
2.9758
2.33655
1.74267
5.57481
5.68587
5.77447
5.86357
5.94885
5.99545
5.94818
5.72987
5.27629
4.5513
3.67113
2.79683
7.92926
7.94012
7.92512
7.91743
7.9217
7.91157
7.84023
7.62266
7.18263
6.41045
5.36592
4.22661
10.1262
10.0169
9.90098
9.82029
9.78708
9.77454
9.74731
9.61009
9.29793
8.61993
7.55389
6.23442
12.2002
11.9789
11.7825
11.6594
11.627
11.6559
11.7292
11.7375
11.659
11.2154
10.3393
8.97421
14.1819
13.8708
13.6165
13.4729
13.464
13.5587
13.7708
13.9766
14.2371
14.1731
13.7628
12.5265
16.0814
15.7096
15.4156
15.2592
15.272
15.4283
15.7851
16.2158
16.9106
17.3867
17.7826
16.9357
17.8918
17.4937
17.1752
17.0023
17.0117
17.1963
17.6581
18.2927
19.4588
20.6171
22.2263
22.2031
19.5961
19.2094
18.8823
18.6851
18.652
18.8117
19.2919
20.0413
21.5684
23.3845
26.5258
28.0159
21.1774
20.8365
20.5203
20.2936
20.178
20.2553
20.6398
21.3564
22.9298
24.9813
29.1539
32.8428
-0.143461
-0.131537
-0.170768
-0.269952
-0.423345
-0.589508
-0.771647
-0.97803
-1.19829
-1.41825
-1.61567
-1.75897
1.25749
1.22558
1.15818
1.0631
0.970456
0.853838
0.756991
0.689272
0.646724
0.626072
0.627437
0.657765
2.59526
2.52648
2.41645
2.30464
2.22596
2.21892
2.27846
2.40621
2.58399
2.78519
2.98371
3.1645
4.1294
4.02492
3.89902
3.80806
3.79584
3.89855
4.11889
4.43839
4.81189
5.18149
5.49581
5.72928
5.80208
5.68043
5.5619
5.51747
5.59288
5.82473
6.20701
6.69743
7.21795
7.6802
8.01715
8.20864
7.58032
7.47439
7.3914
7.42132
7.59637
7.9573
8.48058
9.09943
9.70457
10.1854
10.4716
10.5607
9.42868
9.39253
9.38513
9.51434
9.79139
10.2626
10.8851
11.5751
12.201
12.6417
12.8332
12.7951
11.3015
11.4209
11.5263
11.7915
12.1641
12.7092
13.3694
14.0614
14.6469
15.0066
15.0861
14.9236
13.1254
13.5346
13.7933
14.2225
14.6777
15.2495
15.8732
16.4906
16.979
17.2323
17.2043
16.9411
14.7695
15.6873
16.1129
16.7171
17.2378
17.7941
18.3155
18.7892
19.1333
19.2678
19.1519
18.8266
15.9425
17.7939
18.3674
19.1524
19.6853
20.1873
20.58
20.8787
21.0564
21.0727
20.8959
20.5531
15.7687
19.6155
20.2481
21.0991
21.6938
22.1817
22.493
22.6643
22.7079
22.6303
22.4229
22.1027
-1.81131
-1.73829
-1.51948
-1.16102
-0.669548
-0.0643177
0.471007
0.843532
0.981662
0.886864
0.65172
0.410329
0.733051
0.875851
1.10769
1.44164
1.8387
2.18451
2.45332
2.55531
2.4369
2.11653
1.70314
1.33196
3.32966
3.49568
3.68348
3.90733
4.1509
4.3459
4.4341
4.33752
4.00365
3.44174
2.78041
2.16078
5.88857
6.00264
6.10458
6.21744
6.33026
6.40771
6.38989
6.19482
5.7521
5.02073
4.11625
3.2104
8.28169
8.28877
8.28089
8.28929
8.31524
8.32991
8.2838
8.08878
7.66306
6.89091
5.82397
4.65128
10.5078
10.3912
10.2799
10.2116
10.1969
10.2056
10.2012
10.0871
9.7934
9.12455
8.04244
6.69286
12.6097
12.3785
12.1849
12.0725
12.0568
12.1056
12.2016
12.2363
12.182
11.7601
10.8791
9.49019
14.6207
14.2953
14.0404
13.9051
13.9115
14.0261
14.263
14.5028
14.797
14.7739
14.3747
13.1223
16.5501
16.1562
15.8552
15.7029
15.7287
15.9053
16.2908
16.7673
17.5102
18.0572
18.4837
17.6357
18.3883
17.9569
17.6217
17.4468
17.4658
17.6702
18.1651
18.8595
20.0925
21.3645
23.0231
23.0419
20.1139
19.6812
19.3244
19.1182
19.0902
19.2669
19.7837
20.6045
22.2203
24.2022
27.4149
29.0391
21.7055
21.307
20.9443
20.7027
20.5879
20.6757
21.0959
21.8853
23.5662
25.8337
30.1229
34.0477
-11.9105
-12.0487
-12.1489
-12.2244
-12.2817
-12.3408
-12.4191
-12.527
-12.665
-12.8163
-12.9712
-13.1105
-8.78412
-8.92827
-8.93332
-8.87271
-8.79592
-8.74694
-8.74462
-8.78873
-8.89244
-9.03122
-9.18708
-9.32014
-6.30483
-6.28258
-6.02645
-5.67143
-5.29662
-4.99769
-4.82568
-4.76588
-4.81694
-4.88403
-5.0196
-5.17378
-3.8947
-3.58334
-2.92019
-2.14226
-1.22655
-0.454575
0.0630674
0.397895
0.461464
0.455028
0.206866
-0.169479
-1.69885
-0.98815
0.124059
1.29199
3.07487
4.65672
5.63312
6.52307
6.43094
6.45102
6.38344
5.535
0.346401
1.45161
2.87725
4.24241
8.29413
10.8453
11.2474
11.0394
10.7304
10.3557
10.3351
10.3911
2.54367
3.96813
5.51174
7.98533
13.7245
13.6549
13.7914
13.7258
13.6168
13.5019
13.5905
13.8177
5.14804
6.79375
8.26052
10.2016
15.8995
15.9953
16.2577
16.311
16.3413
16.4478
16.6602
16.8381
8.30916
10.1751
11.6022
12.6795
17.651
17.9611
18.5568
18.6493
18.7234
18.9458
19.3412
19.5176
11.842
14.0791
15.3271
15.8609
17.4553
19.5836
20.8006
20.7105
20.7581
20.966
21.6546
21.7745
15.209
18.3605
19.3955
19.5857
20.9136
18.5476
22.2189
22.444
22.4546
22.3805
23.6729
23.6198
17.1814
22.1676
23.3039
23.0476
25.0807
26.0555
24.6048
23.7491
23.4963
22.2082
25.3541
24.8461
-13.1999
-13.2143
-13.1467
-13.0011
-12.7624
-12.3926
-12.0314
-11.8625
-11.9202
-12.1233
-12.413
-12.6618
-9.3729
-9.33355
-9.22157
-9.10551
-8.54368
-8.64403
-8.4496
-8.59824
-9.06624
-9.59244
-10.1235
-10.536
-5.21537
-5.12112
-4.88061
-4.72496
-4.76919
-4.62113
-4.60856
-4.84294
-5.94022
-6.97225
-7.87125
-8.54185
-0.309653
-0.249256
-0.321769
-0.435489
-0.301374
-0.525654
2.22685
3.82716
2.06903
-2.86157
-5.15403
-5.96072
5.07522
5.24695
4.89485
4.57163
4.14779
4.77464
8.84056
8.35566
4.50669
0.80523
-2.39312
-3.22775
9.76055
10.8554
10.2319
9.37848
8.17569
6.51435
6.41081
4.41375
4.23603
2.71312
1.10896
-0.489236
13.8006
13.9728
13.6086
13.3749
12.2934
10.763
9.43072
8.44741
8.07586
7.04742
5.4528
5.33096
16.9841
17.2389
17.5047
17.3419
16.0888
13.2488
12.7047
12.1236
12.0794
11.6685
11.0128
11.9582
19.7014
20.1481
20.4166
20.5687
21.0143
17.7828
15.0042
15.3875
16.1104
16.6122
17.101
18.8769
21.879
22.6497
22.8436
23.1262
23.8409
22.2719
17.6487
18.5243
20.0808
21.7118
24.0721
26.7581
23.4935
24.7765
24.647
24.3547
23.6842
20.963
20.1565
21.3809
23.4295
26.0906
30.8471
32.9927
24.5402
26.8591
26.4333
25.2258
23.4589
22.1492
22.5238
23.3006
25.5744
28.414
35.0375
40.4102
18.7775
20.6617
21.0513
22.0043
22.6349
23.6142
25.1016
25.9154
27.18
30.0547
30.6979
32.2299
20.6108
21.0065
21.2543
22.1172
22.7424
23.2801
24.6859
26.7082
28.4808
29.6844
30.4939
31.465
20.2222
20.3578
20.6717
21.377
22.1903
23.151
25.1547
27.5273
29.3932
31.3203
33.634
35.3935
18.7098
19.2753
19.7689
20.3702
21.2227
22.4256
24.5063
27.6427
34.6904
40.1577
40.3827
40.4324
30.0762
29.4207
26.833
24.7326
24.7024
26.0237
27.1002
27.0692
30.1774
31.1644
33.945
34.7503
31.1481
31.1864
28.0694
25.0063
25.355
27.1939
28.866
27.0468
31.9052
31.5956
31.5053
30.6833
35.919
35.1369
35.2036
37.4885
39.4158
28.7084
29.0323
28.6702
31.7677
30.185
28.5659
26.4394
39.7702
39.3861
38.729
37.3064
34.9322
36.8908
34.4927
27.2884
28.0563
27.8373
26.2319
24.6232
30.6661
31.1862
19.562
20.5211
21.6024
22.426
22.9312
23.168
23.1894
23.1466
23.0285
22.8673
25.75
20.3782
18.6113
19.9729
21.2131
22.3803
23.299
23.8881
24.2234
24.2883
24.1894
24.1203
21.1998
18.5777
17.8725
18.764
20.0851
21.6684
23.1261
24.2032
24.8023
25.1473
25.2037
25.3044
20.9003
17.6494
16.064
16.5116
18.3159
20.495
22.5974
24.2185
25.2745
25.8926
26.1645
26.4376
22.6322
22.3591
22.0749
21.8204
21.5983
21.541
21.7173
22.235
23.4399
25.0887
27.7155
27.7558
23.9908
23.793
23.5565
23.2807
22.9611
22.7321
22.6131
22.7566
23.273
24.231
25.2065
25.3209
25.3049
25.1987
25.0218
24.7359
24.3702
23.9725
23.5086
23.1129
22.7186
22.7528
22.5874
22.831
27.1029
28.0814
27.5149
26.4592
25.9015
25.3388
24.5323
23.5611
22.2686
21.2858
20.2021
20.1157
20.6247
21.6648
21.6915
22.2892
22.8981
23.4614
23.8443
24.0297
24.0464
23.9421
23.7455
23.4808
20.8963
21.1081
21.4602
22.2076
23.0508
23.8758
24.5092
24.8906
25.0373
25.0172
24.8975
24.7249
20.3671
20.3171
20.7237
21.5347
22.5795
23.6798
24.6288
25.3094
25.7048
25.8764
25.9121
25.8806
19.0812
19.1075
19.6044
20.5039
21.7361
23.1149
24.4001
25.4141
26.1105
26.548
26.8104
26.9768
23.1571
22.8184
22.4664
22.1973
21.9699
21.9135
22.1154
22.6872
23.9974
25.878
28.7778
29.7345
24.4996
24.2321
23.8923
23.6274
23.2895
23.0529
22.9366
23.0893
23.6581
24.762
26.0452
26.6279
25.7913
25.6212
25.2639
25.0657
24.6658
24.2533
23.7579
23.3058
22.8391
22.8526
22.8223
23.4243
27.0882
27.1022
27.0005
26.6061
26.1675
25.5903
24.7181
23.6231
22.1145
20.8763
19.5211
19.1987
23.9531
25.1787
25.3654
25.2568
24.8419
28.2239
30.8661
29.764
30.0545
32.9
29.6296
26.2591
23.1044
23.9904
24.9321
25.8646
26.02
27.6846
27.6176
31.6104
35.0083
32.3127
33.5749
28.9386
21.3055
22.0651
23.3515
24.9994
26.3847
28.7292
30.2034
32.634
30.4543
33.7647
30.0861
26.7763
18.7251
19.5013
20.9816
23.3141
25.6949
28.9363
33.1629
37.3518
38.5998
37.2056
36.6069
44.4583
23.7771
28.6304
27.6187
25.0649
25.5374
24.1073
23.9109
24.9191
27.3354
29.5891
32.421
31.7362
31.9461
28.663
28.756
28.5118
26.8523
24.6695
24.5349
25.6078
26.1809
27.4532
28.1139
27.7134
31.7594
34.1488
33.9584
28.4848
27.4168
28.1396
24.9205
23.7574
23.8382
23.6948
23.3958
24.0721
44.7212
38.7117
38.2172
37.1593
29.5189
25.6211
24.7479
23.3096
21.7453
20.3439
18.8753
19.3742
18.3541
19.2187
19.926
20.5612
21.3677
22.5277
24.285
26.3506
26.5189
25.8132
25.5283
26.1255
19.673
20.5137
21.3279
21.9994
22.7148
23.6275
24.5938
25.1388
25.5039
25.2805
25.2493
25.8973
20.9875
22.0389
23.0875
23.7286
23.9913
23.9393
24.35
24.8912
25.126
25.1001
25.2922
25.6979
22.0153
23.475
24.4717
24.3678
24.1325
24.2963
24.6129
24.9389
25.0476
25.07
25.224
25.4568
27.0826
26.2975
27.4159
29.5583
30.0503
27.4933
25.9732
27.1666
27.7046
27.3952
25.9909
24.2311
26.799
26.9329
27.7305
28.8512
28.9575
27.7278
26.9185
27.277
27.4382
27.0371
25.8856
24.316
26.6885
27.1728
27.7841
28.4322
28.4554
27.8222
27.3507
27.3972
27.3479
26.9161
25.9707
24.6625
26.8203
27.361
27.8079
28.2038
28.2155
27.8661
27.5695
27.4981
27.3494
26.929
26.1502
25.0976
21.3423
18.2699
16.3559
16.5108
18.0933
20.2384
22.582
24.4323
25.7094
26.0545
26.4437
26.8889
22.1328
20.0501
18.9361
18.8502
19.8623
21.6029
23.2253
24.5531
25.3196
25.8187
26.1137
26.3188
23.02
21.8664
21.1539
21.1067
21.8196
22.5572
23.6476
24.5964
25.2583
25.6592
25.9001
26.0576
23.872
22.9245
22.3676
22.3059
22.7048
23.4732
24.2086
24.8221
25.2792
25.5759
25.7541
25.8551
27.096
27.256
27.227
27.0019
26.6757
26.1414
25.2824
24.097
22.5629
21.1078
19.7756
19.3009
26.6018
26.7182
26.8225
26.7603
26.5661
26.1734
25.5001
24.516
23.2588
22.0027
20.9432
20.4566
26.4164
26.5883
26.6857
26.6723
26.541
26.2381
25.7028
24.9067
23.8928
22.8488
21.9767
21.4986
26.4132
26.5667
26.6383
26.6293
26.5243
26.2833
25.8626
25.24
24.4479
23.6156
22.9072
22.4756
18.9456
19.0616
19.5464
20.4104
21.6107
22.981
24.2942
25.3642
26.1325
26.6471
26.9854
27.2215
20.2218
20.2126
20.6033
21.3452
22.3525
23.4744
24.5349
25.3999
26.026
26.4462
26.7087
26.8618
21.2733
21.3387
21.7147
22.3612
23.1845
24.0552
24.8474
25.4844
25.9522
26.2774
26.4878
26.6281
22.2779
22.3553
22.6824
23.2113
23.8516
24.5027
25.0785
25.541
25.8924
26.152
26.3282
26.4517
27.425
27.5311
27.4888
27.2755
26.9403
26.3691
25.4166
24.066
22.2601
20.4747
18.7482
17.9937
27.0007
27.0925
27.1488
27.0788
26.8641
26.421
25.6432
24.4811
22.961
21.4089
20.1004
19.5906
26.8715
26.9822
27.047
27.0212
26.8665
26.5143
25.8825
24.9233
23.678
22.3879
21.3494
20.8905
26.856
26.9647
27.0171
26.9972
26.8727
26.5918
26.0935
25.3395
24.3661
23.3557
22.5652
22.1999
18.0134
18.6736
20.0757
22.3616
24.784
27.2484
26.8827
25.0817
23.0723
23.0392
23.1616
24.9395
19.3748
19.8332
20.9478
22.6501
24.3975
25.7133
25.4287
24.1728
23.4146
23.7332
24.1851
24.8628
20.7913
21.2025
22.0593
23.265
24.1781
24.7112
24.3309
23.7891
23.5815
23.9272
24.4007
24.8259
22.1142
22.3963
22.9715
23.6527
24.0852
24.3587
23.9846
23.7545
23.734
24.0132
24.3597
24.6056
27.2454
24.9534
25.0554
26.6523
27.1665
26.4317
25.233
23.5313
21.4773
19.534
17.8035
17.7933
25.8468
25.1786
25.5383
26.44
26.8594
26.4663
25.5548
24.1802
22.5259
20.9579
19.7805
19.5455
25.544
25.5248
25.9359
26.5138
26.8107
26.5719
25.8947
24.8276
23.5293
22.2873
21.3733
21.0091
25.6908
25.8946
26.2497
26.639
26.8481
26.6976
26.2043
25.4012
24.4107
23.4602
22.7704
22.2833
23.1675
24.756
25.3234
24.8887
24.5094
24.5266
24.6982
24.9183
25.0058
25.0371
25.0864
24.7857
28.1835
28.4642
26.2366
25.2972
24.7329
24.6185
24.708
24.8729
24.9584
25.0052
25.0516
24.9694
24.1208
26.8363
26.1618
25.3692
24.8118
24.654
24.7063
24.839
24.9271
24.9789
25.0252
25.0017
24.4643
25.2113
25.8334
25.2992
24.8467
24.6861
24.7167
24.8243
24.9072
24.9597
25.0013
24.9992
25.322
25.2703
25.7323
25.2397
24.8899
24.7318
24.7432
24.8233
24.8956
24.9448
24.9813
24.9882
25.8367
25.8644
25.4668
25.1986
24.9314
24.7784
24.7694
24.8277
24.8884
24.9324
24.9647
24.9754
26.2815
26.4601
25.3636
25.1361
24.9387
24.808
24.7888
24.8318
24.8825
24.9218
24.9506
24.9625
26.6677
27.0777
25.6511
25.0161
24.9031
24.8135
24.7983
24.8327
24.8763
24.9124
24.9391
24.9507
26.9388
27.4137
26.272
24.8444
24.845
24.8042
24.7991
24.8298
24.8695
24.9045
24.9305
24.9416
27.0657
27.2709
25.3522
24.7484
24.818
24.7907
24.7936
24.8234
24.8621
24.8979
24.9248
24.9362
27.085
26.7639
25.1439
24.7753
24.8051
24.7755
24.7828
24.8138
24.8542
24.8926
24.9222
24.9354
27.0684
27.0883
26.4163
24.9189
24.8067
24.7595
24.7692
24.8027
24.8466
24.8887
24.9222
24.9387
27.4266
27.5658
27.8374
28.0799
28.0879
27.881
27.6772
27.5611
27.3723
26.9833
26.3399
25.5006
27.6376
27.6944
27.8576
28.0053
28.0069
27.8724
27.7179
27.5846
27.3822
27.027
26.4858
25.8024
27.7219
27.7644
27.8655
27.9538
27.9469
27.8477
27.7179
27.5768
27.3701
27.0435
26.5778
26.0082
27.776
27.8017
27.8636
27.9137
27.8977
27.8142
27.6954
27.5486
27.3399
27.034
26.6208
26.1284
27.8095
27.8203
27.8558
27.8803
27.8556
27.7777
27.6622
27.5104
27.2998
27.0078
26.6306
26.1913
27.8262
27.8273
27.8448
27.8515
27.8191
27.742
27.6264
27.47
27.2576
26.9748
26.6216
26.2217
27.8317
27.8272
27.8325
27.8267
27.788
27.7097
27.5925
27.4325
27.2187
26.9425
26.6075
26.2349
27.8309
27.8234
27.8204
27.8059
27.7622
27.6822
27.5634
27.4006
27.186
26.9151
26.5932
26.2403
27.8272
27.8181
27.8095
27.789
27.7418
27.6603
27.5403
27.3756
27.1609
26.8939
26.5813
26.2425
27.8227
27.8126
27.8004
27.776
27.7267
27.6444
27.523
27.3581
27.1436
26.8792
26.5728
26.2432
27.8186
27.8077
27.7932
27.767
27.7171
27.6346
27.5135
27.3483
27.134
26.871
26.5678
26.2431
27.8154
27.8036
27.788
27.7614
27.7116
27.6304
27.51
27.345
27.1308
26.8682
26.5658
26.2427
24.5523
23.7844
23.3742
23.3139
23.5816
24.0735
24.5624
24.964
25.2854
25.5068
25.6297
25.5796
25.0649
24.4613
24.1108
24.0132
24.1505
24.4466
24.7684
25.0399
25.2748
25.4467
25.5445
25.5239
25.4057
24.9048
24.5895
24.4608
24.5065
24.6758
24.888
25.0808
25.2598
25.3984
25.4825
25.4863
25.6164
25.1817
24.8883
24.7403
24.7286
24.8203
24.9628
25.1065
25.2478
25.362
25.4359
25.445
25.7415
25.3519
25.0745
24.9168
24.8716
24.9166
25.0146
25.1258
25.2401
25.335
25.3992
25.4098
25.8152
25.4584
25.1944
25.0332
24.9686
24.985
25.0534
25.1417
25.2359
25.3166
25.3698
25.3827
25.8599
25.5279
25.2753
25.1135
25.0376
25.0356
25.0836
25.155
25.2342
25.3037
25.3491
25.3617
25.8882
25.5748
25.3315
25.1704
25.0876
25.0732
25.1069
25.166
25.2341
25.2954
25.3353
25.3468
25.9065
25.6066
25.3702
25.2101
25.123
25.1005
25.1244
25.1748
25.2353
25.2909
25.3273
25.3377
25.9177
25.6268
25.3952
25.2359
25.1463
25.1188
25.1367
25.1816
25.2374
25.2896
25.3244
25.3344
25.9234
25.6373
25.4083
25.2497
25.159
25.1292
25.1442
25.1865
25.24
25.291
25.326
25.3371
25.9249
25.6403
25.4119
25.2538
25.1631
25.133
25.1474
25.1893
25.2427
25.2941
25.3306
25.3445
26.6091
26.5891
26.6152
26.5973
26.5057
26.3092
25.9767
25.493
24.8829
24.2366
23.677
23.3146
26.6239
26.5906
26.5905
26.5625
26.4775
26.3115
26.0433
25.6644
25.1943
24.6963
24.2583
23.9554
26.6029
26.5769
26.5627
26.5262
26.4435
26.2967
26.0722
25.7664
25.3958
25.0058
24.6582
24.4002
26.581
26.5567
26.5339
26.4904
26.4075
26.272
26.0755
25.8181
25.5141
25.1966
24.9115
24.6844
26.5587
26.5345
26.506
26.4568
26.3725
26.2434
26.0645
25.8381
25.5768
25.3058
25.0522
24.8562
26.5363
26.5128
26.4803
26.4265
26.3405
26.215
26.0473
25.8408
25.607
25.3663
25.1408
24.9595
26.5156
26.4931
26.4578
26.4004
26.3127
26.1893
26.0289
25.8356
25.62
25.3994
25.1928
25.023
26.4981
26.4767
26.4392
26.3788
26.2896
26.1675
26.012
25.8278
25.6246
25.4176
25.2245
25.0638
26.4847
26.4642
26.4249
26.3621
26.2715
26.15
25.998
25.82
25.6255
25.4283
25.2446
25.0908
26.4763
26.456
26.4149
26.3501
26.2584
26.1372
25.9874
25.8135
25.625
25.4346
25.2573
25.1085
26.4734
26.4521
26.4091
26.3426
26.2501
26.1289
25.9803
25.809
25.624
25.4378
25.2648
25.1191
26.4755
26.4518
26.4067
26.3391
26.2458
26.1242
25.9762
25.8062
25.6232
25.4392
25.2683
25.1241
23.1421
23.1949
23.4449
23.8443
24.315
24.7879
25.2053
25.5506
25.8276
26.0449
26.1924
26.2261
23.8014
23.8202
23.9903
24.273
24.607
24.9493
25.2607
25.5324
25.7638
25.9537
26.0884
26.1548
24.2563
24.2429
24.3472
24.5413
24.7791
25.0353
25.2806
25.5073
25.7091
25.8788
26.0012
26.0637
24.5467
24.5094
24.5673
24.7021
24.8789
25.0819
25.2869
25.4848
25.6656
25.8186
25.9289
25.9865
24.7243
24.6725
24.7014
24.7995
24.9395
25.1099
25.2894
25.4674
25.6316
25.7704
25.8697
25.9219
24.8329
24.7741
24.7862
24.8622
24.9797
25.1293
25.2912
25.454
25.6048
25.7318
25.8218
25.8689
24.9018
24.8407
24.8433
24.9056
25.0087
25.1439
25.2927
25.4436
25.5836
25.7012
25.7839
25.8264
24.9476
24.8864
24.8836
24.9369
25.0301
25.1547
25.2937
25.4355
25.5672
25.6778
25.7551
25.7936
24.9788
24.9183
24.912
24.9593
25.0453
25.1621
25.2941
25.4291
25.5551
25.6608
25.7346
25.7704
24.9995
24.9395
24.9306
24.9739
25.0549
25.1664
25.2937
25.4244
25.5467
25.6497
25.7218
25.7563
25.0117
24.9515
24.941
24.9815
25.0595
25.1679
25.2925
25.4211
25.5417
25.6438
25.7163
25.7514
25.0173
24.9567
24.9447
24.9835
25.06
25.1671
25.2908
25.419
25.5395
25.6422
25.7163
25.7543
26.9607
26.9769
27.002
26.979
26.875
26.6513
26.2639
25.6858
24.9472
24.1889
23.6218
23.3585
26.9868
26.9802
26.984
26.9559
26.8659
26.6855
26.3851
25.9474
25.3963
24.8346
24.4237
24.2245
26.9858
26.9729
26.9634
26.9305
26.8492
26.6994
26.4625
26.1296
25.7188
25.2976
24.9722
24.7944
26.9762
26.9596
26.942
26.9048
26.8286
26.6994
26.5069
26.2488
25.9397
25.6214
25.3512
25.1718
26.9619
26.9436
26.921
26.8803
26.8069
26.6915
26.5294
26.3231
26.087
25.8508
25.6431
25.4857
26.9458
26.9272
26.9014
26.8579
26.7861
26.6801
26.5387
26.3679
26.183
26.0111
25.8707
25.7854
26.9301
26.9121
26.8841
26.8383
26.7674
26.6679
26.5409
26.3943
26.2438
26.111
26.028
26.0158
26.9165
26.8992
26.8695
26.8219
26.7515
26.6565
26.5396
26.4096
26.2822
26.1784
26.1237
26.1408
26.9058
26.8892
26.858
26.8088
26.7385
26.6466
26.5367
26.4183
26.3062
26.2201
26.1775
26.1866
26.8991
26.8826
26.8498
26.7991
26.7286
26.6385
26.5334
26.4228
26.3213
26.246
26.2067
26.1921
26.897
26.8795
26.8447
26.7925
26.7215
26.6324
26.5301
26.4246
26.3303
26.2628
26.2252
26.1796
26.899
26.8791
26.8422
26.7886
26.717
26.6281
26.5273
26.4246
26.3349
26.2738
26.2369
26.1544
23.2042
23.364
23.6779
23.9687
24.1638
24.1916
23.9237
23.8266
23.8687
24.0671
24.2728
24.1346
23.9526
24.2724
24.8662
24.4727
24.2098
24.1192
23.9549
23.9282
23.9871
24.1286
24.2715
24.2293
24.6227
25.6032
25.9702
24.8155
24.2969
24.1438
24.0414
24.0396
24.0923
24.1926
24.2949
24.3133
25.0008
27.3364
26.3899
25.1041
24.4619
24.2656
24.1613
24.1511
24.1841
24.2506
24.3227
24.3591
25.4049
26.9799
26.431
25.331
24.6602
24.406
24.287
24.2529
24.2608
24.2987
24.3468
24.3841
25.9484
26.4617
26.3084
25.4484
24.8314
24.5432
24.3997
24.3377
24.3209
24.3355
24.3649
24.3982
26.2864
26.3579
26.1736
25.4943
24.9553
24.6558
24.4892
24.4021
24.3643
24.361
24.3766
24.4047
26.3693
26.1054
26.0544
25.5129
25.034
24.7372
24.5528
24.4458
24.3922
24.3764
24.3826
24.4056
26.3113
26.0525
25.9761
25.5239
25.0882
24.7898
24.5916
24.4706
24.4064
24.3831
24.3839
24.4033
26.1999
26.0102
25.9612
25.5344
25.1196
24.8163
24.608
24.4784
24.4087
24.3823
24.3817
24.4
26.0906
26.2416
25.9859
25.5439
25.1315
24.8202
24.6049
24.4715
24.4008
24.3753
24.3768
24.3985
26.2554
26.6861
26.0244
25.5506
25.1287
24.8082
24.5887
24.4553
24.3867
24.3647
24.3716
24.3992
26.2995
26.2684
26.5013
26.7649
26.9088
26.8061
26.4421
25.8361
25.075
24.3294
23.7719
23.0959
26.5962
26.5421
26.6817
26.8589
26.9547
26.8765
26.5993
26.1309
25.5257
24.8937
24.3484
23.6243
26.7413
26.7128
26.8006
26.919
26.9783
26.9105
26.6893
26.315
25.8195
25.271
24.7263
23.9823
26.8343
26.815
26.8727
26.9508
26.9824
26.9173
26.7323
26.425
26.0156
25.5535
25.0993
24.6513
26.8921
26.8742
26.9123
26.962
26.9727
26.9072
26.7466
26.4892
26.1518
25.7778
25.4373
25.2032
26.923
26.9057
26.9303
26.9596
26.955
26.8884
26.7454
26.5267
26.2505
25.9598
25.7295
25.6503
26.9357
26.9196
26.9345
26.9492
26.9337
26.8663
26.7369
26.5491
26.3237
26.106
25.9722
26.0124
26.9377
26.9229
26.9307
26.9346
26.9115
26.8442
26.7257
26.5623
26.3776
26.219
26.1631
26.2958
26.9345
26.9204
26.9229
26.9189
26.8907
26.8239
26.7139
26.5693
26.4156
26.301
26.3006
26.4933
26.9267
26.9154
26.9137
26.9041
26.8725
26.8064
26.7029
26.5717
26.4398
26.3551
26.3904
26.6074
26.9249
26.9099
26.9047
26.8912
26.8578
26.7925
26.6933
26.5708
26.4523
26.3859
26.4422
26.6642
26.9266
26.905
26.8971
26.881
26.847
26.7825
26.6859
26.5679
26.456
26.3983
26.4657
26.6848
)
;

boundaryField
{
    rotor
    {
        type            zeroGradient;
    }
    stator
    {
        type            zeroGradient;
    }
    front
    {
        type            empty;
    }
    back
    {
        type            empty;
    }
}


// ************************************************************************* //
