/*--------------------------------*- C++ -*----------------------------------*\
| =========                 |                                                 |
| \\      /  F ield         | OpenFOAM: The Open Source CFD Toolbox           |
|  \\    /   O peration     | Version:  v1606+                                |
|   \\  /    A nd           | Web:      www.OpenFOAM.com                      |
|    \\/     M anipulation  |                                                 |
\*---------------------------------------------------------------------------*/
FoamFile
{
    version     2.0;
    format      ascii;
    class       surfaceScalarField;
    location    "1.3";
    object      phi.air;
}
// * * * * * * * * * * * * * * * * * * * * * * * * * * * * * * * * * * * * * //

dimensions      [0 3 -1 0 0 0 0];

internalField   nonuniform List<scalar> 
11770
(
-7.34126e-06
0.000104197
-6.773e-06
9.56766e-05
-5.83468e-06
9.44404e-05
-1.80892e-06
9.02191e-05
2.79635e-06
8.71312e-05
4.85155e-06
8.7145e-05
4.69563e-06
8.78437e-05
5.09486e-06
8.65322e-05
5.32753e-06
8.68053e-05
5.38387e-06
8.6702e-05
5.45837e-06
8.66346e-05
4.29809e-06
8.83292e-05
2.16833e-06
9.03052e-05
5.28964e-07
9.11395e-05
8.00948e-08
9.07039e-05
-7.64467e-07
9.09813e-05
-1.55836e-06
9.05997e-05
-2.44624e-06
9.00829e-05
-3.92969e-06
9.00809e-05
-5.53743e-06
9.05822e-05
-9.16678e-06
9.26991e-05
-1.0971e-05
9.22551e-05
-1.00664e-05
9.15067e-05
-5.64778e-06
9.05427e-05
-6.08608e-07
9.12343e-05
2.53805e-06
9.34464e-05
5.36443e-06
9.39386e-05
6.46992e-06
9.48083e-05
8.47714e-06
9.43416e-05
0.000103827
-5.20298e-06
9.93908e-05
-5.86481e-06
8.84509e-05
-9.05142e-06
8.87734e-05
-7.06733e-06
8.04187e-05
-3.75934e-06
7.50087e-05
-1.01918e-06
7.40069e-05
1.6211e-06
7.52871e-05
3.7433e-06
7.44964e-05
6.29813e-06
7.47107e-05
8.62387e-06
7.50914e-05
1.0013e-05
7.61935e-05
9.54578e-06
7.92836e-05
6.51112e-06
8.28233e-05
2.36122e-06
8.40618e-05
-1.06232e-06
8.29492e-05
-3.61561e-06
8.26398e-05
-5.46016e-06
8.18654e-05
-6.75248e-06
8.11081e-05
-6.81008e-06
8.02233e-05
-5.92163e-06
7.98518e-05
-5.48952e-06
8.24518e-05
-8.54094e-06
8.39301e-05
-9.24523e-06
8.13406e-05
-7.74962e-06
7.99072e-05
-4.4467e-06
8.13845e-05
-1.77959e-06
8.44168e-05
7.37673e-07
8.44277e-05
2.21977e-06
8.56466e-05
3.05021e-06
8.54407e-05
9.55197e-05
-1.14467e-06
9.56113e-05
-6.20241e-06
9.01933e-05
-1.34983e-05
9.44235e-05
-1.58056e-05
8.71035e-05
-1.05523e-05
7.96724e-05
1.5986e-07
7.42082e-05
3.37877e-06
7.92462e-05
4.99129e-06
7.96249e-05
6.73206e-06
7.99341e-05
8.91331e-06
8.09198e-05
9.7067e-06
8.42254e-05
8.66208e-06
9.01838e-05
6.03404e-06
9.62543e-05
2.61294e-06
9.90882e-05
-1.74303e-06
9.88495e-05
-5.58928e-06
9.80498e-05
-8.35601e-06
9.59463e-05
-9.95995e-06
9.34781e-05
-9.57909e-06
9.02526e-05
-7.25266e-06
8.71606e-05
-5.1092e-06
8.88545e-05
-2.86294e-06
9.16213e-05
-1.2735e-06
9.14647e-05
-8.3022e-07
9.1984e-05
-5.06481e-06
9.29347e-05
-5.89121e-06
8.76035e-05
-5.67233e-06
8.2854e-05
-5.65491e-06
8.19351e-05
-5.87909e-06
8.12798e-05
8.58167e-05
6.39995e-06
8.55603e-05
4.69915e-06
8.62046e-05
1.86982e-06
9.07521e-05
-7.86124e-06
8.84128e-05
-9.76355e-06
7.81917e-05
1.33936e-06
6.71213e-05
7.75007e-06
7.64065e-05
1.07874e-05
7.89295e-05
1.32448e-05
7.9844e-05
1.46154e-05
8.25778e-05
1.47033e-05
8.8734e-05
1.24265e-05
9.93245e-05
9.4485e-06
0.0001084
6.07855e-06
0.000113132
1.8407e-06
0.000114152
-3.81001e-06
0.00011421
-9.72248e-06
0.000111406
-1.39227e-05
0.000105693
-1.57772e-05
9.79393e-05
-1.28765e-05
8.91016e-05
-5.15644e-06
8.67897e-05
1.52391e-06
9.15551e-05
3.46999e-06
9.72416e-05
-9.98589e-06
0.000105315
-2.42587e-05
0.000100132
-2.59952e-05
8.34148e-05
-2.30364e-05
7.48292e-05
-1.80227e-05
7.21114e-05
-1.22529e-05
7.10112e-05
7.10111e-05
7.24645e-06
7.65304e-05
1.32882e-05
7.81936e-05
1.75989e-05
8.37827e-05
1.18934e-05
8.91503e-05
4.42593e-06
8.07959e-05
9.95627e-06
6.40435e-05
1.50961e-05
7.55849e-05
1.91362e-05
7.93179e-05
2.42346e-05
8.08513e-05
2.74157e-05
8.81235e-05
2.83767e-05
9.82324e-05
2.24364e-05
0.000111225
1.56417e-05
0.000116769
9.48681e-06
0.000117809
4.47507e-06
0.000116076
-1.48278e-06
0.000116243
-9.27395e-06
0.000115924
-1.69493e-05
0.000113111
-2.13468e-05
0.000105825
-1.74029e-05
9.26697e-05
-6.28264e-06
8.47575e-05
2.33345e-06
9.05247e-05
-1.02617e-05
0.000108443
-4.38323e-05
0.000126712
-5.5915e-05
0.000105789
-4.96933e-05
7.49087e-05
-3.80031e-05
6.17371e-05
-2.42045e-05
5.74258e-05
-1.26146e-05
5.79894e-05
5.74765e-05
9.48135e-06
6.54045e-05
1.81846e-05
6.79008e-05
2.72592e-05
7.29997e-05
3.40548e-05
8.15243e-05
3.16159e-05
8.32545e-05
2.14672e-05
7.56041e-05
2.24075e-05
8.17179e-05
2.72598e-05
8.37946e-05
3.68758e-05
8.34933e-05
3.54025e-05
9.42258e-05
2.46409e-05
0.000100063
1.78182e-05
0.000101014
1.24836e-05
0.000101686
5.84277e-06
0.000102377
3.84362e-06
9.63276e-05
1.4001e-06
9.69804e-05
-1.12913e-06
9.69286e-05
-8.65071e-06
9.96403e-05
-1.47477e-05
9.42443e-05
-1.68455e-05
8.38908e-05
-1.41842e-05
7.76497e-05
-1.80454e-05
8.83301e-05
-4.30856e-05
0.000119103
-7.26983e-05
0.000141476
-7.27313e-05
9.98132e-05
-5.72301e-05
5.93479e-05
-4.00892e-05
4.61262e-05
-2.4219e-05
4.33788e-05
-1.24556e-05
4.71184e-05
4.61169e-05
1.12016e-05
5.47818e-05
2.25822e-05
5.70298e-05
3.65799e-05
6.0227e-05
5.36809e-05
6.76215e-05
6.12266e-05
8.01367e-05
4.15527e-05
9.46195e-05
2.66554e-05
9.67495e-05
2.8139e-05
8.6359e-05
2.35777e-05
8.25663e-05
1.38431e-05
8.58189e-05
3.77172e-06
8.98522e-05
2.6874e-06
8.59275e-05
2.35887e-06
8.78635e-05
9.57759e-07
9.09541e-05
2.8996e-07
8.57752e-05
-2.31545e-07
8.67127e-05
-1.12473e-06
8.68704e-05
-4.45765e-06
9.03403e-05
-1.05018e-05
8.53726e-05
-2.07795e-05
7.69483e-05
-3.04585e-05
7.16659e-05
-4.5238e-05
9.06554e-05
-5.90177e-05
0.000122972
-7.10958e-05
0.000141806
-6.58604e-05
8.70077e-05
-4.80706e-05
4.02528e-05
-3.15993e-05
3.12729e-05
-1.90862e-05
3.3264e-05
-9.45894e-06
3.91521e-05
3.85872e-05
1.06405e-05
4.61926e-05
2.25205e-05
4.72097e-05
3.88142e-05
4.69621e-05
6.12832e-05
4.93979e-05
7.71538e-05
6.58612e-05
6.06414e-05
0.000101083
2.86969e-05
0.00011072
1.28903e-05
8.63408e-05
-5.47113e-06
8.2488e-05
-1.69204e-05
8.36619e-05
-1.9153e-05
8.51415e-05
-1.4696e-05
7.78227e-05
-6.5872e-06
7.70869e-05
-8.58428e-07
8.2857e-05
-6.35767e-07
8.33252e-05
-1.45625e-06
8.5339e-05
-3.22429e-06
8.6488e-05
-3.18396e-06
8.77332e-05
-6.72737e-06
8.55038e-05
-1.77515e-05
8.243e-05
-3.24227e-05
7.9346e-05
-4.31754e-05
9.61488e-05
-4.38378e-05
0.000120502
-4.33503e-05
0.000135385
-4.54982e-05
8.02552e-05
-3.41985e-05
2.60187e-05
-2.28308e-05
2.02971e-05
-1.4667e-05
2.57205e-05
-6.81881e-06
3.17983e-05
3.22583e-05
9.02446e-06
3.84052e-05
1.96607e-05
3.79228e-05
3.43553e-05
3.42662e-05
5.43884e-05
3.10153e-05
6.81848e-05
4.64481e-05
5.08213e-05
9.97371e-05
2.245e-05
0.000121109
-7.40333e-06
0.000103426
-2.72106e-05
9.40188e-05
-2.91896e-05
8.20343e-05
-2.41561e-05
7.91311e-05
-1.72913e-05
7.1366e-05
-9.12476e-06
6.96675e-05
-3.82736e-06
7.79087e-05
-6.9008e-07
7.98179e-05
-5.52712e-07
8.44892e-05
-2.51109e-06
8.72855e-05
-5.13127e-06
8.90496e-05
-9.18293e-06
8.829e-05
-1.48098e-05
8.6845e-05
-2.23673e-05
8.50486e-05
-2.21598e-05
9.51179e-05
-1.66542e-05
0.000114227
-1.00684e-05
0.000127253
-2.31663e-05
8.52517e-05
-2.29015e-05
2.18719e-05
-1.58721e-05
1.285e-05
-1.07129e-05
2.0285e-05
-4.67252e-06
2.54013e-05
2.71416e-05
7.48088e-06
3.08265e-05
1.62317e-05
2.91849e-05
2.67772e-05
2.40717e-05
3.99266e-05
1.70324e-05
3.91775e-05
3.8557e-05
1.8064e-05
0.000106815
3.52465e-06
0.000129847
-1.50442e-05
0.000118783
-2.76888e-05
0.000103917
-2.94607e-05
8.21711e-05
-2.37114e-05
7.34313e-05
-1.51861e-05
6.39269e-05
-8.66474e-06
6.46145e-05
-2.13648e-06
7.28126e-05
9.57561e-07
7.75541e-05
3.56255e-07
8.54563e-05
-1.90791e-06
8.89146e-05
-6.33696e-06
9.2179e-05
-1.11063e-05
9.15347e-05
-1.41038e-05
8.83682e-05
-1.49847e-05
8.55605e-05
-3.49666e-06
8.44054e-05
6.1459e-06
0.000103984
1.13621e-05
0.000120279
-2.2992e-06
9.3161e-05
-1.2626e-05
2.79001e-05
-9.30569e-06
8.96184e-06
-6.4948e-06
1.6675e-05
-2.72485e-06
2.0916e-05
2.36209e-05
5.50597e-06
2.45238e-05
1.1673e-05
2.23011e-05
1.7875e-05
1.72948e-05
2.4336e-05
9.09843e-06
1.02134e-05
4.48346e-05
-5.43761e-06
0.000115687
-1.11355e-05
0.000134452
-1.84696e-05
0.000125183
-2.45151e-05
0.000108324
-2.50464e-05
8.12141e-05
-1.90161e-05
6.71893e-05
-1.25554e-05
5.80836e-05
-7.34294e-06
6.03751e-05
-4.33975e-07
6.74033e-05
2.18111e-06
7.63791e-05
2.24715e-06
8.65067e-05
-2.70388e-06
9.41529e-05
-8.16212e-06
9.68783e-05
-1.35069e-05
9.56007e-05
-1.44148e-05
8.79229e-05
-7.61112e-06
7.94056e-05
9.52217e-06
7.01215e-05
2.27383e-05
9.26957e-05
2.49531e-05
0.000116621
1.54606e-05
0.000101104
-1.32654e-06
4.2213e-05
-2.28408e-06
9.53726e-06
-1.68784e-06
1.51171e-05
-7.71727e-07
1.91415e-05
2.20053e-05
2.96479e-06
2.03952e-05
5.99829e-06
1.81943e-05
8.25205e-06
1.41424e-05
9.99758e-06
6.2626e-06
-5.53703e-06
5.48175e-05
-1.604e-05
0.000123183
-1.96285e-05
0.000136594
-2.19932e-05
0.000126108
-2.00855e-05
0.00010516
-1.73497e-05
7.74294e-05
-1.05465e-05
6.02108e-05
-6.69647e-06
5.47332e-05
-4.6148e-06
5.88e-05
-1.1999e-06
6.50553e-05
1.05311e-06
7.54255e-05
2.1359e-06
8.66439e-05
-2.79519e-06
9.99252e-05
-9.33582e-06
0.000103514
-1.40863e-05
9.9919e-05
-1.11869e-05
8.57709e-05
6.90587e-07
6.98449e-05
1.16431e-05
6.17148e-05
2.51073e-05
8.23748e-05
3.1672e-05
0.000111603
2.75274e-05
0.000106768
1.11737e-05
5.86361e-05
5.01333e-06
1.63449e-05
3.07414e-06
1.63874e-05
1.09678e-06
2.01806e-05
2.23396e-05
3.57571e-07
1.86077e-05
3.91328e-07
1.68234e-05
-4.936e-07
1.37883e-05
-2.05584e-06
8.46864e-06
-1.26712e-05
6.39024e-05
-1.99585e-05
0.000129007
-2.40792e-05
0.000139055
-2.17374e-05
0.000122931
-1.39721e-05
9.85259e-05
-7.37884e-06
7.27387e-05
-3.16409e-06
5.72206e-05
-2.49405e-06
5.44543e-05
-2.21168e-06
5.86821e-05
-1.22889e-06
6.44719e-05
-1.0513e-06
7.59661e-05
-2.9019e-06
8.93926e-05
-6.13072e-06
0.000104127
-1.15129e-05
0.000109891
-1.14708e-05
0.00010159
-4.36394e-06
8.18278e-05
4.69996e-06
6.32906e-05
8.27542e-06
5.86944e-05
1.80952e-05
7.44402e-05
3.15069e-05
0.00010166
3.45878e-05
0.000106698
2.22021e-05
7.34871e-05
1.11183e-05
2.95145e-05
6.61975e-06
2.07407e-05
2.5886e-06
2.31018e-05
2.431e-05
-1.66814e-06
1.88747e-05
-3.92463e-06
1.7621e-05
-6.84658e-06
1.5481e-05
-1.00006e-05
1.41621e-05
-1.70075e-05
7.31081e-05
-2.10486e-05
0.000133424
-2.25562e-05
0.000139703
-1.57824e-05
0.000118206
-3.13646e-06
8.989e-05
5.23199e-06
6.70658e-05
5.54725e-06
5.76896e-05
3.29315e-06
5.69959e-05
1.32648e-06
6.09807e-05
-5.85709e-07
6.66187e-05
-2.24334e-06
7.81675e-05
-6.80252e-06
9.42511e-05
-1.02445e-05
0.000108556
-1.01437e-05
0.000111846
-3.34809e-06
9.81811e-05
4.51827e-06
7.6916e-05
6.96605e-06
6.20318e-05
6.25305e-06
5.96275e-05
1.20706e-05
6.98566e-05
2.73626e-05
8.99686e-05
3.68062e-05
0.000101333
2.97025e-05
8.46765e-05
1.52715e-05
4.73273e-05
8.64881e-06
2.79516e-05
3.54799e-06
2.72069e-05
2.73716e-05
-2.99712e-06
2.09243e-05
-6.95662e-06
2.04535e-05
-1.11437e-05
1.89295e-05
-1.51006e-05
2.17068e-05
-2.19741e-05
8.39003e-05
-2.21089e-05
0.000136944
-1.78534e-05
0.000137662
-4.34195e-06
0.000109295
9.17866e-06
8.00295e-05
1.29428e-05
6.4744e-05
1.08995e-05
5.98607e-05
7.61841e-06
6.01051e-05
4.75665e-06
6.37347e-05
1.14519e-06
7.00633e-05
-2.47099e-06
8.20476e-05
-8.00261e-06
9.99757e-05
-1.02364e-05
0.000111982
-4.9464e-06
0.000109144
5.1613e-06
9.14764e-05
1.08118e-05
7.37039e-05
8.72606e-06
6.47612e-05
4.81039e-06
6.36899e-05
7.04632e-06
6.88849e-05
2.04265e-05
8.02501e-05
3.40337e-05
9.16305e-05
3.50532e-05
8.79119e-05
1.88386e-05
6.55995e-05
9.33686e-06
3.94378e-05
3.82862e-06
3.22061e-05
3.09712e-05
-4.0992e-06
2.47541e-05
-9.8697e-06
2.58041e-05
-1.53331e-05
2.44148e-05
-2.16081e-05
3.42554e-05
-3.00498e-05
9.70742e-05
-2.37945e-05
0.000136862
-8.92134e-06
0.000128764
8.45361e-06
9.70518e-05
1.61765e-05
7.52054e-05
1.59154e-05
6.60337e-05
1.23646e-05
6.35482e-05
8.47335e-06
6.38487e-05
5.37295e-06
6.67299e-05
1.80279e-06
7.34742e-05
-2.70819e-06
8.6551e-05
-7.0528e-06
0.000104914
-5.91315e-06
0.000112463
3.76385e-06
0.000102773
1.33013e-05
8.54947e-05
1.52086e-05
7.42549e-05
1.07845e-05
7.03605e-05
5.32784e-06
6.995e-05
4.31168e-06
7.15013e-05
1.24839e-05
7.52272e-05
2.65594e-05
8.09346e-05
3.43567e-05
8.26491e-05
2.36492e-05
7.67196e-05
9.09251e-06
5.41557e-05
3.48081e-06
3.75537e-05
3.46449e-05
-4.12218e-06
2.93557e-05
-1.27555e-05
3.44515e-05
-1.94974e-05
3.24027e-05
-3.25977e-05
5.37885e-05
-3.57388e-05
0.000106758
-1.99455e-05
0.00012829
3.10059e-06
0.000113656
1.60358e-05
8.93897e-05
1.80839e-05
7.59329e-05
1.48943e-05
7.03501e-05
1.03992e-05
6.83438e-05
6.284e-06
6.79094e-05
3.19019e-06
6.9865e-05
5.62587e-07
7.63589e-05
-2.66121e-06
9.04591e-05
-3.71221e-06
0.000107499
2.55772e-06
0.000109104
1.36372e-05
9.62008e-05
1.94483e-05
8.40178e-05
1.78767e-05
7.89387e-05
1.25784e-05
7.73552e-05
7.2179e-06
7.66129e-05
4.15459e-06
7.61383e-05
6.19934e-06
7.56688e-05
1.5585e-05
7.47821e-05
2.58516e-05
7.28555e-05
2.68918e-05
7.39769e-05
1.46251e-05
6.442e-05
4.74415e-06
5.12614e-05
4.23565e-05
-4.2358e-06
3.87712e-05
-1.61494e-05
4.94488e-05
-2.58421e-05
4.75939e-05
-4.16473e-05
7.21433e-05
-3.2867e-05
0.000103723
-9.8693e-06
0.00011211
1.14917e-05
0.000100461
1.82782e-05
8.82883e-05
1.61694e-05
8.14647e-05
1.11351e-05
7.72023e-05
6.35563e-06
7.40416e-05
2.61301e-06
7.20228e-05
2.35365e-07
7.25901e-05
-8.0726e-07
7.83402e-05
-1.53271e-06
9.28118e-05
2.32286e-06
0.000106477
1.27955e-05
0.000103378
2.19933e-05
9.27014e-05
2.37536e-05
8.67717e-05
1.99383e-05
8.47772e-05
1.45667e-05
8.3677e-05
9.44761e-06
8.25526e-05
5.49043e-06
8.09207e-05
3.58479e-06
7.84918e-05
5.41745e-06
7.45718e-05
1.17098e-05
6.85798e-05
1.98394e-05
6.55412e-05
1.89226e-05
6.30599e-05
6.77534e-06
5.99367e-05
4.75784e-05
-3.1215e-06
4.22391e-05
-9.80064e-06
5.36193e-05
-2.24973e-05
6.07307e-05
-3.17227e-05
8.1103e-05
-1.66495e-05
9.33314e-05
4.12454e-06
9.83664e-05
1.61878e-05
9.57603e-05
1.7211e-05
9.20852e-05
1.29301e-05
8.83618e-05
7.31405e-06
8.4455e-05
2.52829e-06
8.01852e-05
-7.46214e-07
7.65292e-05
-2.03904e-06
7.49595e-05
-1.16195e-06
7.88903e-05
1.23841e-06
9.22512e-05
1.00221e-05
0.000101441
2.157e-05
9.74843e-05
2.73654e-05
9.18659e-05
2.59458e-05
9.01443e-05
2.16572e-05
8.96205e-05
1.67379e-05
8.90136e-05
1.16212e-05
8.8039e-05
6.82396e-06
8.60562e-05
2.61534e-06
8.30541e-05
-4.48017e-07
7.81807e-05
-5.32242e-07
7.0032e-05
6.03134e-06
6.16934e-05
1.22e-05
5.56743e-05
8.16782e-06
5.78639e-05
5.3734e-05
-3.45275e-07
4.22799e-05
-1.59251e-06
5.32171e-05
-1.10437e-05
6.87719e-05
-1.18227e-05
8.14376e-05
8.65295e-07
8.48065e-05
1.24554e-05
9.22759e-05
1.66097e-05
9.48395e-05
1.47651e-05
9.54693e-05
1.0085e-05
9.41164e-05
4.47646e-06
9.10187e-05
-3.52995e-07
8.5843e-05
-3.24789e-06
8.03314e-05
-3.41072e-06
7.63585e-05
-5.97708e-07
7.74053e-05
5.51871e-06
8.7579e-05
1.67915e-05
9.3381e-05
2.62871e-05
9.20733e-05
2.86675e-05
9.1286e-05
2.64967e-05
9.26038e-05
2.30693e-05
9.32261e-05
1.90805e-05
9.319e-05
1.42307e-05
9.29145e-05
8.59396e-06
9.16886e-05
2.11273e-06
8.96333e-05
-4.65641e-06
8.55329e-05
-8.3726e-06
7.55573e-05
-8.1399e-06
6.44257e-05
-2.89341e-06
5.42792e-05
3.18657e-06
5.39798e-05
5.53752e-05
2.63256e-06
4.25435e-05
5.49868e-06
5.10113e-05
2.85577e-06
7.51587e-05
6.22223e-06
8.46129e-05
9.7967e-06
8.43865e-05
1.37882e-05
8.99031e-05
1.54407e-05
9.41195e-05
1.33943e-05
9.78872e-05
8.39531e-06
9.93762e-05
2.19505e-06
9.754e-05
-3.35254e-06
9.18601e-05
-5.45673e-06
8.33579e-05
-4.3829e-06
7.61636e-05
4.1418e-07
7.33677e-05
9.45261e-06
7.91088e-05
2.01764e-05
8.40264e-05
2.6772e-05
8.68385e-05
2.85831e-05
8.97942e-05
2.68696e-05
9.39002e-05
2.44431e-05
9.55984e-05
2.19639e-05
9.5775e-05
1.8353e-05
9.5873e-05
1.21854e-05
9.63496e-05
3.06622e-06
9.65294e-05
-8.81463e-06
9.46522e-05
-1.47376e-05
8.30195e-05
-1.63502e-05
6.94959e-05
-1.35321e-05
5.55414e-05
-4.1394e-06
4.97422e-05
5.19331e-05
5.85721e-06
4.6591e-05
5.52441e-06
5.97373e-05
1.74018e-06
8.09241e-05
6.74438e-06
8.18717e-05
8.60387e-06
8.31565e-05
1.20251e-05
8.69248e-05
1.4934e-05
9.21337e-05
1.40577e-05
9.87671e-05
8.28683e-06
0.000103973
7.06364e-07
0.000103834
-7.95382e-06
9.9559e-05
-9.44576e-06
8.67256e-05
-5.7773e-06
7.3907e-05
1.35547e-06
6.67401e-05
1.14258e-05
6.88121e-05
2.05735e-05
7.43753e-05
2.62626e-05
8.08548e-05
2.93026e-05
8.67845e-05
2.76684e-05
9.3963e-05
2.47234e-05
9.73141e-05
2.24528e-05
9.81705e-05
2.0748e-05
9.86385e-05
1.48391e-05
0.000102933
4.66049e-06
0.000105602
-7.9123e-06
0.000105279
-2.02948e-05
9.53537e-05
-2.46484e-05
7.20579e-05
-1.75605e-05
5.24927e-05
-9.16051e-06
4.34651e-05
4.38685e-05
1.20588e-05
4.0217e-05
1.41024e-06
7.18925e-05
-5.89638e-06
8.88709e-05
-7.20366e-07
8.07381e-05
4.30114e-06
8.00536e-05
1.04452e-05
8.38101e-05
1.42942e-05
9.1461e-05
1.45111e-05
0.000101533
9.23122e-06
0.000108732
8.52936e-07
0.000110518
-1.09537e-05
0.000109659
-1.88678e-05
9.34816e-05
-1.02593e-05
6.80962e-05
1.7037e-06
5.71088e-05
1.22605e-05
5.79909e-05
2.08536e-05
6.42238e-05
2.76022e-05
7.32269e-05
2.82841e-05
8.61131e-05
2.61178e-05
9.72909e-05
2.14233e-05
0.000100738
2.00223e-05
9.6234e-05
1.67742e-05
9.42397e-05
7.2435e-06
9.84558e-05
-6.33404e-06
0.000101978
-1.92512e-05
0.000100102
-3.10434e-05
8.76573e-05
-3.05419e-05
6.89842e-05
-2.29583e-05
4.47381e-05
-9.93662e-06
3.25229e-05
3.32342e-05
2.08725e-05
1.46463e-05
2.05155e-05
5.7693e-05
1.32092e-05
8.15774e-05
6.99443e-06
7.92109e-05
1.03247e-05
7.59585e-05
1.86331e-05
7.6147e-05
2.59672e-05
8.04388e-05
2.54777e-05
9.11056e-05
1.54746e-05
0.000104004
-6.91004e-07
0.000110377
-1.84615e-05
0.000110205
-2.82231e-05
9.19188e-05
-1.82289e-05
6.06553e-05
8.8706e-07
4.36327e-05
1.23637e-05
4.71092e-05
2.28298e-05
5.17509e-05
3.03686e-05
7.02139e-05
3.04841e-05
8.0982e-05
2.58116e-05
8.77659e-05
1.6331e-05
9.25101e-05
5.81423e-06
8.94349e-05
-5.93113e-06
8.99975e-05
-1.62411e-05
9.4781e-05
-2.4401e-05
9.76796e-05
-3.25566e-05
9.53438e-05
-4.46235e-05
8.27305e-05
-5.2946e-05
5.49288e-05
-3.02265e-05
2.24903e-05
-1.06457e-05
1.53844e-05
2.15109e-05
1.96255e-05
-6.46707e-06
3.85436e-05
3.21895e-05
4.78749e-05
6.13537e-05
4.61781e-05
6.82127e-05
4.66877e-05
6.35357e-05
5.02633e-05
5.97817e-05
5.27601e-05
6.365e-05
4.7253e-05
8.06251e-05
3.02681e-05
0.000104617
5.70997e-06
0.00011847
-1.80128e-05
0.000116875
-3.57937e-05
8.98456e-05
-2.76277e-05
4.52936e-05
-4.16576e-06
2.77435e-05
9.88595e-06
3.16715e-05
3.20586e-05
4.07032e-05
2.96438e-05
5.88705e-05
1.81661e-05
7.46335e-05
6.60311e-06
8.54707e-05
-2.41664e-06
9.19096e-05
-1.26146e-05
9.35185e-05
-2.17425e-05
9.49724e-05
-2.71432e-05
9.76584e-05
-2.98013e-05
9.84999e-05
-3.0904e-05
9.46549e-05
-3.32256e-05
8.20651e-05
-4.14232e-05
5.24243e-05
-3.41027e-05
8.86664e-06
-1.12785e-05
-3.01837e-06
8.98287e-06
9.29331e-06
-1.61487e-05
2.85601e-05
1.19534e-05
4.28169e-05
4.53166e-05
5.26492e-05
5.53531e-05
5.54792e-05
5.64318e-05
5.58569e-05
5.48971e-05
5.59761e-05
5.94946e-05
5.21116e-05
8.06616e-05
3.76285e-05
0.000115029
1.60494e-05
0.000136084
-2.99376e-06
0.000132003
-1.40982e-05
9.57538e-05
-1.75538e-05
4.18445e-05
-4.63626e-06
1.92967e-05
2.27068e-05
1.81107e-05
2.33561e-05
3.00138e-05
1.06847e-05
5.85539e-05
2.00389e-06
7.81696e-05
-3.98275e-06
8.93394e-05
-9.06156e-06
9.60236e-05
-1.53548e-05
9.92924e-05
-2.1666e-05
0.000100931
-2.60652e-05
0.000101738
-2.73874e-05
9.96776e-05
-2.46845e-05
9.22089e-05
-1.96548e-05
7.73558e-05
-1.87143e-05
4.94337e-05
-2.12326e-05
5.65916e-06
-7.09468e-06
-1.34342e-05
9.68908e-07
3.87237e-06
-2.05758e-05
1.59111e-05
-6.35047e-07
2.6486e-05
3.43063e-05
3.57722e-05
4.57955e-05
4.08636e-05
5.12736e-05
4.28216e-05
5.29689e-05
4.43172e-05
5.82216e-05
4.3567e-05
8.14368e-05
3.39081e-05
0.000124053
1.8433e-05
0.000151053
6.76535e-06
0.000143691
6.76947e-06
9.72824e-05
1.11725e-05
3.83816e-05
1.5761e-05
1.54149e-05
2.06214e-05
1.42731e-05
7.58493e-06
3.45405e-05
1.10826e-08
6.42455e-05
-4.09421e-06
8.22901e-05
-7.07181e-06
9.2661e-05
-1.04096e-05
9.95972e-05
-1.50997e-05
0.000103955
-1.98189e-05
0.000105567
-2.26067e-05
0.000104529
-2.17467e-05
9.91083e-05
-1.71219e-05
8.81967e-05
-1.10346e-05
7.18967e-05
-7.91683e-06
4.57687e-05
-8.97035e-06
4.97468e-06
-2.44868e-06
-1.76623e-05
-3.65826e-06
4.36473e-07
-2.11146e-05
6.4429e-06
-7.29666e-06
1.64979e-05
2.38283e-05
2.13517e-05
4.09832e-05
2.61064e-05
4.67113e-05
2.77454e-05
5.16512e-05
2.89085e-05
5.7587e-05
2.97443e-05
8.09829e-05
2.43373e-05
0.000129212
1.48518e-05
0.000160489
9.15059e-06
0.000150195
1.3551e-05
9.56511e-05
1.91962e-05
3.55479e-05
2.12207e-05
1.41475e-05
1.17984e-05
1.98281e-05
1.01761e-06
4.31127e-05
-4.46252e-06
6.96978e-05
-7.53837e-06
8.58327e-05
-9.54861e-06
9.53149e-05
-1.15583e-05
0.000102262
-1.42288e-05
0.000107168
-1.68299e-05
0.000108625
-1.75552e-05
0.000105825
-1.55053e-05
9.77898e-05
-1.15057e-05
8.49058e-05
-7.19767e-06
6.79628e-05
-4.04475e-06
4.23536e-05
-3.94243e-06
4.50767e-06
1.92866e-07
-1.93667e-05
-5.8555e-06
-1.01098e-06
-2.03955e-05
1.07172e-06
-9.75002e-06
9.35883e-06
1.53105e-05
1.35632e-05
3.68027e-05
1.61332e-05
4.43653e-05
1.67336e-05
5.11895e-05
1.59714e-05
5.8693e-05
1.5895e-05
8.14665e-05
1.36176e-05
0.000131554
9.79537e-06
0.000164761
8.93677e-06
0.00015243
1.38068e-05
9.35888e-05
1.55949e-05
3.61479e-05
1.38886e-05
1.64464e-05
6.24682e-06
2.57894e-05
-2.35455e-06
5.04063e-05
-6.76657e-06
7.42855e-05
-9.36965e-06
8.88459e-05
-1.08895e-05
9.74386e-05
-1.19346e-05
0.000104059
-1.28015e-05
0.000108874
-1.33354e-05
0.000109989
-1.25727e-05
0.000105909
-1.04297e-05
9.64226e-05
-7.82592e-06
8.28916e-05
-5.44727e-06
6.59035e-05
-3.62056e-06
4.02834e-05
-3.73574e-06
4.30706e-06
4.14453e-07
-2.04898e-05
-7.51671e-06
-2.25905e-06
-1.80736e-05
-3.20914e-06
-9.29905e-06
1.96158e-06
9.98583e-06
9.00551e-06
3.00283e-05
9.92684e-06
4.37234e-05
9.71923e-06
5.13954e-05
6.39597e-06
6.18938e-05
3.97014e-06
8.41206e-05
4.17543e-06
0.000132003
5.68737e-06
0.000164201
8.90366e-06
0.000150751
1.37813e-05
9.09935e-05
1.12862e-05
4.01926e-05
7.84953e-06
1.9979e-05
1.98067e-06
3.04903e-05
-4.68728e-06
5.64821e-05
-8.21326e-06
7.79833e-05
-1.01566e-05
9.11813e-05
-1.11611e-05
9.89847e-05
-1.14781e-05
0.00010507
-1.12261e-05
0.000109441
-1.04997e-05
0.000110125
-9.05916e-06
0.000105313
-7.20871e-06
9.53161e-05
-5.64015e-06
8.18691e-05
-4.4774e-06
6.49915e-05
-4.10194e-06
3.94728e-05
-5.22267e-06
4.68734e-06
-9.50693e-07
-2.11132e-05
-9.17795e-06
-3.59735e-06
-1.46338e-05
-5.62326e-06
-7.6425e-06
-2.32941e-06
6.45114e-06
4.43142e-06
2.33841e-05
5.70693e-06
4.23732e-05
4.11468e-06
5.23769e-05
-7.46931e-07
6.61283e-05
-5.25257e-06
8.85028e-05
-3.5531e-06
0.000131301
1.95947e-06
0.000160015
7.558e-06
0.000146634
1.18495e-05
8.86209e-05
7.75513e-06
4.56481e-05
3.16084e-06
2.46277e-05
-3.518e-06
3.60689e-05
-7.24436e-06
5.99518e-05
-9.18977e-06
8.02031e-05
-1.01067e-05
9.25491e-05
-1.03686e-05
9.98057e-05
-1.00944e-05
0.000105443
-9.26272e-06
0.000109338
-7.94881e-06
0.000109587
-6.27969e-06
0.000104397
-4.65304e-06
9.43443e-05
-3.5188e-06
8.12282e-05
-2.86455e-06
6.45711e-05
-3.48504e-06
3.97135e-05
-5.79549e-06
5.69572e-06
-3.09445e-06
-1.99238e-05
-9.93525e-06
-4.76463e-06
-9.93471e-06
-7.38923e-06
-5.28892e-06
-5.73801e-06
4.54959e-06
-1.48102e-06
1.88561e-05
1.26974e-07
4.00125e-05
-2.02475e-06
5.33928e-05
-6.89899e-06
7.00991e-05
-1.21553e-05
9.32683e-05
-1.00585e-05
0.000129949
-2.20525e-06
0.000153458
4.78777e-06
0.000140816
8.15745e-06
8.64724e-05
5.29295e-06
4.90917e-05
9.3576e-07
2.88665e-05
-6.12317e-06
4.2533e-05
-8.44711e-06
6.23242e-05
-9.34227e-06
8.14269e-05
-9.42539e-06
9.31235e-05
-9.0317e-06
9.99926e-05
-8.26709e-06
0.000105317
-7.07671e-06
0.000108841
-5.45032e-06
0.000108703
-3.63555e-06
0.000103306
-1.92793e-06
9.32973e-05
-5.25836e-07
8.03555e-05
8.09096e-07
6.35571e-05
-1.13861e-06
4.13815e-05
-3.12721e-06
6.25332e-06
-4.88297e-06
-1.48602e-05
-8.3505e-06
-6.02595e-06
-3.96029e-06
-8.96628e-06
-2.39473e-06
-9.36918e-06
4.48963e-06
-8.11844e-06
1.67289e-05
-7.11929e-06
3.75628e-05
-8.46305e-06
5.32997e-05
-1.31314e-05
7.37018e-05
-1.77764e-05
9.73176e-05
-1.51823e-05
0.000127643
-6.18417e-06
0.000145391
2.18559e-06
0.000133401
5.46141e-06
8.40735e-05
2.6426e-06
5.22134e-05
-2.37767e-06
3.36147e-05
-6.78491e-06
4.66504e-05
-8.40946e-06
6.40919e-05
-8.71166e-06
8.21199e-05
-8.24216e-06
9.31862e-05
-7.32691e-06
9.96941e-05
-6.13847e-06
0.000104787
-4.63035e-06
0.000108038
-2.77661e-06
0.000107604
-8.19331e-07
0.00010209
9.65303e-07
9.22033e-05
2.42165e-06
7.94816e-05
3.66275e-06
6.2733e-05
3.80921e-06
4.12895e-05
3.74742e-06
5.51915e-06
-7.04107e-07
-9.02948e-06
-4.74051e-06
-7.3395e-06
3.59627e-06
-1.19057e-05
2.51887e-06
-1.58713e-05
7.86211e-06
-1.79084e-05
1.75438e-05
-1.62998e-05
3.43985e-05
-1.57294e-05
5.12683e-05
-1.86524e-05
7.53048e-05
-2.17085e-05
9.94774e-05
-1.83569e-05
0.000124185
-8.70954e-06
0.000136319
1.12133e-06
0.000124575
4.45706e-06
8.15095e-05
1.36789e-06
5.53512e-05
-3.8678e-06
3.84317e-05
-6.9979e-06
4.95986e-05
-8.03507e-06
6.53099e-05
-7.77754e-06
8.22663e-05
-6.82544e-06
9.27786e-05
-5.42226e-06
9.89252e-05
-3.79212e-06
0.000103835
-1.90782e-06
0.000106895
1.82276e-07
0.000106308
2.39707e-06
0.000100671
4.40915e-06
9.09595e-05
5.91491e-06
7.86725e-05
5.57063e-06
6.36317e-05
9.50589e-06
3.78172e-05
9.44837e-06
5.86246e-06
4.81375e-06
-4.85788e-06
-4.51192e-07
-9.19232e-06
1.35694e-05
-1.79787e-05
1.23385e-05
-2.7522e-05
1.78101e-05
-3.22516e-05
2.26411e-05
-2.69673e-05
2.96634e-05
-2.20742e-05
4.63684e-05
-2.21856e-05
7.45549e-05
-2.40193e-05
0.000100504
-1.92773e-05
0.000119234
-8.59617e-06
0.000125985
2.23634e-06
0.000114873
4.90347e-06
7.9423e-05
1.5883e-06
5.83571e-05
-3.60297e-06
4.30653e-05
-6.2696e-06
5.19564e-05
-7.29024e-06
6.64889e-05
-6.55674e-06
8.19354e-05
-5.21261e-06
9.19749e-05
-3.30259e-06
9.76502e-05
-1.16934e-06
0.000102398
1.16482e-06
0.000105345
3.44972e-06
0.000104872
5.99697e-06
9.90074e-05
8.10037e-06
8.97531e-05
7.89651e-06
7.97513e-05
9.39963e-06
6.29292e-05
1.32875e-05
3.47393e-05
1.13296e-05
8.84414e-06
5.7847e-06
4.83829e-07
4.12484e-06
-1.13635e-05
2.66719e-05
-2.4202e-05
2.61833e-05
-3.64348e-05
3.0923e-05
-4.24582e-05
3.10337e-05
-3.62634e-05
2.77428e-05
-2.45501e-05
3.85583e-05
-2.17935e-05
7.264e-05
-2.3049e-05
0.000101632
-1.76606e-05
0.000114569
-6.36626e-06
0.00011605
3.98212e-06
0.000106221
5.14427e-06
7.91106e-05
2.26985e-06
6.11836e-05
-2.24837e-06
4.67924e-05
-3.86718e-06
5.29855e-05
-6.18352e-06
6.88692e-05
-4.96816e-06
8.11071e-05
-3.47328e-06
9.10397e-05
-9.21474e-07
9.57684e-05
1.8483e-06
0.000100387
4.7299e-06
0.000103329
6.86927e-06
0.000103686
9.49285e-06
9.74038e-05
9.57192e-06
9.07577e-05
1.08824e-05
7.95755e-05
1.54404e-05
5.95518e-05
1.66597e-05
3.47852e-05
1.23133e-05
1.47617e-05
5.81785e-06
7.35953e-06
9.40199e-06
-1.12504e-05
3.83629e-05
-2.1418e-05
3.60952e-05
-2.94168e-05
3.81925e-05
-3.32821e-05
3.52009e-05
-3.19009e-05
3.03383e-05
-2.29362e-05
3.75728e-05
-1.99897e-05
7.46612e-05
-2.0694e-05
0.000103914
-1.52265e-05
0.000111292
-3.27677e-06
0.000107004
6.51126e-06
9.90627e-05
4.80005e-06
8.21902e-05
2.31554e-06
6.41121e-05
-1.40482e-06
5.04831e-05
-2.05819e-06
5.36476e-05
-2.74649e-06
6.99459e-05
-2.2007e-06
8.12077e-05
-1.56025e-06
9.11677e-05
1.86909e-06
9.31444e-05
5.35662e-06
9.7791e-05
9.09036e-06
0.000100622
9.77508e-06
0.000104196
1.09717e-05
9.74345e-05
1.26172e-05
9.04944e-05
1.77707e-05
7.59934e-05
2.16053e-05
5.73848e-05
2.02952e-05
3.77339e-05
1.4094e-05
2.27347e-05
6.26506e-06
1.60688e-05
1.58936e-05
-7.73954e-06
4.60166e-05
-1.49607e-05
4.35763e-05
-2.06096e-05
4.42862e-05
-2.53759e-05
4.03396e-05
-2.97439e-05
3.53601e-05
-3.031e-05
4.35442e-05
-2.49697e-05
7.7589e-05
-2.04925e-05
0.000103812
-1.29247e-05
0.000107018
-1.00389e-06
9.8863e-05
8.28871e-06
9.29079e-05
8.28981e-06
8.37988e-05
5.46463e-06
6.77224e-05
7.06058e-07
5.6068e-05
-1.82341e-06
5.70562e-05
-6.07115e-07
7.00159e-05
7.97173e-07
8.14011e-05
3.05759e-06
9.04633e-05
5.41622e-06
9.2125e-05
8.22785e-06
9.63547e-05
1.10812e-05
9.91752e-05
1.35327e-05
0.000103383
1.52719e-05
9.74101e-05
2.022e-05
8.75087e-05
2.50283e-05
7.3402e-05
2.68322e-05
5.77909e-05
2.35168e-05
4.30568e-05
1.59432e-05
3.20328e-05
6.79197e-06
2.59316e-05
2.3076e-05
-4.54892e-06
5.17613e-05
-1.10162e-05
5.0586e-05
-1.58409e-05
4.98631e-05
-2.22721e-05
4.70932e-05
-3.19384e-05
4.64253e-05
-4.21812e-05
5.78659e-05
-3.62786e-05
8.00488e-05
-2.26892e-05
9.79857e-05
-1.01363e-05
9.96796e-05
1.36918e-06
9.21646e-05
9.43081e-06
8.90824e-05
1.25218e-05
8.37755e-05
9.1756e-06
7.29322e-05
2.38797e-06
6.3982e-05
-3.11356e-06
6.35293e-05
-3.64825e-06
7.22871e-05
-8.81239e-07
8.09347e-05
4.23911e-06
8.78847e-05
6.97421e-06
9.18186e-05
1.01184e-05
9.56863e-05
1.29615e-05
9.87259e-05
1.85753e-05
0.000100296
2.31553e-05
9.55217e-05
2.76284e-05
8.59481e-05
3.06634e-05
7.33643e-05
3.03713e-05
6.07836e-05
2.54742e-05
5.00545e-05
1.69016e-05
4.18771e-05
7.00281e-06
3.61986e-05
3.05537e-05
-4.89061e-06
5.67737e-05
-9.3137e-06
5.51481e-05
-1.35838e-05
5.44345e-05
-2.13137e-05
5.51972e-05
-3.40402e-05
6.02733e-05
-4.33485e-05
7.0892e-05
-3.66867e-05
8.21757e-05
-2.00163e-05
9.22775e-05
-6.45154e-06
9.50122e-05
2.21488e-06
9.03497e-05
8.70651e-06
8.87909e-05
1.15035e-05
8.61593e-05
8.37388e-06
7.94992e-05
1.15367e-06
7.30831e-05
-5.61029e-06
7.17669e-05
-7.43086e-06
7.65026e-05
-5.37191e-06
8.1929e-05
-9.17104e-07
8.6841e-05
3.58005e-06
9.07985e-05
8.66895e-06
9.42356e-05
1.45194e-05
9.67289e-05
2.16588e-05
9.72466e-05
2.7696e-05
9.35888e-05
3.17347e-05
8.59622e-05
3.32251e-05
7.55763e-05
3.13752e-05
6.54509e-05
2.55214e-05
5.74103e-05
1.68855e-05
5.1104e-05
7.13782e-06
4.59471e-05
3.80415e-05
-5.04359e-06
6.09585e-05
-7.77071e-06
5.76027e-05
-1.15807e-05
5.81008e-05
-1.83699e-05
6.17982e-05
-2.70844e-05
6.8253e-05
-2.95699e-05
7.54763e-05
-2.40057e-05
8.37218e-05
-1.31417e-05
9.2857e-05
-4.07506e-06
9.75114e-05
1.7221e-07
9.55222e-05
3.30819e-06
9.41543e-05
4.86356e-06
9.19437e-05
2.51756e-06
8.7133e-05
-3.28415e-06
8.22409e-05
-9.06234e-06
8.02708e-05
-1.0965e-05
8.18481e-05
-9.47877e-06
8.45231e-05
-5.78248e-06
8.75572e-05