/*--------------------------------*- C++ -*----------------------------------*\
| =========                 |                                                 |
| \\      /  F ield         | OpenFOAM: The Open Source CFD Toolbox           |
|  \\    /   O peration     | Version:  v1606+                                |
|   \\  /    A nd           | Web:      www.OpenFOAM.com                      |
|    \\/     M anipulation  |                                                 |
\*---------------------------------------------------------------------------*/
FoamFile
{
    version     2.0;
    format      ascii;
    class       volVectorField;
    location    "0.89";
    object      U.air;
}
// * * * * * * * * * * * * * * * * * * * * * * * * * * * * * * * * * * * * * //

dimensions      [0 1 -1 0 0 0 0];

internalField   nonuniform List<vector> 
6000
(
(-0.0256913 0.227147 0)
(0.00832491 0.189463 0)
(0.061198 0.218245 0)
(0.0611945 0.222143 0)
(0.0111971 0.212895 0)
(-0.0597666 0.210981 0)
(-0.0923649 0.19767 0)
(-0.107957 0.183116 0)
(-0.0834355 0.176486 0)
(-0.0248436 0.177017 0)
(0.0218479 0.164907 0)
(0.0589448 0.173566 0)
(0.0791527 0.20053 0)
(0.0860757 0.224866 0)
(0.0799931 0.245438 0)
(0.0628554 0.243579 0)
(0.0493667 0.225681 0)
(0.0398168 0.205128 0)
(0.0376186 0.177501 0)
(0.0581616 0.164619 0)
(0.091404 0.172978 0)
(0.134861 0.180582 0)
(0.165992 0.187033 0)
(0.169688 0.207262 0)
(0.140002 0.222121 0)
(0.0678492 0.211645 0)
(-0.00304087 0.226118 0)
(-0.0295072 0.216918 0)
(0.0103369 0.18191 0)
(0.0363026 0.228184 0)
(0.0521114 0.944615 0)
(0.116637 0.865126 0)
(0.200235 0.936102 0)
(0.218767 1.01635 0)
(0.172401 1.11332 0)
(0.0790277 1.1108 0)
(-0.0338211 1.089 0)
(-0.108891 1.07089 0)
(-0.0847318 0.947498 0)
(0.0117167 0.961378 0)
(0.092487 1.00088 0)
(0.144091 1.05292 0)
(0.163271 1.10473 0)
(0.147455 1.1384 0)
(0.109697 1.17047 0)
(0.0599449 1.17336 0)
(0.0144588 1.15569 0)
(-0.0159745 1.13589 0)
(-0.0188853 1.09086 0)
(0.00429031 1.03039 0)
(0.0630563 0.992981 0)
(0.151444 0.966043 0)
(0.194446 1.03738 0)
(0.136998 1.08835 0)
(0.0202149 1.11514 0)
(-0.0906944 1.13033 0)
(-0.159895 1.06455 0)
(-0.166569 0.96226 0)
(-0.107798 0.880909 0)
(-0.052801 0.952125 0)
(0.0642098 0.615649 0)
(0.152341 0.537403 0)
(0.257703 0.625627 0)
(0.288046 0.780822 0)
(0.260098 0.89064 0)
(0.20483 0.960104 0)
(0.0734586 0.940882 0)
(-0.0256943 0.814493 0)
(-0.00212404 0.629446 0)
(0.0849942 0.627914 0)
(0.178002 0.675715 0)
(0.258794 0.751787 0)
(0.28187 0.852845 0)
(0.225195 0.901645 0)
(0.138925 0.931571 0)
(0.0540552 0.93167 0)
(-0.0361496 0.918236 0)
(-0.114163 0.886869 0)
(-0.127916 0.817152 0)
(-0.0888001 0.734093 0)
(-0.0141482 0.664058 0)
(0.0906528 0.638822 0)
(0.138507 0.768263 0)
(0.0399256 0.942358 0)
(-0.118941 0.989965 0)
(-0.201087 0.929494 0)
(-0.242908 0.842667 0)
(-0.225938 0.669632 0)
(-0.13892 0.563044 0)
(-0.0599043 0.630854 0)
(0.0646164 0.557563 0)
(0.146239 0.473624 0)
(0.240606 0.579808 0)
(0.307348 0.803535 0)
(0.306721 0.908223 0)
(0.297835 0.989257 0)
(0.263865 1.06447 0)
(0.199335 0.90349 0)
(0.164731 0.672518 0)
(0.205246 0.65666 0)
(0.288636 0.729852 0)
(0.312519 0.796863 0)
(0.280144 0.892146 0)
(0.229162 0.962748 0)
(0.175836 0.98903 0)
(0.122738 0.989199 0)
(0.0497803 1.00206 0)
(-0.0389768 0.952636 0)
(-0.134902 0.885578 0)
(-0.180884 0.805719 0)
(-0.123332 0.705755 0)
(-0.0499299 0.650171 0)
(-0.064024 0.858071 0)
(-0.172784 1.09798 0)
(-0.241289 1.03403 0)
(-0.263332 0.955715 0)
(-0.276734 0.859657 0)
(-0.224374 0.639602 0)
(-0.12618 0.503323 0)
(-0.0550161 0.580148 0)
(0.0442219 0.451423 0)
(0.101658 0.37359 0)
(0.175601 0.463376 0)
(0.279006 0.703577 0)
(0.345636 0.883021 0)
(0.332232 0.964136 0)
(0.348742 1.02191 0)
(0.37019 0.899565 0)
(0.35094 0.68186 0)
(0.319403 0.584907 0)
(0.305277 0.625883 0)
(0.274997 0.739603 0)
(0.239269 0.864296 0)
(0.234147 0.920506 0)
(0.252336 0.931725 0)
(0.262958 0.954404 0)
(0.245624 1.00008 0)
(0.179534 0.998598 0)
(0.0450441 0.933433 0)
(-0.0924729 0.756795 0)
(-0.161405 0.621134 0)
(-0.208809 0.629501 0)
(-0.269184 0.896749 0)
(-0.290833 1.08041 0)
(-0.284613 1.02056 0)
(-0.31767 0.946734 0)
(-0.291307 0.790467 0)
(-0.189192 0.518569 0)
(-0.0926745 0.387056 0)
(-0.0402054 0.496555 0)
(0.02697 0.41604 0)
(0.0427222 0.35746 0)
(0.0629621 0.405098 0)
(0.150657 0.589349 0)
(0.28433 0.829358 0)
(0.332656 0.949567 0)
(0.356246 0.975648 0)
(0.43049 0.841224 0)
(0.471042 0.690098 0)
(0.429652 0.617336 0)
(0.33061 0.66298 0)
(0.231848 0.749642 0)
(0.199649 0.780467 0)
(0.238326 0.787518 0)
(0.304145 0.79908 0)
(0.365111 0.845798 0)
(0.396095 0.916344 0)
(0.374737 0.987619 0)
(0.288049 1.0247 0)
(0.109092 0.920516 0)
(-0.122526 0.715983 0)
(-0.307035 0.708019 0)
(-0.372 0.890384 0)
(-0.324243 1.04246 0)
(-0.305982 1.01312 0)
(-0.30946 0.937298 0)
(-0.202653 0.684634 0)
(-0.0922818 0.432586 0)
(-0.05139 0.35553 0)
(-0.0336637 0.454303 0)
(0.00958184 0.412789 0)
(-0.00741148 0.383686 0)
(-0.0298189 0.402504 0)
(-0.00377345 0.499762 0)
(0.117722 0.695927 0)
(0.24362 0.909603 0)
(0.292878 0.924356 0)
(0.352896 0.770639 0)
(0.386164 0.654149 0)
(0.368054 0.649118 0)
(0.290176 0.702243 0)
(0.204787 0.716078 0)
(0.200932 0.70193 0)
(0.249668 0.688926 0)
(0.323015 0.698708 0)
(0.397474 0.759053 0)
(0.445991 0.870062 0)
(0.422898 0.982449 0)
(0.349868 1.03272 0)
(0.233903 1.0188 0)
(-0.00368505 0.94051 0)
(-0.228645 0.82032 0)
(-0.311933 0.863947 0)
(-0.289795 1 0)
(-0.273231 1.00286 0)
(-0.195092 0.842206 0)
(-0.0493333 0.563621 0)
(-4.48136e-05 0.410177 0)
(-0.0081006 0.375563 0)
(-0.0232584 0.434552 0)
(-0.00560453 0.424461 0)
(-0.0414943 0.42951 0)
(-0.089164 0.442722 0)
(-0.109837 0.491193 0)
(-0.0562065 0.594082 0)
(0.0663211 0.82129 0)
(0.152658 0.888348 0)
(0.164708 0.737475 0)
(0.16335 0.63269 0)
(0.161009 0.649344 0)
(0.179783 0.705518 0)
(0.184671 0.724962 0)
(0.204155 0.680084 0)
(0.256651 0.6343 0)
(0.318562 0.632995 0)
(0.380331 0.694277 0)
(0.434864 0.839895 0)
(0.428188 1.03555 0)
(0.342684 1.10854 0)
(0.234652 1.10267 0)
(0.116189 1.0757 0)
(-0.0282837 0.93112 0)
(-0.129961 0.885075 0)
(-0.173431 0.982244 0)
(-0.140054 0.952175 0)
(-0.00729665 0.714975 0)
(0.0714508 0.520624 0)
(0.0743087 0.443541 0)
(0.0284679 0.419067 0)
(-0.005806 0.42829 0)
(-0.0131513 0.455871 0)
(-0.0593948 0.487498 0)
(-0.119032 0.502665 0)
(-0.167199 0.529257 0)
(-0.164343 0.572881 0)
(-0.088466 0.752682 0)
(-0.00203938 0.877343 0)
(0.00473174 0.757529 0)
(-0.00905832 0.656405 0)
(0.019102 0.620935 0)
(0.0625838 0.703094 0)
(0.113274 0.726082 0)
(0.170214 0.632269 0)
(0.242523 0.573995 0)
(0.297269 0.590442 0)
(0.336642 0.644546 0)
(0.372086 0.801964 0)
(0.379624 1.0648 0)
(0.297295 1.1794 0)
(0.218143 1.1777 0)
(0.203799 1.14869 0)
(0.176422 1.01726 0)
(0.0908044 0.965702 0)
(0.0112672 1.00037 0)
(0.0501682 0.891934 0)
(0.129405 0.65409 0)
(0.164732 0.54697 0)
(0.12414 0.50467 0)
(0.0595232 0.470674 0)
(0.0116766 0.442626 0)
(-0.00844837 0.496198 0)
(-0.0600841 0.55841 0)
(-0.1295 0.56492 0)
(-0.189244 0.58479 0)
(-0.213171 0.586079 0)
(-0.181937 0.723377 0)
(-0.102554 0.864765 0)
(-0.0478261 0.763518 0)
(-0.0123507 0.648748 0)
(0.010631 0.602156 0)
(0.0666726 0.641192 0)
(0.135055 0.700137 0)
(0.172246 0.627296 0)
(0.166068 0.548989 0)
(0.23444 0.548633 0)
(0.275853 0.613 0)
(0.289308 0.784824 0)
(0.282524 1.08176 0)
(0.235032 1.24182 0)
(0.223838 1.21608 0)
(0.283906 1.09128 0)
(0.345931 1.04869 0)
(0.307437 1.05981 0)
(0.232036 1.05739 0)
(0.219571 0.89245 0)
(0.233906 0.659222 0)
(0.229305 0.600467 0)
(0.164468 0.578208 0)
(0.0842837 0.542841 0)
(0.0208944 0.486124 0)
(0.00942729 0.524301 0)
(-0.0449473 0.684763 0)
(-0.135242 0.628789 0)
(-0.193085 0.644394 0)
(-0.230222 0.608467 0)
(-0.219721 0.706212 0)
(-0.128398 0.800286 0)
(-0.0407596 0.718801 0)
(-0.00676004 0.640749 0)
(0.00856145 0.610065 0)
(0.042126 0.646743 0)
(0.100512 0.707196 0)
(0.147796 0.676624 0)
(0.176145 0.600669 0)
(0.161576 0.597007 0)
(0.159257 0.6036 0)
(0.185467 0.78008 0)
(0.173112 1.10081 0)
(0.184839 1.26625 0)
(0.249437 1.16065 0)
(0.350837 1.03174 0)
(0.427078 1.04427 0)
(0.444407 1.11643 0)
(0.421973 1.13702 0)
(0.375741 0.960149 0)
(0.331782 0.711252 0)
(0.292786 0.667171 0)
(0.21398 0.662298 0)
(0.102583 0.644383 0)
(0.016349 0.548993 0)
(-0.00210299 0.516556 0)
(-0.000670905 0.729038 0)
(-0.0999566 0.690703 0)
(-0.168003 0.729578 0)
(-0.227565 0.648833 0)
(-0.217996 0.66876 0)
(-0.138941 0.722704 0)
(-0.0750772 0.680343 0)
(-0.0365544 0.625581 0)
(0.00705876 0.592878 0)
(0.0608432 0.623917 0)
(0.101756 0.713081 0)
(0.139164 0.702051 0)
(0.152321 0.669347 0)
(0.139902 0.676209 0)
(0.125704 0.700451 0)
(0.0385115 0.871013 0)
(0.062747 1.15496 0)
(0.153528 1.255 0)
(0.265683 1.13206 0)
(0.342724 1.01897 0)
(0.40015 1.03254 0)
(0.459517 1.12119 0)
(0.512222 1.18644 0)
(0.493785 1.05152 0)
(0.42313 0.794946 0)
(0.356972 0.742933 0)
(0.272701 0.761298 0)
(0.112088 0.813577 0)
(0.00625913 0.597836 0)
(0.00303392 0.470874 0)
(0.0167651 0.735337 0)
(-0.0122021 0.715163 0)
(-0.112809 0.733019 0)
(-0.199332 0.650655 0)
(-0.249501 0.612649 0)
(-0.180951 0.648212 0)
(-0.0987948 0.622614 0)
(-0.0130973 0.574316 0)
(0.0773236 0.552162 0)
(0.115528 0.620999 0)
(0.149765 0.724326 0)
(0.18487 0.733369 0)
(0.182419 0.738621 0)
(0.136843 0.782739 0)
(0.0800677 0.843741 0)
(0.0581135 0.968091 0)
(0.094537 1.18771 0)
(0.218015 1.23175 0)
(0.321436 1.15169 0)
(0.353207 1.06501 0)
(0.357625 1.06231 0)
(0.387805 1.11798 0)
(0.459675 1.17546 0)
(0.520859 1.10836 0)
(0.472827 0.89914 0)
(0.381892 0.850008 0)
(0.270085 0.895483 0)
(0.0755366 0.937668 0)
(0.0481765 0.63817 0)
(-0.00798553 0.4759 0)
(0.0128414 0.680277 0)
(0.0304415 0.77145 0)
(-0.0430972 0.810369 0)
(-0.163247 0.737443 0)
(-0.230944 0.568486 0)
(-0.154488 0.559049 0)
(-0.018821 0.529081 0)
(0.102367 0.496002 0)
(0.153558 0.537502 0)
(0.168369 0.644494 0)
(0.197533 0.737437 0)
(0.231305 0.758324 0)
(0.224207 0.797032 0)
(0.175916 0.874907 0)
(0.10233 0.973289 0)
(0.0495667 1.11164 0)
(0.096215 1.27554 0)
(0.211915 1.30193 0)
(0.287231 1.24737 0)
(0.295836 1.17222 0)
(0.281645 1.14095 0)
(0.29582 1.14165 0)
(0.351227 1.15393 0)
(0.434789 1.10806 0)
(0.423061 0.97938 0)
(0.29581 0.928977 0)
(0.146929 1.01321 0)
(0.0579912 0.987896 0)
(0.032038 0.651393 0)
(-0.0256061 0.512404 0)
(-0.0358575 0.629979 0)
(0.00599413 0.76998 0)
(-0.0227561 0.861398 0)
(-0.0689748 0.789661 0)
(-0.06753 0.539227 0)
(0.0265527 0.453599 0)
(0.135211 0.441293 0)
(0.18157 0.483254 0)
(0.192024 0.556538 0)
(0.197307 0.669984 0)
(0.237662 0.739097 0)
(0.27235 0.782868 0)
(0.268952 0.853111 0)
(0.23049 0.954377 0)
(0.173785 1.07032 0)
(0.122651 1.20244 0)
(0.121647 1.33412 0)
(0.160908 1.36571 0)
(0.186586 1.32124 0)
(0.183825 1.25046 0)
(0.173758 1.19628 0)
(0.188165 1.16102 0)
(0.241299 1.13714 0)
(0.320607 1.07062 0)
(0.344494 1.05325 0)
(0.180306 1.08341 0)
(0.066572 1.11542 0)
(0.0285782 0.973729 0)
(0.0237028 0.691757 0)
(-0.0405868 0.601622 0)
(-0.0939963 0.655239 0)
(-0.0813222 0.767798 0)
(-0.0492329 0.900925 0)
(0.0371824 0.789167 0)
(0.130279 0.507272 0)
(0.189396 0.424268 0)
(0.20433 0.454114 0)
(0.202948 0.499277 0)
(0.199698 0.574043 0)
(0.225617 0.674201 0)
(0.274516 0.734849 0)
(0.308951 0.800855 0)
(0.310659 0.894255 0)
(0.286028 1.01113 0)
(0.245219 1.13684 0)
(0.193599 1.2641 0)
(0.147031 1.36491 0)
(0.112677 1.39368 0)
(0.0871829 1.35365 0)
(0.0679648 1.2884 0)
(0.0554025 1.22454 0)
(0.0596778 1.16532 0)
(0.0882444 1.1075 0)
(0.128197 1.0393 0)
(0.197859 1.11135 0)
(0.0717542 1.21113 0)
(0.0362334 1.20434 0)
(0.0327855 0.937161 0)
(0.0276946 0.746997 0)
(-0.0389684 0.699622 0)
(-0.114805 0.734636 0)
(-0.146577 0.803525 0)
(-0.0690183 0.899771 0)
(0.0928353 0.702503 0)
(0.210774 0.519607 0)
(0.216013 0.470042 0)
(0.199263 0.475303 0)
(0.19364 0.509738 0)
(0.203453 0.575985 0)
(0.248125 0.657417 0)
(0.3022 0.719678 0)
(0.337083 0.801332 0)
(0.347594 0.913164 0)
(0.338268 1.04336 0)
(0.307011 1.18202 0)
(0.240836 1.3209 0)
(0.149165 1.40526 0)
(0.0600148 1.42401 0)
(-0.000756472 1.37187 0)
(-0.0298164 1.30619 0)
(-0.045308 1.24221 0)
(-0.0572993 1.18253 0)
(-0.068381 1.11742 0)
(-0.0758976 1.04845 0)
(0.0181294 1.13055 0)
(-0.00243064 1.29314 0)
(0.0519112 1.21547 0)
(0.0835021 0.941488 0)
(0.0376393 0.823236 0)
(-0.0189241 0.765938 0)
(-0.074331 0.821976 0)
(-0.114412 0.842542 0)
(-0.0371432 0.865664 0)
(0.0858099 0.672946 0)
(0.157935 0.541305 0)
(0.167908 0.486575 0)
(0.167394 0.480849 0)
(0.174462 0.506666 0)
(0.203106 0.560514 0)
(0.256895 0.623884 0)
(0.314516 0.687754 0)
(0.358637 0.783487 0)
(0.384555 0.909711 0)
(0.388942 1.05361 0)
(0.356541 1.21359 0)
(0.25117 1.38518 0)
(0.110998 1.44062 0)
(0.00511264 1.44082 0)
(-0.0635877 1.37421 0)
(-0.0963737 1.30512 0)
(-0.108456 1.25138 0)
(-0.125916 1.21414 0)
(-0.15691 1.16794 0)
(-0.190753 1.11218 0)
(-0.14573 1.12089 0)
(-0.0143183 1.34667 0)
(0.084443 1.17539 0)
(0.115197 0.986932 0)
(0.0382945 0.899577 0)
(0.00854211 0.775699 0)
(-0.00308719 0.901375 0)
(-0.033594 0.859962 0)
(-0.00898552 0.839761 0)
(0.03321 0.639335 0)
(0.081546 0.519301 0)
(0.111468 0.475792 0)
(0.128634 0.470989 0)
(0.149989 0.489697 0)
(0.190839 0.526922 0)
(0.251466 0.573463 0)
(0.317576 0.639115 0)
(0.377202 0.7463 0)
(0.418152 0.888524 0)
(0.425995 1.05082 0)
(0.369892 1.25179 0)
(0.207146 1.4964 0)
(0.0233265 1.48882 0)
(-0.045161 1.4445 0)
(-0.0742376 1.36761 0)
(-0.0925164 1.28599 0)
(-0.101197 1.25072 0)
(-0.135087 1.25967 0)
(-0.190812 1.2344 0)
(-0.236703 1.18628 0)
(-0.247645 1.15477 0)
(-0.0985102 1.25517 0)
(0.0601001 1.16222 0)
(0.0869183 1.02344 0)
(0.0306519 0.950265 0)
(0.025586 0.733304 0)
(0.0391014 0.890613 0)
(0.0294126 0.851459 0)
(0.0323964 0.850196 0)
(0.00714889 0.615595 0)
(0.0277248 0.485519 0)
(0.0608455 0.451567 0)
(0.0877637 0.449063 0)
(0.119073 0.458986 0)
(0.167038 0.478124 0)
(0.233764 0.510453 0)
(0.313448 0.574977 0)
(0.392401 0.692787 0)
(0.443084 0.859138 0)
(0.440749 1.04783 0)
(0.35115 1.3095 0)
(0.242609 1.70004 0)
(0.0270225 1.57905 0)
(-0.0153206 1.43729 0)
(0.00781177 1.3593 0)
(0.0139558 1.26764 0)
(0.00844856 1.25701 0)
(-0.0732837 1.34948 0)
(-0.196056 1.32975 0)
(-0.264626 1.25813 0)
(-0.273365 1.1904 0)
(-0.187104 1.17716 0)
(-0.0427166 1.1174 0)
(0.0311495 1.03113 0)
(0.019606 0.977309 0)
(0.00869517 0.71501 0)
(0.031883 0.898679 0)
(0.0330995 0.822223 0)
(0.0426573 0.820085 0)
(0.0368947 0.616774 0)
(0.0127571 0.458496 0)
(0.0299159 0.419628 0)
(0.0530969 0.417545 0)
(0.0846659 0.418009 0)
(0.133793 0.420843 0)
(0.205658 0.438625 0)
(0.301065 0.494984 0)
(0.403533 0.623405 0)
(0.463927 0.824782 0)
(0.454888 1.03328 0)
(0.405684 1.35418 0)
(0.31805 1.81379 0)
(0.0894105 1.71242 0)
(0.013417 1.42102 0)
(0.0985975 1.33108 0)
(0.156057 1.24583 0)
(0.190991 1.26743 0)
(0.0611582 1.5073 0)
(-0.191518 1.47265 0)
(-0.325054 1.32363 0)
(-0.319881 1.20362 0)
(-0.251462 1.11824 0)
(-0.145817 1.04259 0)
(-0.0407718 1.00009 0)
(-0.000331138 0.985022 0)
(-0.0270771 0.754083 0)
(-0.0126759 0.878369 0)
(0.00498848 0.839567 0)
(0.053809 0.780121 0)
(0.0635854 0.608418 0)
(0.0440897 0.454165 0)
(0.0314883 0.395007 0)
(0.0337215 0.386454 0)
(0.0531486 0.375754 0)
(0.0962903 0.362029 0)
(0.170604 0.361586 0)
(0.279748 0.399315 0)
(0.408709 0.53151 0)
(0.476899 0.770805 0)
(0.561061 1.01269 0)
(0.647334 1.23451 0)
(0.409766 1.8824 0)
(0.255879 1.83419 0)
(0.0707196 1.45255 0)
(0.185072 1.26437 0)
(0.298322 1.18512 0)
(0.399081 1.23611 0)
(0.320961 1.69507 0)
(-0.138687 1.71458 0)
(-0.406593 1.35703 0)
(-0.412371 1.17789 0)
(-0.31502 1.0592 0)
(-0.209294 0.971174 0)
(-0.100591 0.932523 0)
(-0.0219695 0.963235 0)
(-0.0513454 0.826831 0)
(-0.0839888 0.859215 0)
(-0.041915 0.828531 0)
(0.0177466 0.746069 0)
(0.070648 0.598877 0)
(0.0651015 0.465439 0)
(0.0480842 0.390616 0)
(0.028785 0.367442 0)
(0.0293044 0.341436 0)
(0.0590686 0.30933 0)
(0.130831 0.288756 0)
(0.25297 0.300787 0)
(0.41367 0.426798 0)
(0.533153 0.665174 0)
(0.815804 0.647165 0)
(0.811962 1.31609 0)
(0.695872 1.97045 0)
(0.590682 2.02217 0)
(0.358765 1.57084 0)
(0.336817 1.18802 0)
(0.426109 1.07819 0)
(0.563048 1.1445 0)
(0.557763 1.85618 0)
(-0.0370819 2.06423 0)
(-0.42022 1.404 0)
(-0.484272 1.10251 0)
(-0.388296 0.976168 0)
(-0.256593 0.890027 0)
(-0.140003 0.848879 0)
(-0.0398364 0.915493 0)
(-0.0582477 0.897174 0)
(-0.100952 0.860846 0)
(-0.0849284 0.78478 0)
(-0.0133774 0.694248 0)
(0.0434806 0.584774 0)
(0.0647855 0.478346 0)
(0.0589095 0.401357 0)
(0.0337925 0.364734 0)
(0.0175824 0.321518 0)
(0.030384 0.268753 0)
(0.0961253 0.225332 0)
(0.227837 0.193798 0)
(0.409222 0.232771 0)
(0.630275 0.28741 0)
(0.803991 0.530008 0)
(0.90899 1.193 0)
(1.02463 1.83766 0)
(1.06362 2.09777 0)
(0.906247 1.81331 0)
(0.585591 1.33365 0)
(0.539056 1.01171 0)
(0.607845 1.05267 0)
(0.610673 1.97306 0)
(0.267585 2.51838 0)
(-0.355715 1.50052 0)
(-0.496016 0.998133 0)
(-0.432308 0.869517 0)
(-0.298286 0.799232 0)
(-0.170692 0.758833 0)
(-0.0556622 0.845756 0)
(0.0151578 0.947047 0)
(-0.0229459 0.881272 0)
(-0.0205982 0.753987 0)
(0.014533 0.67158 0)
(0.041259 0.573799 0)
(0.0663879 0.479389 0)
(0.067047 0.413953 0)
(0.0451124 0.373357 0)
(0.0208436 0.315137 0)
(0.0191899 0.238833 0)
(0.0724446 0.167173 0)
(0.182585 0.09162 0)
(0.331467 0.0270639 0)
(0.445683 0.151252 0)
(0.609287 0.274547 0)
(0.868655 0.880288 0)
(1.23252 1.67736 0)
(1.42422 2.03028 0)
(1.44363 2.06606 0)
(1.13698 1.6852 0)
(0.69094 1.21688 0)
(0.549903 1.09295 0)
(0.535838 1.98742 0)
(0.494681 2.70883 0)
(-0.0485376 1.93887 0)
(-0.444272 0.907342 0)
(-0.422164 0.757957 0)
(-0.329231 0.70229 0)
(-0.199897 0.666887 0)
(-0.0719567 0.757672 0)
(0.0432309 0.857802 0)
(0.101851 0.890014 0)
(0.101351 0.747893 0)
(0.119697 0.686301 0)
(0.111328 0.602422 0)
(0.100148 0.506768 0)
(0.0834691 0.435396 0)
(0.0611027 0.386941 0)
(0.0396428 0.318241 0)
(0.0250931 0.218222 0)
(0.056756 0.113048 0)
(0.136859 0.0222193 0)
(0.216682 -0.0638724 0)
(0.29857 0.00279421 0)
(0.42719 0.0650641 0)
(0.633367 0.489123 0)
(1.11135 1.2961 0)
(1.55546 1.84246 0)
(1.79179 2.09897 0)
(1.68521 2.14067 0)
(1.14226 1.73006 0)
(0.55297 1.32322 0)
(0.394181 1.97462 0)
(0.499728 2.76922 0)
(0.316838 2.40906 0)
(-0.292977 1.07689 0)
(-0.408899 0.669659 0)
(-0.341759 0.60346 0)
(-0.227596 0.573576 0)
(-0.0871915 0.649798 0)
(0.0108623 0.765043 0)
(0.136262 0.827169 0)
(0.148315 0.716663 0)
(0.177721 0.687159 0)
(0.194954 0.637676 0)
(0.180318 0.573557 0)
(0.126545 0.508626 0)
(0.108148 0.445136 0)
(0.0892053 0.34904 0)
(0.0563915 0.219273 0)
(0.0624834 0.070156 0)
(0.12245 -0.0240551 0)
(0.185241 -0.0965482 0)
(0.25905 -0.0812511 0)
(0.31945 -0.0183171 0)
(0.423646 0.201628 0)
(0.764219 0.814309 0)
(1.32613 1.40111 0)
(1.82472 1.93109 0)
(1.8888 2.31115 0)
(1.47119 2.35621 0)
(0.636456 1.88106 0)
(0.193223 2.04787 0)
(0.359334 2.69928 0)
(0.467929 2.61651 0)
(0.00535288 1.55558 0)
(-0.351907 0.651083 0)
(-0.333672 0.529426 0)
(-0.24443 0.481804 0)
(-0.0972721 0.524673 0)
(0.0168974 0.713727 0)
(0.115282 0.770484 0)
(0.134573 0.699881 0)
(0.137711 0.654634 0)
(0.137128 0.616978 0)
(0.154391 0.595227 0)
(0.169337 0.540058 0)
(0.18297 0.446743 0)
(0.163202 0.425017 0)
(0.13493 0.285471 0)
(0.0989704 0.0512251 0)
(0.137461 -0.0591166 0)
(0.205356 -0.123401 0)
(0.265905 -0.125112 0)
(0.312477 -0.0666533 0)
(0.348372 0.0724328 0)
(0.503205 0.481778 0)
(0.928307 0.875555 0)
(1.46139 1.5479 0)
(1.73513 2.35193 0)
(1.46076 2.79754 0)
(0.731206 2.56954 0)
(0.17529 2.13801 0)
(0.167465 2.56893 0)
(0.350131 2.65785 0)
(0.255366 1.97005 0)
(-0.256362 0.822283 0)
(-0.349354 0.470547 0)
(-0.265716 0.393669 0)
(-0.10976 0.396024 0)
(0.0100464 0.679689 0)
(0.0570912 0.722661 0)
(0.0952737 0.699946 0)
(0.103621 0.668696 0)
(0.0935128 0.613203 0)
(0.106663 0.565304 0)
(0.135679 0.516996 0)
(0.16743 0.469315 0)
(0.172139 0.407401 0)
(0.196118 0.374288 0)
(0.151216 0.0919556 0)
(0.160445 -0.0878027 0)
(0.21999 -0.156475 0)
(0.28451 -0.16504 0)
(0.343875 -0.113886 0)
(0.380126 0.0290985 0)
(0.453543 0.307843 0)
(0.713868 0.529728 0)
(0.998129 1.15578 0)
(1.20173 2.19443 0)
(1.13517 2.94442 0)
(0.772348 3.01198 0)
(0.238943 2.40741 0)
(-0.00362794 2.51857 0)
(0.121021 2.57518 0)
(0.248117 2.11601 0)
(-0.0526148 1.23713 0)
(-0.299782 0.445915 0)
(-0.267292 0.32847 0)
(-0.128876 0.347338 0)
(-0.0133897 0.696108 0)
(-0.00987617 0.698193 0)
(0.0258 0.690651 0)
(0.0456869 0.68044 0)
(0.0463124 0.630452 0)
(0.0462049 0.575373 0)
(0.0546837 0.514696 0)
(0.0835656 0.44331 0)
(0.130023 0.421519 0)
(0.12994 0.365052 0)
(0.182373 0.165086 0)
(0.172814 -0.0940865 0)
(0.232733 -0.183985 0)
(0.307053 -0.20439 0)
(0.381443 -0.172472 0)
(0.451902 -0.0373733 0)
(0.558228 0.17235 0)
(0.703586 0.326656 0)
(0.708096 0.915173 0)
(0.643792 2.03412 0)
(0.645008 2.78133 0)
(0.611422 3.0751 0)
(0.284198 2.73435 0)
(-0.0344251 2.46648 0)
(-0.0211232 2.42917 0)
(0.117751 2.08683 0)
(0.113722 1.45309 0)
(-0.180422 0.605097 0)
(-0.251653 0.388876 0)
(-0.166392 0.202764 0)
(-0.0190378 0.722384 0)
(-0.0260824 0.686778 0)
(0.00329379 0.684279 0)
(0.0304301 0.689887 0)
(0.0391092 0.659469 0)
(0.0280064 0.613352 0)
(0.00532714 0.552656 0)
(-0.0105578 0.460061 0)
(0.00810879 0.378804 0)
(0.0653541 0.335041 0)
(0.15081 0.155993 0)
(0.170024 -0.0810031 0)
(0.229897 -0.204149 0)
(0.307021 -0.246015 0)
(0.392622 -0.248781 0)
(0.493822 -0.162835 0)
(0.646375 -0.0162387 0)
(0.773356 0.19149 0)
(0.640927 0.946139 0)
(0.340375 1.92736 0)
(0.264163 2.59941 0)
(0.354591 2.94435 0)
(0.249661 2.80498 0)
(-0.0249494 2.50053 0)
(-0.116084 2.22912 0)
(-0.0945028 1.94202 0)
(-0.0478562 1.46516 0)
(-0.222591 0.875775 0)
(-0.316672 0.341125 0)
(-0.137438 0.0844619 0)
(-0.0135841 0.735463 0)
(0.00093094 0.652961 0)
(0.047593 0.661682 0)
(0.0812356 0.685275 0)
(0.0961528 0.680738 0)
(0.0871298 0.657355 0)
(0.0505554 0.619244 0)
(-0.0283948 0.557532 0)
(-0.0838437 0.397439 0)
(-0.0487679 0.251382 0)
(0.0406609 0.124786 0)
(0.128682 -0.0980632 0)
(0.186888 -0.227488 0)
(0.268044 -0.289608 0)
(0.357889 -0.328338 0)
(0.460415 -0.316406 0)
(0.591005 -0.250638 0)
(0.718437 0.0461418 0)
(0.598223 1.01376 0)
(0.234576 1.96808 0)
(0.0697834 2.46476 0)
(0.114646 2.76635 0)
(0.092778 2.77466 0)
(-0.127945 2.48224 0)
(-0.365318 2.12257 0)
(-0.522627 1.84915 0)
(-0.506253 1.43876 0)
(-0.425225 0.934058 0)
(-0.230997 0.297113 0)
(-0.0476099 -0.0815241 0)
(0.00921677 0.721057 0)
(0.050149 0.588904 0)
(0.115857 0.608216 0)
(0.166303 0.649851 0)
(0.201271 0.662318 0)
(0.215123 0.664144 0)
(0.184079 0.667654 0)
(0.0271214 0.687113 0)
(-0.137968 0.481182 0)
(-0.146441 0.228622 0)
(-0.0671964 0.0530508 0)
(0.0485721 -0.147548 0)
(0.114605 -0.267812 0)
(0.20061 -0.339829 0)
(0.288738 -0.399052 0)
(0.371551 -0.440304 0)
(0.444457 -0.448273 0)
(0.533116 -0.130584 0)
(0.44074 1.07495 0)
(0.131295 2.03361 0)
(-0.0445558 2.42495 0)
(-0.106174 2.68242 0)
(-0.194123 2.76536 0)
(-0.433941 2.59279 0)
(-0.804042 2.23459 0)
(-1.02084 1.76389 0)
(-0.921549 1.22592 0)
(-0.38089 0.612386 0)
(-0.0410728 0.101439 0)
(0.0581611 -0.0760658 0)
(0.0442356 0.663068 0)
(0.102954 0.512482 0)
(0.177145 0.537675 0)
(0.24833 0.585317 0)
(0.325202 0.602044 0)
(0.382935 0.630318 0)
(0.367721 0.696775 0)
(0.152214 0.806254 0)
(-0.159069 0.520183 0)
(-0.249631 0.195555 0)
(-0.159199 -0.0312761 0)
(-0.0473811 -0.205438 0)
(0.0355171 -0.326794 0)
(0.126002 -0.399976 0)
(0.211696 -0.460961 0)
(0.278546 -0.515777 0)
(0.326518 -0.572429 0)
(0.349898 -0.221701 0)
(0.226665 1.15673 0)
(0.0067176 2.11513 0)
(-0.139313 2.48984 0)
(-0.280782 2.73549 0)
(-0.450554 2.87903 0)
(-0.713219 2.79276 0)
(-1.0461 2.36398 0)
(-1.1505 1.59788 0)
(-0.688067 0.731671 0)
(-0.238033 0.063814 0)
(0.0353597 -0.0121868 0)
(0.0685471 -0.0161633 0)
(0.0692834 0.575715 0)
(0.138604 0.434365 0)
(0.21536 0.455736 0)
(0.308304 0.481195 0)
(0.419023 0.499088 0)
(0.47018 0.55055 0)
(0.419283 0.682952 0)
(0.122592 0.948423 0)
(-0.230411 0.67712 0)
(-0.287049 0.147181 0)
(-0.239954 -0.122073 0)
(-0.136261 -0.277864 0)
(-0.0372475 -0.399618 0)
(0.0591288 -0.467622 0)
(0.144113 -0.520191 0)
(0.202051 -0.565934 0)
(0.263922 -0.648309 0)
(0.22795 -0.180043 0)
(0.0629129 1.24796 0)
(-0.0672981 2.19037 0)
(-0.181198 2.60924 0)
(-0.345735 2.87363 0)
(-0.528049 3.05864 0)
(-0.738274 2.99249 0)
(-0.939833 2.41133 0)
(-0.784453 1.26563 0)
(-0.334009 0.162811 0)
(-0.0724494 -0.0211818 0)
(-0.0187095 -0.0445782 0)
(0.0519991 -0.00609429 0)
(0.0740649 0.472281 0)
(0.144308 0.355335 0)
(0.228608 0.362238 0)
(0.33315 0.350162 0)
(0.397688 0.354844 0)
(0.375361 0.443683 0)
(0.137243 0.8473 0)
(-0.165968 1.09525 0)
(-0.426104 0.768802 0)
(-0.602916 0.103669 0)
(-0.390785 -0.271828 0)
(-0.213743 -0.383897 0)
(-0.0984795 -0.487862 0)
(0.00493968 -0.540396 0)
(0.0886005 -0.579192 0)
(0.137178 -0.608513 0)
(0.220559 -0.677142 0)
(0.14849 -0.0593113 0)
(0.0117713 1.31134 0)
(-0.0501196 2.24805 0)
(-0.140269 2.73327 0)
(-0.281166 3.01686 0)
(-0.416664 3.20556 0)
(-0.542356 3.09521 0)
(-0.596722 2.35143 0)
(-0.310192 0.997787 0)
(-0.120815 0.0733659 0)
(-0.0639438 -0.0786017 0)
(-0.050258 -0.128809 0)
(0.0207708 -0.0297149 0)
(0.0512568 0.353071 0)
(0.112982 0.269136 0)
(0.195489 0.243132 0)
(0.264825 0.225015 0)
(0.198655 0.343695 0)
(-0.0612725 0.634426 0)
(-0.363377 0.951914 0)
(-0.458226 1.01211 0)
(-0.470894 0.636381 0)
(-0.522594 -0.0837935 0)
(-0.407467 -0.647304 0)
(-0.215558 -0.557725 0)
(-0.13103 -0.595796 0)
(-0.0316981 -0.616722 0)
(0.048245 -0.637568 0)
(0.0923482 -0.654516 0)
(0.171546 -0.661626 0)
(0.0679584 -0.0175572 0)
(0.0245403 1.32508 0)
(0.0254649 2.29012 0)
(-0.0279318 2.82931 0)
(-0.113506 3.11563 0)
(-0.177328 3.28079 0)
(-0.202765 3.11295 0)
(-0.141091 2.23071 0)
(-0.0303435 0.74304 0)
(-0.0333198 0.0568558 0)
(-0.0907316 -0.124996 0)
(-0.080596 -0.182856 0)
(-0.0190436 -0.0742579 0)
(0.0332135 0.181518 0)
(0.055404 0.125803 0)
(0.129275 0.139235 0)
(-0.00689748 0.306796 0)
(-0.286313 0.538945 0)
(-0.546581 0.770422 0)
(-0.647974 0.948856 0)
(-0.580501 0.90432 0)
(-0.45264 0.494387 0)
(-0.364023 -0.228166 0)
(-0.280052 -0.782241 0)
(-0.169101 -0.703301 0)
(-0.120528 -0.691519 0)
(-0.0458283 -0.686326 0)
(0.019599 -0.69125 0)
(0.0565013 -0.69999 0)
(0.10803 -0.608576 0)
(-0.0107743 0.0357511 0)
(0.0262816 1.28603 0)
(0.108044 2.28573 0)
(0.115694 2.86435 0)
(0.0991898 3.14873 0)
(0.108092 3.27434 0)
(0.176835 3.06699 0)
(0.295197 2.17989 0)
(0.224113 0.854668 0)
(0.0566265 0.153747 0)
(-0.0835299 -0.130097 0)
(-0.116967 -0.20651 0)
(-0.0742246 -0.0812406 0)
(0.00529129 0.130968 0)
(-0.0403146 0.140028 0)
(-0.21852 0.295235 0)
(-0.451557 0.459153 0)
(-0.639603 0.639327 0)
(-0.744284 0.817989 0)
(-0.73014 0.902408 0)
(-0.604675 0.770309 0)
(-0.437766 0.334562 0)
(-0.296012 -0.373754 0)
(-0.224047 -0.908009 0)
(-0.14676 -0.791011 0)
(-0.108349 -0.757919 0)
(-0.0518285 -0.741216 0)
(-0.00183726 -0.734681 0)
(0.0301302 -0.733144 0)
(0.0494959 -0.531249 0)
(-0.0866726 0.0667228 0)
(0.00166903 1.17107 0)
(0.170488 2.21357 0)
(0.249094 2.82658 0)
(0.297652 3.11865 0)
(0.358701 3.20333 0)
(0.472739 2.97488 0)
(0.573361 2.16247 0)
(0.431159 0.986614 0)
(0.211887 0.30352 0)
(-0.0169055 -0.0265877 0)
(-0.117456 -0.20903 0)
(-0.159241 -0.216865 0)
(-0.0858307 0.131218 0)
(-0.258987 0.215058 0)
(-0.461491 0.370198 0)
(-0.62607 0.553954 0)
(-0.735761 0.717409 0)
(-0.768653 0.821404 0)
(-0.711819 0.812483 0)
(-0.576719 0.611131 0)
(-0.414797 0.160821 0)
(-0.260809 -0.512064 0)
(-0.194922 -0.97997 0)
(-0.138969 -0.853261 0)
(-0.102662 -0.810332 0)
(-0.0585991 -0.783716 0)
(-0.0215372 -0.76775 0)
(0.0121578 -0.754789 0)
(0.00131669 -0.42347 0)
(-0.149067 0.102102 0)
(-0.0481924 1.00035 0)
(0.19671 2.06888 0)
(0.348011 2.72199 0)
(0.450237 3.03762 0)
(0.544101 3.10201 0)
(0.665017 2.87698 0)
(0.743416 2.18038 0)
(0.59862 1.17315 0)
(0.35498 0.494483 0)
(0.116111 0.164726 0)
(-0.0813496 -0.131547 0)
(-0.105956 -0.32876 0)
(-0.144222 0.32813 0)
(-0.342741 0.395103 0)
(-0.519551 0.534982 0)
(-0.646906 0.673373 0)
(-0.714567 0.768772 0)
(-0.716402 0.795251 0)
(-0.644598 0.709666 0)
(-0.517724 0.459923 0)
(-0.376923 -0.00121302 0)
(-0.226532 -0.649425 0)
(-0.17406 -1.03793 0)
(-0.133541 -0.892698 0)
(-0.10792 -0.85337 0)
(-0.0713786 -0.817605 0)
(-0.0440644 -0.793044 0)
(0.00412188 -0.768251 0)
(-0.0399362 -0.324948 0)
(-0.200548 0.140736 0)
(-0.118887 0.795759 0)
(0.169224 1.8546 0)
(0.399444 2.5628 0)
(0.544613 2.91944 0)
(0.66264 2.99134 0)
(0.775444 2.78765 0)
(0.835421 2.20758 0)
(0.703458 1.3624 0)
(0.439489 0.692517 0)
(0.187537 0.349326 0)
(0.0238966 -0.0286547 0)
(-0.0758466 -0.400002 0)
(-0.148691 0.589175 0)
(-0.332055 0.586481 0)
(-0.486361 0.676068 0)
(-0.589137 0.75734 0)
(-0.636063 0.790845 0)
(-0.624434 0.753098 0)
(-0.554097 0.611417 0)
(-0.442802 0.326987 0)
(-0.326574 -0.141635 0)
(-0.193199 -0.765359 0)
(-0.169196 -1.0712 0)
(-0.128364 -0.920989 0)
(-0.118299 -0.887077 0)
(-0.0885787 -0.844961 0)
(-0.0688528 -0.811582 0)
(4.27579e-05 -0.759459 0)
(-0.0689668 -0.206336 0)
(-0.244425 0.19188 0)
(-0.205192 0.621254 0)
(0.0785789 1.58096 0)
(0.39236 2.3578 0)
(0.577826 2.76592 0)
(0.718143 2.87272 0)
(0.82243 2.70936 0)
(0.866177 2.24124 0)
(0.739706 1.54441 0)
(0.482897 0.940148 0)
(0.199976 0.550604 0)
(0.0511783 0.0343316 0)
(-0.0456929 -0.393419 0)
(-0.119536 0.797572 0)
(-0.278926 0.749937 0)
(-0.413983 0.793571 0)
(-0.500064 0.82354 0)
(-0.537393 0.803293 0)
(-0.523138 0.712179 0)
(-0.461492 0.525852 0)
(-0.369586 0.215349 0)
(-0.280466 -0.256437 0)
(-0.175483 -0.853406 0)
(-0.182463 -1.08773 0)
(-0.137644 -0.950362 0)
(-0.133178 -0.913252 0)
(-0.106371 -0.867273 0)
(-0.0891453 -0.827801 0)
(-0.014697 -0.728796 0)
(-0.0955417 -0.0832395 0)
(-0.265567 0.25312 0)
(-0.289334 0.495587 0)
(-0.0646968 1.26334 0)
(0.312313 2.10232 0)
(0.54959 2.57951 0)
(0.710203 2.74635 0)
(0.811487 2.63924 0)
(0.840799 2.27812 0)
(0.715352 1.71895 0)
(0.467214 1.18372 0)
(0.159018 0.764455 0)
(0.0446199 0.111602 0)
(-0.0574371 -0.358114 0)
(-0.0902296 0.972334 0)
(-0.221999 0.89066 0)
(-0.33753 0.895545 0)
(-0.410324 0.880382 0)
(-0.441066 0.812861 0)
(-0.429211 0.677125 0)
(-0.379878 0.456372 0)
(-0.30958 0.128357 0)
(-0.251025 -0.340737 0)
(-0.182689 -0.910234 0)
(-0.200843 -1.08806 0)
(-0.157498 -0.982022 0)