/*--------------------------------*- C++ -*----------------------------------*\
| =========                 |                                                 |
| \\      /  F ield         | OpenFOAM: The Open Source CFD Toolbox           |
|  \\    /   O peration     | Version:  v1606+                                |
|   \\  /    A nd           | Web:      www.OpenFOAM.com                      |
|    \\/     M anipulation  |                                                 |
\*---------------------------------------------------------------------------*/
FoamFile
{
    version     2.0;
    format      ascii;
    class       volScalarField;
    location    "0.31";
    object      epsilon.air;
}
// * * * * * * * * * * * * * * * * * * * * * * * * * * * * * * * * * * * * * //

dimensions      [0 2 -3 0 0 0 0];

internalField   nonuniform List<scalar> 
6000
(
133.492
16.8911
10.8128
10.055
9.85711
9.75169
9.7018
9.68261
9.69641
9.71376
9.72934
9.73865
9.74181
9.73887
9.73581
9.73647
9.7395
9.74125
9.73841
9.72903
9.7144
9.69505
9.68143
9.70232
9.75385
9.86394
10.0664
10.8246
16.9217
133.497
77.4345
24.4301
14.8626
12.1992
11.2662
10.8367
10.6639
10.6193
10.6464
10.6884
10.7176
10.7402
10.7696
10.7874
10.7963
10.7885
10.7783
10.7635
10.7471
10.729
10.6888
10.6367
10.6077
10.6591
10.849
11.2914
12.2395
14.906
24.492
77.2767
50.0126
21.7911
14.6402
12.1682
11.1648
10.6583
10.3834
10.2297
10.1637
10.1314
10.113
10.1054
10.1112
10.1171
10.1202
10.116
10.1112
10.1081
10.1107
10.1216
10.1346
10.1601
10.2304
10.3962
10.6848
11.2022
12.2141
14.6842
21.8206
49.8866
42.4154
18.85
13.6825
11.5866
10.5927
10.0367
9.68875
9.46989
9.35713
9.30128
9.27424
9.26322
9.26145
9.26209
9.26196
9.26081
9.26051
9.26237
9.26834
9.2815
9.30757
9.36336
9.48302
9.71529
10.0745
10.6388
11.6405
13.7444
18.9311
42.7141
38.0229
16.4868
12.2506
10.5536
9.73057
9.25749
8.93955
8.72073
8.59686
8.5429
8.52141
8.51124
8.50392
8.4974
8.49293
8.49319
8.49872
8.50757
8.51774
8.52976
8.55196
8.60901
8.7413
8.97139
9.29652
9.77282
10.6017
12.3124
16.6151
38.6427
34.341
14.5665
10.8887
9.50424
8.82653
8.43361
8.17771
8.00505
7.89486
7.85495
7.85054
7.84708
7.83538
7.81978
7.80909
7.81036
7.8233
7.84163
7.85567
7.86097
7.86763
7.914
8.03349
8.21435
8.47934
8.87591
9.55661
10.9555
14.7164
35.0485
29.3989
12.7936
9.85224
8.90788
8.40121
8.03956
7.76844
7.56935
7.41899
7.33996
7.31241
7.29554
7.27495
7.25367
7.24062
7.24222
7.25835
7.28318
7.30736
7.32846
7.36306
7.45615
7.62219
7.8342
8.11815
8.48899
8.99813
9.94457
12.9545
30.1099
22.0164
11.2109
9.51075
9.15094
8.79931
8.39088
8.03597
7.7669
7.51184
7.27519
7.10283
6.99963
6.93798
6.90277
6.88759
6.88916
6.90863
6.94972
7.01934
7.13384
7.32294
7.57784
7.85384
8.13994
8.51318
8.9345
9.28485
9.64425
11.3812
22.6043
18.2399
10.9552
10.0116
10.3252
10.287
9.77757
9.20096
8.77145
8.30991
7.77515
7.37267
7.1182
6.96598
6.87916
6.83898
6.84177
6.88883
6.98411
7.1497
7.42419
7.85666
8.42862
8.91569
9.36873
9.97916
10.5103
10.5423
10.1801
11.1433
18.5761
19.1007
11.9659
11.8866
13.2043
13.7727
12.8752
11.7682
10.8734
10.0071
9.04724
8.26215
7.70793
7.34569
7.13898
7.04885
7.0538
7.15524
7.37782
7.7623
8.34944
9.18214
10.1942
11.0915
12.024
13.1997
14.1447
13.5226
12.1152
12.1774
19.338
26.5266
16.3086
16.4636
18.2648
18.7328
17.2171
15.2708
13.6077
12.0996
10.6684
9.50307
8.6459
8.06502
7.71688
7.55835
7.56621
7.74169
8.111
8.72083
9.61849
10.8378
12.3277
13.878
15.5922
17.6234
19.2295
18.6726
16.7662
16.5822
26.7015
49.4773
22.4627
19.8339
20.4566
20.7062
19.367
17.322
15.4625
13.622
11.5599
10.0544
9.01428
8.32341
7.9106
7.72265
7.73157
7.93852
8.37444
9.09557
10.1767
11.7379
13.8659
15.7271
17.6184
19.7356
21.1212
20.8087
20.1277
22.7507
49.7991
59.7062
23.8766
19.5109
19.3103
19.3649
17.9983
16.0879
14.7719
13.4273
11.4213
9.86535
8.80656
8.11281
7.69864
7.50833
7.51728
7.72679
8.16435
8.88859
9.98768
11.5942
13.6382
14.9713
16.3192
18.3124
19.7337
19.646
19.8008
24.1872
60.4361
58.3944
23.1775
18.1881
17.23
16.9012
15.4227
13.7542
12.8883
12.0191
10.5616
9.24726
8.29471
7.65496
7.26668
7.08629
7.09508
7.29441
7.70535
8.37364
9.3621
10.7182
12.2018
13.0592
13.959
15.7101
17.222
17.5303
18.4626
23.4816
59.1748
53.6827
21.5851
16.6897
15.6036
15.0938
13.5542
11.9202
11.2941
10.7466
9.63972
8.54627
7.72338
7.15724
6.81095
6.64931
6.65789
6.83775
7.20541
7.7977
8.65298
9.78463
10.9159
11.453
12.1115
13.8129
15.3623
15.8586
16.9351
21.8756
54.4993
47.2503
19.7192
15.414
14.3961
13.7817
12.249
10.6128
10.1059
9.7188
8.80479
7.87683
7.15959
6.65793
6.34739
6.20311
6.21131
6.37289
6.70319
7.22785
7.97321
8.9346
9.87012
10.2493
10.7861
12.4739
14.0031
14.6061
15.6299
19.9933
48.0065
41.9739
18.1585
14.3534
13.3611
12.6481
11.1961
9.60615
9.15801
8.84279
8.04517
7.24722
6.61463
6.1682
5.89167
5.76367
5.77134
5.9154
6.20932
6.67515
7.3312
8.15758
8.97205
9.27905
9.75548
11.3802
12.8235
13.5305
14.5405
18.4176
42.6405
37.6705
16.8785
13.3656
12.3422
11.5659
10.2266
8.73806
8.35604
8.05543
7.33093
6.65773
6.09796
5.69741
5.45146
5.3392
5.34616
5.47264
5.73325
6.14909
6.72685
7.42426
8.16229
8.45129
8.85945
10.372
11.706
12.482
13.5286
17.1255
38.2434
33.8392
15.7148
12.3305
11.2572
10.3976
9.2007
7.89824
7.56066
7.30553
6.68423
6.10283
5.60581
5.24678
5.02749
4.92866
4.9346
5.0455
5.27662
5.64681
6.15659
6.75988
7.38982
7.62908
7.99195
9.30864
10.5043
11.3758
12.4757
15.9437
34.2823
29.7149
14.5722
11.2696
10.1528
9.26233
8.15071
7.06976
6.78048
6.58974
6.07642
5.57015
5.13264
4.8153
4.62123
4.53379
4.53865
4.63601
4.8397
5.16569
5.61287
6.13782
6.65165
6.82296
7.13439
8.22565
9.33875
10.2494
11.405
14.7974
30.0621
25.5592
13.5242
10.2878
9.12473
8.195
7.1774
6.28533
6.02192
5.91096
5.52697
5.07654
4.68473
4.40585
4.23553
4.15843
4.16217
4.24703
4.42501
4.70974
5.10558
5.57315
5.96205
6.04964
6.32263
7.21762
8.24341
9.20705
10.4131
13.7205
25.8201
21.4623
12.2007
9.33336
8.16069
7.21691
6.28717
5.56042
5.33379
5.29882
5.00261
4.61281
4.26897
4.02266
3.87369
3.8062
3.80893
3.88222
4.03714
4.28802
4.63388
5.03176
5.3276
5.35049
5.57998
6.31201
7.23788
8.20125
9.43571
12.3629
21.6757
17.7366
10.6178
8.36342
7.21948
6.28086
5.47001
4.91584
4.74612
4.72005
4.51143
4.16513
3.8719
3.66535
3.53674
3.47878
3.48072
3.54288
3.67626
3.88475
4.17857
4.52986
4.73805
4.75773
4.92291
5.4679
6.2785
7.24463
8.45136
10.7423
17.9366
14.5602
8.92191
7.30141
6.32285
5.44098
4.73437
4.37725
4.28242
4.23497
4.03975
3.74752
3.50377
3.33137
3.22436
3.1741
3.17566
3.22895
3.33872
3.51316
3.75678
4.05134
4.24738
4.29121
4.37776
4.72404
5.43239
6.32327
7.35963
9.03164
14.7482
11.9538
7.453
6.26264
5.44271
4.64004
4.10732
3.94714
3.93684
3.86602
3.64975
3.37846
3.17124
3.03073
2.94141
2.8993
2.90042
2.94467
3.03623
3.17764
3.38594
3.65929
3.87729
3.94457
3.94518
4.09316
4.61765
5.43422
6.30708
7.56602
12.1304
9.74007
6.125
5.36183
4.69054
3.92681
3.59548
3.6074
3.66705
3.57756
3.33716
3.07672
2.88749
2.76416
2.68761
2.65117
2.65194
2.6898
2.76765
2.8924
3.08334
3.34544
3.58614
3.67136
3.60275
3.58031
3.90082
4.66561
5.38644
6.21693
9.8905
7.82902
4.93571
4.66629
3.95495
3.31282
3.17944
3.30333
3.40002
3.30592
3.06833
2.82607
2.64897
2.53332
2.4639
2.43171
2.43226
2.46549
2.53593
2.65271
2.83076
3.07282
3.30781
3.39653
3.29391
3.16275
3.28393
3.91656
4.67583
5.01332
7.93744
6.60013
4.28407
3.94935
3.182
2.7739
2.79945
2.9736
3.07418
3.00433
2.81168
2.60508
2.44412
2.33589
2.27169
2.24255
2.24309
2.27322
2.33824
2.44687
2.60732
2.81158
2.99959
3.06415
2.96006
2.78105
2.74769
3.14444
3.93257
4.34906
6.6588
5.50898
3.74609
3.05323
2.47704
2.31971
2.42415
2.60008
2.69566
2.6683
2.54434
2.38959
2.25628
2.16168
2.10439
2.07819
2.07873
2.10591
2.16385
2.25834
2.39017
2.54168
2.66095
2.68396
2.58506
2.40589
2.29653
2.44373
3.02387
3.77024
5.52477
4.32366
2.94637
2.24434
1.91987
1.92731
2.06462
2.2288
2.33015
2.34357
2.28224
2.18205
2.0839
2.00828
1.95999
1.93715
1.93765
1.96138
2.01012
2.08531
2.18172
2.27885
2.33656
2.31974
2.21528
2.04781
1.90499
1.89151
2.21611
2.94386
4.31641
3.27955
2.20885
1.64253
1.51463
1.58943
1.75314
1.91498
2.02735
2.07099
2.05294
1.99661
1.93071
1.8746
1.8365
1.81783
1.81819
1.83748
1.87581
1.93144
1.99591
2.04985
2.06526
2.01899
1.90388
1.73877
1.57011
1.49127
1.61865
2.19773
3.2695
2.53665
1.66295
1.24852
1.23088
1.33349
1.50802
1.67026
1.7886
1.85072
1.86107
1.83496
1.7937
1.75416
1.72577
1.71143
1.71164
1.72632
1.75484
1.79406
1.8344
1.85906
1.84684
1.78256
1.66168
1.4964
1.318
1.21224
1.22949
1.65118
2.53111
2.10151
1.29705
1.0117
1.03899
1.15963
1.32847
1.48643
1.60781
1.68159
1.71131
1.70385
1.6788
1.65067
1.62945
1.61854
1.61865
1.62976
1.65114
1.67925
1.70401
1.7109
1.67989
1.60438
1.48063
1.31972
1.14758
1.02416
0.996042
1.28507
2.09375
1.78874
1.05664
0.874727
0.923411
1.04944
1.20797
1.35868
1.47893
1.55846
1.60071
1.60336
1.58616
1.56463
1.54805
1.53955
1.53963
1.54834
1.56524
1.58717
1.60487
1.60262
1.55946
1.47853
1.3559
1.20225
1.04039
0.911613
0.861752
1.04484
1.77698
1.53294
0.917557
0.803578
0.862776
0.990383
1.1396
1.28077
1.39377
1.47178
1.51921
1.52581
1.51102
1.49373
1.48042
1.47346
1.47351
1.48072
1.49462
1.51285
1.52912
1.5242
1.47636
1.39708
1.28167
1.13762
0.9847
0.854142
0.793222
0.906332
1.52059
1.30735
0.823549
0.774637
0.850692
0.978479
1.11396
1.23792
1.33715
1.40604
1.44525
1.45516
1.44566
1.43261
1.42118
1.41472
1.41476
1.42145
1.43364
1.44814
1.46005
1.45219
1.41394
1.34462
1.24305
1.11633
0.976318
0.845448
0.767954
0.812007
1.2945
1.19211
0.773002
0.780723
0.870374
0.994287
1.11073
1.21062
1.29083
1.34454
1.37277
1.38611
1.38537
1.37498
1.36433
1.35803
1.35805
1.36454
1.37591
1.38784
1.39129
1.37987
1.35373
1.30116
1.21979
1.11608
0.995387
0.867699
0.776056
0.768139
1.18478
1.21276
0.785794
0.824035
0.935942
1.04706
1.12158
1.18755
1.24637
1.28836
1.31343
1.32891
1.33096
1.31998
1.30942
1.30331
1.30334
1.30964
1.32078
1.33298
1.33329
1.31997
1.29757
1.2579
1.19912
1.12976
1.05539
0.941271
0.823824
0.784224
1.21
1.4189
0.883792
0.937252
1.03073
1.08767
1.12917
1.17974
1.22194
1.25153
1.27037
1.28394
1.28177
1.2692
1.25944
1.25394
1.25404
1.25988
1.27026
1.28361
1.2876
1.27631
1.2605
1.23529
1.19607
1.14284
1.10695
1.05413
0.946958
0.88828
1.42581
2.08135
1.12444
1.10435
1.09556
1.1242
1.1562
1.18297
1.20315
1.22193
1.23685
1.24319
1.23437
1.22456
1.21778
1.2135
1.21366
1.21846
1.22624
1.2372
1.24711
1.24289
1.23172
1.21911
1.20495
1.18008
1.15076
1.12519
1.13393
1.14354
2.08344
3.25965
1.46427
1.22088
1.17852
1.19051
1.19902
1.20497
1.20017
1.20266
1.2066
1.19927
1.19269
1.18975
1.18612
1.18279
1.1829
1.1867
1.19153
1.19652
1.20508
1.21428
1.21351
1.21679
1.23012
1.22777
1.22407
1.21522
1.26806
1.52527
3.33063
4.34368
1.71699
1.3339
1.28216
1.25245
1.25625
1.25123
1.21423
1.19052
1.17375
1.16471
1.16468
1.16524
1.16194
1.15847
1.15843
1.16204
1.16627
1.16777
1.17072
1.18289
1.2037
1.23091
1.27848
1.28953
1.29063
1.32857
1.38524
1.79359
4.50708
5.02045
1.91578
1.47014
1.34879
1.31211
1.31325
1.28464
1.22407
1.17859
1.15504
1.1484
1.14923
1.14691
1.14102
1.13634
1.13607
1.14046
1.14686
1.15095
1.15271
1.16207
1.18889
1.23844
1.31106
1.35488
1.35676
1.39848
1.52731
1.99679
5.23564
4.98506
2.00663
1.54014
1.4016
1.3684
1.35711
1.29818
1.22613
1.17821
1.15402
1.14556
1.14021
1.13151
1.12159
1.11497
1.11442
1.12026
1.13038
1.14075
1.1487
1.15961
1.18636
1.2399
1.3249
1.4058
1.42042
1.45393
1.60077
2.09354
5.20108
4.66143
2.03283
1.58254
1.44675
1.40959
1.37036
1.29607
1.23236
1.18646
1.16205
1.14902
1.13521
1.11898
1.10438
1.09549
1.09469
1.10232
1.11673
1.13435
1.15097
1.16665
1.19355
1.24603
1.32227
1.41794
1.46608
1.50146
1.64218
2.10524
4.8595
4.12834
2.05962
1.60952
1.47598
1.42511
1.36876
1.3026
1.24932
1.21023
1.18292
1.15971
1.13553
1.11078
1.09109
1.07989
1.07891
1.08851
1.10752
1.13309
1.15955
1.18526
1.2149
1.26079
1.32629
1.40983
1.47962
1.53116
1.66708
2.13257
4.27824
3.67973
2.02707
1.6066
1.48318
1.42887
1.37523
1.32357
1.28547
1.25197
1.21558
1.17754
1.14004
1.10714
1.08255
1.06923
1.06823
1.07984
1.10334
1.13633
1.17503
1.21443
1.25235
1.29126
1.34071
1.40818
1.47638
1.53442
1.66146
2.09594
3.78632
3.21177
1.92426
1.58206
1.47994
1.43553
1.39805
1.36805
1.33747
1.29947
1.24841
1.19573
1.14705
1.1062
1.07721
1.06204
1.06109
1.07466
1.10231
1.14256
1.19119
1.24271
1.29179
1.33213
1.3738
1.41966
1.47148
1.52424
1.63065
1.98238
3.29531
2.77867
1.75106
1.52238
1.46811
1.45623
1.45034
1.4282
1.379
1.32206
1.26516
1.2058
1.14963
1.10363
1.07141
1.0548
1.05386
1.06891
1.0996
1.14453
1.19999
1.25655
1.30792
1.36006
1.416
1.45704
1.47983
1.49967
1.55932
1.79261
2.85312
2.45253
1.58198
1.45718
1.47375
1.51343
1.52173
1.46074
1.37972
1.31816
1.26507
1.20483
1.14532
1.09637
1.06218
1.04469
1.04368
1.05946
1.09193
1.13942
1.19779
1.25802
1.30856
1.36109
1.43546
1.50571
1.52167
1.49826
1.4828
1.60866
2.51697
2.34227
1.48621
1.45398
1.52469
1.59241
1.5604
1.4546
1.37063
1.31463
1.26098
1.19584
1.13301
1.0833
1.04908
1.03142
1.03032
1.04606
1.07836
1.12595
1.18651
1.25589
1.31769
1.36559
1.43245
1.52129
1.57771
1.5452
1.48185
1.50978
2.42025
2.42802
1.51174
1.51938
1.6349
1.65037
1.5477
1.44228
1.37297
1.32003
1.25514
1.1788
1.11513
1.06697
1.03384
1.01667
1.01566
1.03108
1.0625
1.10837
1.16749
1.24611
1.33196
1.39072
1.4436
1.51574
1.61361
1.64812
1.55683
1.55044
2.52447
2.85357
1.67226
1.68668
1.7435
1.6429
1.52554
1.44796
1.38899
1.32639
1.24022
1.15729
1.09569
1.04973
1.01822
1.00195
1.00136
1.01665
1.04738
1.09179
1.14767
1.22043
1.31859
1.4192
1.50682
1.5547
1.62166
1.73415
1.75929
1.75147
3.07218
3.93871
2.04346
1.92978
1.77032
1.63567
1.54264
1.47744
1.40354
1.31021
1.21213
1.13413
1.07612
1.03252
1.00281
0.987732
0.987778
1.00318
1.03358
1.07747
1.13221
1.19871
1.28992
1.3991
1.51695
1.66552
1.73326
1.7819
1.90871
2.22698
4.56463
5.7651
2.64192
2.01052
1.7954
1.68046
1.59495
1.48331
1.37636
1.2731
1.18244
1.11137
1.05658
1.01529
0.987472
0.973697
0.974433
0.98994
1.02011
1.06394
1.11928
1.18487
1.26865
1.37269
1.49507
1.63723
1.79983
1.95256
2.03971
2.60348
6.26443
7.09494
2.92474
2.11026
1.89281
1.71045
1.56675
1.44127
1.33194
1.2366
1.1549
1.08883
1.03688
0.997941
0.972012
0.959479
0.960765
0.9762
1.00603
1.04982
1.10633
1.174
1.25565
1.354
1.46828
1.59915
1.75834
1.94188
2.16438
2.78064
6.86494
7.33756
2.97416
2.19565
1.89379
1.68067
1.51921
1.39898
1.29531
1.20514
1.12857
1.06618
1.01712
0.980625
0.95653
0.945082
0.9467
0.961836
0.991124
1.03477
1.09261
1.16381
1.24822
1.34552
1.45276
1.56892
1.71059
1.89376
2.1416
2.76203
6.60645
6.85567
2.87088
2.17758
1.8722
1.64593
1.48721
1.36674
1.2639
1.17604
1.10287
1.04386
0.997809
0.963762
0.941405
0.930907
0.932714
0.947434
0.976079
1.01949
1.07856
1.15368
1.24442
1.34761
1.45542
1.56019
1.67409
1.83353
2.08254
2.68487
5.74941
5.66934
2.75581
2.11766
1.84114
1.62355
1.46338
1.33913
1.23512
1.14868
1.0785
1.02277
0.97963
0.947913
0.927194
0.917615
0.919672
0.934131
0.962296
1.00556
1.0657
1.14415
1.24117
1.35369
1.47233
1.57391
1.65999
1.77528
1.99374
2.56506
4.72203
4.66266
2.55346
2.02645
1.81803
1.60973
1.44528
1.31473
1.20884
1.1239
1.05657
1.0038
0.963257
0.933628
0.914444
0.905862
0.908431
0.92307
0.951241
0.994707
1.05574
1.13665
1.23803
1.35483
1.48472
1.60512
1.67603
1.73252
1.87806
2.3214
3.89598
3.93628
2.26753
1.94452
1.77363
1.58878
1.42672
1.2909
1.18505
1.10236
1.03777
0.987519
0.949124
0.921246
0.903456
0.895954
0.899352
0.914696
0.943453
0.987443
1.04889
1.12994
1.23267
1.3582
1.48
1.6046
1.71107
1.73961
1.76562
2.03775
3.31037
3.32051
2.07413
1.86058
1.70213
1.5667
1.39781
1.26534
1.16343
1.08409
1.02216
0.973999
0.937267
0.910745
0.894117
0.887667
0.892074
0.908448
0.938153
0.982842
1.04428
1.12388
1.22382
1.35347
1.50275
1.60045
1.70276
1.76163
1.74312
1.81218
2.84411
3.35481
1.92884
1.75365
1.69659
1.5192
1.35857
1.23804
1.14338
1.06847
1.00925
0.962848
0.927366
0.901822
0.886045
0.880441
0.88577
0.903161
0.933907
0.979401
1.04077
1.11867
1.21478
1.33799
1.50098
1.65966
1.70038
1.75892
1.79485
1.81665
2.85361
3.64886
1.91836
1.72013
1.66215
1.45895
1.31691
1.2102
1.1243
1.0547
0.998691
0.954066
0.919501
0.894467
0.879092
0.873973
0.879977
0.898258
0.929989
0.976236
1.03757
1.11414
1.20704
1.32289
1.47465
1.65844
1.79606
1.7821
1.8203
1.91208
3.29589
4.18075
1.94888
1.68009
1.55578
1.39017
1.27282
1.18171
1.10615
1.0433
0.991183
0.948415
0.914365
0.889224
0.87365
0.868537
0.874895
0.893874
0.926575
0.973787
1.03554
1.11093
1.20019
1.30761
1.44196
1.6075
1.78304
1.89718
1.85119
2.12683
4.48609
4.10185
1.90717
1.58589
1.44443
1.32126
1.22931
1.15455
1.09112
1.03675
0.989487
0.948379
0.914042
0.887814
0.871218
0.865527
0.871869
0.891412
0.925269
0.973938
1.03656
1.11133
1.19621
1.29326
1.40787
1.54521
1.70297
1.85486
1.93978
2.28656
5.35708
3.77588
1.8148
1.48495
1.35314
1.26017
1.19016
1.13298
1.0839
1.03848
0.994492
0.953957
0.918504
0.890775
0.873033
0.866701
0.872883
0.892755
0.927556
0.977934
1.04261
1.11745
1.1986
1.28327
1.37709
1.48576
1.6119
1.75024
1.9046
2.30659
5.3353
3.26042
1.75793
1.40594
1.28044
1.20935
1.16043
1.12307
1.08818
1.05102
1.01075
0.969905
0.931627
0.900789
0.880873
0.873387
0.879346
0.899911
0.936412
0.989733
1.05817
1.13486
1.21211
1.28493
1.35619
1.43659
1.53351
1.65319
1.81937
2.23653
4.94229
2.76433
1.65277
1.33012
1.22253
1.17211
1.14648
1.12891
1.10793
1.08142
1.04259
0.997842
0.95542
0.920721
0.897584
0.888293
0.894082
0.916199
0.955643
1.01261
1.08486
1.16663
1.24318
1.30158
1.35515
1.40403
1.47052
1.56667
1.73044
2.16302
4.15306
2.37935
1.50201
1.25487
1.17749
1.15382
1.1535
1.1567
1.15142
1.12418
1.07735
1.02727
0.982643
0.944719
0.917853
0.90622
0.911898
0.936564
0.98046
1.0415
1.11404
1.1985
1.28139
1.33924
1.3753
1.39975
1.42535
1.4894
1.6245
2.01234
3.38224
2.0881
1.3517
1.18743
1.15148
1.16173
1.19181
1.21703
1.1934
1.14273
1.09367
1.04785
1.00598
0.964975
0.93407
0.919685
0.924929
0.951813
1.00014
1.06637
1.14032
1.21232
1.28786
1.36263
1.42054
1.42901
1.419
1.42421
1.50592
1.776
2.77095
1.85753
1.22315
1.14022
1.15779
1.21164
1.2748
1.2602
1.19945
1.14145
1.09781
1.06221
1.02108
0.977153
0.943222
0.926594
0.931017
0.958795
1.00917
1.07835
1.15846
1.22417
1.28505
1.35544
1.44037
1.49529
1.46029
1.40983
1.399
1.54354
2.33895
1.79186
1.16432
1.15022
1.22061
1.32056
1.33345
1.26455
1.20119
1.15058
1.11235
1.07915
1.03141
0.984789
0.949756
0.931811
0.935488
0.963067
1.01323
1.08173
1.16957
1.25341
1.30946
1.36109
1.43571
1.52875
1.55319
1.46117
1.37692
1.38756
2.1197
1.88982
1.20881
1.23977
1.37992
1.41856
1.34723
1.27863
1.22896
1.1893
1.1522
1.10346
1.04102
0.994708
0.960103
0.941635
0.944777
0.971764
1.02058
1.08593
1.16987
1.28953
1.38583
1.4141
1.45507
1.52348
1.60714
1.60369
1.44219
1.40538
2.1739
2.40632
1.40666
1.47626
1.58474
1.46845
1.38205
1.34442
1.31122
1.27897
1.21047
1.11694
1.05267
1.00985
0.97581
0.957016
0.959655
0.9858
1.03308
1.0952
1.17039
1.27897
1.42109
1.53614
1.56394
1.56739
1.61312
1.68754
1.63247
1.57255
2.65793
3.79391
1.86486
1.72238
1.64005
1.54128
1.52578
1.51233
1.43627
1.32742
1.21043
1.12156
1.06868
1.02687
0.992303
0.97307
0.975137
1.00021
1.04582
1.10582
1.17582
1.26861
1.39926
1.53285
1.66394
1.73694
1.70389
1.72433
1.77863
2.01519
4.1144
5.59644
2.38292
1.86354
1.77361
1.75673
1.68806
1.55886
1.43903
1.31821
1.20867
1.13458
1.08404
1.04
1.00433
0.984802
0.986592
1.01098
1.05555
1.11447
1.18248
1.26521
1.3737
1.49828
1.6262
1.75926
1.87781
1.90063
1.90426
2.37954
5.9005
6.74891
2.6385
2.06305
1.99135
1.82292
1.67035
1.5456
1.42368
1.30909
1.21454
1.14931
1.09711
1.04952
1.01195
0.991854
0.993575
1.01803
1.06286
1.12246
1.19041
1.26673
1.35702
1.46168
1.57474
1.70729
1.85398
1.99429
2.07244
2.56235
6.55436
6.82601
2.73031
2.16561
1.97892
1.79074
1.64045
1.52225
1.41199
1.31133
1.22957
1.16785
1.11146
1.05907
1.01868
0.99747
0.999133
1.0243
1.07091
1.13336
1.20365
1.27662
1.35624
1.44022
1.5359
1.64993
1.78738
1.94228
2.08489
2.58383
6.37251
6.42514
2.69353
2.13164
1.91628
1.74699
1.61713
1.51149
1.41545
1.32896
1.25883
1.19581
1.13219
1.07338
1.02929
1.00649
1.00795
1.03412
1.08367
1.15131
1.22755
1.30165
1.37233
1.44178
1.51465
1.60603
1.71937
1.85242
2.03176
2.53107
5.70849
5.53964
2.60959
2.05682
1.84629
1.70871
1.60322
1.5171
1.43992
1.37305
1.30868
1.23704
1.16206
1.09534
1.04697
1.02227
1.02338
1.05036
1.10279
1.17635
1.26199
1.34654
1.41683
1.46804
1.51884
1.57818
1.66002
1.76698
1.93879
2.43447
4.85007
4.7078
2.48194
1.97167
1.78392
1.67753
1.60509
1.54709
1.50079
1.45178
1.37664
1.2851
1.19728
1.12259
1.06946
1.04248
1.04305
1.07082
1.12522
1.20172
1.29362
1.39571
1.48773
1.53519
1.55372
1.57699
1.61388
1.68483
1.83046
2.26346
4.04168
3.8616
2.27394
1.85985
1.71845
1.65692
1.63015
1.62025
1.60269
1.53583
1.42962
1.32457
1.22939
1.14723
1.08896
1.05934
1.05917
1.08766
1.14359
1.22145
1.31035
1.4108
1.51949
1.61614
1.64075
1.60721
1.58964
1.60615
1.69478
2.01564
3.26755
3.12507
2.00045
1.7235
1.65648
1.66561
1.70576
1.73987
1.67831
1.5613
1.45117
1.35117
1.24936
1.16104
1.09909
1.06759
1.06672
1.09535
1.15179
1.23115
1.31912
1.40711
1.50805
1.63127
1.72675
1.6953
1.60509
1.55018
1.56203
1.74982
2.6708
2.61705
1.74656
1.60703
1.63436
1.72292
1.83102
1.8233
1.68279
1.56158
1.46588
1.36617
1.25624
1.16495
1.10201
1.06984
1.0686
1.09711
1.1534
1.23535
1.33082
1.41247
1.49741
1.60751
1.73756
1.79398
1.68411
1.55104
1.47659
1.54696
2.32329
2.41164
1.58674
1.5661
1.67573
1.85862
1.92911
1.81436
1.67705
1.58035
1.49488
1.37821
1.2583
1.16753
1.10552
1.07356
1.07215
1.10018
1.15537
1.23693
1.34518
1.43825
1.51111
1.59617
1.71186
1.84366
1.82666
1.62045
1.48175
1.47342
2.28623
2.4734
1.58511
1.61574
1.81104
2.01812
1.93778
1.79339
1.7006
1.63641
1.53462
1.3844
1.26325
1.17522
1.11509
1.0838
1.08223
1.10931
1.16256
1.24121
1.35224
1.48363
1.56243
1.61878
1.69782
1.82849
1.93721
1.78852
1.56636
1.52236
2.45098
2.83413
1.70515
1.77449
2.05282
2.06573
1.91871
1.82383
1.78596
1.71603
1.54956
1.3904
1.27539
1.19184
1.13454
1.10452
1.10272
1.12821
1.17855
1.25246
1.35657
1.50114
1.64264
1.70104
1.73084
1.81348
1.95238
2.00752
1.76474
1.71653
3.02239
3.77766
2.01035
2.03992
2.18066
2.04988
1.95298
1.93555
1.91541
1.74067
1.54979
1.4015
1.29404
1.21529
1.16137
1.13301
1.13088
1.15423
1.2011
1.27025
1.36603
1.5001
1.66879
1.82362
1.84399
1.85443
1.94455
2.07615
2.02791
2.07266
4.09942
5.08223
2.4508
2.25187
2.18017
2.08522
2.07454
2.0953
1.94267
1.72966
1.55046
1.4145
1.31455
1.24119
1.19136
1.16506
1.16253
1.1832
1.22581
1.28972
1.37806
1.49995
1.65939
1.84779
1.99291
1.98464
1.99116
2.08177
2.20271
2.50343
5.34313
6.61278
2.84978
2.32653
2.22614
2.20942
2.24908
2.12341
1.91252
1.71055
1.54808
1.4247
1.33317
1.26554
1.2195
1.19508
1.19216
1.21035
1.24907
1.30767
1.38813
1.49827
1.64389
1.82428
2.0169
2.15258
2.1306
2.14555
2.26187
2.83139
6.7302
7.48639
3.03707
2.42502
2.36615
2.37913
2.28307
2.07998
1.86654
1.68452
1.54132
1.43186
1.34807
1.28466
1.24074
1.21708
1.21392
1.23103
1.26781
1.3229
1.39664
1.4942
1.62347
1.78863
1.98399
2.17938
2.29097
2.29474
2.35861
2.95927
7.33206
7.46236
3.07268
2.50249
2.45314
2.39955
2.22391
2.00452
1.81126
1.65505
1.5335
1.4376
1.35969
1.29516
1.24656
1.21949
1.21655
1.23724
1.27889
1.33595
1.40519
1.49092
1.60112
1.74433
1.92282
2.12774
2.29695
2.36699
2.42494
2.98505
7.24714
7.02978
3.02527
2.47806
2.4061
2.29608
2.09677
1.90685
1.75033
1.62648
1.52726
1.44182
1.36056
1.28858
1.23607
1.20794
1.20529
1.22765
1.27354
1.33857
1.41277
1.48972
1.58005
1.69402
1.83914
2.01512
2.19899
2.31401
2.39796
2.93885
6.76934
6.43802
2.88086
2.369
2.2178
2.07964
1.93018
1.797
1.68867
1.60152
1.51979
1.43237
1.34313
1.26562
1.21245
1.18516
1.18286
1.20537
1.25283
1.32332
1.40566
1.48656
1.56167
1.64192
1.74202
1.86495
2.00171
2.13174
2.28918
2.7976
6.19991
5.5135
2.58648
2.12605
1.95105
1.84823
1.76093
1.68904
1.63276
1.57721
1.49584
1.39776
1.30666
1.23496
1.18636
1.16119
1.15922
1.18036
1.22432
1.29043
1.37499
1.46616
1.54061
1.59298
1.64517
1.7108
1.79044
1.88657
2.05371
2.50779
5.28861
4.15418
2.21153
1.82754
1.6972
1.64072
1.61145
1.59731
1.58377
1.53832
1.44525
1.34958
1.26768
1.20363
1.15997
1.1374
1.13576
1.15494
1.19478
1.25421
1.33016
1.41863
1.50346
1.54811
1.56188
1.57413
1.59937
1.65086
1.77443
2.14674
3.98311
2.92553
1.79782
1.53711
1.47335
1.47166
1.49739
1.52487
1.53136
1.47843
1.38663
1.30147
1.22917
1.17298
1.13451
1.11467
1.1133
1.1303
1.16558
1.21789
1.285
1.36331
1.44718
1.49864
1.49622
1.47002
1.44328
1.44236
1.50041
1.74793
2.82795
2.18278
1.43182
1.29617
1.30027
1.3517
1.42256
1.46934
1.46107
1.40533
1.32829
1.25437
1.19181
1.14342
1.11001
1.09258
1.09142
1.10647
1.13719
1.18229
1.24035
1.30808
1.3787
1.43149
1.44655
1.40235
1.33363
1.28173
1.2754
1.40456
2.14643
1.87648
1.20377
1.1411
1.19113
1.28222
1.37414
1.40521
1.37843
1.33401
1.27391
1.21015
1.15656
1.11469
1.08562
1.07049
1.06949
1.08261
1.10935
1.14835
1.198
1.25599
1.31179
1.35396
1.3852
1.36057
1.27136
1.18221
1.13253
1.1952
1.88025
1.84422
1.10975
1.07075
1.14161
1.2453
1.32208
1.32435
1.30832
1.27179
1.22458
1.17073
1.12402
1.08683
1.06114
1.04789
1.04703
1.05853
1.08219
1.11688
1.16011
1.20908
1.25427
1.29019
1.30846
1.31129
1.23948
1.13927
1.07094
1.11362
1.86364
1.93907
1.1118
1.06898
1.13665
1.2252
1.25545
1.25767
1.25183
1.21838
1.18063
1.13662
1.09375
1.05955
1.03644
1.02473
1.02404
1.03431
1.05573
1.08776
1.1277
1.16827
1.20509
1.23908
1.2467
1.2472
1.22169
1.1375
1.07238
1.11995
1.96957
2.25199
1.17212
1.09719
1.14844
1.19573
1.20213
1.20702
1.20246
1.17269
1.14502
1.10654
1.06479
1.03271
1.01181
1.0015
1.00102
1.01031
1.0299
1.06006
1.09918
1.1351
1.16257
1.19389
1.20041
1.19838
1.19507
1.15147
1.10386
1.18514
2.29336
2.66542
1.30118
1.16162
1.16764
1.1772
1.17395
1.17007
1.15955
1.13869
1.11745
1.07823
1.03724
1.00753
0.988904
0.979974
0.97972
0.988076
1.00578
1.03376
1.07215
1.10897
1.13096
1.15402
1.16687
1.1736
1.17995
1.17283
1.16997
1.31425
2.69822
3.24423
1.45874
1.22825
1.19328
1.18458
1.16861
1.14711
1.13197
1.12041
1.09453
1.05258
1.01414
0.987786
0.971609
0.964027
0.96401
0.971436
0.987084
1.01202
1.04792
1.08732
1.11413
1.12853
1.14596
1.17038
1.1892
1.20096
1.23787
1.47063
3.26689
4.21791
1.64945
1.31174
1.24657
1.21722
1.17704
1.13716
1.11898
1.10888
1.07617
1.0351
1.00214
0.980043
0.966199
0.959699
0.959936
0.966783
0.980605
1.00187
1.03275
1.07123
1.10442
1.11763
1.13783
1.18
1.22415
1.25714
1.32332
1.66169
4.23604
5.24014
1.82515
1.43236
1.3539
1.28585
1.19884
1.13698
1.10716
1.0926
1.06364
1.03201
1.00583
0.986041
0.972946
0.966639
0.967063
0.974085
0.987548
1.00714
1.03273
1.0626
1.09161
1.10795
1.13919
1.20336
1.29449
1.36681
1.44669
1.84113
5.2681
5.38612
2.05159
1.58318
1.49289
1.38471
1.25085
1.1524
1.10238
1.07652
1.05705
1.03848
1.01994
1.00082
0.986323
0.97874
0.979284
0.987848
1.00319
1.02311
1.04199
1.06001
1.07914
1.10598
1.15724
1.25755
1.3944
1.50759
1.60083
2.0705
5.42451
5.08463
2.22384
1.68387
1.59033
1.46318
1.29822
1.1835
1.11461
1.07137
1.05131
1.04202
1.02646
1.00459
0.986957
0.977692
0.978229
0.988512
1.00716
1.03035
1.04747
1.05653
1.07631
1.12061
1.19065
1.30609
1.4735
1.6064
1.70256
2.24264
5.12707
4.7901
2.15567
1.68193
1.6281
1.49778
1.31822
1.19418
1.12364
1.07068
1.04072
1.03282
1.01726
0.99446
0.974959
0.964273
0.964783
0.976524
0.997216
1.0215
1.03878
1.04687
1.07646
1.13124
1.20262
1.32767
1.51044
1.647
1.7011
2.17516
4.83755
4.50021
2.00301
1.63067
1.60016
1.4892
1.3159
1.18902
1.1122
1.05849
1.02368
1.00887
0.992557
0.972119
0.954804
0.945461
0.945948
0.956344
0.974948
0.996921
1.01461
1.02969
1.06486
1.11999
1.19807
1.32676
1.50415
1.62088
1.65094
2.02389
4.54891
3.82355
1.82917
1.51504
1.48784
1.41973
1.29178
1.17736
1.0971
1.04667
1.0132
0.992139
0.975173
0.958802
0.94576
0.93887
0.939319
0.947168
0.961327
0.978951
0.997011
1.01875
1.05314
1.10481
1.18695
1.30432
1.43728
1.50934
1.53494
1.84917
3.87123
2.95334
1.66849
1.42101
1.35282
1.29663
1.22747
1.15284
1.09339
1.05366
1.0223
0.999682
0.982773
0.968589
0.957986
0.952524
0.952934
0.95926
0.97083
0.986071
1.00397
1.02748
1.06005
1.10099
1.16237
1.24023
1.31213
1.36948
1.43652
1.68502
2.98652
2.74299
1.64213
1.41684
1.30689
1.23353
1.18925
1.15182
1.1164
1.09074
1.06657
1.04584
1.02859
1.01489
1.00549
1.00089
1.00123
1.00654
1.01672
1.0313
1.04948
1.07125
1.09676
1.12374
1.16044
1.19933
1.24487
1.31832
1.42946
1.65578
2.76594
2.94186
1.72555
1.46682
1.33989
1.26639
1.23281
1.20994
1.19952
1.18991
1.1746
1.15513
1.13525
1.11924
1.10874
1.10376
1.10401
1.10951
1.12059
1.13731
1.15809
1.17865
1.1952
1.20606
1.2172
1.24089
1.27522
1.34906
1.47716
1.73732
2.96044
3.98205
2.02541
1.63564
1.49856
1.44711
1.43254
1.41162
1.40279
1.39267
1.36914
1.34042
1.31393
1.29359
1.28043
1.27412
1.27426
1.28088
1.29441
1.31524
1.34248
1.37224
1.39693
1.40805
1.41697
1.43777
1.45297
1.5042
1.64169
2.03268
3.98385
7.80861
2.86524
2.08806
1.89155
1.82768
1.80491
1.75276
1.69713
1.64893
1.60011
1.55493
1.51802
1.49109
1.47396
1.4658
1.46593
1.47436
1.49184
1.5193
1.557
1.60336
1.6537
1.70355
1.76008
1.80989
1.83326
1.89433
2.08931
2.8639
7.7796
9.99351
3.52253
2.46555
2.17419
2.07114
2.01482
1.93982
1.86487
1.79598
1.73093
1.67527
1.63213
1.60149
1.5822
1.57307
1.57322
1.58271
1.60241
1.63364
1.67761
1.73445
1.80093
1.87143
1.94773
2.02373
2.07977
2.18083
2.47018
3.52785
10.0112
9.6392
3.59993
2.52854
2.19711
2.07458
2.01322
1.95669
1.89783
1.8215
1.74553
1.68319
1.63653
1.60393
1.58351
1.57384
1.574
1.58409
1.60501
1.63826
1.6858
1.7493
1.82649
1.90409
1.96478
2.0245
2.08357
2.20534
2.53474
3.60771
9.66931
8.14397
3.42287
2.44753
2.09974
1.95654
1.88846
1.84097
1.78264
1.71147
1.64275
1.58613
1.5434
1.51338
1.49447
1.48546
1.48565
1.4951
1.51453
1.54522
1.58881
1.64655
1.7166
1.78921
1.84886
1.89766
1.96489
2.1071
2.45372
3.43201
8.17616
6.80981
3.04515
2.26586
1.94727
1.79511
1.71467
1.66109
1.61048
1.55725
1.5063
1.46277
1.42872
1.40418
1.38847
1.3809
1.38109
1.38905
1.40522
1.43032
1.46507
1.50946
1.56139
1.61563
1.66703
1.72096
1.80118
1.95284
2.27143
3.05311
6.83036
5.86541
2.7008
2.05451
1.78073
1.63928
1.55903
1.50599
1.46184
1.41998
1.38114
1.34774
1.32119
1.30176
1.28918
1.28309
1.28326
1.2897
1.30267
1.32256
1.34967
1.38372
1.42326
1.46581
1.51047
1.56371
1.64385
1.78513