/*--------------------------------*- C++ -*----------------------------------*\
| =========                 |                                                 |
| \\      /  F ield         | OpenFOAM: The Open Source CFD Toolbox           |
|  \\    /   O peration     | Version:  v1606+                                |
|   \\  /    A nd           | Web:      www.OpenFOAM.com                      |
|    \\/     M anipulation  |                                                 |
\*---------------------------------------------------------------------------*/
FoamFile
{
    version     2.0;
    format      ascii;
    class       volVectorField;
    location    "2.4";
    object      ddt0(U);
}
// * * * * * * * * * * * * * * * * * * * * * * * * * * * * * * * * * * * * * //

dimensions      [0 1 -2 0 0 0 0];

internalField   nonuniform List<vector> 
11640
(
(-0.017014248924 -0.018050629692 0.0233940285224)
(-0.0508477592766 -0.0178526022568 0.0233840061374)
(-0.0834661828273 -0.0174394631151 0.022585377183)
(-0.113949332126 -0.016621144662 0.0213692681881)
(-0.141539951008 -0.0157793995987 0.019597545664)
(-0.165385756769 -0.0149112175493 0.0175626226969)
(-0.184559405256 -0.0140256675444 0.0152379987291)
(-0.19859138665 -0.0126632661589 0.0124850508806)
(-0.207240888253 -0.0110243768317 0.00944743515093)
(-0.210328743442 -0.00912403844827 0.00635289745327)
(-0.207975165671 -0.00752117922754 0.00342893091596)
(-0.20041287271 -0.00594042954981 0.000701136276192)
(-0.188114945463 -0.00438898056061 -0.00181560418554)
(-0.17171665487 -0.0028969354274 -0.00410117420914)
(-0.151782385878 -0.00149213267706 -0.00609930404553)
(-0.128748858299 -0.000305188174631 -0.00787814302452)
(-0.103159562648 0.00058706300956 -0.00939878530338)
(-0.0754104075784 0.00124856155907 -0.0104636638104)
(-0.0469401167727 0.00157832416704 -0.0111916029245)
(-0.0164746031188 0.00195145718186 -0.0117210492592)
(-0.0168366456943 -0.0528342411515 0.0227834153645)
(-0.0501689098013 -0.0524173358331 0.0236415536458)
(-0.0821756720191 -0.0518311801066 0.0239581189478)
(-0.112261378893 -0.0498879193179 0.0231202202531)
(-0.139813249093 -0.046942796757 0.0218296288394)
(-0.163640935402 -0.0433655274151 0.0203963099684)
(-0.182323776703 -0.0398214511338 0.0186195193504)
(-0.195610512601 -0.0361884717807 0.0152577028862)
(-0.203706917172 -0.0321262694462 0.0113199651473)
(-0.206844752697 -0.0276087858749 0.0070546941166)
(-0.204779497108 -0.022882464565 0.0038648944819)
(-0.197243326169 -0.0180384023802 0.00105073971359)
(-0.185006368252 -0.0134237549213 -0.00143894049095)
(-0.168733138024 -0.00902205220067 -0.0037159125958)
(-0.149080125803 -0.00498350161511 -0.00578206295284)
(-0.12655665321 -0.00157462991885 -0.00762011124461)
(-0.101471836976 0.00110280451721 -0.00911426490837)
(-0.0743424820901 0.00308261054046 -0.0101751497325)
(-0.0461731885707 0.00424290575679 -0.0106433289402)
(-0.0160700786788 0.00532403927199 -0.0117250017788)
(-0.0167234771504 -0.0856685643476 0.0220458319418)
(-0.049898293297 -0.0849874259894 0.0243108120589)
(-0.0809735500384 -0.0837343109477 0.0268025578239)
(-0.109085684308 -0.0804471092624 0.0266129865418)
(-0.135027663929 -0.0759584188958 0.0243352317102)
(-0.158259814355 -0.0704174908879 0.0210376525519)
(-0.177401734447 -0.0649792262826 0.0182009082897)
(-0.190975699647 -0.059622410625 0.0147726060671)
(-0.198723983154 -0.0536408155264 0.0112333666062)
(-0.201116187087 -0.0467388100054 0.00774308402421)
(-0.198396983969 -0.0389097663817 0.00440942830982)
(-0.19089655885 -0.0311446190969 0.0011860418762)
(-0.178999921859 -0.0234766990912 -0.00118447326611)
(-0.163114203542 -0.0162275792229 -0.00320025047335)
(-0.144126040195 -0.0096356257908 -0.00503546061498)
(-0.12245790711 -0.00413063152927 -0.00678008454189)
(-0.0982772992444 0.000208730094598 -0.00825961757553)
(-0.0720146636173 0.00339984530066 -0.00939825577691)
(-0.0445254062105 0.00552929993235 -0.00996845022972)
(-0.0153677898901 0.00713137012058 -0.0110207868872)
(-0.0162354596091 -0.117123038821 0.020915499389)
(-0.0483178370039 -0.115902790007 0.0236975463825)
(-0.0776830525104 -0.112842928923 0.0268377936487)
(-0.104469090393 -0.107712986533 0.0257558703125)
(-0.129736364295 -0.102106346638 0.0232289297258)
(-0.152571533923 -0.0964704182898 0.0198199340636)
(-0.171557679259 -0.0903222021112 0.0174683288241)
(-0.184461924807 -0.0840305049392 0.0139036531966)
(-0.191026945239 -0.0755786535259 0.0107709997921)
(-0.192312050495 -0.0652263197763 0.00744059016419)
(-0.189388000797 -0.0539072900199 0.00403436015616)
(-0.181964783264 -0.0435059796976 0.00110947163588)
(-0.170220088888 -0.0332884689012 -0.00110809853006)
(-0.154997384192 -0.0234687726562 -0.00263410561897)
(-0.137047224989 -0.0147308089908 -0.00423951959672)
(-0.116738222089 -0.00740635453566 -0.00577333168425)
(-0.0938763508602 -0.00166053703554 -0.00714317113342)
(-0.0688059879209 0.00249089501979 -0.00832792015462)
(-0.0422639245883 0.00525756765453 -0.009062932303)
(-0.0144659264472 0.00712732088808 -0.00992505095368)
(-0.0155761625458 -0.149172167714 0.0191804046322)
(-0.0456910193881 -0.145717100607 0.0222932042742)
(-0.0727850316166 -0.140985766887 0.0260950345761)
(-0.0981105501517 -0.134414041033 0.0237147774467)
(-0.123336116695 -0.127559853878 0.0214345385388)
(-0.145981559514 -0.121099046114 0.019050057394)
(-0.164784267083 -0.113283330338 0.0162752681258)
(-0.176376039361 -0.105169666608 0.0111916951281)
(-0.180372123208 -0.0952029948637 0.00786739568247)
(-0.180006386943 -0.0824356238487 0.00522362590111)
(-0.177243209135 -0.0675293663067 0.00156496367366)
(-0.170902822675 -0.0526612147338 -0.000519884814383)
(-0.159613289934 -0.0416038418785 -0.00200595803376)
(-0.145252747719 -0.0302500635132 -0.00275696609927)
(-0.128770650465 -0.0202562993694 -0.00346891265169)
(-0.109962677335 -0.0117445216171 -0.00474745087322)
(-0.0886909830543 -0.00503029228279 -0.00595537773213)
(-0.065094907756 -0.000177713454184 -0.00705725416702)
(-0.0397338484717 0.0030140674027 -0.00782700283348)
(-0.0134917849073 0.00487991564527 -0.00860967607305)
(-0.0128254707289 -0.173026679256 0.016250472408)
(-0.0400244093282 -0.169314806658 0.0182132587162)
(-0.0659790445639 -0.164148839304 0.0225767458353)
(-0.0901321726472 -0.157770950805 0.0212363104381)
(-0.114968364774 -0.150477418263 0.0204961342886)
(-0.137058226118 -0.142389334067 0.0185481610398)
(-0.155366415095 -0.133570857453 0.0161411628056)
(-0.166279742307 -0.129700579285 0.0126122738469)
(-0.16894522977 -0.118497560433 0.00798007081725)
(-0.165470961394 -0.104325668337 0.00345398542586)
(-0.160466973498 -0.0877798476363 0.000103350168885)
(-0.156931229536 -0.0703945362164 -0.0024162167809)
(-0.148862916068 -0.0531898128226 -0.00218150631424)
(-0.134776570879 -0.0366109178408 -0.00284743096395)
(-0.11986494955 -0.0256611928308 -0.00319724306451)
(-0.102784358841 -0.0168418510065 -0.0037513387358)
(-0.083127775197 -0.00990438551829 -0.00469249410404)
(-0.0610521548214 -0.0048693743439 -0.00577155383075)
(-0.0371453097252 -0.001526880093 -0.00656537393428)
(-0.0125690420828 0.000274197510267 -0.00712054862855)
(-0.0118854362987 -0.188305468437 0.0138071013389)
(-0.0365139321723 -0.185822113116 0.0154017230187)
(-0.0601923297132 -0.180247629181 0.0190244638092)
(-0.0824827182841 -0.174341969198 0.0182543416328)
(-0.105516613702 -0.165189529699 0.0157585938714)
(-0.12740625233 -0.153625244013 0.0127698683333)
(-0.151467993662 -0.142085894795 0.0110167076998)
(-0.160583881325 -0.145954031785 0.00357680425629)
(-0.156072184351 -0.126815990352 -0.00017649225079)
(-0.150310053874 -0.0990827468018 -0.00502815651046)
(-0.144524080143 -0.0725384041153 -0.00513510473179)
(-0.137560789831 -0.0493221917888 -0.00512479766244)
(-0.127465797033 -0.0311861330958 -0.00766771209687)
(-0.119624147621 -0.0346610797027 -0.00461824782008)
(-0.111038653558 -0.0296034104229 -0.00357553861525)
(-0.0960270554387 -0.0225663016068 -0.0033442416992)
(-0.0779609037151 -0.0164246818926 -0.00387580556741)
(-0.0573091690765 -0.0115869134887 -0.00464366699043)
(-0.0347154615256 -0.0084200765999 -0.0052950755854)
(-0.0116696950155 -0.00676087962259 -0.0057597569016)
(-0.0103416627303 -0.202622247425 0.0110886737275)
(-0.0315172256274 -0.199559611749 0.0121534791473)
(-0.0530729187813 -0.193119618265 0.014229338783)
(-0.0728042650124 -0.185949549128 0.016499778381)
(-0.0918346712945 -0.176665053965 0.0154671058272)
(-0.112777816107 -0.164484297537 0.016971003729)
(-0.148428554114 -0.152604084704 0.0223619642825)
(-0.151527883672 -0.150843112349 0.0130275051845)
(-0.123997578328 -0.128759904558 0.00450225187591)
(-0.113215632031 -0.0979051262413 0.00779916554543)
(-0.112176177773 -0.0695865476969 0.00747193241036)
(-0.117052289787 -0.0447713478672 0.0091724714905)
(-0.133154646749 -0.0306304009479 0.0033241369888)
(-0.13168485147 -0.03908637365 -0.00466726583573)
(-0.108777161051 -0.0355524696886 -0.00342716296607)
(-0.0911871785736 -0.0299445428777 -0.00269092381061)
(-0.0734187089347 -0.0247415533438 -0.00289708770616)
(-0.0538151516338 -0.020368190464 -0.00374278339764)
(-0.0326282899476 -0.0173625371709 -0.00417975696607)
(-0.0109753806911 -0.0159535253184 -0.00430494356956)
(-0.00876679306147 -0.212382288633 0.00831571144673)
(-0.0264910666406 -0.209358136915 0.00915505329408)
(-0.0448496824929 -0.20340811344 0.0100002375339)
(-0.06332964429 -0.195587716707 0.0110113479297)
(-0.0812215774448 -0.18727447431 0.0128475859508)
(-0.101686908926 -0.178259943407 0.0159846990672)
(-0.138017856912 -0.169441680679 0.0227592241965)
(-0.137207618324 -0.152051573317 0.0144738386072)
(-0.103119992817 -0.133714094294 0.00857519567495)
(-0.0907764842945 -0.112900685651 0.00578892505196)
(-0.0914102025267 -0.0924279020189 -4.7753919245e-05)
(-0.0993733728296 -0.074559075303 0.00407321232266)
(-0.121669857786 -0.0624209709256 0.00511802788468)
(-0.125178469168 -0.0529370845569 -0.00458001609702)
(-0.103876152215 -0.0453270717004 -0.00318751017708)
(-0.0868693263292 -0.0394685524748 -0.00221536408207)
(-0.0697842857466 -0.0345682720926 -0.00239366288967)
(-0.0508394519835 -0.0306651441924 -0.00284861840081)
(-0.030693838101 -0.0280026537177 -0.00341868204041)
(-0.0103632725884 -0.0265521723731 -0.00326886195463)
(-0.00726141919403 -0.216986906494 0.00555721034149)
(-0.0220162452844 -0.214027145741 0.00629069878674)
(-0.0376201321222 -0.208587256568 0.0068730435639)
(-0.0538915405413 -0.201247146495 0.00749683106096)
(-0.0713928375672 -0.191778791762 0.00846508651346)
(-0.0936844051729 -0.18154809742 0.0135704369953)
(-0.12290338239 -0.167162370141 0.0202222715011)
(-0.11682497521 -0.146900256713 0.0151570288241)
(-0.0855462109508 -0.133542639048 0.0132324654481)
(-0.0721107807388 -0.118056668655 0.0084554793687)
(-0.073614706627 -0.0973979397372 0.00480082514353)
(-0.0860816000486 -0.0844514824706 0.00654200690769)
(-0.10991111019 -0.0762436987421 0.00955714199557)
(-0.115243402753 -0.0653902239085 -0.00335879407804)
(-0.0972598723909 -0.0569126478049 -0.00248704189796)
(-0.0822084348508 -0.0506074375871 -0.0018071689486)
(-0.0661022609176 -0.045633337271 -0.00213319367705)
(-0.0482226815757 -0.0417860284635 -0.00257397000526)
(-0.0289411113229 -0.0393634102463 -0.00283108001108)
(-0.0096467621435 -0.0378773979104 -0.0027306784301)
(-0.00576954044595 -0.216452570478 0.00288044486465)
(-0.0175950482095 -0.213495470566 0.00355389450344)
(-0.0304188038441 -0.208218255177 0.00404416207885)
(-0.0438976765514 -0.20081630762 0.00452211194908)
(-0.0583531125229 -0.190764367969 0.00494517270003)
(-0.0757430963813 -0.176334477941 0.00611445224803)
(-0.103949993708 -0.152057708866 0.00814752252457)
(-0.104162238124 -0.113785506681 0.00175398283423)
(-0.0740980534422 -0.0970512952121 -0.000576391847419)
(-0.0544176024859 -0.0900935125006 -0.00909723284975)
(-0.057900305645 -0.0905952396962 -0.000531835819092)
(-0.077633549566 -0.0901557613639 0.00433154396144)
(-0.102192059088 -0.0892278358853 0.00885094367243)
(-0.107337916687 -0.0765360800742 -0.00225445597118)
(-0.0913401018448 -0.0680791465492 -0.00187307775586)
(-0.0776368878728 -0.0617128625785 -0.00167465085865)
(-0.062641740557 -0.0566550889979 -0.00216447040088)
(-0.0456474644319 -0.0528399723467 -0.00265498706382)
(-0.0272737334564 -0.0503748076473 -0.00286073521151)
(-0.00903121480282 -0.0489760012467 -0.00263439545138)
(-0.00432695681912 -0.210843069966 0.000242949109285)
(-0.0133122055468 -0.208002588911 0.000889795272849)
(-0.0233093613948 -0.203011834427 0.00128037736486)
(-0.0337357408547 -0.19603972921 0.00165869571496)
(-0.0440281182309 -0.18679181837 0.00228101749327)
(-0.054264715188 -0.17433805926 0.00432124708358)
(-0.0609530763837 -0.156158565723 0.00847408529366)
(-0.063885106147 -0.124099627008 0.0190677468307)
(-0.0620421303367 -0.108145317776 0.0209623776524)
(-0.0634469493643 -0.105593230446 0.0150026404158)
(-0.0708836318879 -0.113434074018 0.00654191079922)
(-0.0824874547068 -0.115764191016 0.0042337379048)
(-0.0961339899335 -0.10704841074 0.00590729698951)
(-0.0955433704063 -0.0898902123718 0.000864805186518)
(-0.0848149642855 -0.0796243726987 -0.000737341229412)
(-0.0729184741284 -0.0723219636273 -0.00170577678965)
(-0.0590413153893 -0.0666894674016 -0.00249504105983)
(-0.0431229768082 -0.0626732907042 -0.00311908699825)
(-0.0256586875974 -0.0600836712933 -0.00333034873315)
(-0.00840425288748 -0.0586147351122 -0.00292691656798)
(-0.00297237465507 -0.200319298749 -0.00227973072173)
(-0.00934081834995 -0.197672369135 -0.00168679806025)
(-0.0168642282914 -0.193120760435 -0.00140881150543)
(-0.0249210228193 -0.186862897337 -0.00123650541363)
(-0.033433567622 -0.178867463715 -0.00107997748543)
(-0.0427113737471 -0.169232523548 -0.000935576010453)
(-0.0516569027675 -0.157178199592 -0.00242357212182)
(-0.0556958743094 -0.145606548196 -0.00639620380617)
(-0.0544790730665 -0.134907936814 -0.0029783658541)
(-0.0586227326585 -0.132129175938 0.00221420509708)
(-0.0674803913034 -0.127346540325 0.00390037803636)
(-0.0711638076217 -0.122464785049 0.00506521364712)
(-0.076952321593 -0.110724194828 0.00103471152567)
(-0.0814470371261 -0.0968601012906 -0.000912448483329)
(-0.0762652382912 -0.0870074659361 -0.00187341479199)
(-0.0669921605881 -0.0795713664757 -0.00267339022502)
(-0.0549284915274 -0.0739118775293 -0.00344280576879)
(-0.040321821664 -0.0698150695608 -0.00401668402591)
(-0.0239319996124 -0.0672353738517 -0.00423281465832)
(-0.00778564383142 -0.0657460218623 -0.00360992021685)
(-0.00176072660238 -0.185022546383 -0.00461239178639)
(-0.00583249313946 -0.18269857254 -0.00409828180129)
(-0.0111801902889 -0.178646962989 -0.00379869250951)
(-0.0172126310367 -0.173103399454 -0.00362645753285)
(-0.0237332767518 -0.166113251129 -0.00329090734202)
(-0.0305666239721 -0.157500271366 -0.00262086698546)
(-0.0364998437355 -0.146743523516 -0.00128555705118)
(-0.0411304646798 -0.134502365975 0.00142999600513)
(-0.047692902757 -0.125308895299 0.00447483913652)
(-0.0552019751069 -0.121079276629 0.00229532588568)
(-0.0607927931904 -0.115214198286 0.00176223153476)
(-0.0659856522743 -0.108597464068 0.0011112779773)
(-0.071161451452 -0.104549665834 -0.00023088962286)
(-0.0729191198544 -0.0961384145533 -0.00179871140938)
(-0.069329345312 -0.0882326528758 -0.00292764175299)
(-0.0618025355768 -0.0818168055932 -0.00381822555971)
(-0.0510590048498 -0.0767868248419 -0.00462228209432)
(-0.0376258411641 -0.0730504696954 -0.00522852520829)
(-0.0222617191834 -0.0706735128897 -0.00547558625671)
(-0.00715013497001 -0.0693042544652 -0.00456508604889)
(-0.000711181115593 -0.165239301454 -0.00674444722145)
(-0.00289148581846 -0.163275641573 -0.00620350226926)
(-0.00644878871328 -0.159848712139 -0.00586357395658)
(-0.0107734114276 -0.15510408235 -0.00554580668995)
(-0.015829270869 -0.149236419489 -0.00519407621578)
(-0.0214908363763 -0.14227866993 -0.00464361679888)
(-0.0271838544407 -0.134410377935 -0.00395879167267)
(-0.0331744817525 -0.126855788042 -0.00313043097609)
(-0.0404641031948 -0.120755398376 -0.00283708048018)
(-0.0484423072477 -0.113954116055 -0.00278506023811)
(-0.0552838061183 -0.107834982322 -0.00228300962078)
(-0.0606590490764 -0.102710713329 -0.00252328326323)
(-0.064759282348 -0.0972247845694 -0.00264706642069)
(-0.0659516833207 -0.0907569452976 -0.00350980652531)
(-0.0633495587977 -0.0845671305451 -0.00442369585506)
(-0.0571035469009 -0.0792473517471 -0.00525070936112)
(-0.0475749956629 -0.0749763484365 -0.00602629481355)
(-0.0350975541236 -0.0718007404398 -0.00672323407296)
(-0.0206888230573 -0.0697746699344 -0.00691156181323)
(-0.0066067049404 -0.0686286827922 -0.00567788282928)
(0.000139161673501 -0.141409791079 -0.00865310151295)
(-0.000478150516714 -0.139814370703 -0.00798926375177)
(-0.00264776128076 -0.13701038363 -0.00754603580833)
(-0.0057362014118 -0.133154351619 -0.00714737746211)
(-0.00975955429234 -0.128410978182 -0.006621674152)
(-0.0147654125312 -0.122936424752 -0.00603445403128)
(-0.0205824036324 -0.117015820243 -0.00534975695744)
(-0.0273159166259 -0.11135794906 -0.00463072388079)
(-0.0346509398462 -0.106197172791 -0.00401722960484)
(-0.0421038561144 -0.100669041119 -0.00373909087083)
(-0.0494379910415 -0.0950938993081 -0.00378700962732)
(-0.0553739978272 -0.0903193047465 -0.00339216760527)
(-0.0592650303109 -0.0855119165722 -0.00400171422243)
(-0.0606204199048 -0.0806330920342 -0.00479864515787)
(-0.0586094634695 -0.0759565990115 -0.00573182857424)
(-0.0531955614278 -0.0718615294703 -0.00667045526943)
(-0.0444838268958 -0.0684584277768 -0.0075423538585)
(-0.0328488369241 -0.0659319197308 -0.00824067256267)
(-0.0193285300569 -0.0643676499326 -0.00828461603092)
(-0.00616568104391 -0.0635031937706 -0.0068998690812)
(0.000794907977582 -0.114078916166 -0.010194380536)
(0.00140027659139 -0.112792835562 -0.00953156583246)
(0.000322744699656 -0.110561633846 -0.00895500588893)
(-0.0018551954017 -0.107535255914 -0.00840239680334)
(-0.00516859062442 -0.103922522736 -0.0077837380412)
(-0.00968552646006 -0.099740066576 -0.00706885413609)
(-0.0153599965889 -0.0953038169828 -0.00632754457679)
(-0.0222666869191 -0.0909305669051 -0.00560654780655)
(-0.0297545663506 -0.0862815609238 -0.00497891703825)
(-0.037345908974 -0.0819404372834 -0.00488826064824)
(-0.0449471049934 -0.0776874626654 -0.00529825591917)
(-0.0511168504184 -0.0738934752203 -0.00474058340315)
(-0.0551246345112 -0.0702055383168 -0.00528755013159)
(-0.0566378107619 -0.0665160557379 -0.00612932249324)
(-0.0550453937742 -0.0630778045134 -0.00706492884871)
(-0.050133125562 -0.060047856536 -0.00800725276016)
(-0.0420115953829 -0.057529122569 -0.00887290589889)
(-0.0310819792254 -0.0557020058178 -0.00948507761669)
(-0.0183061381266 -0.0546432949778 -0.00947188780297)
(-0.0058567403472 -0.0541828885143 -0.00806345791607)
(0.00131238355516 -0.0838702422908 -0.0112891004287)
(0.00285220845904 -0.082928728425 -0.0107177603685)
(0.00255642816207 -0.0810172335332 -0.0101658010853)
(0.000987610790405 -0.0787592374281 -0.00953825382048)
(-0.00184411841832 -0.0763878407977 -0.00869508286885)
(-0.00609072003062 -0.0737936989393 -0.00782622933501)
(-0.0117939293138 -0.0705485796394 -0.00694291306379)
(-0.0183521993135 -0.067234765506 -0.00633432562415)
(-0.0257144773945 -0.0637214682367 -0.00582020247615)
(-0.0335887497631 -0.0606650457315 -0.00577880670329)
(-0.0415364536702 -0.0577428981666 -0.00648776642782)
(-0.0480402244639 -0.054555754261 -0.00568468662794)
(-0.052035675715 -0.0517652565812 -0.00620945656805)
(-0.0537322388564 -0.0491097579538 -0.00706269727376)
(-0.0524387551667 -0.0466855435833 -0.00801181565653)
(-0.0479024771682 -0.0445763970027 -0.0089460219939)
(-0.0402629774263 -0.0429045878869 -0.00979629514587)
(-0.0299044842838 -0.0417447748566 -0.0103750110926)
(-0.017726123107 -0.0412001011137 -0.0103690035262)
(-0.00572391193514 -0.0411920275681 -0.00906389370161)
(0.00162757096675 -0.0521484154603 -0.0119847313412)
(0.00403044535445 -0.0525006670376 -0.0116169081731)
(0.00432896241989 -0.0526580399889 -0.0115231239902)
(0.00269114786247 -0.0518161031677 -0.010956130404)
(-0.000231831173211 -0.0498400448783 -0.00968386477391)
(-0.00387092759391 -0.0473495389138 -0.00801694237854)
(-0.008864579633 -0.0449559336308 -0.00669640871319)
(-0.0155285649711 -0.0423824890806 -0.00616907241025)
(-0.023254411035 -0.0394803012085 -0.00621251893993)
(-0.0314458687046 -0.0374656754291 -0.0061527701474)
(-0.038980912081 -0.0354217448194 -0.00582181240918)
(-0.0452788448784 -0.0330086277961 -0.00597721948922)
(-0.0498068634882 -0.0311038987272 -0.00655905875145)
(-0.0517464389351 -0.0293820328044 -0.00737198388686)
(-0.0507200005932 -0.0278806521028 -0.00829445429813)
(-0.0465338202525 -0.026625535053 -0.00923904442133)
(-0.0392990568026 -0.0256987506145 -0.010036029918)
(-0.0293682125123 -0.025168578528 -0.0106086956036)
(-0.0176598803585 -0.0251358626175 -0.0107428152004)
(-0.00577241346875 -0.0256395020036 -0.0097998877642)
(0.000855687142576 -0.0181621924738 -0.0122690399189)
(0.00217696590268 -0.018898292823 -0.011790815262)
(0.00316664310542 -0.0200165759109 -0.010766425632)
(0.00380708098076 -0.0201311104515 -0.00997492879223)
(0.00266304669268 -0.0189959317861 -0.00967273932663)
(-0.00111283068558 -0.0173355161293 -0.00958318447516)
(-0.00667800814861 -0.01635396604 -0.00943038525259)
(-0.0127162959582 -0.0152835318404 -0.00879433633446)
(-0.0206483995464 -0.0136734286121 -0.00841082632547)
(-0.0293642051653 -0.0128198594913 -0.00620968940471)
(-0.0369130490657 -0.0117564551698 -0.00554128506337)
(-0.0435896966165 -0.0109718333806 -0.00549573656039)
(-0.0482606536343 -0.010220287987 -0.00585315549767)
(-0.0504277748617 -0.00957022027272 -0.00644865334146)
(-0.0496581732 -0.00906265893752 -0.00719884637131)
(-0.0457210634179 -0.00866229632707 -0.00800669426942)
(-0.0388425909515 -0.00837527125473 -0.00879393125099)
(-0.0293529041972 -0.00825105939434 -0.00946407404736)
(-0.0181377331359 -0.00831806113148 -0.00994482291439)
(-0.00605585157699 -0.0086276493137 -0.0101800098088)
(-0.0171573517505 -0.0185716993272 0.0693313470482)
(-0.0514355046773 -0.0185507381335 0.0690944981769)
(-0.0848688422869 -0.0175641341357 0.0667081138477)
(-0.11596595464 -0.0165185767883 0.0626263601156)
(-0.144067743695 -0.0152837809162 0.0571965767355)
(-0.168273019699 -0.0139316031407 0.0509355702363)
(-0.187948061597 -0.0126262341128 0.0439356982991)
(-0.202506676012 -0.01160560337 0.0360098313494)
(-0.211350643976 -0.0105042597963 0.0274076585619)
(-0.214368357224 -0.009363371326 0.0186379870657)
(-0.21176847115 -0.00788801552392 0.0100283759417)
(-0.203916141359 -0.00631844782112 0.00187334925226)
(-0.191314044787 -0.00471490162334 -0.00565719452878)
(-0.174580122945 -0.00318330615345 -0.0124849823956)
(-0.15430325882 -0.00180815835454 -0.0184714085885)
(-0.130974129821 -0.000653587637091 -0.0236851825554)
(-0.104905231054 0.000283032584637 -0.0280221244337)
(-0.0766276922041 0.000987916342598 -0.0312514489368)
(-0.0477470519708 0.00158057509759 -0.0334355193578)
(-0.0168603203123 0.00186642150818 -0.0349860842923)
(-0.0171924183388 -0.0537497969938 0.067395140554)
(-0.0505323939729 -0.0528756023489 0.0672219958082)
(-0.0829608985501 -0.0502361736069 0.0658418267705)
(-0.113936226975 -0.0476587248642 0.0627862910626)
(-0.141860362293 -0.0449744055699 0.058664639746)
(-0.16606013093 -0.0421664454027 0.0534182202115)
(-0.186082985116 -0.0388661712685 0.0469359709241)
(-0.200806532941 -0.0355217610681 0.0384992463859)
(-0.209550616527 -0.0316675576093 0.0292885349104)
(-0.212183341252 -0.0274027123842 0.0196200008738)
(-0.209142139548 -0.0228946851132 0.0108652387535)
(-0.20114267365 -0.0183263849404 0.0026626842678)
(-0.188565042789 -0.0135625546657 -0.00475101181454)
(-0.172019948255 -0.00897894654882 -0.0114186929453)
(-0.152072752084 -0.00488050423892 -0.0173671523875)
(-0.129109429912 -0.00147699810761 -0.0225929989971)
(-0.103449654692 0.00122374008741 -0.0269272660314)
(-0.0755611761459 0.00317752747896 -0.0300986512776)
(-0.0475466285115 0.004605376637 -0.0318072756792)
(-0.0170400087889 0.00578045190641 -0.034585392172)
(-0.0163012496662 -0.0869600516907 0.0647338601761)
(-0.0480412372439 -0.0853285699405 0.0664188065804)
(-0.0798987002278 -0.0821752369864 0.0670922003937)
(-0.111038507194 -0.0790168775337 0.0646611356341)
(-0.139055200008 -0.0752629063368 0.0599388552657)
(-0.162738383123 -0.0707458044082 0.0537627811881)
(-0.181946056873 -0.0654823908232 0.0468308970551)
(-0.19599774192 -0.060150504474 0.0384497576142)
(-0.203826209247 -0.0536085670511 0.0293608160683)
(-0.206105695298 -0.0460871567029 0.0201078817261)
(-0.203175493043 -0.0384469565907 0.0111802745367)
(-0.195061171394 -0.0307669250052 0.00289932651601)
(-0.182428792039 -0.0230429859806 -0.00406079122073)
(-0.166315021913 -0.0154649848795 -0.0100269031378)
(-0.147121573857 -0.00879568912851 -0.0154733328647)
(-0.125064627843 -0.00324381729741 -0.0203361403464)
(-0.100341825719 0.00110036427138 -0.0244774323767)
(-0.0733601665802 0.00420740578303 -0.0276642996587)
(-0.0459707725326 0.00622936976643 -0.0294016449948)
(-0.0163791733128 0.0082852331672 -0.0325100381326)
(-0.0154844941174 -0.119052406481 0.0608011758167)
(-0.0456610313339 -0.117484751649 0.0632382652741)
(-0.0768796224766 -0.113495925094 0.0647101326621)
(-0.107464591277 -0.109633459377 0.0624801516781)
(-0.134181422595 -0.10364603947 0.0578114549149)
(-0.156829973094 -0.0968720417666 0.0515229769728)
(-0.175893725853 -0.0902796128261 0.0446375137018)
(-0.18926093773 -0.0848040429377 0.0368268098965)
(-0.195755881269 -0.0761843473075 0.0283925047848)
(-0.19719379402 -0.0654058236916 0.0192726259663)
(-0.193999055739 -0.0547021701283 0.0102557788387)
(-0.185968321583 -0.0438695902131 0.00236451422437)
(-0.173472972946 -0.033378281993 -0.004070831277)
(-0.157927051949 -0.0227528940195 -0.00869324811966)
(-0.139953780084 -0.0135657406564 -0.0133955941931)
(-0.119225672813 -0.00613037297016 -0.0176515615789)
(-0.0958997698023 -0.000396222464156 -0.021362116316)
(-0.0702792653454 0.0037341708416 -0.0244520325975)
(-0.0436751377363 0.00640117184588 -0.02650411087)
(-0.0153839194156 0.00868544377584 -0.0290646200176)
(-0.0145979090678 -0.152254847628 0.0555560391612)
(-0.0424280096863 -0.149584010288 0.058561596689)
(-0.0725720454765 -0.143846948716 0.0601066385726)
(-0.10209882225 -0.136764544483 0.0576689902616)
(-0.127404400938 -0.127323041665 0.0529864411777)
(-0.150280518069 -0.118322825678 0.0471604177911)
(-0.170400294891 -0.109987177638 0.0403459441748)
(-0.182232267385 -0.102167231997 0.0328294326336)
(-0.184832301622 -0.0938053324812 0.0238113380752)
(-0.184835486021 -0.0824268925608 0.0149290867634)
(-0.18184864169 -0.0675874507549 0.00593911547305)
(-0.173932482867 -0.0526988408675 -0.000815985513085)
(-0.161545882264 -0.0403182000859 -0.00584604017914)
(-0.146737321102 -0.0288212301336 -0.00827591856941)
(-0.130775824817 -0.0187757033731 -0.0116283934091)
(-0.112113893891 -0.0101003120188 -0.0147994293456)
(-0.0905498684506 -0.00352571023551 -0.0178896309766)
(-0.066500990869 0.00123980233061 -0.0208185509415)
(-0.041129464339 0.00439206262464 -0.0228945501006)
(-0.0143662371996 0.00667827855938 -0.0248813261501)
(-0.0126266946065 -0.176633796946 0.0484301828019)
(-0.0372840123732 -0.174223216164 0.0504504154922)
(-0.0649452857055 -0.16874361583 0.0535826598093)
(-0.0925669426894 -0.159869998057 0.0523815341892)
(-0.117675248693 -0.150348374541 0.04815614059)
(-0.140789260212 -0.14019419018 0.0428033089058)
(-0.160304120482 -0.130216169983 0.0359780734199)
(-0.172655935715 -0.126453791645 0.0248891995864)
(-0.175893640419 -0.116826581621 0.0176751867996)
(-0.171089471387 -0.105830912024 0.0089946406424)
(-0.164603487994 -0.0876194231976 0.00198537392368)
(-0.158856844589 -0.0700426619574 -0.00434469772275)
(-0.149799416571 -0.0542166554632 -0.00607903645313)
(-0.136652949315 -0.0361356479884 -0.00713411636841)
(-0.121727860246 -0.0249976618462 -0.00955764792027)
(-0.104471318319 -0.0155724433608 -0.0116804294946)
(-0.0849350786974 -0.00859099418719 -0.0143381754153)
(-0.0625042963102 -0.00357687624193 -0.0169801712825)
(-0.0384873531096 -0.000212974602492 -0.0190850301429)
(-0.0133432630946 0.00207889969087 -0.0203312250298)
(-0.0119141075645 -0.191785067383 0.0406591168446)
(-0.0345230794804 -0.190159518714 0.0424116504701)
(-0.059368184543 -0.18537309573 0.0448474802897)
(-0.0858723036179 -0.17503055126 0.0439284774335)
(-0.110139538357 -0.163283355681 0.0401180202485)
(-0.131547353875 -0.147196624525 0.0332391123987)
(-0.156299486003 -0.129954268336 0.0265947692175)
(-0.166418511902 -0.138652992047 0.00743723283417)
(-0.163039001194 -0.124000071735 0.000589462433442)
(-0.155094528276 -0.0934759872522 -0.00679737854216)
(-0.145784308993 -0.065957063773 -0.00794154145483)
(-0.140612090522 -0.0408941820542 -0.0126151625676)
(-0.128446296347 -0.0262808675486 -0.0235432119768)
(-0.117726659369 -0.0339402619456 -0.00885732137547)
(-0.110587127012 -0.0290042980205 -0.00891563308517)
(-0.0964436795969 -0.0217045940817 -0.00913259785431)
(-0.0792746990123 -0.0152905122091 -0.0113173982636)
(-0.0585522965113 -0.0105103148052 -0.0134280525875)
(-0.0359538810594 -0.00726203780737 -0.0152807810958)
(-0.0124465399964 -0.0049757084643 -0.0161773834556)
(-0.0106983717398 -0.206294177407 0.032696530968)
(-0.0308688964876 -0.203905162373 0.0342413362403)
(-0.0511751616946 -0.198620800515 0.0363698391348)
(-0.0727975177773 -0.187968872148 0.0375511120369)
(-0.0922742982605 -0.172664565524 0.036703324943)
(-0.108294354202 -0.154050830775 0.0404692573236)
(-0.148932884289 -0.135462835836 0.0335582275965)
(-0.162869858982 -0.136524619208 -0.038243857001)
(-0.131190520274 -0.117772767089 -0.023934404035)
(-0.114193134024 -0.0867590485758 -0.0066074168309)
(-0.113490893317 -0.0632213726916 0.00758419414496)
(-0.120528042749 -0.0368937761086 0.0268536643201)
(-0.139811031811 -0.0214706130894 0.0470746177357)
(-0.137506467992 -0.0357797775455 -0.00329673131065)
(-0.108736284166 -0.0341900789957 -0.00591104487685)
(-0.0913856104373 -0.0288862051137 -0.00657229637517)