/*--------------------------------*- C++ -*----------------------------------*\
| =========                 |                                                 |
| \\      /  F ield         | OpenFOAM: The Open Source CFD Toolbox           |
|  \\    /   O peration     | Version:  v1606+                                |
|   \\  /    A nd           | Web:      www.OpenFOAM.com                      |
|    \\/     M anipulation  |                                                 |
\*---------------------------------------------------------------------------*/
FoamFile
{
    version     2.0;
    format      ascii;
    class       volScalarField;
    location    "0.3";
    object      k;
}
// * * * * * * * * * * * * * * * * * * * * * * * * * * * * * * * * * * * * * //

dimensions      [0 2 -2 0 0 0 0];

internalField   nonuniform List<scalar> 
2268
(
0.00614268
0.011004
0.0172094
0.0225383
0.0271317
0.0314716
0.0357742
0.040112
0.0444611
0.0487344
0.0528038
0.0565125
0.0596804
0.062104
0.0635498
0.0636741
0.0626095
0.0604975
0.0571266
0.0526221
0.0470778
0.0377141
0.0284123
0.00943338
0.0234094
0.0359368
0.0462338
0.0552849
0.0637609
0.0720215
0.080202
0.0882658
0.0960649
0.103386
0.109978
0.11558
0.119943
0.122875
0.124253
0.123755
0.121944
0.119758
0.118504
0.117524
0.105534
0.0568762
0.0111957
0.0297375
0.0442752
0.0568059
0.0680597
0.0786393
0.0889029
0.0989816
0.108832
0.118294
0.127142
0.135114
0.141947
0.147423
0.151429
0.154033
0.155354
0.155923
0.156312
0.157177
0.157574
0.145912
0.0838524
0.0130064
0.0339212
0.0497301
0.0635703
0.0762261
0.088216
0.0998399
0.111195
0.122225
0.13277
0.142608
0.151494
0.159192
0.165535
0.170501
0.174313
0.177402
0.180497
0.183967
0.187486
0.188706
0.178471
0.109612
0.0144959
0.0371932
0.0538069
0.0684772
0.0821188
0.0951691
0.107844
0.120192
0.132135
0.143515
0.154127
0.163751
0.172193
0.179344
0.185267
0.190305
0.195082
0.200499
0.206911
0.213417
0.216343
0.208385
0.130372
0.0156484
0.0397777
0.0569589
0.0722105
0.0865943
0.100484
0.114013
0.127174
0.139871
0.151949
0.163222
0.173501
0.182641
0.190592
0.197493
0.203771
0.21017
0.217704
0.226829
0.236497
0.242389
0.238266
0.150845
0.0165278
0.0417312
0.0593667
0.0750941
0.0900872
0.104673
0.118914
0.132759
0.146096
0.158775
0.170633
0.181518
0.191332
0.200086
0.207979
0.215494
0.223442
0.232892
0.244475
0.257305
0.267406
0.269528
0.17287
0.0171688
0.0431375
0.0611543
0.0773248
0.0928609
0.108047
0.122896
0.137324
0.151211
0.164417
0.176803
0.188252
0.198721
0.208276
0.217164
0.225893
0.23529
0.246454
0.260185
0.275917
0.290951
0.301945
0.200435
0.00709713
0.0159092
0.020405
0.0232033
0.0249826
0.0258072
0.025496
0.0244404
0.022901
0.0211118
0.0193335
0.0177908
0.0164196
0.0151318
0.0138766
0.0124655
0.0106359
0.00805309
0.00543246
0.0190604
0.0371316
0.044365
0.0491197
0.0520239
0.0530089
0.0524202
0.0506065
0.0479183
0.0447296
0.0413805
0.0381906
0.0353242
0.0326898
0.0300483
0.0270829
0.0232851
0.0178465
0.0090167
0.0278318
0.051832
0.0601862
0.0651924
0.0678094
0.0683721
0.0672235
0.0646983
0.0611893
0.0571207
0.0528756
0.048802
0.0451253
0.041761
0.0384376
0.0347467
0.0300541
0.0233038
0.0112739
0.0360686
0.0648682
0.0738356
0.0787677
0.0808961
0.0807801
0.0788664
0.0755347
0.0712161
0.066355
0.0613443
0.0565503
0.0522132
0.0482565
0.0444032
0.0401953
0.0349159
0.0273111
0.0130498
0.0444016
0.0779245
0.0873888
0.0921571
0.0936816
0.0926239
0.0896692
0.0853222
0.0800687
0.0743562
0.0685631
0.0630735
0.0581015
0.0535758
0.0492245
0.044561
0.0388054
0.0305274
0.0145048
0.0533184
0.0918661
0.102281
0.106825
0.107449
0.105029
0.10061
0.0949193
0.0885115
0.0818132
0.0751655
0.0689576
0.063334
0.0582251
0.0533685
0.048261
0.0420705
0.0332092
0.0157327
0.0635935
0.108029
0.120855
0.124804
0.123728
0.11908
0.112446
0.104877
0.0969721
0.0890754
0.0814749
0.0744911
0.068177
0.0624539
0.05707
0.0515091
0.0448942
0.0355002
0.016796
0.0797515
0.132891
0.148486
0.150014
0.14503
0.136323
0.126079
0.115714
0.105767
0.096363
0.0876849
0.0798376
0.0727805
0.0664046
0.0604691
0.0544383
0.0473961
0.0374996
0.0177354
0.0177851
0.0443558
0.0628307
0.0796491
0.0959493
0.11195
0.127608
0.14281
0.157434
0.171361
0.184487
0.19676
0.208214
0.219012
0.229477
0.240147
0.251823
0.265419
0.281919
0.301252
0.322429
0.341434
0.280192
0.0184663
0.045176
0.0641524
0.0818065
0.0990263
0.11593
0.132431
0.148413
0.163776
0.178443
0.192362
0.205548
0.218134
0.230383
0.242668
0.255445
0.26928
0.284672
0.302206
0.321673
0.34167
0.357468
0.343396
0.0192418
0.0457572
0.0652128
0.0837021
0.101806
0.119515
0.136706
0.153284
0.169198
0.184423
0.198961
0.212878
0.226371
0.239784
0.253507
0.267867
0.283168
0.299594
0.31709
0.335356
0.352885
0.366797
0.36889
0.0204175
0.0463209
0.0663208
0.0858821
0.105036
0.123558
0.141334
0.158355
0.174666
0.190323
0.205387
0.219961
0.234275
0.248702
0.263652
0.279362
0.295949
0.313367
0.331199
0.349047
0.365581
0.378805
0.385148
0.022766
0.0467432
0.0676257
0.0890155
0.109598
0.128955
0.147196
0.164533
0.181156
0.197219
0.212856
0.228215
0.243519
0.259093
0.275365
0.292638
0.311034
0.330406
0.350148
0.369297
0.386696
0.400275
0.407658
0.0281445
0.0481324
0.0709185
0.0950256
0.117114
0.137102
0.155634
0.173217
0.190168
0.206713
0.223078
0.23951
0.256237
0.273453
0.291472
0.311031
0.332476
0.355659
0.37991
0.403562
0.424227
0.43841
0.443433
0.0378842
0.0549577
0.081148
0.107014
0.129618
0.14963
0.16815
0.185819
0.202984
0.219902
0.236945
0.25454
0.272962
0.292135
0.312624
0.335499
0.361232
0.389894
0.421084
0.453398
0.482215
0.499274
0.496072
0.0480991
0.0756257
0.102266
0.125534
0.144166
0.162489
0.180127
0.197196
0.213996
0.230757
0.247697
0.265197
0.283834
0.303664
0.325365
0.349151
0.374991
0.403044
0.432972
0.463705
0.493405
0.519042
0.533221
0.0554542
0.1032
0.128194
0.142028
0.155691
0.171237
0.187226
0.203004
0.218514
0.233865
0.249184
0.26474
0.281109
0.298958
0.318546
0.339673
0.362132
0.386046
0.411677
0.439207
0.468324
0.496996
0.523199
0.0547742
0.105759
0.134088
0.148779
0.162694
0.177705
0.193139
0.208354
0.223112
0.237419
0.251415
0.265388
0.279844
0.295386
0.312383
0.33083
0.350624
0.37183
0.394765
0.420063
0.448621
0.480351
0.510837
0.051598
0.0991467
0.128768
0.148313
0.164984
0.18098
0.196617
0.211706
0.226095
0.239783
0.252921
0.265816
0.278932
0.29281
0.307894
0.324415
0.342482
0.362234
0.383971
0.408282
0.436058
0.467496
0.499176
0.0513767
0.0954194
0.124709
0.146299
0.164658
0.181548
0.197524
0.212639
0.226841
0.240147
0.252706
0.264816
0.276912
0.289509
0.303106
0.3181
0.334807
0.353526
0.374622
0.398595
0.426023
0.45675
0.487808
0.052333
0.0948781
0.123087
0.144759
0.163454
0.180531
0.196472
0.21137
0.225208
0.238013
0.249919
0.261198
0.272255
0.283586
0.295719
0.309159
0.324372
0.341798
0.361872
0.384999
0.411429
0.44064
0.469983
0.053613
0.0957944
0.122834
0.143752
0.16196
0.178605
0.194053
0.208365
0.221518
0.233528
0.244512
0.254716
0.264513
0.274384
0.284871
0.296534
0.309922
0.325543
0.343833
0.365061
0.389169
0.415409
0.441654
0.0547304
0.0970763
0.123048
0.142972
0.160332
0.176176
0.190794
0.204208
0.21638
0.227311
0.237101
0.245974
0.254283
0.262498
0.271169
0.28088
0.292204
0.305655
0.321614
0.340204
0.361134
0.383583
0.40624
0.055449
0.0980511
0.123134
0.142113
0.158544
0.173438
0.187051
0.199388
0.210398
0.220073
0.228503
0.2359
0.242611
0.249103
0.25593
0.263684
0.272935
0.284173
0.297728
0.313656
0.331619
0.350965
0.371446
0.055683
0.0983423
0.122731
0.14092
0.156479
0.170418
0.18299
0.1942
0.203998
0.212377
0.219423
0.225349
0.230502
0.235356
0.240469
0.246435
0.253815
0.263084
0.274575
0.288414
0.304466
0.322499
0.343268
0.0553835
0.0977966
0.121652
0.139184
0.153976
0.167034
0.178622
0.188758
0.197408
0.204567
0.21033
0.214915
0.218678
0.222096
0.225736
0.230191
0.236022
0.243713
0.253668
0.266203
0.281555
0.300001
0.322841
0.0544236
0.0963651
0.119758
0.136761
0.150905
0.163194
0.173909
0.183088
0.190714
0.196805
0.201466
0.204923
0.207535
0.209785
0.212243
0.215501
0.22013
0.226652
0.235576
0.247457
0.262936
0.282737
0.308222
0.0528919
0.0940752
0.116999
0.133544
0.147141
0.158779
0.168755
0.177132
0.183916
0.189141
0.192925
0.195501
0.197232
0.198597
0.200162
0.202521
0.206261
0.211956
0.220225
0.231832
0.247755
0.269064
0.296998
0.0509019
0.0910188
0.113421
0.129532
0.14265
0.153737
0.163105
0.170839
0.176967
0.181538
0.18468
0.186628
0.187738
0.188485
0.189426
0.191161
0.19429
0.199425
0.207263
0.218726
0.235036
0.257511
0.287212
0.0485807
0.0873404
0.109138
0.124806
0.137479
0.14809
0.156957
0.164188
0.169829
0.173943
0.17666
0.178212
0.178943
0.179311
0.179862
0.181191
0.183911
0.188661
0.196185
0.207478
0.22388
0.246885
0.27744
0.0460625
0.0832224
0.104321
0.119507
0.131742
0.141919
0.150365
0.157203
0.162497
0.166318
0.168797
0.170153
0.170712
0.170907
0.171265
0.172367
0.174826
0.179288
0.186503
0.197468
0.21354
0.23632
0.266863
0.0434801
0.0788681
0.0991744
0.113827
0.125604
0.135364
0.143436
0.149958
0.155008
0.158663
0.161048
0.162367
0.162921
0.163113
0.163439
0.164457
0.166764
0.170991
0.177863
0.188317
0.203646
0.225476
0.255092
0.0409553
0.0744849
0.0939193
0.107979
0.119266
0.128603
0.136322
0.142573
0.147444
0.151017
0.15341
0.154806
0.155479
0.155795
0.156213
0.157255
0.159489
0.163514
0.169999
0.179786
0.194028
0.214273
0.242008
0.0385905
0.0702667
0.0887742
0.102187
0.112945
0.121839
0.129203
0.135199
0.139925
0.143462
0.145921
0.147465
0.148335
0.14886
0.149452
0.150593
0.152809
0.156651
0.162718
0.171729
0.184651
0.202837
0.227817
0.0364637
0.0663806
0.083939
0.0966635
0.106855
0.115278
0.122272
0.128009
0.132594
0.13611
0.138656
0.140377
0.141481
0.142257
0.143069
0.144351
0.146577
0.150246
0.155878
0.164061
0.175548
0.191414
0.213026
0.0346275
0.0629586
0.0795828
0.0915973
0.101192
0.109119
0.11572
0.12118
0.125609
0.129091
0.131717
0.133609
0.134949
0.135981
0.137023
0.138457
0.140702
0.1442
0.149392
0.15674
0.166789
0.180294
0.198297
0.033114
0.0600952
0.0758384
0.0871429
0.0961251
0.103532
0.109718
0.114876
0.119124
0.122543
0.125218
0.127253
0.128799
0.130064
0.131319
0.13289
0.135146
0.138466
0.143222
0.149765
0.158451
0.16973
0.184252
0.0319446
0.057854
0.0728015
0.0834172
0.0917834
0.0986576
0.104408
0.109239
0.113273
0.116593
0.119275
0.121407
0.123113
0.124568
0.125995
0.127674
0.129917
0.13305
0.13738
0.143167
0.150616
0.159914
0.171336
0.031143
0.0562799
0.0705374
0.0805006
0.0882591
0.0945951
0.0998958
0.104377
0.108166
0.111347
0.113987
0.116163
0.117975
0.119564
0.121115
0.122859
0.125061
0.127995
0.131914
0.137007
0.143366
0.150978
0.159799
0.0307492
0.0554145
0.069092
0.0784433
0.0856074
0.0914054
0.0962466
0.100359
0.103875
0.106878
0.109431
0.111597
0.113457
0.115124
0.116746
0.118512
0.120642
0.123365
0.126891
0.131358
0.136781
0.143006
0.149747
0.0308322
0.0553112
0.0685029
0.0772733
0.0838532
0.0891135
0.0934885
0.097217
0.100436
0.103229
0.105652
0.107759
0.109615
0.111306
0.11295
0.114698
0.116729
0.119234
0.122386
0.126292
0.130923
0.136037
0.141182
0.031499
0.0560452
0.0688088
0.0770042
0.0829966
0.0877143
0.091615
0.0949465
0.0978481
0.100402
0.10266
0.104667
0.106472
0.108143
0.109769
0.111467
0.11338
0.115663
0.118463
0.121867
0.125827
0.130065
0.134024
0.0329024
0.057716
0.0700496
0.0776362
0.0830162
0.0871754
0.0905897
0.0935106
0.0960767
0.0983672
0.10043
0.102303
0.104024
0.10564
0.107218
0.108845
0.110631
0.1127
0.115173
0.118124
0.121508
0.125046
0.128138
0.0352516
0.0604395
0.0722549
0.0791483
0.0838656
0.0874387
0.0903495
0.0928454
0.0950597
0.097067
0.0989112
0.100623
0.10223
0.103766
0.105277
0.106825
0.108489
0.110363
0.112542
0.115089
0.117969
0.120926
0.123365
0.0388314
0.0643285
0.0754179
0.08148
0.0854631
0.0884154
0.0908046
0.0928625
0.0947115
0.096419
0.0980238
0.0995511
0.101022
0.102459
0.103892
0.105361
0.10692
0.108633
0.110568
0.112772
0.115212
0.117664
0.119571
0.0440073
0.069463
0.0794624
0.0845096
0.0876801
0.0899815
0.0918381
0.0934517
0.0949273
0.0963223
0.0976697
0.0989907
0.100301
0.101618
0.10296
0.104352
0.105827
0.107424
0.109184
0.111129
0.113216
0.115239
0.116679
0.0511779
0.0758482
0.0842069
0.0880392
0.0903365
0.0919788
0.0933096
0.0944863
0.0955898
0.0966648
0.0977384
0.0988282
0.0999484
0.101112
0.102335
0.103634
0.105031
0.106548
0.108205
0.110001
0.111872
0.113598
0.114661
0.0607652
0.0833422
0.0893275
0.0917905
0.0932095
0.0942267
0.0950686
0.0958365
0.096583
0.0973389
0.0981242
0.0989539
0.0998414
0.1008
0.101846
0.102997
0.104272
0.105692
0.107272
0.109006
0.110821
0.112479
0.113417
0.0735009
0.0914171
0.0943106
0.0954053
0.0960453
0.0965327
0.0969611
0.0973739
0.0977962
0.0982448
0.0987327
0.0992715
0.0998732
0.100552
0.101323
0.102208
0.103231
0.104419
0.105803
0.107399
0.109179
0.110959
0.112195
0.0913686
0.0984227
0.0984555
0.0985035
0.0986023
0.0987169
0.0988384
0.0989692
0.0991139
0.0992775
0.0994652
0.0996828
0.0999371
0.100237
0.100593
0.10102
0.101536
0.102167
0.102947
0.10392
0.10513
0.106584
0.108078
0.253326
0.220217
0.180812
0.143907
0.317387
0.292975
0.275278
0.263272
0.358876
0.344149
0.326767
0.310248
0.382763
0.37687
0.366919
0.353405
0.40734
0.404434
0.398594
0.389406
0.441565
0.438274
0.433164
0.425833
0.489365
0.483961
0.478223
0.471433
0.532918
0.530966
0.528965
0.525755
0.533266
0.538503
0.543449
0.549308
0.524815
0.533269
0.540565
0.547327
0.516055
0.527057
0.536137
0.543623
0.505344
0.517381
0.527596
0.536037
0.487421
0.500102
0.511726
0.522333
0.458498
0.471873
0.485867
0.500945
0.422843
0.437634
0.455515
0.477763
0.389449
0.407113
0.430656
0.462317
0.364343
0.385518
0.414654
0.454891
0.347137
0.370398
0.40206
0.446006
0.334819
0.358018
0.38848
0.430553
0.325106
0.347036
0.374141
0.410378
0.316334
0.337099
0.360716
0.389869
0.307195
0.327404
0.348674
0.372741
0.296937
0.316851
0.33656
0.356643
0.28499
0.304782
0.323883
0.341829
0.270872
0.290376
0.3095
0.327207
0.254518
0.273126
0.292158
0.310536
0.236467
0.253304
0.27139
0.289964
0.217773
0.232078
0.248119
0.265547
0.199626
0.211054
0.224305
0.239348
0.182945
0.191598
0.201901
0.214019
0.16823
0.174481
0.182111
0.191393
0.155646
0.159958
0.165366
0.172209
0.145157
0.147977
0.151631
0.156495
0.136604
0.138326
0.14065
0.143968
0.129747
0.130695
0.13205
0.134201
0.124309
0.124728
0.125401
0.126699
0.120035
0.120085
0.120276
0.120956
0.116743
0.116501
0.116322
0.116528
0.114354
0.113837
0.113315
0.113097
0.112856
0.112092
0.111224
0.110563
0.111848
0.111116
0.11012
0.10913
0.108589
0.108498
0.108097
0.107598
0.147411
0.193352
0.217664
0.207456
0.189077
0.168841
0.149823
0.133399
0.119452
0.10742
0.0969995
0.087799
0.0796099
0.0722466
0.0654526
0.0586637
0.0509414
0.040293
0.0190579
0.243095
0.249327
0.294075
0.324138
0.30082
0.249744
0.203349
0.16815
0.143027
0.124818
0.110649
0.0989075
0.0887947
0.0798524
0.0716918
0.0637002
0.0549342
0.043276
0.0204967
0.285414
0.280337
0.297769
0.34211
0.384314
0.372026
0.300599
0.230062
0.180028
0.148221
0.127003
0.111285
0.0985961
0.0877716
0.0780143
0.0686473
0.0586956
0.0459637
0.0218114
0.325003
0.305518
0.305055
0.327906
0.370843
0.41357
0.407339
0.329223
0.243168
0.184373
0.148922
0.126146
0.109628
0.096392
0.0847676
0.0738302
0.0625159
0.0485688
0.0230658
0.36678
0.341001
0.32543
0.328721
0.353592
0.394181
0.428982
0.415264
0.331784
0.240941
0.180933
0.145371
0.122669
0.106045
0.09216
0.0794485
0.0665971
0.0512568
0.0243284
0.408432
0.383364
0.35991
0.347547
0.35371
0.379048
0.414984
0.436128
0.402904
0.313036
0.226702
0.171573
0.138881
0.117076
0.100287
0.0855681
0.0710325
0.0541259
0.0256417
0.456535
0.432954
0.405823
0.382387
0.371881
0.379925
0.403937
0.430696
0.429876
0.372717
0.282196
0.206922
0.15925
0.129758
0.10913
0.0921206
0.0757968
0.0571967
0.0270146
0.514019
0.49161
0.462026
0.429529
0.40455
0.395611
0.404751
0.424689
0.43496
0.404395
0.329334
0.245696
0.183232
0.144035
0.118523
0.0989154
0.0807529
0.0604118
0.0284354
0.555851
0.547466
0.523928
0.482525
0.444917
0.420902
0.415352
0.424723
0.43498
0.418911
0.360603
0.279766
0.207861
0.159076
0.128073
0.105652
0.0856763
0.0636471
0.0298735
0.557725
0.564997
0.564234
0.530032
0.484307
0.448685
0.430809
0.429898
0.43581
0.425514
0.379305
0.305695
0.230055
0.173572
0.137196
0.11196
0.0902942
0.066735
0.0312862
0.554178
0.565047
0.581898
0.562876
0.515105
0.47278
0.446171
0.436918
0.437477
0.428669
0.390576
0.324306
0.248307
0.186351
0.145277
0.117462
0.0943356
0.0694989
0.0326219
0.548035
0.560475
0.583822
0.578759
0.534648
0.490036
0.458313
0.443204
0.439149
0.430147
0.397609
0.337447
0.262265
0.196578
0.151774
0.121839
0.0975781
0.0717881
0.0338324
0.53953
0.556996
0.579233
0.582555
0.545071
0.500541
0.466284
0.44767
0.440482
0.431086
0.402554
0.346644
0.271931
0.203703
0.156299
0.124881
0.0998869
0.0735049
0.0348826
0.529632
0.558303
0.578881
0.582464
0.549727
0.505419
0.470349
0.450218
0.441616
0.432562
0.406872
0.352608
0.277244
0.207469
0.15871
0.126548
0.101243
0.0746199
0.0357519
0.525053
0.571072
0.587491
0.582717
0.54999
0.506262
0.471643
0.451487
0.443169
0.435678
0.410955
0.354993
0.278194
0.208072
0.159209
0.127005
0.101753
0.0751731
0.0364338
0.533177
0.603257
0.611094
0.58796
0.549563
0.506384
0.472691
0.452967
0.445627
0.440182
0.413062
0.353124
0.27551
0.206407
0.158409
0.126622
0.101622
0.0752537
0.0369334
0.546526
0.651386
0.655499
0.606167
0.555009
0.510311
0.477407
0.457235
0.448446
0.44164
0.410014
0.347745
0.271173
0.204035
0.157222
0.12588
0.101092
0.0749622
0.037259
0.547488
0.704499
0.725561
0.645533
0.573697
0.520733
0.487348
0.467669
0.452367
0.43695
0.402138
0.341691
0.267893
0.202723
0.156568
0.125205
0.100352
0.0743676
0.0374133
0.52986
0.736987
0.81663
0.70976
0.60872
0.538666
0.498194
0.481134
0.459769
0.433677
0.396458
0.339325
0.268397
0.203903
0.157045
0.124805
0.099456
0.0734755
0.0373864
0.496306
0.720541
0.892124
0.789222
0.657273
0.564997
0.509244
0.483858
0.466517
0.437621
0.399044
0.344554
0.274608
0.208173
0.158673
0.124553
0.0982894
0.0722206
0.037156
0.455406
0.656508
0.922052
0.883658
0.719744
0.601494
0.526693
0.487186
0.468486
0.445143
0.40892
0.357513
0.286002
0.214652
0.160706
0.123966
0.0965891
0.070492
0.0366946
0.420681
0.572112
0.834182
0.959598
0.796665
0.64825
0.552745
0.498302
0.471377
0.452662
0.422603
0.374316
0.299017
0.22083
0.16171
0.122334
0.094042
0.068189
0.0359839
0.391594
0.499033
0.698009
0.940426
0.872462
0.701558
0.585637
0.51637
0.47997
0.462229
0.438117
0.389712
0.308293
0.223305
0.160048
0.118998
0.090437
0.0652934
0.0350294
0.368357
0.438716
0.576619
0.77387
0.884658
0.761191
0.623331
0.538874
0.492479
0.473061
0.453556
0.400215
0.310021
0.219646
0.154722
0.1137
0.085808
0.0619221
0.0338689
0.350547
0.396666
0.480849
0.621338
0.78344
0.788466
0.662624
0.562908
0.505573
0.480453
0.463014
0.403349
0.30281
0.209409
0.145872
0.106746
0.0804721
0.0583202
0.0325665
0.334519
0.37114
0.41931
0.499228
0.61382
0.704494
0.684369
0.586009
0.517141
0.483243
0.462078
0.395245
0.286238
0.193624
0.134593
0.0989016
0.0749541
0.0548012
0.0311978
0.315542
0.352828
0.388297
0.428977
0.489538
0.56747
0.607663
0.573644
0.51459
0.478945
0.450693
0.374865
0.262028
0.175209
0.122779
0.0912272
0.0698459
0.0516169
0.0299568
0.29113
0.33082
0.367578
0.398354
0.428317
0.466245
0.504624
0.512398
0.489512
0.462475
0.426289
0.339656
0.231965
0.156633
0.111943
0.0846039
0.0656324
0.0490259
0.0289196
0.262625
0.300917
0.339046
0.372324
0.399014
0.421246
0.443416
0.45697
0.452488
0.430076
0.380393
0.289878
0.19934
0.139051
0.102484
0.0792261
0.0624045
0.0470513
0.0280582
0.233555
0.266661
0.300782
0.332425
0.359189
0.379797
0.39542
0.403136
0.396963
0.369988
0.31434
0.236776
0.169037
0.123663
0.0946347
0.0750773
0.0600923
0.0456346
0.0273438
0.206908
0.23351
0.260758
0.286021
0.307413
0.324306
0.33514
0.33694
0.325527
0.296328
0.247997
0.191382
0.144271
0.111153
0.0884044
0.0719869
0.0585166
0.0446633
0.0267484
0.184086
0.204628
0.225147
0.243484
0.258285
0.269253
0.2743
0.271298
0.257771
0.232048
0.196091
0.157796
0.125656
0.101488
0.0835953
0.0697131
0.0574613
0.0440108
0.0262478
0.16533
0.180848
0.195917
0.20869
0.218418
0.224299
0.224961
0.219237
0.206188
0.185847
0.160485
0.134626
0.112205
0.0942004
0.0799166
0.0680165
0.0567319
0.0435667
0.0258231
0.150357
0.161888
0.172824
0.181598
0.187791
0.19042
0.188724
0.18221
0.170795
0.155149
0.137011
0.118834
0.102538
0.0887293
0.0770851
0.0667038
0.0561844
0.0432503
0.0254607
0.138686
0.147114
0.154951
0.160973
0.164693
0.165423
0.162731
0.156475
0.146906
0.134772
0.121297
0.107873
0.0955232
0.0846009
0.0748738
0.0656414
0.0557306
0.0430121
0.0251516
0.129745
0.135808
0.141304
0.145336
0.147371
0.146997
0.143985
0.138351
0.130419
0.120828
0.110435
0.10009
0.0903748
0.0814617
0.0731185
0.0647491
0.055328
0.0428268
0.0248902
0.122929
0.127218
0.130996
0.133525
0.134398
0.133374
0.130342
0.125372
0.118765
0.111021
0.102743
0.0944781
0.0865653
0.0790563
0.0717075
0.0639862
0.0549642
0.0426851
0.0246727
0.117665
0.120593
0.123072
0.124485
0.124574
0.123196
0.120291
0.115938
0.110381
0.103996
0.0972118
0.090389
0.083725
0.0772001
0.0705668
0.0633356
0.0546427
0.0425855
0.0244962
0.113487
0.115251
0.116657
0.11723
0.116822
0.115314
0.112648
0.108877
0.104181
0.0988364
0.0931473
0.0873573
0.0815793
0.0757563
0.0696462
0.0627914
0.0543719
0.0425286
0.0243581
0.110138
0.110633
0.110981
0.11087
0.110176
0.108723
0.106402
0.10322
0.0992922
0.0948138
0.0899971
0.0850066
0.0799039
0.0746145
0.0689067
0.0623495
0.0541563
0.0425095
0.0242537
0.10781
0.106344
0.105493
0.10482
0.103996
0.102711
0.100793
0.0982015
0.0949988
0.0913087
0.0872703
0.082986
0.0784788
0.0736617
0.0683111
0.0620163
0.054018
0.0425356
0.0241804
0.106891
0.102568
0.100775
0.0997648
0.0988692
0.0976814
0.0960219
0.0938415
0.0911724
0.088091
0.0846809
0.0809941
0.0770179
0.0726471
0.0676552
0.0616376
0.0538465
0.0425423
0.0241159
)
;

boundaryField
{
    leftWall
    {
        type            kqRWallFunction;
        value           nonuniform List<scalar> 
50
(
0.00614268
0.00943338
0.0111957
0.0130064
0.0144959
0.0156484
0.0165278
0.0171688
0.0177851
0.0184663
0.0192418
0.0204175
0.022766
0.0281445
0.0378842
0.0480991
0.0554542
0.0547742
0.051598
0.0513767
0.052333
0.053613
0.0547304
0.055449
0.055683
0.0553835
0.0544236
0.0528919
0.0509019
0.0485807
0.0460625
0.0434801
0.0409553
0.0385905
0.0364637
0.0346275
0.033114
0.0319446
0.031143
0.0307492
0.0308322
0.031499
0.0329024
0.0352516
0.0388314
0.0440073
0.0511779
0.0607652
0.0735009
0.0913686
)
;
    }
    rightWall
    {
        type            kqRWallFunction;
        value           nonuniform List<scalar> 
50
(
0.00543246
0.0090167
0.0112739
0.0130498
0.0145048
0.0157327
0.016796
0.0177354
0.0190579
0.0204967
0.0218114
0.0230658
0.0243284
0.0256417
0.0270146
0.0284354
0.0298735
0.0312862
0.0326219
0.0338324
0.0348826
0.0357519
0.0364338
0.0369334
0.037259
0.0374133
0.0373864
0.037156
0.0366946
0.0359839
0.0350294
0.0338689
0.0325665
0.0311978
0.0299568
0.0289196
0.0280582
0.0273438
0.0267484
0.0262478
0.0258231
0.0254607
0.0251516
0.0248902
0.0246727
0.0244962
0.0243581
0.0242537
0.0241804
0.0241159
)
;
    }
    lowerWall
    {
        type            kqRWallFunction;
        value           nonuniform List<scalar> 
62
(
0.00614268
0.011004
0.0172094
0.0225383
0.0271317
0.0314716
0.0357742
0.040112
0.0444611
0.0487344
0.0528038
0.0565125
0.0596804
0.062104
0.0635498
0.0636741
0.0626095
0.0604975
0.0571266
0.0526221
0.0470778
0.0377141
0.0284123
0.0284123
0.0568762
0.0838524
0.109612
0.130372
0.150845
0.17287
0.200435
0.253326
0.220217
0.180812
0.143907
0.00709713
0.0190604
0.0278318
0.0360686
0.0444016
0.0533184
0.0635935
0.0797515
0.00709713
0.0159092
0.020405
0.0232033
0.0249826
0.0258072
0.025496
0.0244404
0.022901
0.0211118
0.0193335
0.0177908
0.0164196
0.0151318
0.0138766
0.0124655
0.0106359
0.00805309
0.00543246
)
;
    }
    atmosphere
    {
        type            inletOutlet;
        inletValue      uniform 0.1;
        value           nonuniform List<scalar> 
46
(
0.1
0.1
0.1
0.1
0.1
0.1
0.1
0.1
0.1
0.1
0.1
0.1
0.1
0.1
0.1
0.1
0.1
0.1
0.1
0.1
0.1
0.1
0.1
0.1
0.1
0.1
0.1
0.1
0.102568
0.100775
0.0997648
0.0988692
0.0976814
0.0960219
0.0938415
0.0911724
0.088091
0.0846809
0.0809941
0.0770179
0.0726471
0.0676552
0.0616376
0.0538465
0.0425423
0.0241159
)
;
    }
    defaultFaces
    {
        type            empty;
    }
}


// ************************************************************************* //
