/*--------------------------------*- C++ -*----------------------------------*\
| =========                 |                                                 |
| \\      /  F ield         | OpenFOAM: The Open Source CFD Toolbox           |
|  \\    /   O peration     | Version:  v1606+                                |
|   \\  /    A nd           | Web:      www.OpenFOAM.com                      |
|    \\/     M anipulation  |                                                 |
\*---------------------------------------------------------------------------*/
FoamFile
{
    version     2.0;
    format      ascii;
    class       volVectorField;
    location    "0.3";
    object      U;
}
// * * * * * * * * * * * * * * * * * * * * * * * * * * * * * * * * * * * * * //

dimensions      [0 1 -1 0 0 0 0];

internalField   nonuniform List<vector> 
2268
(
(-0.0482964 0.0157585 0)
(-0.0633619 -0.00258274 0)
(-0.0296213 -0.0159995 0)
(0.0200399 -0.0188949 0)
(0.0775861 -0.019879 0)
(0.135954 -0.0195453 0)
(0.193895 -0.0189999 0)
(0.251086 -0.0185773 0)
(0.307626 -0.0182669 0)
(0.363535 -0.0179668 0)
(0.418489 -0.0175443 0)
(0.471729 -0.0168391 0)
(0.521938 -0.0156434 0)
(0.567034 -0.0136294 0)
(0.603459 -0.0102833 0)
(0.626787 -0.00393296 0)
(0.624616 0.00717142 0)
(0.580388 0.0241707 0)
(0.482329 0.0455856 0)
(0.319528 0.0645378 0)
(0.118485 0.0728409 0)
(-0.164819 0.0208415 0)
(-0.108068 -0.0850266 0)
(-0.033353 0.0352992 0)
(-0.021068 -0.00638954 0)
(0.0151433 -0.0307076 0)
(0.0650441 -0.0394782 0)
(0.121282 -0.0424802 0)
(0.179101 -0.0428209 0)
(0.236958 -0.0424359 0)
(0.294363 -0.0419972 0)
(0.351155 -0.0415656 0)
(0.407135 -0.0409751 0)
(0.461859 -0.0399634 0)
(0.514533 -0.0381888 0)
(0.563887 -0.0351839 0)
(0.607986 -0.0302268 0)
(0.643958 -0.0221773 0)
(0.667391 -0.00876078 0)
(0.675559 0.0129347 0)
(0.661933 0.0451886 0)
(0.612833 0.0873858 0)
(0.504933 0.131369 0)
(0.334776 0.160576 0)
(0.0543503 0.116268 0)
(0.0278026 -0.0873119 0)
(-0.010303 0.0412861 0)
(0.00761406 -0.0191507 0)
(0.0463784 -0.0505422 0)
(0.096134 -0.0634113 0)
(0.15102 -0.0677761 0)
(0.207485 -0.0685122 0)
(0.264176 -0.0681042 0)
(0.320562 -0.0674695 0)
(0.376358 -0.0667243 0)
(0.431255 -0.0656487 0)
(0.484755 -0.0638651 0)
(0.536065 -0.0608646 0)
(0.583979 -0.0559427 0)
(0.626727 -0.0480542 0)
(0.661783 -0.0356116 0)
(0.685489 -0.0162609 0)
(0.694106 0.013403 0)
(0.683274 0.056971 0)
(0.646995 0.115997 0)
(0.573021 0.183802 0)
(0.453274 0.238093 0)
(0.233692 0.200796 0)
(0.127215 -0.0281542 0)
(0.00435654 0.0367776 0)
(0.0284236 -0.0334894 0)
(0.0706533 -0.0719396 0)
(0.121041 -0.0880951 0)
(0.175049 -0.0936248 0)
(0.23025 -0.0946742 0)
(0.28565 -0.0942113 0)
(0.34079 -0.0933432 0)
(0.39535 -0.0922239 0)
(0.448972 -0.090583 0)
(0.501137 -0.0879382 0)
(0.551071 -0.0836275 0)
(0.597651 -0.0767354 0)
(0.639279 -0.0659323 0)
(0.673753 -0.0492653 0)
(0.698032 -0.0240141 0)
(0.708642 0.0134438 0)
(0.70193 0.0669793 0)
(0.674045 0.138987 0)
(0.618152 0.224716 0)
(0.526697 0.302839 0)
(0.353737 0.288097 0)
(0.200582 0.0756502 0)
(0.0111755 0.0264501 0)
(0.0427978 -0.0512285 0)
(0.0894296 -0.0946536 0)
(0.141176 -0.113063 0)
(0.194811 -0.119379 0)
(0.249 -0.120629 0)
(0.303193 -0.120105 0)
(0.35708 -0.119014 0)
(0.410369 -0.117516 0)
(0.462693 -0.11529 0)
(0.513538 -0.111762 0)
(0.56217 -0.106138 0)
(0.607563 -0.0973224 0)
(0.648318 -0.0837552 0)
(0.682563 -0.0631919 0)
(0.707805 -0.0326091 0)
(0.721093 0.0117706 0)
(0.719449 0.0739136 0)
(0.6999 0.156522 0)
(0.657778 0.256382 0)
(0.583962 0.355907 0)
(0.44381 0.375754 0)
(0.260495 0.21938 0)
(0.0142367 0.0127203 0)
(0.0526436 -0.0720851 0)
(0.103752 -0.118726 0)
(0.15716 -0.138263 0)
(0.210727 -0.144835 0)
(0.264111 -0.146083 0)
(0.317213 -0.145438 0)
(0.369902 -0.144112 0)
(0.421942 -0.142232 0)
(0.472989 -0.139422 0)
(0.522554 -0.135024 0)
(0.569955 -0.12813 0)
(0.614279 -0.117509 0)
(0.65434 -0.101422 0)
(0.688621 -0.0774053 0)
(0.715147 -0.0421989 0)
(0.731545 0.00808887 0)
(0.735509 0.0774436 0)
(0.724705 0.168795 0)
(0.695752 0.280543 0)
(0.637519 0.399869 0)
(0.52656 0.462108 0)
(0.318629 0.396059 0)
(0.0161287 -0.00321422 0)
(0.059777 -0.0955244 0)
(0.114714 -0.14411 0)
(0.169638 -0.163771 0)
(0.223189 -0.170068 0)
(0.275858 -0.171077 0)
(0.327945 -0.170217 0)
(0.379478 -0.168618 0)
(0.430293 -0.166342 0)
(0.48008 -0.162946 0)
(0.528386 -0.157696 0)
(0.574593 -0.149594 0)
(0.617903 -0.137306 0)
(0.657361 -0.118977 0)
(0.691822 -0.0919922 0)
(0.719831 -0.0529107 0)
(0.739604 0.0022368 0)
(0.749524 0.0774146 0)
(0.748021 0.175741 0)
(0.733106 0.297261 0)
(0.693053 0.434307 0)
(0.618853 0.545869 0)
(0.387334 0.603057 0)
(0.0179562 -0.0207162 0)
(0.0654692 -0.120984 0)
(0.12327 -0.170537 0)
(0.179282 -0.189501 0)
(0.232684 -0.195069 0)
(0.284624 -0.195617 0)
(0.335711 -0.194436 0)
(0.386104 -0.192509 0)
(0.435698 -0.189805 0)
(0.484227 -0.185811 0)
(0.531279 -0.179722 0)
(0.576295 -0.170467 0)
(0.618595 -0.156649 0)
(0.657454 -0.136365 0)
(0.69212 -0.106923 0)
(0.721659 -0.064761 0)
(0.744883 -0.00587909 0)
(0.760876 0.0735965 0)
(0.76908 0.176772 0)
(0.76938 0.304857 0)
(0.753 0.454544 0)
(0.724697 0.612545 0)
(0.480199 0.880076 0)
(0.0140072 -0.000725036 0)
(-0.0611242 0.0249833 0)
(-0.153066 0.0201383 0)
(-0.18983 0.00676869 0)
(-0.188513 -0.00294052 0)
(-0.163703 -0.00865406 0)
(-0.127999 -0.0108613 0)
(-0.0878789 -0.0113203 0)
(-0.048411 -0.0105167 0)
(-0.0131074 -0.00880322 0)
(0.0154599 -0.00667023 0)
(0.0358087 -0.00437834 0)
(0.0477449 -0.00220537 0)
(0.0519045 -0.000205135 0)
(0.0492701 0.00139538 0)
(0.0412293 0.00255425 0)
(0.0296183 0.00310607 0)
(0.0168141 0.00285648 0)
(0.00495367 0.0020993 0)
(-0.0368056 0.0226413 0)
(-0.121639 0.0556762 0)
(-0.193321 0.0391031 0)
(-0.212292 0.0100836 0)
(-0.20127 -0.0090721 0)
(-0.175084 -0.0204178 0)
(-0.13867 -0.0255906 0)
(-0.0984278 -0.0268447 0)
(-0.0587385 -0.0251393 0)
(-0.0228402 -0.0214023 0)
(0.00673573 -0.016456 0)
(0.0285863 -0.0109227 0)
(0.0422145 -0.00554406 0)
(0.0480158 -0.000679124 0)
(0.0470603 0.00332467 0)
(0.0406596 0.00630065 0)
(0.0303554 0.00801376 0)
(0.0181473 0.00822377 0)
(0.00564943 0.00719532 0)
(-0.0742249 0.0662674 0)
(-0.160691 0.0859245 0)
(-0.210298 0.0527382 0)
(-0.220602 0.0100051 0)
(-0.205797 -0.0171795 0)
(-0.178159 -0.0333351 0)
(-0.141351 -0.041111 0)
(-0.101346 -0.0429774 0)
(-0.0620731 -0.0403943 0)
(-0.0264945 -0.0347202 0)
(0.00298332 -0.0270013 0)
(0.0251237 -0.0183559 0)
(0.0393593 -0.00977775 0)
(0.0459525 -0.00197069 0)
(0.0458319 0.00456456 0)
(0.0402868 0.00945756 0)
(0.0307738 0.0124478 0)
(0.0190503 0.0132622 0)
(0.0063542 0.0121547 0)
(-0.103977 0.123441 0)
(-0.19375 0.114574 0)
(-0.226166 0.0616491 0)
(-0.227839 0.00776608 0)
(-0.208642 -0.026514 0)
(-0.17913 -0.0471454 0)
(-0.141427 -0.0572579 0)
(-0.101118 -0.0596106 0)
(-0.0619254 -0.0560182 0)
(-0.0266045 -0.04831 0)
(0.00260151 -0.0378205 0)
(0.0246038 -0.0260313 0)
(0.0389203 -0.0142396 0)
(0.0457736 -0.00343837 0)
(0.0460136 0.00565408 0)
(0.0408537 0.0125344 0)
(0.0316506 0.0168941 0)
(0.0200281 0.0184932 0)
(0.00705869 0.0177546 0)
(-0.132386 0.193224 0)
(-0.22671 0.141412 0)
(-0.241884 0.0647808 0)
(-0.233568 0.00261663 0)
(-0.210027 -0.0373096 0)
(-0.178565 -0.0618681 0)
(-0.139586 -0.0740582 0)
(-0.0984501 -0.0766924 0)
(-0.0589128 -0.0719271 0)
(-0.0236502 -0.0620196 0)
(0.00526116 -0.0486876 0)
(0.0268714 -0.0337253 0)
(0.0408607 -0.0187301 0)
(0.0475077 -0.00495268 0)
(0.0476362 0.00669099 0)
(0.0423952 0.0155827 0)
(0.0330441 0.0213683 0)
(0.0211302 0.0238642 0)
(0.00767129 0.0237023 0)
(-0.163532 0.276877 0)
(-0.259557 0.164452 0)
(-0.254236 0.0602072 0)
(-0.23445 -0.00525872 0)
(-0.208222 -0.0489775 0)
(-0.175723 -0.0771197 0)
(-0.135581 -0.0912895 0)
(-0.0933221 -0.0940436 0)
(-0.0530943 -0.0879291 0)
(-0.0176872 -0.0756577 0)
(0.0109392 -0.0593795 0)
(0.0319709 -0.041213 0)
(0.0452842 -0.0230316 0)
(0.0512828 -0.00631543 0)
(0.0508261 0.00785238 0)
(0.045029 0.0187554 0)
(0.035072 0.0259983 0)
(0.022464 0.0294627 0)
(0.00822134 0.0299994 0)
(-0.196872 0.367818 0)
(-0.279925 0.173691 0)
(-0.253219 0.0447373 0)
(-0.223098 -0.014412 0)
(-0.19963 -0.060073 0)
(-0.168899 -0.0922797 0)
(-0.128585 -0.108824 0)
(-0.0853177 -0.111709 0)
(-0.0442427 -0.104028 0)
(-0.00856767 -0.089155 0)
(0.0197556 -0.0697688 0)
(0.0400364 -0.0483309 0)
(0.0523513 -0.0269582 0)
(0.0572712 -0.00732375 0)
(0.0557501 0.00934731 0)
(0.04891 0.0222574 0)
(0.037884 0.030973 0)
(0.0241728 0.0354406 0)
(0.00880097 0.036676 0)
(-0.248878 0.566742 0)
(-0.221583 0.153446 0)
(-0.212368 0.0210987 0)
(-0.18589 -0.0222282 0)
(-0.178084 -0.0709875 0)
(-0.155226 -0.107815 0)
(-0.117306 -0.127017 0)
(-0.0738008 -0.130172 0)
(-0.0318529 -0.12082 0)
(0.00417583 -0.103011 0)
(0.0320853 -0.0801324 0)
(0.0513383 -0.0551252 0)
(0.0622677 -0.0303928 0)
(0.0656602 -0.00776233 0)
(0.0625834 0.0114418 0)
(0.0541951 0.0263773 0)
(0.0416345 0.03659 0)
(0.0264341 0.0420819 0)
(0.00958312 0.0438868 0)
(0.0212192 -0.0511369 0)
(0.0730879 -0.164208 0)
(0.133698 -0.213421 0)
(0.190572 -0.230033 0)
(0.243441 -0.233831 0)
(0.294181 -0.233319 0)
(0.343748 -0.231439 0)
(0.39243 -0.228879 0)
(0.440201 -0.225427 0)
(0.486857 -0.220455 0)
(0.532048 -0.213054 0)
(0.575296 -0.202067 0)
(0.616078 -0.18607 0)
(0.654019 -0.163196 0)
(0.688992 -0.13076 0)
(0.720875 -0.08507 0)
(0.749371 -0.0221353 0)
(0.774567 0.0614741 0)
(0.797718 0.168173 0)
(0.822341 0.299103 0)
(0.852768 0.453643 0)
(0.916458 0.636387 0)
(0.996956 0.987062 0)
(0.0263764 -0.0979498 0)
(0.0828328 -0.227288 0)
(0.145267 -0.273188 0)
(0.201428 -0.284752 0)
(0.252402 -0.285258 0)
(0.300919 -0.282869 0)
(0.348201 -0.27981 0)
(0.394603 -0.276273 0)
(0.440127 -0.271772 0)
(0.484601 -0.265518 0)
(0.527718 -0.256469 0)
(0.569025 -0.243388 0)
(0.608072 -0.224972 0)
(0.644827 -0.19973 0)
(0.679982 -0.165322 0)
(0.714421 -0.117932 0)
(0.748671 -0.0536044 0)
(0.783517 0.0302032 0)
(0.821227 0.133931 0)
(0.866778 0.255643 0)
(0.927892 0.390865 0)
(1.01351 0.535622 0)
(1.15292 0.709717 0)
(0.0312366 -0.152015 0)
(0.0930517 -0.293141 0)
(0.157269 -0.331996 0)
(0.211274 -0.336847 0)
(0.259 -0.333648 0)
(0.304364 -0.329499 0)
(0.348776 -0.325512 0)
(0.392546 -0.321246 0)
(0.435605 -0.315934 0)
(0.47776 -0.308656 0)
(0.518711 -0.298221 0)
(0.557935 -0.283282 0)
(0.594843 -0.262752 0)
(0.629501 -0.235923 0)
(0.663368 -0.201297 0)
(0.698279 -0.154714 0)
(0.735218 -0.0919051 0)
(0.77496 -0.0110089 0)
(0.819296 0.0865954 0)
(0.871734 0.196133 0)
(0.936939 0.309808 0)
(1.01688 0.417829 0)
(1.12921 0.515243 0)
(0.0316398 -0.215412 0)
(0.108132 -0.36519 0)
(0.173229 -0.390394 0)
(0.221727 -0.386321 0)
(0.264142 -0.379586 0)
(0.305263 -0.374362 0)
(0.346165 -0.370019 0)
(0.38682 -0.365374 0)
(0.426938 -0.359437 0)
(0.466253 -0.351246 0)
(0.504469 -0.339462 0)
(0.540999 -0.322533 0)
(0.575033 -0.299558 0)
(0.60649 -0.270966 0)
(0.637216 -0.23696 0)
(0.669691 -0.192658 0)
(0.705427 -0.13323 0)
(0.745461 -0.057087 0)
(0.791308 0.0335113 0)
(0.845107 0.132261 0)
(0.908876 0.231957 0)
(0.98407 0.324382 0)
(1.07752 0.405492 0)
(0.0390636 -0.292895 0)
(0.143134 -0.447448 0)
(0.194599 -0.446682 0)
(0.229112 -0.431429 0)
(0.264515 -0.421919 0)
(0.301469 -0.416059 0)
(0.339072 -0.411221 0)
(0.376635 -0.405732 0)
(0.413625 -0.398548 0)
(0.449645 -0.388818 0)
(0.484305 -0.375115 0)
(0.517077 -0.35566 0)
(0.547506 -0.329665 0)
(0.575912 -0.29878 0)
(0.603167 -0.265461 0)
(0.630603 -0.223667 0)
(0.661209 -0.167961 0)
(0.697887 -0.0971547 0)
(0.742924 -0.0135012 0)
(0.796993 0.0770074 0)
(0.860164 0.166392 0)
(0.933519 0.24606 0)
(1.01835 0.312213 0)
(0.107294 -0.384185 0)
(0.215423 -0.53203 0)
(0.21442 -0.482609 0)
(0.226923 -0.459301 0)
(0.257821 -0.449858 0)
(0.293027 -0.443963 0)
(0.328798 -0.438342 0)
(0.364152 -0.431592 0)
(0.398642 -0.422744 0)
(0.431698 -0.411039 0)
(0.462588 -0.394858 0)
(0.490929 -0.371939 0)
(0.517083 -0.340947 0)
(0.542476 -0.303899 0)
(0.565159 -0.27055 0)
(0.582536 -0.230582 0)
(0.602273 -0.178543 0)
(0.63122 -0.114405 0)
(0.673927 -0.0392704 0)
(0.732748 0.0427717 0)
(0.807765 0.12258 0)
(0.894983 0.190412 0)
(0.986864 0.245097 0)
(0.303224 -0.599637 0)
(0.334714 -0.59863 0)
(0.202626 -0.449938 0)
(0.21632 -0.453195 0)
(0.250664 -0.451313 0)
(0.28756 -0.448335 0)
(0.323277 -0.44453 0)
(0.357414 -0.439378 0)
(0.389903 -0.432131 0)
(0.419939 -0.422128 0)
(0.446546 -0.408169 0)
(0.470615 -0.389544 0)
(0.496504 -0.368507 0)
(0.53573 -0.34821 0)
(0.558184 -0.307015 0)
(0.565021 -0.258978 0)
(0.570023 -0.208621 0)
(0.581029 -0.149538 0)
(0.608792 -0.0803316 0)
(0.66069 -0.00623227 0)
(0.739015 0.0752695 0)
(0.847659 0.15197 0)
(0.95628 0.200139 0)
(0.24067 -0.93575 0)
(0.0681089 -0.421282 0)
(0.143439 -0.372129 0)
(0.214337 -0.513615 0)
(0.258534 -0.5629 0)
(0.306559 -0.566628 0)
(0.357527 -0.561408 0)
(0.407874 -0.553266 0)
(0.457251 -0.540958 0)
(0.506057 -0.523137 0)
(0.554612 -0.500673 0)
(0.602263 -0.476345 0)
(0.647223 -0.447172 0)
(0.689496 -0.400873 0)
(0.730077 -0.344927 0)
(0.771344 -0.292155 0)
(0.81215 -0.252459 0)
(0.851935 -0.22697 0)
(0.892841 -0.211671 0)
(0.937279 -0.199241 0)
(0.987909 -0.180175 0)
(1.05515 -0.138493 0)
(1.01512 0.0328538 0)
(-0.158842 -0.993915 0)
(-0.0313799 -0.5554 0)
(0.0966973 -0.514394 0)
(0.201035 -0.565276 0)
(0.270098 -0.588307 0)
(0.32858 -0.586972 0)
(0.385252 -0.578089 0)
(0.440121 -0.56715 0)
(0.493307 -0.554244 0)
(0.545672 -0.538286 0)
(0.597945 -0.518633 0)
(0.649934 -0.495085 0)
(0.700794 -0.465951 0)
(0.75108 -0.427383 0)
(0.80379 -0.379711 0)
(0.861072 -0.329695 0)
(0.921417 -0.282341 0)
(0.98258 -0.238259 0)
(1.04298 -0.195123 0)
(1.10049 -0.148137 0)
(1.15076 -0.090425 0)
(1.19207 -0.0160808 0)
(1.22344 0.0581273 0)
(-0.0610059 -0.758258 0)
(-0.00402019 -0.705869 0)
(0.107789 -0.654634 0)
(0.198307 -0.64876 0)
(0.267325 -0.647679 0)
(0.326119 -0.640755 0)
(0.381988 -0.630685 0)
(0.436289 -0.619255 0)
(0.489157 -0.606192 0)
(0.541019 -0.590491 0)
(0.592375 -0.571198 0)
(0.643446 -0.547466 0)
(0.694473 -0.518174 0)
(0.746734 -0.48204 0)
(0.802669 -0.439681 0)
(0.863836 -0.394647 0)
(0.929647 -0.349976 0)
(0.99848 -0.306408 0)
(1.0687 -0.262483 0)
(1.13898 -0.214432 0)
(1.20845 -0.155485 0)
(1.28116 -0.07619 0)
(1.36632 0.0240915 0)
(0.007677 -0.789244 0)
(0.0414609 -0.782724 0)
(0.115149 -0.741021 0)
(0.183908 -0.721564 0)
(0.244175 -0.710138 0)
(0.298784 -0.69879 0)
(0.350991 -0.686607 0)
(0.401881 -0.673643 0)
(0.451618 -0.659313 0)
(0.500368 -0.642677 0)
(0.54843 -0.622815 0)
(0.596203 -0.598924 0)
(0.644379 -0.570316 0)
(0.694345 -0.536702 0)
(0.747972 -0.498972 0)
(0.806606 -0.459272 0)
(0.870492 -0.41947 0)
(0.939222 -0.380033 0)
(1.01246 -0.339727 0)
(1.09051 -0.29547 0)
(1.17462 -0.242179 0)
(1.26914 -0.173742 0)
(1.37791 -0.0892957 0)
(0.0168676 -0.813684 0)
(0.0530982 -0.836819 0)
(0.104876 -0.801489 0)
(0.157438 -0.779282 0)
(0.207612 -0.763615 0)
(0.255406 -0.749764 0)
(0.30182 -0.736162 0)
(0.347292 -0.722093 0)
(0.391856 -0.70676 0)
(0.435556 -0.689293 0)
(0.478601 -0.66893 0)
(0.521435 -0.645127 0)
(0.564858 -0.617632 0)
(0.610128 -0.586663 0)
(0.658773 -0.55318 0)
(0.712091 -0.518687 0)
(0.770902 -0.484456 0)
(0.835794 -0.450847 0)
(0.907599 -0.417005 0)
(0.987893 -0.380698 0)
(1.07905 -0.33821 0)
(1.18543 -0.284681 0)
(1.30943 -0.216049 0)
(0.0178069 -0.845157 0)
(0.0486257 -0.876873 0)
(0.084594 -0.846429 0)
(0.124596 -0.82489 0)
(0.164928 -0.808183 0)
(0.204714 -0.793358 0)
(0.24396 -0.778992 0)
(0.282655 -0.764168 0)
(0.320703 -0.748052 0)
(0.358091 -0.729897 0)
(0.394998 -0.709157 0)
(0.431871 -0.685586 0)
(0.469486 -0.659307 0)
(0.508958 -0.630881 0)
(0.551608 -0.601335 0)
(0.598719 -0.571946 0)
(0.651443 -0.543792 0)
(0.710978 -0.517366 0)
(0.778895 -0.492354 0)
(0.857528 -0.467404 0)
(0.94991 -0.439719 0)
(1.06066 -0.404458 0)
(1.19263 -0.354499 0)
(0.0149054 -0.875717 0)
(0.0373585 -0.904109 0)
(0.0610939 -0.879213 0)
(0.0904851 -0.859941 0)
(0.121398 -0.843761 0)
(0.152766 -0.828923 0)
(0.184193 -0.814324 0)
(0.215441 -0.799089 0)
(0.246341 -0.782464 0)
(0.276865 -0.763863 0)
(0.307193 -0.742977 0)
(0.337766 -0.71985 0)
(0.36931 -0.694916 0)
(0.402826 -0.669003 0)
(0.439496 -0.643255 0)
(0.480573 -0.618942 0)
(0.527353 -0.597192 0)
(0.581311 -0.578786 0)
(0.64436 -0.564015 0)
(0.719161 -0.552396 0)
(0.809058 -0.541958 0)
(0.91889 -0.527775 0)
(1.05269 -0.500015 0)
(0.00906385 -0.898171 0)
(0.023487 -0.92023 0)
(0.038014 -0.901825 0)
(0.0581885 -0.885457 0)
(0.080286 -0.870549 0)
(0.103372 -0.856278 0)
(0.126937 -0.841856 0)
(0.150664 -0.826545 0)
(0.174377 -0.809727 0)
(0.198066 -0.791007 0)
(0.221931 -0.770308 0)
(0.246413 -0.747935 0)
(0.272192 -0.724589 0)
(0.300175 -0.701318 0)
(0.331435 -0.679407 0)
(0.367154 -0.66022 0)
(0.408624 -0.645035 0)
(0.457349 -0.634967 0)
(0.515233 -0.630902 0)
(0.584845 -0.633204 0)
(0.669372 -0.640779 0)
(0.773458 -0.648912 0)
(0.901967 -0.645645 0)
(0.00292986 -0.910708 0)
(0.00999242 -0.928321 0)
(0.0173453 -0.915895 0)
(0.0293843 -0.902371 0)
(0.0434267 -0.889042 0)
(0.0587446 -0.875691 0)
(0.0748447 -0.861777 0)
(0.091421 -0.846723 0)
(0.108331 -0.830076 0)
(0.12561 -0.811632 0)
(0.143491 -0.791531 0)
(0.162414 -0.770308 0)
(0.183019 -0.748883 0)
(0.206124 -0.728489 0)
(0.232685 -0.710548 0)
(0.263762 -0.696532 0)
(0.300518 -0.687878 0)
(0.344271 -0.685983 0)
(0.396619 -0.69221 0)
(0.459621 -0.707628 0)
(0.53577 -0.731967 0)
(0.628893 -0.760989 0)
(0.743774 -0.781418 0)
(-0.00218859 -0.913301 0)
(-0.00160772 -0.930637 0)
(-0.000169856 -0.922608 0)
(0.0047752 -0.911627 0)
(0.0116772 -0.899993 0)
(0.0199997 -0.887787 0)
(0.0293222 -0.874653 0)
(0.0393969 -0.860178 0)
(0.0501432 -0.844077 0)
(0.0616528 -0.826329 0)
(0.0741929 -0.807268 0)
(0.0881996 -0.787617 0)
(0.104262 -0.768469 0)
(0.123096 -0.751198 0)
(0.145516 -0.737328 0)
(0.1724 -0.728411 0)
(0.204667 -0.725973 0)
(0.243285 -0.731559 0)
(0.289303 -0.746792 0)
(0.343957 -0.773172 0)
(0.408642 -0.811065 0)
(0.485936 -0.856962 0)
(0.579851 -0.89758 0)
(-0.00589664 -0.908121 0)
(-0.0107658 -0.928004 0)
(-0.0144032 -0.922921 0)
(-0.0154759 -0.914243 0)
(-0.0147058 -0.904324 0)
(-0.0124651 -0.893395 0)
(-0.00907979 -0.881256 0)
(-0.00471724 -0.867648 0)
(0.000614968 -0.852447 0)
(0.00706424 -0.835794 0)
(0.014922 -0.818182 0)
(0.0246059 -0.800482 0)
(0.0366359 -0.783907 0)
(0.0516054 -0.769917 0)
(0.0701504 -0.760084 0)
(0.0929116 -0.755973 0)
(0.120485 -0.759091 0)
(0.153378 -0.770954 0)
(0.191973 -0.793184 0)
(0.236558 -0.827401 0)
(0.28731 -0.874395 0)
(0.345488 -0.931681 0)
(0.414106 -0.987618 0)
(-0.00819757 -0.898236 0)
(-0.0175034 -0.920239 0)
(-0.0255118 -0.917836 0)
(-0.0314837 -0.911285 0)
(-0.0358141 -0.903029 0)
(-0.0387009 -0.893435 0)
(-0.0403665 -0.88244 0)
(-0.0408934 -0.86993 0)
(-0.0402201 -0.855923 0)
(-0.0381552 -0.840695 0)
(-0.0343983 -0.824859 0)
(-0.0285689 -0.809382 0)
(-0.0202381 -0.795544 0)
(-0.00896005 -0.784834 0)
(0.00569515 -0.778805 0)
(0.0240961 -0.778951 0)
(0.0464777 -0.786648 0)
(0.0728661 -0.803216 0)
(0.102991 -0.830044 0)
(0.136277 -0.868614 0)
(0.17183 -0.919976 0)
(0.209739 -0.9829 0)
(0.252041 -1.04869 0)
(-0.00958907 -0.884662 0)
(-0.0222085 -0.908626 0)
(-0.0336812 -0.908474 0)
(-0.0435381 -0.903804 0)
(-0.0519851 -0.897096 0)
(-0.0590692 -0.888828 0)
(-0.0649149 -0.879065 0)
(-0.0695289 -0.867814 0)
(-0.0727954 -0.855211 0)
(-0.0744982 -0.841634 0)
(-0.0743505 -0.827774 0)
(-0.0720313 -0.814646 0)
(-0.0672234 -0.80354 0)
(-0.0596459 -0.795911 0)
(-0.0490874 -0.793232 0)
(-0.0354542 -0.796855 0)
(-0.0188461 -0.807939 0)
(0.000339502 -0.827489 0)
(0.0212915 -0.856505 0)
(0.042775 -0.896131 0)
(0.0630809 -0.947555 0)
(0.0813798 -1.01083 0)
(0.0986143 -1.08065 0)
(-0.0102929 -0.868756 0)
(-0.0251998 -0.894141 0)
(-0.0392497 -0.895833 0)
(-0.0520656 -0.892771 0)
(-0.0637217 -0.887453 0)
(-0.0741371 -0.880456 0)
(-0.083352 -0.871946 0)
(-0.0913132 -0.862034 0)
(-0.09787 -0.850943 0)
(-0.102803 -0.839121 0)
(-0.105858 -0.827293 0)
(-0.106792 -0.816478 0)
(-0.105412 -0.807922 0)
(-0.101603 -0.802996 0)
(-0.0953678 -0.803044 0)
(-0.086862 -0.809222 0)
(-0.076473 -0.822417 0)
(-0.0649209 -0.843256 0)
(-0.0533711 -0.872276 0)
(-0.0435065 -0.910181 0)
(-0.0375413 -0.958118 0)
(-0.0368536 -1.01714 0)
(-0.0421662 -1.08522 0)
(-0.010479 -0.851544 0)
(-0.0267869 -0.877704 0)
(-0.0426088 -0.880814 0)
(-0.0575604 -0.879064 0)
(-0.0716131 -0.87495 0)
(-0.084581 -0.869119 0)
(-0.0964361 -0.861823 0)
(-0.107083 -0.853248 0)
(-0.116356 -0.843678 0)
(-0.124052 -0.833591 0)
(-0.129967 -0.823715 0)
(-0.133944 -0.815024 0)
(-0.135912 -0.808686 0)
(-0.135917 -0.805947 0)
(-0.134148 -0.807984 0)
(-0.130967 -0.815739 0)
(-0.126973 -0.829811 0)
(-0.123093 -0.850448 0)
(-0.120681 -0.877708 0)
(-0.121626 -0.911808 0)
(-0.128367 -0.953622 0)
(-0.142674 -1.00479 0)
(-0.166598 -1.06612 0)
(-0.0102869 -0.833843 0)
(-0.0272557 -0.860117 0)
(-0.0441601 -0.8642 0)
(-0.0605365 -0.863456 0)
(-0.0762775 -0.860332 0)
(-0.0911151 -0.855528 0)
(-0.104969 -0.849351 0)
(-0.11772 -0.842038 0)
(-0.129205 -0.833902 0)
(-0.13925 -0.825424 0)
(-0.147711 -0.8173 0)
(-0.15452 -0.81043 0)
(-0.15972 -0.80587 0)
(-0.163496 -0.804717 0)
(-0.166189 -0.807966 0)
(-0.168314 -0.816344 0)
(-0.170609 -0.830179 0)
(-0.1741 -0.849375 0)
(-0.180193 -0.873549 0)
(-0.190791 -0.902413 0)
(-0.208329 -0.93642 0)
(-0.234775 -0.97733 0)
(-0.2732 -1.02798 0)
(-0.00983745 -0.816272 0)
(-0.0268724 -0.842039 0)
(-0.0442907 -0.846656 0)
(-0.0614955 -0.846605 0)
(-0.0783221 -0.844246 0)
(-0.0944427 -0.840299 0)
(-0.10974 -0.835102 0)
(-0.124085 -0.828914 0)
(-0.137331 -0.822052 0)
(-0.149344 -0.814973 0)
(-0.160043 -0.808314 0)
(-0.169441 -0.802882 0)
(-0.177682 -0.799598 0)
(-0.185064 -0.799401 0)
(-0.192039 -0.803102 0)
(-0.19923 -0.811226 0)
(-0.207446 -0.823874 0)
(-0.217735 -0.840658 0)
(-0.231456 -0.860815 0)
(-0.2504 -0.883577 0)
(-0.276827 -0.908869 0)
(-0.312749 -0.938172 0)
(-0.361897 -0.975376 0)
(-0.0092359 -0.799277 0)
(-0.0258812 -0.823992 0)
(-0.0433592 -0.828725 0)
(-0.0609053 -0.829062 0)
(-0.0783156 -0.827238 0)
(-0.0952233 -0.82396 0)
(-0.111487 -0.819572 0)
(-0.12698 -0.814329 0)
(-0.141579 -0.808527 0)
(-0.155197 -0.802581 0)
(-0.167811 -0.79705 0)
(-0.179507 -0.792631 0)
(-0.19051 -0.790106 0)
(-0.2012 -0.790249 0)
(-0.212109 -0.793699 0)
(-0.223918 -0.800807 0)
(-0.237466 -0.811486 0)
(-0.253769 -0.82513 0)
(-0.274078 -0.840673 0)
(-0.299991 -0.856912 0)
(-0.333498 -0.873194 0)
(-0.376527 -0.89041 0)
(-0.433039 -0.912569 0)
(-0.00856961 -0.783145 0)
(-0.0244997 -0.806369 0)
(-0.0416859 -0.810836 0)
(-0.0591854 -0.811276 0)
(-0.0767696 -0.809763 0)
(-0.09405 -0.806961 0)
(-0.110872 -0.803193 0)
(-0.127119 -0.798688 0)
(-0.142698 -0.793705 0)
(-0.157565 -0.788597 0)
(-0.171754 -0.783837 0)
(-0.185407 -0.780004 0)
(-0.198809 -0.777738 0)
(-0.212395 -0.777659 0)
(-0.226742 -0.780245 0)
(-0.24256 -0.785699 0)
(-0.260678 -0.793797 0)
(-0.282052 -0.803779 0)
(-0.307794 -0.814364 0)
(-0.339269 -0.823995 0)
(-0.378146 -0.831445 0)
(-0.426149 -0.836827 0)
(-0.487074 -0.843558 0)
(-0.00790273 -0.768032 0)
(-0.0229105 -0.789446 0)
(-0.0395441 -0.79332 0)
(-0.0566963 -0.793606 0)
(-0.0741254 -0.792194 0)
(-0.0914359 -0.789679 0)
(-0.108469 -0.786338 0)
(-0.125122 -0.782357 0)
(-0.141334 -0.777942 0)
(-0.157103 -0.773375 0)
(-0.172507 -0.769035 0)
(-0.187735 -0.765386 0)
(-0.203108 -0.762933 0)
(-0.219091 -0.762148 0)
(-0.236276 -0.763368 0)
(-0.255372 -0.766672 0)
(-0.277176 -0.771736 0)
(-0.302571 -0.777712 0)
(-0.332521 -0.78319 0)
(-0.368145 -0.786356 0)
(-0.410769 -0.785488 0)
(-0.461804 -0.779875 0)
(-0.524563 -0.771919 0)
(-0.00727029 -0.753993 0)
(-0.0212515 -0.773399 0)
(-0.0371525 -0.776421 0)
(-0.0537323 -0.776332 0)
(-0.070747 -0.774834 0)
(-0.0878056 -0.772431 0)
(-0.104752 -0.769333 0)
(-0.121502 -0.765669 0)
(-0.138026 -0.761579 0)
(-0.154357 -0.75727 0)
(-0.170611 -0.753029 0)
(-0.187006 -0.749208 0)
(-0.203883 -0.746188 0)
(-0.221709 -0.744309 0)
(-0.241071 -0.743783 0)
(-0.262649 -0.744587 0)
(-0.287195 -0.746329 0)
(-0.315505 -0.748121 0)
(-0.348405 -0.7485 0)
(-0.386777 -0.745508 0)
(-0.431613 -0.73705 0)
(-0.483949 -0.721685 0)
(-0.546375 -0.700689 0)
(-0.00667582 -0.74102 0)
(-0.01961 -0.758317 0)
(-0.0346723 -0.760302 0)
(-0.0505194 -0.759666 0)
(-0.0669189 -0.757926 0)
(-0.0834942 -0.755482 0)
(-0.100099 -0.752462 0)
(-0.11667 -0.748923 0)
(-0.133207 -0.744938 0)
(-0.149775 -0.740634 0)
(-0.166515 -0.736211 0)
(-0.183662 -0.731921 0)
(-0.201559 -0.728031 0)
(-0.22066 -0.724767 0)
(-0.241522 -0.722235 0)
(-0.264777 -0.72033 0)
(-0.291114 -0.718616 0)
(-0.321241 -0.716201 0)
(-0.355853 -0.71163 0)
(-0.395622 -0.702902 0)
(-0.441236 -0.6877 0)
(-0.493362 -0.66403 0)
(-0.553793 -0.63216 0)
(-0.00609768 -0.729086 0)
(-0.0180271 -0.744222 0)
(-0.032211 -0.745061 0)
(-0.0472189 -0.743761 0)
(-0.0628496 -0.741665 0)
(-0.0787501 -0.739057 0)
(-0.0947928 -0.735974 0)
(-0.110938 -0.732396 0)
(-0.127214 -0.728322 0)
(-0.143709 -0.723807 0)
(-0.160583 -0.718971 0)
(-0.178076 -0.713974 0)
(-0.19652 -0.708989 0)
(-0.21634 -0.704145 0)
(-0.238045 -0.699459 0)
(-0.262208 -0.694763 0)
(-0.289439 -0.689596 0)
(-0.320354 -0.683084 0)
(-0.355522 -0.673832 0)
(-0.395437 -0.659874 0)
(-0.440532 -0.638816 0)
(-0.491155 -0.608311 0)
(-0.548378 -0.567843 0)
(-0.00550889 -0.718168 0)
(-0.0165145 -0.73108 0)
(-0.0298355 -0.730741 0)
(-0.0439377 -0.728725 0)
(-0.0586797 -0.726207 0)
(-0.0737433 -0.723348 0)
(-0.0890298 -0.720091 0)
(-0.104528 -0.716336 0)
(-0.120291 -0.712012 0)
(-0.136428 -0.70711 0)
(-0.153107 -0.701677 0)
(-0.170564 -0.695801 0)
(-0.189108 -0.689572 0)
(-0.209125 -0.683039 0)
(-0.231067 -0.676152 0)
(-0.255437 -0.668693 0)
(-0.282759 -0.660191 0)
(-0.313548 -0.64981 0)
(-0.348259 -0.636239 0)
(-0.387232 -0.617613 0)
(-0.430693 -0.591571 0)
(-0.47875 -0.555605 0)
(-0.531897 -0.508637 0)
(-0.00490999 -0.708242 0)
(-0.0150785 -0.718814 0)
(-0.0275924 -0.717346 0)
(-0.0407413 -0.714634 0)
(-0.0544933 -0.711681 0)
(-0.0685757 -0.708525 0)
(-0.0829319 -0.705011 0)
(-0.0975841 -0.700968 0)
(-0.112608 -0.696266 0)
(-0.128128 -0.690837 0)
(-0.144313 -0.684673 0)
(-0.161384 -0.677799 0)
(-0.179623 -0.670242 0)
(-0.199369 -0.661989 0)
(-0.221012 -0.652937 0)
(-0.244978 -0.642834 0)
(-0.271703 -0.631211 0)
(-0.301601 -0.617279 0)
(-0.335019 -0.599829 0)
(-0.372165 -0.577131 0)
(-0.413107 -0.54694 0)
(-0.457778 -0.506722 0)
(-0.506259 -0.455031 0)
(-0.00435637 -0.699253 0)
(-0.0137426 -0.707322 0)
(-0.0255257 -0.704865 0)
(-0.0376665 -0.701555 0)
(-0.0503275 -0.698208 0)
(-0.063292 -0.69474 0)
(-0.0765582 -0.690914 0)
(-0.0901853 -0.686497 0)
(-0.104271 -0.681313 0)
(-0.118944 -0.675252 0)
(-0.13437 -0.668262 0)
(-0.150749 -0.660322 0)
(-0.168327 -0.65141 0)
(-0.187396 -0.641465 0)
(-0.208281 -0.630346 0)
(-0.231333 -0.617783 0)
(-0.256899 -0.603315 0)
(-0.285301 -0.586212 0)
(-0.316782 -0.565369 0)
(-0.351442 -0.539211 0)
(-0.389224 -0.505652 0)
(-0.429943 -0.462228 0)
(-0.473404 -0.407261 0)
(-0.00392447 -0.691186 0)
(-0.0125362 -0.696515 0)
(-0.0236795 -0.693307 0)
(-0.0347237 -0.689566 0)
(-0.0461793 -0.685908 0)
(-0.0578901 -0.682141 0)
(-0.069919 -0.677963 0)
(-0.0823627 -0.673103 0)
(-0.0953347 -0.667357 0)
(-0.108965 -0.660588 0)
(-0.123403 -0.652713 0)
(-0.138824 -0.643678 0)
(-0.155439 -0.633425 0)
(-0.173487 -0.621859 0)
(-0.193236 -0.608814 0)
(-0.214963 -0.594012 0)
(-0.238937 -0.577011 0)
(-0.26539 -0.55714 0)
(-0.294477 -0.533404 0)
(-0.326206 -0.504386 0)
(-0.360427 -0.468177 0)
(-0.396876 -0.422438 0)
(-0.435188 -0.365353 0)
(-0.00359863 -0.684132 0)
(-0.0114067 -0.686308 0)
(-0.0220747 -0.682713 0)
(-0.0318884 -0.678777 0)
(-0.042009 -0.674917 0)
(-0.052332 -0.67087 0)
(-0.0629904 -0.666305 0)
(-0.0741146 -0.660943 0)
(-0.0858255 -0.654571 0)
(-0.0982436 -0.647042 0)
(-0.111498 -0.638255 0)
(-0.125737 -0.628129 0)
(-0.141131 -0.616582 0)
(-0.157875 -0.603496 0)
(-0.176181 -0.58869 0)
(-0.196265 -0.571887 0)
(-0.218324 -0.552671 0)
(-0.242516 -0.530432 0)
(-0.26892 -0.504285 0)
(-0.297468 -0.472966 0)
(-0.327941 -0.43475 0)
(-0.360019 -0.387445 0)
(-0.393248 -0.329159 0)
(-0.00335702 -0.677961 0)
(-0.0101643 -0.676473 0)
(-0.0207122 -0.673131 0)
(-0.0291092 -0.669327 0)
(-0.0377512 -0.665387 0)
(-0.0465591 -0.66107 0)
(-0.0557328 -0.656079 0)
(-0.0654252 -0.650159 0)
(-0.0757524 -0.643114 0)
(-0.0868159 -0.634795 0)
(-0.0987194 -0.625092 0)
(-0.11158 -0.613908 0)
(-0.125534 -0.601139 0)
(-0.140736 -0.586651 0)
(-0.157352 -0.570257 0)
(-0.175545 -0.551687 0)
(-0.195459 -0.530558 0)
(-0.217192 -0.506324 0)
(-0.240761 -0.478203 0)
(-0.266044 -0.445082 0)
(-0.292765 -0.405413 0)
(-0.320566 -0.35716 0)
(-0.348941 -0.298392 0)
(-0.00401307 -0.67196 0)
(-0.0088236 -0.666504 0)
(-0.0196865 -0.664588 0)
(-0.0263476 -0.661358 0)
(-0.0333369 -0.657442 0)
(-0.0405125 -0.652843 0)
(-0.0481107 -0.647376 0)
(-0.0562841 -0.640849 0)
(-0.0651267 -0.633099 0)
(-0.0747118 -0.623986 0)
(-0.0851143 -0.613392 0)
(-0.0964216 -0.601205 0)
(-0.108739 -0.587306 0)
(-0.122189 -0.571548 0)
(-0.136902 -0.553737 0)
(-0.153004 -0.533619 0)
(-0.1706 -0.510845 0)
(-0.18975 -0.484935 0)
(-0.210434 -0.455212 0)
(-0.232493 -0.420706 0)
(-0.255615 -0.380042 0)
(-0.279402 -0.331341 0)
(-0.303308 -0.272658 0)
(-0.00848478 -0.66591 0)
(-0.0081322 -0.656115 0)
(-0.019272 -0.657216 0)
(-0.0235912 -0.654995 0)
(-0.0287048 -0.651121 0)
(-0.0341502 -0.646173 0)
(-0.0401123 -0.640167 0)
(-0.0467041 -0.632997 0)
(-0.0539789 -0.624534 0)
(-0.0619741 -0.61465 0)
(-0.0707343 -0.603218 0)
(-0.0803207 -0.590112 0)
(-0.0908134 -0.575193 0)
(-0.102309 -0.558302 0)
(-0.114914 -0.539245 0)
(-0.128732 -0.517777 0)
(-0.14385 -0.493585 0)
(-0.160314 -0.466254 0)
(-0.178097 -0.435207 0)
(-0.197039 -0.399622 0)
(-0.216822 -0.358302 0)
(-0.237021 -0.309539 0)
(-0.25703 -0.251408 0)
(-0.0215583 -0.660894 0)
(-0.00865448 -0.646997 0)
(-0.0196592 -0.651909 0)
(-0.0207986 -0.650709 0)
(-0.023791 -0.646649 0)
(-0.0274517 -0.641171 0)
(-0.0317582 -0.634528 0)
(-0.0367336 -0.62668 0)
(-0.0423737 -0.61752 0)
(-0.0486758 -0.606912 0)
(-0.0556564 -0.594718 0)
(-0.0633543 -0.580791 0)
(-0.0718296 -0.564974 0)
(-0.0811601 -0.547094 0)
(-0.091436 -0.526951 0)
(-0.10275 -0.504306 0)
(-0.115187 -0.478873 0)
(-0.128806 -0.45029 0)
(-0.143608 -0.418078 0)