/*--------------------------------*- C++ -*----------------------------------*\
| =========                 |                                                 |
| \\      /  F ield         | OpenFOAM: The Open Source CFD Toolbox           |
|  \\    /   O peration     | Version:  v1606+                                |
|   \\  /    A nd           | Web:      www.OpenFOAM.com                      |
|    \\/     M anipulation  |                                                 |
\*---------------------------------------------------------------------------*/
FoamFile
{
    version     2.0;
    format      ascii;
    class       volScalarField;
    location    "2.7";
    object      rAU;
}
// * * * * * * * * * * * * * * * * * * * * * * * * * * * * * * * * * * * * * //

dimensions      [-1 3 1 0 0 0 0];

internalField   nonuniform List<scalar> 
11640
(
1.05117702141e-05
1.05042329995e-05
1.05015766404e-05
1.04992587092e-05
1.04964702556e-05
1.04931800531e-05
1.04890279117e-05
1.0481349933e-05
1.04650227451e-05
1.04861629826e-05
1.05154530173e-05
1.05101127909e-05
1.05073020721e-05
1.05055896667e-05
1.05042633122e-05
1.05029196013e-05
1.05020670752e-05
1.05025153224e-05
1.05044554706e-05
1.05118335861e-05
1.05040992894e-05
1.04726033826e-05
1.04596950886e-05
1.045090356e-05
1.04444194228e-05
1.04409646051e-05
1.04386965583e-05
1.04353562228e-05
1.04355437361e-05
1.04496127865e-05
1.04596715581e-05
1.04581053603e-05
1.04584205371e-05
1.04583697186e-05
1.04577159974e-05
1.04563592706e-05
1.04561810505e-05
1.04600681706e-05
1.04717512021e-05
1.05046384306e-05
1.05016914517e-05
1.04598258698e-05
1.04396495931e-05
1.04245492516e-05
1.0415833694e-05
1.04150094907e-05
1.04184498724e-05
1.04212435425e-05
1.04268507187e-05
1.04347483799e-05
1.04365195573e-05
1.0439880521e-05
1.04432886735e-05
1.04452347434e-05
1.04458618632e-05
1.04442591406e-05
1.04432762675e-05
1.04464211366e-05
1.04603415992e-05
1.05025567706e-05
1.04995537903e-05
1.0450749577e-05
1.04232081979e-05
1.04044108779e-05
1.03981381552e-05
1.04017573919e-05
1.04107738939e-05
1.04188682552e-05
1.04263203459e-05
1.04286461989e-05
1.04274270296e-05
1.04328778814e-05
1.04369964028e-05
1.0441190689e-05
1.04443532983e-05
1.04436843724e-05
1.04431204781e-05
1.04445522054e-05
1.04564274174e-05
1.05014893048e-05
1.04969900769e-05
1.04437164751e-05
1.04123402085e-05
1.03954020662e-05
1.03926199153e-05
1.03988821712e-05
1.04112718906e-05
1.04221032641e-05
1.04284070184e-05
1.04260600603e-05
1.04240639717e-05
1.04280974531e-05
1.04359217952e-05
1.04446870924e-05
1.04500422062e-05
1.04506735984e-05
1.04497064142e-05
1.04488438945e-05
1.04576361006e-05
1.05014868681e-05
1.04953649072e-05
1.0440823661e-05
1.04116609175e-05
1.03981945457e-05
1.03939101928e-05
1.03993904273e-05
1.03961119886e-05
1.04193975982e-05
1.04161265468e-05
1.04184613467e-05
1.04256834988e-05
1.04407173806e-05
1.04505879885e-05
1.04520100252e-05
1.04565515703e-05
1.04587729187e-05
1.04579123213e-05
1.04553085339e-05
1.04612027017e-05
1.05022400642e-05
1.04946383993e-05
1.0442329174e-05
1.04181318814e-05
1.04075793794e-05
1.04009584043e-05
1.03993189354e-05
1.03837626891e-05
1.04185465966e-05
1.04335132031e-05
1.04400969515e-05
1.04455838314e-05
1.04385225089e-05
1.04292618967e-05
1.04494128004e-05
1.04618154851e-05
1.04584745923e-05
1.046569994e-05
1.04602523794e-05
1.04642551604e-05
1.05032128925e-05
1.04927699234e-05
1.04438688107e-05
1.04243923272e-05
1.04147995333e-05
1.04056856874e-05
1.03926306818e-05
1.04212621088e-05
1.04406038409e-05
1.04505288403e-05
1.04552340203e-05
1.04565058013e-05
1.04482684464e-05
1.04034033059e-05
1.04351773018e-05
1.0452985642e-05
1.04534648015e-05
1.04647857205e-05
1.0461241556e-05
1.04654530973e-05
1.05035557113e-05
1.04859756695e-05
1.04419506572e-05
1.04273869599e-05
1.04195558157e-05
1.0410923244e-05
1.04013911228e-05
1.04382396205e-05
1.04475811675e-05
1.04501726534e-05
1.04552420211e-05
1.04691852811e-05
1.04799865603e-05
1.04440064511e-05
1.0466612061e-05
1.04678242813e-05
1.04619965841e-05
1.04626434216e-05
1.04608163104e-05
1.04656275857e-05
1.05035052708e-05
1.04665141088e-05
1.04370112096e-05
1.04288168866e-05
1.04220963096e-05
1.04137213681e-05
1.04088440317e-05
1.04403167532e-05
1.04416148963e-05
1.04511672744e-05
1.04618033283e-05
1.04794808434e-05
1.04889194456e-05
1.04560149718e-05
1.04704074335e-05
1.04725128646e-05
1.04653405733e-05
1.04617649043e-05
1.04597249203e-05
1.0465358014e-05
1.05034962377e-05
1.0485948058e-05
1.04482021605e-05
1.04332016132e-05
1.04228389835e-05
1.04153731781e-05
1.04160343161e-05
1.04295113596e-05
1.04113672608e-05
1.04027983421e-05
1.04423935345e-05
1.04772840231e-05
1.04814180677e-05
1.04514644933e-05
1.04598361347e-05
1.04646159474e-05
1.04592252282e-05
1.04582259187e-05
1.04578068079e-05
1.04643135917e-05
1.05029987516e-05
1.05171930104e-05
1.04629533945e-05
1.04385176074e-05
1.04234343399e-05
1.04142169102e-05
1.04150818338e-05
1.04194926407e-05
1.04215179256e-05
1.04082149897e-05
1.04422726258e-05
1.04750598598e-05
1.04786060931e-05
1.04697919574e-05
1.04487763084e-05
1.04452188782e-05
1.04518470388e-05
1.04546282975e-05
1.04544411545e-05
1.04616841891e-05
1.05016437129e-05
1.0511475086e-05
1.04606627717e-05
1.04390740145e-05
1.04256289681e-05
1.0415602573e-05
1.04098400759e-05
1.04105286521e-05
1.04035133693e-05
1.04160853438e-05
1.04448141352e-05
1.04526909744e-05
1.04589355618e-05
1.04580573665e-05
1.04492410702e-05
1.04468050192e-05
1.04487786185e-05
1.04495471199e-05
1.04480096439e-05
1.04557289702e-05
1.04979996387e-05
1.05066981594e-05
1.04552092108e-05
1.04355406357e-05
1.04252654453e-05
1.0417904281e-05
1.04125295276e-05
1.04105148253e-05
1.04135528464e-05
1.04215656825e-05
1.0429665398e-05
1.04309359995e-05
1.04347389971e-05
1.04373777676e-05
1.04389013634e-05
1.04416718608e-05
1.04432559236e-05
1.0441252303e-05
1.04388228636e-05
1.04501276835e-05
1.04978595094e-05
1.05050196159e-05
1.04513043864e-05
1.04312921794e-05
1.04221596265e-05
1.04170728494e-05
1.04133708278e-05
1.04118748256e-05
1.04130469211e-05
1.04155443944e-05
1.04169587962e-05
1.04177839997e-05
1.04213063021e-05
1.04244399209e-05
1.04289899783e-05
1.04340029051e-05
1.04352943923e-05
1.04335915821e-05
1.04344512652e-05
1.04502162177e-05
1.05016696938e-05
1.05034527662e-05
1.0452078228e-05
1.04297487256e-05
1.04197598159e-05
1.04149711606e-05
1.04126835375e-05
1.04119280793e-05
1.04122077476e-05
1.04124034374e-05
1.04117701056e-05
1.04126331368e-05
1.04148731692e-05
1.04175940439e-05
1.04224408369e-05
1.04265595697e-05
1.0427308104e-05
1.04276859915e-05
1.04327662203e-05
1.04511478277e-05
1.05023141274e-05
1.05025010957e-05
1.04541515955e-05
1.04345418378e-05
1.04233277308e-05
1.04171016994e-05
1.04144357528e-05
1.04136388343e-05
1.04136933453e-05
1.04136398321e-05
1.04132561079e-05
1.0413840093e-05
1.04141545726e-05
1.04151995964e-05
1.04187100959e-05
1.04218274445e-05
1.04226198202e-05
1.04245839587e-05
1.04323216967e-05
1.04519575904e-05
1.05014403968e-05
1.05029001586e-05
1.04596159287e-05
1.04426858408e-05
1.0433822956e-05
1.04287478279e-05
1.04258871889e-05
1.04244919398e-05
1.04240326162e-05
1.0423895869e-05
1.04235874151e-05
1.04228200626e-05
1.04217918938e-05
1.04214350838e-05
1.04235974751e-05
1.04263514679e-05
1.04278431652e-05
1.04312048817e-05
1.0439495241e-05
1.04573104268e-05
1.05017735807e-05
1.0504810414e-05
1.0471805157e-05
1.04594859495e-05
1.04532292992e-05
1.04497972951e-05
1.04480562442e-05
1.04472219828e-05
1.04467566356e-05
1.04465203284e-05
1.04462278408e-05
1.04455496644e-05
1.04444019967e-05
1.04435919665e-05
1.04449424305e-05
1.04472275157e-05
1.04486505732e-05
1.04512200737e-05
1.04571145307e-05
1.04698319689e-05
1.05035825608e-05
1.05120813882e-05
1.05045381167e-05
1.05021610702e-05
1.05011918726e-05
1.05005947465e-05
1.05003831191e-05
1.05003840698e-05
1.05002807538e-05
1.05002186532e-05
1.05001320313e-05
1.04997812768e-05
1.04987572466e-05
1.04980685213e-05
1.04996119761e-05
1.05013820527e-05
1.05013600418e-05
1.05011734617e-05
1.05016580762e-05
1.05034927715e-05
1.05112816468e-05
1.04792850414e-05
1.04543355241e-05
1.04453390959e-05
1.04400882905e-05
1.04362042685e-05
1.04328102886e-05
1.04295150779e-05
1.04264956102e-05
1.0428651453e-05
1.04377119573e-05
1.04435676935e-05
1.04426911699e-05
1.04412940114e-05
1.04397393564e-05
1.0439400102e-05
1.04403147333e-05
1.04419534625e-05
1.04459743365e-05
1.04545287717e-05
1.04797437305e-05
1.04540705028e-05
1.03185757817e-05
1.02616543017e-05
1.02353050589e-05
1.02227459336e-05
1.0216507416e-05
1.0210645807e-05
1.02044727613e-05
1.02036122984e-05
1.020757773e-05
1.02075800968e-05
1.02060918186e-05
1.02055352061e-05
1.02037808646e-05
1.02046741711e-05
1.0210987287e-05
1.02255715926e-05
1.0254031653e-05
1.03144506357e-05
1.04549200657e-05
1.04452612837e-05
1.02616129442e-05
1.01833468013e-05
1.0150598243e-05
1.01396340888e-05
1.01355794865e-05
1.01295033759e-05
1.01206005911e-05
1.01159967964e-05
1.01131794337e-05
1.01063519685e-05
1.01059750929e-05
1.01043091985e-05
1.010002983e-05
1.00991157453e-05
1.01059756561e-05
1.0126125555e-05
1.01685755384e-05
1.02555151299e-05
1.04462280021e-05
1.04404748652e-05
1.02373553188e-05
1.0154874971e-05
1.01285850878e-05
1.0127304995e-05
1.01288697893e-05
1.01233904279e-05
1.01132053697e-05
1.01049902918e-05
1.00925262768e-05
1.00799899491e-05
1.00773000355e-05
1.00698659235e-05
1.0060187863e-05
1.00559698022e-05
1.00601842502e-05
1.0081028854e-05
1.01286233799e-05
1.022845002e-05
1.04419498039e-05
1.04380871855e-05
1.02308896568e-05
1.01560511878e-05
1.01440545373e-05
1.0154558631e-05
1.01607358239e-05
1.01557222909e-05
1.0148664027e-05
1.01381636815e-05
1.01142241457e-05
1.00965285404e-05
1.00881440187e-05
1.00777008634e-05
1.0063527646e-05
1.00515585853e-05
1.00483650375e-05
1.00657496796e-05
1.01130266917e-05
1.02169835089e-05
1.04401611687e-05
1.0438300336e-05
1.02356930765e-05
1.01745705589e-05
1.01770613059e-05
1.0196663536e-05
1.02056022458e-05
1.0188749572e-05
1.01982566082e-05
1.02027401223e-05
1.01662753131e-05
1.01499274657e-05
1.01461612631e-05
1.01276696278e-05
1.00864980077e-05
1.00612667721e-05
1.00539219625e-05
1.00687036649e-05
1.0112681428e-05
1.02153307003e-05
1.04397390324e-05
1.043910132e-05
1.02444933957e-05
1.01961173065e-05
1.02101856541e-05
1.0238468191e-05
1.02484481707e-05
1.02606523435e-05
1.02799304969e-05
1.02982816206e-05
1.02597945996e-05
1.02316075515e-05
1.01937666127e-05
1.01459210025e-05
1.01385095235e-05
1.00779006761e-05
1.00888742566e-05
1.00851291474e-05
1.01203369566e-05
1.02187721507e-05
1.04401555797e-05
1.04383150579e-05
1.02495185884e-05
1.02088572546e-05
1.02294707762e-05
1.02636554859e-05
1.02666051935e-05
1.02881109538e-05
1.03643535687e-05
1.04006118403e-05
1.03846463424e-05
1.03533299865e-05
1.02837423081e-05
1.02218761552e-05
1.01390492603e-05
1.00656865351e-05
1.00863522743e-05
1.00895105313e-05
1.01253823772e-05
1.02220794385e-05
1.04407125643e-05
1.04364239504e-05
1.02503112635e-05
1.02136863721e-05
1.02376261676e-05
1.02752036353e-05
1.02830999833e-05
1.02970667334e-05
1.0383186084e-05
1.04324204317e-05
1.04420177126e-05
1.04291013249e-05
1.03876201068e-05
1.03339501103e-05
1.02262590677e-05
1.01040887021e-05
1.00759107098e-05
1.00873217028e-05
1.01264447405e-05
1.02234105488e-05
1.04410050603e-05
1.04363838933e-05
1.02504387295e-05
1.02151498928e-05
1.02394338143e-05
1.02772181808e-05
1.02900274432e-05
1.0319800302e-05
1.03732885529e-05
1.04121387843e-05
1.04237911391e-05
1.04436758667e-05
1.04261934429e-05
1.0368843615e-05
1.0258108876e-05
1.01229078931e-05
1.00863036079e-05
1.00860733017e-05
1.01246440571e-05
1.02228081358e-05
1.04409322194e-05
1.04432934826e-05
1.02531605635e-05
1.02144148338e-05
1.02355065384e-05
1.02724704843e-05
1.02964311796e-05
1.03150221737e-05
1.03213246551e-05
1.0344949489e-05
1.037059334e-05
1.03897506853e-05
1.03816304218e-05
1.03334926845e-05
1.01984790704e-05
1.00814336999e-05
1.00652338019e-05
1.00756257794e-05
1.01182263926e-05
1.02195457086e-05
1.04402394071e-05
1.04500145396e-05
1.02532586127e-05
1.02091477329e-05
1.02241520362e-05
1.02522406885e-05
1.02868426565e-05
1.03063323058e-05
1.02567263794e-05
1.02861016873e-05
1.02930742139e-05
1.02849789723e-05
1.02857304909e-05
1.02493136511e-05
1.0118654973e-05
1.00518797435e-05
1.00505186194e-05
1.00657237689e-05
1.01106478811e-05
1.02149054005e-05
1.04385620339e-05
1.04483102107e-05
1.02423095247e-05
1.01907479379e-05
1.02001387965e-05
1.02191799778e-05
1.02332978728e-05
1.02381629501e-05
1.02045732749e-05
1.01958492494e-05
1.01766966131e-05
1.01638506927e-05
1.01621326445e-05
1.01576775077e-05
1.00967711355e-05
1.00506670585e-05
1.00422120576e-05
1.00580441591e-05
1.01039997975e-05
1.02089536358e-05
1.04332124343e-05
1.04441491932e-05
1.02260587208e-05
1.01599487205e-05
1.01584640686e-05
1.01722306843e-05
1.01786940519e-05
1.01717301427e-05
1.01490537657e-05
1.01263093736e-05
1.01017995836e-05
1.00821676372e-05
1.00740069859e-05
1.00762088013e-05
1.0055027705e-05
1.00363291115e-05
1.00338084653e-05
1.0050371396e-05
1.00972075599e-05
1.02038806037e-05
1.04348554713e-05
1.0441761768e-05
1.02119300973e-05
1.01302603429e-05
1.01138104493e-05
1.01178694824e-05
1.01205747513e-05
1.01145286234e-05
1.00993577631e-05
1.00777617293e-05
1.00564164252e-05
1.00424362379e-05
1.00381740927e-05
1.00317779902e-05
1.00223363313e-05
1.00174930143e-05
1.0022966107e-05
1.00443479023e-05
1.00938780324e-05
1.02025023106e-05
1.04404707096e-05
1.04408527683e-05
1.02104968408e-05
1.01131306938e-05
1.00817788243e-05
1.00755717342e-05
1.00740145489e-05
1.00678828449e-05
1.00564277912e-05
1.00426348957e-05
1.0029126037e-05
1.00212915935e-05
1.00185526849e-05
1.00161294681e-05
1.00142105401e-05
1.0015521484e-05
1.00244300729e-05
1.00477007224e-05
1.00971537645e-05
1.02055001607e-05
1.04401519098e-05
1.04418992502e-05
1.02219941234e-05
1.01232327896e-05
1.0078832265e-05
1.00617286604e-05
1.00555744479e-05
1.00505687169e-05
1.00442101386e-05
1.00374986784e-05
1.00315693268e-05
1.00288331976e-05
1.00270870365e-05
1.00263447825e-05
1.00277454197e-05
1.00320207742e-05
1.00420224396e-05
1.00644551487e-05
1.01130524079e-05
1.02180628723e-05
1.04411924646e-05
1.04460359731e-05
1.02506177126e-05
1.01628774505e-05
1.01195647188e-05
1.00973476153e-05
1.00865711673e-05
1.00809661349e-05
1.00773406915e-05
1.00748162421e-05
1.00728087045e-05
1.00711411332e-05
1.0069581976e-05
1.00693399098e-05
1.00719893524e-05
1.00773653936e-05
1.00877191767e-05
1.01101120222e-05
1.01552904479e-05
1.0248147884e-05
1.04456819797e-05
1.04546542278e-05
1.03123632695e-05
1.02506254621e-05
1.0220140117e-05
1.02034492215e-05
1.0194375713e-05
1.01896539845e-05
1.01871838079e-05
1.01859375011e-05
1.01850851934e-05
1.01840723657e-05
1.01826322306e-05
1.01821962687e-05
1.01855367224e-05
1.01912616068e-05
1.01994339455e-05
1.02156701491e-05
1.02473433409e-05
1.03123936502e-05
1.04553332679e-05
1.04795977827e-05
1.04542057343e-05
1.04451239763e-05
1.04401823381e-05
1.04373396145e-05
1.04358211283e-05
1.04352918596e-05
1.04349180484e-05
1.0434749991e-05
1.04346469285e-05
1.04342132647e-05
1.04325659614e-05
1.04282334206e-05
1.04323626986e-05
1.04391424677e-05
1.04390292878e-05
1.04408166468e-05
1.04454730554e-05
1.04551957297e-05
1.0480728366e-05
1.04688389096e-05
1.04345492597e-05
1.04208914759e-05
1.0413010241e-05
1.04075530505e-05
1.04035456692e-05
1.04010399561e-05
1.04006601637e-05
1.0403730874e-05
1.04085723866e-05
1.04118618392e-05
1.0413191171e-05
1.04131996456e-05
1.04124654559e-05
1.04126393411e-05
1.04146147526e-05
1.0417741675e-05
1.0424217237e-05
1.04369551426e-05
1.04709969567e-05
1.04343927716e-05
1.02216116106e-05
1.01281029389e-05
1.00834867916e-05
1.00613052846e-05
1.00506312651e-05
1.0044982629e-05
1.00428413553e-05
1.0044298895e-05
1.00466148215e-05
1.00469501326e-05
1.00466674074e-05
1.00457081649e-05
1.00442955517e-05
1.00456493858e-05
1.00552012542e-05
1.00785711178e-05
1.01252857907e-05
1.02224340927e-05
1.0437318026e-05
1.04210365378e-05
1.01275561684e-05
9.99203531621e-06
9.92916872811e-06
9.9015893372e-06
9.88960049699e-06
9.88433458944e-06
9.88251970204e-06
9.88307810904e-06
9.88272577826e-06
9.88098483942e-06
9.88003037146e-06
9.87669906281e-06
9.87154683156e-06
9.8696045798e-06
9.87977494227e-06
9.91234198282e-06
9.98316945666e-06
1.01275582071e-05
1.04243761632e-05
1.04137804432e-05
1.00847506091e-05
9.93316967187e-06
9.86948052686e-06
9.84689355225e-06
9.84133117064e-06
9.84107439269e-06
9.8430447973e-06
9.84411102641e-06
9.8401106995e-06
9.83644064833e-06
9.83235701824e-06
9.82134871998e-06
9.80812786755e-06
9.79850228548e-06
9.80286885211e-06
9.83574650778e-06
9.91537024631e-06
1.008288197e-05
1.0417775757e-05
1.04100917997e-05
1.00678614105e-05
9.91705216682e-06
9.86267073456e-06
9.85284647402e-06
9.85878159851e-06
9.8695301729e-06
9.8832770047e-06
9.8876442193e-06
9.87915172793e-06
9.87401150593e-06
9.86425483356e-06
9.84062157782e-06
9.81518703275e-06
9.79428854614e-06
9.78443226725e-06
9.80957964781e-06
9.88813953089e-06
1.00628881114e-05
1.04147259566e-05
1.04091489407e-05
1.00666927266e-05
9.92484229779e-06
9.88453901642e-06
9.89315540562e-06
9.9192218351e-06
9.93916045308e-06
9.99547753755e-06
1.00181482063e-05
1.00025720576e-05
9.99291991021e-06
9.97831264089e-06
9.93248655261e-06
9.84596781036e-06
9.8175516683e-06
9.79682476222e-06
9.81381197833e-06
9.8856075165e-06
1.00583198691e-05
1.04139237184e-05
1.04091456407e-05
1.00724406116e-05
9.94158110261e-06
9.91671261259e-06
9.94783614481e-06
9.99143522476e-06
1.00407563892e-05
1.0189251101e-05
1.02401168661e-05
1.02385694251e-05
1.02078402334e-05
1.0154623964e-05
1.00750825054e-05
9.94398415007e-06
9.793697009e-06
9.8406950769e-06
9.83748530001e-06
9.895987388e-06
1.00619124274e-05
1.04142567456e-05
1.04085232821e-05
1.00767206928e-05
9.95324721719e-06
9.94032064001e-06
9.99125177269e-06
1.00240017141e-05
1.01187619975e-05
1.03841766222e-05
1.04431837983e-05
1.04479644672e-05
1.04271228684e-05
1.03765561262e-05
1.0305127316e-05
1.00634749942e-05
9.84173480347e-06
9.80238269977e-06
9.85096424727e-06
9.90495881183e-06
1.00664029478e-05
1.04148312877e-05
1.04080736458e-05
1.0077604352e-05
9.95680629262e-06
9.94906207419e-06
1.00056161844e-05
1.00564613602e-05
1.01626473987e-05
1.04027535415e-05
1.04827584096e-05
1.04904688024e-05
1.04578408046e-05
1.04276651405e-05
1.04230351566e-05
1.01620561858e-05
9.89045032395e-06
9.80080583801e-06
9.85317958832e-06
9.90773860617e-06
1.00680905743e-05
1.04151313549e-05
1.04088185653e-05
1.00765110643e-05
9.95494112144e-06
9.9473423538e-06
1.00025835697e-05
1.00589826477e-05
1.01844523763e-05
1.04099758508e-05
1.04613390063e-05
1.04687086955e-05
1.04706342012e-05
1.04283807942e-05
1.04422176062e-05
1.02023412918e-05
9.90963665999e-06
9.81081362686e-06
9.85158404809e-06
9.90515307623e-06
1.0066710594e-05
1.04149101499e-05
1.04115297543e-05
1.00733439832e-05
9.94694605711e-06
9.93479234137e-06
9.98334953256e-06
1.00473215816e-05
1.01764915665e-05
1.03548583225e-05
1.04065655428e-05
1.04289838146e-05
1.04540976942e-05
1.04214074874e-05
1.0406498994e-05
1.01254822341e-05
9.85883404214e-06
9.78194542293e-06
9.83648285456e-06
9.89486030747e-06
1.00614345297e-05
1.04140344289e-05
1.04143273563e-05
1.00676216133e-05
9.93351612142e-06
9.91191163235e-06
9.9442783844e-06
1.00166287209e-05
1.01050522609e-05
1.01461705303e-05
1.02144964305e-05
1.0243532436e-05
1.02576680689e-05
1.02537072227e-05
1.02124374037e-05
9.95487123556e-06
9.85942004348e-06
9.81230239595e-06
9.8144613171e-06
9.88084522744e-06
1.0054215447e-05
1.04121256433e-05
1.04154725247e-05
1.00584083174e-05
9.91335911382e-06
9.87937295116e-06
9.89300111663e-06
9.92464112188e-06
9.96652195716e-06
9.98737271305e-06
1.00033645811e-05
1.0005615692e-05
9.9981637424e-06
9.99243444869e-06
9.96011063325e-06
9.86922579378e-06
9.80677967195e-06
9.77598497476e-06
9.79197231599e-06
9.86700811065e-06
1.00460753774e-05
1.0408908013e-05
1.04155870649e-05
1.00503383355e-05
9.89120294182e-06
9.83918643506e-06
9.83523434512e-06
9.84715215878e-06
9.85642368323e-06
9.86026811912e-06
9.85619638053e-06
9.84488239014e-06
9.83236049085e-06
9.8290103198e-06
9.81591737565e-06
9.78260214818e-06
9.75256543305e-06
9.74464703526e-06
9.77189170613e-06
9.85481247953e-06
1.00393629561e-05
1.04094784268e-05
1.04145261837e-05
1.00447600143e-05
9.87657627493e-06
9.80878675593e-06
9.78679910041e-06
9.78297935237e-06
9.78297499556e-06
9.77947537328e-06
9.76984154464e-06
9.75831115103e-06
9.74903782209e-06
9.74298381247e-06
9.7331256128e-06
9.71876604893e-06
9.71075219676e-06
9.7207256551e-06
9.76027624775e-06
9.84991817063e-06
1.00376375067e-05
1.04123697341e-05
1.041474596e-05
1.00490038069e-05
9.87521940497e-06
9.79869837002e-06
9.76570010499e-06
9.75162677672e-06
9.74339392705e-06
9.73540828174e-06
9.72679211504e-06
9.71854304664e-06
9.71270670644e-06
9.70891139162e-06
9.70498091999e-06
9.70224699194e-06
9.70602014331e-06
9.72429689948e-06
9.76833636867e-06
9.85827872223e-06
1.00448628628e-05
1.04135897758e-05
1.04173517312e-05
1.00701962199e-05
9.90124413172e-06
9.81998284196e-06
9.78147466312e-06
9.76331285256e-06
9.75309995704e-06
9.74549473212e-06
9.73926573582e-06
9.73446669692e-06
9.73132241365e-06
9.72904151654e-06
9.72805238026e-06
9.73030117099e-06
9.73884158085e-06
9.75939246959e-06
9.80236489691e-06
9.88961734229e-06
1.00681959343e-05
1.04169155496e-05
1.04240098926e-05
1.01178802517e-05
9.97096093972e-06
9.89657099193e-06
9.85727791839e-06
9.83744639993e-06
9.82719478158e-06
9.82114187994e-06
9.81727676258e-06
9.81464050509e-06
9.81253048757e-06
9.81094654555e-06
9.81124610471e-06
9.81540049656e-06
9.82502727409e-06
9.84499263769e-06
9.88549974815e-06
9.96372683581e-06
1.01184303868e-05
1.0424498213e-05
1.04367828339e-05
1.02176588368e-05
1.01181485695e-05
1.00682271128e-05
1.00406575138e-05
1.00254967719e-05
1.00175291828e-05
1.001338691e-05
1.00112613444e-05
1.00100126164e-05
1.00088021537e-05
1.000763137e-05
1.00080425531e-05
1.00128236619e-05
1.00218239213e-05
1.00368552979e-05
1.00649378788e-05
1.0117237706e-05
1.02214679927e-05
1.04390099638e-05
1.04707918377e-05
1.04362321307e-05
1.04225103461e-05
1.04151271811e-05
1.04108492349e-05
1.040848461e-05
1.04074259388e-05
1.04069416723e-05
1.0406717976e-05
1.04065954264e-05
1.04060679402e-05
1.04044989681e-05
1.04005221181e-05
1.04052579097e-05
1.04124594573e-05
1.0413107717e-05
1.04167605309e-05
1.04243046499e-05
1.04388126782e-05
1.04727682387e-05
1.04650403837e-05
1.04254496133e-05
1.04091493141e-05
1.03998343436e-05
1.03937937307e-05
1.03901050242e-05
1.03887249072e-05
1.03894887713e-05
1.03920267979e-05
1.03950543774e-05
1.03969873613e-05
1.03981998848e-05
1.03986609986e-05
1.0398467849e-05
1.0399214078e-05
1.04019127134e-05
1.04060633814e-05
1.04140465738e-05
1.04295524953e-05
1.04686823187e-05
1.04253386866e-05
1.01685397905e-05
1.00519165019e-05
9.99536889959e-06
9.96743770601e-06
9.95542427394e-06
9.95161859595e-06
9.95251921446e-06
9.9553026507e-06
9.95720913738e-06
9.95708029168e-06
9.95579435649e-06
9.95372320667e-06
9.95184636657e-06
9.95344753317e-06
9.96499238394e-06
9.99409611405e-06
1.00528232737e-05
1.0173108606e-05
1.04296464958e-05
1.04093155979e-05
1.00509371787e-05
9.87631346977e-06
9.79152914268e-06
9.75297735538e-06
9.738470701e-06
9.7372586096e-06
9.74198955041e-06
9.74663536708e-06
9.74837414466e-06
9.74746679705e-06
9.74451068837e-06
9.73816317096e-06
9.73108189042e-06
9.72818731402e-06
9.74052146122e-06
9.78200111988e-06
9.87300523632e-06
1.00555578392e-05
1.04139537272e-05
1.04006299916e-05
9.99531212535e-06
9.79383509564e-06
9.70127673672e-06
9.66502180104e-06
9.65892046135e-06
9.66832129864e-06
9.68238307684e-06
9.69102410733e-06
9.69266224295e-06
9.69121820242e-06
9.68453619942e-06
9.66866246742e-06
9.65012679753e-06
9.63555811861e-06
9.63936861171e-06
9.68135791988e-06
9.784700699e-06
9.99888873398e-06
1.04058039487e-05
1.03961476765e-05
9.97070858566e-06
9.76318389087e-06
9.67593550878e-06
9.65310835586e-06
9.66463238257e-06
9.69548435409e-06
9.73032574422e-06
9.74578474902e-06
9.74734838818e-06
9.74633509947e-06
9.73304937133e-06
9.69891507739e-06
9.66433959293e-06
9.63017626894e-06
9.61349517215e-06
9.64470432169e-06
9.74717854455e-06
9.97220960663e-06
1.04018869754e-05
1.03948072755e-05
9.96538926283e-06
9.76299294985e-06
9.68855982289e-06
9.68893067412e-06
9.7334862737e-06
9.79808210949e-06
9.90494392573e-06
9.93733046824e-06
9.9378298576e-06
9.93574777102e-06
9.92098774058e-06
9.86289000151e-06
9.73475355642e-06
9.67420526169e-06
9.63155681303e-06
9.6476585619e-06
9.7408876031e-06
9.96435598255e-06
1.04007470832e-05
1.03948850665e-05
9.96973222662e-06
9.77713304745e-06
9.71989303257e-06
9.75058347812e-06
9.83679108113e-06
9.97231304314e-06
1.024869907e-05
1.0323572378e-05
1.03529907249e-05
1.034478398e-05
1.03047557996e-05
1.02280441769e-05
9.93559000242e-06
9.73770221534e-06
9.68501796316e-06
9.67463359275e-06
9.75130508517e-06
9.96687490076e-06
1.04010223438e-05
1.03949840091e-05
9.97421123862e-06
9.78835117504e-06
9.74313128589e-06
9.80431857143e-06
9.91779669705e-06
1.02221190746e-05
1.02321948829e-05
9.83952795231e-06
9.69088791277e-06
9.69953020113e-06
9.76260952788e-06
9.97144291715e-06
1.04015989783e-05
1.03950153758e-05
9.97550547978e-06
9.79181909217e-06
9.75210869162e-06
9.81895956075e-06
9.93464090045e-06
1.02950229493e-05
1.026490408e-05
9.85702577326e-06
9.70365731582e-06
9.70671659202e-06
9.76609638679e-06
9.97289375576e-06
1.04016627579e-05
1.03956503269e-05
9.97362393889e-06
9.78819132616e-06
9.74839118837e-06
9.81337483724e-06
9.93628216493e-06
1.03121390389e-05
1.02596807743e-05
9.86010343279e-06
9.70224064406e-06
9.70306506042e-06
9.76172512997e-06
9.97032425711e-06
1.04012273374e-05
1.03966332307e-05
9.96799226839e-06
9.7761461585e-06
9.72990413209e-06
9.78364296775e-06
9.93171964425e-06
1.02927338563e-05
1.01925599912e-05
9.80019685884e-06
9.65931033011e-06
9.67987699781e-06
9.74716797977e-06
9.9629925016e-06
1.03998560863e-05
1.03978302682e-05
9.96036773952e-06
9.75889326326e-06
9.69929065967e-06
9.7249140282e-06
9.83434197336e-06
1.00462264719e-05
1.0262739418e-05
1.03047379612e-05
1.03304295543e-05
1.03585262627e-05
1.03515430403e-05
1.0287109305e-05
9.94823324552e-06
9.72740777711e-06
9.64041858454e-06
9.64028164558e-06
9.72707151556e-06
9.95347986931e-06
1.03976249424e-05
1.03992134623e-05
9.95281241256e-06
9.74046840799e-06
9.66454415163e-06
9.66481448728e-06
9.71198679736e-06
9.79367778307e-06
9.91132032381e-06
9.93514114677e-06
9.93113947384e-06
9.9198894325e-06
9.90253364073e-06
9.86485825799e-06
9.73079669052e-06
9.62886519168e-06
9.58599763762e-06
9.60786923268e-06
9.70909753807e-06
9.94441916329e-06
1.03955549473e-05
1.04000466817e-05
9.94706766606e-06
9.72515269888e-06
9.63230259342e-06
9.60776400231e-06
9.62009999161e-06
9.64710713951e-06
9.67939478332e-06
9.68625365474e-06
9.68110512623e-06
9.67071643974e-06
9.6565909135e-06
9.63752962312e-06
9.59269922181e-06
9.55502285187e-06
9.54419564599e-06
9.58294818874e-06
9.69578672776e-06
9.93819369508e-06
1.03956843603e-05
1.04001149255e-05
9.94468932983e-06
9.71762363098e-06
9.61342190658e-06
9.57060829427e-06
9.55972906306e-06
9.56379967165e-06
9.56949468953e-06
9.56746322998e-06
9.5609377157e-06
9.55259824038e-06
9.54353902916e-06
9.53003689682e-06
9.51115779334e-06
9.50144716093e-06
9.51653961491e-06
9.57186564188e-06
9.69301399918e-06
9.93805425429e-06
1.03970332277e-05
1.04014356958e-05
9.95337527006e-06
9.72528845666e-06
9.61623225126e-06
9.56408133732e-06
9.54095401975e-06
9.53121224953e-06
9.52540980893e-06
9.51955382132e-06
9.51313223336e-06
9.50725373522e-06
9.50173004332e-06
9.49604878798e-06
9.4928699973e-06
9.49930382556e-06
9.52584420741e-06
9.58678301536e-06
9.70756983823e-06
9.94937659949e-06
1.03990735405e-05
1.04052844521e-05
9.98167423058e-06
9.76383110944e-06
9.65500220939e-06
9.60015547262e-06
9.57291713164e-06
9.55897823788e-06
9.55050083231e-06
9.54445691645e-06
9.53983680384e-06
9.53606260271e-06
9.53295615447e-06
9.53154726423e-06
9.53478782322e-06
9.54731014732e-06
9.57668184838e-06
9.63576702215e-06
9.75143819235e-06
9.98050401982e-06
1.04041417051e-05
1.04137091594e-05
1.00421694487e-05
9.85532920109e-06
9.75878061287e-06
9.70679482616e-06
9.67991195002e-06
9.66602856211e-06
9.65816630517e-06
9.65332896705e-06
9.65009167816e-06
9.64750882131e-06
9.64576723996e-06
9.64641510777e-06
9.65195203827e-06
9.66534700113e-06
9.69301408242e-06
9.74699663289e-06
9.84842039423e-06
1.00442137798e-05
1.04139648792e-05
1.04287482347e-05
1.01657376203e-05
1.00424114797e-05
9.97965235129e-06
9.94469593221e-06
9.92525717823e-06
9.91489823283e-06
9.90958044369e-06
9.90675882029e-06
9.90513618646e-06
9.90375803006e-06
9.90283887674e-06
9.90389904739e-06
9.90947778529e-06
9.92083758948e-06
9.94098103673e-06
9.97724927937e-06
1.00430912041e-05
1.01719327983e-05
1.04317948056e-05
1.04681790217e-05
1.04279493364e-05
1.04113968502e-05
1.040224432e-05
1.03971603377e-05
1.0394237871e-05
1.03927079099e-05
1.03921659639e-05
1.03918169187e-05
1.03916238812e-05
1.0391065827e-05
1.03899324529e-05
1.03880684241e-05
1.03907474342e-05
1.0396004165e-05
1.0399186588e-05
1.04044770904e-05
1.04140110622e-05
1.04316183358e-05
1.04705479507e-05
1.04625533607e-05
1.04195128788e-05
1.04015015877e-05
1.03912561791e-05
1.0384989619e-05
1.03817567468e-05
1.03810776986e-05
1.0382159457e-05
1.03841938116e-05
1.03863858515e-05
1.03878280069e-05
1.038859606e-05
1.03892028661e-05
1.03892823055e-05
1.03904448212e-05
1.03937399019e-05
1.03987020388e-05
1.04079240053e-05
1.04250769385e-05
1.04676016349e-05
1.04194443838e-05
1.01358831655e-05
1.00040669848e-05
9.93933893174e-06
9.90754681733e-06
9.89498147818e-06
9.89288149798e-06
9.89571937124e-06
9.89941336648e-06
9.9014163594e-06
9.90093078051e-06
9.8985890457e-06
9.8956617655e-06
9.8932687546e-06
9.89516283726e-06
9.90795241303e-06
9.94054159807e-06
1.00076053423e-05
1.01428528682e-05
1.04249501262e-05
1.04016678337e-05
1.00027494823e-05
9.80149272798e-06
9.70137797572e-06
9.65566490104e-06
9.64043753257e-06
9.64269382617e-06
9.65198544748e-06
9.65959922801e-06
9.66298990325e-06
9.66232430446e-06
9.65791081278e-06