/*--------------------------------*- C++ -*----------------------------------*\
| =========                 |                                                 |
| \\      /  F ield         | OpenFOAM: The Open Source CFD Toolbox           |
|  \\    /   O peration     | Version:  v1606+                                |
|   \\  /    A nd           | Web:      www.OpenFOAM.com                      |
|    \\/     M anipulation  |                                                 |
\*---------------------------------------------------------------------------*/
FoamFile
{
    version     2.0;
    format      ascii;
    class       volScalarField;
    location    "0.01";
    object      k.air;
}
// * * * * * * * * * * * * * * * * * * * * * * * * * * * * * * * * * * * * * //

dimensions      [0 2 -2 0 0 0 0];

internalField   nonuniform List<scalar> 
6000
(
0.899206
0.954802
0.9676
0.972814
0.97524
0.976133
0.976343
0.976291
0.976164
0.976039
0.975929
0.975855
0.975797
0.975781
0.975755
0.975751
0.975782
0.975816
0.975867
0.975943
0.976029
0.976155
0.976285
0.976345
0.976133
0.975231
0.972803
0.967616
0.954803
0.899207
0.615605
0.879661
0.950006
0.975301
0.98661
0.991486
0.993325
0.99383
0.99383
0.993684
0.99353
0.993398
0.9933
0.993227
0.993207
0.993215
0.993231
0.993286
0.993383
0.993523
0.993699
0.993843
0.993831
0.993318
0.991487
0.986621
0.975308
0.949996
0.879664
0.615606
0.505768
0.811316
0.909991
0.949558
0.966343
0.97388
0.977109
0.978342
0.97872
0.978778
0.978742
0.978683
0.978632
0.978589
0.978578
0.978581
0.978586
0.978613
0.978664
0.978732
0.978789
0.978732
0.978346
0.977107
0.973885
0.966355
0.949564
0.909978
0.811318
0.505769
0.467538
0.776567
0.884551
0.929726
0.950409
0.960145
0.964582
0.966459
0.96717
0.9674
0.967452
0.967448
0.96743
0.967415
0.967408
0.967407
0.967411
0.967421
0.967438
0.967447
0.967403
0.967176
0.966463
0.964585
0.96015
0.950416
0.92973
0.88455
0.776567
0.467536
0.455208
0.761193
0.870784
0.917961
0.940307
0.951142
0.956244
0.958494
0.959403
0.959733
0.959837
0.959863
0.959864
0.95986
0.959856
0.959854
0.959856
0.959859
0.959858
0.959836
0.959735
0.959407
0.958499
0.956248
0.951147
0.940312
0.917965
0.870784
0.761191
0.455199
0.450753
0.754416
0.8635
0.910986
0.933819
0.945071
0.950464
0.952893
0.9539
0.95428
0.954409
0.954448
0.954458
0.954458
0.954456
0.954454
0.954455
0.954455
0.954447
0.954409
0.954281
0.953903
0.952897
0.950469
0.945075
0.933825
0.910988
0.863498
0.754413
0.450751
0.448522
0.751171
0.859516
0.906771
0.929605
0.940938
0.946419
0.948911
0.949957
0.950357
0.950495
0.950537
0.95055
0.950551
0.95055
0.950549
0.950549
0.950549
0.950538
0.950496
0.950357
0.949957
0.948911
0.94642
0.940941
0.929607
0.906771
0.859513
0.751166
0.448524
0.446948
0.749339
0.857146
0.904097
0.926791
0.938079
0.943554
0.946056
0.947112
0.947517
0.947659
0.947701
0.947713
0.947714
0.947713
0.947712
0.947713
0.947713
0.947701
0.947657
0.947516
0.94711
0.946054
0.943554
0.938079
0.926792
0.904096
0.857142
0.749333
0.44695
0.44559
0.748074
0.855565
0.902281
0.924837
0.936053
0.941497
0.94399
0.945043
0.945447
0.945589
0.945631
0.945642
0.945643
0.94564
0.945641
0.945641
0.945641
0.94563
0.945586
0.945445
0.945038
0.943986
0.941495
0.936053
0.924837
0.902281
0.855563
0.748073
0.445593
0.444309
0.747049
0.854379
0.900952
0.923408
0.934565
0.939978
0.942457
0.943504
0.943907
0.944048
0.94409
0.9441
0.944099
0.944098
0.944098
0.944098
0.944098
0.944087
0.944045
0.943904
0.943499
0.942452
0.939976
0.934563
0.923408
0.900952
0.854381
0.747052
0.444313
0.443035
0.746117
0.853394
0.899891
0.922287
0.933403
0.938793
0.941259
0.942302
0.942703
0.942843
0.942885
0.942893
0.942895
0.942893
0.942895
0.942893
0.942894
0.942882
0.942839
0.942698
0.942296
0.941255
0.938789
0.9334
0.922285
0.899892
0.853397
0.746124
0.44304
0.441772
0.745205
0.8525
0.898973
0.921337
0.932425
0.9378
0.94026
0.941298
0.941702
0.94184
0.941882
0.941892
0.941892
0.941891
0.941891
0.94189
0.94189
0.941878
0.941833
0.941692
0.941289
0.940251
0.937794
0.932424
0.921334
0.898971
0.852501
0.745212
0.441776
0.440531
0.744306
0.851643
0.898126
0.920475
0.93155
0.936912
0.939366
0.940407
0.940809
0.940951
0.940995
0.941003
0.941004
0.941001
0.941001
0.941001
0.941001
0.940988
0.940941
0.9408
0.940394
0.939357
0.936905
0.931546
0.920475
0.898126
0.851645
0.744312
0.440534
0.439324
0.743438
0.85077
0.897305
0.919653
0.93072
0.936076
0.938524
0.939563
0.939967
0.940112
0.940157
0.940168
0.940167
0.940167
0.940165
0.940168
0.940164
0.940154
0.940106
0.939962
0.939557
0.938518
0.936071
0.930721
0.91966
0.897312
0.850781
0.743443
0.439323
0.43815
0.742607
0.84989
0.896443
0.918818
0.929893
0.935237
0.937683
0.938723
0.939128
0.939274
0.939326
0.939332
0.939337
0.939335
0.939341
0.939341
0.93934
0.939326
0.939278
0.939133
0.938722
0.937689
0.935242
0.929905
0.918839
0.896464
0.849903
0.74261
0.438147
0.437011
0.741819
0.84904
0.895517
0.917908
0.928965
0.934347
0.936808
0.937849
0.938262
0.938405
0.938445
0.938462
0.938468
0.938481
0.938484
0.938485
0.938479
0.938463
0.938413
0.938274
0.937855
0.936835
0.934375
0.928984
0.917908
0.895522
0.849048
0.74182
0.437008
0.435903
0.741067
0.848239
0.894633
0.91696
0.927991
0.933351
0.935821
0.936855
0.937273
0.937421
0.937453
0.937473
0.937479
0.937491
0.937501
0.937496
0.93749
0.937468
0.937443
0.937277
0.936922
0.935843
0.933399
0.927999
0.91695
0.894626
0.848242
0.741068
0.435902
0.434794
0.740337
0.847486
0.893837
0.91611
0.927125
0.93246
0.934913
0.935948
0.936358
0.936507
0.936549
0.936566
0.936572
0.936575
0.936582
0.936576
0.936572
0.936553
0.936517
0.936364
0.935984
0.934923
0.932479
0.927125
0.916103
0.893831
0.84749
0.74034
0.434794
0.433675
0.739613
0.846762
0.8931
0.915361
0.926372
0.931698
0.934139
0.935173
0.935578
0.935726
0.935774
0.935791
0.935795
0.935795
0.935797
0.935793
0.935789
0.935772
0.935727
0.935578
0.935177
0.934136
0.931695
0.926366
0.915355
0.893096
0.846766
0.739618
0.433676
0.43257
0.738897
0.846059
0.892395
0.914656
0.925664
0.93099
0.933425
0.934457
0.934862
0.935009
0.935059
0.935073
0.935078
0.935077
0.935076
0.935074
0.93507
0.935053
0.935004
0.934855
0.93445
0.933415
0.930981
0.925658
0.91465
0.892393
0.846064
0.738903
0.432571
0.431472
0.738189
0.845374
0.891717
0.913976
0.924985
0.930307
0.932737
0.93377
0.934171
0.934319
0.934371
0.934384
0.934388
0.934386
0.934386
0.934383
0.934379
0.934361
0.93431
0.934161
0.933754
0.932723
0.930293
0.924978
0.91397
0.891714
0.845378
0.738194
0.431475
0.430375
0.737484
0.844695
0.89106
0.913318
0.924324
0.929642
0.932068
0.9331
0.933502
0.933648
0.9337
0.933713
0.933715
0.933718
0.933714
0.933712
0.933704
0.933691
0.933634
0.933488
0.933079
0.932051
0.929626
0.924314
0.91331
0.891053
0.844696
0.737488
0.430379
0.4293
0.736782
0.844017
0.890406
0.912669
0.923672
0.928984
0.931407
0.932431
0.932831
0.932978
0.933025
0.933042
0.933045
0.933047
0.933046
0.933044
0.933038
0.933022
0.932972
0.932824
0.93242
0.931394
0.928969
0.923655
0.912654
0.890402
0.844017
0.736785
0.429303
0.428256
0.736096
0.84334
0.889733
0.91202
0.923018
0.928329
0.93075
0.931772
0.932173
0.932319
0.932366
0.932379
0.932386
0.932384
0.932384
0.932382
0.932378
0.932362
0.932313
0.932165
0.931765
0.930735
0.928313
0.923004
0.91201
0.889749
0.843343
0.736097
0.428257
0.427242
0.735438
0.842673
0.889036
0.911341
0.922361
0.927674
0.930096
0.931118
0.931518
0.931664
0.931714
0.931727
0.931734
0.93173
0.931732
0.931728
0.931728
0.93171
0.931663
0.931514
0.931117
0.930082
0.927661
0.922356
0.911367
0.889062
0.842678
0.735435
0.42724
0.426255
0.734805
0.84203
0.888338
0.910584
0.921672
0.926996
0.929415
0.930444
0.930849
0.930994
0.931051
0.931067
0.931076
0.931067
0.931061
0.931062
0.931067
0.931047
0.931002
0.930843
0.930434
0.929406
0.927002
0.92169
0.910635
0.888362
0.842032
0.734801
0.426249
0.425293
0.734193
0.841411
0.887675
0.909875
0.920887
0.926221
0.928622
0.92967
0.930054
0.930199
0.930265
0.930286
0.930279
0.930299
0.930273
0.930298
0.930277
0.930292
0.930209
0.930105
0.929659
0.928685
0.926229
0.92092
0.909899
0.887689
0.841411
0.734191
0.425282
0.424344
0.7336
0.840814
0.887057
0.909229
0.920186
0.925488
0.927896
0.92893
0.929322
0.929468
0.929525
0.929543
0.929545
0.929555
0.929547
0.929554
0.929543
0.929538
0.929477
0.929349
0.928934
0.927931
0.925497
0.920202
0.909238
0.887063
0.840811
0.733597
0.424339
0.423398
0.733017
0.840231
0.886467
0.908628
0.919573
0.924858
0.927268
0.928292
0.92869
0.928837
0.928887
0.928904
0.92891
0.928912
0.928913
0.928912
0.928905
0.928888
0.928837
0.928692
0.928292
0.927272
0.924859
0.919575
0.908633
0.886471
0.840227
0.733013
0.423405
0.42247
0.73244
0.839658
0.88589
0.908054
0.918993
0.924273
0.92668
0.9277
0.928099
0.928245
0.928294
0.92831
0.928316
0.928318
0.92832
0.928319
0.928312
0.928294
0.928243
0.928098
0.927698
0.926678
0.92427
0.918992
0.908055
0.885895
0.839656
0.732438
0.422474
0.421558
0.731874
0.8391
0.885335
0.907497
0.918431
0.923705
0.92611
0.927127
0.927526
0.927671
0.927719
0.927735
0.927739
0.927742
0.927744
0.927742
0.927737
0.927717
0.92767
0.927522
0.927127
0.926106
0.923703
0.918429
0.907496
0.885336
0.839101
0.731873
0.42156
0.420651
0.731317
0.838557
0.884796
0.906955
0.917879
0.923147
0.925551
0.926564
0.926965
0.927109
0.927156
0.927172
0.927179
0.92718
0.927182
0.927177
0.927174
0.927154
0.927108
0.926962
0.926567
0.925546
0.923148
0.91788
0.906953
0.884796
0.838558
0.731317
0.420655
0.419773
0.730759
0.838014
0.884256
0.906403
0.91733
0.922594
0.924994
0.92601
0.926404
0.926545
0.926596
0.926616
0.926621
0.926625
0.926623
0.926622
0.926616
0.9266
0.926549
0.926407
0.926011
0.924997
0.922598
0.917335
0.906412
0.884262
0.83802
0.730762
0.419776
0.418922
0.730214
0.837475
0.883728
0.90587
0.916785
0.922046
0.924442
0.925455
0.92585
0.925994
0.926043
0.926059
0.926066
0.926068
0.926067
0.92607
0.926063
0.926048
0.925997
0.925855
0.925457
0.924447
0.922049
0.916789
0.905872
0.883729
0.837481
0.730218
0.418924
0.418093
0.72969
0.836951
0.883205
0.905347
0.916259
0.921514
0.923906
0.924918
0.925314
0.925459
0.925506
0.925521
0.925524
0.925527
0.925528
0.925527
0.925521
0.925504
0.925455
0.92531
0.924917
0.923906
0.921514
0.916259
0.905343
0.883191
0.836953
0.729696
0.418097
0.417286
0.729188
0.836442
0.882662
0.904826
0.915731
0.920986
0.923372
0.924387
0.924778
0.924925
0.924969
0.924988
0.924986
0.924993
0.92499
0.924989
0.924979
0.924966
0.924914
0.924776
0.924377
0.92337
0.92098
0.915731
0.904824
0.882651
0.836443
0.729194
0.417292
0.416502
0.728705
0.83595
0.882129
0.904257
0.915176
0.920437
0.922831
0.923816
0.924234
0.924364
0.924423
0.924424
0.924442
0.924419
0.924439
0.924413
0.924422
0.924402
0.92437
0.924212
0.923833
0.922804
0.920433
0.915172
0.904245
0.882125
0.835954
0.728712
0.41651
0.415741
0.728236
0.835477
0.881623
0.903714
0.914611
0.919864
0.922247
0.923248
0.923647
0.923789
0.923839
0.923852
0.923864
0.923853
0.923854
0.92385
0.92385
0.923835
0.923788
0.923643
0.92325
0.922239
0.919856
0.914611
0.903713
0.881628
0.835481
0.728242
0.415738
0.414991
0.727781
0.835017
0.881149
0.903218
0.914097
0.91934
0.921722
0.922728
0.923122
0.923263
0.923312
0.923327
0.923336
0.923335
0.923335
0.923334
0.92333
0.923315
0.923267
0.923123
0.922729
0.921721
0.919338
0.914101
0.903226
0.881157
0.835022
0.727783
0.414987
0.414255
0.727333
0.834569
0.880693
0.902756
0.913628
0.918865
0.921245
0.922251
0.922643
0.922785
0.922833
0.922849
0.922855
0.922857
0.922857
0.922857
0.922853
0.922837
0.922789
0.922646
0.922253
0.921247
0.918866
0.913633
0.902764
0.880701
0.834573
0.727335
0.414253
0.413537
0.726895
0.83413
0.880249
0.902309
0.913175
0.918407
0.920788
0.921791
0.922183
0.922324
0.922373
0.922387
0.922393
0.922396
0.922396
0.922395
0.922392
0.922376
0.922327
0.922186
0.921793
0.920788
0.918411
0.913182
0.902316
0.880256
0.834134
0.726895
0.41353
0.412831
0.726463
0.833704
0.879819
0.901874
0.912733
0.917961
0.920339
0.921343
0.921732
0.921874
0.921921
0.921937
0.921941
0.921945
0.921945
0.921945
0.92194
0.921925
0.921875
0.921733
0.921342
0.920341
0.917965
0.91274
0.90188
0.879825
0.83371
0.726465
0.412826
0.412148
0.726041
0.833286
0.8794
0.901451
0.912302
0.917523
0.9199
0.920903
0.921292
0.921434
0.92148
0.921497
0.921498
0.921503
0.921504
0.921503
0.921497
0.921483
0.921435
0.921292
0.920901
0.919902
0.917529
0.912309
0.901456
0.879404
0.83329
0.726042
0.412148
0.411491
0.725629
0.832873
0.878985
0.901024
0.911875
0.917094
0.919462
0.920462
0.920853
0.920994
0.921041
0.921058
0.921063
0.921063
0.921063
0.921061
0.921057
0.921042
0.920995
0.920853
0.920463
0.919464
0.917094
0.911875
0.90103
0.878992
0.832875
0.725629
0.411492
0.410853
0.725231
0.832469
0.878578
0.900609
0.911451
0.916666
0.919033
0.920032
0.920423
0.920562
0.920613
0.920628
0.920633
0.920635
0.920633
0.920633
0.920629
0.920612
0.920563
0.920424
0.920034
0.919034
0.916666
0.911454
0.900612
0.878584
0.832471
0.725231
0.410855
0.410235
0.724848
0.832078
0.87818
0.900203
0.911036
0.916248
0.918612
0.919613
0.920001
0.920144
0.920191
0.920208
0.920214
0.920214
0.920214
0.920212
0.920206
0.920189
0.920142
0.920001
0.919616
0.918616
0.916249
0.911039
0.9002
0.878166
0.832079
0.72485
0.410237
0.409635
0.72448
0.831702
0.877765
0.899799
0.910628
0.915815
0.918196
0.919196
0.919586
0.919726
0.919774
0.919789
0.919793
0.919796
0.919799
0.919798
0.919787
0.919763
0.919724
0.919587
0.9192
0.918205
0.915836
0.910628
0.899786
0.877762
0.831704
0.724484
0.409638
0.409055
0.724125
0.83134
0.877381
0.899381
0.910208
0.915398
0.917763
0.918764
0.91915
0.919292
0.919339
0.919365
0.91936
0.919361
0.91936
0.919358
0.91935
0.919335
0.919295
0.91915
0.918769
0.91777
0.915407
0.910199
0.899377
0.877379
0.831343
0.724129
0.409057
0.408487
0.723778
0.830989
0.877019
0.899001
0.909817
0.915013
0.917374
0.918371
0.918758
0.918898
0.918945
0.918964
0.918965
0.918966
0.918965
0.918964
0.918959
0.918944
0.918899
0.918757
0.918371
0.917376
0.915014
0.909814
0.898999
0.877017
0.830993
0.723783
0.408491
0.407934
0.723441
0.830648
0.876669
0.898644
0.909454
0.91465
0.91701
0.918005
0.918392
0.918531
0.918577
0.918592
0.918597
0.918598
0.918598
0.918597
0.918593
0.918578
0.918531
0.918391
0.918004
0.91701
0.914651
0.909455
0.898645
0.87667
0.830653
0.723446
0.407936
0.407397
0.723113
0.830316
0.876328
0.898299
0.909105
0.9143
0.916659
0.917652
0.918039
0.918177
0.918223
0.918237
0.918242
0.918244
0.918245
0.918243
0.91824
0.918224
0.918177
0.918037
0.917651
0.916657
0.914301
0.909108
0.898303
0.876331
0.830321
0.723117
0.407398
0.406872
0.722795
0.829994
0.875998
0.897964
0.908766
0.913959
0.916315
0.917306
0.917692
0.917831
0.917877
0.917891
0.917896
0.917898
0.917898
0.917897
0.917894
0.917879
0.917831
0.917692
0.917306
0.916314
0.913958
0.908769
0.897968
0.876002
0.829999
0.722797
0.406872
0.406369
0.722484
0.829683
0.875678
0.897638
0.908436
0.913627
0.915978
0.91697
0.917354
0.917494
0.91754
0.917553
0.917558
0.917561
0.917561
0.91756
0.917556
0.917543
0.917493
0.917354
0.916969
0.915979
0.913625
0.908439
0.897644
0.875683
0.829686
0.722486
0.406369
0.405886
0.722181
0.829375
0.875365
0.897322
0.908115
0.913296
0.915647
0.916639
0.917023
0.917164
0.917209
0.917225
0.917228
0.917231
0.91723
0.917228
0.917223
0.917207
0.917161
0.917024
0.916638
0.915649
0.913298
0.908116
0.897323
0.875374
0.829378
0.722182
0.405887
0.40542
0.721889
0.829073
0.875055
0.897007
0.907794
0.912974
0.915323
0.916313
0.916698
0.916836
0.916884
0.916899
0.916903
0.916904
0.916904
0.916902
0.916897
0.916881
0.916835
0.916697
0.916313
0.915322
0.912974
0.907794
0.897007
0.875064
0.829076
0.72189
0.40542
0.404968
0.721609
0.828783
0.874747
0.896697
0.907481
0.91266
0.91501
0.915997
0.916382
0.916519
0.916567
0.916581
0.916587
0.916587
0.916588
0.916586
0.916582
0.916567
0.916519
0.916381
0.915996
0.915007
0.912659
0.907481
0.8967
0.874763
0.828785
0.72161
0.404968
0.404532
0.72134
0.828506
0.874453
0.896386
0.907174
0.912351
0.9147
0.915687
0.916071
0.91621
0.916253
0.916269
0.916273
0.916277
0.916276
0.916277
0.916271
0.916258
0.916211
0.916072
0.915687
0.914699
0.912352
0.907175
0.896395
0.874453
0.828508
0.721341
0.404532
0.40411
0.721079
0.82824
0.874174
0.896091
0.906862
0.912045
0.914382
0.915374
0.915754
0.915895
0.915942
0.915952
0.915966
0.915961
0.915961
0.91596
0.915955
0.915946
0.915894
0.915769
0.915371
0.914392
0.912042
0.906869
0.896092
0.874174
0.828241
0.72108
0.404111
0.403702
0.720826
0.827981
0.873907
0.895815
0.906581
0.911754
0.914097
0.915084
0.915467
0.915606
0.915653
0.915667
0.915673
0.915673
0.915672
0.915671
0.915666
0.915653
0.915606
0.915467
0.915083
0.914098
0.911754
0.906583
0.895816
0.873908
0.827983
0.720828
0.403702
0.403307
0.72058
0.827729
0.873648
0.895552
0.906315
0.911483
0.913827
0.914812
0.915196
0.915334
0.915381
0.915395
0.9154
0.9154
0.9154
0.915399
0.915394
0.91538
0.915334
0.915195
0.914812
0.913826
0.911484
0.906316
0.895554
0.87365
0.827732
0.720582
0.403307
0.402926
0.720343
0.827485
0.873397
0.895297
0.906057
0.911223
0.913565
0.914551
0.914934
0.915072
0.915118
0.915133
0.915137
0.915138
0.915138
0.915137
0.915132
0.915117
0.915071
0.914933
0.91455
0.913565
0.911224
0.906059
0.895299
0.8734
0.827487
0.720344
0.402926
0.402558
0.720111
0.827247
0.873153
0.895049
0.905806
0.91097
0.913312
0.914297
0.914679
0.914817
0.914863
0.914878
0.914881
0.914882
0.914883
0.914881
0.914877
0.914863
0.914816
0.914678
0.914296
0.913311
0.910971
0.905808
0.895052
0.873157
0.82725
0.720113
0.402558
0.4022
0.719884
0.827018
0.872918
0.894809
0.905562
0.910723
0.913064
0.914049
0.914431
0.914569
0.914613
0.914629
0.914632
0.914634
0.914634
0.914632
0.914628
0.914614
0.914568
0.91443
0.914049
0.913064
0.910725
0.905565
0.894812
0.872921
0.827022
0.719887
0.402199
0.401855
0.719668
0.826795
0.87269
0.894575
0.905325
0.910483
0.912822
0.913806
0.914188
0.914326
0.914371
0.914386
0.914391
0.914391
0.914392
0.914391
0.914387
0.914371
0.914326
0.914187
0.913807
0.912823
0.910485
0.905327
0.89458
0.872693
0.826797
0.719671
0.401856
0.401525
0.71946
0.826578
0.872467
0.894347
0.905091
0.91025
0.912586
0.913569
0.91395
0.914087
0.914133
0.914148
0.914153
0.914154
0.914154
0.914154
0.914148
0.914134
0.914088
0.913951
0.913569
0.912587
0.91025
0.905094
0.894349
0.872472
0.826581
0.719463
0.401527
0.401209
0.719261
0.826371
0.872252
0.894125
0.904867
0.910022
0.912359
0.913342
0.913722
0.913858
0.913905
0.91392
0.913925
0.913926
0.913928
0.913924
0.913921
0.913905
0.913859
0.913723
0.91334
0.912358
0.910023
0.904869
0.894126
0.872255
0.826374
0.719263
0.401211
0.400906
0.719069
0.826171
0.872035
0.893908
0.904649
0.909801
0.912139
0.913119
0.913501
0.913638
0.913683
0.913697
0.9137
0.913704
0.913703
0.913702
0.913697
0.913683
0.913637
0.913501
0.913121
0.912137
0.909802
0.90465
0.893911
0.872036
0.826174
0.719071
0.400906
0.400614
0.718884
0.825979
0.871833
0.893697
0.904435
0.909586
0.911922
0.912904
0.913285
0.913423
0.913467
0.913481
0.91348
0.913487
0.913487
0.913485
0.91348
0.913463
0.913422
0.913282
0.912903
0.911921
0.909588
0.904437
0.893701
0.871836
0.825982
0.718886
0.400614
0.400333
0.718705
0.825794
0.871639
0.893492
0.904227
0.909376
0.911709
0.912688
0.913071
0.913207
0.913252
0.913269
0.913273
0.913273
0.913271
0.913273
0.913269
0.913254
0.913209
0.91307
0.912694
0.91171
0.909377
0.904226
0.893494
0.871643
0.825797
0.718707
0.400334
0.400063
0.718532
0.825614
0.871453
0.893302
0.904032
0.909181
0.911513
0.912493
0.912874
0.913011
0.913057
0.913072
0.913077
0.913076
0.913077
0.913076
0.913073
0.913058
0.913012
0.912875
0.912494
0.911513
0.909181
0.904033
0.893304
0.871456
0.825618
0.718534
0.400064
0.399805
0.718365
0.825441
0.871274
0.893119
0.903846
0.908992
0.911324
0.912305
0.912685
0.912822
0.912868
0.912882
0.912887
0.912887
0.912887
0.912887
0.912883
0.912869
0.912822
0.912686
0.912305
0.911324
0.908993
0.903846
0.893121
0.871277
0.825445
0.718367
0.399806
0.399558
0.718204
0.825274
0.8711
0.892942
0.903667
0.908811
0.911142
0.912122
0.912502
0.912639
0.912685
0.9127
0.912703
0.912704
0.912704
0.912703
0.912699
0.912684
0.912639
0.912503
0.912123
0.911142
0.908812
0.903667
0.892944
0.871104
0.825277
0.718206
0.399558
0.399322
0.718049
0.825113
0.870934
0.892772
0.903493
0.908636
0.910966
0.911946
0.912326
0.912463
0.912508
0.912523
0.912526
0.912528
0.912528
0.912526
0.912522
0.912508
0.912463
0.912326
0.911947
0.910967
0.908637
0.903494
0.892774
0.870937
0.825116
0.718052
0.399323
0.399099
0.717902
0.824959
0.870773
0.892607
0.903326
0.908468
0.910797
0.911777
0.912157
0.912293
0.912338
0.912352
0.912356
0.912358
0.912358
0.912356
0.912352
0.912338
0.912293
0.912156
0.911777
0.910798
0.908469
0.903328
0.892609
0.870776
0.824962
0.717904
0.3991
0.398888
0.71776
0.82481
0.870619
0.892449
0.903164
0.908305
0.910634
0.911613
0.911993
0.912129
0.912174
0.912188
0.912192
0.912194
0.912193
0.912192
0.912188
0.912173
0.912128
0.911992
0.911613
0.910635
0.908307
0.903167
0.892451
0.870622
0.824813
0.717763
0.398889
0.398688
0.717624
0.824667
0.87047
0.892296
0.903009
0.908148
0.910476
0.911455
0.911834
0.91197
0.912015
0.912029
0.912034
0.912035
0.912035
0.912033
0.912029
0.912015
0.91197
0.911834
0.911455
0.910477
0.90815
0.903011
0.892298
0.870473
0.824671
0.717626
0.398689
0.398501
0.717493
0.824529
0.870327
0.892148
0.902859
0.907997
0.910325
0.911302
0.911682
0.911817
0.911863
0.911877
0.911881
0.911882
0.911882
0.911881
0.911878
0.911863
0.911817
0.911681
0.911302
0.910325
0.907998
0.902861
0.892151
0.87033
0.824534
0.717496
0.398501
0.398324
0.717369
0.824396
0.870189
0.892005
0.902714
0.907851
0.910177
0.911155
0.911534
0.91167
0.911715
0.911728
0.911733
0.911734
0.911734
0.911733
0.911729
0.911716
0.91167
0.911534
0.911155
0.910177
0.907851
0.902715
0.892008
0.870191
0.824399
0.717371
0.398325
0.398158
0.71725
0.824269
0.870054
0.891867
0.902573
0.907709
0.910034
0.911011
0.911389
0.911526
0.91157
0.911585
0.911588
0.91159
0.91159
0.911589
0.911585
0.911571
0.911526
0.91139
0.911011
0.910034
0.907709
0.902575
0.89187
0.870058
0.824272
0.717253
0.398159
0.398002
0.717136
0.824145
0.869924
0.891734
0.902437
0.90757
0.909895
0.910871
0.91125
0.911385
0.911431
0.911445
0.911449
0.91145
0.911451
0.911449
0.911445
0.91143
0.911385
0.91125
0.910872
0.909895
0.907571
0.902438
0.891734
0.869926
0.824148
0.717138
0.398003
0.397855
0.717025
0.824024
0.869795
0.891601
0.902303
0.907436
0.909759
0.910735
0.911113
0.911248
0.911293
0.911308
0.911312
0.911313
0.911313
0.911312
0.911307
0.911293
0.911248
0.911113
0.910735
0.909759
0.907436
0.902305
0.891604
0.8698
0.824027
0.717028
0.397856
0.397715
0.716917
0.823904
0.869667
0.891469
0.90217
0.9073
0.909623
0.910599
0.910977
0.911112
0.911158
0.911171
0.911177
0.911177
0.911177
0.911175
0.911172
0.911157
0.911113
0.910977
0.9106
0.909623
0.9073
0.902171
0.891473
0.869669
0.823908
0.716919
0.397716
0.397582
0.716809
0.823786
0.869538
0.891337
0.902035
0.907164
0.909486
0.910461
0.910839
0.910975
0.911019
0.911034
0.911038
0.911039
0.911039
0.911038
0.911033
0.91102
0.910975
0.91084
0.910461
0.909487
0.907164
0.902036
0.891341
0.869541
0.823789
0.716812
0.397583
0.397454
0.7167
0.823664
0.86941
0.891202
0.901897
0.907024
0.909346
0.91032
0.910699
0.910833
0.910878
0.910892
0.910896
0.910897
0.910897
0.910896
0.910893
0.910878
0.910834
0.910698
0.910321
0.909346
0.907025
0.901898
0.891206
0.869413
0.823668
0.716702
0.397455
0.397329
0.716586
0.823538
0.869275
0.891061
0.901753
0.906878
0.909199
0.910174
0.91055
0.910686
0.910731
0.910744
0.910747
0.910749
0.910748
0.910749
0.910744
0.910731
0.910686
0.910551
0.910173
0.909199
0.90688
0.901755
0.891065
0.869278
0.823542
0.716589
0.397329
0.397204
0.716468
0.823406
0.869133
0.890912
0.901601
0.906725
0.909044
0.910017
0.910395
0.91053
0.910575
0.910588
0.910592
0.910592
0.910593
0.910591
0.910588
0.910574
0.91053
0.910395
0.910017
0.909044
0.906726
0.901603
0.890913
0.869136
0.823409
0.71647
0.397206
0.397082
0.716341
0.823263
0.868981
0.890754
0.901438
0.906559
0.908877
0.909851
0.910227
0.910362
0.910406
0.91042
0.910423
0.910425
0.910424
0.910424
0.910419
0.910406
0.910361
0.910227
0.90985
0.908879
0.90656
0.90144
0.890756
0.868984
0.823266
0.716343
0.397082
0.396964
0.7162
0.823106
0.868813
0.89058
0.90126
0.906378
0.908696
0.909667
0.910044
0.910178
0.910223
0.910236
0.910241
0.91024
0.910241
0.910239
0.910236
0.910222
0.910178
0.910044
0.909668
0.908696
0.90638
0.901261
0.890582
0.868816
0.823109
0.716202
0.396965
0.396844
0.716037
0.822928
0.868626
0.890386
0.901063
0.90618
0.908496
0.909468
0.909843
0.909978
0.910021
0.910035
0.910038
0.91004
0.91004
0.910039
0.910035
0.910021
0.909977
0.909844
0.909467
0.908496
0.906181
0.901063
0.890389
0.868629
0.822932
0.716039
0.396845
0.396717
0.715845
0.822727
0.868418
0.890176
0.900849
0.905969
0.908285
0.909256
0.909633
0.909766
0.909811
0.909824
0.909827
0.909828
0.909828
0.909827
0.909824
0.90981
0.909766
0.909632
0.909257
0.908285
0.90597
0.900853
0.890179
0.868421
0.82273
0.715848
0.396717
0.396577
0.71562
0.822503
0.868199
0.889964
0.900645
0.905765
0.908084
0.909057
0.909433
0.909568
0.909612
0.909625
0.909629
0.909631
0.90963
0.909628
0.909625
0.909612
0.909567
0.909432
0.909057
0.908083
0.905766
0.900646
0.889967
0.868202
0.822506
0.715623
0.396577
0.396422
0.715362
0.822271
0.867992
0.889782
0.900481
0.905613
0.907936
0.908912
0.909289
0.909424
0.909468
0.909482
0.909486
0.909487
0.909487
0.909486
0.909482
0.909469
0.909424
0.90929
0.908913
0.907937
0.905614
0.900482
0.889784
0.867995
0.822274
0.715364
0.396423
0.396254
0.715086
0.822065
0.86785
0.88969
0.900425
0.90558
0.907916
0.908898
0.909279
0.909415
0.90946
0.909474
0.909478
0.909479
0.909479
0.909478
0.909474
0.909461
0.909415
0.909279
0.908899
0.907917
0.905581
0.900427
0.889692
0.867853
0.822068
0.715088
0.396255
0.396085
0.714836
0.821964
0.867866
0.889794
0.900588
0.90578
0.908137
0.909129
0.909515
0.909653
0.9097
0.909714
0.909718
0.909719
0.909719
0.909718
0.909714
0.9097
0.909653
0.909515
0.909129
0.908137
0.905781
0.90059
0.889796
0.867869
0.821967
0.714838
0.396085
0.395945
0.714703
0.822091
0.868179
0.890237
0.901116
0.906357
0.908741
0.909748
0.91014
0.910282
0.91033
0.910345
0.91035
0.910351
0.910351
0.91035
0.910345
0.91033
0.910282
0.91014
0.909748
0.908742
0.906358
0.901117
0.890239
0.868182
0.822094
0.714706
0.395946
0.395906
0.714844
0.822616
0.868945
0.891152
0.902121
0.907413
0.909825
0.910845
0.911243
0.911388
0.911437
0.911453
0.911457
0.911459
0.911459
0.911457
0.911453
0.911437
0.911388
0.911244
0.910845
0.909825
0.907414
0.902122
0.891155
0.868948
0.822619
0.714846
0.395907
0.396152
0.715476
0.823684
0.870212
0.892517
0.903533
0.908848
0.91127
0.912294
0.912693
0.912837
0.912886
0.912901
0.912905
0.912906
0.912906
0.912905
0.912901
0.912886
0.912838
0.912693
0.912294
0.91127
0.908849
0.903535
0.89252
0.870216
0.823687
0.715478
0.396153
0.397049
0.716643
0.82512
0.871653
0.893905
0.904865
0.910138
0.91253
0.913535
0.913923
0.914059
0.914103
0.914115
0.914117
0.914117
0.914117
0.914117
0.914115
0.914103
0.914059
0.913923
0.913535
0.91253
0.910138
0.904867
0.893908
0.871656
0.825123
0.716646
0.397049
0.399125
0.717794
0.826034
0.872233
0.894213
0.904973
0.91011
0.912417
0.913369
0.913724
0.91384
0.913871
0.913874
0.913872
0.91387
0.91387
0.913872
0.913874
0.913871
0.91384
0.913724
0.913369
0.912417
0.910111
0.904975
0.894215
0.872236
0.826037
0.717797
0.399126
0.393508
0.71412
0.822473
0.868594
0.89046
0.901117
0.906172
0.908415
0.90932
0.909642
0.909736
0.909751
0.909746
0.909737
0.909732
0.909732
0.909737
0.909746
0.909752
0.909736
0.909642
0.90932
0.908416
0.906172
0.901119
0.890463
0.868598
0.822477
0.714123
0.39351
0.396349
0.712454
0.819196
0.865171
0.887111
0.897848
0.902955
0.90523
0.906156
0.906493
0.906596
0.906618
0.906616
0.90661
0.906607
0.906607
0.90661
0.906616
0.906618
0.906596
0.906493
0.906157
0.90523
0.902956
0.897849
0.887114
0.865175
0.8192
0.712458
0.39635
0.395315
0.712307
0.820386
0.866354
0.888197
0.898894
0.904007
0.906308
0.907263
0.907624
0.907746
0.907781
0.907788
0.907788
0.907787
0.907787
0.907788
0.907788
0.907781
0.907746
0.907624
0.907263
0.906309
0.904008
0.898896
0.8882
0.866357
0.82039
0.71231
0.395316
0.395288
0.713181
0.82157
0.867646
0.889502
0.900199
0.905319
0.907632
0.908601
0.908973
0.909104
0.909146
0.909158
0.90916
0.909161
0.909161
0.90916
0.909158
0.909146
0.909104
0.908973
0.908601
0.907633
0.90532
0.900201
0.889504
0.867649
0.821574
0.713184
0.395289
0.395946
0.714527
0.822227
0.86823
0.890106
0.900827
0.905963
0.908287
0.909262
0.909639
0.909773
0.909817
0.909831
0.909834
0.909835
0.909835
0.909834
0.909831
0.909817
0.909773
0.909639
0.909262
0.908287
0.905964
0.900829
0.890109
0.868233
0.822231
0.71453
0.395947
0.396205
0.715176
0.822455
0.868358
0.890226
0.900956
0.9061
0.90843
0.909408
0.909787
0.909922
0.909967
0.909981
0.909985
0.909986
0.909986
0.909985
0.909981
0.909967
0.909922
0.909787
0.909408
0.90843
0.906101
0.900957
0.890228
0.868361
0.822459
0.715179
0.396206
0.396318
0.715434
0.822501
0.86832
0.890159
0.900882
0.906025
0.908354
0.909333
0.909712
0.909848
0.909893
0.909907
0.909911
0.909912
0.909912
0.909911
0.909907
0.909893
0.909848
0.909713
0.909333
0.908355
0.906026
0.900883
0.890162
0.868323
0.822504
0.715437
0.396319
0.39637
0.715558
0.822492
0.868249
0.890059
0.900767
0.905904
0.908231
0.909209
0.909588
0.909723
0.909768
0.909782
0.909786
0.909787
0.909787
0.909786
0.909782
0.909768
0.909723
0.909588
0.909209
0.908232
0.905905
0.900769
0.890061
0.868252
0.822496
0.71556
0.396371
0.39639
0.715614
0.822466
0.86818
0.889967
0.900662
0.905793
0.908117
0.909093
0.909472
0.909607
0.909652
0.909666
0.90967
0.909671
0.909671
0.90967
0.909666
0.909652
0.909607
0.909472
0.909093
0.908117
0.905794
0.900664
0.889969
0.868184
0.822469
0.715616
0.39639
0.396392
0.715625
0.822428
0.868116
0.889887
0.900573
0.905699
0.90802
0.908995
0.909373
0.909508
0.909553
0.909567
0.909571
0.909572
0.909572
0.909571
0.909567
0.909553
0.909508
0.909373
0.908995
0.90802
0.905699
0.900575
0.889889
0.868119
0.822431
0.715627
0.396392
0.396387
0.715607
0.822384
0.868056
0.889815
0.900495