/*--------------------------------*- C++ -*----------------------------------*\
| =========                 |                                                 |
| \\      /  F ield         | OpenFOAM: The Open Source CFD Toolbox           |
|  \\    /   O peration     | Version:  v1606+                                |
|   \\  /    A nd           | Web:      www.OpenFOAM.com                      |
|    \\/     M anipulation  |                                                 |
\*---------------------------------------------------------------------------*/
FoamFile
{
    version     2.0;
    format      ascii;
    class       volVectorField;
    location    "0.01";
    object      U.particlesMean;
}
// * * * * * * * * * * * * * * * * * * * * * * * * * * * * * * * * * * * * * //

dimensions      [0 1 -1 0 0 0 0];

internalField   nonuniform List<vector> 
6000
(
(0.00238241 0.00500967 0)
(0.00243944 0.00960139 0)
(0.00174371 0.0115399 0)
(0.00108454 0.0121974 0)
(0.000666255 0.0123774 0)
(0.000439669 0.0124133 0)
(0.000345564 0.012412 0)
(0.000266346 0.0124016 0)
(0.000184832 0.0123907 0)
(0.000102799 0.0123845 0)
(6.93531e-05 0.0123757 0)
(6.21191e-05 0.0123753 0)
(7.80405e-05 0.0123681 0)
(4.62165e-05 0.012371 0)
(-1.50664e-05 0.012368 0)
(1.71021e-05 0.0123669 0)
(1.51195e-05 0.0123743 0)
(-3.69367e-05 0.0123754 0)
(-8.13719e-05 0.0123772 0)
(-0.000145948 0.0123815 0)
(-0.000167089 0.0123813 0)
(-0.000159914 0.0123921 0)
(-0.000223023 0.0123996 0)
(-0.000351565 0.0124079 0)
(-0.000483152 0.0124076 0)
(-0.000659779 0.0123782 0)
(-0.00102573 0.0121998 0)
(-0.00174069 0.0115447 0)
(-0.00246685 0.00960034 0)
(-0.0023842 0.00501125 0)
(0.00351469 0.0162277 0)
(0.00353083 0.0293497 0)
(0.00251196 0.0347863 0)
(0.00151164 0.0367454 0)
(0.000885586 0.0373393 0)
(0.000547853 0.037461 0)
(0.000386095 0.0374618 0)
(0.000284957 0.037442 0)
(0.000206179 0.0374175 0)
(0.000139783 0.0373923 0)
(9.99703e-05 0.0373591 0)
(7.79836e-05 0.0373446 0)
(6.97099e-05 0.0373328 0)
(4.16772e-05 0.0373474 0)
(4.03476e-06 0.0373334 0)
(1.21712e-06 0.0373288 0)
(-1.51716e-05 0.0373503 0)
(-5.06561e-05 0.0373624 0)
(-8.78481e-05 0.0373711 0)
(-0.000134774 0.0373786 0)
(-0.00016904 0.0373748 0)
(-0.000197856 0.0374026 0)
(-0.000264795 0.0374409 0)
(-0.000385978 0.0374694 0)
(-0.000567351 0.0374536 0)
(-0.000884144 0.0373255 0)
(-0.00148756 0.0367474 0)
(-0.00251217 0.0348058 0)
(-0.00354143 0.0293519 0)
(-0.00351503 0.0162298 0)
(0.00201583 0.0173674 0)
(0.00237932 0.0328317 0)
(0.00184734 0.0394604 0)
(0.00119805 0.0420478 0)
(0.000736823 0.0429178 0)
(0.000463925 0.0431444 0)
(0.00031347 0.0431674 0)
(0.000226559 0.0431378 0)
(0.000171239 0.0431029 0)
(0.000129981 0.0430715 0)
(9.65457e-05 0.0430455 0)
(7.07161e-05 0.0430258 0)
(5.05698e-05 0.043015 0)
(3.01923e-05 0.0430112 0)
(1.09825e-05 0.0430072 0)
(-8.40025e-06 0.0430085 0)
(-2.87216e-05 0.043015 0)
(-4.86349e-05 0.0430242 0)
(-7.15746e-05 0.0430363 0)
(-9.95394e-05 0.0430514 0)
(-0.000132981 0.0430694 0)
(-0.000172334 0.0430988 0)
(-0.00022568 0.0431374 0)
(-0.000312009 0.0431677 0)
(-0.000463496 0.0431435 0)
(-0.00073596 0.0429166 0)
(-0.00119596 0.0420517 0)
(-0.00184733 0.0394678 0)
(-0.00237815 0.032837 0)
(-0.00201384 0.0173718 0)
(0.000789944 0.0171437 0)
(0.00108407 0.0332638 0)
(0.000935488 0.0403641 0)
(0.000672028 0.0432575 0)
(0.000450746 0.0443007 0)
(0.000306246 0.0446078 0)
(0.000218194 0.044659 0)
(0.000163798 0.0446379 0)
(0.000128736 0.0446027 0)
(0.000101783 0.0445694 0)
(7.73179e-05 0.0445422 0)
(5.63056e-05 0.0445214 0)
(3.94592e-05 0.0445065 0)
(2.3757e-05 0.044501 0)
(9.91881e-06 0.0444984 0)
(-7.71231e-06 0.0445018 0)
(-2.56881e-05 0.0445067 0)
(-4.00422e-05 0.0445155 0)
(-5.61664e-05 0.0445282 0)
(-7.65783e-05 0.0445464 0)
(-0.00010202 0.0445691 0)
(-0.000130293 0.0446005 0)
(-0.000164995 0.0446384 0)
(-0.000216553 0.0446609 0)
(-0.000302876 0.0446087 0)
(-0.000448848 0.0442997 0)
(-0.000670687 0.0432615 0)
(-0.000934497 0.0403722 0)
(-0.0010815 0.0332706 0)
(-0.000787886 0.0171489 0)
(5.15777e-05 0.0164653 0)
(0.000208343 0.0323547 0)
(0.000247686 0.0394904 0)
(0.000224776 0.0424751 0)
(0.000179883 0.0436031 0)
(0.000143484 0.0439614 0)
(0.000118802 0.0440371 0)
(0.000100732 0.044026 0)
(8.51486e-05 0.0439937 0)
(7.08168e-05 0.0439624 0)
(5.54549e-05 0.0439361 0)
(3.96616e-05 0.0439168 0)
(2.82947e-05 0.0439002 0)
(1.89187e-05 0.0438937 0)
(9.09735e-06 0.0438916 0)
(-5.33635e-06 0.0438942 0)
(-2.04543e-05 0.0438986 0)
(-3.09478e-05 0.0439061 0)
(-4.12088e-05 0.043919 0)
(-5.40842e-05 0.0439384 0)
(-7.03675e-05 0.0439644 0)
(-8.54312e-05 0.0439963 0)
(-0.000100366 0.0440293 0)
(-0.000117631 0.0440413 0)
(-0.000142908 0.0439631 0)
(-0.000178367 0.0436027 0)
(-0.000221163 0.0424784 0)
(-0.000246228 0.0394969 0)
(-0.000207578 0.0323607 0)
(-5.29296e-05 0.0164658 0)
(-0.000312525 0.0155364 0)
(-0.000270517 0.0306885 0)
(-0.00016071 0.0375594 0)
(-6.84817e-05 0.0404859 0)
(-1.67191e-05 0.0416258 0)
(1.28235e-05 0.0420098 0)
(3.18061e-05 0.0421031 0)
(4.04749e-05 0.0421014 0)
(4.27087e-05 0.0420728 0)
(4.02691e-05 0.0420451 0)
(3.3721e-05 0.0420199 0)
(2.40329e-05 0.0420028 0)
(1.75182e-05 0.0419877 0)
(1.32102e-05 0.0419799 0)
(6.87311e-06 0.0419781 0)
(-3.32165e-06 0.0419776 0)
(-1.46001e-05 0.0419827 0)
(-2.08075e-05 0.0419902 0)
(-2.53721e-05 0.0420041 0)
(-3.10281e-05 0.0420234 0)
(-3.78723e-05 0.0420487 0)
(-4.23194e-05 0.0420782 0)
(-4.09291e-05 0.0421073 0)
(-3.22031e-05 0.0421083 0)
(-1.39213e-05 0.0420119 0)
(1.76658e-05 0.0416279 0)
(7.13703e-05 0.0404878 0)
(0.00016184 0.0375621 0)
(0.000269033 0.0306902 0)
(0.000309955 0.015533 0)
(-0.000476696 0.0145137 0)
(-0.000519979 0.0286908 0)
(-0.000386329 0.0351193 0)
(-0.000246134 0.037879 0)
(-0.000146788 0.0389728 0)
(-8.1712e-05 0.0393549 0)
(-3.79708e-05 0.0394583 0)
(-1.11936e-05 0.0394634 0)
(3.88502e-06 0.039441 0)
(1.10425e-05 0.039416 0)
(1.23801e-05 0.0393934 0)
(9.19521e-06 0.0393761 0)
(6.56894e-06 0.0393633 0)
(7.46449e-06 0.0393554 0)
(4.24674e-06 0.0393523 0)
(-1.96141e-06 0.0393523 0)
(-7.60657e-06 0.0393565 0)
(-9.56453e-06 0.0393647 0)
(-9.19979e-06 0.0393788 0)
(-9.47052e-06 0.0393964 0)
(-9.14491e-06 0.0394187 0)
(-2.31547e-06 0.039445 0)
(1.13254e-05 0.039468 0)
(3.60768e-05 0.0394617 0)
(7.96673e-05 0.0393563 0)
(0.000146325 0.0389747 0)
(0.000246258 0.0378794 0)
(0.000385605 0.035119 0)
(0.000516175 0.0286877 0)
(0.000474275 0.0145095 0)
(-0.000552637 0.0134822 0)
(-0.000653719 0.0265854 0)
(-0.000512061 0.0324783 0)
(-0.000349674 0.0350071 0)
(-0.000229385 0.0360136 0)
(-0.000146667 0.0363727 0)
(-8.98559e-05 0.036475 0)
(-5.35982e-05 0.0364851 0)
(-2.93548e-05 0.0364681 0)
(-1.52485e-05 0.0364463 0)
(-8.2328e-06 0.0364262 0)
(-5.67671e-06 0.0364103 0)
(-2.86097e-06 0.0363987 0)
(8.33785e-07 0.0363912 0)
(2.0003e-06 0.0363881 0)
(2.69594e-07 0.036388 0)
(-1.58277e-06 0.0363928 0)
(1.35486e-06 0.0363995 0)
(5.59069e-06 0.0364121 0)
(9.98277e-06 0.0364281 0)
(1.75355e-05 0.0364481 0)
(3.06818e-05 0.0364702 0)
(5.27213e-05 0.0364867 0)
(8.76058e-05 0.0364757 0)
(0.000144726 0.0363727 0)
(0.000228546 0.036014 0)
(0.000348494 0.0350068 0)
(0.000508653 0.0324755 0)
(0.00064645 0.026577 0)
(0.000548425 0.0134752 0)
(-0.000588855 0.0124715 0)
(-0.00073366 0.0244798 0)
(-0.000589689 0.0298052 0)
(-0.000414192 0.03207 0)
(-0.000282875 0.0329703 0)
(-0.00019131 0.0332927 0)
(-0.000128682 0.0333876 0)
(-8.58524e-05 0.0334001 0)
(-5.67805e-05 0.0333878 0)
(-3.79395e-05 0.0333695 0)
(-2.56767e-05 0.0333533 0)
(-1.8424e-05 0.0333392 0)
(-1.24889e-05 0.0333295 0)
(-4.32414e-06 0.0333232 0)
(-3.12356e-07 0.0333188 0)
(2.07302e-06 0.0333188 0)
(4.43502e-06 0.0333223 0)
(1.00361e-05 0.0333295 0)
(1.89924e-05 0.0333399 0)
(2.77157e-05 0.0333547 0)
(3.90941e-05 0.0333709 0)
(5.76942e-05 0.0333896 0)
(8.50474e-05 0.0334 0)
(0.000126281 0.0333872 0)
(0.000189628 0.0332912 0)
(0.00028203 0.0329695 0)
(0.000411805 0.0320685 0)
(0.00058413 0.0298014 0)
(0.000726493 0.0244716 0)
(0.000585917 0.0124667 0)
(-0.000608104 0.0114938 0)
(-0.000787919 0.0224313 0)
(-0.000645999 0.0271871 0)
(-0.000456416 0.0291815 0)
(-0.000317726 0.029967 0)
(-0.000221986 0.0302496 0)
(-0.000155582 0.0303338 0)
(-0.000110515 0.0303481 0)
(-7.80936e-05 0.0303385 0)
(-5.56988e-05 0.0303238 0)
(-4.04487e-05 0.0303103 0)
(-2.97425e-05 0.0302992 0)
(-1.9171e-05 0.0302913 0)
(-1.05496e-05 0.0302857 0)
(-3.10334e-06 0.0302819 0)
(3.32988e-06 0.0302799 0)
(9.39496e-06 0.030283 0)
(1.90988e-05 0.030289 0)
(3.0298e-05 0.0302983 0)
(4.18498e-05 0.0303099 0)
(5.73975e-05 0.030324 0)
(7.80285e-05 0.0303377 0)
(0.000108479 0.0303467 0)
(0.000153116 0.0303322 0)
(0.000220474 0.030247 0)
(0.00031753 0.0299653 0)
(0.00045491 0.0291796 0)
(0.000641458 0.0271843 0)
(0.000782762 0.0224266 0)
(0.000606591 0.0114921 0)
(-0.000609687 0.0105362 0)
(-0.000826219 0.0204581 0)
(-0.000691449 0.024667 0)
(-0.000486797 0.0263934 0)
(-0.00033989 0.0270663 0)
(-0.000240372 0.0273073 0)
(-0.000173794 0.0273815 0)
(-0.000127395 0.027395 0)
(-9.49884e-05 0.0273873 0)
(-7.05532e-05 0.0273747 0)
(-5.18209e-05 0.0273634 0)
(-3.79268e-05 0.027355 0)
(-2.63596e-05 0.02735 0)
(-1.39842e-05 0.0273445 0)
(-5.72597e-06 0.0273405 0)
(3.34672e-06 0.0273381 0)
(1.3514e-05 0.0273401 0)
(2.51499e-05 0.0273453 0)
(3.93234e-05 0.0273518 0)
(5.36584e-05 0.0273609 0)
(7.05979e-05 0.0273723 0)
(9.46495e-05 0.0273838 0)
(0.000126591 0.0273914 0)
(0.000171385 0.0273776 0)
(0.000239443 0.0273044 0)
(0.000340415 0.0270629 0)
(0.00048598 0.0263906 0)
(0.000688483 0.0246648 0)
(0.000824368 0.0204565 0)
(0.000610431 0.0105374 0)
(-0.000584821 0.00958872 0)
(-0.000827294 0.0185307 0)
(-0.00072643 0.0222609 0)
(-0.000505984 0.0237261 0)
(-0.000350512 0.0242901 0)
(-0.00024942 0.0244926 0)
(-0.000183394 0.0245571 0)
(-0.000140044 0.0245679 0)
(-0.000107848 0.0245616 0)
(-8.19299e-05 0.0245499 0)
(-6.10223e-05 0.0245403 0)
(-4.40586e-05 0.0245335 0)
(-3.01285e-05 0.0245325 0)
(-1.95694e-05 0.0245271 0)
(-8.49642e-06 0.0245225 0)
(3.69689e-06 0.0245178 0)
(1.66748e-05 0.0245214 0)
(3.06369e-05 0.0245227 0)
(4.55778e-05 0.0245287 0)
(6.219e-05 0.0245347 0)
(8.22981e-05 0.0245447 0)
(0.000106778 0.0245544 0)
(0.00013805 0.0245602 0)
(0.000182187 0.0245488 0)
(0.000249212 0.0244874 0)
(0.000351202 0.0242854 0)
(0.000506861 0.0237195 0)
(0.000725502 0.0222512 0)
(0.000827389 0.0185289 0)
(0.000585812 0.00958938 0)
(-0.000552903 0.00867125 0)
(-0.000785202 0.0166454 0)
(-0.000726636 0.0199598 0)
(-0.000519489 0.0211874 0)
(-0.000350879 0.0216449 0)
(-0.000247943 0.021816 0)
(-0.000187285 0.0218684 0)
(-0.000147595 0.0218761 0)
(-0.000117738 0.0218715 0)
(-9.15653e-05 0.0218628 0)
(-6.80871e-05 0.0218522 0)
(-4.71572e-05 0.0218497 0)
(-3.36146e-05 0.0218514 0)
(-2.28352e-05 0.0218451 0)
(-1.27897e-05 0.0218382 0)
(3.496e-06 0.0218315 0)
(1.89618e-05 0.0218351 0)
(3.28459e-05 0.021835 0)
(5.08268e-05 0.0218397 0)
(6.91326e-05 0.0218428 0)
(9.05084e-05 0.0218508 0)
(0.000115519 0.0218571 0)
(0.000146187 0.0218638 0)
(0.000187219 0.0218533 0)
(0.000250108 0.0218072 0)
(0.000350981 0.0216398 0)
(0.000516069 0.0211791 0)
(0.000727745 0.0199497 0)
(0.000791017 0.016644 0)
(0.000554446 0.00867154 0)
(-0.000515854 0.0077841 0)
(-0.000706708 0.0148095 0)
(-0.000686311 0.017697 0)
(-0.000521193 0.0187646 0)
(-0.0003407 0.0191203 0)
(-0.000238053 0.0192632 0)
(-0.000187094 0.0193014 0)
(-0.000151836 0.0193023 0)
(-0.000122035 0.0193039 0)
(-9.83145e-05 0.0192988 0)
(-7.30012e-05 0.0192901 0)
(-4.74513e-05 0.0192883 0)
(-3.56254e-05 0.0192892 0)
(-2.9912e-05 0.0192823 0)
(-1.78019e-05 0.0192737 0)
(2.75701e-06 0.0192691 0)
(2.08282e-05 0.0192659 0)
(3.58804e-05 0.0192707 0)
(5.34596e-05 0.0192787 0)
(7.28426e-05 0.0192695 0)
(9.55192e-05 0.019278 0)
(0.000121175 0.0192734 0)
(0.000149816 0.0192805 0)
(0.000188507 0.0192735 0)
(0.000245035 0.0192519 0)
(0.00034237 0.0191193 0)
(0.00051965 0.0187643 0)
(0.000690568 0.0177009 0)
(0.000713055 0.0148124 0)
(0.00051752 0.0077852 0)
(-0.000479089 0.00692348 0)
(-0.00063284 0.01302 0)
(-0.000599233 0.0154435 0)
(-0.000478392 0.0163798 0)
(-0.000324404 0.0166757 0)
(-0.000222145 0.0167826 0)
(-0.000187182 0.016798 0)
(-0.0001514 0.0167904 0)
(-0.000120667 0.0167986 0)
(-0.000101294 0.0167911 0)
(-7.68161e-05 0.0167917 0)
(-5.04866e-05 0.0167958 0)
(-3.9396e-05 0.0167879 0)
(-3.30349e-05 0.0167859 0)
(-2.00973e-05 0.0167783 0)
(-3.52805e-07 0.0167755 0)
(2.11373e-05 0.0167763 0)
(4.34461e-05 0.016782 0)
(5.19701e-05 0.0167928 0)
(7.04333e-05 0.0167768 0)
(9.43804e-05 0.0167881 0)
(0.000118648 0.0167684 0)
(0.000152486 0.0167789 0)
(0.000194066 0.0167704 0)
(0.000241775 0.0167853 0)
(0.000332182 0.0166935 0)
(0.000479777 0.0163985 0)
(0.000602913 0.0154552 0)
(0.000635899 0.0130253 0)
(0.00048012 0.00692494 0)
(-0.000445648 0.00609101 0)
(-0.00057132 0.0112811 0)
(-0.000512743 0.0132411 0)
(-0.000397272 0.0139561 0)
(-0.00028538 0.0141983 0)
(-0.000213292 0.0142531 0)
(-0.000191826 0.0142644 0)
(-0.000149999 0.0142645 0)
(-0.000119602 0.0142669 0)
(-0.000101778 0.0142652 0)
(-7.0402e-05 0.0142684 0)
(-5.22936e-05 0.0142707 0)
(-4.30382e-05 0.0142627 0)
(-3.42024e-05 0.0142662 0)
(-2.14589e-05 0.014268 0)
(3.63612e-06 0.0142715 0)
(2.60089e-05 0.0142768 0)
(4.80423e-05 0.0142802 0)
(5.17559e-05 0.0142802 0)
(7.13316e-05 0.014284 0)
(9.01851e-05 0.0142836 0)
(0.00011388 0.0142727 0)
(0.000149919 0.0142822 0)
(0.000200876 0.0142801 0)
(0.000247334 0.0142732 0)
(0.0002959 0.0142181 0)
(0.000391507 0.0139742 0)
(0.000507184 0.0132488 0)
(0.000570674 0.0112848 0)
(0.000445559 0.00609183 0)
(-0.000421803 0.00529241 0)
(-0.000530131 0.00960282 0)
(-0.00046897 0.0111163 0)
(-0.00034965 0.011578 0)
(-0.000256562 0.0117045 0)
(-0.000199015 0.0117076 0)
(-0.000173837 0.0117114 0)
(-0.000142768 0.0117181 0)
(-0.000116473 0.0117115 0)
(-9.86812e-05 0.0117172 0)
(-7.3601e-05 0.0117165 0)
(-5.56535e-05 0.0117101 0)
(-4.21801e-05 0.0117096 0)
(-2.6918e-05 0.0117123 0)
(-1.32754e-05 0.0117231 0)
(7.6953e-06 0.0117298 0)
(2.78523e-05 0.0117313 0)
(4.58407e-05 0.0117325 0)
(5.58535e-05 0.0117273 0)
(7.41998e-05 0.0117433 0)
(8.6577e-05 0.0117346 0)
(0.000114886 0.0117478 0)
(0.000150231 0.0117437 0)
(0.000179113 0.0117545 0)
(0.000215243 0.0117261 0)
(0.000259619 0.01171 0)
(0.000342489 0.0115812 0)
(0.000462271 0.0111184 0)
(0.000528112 0.00960321 0)
(0.000421271 0.0052924 0)
(-0.000407444 0.00452907 0)
(-0.000506716 0.00799744 0)
(-0.000447962 0.00908764 0)
(-0.000337606 0.00933293 0)
(-0.000252674 0.00934232 0)
(-0.000198094 0.00930277 0)
(-0.000167435 0.00927955 0)
(-0.000139123 0.00927361 0)
(-0.000115093 0.00926662 0)
(-9.62081e-05 0.00926802 0)
(-7.49303e-05 0.009268 0)
(-5.72236e-05 0.00926457 0)
(-4.10974e-05 0.00926573 0)
(-2.39077e-05 0.00926749 0)
(-8.08506e-06 0.00927171 0)
(1.01938e-05 0.00927711 0)
(2.8234e-05 0.00927757 0)
(4.52909e-05 0.00927831 0)
(5.95285e-05 0.00927641 0)
(7.64949e-05 0.0092855 0)
(9.2503e-05 0.00928254 0)
(0.000115144 0.00929914 0)
(0.000142356 0.00929173 0)
(0.000169523 0.00930533 0)
(0.000202795 0.0093143 0)
(0.000250826 0.00934616 0)
(0.000329549 0.00933403 0)
(0.000440577 0.00908787 0)
(0.000504093 0.0079963 0)
(0.000406999 0.00452877 0)
(-0.000394332 0.00379198 0)
(-0.000493634 0.00646301 0)
(-0.000440197 0.00715129 0)
(-0.000339679 0.00720261 0)
(-0.00025708 0.00712379 0)
(-0.000200969 0.00704976 0)
(-0.000165116 0.00701151 0)
(-0.000136697 0.00699741 0)
(-0.000113623 0.00699042 0)
(-9.45089e-05 0.00698967 0)
(-7.49494e-05 0.00699041 0)
(-5.6855e-05 0.00698922 0)
(-3.96391e-05 0.00699128 0)
(-2.23229e-05 0.00699267 0)
(-6.08678e-06 0.00699415 0)
(1.17506e-05 0.00699699 0)
(2.82034e-05 0.00699736 0)
(4.41669e-05 0.00699726 0)
(6.03069e-05 0.00699528 0)
(7.7401e-05 0.00699939 0)
(9.39132e-05 0.00699956 0)
(0.000114673 0.00700761 0)
(0.000138609 0.00700995 0)
(0.00016471 0.00702476 0)
(0.000200004 0.00705595 0)
(0.000252599 0.00712456 0)
(0.000331115 0.00720127 0)
(0.000432586 0.00715039 0)
(0.000490827 0.00646162 0)
(0.000393868 0.00379152 0)
(-0.000383175 0.00308492 0)
(-0.000487624 0.00499815 0)
(-0.000441591 0.00530964 0)
(-0.000346171 0.00518095 0)
(-0.00026217 0.00502807 0)
(-0.000203228 0.00492554 0)
(-0.000163054 0.00487724 0)
(-0.000134379 0.00485822 0)
(-0.000111915 0.00485077 0)
(-9.20693e-05 0.00485063 0)
(-7.34558e-05 0.00485142 0)
(-5.57052e-05 0.00485063 0)
(-3.80984e-05 0.00485377 0)
(-2.17683e-05 0.00485415 0)
(-5.16102e-06 0.00485566 0)
(1.17015e-05 0.00485589 0)
(2.73313e-05 0.00485548 0)
(4.24465e-05 0.00485461 0)
(5.95113e-05 0.00485307 0)
(7.72762e-05 0.00485326 0)
(9.44375e-05 0.00485382 0)
(0.0001137 0.00485923 0)
(0.000134438 0.00486337 0)
(0.000160411 0.00488152 0)
(0.000198654 0.00492635 0)
(0.000255585 0.00502543 0)
(0.000338488 0.00517712 0)
(0.000435321 0.00530726 0)
(0.000485208 0.00499743 0)
(0.000382826 0.00308482 0)
(-0.000377339 0.00240387 0)
(-0.000485881 0.00359851 0)
(-0.000447595 0.00356299 0)
(-0.000354971 0.00326947 0)
(-0.000264498 0.00304693 0)
(-0.000202819 0.00291979 0)
(-0.000159643 0.00286077 0)
(-0.000131252 0.00283887 0)
(-0.00010834 0.00283264 0)
(-8.90136e-05 0.00283258 0)
(-7.26203e-05 0.00283421 0)
(-5.40766e-05 0.00283549 0)
(-3.66782e-05 0.00283656 0)
(-2.09229e-05 0.00283843 0)
(-5.15918e-06 0.00283801 0)
(1.06015e-05 0.00283827 0)
(2.59393e-05 0.00283662 0)
(4.08711e-05 0.00283572 0)
(5.72456e-05 0.00283296 0)
(7.45927e-05 0.00283077 0)
(9.27668e-05 0.00282812 0)
(0.000110507 0.00283114 0)
(0.000130205 0.00283608 0)
(0.0001567 0.00285865 0)
(0.000197337 0.00291704 0)
(0.000257791 0.00304222 0)
(0.000348326 0.00326131 0)
(0.000443622 0.00355844 0)
(0.000485146 0.00359717 0)
(0.000377283 0.00240425 0)
(-0.000368402 0.00173327 0)
(-0.000474934 0.00225224 0)
(-0.000448171 0.00189412 0)
(-0.000363259 0.00146014 0)
(-0.000266694 0.00116992 0)
(-0.000201957 0.00101444 0)
(-0.000156415 0.000945893 0)
(-0.000125925 0.000920843 0)
(-0.000104046 0.000914666 0)
(-8.526e-05 0.000914842 0)
(-6.85514e-05 0.000917539 0)
(-5.2734e-05 0.000920397 0)
(-3.55129e-05 0.000921191 0)
(-2.05672e-05 0.000922622 0)
(-5.46193e-06 0.000922768 0)
(9.76683e-06 0.00092343 0)
(2.4049e-05 0.000921205 0)
(3.80207e-05 0.000917795 0)
(5.35926e-05 0.000913598 0)
(7.01713e-05 0.000910602 0)
(8.84261e-05 0.000906768 0)
(0.000106746 0.000906914 0)
(0.000125759 0.000914232 0)
(0.000154331 0.000941646 0)
(0.000195964 0.00100936 0)
(0.000257224 0.00116069 0)
(0.000357482 0.00144533 0)
(0.000448205 0.00188667 0)
(0.000476593 0.00224862 0)
(0.000369555 0.00173315 0)
(-0.000346785 0.00108 0)
(-0.000446489 0.000947474 0)
(-0.000433841 0.000289111 0)
(-0.000361966 -0.0002484 0)
(-0.000271425 -0.000605237 0)
(-0.000202399 -0.000795948 0)
(-0.000152079 -0.000874657 0)
(-0.000121422 -0.000902577 0)
(-9.90694e-05 -0.000909453 0)
(-8.08752e-05 -0.000909321 0)
(-6.56005e-05 -0.000906147 0)
(-4.98557e-05 -0.000903869 0)
(-3.42737e-05 -0.000902595 0)
(-1.94816e-05 -0.000901131 0)
(-4.7462e-06 -0.000899833 0)
(8.52924e-06 -0.000898993 0)
(2.03786e-05 -0.000903541 0)
(3.34571e-05 -0.000908575 0)
(4.97143e-05 -0.000915167 0)
(6.63433e-05 -0.000917354 0)
(8.38432e-05 -0.0009206 0)
(0.000101931 -0.000919048 0)
(0.000122601 -0.000911157 0)
(0.000150152 -0.000880425 0)
(0.000193569 -0.000807984 0)
(0.000259042 -0.000629109 0)
(0.000358926 -0.000279203 0)
(0.000439067 0.00027828 0)
(0.000450422 0.000943192 0)
(0.000348609 0.00107928 0)
(-0.000321821 0.000452723 0)
(-0.000404454 -0.000319306 0)
(-0.000385674 -0.00126765 0)
(-0.000339553 -0.00189818 0)
(-0.000282312 -0.00227891 0)
(-0.000208662 -0.00250925 0)
(-0.000148402 -0.00259566 0)
(-0.000114982 -0.00262321 0)
(-9.40368e-05 -0.00263242 0)
(-7.64368e-05 -0.00263185 0)
(-6.14562e-05 -0.00262665 0)
(-4.8592e-05 -0.00262952 0)
(-3.26381e-05 -0.00262818 0)
(-1.82687e-05 -0.00262791 0)
(-4.27242e-06 -0.0026268 0)
(6.04704e-06 -0.00262316 0)
(1.56776e-05 -0.00263217 0)
(2.77758e-05 -0.0026356 0)
(4.49233e-05 -0.0026439 0)
(6.27506e-05 -0.00264271 0)
(8.06488e-05 -0.00265243 0)
(9.84357e-05 -0.00264402 0)
(0.000117478 -0.00264404 0)
(0.000143945 -0.00260729 0)
(0.000190105 -0.00253261 0)
(0.00026143 -0.00232587 0)
(0.000345427 -0.00192187 0)
(0.000405893 -0.00127565 0)
(0.000412133 -0.000322308 0)
(0.000324327 0.000452541 0)
(-0.00029773 -0.000151785 0)
(-0.000362381 -0.00154432 0)
(-0.000327351 -0.00278772 0)
(-0.000278699 -0.00354012 0)
(-0.000270395 -0.00392095 0)
(-0.000217738 -0.00413825 0)
(-0.000139332 -0.00422678 0)
(-0.00010844 -0.00424391 0)
(-8.94065e-05 -0.00426612 0)
(-6.99105e-05 -0.00425747 0)
(-6.09558e-05 -0.00425625 0)
(-4.9788e-05 -0.00426504 0)
(-3.2415e-05 -0.00426348 0)
(-1.84711e-05 -0.00426288 0)
(-1.58257e-06 -0.0042665 0)
(3.99318e-06 -0.00425203 0)
(1.0589e-05 -0.00426918 0)
(2.38567e-05 -0.00426572 0)
(4.28333e-05 -0.00427907 0)
(5.63219e-05 -0.00426908 0)
(7.55905e-05 -0.00429027 0)
(9.15419e-05 -0.00427032 0)
(0.000109801 -0.00428741 0)
(0.000136875 -0.00424487 0)
(0.000184752 -0.00416848 0)
(0.000260641 -0.00393991 0)
(0.000305375 -0.00353469 0)
(0.000345931 -0.00278661 0)
(0.000369838 -0.00154604 0)
(0.000300567 -0.000151571 0)
(-0.000275653 -0.00073477 0)
(-0.000327597 -0.00272978 0)
(-0.000282156 -0.00426189 0)
(-0.000215437 -0.00515913 0)
(-0.000215285 -0.00559462 0)
(-0.000191947 -0.00575804 0)
(-0.000121192 -0.00584017 0)
(-0.00010161 -0.00586488 0)
(-8.7398e-05 -0.00587917 0)
(-6.24546e-05 -0.00587351 0)
(-6.44577e-05 -0.00587489 0)
(-5.24247e-05 -0.00587371 0)
(-3.03094e-05 -0.00587306 0)
(-2.06857e-05 -0.00586981 0)
(3.51096e-06 -0.00587731 0)
(4.2152e-06 -0.0058733 0)
(5.98399e-06 -0.00587669 0)
(2.05868e-05 -0.00587226 0)
(4.16102e-05 -0.00587845 0)
(5.12859e-05 -0.00587528 0)
(7.25566e-05 -0.00588771 0)
(8.32951e-05 -0.00588192 0)
(9.34957e-05 -0.00588932 0)
(0.000127988 -0.00585042 0)
(0.00017601 -0.00576233 0)
(0.000222889 -0.0055665 0)
(0.000233995 -0.00514368 0)
(0.000292589 -0.0042556 0)
(0.000332387 -0.00272876 0)
(0.000278988 -0.000734497 0)
(-0.000258889 -0.00129536 0)
(-0.000302336 -0.00387433 0)
(-0.000253599 -0.00568062 0)
(-0.000183579 -0.00672244 0)
(-0.000158432 -0.00723879 0)
(-0.000140476 -0.00742544 0)
(-0.000109001 -0.00750729 0)
(-9.35289e-05 -0.00754981 0)
(-7.8688e-05 -0.00754756 0)
(-6.01635e-05 -0.0075545 0)
(-5.77784e-05 -0.00755396 0)
(-4.61472e-05 -0.0075425 0)
(-2.84271e-05 -0.00754113 0)
(-2.15782e-05 -0.00754133 0)
(-4.85178e-06 -0.00754044 0)
(4.73404e-06 -0.00755497 0)
(1.2624e-05 -0.00753975 0)
(2.34898e-05 -0.00754287 0)
(4.01744e-05 -0.00753133 0)
(4.71695e-05 -0.00754453 0)
(6.38403e-05 -0.0075311 0)
(7.32087e-05 -0.00755126 0)
(8.92781e-05 -0.00752375 0)
(0.000121549 -0.00750209 0)
(0.000137552 -0.00740246 0)
(0.000163394 -0.00721389 0)
(0.000191066 -0.00670845 0)
(0.000258605 -0.00567262 0)
(0.000303609 -0.00386799 0)
(0.0002607 -0.00129587 0)
(-0.000248391 -0.00183191 0)
(-0.000285802 -0.00496746 0)
(-0.000237899 -0.00703586 0)
(-0.000171934 -0.00820655 0)
(-0.000139975 -0.008788 0)
(-0.000120774 -0.00903725 0)
(-0.000100949 -0.00913543 0)
(-8.70211e-05 -0.00917814 0)
(-7.39074e-05 -0.00918222 0)
(-6.08357e-05 -0.00918934 0)
(-5.21628e-05 -0.00918841 0)
(-4.0847e-05 -0.00918147 0)
(-2.85513e-05 -0.00917985 0)
(-1.94886e-05 -0.00918101 0)
(-6.63962e-06 -0.0091763 0)
(4.91232e-06 -0.00918434 0)
(1.57e-05 -0.00917668 0)
(2.74864e-05 -0.00917993 0)
(3.97415e-05 -0.00917095 0)
(4.95471e-05 -0.00918056 0)
(6.12518e-05 -0.00916614 0)
(7.21413e-05 -0.00917859 0)
(8.5699e-05 -0.00914798 0)
(0.000104496 -0.00912651 0)
(0.000119844 -0.00902115 0)
(0.000141098 -0.0087759 0)
(0.000176831 -0.00819683 0)
(0.000241818 -0.00702952 0)
(0.00028367 -0.00496088 0)
(0.000246169 -0.00183315 0)
(-0.000240556 -0.00234854 0)
(-0.00027593 -0.00601056 0)
(-0.000230227 -0.00832892 0)
(-0.000170436 -0.0096136 0)
(-0.000135353 -0.0102484 0)
(-0.000113769 -0.010527 0)
(-9.68391e-05 -0.0106392 0)
(-8.28565e-05 -0.0106822 0)
(-6.985e-05 -0.0106925 0)
(-5.84882e-05 -0.0106959 0)
(-4.86596e-05 -0.0106949 0)
(-3.78862e-05 -0.010691 0)
(-2.73006e-05 -0.0106896 0)
(-1.80494e-05 -0.0106884 0)
(-7.09789e-06 -0.0106864 0)
(4.58473e-06 -0.0106895 0)
(1.61035e-05 -0.0106876 0)
(2.7574e-05 -0.0106892 0)
(3.84754e-05 -0.0106875 0)
(4.83789e-05 -0.0106911 0)
(5.89384e-05 -0.0106876 0)
(7.00118e-05 -0.0106883 0)
(8.29475e-05 -0.01067 0)
(9.82294e-05 -0.0106325 0)
(0.000113737 -0.0105195 0)
(0.000135958 -0.0102408 0)
(0.000173608 -0.00960695 0)
(0.000233194 -0.00832579 0)
(0.00027287 -0.00600743 0)
(0.00023738 -0.0023478 0)
(-0.000232926 -0.00284529 0)
(-0.000270241 -0.00700924 0)
(-0.000229017 -0.00956467 0)
(-0.000174701 -0.0109547 0)
(-0.000135904 -0.0116318 0)
(-0.000110822 -0.0119292 0)
(-9.40459e-05 -0.012049 0)
(-7.96106e-05 -0.0120934 0)
(-6.66082e-05 -0.0121059 0)
(-5.60447e-05 -0.0121087 0)
(-4.53795e-05 -0.0121077 0)
(-3.52422e-05 -0.012105 0)
(-2.57522e-05 -0.0121036 0)
(-1.62679e-05 -0.0121019 0)
(-7.11346e-06 -0.0121001 0)
(4.04532e-06 -0.0121019 0)
(1.57881e-05 -0.0121011 0)
(2.69418e-05 -0.0121026 0)
(3.69033e-05 -0.0121022 0)
(4.67657e-05 -0.0121048 0)
(5.67785e-05 -0.0121036 0)
(6.78936e-05 -0.012102 0)
(8.03298e-05 -0.0120862 0)
(9.38614e-05 -0.0120441 0)
(0.00011092 -0.0119248 0)
(0.00013679 -0.0116273 0)
(0.000176428 -0.0109496 0)
(0.000230705 -0.00956361 0)
(0.000268818 -0.0070081 0)
(0.000231667 -0.0028444 0)
(-0.000229162 -0.00332147 0)
(-0.000270986 -0.00796236 0)
(-0.000232928 -0.0107397 0)
(-0.000179758 -0.012226 0)
(-0.00013566 -0.0129378 0)
(-0.000108125 -0.0132509 0)
(-9.10851e-05 -0.0133751 0)
(-7.63404e-05 -0.0134212 0)
(-6.31933e-05 -0.0134344 0)
(-5.30634e-05 -0.0134379 0)
(-4.29007e-05 -0.0134358 0)
(-3.32862e-05 -0.0134352 0)
(-2.40846e-05 -0.0134333 0)
(-1.47016e-05 -0.0134325 0)
(-6.68907e-06 -0.0134308 0)
(3.92784e-06 -0.0134312 0)
(1.53177e-05 -0.0134307 0)
(2.60176e-05 -0.0134318 0)
(3.53368e-05 -0.0134324 0)
(4.43771e-05 -0.0134347 0)
(5.41875e-05 -0.013435 0)
(6.49349e-05 -0.0134327 0)
(7.7143e-05 -0.0134181 0)
(9.01839e-05 -0.0133735 0)
(0.000108142 -0.013249 0)
(0.000137254 -0.0129364 0)
(0.000180466 -0.0122231 0)
(0.00023285 -0.0107394 0)
(0.000268704 -0.00796209 0)
(0.00022711 -0.00332186 0)
(-0.000228193 -0.00378819 0)
(-0.000271263 -0.00887069 0)
(-0.000237525 -0.0118515 0)
(-0.000183522 -0.0134278 0)
(-0.000134469 -0.014174 0)
(-0.000105293 -0.0145 0)
(-8.73108e-05 -0.0146303 0)
(-7.29946e-05 -0.0146767 0)
(-6.04851e-05 -0.0146915 0)
(-5.01215e-05 -0.0146942 0)
(-4.04622e-05 -0.0146928 0)
(-3.19701e-05 -0.0146918 0)
(-2.28738e-05 -0.0146897 0)
(-1.37929e-05 -0.0146887 0)
(-5.63264e-06 -0.0146877 0)
(4.31358e-06 -0.0146869 0)
(1.50339e-05 -0.0146871 0)
(2.48368e-05 -0.0146878 0)
(3.31632e-05 -0.0146901 0)
(4.17873e-05 -0.0146912 0)
(5.11725e-05 -0.0146928 0)
(6.15757e-05 -0.0146897 0)
(7.34973e-05 -0.014676 0)
(8.63898e-05 -0.0146291 0)
(0.000105633 -0.0144989 0)
(0.000136484 -0.0141731 0)
(0.00018442 -0.0134263 0)
(0.00023671 -0.0118534 0)
(0.00026874 -0.00887155 0)
(0.000225679 -0.00378778 0)
(-0.000215903 -0.00423873 0)
(-0.000258342 -0.00974734 0)
(-0.000241134 -0.0129176 0)
(-0.000190137 -0.0145739 0)
(-0.000133856 -0.0153553 0)
(-0.00010331 -0.0156919 0)
(-8.44168e-05 -0.0158274 0)
(-6.96103e-05 -0.0158744 0)
(-5.70926e-05 -0.0158897 0)
(-4.69008e-05 -0.0158922 0)
(-3.80973e-05 -0.0158921 0)
(-2.93184e-05 -0.0158889 0)
(-2.07648e-05 -0.0158863 0)
(-1.26141e-05 -0.0158846 0)
(-4.90724e-06 -0.0158829 0)
(4.47932e-06 -0.0158823 0)
(1.428e-05 -0.0158823 0)
(2.28398e-05 -0.0158833 0)
(3.12003e-05 -0.0158865 0)
(3.93013e-05 -0.0158873 0)
(4.80647e-05 -0.0158886 0)
(5.81841e-05 -0.0158853 0)
(6.97772e-05 -0.0158701 0)
(8.37873e-05 -0.0158228 0)
(0.000103305 -0.0156881 0)
(0.000135589 -0.01535 0)
(0.000187582 -0.0145663 0)
(0.000237829 -0.0129159 0)
(0.000256977 -0.00974765 0)
(0.000214085 -0.00423803 0)
(-0.000201543 -0.00466871 0)
(-0.000239942 -0.0105979 0)
(-0.000235706 -0.0139497 0)
(-0.000193771 -0.0156645 0)
(-0.000134071 -0.0164816 0)
(-9.99706e-05 -0.0168265 0)
(-8.07294e-05 -0.0169663 0)
(-6.56623e-05 -0.0170134 0)
(-5.42555e-05 -0.0170284 0)
(-4.46689e-05 -0.0170319 0)
(-3.49e-05 -0.0170314 0)
(-2.58226e-05 -0.017028 0)
(-1.85825e-05 -0.0170248 0)
(-1.0405e-05 -0.0170238 0)
(-3.44589e-06 -0.0170195 0)
(4.72835e-06 -0.0170202 0)
(1.39962e-05 -0.0170176 0)
(2.0631e-05 -0.0170195 0)
(2.83829e-05 -0.0170228 0)
(3.72291e-05 -0.0170244 0)
(4.5418e-05 -0.0170243 0)
(5.58783e-05 -0.0170216 0)
(6.61743e-05 -0.0170051 0)
(7.91648e-05 -0.0169592 0)
(0.000100945 -0.0168222 0)
(0.0001387 -0.0164729 0)
(0.000189542 -0.01565 0)
(0.000226394 -0.013943 0)
(0.00023561 -0.0105959 0)
(0.000199303 -0.00466736 0)
(-0.000187284 -0.00508068 0)
(-0.000218649 -0.0114125 0)
(-0.000213388 -0.0149399 0)
(-0.000184863 -0.0167002 0)
(-0.000134233 -0.0175456 0)
(-9.5409e-05 -0.017899 0)
(-7.69125e-05 -0.0180427 0)
(-6.04912e-05 -0.0180895 0)
(-5.09856e-05 -0.0181011 0)
(-4.18889e-05 -0.0181076 0)
(-3.2174e-05 -0.0181058 0)
(-2.26672e-05 -0.0181055 0)
(-1.65824e-05 -0.0181012 0)
(-7.73023e-06 -0.0181029 0)
(-1.77603e-06 -0.0180932 0)
(6.08928e-06 -0.0180977 0)
(1.47036e-05 -0.0180896 0)
(1.7776e-05 -0.0180942 0)
(2.58172e-05 -0.0180954 0)
(3.52706e-05 -0.0181006 0)
(4.27667e-05 -0.0180976 0)
(5.25372e-05 -0.0180983 0)
(6.08218e-05 -0.0180794 0)
(7.28384e-05 -0.0180364 0)
(9.70404e-05 -0.0178981 0)
(0.0001442 -0.0175413 0)
(0.000179822 -0.0167007 0)
(0.000198735 -0.0149379 0)
(0.000213039 -0.011412 0)
(0.000185225 -0.0050797 0)
(-0.00017327 -0.00547646 0)
(-0.000194974 -0.0121944 0)
(-0.000176387 -0.0158919 0)
(-0.000161595 -0.0177182 0)
(-0.000130209 -0.0185537 0)
(-9.00549e-05 -0.0189175 0)
(-7.1924e-05 -0.0190633 0)
(-5.20489e-05 -0.0191114 0)
(-4.73946e-05 -0.0191158 0)
(-4.10349e-05 -0.0191288 0)
(-3.06113e-05 -0.0191223 0)
(-2.10641e-05 -0.0191272 0)
(-1.59754e-05 -0.0191211 0)
(-3.52259e-06 -0.0191283 0)
(8.67759e-07 -0.019116 0)
(7.62233e-06 -0.0191234 0)
(1.67096e-05 -0.0191161 0)
(1.52911e-05 -0.0191223 0)
(2.18921e-05 -0.0191227 0)
(3.25715e-05 -0.0191295 0)
(3.97133e-05 -0.019126 0)
(4.89705e-05 -0.0191282 0)
(5.55868e-05 -0.019107 0)
(6.30574e-05 -0.0190627 0)
(9.00327e-05 -0.0189202 0)
(0.000133506 -0.018557 0)
(0.000155588 -0.0177321 0)