/*--------------------------------*- C++ -*----------------------------------*\
| =========                 |                                                 |
| \\      /  F ield         | OpenFOAM: The Open Source CFD Toolbox           |
|  \\    /   O peration     | Version:  v1606+                                |
|   \\  /    A nd           | Web:      www.OpenFOAM.com                      |
|    \\/     M anipulation  |                                                 |
\*---------------------------------------------------------------------------*/
FoamFile
{
    version     2.0;
    format      ascii;
    class       volVectorField;
    location    "0.01";
    object      Ur;
}
// * * * * * * * * * * * * * * * * * * * * * * * * * * * * * * * * * * * * * //

dimensions      [0 1 -1 0 0 0 0];

internalField   nonuniform List<vector> 
6000
(
(-0.0133475 -0.490396 0)
(-0.0438518 -0.490351 0)
(-0.0472804 -0.48878 0)
(-0.0432844 -0.486035 0)
(-0.0365043 -0.483721 0)
(-0.0297346 -0.48228 0)
(-0.0238173 -0.481372 0)
(-0.0189187 -0.480762 0)
(-0.0149523 -0.480326 0)
(-0.0116931 -0.480031 0)
(-0.00897893 -0.479765 0)
(-0.00663486 -0.479643 0)
(-0.00459471 -0.479486 0)
(-0.00271868 -0.479543 0)
(-0.000901515 -0.479426 0)
(0.000814992 -0.479376 0)
(0.00261813 -0.479495 0)
(0.00455054 -0.479546 0)
(0.00662084 -0.479641 0)
(0.0089992 -0.479816 0)
(0.0117514 -0.479953 0)
(0.0149949 -0.480294 0)
(0.0189389 -0.480761 0)
(0.023793 -0.481411 0)
(0.0297166 -0.4823 0)
(0.0365188 -0.483688 0)
(0.0432369 -0.485966 0)
(0.0472322 -0.488878 0)
(0.0438467 -0.490321 0)
(0.0133285 -0.490378 0)
(-0.00386845 -0.923553 0)
(-0.0143326 -0.91863 0)
(-0.0244053 -0.912701 0)
(-0.0285723 -0.906722 0)
(-0.0277688 -0.901904 0)
(-0.0243423 -0.898362 0)
(-0.0202905 -0.895932 0)
(-0.0165189 -0.89422 0)
(-0.0132786 -0.892984 0)
(-0.0105401 -0.892118 0)
(-0.00815347 -0.89141 0)
(-0.00603336 -0.891013 0)
(-0.00411177 -0.890633 0)
(-0.00242122 -0.890623 0)
(-0.000852502 -0.890405 0)
(0.000836002 -0.890339 0)
(0.00250938 -0.890553 0)
(0.00415998 -0.890727 0)
(0.00596464 -0.891015 0)
(0.00798929 -0.891486 0)
(0.010406 -0.891993 0)
(0.0132873 -0.892933 0)
(0.0165765 -0.894216 0)
(0.0202961 -0.895993 0)
(0.0242931 -0.898378 0)
(0.0277655 -0.901842 0)
(0.0286792 -0.906636 0)
(0.0244528 -0.912833 0)
(0.0142814 -0.918582 0)
(0.0038517 -0.923518 0)
(0.00145465 -0.898078 0)
(-0.00126615 -0.894378 0)
(-0.00941396 -0.89086 0)
(-0.0154975 -0.88612 0)
(-0.0178201 -0.881352 0)
(-0.0173012 -0.877196 0)
(-0.0153663 -0.873964 0)
(-0.0130279 -0.871532 0)
(-0.0107492 -0.869733 0)
(-0.00868279 -0.868421 0)
(-0.00679392 -0.867431 0)
(-0.0050667 -0.866766 0)
(-0.00347079 -0.866275 0)
(-0.00203913 -0.86607 0)
(-0.000701781 -0.865873 0)
(0.000726383 -0.865862 0)
(0.00213256 -0.866055 0)
(0.00351337 -0.866351 0)
(0.00500063 -0.866805 0)
(0.00663761 -0.867481 0)
(0.00854768 -0.868362 0)
(0.0107333 -0.869688 0)
(0.0130595 -0.87151 0)
(0.0153687 -0.873976 0)
(0.0172716 -0.877189 0)
(0.0178405 -0.881302 0)
(0.0155958 -0.886077 0)
(0.00946511 -0.890914 0)
(0.00124587 -0.894352 0)
(-0.00146013 -0.898056 0)
(0.00108605 -0.878722 0)
(0.000410418 -0.875852 0)
(-0.00381947 -0.874055 0)
(-0.00814596 -0.871026 0)
(-0.0107936 -0.867267 0)
(-0.0115786 -0.86348 0)
(-0.0110527 -0.860189 0)
(-0.00985107 -0.857522 0)
(-0.00840196 -0.855465 0)
(-0.00693093 -0.853907 0)
(-0.00551445 -0.852757 0)
(-0.00417102 -0.85192 0)
(-0.00290501 -0.851348 0)
(-0.00171482 -0.851008 0)
(-0.000564278 -0.850825 0)
(0.000589502 -0.850848 0)
(0.00174436 -0.851023 0)
(0.00291276 -0.85139 0)
(0.00413337 -0.851957 0)
(0.00544055 -0.852778 0)
(0.00686203 -0.853901 0)
(0.00836875 -0.855436 0)
(0.00984464 -0.857498 0)
(0.0110566 -0.860164 0)
(0.0115896 -0.863469 0)
(0.0108191 -0.867235 0)
(0.00818405 -0.871006 0)
(0.00385002 -0.874062 0)
(-0.000392728 -0.875838 0)
(-0.00107748 -0.87871 0)
(0.000639937 -0.862114 0)
(0.000561452 -0.859144 0)
(-0.00150603 -0.857147 0)
(-0.00415399 -0.85474 0)
(-0.00624373 -0.851738 0)
(-0.00732602 -0.84853 0)
(-0.00749497 -0.845566 0)
(-0.0070361 -0.843025 0)
(-0.00623755 -0.840968 0)
(-0.0052916 -0.83936 0)
(-0.00430477 -0.838151 0)
(-0.00331561 -0.837251 0)
(-0.0023408 -0.836617 0)
(-0.00139163 -0.836228 0)
(-0.000451245 -0.836039 0)
(0.000472206 -0.836067 0)
(0.00139727 -0.836245 0)
(0.00233604 -0.836632 0)
(0.00328947 -0.837256 0)
(0.00426726 -0.838153 0)
(0.00525113 -0.839365 0)
(0.00620311 -0.840949 0)
(0.00702094 -0.843003 0)
(0.00750223 -0.845536 0)
(0.00734907 -0.848524 0)
(0.00627026 -0.851712 0)
(0.00417929 -0.854727 0)
(0.00152245 -0.857148 0)
(-0.000544786 -0.859144 0)
(-0.000628679 -0.862102 0)
(0.000607421 -0.847118 0)
(0.000985207 -0.843946 0)
(3.31757e-05 -0.841567 0)
(-0.00155309 -0.839293 0)
(-0.0030724 -0.836744 0)
(-0.00411148 -0.834032 0)
(-0.00458338 -0.831487 0)
(-0.00457787 -0.829236 0)
(-0.00425691 -0.827328 0)
(-0.00374083 -0.825807 0)
(-0.00312823 -0.824614 0)
(-0.00246841 -0.823731 0)
(-0.00176917 -0.823077 0)
(-0.0010577 -0.822685 0)
(-0.000341055 -0.822497 0)
(0.000363847 -0.822517 0)
(0.00106126 -0.822703 0)
(0.0017592 -0.823078 0)
(0.00244963 -0.823713 0)
(0.00311537 -0.824611 0)
(0.00371546 -0.825797 0)
(0.00422196 -0.827316 0)
(0.00455945 -0.829212 0)
(0.00458607 -0.831465 0)
(0.00412729 -0.834025 0)
(0.00309851 -0.83672 0)
(0.00158187 -0.839279 0)
(-2.67442e-05 -0.841567 0)
(-0.000994414 -0.843966 0)
(-0.000612599 -0.847097 0)
(0.000685382 -0.834138 0)
(0.00151254 -0.830774 0)
(0.00131875 -0.828222 0)
(0.000423838 -0.826039 0)
(-0.000668369 -0.823818 0)
(-0.00160623 -0.821498 0)
(-0.00221436 -0.819354 0)
(-0.00249053 -0.817423 0)
(-0.00251005 -0.815726 0)
(-0.0023234 -0.814372 0)
(-0.00201615 -0.813245 0)
(-0.0016509 -0.812432 0)
(-0.00121417 -0.811809 0)
(-0.000732539 -0.811429 0)
(-0.000237741 -0.811246 0)
(0.000260903 -0.81125 0)
(0.000742324 -0.811435 0)
(0.00120984 -0.811786 0)
(0.00164818 -0.812397 0)
(0.00202798 -0.813241 0)
(0.00230967 -0.814326 0)
(0.00247834 -0.815723 0)
(0.00246978 -0.817396 0)
(0.00219494 -0.819342 0)
(0.00160686 -0.821491 0)
(0.000690631 -0.823804 0)
(-0.000400701 -0.826019 0)
(-0.00131462 -0.828212 0)
(-0.00153499 -0.830794 0)
(-0.00070339 -0.834115 0)
(0.000801137 -0.822528 0)
(0.00206349 -0.819096 0)
(0.00247221 -0.816489 0)
(0.0020756 -0.814504 0)
(0.00129135 -0.812603 0)
(0.000440401 -0.810651 0)
(-0.000263987 -0.808894 0)
(-0.000748892 -0.807266 0)
(-0.00101934 -0.805796 0)
(-0.00109726 -0.804642 0)
(-0.00103186 -0.803602 0)
(-0.000901652 -0.802874 0)
(-0.000690368 -0.802326 0)
(-0.000399278 -0.801967 0)
(-0.000102636 -0.801799 0)
(0.000166523 -0.801796 0)
(0.00043086 -0.801965 0)
(0.000697366 -0.802282 0)
(0.000915732 -0.802841 0)
(0.00105417 -0.803612 0)
(0.00109173 -0.80456 0)
(0.00100132 -0.805824 0)
(0.000716932 -0.807235 0)
(0.00021772 -0.808891 0)
(-0.000466188 -0.810664 0)
(-0.00129304 -0.812602 0)
(-0.00207 -0.814479 0)
(-0.00247155 -0.816471 0)
(-0.00208125 -0.819099 0)
(-0.000816903 -0.822514 0)
(0.000918805 -0.811778 0)
(0.00255577 -0.808436 0)
(0.00347227 -0.805804 0)
(0.00347426 -0.804103 0)
(0.0028929 -0.802542 0)
(0.0021017 -0.800958 0)
(0.00134304 -0.799551 0)
(0.000698029 -0.798201 0)
(0.000247961 -0.796968 0)
(-4.68016e-05 -0.796005 0)
(-0.000214523 -0.795088 0)
(-0.000232506 -0.79444 0)
(-0.000182138 -0.793993 0)
(-9.1969e-05 -0.793668 0)
(8.8046e-06 -0.793513 0)
(7.92167e-05 -0.793485 0)
(0.000164415 -0.793674 0)
(0.000233922 -0.79393 0)
(0.000250093 -0.794441 0)
(0.000197848 -0.795115 0)
(5.76671e-05 -0.795939 0)
(-0.000237423 -0.797036 0)
(-0.000733505 -0.798187 0)
(-0.00138575 -0.799572 0)
(-0.00216324 -0.80099 0)
(-0.00294232 -0.802562 0)
(-0.00349526 -0.804081 0)
(-0.00348214 -0.805786 0)
(-0.00256473 -0.80842 0)
(-0.000925322 -0.811773 0)
(0.00102726 -0.801508 0)
(0.00294207 -0.798387 0)
(0.00423996 -0.795734 0)
(0.00456039 -0.794288 0)
(0.00413406 -0.793052 0)
(0.00341743 -0.791838 0)
(0.00265497 -0.79073 0)
(0.0019064 -0.789606 0)
(0.00130155 -0.788649 0)
(0.000823741 -0.787796 0)
(0.000498096 -0.787063 0)
(0.000339661 -0.786521 0)
(0.000248888 -0.786133 0)
(0.000140444 -0.785841 0)
(3.86342e-05 -0.785723 0)
(1.15861e-06 -0.785678 0)
(-5.16041e-05 -0.785889 0)
(-0.00016958 -0.786049 0)
(-0.000331085 -0.786532 0)
(-0.000531828 -0.787089 0)
(-0.000838665 -0.787805 0)
(-0.00129368 -0.788696 0)
(-0.00189563 -0.789639 0)
(-0.00262566 -0.790765 0)
(-0.00345857 -0.791852 0)
(-0.0042254 -0.793099 0)
(-0.00461612 -0.794276 0)
(-0.00425672 -0.795719 0)
(-0.00294539 -0.79836 0)
(-0.00102762 -0.801506 0)
(0.00108938 -0.791486 0)
(0.00315524 -0.788616 0)
(0.004718 -0.785936 0)
(0.00530467 -0.78462 0)
(0.00505917 -0.783691 0)
(0.00445412 -0.782814 0)
(0.00368721 -0.781955 0)
(0.00287217 -0.781025 0)
(0.00215961 -0.780336 0)
(0.00157528 -0.779592 0)
(0.00111963 -0.779079 0)
(0.000808918 -0.778599 0)
(0.00053518 -0.778301 0)
(0.000265909 -0.777953 0)
(5.85371e-05 -0.777937 0)
(-7.16728e-05 -0.777882 0)
(-0.000257839 -0.778058 0)
(-0.000490302 -0.778149 0)
(-0.000755415 -0.778597 0)
(-0.00110826 -0.779059 0)
(-0.00158107 -0.779624 0)
(-0.00217795 -0.780363 0)
(-0.00284485 -0.781114 0)
(-0.0036214 -0.78199 0)
(-0.00442762 -0.78279 0)
(-0.00512149 -0.783742 0)
(-0.00538816 -0.784655 0)
(-0.00475454 -0.785935 0)
(-0.00316455 -0.78859 0)
(-0.00108828 -0.791484 0)
(0.00111861 -0.781533 0)
(0.00320064 -0.778912 0)
(0.00489961 -0.776217 0)
(0.00575806 -0.774855 0)
(0.00573069 -0.774234 0)
(0.00518816 -0.773603 0)
(0.00435303 -0.772944 0)
(0.00356592 -0.772212 0)
(0.00280412 -0.771719 0)
(0.00216076 -0.771132 0)
(0.00168198 -0.770746 0)
(0.00117141 -0.77037 0)
(0.000737209 -0.770095 0)
(0.000435152 -0.769795 0)
(0.000156466 -0.769816 0)
(-0.000132436 -0.7698 0)
(-0.000452998 -0.769869 0)
(-0.000749266 -0.770016 0)
(-0.00107653 -0.770325 0)
(-0.00156902 -0.770737 0)
(-0.00214739 -0.771119 0)
(-0.00282853 -0.771767 0)
(-0.00359389 -0.772334 0)
(-0.00443892 -0.77298 0)
(-0.00519098 -0.77358 0)
(-0.00570324 -0.774227 0)
(-0.00579681 -0.774939 0)
(-0.00493896 -0.776242 0)
(-0.00321697 -0.778902 0)
(-0.00111797 -0.781533 0)
(0.0011442 -0.771529 0)
(0.00315989 -0.769109 0)
(0.00484679 -0.766493 0)
(0.00595908 -0.764938 0)
(0.00609631 -0.764524 0)
(0.00557776 -0.76402 0)
(0.00481296 -0.763549 0)
(0.00402838 -0.763094 0)
(0.00328642 -0.762605 0)
(0.00262188 -0.762321 0)
(0.00201701 -0.761937 0)
(0.00147558 -0.761604 0)
(0.00101467 -0.761453 0)
(0.00063833 -0.76124 0)
(0.00026309 -0.76122 0)
(-0.000200581 -0.761224 0)
(-0.000607164 -0.761254 0)
(-0.000975216 -0.761457 0)
(-0.00140133 -0.761629 0)
(-0.00195393 -0.761943 0)
(-0.00255411 -0.762253 0)
(-0.00325343 -0.762739 0)
(-0.00412764 -0.763181 0)
(-0.00499149 -0.763595 0)
(-0.005703 -0.764117 0)
(-0.00609257 -0.764478 0)
(-0.00591575 -0.765012 0)
(-0.00485181 -0.766523 0)
(-0.0031693 -0.769116 0)
(-0.00114305 -0.771529 0)
(0.00117483 -0.761405 0)
(0.00315501 -0.759111 0)
(0.00463414 -0.756699 0)
(0.00582351 -0.754901 0)
(0.00618336 -0.754384 0)
(0.00577684 -0.754095 0)
(0.00518149 -0.753792 0)
(0.00440697 -0.753503 0)
(0.00365663 -0.753143 0)
(0.00293823 -0.752958 0)
(0.00224745 -0.752631 0)
(0.00172217 -0.752427 0)
(0.00125141 -0.752307 0)
(0.000741873 -0.752187 0)
(0.000273388 -0.752122 0)
(-0.000220588 -0.752095 0)
(-0.000696938 -0.752228 0)
(-0.00118048 -0.752338 0)
(-0.00171392 -0.752477 0)
(-0.00224699 -0.752649 0)
(-0.00287078 -0.752972 0)
(-0.00361841 -0.753211 0)
(-0.0044558 -0.753541 0)
(-0.00527124 -0.753829 0)
(-0.00592899 -0.754242 0)
(-0.0062405 -0.754423 0)
(-0.00578994 -0.754928 0)
(-0.00461865 -0.756691 0)
(-0.00314361 -0.759116 0)
(-0.00117016 -0.761399 0)
(0.00122499 -0.751148 0)
(0.00325271 -0.748938 0)
(0.00448535 -0.746689 0)
(0.00544671 -0.744901 0)
(0.00595289 -0.743888 0)
(0.00586013 -0.743893 0)
(0.00543999 -0.743705 0)
(0.00465187 -0.743464 0)
(0.00389888 -0.743347 0)
(0.00318241 -0.743117 0)
(0.00244335 -0.742913 0)
(0.0018797 -0.742847 0)
(0.00133813 -0.742713 0)
(0.000780359 -0.742599 0)
(0.000253083 -0.742595 0)
(-0.00025152 -0.742465 0)
(-0.000752103 -0.742705 0)
(-0.00131865 -0.742669 0)
(-0.00185835 -0.742895 0)
(-0.0024513 -0.742922 0)
(-0.00309695 -0.743238 0)
(-0.00387774 -0.743236 0)
(-0.0046981 -0.743539 0)
(-0.00547031 -0.743616 0)
(-0.00595774 -0.743998 0)
(-0.00601896 -0.743985 0)
(-0.00543764 -0.744868 0)
(-0.00444512 -0.746635 0)
(-0.00323 -0.748921 0)
(-0.00121884 -0.751128 0)
(0.00130254 -0.740777 0)
(0.00344699 -0.738654 0)
(0.00466891 -0.736478 0)
(0.00521947 -0.734997 0)
(0.00556634 -0.733462 0)
(0.00557091 -0.733622 0)
(0.00527993 -0.733217 0)
(0.00470904 -0.732863 0)
(0.00399962 -0.732995 0)
(0.00339179 -0.732681 0)
(0.00261454 -0.732535 0)
(0.00194026 -0.732704 0)
(0.00137328 -0.732419 0)
(0.000804943 -0.732407 0)
(0.000312483 -0.732342 0)
(-0.000254218 -0.73225 0)
(-0.000849216 -0.732455 0)
(-0.00142697 -0.732404 0)
(-0.00188617 -0.732719 0)
(-0.00258915 -0.732555 0)
(-0.00317919 -0.733057 0)
(-0.00398297 -0.732674 0)
(-0.00484316 -0.73316 0)
(-0.0052703 -0.732978 0)
(-0.00566157 -0.733765 0)
(-0.00557852 -0.733618 0)
(-0.00523954 -0.735017 0)
(-0.00466613 -0.736399 0)
(-0.00344395 -0.738615 0)
(-0.00130227 -0.740741 0)
(0.00138891 -0.730319 0)
(0.00367023 -0.728283 0)
(0.00505126 -0.726229 0)
(0.00561885 -0.725024 0)
(0.00585951 -0.723729 0)
(0.00570752 -0.723864 0)
(0.00514966 -0.723587 0)
(0.00470249 -0.722829 0)
(0.00410518 -0.723229 0)
(0.00341901 -0.722814 0)
(0.00286512 -0.722595 0)
(0.0021375 -0.72308 0)
(0.00140596 -0.722684 0)
(0.000802226 -0.722747 0)
(0.000210111 -0.722627 0)
(-0.000315211 -0.722388 0)
(-0.000884283 -0.722681 0)
(-0.00148057 -0.722612 0)
(-0.00219855 -0.723095 0)
(-0.00282636 -0.722409 0)
(-0.00357866 -0.723414 0)
(-0.00414345 -0.72207 0)
(-0.0045737 -0.723313 0)
(-0.00498753 -0.722919 0)
(-0.00540677 -0.724063 0)
(-0.00575715 -0.723946 0)
(-0.0056454 -0.725125 0)
(-0.00509367 -0.726161 0)
(-0.00369062 -0.728236 0)
(-0.00139623 -0.730276 0)
(0.00142385 -0.719832 0)
(0.00379792 -0.717836 0)
(0.00533951 -0.716005 0)
(0.00612961 -0.715025 0)
(0.00637659 -0.714264 0)
(0.00612419 -0.714344 0)
(0.00540133 -0.714303 0)
(0.00480522 -0.713638 0)
(0.00419996 -0.713908 0)
(0.00346534 -0.713615 0)
(0.00294273 -0.713439 0)
(0.00224566 -0.713775 0)
(0.00147508 -0.713564 0)
(0.000828608 -0.713557 0)
(0.000161779 -0.713514 0)
(-0.000368808 -0.713224 0)
(-0.000910686 -0.713525 0)
(-0.00153777 -0.713418 0)
(-0.00234699 -0.71379 0)
(-0.00298309 -0.713219 0)
(-0.00373881 -0.713897 0)
(-0.00423842 -0.712876 0)
(-0.00458323 -0.713836 0)
(-0.00516845 -0.713754 0)
(-0.00572014 -0.714429 0)
(-0.00621752 -0.714427 0)
(-0.0061262 -0.71514 0)
(-0.00537995 -0.715957 0)
(-0.00382194 -0.717787 0)
(-0.00143265 -0.719788 0)
(0.00139699 -0.709309 0)
(0.00379463 -0.707341 0)
(0.00543189 -0.705743 0)
(0.00630538 -0.704941 0)
(0.00655883 -0.704521 0)
(0.00630037 -0.704626 0)
(0.00562834 -0.704718 0)
(0.00494951 -0.704389 0)
(0.00427034 -0.704474 0)
(0.00353849 -0.704357 0)
(0.00292055 -0.704261 0)
(0.00224567 -0.704377 0)
(0.0015358 -0.704333 0)
(0.000883029 -0.704279 0)
(0.000213882 -0.704276 0)
(-0.000363855 -0.704072 0)
(-0.00094255 -0.704274 0)
(-0.00157468 -0.704182 0)
(-0.00228393 -0.704344 0)
(-0.00296144 -0.704091 0)
(-0.0036334 -0.704309 0)
(-0.00423944 -0.703912 0)
(-0.00479416 -0.704321 0)
(-0.00546775 -0.704466 0)
(-0.00608397 -0.704613 0)
(-0.00643699 -0.704604 0)
(-0.0062956 -0.705015 0)
(-0.00546596 -0.705693 0)
(-0.00381687 -0.707288 0)
(-0.00140421 -0.709268 0)
(0.00135375 -0.698674 0)
(0.00372265 -0.696789 0)
(0.00539677 -0.695367 0)
(0.00629017 -0.694641 0)
(0.00655156 -0.694399 0)
(0.00630668 -0.694482 0)
(0.00567411 -0.694643 0)
(0.00499642 -0.694537 0)
(0.00427774 -0.694526 0)
(0.00354812 -0.694535 0)
(0.00289458 -0.694477 0)
(0.00224741 -0.694496 0)
(0.00159552 -0.694538 0)
(0.000929184 -0.694478 0)
(0.000256523 -0.694494 0)
(-0.000352623 -0.694401 0)
(-0.000948774 -0.694501 0)
(-0.0015728 -0.69444 0)
(-0.00224173 -0.694466 0)
(-0.00291176 -0.694388 0)
(-0.00357519 -0.694461 0)
(-0.00422822 -0.69429 0)
(-0.00487566 -0.694467 0)
(-0.00557339 -0.694548 0)
(-0.00617745 -0.694487 0)
(-0.00646986 -0.694434 0)
(-0.00629711 -0.694671 0)
(-0.00543894 -0.695312 0)
(-0.0037486 -0.696737 0)
(-0.0013608 -0.69864 0)
(0.00130685 -0.687876 0)
(0.0036014 -0.686119 0)
(0.00524485 -0.68484 0)
(0.00615223 -0.684086 0)
(0.00640554 -0.683972 0)
(0.00618698 -0.683974 0)
(0.00562835 -0.684169 0)
(0.00494683 -0.684203 0)
(0.00425045 -0.68413 0)
(0.00354095 -0.684262 0)
(0.00287059 -0.684198 0)
(0.00222183 -0.684235 0)
(0.0015835 -0.684298 0)
(0.000954224 -0.684222 0)
(0.000288294 -0.684252 0)
(-0.000317534 -0.684249 0)
(-0.000918391 -0.684282 0)
(-0.00154705 -0.684252 0)
(-0.00218867 -0.684194 0)
(-0.00284568 -0.684214 0)
(-0.00352476 -0.684206 0)
(-0.00419957 -0.684118 0)
(-0.00484856 -0.684164 0)
(-0.00555026 -0.68417 0)
(-0.00611955 -0.684012 0)
(-0.00636149 -0.683977 0)
(-0.00618137 -0.684082 0)
(-0.00530985 -0.684793 0)
(-0.00363642 -0.686084 0)
(-0.00131668 -0.687857 0)
(0.00125379 -0.676894 0)
(0.00343687 -0.675279 0)
(0.00495084 -0.674114 0)
(0.00585436 -0.673273 0)
(0.006165 -0.673181 0)
(0.00599422 -0.673154 0)
(0.00549544 -0.673308 0)
(0.00480822 -0.673446 0)
(0.00416456 -0.673382 0)
(0.00350604 -0.673536 0)
(0.00281421 -0.673519 0)
(0.00218417 -0.673546 0)
(0.00155673 -0.673659 0)
(0.00093265 -0.673581 0)
(0.000329704 -0.673588 0)
(-0.000275102 -0.673697 0)
(-0.000885741 -0.67364 0)
(-0.00152219 -0.673662 0)
(-0.0021279 -0.673539 0)
(-0.00275574 -0.673632 0)
(-0.00344438 -0.673528 0)
(-0.00411442 -0.673532 0)
(-0.00477231 -0.673468 0)
(-0.00541538 -0.673381 0)
(-0.00593338 -0.67322 0)
(-0.00615465 -0.673199 0)
(-0.00591753 -0.673231 0)
(-0.00504731 -0.674112 0)
(-0.00347819 -0.67528 0)
(-0.00126579 -0.676905 0)
(0.00120697 -0.665727 0)
(0.00326364 -0.664247 0)
(0.00457584 -0.663132 0)
(0.00541719 -0.662277 0)
(0.00585244 -0.66207 0)
(0.00572747 -0.662029 0)
(0.00528159 -0.662126 0)
(0.00468085 -0.662346 0)
(0.00404909 -0.662387 0)
(0.00340824 -0.662502 0)
(0.00276189 -0.662535 0)
(0.00214866 -0.662605 0)
(0.00151029 -0.662687 0)
(0.000892999 -0.662651 0)
(0.000338147 -0.662646 0)
(-0.000259371 -0.66276 0)
(-0.000866483 -0.662691 0)
(-0.00148255 -0.662695 0)
(-0.00209256 -0.662611 0)
(-0.00268682 -0.662651 0)
(-0.00331669 -0.662538 0)
(-0.00397679 -0.662549 0)
(-0.00463943 -0.662447 0)
(-0.00521497 -0.6623 0)
(-0.0056807 -0.662107 0)
(-0.00588612 -0.662115 0)
(-0.00552536 -0.66217 0)
(-0.00466036 -0.663207 0)
(-0.00329338 -0.664294 0)
(-0.00121509 -0.665778 0)
(0.00117755 -0.654389 0)
(0.00313072 -0.653021 0)
(0.00424237 -0.651892 0)
(0.0048806 -0.651162 0)
(0.00541992 -0.650785 0)
(0.00544896 -0.65057 0)
(0.00502624 -0.650729 0)
(0.00452867 -0.650991 0)
(0.00389758 -0.651104 0)
(0.00325488 -0.651212 0)
(0.00268402 -0.651303 0)
(0.00209481 -0.651356 0)
(0.00148158 -0.651428 0)
(0.000893514 -0.651447 0)
(0.000328411 -0.651465 0)
(-0.000252678 -0.651526 0)
(-0.000858357 -0.651477 0)
(-0.00144573 -0.651431 0)
(-0.00203345 -0.65139 0)
(-0.00262736 -0.651411 0)
(-0.00322182 -0.651282 0)
(-0.00381262 -0.65128 0)
(-0.00442581 -0.651153 0)
(-0.00500948 -0.650969 0)
(-0.00543721 -0.650701 0)
(-0.00553608 -0.650765 0)
(-0.00503086 -0.651007 0)
(-0.00425274 -0.652024 0)
(-0.00312697 -0.653107 0)
(-0.00117625 -0.654475 0)
(0.00117117 -0.642913 0)
(0.00307716 -0.641637 0)
(0.00407182 -0.640443 0)
(0.0043926 -0.639885 0)
(0.00479045 -0.63952 0)
(0.0050705 -0.638826 0)
(0.0047443 -0.639053 0)
(0.00424437 -0.639416 0)
(0.00370988 -0.63945 0)
(0.0031118 -0.639665 0)
(0.00258528 -0.639804 0)
(0.00204449 -0.639789 0)
(0.00143604 -0.639884 0)
(0.000894394 -0.639948 0)
(0.000326953 -0.639933 0)
(-0.00023425 -0.640033 0)
(-0.000820546 -0.639919 0)
(-0.00140298 -0.639955 0)
(-0.00198863 -0.639824 0)
(-0.0025427 -0.63995 0)
(-0.00315976 -0.639671 0)
(-0.00364438 -0.63982 0)
(-0.00411853 -0.639487 0)
(-0.0047573 -0.639376 0)
(-0.005166 -0.639015 0)
(-0.00501266 -0.639278 0)
(-0.00447669 -0.639788 0)
(-0.00401932 -0.6406 0)
(-0.00303934 -0.641739 0)
(-0.00115935 -0.643022 0)
(0.00119482 -0.631352 0)
(0.00312137 -0.630158 0)
(0.00416242 -0.628924 0)
(0.00444821 -0.628544 0)
(0.00414255 -0.6285 0)
(0.004183 -0.627114 0)
(0.00423509 -0.62694 0)
(0.00393033 -0.627502 0)
(0.00349532 -0.627334 0)
(0.00289354 -0.627631 0)
(0.00250461 -0.627836 0)
(0.00199927 -0.627681 0)
(0.00134713 -0.6278 0)
(0.000897354 -0.627989 0)
(0.000332641 -0.62783 0)
(-0.000207737 -0.628176 0)
(-0.000799073 -0.627825 0)
(-0.00138269 -0.628089 0)
(-0.00194407 -0.627722 0)
(-0.00239795 -0.628166 0)
(-0.00291039 -0.62753 0)
(-0.00342965 -0.628289 0)
(-0.00393815 -0.627382 0)
(-0.00451362 -0.627493 0)
(-0.00446845 -0.627109 0)
(-0.00434132 -0.628075 0)
(-0.00430194 -0.62846 0)
(-0.00403407 -0.629075 0)
(-0.00304881 -0.630255 0)
(-0.00116782 -0.631463 0)
(0.00123492 -0.619764 0)
(0.00321354 -0.618644 0)
(0.00436398 -0.617482 0)
(0.00475137 -0.617273 0)
(0.00429287 -0.617261 0)
(0.00382688 -0.616275 0)
(0.00394043 -0.615393 0)
(0.00374496 -0.616287 0)
(0.00333423 -0.615642 0)
(0.00297233 -0.616237 0)
(0.0023093 -0.616467 0)
(0.00175234 -0.616085 0)
(0.00136503 -0.616157 0)
(0.000772733 -0.616617 0)
(0.000305317 -0.616055 0)
(-0.000269559 -0.616871 0)
(-0.000860251 -0.615992 0)
(-0.00140267 -0.616714 0)
(-0.00186187 -0.615843 0)
(-0.00240611 -0.616893 0)
(-0.00281548 -0.615546 0)
(-0.00339219 -0.617025 0)
(-0.00395882 -0.615352 0)
(-0.0040186 -0.616048 0)
(-0.00404704 -0.615851 0)
(-0.00420524 -0.616966 0)
(-0.00453169 -0.617124 0)
(-0.00419905 -0.617589 0)
(-0.00311872 -0.618727 0)
(-0.00119392 -0.619855 0)
(0.00124518 -0.608205 0)
(0.00325455 -0.607118 0)
(0.00447243 -0.606118 0)
(0.00494676 -0.606008 0)
(0.00471103 -0.605984 0)
(0.00418048 -0.605583 0)
(0.00398914 -0.60487 0)
(0.00368389 -0.605426 0)
(0.00326926 -0.604945 0)
(0.00292529 -0.605427 0)
(0.00221895 -0.605557 0)
(0.00165313 -0.605323 0)
(0.00130043 -0.60536 0)
(0.000715741 -0.605659 0)
(0.000247654 -0.605318 0)
(-0.00031163 -0.605822 0)
(-0.000851431 -0.605224 0)
(-0.00134426 -0.605663 0)
(-0.001791 -0.605103 0)
(-0.00237375 -0.605749 0)
(-0.00285111 -0.604868 0)
(-0.00339275 -0.605703 0)
(-0.00388041 -0.604626 0)
(-0.0039478 -0.605153 0)
(-0.00425149 -0.60518 0)
(-0.00458066 -0.605768 0)
(-0.00478633 -0.605829 0)
(-0.00433385 -0.606174 0)
(-0.00318453 -0.607189 0)
(-0.00122075 -0.608242 0)
(0.00120852 -0.596691 0)
(0.00320742 -0.595603 0)
(0.00446287 -0.594767 0)
(0.00499406 -0.594681 0)
(0.00485019 -0.594728 0)
(0.00441085 -0.594617 0)
(0.00404786 -0.594357 0)
(0.0036451 -0.594549 0)
(0.00320966 -0.594405 0)
(0.00276909 -0.594644 0)
(0.00221114 -0.594699 0)
(0.00169115 -0.594673 0)
(0.00122563 -0.594699 0)
(0.000726437 -0.594788 0)
(0.000227299 -0.59474 0)
(-0.000299199 -0.594846 0)
(-0.000788356 -0.594658 0)
(-0.00125948 -0.594736 0)
(-0.00173478 -0.594592 0)
(-0.00226949 -0.594686 0)
(-0.00279084 -0.594427 0)
(-0.00330613 -0.594544 0)
(-0.00376538 -0.594209 0)
(-0.00410963 -0.594354 0)
(-0.00450753 -0.59441 0)
(-0.0048368 -0.594547 0)
(-0.00488332 -0.59452 0)
(-0.00436248 -0.594782 0)
(-0.00318506 -0.595646 0)
(-0.00121621 -0.596663 0)
(0.00116044 -0.585183 0)
(0.00311914 -0.584118 0)
(0.00438149 -0.583407 0)
(0.00490639 -0.583295 0)
(0.0048224 -0.583332 0)
(0.00445548 -0.583413 0)
(0.004042 -0.583361 0)
(0.00359914 -0.583469 0)
(0.00314241 -0.583455 0)
(0.00267132 -0.58358 0)
(0.00216178 -0.583613 0)
(0.00168024 -0.583664 0)
(0.0011944 -0.5837 0)
(0.000715438 -0.58375 0)
(0.000227256 -0.583733 0)
(-0.000287084 -0.583764 0)
(-0.000751863 -0.583689 0)
(-0.0012102 -0.583687 0)
(-0.00168358 -0.583652 0)
(-0.00219976 -0.583588 0)
(-0.00271469 -0.583519 0)
(-0.00321465 -0.583455 0)
(-0.0036854 -0.58336 0)
(-0.00411666 -0.583341 0)
(-0.00455315 -0.583315 0)
(-0.00486359 -0.583257 0)
(-0.00485453 -0.583168 0)
(-0.00430899 -0.58338 0)
(-0.00311073 -0.584116 0)
(-0.00117112 -0.585126 0)
(0.00111044 -0.573643 0)
(0.00299911 -0.57264 0)
(0.00421646 -0.572015 0)
(0.00472719 -0.571796 0)
(0.00471638 -0.571837 0)
(0.00441886 -0.572008 0)
(0.00399431 -0.572069 0)
(0.00352241 -0.572163 0)
(0.00304653 -0.572216 0)
(0.00259526 -0.57228 0)
(0.00211978 -0.572322 0)
(0.00163867 -0.572405 0)
(0.00117217 -0.572438 0)
(0.000702973 -0.572517 0)
(0.000220878 -0.572461 0)
(-0.000253928 -0.572498 0)
(-0.000718833 -0.572469 0)
(-0.00118391 -0.572434 0)
(-0.00168231 -0.572426 0)
(-0.00215288 -0.572284 0)
(-0.00263201 -0.572285 0)
(-0.00312452 -0.572155 0)
(-0.00358637 -0.572141 0)
(-0.00403949 -0.572038 0)
(-0.0044564 -0.571957 0)
(-0.00474807 -0.571833 0)
(-0.00472082 -0.571744 0)
(-0.00418301 -0.571955 0)
(-0.00299161 -0.572606 0)
(-0.00111319 -0.573585 0)
(0.00105344 -0.562055 0)
(0.00284306 -0.561133 0)
(0.00397928 -0.560558 0)
(0.00448521 -0.560194 0)
(0.00454761 -0.560264 0)
(0.00430503 -0.560439 0)
(0.00388804 -0.560578 0)
(0.00342609 -0.560647 0)
(0.00296471 -0.560781 0)
(0.00250764 -0.560815 0)
(0.00205113 -0.560849 0)
(0.00159714 -0.560937 0)
(0.00113303 -0.560991 0)
(0.000665082 -0.561057 0)
(0.00022077 -0.561009 0)
(-0.000231222 -0.56104 0)
(-0.000703324 -0.561025 0)
(-0.00115886 -0.560974 0)
(-0.00164219 -0.560947 0)
(-0.00209173 -0.560851 0)
(-0.00253223 -0.560792 0)
(-0.00299787 -0.560697 0)
(-0.00346328 -0.560662 0)
(-0.00391594 -0.560552 0)
(-0.00429571 -0.56041 0)
(-0.00455581 -0.560275 0)
(-0.00451314 -0.56022 0)
(-0.00398344 -0.560486 0)
(-0.00284706 -0.561087 0)
(-0.00105706 -0.561998 0)
(0.00100523 -0.550423 0)
(0.00268284 -0.5496 0)
(0.00371377 -0.549059 0)
(0.00421565 -0.548572 0)
(0.00430406 -0.548632 0)
(0.00410559 -0.548782 0)
(0.003749 -0.548946 0)
(0.00332379 -0.549017 0)
(0.00288085 -0.549201 0)
(0.00242894 -0.549233 0)
(0.00199027 -0.549282 0)
(0.00153339 -0.549357 0)
(0.00108703 -0.549418 0)
(0.000636372 -0.549467 0)
(0.000196995 -0.549452 0)
(-0.00022738 -0.549429 0)
(-0.000679296 -0.549442 0)
(-0.00111934 -0.549381 0)
(-0.00154782 -0.549337 0)
(-0.00199646 -0.549288 0)
(-0.00244582 -0.549197 0)
(-0.0028725 -0.549104 0)
(-0.0033198 -0.549035 0)
(-0.00377241 -0.548937 0)
(-0.0041228 -0.548769 0)
(-0.0043288 -0.5486 0)
(-0.00424269 -0.548629 0)
(-0.00372747 -0.548973 0)
(-0.00269371 -0.549543 0)
(-0.00101072 -0.550365 0)
(0.000965632 -0.538764 0)
(0.0025298 -0.538036 0)
(0.00340521 -0.537526 0)
(0.00391137 -0.536946 0)
(0.0040822 -0.536916 0)
(0.00390859 -0.537113 0)
(0.00359335 -0.53726 0)
(0.00319962 -0.537349 0)
(0.00278214 -0.53755 0)
(0.00232935 -0.537603 0)
(0.00190506 -0.537653 0)
(0.00149901 -0.537707 0)
(0.00106789 -0.537808 0)
(0.000624538 -0.537808 0)
(0.000185639 -0.537836 0)
(-0.000231534 -0.537768 0)
(-0.000642398 -0.537793 0)
(-0.00106241 -0.537735 0)
(-0.00146429 -0.537693 0)
(-0.00190853 -0.537632 0)
(-0.00234819 -0.537559 0)
(-0.00277085 -0.537465 0)
(-0.00318404 -0.537355 0)
(-0.00359741 -0.537251 0)
(-0.00395041 -0.537106 0)
(-0.00410251 -0.536884 0)
(-0.00393136 -0.537035 0)
(-0.00344669 -0.537421 0)
(-0.0025559 -0.537967 0)
(-0.000975465 -0.538705 0)
(0.000930041 -0.527088 0)
(0.00239621 -0.526426 0)
(0.00311331 -0.525909 0)
(0.0035567 -0.525379 0)
(0.00383765 -0.525126 0)
(0.00372442 -0.52539 0)
(0.00342489 -0.525518 0)
(0.00303963 -0.525636 0)
(0.00263862 -0.525835 0)
(0.00224571 -0.525864 0)
(0.00184725 -0.525965 0)
(0.00144696 -0.526004 0)
(0.00104934 -0.526095 0)
(0.000618948 -0.526086 0)
(0.000196341 -0.526142 0)
(-0.000212092 -0.526066 0)
(-0.000611331 -0.526101 0)
(-0.00100232 -0.526035 0)
(-0.00142854 -0.526006 0)
(-0.0018238 -0.52589 0)
(-0.0022455 -0.525871 0)
(-0.0026745 -0.525731 0)
(-0.00305965 -0.525658 0)
(-0.00340697 -0.525466 0)
(-0.00370493 -0.525372 0)
(-0.00380877 -0.525163 0)
(-0.00359036 -0.525505 0)
(-0.003206 -0.525818 0)
(-0.00244907 -0.526359 0)
(-0.000948495 -0.527038 0)
(0.000908574 -0.515406 0)
(0.00232102 -0.514787 0)
(0.00296775 -0.514234 0)
(0.00318867 -0.513913 0)
(0.00344506 -0.513384 0)
(0.00349343 -0.513559 0)
(0.00322534 -0.513698 0)
(0.00285599 -0.513796 0)
(0.00253697 -0.514053 0)
(0.00217069 -0.514027 0)
(0.00177118 -0.514181 0)
(0.00142075 -0.514204 0)
(0.00102527 -0.514307 0)
(0.0005813 -0.514214 0)
(0.000197442 -0.514372 0)
(-0.000194697 -0.51422 0)
(-0.000585951 -0.514331 0)
(-0.000952795 -0.514198 0)
(-0.00135361 -0.51423 0)
(-0.0017616 -0.5141 0)
(-0.0021497 -0.514078 0)
(-0.00254823 -0.513922 0)
(-0.00293005 -0.513886 0)
(-0.00321359 -0.513651 0)
(-0.00348146 -0.513513 0)
(-0.00337969 -0.513438 0)
(-0.00321033 -0.514003 0)
(-0.00306927 -0.514185 0)
(-0.0023863 -0.514735 0)
(-0.000934287 -0.515377 0)
(0.000905786 -0.503754 0)
(0.00230661 -0.503167 0)
(0.00295666 -0.502595 0)
(0.00304201 -0.502439 0)
(0.00304258 -0.501916 0)
(0.00311272 -0.501721 0)
(0.00299602 -0.501808 0)
(0.00278404 -0.501836 0)
(0.00242415 -0.502308 0)
(0.00202795 -0.502032 0)
(0.00170765 -0.502361 0)
(0.00136976 -0.502259 0)
(0.0010245 -0.50245 0)
(0.00063545 -0.502228 0)
(0.000188423 -0.502654 0)
(-0.000176158 -0.502265 0)
(-0.000561882 -0.502604 0)
(-0.000975601 -0.502267 0)
(-0.00133016 -0.502441 0)
(-0.0017031 -0.502141 0)
(-0.00206378 -0.502298 0)
(-0.00240992 -0.501946 0)
(-0.00275076 -0.502137 0)
(-0.00300648 -0.501773 0)
(-0.00303373 -0.501758 0)
(-0.00301813 -0.502047 0)
(-0.00313437 -0.502476 0)
(-0.00305541 -0.502588 0)
(-0.00236257 -0.503128 0)
(-0.000928 -0.50375 0)
(0.00091545 -0.49217 0)
(0.00233213 -0.491613 0)
(0.00305744 -0.491077 0)
(0.00322598 -0.491043 0)
(0.00309742 -0.490774 0)
(0.00298582 -0.490503 0)
(0.00285478 -0.490438 0)
(0.00269584 -0.490497 0)
(0.0023355 -0.490912 0)
(0.00196837 -0.490662 0)
(0.00166139 -0.49099 0)
(0.0012857 -0.490891 0)
(0.00090905 -0.491067 0)
(0.000620803 -0.490776 0)
(0.00024666 -0.491262 0)
(-0.000154774 -0.490948 0)
(-0.000527974 -0.491225 0)
(-0.000955807 -0.490949 0)
(-0.00133321 -0.491066 0)
(-0.00165587 -0.490765 0)
(-0.00199189 -0.490922 0)
(-0.00229848 -0.490572 0)
(-0.00258521 -0.490813 0)
(-0.00286789 -0.490518 0)
(-0.0029485 -0.490601 0)
(-0.00311832 -0.490876 0)
(-0.0032947 -0.491039 0)
(-0.00309856 -0.491105 0)
(-0.00232891 -0.491595 0)
(-0.000899907 -0.492221 0)
(0.000900295 -0.480716 0)
(0.00232601 -0.480164 0)
(0.00312341 -0.47972 0)
(0.0033868 -0.479773 0)
(0.00326465 -0.479736 0)
(0.00302811 -0.479614 0)