# vtk DataFile Version 2.0
rotor
ASCII
DATASET POLYDATA
POINTS 384 float
0.02 0 0 0.0199572 -0.00130806 0 0.0199572 -0.00130806 0.01 0.02 0
0.01 0.0198289 -0.00261052 0 0.0198289 -0.00261052 0.01 0.0196157 -0.00390181 0
0.0196157 -0.00390181 0.01 0.0193185 -0.00517638 0 0.0193185 -0.00517638 0.01 0.0189386
-0.00642879 0 0.0189386 -0.00642879 0.01 0.0184776 -0.00765367 0 0.0184776 -0.00765367
0.01 0.0179375 -0.00884577 0 0.0179375 -0.00884577 0.01 0.0173205 -0.01 0
0.0173205 -0.01 0.01 0.0166294 -0.0111114 0 0.0166294 -0.0111114 0.01 0.0158671
-0.0121752 0 0.0158671 -0.0121752 0.01 0.0150368 -0.0131869 0 0.0150368 -0.0131869
0.01 0.0141421 -0.0141421 0 0.0141421 -0.0141421 0.01 0.0131869 -0.0150368 0
0.0131869 -0.0150368 0.01 0.0121752 -0.0158671 0 0.0121752 -0.0158671 0.01 0.0111114
-0.0166294 0 0.0111114 -0.0166294 0.01 0.01 -0.0173205 0 0.01 -0.0173205
0.01 0.00884577 -0.0179375 0 0.00884577 -0.0179375 0.01 0.00765367 -0.0184776 0
0.00765367 -0.0184776 0.01 0.00642879 -0.0189386 0 0.00642879 -0.0189386 0.01 0.00517638
-0.0193185 0 0.00517638 -0.0193185 0.01 0.00390181 -0.0196157 0 0.00390181 -0.0196157
0.01 0.00261052 -0.0198289 0 0.00261052 -0.0198289 0.01 0.00130806 -0.0199572 0
0.00130806 -0.0199572 0.01 3.58979e-11 -0.02 0 3.58979e-11 -0.02 0.01 3.58979e-11
-0.02 0 -0.00130806 -0.0199572 0 -0.00130806 -0.0199572 0.01 3.58979e-11 -0.02
0.01 -0.00261052 -0.0198289 0 -0.00261052 -0.0198289 0.01 -0.00390181 -0.0196157 0
-0.00390181 -0.0196157 0.01 -0.00517638 -0.0193185 0 -0.00517638 -0.0193185 0.01 -0.00642879
-0.0189386 0 -0.00642879 -0.0189386 0.01 -0.00765367 -0.0184776 0 -0.00765367 -0.0184776
0.01 -0.00884577 -0.0179375 0 -0.00884577 -0.0179375 0.01 -0.01 -0.0173205 0
-0.01 -0.0173205 0.01 -0.0111114 -0.0166294 0 -0.0111114 -0.0166294 0.01 -0.0121752
-0.0158671 0 -0.0121752 -0.0158671 0.01 -0.0131869 -0.0150368 0 -0.0131869 -0.0150368
0.01 -0.0141421 -0.0141421 0 -0.0141421 -0.0141421 0.01 -0.0150368 -0.0131869 0
-0.0150368 -0.0131869 0.01 -0.0158671 -0.0121752 0 -0.0158671 -0.0121752 0.01 -0.0166294
-0.0111114 0 -0.0166294 -0.0111114 0.01 -0.0173205 -0.01 0 -0.0173205 -0.01
0.01 -0.0179375 -0.00884577 0 -0.0179375 -0.00884577 0.01 -0.0184776 -0.00765367 0
-0.0184776 -0.00765367 0.01 -0.0189386 -0.00642879 0 -0.0189386 -0.00642879 0.01 -0.0193185
-0.00517638 0 -0.0193185 -0.00517638 0.01 -0.0196157 -0.00390181 0 -0.0196157 -0.00390181
0.01 -0.0198289 -0.00261052 0 -0.0198289 -0.00261052 0.01 -0.0199572 -0.00130806 0
-0.0199572 -0.00130806 0.01 -0.02 7.17959e-11 0 -0.02 7.17959e-11 0.01 -0.02
7.17959e-11 0 -0.0199572 0.00130806 0 -0.0199572 0.00130806 0.01 -0.02 7.17959e-11
0.01 -0.0198289 0.00261052 0 -0.0198289 0.00261052 0.01 -0.0196157 0.00390181 0
-0.0196157 0.00390181 0.01 -0.0193185 0.00517638 0 -0.0193185 0.00517638 0.01 -0.0189386
0.00642879 0 -0.0189386 0.00642879 0.01 -0.0184776 0.00765367 0 -0.0184776 0.00765367
0.01 -0.0179375 0.00884577 0 -0.0179375 0.00884577 0.01 -0.0173205 0.01 0
-0.0173205 0.01 0.01 -0.0166294 0.0111114 0 -0.0166294 0.0111114 0.01 -0.0158671
0.0121752 0 -0.0158671 0.0121752 0.01 -0.0150368 0.0131869 0 -0.0150368 0.0131869
0.01 -0.0141421 0.0141421 0 -0.0141421 0.0141421 0.01 -0.0131869 0.0150368 0
-0.0131869 0.0150368 0.01 -0.0121752 0.0158671 0 -0.0121752 0.0158671 0.01 -0.0111114
0.0166294 0 -0.0111114 0.0166294 0.01 -0.01 0.0173205 0 -0.01 0.0173205
0.01 -0.00884577 0.0179375 0 -0.00884577 0.0179375 0.01 -0.00765367 0.0184776 0
-0.00765367 0.0184776 0.01 -0.00642879 0.0189386 0 -0.00642879 0.0189386 0.01 -0.00517638
0.0193185 0 -0.00517638 0.0193185 0.01 -0.00390181 0.0196157 0 -0.00390181 0.0196157
0.01 -0.00261052 0.0198289 0 -0.00261052 0.0198289 0.01 -0.00130806 0.0199572 0
-0.00130806 0.0199572 0.01 3.58979e-11 0.02 0 3.58979e-11 0.02 0.01 3.58979e-11
0.02 0 0.00130806 0.0199572 0 0.00130806 0.0199572 0.01 3.58979e-11 0.02
0.01 0.00261052 0.0198289 0 0.00261052 0.0198289 0.01 0.00390181 0.0196157 0
0.00390181 0.0196157 0.01 0.00517638 0.0193185 0 0.00517638 0.0193185 0.01 0.00642879
0.0189386 0 0.00642879 0.0189386 0.01 0.00765367 0.0184776 0 0.00765367 0.0184776
0.01 0.00884577 0.0179375 0 0.00884577 0.0179375 0.01 0.01 0.0173205 0
0.01 0.0173205 0.01 0.0111114 0.0166294 0 0.0111114 0.0166294 0.01 0.0121752
0.0158671 0 0.0121752 0.0158671 0.01 0.0131869 0.0150368 0 0.0131869 0.0150368
0.01 0.0141421 0.0141421 0 0.0141421 0.0141421 0.01 0.0150368 0.0131869 0
0.0150368 0.0131869 0.01 0.0158671 0.0121752 0 0.0158671 0.0121752 0.01 0.0166294
0.0111114 0 0.0166294 0.0111114 0.01 0.0173205 0.01 0 0.0173205 0.01
0.01 0.0179375 0.00884577 0 0.0179375 0.00884577 0.01 0.0184776 0.00765367 0
0.0184776 0.00765367 0.01 0.0189386 0.00642879 0 0.0189386 0.00642879 0.01 0.0193185
0.00517638 0 0.0193185 0.00517638 0.01 0.0196157 0.00390181 0 0.0196157 0.00390181
0.01 0.0198289 0.00261052 0 0.0198289 0.00261052 0.01 0.0199572 0.00130806 0
0.0199572 0.00130806 0.01 0.02 0 0 0.02 0 0.01 0.0225
0 0.01 0.0225 0 0 0.025 0 0.01 0.025 0
0 0.0275 0 0.01 0.0275 0 0 0.03 0 0.01
0.03 0 0 0.0325 0 0.01 0.0325 0 0 0.035
0 0.01 0.035 0 0 0.0375 0 0.01 0.0375 0
0 0.04 0 0.01 0.04 0 0 0.0425 0 0.01
0.0425 0 0 0.045 0 0.01 0.045 0 0 0.0475
0 0.01 0.0475 0 0 0.05 0 0.01 0.05 0
0 0.0225 0 0 0.0225 0 0.01 0.025 0 0
0.025 0 0.01 0.0275 0 0 0.0275 0 0.01 0.03
0 0 0.03 0 0.01 0.0325 0 0 0.0325 0
0.01 0.035 0 0 0.035 0 0.01 0.0375 0 0
0.0375 0 0.01 0.04 0 0 0.04 0 0.01 0.0425
0 0 0.0425 0 0.01 0.045 0 0 0.045 0
0.01 0.0475 0 0 0.0475 0 0.01 4.03852e-11 -0.0225 0.01
4.03852e-11 -0.0225 0 4.48724e-11 -0.025 0.01 4.48724e-11 -0.025 0 4.93597e-11
-0.0275 0.01 4.93597e-11 -0.0275 0 5.38469e-11 -0.03 0.01 5.38469e-11 -0.03
0 5.83341e-11 -0.0325 0.01 5.83341e-11 -0.0325 0 6.28214e-11 -0.035 0.01
6.28214e-11 -0.035 0 6.73086e-11 -0.0375 0.01 6.73086e-11 -0.0375 0 7.17959e-11
-0.04 0.01 7.17959e-11 -0.04 0 7.62831e-11 -0.0425 0.01 7.62831e-11 -0.0425
0 8.07704e-11 -0.045 0.01 8.07704e-11 -0.045 0 8.52576e-11 -0.0475 0.01
8.52576e-11 -0.0475 0 8.97448e-11 -0.05 0.01 8.97448e-11 -0.05 0 4.03852e-11
-0.0225 0 4.03852e-11 -0.0225 0.01 4.48724e-11 -0.025 0 4.48724e-11 -0.025
0.01 4.93597e-11 -0.0275 0 4.93597e-11 -0.0275 0.01 5.38469e-11 -0.03 0
5.38469e-11 -0.03 0.01 5.83341e-11 -0.0325 0 5.83341e-11 -0.0325 0.01 6.28214e-11
-0.035 0 6.28214e-11 -0.035 0.01 6.73086e-11 -0.0375 0 6.73086e-11 -0.0375
0.01 7.17959e-11 -0.04 0 7.17959e-11 -0.04 0.01 7.62831e-11 -0.0425 0
7.62831e-11 -0.0425 0.01 8.07703e-11 -0.045 0 8.07703e-11 -0.045 0.01 8.52576e-11
-0.0475 0 8.52576e-11 -0.0475 0.01 -0.0225 8.07704e-11 0.01 -0.0225 8.07704e-11
0 -0.025 8.97448e-11 0.01 -0.025 8.97448e-11 0 -0.0275 9.87193e-11 0.01
-0.0275 9.87193e-11 0 -0.03 1.07694e-10 0.01 -0.03 1.07694e-10 0 -0.0325
1.16668e-10 0.01 -0.0325 1.16668e-10 0 -0.035 1.25643e-10 0.01 -0.035 1.25643e-10
0 -0.0375 1.34617e-10 0.01 -0.0375 1.34617e-10 0 -0.04 1.43592e-10 0.01
-0.04 1.43592e-10 0 -0.0425 1.52566e-10 0.01 -0.0425 1.52566e-10 0 -0.045
1.61541e-10 0.01 -0.045 1.61541e-10 0 -0.0475 1.70515e-10 0.01 -0.0475 1.70515e-10
0 -0.05 1.7949e-10 0.01 -0.05 1.7949e-10 0 -0.0225 8.07704e-11 0
-0.0225 8.07704e-11 0.01 -0.025 8.97448e-11 0 -0.025 8.97448e-11 0.01 -0.0275
9.87193e-11 0 -0.0275 9.87193e-11 0.01 -0.03 1.07694e-10 0 -0.03 1.07694e-10
0.01 -0.0325 1.16668e-10 0 -0.0325 1.16668e-10 0.01 -0.035 1.25643e-10 0
-0.035 1.25643e-10 0.01 -0.0375 1.34617e-10 0 -0.0375 1.34617e-10 0.01 -0.04
1.43592e-10 0 -0.04 1.43592e-10 0.01 -0.0425 1.52566e-10 0 -0.0425 1.52566e-10
0.01 -0.045 1.61541e-10 0 -0.045 1.61541e-10 0.01 -0.0475 1.70515e-10 0
-0.0475 1.70515e-10 0.01 4.03852e-11 0.0225 0.01 4.03852e-11 0.0225 0 4.48724e-11
0.025 0.01 4.48724e-11 0.025 0 4.93597e-11 0.0275 0.01 4.93597e-11 0.0275
0 5.38469e-11 0.03 0.01 5.38469e-11 0.03 0 5.83341e-11 0.0325 0.01
5.83341e-11 0.0325 0 6.28214e-11 0.035 0.01 6.28214e-11 0.035 0 6.73086e-11
0.0375 0.01 6.73086e-11 0.0375 0 7.17959e-11 0.04 0.01 7.17959e-11 0.04
0 7.62831e-11 0.0425 0.01 7.62831e-11 0.0425 0 8.07704e-11 0.045 0.01
8.07704e-11 0.045 0 8.52576e-11 0.0475 0.01 8.52576e-11 0.0475 0 8.97448e-11
0.05 0.01 8.97448e-11 0.05 0 4.03852e-11 0.0225 0 4.03852e-11 0.0225
0.01 4.48724e-11 0.025 0 4.48724e-11 0.025 0.01 4.93597e-11 0.0275 0
4.93597e-11 0.0275 0.01 5.38469e-11 0.03 0 5.38469e-11 0.03 0.01 5.83341e-11
0.0325 0 5.83341e-11 0.0325 0.01 6.28214e-11 0.035 0 6.28214e-11 0.035
0.01 6.73086e-11 0.0375 0 6.73086e-11 0.0375 0.01 7.17959e-11 0.04 0
7.17959e-11 0.04 0.01 7.62831e-11 0.0425 0 7.62831e-11 0.0425 0.01 8.07703e-11
0.045 0 8.07703e-11 0.045 0.01 8.52576e-11 0.0475 0 8.52576e-11 0.0475
0.01 
POLYGONS 192 960
4 0 1 2 3 4 1 4 5 2 4
4 6 7 5 4 6 8 9 7 4
8 10 11 9 4 10 12 13 11 4
12 14 15 13 4 14 16 17 15 4
16 18 19 17 4 18 20 21 19 4
20 22 23 21 4 22 24 25 23 4
24 26 27 25 4 26 28 29 27 4
28 30 31 29 4 30 32 33 31 4
32 34 35 33 4 34 36 37 35 4
36 38 39 37 4 38 40 41 39 4
40 42 43 41 4 42 44 45 43 4
44 46 47 45 4 46 48 49 47 4
50 51 52 53 4 51 54 55 52 4
54 56 57 55 4 56 58 59 57 4
58 60 61 59 4 60 62 63 61 4
62 64 65 63 4 64 66 67 65 4
66 68 69 67 4 68 70 71 69 4
70 72 73 71 4 72 74 75 73 4
74 76 77 75 4 76 78 79 77 4
78 80 81 79 4 80 82 83 81 4
82 84 85 83 4 84 86 87 85 4
86 88 89 87 4 88 90 91 89 4
90 92 93 91 4 92 94 95 93 4
94 96 97 95 4 96 98 99 97 4
100 101 102 103 4 101 104 105 102 4
104 106 107 105 4 106 108 109 107 4
108 110 111 109 4 110 112 113 111 4
112 114 115 113 4 114 116 117 115 4
116 118 119 117 4 118 120 121 119 4
120 122 123 121 4 122 124 125 123 4
124 126 127 125 4 126 128 129 127 4
128 130 131 129 4 130 132 133 131 4
132 134 135 133 4 134 136 137 135 4
136 138 139 137 4 138 140 141 139 4
140 142 143 141 4 142 144 145 143 4
144 146 147 145 4 146 148 149 147 4
150 151 152 153 4 151 154 155 152 4
154 156 157 155 4 156 158 159 157 4
158 160 161 159 4 160 162 163 161 4
162 164 165 163 4 164 166 167 165 4
166 168 169 167 4 168 170 171 169 4
170 172 173 171 4 172 174 175 173 4
174 176 177 175 4 176 178 179 177 4
178 180 181 179 4 180 182 183 181 4
182 184 185 183 4 184 186 187 185 4
186 188 189 187 4 188 190 191 189 4
190 192 193 191 4 192 194 195 193 4
194 196 197 195 4 196 198 199 197 4
0 3 200 201 4 201 200 202 203 4
203 202 204 205 4 205 204 206 207 4
207 206 208 209 4 209 208 210 211 4
211 210 212 213 4 213 212 214 215 4
215 214 216 217 4 217 216 218 219 4
219 218 220 221 4 221 220 222 223 4
198 224 225 199 4 224 226 227 225 4
226 228 229 227 4 228 230 231 229 4
230 232 233 231 4 232 234 235 233 4
234 236 237 235 4 236 238 239 237 4
238 240 241 239 4 240 242 243 241 4
242 244 245 243 4 244 223 222 245 4
50 53 246 247 4 247 246 248 249 4
249 248 250 251 4 251 250 252 253 4
253 252 254 255 4 255 254 256 257 4
257 256 258 259 4 259 258 260 261 4
261 260 262 263 4 263 262 264 265 4
265 264 266 267 4 267 266 268 269 4
48 270 271 49 4 270 272 273 271 4
272 274 275 273 4 274 276 277 275 4
276 278 279 277 4 278 280 281 279 4
280 282 283 281 4 282 284 285 283 4
284 286 287 285 4 286 288 289 287 4
288 290 291 289 4 290 269 268 291 4
100 103 292 293 4 293 292 294 295 4
295 294 296 297 4 297 296 298 299 4
299 298 300 301 4 301 300 302 303 4
303 302 304 305 4 305 304 306 307 4
307 306 308 309 4 309 308 310 311 4
311 310 312 313 4 313 312 314 315 4
98 316 317 99 4 316 318 319 317 4
318 320 321 319 4 320 322 323 321 4
322 324 325 323 4 324 326 327 325 4
326 328 329 327 4 328 330 331 329 4
330 332 333 331 4 332 334 335 333 4
334 336 337 335 4 336 315 314 337 4
150 153 338 339 4 339 338 340 341 4
341 340 342 343 4 343 342 344 345 4
345 344 346 347 4 347 346 348 349 4
349 348 350 351 4 351 350 352 353 4
353 352 354 355 4 355 354 356 357 4
357 356 358 359 4 359 358 360 361 4
148 362 363 149 4 362 364 365 363 4
364 366 367 365 4 366 368 369 367 4
368 370 371 369 4 370 372 373 371 4
372 374 375 373 4 374 376 377 375 4
376 378 379 377 4 378 380 381 379 4
380 382 383 381 4 382 361 360 383 
CELL_DATA 192
FIELD attributes 5
patchID 1 192 float
0 0 0 0 0 0 0 0 0 0 0
0 0 0 0 0 0 0 0 0 0
0 0 0 0 0 0 0 0 0 0
0 0 0 0 0 0 0 0 0 0
0 0 0 0 0 0 0 0 0 0
0 0 0 0 0 0 0 0 0 0
0 0 0 0 0 0 0 0 0 0
0 0 0 0 0 0 0 0 0 0
0 0 0 0 0 0 0 0 0 0
0 0 0 0 0 0 0 0 0 0
0 0 0 0 0 0 0 0 0 0
0 0 0 0 0 0 0 0 0 0
0 0 0 0 0 0 0 0 0 0
0 0 0 0 0 0 0 0 0 0
0 0 0 0 0 0 0 0 0 0
0 0 0 0 0 0 0 0 0 0
0 0 0 0 0 0 0 0 0 0
0 0 0 0 0 0 0 0 0 0
0 0 0 0 0 0 0 0 0 0
0 
p 1 192 float
0 0.0153386 -0.0214639 -0.118257 -0.266127 -0.422474 -0.582854 -0.732942 -0.752574 -0.635843 -0.4365
-0.456483 -0.0375884 0.378903 0.890998 -0.428265 -1.07924 -0.510062 0.212477 1.48516 1.1614
0.911039 0.839756 0.731578 5.57116 5.59024 5.53868 5.41106 5.21684 4.99503 4.75644
4.48884 4.2048 3.92098 3.66356 3.46915 3.37998 3.43522 3.65887 4.0451 4.58852
5.26292 5.86665 6.29211 6.45528 6.35538 6.0971 5.82699 3.94821 3.9605 3.90683
3.78168 3.59349 3.39423 3.16863 2.91635 2.65005 2.3877 2.1578 1.99924 1.95564
2.06664 2.35511 2.81353 3.44495 4.19453 4.86839 5.34857 5.54599 5.45942 5.19837
4.91724 -11.6461 -11.7968 -11.9243 -12.0448 -12.1571 -12.2759 -12.4187 -12.5916 -12.7988
-13.0325 -13.2692 -13.4659 -13.5992 -13.6609 -13.629 -13.4914 -13.2249 -12.8154 -12.3809
-12.0099 -11.7954 -11.8082 -12.0004 -12.245 0 1.39576 2.75255 4.30853 6.00341
7.80071 9.6608 11.5289 13.3095 14.8187 15.732 14.7142 -12.245 -10.0054 -7.75843
-4.82674 -0.773223 3.51138 6.08539 11.5723 21.7729 31.0816 40.6819 46.6826 5.57116
6.9785 8.36011 9.95418 11.6965 13.5476 15.4648 17.3923 19.25 20.8655 21.9228
21.1216 0.731578 2.00665 2.63849 9.05087 2.97914 4.04297 6.57381 11.3042 18.4444
27.121 35.4241 42.3012 3.94821 5.36944 6.74839 8.33518 10.0657 11.904 13.8137
15.7591 17.6561 19.3693 20.6018 20.2309 5.82699 6.71657 7.49722 8.51012 9.95021
12.0441 14.9499 18.7437 23.4545 29.0151 34.9561 39.6439 -11.6461 -8.43559 -5.90741
-3.42688 -1.14859 1.11725 3.61153 6.51147 9.93955 13.7366 17.3534 19.1548 4.91724
5.80443 6.58882 7.61338 9.08048 11.2214 14.1939 18.0726 22.888 28.5755 34.65
39.3677 
alpha.water 1 192 float
1.73346e-15 4.2322e-14 1.06898e-13 1.24988e-13 8.41798e-14 3.20354e-14 1.03777e-14 1.0127e-14 1.01249e-14 1.11678e-14 3.79326e-11
0.00876872 0.0349125 0.0348063 0.0302902 0.075706 0.115411 0.0782251 0.0167936 0.000320516 0.000535636
0.000361289 4.61873e-10 4.57292e-10 1.96224e-22 4.41956e-20 4.53005e-19 1.21534e-18 5.05899e-19 6.80918e-20 2.65343e-19
2.06448e-16 6.55485e-15 3.09465e-14 7.88871e-14 1.4579e-13 2.23759e-13 3.0833e-13 4.00809e-13 5.10917e-13 6.65846e-13
8.88222e-13 1.10344e-12 1.24045e-12 1.16852e-12 7.79996e-13 2.30606e-13 2.29584e-15 1.23047e-24 6.34954e-22 9.93782e-21
3.5536e-20 8.72959e-21 8.97653e-22 6.34767e-21 2.63514e-17 4.93516e-16 2.13323e-15 5.36588e-15 1.00076e-14 1.5673e-14
2.21301e-14 2.9385e-14 3.76741e-14 4.74861e-14 5.73526e-14 6.35041e-14 6.48315e-14 5.92405e-14 4.40636e-14 1.90015e-14
2.03798e-16 1 1 1 1 1 1 1 1 1
1 1 1 1 1 1 1 1 0.99997 0.999839
0.999849 0.999955 1 1 1 1.73346e-15 1.42686e-14 5.6902e-14 1.48626e-13 3.26733e-13
8.03321e-13 1.3025e-12 1.92376e-11 7.48166e-11 2.28899e-11 1.11069e-11 1.89988e-12 1 1 1
0.99881 0.980081 0.972319 0.971168 0.853977 0.753727 0.753727 0.753727 0.820043 1.96224e-22
3.66868e-21 3.37826e-20 1.972e-19 8.677e-19 3.66217e-18 8.83364e-18 1.41635e-17 1.4616e-17 5.76075e-17 2.51955e-19
4.2868e-05 4.57292e-10 0.00244208 0.241167 0.415226 0.152163 0.057933 0.0143106 4.10398e-11 6.06805e-11
0.0319152 0.149642 0.242664 1.23047e-24 2.96684e-23 3.8278e-22 3.48068e-21 2.715e-20 1.58227e-19 3.62711e-19
5.48589e-19 5.55412e-19 3.06431e-19 8.06797e-20 1.6743e-11 2.29584e-15 5.44551e-14 3.39754e-13 1.29755e-12 5.27262e-12
2.03871e-11 5.0572e-11 9.86126e-11 2.81894e-09 6.58007e-09 5.40534e-09 3.24777e-06 1 1 1
1 1 1 1 1 1 1 1 0.75187 2.03798e-16
4.84532e-15 3.00348e-14 9.07556e-14 1.79864e-13 2.80611e-13 3.84788e-13 4.92993e-13 6.10742e-13 7.49512e-13 9.16987e-13
1.17951e-12 
p_rgh 1 192 float
0 0.0153386 -0.0214639 -0.118257 -0.266127 -0.422474 -0.582854 -0.732942 -0.752574 -0.635843 -0.4365
-0.456483 -0.0375884 0.378903 0.890998 -0.428265 -1.07924 -0.510062 0.212477 1.48516 1.1614
0.911039 0.839756 0.731578 5.57116 5.59024 5.53868 5.41106 5.21684 4.99503 4.75644
4.48884 4.2048 3.92098 3.66356 3.46915 3.37998 3.43522 3.65887 4.0451 4.58852
5.26292 5.86665 6.29211 6.45528 6.35538 6.0971 5.82699 3.94821 3.9605 3.90683
3.78168 3.59349 3.39423 3.16863 2.91635 2.65005 2.3877 2.1578 1.99924 1.95564
2.06664 2.35511 2.81353 3.44495 4.19453 4.86839 5.34857 5.54599 5.45942 5.19837
4.91724 -11.6461 -11.7968 -11.9243 -12.0448 -12.1571 -12.2759 -12.4187 -12.5916 -12.7988
-13.0325 -13.2692 -13.4659 -13.5992 -13.6609 -13.629 -13.4914 -13.2249 -12.8154 -12.3809
-12.0099 -11.7954 -11.8082 -12.0004 -12.245 0 1.39576 2.75255 4.30853 6.00341
7.80071 9.6608 11.5289 13.3095 14.8187 15.732 14.7142 -12.245 -10.0054 -7.75843
-4.82674 -0.773223 3.51138 6.08539 11.5723 21.7729 31.0816 40.6819 46.6826 5.57116
6.9785 8.36011 9.95418 11.6965 13.5476 15.4648 17.3923 19.25 20.8655 21.9228
21.1216 0.731578 2.00665 2.63849 9.05087 2.97914 4.04297 6.57381 11.3042 18.4444
27.121 35.4241 42.3012 3.94821 5.36944 6.74839 8.33518 10.0657 11.904 13.8137
15.7591 17.6561 19.3693 20.6018 20.2309 5.82699 6.71657 7.49722 8.51012 9.95021
12.0441 14.9499 18.7437 23.4545 29.0151 34.9561 39.6439 -11.6461 -8.43559 -5.90741
-3.42688 -1.14859 1.11725 3.61153 6.51147 9.93955 13.7366 17.3534 19.1548 4.91724
5.80443 6.58882 7.61338 9.08048 11.2214 14.1939 18.0726 22.888 28.5755 34.65
39.3677 
U 3 192 float
0.0041094 0.125529 0 0.0123106 0.124992 0 0.0204591 0.123919 0 0.02852 0.122315
0 0.0364587 0.120188 0 0.0442413 0.117546 0 0.0518345 0.114401 0
0.0592057 0.110766 0 0.0663234 0.106657 0 0.0731571 0.102091 0 0.0796775
0.0970873 0 0.0858567 0.0916683 0 0.0916683 0.0858567 0 0.0970873 0.0796775
0 0.102091 0.0731571 0 0.106657 0.0663234 0 0.110766 0.0592057 0
0.114401 0.0518345 0 0.117546 0.0442413 0 0.120188 0.0364587 0 0.122315
0.02852 0 0.123919 0.0204591 0 0.124992 0.0123106 0 0.125529 0.0041094
0 0.125529 -0.0041094 0 0.124992 -0.0123106 0 0.123919 -0.0204591 0
0.122315 -0.02852 0 0.120188 -0.0364587 0 0.117546 -0.0442413 0 0.114401
-0.0518345 0 0.110766 -0.0592057 0 0.106657 -0.0663234 0 0.102091 -0.0731571
0 0.0970873 -0.0796775 0 0.0916683 -0.0858567 0 0.0858567 -0.0916683 0
0.0796775 -0.0970873 0 0.0731571 -0.102091 0 0.0663234 -0.106657 0 0.0592057
-0.110766 0 0.0518345 -0.114401 0 0.0442413 -0.117546 0 0.0364587 -0.120188
0 0.02852 -0.122315 0 0.0204591 -0.123919 0 0.0123106 -0.124992 0
0.0041094 -0.125529 0 -0.0041094 -0.125529 0 -0.0123106 -0.124992 0 -0.0204591
-0.123919 0 -0.02852 -0.122315 0 -0.0364587 -0.120188 0 -0.0442413 -0.117546
0 -0.0518345 -0.114401 0 -0.0592057 -0.110766 0 -0.0663234 -0.106657 0
-0.0731571 -0.102091 0 -0.0796775 -0.0970873 0 -0.0858567 -0.0916683 0 -0.0916683
-0.0858567 0 -0.0970873 -0.0796775 0 -0.102091 -0.0731571 0 -0.106657 -0.0663234
0 -0.110766 -0.0592057 0 -0.114401 -0.0518345 0 -0.117546 -0.0442413 0
-0.120188 -0.0364587 0 -0.122315 -0.02852 0 -0.123919 -0.0204591 0 -0.124992
-0.0123106 0 -0.125529 -0.0041094 0 -0.125529 0.0041094 0 -0.124992 0.0123106
0 -0.123919 0.0204591 0 -0.122315 0.02852 0 -0.120188 0.0364587 0
-0.117546 0.0442413 0 -0.114401 0.0518345 0 -0.110766 0.0592057 0 -0.106657
0.0663234 0 -0.102091 0.0731571 0 -0.0970873 0.0796775 0 -0.0916683 0.0858567
0 -0.0858567 0.0916683 0 -0.0796775 0.0970873 0 -0.0731571 0.102091 0
-0.0663234 0.106657 0 -0.0592057 0.110766 0 -0.0518345 0.114401 0 -0.0442413
0.117546 0 -0.0364587 0.120188 0 -0.02852 0.122315 0 -0.0204591 0.123919
0 -0.0123106 0.124992 0 -0.0041094 0.125529 0 0 0.133518 0
0 0.149226 0 0 0.164934 0 0 0.180642 0 0
0.19635 0 0 0.212058 0 0 0.227765 0 0 0.243473
0 0 0.259181 0 0 0.274889 0 0 0.290597 0
0 0.306305 0 0 0.133518 0 0 0.149226 0 0
0.164934 0 0 0.180642 0 0 0.19635 0 0 0.212058
0 0 0.227765 0 0 0.243473 0 0 0.259181 0
0 0.274889 0 0 0.290597 0 0 0.306305 0 0.133518
2.3965e-10 0 0.149226 2.67845e-10 0 0.164934 2.96039e-10 0 0.180642 3.24233e-10
0 0.19635 3.52427e-10 0 0.212058 3.80621e-10 0 0.227765 4.08815e-10 0
0.243473 4.3701e-10 0 0.259181 4.65204e-10 0 0.274889 4.93398e-10 0 0.290597
5.21592e-10 0 0.306305 5.49786e-10 0 0.133518 2.3965e-10 0 0.149226 2.67845e-10
0 0.164934 2.96039e-10 0 0.180642 3.24233e-10 0 0.19635 3.52427e-10 0
0.212058 3.80621e-10 0 0.227765 4.08815e-10 0 0.243473 4.3701e-10 0 0.259181
4.65204e-10 0 0.274889 4.93398e-10 0 0.290597 5.21592e-10 0 0.306305 5.49786e-10
0 -4.79301e-10 -0.133518 0 -5.35689e-10 -0.149226 0 -5.92078e-10 -0.164934 0
-6.48466e-10 -0.180642 0 -7.04854e-10 -0.19635 0 -7.61243e-10 -0.212058 0 -8.17631e-10
-0.227765 0 -8.74019e-10 -0.243473 0 -9.30408e-10 -0.259181 0 -9.86796e-10 -0.274889
0 -1.04318e-09 -0.290597 0 -1.09957e-09 -0.306305 0 -4.79301e-10 -0.133518 0
-5.35689e-10 -0.149226 0 -5.92078e-10 -0.164934 0 -6.48466e-10 -0.180642 0 -7.04854e-10
-0.19635 0 -7.61243e-10 -0.212058 0 -8.17631e-10 -0.227765 0 -8.74019e-10 -0.243473
0 -9.30408e-10 -0.259181 0 -9.86796e-10 -0.274889 0 -1.04318e-09 -0.290597 0
-1.09957e-09 -0.306305 0 -0.133518 2.3965e-10 0 -0.149226 2.67845e-10 0 -0.164934
2.96039e-10 0 -0.180642 3.24233e-10 0 -0.19635 3.52427e-10 0 -0.212058 3.80621e-10
0 -0.227765 4.08815e-10 0 -0.243473 4.3701e-10 0 -0.259181 4.65204e-10 0
-0.274889 4.93398e-10 0 -0.290597 5.21592e-10 0 -0.306305 5.49786e-10 0 -0.133518
2.3965e-10 0 -0.149226 2.67845e-10 0 -0.164934 2.96039e-10 0 -0.180642 3.24233e-10
0 -0.19635 3.52427e-10 0 -0.212058 3.80621e-10 0 -0.227765 4.08815e-10 0
-0.243473 4.3701e-10 0 -0.259181 4.65204e-10 0 -0.274889 4.93398e-10 0 -0.290597
5.21592e-10 0 -0.306305 5.49786e-10 0 
POINT_DATA  384
FIELD attributes 4
p 1 384 float
0 0.0076693 0.0076693 0 -0.00306265 -0.00306265 -0.0698605 -0.0698605 -0.192192 -0.192192 -0.344301
-0.344301 -0.502664 -0.502664 -0.657898 -0.657898 -0.742758 -0.742758 -0.694209 -0.694209 -0.536171
-0.536171 -0.446492 -0.446492 -0.247036 -0.247036 0.170657 0.170657 0.634951 0.634951 0.231367
0.231367 -0.753753 -0.753753 -0.794651 -0.794651 -0.148793 -0.148793 0.848818 0.848818 1.32328
1.32328 1.03622 1.03622 0.875398 0.875398 0.785667 0.785667 0.731578 0.731578 5.57116
5.5807 5.5807 5.57116 5.56446 5.56446 5.47487 5.47487 5.31395 5.31395 5.10594
5.10594 4.87573 4.87573 4.62264 4.62264 4.34682 4.34682 4.06289 4.06289 3.79227
3.79227 3.56635 3.56635 3.42457 3.42457 3.4076 3.4076 3.54704 3.54704 3.85198
3.85198 4.31681 4.31681 4.92572 4.92572 5.56479 5.56479 6.07938 6.07938 6.37369
6.37369 6.40533 6.40533 6.22624 6.22624 5.96205 5.96205 5.82699 5.82699 3.94821
3.95436 3.95436 3.94821 3.93367 3.93367 3.84425 3.84425 3.68759 3.68759 3.49386
3.49386 3.28143 3.28143 3.04249 3.04249 2.7832 2.7832 2.51887 2.51887 2.27275
2.27275 2.07852 2.07852 1.97744 1.97744 2.01114 2.01114 2.21088 2.21088 2.58432
2.58432 3.12924 3.12924 3.81974 3.81974 4.53146 4.53146 5.10848 5.10848 5.44728
5.44728 5.50271 5.50271 5.3289 5.3289 5.05781 5.05781 4.91724 4.91724 -11.6461
-11.7214 -11.7214 -11.6461 -11.8605 -11.8605 -11.9846 -11.9846 -12.101 -12.101 -12.2165
-12.2165 -12.3473 -12.3473 -12.5051 -12.5051 -12.6952 -12.6952 -12.9157 -12.9157 -13.1509
-13.1509 -13.3675 -13.3675 -13.5325 -13.5325 -13.63 -13.63 -13.6449 -13.6449 -13.5602
-13.5602 -13.3581 -13.3581 -13.0202 -13.0202 -12.5982 -12.5982 -12.1954 -12.1954 -11.9026
-11.9026 -11.8018 -11.8018 -11.9043 -11.9043 -12.1227 -12.1227 -12.245 -12.245 0.69788
0.69788 2.07416 2.07416 3.53054 3.53054 5.15597 5.15597 6.90206 6.90206 8.73075
8.73075 10.5948 10.5948 12.4192 12.4192 14.0641 14.0641 15.2753 15.2753 15.2231
15.2231 30.6984 30.6984 -11.1252 -11.1252 -8.88192 -8.88192 -6.29258 -6.29258 -2.79998
-2.79998 1.36908 1.36908 4.79839 4.79839 8.82885 8.82885 16.6726 16.6726 26.4272
26.4272 35.8817 35.8817 43.6823 43.6823 6.27483 6.27483 7.6693 7.6693 9.15714
9.15714 10.8253 10.8253 12.6221 12.6221 14.5062 14.5062 16.4286 16.4286 18.3211
18.3211 20.0578 20.0578 21.3941 21.3941 21.5222 21.5222 31.7114 31.7114 1.36911
1.36911 2.32257 2.32257 5.84468 5.84468 6.01501 6.01501 3.51105 3.51105 5.30839
5.30839 8.939 8.939 14.8743 14.8743 22.7827 22.7827 31.2726 31.2726 38.8627
38.8627 4.65882 4.65882 6.05892 6.05892 7.54178 7.54178 9.20044 9.20044 10.9848
10.9848 12.8588 12.8588 14.7864 14.7864 16.7076 16.7076 18.5127 18.5127 19.9855
19.9855 20.4163 20.4163 29.9374 29.9374 6.27178 6.27178 7.10689 7.10689 8.00367
8.00367 9.23016 9.23016 10.9972 10.9972 13.497 13.497 16.8468 16.8468 21.0991
21.0991 26.2348 26.2348 31.9856 31.9856 37.3 37.3 -10.0408 -10.0408 -7.1715
-7.1715 -4.66714 -4.66714 -2.28773 -2.28773 -0.01567 -0.01567 2.36439 2.36439 5.0615
5.0615 8.22551 8.22551 11.8381 11.8381 15.545 15.545 18.2541 18.2541 29.2612
29.2612 5.36084 5.36084 6.19663 6.19663 7.1011 7.1011 8.34693 8.34693 10.1509
10.1509 12.7077 12.7077 16.1332 16.1332 20.4803 20.4803 25.7318 25.7318 31.6127
31.6127 37.0089 37.0089 
alpha.water 1 384 float
1.73346e-15 2.20277e-14 2.20277e-14 1.73346e-15 7.461e-14 7.461e-14 1.15943e-13 1.15943e-13 1.04584e-13 1.04584e-13 5.81076e-14
5.81076e-14 2.12066e-14 2.12066e-14 1.02524e-14 1.02524e-14 1.0126e-14 1.0126e-14 1.06464e-14 1.06464e-14 1.89719e-11
1.89719e-11 0.00438436 0.00438436 0.0218406 0.0218406 0.0348594 0.0348594 0.0325482 0.0325482 0.0529981
0.0529981 0.0955585 0.0955585 0.0968181 0.0968181 0.0475093 0.0475093 0.00855706 0.00855706 0.000428076
0.000428076 0.000448462 0.000448462 0.000180645 0.000180645 4.59583e-10 4.59583e-10 4.57292e-10 4.57292e-10 1.96224e-22
2.21959e-20 2.21959e-20 1.96224e-22 2.486e-19 2.486e-19 8.34173e-19 8.34173e-19 8.60619e-19 8.60619e-19 2.86995e-19
2.86995e-19 1.66717e-19 1.66717e-19 1.03357e-16 1.03357e-16 3.38065e-15 3.38065e-15 1.87507e-14 1.87507e-14 5.49168e-14
5.49168e-14 1.12339e-13 1.12339e-13 1.84775e-13 1.84775e-13 2.66045e-13 2.66045e-13 3.5457e-13 3.5457e-13 4.55863e-13
4.55863e-13 5.88382e-13 5.88382e-13 7.77034e-13 7.77034e-13 9.95831e-13 9.95831e-13 1.17195e-12 1.17195e-12 1.20448e-12
1.20448e-12 9.74258e-13 9.74258e-13 5.05301e-13 5.05301e-13 1.16451e-13 1.16451e-13 2.29584e-15 2.29584e-15 1.23047e-24
3.18092e-22 3.18092e-22 1.23047e-24 5.28639e-21 5.28639e-21 2.27369e-20 2.27369e-20 2.21328e-20 2.21328e-20 4.81362e-21
4.81362e-21 3.62266e-21 3.62266e-21 1.31789e-17 1.31789e-17 2.59934e-16 2.59934e-16 1.31337e-15 1.31337e-15 3.74955e-15
3.74955e-15 7.68674e-15 7.68674e-15 1.28403e-14 1.28403e-14 1.89016e-14 1.89016e-14 2.57576e-14 2.57576e-14 3.35295e-14
3.35295e-14 4.25801e-14 4.25801e-14 5.24193e-14 5.24193e-14 6.04283e-14 6.04283e-14 6.41678e-14 6.41678e-14 6.2036e-14
6.2036e-14 5.1652e-14 5.1652e-14 3.15325e-14 3.15325e-14 9.60265e-15 9.60265e-15 2.03798e-16 2.03798e-16 1
1 1 1 1 1 1 1 1 1 1
1 1 1 1 1 1 1 1 1 1
1 1 1 1 1 1 1 1 1 1
1 1 1 0.999985 0.999985 0.999905 0.999905 0.999844 0.999844 0.999902
0.999902 0.999978 0.999978 1 1 1 1 1 1 8.00103e-15
8.00103e-15 3.55853e-14 3.55853e-14 1.02764e-13 1.02764e-13 2.3768e-13 2.3768e-13 5.65027e-13 5.65027e-13 1.05291e-12
1.05291e-12 1.027e-11 1.027e-11 4.70271e-11 4.70271e-11 4.88533e-11 4.88533e-11 1.69984e-11 1.69984e-11 6.50339e-12
6.50339e-12 0.410022 0.410022 1 1 1 1 0.999405 0.999405 0.989446
0.989446 0.9762 0.9762 0.971744 0.971744 0.912573 0.912573 0.803852 0.803852 0.753727
0.753727 0.753727 0.753727 0.786885 0.786885 1.93245e-21 1.93245e-21 1.87256e-20 1.87256e-20 1.15491e-19
1.15491e-19 5.3245e-19 5.3245e-19 2.26494e-18 2.26494e-18 6.2479e-18 6.2479e-18 1.14986e-17 1.14986e-17 1.43897e-17
1.43897e-17 3.61118e-17 3.61118e-17 2.89297e-17 2.89297e-17 2.1434e-05 2.1434e-05 0.121353 0.121353 0.00122104
0.00122104 0.121805 0.121805 0.328196 0.328196 0.283695 0.283695 0.105048 0.105048 0.0361218
0.0361218 0.0071553 0.0071553 5.08601e-11 5.08601e-11 0.0159576 0.0159576 0.0907786 0.0907786 0.196153
0.196153 1.54494e-23 1.54494e-23 2.06224e-22 2.06224e-22 1.93173e-21 1.93173e-21 1.53153e-20 1.53153e-20 9.26885e-20
9.26885e-20 2.60469e-19 2.60469e-19 4.5565e-19 4.5565e-19 5.52001e-19 5.52001e-19 4.30921e-19 4.30921e-19 1.93555e-19
1.93555e-19 8.3715e-12 8.3715e-12 1.62389e-06 1.62389e-06 2.83755e-14 2.83755e-14 1.97105e-13 1.97105e-13 8.18652e-13
8.18652e-13 3.28509e-12 3.28509e-12 1.28299e-11 1.28299e-11 3.54795e-11 3.54795e-11 7.45923e-11 7.45923e-11 1.45878e-09
1.45878e-09 4.6995e-09 4.6995e-09 5.9927e-09 5.9927e-09 1.62659e-06 1.62659e-06 1 1 1
1 1 1 1 1 1 1 1 1 1
1 1 1 1 1 1 1 0.875935 0.875935 0.375935
0.375935 2.52456e-15 2.52456e-15 1.74401e-14 1.74401e-14 6.03952e-14 6.03952e-14 1.3531e-13 1.3531e-13 2.30237e-13
2.30237e-13 3.32699e-13 3.32699e-13 4.3889e-13 4.3889e-13 5.51868e-13 5.51868e-13 6.80127e-13 6.80127e-13 8.33249e-13
8.33249e-13 1.04825e-12 1.04825e-12 
p_rgh 1 384 float
0 0.0076693 0.0076693 0 -0.00306265 -0.00306265 -0.0698605 -0.0698605 -0.192192 -0.192192 -0.344301
-0.344301 -0.502664 -0.502664 -0.657898 -0.657898 -0.742758 -0.742758 -0.694209 -0.694209 -0.536171
-0.536171 -0.446492 -0.446492 -0.247036 -0.247036 0.170657 0.170657 0.634951 0.634951 0.231367
0.231367 -0.753753 -0.753753 -0.794651 -0.794651 -0.148793 -0.148793 0.848818 0.848818 1.32328
1.32328 1.03622 1.03622 0.875398 0.875398 0.785667 0.785667 0.731578 0.731578 5.57116
5.5807 5.5807 5.57116 5.56446 5.56446 5.47487 5.47487 5.31395 5.31395 5.10594
5.10594 4.87573 4.87573 4.62264 4.62264 4.34682 4.34682 4.06289 4.06289 3.79227
3.79227 3.56635 3.56635 3.42457 3.42457 3.4076 3.4076 3.54704 3.54704 3.85198
3.85198 4.31681 4.31681 4.92572 4.92572 5.56479 5.56479 6.07938 6.07938 6.37369
6.37369 6.40533 6.40533 6.22624 6.22624 5.96205 5.96205 5.82699 5.82699 3.94821
3.95436 3.95436 3.94821 3.93367 3.93367 3.84425 3.84425 3.68759 3.68759 3.49386
3.49386 3.28143 3.28143 3.04249 3.04249 2.7832 2.7832 2.51887 2.51887 2.27275
2.27275 2.07852 2.07852 1.97744 1.97744 2.01114 2.01114 2.21088 2.21088 2.58432
2.58432 3.12924 3.12924 3.81974 3.81974 4.53146 4.53146 5.10848 5.10848 5.44728
5.44728 5.50271 5.50271 5.3289 5.3289 5.05781 5.05781 4.91724 4.91724 -11.6461
-11.7214 -11.7214 -11.6461 -11.8605 -11.8605 -11.9846 -11.9846 -12.101 -12.101 -12.2165
-12.2165 -12.3473 -12.3473 -12.5051 -12.5051 -12.6952 -12.6952 -12.9157 -12.9157 -13.1509
-13.1509 -13.3675 -13.3675 -13.5325 -13.5325 -13.63 -13.63 -13.6449 -13.6449 -13.5602