# vtk DataFile Version 2.0
rotor
ASCII
DATASET POLYDATA
POINTS 384 float
0.02 0 0 0.0199572 -0.00130806 0 0.0199572 -0.00130806 0.01 0.02 0
0.01 0.0198289 -0.00261052 0 0.0198289 -0.00261052 0.01 0.0196157 -0.00390181 0
0.0196157 -0.00390181 0.01 0.0193185 -0.00517638 0 0.0193185 -0.00517638 0.01 0.0189386
-0.00642879 0 0.0189386 -0.00642879 0.01 0.0184776 -0.00765367 0 0.0184776 -0.00765367
0.01 0.0179375 -0.00884577 0 0.0179375 -0.00884577 0.01 0.0173205 -0.01 0
0.0173205 -0.01 0.01 0.0166294 -0.0111114 0 0.0166294 -0.0111114 0.01 0.0158671
-0.0121752 0 0.0158671 -0.0121752 0.01 0.0150368 -0.0131869 0 0.0150368 -0.0131869
0.01 0.0141421 -0.0141421 0 0.0141421 -0.0141421 0.01 0.0131869 -0.0150368 0
0.0131869 -0.0150368 0.01 0.0121752 -0.0158671 0 0.0121752 -0.0158671 0.01 0.0111114
-0.0166294 0 0.0111114 -0.0166294 0.01 0.01 -0.0173205 0 0.01 -0.0173205
0.01 0.00884577 -0.0179375 0 0.00884577 -0.0179375 0.01 0.00765367 -0.0184776 0
0.00765367 -0.0184776 0.01 0.00642879 -0.0189386 0 0.00642879 -0.0189386 0.01 0.00517638
-0.0193185 0 0.00517638 -0.0193185 0.01 0.00390181 -0.0196157 0 0.00390181 -0.0196157
0.01 0.00261052 -0.0198289 0 0.00261052 -0.0198289 0.01 0.00130806 -0.0199572 0
0.00130806 -0.0199572 0.01 3.58979e-11 -0.02 0 3.58979e-11 -0.02 0.01 3.58979e-11
-0.02 0 -0.00130806 -0.0199572 0 -0.00130806 -0.0199572 0.01 3.58979e-11 -0.02
0.01 -0.00261052 -0.0198289 0 -0.00261052 -0.0198289 0.01 -0.00390181 -0.0196157 0
-0.00390181 -0.0196157 0.01 -0.00517638 -0.0193185 0 -0.00517638 -0.0193185 0.01 -0.00642879
-0.0189386 0 -0.00642879 -0.0189386 0.01 -0.00765367 -0.0184776 0 -0.00765367 -0.0184776
0.01 -0.00884577 -0.0179375 0 -0.00884577 -0.0179375 0.01 -0.01 -0.0173205 0
-0.01 -0.0173205 0.01 -0.0111114 -0.0166294 0 -0.0111114 -0.0166294 0.01 -0.0121752
-0.0158671 0 -0.0121752 -0.0158671 0.01 -0.0131869 -0.0150368 0 -0.0131869 -0.0150368
0.01 -0.0141421 -0.0141421 0 -0.0141421 -0.0141421 0.01 -0.0150368 -0.0131869 0
-0.0150368 -0.0131869 0.01 -0.0158671 -0.0121752 0 -0.0158671 -0.0121752 0.01 -0.0166294
-0.0111114 0 -0.0166294 -0.0111114 0.01 -0.0173205 -0.01 0 -0.0173205 -0.01
0.01 -0.0179375 -0.00884577 0 -0.0179375 -0.00884577 0.01 -0.0184776 -0.00765367 0
-0.0184776 -0.00765367 0.01 -0.0189386 -0.00642879 0 -0.0189386 -0.00642879 0.01 -0.0193185
-0.00517638 0 -0.0193185 -0.00517638 0.01 -0.0196157 -0.00390181 0 -0.0196157 -0.00390181
0.01 -0.0198289 -0.00261052 0 -0.0198289 -0.00261052 0.01 -0.0199572 -0.00130806 0
-0.0199572 -0.00130806 0.01 -0.02 7.17959e-11 0 -0.02 7.17959e-11 0.01 -0.02
7.17959e-11 0 -0.0199572 0.00130806 0 -0.0199572 0.00130806 0.01 -0.02 7.17959e-11
0.01 -0.0198289 0.00261052 0 -0.0198289 0.00261052 0.01 -0.0196157 0.00390181 0
-0.0196157 0.00390181 0.01 -0.0193185 0.00517638 0 -0.0193185 0.00517638 0.01 -0.0189386
0.00642879 0 -0.0189386 0.00642879 0.01 -0.0184776 0.00765367 0 -0.0184776 0.00765367
0.01 -0.0179375 0.00884577 0 -0.0179375 0.00884577 0.01 -0.0173205 0.01 0
-0.0173205 0.01 0.01 -0.0166294 0.0111114 0 -0.0166294 0.0111114 0.01 -0.0158671
0.0121752 0 -0.0158671 0.0121752 0.01 -0.0150368 0.0131869 0 -0.0150368 0.0131869
0.01 -0.0141421 0.0141421 0 -0.0141421 0.0141421 0.01 -0.0131869 0.0150368 0
-0.0131869 0.0150368 0.01 -0.0121752 0.0158671 0 -0.0121752 0.0158671 0.01 -0.0111114
0.0166294 0 -0.0111114 0.0166294 0.01 -0.01 0.0173205 0 -0.01 0.0173205
0.01 -0.00884577 0.0179375 0 -0.00884577 0.0179375 0.01 -0.00765367 0.0184776 0
-0.00765367 0.0184776 0.01 -0.00642879 0.0189386 0 -0.00642879 0.0189386 0.01 -0.00517638
0.0193185 0 -0.00517638 0.0193185 0.01 -0.00390181 0.0196157 0 -0.00390181 0.0196157
0.01 -0.00261052 0.0198289 0 -0.00261052 0.0198289 0.01 -0.00130806 0.0199572 0
-0.00130806 0.0199572 0.01 3.58979e-11 0.02 0 3.58979e-11 0.02 0.01 3.58979e-11
0.02 0 0.00130806 0.0199572 0 0.00130806 0.0199572 0.01 3.58979e-11 0.02
0.01 0.00261052 0.0198289 0 0.00261052 0.0198289 0.01 0.00390181 0.0196157 0
0.00390181 0.0196157 0.01 0.00517638 0.0193185 0 0.00517638 0.0193185 0.01 0.00642879
0.0189386 0 0.00642879 0.0189386 0.01 0.00765367 0.0184776 0 0.00765367 0.0184776
0.01 0.00884577 0.0179375 0 0.00884577 0.0179375 0.01 0.01 0.0173205 0
0.01 0.0173205 0.01 0.0111114 0.0166294 0 0.0111114 0.0166294 0.01 0.0121752
0.0158671 0 0.0121752 0.0158671 0.01 0.0131869 0.0150368 0 0.0131869 0.0150368
0.01 0.0141421 0.0141421 0 0.0141421 0.0141421 0.01 0.0150368 0.0131869 0
0.0150368 0.0131869 0.01 0.0158671 0.0121752 0 0.0158671 0.0121752 0.01 0.0166294
0.0111114 0 0.0166294 0.0111114 0.01 0.0173205 0.01 0 0.0173205 0.01
0.01 0.0179375 0.00884577 0 0.0179375 0.00884577 0.01 0.0184776 0.00765367 0
0.0184776 0.00765367 0.01 0.0189386 0.00642879 0 0.0189386 0.00642879 0.01 0.0193185
0.00517638 0 0.0193185 0.00517638 0.01 0.0196157 0.00390181 0 0.0196157 0.00390181
0.01 0.0198289 0.00261052 0 0.0198289 0.00261052 0.01 0.0199572 0.00130806 0
0.0199572 0.00130806 0.01 0.02 0 0 0.02 0 0.01 0.0225
0 0.01 0.0225 0 0 0.025 0 0.01 0.025 0
0 0.0275 0 0.01 0.0275 0 0 0.03 0 0.01
0.03 0 0 0.0325 0 0.01 0.0325 0 0 0.035
0 0.01 0.035 0 0 0.0375 0 0.01 0.0375 0
0 0.04 0 0.01 0.04 0 0 0.0425 0 0.01
0.0425 0 0 0.045 0 0.01 0.045 0 0 0.0475
0 0.01 0.0475 0 0 0.05 0 0.01 0.05 0
0 0.0225 0 0 0.0225 0 0.01 0.025 0 0
0.025 0 0.01 0.0275 0 0 0.0275 0 0.01 0.03
0 0 0.03 0 0.01 0.0325 0 0 0.0325 0
0.01 0.035 0 0 0.035 0 0.01 0.0375 0 0
0.0375 0 0.01 0.04 0 0 0.04 0 0.01 0.0425
0 0 0.0425 0 0.01 0.045 0 0 0.045 0
0.01 0.0475 0 0 0.0475 0 0.01 4.03852e-11 -0.0225 0.01
4.03852e-11 -0.0225 0 4.48724e-11 -0.025 0.01 4.48724e-11 -0.025 0 4.93597e-11
-0.0275 0.01 4.93597e-11 -0.0275 0 5.38469e-11 -0.03 0.01 5.38469e-11 -0.03
0 5.83341e-11 -0.0325 0.01 5.83341e-11 -0.0325 0 6.28214e-11 -0.035 0.01
6.28214e-11 -0.035 0 6.73086e-11 -0.0375 0.01 6.73086e-11 -0.0375 0 7.17959e-11
-0.04 0.01 7.17959e-11 -0.04 0 7.62831e-11 -0.0425 0.01 7.62831e-11 -0.0425
0 8.07704e-11 -0.045 0.01 8.07704e-11 -0.045 0 8.52576e-11 -0.0475 0.01
8.52576e-11 -0.0475 0 8.97448e-11 -0.05 0.01 8.97448e-11 -0.05 0 4.03852e-11
-0.0225 0 4.03852e-11 -0.0225 0.01 4.48724e-11 -0.025 0 4.48724e-11 -0.025
0.01 4.93597e-11 -0.0275 0 4.93597e-11 -0.0275 0.01 5.38469e-11 -0.03 0
5.38469e-11 -0.03 0.01 5.83341e-11 -0.0325 0 5.83341e-11 -0.0325 0.01 6.28214e-11
-0.035 0 6.28214e-11 -0.035 0.01 6.73086e-11 -0.0375 0 6.73086e-11 -0.0375
0.01 7.17959e-11 -0.04 0 7.17959e-11 -0.04 0.01 7.62831e-11 -0.0425 0
7.62831e-11 -0.0425 0.01 8.07703e-11 -0.045 0 8.07703e-11 -0.045 0.01 8.52576e-11
-0.0475 0 8.52576e-11 -0.0475 0.01 -0.0225 8.07704e-11 0.01 -0.0225 8.07704e-11
0 -0.025 8.97448e-11 0.01 -0.025 8.97448e-11 0 -0.0275 9.87193e-11 0.01
-0.0275 9.87193e-11 0 -0.03 1.07694e-10 0.01 -0.03 1.07694e-10 0 -0.0325
1.16668e-10 0.01 -0.0325 1.16668e-10 0 -0.035 1.25643e-10 0.01 -0.035 1.25643e-10
0 -0.0375 1.34617e-10 0.01 -0.0375 1.34617e-10 0 -0.04 1.43592e-10 0.01
-0.04 1.43592e-10 0 -0.0425 1.52566e-10 0.01 -0.0425 1.52566e-10 0 -0.045
1.61541e-10 0.01 -0.045 1.61541e-10 0 -0.0475 1.70515e-10 0.01 -0.0475 1.70515e-10
0 -0.05 1.7949e-10 0.01 -0.05 1.7949e-10 0 -0.0225 8.07704e-11 0
-0.0225 8.07704e-11 0.01 -0.025 8.97448e-11 0 -0.025 8.97448e-11 0.01 -0.0275
9.87193e-11 0 -0.0275 9.87193e-11 0.01 -0.03 1.07694e-10 0 -0.03 1.07694e-10
0.01 -0.0325 1.16668e-10 0 -0.0325 1.16668e-10 0.01 -0.035 1.25643e-10 0
-0.035 1.25643e-10 0.01 -0.0375 1.34617e-10 0 -0.0375 1.34617e-10 0.01 -0.04
1.43592e-10 0 -0.04 1.43592e-10 0.01 -0.0425 1.52566e-10 0 -0.0425 1.52566e-10
0.01 -0.045 1.61541e-10 0 -0.045 1.61541e-10 0.01 -0.0475 1.70515e-10 0
-0.0475 1.70515e-10 0.01 4.03852e-11 0.0225 0.01 4.03852e-11 0.0225 0 4.48724e-11
0.025 0.01 4.48724e-11 0.025 0 4.93597e-11 0.0275 0.01 4.93597e-11 0.0275
0 5.38469e-11 0.03 0.01 5.38469e-11 0.03 0 5.83341e-11 0.0325 0.01
5.83341e-11 0.0325 0 6.28214e-11 0.035 0.01 6.28214e-11 0.035 0 6.73086e-11
0.0375 0.01 6.73086e-11 0.0375 0 7.17959e-11 0.04 0.01 7.17959e-11 0.04
0 7.62831e-11 0.0425 0.01 7.62831e-11 0.0425 0 8.07704e-11 0.045 0.01
8.07704e-11 0.045 0 8.52576e-11 0.0475 0.01 8.52576e-11 0.0475 0 8.97448e-11
0.05 0.01 8.97448e-11 0.05 0 4.03852e-11 0.0225 0 4.03852e-11 0.0225
0.01 4.48724e-11 0.025 0 4.48724e-11 0.025 0.01 4.93597e-11 0.0275 0
4.93597e-11 0.0275 0.01 5.38469e-11 0.03 0 5.38469e-11 0.03 0.01 5.83341e-11
0.0325 0 5.83341e-11 0.0325 0.01 6.28214e-11 0.035 0 6.28214e-11 0.035
0.01 6.73086e-11 0.0375 0 6.73086e-11 0.0375 0.01 7.17959e-11 0.04 0
7.17959e-11 0.04 0.01 7.62831e-11 0.0425 0 7.62831e-11 0.0425 0.01 8.07703e-11
0.045 0 8.07703e-11 0.045 0.01 8.52576e-11 0.0475 0 8.52576e-11 0.0475
0.01 
POLYGONS 192 960
4 0 1 2 3 4 1 4 5 2 4
4 6 7 5 4 6 8 9 7 4
8 10 11 9 4 10 12 13 11 4
12 14 15 13 4 14 16 17 15 4
16 18 19 17 4 18 20 21 19 4
20 22 23 21 4 22 24 25 23 4
24 26 27 25 4 26 28 29 27 4
28 30 31 29 4 30 32 33 31 4
32 34 35 33 4 34 36 37 35 4
36 38 39 37 4 38 40 41 39 4
40 42 43 41 4 42 44 45 43 4
44 46 47 45 4 46 48 49 47 4
50 51 52 53 4 51 54 55 52 4
54 56 57 55 4 56 58 59 57 4
58 60 61 59 4 60 62 63 61 4
62 64 65 63 4 64 66 67 65 4
66 68 69 67 4 68 70 71 69 4
70 72 73 71 4 72 74 75 73 4
74 76 77 75 4 76 78 79 77 4
78 80 81 79 4 80 82 83 81 4
82 84 85 83 4 84 86 87 85 4
86 88 89 87 4 88 90 91 89 4
90 92 93 91 4 92 94 95 93 4
94 96 97 95 4 96 98 99 97 4
100 101 102 103 4 101 104 105 102 4
104 106 107 105 4 106 108 109 107 4
108 110 111 109 4 110 112 113 111 4
112 114 115 113 4 114 116 117 115 4
116 118 119 117 4 118 120 121 119 4
120 122 123 121 4 122 124 125 123 4
124 126 127 125 4 126 128 129 127 4
128 130 131 129 4 130 132 133 131 4
132 134 135 133 4 134 136 137 135 4
136 138 139 137 4 138 140 141 139 4
140 142 143 141 4 142 144 145 143 4
144 146 147 145 4 146 148 149 147 4
150 151 152 153 4 151 154 155 152 4
154 156 157 155 4 156 158 159 157 4
158 160 161 159 4 160 162 163 161 4
162 164 165 163 4 164 166 167 165 4
166 168 169 167 4 168 170 171 169 4
170 172 173 171 4 172 174 175 173 4
174 176 177 175 4 176 178 179 177 4
178 180 181 179 4 180 182 183 181 4
182 184 185 183 4 184 186 187 185 4
186 188 189 187 4 188 190 191 189 4
190 192 193 191 4 192 194 195 193 4
194 196 197 195 4 196 198 199 197 4
0 3 200 201 4 201 200 202 203 4
203 202 204 205 4 205 204 206 207 4
207 206 208 209 4 209 208 210 211 4
211 210 212 213 4 213 212 214 215 4
215 214 216 217 4 217 216 218 219 4
219 218 220 221 4 221 220 222 223 4
198 224 225 199 4 224 226 227 225 4
226 228 229 227 4 228 230 231 229 4
230 232 233 231 4 232 234 235 233 4
234 236 237 235 4 236 238 239 237 4
238 240 241 239 4 240 242 243 241 4
242 244 245 243 4 244 223 222 245 4
50 53 246 247 4 247 246 248 249 4
249 248 250 251 4 251 250 252 253 4
253 252 254 255 4 255 254 256 257 4
257 256 258 259 4 259 258 260 261 4
261 260 262 263 4 263 262 264 265 4
265 264 266 267 4 267 266 268 269 4
48 270 271 49 4 270 272 273 271 4
272 274 275 273 4 274 276 277 275 4
276 278 279 277 4 278 280 281 279 4
280 282 283 281 4 282 284 285 283 4
284 286 287 285 4 286 288 289 287 4
288 290 291 289 4 290 269 268 291 4
100 103 292 293 4 293 292 294 295 4
295 294 296 297 4 297 296 298 299 4
299 298 300 301 4 301 300 302 303 4
303 302 304 305 4 305 304 306 307 4
307 306 308 309 4 309 308 310 311 4
311 310 312 313 4 313 312 314 315 4
98 316 317 99 4 316 318 319 317 4
318 320 321 319 4 320 322 323 321 4
322 324 325 323 4 324 326 327 325 4
326 328 329 327 4 328 330 331 329 4
330 332 333 331 4 332 334 335 333 4
334 336 337 335 4 336 315 314 337 4
150 153 338 339 4 339 338 340 341 4
341 340 342 343 4 343 342 344 345 4
345 344 346 347 4 347 346 348 349 4
349 348 350 351 4 351 350 352 353 4
353 352 354 355 4 355 354 356 357 4
357 356 358 359 4 359 358 360 361 4
148 362 363 149 4 362 364 365 363 4
364 366 367 365 4 366 368 369 367 4
368 370 371 369 4 370 372 373 371 4
372 374 375 373 4 374 376 377 375 4
376 378 379 377 4 378 380 381 379 4
380 382 383 381 4 382 361 360 383 
CELL_DATA 192
FIELD attributes 5
patchID 1 192 float
0 0 0 0 0 0 0 0 0 0 0
0 0 0 0 0 0 0 0 0 0
0 0 0 0 0 0 0 0 0 0
0 0 0 0 0 0 0 0 0 0
0 0 0 0 0 0 0 0 0 0
0 0 0 0 0 0 0 0 0 0
0 0 0 0 0 0 0 0 0 0
0 0 0 0 0 0 0 0 0 0
0 0 0 0 0 0 0 0 0 0
0 0 0 0 0 0 0 0 0 0
0 0 0 0 0 0 0 0 0 0
0 0 0 0 0 0 0 0 0 0
0 0 0 0 0 0 0 0 0 0
0 0 0 0 0 0 0 0 0 0
0 0 0 0 0 0 0 0 0 0
0 0 0 0 0 0 0 0 0 0
0 0 0 0 0 0 0 0 0 0
0 0 0 0 0 0 0 0 0 0
0 0 0 0 0 0 0 0 0 0
0 
p 1 192 float
0 -0.193924 -0.461219 -0.790623 -1.14235 -1.46303 -1.68264 -1.72787 -1.56194 -1.07113 -0.170403
1.12477 2.76329 4.74469 6.93344 9.07652 11.1292 12.9814 14.5528 15.7678 16.575
16.9605 16.9682 16.6965 3.12498 2.94543 2.74175 2.52446 2.32166 2.17402 2.13237
2.24719 2.56139 3.10368 3.88248 4.87793 6.04465 7.42379 8.92246 10.4309 11.8839
13.2142 14.357 15.2527 15.8554 16.1455 16.1471 15.9297 3.07646 2.8956 2.6902
2.47092 2.26614 2.11699 2.07479 2.19044 2.50714 3.05377 3.83872 4.84181 6.01756
7.40714 8.91614 10.435 11.898 13.2376 14.3888 15.2913 15.8989 16.1916 16.1933
15.9741 -16.064 -16.373 -16.6203 -16.8158 -16.9359 -16.938 -16.7691 -16.3829 -15.7501
-14.8625 -13.7366 -12.4103 -10.9135 -9.23131 -7.45068 -5.67955 -3.97419 -2.40252 -1.03985
0.0342217 0.750332 1.07113 1.02093 0.694788 0 2.14137 3.76766 5.14847 6.31688
7.46308 8.77591 10.3665 12.2575 14.3708 16.5157 18.1661 0.694788 3.27782 6.21188
9.86181 14.1863 19.1386 24.5993 30.3495 36.0498 41.3433 44.8226 43.4451 3.12498
5.10648 6.49785 7.64531 8.63023 9.64238 10.8568 12.3771 14.2292 16.3477 18.5676
20.2076 16.6965 18.068 19.739 21.8996 24.5288 27.568 30.8921 34.3123 37.5688
40.3386 41.7689 39.9419 3.07646 5.06232 6.45476 7.59926 8.57869 9.58538 10.797
12.3196 14.1812 16.3199 18.5753 20.3248 15.9297 17.2807 18.895 20.9472 23.4123
26.2452 29.3471 32.557 35.643 38.3428 39.8356 38.4149 -16.064 -12.5388 -10.0998
-8.0344 -6.16598 -4.19782 -1.86587 1.00008 4.46453 8.4711 12.777 16.5918 15.9741
17.3253 18.9411 20.9967 23.4673 26.3086 29.4219 32.647 35.7535 38.4772 39.9851
38.5876 
alpha.water 1 192 float
3.74779e-24 2.50649e-23 1.01491e-21 1.64774e-20 1.51561e-19 9.30457e-19 4.19344e-18 1.4839e-17 4.36213e-17 1.11872e-16 2.61863e-16
5.77407e-16 1.21499e-15 2.45373e-15 3.10312e-15 2.54021e-15 1.61873e-15 8.40065e-16 3.64567e-16 1.27671e-16 3.3089e-17
4.81961e-18 1.91669e-19 8.07995e-23 0 0 4.8069e-38 1.9149e-36 4.3083e-35 6.27734e-34 6.46646e-33
5.06353e-32 3.24978e-31 1.85748e-30 1.01392e-29 5.42361e-29 2.80632e-28 1.38824e-27 1.58361e-27 7.92969e-28 2.53406e-28
5.90813e-29 1.1017e-29 1.59209e-30 1.63439e-31 8.68429e-33 1.08731e-34 1.20003e-38 0 0 0
0 0 0 0 0 0 0 0 0 1.03482e-37
1.02856e-36 2.08956e-36 1.03054e-36 2.40891e-37 3.41383e-38 0 0 0 0 0
0 1 1 1 1 1 1 1 1 1
1 1 1 1 1 1 1 1 1 1
1 1 1 1 1 3.74779e-24 1.35978e-19 2.84147e-17 6.05954e-16 4.44996e-15
2.01902e-14 8.03246e-14 2.64529e-13 5.10942e-12 1.63234e-11 3.9399e-10 1.0542e-11 1 1 1
1 1 1 1 1 1 1 1 1 0
1.72393e-35 2.44798e-32 2.10693e-30 4.50188e-29 3.40736e-28 9.60485e-28 6.34593e-28 1.53575e-28 5.17135e-29 6.08537e-29
2.98203e-29 8.07995e-23 5.32159e-21 1.42283e-19 2.28191e-18 2.61782e-17 2.39552e-16 1.92013e-15 1.38621e-14 6.69824e-14
3.19668e-13 9.25665e-13 1.68582e-12 0 0 0 0 0 0 0
0 0 0 0 0 1.20003e-38 2.29438e-36 1.78244e-34 8.41401e-33 2.90191e-31
8.2133e-30 2.12317e-28 5.0866e-27 8.27374e-26 1.6645e-24 2.86983e-23 2.84084e-22 1 1 1
1 1 1 1 1 1 1 1 1 0
0 0 0 0 0 1.44387e-37 7.43807e-36 2.60671e-34 1.16298e-32 6.44559e-31
2.72879e-29 
p_rgh 1 192 float
0 -0.193924 -0.461219 -0.790623 -1.14235 -1.46303 -1.68264 -1.72787 -1.56194 -1.07113 -0.170403
1.12477 2.76329 4.74469 6.93344 9.07652 11.1292 12.9814 14.5528 15.7678 16.575
16.9605 16.9682 16.6965 3.12498 2.94543 2.74175 2.52446 2.32166 2.17402 2.13237
2.24719 2.56139 3.10368 3.88248 4.87793 6.04465 7.42379 8.92246 10.4309 11.8839
13.2142 14.357 15.2527 15.8554 16.1455 16.1471 15.9297 3.07646 2.8956 2.6902
2.47092 2.26614 2.11699 2.07479 2.19044 2.50714 3.05377 3.83872 4.84181 6.01756
7.40714 8.91614 10.435 11.898 13.2376 14.3888 15.2913 15.8989 16.1916 16.1933
15.9741 -16.064 -16.373 -16.6203 -16.8158 -16.9359 -16.938 -16.7691 -16.3829 -15.7501
-14.8625 -13.7366 -12.4103 -10.9135 -9.23131 -7.45068 -5.67955 -3.97419 -2.40252 -1.03985
0.0342217 0.750332 1.07113 1.02093 0.694788 0 2.14137 3.76766 5.14847 6.31688
7.46308 8.77591 10.3665 12.2575 14.3708 16.5157 18.1661 0.694788 3.27782 6.21188
9.86181 14.1863 19.1386 24.5993 30.3495 36.0498 41.3433 44.8226 43.4451 3.12498
5.10648 6.49785 7.64531 8.63023 9.64238 10.8568 12.3771 14.2292 16.3477 18.5676
20.2076 16.6965 18.068 19.739 21.8996 24.5288 27.568 30.8921 34.3123 37.5688
40.3386 41.7689 39.9419 3.07646 5.06232 6.45476 7.59926 8.57869 9.58538 10.797
12.3196 14.1812 16.3199 18.5753 20.3248 15.9297 17.2807 18.895 20.9472 23.4123
26.2452 29.3471 32.557 35.643 38.3428 39.8356 38.4149 -16.064 -12.5388 -10.0998
-8.0344 -6.16598 -4.19782 -1.86587 1.00008 4.46453 8.4711 12.777 16.5918 15.9741
17.3253 18.9411 20.9967 23.4673 26.3086 29.4219 32.647 35.7535 38.4772 39.9851
38.5876 
U 3 192 float
0.0041094 0.125529 0 0.0123106 0.124992 0 0.0204591 0.123919 0 0.02852 0.122315
0 0.0364587 0.120188 0 0.0442413 0.117546 0 0.0518345 0.114401 0
0.0592057 0.110766 0 0.0663234 0.106657 0 0.0731571 0.102091 0 0.0796775
0.0970873 0 0.0858567 0.0916683 0 0.0916683 0.0858567 0 0.0970873 0.0796775
0 0.102091 0.0731571 0 0.106657 0.0663234 0 0.110766 0.0592057 0
0.114401 0.0518345 0 0.117546 0.0442413 0 0.120188 0.0364587 0 0.122315
0.02852 0 0.123919 0.0204591 0 0.124992 0.0123106 0 0.125529 0.0041094
0 0.125529 -0.0041094 0 0.124992 -0.0123106 0 0.123919 -0.0204591 0
0.122315 -0.02852 0 0.120188 -0.0364587 0 0.117546 -0.0442413 0 0.114401
-0.0518345 0 0.110766 -0.0592057 0 0.106657 -0.0663234 0 0.102091 -0.0731571
0 0.0970873 -0.0796775 0 0.0916683 -0.0858567 0 0.0858567 -0.0916683 0
0.0796775 -0.0970873 0 0.0731571 -0.102091 0 0.0663234 -0.106657 0 0.0592057
-0.110766 0 0.0518345 -0.114401 0 0.0442413 -0.117546 0 0.0364587 -0.120188
0 0.02852 -0.122315 0 0.0204591 -0.123919 0 0.0123106 -0.124992 0
0.0041094 -0.125529 0 -0.0041094 -0.125529 0 -0.0123106 -0.124992 0 -0.0204591
-0.123919 0 -0.02852 -0.122315 0 -0.0364587 -0.120188 0 -0.0442413 -0.117546
0 -0.0518345 -0.114401 0 -0.0592057 -0.110766 0 -0.0663234 -0.106657 0
-0.0731571 -0.102091 0 -0.0796775 -0.0970873 0 -0.0858567 -0.0916683 0 -0.0916683
-0.0858567 0 -0.0970873 -0.0796775 0 -0.102091 -0.0731571 0 -0.106657 -0.0663234
0 -0.110766 -0.0592057 0 -0.114401 -0.0518345 0 -0.117546 -0.0442413 0
-0.120188 -0.0364587 0 -0.122315 -0.02852 0 -0.123919 -0.0204591 0 -0.124992
-0.0123106 0 -0.125529 -0.0041094 0 -0.125529 0.0041094 0 -0.124992 0.0123106
0 -0.123919 0.0204591 0 -0.122315 0.02852 0 -0.120188 0.0364587 0
-0.117546 0.0442413 0 -0.114401 0.0518345 0 -0.110766 0.0592057 0 -0.106657
0.0663234 0 -0.102091 0.0731571 0 -0.0970873 0.0796775 0 -0.0916683 0.0858567
0 -0.0858567 0.0916683 0 -0.0796775 0.0970873 0 -0.0731571 0.102091 0
-0.0663234 0.106657 0 -0.0592057 0.110766 0 -0.0518345 0.114401 0 -0.0442413
0.117546 0 -0.0364587 0.120188 0 -0.02852 0.122315 0 -0.0204591 0.123919
0 -0.0123106 0.124992 0 -0.0041094 0.125529 0 0 0.133518 0
0 0.149226 0 0 0.164934 0 0 0.180642 0 0
0.19635 0 0 0.212058 0 0 0.227765 0 0 0.243473
0 0 0.259181 0 0 0.274889 0 0 0.290597 0
0 0.306305 0 0 0.133518 0 0 0.149226 0 0
0.164934 0 0 0.180642 0 0 0.19635 0 0 0.212058
0 0 0.227765 0 0 0.243473 0 0 0.259181 0
0 0.274889 0 0 0.290597 0 0 0.306305 0 0.133518
2.3965e-10 0 0.149226 2.67845e-10 0 0.164934 2.96039e-10 0 0.180642 3.24233e-10
0 0.19635 3.52427e-10 0 0.212058 3.80621e-10 0 0.227765 4.08815e-10 0
0.243473 4.3701e-10 0 0.259181 4.65204e-10 0 0.274889 4.93398e-10 0 0.290597
5.21592e-10 0 0.306305 5.49786e-10 0 0.133518 2.3965e-10 0 0.149226 2.67845e-10
0 0.164934 2.96039e-10 0 0.180642 3.24233e-10 0 0.19635 3.52427e-10 0
0.212058 3.80621e-10 0 0.227765 4.08815e-10 0 0.243473 4.3701e-10 0 0.259181
4.65204e-10 0 0.274889 4.93398e-10 0 0.290597 5.21592e-10 0 0.306305 5.49786e-10
0 -4.79301e-10 -0.133518 0 -5.35689e-10 -0.149226 0 -5.92078e-10 -0.164934 0
-6.48466e-10 -0.180642 0 -7.04854e-10 -0.19635 0 -7.61243e-10 -0.212058 0 -8.17631e-10
-0.227765 0 -8.74019e-10 -0.243473 0 -9.30408e-10 -0.259181 0 -9.86796e-10 -0.274889
0 -1.04318e-09 -0.290597 0 -1.09957e-09 -0.306305 0 -4.79301e-10 -0.133518 0
-5.35689e-10 -0.149226 0 -5.92078e-10 -0.164934 0 -6.48466e-10 -0.180642 0 -7.04854e-10
-0.19635 0 -7.61243e-10 -0.212058 0 -8.17631e-10 -0.227765 0 -8.74019e-10 -0.243473
0 -9.30408e-10 -0.259181 0 -9.86796e-10 -0.274889 0 -1.04318e-09 -0.290597 0
-1.09957e-09 -0.306305 0 -0.133518 2.3965e-10 0 -0.149226 2.67845e-10 0 -0.164934
2.96039e-10 0 -0.180642 3.24233e-10 0 -0.19635 3.52427e-10 0 -0.212058 3.80621e-10
0 -0.227765 4.08815e-10 0 -0.243473 4.3701e-10 0 -0.259181 4.65204e-10 0
-0.274889 4.93398e-10 0 -0.290597 5.21592e-10 0 -0.306305 5.49786e-10 0 -0.133518
2.3965e-10 0 -0.149226 2.67845e-10 0 -0.164934 2.96039e-10 0 -0.180642 3.24233e-10
0 -0.19635 3.52427e-10 0 -0.212058 3.80621e-10 0 -0.227765 4.08815e-10 0
-0.243473 4.3701e-10 0 -0.259181 4.65204e-10 0 -0.274889 4.93398e-10 0 -0.290597
5.21592e-10 0 -0.306305 5.49786e-10 0 
POINT_DATA  384
FIELD attributes 4
p 1 384 float
0 -0.096962 -0.096962 0 -0.327572 -0.327572 -0.625921 -0.625921 -0.966487 -0.966487 -1.30269
-1.30269 -1.57283 -1.57283 -1.70526 -1.70526 -1.6449 -1.6449 -1.31653 -1.31653 -0.620767
-0.620767 0.477183 0.477183 1.94403 1.94403 3.75399 3.75399 5.83907 5.83907 8.00498
8.00498 10.1029 10.1029 12.0553 12.0553 13.7671 13.7671 15.1603 15.1603 16.1714
16.1714 16.7677 16.7677 16.9643 16.9643 16.8323 16.8323 16.6965 16.6965 3.12498
3.0352 3.0352 3.12498 2.84359 2.84359 2.63311 2.63311 2.42306 2.42306 2.24784
2.24784 2.15319 2.15319 2.18978 2.18978 2.40429 2.40429 2.83254 2.83254 3.49308
3.49308 4.38021 4.38021 5.46129 5.46129 6.73422 6.73422 8.17313 8.17313 9.67668
9.67668 11.1574 11.1574 12.5491 12.5491 13.7856 13.7856 14.8048 14.8048 15.5541
15.5541 16.0005 16.0005 16.1463 16.1463 16.0384 16.0384 15.9297 15.9297 3.07646
2.98603 2.98603 3.07646 2.7929 2.7929 2.58056 2.58056 2.36853 2.36853 2.19157
2.19157 2.09589 2.09589 2.13262 2.13262 2.34879 2.34879 2.78046 2.78046 3.44624
3.44624 4.34026 4.34026 5.42969 5.42969 6.71235 6.71235 8.16164 8.16164 9.67557
9.67557 11.1665 11.1665 12.5678 12.5678 13.8132 13.8132 14.84 14.84 15.5951
15.5951 16.0452 16.0452 16.1924 16.1924 16.0837 16.0837 15.9741 15.9741 -16.064
-16.2185 -16.2185 -16.064 -16.4967 -16.4967 -16.7181 -16.7181 -16.8759 -16.8759 -16.937
-16.937 -16.8535 -16.8535 -16.576 -16.576 -16.0665 -16.0665 -15.3063 -15.3063 -14.2996
-14.2996 -13.0735 -13.0735 -11.6619 -11.6619 -10.0724 -10.0724 -8.34099 -8.34099 -6.56511
-6.56511 -4.82687 -4.82687 -3.18835 -3.18835 -1.72118 -1.72118 -0.502814 -0.502814 0.392277
0.392277 0.910731 0.910731 1.04603 1.04603 0.857859 0.857859 0.694788 0.694788 1.07069
1.07069 2.95451 2.95451 4.45807 4.45807 5.73268 5.73268 6.88998 6.88998 8.1195
8.1195 9.57121 9.57121 11.312 11.312 13.3141 13.3141 15.4432 15.4432 17.3409
17.3409 30.8056 30.8056 1.9863 1.9863 4.74485 4.74485 8.03685 8.03685 12.0241
12.0241 16.6625 16.6625 21.8689 21.8689 27.4744 27.4744 33.1996 33.1996 38.6965
38.6965 43.083 43.083 44.1339 44.1339 4.11573 4.11573 5.80217 5.80217 7.07158
7.07158 8.13777 8.13777 9.1363 9.1363 10.2496 10.2496 11.617 11.617 13.3032
13.3032 15.2885 15.2885 17.4576 17.4576 19.3876 19.3876 30.0748 30.0748 17.3822
17.3822 18.9035 18.9035 20.8193 20.8193 23.2142 23.2142 26.0484 26.0484 29.23
29.23 32.6022 32.6022 35.9406 35.9406 38.9537 38.9537 41.0537 41.0537 40.8554
40.8554 4.06939 4.06939 5.75854 5.75854 7.02701 7.02701 8.08897 8.08897 9.08204
9.08204 10.1912 10.1912 11.5583 11.5583 13.2504 13.2504 15.2506 15.2506 17.4476
17.4476 19.4501 19.4501 29.3699 29.3699 16.6052 16.6052 18.0879 18.0879 19.9211
19.9211 22.1798 22.1798 24.8288 24.8288 27.7962 27.7962 30.952 30.952 34.1
34.1 36.9929 36.9929 39.0892 39.0892 39.1253 39.1253 -14.3014 -14.3014 -11.3193
-11.3193 -9.0671 -9.0671 -7.10019 -7.10019 -5.1819 -5.1819 -3.03185 -3.03185 -0.432895
-0.432895 2.73231 2.73231 6.46781 6.46781 10.6241 10.6241 14.6844 14.6844 27.5897
27.5897 16.6497 16.6497 18.1332 18.1332 19.9689 19.9689 22.232 22.232 24.888
24.888 27.8652 27.8652 31.0345 31.0345 34.2002 34.2002 37.1153 37.1153 39.2312
39.2312 39.2864 39.2864 
alpha.water 1 384 float
3.74779e-24 1.44063e-23 1.44063e-23 3.74779e-24 5.19987e-22 5.19987e-22 8.74615e-21 8.74615e-21 8.40192e-20 8.40192e-20 5.41009e-19
5.41009e-19 2.56195e-18 2.56195e-18 9.51622e-18 9.51622e-18 2.92302e-17 2.92302e-17 7.77467e-17 7.77467e-17 1.86867e-16
1.86867e-16 4.19635e-16 4.19635e-16 8.96199e-16 8.96199e-16 1.83436e-15 1.83436e-15 2.77842e-15 2.77842e-15 2.82166e-15
2.82166e-15 2.07947e-15 2.07947e-15 1.2294e-15 1.2294e-15 6.02316e-16 6.02316e-16 2.46119e-16 2.46119e-16 8.038e-17
8.038e-17 1.89543e-17 1.89543e-17 2.50564e-18 2.50564e-18 9.58749e-20 9.58749e-20 8.07995e-23 8.07995e-23 0
0 0 0 2.42927e-38 2.42927e-38 9.81485e-37 9.81485e-37 2.2499e-35 2.2499e-35 3.35409e-34
3.35409e-34 3.5471e-33 3.5471e-33 2.85509e-32 2.85509e-32 1.87807e-31 1.87807e-31 1.09123e-30 1.09123e-30 5.99834e-30
5.99834e-30 3.21876e-29 3.21876e-29 1.67434e-28 1.67434e-28 8.34436e-28 8.34436e-28 1.48592e-27 1.48592e-27 1.18829e-27
1.18829e-27 5.23187e-28 5.23187e-28 1.56244e-28 1.56244e-28 3.50492e-29 3.50492e-29 6.30454e-30 6.30454e-30 8.77764e-31
8.77764e-31 8.60616e-32 8.60616e-32 4.39651e-33 4.39651e-33 5.43715e-35 5.43715e-35 1.20003e-38 1.20003e-38 0
0 0 0 0 0 0 0 0 0 0
0 0 0 0 0 0 0 0 0 0
0 0 0 5.66788e-38 5.66788e-38 5.66021e-37 5.66021e-37 1.55906e-36 1.55906e-36 1.56005e-36
1.56005e-36 6.35715e-37 6.35715e-37 1.37515e-37 1.37515e-37 1.88008e-38 1.88008e-38 0 0 0
0 0 0 0 0 0 0 0 0 1
1 1 1 1 1 1 1 1 1 1
1 1 1 1 1 1 1 1 1 1
1 1 1 1 1 1 1 1 1 1
1 1 1 1 1 1 1 1 1 1
1 1 1 1 1 1 1 1 1 6.79909e-20
6.79909e-20 1.42753e-17 1.42753e-17 3.17184e-16 3.17184e-16 2.52796e-15 2.52796e-15 1.23201e-14 1.23201e-14 5.02574e-14
5.02574e-14 1.72427e-13 1.72427e-13 2.68697e-12 2.68697e-12 1.07164e-11 1.07164e-11 2.05157e-10 2.05157e-10 2.02266e-10
2.02266e-10 0.5 0.5 1 1 1 1 1 1 1
1 1 1 1 1 1 1 1 1 1
1 1 1 1 1 8.61965e-36 8.61965e-36 1.22485e-32 1.22485e-32 1.0657e-30
1.0657e-30 2.35629e-29 2.35629e-29 1.92877e-28 1.92877e-28 6.5061e-28 6.5061e-28 7.97539e-28 7.97539e-28 3.94084e-28
3.94084e-28 1.02644e-28 1.02644e-28 5.62836e-29 5.62836e-29 4.5337e-29 4.5337e-29 8.4291e-13 8.4291e-13 2.70119e-21
2.70119e-21 7.38023e-20 7.38023e-20 1.2121e-18 1.2121e-18 1.42301e-17 1.42301e-17 1.32865e-16 1.32865e-16 1.07984e-15
1.07984e-15 7.89111e-15 7.89111e-15 4.04222e-14 4.04222e-14 1.93325e-13 1.93325e-13 6.22667e-13 6.22667e-13 1.30574e-12
1.30574e-12 0 0 0 0 0 0 0 0 0
0 0 0 0 0 0 0 0 0 0
0 0 0 1.42042e-22 1.42042e-22 1.15319e-36 1.15319e-36 9.02692e-35 9.02692e-35 4.29613e-33
4.29613e-33 1.49302e-31 1.49302e-31 4.25175e-30 4.25175e-30 1.10265e-28 1.10265e-28 2.64946e-27 2.64946e-27 4.3912e-26
4.3912e-26 8.73619e-25 8.73619e-25 1.51814e-23 1.51814e-23 1.56391e-22 1.56391e-22 1 1 1
1 1 1 1 1 1 1 1 1 1
1 1 1 1 1 1 1 1 1 0.5
0.5 0 0 0 0 0 0 0 0 0
0 7.34987e-38 7.34987e-38 3.79123e-36 3.79123e-36 1.34055e-34 1.34055e-34 5.94524e-33 5.94524e-33 3.28094e-31
3.28094e-31 1.39662e-29 1.39662e-29 
p_rgh 1 384 float
0 -0.096962 -0.096962 0 -0.327572 -0.327572 -0.625921 -0.625921 -0.966487 -0.966487 -1.30269
-1.30269 -1.57283 -1.57283 -1.70526 -1.70526 -1.6449 -1.6449 -1.31653 -1.31653 -0.620767
-0.620767 0.477183 0.477183 1.94403 1.94403 3.75399 3.75399 5.83907 5.83907 8.00498
8.00498 10.1029 10.1029 12.0553 12.0553 13.7671 13.7671 15.1603 15.1603 16.1714
16.1714 16.7677 16.7677 16.9643 16.9643 16.8323 16.8323 16.6965 16.6965 3.12498
3.0352 3.0352 3.12498 2.84359 2.84359 2.63311 2.63311 2.42306 2.42306 2.24784
2.24784 2.15319 2.15319 2.18978 2.18978 2.40429 2.40429 2.83254 2.83254 3.49308
3.49308 4.38021 4.38021 5.46129 5.46129 6.73422 6.73422 8.17313 8.17313 9.67668
9.67668 11.1574 11.1574 12.5491 12.5491 13.7856 13.7856 14.8048 14.8048 15.5541
15.5541 16.0005 16.0005 16.1463 16.1463 16.0384 16.0384 15.9297 15.9297 3.07646
2.98603 2.98603 3.07646 2.7929 2.7929 2.58056 2.58056 2.36853 2.36853 2.19157
2.19157 2.09589 2.09589 2.13262 2.13262 2.34879 2.34879 2.78046 2.78046 3.44624
3.44624 4.34026 4.34026 5.42969 5.42969 6.71235 6.71235 8.16164 8.16164 9.67557
9.67557 11.1665 11.1665 12.5678 12.5678 13.8132 13.8132 14.84 14.84 15.5951
15.5951 16.0452 16.0452 16.1924 16.1924 16.0837 16.0837 15.9741 15.9741 -16.064
-16.2185 -16.2185 -16.064 -16.4967 -16.4967 -16.7181 -16.7181 -16.8759 -16.8759 -16.937
-16.937 -16.8535 -16.8535 -16.576 -16.576 -16.0665 -16.0665 -15.3063 -15.3063 -14.2996
-14.2996 -13.0735 -13.0735 -11.6619 -11.6619 -10.0724 -10.0724 -8.34099 -8.34099 -6.56511
-6.56511 -4.82687 -4.82687 -3.18835 -3.18835 -1.72118 -1.72118 -0.502814 -0.502814 0.392277
0.392277 0.910731 0.910731 1.04603 1.04603 0.857859 0.857859 0.694788 0.694788 1.07069
1.07069 2.95451 2.95451 4.45807 4.45807 5.73268 5.73268 6.88998 6.88998 8.1195
8.1195 9.57121 9.57121 11.312 11.312 13.3141 13.3141 15.4432 15.4432 17.3409
17.3409 30.8056 30.8056 1.9863 1.9863 4.74485 4.74485 8.03685 8.03685 12.0241
12.0241 16.6625 16.6625 21.8689 21.8689 27.4744 27.4744 33.1996 33.1996 38.6965
38.6965 43.083 43.083 44.1339 44.1339 4.11573 4.11573 5.80217 5.80217 7.07158
7.07158 8.13777 8.13777 9.1363 9.1363 10.2496 10.2496 11.617 11.617 13.3032
13.3032 15.2885 15.2885 17.4576 17.4576 19.3876 19.3876 30.0748 30.0748 17.3822
17.3822 18.9035 18.9035 20.8193 20.8193 23.2142 23.2142 26.0484 26.0484 29.23
29.23 32.6022 32.6022 35.9406 35.9406 38.9537 38.9537 41.0537 41.0537 40.8554
40.8554 4.06939 4.06939 5.75854 5.75854 7.02701 7.02701 8.08897 8.08897 9.08204
9.08204 10.1912 10.1912 11.5583 11.5583 13.2504 13.2504 15.2506 15.2506 17.4476
17.4476 19.4501 19.4501 29.3699 29.3699 16.6052 16.6052 18.0879 18.0879 19.9211
19.9211 22.1798 22.1798 24.8288 24.8288 27.7962 27.7962 30.952 30.952 34.1
34.1 36.9929 36.9929 39.0892 39.0892 39.1253 39.1253 -14.3014 -14.3014 -11.3193
-11.3193 -9.0671 -9.0671 -7.10019 -7.10019 -5.1819 -5.1819 -3.03185 -3.03185 -0.432895
-0.432895 2.73231 2.73231 6.46781 6.46781 10.6241 10.6241 14.6844 14.6844 27.5897