/*--------------------------------*- C++ -*----------------------------------*\
| =========                 |                                                 |
| \\      /  F ield         | OpenFOAM: The Open Source CFD Toolbox           |
|  \\    /   O peration     | Version:  v1606+                                |
|   \\  /    A nd           | Web:      www.OpenFOAM.com                      |
|    \\/     M anipulation  |                                                 |
\*---------------------------------------------------------------------------*/
FoamFile
{
    version     2.0;
    format      ascii;
    class       surfaceScalarField;
    location    "1.4";
    object      phi;
}
// * * * * * * * * * * * * * * * * * * * * * * * * * * * * * * * * * * * * * //

dimensions      [0 3 -1 0 0 0 0];

internalField   nonuniform List<scalar> 
11770
(
3.39226e-06
4.22641e-05
7.46324e-06
4.20721e-05
9.92695e-06
4.4205e-05
1.11214e-05
4.58063e-05
8.82295e-06
4.93059e-05
6.48967e-06
4.91172e-05
6.23731e-06
4.65917e-05
6.90511e-06
4.54589e-05
6.86791e-06
4.62275e-05
5.65549e-06
4.75229e-05
2.85308e-06
4.92414e-05
8.81199e-08
4.93817e-05
-8.9771e-07
4.75341e-05
-5.87843e-07
4.61026e-05
-2.05333e-07
4.59844e-05
-9.01756e-07
4.70983e-05
-2.68471e-06
4.81495e-05
-4.5384e-06
4.8054e-05
-5.54472e-06
4.71138e-05
-6.12598e-06
4.67859e-05
-7.4274e-06
4.78573e-05
-1.0722e-05
5.02482e-05
-1.57401e-05
5.22665e-05
-1.85432e-05
5.01064e-05
-1.7553e-05
4.62035e-05
-1.44387e-05
4.39751e-05
-1.07208e-05
4.31766e-05
-7.52824e-06
4.34533e-05
-3.71608e-06
4.25929e-05
4.23864e-05
9.49306e-06
3.57775e-05
1.64113e-05
3.80455e-05
2.20523e-05
4.14895e-05
2.45056e-05
4.62457e-05
2.35486e-05
5.32802e-05
1.87628e-05
5.69218e-05
1.38395e-05
5.43018e-05
1.19396e-05
5.00379e-05
1.04224e-05
5.05196e-05
6.30326e-06
5.45811e-05
7.45518e-07
5.78376e-05
-2.50026e-06
5.56971e-05
-2.40091e-06
5.0418e-05
-8.53132e-07
4.74096e-05
6.77673e-07
4.72809e-05
6.61481e-07
4.99873e-05
-1.19227e-06
5.28646e-05
-5.73507e-06
5.53646e-05
-1.08358e-05
5.48933e-05
-1.48126e-05
5.34442e-05
-2.00966e-05
5.60402e-05
-2.70429e-05
6.02168e-05
-3.35441e-05
6.18212e-05
-3.41382e-05
5.3578e-05
-3.05868e-05
4.53337e-05
-2.49926e-05
4.09553e-05
-1.81176e-05
3.88372e-05
-1.14898e-05
3.93978e-05
-6.21245e-06
3.98739e-05
3.87927e-05
6.60753e-06
2.94595e-05
1.46504e-05
3.02292e-05
2.15771e-05
3.47774e-05
2.61511e-05
4.19018e-05
2.93952e-05
5.03008e-05
2.85076e-05
5.80894e-05
2.36421e-05
5.96047e-05
1.91911e-05
5.49656e-05
1.53875e-05
5.48191e-05
8.77173e-06
6.17794e-05
9.37393e-07
6.62469e-05
-4.25566e-06
6.14044e-05
-4.4017e-06
5.10508e-05
-2.10541e-06
4.56053e-05
1.34397e-07
4.55287e-05
2.48199e-07
5.03815e-05
-2.28017e-06
5.5931e-05
-7.95343e-06
6.16441e-05
-1.46295e-05
6.21681e-05
-1.96922e-05
5.89727e-05
-2.70049e-05
6.37264e-05
-3.61177e-05
6.96223e-05
-3.99775e-05
6.5957e-05
-3.61463e-05
4.9969e-05
-2.93439e-05
3.87164e-05
-2.07203e-05
3.24947e-05
-1.24922e-05
3.07585e-05
-6.70723e-06
3.37585e-05
-3.00891e-06
3.63183e-05
3.59693e-05
4.29944e-06
2.51972e-05
8.50884e-06
2.6033e-05
1.50716e-05
2.82263e-05
2.34028e-05
3.35884e-05
3.22251e-05
4.15043e-05
3.87145e-05
5.1606e-05
3.61135e-05
6.23998e-05
2.61603e-05
6.51572e-05
1.57481e-05
6.54377e-05
8.90128e-06
6.87158e-05
5.04384e-06
7.01674e-05
8.73576e-07
6.56386e-05
-2.16808e-06
5.41991e-05
-1.77239e-06
4.53703e-05
-1.67031e-06
4.55854e-05
-3.0111e-06
5.18923e-05
-6.1064e-06
5.92475e-05
-9.08624e-06
6.49496e-05
-1.39151e-05
6.73492e-05
-2.21547e-05
6.74542e-05
-3.15739e-05
7.31817e-05
-3.96512e-05
7.76822e-05
-3.77393e-05
6.40667e-05
-2.90582e-05
4.13098e-05
-1.92607e-05
2.8935e-05
-9.53493e-06
2.27795e-05
-3.04575e-06
2.42778e-05
-5.78029e-07
3.13002e-05
-1.40181e-07
3.58944e-05
3.58584e-05
-6.86793e-07
2.58925e-05
-1.15373e-06
2.65019e-05
1.78884e-06
2.52845e-05
9.99768e-06
2.53822e-05
2.32103e-05
2.82996e-05
3.65278e-05
3.82948e-05
3.97895e-05
5.92278e-05
2.96675e-05
7.54981e-05
1.72612e-05
7.79987e-05
1.02004e-05
7.579e-05
8.14097e-06
7.2157e-05
6.61288e-06
6.71211e-05
3.24505e-06
5.75771e-05
1.6722e-06
4.69975e-05
-5.90724e-07
4.79193e-05
-3.00115e-06
5.43821e-05
-5.57433e-06
6.1949e-05
-7.15189e-06
6.67442e-05
-1.00978e-05
7.05527e-05
-1.74337e-05
7.50045e-05
-2.5815e-05
8.16048e-05
-3.17204e-05
8.35499e-05
-2.52376e-05
5.75807e-05
-1.51062e-05
3.11818e-05
-7.21481e-06
2.10451e-05
-8.70051e-07
1.64344e-05
2.10824e-06
2.13009e-05
3.25466e-06
3.01591e-05
2.64955e-06
3.65094e-05
3.85228e-05
-2.85883e-06
2.87594e-05
-4.35906e-06
2.80074e-05
-4.67242e-06
2.56011e-05
-1.85589e-06
2.25676e-05
7.1075e-06
1.9338e-05
2.11079e-05
2.42971e-05
3.00685e-05
5.02927e-05
2.59133e-05
7.98514e-05
1.70092e-05
8.70841e-05
1.04198e-05
8.2472e-05
7.3561e-06
7.52023e-05
6.54337e-06
6.78909e-05
6.38378e-06
5.77253e-05
5.5229e-06
4.78745e-05
3.67065e-06
4.98049e-05
2.00372e-06
5.60897e-05
4.73686e-07
6.35495e-05
-2.2633e-06
6.9605e-05
-5.65752e-06
7.41167e-05
-1.05004e-05
8.00227e-05
-1.54501e-05
8.6651e-05
-1.65481e-05
8.4646e-05
-9.05166e-06
5.00827e-05
-3.32923e-06
2.5459e-05
-1.07486e-07
1.78217e-05
2.87284e-06
1.34513e-05
4.86503e-06
1.9309e-05
5.2113e-06
2.98172e-05
4.13346e-06
3.75933e-05
4.26631e-05
-2.6021e-06
3.13745e-05
-3.15185e-06
2.85672e-05
-4.1961e-06
2.66535e-05
-4.28385e-06
2.26604e-05
-1.51207e-06
1.6568e-05
5.53667e-06
1.7249e-05
1.54288e-05
4.04127e-05
1.9583e-05
7.58064e-05
1.28308e-05
9.40344e-05
6.55854e-06
8.88929e-05
3.61787e-06
7.82295e-05
4.95055e-06
6.65754e-05
8.14291e-06
5.45377e-05
8.58295e-06
4.74449e-05
8.0056e-06
5.03996e-05
7.59051e-06
5.65273e-05
7.31191e-06
6.38654e-05
4.51904e-06
7.24639e-05
1.4659e-07
7.85877e-05
-4.56379e-06
8.48529e-05
-7.27574e-06
8.94691e-05
-1.3138e-06
7.8708e-05
4.14461e-06
4.46269e-05
3.87484e-06
2.57273e-05
3.49134e-06
1.82022e-05
5.63927e-06
1.12992e-05
6.53432e-06
1.84108e-05
3.31498e-06
3.30415e-05
1.5079e-06
3.94075e-05
4.41794e-05
-1.0105e-06
3.23907e-05
-1.33927e-06
2.8899e-05
-2.71552e-06
2.80334e-05
-4.73848e-06
2.46876e-05
-3.98014e-06
1.58119e-05
-3.84386e-06
1.7114e-05
3.59062e-07
3.62181e-05
7.07885e-06
6.91315e-05
4.4039e-06
9.68536e-05
-3.53088e-07
9.3814e-05
-2.43661e-07
7.82516e-05
4.94059e-06
6.14611e-05
9.17157e-06
5.03314e-05
9.86121e-06
4.67672e-05
1.00467e-05
5.02262e-05
1.04502e-05
5.61383e-05
1.11533e-05
6.31834e-05
1.07474e-05
7.29071e-05
7.12036e-06
8.2271e-05
2.62029e-06
8.94281e-05
2.95029e-06
8.92165e-05
1.16818e-05
7.00064e-05
1.26168e-05
4.36983e-05
7.66058e-06
3.06834e-05
5.26517e-06
2.0595e-05
7.08779e-06
9.47009e-06
4.71854e-06
2.07779e-05
2.556e-07
3.7507e-05
-1.20733e-06
4.08732e-05
4.29762e-05
2.35227e-07
3.21547e-05
-1.33361e-06
3.04698e-05
-1.8093e-06
2.85094e-05
-4.32116e-06
2.72008e-05
-4.81234e-06
1.63027e-05
-8.40686e-06
2.07119e-05
-1.13356e-05
3.91588e-05
-8.75268e-06
6.65814e-05
-5.32548e-06
9.35234e-05
-4.37583e-06
9.29968e-05
8.96373e-07
7.30872e-05
6.82859e-06
5.55914e-05
9.44406e-06
4.77398e-05
9.5392e-06
4.66824e-05
9.52175e-06
5.02531e-05
9.58156e-06
5.60899e-05
9.71832e-06
6.30617e-05
1.08673e-05
7.17822e-05
1.08804e-05
8.22927e-05
1.01988e-05
9.0158e-05
1.43021e-05
8.51644e-05
1.93175e-05
6.50175e-05
1.59418e-05
4.70843e-05
8.76588e-06
3.78636e-05
2.90066e-06
2.64594e-05
-1.29797e-06
1.36629e-05
-7.93778e-06
2.74164e-05
-7.86493e-06
3.74353e-05
-3.82739e-06
3.68361e-05
3.91494e-05
7.58791e-07
3.1393e-05
3.38813e-07
3.0883e-05
1.66807e-06
2.7179e-05
4.06974e-07
2.84614e-05
-3.29126e-06
1.99982e-05
-7.9258e-06
2.53509e-05
-1.42902e-05
4.55425e-05
-1.63175e-05
6.86461e-05
-9.75329e-06
8.70386e-05
-2.81989e-06
8.61566e-05
3.44466e-06
6.68876e-05
6.77384e-06
5.22939e-05
7.96218e-06
4.65664e-05
8.13794e-06
4.65161e-05
8.1273e-06
5.02739e-05
7.82155e-06
5.64085e-05
7.11863e-06
6.37811e-05
7.50774e-06
7.14153e-05
9.94839e-06
7.98811e-05
1.45413e-05
8.56029e-05
2.10763e-05
7.86691e-05
2.30997e-05
6.30225e-05
1.84318e-05
5.17697e-05
1.08806e-05
4.54264e-05
-3.13654e-07
3.76591e-05
-1.55251e-05
2.88775e-05
-2.21005e-05
3.39989e-05
-1.63765e-05
3.17163e-05
-7.15375e-06
2.76149e-05
3.19969e-05
4.91621e-06
2.64776e-05
1.10339e-05
2.47667e-05
1.65703e-05
2.16449e-05
1.72896e-05
2.77483e-05
6.59615e-06
3.06975e-05
-4.24049e-06
3.6195e-05
-1.27977e-05
5.41266e-05
-1.56736e-05
7.15693e-05
-1.01959e-05
8.16342e-05
-2.13275e-06
7.8163e-05
2.72155e-06
6.20755e-05
4.34228e-06
5.0695e-05
5.24319e-06
4.5678e-05
6.04803e-06
4.5721e-05
6.63214e-06
4.9701e-05
6.55437e-06
5.65019e-05
5.9337e-06
6.4423e-05
5.96543e-06
7.1411e-05
8.9977e-06
7.68827e-05
1.59968e-05
7.86438e-05
2.31229e-05
7.15825e-05
2.53706e-05
6.08065e-05
2.26063e-05
5.45587e-05
1.62202e-05
5.18333e-05
2.6997e-06
5.11947e-05
-2.53928e-05
5.69938e-05
-3.34074e-05
4.20402e-05
-2.39972e-05
2.23201e-05
-1.13194e-05
1.49422e-05
2.06814e-05
8.79827e-06
1.76828e-05
1.87472e-05
1.48226e-05
2.72809e-05
1.3119e-05
3.18763e-05
2.31702e-05
1.79305e-05
4.46688e-05
-4.31768e-06
5.84644e-05
-1.34019e-05
6.32439e-05
-1.38895e-05
7.21097e-05
-9.56903e-06
7.73832e-05
-3.504e-06
7.21602e-05
-8.63478e-07
5.9474e-05
2.12636e-07
4.96393e-05
1.81314e-06
4.40885e-05
4.05216e-06
4.34902e-05
6.22727e-06
4.75361e-05
7.1174e-06
5.56287e-05
6.87211e-06
6.46945e-05
7.16849e-06
7.11496e-05
9.98654e-06
7.41073e-05
1.59962e-05
7.26797e-05
2.20708e-05
6.5548e-05
2.57356e-05
5.7172e-05
2.6308e-05
5.40087e-05
2.11107e-05
5.70514e-05
4.60724e-06
6.77173e-05
-2.70732e-05
8.87067e-05
-3.69946e-05
5.19952e-05
-2.70837e-05
1.24274e-05
-1.36867e-05
1.55111e-06
6.99821e-06
1.11202e-05
6.56462e-06
2.32431e-05
2.70354e-06
3.57019e-05
6.68827e-07
4.24472e-05
1.6446e-05
2.65624e-05
6.05847e-05
-2.87059e-06
8.79265e-05
-1.43058e-05
7.47085e-05
-1.26274e-05
7.04718e-05
-8.30219e-06
7.31078e-05
-5.72088e-06
6.9626e-05
-5.62918e-06
5.94132e-05
-4.44735e-06
4.84737e-05
-1.68717e-06
4.13353e-05
2.03572e-06
3.97715e-05
6.06644e-06
4.35124e-05
8.16872e-06
5.35415e-05
8.1045e-06
6.47843e-05
8.67485e-06
7.06135e-05
1.04909e-05
7.23328e-05
1.3684e-05
6.95209e-05
1.74168e-05
6.18418e-05
2.12305e-05
5.33762e-05
2.20514e-05
5.32004e-05
1.63692e-05
6.27424e-05
-2.87494e-06
8.69685e-05
-2.22543e-05
0.0001081
-3.24095e-05
6.21649e-05
-2.73351e-05
7.36175e-06
-1.39007e-05
-1.18826e-05
-6.90426e-06
1.23357e-05
-5.77356e-06
2.54663e-05
-1.04275e-05
3.96629e-05
-1.35235e-05
4.90531e-05
7.06625e-06
3.82178e-05
7.14325e-05
1.05553e-05
0.000115604
-8.40365e-06
9.36821e-05
-1.27969e-05
7.48825e-05
-1.17246e-05
7.20573e-05
-1.00234e-05
6.79466e-05
-7.12158e-06
5.65274e-05
-4.59723e-06
4.59599e-05
-1.17999e-06
3.79234e-05
2.05531e-06
3.65395e-05
5.17377e-06
4.03987e-05
6.92497e-06
5.18001e-05
6.16069e-06
6.55654e-05
4.42251e-06
7.23753e-05
2.21746e-06
7.4578e-05
2.48163e-06
6.92772e-05
4.87785e-06
5.94554e-05
7.74102e-06
5.05149e-05
5.7822e-06
5.51571e-05
-2.32131e-06
7.08428e-05
-1.02361e-05
9.48823e-05
-8.93969e-06
0.000106804
-2.10597e-05
7.42839e-05
-2.17524e-05
8.05131e-06
-1.09773e-05
-2.26639e-05
-1.78891e-05
1.15553e-05
-1.73355e-05
2.40967e-05
-2.29738e-05
3.60915e-05
-2.55211e-05
4.13164e-05
1.83905e-06
3.55192e-05
7.72275e-05
2.39324e-05
0.000127194
4.74079e-06
0.000112879
-1.34271e-05
9.3051e-05
-2.32494e-05
8.18795e-05
-2.48488e-05
6.95456e-05
-1.9943e-05
5.16203e-05
-1.0334e-05
3.63485e-05
-1.075e-06
2.86611e-05
6.14454e-06
2.93165e-05
8.88701e-06
3.76536e-05
7.98058e-06
5.27055e-05
4.53128e-07
7.30931e-05
-1.04254e-05
8.32541e-05
-2.09475e-05
8.51036e-05
-2.70615e-05
7.53938e-05
-2.49855e-05
5.73784e-05
-1.99698e-05
4.54948e-05
-1.35374e-05
4.87187e-05
-9.556e-06
6.68553e-05
-6.1007e-06
9.1423e-05
1.08975e-06
9.96105e-05
-6.16982e-06
8.15382e-05
-1.03951e-05
1.22681e-05
-5.71475e-06
-2.7354e-05
-2.36137e-05
8.3973e-06
-2.57416e-05
1.77783e-05
-3.2363e-05
2.39818e-05
-3.17319e-05
2.03631e-05
5.44969e-06
1.38283e-05
8.37555e-05
1.28356e-05
0.000128185
3.16925e-06
0.000122543
-1.22849e-05
0.000108499
-2.2183e-05
9.17704e-05
-2.24207e-05
6.97757e-05
-1.63089e-05
4.55006e-05
-6.39492e-06
2.64264e-05
1.71744e-06
2.05404e-05
6.84473e-06
2.41812e-05
5.76037e-06
3.87307e-05
5.10426e-08
5.84082e-05
-1.15477e-05
8.46859e-05
-2.44454e-05
9.61441e-05
-3.49907e-05
9.56398e-05
-3.84968e-05
7.88944e-05
-3.15915e-05
5.04675e-05
-2.4636e-05
3.85325e-05
-1.72068e-05
4.12821e-05
-8.10153e-06
5.7743e-05
-2.02301e-06
8.53391e-05
3.29695e-06
9.42862e-05
3.30099e-06
8.15282e-05
-6.00652e-07
1.616e-05
-7.37175e-07
-2.72278e-05
-2.43613e-05
4.37863e-06
-3.01296e-05
1.01883e-05
-3.81819e-05
1.06565e-05
-3.22095e-05
1.76114e-06
1.43348e-05
-3.54027e-06
8.90493e-05
-1.13623e-06
0.000125777
-3.54301e-06
0.000124945
-9.89889e-06
0.000114849
-1.27164e-05
9.458e-05
-9.85392e-06
6.69042e-05
-4.17025e-06
3.98072e-05
-1.74659e-07
2.2421e-05
4.88286e-06
1.54732e-05
6.76615e-06
2.22885e-05
3.53221e-06
4.19562e-05
-4.58713e-06
6.65198e-05
-1.55645e-05
9.56567e-05
-2.58285e-05
0.000106405
-3.36029e-05
0.000103404
-3.49652e-05
8.02505e-05
-3.00734e-05
4.55683e-05
-2.40741e-05
3.25251e-05
-1.65752e-05
3.3775e-05
-8.03988e-06
4.92001e-05
-1.63507e-07
7.74565e-05
5.06355e-06
8.90538e-05
8.56262e-06
7.80227e-05
5.31684e-06
1.93959e-05
2.21275e-06
-2.4134e-05
-2.21588e-05
1.13653e-06
-3.12752e-05
2.97036e-06
-4.0025e-05
-1.7097e-06
-2.75398e-05
-1.05178e-05
2.31319e-05
-1.17428e-05
9.02662e-05
-7.70325e-06
0.000121732
-6.28353e-06
0.00012352
-5.97894e-06
0.000114537
-2.8545e-06
9.14472e-05
2.29134e-06
6.17489e-05
6.86266e-06
3.52258e-05
8.10379e-06
2.11697e-05
9.22551e-06
1.43416e-05
7.71694e-06
2.37878e-05
2.70399e-06
4.69609e-05
-6.85332e-06
7.60702e-05
-1.68892e-05
0.000105687
-2.54563e-05
0.000114963
-3.12992e-05
0.000109245
-3.03242e-05
7.92689e-05
-2.66424e-05
4.18786e-05
-1.87536e-05
2.46275e-05
-1.17379e-05
2.67505e-05
-9.02619e-06
4.64806e-05
-3.99845e-07
6.88237e-05
7.2595e-06
8.13888e-05
1.25972e-05
7.26787e-05
9.76223e-06
2.22214e-05
4.79141e-06
-1.91732e-05
-1.73773e-05
-1.09507e-06
-3.0189e-05
-3.09225e-06
-3.80371e-05
-1.0975e-05
-1.96679e-05
-1.72137e-05
2.93595e-05
-1.46489e-05
8.76928e-05
-9.13338e-06
0.000116209
-5.28207e-06
0.000119661
-2.33857e-07
0.000109481
6.49388e-06
8.47108e-05
1.21731e-05
5.60601e-05
1.4907e-05
3.24818e-05
1.54173e-05
2.06495e-05
1.30243e-05
1.6725e-05
8.44888e-06
2.83543e-05
3.19634e-06
5.22058e-05
-8.09291e-06
8.73537e-05
-1.81968e-05
0.000115787
-2.62976e-05
0.000123063
-3.07099e-05
0.000113652
-2.75829e-05
7.61359e-05
-2.21408e-05
3.64281e-05
-1.48301e-05
1.73077e-05
-1.13422e-05
2.32536e-05
-1.02046e-05
4.53351e-05
-1.27683e-06
5.98893e-05
9.58113e-06
7.05252e-05
1.48016e-05
6.74524e-05
1.15109e-05
2.55034e-05
5.1143e-06
-1.27864e-05
-1.22725e-05
-2.45136e-06
-2.77465e-05
-8.45087e-06
-3.20468e-05
-1.73582e-05
-1.07714e-05
-2.05482e-05
3.2539e-05
-1.40475e-05
8.11831e-05
-6.46066e-06
0.000108615
-3.66719e-07
0.00011356
7.6339e-06
0.000101472
1.55381e-05
7.67976e-05
2.06921e-05
5.08966e-05
2.07818e-05
3.23824e-05
2.02837e-05
2.11383e-05
1.61751e-05
2.08246e-05
9.60349e-06
3.49177e-05
2.50608e-06
5.92964e-05
-9.64669e-06
9.9502e-05
-1.98324e-05
0.000125971
-2.76976e-05
0.000130926
-2.91208e-05
0.000115072
-2.27747e-05
6.97837e-05
-1.58474e-05
2.94924e-05
-1.23884e-05
1.38397e-05
-1.11759e-05
2.20322e-05
-6.7175e-06
4.08688e-05
7.91818e-07
5.23731e-05
1.10153e-05
6.02958e-05
1.82091e-05
6.02532e-05
1.30327e-05
3.06723e-05
3.68159e-06
-3.44499e-06
-8.60033e-06
-4.25152e-06
-2.35042e-05
-1.46085e-05
-2.16997e-05
-2.19982e-05
-3.39219e-06
-2.3071e-05
3.36019e-05
-1.22622e-05
7.03654e-05
-1.45502e-06
9.77996e-05
6.63509e-06
0.000105462
1.54533e-05
9.26458e-05
2.25562e-05
6.96858e-05
2.62517e-05
4.7192e-05
2.54063e-05
3.32187e-05
2.33687e-05
2.31672e-05
1.84413e-05
2.57437e-05
1.08311e-05
4.25205e-05
4.2062e-07
6.9701e-05
-1.17191e-05
0.000111639
-2.16185e-05
0.00013587
-2.82469e-05
0.000137555
-2.46616e-05
0.000111484
-1.69046e-05
6.20206e-05
-1.09899e-05
2.35693e-05
-1.04275e-05
1.32684e-05
-1.00842e-05
2.16801e-05
-4.50049e-06
3.52772e-05
3.3832e-06
4.44826e-05
1.3091e-05
5.05819e-05
2.22908e-05
5.10484e-05
1.63367e-05
3.66199e-05
3.14861e-06
9.73372e-06
-5.46097e-06
-7.48844e-06
-1.60258e-05
-2.01728e-05
-9.02556e-06
-2.67173e-05
3.14311e-06
-2.48599e-05
3.17361e-05
-1.15965e-05
5.70935e-05
1.96698e-06
8.42283e-05
1.21246e-05
9.52964e-05
2.11321e-05
8.36301e-05
2.65566e-05
6.42529e-05
2.72182e-05
4.65219e-05
2.72032e-05
3.32254e-05
2.41982e-05
2.61644e-05
1.88649e-05
3.10694e-05
1.03025e-05
5.10765e-05
-1.41975e-06
8.14185e-05
-1.35294e-05
0.000123747
-2.33923e-05
0.000145734
-2.82605e-05
0.000142424
-2.09876e-05
0.000104209
-1.11749e-05
5.22013e-05
-7.14038e-06
1.95264e-05
-8.82444e-06
1.49438e-05
-9.27005e-06
2.21174e-05
-4.70499e-06
3.07046e-05
3.67097e-06
3.60998e-05
1.39358e-05
4.03111e-05
2.27204e-05
4.22591e-05
2.13678e-05
3.7967e-05
8.82612e-06
2.2267e-05
3.35528e-06
-8.19282e-06
-7.84372e-06
-1.88578e-05
1.62923e-06
-2.57034e-05
9.9807e-06
-2.28799e-05
2.89064e-05
-1.22039e-05
4.64108e-05
1.68635e-06
7.03307e-05
1.45508e-05
8.24246e-05
2.41218e-05
7.40516e-05
2.74359e-05
6.09311e-05
2.79178e-05
4.60322e-05
2.68744e-05
3.42615e-05
2.30098e-05
3.00221e-05
1.72276e-05
3.68449e-05
8.38324e-06
5.99155e-05
-3.19295e-06
9.29914e-05
-1.47661e-05
0.000135321
-2.3982e-05
0.000154953
-2.60707e-05
0.000144515
-1.61052e-05
9.42417e-05
-4.87531e-06
4.09645e-05
-5.02064e-06
1.96637e-05
-8.90919e-06
1.88245e-05
-1.00997e-05
2.33003e-05
-6.84236e-06
2.74403e-05
-1.20523e-07
2.93714e-05
8.62964e-06
3.15549e-05
1.67066e-05
3.41767e-05
1.94355e-05
3.52322e-05
1.30004e-05
2.86941e-05
1.63453e-05
-7.07484e-06
-7.79546e-07
-1.58481e-05
1.03926e-05
-2.31751e-05
1.72998e-05
-2.25761e-05
2.83018e-05
-1.55048e-05
3.93346e-05
-6.27336e-07
5.54467e-05
1.36038e-05
6.81862e-05
2.27449e-05
6.49033e-05
2.5994e-05
5.7675e-05
2.65092e-05
4.55104e-05
2.42302e-05
3.65342e-05
1.98309e-05
3.44152e-05
1.37035e-05
4.29663e-05
5.50407e-06
6.81105e-05
-4.8568e-06
0.000103351
-1.50821e-05
0.00014555
-2.24094e-05
0.000162285
-2.02876e-05
0.000142397
-9.68387e-06
8.36356e-05
-1.84534e-06
3.31194e-05
-5.48821e-06
2.32996e-05
-1.00524e-05
2.33816e-05
-1.15933e-05
2.48344e-05
-9.82444e-06
2.5665e-05
-5.62342e-06
2.5164e-05
4.13554e-07
2.55115e-05
7.00934e-06
2.75745e-05
1.15216e-05
3.07131e-05
9.54148e-06
3.06659e-05
2.58767e-05
-6.01786e-06
5.228e-06
-1.24161e-05
1.67814e-05
-1.89381e-05
2.38142e-05
-2.02752e-05
2.96332e-05
-1.59702e-05
3.50248e-05
-3.03658e-06
4.25073e-05
1.09506e-05
5.41921e-05
1.92472e-05
5.65999e-05
2.29855e-05
5.39307e-05
2.20461e-05
4.64444e-05
1.88199e-05
3.97549e-05
1.45172e-05
3.8712e-05
8.66306e-06
4.88148e-05
1.89469e-06
7.48753e-05
-6.51825e-06
0.000111763
-1.45922e-05
0.000153628
-1.95733e-05
0.000167273
-1.39949e-05
0.000136822
-2.81263e-06
7.24504e-05
-1.66958e-06
3.19704e-05
-6.70947e-06
2.83335e-05
-1.11067e-05
2.77726e-05
-1.29724e-05
2.66939e-05
-1.24751e-05
2.51616e-05
-1.0357e-05
2.30395e-05
-6.83085e-06
2.19785e-05
-2.25163e-06
2.29881e-05
2.5888e-06
2.58651e-05
4.34983e-06
2.88965e-05
3.02172e-05
-5.26244e-06
1.0481e-05
-8.65656e-06
2.01673e-05
-1.21175e-05
2.72682e-05
-1.24335e-05
2.99437e-05
-9.69179e-06
3.22785e-05
-3.2874e-06
3.6098e-05
6.5524e-06
4.43466e-05
1.32845e-05
4.98623e-05
1.59086e-05
5.13023e-05
1.44129e-05
4.79358e-05
1.08628e-05
4.32999e-05
6.80116e-06
4.27678e-05
2.34857e-06
5.3262e-05
-1.97906e-06
7.91999e-05
-7.90004e-06
0.000117686
-1.26769e-05
0.000158412
-1.41996e-05
0.000168804
-6.04108e-06
0.000128668
3.18196e-06
6.32245e-05
-1.60269e-06
3.675e-05
-7.05076e-06
3.37764e-05
-1.11206e-05
3.1837e-05
-1.34032e-05
2.89707e-05
-1.39837e-05
2.5736e-05
-1.32944e-05
2.23436e-05
-1.13552e-05
2.00323e-05
-8.27626e-06
1.99019e-05
-4.28305e-06
2.18644e-05
-6.01503e-07
2.52073e-05
2.96077e-05
-4.10919e-06
1.45822e-05
-4.40549e-06
2.04573e-05
-3.0247e-06
2.58822e-05
-5.11322e-07
2.74255e-05
1.77677e-06
2.99866e-05
2.77843e-06
3.50939e-05
4.22686e-06
4.28966e-05
5.25571e-06
4.88314e-05
5.70949e-06
5.08458e-05
4.22488e-06
4.94166e-05
8.64228e-07
4.66555e-05
-2.69764e-06
4.63238e-05
-4.78495e-06
5.53439e-05
-5.26802e-06
7.96802e-05
-8.8842e-06
0.000121304
-8.26411e-06
0.000157799
-4.3883e-06
0.000164938
3.89452e-06
0.000120389
7.07414e-06
6.00429e-05
1.4948e-07
4.3671e-05
-5.68063e-06
3.96022e-05
-9.69558e-06
3.5847e-05
-1.22562e-05
3.15258e-05
-1.35588e-05
2.70324e-05
-1.38434e-05
2.26213e-05
-1.2893e-05
1.90744e-05
-1.0568e-05
1.75693e-05
-7.20209e-06
1.84912e-05
-3.44787e-06
2.14462e-05
2.61534e-05
-2.30967e-06
1.68861e-05
-2.31927e-07
1.83753e-05
3.77893e-06
2.18686e-05
6.09949e-06
2.51028e-05
5.61562e-06
3.04694e-05
3.71761e-06
3.69928e-05
1.81569e-06
4.48017e-05
-2.70085e-07
5.09198e-05
-2.88951e-06
5.34657e-05
-5.9498e-06
5.24749e-05
-9.53082e-06
5.02323e-05
-1.25271e-05
4.93148e-05
-1.29923e-05
5.58042e-05
-1.01968e-05
7.68819e-05
-7.37808e-06
0.000118487
-7.47459e-07
0.000151177
6.08319e-06
0.000158118
1.39969e-05
0.000112481
1.10478e-05
6.29913e-05
3.78084e-06
5.09364e-05
-2.27719e-06
4.56576e-05
-6.58171e-06
4.01478e-05
-9.52446e-06
3.44636e-05
-1.13266e-05
2.88283e-05
-1.21578e-05
2.3445e-05
-1.1978e-05
1.88864e-05
-1.03739e-05
1.59567e-05
-7.33067e-06
1.54399e-05
-3.62126e-06
1.77297e-05
2.25265e-05
-6.37549e-07
1.75204e-05
1.81969e-06
1.59153e-05
4.74788e-06
1.8939e-05
5.59113e-06
2.42595e-05
4.35868e-06
3.17038e-05
1.73672e-06
3.96192e-05
-2.33656e-06
4.88827e-05
-6.08253e-06
5.4674e-05
-9.467e-06
5.68561e-05
-1.31371e-05
5.61469e-05
-1.71634e-05
5.4258e-05
-2.0408e-05
5.25571e-05
-2.05497e-05
5.59432e-05
-1.54537e-05
7.17847e-05
-3.14769e-06
0.000106184
7.07338e-06
0.000140965
1.76993e-05
0.000147504
2.32255e-05
0.000106962
1.67448e-05
6.94752e-05
9.47472e-06
5.82086e-05
3.15491e-06
5.19779e-05
-1.87227e-06
4.51733e-05
-5.54573e-06
3.81333e-05
-8.11708e-06
3.1394e-05
-9.55634e-06
2.48769e-05
-9.93991e-06
1.92611e-05
-9.0227e-06
1.50297e-05
-6.48541e-06
1.28928e-05
-2.95495e-06
1.41907e-05
1.95648e-05
1.52487e-07
1.73667e-05
2.32061e-06
1.37455e-05
4.22572e-06
1.70337e-05
4.48727e-06
2.40004e-05
2.59718e-06
3.35993e-05
-9.81046e-07
4.32054e-05
-6.77897e-06
5.46929e-05
-1.15138e-05
5.94222e-05
-1.53257e-05
6.06799e-05
-1.86711e-05
5.95008e-05
-2.18805e-05
5.74728e-05
-2.46892e-05
5.53695e-05
-2.48836e-05
5.61399e-05
-1.86413e-05
6.55451e-05
-1.69272e-06
8.92416e-05
1.50435e-05
0.000124242
2.98024e-05
0.000132763
3.14734e-05
0.000105308
2.43985e-05
7.65613e-05
1.70662e-05
6.55493e-05
1.03752e-05
5.86742e-05
4.38577e-06
5.11647e-05
-3.59459e-07
4.28774e-05
-4.79711e-06
3.58283e-05
-7.25322e-06
2.73275e-05
-8.26667e-06
2.02662e-05
-7.83592e-06
1.45885e-05
-5.87335e-06
1.09191e-05
-2.64084e-06
1.09478e-05
1.6916e-05
4.30689e-07
1.6937e-05
2.82486e-06
1.13515e-05
4.68842e-06
1.51728e-05
5.01415e-06
2.36801e-05
1.44657e-06
3.7177e-05
-5.16739e-06
4.98323e-05
-1.20093e-05
6.15516e-05
-1.62492e-05
6.36798e-05
-1.91042e-05
6.35515e-05
-2.17087e-05
6.21192e-05
-2.3969e-05
5.97448e-05
-2.57139e-05
5.7125e-05
-2.51541e-05
5.5589e-05
-1.83306e-05
5.87303e-05
-1.85331e-06
7.27759e-05
1.96532e-05
0.000102757
3.43305e-05
0.000118118
3.68298e-05
0.000102839
3.16833e-05
8.17301e-05
2.50675e-05
7.21812e-05
1.8845e-05
6.49078e-05
1.29792e-05
5.70373e-05
7.44153e-06
4.84181e-05
-2.18038e-06
4.54506e-05
-6.69202e-06
3.18376e-05
-8.10699e-06
2.16743e-05
-7.5717e-06
1.4043e-05
-5.7875e-06
9.12378e-06
-2.54209e-06
7.69129e-06
1.43651e-05
1.75333e-06
1.51876e-05
4.8499e-06
8.25831e-06
7.7742e-06
1.22547e-05
9.22884e-06
2.22349e-05
-1.18375e-06
4.75964e-05
-1.33777e-05
6.20389e-05
-1.72578e-05
6.54468e-05
-1.92369e-05
6.5677e-05
-2.1155e-05
6.54873e-05
-2.25397e-05
6.35201e-05
-2.34524e-05
6.06735e-05
-2.42299e-05
5.79183e-05
-2.14267e-05
5.27992e-05
-1.38823e-05
5.11984e-05
-1.4481e-06
6.03594e-05
1.51749e-05
8.61712e-05
2.87675e-05
0.000104576
3.43295e-05
9.73209e-05
3.27543e-05
8.33354e-05
3.04377e-05
7.45183e-05
2.81989e-05
6.71609e-05
2.54404e-05
5.98061e-05
1.97357e-05
5.41291e-05
2.42093e-06
6.27731e-05
-1.01012e-05
4.43678e-05
-1.04056e-05
2.19726e-05
-8.53555e-06
1.21633e-05
-6.15301e-06
6.73121e-06
-2.87897e-06
4.40729e-06
1.14777e-05
4.61104e-06
1.05836e-05
9.25432e-06
3.61861e-06
1.46455e-05
6.86955e-06
1.54222e-05
2.14627e-05
4.99306e-06
5.80295e-05
-1.2462e-05
7.95006e-05
-1.67578e-05
6.97504e-05
-1.97302e-05
6.86611e-05
-2.13822e-05
6.71499e-05
-2.12366e-05
6.3386e-05
-2.06604e-05
6.01114e-05
-1.94482e-05
5.67226e-05
-1.41068e-05
4.74725e-05
-5.44497e-06
4.25473e-05
3.1005e-06
5.18328e-05
7.851e-06
8.14665e-05
1.77347e-05
9.47478e-05
2.4222e-05
9.08784e-05
2.67638e-05
8.08209e-05
2.9042e-05
7.22572e-05
3.1758e-05
6.44548e-05
3.23977e-05
5.91744e-05
2.4545e-05
6.19869e-05
1.05517e-07
8.72177e-05
-1.72425e-05
6.17167e-05
-1.4332e-05
1.90603e-05
-1.05209e-05
8.34445e-06
-6.93509e-06
3.13794e-06
-3.40746e-06
8.71946e-07
8.06356e-06
8.00078e-06
2.57782e-06
1.54091e-05
-3.79328e-06
2.70495e-05
-4.77713e-06
3.76236e-05
1.08843e-05
2.80784e-05
6.75723e-05
9.01587e-06
9.85594e-05
-8.18419e-06
8.69458e-05
-1.92483e-05
7.97213e-05
-2.38664e-05
7.17669e-05
-2.29453e-05
6.2467e-05
-1.83566e-05
5.55285e-05
-1.32595e-05
5.16339e-05
-7.44853e-06
4.16682e-05
4.78577e-06
3.03138e-05
1.08705e-05
4.5761e-05
6.99929e-06
8.53767e-05
9.69604e-06
9.20921e-05
1.42417e-05
8.63623e-05
1.97796e-05
7.52992e-05
2.45117e-05
6.75354e-05
2.94251e-05
5.95461e-05
2.563e-05
6.29689e-05
8.86045e-06
7.87523e-05
-5.1807e-06
0.000101255
-2.24063e-05
7.89367e-05
-2.37961e-05
2.04455e-05
-1.43857e-05
-1.06848e-06
-9.14966e-06
-2.10184e-06
-4.80278e-06
-3.4806e-06
3.2551e-06
8.60556e-06
-6.03634e-06
1.73736e-05
-1.25735e-05
3.27075e-05
-2.01209e-05
3.94105e-05
4.17194e-06
3.3865e-05
7.31091e-05
2.74355e-05
0.00010498
1.37991e-05
0.000100573
1.14002e-06
9.23697e-05
-1.02557e-05
8.31534e-05
-1.89052e-05
7.11078e-05
-2.23148e-05
5.89309e-05
-1.80234e-05
4.7338e-05
-5.93525e-06
2.95761e-05
7.20051e-06
1.71731e-05
1.7385e-05
3.55759e-05
2.35622e-05
7.9208e-05
2.34943e-05
9.21687e-05
2.27041e-05
8.7157e-05
2.33624e-05
7.46413e-05
2.22342e-05
6.86606e-05
1.54234e-05
6.63509e-05
2.74312e-06
7.56414e-05
-6.92516e-06
8.84125e-05
-4.14982e-06
9.84735e-05
-1.01371e-05
8.4916e-05
-2.53935e-05
3.56937e-05
-1.94048e-05
-7.06287e-06
-1.26836e-05
-8.82855e-06
-7.17883e-06
-8.99172e-06
-3.93076e-06
5.18034e-06
-1.12284e-05
1.31249e-05
-2.05311e-05
2.2229e-05
-2.9236e-05
2.04415e-05
5.9489e-06
2.07933e-05
7.27474e-05
2.09014e-05
0.000104863
1.62416e-05
0.000105223
9.82706e-06
9.87744e-05
2.90833e-06
9.00617e-05
-3.67735e-06
7.76823e-05
-9.458e-06
6.47002e-05
-1.03081e-05
4.81774e-05
-4.97591e-06
2.42331e-05
3.20411e-06
8.98304e-06
1.51782e-05
2.35938e-05
3.26258e-05
6.17552e-05
3.92735e-05
8.55168e-05
3.76377e-05
8.87874e-05
2.97232e-05
8.2549e-05
1.96219e-05
7.87534e-05
7.32925e-06
7.86346e-05
-8.5962e-07
8.38217e-05
-3.09277e-06
9.06378e-05
5.52104e-07
9.48215e-05
-3.16066e-07
8.57763e-05
-1.75696e-05
5.29379e-05
-2.13255e-05
-3.31533e-06
-1.43013e-05
-1.58596e-05
-8.46652e-06
-1.48341e-05
-1.24058e-05
1.58458e-06
-1.28291e-05
7.34061e-06
-2.62973e-05
8.17836e-06
-3.00842e-05
4.86802e-06
9.24788e-06
8.56274e-06
6.90423e-05
1.23312e-05
0.000101085
1.18212e-05
0.000105724
9.37412e-06
0.000101212
6.61597e-06
9.28099e-05
4.01031e-06
8.02775e-05
2.14559e-06
6.65539e-05
2.51933e-06
4.77925e-05
5.01849e-06
2.17227e-05
8.50553e-06
5.48513e-06
1.4832e-05
1.72575e-05
2.60146e-05
5.05646e-05
3.31503e-05
7.83741e-05
3.34837e-05
8.84467e-05
2.77312e-05
8.82936e-05
1.94052e-05
8.70712e-05
1.0612e-05
8.74196e-05
4.44488e-06
8.99808e-05
2.09554e-06
9.29796e-05
3.34151e-06
9.35682e-05
3.12691e-06
8.59832e-05
-7.93191e-06
6.39877e-05
-2.05845e-05
9.32826e-06
-1.55475e-05
-2.09032e-05
-1.0424e-05
-1.99658e-05
-2.28384e-05
-2.38508e-07
-1.25978e-05
2.05788e-06
-2.86008e-05
-4.22982e-07
-2.76132e-05
-3.76633e-06
1.25798e-05
1.32621e-06
6.39391e-05
7.15594e-06
9.52452e-05
9.49121e-06
0.000103379
1.03222e-05
0.000100371
1.09549e-05
9.21675e-05
1.10038e-05
8.02187e-05
1.12133e-05
6.63343e-05
1.239e-05
4.66052e-05
1.34022e-05
2.06996e-05
1.30399e-05
5.83676e-06
1.40492e-05
1.62382e-05
1.81455e-05
4.64599e-05
2.22935e-05
7.42186e-05
2.35193e-05
8.72137e-05
2.12209e-05
9.05846e-05
1.66829e-05
9.16016e-05
1.12642e-05
9.28307e-05
6.99729e-06
9.42401e-05
4.80113e-06
9.51682e-05
4.75506e-06
9.36067e-05
3.79549e-06
8.6935e-05
-3.54599e-06
7.13206e-05
-1.88263e-05
2.45993e-05
-1.5316e-05
-2.44213e-05
-9.48102e-06
-2.58083e-05
-3.2329e-05
-6.60221e-07
-1.19409e-05
-9.39133e-07
-2.83262e-05
-5.49333e-06
-2.30692e-05
-7.81031e-06
1.48853e-05
-2.94574e-06
5.9064e-05
3.87906e-06
8.84107e-05
9.10348e-06
9.81453e-05
1.27449e-05
9.67207e-05
1.53461e-05
8.95571e-05
1.66637e-05
7.88916e-05
1.75928e-05
6.53955e-05
1.8439e-05
4.57489e-05
1.76232e-05
2.15051e-05
1.47634e-05
8.68642e-06
1.22883e-05
1.87037e-05
1.17498e-05
4.69898e-05
1.33472e-05
7.26135e-05
1.43705e-05
8.61831e-05
1.37239e-05
9.12241e-05
1.17452e-05
9.35729e-05
9.28452e-06
9.52839e-05
7.2536e-06
9.62634e-05
6.2357e-06
9.61785e-05
6.27641e-06
9.35585e-05
5.48894e-06
8.77147e-05
1.61329e-06
7.51879e-05
-7.06623e-06
3.32691e-05
-7.09169e-06
-2.44051e-05
-8.94446e-07
-3.20133e-05
-3.32335e-05
-8.59722e-07
-1.10828e-05
-2.72563e-06
-2.64662e-05
-7.6548e-06
-1.81505e-05
-9.05609e-06
1.62755e-05
-4.94178e-06
5.49396e-05
2.17145e-06
8.12882e-05
9.24749e-06
9.10604e-05
1.46432e-05
9.13163e-05
1.80858e-05
8.61058e-05
1.99885e-05
7.69801e-05
2.11435e-05
6.42312e-05
2.17415e-05
4.51413e-05
2.0009e-05
2.32277e-05
1.50478e-05
1.3638e-05
9.73493e-06
2.40072e-05
6.37131e-06
5.03448e-05
6.36993e-06
7.26071e-05
7.14681e-06
8.53989e-05
7.29825e-06
9.10654e-05
6.7417e-06
9.41222e-05
6.12499e-06
9.58933e-05
5.95489e-06
9.64261e-05
6.41955e-06
9.57064e-05
7.13041e-06
9.28401e-05
6.96437e-06
8.7873e-05
5.6115e-06
7.65325e-05
2.78498e-06
3.60861e-05
3.64588e-07
-2.19943e-05
2.40132e-06
-3.4059e-05
-3.08416e-05
5.90899e-08
-1.11448e-05
-2.77378e-06
-2.36403e-05
-7.65007e-06
-1.32843e-05
-1.04702e-05
1.90853e-05
-6.65254e-06
5.11124e-05
8.22967e-07
7.38041e-05
8.48398e-06
8.33912e-05
1.44834e-05
8.53089e-05
1.85205e-05
8.20605e-05
2.09193e-05
7.45729e-05
2.2136e-05
6.30058e-05
2.22218e-05
4.50463e-05
1.94129e-05
2.60274e-05
1.18269e-05
2.12151e-05
5.70444e-06
3.01204e-05
1.56091e-06
5.44798e-05
8.83392e-07