/*--------------------------------*- C++ -*----------------------------------*\
| =========                 |                                                 |
| \\      /  F ield         | OpenFOAM: The Open Source CFD Toolbox           |
|  \\    /   O peration     | Version:  v1606+                                |
|   \\  /    A nd           | Web:      www.OpenFOAM.com                      |
|    \\/     M anipulation  |                                                 |
\*---------------------------------------------------------------------------*/
FoamFile
{
    version     2.0;
    format      ascii;
    class       volVectorField;
    location    "0.1";
    object      U.airMean;
}
// * * * * * * * * * * * * * * * * * * * * * * * * * * * * * * * * * * * * * //

dimensions      [0 1 -1 0 0 0 0];

internalField   nonuniform List<vector> 
6000
(
(-0.0209539 0.391984 0)
(-0.000693281 0.361945 0)
(0.0242097 0.365758 0)
(0.0450865 0.367881 0)
(0.0579105 0.372386 0)
(0.0647004 0.377089 0)
(0.0665799 0.381665 0)
(0.0641603 0.38407 0)
(0.0592054 0.385698 0)
(0.0523901 0.386593 0)
(0.0442319 0.387278 0)
(0.035287 0.387531 0)
(0.0257111 0.387717 0)
(0.0156158 0.387838 0)
(0.00515502 0.38795 0)
(-0.00538849 0.387835 0)
(-0.0157506 0.387661 0)
(-0.025639 0.387523 0)
(-0.0348738 0.3873 0)
(-0.0435544 0.386957 0)
(-0.0515785 0.3865 0)
(-0.0588181 0.385857 0)
(-0.0647125 0.384238 0)
(-0.0673298 0.380927 0)
(-0.064997 0.376203 0)
(-0.0572123 0.371419 0)
(-0.0435935 0.367269 0)
(-0.0218448 0.364353 0)
(0.00487409 0.360241 0)
(0.0241988 0.394118 0)
(-0.000421713 0.870461 0)
(-0.00397349 0.829262 0)
(0.0166001 0.82926 0)
(0.0367956 0.835101 0)
(0.0519034 0.840214 0)
(0.0607221 0.842339 0)
(0.0643355 0.845882 0)
(0.0643904 0.848841 0)
(0.0610746 0.851476 0)
(0.0552135 0.854074 0)
(0.0474479 0.855476 0)
(0.0382037 0.856579 0)
(0.0278854 0.857804 0)
(0.016923 0.858469 0)
(0.00563318 0.858877 0)
(-0.00576216 0.858778 0)
(-0.017086 0.858401 0)
(-0.0280317 0.857484 0)
(-0.0382892 0.856414 0)
(-0.0475458 0.85542 0)
(-0.0553508 0.853979 0)
(-0.0610873 0.852148 0)
(-0.0639073 0.849406 0)
(-0.063672 0.845653 0)
(-0.0601224 0.842159 0)
(-0.0513218 0.839109 0)
(-0.0360079 0.834623 0)
(-0.0153826 0.827849 0)
(0.00433075 0.828024 0)
(0.000137438 0.875343 0)
(-0.0086563 0.834662 0)
(-0.0192309 0.752996 0)
(0.00474659 0.748487 0)
(0.0244246 0.757528 0)
(0.0412713 0.77233 0)
(0.0516638 0.785102 0)
(0.0564461 0.794084 0)
(0.0574429 0.800257 0)
(0.0551522 0.80517 0)
(0.0503938 0.809073 0)
(0.0436458 0.81222 0)
(0.0351911 0.814693 0)
(0.025702 0.816582 0)
(0.0156015 0.817708 0)
(0.00517498 0.818228 0)
(-0.00534193 0.818125 0)
(-0.0157713 0.817492 0)
(-0.0259284 0.816263 0)
(-0.0355285 0.814403 0)
(-0.0440056 0.811942 0)
(-0.0508304 0.808842 0)
(-0.0554096 0.805006 0)
(-0.0571357 0.799847 0)
(-0.0559629 0.79341 0)
(-0.0511063 0.783931 0)
(-0.0409631 0.77128 0)
(-0.0244467 0.756309 0)
(-0.00470428 0.74666 0)
(0.018686 0.752396 0)
(0.00815235 0.838959 0)
(-0.00348437 0.85896 0)
(-0.0154465 0.757439 0)
(-0.00191839 0.754566 0)
(0.00858946 0.763971 0)
(0.0208255 0.777756 0)
(0.032507 0.790572 0)
(0.0408743 0.800639 0)
(0.0451259 0.808511 0)
(0.0453936 0.814688 0)
(0.0426392 0.819444 0)
(0.0375027 0.823135 0)
(0.0305676 0.82596 0)
(0.0224843 0.828112 0)
(0.0137006 0.829406 0)
(0.00456277 0.830048 0)
(-0.00468159 0.830001 0)
(-0.0138331 0.829274 0)
(-0.0226508 0.827917 0)
(-0.0308043 0.825852 0)
(-0.0377573 0.8231 0)
(-0.0429116 0.819522 0)
(-0.0455513 0.814738 0)
(-0.045057 0.808344 0)
(-0.0407532 0.800423 0)
(-0.0324733 0.789883 0)
(-0.0210477 0.777206 0)
(-0.00907398 0.76307 0)
(0.00122336 0.753136 0)
(0.0144789 0.757314 0)
(0.00293447 0.863005 0)
(0.0045605 0.873738 0)
(-0.00306426 0.759201 0)
(0.00196066 0.75834 0)
(0.00433555 0.769032 0)
(0.00931424 0.783901 0)
(0.0162856 0.799035 0)
(0.023201 0.81135 0)
(0.0285915 0.821007 0)
(0.0315659 0.828431 0)
(0.0317962 0.834078 0)
(0.0293923 0.838354 0)
(0.0247871 0.841249 0)
(0.0186139 0.843264 0)
(0.01147 0.844393 0)
(0.00384121 0.844875 0)
(-0.00392627 0.844838 0)
(-0.011563 0.844255 0)
(-0.0187321 0.843109 0)
(-0.0249473 0.841154 0)
(-0.0295679 0.838281 0)
(-0.0319663 0.834102 0)
(-0.0316672 0.828313 0)
(-0.0286513 0.820715 0)
(-0.0232887 0.811087 0)
(-0.0165323 0.798511 0)
(-0.0097724 0.783558 0)
(-0.00498674 0.768383 0)
(-0.00295627 0.757182 0)
(0.00179429 0.759156 0)
(-0.00530574 0.877075 0)
(0.0141487 0.87752 0)
(0.0130561 0.764794 0)
(0.0117255 0.766114 0)
(0.00802414 0.778269 0)
(0.00607191 0.79341 0)
(0.00673605 0.809038 0)
(0.00928623 0.822484 0)
(0.012546 0.833655 0)
(0.0155081 0.84264 0)
(0.0173088 0.849629 0)
(0.0174967 0.854932 0)
(0.0158979 0.85865 0)
(0.0126418 0.861084 0)
(0.00810324 0.862381 0)
(0.00277076 0.86287 0)
(-0.00282103 0.862852 0)
(-0.0081619 0.862269 0)
(-0.0127259 0.860972 0)
(-0.0160038 0.858568 0)
(-0.0176111 0.854886 0)
(-0.017403 0.849626 0)
(-0.0155706 0.842495 0)
(-0.0126552 0.833412 0)
(-0.00945838 0.822311 0)
(-0.00705194 0.808725 0)
(-0.00654161 0.793221 0)
(-0.00862792 0.777897 0)
(-0.0126984 0.765383 0)
(-0.0143836 0.764928 0)
(-0.014968 0.879937 0)
(0.0213954 0.867476 0)
(0.0254124 0.774598 0)
(0.0200837 0.777827 0)
(0.0130176 0.790671 0)
(0.0070691 0.805579 0)
(0.00338517 0.820942 0)
(0.00191565 0.83477 0)
(0.001965 0.846717 0)
(0.00289685 0.856814 0)
(0.00407782 0.865045 0)
(0.00500985 0.871518 0)
(0.00530032 0.876314 0)
(0.00472862 0.879603 0)
(0.00328672 0.881513 0)
(0.00117415 0.882325 0)
(-0.00118506 0.882304 0)
(-0.00331232 0.881416 0)
(-0.00478142 0.879514 0)
(-0.00536883 0.876248 0)
(-0.0050847 0.871477 0)
(-0.0041347 0.865014 0)
(-0.00295373 0.856679 0)
(-0.00209375 0.846534 0)
(-0.00211199 0.83463 0)
(-0.00368004 0.820758 0)
(-0.00746701 0.805455 0)
(-0.0135197 0.790479 0)
(-0.0208806 0.77747 0)
(-0.0264763 0.774929 0)
(-0.0220315 0.869021 0)
(0.0219759 0.849814 0)
(0.0285842 0.784452 0)
(0.0231794 0.788755 0)
(0.0159748 0.802058 0)
(0.00919494 0.816828 0)
(0.00389462 0.831921 0)
(0.000309963 0.846156 0)
(-0.00182179 0.858893 0)
(-0.00279086 0.870015 0)
(-0.00288649 0.879395 0)
(-0.00241446 0.887017 0)
(-0.0016824 0.892914 0)
(-0.000951406 0.897169 0)
(-0.000401953 0.899851 0)
(-9.02471e-05 0.901102 0)
(0.00011174 0.901081 0)
(0.000400745 0.899779 0)
(0.000916671 0.897094 0)
(0.00162856 0.89285 0)
(0.00235315 0.886971 0)
(0.00283294 0.87934 0)
(0.00272072 0.869902 0)
(0.00168719 0.858753 0)
(-0.000504868 0.846038 0)
(-0.00415338 0.83181 0)
(-0.00952261 0.816746 0)
(-0.0163884 0.801976 0)
(-0.0237888 0.788647 0)
(-0.0292885 0.784839 0)
(-0.022352 0.85079 0)
(0.0176563 0.830688 0)
(0.0246415 0.789749 0)
(0.021656 0.795835 0)
(0.0163363 0.809893 0)
(0.0106072 0.824735 0)
(0.00551547 0.839682 0)
(0.00145609 0.854052 0)
(-0.00151688 0.867341 0)
(-0.00343943 0.879299 0)
(-0.00438946 0.889702 0)
(-0.00451406 0.898406 0)
(-0.00400359 0.905338 0)
(-0.00306097 0.910471 0)
(-0.00188154 0.913829 0)
(-0.000621103 0.915464 0)
(0.000644414 0.915446 0)
(0.00188237 0.913776 0)
(0.00303088 0.910406 0)
(0.00395221 0.905273 0)
(0.00445368 0.898352 0)
(0.00432591 0.889632 0)
(0.00335436 0.879204 0)
(0.00138502 0.867232 0)
(-0.00163472 0.853958 0)
(-0.00573699 0.839611 0)
(-0.0108749 0.824693 0)
(-0.0166652 0.809888 0)
(-0.022087 0.795879 0)
(-0.0250709 0.790093 0)
(-0.0178648 0.831349 0)
(0.0126955 0.812544 0)
(0.0188462 0.78966 0)
(0.0183048 0.798753 0)
(0.0151713 0.814081 0)
(0.0110422 0.829305 0)
(0.00693431 0.844189 0)
(0.00330583 0.858477 0)
(0.000346265 0.871829 0)
(-0.00184508 0.884009 0)
(-0.00322437 0.894804 0)
(-0.00381936 0.904033 0)
(-0.00371494 0.911554 0)
(-0.00304361 0.917249 0)
(-0.00197182 0.921065 0)
(-0.000675342 0.922964 0)
(0.000684465 0.922952 0)
(0.00196482 0.921022 0)
(0.0030133 0.917193 0)
(0.00366345 0.91149 0)
(0.00375558 0.903974 0)
(0.00314986 0.894731 0)
(0.00174991 0.883931 0)
(-0.000471121 0.871747 0)
(-0.00346086 0.858407 0)
(-0.00711596 0.844146 0)
(-0.0112521 0.829297 0)
(-0.0154139 0.814125 0)
(-0.018584 0.798868 0)
(-0.0191004 0.789941 0)
(-0.0128155 0.81301 0)
(0.0096057 0.796646 0)
(0.0146812 0.786201 0)
(0.0152749 0.798837 0)
(0.0135835 0.815688 0)
(0.0108261 0.831525 0)
(0.00779981 0.846486 0)
(0.00491761 0.860615 0)
(0.00239734 0.873741 0)
(0.000373583 0.885694 0)
(-0.00107762 0.896322 0)
(-0.00193095 0.905466 0)
(-0.00220582 0.912974 0)
(-0.0019728 0.918718 0)
(-0.00134854 0.922608 0)
(-0.00047944 0.924552 0)
(0.000468525 0.924544 0)
(0.00132847 0.922575 0)
(0.00193767 0.918674 0)
(0.00215331 0.912919 0)
(0.00186439 0.90541 0)
(0.000997592 0.896257 0)
(-0.000470755 0.885634 0)
(-0.00251354 0.873681 0)
(-0.0050497 0.860566 0)
(-0.00794466 0.846461 0)
(-0.0109836 0.831538 0)
(-0.0137504 0.815752 0)
(-0.0154443 0.798969 0)
(-0.0148249 0.786426 0)
(-0.00967245 0.796975 0)
(0.00799567 0.782745 0)
(0.0122122 0.781913 0)
(0.0129811 0.79765 0)
(0.0120669 0.815815 0)
(0.010287 0.832328 0)
(0.00814132 0.84752 0)
(0.00594083 0.861594 0)
(0.00389259 0.874477 0)
(0.00214158 0.886077 0)
(0.000778466 0.896301 0)
(-0.000153753 0.905047 0)
(-0.000657589 0.912209 0)
(-0.000779785 0.917686 0)
(-0.000602198 0.921389 0)
(-0.000231984 0.923244 0)
(0.000203438 0.923242 0)
(0.000569043 0.921365 0)
(0.000738288 0.917653 0)
(0.000604666 0.912163 0)
(8.74363e-05 0.905002 0)
(-0.00085914 0.896252 0)
(-0.00223573 0.886035 0)
(-0.00399784 0.874435 0)
(-0.0060547 0.861558 0)
(-0.00825963 0.847507 0)
(-0.0104062 0.832348 0)
(-0.0121813 0.815877 0)
(-0.0130809 0.797769 0)
(-0.0122866 0.782096 0)
(-0.00802803 0.782988 0)
(0.00665976 0.770709 0)
(0.0102687 0.777805 0)
(0.0111031 0.795907 0)
(0.0107209 0.815047 0)
(0.00963898 0.832195 0)
(0.008146 0.847727 0)
(0.00647069 0.861876 0)
(0.00480467 0.874637 0)
(0.00329513 0.88598 0)
(0.00204009 0.895864 0)
(0.00109086 0.904247 0)
(0.000451971 0.911054 0)
(9.02411e-05 0.916229 0)
(-4.95583e-05 0.919712 0)
(-4.6159e-05 0.921457 0)
(6.18982e-06 0.921455 0)
(8.08665e-06 0.919695 0)
(-0.000135901 0.916206 0)
(-0.000505192 0.911023 0)
(-0.00115608 0.904214 0)
(-0.00211878 0.895831 0)
(-0.00338353 0.88595 0)
(-0.00489866 0.874609 0)
(-0.00656914 0.86185 0)
(-0.00824575 0.84772 0)
(-0.00973484 0.832215 0)
(-0.0108046 0.815099 0)
(-0.0111645 0.796002 0)
(-0.0103034 0.777956 0)
(-0.00667073 0.770907 0)
(0.00531471 0.760353 0)
(0.00845883 0.773809 0)
(0.00951383 0.793747 0)
(0.00958976 0.813667 0)
(0.00899755 0.831405 0)
(0.00795323 0.847334 0)
(0.00664352 0.861641 0)
(0.00526079 0.87437 0)
(0.00394816 0.885554 0)
(0.00280149 0.8952 0)
(0.00187258 0.903305 0)
(0.00116631 0.909844 0)
(0.000660991 0.914796 0)
(0.000317724 0.918114 0)
(7.91395e-05 0.919772 0)
(-0.00012387 0.919777 0)
(-0.000362614 0.918102 0)
(-0.000706599 0.914781 0)
(-0.00122035 0.90983 0)
(-0.0019362 0.903288 0)
(-0.00287598 0.895182 0)
(-0.0040289 0.885534 0)
(-0.00534264 0.874355 0)
(-0.00672649 0.861621 0)
(-0.00803585 0.847333 0)
(-0.00908038 0.831424 0)
(-0.00966115 0.813706 0)
(-0.00956162 0.793816 0)
(-0.00847833 0.773933 0)
(-0.00531626 0.760526 0)
(0.00413187 0.751499 0)
(0.00690227 0.769791 0)
(0.0082313 0.791216 0)
(0.00868219 0.811887 0)
(0.00840139 0.830187 0)
(0.00761775 0.846522 0)
(0.00654043 0.861014 0)
(0.00536372 0.873752 0)
(0.00421796 0.884836 0)
(0.00318534 0.894308 0)
(0.00231179 0.902216 0)
(0.00159214 0.908572 0)
(0.00101437 0.913364 0)
(0.000552426 0.916565 0)
(0.000160942 0.918166 0)
(-0.000203358 0.918165 0)
(-0.000594028 0.916554 0)
(-0.00105952 0.913354 0)
(-0.00164483 0.908571 0)
(-0.00237021 0.902207 0)
(-0.0032548 0.894311 0)
(-0.00428865 0.884816 0)
(-0.00543155 0.873748 0)
(-0.00660637 0.860994 0)
(-0.00768238 0.846531 0)
(-0.00847717 0.830211 0)
(-0.00875637 0.811916 0)
(-0.00828478 0.791261 0)
(-0.00692401 0.769886 0)
(-0.00413442 0.751656 0)
(0.00323644 0.743931 0)
(0.0057295 0.765747 0)
(0.00724232 0.788452 0)
(0.00791941 0.809881 0)
(0.00780278 0.828745 0)
(0.00714232 0.845438 0)
(0.00620458 0.860093 0)
(0.0051838 0.872834 0)
(0.00419629 0.883853 0)
(0.0032917 0.893194 0)
(0.00250286 0.900966 0)
(0.00181583 0.907206 0)
(0.00121841 0.911877 0)
(0.000696998 0.915006 0)
(0.00021459 0.916559 0)
(-0.00024873 0.916555 0)
(-0.000730458 0.914999 0)
(-0.00126086 0.911874 0)
(-0.00186397 0.907217 0)
(-0.00255656 0.900965 0)
(-0.00335731 0.893226 0)
(-0.00425577 0.883823 0)
(-0.00523335 0.872843 0)
(-0.00625417 0.860065 0)
(-0.00719599 0.845462 0)
(-0.00787322 0.828781 0)
(-0.00799429 0.80991 0)
(-0.00730471 0.78848 0)
(-0.00576355 0.765816 0)
(-0.00324717 0.744072 0)
(0.00262793 0.737372 0)
(0.00492876 0.761817 0)
(0.00646983 0.785644 0)
(0.00716103 0.80779 0)
(0.007082 0.827193 0)
(0.00649538 0.844163 0)
(0.00567419 0.85893 0)
(0.00480065 0.871653 0)
(0.00397011 0.88262 0)
(0.00321135 0.891879 0)
(0.00252737 0.89956 0)
(0.00190025 0.905734 0)
(0.00131648 0.910331 0)
(0.000775226 0.913405 0)
(0.000247244 0.914942 0)
(-0.00027041 0.914932 0)
(-0.000799191 0.913411 0)
(-0.00135317 0.910327 0)
(-0.00194082 0.905745 0)
(-0.00257862 0.899566 0)
(-0.0032731 0.891923 0)
(-0.00401959 0.882567 0)
(-0.00482582 0.871667 0)
(-0.00570507 0.858898 0)
(-0.00654461 0.844204 0)
(-0.00714391 0.827241 0)
(-0.00722721 0.807826 0)
(-0.00653499 0.785667 0)
(-0.00497718 0.761868 0)
(-0.00264936 0.737491 0)
(0.00223866 0.731715 0)
(0.00437359 0.758049 0)
(0.00575288 0.782954 0)
(0.0062764 0.805717 0)
(0.00614736 0.825544 0)
(0.00565088 0.842711 0)
(0.00500641 0.85753 0)
(0.00431454 0.870234 0)
(0.00364113 0.881157 0)
(0.00303041 0.890361 0)
(0.0024607 0.898005 0)
(0.00189978 0.904155 0)
(0.00134347 0.908736 0)
(0.000803374 0.911777 0)
(0.000261673 0.913333 0)
(-0.000274872 0.913281 0)
(-0.000819476 0.911809 0)
(-0.00137165 0.908717 0)
(-0.0019273 0.904189 0)
(-0.00250058 0.898019 0)
(-0.00308738 0.890426 0)
(-0.00368842 0.881077 0)
(-0.00432151 0.87024 0)
(-0.00501793 0.857514 0)
(-0.00569021 0.842767 0)
(-0.00619377 0.8256 0)
(-0.00632685 0.805767 0)
(-0.0058108 0.782978 0)
(-0.00442849 0.758089 0)
(-0.00226722 0.731809 0)
(0.00194802 0.726644 0)
(0.00382939 0.754523 0)
(0.00491746 0.780465 0)
(0.00523311 0.803677 0)
(0.00504858 0.823779 0)
(0.00467562 0.841037 0)
(0.00426568 0.855877 0)
(0.0038204 0.868598 0)
(0.00332735 0.879506 0)
(0.00283619 0.888681 0)
(0.00235436 0.896335 0)
(0.00185411 0.902504 0)
(0.0013351 0.907087 0)
(0.000808185 0.910134 0)
(0.000269586 0.911689 0)
(-0.00026945 0.911624 0)
(-0.000813845 0.910194 0)
(-0.0013517 0.907062 0)
(-0.00187283 0.902568 0)
(-0.00238833 0.896364 0)
(-0.00287575 0.888783 0)
(-0.00335029 0.879395 0)
(-0.00381956 0.868581 0)
(-0.00428 0.855885 0)
(-0.00471213 0.841099 0)
(-0.00508237 0.823834 0)
(-0.00526669 0.803732 0)
(-0.0049569 0.780513 0)
(-0.0038729 0.754559 0)
(-0.00197463 0.726713 0)
(0.00161759 0.722032 0)
(0.00311812 0.751422 0)
(0.00392442 0.778126 0)
(0.00409649 0.801634 0)
(0.00392245 0.821848 0)
(0.00371871 0.839109 0)
(0.00355901 0.853962 0)
(0.003376 0.866746 0)
(0.00308602 0.877715 0)
(0.00269909 0.886902 0)
(0.00226441 0.894593 0)
(0.00180168 0.900806 0)
(0.00131135 0.905407 0)
(0.000799628 0.908452 0)
(0.000275694 0.910034 0)
(-0.000262832 0.909971 0)
(-0.000795859 0.908533 0)
(-0.00131666 0.905388 0)
(-0.00181449 0.900864 0)
(-0.00228128 0.894643 0)
(-0.00269805 0.886988 0)
(-0.0030631 0.877577 0)
(-0.0033795 0.86672 0)
(-0.00360316 0.853991 0)
(-0.00376685 0.839167 0)
(-0.00395357 0.821897 0)
(-0.00411686 0.801678 0)
(-0.00394362 0.778175 0)
(-0.00314044 0.75146 0)
(-0.00163313 0.722078 0)
(0.00119198 0.718204 0)
(0.00230251 0.748616 0)
(0.00287277 0.775829 0)
(0.00294916 0.799519 0)
(0.0029021 0.819706 0)
(0.0029329 0.836932 0)
(0.00301221 0.851815 0)
(0.0030409 0.864709 0)
(0.00292549 0.8758 0)
(0.00263116 0.88505 0)
(0.00221916 0.892785 0)
(0.00176714 0.899038 0)
(0.00128882 0.903698 0)
(0.000784013 0.90675 0)
(0.00027133 0.908365 0)
(-0.000254895 0.908283 0)
(-0.000771355 0.906837 0)
(-0.00127696 0.903677 0)
(-0.00175979 0.899112 0)
(-0.00219635 0.892849 0)
(-0.00257974 0.885121 0)
(-0.00288087 0.875648 0)
(-0.0030674 0.864705 0)
(-0.00308498 0.851853 0)
(-0.00299611 0.836975 0)
(-0.00293783 0.819739 0)
(-0.00296027 0.799558 0)
(-0.00287526 0.775855 0)
(-0.00230795 0.748658 0)
(-0.00119418 0.718234 0)
(0.000743876 0.714754 0)
(0.00152997 0.746012 0)
(0.00182644 0.773494 0)
(0.00192269 0.797238 0)
(0.00212109 0.817319 0)
(0.00240191 0.834522 0)
(0.00268889 0.849494 0)
(0.00286298 0.862532 0)
(0.0028606 0.873793 0)
(0.00261865 0.883178 0)
(0.00220301 0.890956 0)
(0.00174539 0.89724 0)
(0.00126565 0.901926 0)
(0.000763934 0.905025 0)
(0.000263499 0.906617 0)
(-0.000241171 0.906565 0)
(-0.000739425 0.905102 0)
(-0.00122928 0.901933 0)
(-0.00170244 0.897328 0)
(-0.00213981 0.891013 0)
(-0.00252514 0.883225 0)
(-0.00281788 0.873655 0)
(-0.00292252 0.862561 0)
(-0.00277931 0.849534 0)
(-0.00247888 0.834544 0)
(-0.00216668 0.817327 0)
(-0.00193538 0.797252 0)
(-0.00181938 0.773528 0)
(-0.00152221 0.746047 0)
(-0.000738001 0.71478 0)
(0.000369521 0.711707 0)
(0.000789548 0.743544 0)
(0.00097075 0.771152 0)
(0.00123621 0.794707 0)
(0.00165199 0.814687 0)
(0.00215789 0.831963 0)
(0.00258989 0.847071 0)
(0.00283698 0.86029 0)
(0.00286996 0.871722 0)
(0.00264607 0.881303 0)
(0.00220966 0.889124 0)
(0.00171603 0.895419 0)
(0.00122409 0.900111 0)
(0.00072904 0.903214 0)
(0.0002507 0.904804 0)
(-0.000221201 0.904786 0)
(-0.00069121 0.903275 0)
(-0.00116265 0.900135 0)
(-0.00163301 0.895466 0)
(-0.00209774 0.889162 0)
(-0.002527 0.881289 0)
(-0.0028467 0.87165 0)
(-0.00291787 0.860346 0)
(-0.00268825 0.847113 0)
(-0.00224841 0.831978 0)
(-0.00171063 0.814672 0)
(-0.0012586 0.794684 0)
(-0.000973331 0.771168 0)
(-0.000784042 0.743564 0)
(-0.000362001 0.711734 0)
(8.9729e-05 0.709252 0)
(0.000253992 0.741202 0)
(0.000486477 0.768659 0)
(0.000924474 0.791963 0)
(0.00154306 0.811995 0)
(0.00218955 0.82934 0)
(0.00267761 0.844625 0)
(0.0029134 0.858049 0)
(0.0029084 0.869642 0)
(0.00267633 0.879383 0)
(0.00221299 0.887262 0)
(0.00166461 0.893526 0)
(0.00115527 0.898238 0)
(0.000674279 0.901324 0)
(0.000230316 0.902915 0)
(-0.000198484 0.902879 0)
(-0.000628047 0.901369 0)
(-0.00107103 0.898225 0)
(-0.00154451 0.893558 0)
(-0.00206414 0.887267 0)
(-0.00255137 0.87937 0)
(-0.002897 0.869658 0)
(-0.00298925 0.858118 0)
(-0.00276902 0.844682 0)
(-0.00228462 0.829347 0)
(-0.00160968 0.811961 0)
(-0.00096164 0.79193 0)
(-0.000513859 0.768653 0)
(-0.000269937 0.741215 0)
(-9.29455e-05 0.70928 0)
(-6.08631e-05 0.707028 0)
(2.00844e-05 0.738935 0)
(0.000308944 0.766028 0)
(0.000930111 0.789237 0)
(0.00174636 0.809236 0)
(0.00244446 0.82671 0)
(0.0028732 0.842231 0)
(0.00301301 0.855858 0)
(0.00291842 0.867579 0)
(0.00264343 0.877442 0)
(0.00217446 0.885402 0)
(0.00159663 0.891598 0)
(0.00105827 0.896259 0)
(0.000598351 0.899337 0)
(0.000201509 0.900879 0)
(-0.000173964 0.90086 0)
(-0.000553502 0.899354 0)
(-0.000959358 0.89622 0)
(-0.00144228 0.891601 0)
(-0.0020094 0.885379 0)
(-0.00251689 0.877447 0)
(-0.00289723 0.867693 0)
(-0.00307164 0.855932 0)
(-0.00293912 0.842314 0)
(-0.0025123 0.826713 0)
(-0.00180611 0.809184 0)
(-0.000994614 0.789201 0)
(-0.000359791 0.766031 0)
(-4.61728e-05 0.738931 0)
(5.14995e-05 0.707041 0)
(-0.000128141 0.704939 0)
(-7.93739e-05 0.736652 0)
(0.000326571 0.76346 0)
(0.0011468 0.786426 0)
(0.00211133 0.806454 0)
(0.00280751 0.824236 0)
(0.00309103 0.839971 0)
(0.00305748 0.853763 0)
(0.00284162 0.865537 0)
(0.00250873 0.875476 0)
(0.00204996 0.883492 0)
(0.00150144 0.889632 0)
(0.000948065 0.894198 0)
(0.00049185 0.897197 0)
(0.000161656 0.898697 0)
(-0.00014826 0.898719 0)
(-0.000468638 0.897177 0)
(-0.000842379 0.89413 0)
(-0.00131687 0.889556 0)
(-0.00187151 0.883484 0)
(-0.00236747 0.875458 0)
(-0.0028023 0.865781 0)
(-0.00309822 0.853817 0)
(-0.00309653 0.840064 0)
(-0.00281488 0.824226 0)
(-0.00216229 0.806417 0)
(-0.00124075 0.786389 0)
(-0.00039634 0.763438 0)
(5.04915e-05 0.73664 0)
(0.000119869 0.704934 0)
(-0.000170098 0.702944 0)
(-0.00010395 0.734397 0)
(0.000491653 0.760814 0)
(0.00147143 0.783579 0)
(0.00244469 0.803841 0)
(0.00308517 0.82196 0)
(0.00323796 0.837911 0)
(0.00299955 0.85179 0)
(0.00264027 0.863524 0)
(0.00225483 0.873461 0)
(0.00180867 0.881471 0)
(0.0013293 0.88757 0)
(0.00082738 0.892085 0)
(0.000379746 0.894954 0)
(0.000116299 0.896378 0)
(-0.00011696 0.896443 0)
(-0.000372943 0.894868 0)
(-0.000718766 0.89195 0)
(-0.0011491 0.887433 0)
(-0.00163247 0.881523 0)
(-0.00213488 0.873429 0)
(-0.00257956 0.863917 0)
(-0.00297357 0.851788 0)
(-0.00316147 0.83797 0)
(-0.00304114 0.821949 0)
(-0.00248537 0.80385 0)
(-0.00156339 0.783555 0)
(-0.000575309 0.760764 0)
(6.13589e-05 0.73435 0)
(0.000158876 0.70291 0)
(-0.000179589 0.700977 0)
(3.65045e-07 0.732031 0)
(0.000798667 0.758081 0)
(0.00182872 0.780919 0)
(0.00266431 0.801425 0)
(0.00312127 0.819835 0)
(0.00314207 0.836048 0)
(0.0027869 0.849982 0)
(0.00229077 0.861564 0)
(0.00183939 0.871434 0)
(0.0014512 0.879394 0)
(0.00106665 0.885435 0)
(0.00068811 0.889894 0)
(0.000312758 0.892685 0)
(8.20298e-05 0.893901 0)
(-7.09713e-05 0.894089 0)
(-0.000267547 0.892464 0)
(-0.000573209 0.889753 0)
(-0.000955587 0.885225 0)
(-0.00133072 0.879526 0)
(-0.00181133 0.871431 0)
(-0.00222723 0.862031 0)
(-0.00264697 0.849938 0)
(-0.00301114 0.836067 0)
(-0.0030416 0.819851 0)
(-0.00266058 0.801467 0)
(-0.00187916 0.780916 0)
(-0.000874775 0.75803 0)
(-5.68939e-05 0.731947 0)
(0.000162431 0.700915 0)
(-0.000127497 0.699023 0)
(0.000244385 0.729554 0)
(0.00118173 0.755434 0)
(0.00214998 0.778431 0)
(0.00276804 0.79925 0)
(0.00293361 0.817931 0)
(0.00272739 0.834308 0)
(0.00229557 0.848269 0)
(0.00173309 0.859703 0)
(0.00123509 0.869423 0)
(0.000940828 0.8773 0)
(0.000734375 0.883324 0)
(0.000549247 0.887695 0)
(0.000335042 0.890421 0)
(0.000135387 0.891419 0)
(-8.71226e-06 0.891716 0)
(-0.00017825 0.890039 0)
(-0.000423735 0.887564 0)
(-0.000754946 0.883001 0)
(-0.00101226 0.87747 0)
(-0.00131986 0.869489 0)
(-0.00168179 0.860095 0)
(-0.00209296 0.848238 0)
(-0.00256627 0.834314 0)
(-0.00281669 0.817957 0)
(-0.00270283 0.799311 0)
(-0.00214095 0.778461 0)
(-0.00122268 0.755399 0)
(-0.000300259 0.729468 0)
(0.000100493 0.698953 0)
(9.66223e-06 0.697063 0)
(0.0005823 0.727098 0)
(0.00155387 0.752895 0)
(0.00237574 0.776168 0)
(0.00271829 0.797332 0)
(0.00254041 0.816249 0)
(0.00204742 0.832674 0)
(0.00150061 0.846546 0)
(0.000976812 0.857894 0)
(0.000562804 0.867405 0)
(0.000377939 0.875154 0)
(0.00035836 0.881161 0)
(0.000391608 0.885517 0)
(0.000386384 0.888203 0)
(0.000221538 0.8891 0)
(4.60415e-05 0.889352 0)
(-0.000115794 0.887703 0)
(-0.000298846 0.885334 0)
(-0.000498012 0.880876 0)
(-0.000620239 0.875274 0)
(-0.000707904 0.867525 0)
(-0.000949745 0.858131 0)
(-0.00133698 0.84654 0)
(-0.00188935 0.832677 0)
(-0.00240072 0.816287 0)
(-0.00260933 0.797407 0)
(-0.00231271 0.776224 0)
(-0.00154336 0.752889 0)
(-0.000611619 0.727019 0)
(-3.60036e-05 0.696967 0)
(0.000177941 0.695048 0)
(0.000917725 0.724663 0)
(0.00184278 0.75053 0)
(0.00245051 0.774175 0)
(0.00243632 0.795689 0)
(0.0018734 0.814743 0)
(0.00114392 0.831055 0)
(0.000568984 0.844717 0)
(0.000190071 0.855974 0)
(-3.18827e-05 0.865335 0)
(-7.74562e-05 0.872975 0)
(2.6168e-05 0.878943 0)
(0.000197349 0.883274 0)
(0.000329962 0.885994 0)
(0.000231231 0.886918 0)
(7.49039e-05 0.887024 0)
(-7.00779e-05 0.885507 0)
(-0.000184613 0.883101 0)
(-0.000196272 0.878774 0)
(-0.000163051 0.873016 0)
(-0.000112022 0.865435 0)
(-0.000200432 0.85608 0)
(-0.000484861 0.844706 0)
(-0.00102859 0.831045 0)
(-0.00174157 0.814773 0)
(-0.00230851 0.795762 0)
(-0.00235072 0.774247 0)
(-0.00178488 0.750545 0)
(-0.000901564 0.724628 0)
(-0.000182316 0.694942 0)
(0.000311551 0.692963 0)
(0.00115929 0.72232 0)
(0.00201813 0.748398 0)
(0.0023179 0.772474 0)
(0.00178911 0.794292 0)
(0.000878919 0.813268 0)
(0.000141245 0.829289 0)
(-0.000259611 0.842697 0)
(-0.000423672 0.853833 0)
(-0.000453867 0.863139 0)
(-0.000375286 0.870728 0)
(-0.000203564 0.876663 0)
(1.57677e-05 0.880974 0)
(0.0001889 0.883718 0)
(0.000181944 0.884798 0)
(8.63895e-05 0.884775 0)
(-3.11781e-05 0.883372 0)
(-6.48319e-05 0.880878 0)
(5.05669e-05 0.876572 0)
(0.000193279 0.870727 0)
(0.000331184 0.863158 0)
(0.000385059 0.853857 0)
(0.000283228 0.842657 0)
(-8.10002e-05 0.829261 0)
(-0.000782717 0.81327 0)
(-0.00166516 0.794349 0)
(-0.00219609 0.772553 0)
(-0.00193167 0.748435 0)
(-0.00111076 0.722294 0)
(-0.000291907 0.692859 0)
(0.00038729 0.690833 0)
(0.00131604 0.720084 0)
(0.00205584 0.746572 0)
(0.00176083 0.771094 0)
(0.000721142 0.793026 0)
(-0.000201213 0.811628 0)
(-0.000684353 0.82725 0)
(-0.000810059 0.840426 0)
(-0.000766191 0.851553 0)
(-0.000659461 0.860821 0)
(-0.000513582 0.868384 0)
(-0.000323642 0.874295 0)
(-0.000104079 0.878643 0)
(7.77253e-05 0.881432 0)
(0.000127035 0.882636 0)
(6.30831e-05 0.882557 0)
(-1.044e-05 0.881228 0)
(2.90227e-05 0.878594 0)
(0.000186576 0.874293 0)
(0.000370095 0.868375 0)
(0.000558239 0.860816 0)
(0.000717549 0.851525 0)
(0.000796815 0.840374 0)
(0.000696441 0.827202 0)
(0.000250283 0.811602 0)
(-0.000623934 0.793053 0)
(-0.00163355 0.771166 0)
(-0.00195239 0.74662 0)
(-0.00125897 0.720067 0)
(-0.000360105 0.69074 0)
(0.000416227 0.688683 0)
(0.00144365 0.717993 0)
(0.00165014 0.745004 0)
(0.000672629 0.77005 0)
(-0.00041404 0.791591 0)
(-0.00102272 0.80961 0)
(-0.0011594 0.824914 0)
(-0.00104106 0.838065 0)
(-0.000850012 0.849197 0)
(-0.000671565 0.85847 0)
(-0.000512217 0.866038 0)
(-0.000349462 0.871927 0)
(-0.000173908 0.876264 0)
(-7.72931e-06 0.879123 0)
(6.54666e-05 0.880408 0)
(2.97725e-05 0.880351 0)
(4.60363e-06 0.87904 0)
(7.81645e-05 0.876293 0)
(0.000229024 0.871981 0)
(0.000402664 0.866028 0)
(0.000592674 0.858448 0)
(0.000801351 0.849146 0)
(0.00100681 0.83802 0)
(0.00113438 0.824863 0)
(0.00102514 0.809571 0)
(0.000467337 0.791571 0)
(-0.000564665 0.770093 0)
(-0.00153436 0.745057 0)
(-0.00138283 0.718002 0)
(-0.000394155 0.688647 0)
(0.000470835 0.686542 0)
(0.00130008 0.716122 0)
(0.000669772 0.743926 0)
(-0.000508055 0.768907 0)
(-0.00125903 0.789644 0)
(-0.00144804 0.807267 0)
(-0.00127784 0.822509 0)
(-0.00098075 0.83563 0)
(-0.000723491 0.846795 0)
(-0.000548278 0.856136 0)
(-0.000423436 0.863727 0)
(-0.00032228 0.869588 0)
(-0.000212 0.873896 0)
(-8.4279e-05 0.876757 0)
(-5.13373e-06 0.878153 0)
(4.67231e-06 0.878133 0)
(2.18677e-05 0.876782 0)
(9.85397e-05 0.874003 0)
(0.000216491 0.869668 0)
(0.000346707 0.863719 0)
(0.000491138 0.856095 0)
(0.000681983 0.846746 0)
(0.000941318 0.835589 0)
(0.00122659 0.82247 0)
(0.00140481 0.807234 0)
(0.00125752 0.789596 0)
(0.000567286 0.768905 0)
(-0.000558621 0.743984 0)
(-0.00121376 0.716144 0)
(-0.000455849 0.686509 0)
(0.000559407 0.684439 0)
(0.000547367 0.714523 0)
(-0.000592028 0.74301 0)
(-0.00138824 0.76713 0)
(-0.001667 0.787346 0)
(-0.00147535 0.804824 0)
(-0.00106718 0.82 0)
(-0.000686143 0.833169 0)
(-0.000467849 0.84449 0)
(-0.000370342 0.853858 0)
(-0.000316506 0.86143 0)
(-0.000280508 0.867263 0)
(-0.000228489 0.871536 0)
(-0.000138889 0.874383 0)
(-6.47103e-05 0.875859 0)
(-2.2089e-05 0.875852 0)
(2.81112e-05 0.8745 0)
(0.000103203 0.871686 0)
(0.000188943 0.867378 0)
(0.000263273 0.861438 0)
(0.00033348 0.853842 0)
(0.000446082 0.844428 0)
(0.000660556 0.833166 0)
(0.00100107 0.819999 0)
(0.00139299 0.8048 0)
(0.0016164 0.787292 0)
(0.00140203 0.767077 0)
(0.000657512 0.743033 0)
(-0.000457049 0.714589 0)
(-0.000525659 0.684409 0)
(9.52781e-05 0.682233 0)
(-0.000647754 0.713424 0)
(-0.00153811 0.741525 0)
(-0.001869 0.764837 0)
(-0.00160815 0.784889 0)
(-0.00109989 0.8023 0)
(-0.000610856 0.817501 0)
(-0.000285802 0.830889 0)
(-0.000195667 0.842331 0)
(-0.00021486 0.851657 0)
(-0.000236297 0.859186 0)
(-0.000256537 0.864954 0)
(-0.000243051 0.869156 0)
(-0.000171877 0.871979 0)
(-0.000109545 0.873499 0)
(-4.8456e-05 0.873501 0)
(2.67332e-05 0.872181 0)
(0.000108269 0.86934 0)
(0.000179721 0.865092 0)
(0.000209201 0.859189 0)
(0.000199284 0.851663 0)
(0.000200711 0.842244 0)
(0.000285455 0.830951 0)
(0.000530048 0.817564 0)
(0.00099017 0.802297 0)
(0.00153029 0.78482 0)
(0.00184122 0.764778 0)
(0.00155258 0.741497 0)
(0.000703369 0.713481 0)
(-4.22546e-05 0.682259 0)
(-0.000672223 0.680436 0)
(-0.00144284 0.712306 0)
(-0.00193237 0.739355 0)
(-0.00180532 0.76231 0)
(-0.00111691 0.78232 0)
(-0.000439411 0.799894 0)
(-6.6068e-05 0.815307 0)
(5.95515e-05 0.828784 0)
(-7.2412e-06 0.840305 0)
(-0.000137767 0.849524 0)
(-0.000212902 0.856971 0)
(-0.00025668 0.862644 0)
(-0.000274564 0.866761 0)
(-0.00020778 0.869512 0)
(-0.000143237 0.871143 0)
(-6.47242e-05 0.871084 0)
(3.5889e-05 0.86982 0)
(0.000134081 0.866947 0)
(0.000210838 0.862804 0)
(0.000210885 0.856943 0)
(0.000137533 0.849567 0)
(2.71486e-05 0.840163 0)
(-5.61599e-05 0.828932 0)
(-2.58497e-05 0.815437 0)
(0.000341221 0.799917 0)
(0.00103723 0.782249 0)
(0.00173724 0.76225 0)
(0.00189601 0.739325 0)
(0.00144053 0.712338 0)
(0.000694465 0.680505 0)
(-0.000964835 0.67926 0)
(-0.00155933 0.710683 0)
(-0.0017151 0.736966 0)
(-0.00117755 0.759759 0)
(-0.000378466 0.779917 0)
(0.000176118 0.797832 0)
(0.000318762 0.813406 0)
(0.00019492 0.826878 0)
(3.69868e-05 0.83839 0)
(-0.000119063 0.847454 0)
(-0.000248446 0.854764 0)
(-0.000292316 0.860346 0)
(-0.000313439 0.864385 0)
(-0.000258544 0.86703 0)
(-0.000171406 0.86879 0)
(-5.17034e-05 0.86861 0)
(6.41625e-05 0.867466 0)
(0.000192095 0.864502 0)
(0.000283556 0.860537 0)
(0.000263936 0.854692 0)
(0.00015725 0.847527 0)
(-6.55807e-05 0.838185 0)
(-0.000270542 0.827124 0)
(-0.000375812 0.813594 0)
(-0.000208938 0.797862 0)
(0.000321472 0.77988 0)
(0.00108843 0.759716 0)
(0.00163749 0.73695 0)
(0.00151337 0.710687 0)
(0.000939064 0.679349 0)
(-0.000723795 0.678203 0)
(-0.00115109 0.708739 0)
(-0.000962415 0.734655 0)
(-0.000289758 0.757488 0)
(0.000270482 0.777917 0)
(0.000478667 0.796078 0)
(0.000363759 0.811768 0)
(8.61858e-05 0.825168 0)
(-8.86691e-05 0.836496 0)
(-0.000179346 0.845467 0)
(-0.000294018 0.852617 0)
(-0.000353339 0.858053 0)
(-0.000375319 0.862055 0)
(-0.000335844 0.864571 0)
(-0.000190586 0.866401 0)
(-3.07865e-05 0.866169 0)
(0.000122374 0.865125 0)
(0.000303104 0.862044 0)
(0.000379715 0.858295 0)
(0.000339154 0.852475 0)
(0.000233477 0.84554 0)