/*--------------------------------*- C++ -*----------------------------------*\
| =========                 |                                                 |
| \\      /  F ield         | OpenFOAM: The Open Source CFD Toolbox           |
|  \\    /   O peration     | Version:  v1606+                                |
|   \\  /    A nd           | Web:      www.OpenFOAM.com                      |
|    \\/     M anipulation  |                                                 |
\*---------------------------------------------------------------------------*/
FoamFile
{
    version     2.0;
    format      ascii;
    class       volScalarField;
    location    "1.17";
    object      Theta.particles;
}
// * * * * * * * * * * * * * * * * * * * * * * * * * * * * * * * * * * * * * //

dimensions      [0 2 -2 0 0 0 0];

internalField   nonuniform List<scalar> 
6000
(
0.00033888
0.000220235
0.000239689
0.000289483
0.000382646
0.000595827
0.000863067
0.00100882
0.000985695
0.00100612
0.000999354
0.000996006
0.00101168
0.00102167
0.00102106
0.000973728
0.000922337
0.000978898
0.00108126
0.00113097
0.00112938
0.000933845
0.000667841
0.000465947
0.00032321
0.000234081
0.000189206
0.000167946
0.000169862
0.000261584
0.000203942
0.000188392
0.000180404
0.00018957
0.000215753
0.000247005
0.000251823
0.000247088
0.000236699
0.000231775
0.000227781
0.000224389
0.000219602
0.000213441
0.000207769
0.000202983
0.000202994
0.000211961
0.000224748
0.000235732
0.000244927
0.00024165
0.000233382
0.00021815
0.000188974
0.000171824
0.000169724
0.000183715
0.000199872
0.000217655
0.000369018
0.000345307
0.000258659
0.000206815
0.000195412
0.000220625
0.000245288
0.00024532
0.000232742
0.00021358
0.000202829
0.00019294
0.000176195
0.000160149
0.000153103
0.00015703
0.000169333
0.000185237
0.000204367
0.000217819
0.00022061
0.000216931
0.000201202
0.000184368
0.000176785
0.000202648
0.000263921
0.000392813
0.000479103
0.000464702
0.000535225
0.000490871
0.000346463
0.000224561
0.000172811
0.000192133
0.000226688
0.00022405
0.000209914
0.000191327
0.000178233
0.000165184
0.000147638
0.000134278
0.000130041
0.000132875
0.000140874
0.000155402
0.000173717
0.000191606
0.000201265
0.000197832
0.000181436
0.000163911
0.000162478
0.000246168
0.000427763
0.00051791
0.000547851
0.000522242
0.000534801
0.000544364
0.000542123
0.00048447
0.000286912
0.00019735
0.000216118
0.000219594
0.000200566
0.000177312
0.000161873
0.000150517
0.000138067
0.000131645
0.000131112
0.000137886
0.000149439
0.000167785
0.000181705
0.000192864
0.000202457
0.000199015
0.000185534
0.000180588
0.000289494
0.000553293
0.000536991
0.000466893
0.000461336
0.000478672
0.000441449
0.000426847
0.000435933
0.000498738
0.000588368
0.000352446
0.000223464
0.000211077
0.000185194
0.000162186
0.000158154
0.000159101
0.000156048
0.000154022
0.000157177
0.000164893
0.000173796
0.000185698
0.000200153
0.000216749
0.000221151
0.000205322
0.000191112
0.000231528
0.000566552
0.00048748
0.000385246
0.00035751
0.000339587
0.000370508
0.000357958
0.00033686
0.000347474
0.000371787
0.000464697
0.000544738
0.000278612
0.00019261
0.000175781
0.000171463
0.000180175
0.000188575
0.000190775
0.000187369
0.000189302
0.000194508
0.000207485
0.000224605
0.000245462
0.00025854
0.000250891
0.000226984
0.000205725
0.000370435
0.00052674
0.000357947
0.000316188
0.000295551
0.000281477
0.000304416
0.000302719
0.000294938
0.00030174
0.000323772
0.000357371
0.000447999
0.000346415
0.000192528
0.000186125
0.000196477
0.000201052
0.000203331
0.000204563
0.000210575
0.000224772
0.000256744
0.000286467
0.000294555
0.000288997
0.000276716
0.000256817
0.000222641
0.000252767
0.000546446
0.000428334
0.000333941
0.000283438
0.000262919
0.000251864
0.000258693
0.000254478
0.000263648
0.00027556
0.00030269
0.000340729
0.000425604
0.000388548
0.000172911
0.000178938
0.000205548
0.000215931
0.000213837
0.000233902
0.00032161
0.000454743
0.000728811
0.000787607
0.00084465
0.000821275
0.000612113
0.000379994
0.00025527
0.000486172
0.000564367
0.000424559
0.000320999
0.000258463
0.000236175
0.000226747
0.000226124
0.000220838
0.000240728
0.000255294
0.000288489
0.000355053
0.000421253
0.000424954
0.000237711
0.000181374
0.000219222
0.000274359
0.000458564
0.000808071
0.000803085
0.000696887
0.000513106
0.000482347
0.00054159
0.000663454
0.000747485
0.000797142
0.000615289
0.000564049
0.000539559
0.000431776
0.000310993
0.000247298
0.000224303
0.000210236
0.000206888
0.000202595
0.000225662
0.000250093
0.000287822
0.000361244
0.000433955
0.000444197
0.000338649
0.000221049
0.000415895
0.000867289
0.000868628
0.000592969
0.000363691
0.000252897
0.000193724
0.000200639
0.000258784
0.000423613
0.000581561
0.00068429
0.000706146
0.000619132
0.000521407
0.000376218
0.000284366
0.000240673
0.00022058
0.000199901
0.000197192
0.000190834
0.000212964
0.000248843
0.00028972
0.000348496
0.000421845
0.00045394
0.000476519
0.000636077
0.000793482
0.000617
0.00042216
0.000261019
0.000187585
0.000141149
0.000115043
0.000113673
0.000169321
0.0003392
0.000564634
0.00067271
0.000757981
0.000685003
0.000436167
0.000296011
0.000225412
0.000204516
0.000195513
0.000176878
0.000184371
0.000172022
0.000186668
0.000221775
0.000254472
0.000300446
0.00038012
0.000473666
0.000617385
0.000748311
0.000752645
0.000526932
0.000314481
0.000190717
0.000132829
0.000103479
8.11016e-05
6.97051e-05
0.000105417
0.000270718
0.000528603
0.000673232
0.000773186
0.000691033
0.00041782
0.000224978
0.000161385
0.000147174
0.000146213
0.000140823
0.000161154
0.000143892
0.000148223
0.000171745
0.000194891
0.000238523
0.000322428
0.000431356
0.000613824
0.000820202
0.000737574
0.000546424
0.000271142
0.000147929
9.86075e-05
7.78859e-05
6.29488e-05
5.28949e-05
7.24484e-05
0.000203469
0.000483672
0.000633426
0.000731376
0.000668417
0.000400068
0.0001676
0.000107207
0.000100112
0.000102261
0.000107066
0.000133622
0.000117129
0.000112032
0.000119077
0.000132826
0.000170278
0.000237139
0.000349372
0.000637415
0.000797619
0.000707218
0.000592677
0.00026977
0.000133528
7.6005e-05
5.84798e-05
5.42407e-05
5.29735e-05
6.82313e-05
0.000166574
0.000428718
0.000565584
0.000661729
0.000602935
0.000369701
0.000135637
7.22589e-05
7.11478e-05
7.46527e-05
8.27492e-05
0.000102587
9.34255e-05
8.50391e-05
8.2102e-05
8.45005e-05
0.00010261
0.000153202
0.000265902
0.000575445
0.000691574
0.000641525
0.000563971
0.000365861
0.000146081
6.16736e-05
5.19384e-05
5.66372e-05
7.36381e-05
9.11586e-05
0.000193938
0.000387845
0.000531684
0.000573611
0.000517391
0.000339873
0.000129252
6.01071e-05
5.90206e-05
5.97721e-05
6.37432e-05
7.53309e-05
7.43524e-05
6.47191e-05
6.36649e-05
6.3015e-05
6.1081e-05
9.8215e-05
0.00021082
0.000454519
0.000576228
0.000571874
0.000509693
0.000369125
0.00022149
0.000120007
8.52034e-05
8.73971e-05
0.000184651
0.000373623
0.000515985
0.000544875
0.000570444
0.000571182
0.000490732
0.000309496
0.000128637
6.98168e-05
6.64101e-05
6.08459e-05
5.64352e-05
6.26505e-05
6.16237e-05
5.99293e-05
6.96163e-05
7.25744e-05
5.89137e-05
6.87033e-05
0.000192067
0.000366307
0.000464113
0.000477331
0.000445386
0.000352587
0.000235891
0.000357008
0.000319437
0.000134795
0.000340568
0.000533101
0.000864182
0.00129855
0.00116175
0.00108105
0.000862613
0.000556243
0.000329319
0.000143001
0.000121161
8.24255e-05
6.25964e-05
6.5633e-05
5.98413e-05
6.43945e-05
0.000117556
0.000216745
0.000156783
0.000193616
0.000466789
0.000396492
0.000429823
0.000441564
0.000403846
0.000364372
0.000457943
0.000795814
0.000505196
0.000237501
0.000210208
0.000386002
0.000494897
0.000746105
0.000981227
0.00103871
0.00116626
0.00104754
0.000703795
0.000582214
0.000502061
0.000143874
7.76427e-05
6.64255e-05
0.000101341
9.10884e-05
0.000481986
0.000695575
0.000697465
0.00075865
0.00102659
0.00103669
0.000804334
0.000812231
0.000760912
0.000817031
0.00124376
0.00103732
0.000346711
0.000165172
0.000169074
0.000325641
0.000429295
0.000521859
0.000617624
0.000678897
0.000643535
0.000588349
0.000410213
0.000372128
0.000302899
0.000274708
0.000129546
8.3516e-05
0.00020482
0.000265203
0.00027378
0.000261434
0.000295271
0.000345866
0.00051168
0.000954538
0.00100021
0.000941467
0.000962375
0.000943605
0.000902594
0.000574643
0.000267958
0.000126837
0.000158729
0.000296872
0.00037993
0.00042527
0.000473409
0.000504442
0.000482325
0.000407767
0.000317096
0.000251029
0.000184248
0.00013536
0.000122706
0.000147986
0.00021668
0.000112618
0.000163525
0.00018451
0.000189774
0.000221408
0.000318893
0.00049366
0.000676364
0.000719979
0.000714601
0.000684934
0.000590066
0.000416244
0.000190277
0.000115575
0.000144662
0.000252378
0.000332799
0.000369757
0.000387273
0.000392603
0.000373663
0.000331959
0.000283303
0.000222112
0.000151655
9.99663e-05
7.17938e-05
0.000113304
8.60479e-05
9.24288e-05
0.000137697
0.000160148
0.000168421
0.000191535
0.000261979
0.000381076
0.000490029
0.00053975
0.000548657
0.000554536
0.000468382
0.000306721
0.000162256
0.000102503
0.000123389
0.000191174
0.000269683
0.000310502
0.000338209
0.00034804
0.000338721
0.000309668
0.000260286
0.000185671
0.000121916
8.94786e-05
6.89875e-05
6.95611e-05
7.38147e-05
9.24542e-05
0.000120443
0.000133194
0.000135397
0.000157312
0.000210181
0.000333512
0.000454907
0.000490698
0.000504843
0.000480203
0.00036258
0.000218964
0.000117236
8.96839e-05
0.000121377
0.000163088
0.000208679
0.000251143
0.000278977
0.000293327
0.000292303
0.000267208
0.000207949
0.000145016
0.000109715
8.49197e-05
7.0431e-05
6.80615e-05
8.33136e-05
9.71861e-05
0.000116906
0.000126458
0.000128904
0.000139325
0.000184656
0.000269463
0.000383125
0.000453295
0.000473975
0.000396526
0.000265238
0.000153982
0.000109523
9.17173e-05
0.000117122
0.000149881
0.000172057
0.000189624
0.000212097
0.000232187
0.00023187
0.000197175
0.000164915
0.00013167
0.000105264
8.624e-05
7.50941e-05
7.31794e-05
0.00010031
0.000104759
0.000122735
0.000131979
0.00013308
0.000136696
0.000154951
0.000216584
0.000314814
0.000365773
0.000373137
0.000311536
0.000207982
0.000140951
0.000108064
9.65436e-05
0.000116494
0.000141224
0.000157205
0.000169747
0.000181217
0.000188677
0.000188121
0.000174826
0.00014982
0.000126424
0.000107266
9.25934e-05
8.38233e-05
8.19917e-05
0.000123173
0.000119583
0.000131845
0.000143074
0.000145051
0.000146162
0.000156775
0.000184256
0.000225393
0.000287247
0.000296042
0.00023709
0.000179819
0.000141866
0.000115347
0.00010556
0.00011925
0.000137384
0.000149296
0.000158654
0.000166454
0.000172561
0.000171728
0.00016156
0.000145054
0.000128307
0.00011323
0.000105077
0.000100396
9.9708e-05
0.000149257
0.000141403
0.000148532
0.00015335
0.0001531
0.000158741
0.000170958
0.000190028
0.000214131
0.000232695
0.000238762
0.00021602
0.000181351
0.0001497
0.000126018
0.000116993
0.00012523
0.000138166
0.000147342
0.000155383
0.000161977
0.000167327
0.000166841
0.000159812
0.000147107
0.000133131
0.000128104
0.000120562
0.000116036
0.000118102
0.000166873
0.000157501
0.00016513
0.000176791
0.00018777
0.000198254
0.000206375
0.000208684
0.000233113
0.000241264
0.000236315
0.000215667
0.000186838
0.000156959
0.000136199
0.00012976
0.000132774
0.000140573
0.000148155
0.000155415
0.000161857
0.000166699
0.000166019
0.00016145
0.000158639
0.000150342
0.000140503
0.000132778
0.000129089
0.000133759
0.000177553
0.000170587
0.000179769
0.000195036
0.000213334
0.000234872
0.000258753
0.000278974
0.000289423
0.00028324
0.000253671
0.000220503
0.000197553
0.00017869
0.000164412
0.000158247
0.00015824
0.00016199
0.000166657
0.000171418
0.000175674
0.000179461
0.000180031
0.000175679
0.00016719
0.000157412
0.000148605
0.00014218
0.000139636
0.000146578
0.00018279
0.000180468
0.000190238
0.000207121
0.000228166
0.00025396
0.000284019
0.000310356
0.000326666
0.000322918
0.000294251
0.00025719
0.000225933
0.000201065
0.00018476
0.000176285
0.000173389
0.000174285
0.000176923
0.00018003
0.000182481
0.000183533
0.000181427
0.000176179
0.000168915
0.000161155
0.000154217
0.000149276
0.000148045
0.000156732
0.000183415
0.000184626
0.00019561
0.000215339
0.000234773
0.000248597
0.000265905
0.000285925
0.000296022
0.000294222
0.000273636
0.000247719
0.000223374
0.000204061
0.000191021
0.000183051
0.000179137
0.000178229
0.000178846
0.000180009
0.000181002
0.000180861
0.000178752
0.000174688
0.000169275
0.000163473
0.000158234
0.000154659
0.0001546
0.00016449
0.000176245
0.000181802
0.00019532
0.000219436
0.000209351
0.000208102
0.000228947
0.000243466
0.000235717
0.000241697
0.000238357
0.000225065
0.000210038
0.000197772
0.000188976
0.000183131
0.000179823
0.000178363
0.000178116
0.000178437
0.000178558
0.000177969
0.000176215
0.000173222
0.000169299
0.000165048
0.000161201
0.000158768
0.000159672
0.000170142
0.000161525
0.000170303
0.000185252
0.000210701
0.000217743
0.000218472
0.000220513
0.000222805
0.000222281
0.000200332
0.000199685
0.000198281
0.000192511
0.000186884
0.000182551
0.000179592
0.000177649
0.000176593
0.000176236
0.000176178
0.000176048
0.000175463
0.000174143
0.000172007
0.000169224
0.000166178
0.000163439
0.000161931
0.000163588
0.00017395
0.000140601
0.000147085
0.00015769
0.000249697
0.000289985
0.000255772
0.000222221
0.000207935
0.000208962
0.000196472
0.000174083
0.000172628
0.000174174
0.000174509
0.000174308
0.000173939
0.000173661
0.000173536
0.000173555
0.000173637
0.000173608
0.000173255
0.000172406
0.000170995
0.000169111
0.000167012
0.000165161
0.000164395
0.000166606
0.00017641
0.00011794
0.000124397
0.000168487
0.000271849
0.000303425
0.000267721
0.000220408
0.000201582
0.00019936
0.00019224
0.000163861
0.000155236
0.00015844
0.000162883
0.000165968
0.000167933
0.000169173
0.000170006
0.000170615
0.000171066
0.000171326
0.000171319
0.000170941
0.000170148
0.00016899
0.00016765
0.00016652
0.000166349
0.000168933
0.00017775
0.000100901
0.000113636
0.000182763
0.000235909
0.000260876
0.000253144
0.000216663
0.00019271
0.000186156
0.00018498
0.000162262
0.000147707
0.000148068
0.000153889
0.000158828
0.000162468
0.000164955
0.000166636
0.000167817
0.000168685
0.000169307
0.000169664
0.000169724
0.000169456
0.000168893
0.000168175
0.00016763
0.000167944
0.000170736
0.000178293
0.000112801
0.000129478
0.000158872
0.000181195
0.000220973
0.000232576
0.000197403
0.000173444
0.000161352
0.000167043
0.000163092
0.000145589
0.000143204
0.000148321
0.000153746
0.000158246
0.000161569
0.000163865
0.000165487
0.000166694
0.000167632
0.000168326
0.000168763
0.000168931
0.000168859
0.000168655
0.000168592
0.000169296
0.000172158
0.000178497
0.000124008
0.000177223
0.000210975
0.000175521
0.000195123
0.000212297
0.000185153
0.000159184
0.000150019
0.000152038
0.00014968
0.000138885
0.000143415
0.000146111
0.00015104
0.000155758
0.000159417
0.000162023
0.000163846
0.00016525
0.000166392
0.000167336
0.000168075
0.0001686
0.000168928
0.000169148
0.000169492
0.000170502
0.000173316
0.000178432
0.000181692
0.000175699
0.000264872
0.000339137
0.000251656
0.000230281
0.000190771
0.000164349
0.000166748
0.000161552
0.000164893
0.000158227
0.000146926
0.000146861
0.000150761
0.000155283
0.000158803
0.000161292
0.000163044
0.000164427
0.000165633
0.000166718
0.000167672
0.000168477
0.000169133
0.000169708
0.000170392
0.000171638
0.000174313
0.00017831
0.000249489
0.000193845
0.000222197
0.000286095
0.000301957
0.000275401
0.000255348
0.000247648
0.000203228
0.000198212
0.00019612
0.000179909
0.000169039
0.000160836
0.000156598
0.000157945
0.000160055
0.000161798
0.000163126
0.000164243
0.00016535
0.000166468
0.000167557
0.000168576
0.000169506
0.000170383
0.000171357
0.000172783
0.000175251
0.000178279
0.00026756
0.000209235
0.000214292
0.000246167
0.000290122
0.000309581
0.000295378
0.00026061
0.000234263
0.000225564
0.000216826
0.000205658
0.000193207
0.000179406
0.000169405
0.000164836
0.000163681
0.000163688
0.000164044
0.000164632
0.000165483
0.000166536
0.000167693
0.000168885
0.000170057
0.000171209
0.00017244
0.000174007
0.000176233
0.000178469
0.00026322
0.000226889
0.000245648
0.00027449
0.000301955
0.000313878
0.000299985
0.000270847
0.000250268
0.000240424
0.000226638
0.000214063
0.000201684
0.000190525
0.0001797
0.000172995
0.000168981
0.0001668
0.000165718
0.000165479
0.000165916
0.000166825
0.000168025
0.00016938
0.000170792
0.000172218
0.000173699
0.000175389
0.000177374
0.000179004
0.000281675
0.000259901
0.000276256
0.000299481
0.000311251
0.000301027
0.00027969
0.000258212
0.000245757
0.000243993
0.000233231
0.000218927
0.000203973
0.00019288
0.000184002
0.000178264
0.000173982
0.00017039
0.000167749
0.00016655
0.000166492
0.000167224
0.000168471
0.00017002
0.000171713
0.000173451
0.000175207
0.00017703
0.00017881
0.000179986
0.000287426
0.000296176
0.00030566
0.000323324
0.000311456
0.000281975
0.000252457
0.000231433
0.000223444
0.000224768
0.00022752
0.000229582
0.000207108
0.000191132
0.000183738
0.000179598
0.000176966
0.000173598
0.000169685
0.000167495
0.000166963
0.000167558
0.000168921
0.000170754
0.000172822
0.000174956
0.00017705
0.00017904
0.000180686
0.000181666
0.000276806
0.000304032
0.000329884
0.000312371
0.000280094
0.000256317
0.000227111
0.000207616
0.000196593
0.00019434
0.000202102
0.000256093
0.000206887
0.000187989
0.000180023
0.000177568
0.000177605
0.000176002
0.000171046
0.000167898
0.000167007
0.000167608
0.000169247
0.000171523
0.000174116
0.000176764
0.000179288
0.000181513
0.000183124
0.000184066
0.000249053
0.000291797
0.000305287
0.000302241
0.000245092
0.000220267
0.000202999
0.000188734
0.000180136
0.000177045
0.000193566
0.000241196
0.000190195
0.000180665
0.00017305
0.000172334
0.000175834
0.000178024
0.000171646
0.000167347
0.000166273
0.000167132
0.000169298
0.000172245
0.000175543
0.000178909
0.000182077
0.000184734
0.000186518
0.000187353
0.000194115
0.000247406
0.00031949
0.000325933
0.000251862
0.00018846
0.000174531
0.00016907
0.000166792
0.000169157
0.000186168
0.000194654
0.000187852
0.000172067
0.000164456
0.000164812
0.000171523
0.000180739
0.000171086
0.000165261
0.000164291
0.000165842
0.000168914
0.000172838
0.000177208
0.000181651
0.000185779
0.000189151
0.000191312
0.000192183
0.000136519
0.000236691
0.000303297
0.000311521
0.000241716
0.000181819
0.000151519
0.000150138
0.000152371
0.000156858
0.000174759
0.000169107
0.000191075
0.000165253
0.000156006
0.000155852
0.000165383
0.000182922
0.000167592
0.00016066
0.000160587
0.000163532
0.000168028
0.00017341
0.00017927
0.000185206
0.000190732
0.000195188
0.00019804
0.000199223
0.000171687
0.000217678
0.000278391
0.000281371
0.000232881
0.000180959
0.000140431
0.000135578
0.000139578
0.00014455
0.000167413
0.000175324
0.000200025
0.000161488
0.00014893
0.000146247
0.000158709
0.000179926
0.00015939
0.000153035
0.000155197
0.000160344
0.00016684
0.000174137
0.000181908
0.000189837
0.000197312
0.000203431
0.000207563
0.000209471
0.000240713
0.000370902
0.000265652
0.000265802
0.00023187
0.000187878
0.000138051
0.000126108
0.000129266
0.000134133
0.000156219
0.000232615
0.000222397
0.00015565
0.000142143
0.000137296
0.000153703
0.000182781
0.000150372
0.000144724
0.000149429
0.000157049
0.000165778
0.000175213
0.000185348
0.000195955
0.000206216
0.000214904
0.000221313
0.000224363
0.000198328
0.000664181
0.000311891
0.000263087
0.00023269
0.000205017
0.000140575
0.000119404
0.000121273
0.000128277
0.000161265
0.000252509
0.000225866
0.000144005
0.000133942
0.000130645
0.000149995
0.000177343
0.000143901
0.000138642
0.000145335
0.000154716
0.00016526
0.000176891
0.000189945
0.000204239
0.000218556
0.000231305
0.000242312
0.000245905
0.000239479
0.000585018
0.000311366
0.000248375
0.000229091
0.000213467
0.000153247
0.00011637
0.000115436
0.000126147
0.000160759
0.000221333
0.000211692
0.000132516
0.00012587
0.000124347
0.000141539
0.000174936
0.000144619
0.000138727
0.000144507
0.000153698
0.000165313
0.000179303
0.000196068
0.0002155
0.000236061
0.000255712
0.00027388
0.000274721
0.000255663
0.000478591
0.00031316
0.00022156
0.000210071
0.000204939
0.000160512
0.00011777
0.000111143
0.000122238
0.000147758
0.00019893
0.000199704
0.000125989
0.0001228
0.000124439
0.000142283
0.000165619
0.00015323
0.000145505
0.000144896
0.000152468
0.000165241
0.000182203
0.000204263
0.000231409
0.000258053
0.00028597
0.000323196
0.0003058
0.000273829
0.000341361
0.000271042
0.000198812
0.000196472
0.000186564
0.000149899
0.000117208
0.000109583
0.000116063
0.000134068
0.00018255
0.000191727
0.000123337
0.000127595
0.000140369
0.000155765
0.000153429
0.000164428
0.000145552
0.00014113
0.000148937
0.000164162
0.000185049
0.000214806
0.000250084
0.000274725
0.000539693
0.00124393
0.00101739
0.00043236
0.000259303
0.000212058
0.000188509
0.000180993
0.000189535
0.000149294
0.000117256
0.000109954
0.000112038
0.000127231
0.000165025
0.000187571
0.000124557
0.000132491
0.000139895
0.000147859
0.000162829
0.000156995
0.000134035
0.000131503
0.000143134
0.000161791
0.000188107
0.000223333
0.00025964
0.000339246
0.000588853
0.00119064
0.00722728
0.000585369
0.000233924
0.000187309
0.000186564
0.000192761
0.000209902
0.00017567
0.00013779
0.000119494
0.000113268
0.000121666
0.000151846
0.000170454
0.000122262
0.000127207
0.000145811
0.00016415
0.000158182
0.000137632
0.000113283
0.000120849
0.000137272
0.000158344
0.000186694
0.000212183
0.000192612
0.000365275
0.000536584
0.0011604
0.00824208
0.000871204
0.000252357
0.000176975
0.000184325
0.000209647
0.000230901
0.000245213
0.000251515
0.00016598
0.00011955
0.000119716
0.000147493
0.000156248
0.000116764
0.00012294
0.000153165
0.000418802
0.000729508
0.000255841
0.000101828
0.000113547
0.00013191
0.000153927
0.000178111
0.000165793
0.000173453
0.000244591
0.000697611
0.00339254
0.0149666
0.00118305
0.000476392
0.000192834
0.000220729
0.000332516
0.000497014
0.00126905
0.00327238
0.00185914
0.000329136
0.000136487
0.000162789
0.000142043
0.000104355
0.000107329
0.000111879
0.000258141
0.00108174
0.000712798
0.000128073
0.000112855
0.000128419
0.000146593
0.000156627
0.000126588
0.000141136
0.000330975
0.001886
0.0100823
0.0222134
0.0021818
0.00113375
0.000510672
0.000888618
0.00240425
0.00669209
0.0108524
0.00998604
0.0111944
0.00816003
0.0026366
0.00307456
0.00165356
0.00025532
9.52765e-05
8.75364e-05
0.00023006
0.00045324
0.000370756
0.000132821
0.000121194
0.000130313
0.000138461
0.000134524
0.000100023
0.00014049
0.000754577
0.00404171
0.0166729
0.0276174
0.00825406
0.00529575
0.00370406
0.00716277
0.0114597
0.00930958
0.00375704
0.00151085
0.00157789
0.00428741
0.00683506
0.00648932
0.00597119
0.00512921
0.000546639
0.000363225
0.000899926
0.000547974
0.00022227
0.000138614
0.000137425
0.000134871
0.000131785
0.000113229
9.0822e-05
0.000255275
0.00146048
0.0064897
0.0186177
0.0295728
0.0201362
0.0184509
0.0176327
0.0135263
0.00376578
0.0013343
0.000930279
0.000846093
0.000832268
0.000868333
0.00101924
0.000945312
0.00103663
0.002945
0.00563751
0.00469083
0.00166373
0.000370843
0.000147007
0.000135678
0.000142649
0.000134237
0.000121943
9.23366e-05
0.000104835
0.000572593
0.00241948
0.00825071
0.018795
0.0301945
0.0231637
0.0203235
0.0131269
0.00330382
0.00127117
0.000928573
0.000825905
0.000802831
0.000811225
0.000832731
0.00085244
0.000850023
0.000818573
0.000788763
0.00207842
0.00171191
0.000506643
0.000227215
0.000100383
0.000113603
0.000126097
0.000122227
0.000108468
8.19389e-05
0.000250911
0.00134633
0.00352333
0.00856606
0.018325
0.0304479
0.0228769
0.018542
0.00721392
0.00180401
0.00104978
0.000872617
0.000815398
0.00082999
0.00086615
0.000914096
0.000923801
0.000893951
0.000838048
0.000768083
0.000786866
0.000729077
0.000418975
0.000147832
8.17377e-05
0.000101553
0.000112502
0.000110875
9.79821e-05
0.00011293
0.000808636
0.00239592
0.00404121
0.0080393
0.0176108
0.0303246
0.0216428
0.0151538
0.00362118
0.0013898
0.00100095
0.000894284
0.000919603
0.00092977
0.000943373
0.000954881
0.000941223
0.000895774
0.000845715
0.000776126
0.000756866
0.000908617
0.000413692
9.42052e-05
7.9686e-05
9.50039e-05
0.000104528
0.000105316
9.44557e-05
0.000404799
0.00153642
0.00286056
0.00413438
0.0075805
0.0167519
0.0298581
0.0189633
0.00995251
0.00223549
0.00129244
0.00105293
0.00104675
0.00099455
0.000959245
0.000962128
0.000961647
0.000942457
0.000889883
0.000846431
0.000772368
0.000695067
0.00114857
0.000462046
7.89666e-05
7.81346e-05
9.13608e-05
0.000100826
0.000102563
0.000126927
0.000824076
0.00173944
0.00309023
0.00415204
0.00716859
0.0158765
0.0291316
0.0140505
0.00459965
0.00183587
0.00134511
0.00122987
0.00110439
0.0010049
0.000964848
0.000962007
0.000953858
0.000930031
0.000879896
0.000820591
0.000759437
0.000666362
0.0012279
0.00052976
7.73553e-05
7.77419e-05
9.01209e-05
0.000100453
9.91123e-05
0.000264754
0.000822046
0.00185309
0.00338026
0.00423662
0.00698588
0.0150281
0.028229
0.00784141
0.00292558
0.00181743
0.00151176
0.00128816
0.00111455
0.00100883
0.000957019
0.00093476
0.000921506
0.000894706
0.000853684
0.000785234
0.000737451
0.000655599
0.00118363
0.000651522
8.06321e-05
8.1451e-05
9.25777e-05
0.00010012
9.76456e-05
0.000437459
0.00107002
0.00244198
0.00356757
0.00435211
0.00694874
0.0142972
0.027173
0.00419871
0.00268088
0.00189826
0.00154617
0.00130648
0.00112576
0.000997246
0.000917965
0.000888961
0.000875048
0.000853056
0.000810924
0.000759764
0.000727087
0.000653441
0.000958076
0.000816569
9.82077e-05
9.14097e-05
9.96184e-05
0.00010284
0.000145351
0.000583095
0.00162848
0.00292517
0.00364252
0.00450223
0.00702429
0.0136763
0.0258771
0.00363199
0.00269378
0.00180656
0.00151033
0.001319
0.00112672
0.000958605
0.000872468
0.000846644
0.000826329
0.000805691
0.000772387
0.000744655
0.00072627
0.000662353
0.000907589
0.000857937
0.000118416
0.000105472
0.000110834
0.000105615
0.000302923
0.00109799
0.00235885
0.00313797
0.00375994
0.00472299
0.00720414
0.0131649
0.0242224
0.00489515
0.00260262
0.00161823
0.00148655
0.00132237
0.00109552
0.000916743
0.000820554
0.000792794
0.000774493
0.00075906
0.000744047
0.000734459
0.000730719
0.000687606
0.000909552
0.000732598
0.000116595
0.000116469
0.000118742
0.000114038
0.000618092
0.00188366
0.00270721
0.00340613
0.00394264
0.004991
0.00744058
0.0127136
0.0221884
0.00613869
0.00240222
0.00157201
0.00147609
0.00128159
0.00104069
0.0008493
0.000756594
0.000730893
0.000719535
0.000718109
0.000722591
0.000730141
0.000732302
0.000706564
0.000945342
0.000677761
0.000108208
0.000121148
0.000124153
0.000192336
0.00146945
0.00220084
0.00285481
0.00367638
0.00416002
0.00528669
0.00775606
0.0123496
0.0200161
0.00640495
0.00231835
0.00153021
0.00140483
0.00119308
0.000947967
0.000768743
0.000695706
0.000678755
0.000677473
0.00068616
0.000705465
0.000725321
0.000738643
0.000722195
0.000948779
0.00079298
0.000117428
0.000123674
0.000147058
0.00074302
0.00209487
0.00212001
0.00304279
0.00394371
0.00446001
0.00559334
0.00804486
0.0121063
0.0180913
0.00874183
0.0023441
0.00143119
0.00128528
0.00107518
0.0008504
0.000704978
0.000648241
0.000639674
0.00064407
0.00066076
0.00069116
0.000717677
0.000745634
0.000737731
0.000871152
0.00167546
0.00019629
0.000141073
0.000313586
0.00250033
0.00213685
0.0016854
0.00307417
0.00409387
0.00480086
0.00587164
0.0081635
0.0117678
0.0164131
0.0106604
0.00233435
0.00135698
0.00118865
0.000971795
0.000771887
0.000649509
0.000605118
0.000602326
0.000611932
0.000639875
0.000674969
0.000710955
0.000746114
0.000742324
0.000751459
0.00375098
0.000709599
0.000291339
0.00172862
0.00253453
0.00115975
0.00147824
0.00269376
0.00410606
0.00513845
0.00614214
0.00818266
0.0112672
0.0148489
0.0109628
0.00234158
0.0013224
0.00109839
0.000878875
0.000700222
0.000593265
0.000560914
0.000563819
0.000581515
0.000618102
0.000657699
0.000698414
0.00072639
0.000725142
0.00064691
0.000902856
0.0031003
0.00136596
0.00301714
0.0014511
0.000699238
0.00114595
0.00222403
0.00397988
0.00541064
0.00640834
0.00814392
0.0107191
0.0133488
0.0109261
0.00237737
0.00126657
0.000992062
0.000788549
0.000632862
0.000542225
0.000520638
0.000528619
0.000555037
0.000594852
0.000636564
0.000669476
0.000692163
0.000683537
0.000626939
0.000456657
0.000766974
0.00238472
0.00184989
0.00076339
0.000569375
0.000894653
0.00172433
0.00369961
0.00555374
0.00666889
0.00810681
0.0101893
0.011922
0.0105529
0.0022938
0.00114669
0.000893469
0.000717617
0.000578424
0.000502104
0.00048704
0.000497763
0.000527729
0.000569814
0.000607069
0.00063389
0.000643036
0.000630022
0.000554966
0.000442807
0.000508292
0.00134285
0.00126139
0.000610138
0.000482942
0.00068589
0.00136742
0.00331739
0.00561876
0.00692027
0.00810203
0.00971646
0.0106878
0.00968102
0.00202762
0.00102345
0.000819623
0.000661037
0.000533705
0.000468053
0.000457202
0.000469005
0.000499461
0.000540014
0.00056911
0.000589317
0.00059129
0.000566203
0.000494361
0.000451265
0.000611434
0.00135273
0.00115003
0.00049974
0.000435622
0.000571787
0.0011037
0.00294736
0.00566093
0.00717204
0.00817578
0.00934947
0.00980553
0.00851965
0.00171594
0.000926193
0.000751982
0.000604046
0.000491329
0.000435833
0.000428463
0.000440756
0.000471439
0.000503822
0.000529095
0.000536125
0.000530754
0.00048829
0.000437708
0.000479211
0.000768286
0.00133201
0.000912172
0.000452081
0.000417396
0.00052175
0.000922777
0.00261913
0.00569324
0.00740382
0.00832522
0.00911131
0.00935314
0.00748837
0.0014764
0.000835053
0.000678123
0.000545523
0.000450123
0.00040583
0.000401611
0.000413373
0.000441591
0.000467688
0.000482572
0.000482682
0.000464426
0.000403271
0.000424691
0.000539546
0.000966503
0.00115665
0.000755122
0.000441565
0.000415613
0.000507551
0.000807991
0.00230492
0.00569688
0.0075587
0.00849767
0.00900149
0.0093867
0.00672193
0.00127739
0.000741812
0.000603236
0.000487944
0.000409825
0.000376953
0.000375764
0.000386238
0.000409921
0.000429916
0.000433837
0.000426207
0.000386739
0.000375158
0.00042872
0.000636302
0.00105066
0.00105001
0.000690393
0.000470694
0.000435353
0.000512422
0.000760071
0.00200869
0.00560398
0.00761471
0.00867463
0.00901922
0.00984426
0.00606337
0.00109248
0.000652613
0.000531528
0.000432228
0.000371334
0.000348262
0.000347569
0.000356425
0.000375769
0.000384145
0.000381308
0.000356628
0.0003339
0.000366516
0.00047645
0.000804691
0.00106991
0.000956299
0.00068488
0.000520609
0.000459878
0.000547883
0.000748383