/*--------------------------------*- C++ -*----------------------------------*\
| =========                 |                                                 |
| \\      /  F ield         | OpenFOAM: The Open Source CFD Toolbox           |
|  \\    /   O peration     | Version:  v1606+                                |
|   \\  /    A nd           | Web:      www.OpenFOAM.com                      |
|    \\/     M anipulation  |                                                 |
\*---------------------------------------------------------------------------*/
FoamFile
{
    version     2.0;
    format      ascii;
    class       volScalarField;
    location    "0.32";
    object      alpha.particlesMean;
}
// * * * * * * * * * * * * * * * * * * * * * * * * * * * * * * * * * * * * * //

dimensions      [0 0 0 0 0 0 0];

internalField   nonuniform List<scalar> 
6000
(
0.415212
0.418993
0.415295
0.413886
0.41069
0.408453
0.404908
0.401878
0.399138
0.39741
0.396812
0.3964
0.395411
0.394905
0.394054
0.394617
0.394974
0.395788
0.396111
0.396435
0.397644
0.399725
0.402212
0.405347
0.40845
0.410951
0.414211
0.41594
0.419408
0.414839
0.391594
0.394407
0.391557
0.390125
0.388078
0.387053
0.385985
0.385308
0.384576
0.38405
0.383677
0.383431
0.383305
0.383196
0.383125
0.383224
0.38327
0.383313
0.383424
0.383622
0.383924
0.384449
0.385201
0.385891
0.386972
0.388035
0.39002
0.391602
0.394235
0.39115
0.390415
0.401103
0.396303
0.397333
0.395917
0.394781
0.393299
0.392422
0.391547
0.390966
0.390505
0.39013
0.389966
0.389804
0.389804
0.389729
0.389864
0.389958
0.390203
0.390561
0.390882
0.391441
0.392337
0.3934
0.394811
0.396043
0.397453
0.396531
0.400867
0.390197
0.379433
0.392008
0.389088
0.39212
0.392444
0.392431
0.391864
0.391882
0.391813
0.391938
0.392105
0.392251
0.392442
0.392543
0.392649
0.392568
0.392577
0.392377
0.39224
0.39208
0.391797
0.391623
0.391652
0.391862
0.392384
0.392524
0.392185
0.389024
0.391457
0.378955
0.366638
0.379244
0.380123
0.384631
0.386061
0.386279
0.385189
0.384497
0.384829
0.385768
0.386975
0.388031
0.388863
0.389486
0.389874
0.389813
0.389481
0.388777
0.387932
0.386846
0.385576
0.384661
0.384398
0.385392
0.386575
0.386356
0.384796
0.379926
0.378354
0.365632
0.356869
0.370867
0.376744
0.383579
0.385934
0.386066
0.384288
0.381523
0.379918
0.379634
0.380331
0.381446
0.382611
0.383605
0.384277
0.384196
0.383568
0.382509
0.381372
0.380266
0.379565
0.379956
0.381792
0.384777
0.38655
0.386349
0.38394
0.376743
0.369968
0.355612
0.350977
0.36851
0.378115
0.385963
0.388385
0.387789
0.385743
0.382836
0.380315
0.3786
0.377922
0.378161
0.378904
0.379785
0.380466
0.380376
0.379753
0.378824
0.378154
0.37797
0.378668
0.380452
0.38314
0.386023
0.388066
0.388662
0.386219
0.378144
0.367682
0.349664
0.347967
0.367715
0.379302
0.387441
0.389502
0.387558
0.383555
0.379755
0.377184
0.375269
0.374036
0.373609
0.373831
0.374309
0.374767
0.374695
0.374294
0.373757
0.373605
0.374092
0.375314
0.377255
0.379875
0.383771
0.387945
0.389872
0.387669
0.379142
0.366786
0.346598
0.342878
0.362084
0.376114
0.387062
0.390589
0.388447
0.38246
0.375473
0.370047
0.366803
0.364543
0.363255
0.362649
0.362483
0.362558
0.362516
0.362474
0.362584
0.363243
0.364567
0.366833
0.37016
0.375738
0.382844
0.388916
0.390989
0.387161
0.37566
0.360995
0.341514
0.333019
0.351406
0.366851
0.380635
0.388875
0.389538
0.383367
0.373938
0.364333
0.357626
0.353249
0.350593
0.348901
0.347921
0.347528
0.347511
0.347923
0.348869
0.350554
0.353186
0.357626
0.364476
0.374321
0.38385
0.38993
0.388965
0.380167
0.366052
0.350235
0.331752
0.320581
0.338988
0.355305
0.371058
0.384137
0.390887
0.386531
0.374885
0.360094
0.349911
0.343626
0.339736
0.337393
0.335967
0.335354
0.335358
0.335986
0.337395
0.339681
0.343528
0.349852
0.36027
0.37541
0.387201
0.391301
0.384
0.370451
0.354445
0.337922
0.319542
0.310073
0.33
0.348219
0.368116
0.385616
0.396301
0.394217
0.38058
0.362902
0.35046
0.342097
0.336121
0.332958
0.33127
0.330536
0.330544
0.331295
0.332976
0.336075
0.342032
0.350453
0.36317
0.381237
0.39498
0.396727
0.385438
0.367493
0.347361
0.329076
0.309229
0.309992
0.332048
0.351262
0.373773
0.394391
0.409052
0.409588
0.394897
0.375558
0.361913
0.352493
0.344953
0.340295
0.338172
0.33726
0.337269
0.338191
0.3403
0.344885
0.352418
0.361897
0.37583
0.395617
0.410325
0.409311
0.394027
0.373038
0.350388
0.33117
0.309169
0.31914
0.341418
0.358856
0.380943
0.402926
0.421118
0.425506
0.411081
0.390588
0.376797
0.367466
0.35969
0.35402
0.351215
0.350073
0.35007
0.351199
0.353955
0.359558
0.367316
0.376708
0.39079
0.411771
0.426173
0.421122
0.402336
0.380131
0.35804
0.340634
0.31839
0.331057
0.352708
0.367813
0.388033
0.409749
0.430205
0.439512
0.426216
0.405522
0.392249
0.38327
0.375854
0.369985
0.366681
0.365379
0.365371
0.366649
0.369899
0.375724
0.383122
0.392168
0.40573
0.426926
0.440123
0.429968
0.409046
0.387275
0.367141
0.352073
0.330442
0.344252
0.365459
0.378453
0.39626
0.416598
0.43848
0.452595
0.440886
0.420648
0.40791
0.399238
0.392203
0.386652
0.383133
0.381715
0.38171
0.383124
0.386616
0.392136
0.399162
0.407901
0.420915
0.441634
0.453207
0.438176
0.415953
0.395674
0.377988
0.365
0.343772
0.358594
0.379874
0.391323
0.407001
0.425485
0.447678
0.464847
0.454625
0.435358
0.423077
0.414665
0.407942
0.402857
0.399499
0.39806
0.398066
0.399536
0.402897
0.407963
0.414689
0.42316
0.435675
0.455356
0.465435
0.447484
0.425008
0.406619
0.391043
0.379578
0.35823
0.374014
0.395678
0.406176
0.419923
0.436465
0.458074
0.476304
0.467432
0.44944
0.437675
0.429587
0.423189
0.418582
0.415674
0.414411
0.414437
0.415757
0.418698
0.423296
0.429699
0.437841
0.449822
0.468186
0.476886
0.458084
0.436203
0.419691
0.406028
0.395507
0.373775
0.390571
0.41202
0.421981
0.434032
0.448925
0.469607
0.486918
0.478971
0.462839
0.451816
0.44413
0.438151
0.434054
0.431662
0.430677
0.43072
0.431785
0.434234
0.438332
0.444313
0.452059
0.463312
0.479703
0.487439
0.469749
0.448886
0.433916
0.421888
0.411909
0.390467
0.408099
0.427999
0.437486
0.448068
0.461772
0.480384
0.495723
0.489501
0.475829
0.465581
0.458305
0.452828
0.449271
0.44734
0.446608
0.446665
0.447488
0.449498
0.453064
0.458545
0.465898
0.476427
0.490344
0.496221
0.480583
0.46192
0.448013
0.437371
0.427854
0.408047
0.425786
0.442609
0.451471
0.460614
0.472679
0.488302
0.503169
0.499663
0.488647
0.479038
0.472071
0.467111
0.464071
0.462511
0.461961
0.462024
0.462675
0.464331
0.467399
0.472373
0.479456
0.489392
0.500615
0.503615
0.48885
0.473205
0.46074
0.451312
0.442396
0.4257
0.442723
0.455241
0.463028
0.469257
0.482354
0.497438
0.511103
0.510812
0.501696
0.492224
0.485417
0.480948
0.478335
0.477042
0.476608
0.476674
0.477221
0.478621
0.48129
0.485798
0.492742
0.502524
0.511715
0.511519
0.498269
0.48305
0.469703
0.462862
0.454942
0.442529
0.457952
0.466099
0.468425
0.477121
0.493631
0.50822
0.520707
0.522922
0.514719
0.505051
0.498385
0.494312
0.492004
0.490877
0.490504
0.490571
0.491065
0.492306
0.49469
0.498828
0.505601
0.515399
0.523536
0.521286
0.509131
0.494073
0.477936
0.468462
0.465697
0.457595
0.470439
0.469872
0.473348
0.487609
0.503233
0.51921
0.530727
0.533609
0.526537
0.517289
0.510937
0.50718
0.505084
0.504044
0.503679
0.503746
0.50423
0.505385
0.507564
0.511383
0.517775
0.52696
0.533872
0.531281
0.519973
0.503929
0.488233
0.473837
0.46926
0.469909
0.477864
0.470238
0.4826
0.498039
0.514421
0.530375
0.539687
0.541401
0.536089
0.528355
0.52276
0.519375
0.517422
0.516396
0.516001
0.516062
0.516566
0.517699
0.519728
0.52316
0.528726
0.536305
0.541457
0.539997
0.531009
0.515341
0.49846
0.483328
0.469906
0.47713
0.481517
0.476672
0.494201
0.509157
0.527939
0.540925
0.546382
0.546874
0.543368
0.53778
0.533288
0.530363
0.528562
0.527539
0.527118
0.527172
0.527689
0.528806
0.530672
0.533621
0.538053
0.543474
0.546867
0.546488
0.541343
0.52892
0.510028
0.494886
0.476863
0.480827
0.485178
0.488115
0.507766
0.525234
0.540944
0.548614
0.551087
0.550996
0.548903
0.545303
0.541971
0.539539
0.537943
0.537007
0.536646
0.536689
0.537136
0.538152
0.53979
0.542221
0.545496
0.548942
0.551001
0.551129
0.548821
0.541613
0.526497
0.508725
0.488601
0.484778
0.492475
0.50295
0.525413
0.540883
0.550214
0.553805
0.55476
0.554411
0.553074
0.550791
0.548356
0.54645
0.545282
0.544757
0.544567
0.544588
0.544869
0.54543
0.54661
0.548476
0.550879
0.553052
0.554417
0.554797
0.553913
0.550547
0.541702
0.526545
0.503985
0.4928
0.504416
0.523913
0.541484
0.551345
0.556122
0.557657
0.557859
0.557117
0.555741
0.553836
0.55192
0.550794
0.55047
0.550521
0.550591
0.550591
0.550619
0.550558
0.550875
0.55189
0.553782
0.555658
0.557078
0.557853
0.557695
0.556246
0.551732
0.542261
0.525127
0.505188
0.519315
0.541761
0.552447
0.557655
0.559982
0.560511
0.559868
0.55815
0.555842
0.553409
0.552312
0.552513
0.553229
0.553757
0.554068
0.554056
0.55383
0.553273
0.552541
0.552214
0.553254
0.555674
0.558042
0.559803
0.560493
0.560013
0.5578
0.552856
0.542533
0.520198
0.533175
0.552905
0.558877
0.561376
0.562414
0.561718
0.559272
0.555379
0.551629
0.548571
0.550144
0.551968
0.553698
0.554698
0.555165
0.555169
0.554758
0.553745
0.552007
0.550102
0.548509
0.551329
0.555146
0.559105
0.561634
0.562407
0.56143
0.55903
0.553282
0.53396
0.544266
0.55925
0.562382
0.563503
0.563043
0.559589
0.553391
0.546745
0.543161
0.541344
0.546751
0.550556
0.553408
0.554739
0.55528
0.555297
0.554797
0.553489
0.55069
0.54681
0.541384
0.542835
0.546407
0.553053
0.559339
0.562945
0.563515
0.562425
0.559375
0.544769
0.551203
0.562279
0.564184
0.564363
0.560172
0.55178
0.54237
0.535113
0.53406
0.535608
0.543717
0.549743
0.553399
0.554922
0.555495
0.55551
0.554973
0.553496
0.549942
0.543927
0.53584
0.533916
0.534689
0.541859
0.551425
0.559859
0.564259
0.564185
0.562309
0.551526
0.555814
0.563929
0.565105
0.56156
0.551995
0.539594
0.529383
0.525655
0.528603
0.533293
0.542078
0.549669
0.553742
0.555346
0.555903
0.555911
0.555378
0.553827
0.549884
0.542413
0.533661
0.528793
0.525394
0.528918
0.539002
0.551549
0.561239
0.565078
0.563922
0.556004
0.559416
0.564927
0.562937
0.553343
0.539396
0.525289
0.519375
0.521123
0.528301
0.534462
0.541641
0.550218
0.554323
0.555897
0.556397
0.556393
0.555899
0.554378
0.550427
0.542191
0.534771
0.528713
0.521227
0.519145
0.524806
0.538757
0.55295
0.562604
0.564893
0.559474
0.562309
0.563426
0.555189
0.541451
0.524874
0.516152
0.515382
0.521688
0.531436
0.537614
0.542124
0.551088
0.554979
0.556403
0.556812
0.556796
0.556371
0.554986
0.551296
0.542778
0.537825
0.531917
0.5222
0.515395
0.515672
0.524447
0.540808
0.55481
0.563129
0.562259
0.562787
0.555134
0.545034
0.528365
0.514475
0.510954
0.515997
0.526209
0.536394
0.541702
0.544717
0.552186
0.555659
0.556785
0.557048
0.557021
0.556715
0.555611
0.552345
0.545016
0.541823
0.53679
0.526917
0.516507
0.510751
0.514319
0.527932
0.54459
0.554685
0.562531
0.558889
0.545533
0.533633
0.51639
0.50946
0.511968
0.521762
0.533008
0.541534
0.545588
0.547701
0.55335
0.556141
0.556852
0.556944
0.556912
0.556746
0.556034
0.553425
0.547834
0.545582
0.541738
0.533659
0.522472
0.512235
0.50954
0.516261
0.533494
0.545171
0.558479
0.551778
0.535667
0.522892
0.510654
0.512926
0.519297
0.530023
0.539846
0.545902
0.548827
0.550464
0.554359
0.556223
0.556472
0.55637
0.55634
0.556316
0.556055
0.554308
0.550419
0.548672
0.545895
0.540125
0.530665
0.519925
0.513071
0.510083
0.52305
0.535766
0.551401
0.543047
0.523109
0.522382
0.517595
0.523302
0.531342
0.54029
0.546577
0.549679
0.551506
0.552659
0.554965
0.555747
0.555506
0.555281
0.555254
0.555288
0.555498
0.554711
0.552401
0.551121
0.549301
0.546261
0.540367
0.53117
0.522571
0.516838
0.522384
0.524365
0.543012
0.534413
0.520892
0.530238
0.532618
0.539147
0.544872
0.549497
0.552137
0.553013
0.553603
0.554037
0.554799
0.554824
0.554689
0.554591
0.554557
0.554497
0.554527
0.554311
0.553484
0.552914
0.552224
0.551246
0.548683
0.544085
0.537896
0.531651
0.529924
0.520907
0.534386
0.526461
0.52573
0.539078
0.546187
0.551884
0.55403
0.555159
0.555458
0.555093
0.554369
0.553907
0.554017
0.554204
0.554511
0.554575
0.554539
0.554338
0.55388
0.553442
0.553037
0.553292
0.553958
0.554255
0.554023
0.553135
0.551242
0.545731
0.538996
0.526202
0.526485
0.525398
0.535923
0.549717
0.556067
0.558328
0.558057
0.557451
0.556407
0.55445
0.552647
0.552617
0.553336
0.554084
0.554644
0.554882
0.554868
0.554546
0.553805
0.552724
0.551577
0.551073
0.553027
0.55513
0.556214
0.557137
0.558021
0.55593
0.549384
0.535802
0.52555
0.533381
0.549057
0.558132
0.560892
0.560253
0.558451
0.556401
0.553382
0.550137
0.549252
0.550986
0.552853
0.554225
0.554971
0.555272
0.555294
0.554996
0.554134
0.55237
0.549972
0.547372
0.54834
0.551642
0.554909
0.55721
0.559917
0.56083
0.55801
0.54852
0.533673
0.542657
0.557796
0.562259
0.562433
0.559777
0.556126
0.551228
0.5459
0.543252
0.546363
0.549801
0.552946
0.55461
0.555348
0.555629
0.555674
0.555457
0.554697
0.552778
0.549034
0.544918
0.541351
0.543758
0.549274
0.554235
0.558838
0.562215
0.562236
0.557618
0.542714
0.549982
0.561853
0.563654
0.561566
0.556683
0.549691
0.54187
0.536892
0.537626
0.544594
0.549722
0.553396
0.55502
0.555684
0.555941
0.556002
0.555855
0.555251
0.553507
0.549347
0.543878
0.536199
0.535402
0.540131
0.54772
0.554974
0.560738
0.563582
0.561858
0.549985
0.555695
0.563568
0.563076
0.557585
0.549085
0.539043
0.531261
0.530378
0.53564
0.543944
0.550186
0.553866
0.555346
0.555927
0.556168
0.556243
0.556153
0.555706
0.554245
0.550247
0.543846
0.534914
0.529534
0.530216
0.53743
0.547277
0.556216
0.562274
0.563556
0.555731
0.559767
0.563426
0.55829
0.549243
0.538351
0.527413
0.522977
0.528088
0.536516
0.54394
0.550803
0.554242
0.555581
0.556096
0.556316
0.556407
0.55638
0.556079
0.554891
0.551343
0.544282
0.536455
0.527873
0.522738
0.526636
0.536849
0.547737
0.557189
0.562801
0.559861
0.561656
0.557752
0.550101
0.539238
0.527182
0.518429
0.521024
0.530701
0.539014
0.544829
0.551558
0.554605
0.555729
0.556156
0.556366
0.556469
0.556485
0.556317
0.555473
0.552512
0.545462
0.539418
0.530984
0.521337
0.518128
0.52619
0.537928
0.549002
0.556687
0.561403
0.559435
0.54931
0.54146
0.529371
0.517599
0.516396
0.525053
0.536246
0.542479
0.546626
0.552414
0.554861
0.55575
0.556132
0.556354
0.556452
0.556478
0.556385
0.555866
0.553674
0.547427
0.543214
0.536891
0.525792
0.516687
0.516823
0.528071
0.540498
0.548371
0.558771
0.553421
0.541067
0.5341
0.520709
0.516012
0.521406
0.532255
0.541642
0.545805
0.548615
0.553104
0.554934
0.555746
0.556147
0.556408
0.556476
0.556466
0.556345
0.556026
0.554589
0.549888
0.546945
0.542628
0.533154
0.522638
0.516244
0.51879
0.533067
0.540687
0.552976
0.545719
0.534486
0.52826
0.517474
0.522444
0.528974
0.53888
0.545694
0.548372
0.55018
0.553439
0.555021
0.555896
0.556343
0.556609
0.55664
0.556568
0.55633
0.556036
0.555168
0.552241
0.550396
0.54758
0.540414
0.530381
0.523404
0.51684
0.52563
0.533946
0.545495
0.538154
0.529079
0.525264
0.52398
0.530008
0.535926
0.54408
0.548555
0.549892
0.551001
0.553697
0.555336
0.556234
0.556707
0.556931
0.556923
0.556787
0.556471
0.555989
0.555289
0.553988
0.553595
0.551765
0.546804
0.538683
0.53178
0.524872
0.523899
0.526014
0.538007
0.531272
0.526237
0.52926
0.531822
0.537041
0.542156
0.547809
0.549734
0.549699
0.551354
0.554127
0.555866
0.556803
0.557225
0.557365
0.557327
0.557155
0.556765
0.556083
0.555073
0.553983
0.554181
0.555034
0.553502
0.547007
0.540806
0.535082
0.533564
0.522032
0.529901
0.528988
0.528298
0.538872
0.540274
0.544208
0.546956
0.548999
0.547986
0.548158
0.551612
0.554908
0.556727
0.557533
0.557822
0.557877
0.557819
0.55766
0.557285
0.556478
0.554949
0.552851
0.55162
0.553569
0.555851
0.555538
0.552248
0.545223
0.541991
0.529924
0.527101
0.531381
0.535625
0.546551
0.548499
0.550543
0.549149
0.546463
0.542903
0.547194
0.552452
0.55614
0.557729
0.558283
0.558419
0.558403
0.55833
0.558196
0.557899
0.557153
0.555398
0.552067
0.548265
0.547478
0.551921
0.555991
0.55799
0.556321
0.55084
0.538751
0.530933
0.535956
0.543067
0.553634
0.554261
0.550962
0.54561
0.540109
0.539603
0.547731
0.554201
0.557575
0.558703
0.558966
0.558945
0.558863
0.558775
0.558669
0.558462
0.557895
0.556281
0.552439
0.546792
0.540626
0.544022
0.55022
0.556047
0.559493
0.55911
0.551129
0.539803
0.543355
0.554077
0.556847
0.55178
0.544848
0.536871
0.533888
0.540593
0.54994
0.556546
0.558993
0.559563
0.559527
0.559357
0.559208
0.559107
0.559036
0.558924
0.558555
0.557313
0.55368
0.546969
0.537737
0.535652
0.540962
0.548998
0.555999
0.56061
0.559706
0.54903
0.552157
0.557165
0.551963
0.544125
0.534718
0.528598
0.533465
0.545012
0.553898
0.558968
0.56026
0.560259
0.559932
0.559621
0.559409
0.559308
0.559298
0.559322
0.55919
0.558375
0.555424
0.54822
0.538723
0.529153
0.530102
0.539333
0.548365
0.556234
0.561058
0.556098
0.556793
0.551365
0.544689
0.532734
0.52541
0.5303
0.540018
0.551204
0.558301
0.560985
0.561153
0.560625
0.560047
0.559614
0.559347
0.559265
0.559343
0.559547
0.559738
0.559489
0.557644
0.551191
0.541806
0.528607
0.521326
0.527098
0.538606
0.54901
0.555638
0.559696
0.554242
0.543857
0.535438
0.519461
0.526898
0.537283
0.548937
0.557635
0.561592
0.562131
0.561417
0.560493
0.559724
0.559224
0.558938
0.558899
0.559053
0.559444
0.559975
0.560402
0.55984
0.555807
0.547239
0.535463
0.522813
0.516768
0.526237
0.540253
0.548029
0.558058
0.548143
0.534862
0.522314
0.521824
0.534904
0.547833
0.557813
0.562222
0.563036
0.562203
0.560924
0.559762
0.558955
0.558658
0.558548
0.558561
0.558655
0.558943
0.559604
0.560576
0.561275
0.56011
0.554228
0.544507
0.531555
0.52142
0.515337
0.530087
0.539581
0.552186
0.540343
0.518531
0.524569
0.530399
0.547463
0.558488
0.563139
0.56388
0.562869
0.561261
0.559625
0.558541
0.558205
0.558164
0.558202
0.558242
0.55826
0.558294
0.558655
0.559635
0.561134
0.562056
0.560545
0.554537
0.542869
0.530985
0.521884
0.520593
0.529628
0.544187
0.530128
0.521769
0.534337
0.545664
0.559048
0.564019
0.56468
0.563458
0.561479
0.559239
0.557684
0.557326
0.557526
0.557716
0.557874
0.557936
0.557903
0.557778
0.557656
0.55793
0.55929
0.561305
0.562681
0.561575
0.555337
0.543573
0.532041
0.525692
0.516817
0.535327
0.524471
0.531703
0.548541
0.558946
0.564486
0.565341
0.563979
0.561484
0.558419
0.556042
0.555628
0.556229
0.556862
0.55728
0.5575
0.557575
0.557513
0.557252
0.556747
0.556217
0.556397
0.55833
0.561011
0.563054
0.562484
0.556652
0.545417
0.536808
0.52407
0.526178
0.532199
0.54666
0.559483
0.564594
0.565747
0.564447
0.561327
0.557198
0.553063
0.552377
0.553636
0.555211
0.556308
0.556874
0.557126
0.557207
0.557126
0.556774
0.555945
0.554539
0.553276
0.553446
0.556819
0.560299
0.563164
0.563207
0.558046
0.54929
0.535457
0.527428
0.543129
0.558371
0.564548
0.565933
0.564817
0.560938
0.55562
0.550024
0.54655
0.548864
0.551772
0.554454
0.555889
0.556574
0.55687
0.556959
0.556851
0.556409
0.555321
0.553083
0.549972
0.547122
0.549438
0.554304
0.55911
0.563193
0.56377
0.559509
0.549174
0.537475
0.552425
0.563649
0.566052
0.565315
0.560865
0.55365
0.545757
0.539904
0.539093
0.545074
0.550112
0.553816
0.555611
0.55645
0.556822
0.556936
0.556805
0.556266
0.554899
0.551826
0.546572
0.540361
0.539607
0.544986
0.552013
0.558859
0.563666
0.564141
0.559364
0.547274
0.559587
0.565449
0.565857
0.561621
0.553084
0.542743
0.533309
0.529865
0.532644
0.541273
0.548588
0.553346
0.555527
0.556522
0.556978
0.557143
0.557014
0.556413
0.554804
0.550939
0.543622
0.534582
0.531005
0.53325
0.541595
0.550964
0.559228
0.564319
0.563753
0.555071
0.56343
0.565948
0.562807
0.55354
0.541562
0.529025
0.52066
0.522753
0.529073
0.53862
0.547602
0.553159
0.555664
0.556759
0.557244
0.557431
0.557373
0.556841
0.55514
0.550707
0.541969
0.531111
0.525101
0.522216
0.528371
0.539843
0.550834
0.55978
0.564531
0.560806
0.564964
0.563643
0.555002
0.541929
0.527774
0.515089
0.512596
0.520817
0.529685
0.538381
0.547659
0.553435
0.556046
0.557104
0.557546
0.557753
0.557778
0.557409
0.555929
0.551442
0.542315
0.532422
0.523895
0.515623
0.516448
0.526526
0.539946
0.551704
0.559775
0.563495
0.564002
0.555136
0.544614
0.529292
0.514376
0.50686
0.51336
0.52472
0.534044
0.54008
0.548759
0.554265
0.556635
0.557505
0.557863
0.558057
0.558163
0.558014
0.556944
0.553147
0.544563
0.537472
0.528795
0.517688
0.510301
0.514571
0.527589
0.541879
0.5514
0.561891
0.559349
0.544986
0.533499
0.516762
0.505707
0.508633
0.519907
0.531398
0.539154
0.543361
0.550544
0.555436
0.557341
0.557951
0.558171
0.558317
0.558462
0.558525
0.558027
0.555189
0.548401
0.543133
0.536263
0.525876
0.514853
0.508643
0.51523
0.531609
0.542674
0.556192
0.552365
0.535971
0.523316
0.507714
0.509392
0.517288
0.528532
0.53806
0.544019
0.547192
0.552904
0.556843
0.558077
0.55835
0.558421
0.558496
0.55861
0.558781
0.558809
0.55749
0.552961
0.548901
0.543809
0.535553
0.525101
0.516545
0.509375
0.521044
0.533223
0.548915
0.543186
0.524698
0.516865
0.511852
0.519831
0.527443
0.537962
0.544744
0.548648
0.551364
0.555825
0.558139
0.558554
0.558559
0.55854
0.558549
0.558593
0.558722
0.55892
0.55879
0.557262
0.555072
0.551005
0.545002
0.536674
0.52899
0.520335
0.521654
0.519967
0.53942
0.532997
0.516366
0.527068
0.526247
0.532722
0.539323
0.546567
0.551141
0.553841
0.555794
0.557856
0.558539
0.558579
0.558521
0.558482
0.558449
0.558417
0.558397
0.558415
0.55845
0.558314
0.557986
0.557103
0.554116
0.548125
0.54191
0.535936
0.534213
0.519072
0.529241
0.52434
0.524887
0.539326
0.540917
0.545757
0.551494
0.555086
0.555413
0.555996
0.556919
0.557741
0.558122
0.558266
0.558302
0.558298
0.558252
0.558151
0.557953
0.557627
0.55716
0.556672
0.556583
0.557319
0.558614
0.557019
0.552858
0.548382
0.545266
0.53075
0.52337
0.525834
0.536053
0.547703
0.551888
0.555932
0.557499
0.555715
0.553492
0.553843
0.55515
0.556623
0.557477
0.557868
0.558032
0.558075
0.558014
0.557842
0.557483
0.556799
0.55561
0.553849
0.552468
0.552536
0.555878
0.559113
0.559398
0.556716
0.552921
0.542938
0.530621
0.535319
0.546831
0.555181
0.558682
0.558252
0.553607
0.549361
0.54721
0.54928
0.552696
0.555367
0.556799
0.557475
0.55776
0.557837
0.557765
0.557534
0.557033
0.555996
0.553972
0.550576
0.546656
0.544519
0.547582
0.552801
0.559028
0.560939
0.558558
0.552608
0.540731
0.544162
0.55542
0.560019
0.558575
0.55166
0.544703
0.53988
0.539522
0.544513
0.550183
0.554148
0.556226
0.55716
0.557548
0.557655
0.557575
0.557291
0.556649
0.555285
0.552389
0.547355
0.540713
0.535941
0.536418
0.542292
0.550678
0.558932
0.561714
0.558549
0.548201
0.550624
0.559961
0.559223
0.55113
0.54246
0.53415
0.530797
0.533672
0.540498
0.54796
0.553073
0.555803
0.556999
0.557482
0.557617
0.557533
0.557203
0.556422
0.554701
0.55096
0.544626
0.536152
0.529806
0.526378
0.530153
0.539742
0.549891
0.559308
0.561525
0.553521
0.555288
0.558985
0.55147
0.541589
0.532307
0.525846
0.525009
0.530164
0.537809
0.546146
0.552269
0.555612
0.55702
0.557544
0.557679
0.5576
0.557277
0.556439
0.554435
0.550073
0.543005
0.533887
0.526015
0.520057
0.521849
0.528561
0.539084
0.550323
0.558924
0.557613
0.55733
0.550426
0.542625
0.532208
0.525346
0.521759
0.522238
0.528876
0.537228
0.545632
0.552088
0.555689
0.557105
0.557524
0.557575
0.557512
0.557312
0.556631
0.554664
0.550294
0.543493
0.535124
0.525637
0.517402
0.516915
0.521947
0.529188
0.540493
0.549417
0.558528
0.553308
0.541587
0.534434
0.526498
0.523127
0.520067
0.522066
0.530873
0.539823
0.546849
0.552746
0.555953
0.556974
0.557092
0.557004
0.556965
0.556951
0.556636
0.555224
0.55149
0.545576
0.539322
0.530208
0.520316
0.515409
0.519438
0.524042
0.532247
0.540126
0.553266
0.545921
0.534404
0.531386
0.526335
0.523724
0.5209
0.526799
0.535985
0.543721
0.548823
0.553644
0.555875
0.556218
0.555908
0.555612
0.555592
0.555835
0.556027
0.55538
0.552691
0.547836
0.543427
0.536139
0.527465
0.51965
0.519791
0.52412
0.53022
0.533199
0.545198
0.538918
0.530179
0.532549
0.528973
0.52451
0.526987
0.533698
0.540798
0.546709
0.550476
0.553845
0.55484
0.554311
0.553438
0.552891
0.55288
0.5534
0.554221
0.554564
0.553181
0.549681
0.546429
0.540972
0.534333
0.527693
0.522498
0.526747
0.532051
0.5296
0.538252
0.532352
0.531564
0.535099
0.530515
0.528897
0.533803
0.539036
0.54396
0.548381
0.550911
0.552603
0.552137
0.550731
0.549561
0.54891
0.548895
0.549519
0.550675
0.552005
0.552205
0.5503
0.548059
0.544053
0.53953
0.534501
0.529826
0.528941
0.534348
0.531282
0.531795
0.53063
0.533882
0.535706
0.532052
0.535529
0.538617
0.541788
0.54502
0.548101
0.54927
0.549075
0.547401
0.545703
0.544571
0.543909
0.54389
0.544516
0.545629
0.547312
0.548859
0.548857
0.547728
0.545034
0.542178
0.539235
0.536621
0.532486
0.535319
0.533532
0.53029
0.532543
0.534179
0.536316
0.537005
0.539666
0.539829
0.541542
0.543859
0.545466
0.545108
0.543355
0.541399
0.53994
0.539106
0.538595
0.538578
0.539063
0.539849
0.541274
0.543183
0.544839
0.54512
0.543787
0.541841
0.540367
0.540721
0.5387
0.537068
0.534085
0.53229
0.53328
0.534519
0.539197
0.54097
0.538086
0.537674
0.539373
0.540885
0.540542
0.538699
0.5368
0.535461
0.534636
0.534419
0.534075
0.534061
0.534385
0.534529
0.535297
0.536598
0.538445
0.54023
0.540715
0.539541
0.538125
0.539032
0.542698
0.540897
0.535159
0.533297
0.533337
0.536472
0.54157
0.536389
0.533426
0.533766
0.535887
0.535704
0.533834
0.532159
0.531221
0.530794
0.530714
0.531057
0.530957
0.530945
0.531033
0.530607
0.530616
0.530995
0.531883
0.533503
0.535399
0.535859
0.534134
0.534209
0.537686
0.5432
0.537646
0.533826
0.533847
0.53778
0.534834
0.53124
0.529422
0.529694
0.530781
0.529069
0.527531
0.527108
0.527131
0.527477
0.528032
0.5287
0.528674
0.528652
0.528677
0.527936
0.5273
0.526906
0.526823
0.527182
0.528677
0.530511
0.529818
0.529966
0.532073
0.536174
0.53929
0.534822
0.534983
0.529774
0.529144
0.52641
0.524999
0.524791
0.524786
0.522991
0.522627
0.523107
0.524079
0.525044
0.526145
0.527079
0.527218
0.527206
0.527042
0.526048
0.52487
0.523858
0.522826
0.522268
0.522587
0.524363
0.524604
0.525247
0.526952
0.53015
0.531251
0.536351
0.535067
0.52533
0.524447
0.522439
0.521353
0.519932
0.519687
0.518052
0.518714
0.519587
0.521672
0.523398
0.525226
0.526471
0.526907
0.526894
0.526434
0.525162
0.523237
0.521449
0.519327
0.518344
0.517666
0.519219
0.519542
0.521267
0.522714
0.525215
0.526419
0.536332
0.533355
0.522805
0.522211
0.519605
0.517944
0.516066
0.516023
0.514454
0.515316
0.517083
0.520179
0.522887
0.525333
0.526735
0.527271
0.527262
0.526667
0.525261
0.522743
0.51998
0.516827
0.51495
0.514002
0.515568
0.515638
0.51764
0.519601
0.522762
0.52355
0.534372
0.532014
0.521862
0.522859
0.517079
0.515106
0.513378
0.51346
0.511302
0.512696
0.515981
0.51998
0.52317
0.525762
0.527061
0.527589
0.527583
0.526984
0.525651
0.523019
0.519743
0.515739
0.512465
0.51078
0.513061
0.512989
0.514768
0.51687
0.523097
0.522355
0.532792
0.530876
0.522335
0.524997
0.516335
0.513888
0.512004
0.511825
0.50983
0.511613
0.516255
0.520558
0.52363
0.526091
0.527291
0.527773
0.527764
0.527212
0.525956
0.523467
0.520352
0.516097
0.511615
0.509467
0.511461
0.511686
0.513593
0.516092
0.524955
0.52259
0.531396
0.52787
0.524963
0.529001
0.519708
0.515808
0.512389
0.511241
0.509508
0.512244
0.516986
0.521063
0.52394
0.526137
0.527247
0.527683
0.527674
0.527171
0.525998
0.523776
0.520885
0.516839
0.512235
0.509386
0.510885
0.512066
0.515523
0.519503
0.528902
0.525023
0.528126
0.524759
0.52781
0.529929
0.523041
0.518216
0.512413
0.510061
0.508899
0.51065
0.515156
0.518795
0.521397
0.523273
0.524294
0.524733
0.524719
0.524227
0.523142
0.52124
0.518634
0.515025
0.510651
0.508884
0.509748
0.51197
0.517943
0.522922
0.529851
0.52781
0.524826
0.505483
0.512316
0.513146
0.507108
0.50134
0.494181
0.492138
0.490723
0.490796
0.494312
0.497439
0.499677
0.501202
0.502129
0.502574
0.502558
0.502068
0.501085
0.499521
0.497303
0.494232
0.490879
0.490819
0.492023
0.493915
0.50115
0.507061
0.513078
0.512309
0.50549
0.430086
0.439022
0.442659
0.437532
0.432375
0.426777
0.425216
0.42392
0.422944
0.425341
0.428152
0.43008
0.431353
0.432206
0.432658
0.432639
0.432154
0.431255
0.429905
0.428046
0.425388
0.423053
0.423966
0.425054
0.426607
0.432216
0.437503
0.442606
0.439022
0.430084
0.385667
0.393136
0.400451
0.396345
0.393274
0.390616
0.390568
0.389538
0.38911
0.391026
0.393807
0.395595
0.396844
0.397687
0.398153
0.398135
0.397643
0.396762
0.395438
0.393738
0.391126
0.389173
0.38951
0.390393
0.390481
0.393164
0.3963
0.400409
0.393144
0.385659
0.356554
0.362442
0.370619
0.367075
0.366938
0.366109
0.367656
0.367243
0.367838
0.369781
0.372542
0.374241
0.375526
0.376379
0.376844
0.376829
0.376338
0.375457
0.374103
0.372484
0.369827
0.367887
0.367127
0.367455
0.365973
0.366819
0.367011
0.370585
0.362458
0.356551
0.330328
0.334375
0.342952
0.341713
0.343862
0.343996
0.346912
0.347661
0.349215
0.351317
0.354039
0.355646
0.356983
0.357841
0.358309
0.358293
0.357805
0.356917
0.355523
0.353942
0.351299
0.349229
0.347499
0.346712
0.343817
0.343719
0.341622
0.342921
0.334405
0.33033
0.302876
0.305347
0.315603
0.318922
0.321532
0.323319
0.326967
0.329055
0.331309
0.333696
0.336317
0.337901
0.33931
0.340185
0.340653
0.340638
0.340149
0.339244
0.337789
0.336117
0.333611
0.33126
0.328879
0.326751
0.323107
0.321299
0.318771
0.315557
0.305399
0.302886
0.271433
0.274744
0.289356
0.296145
0.299595
0.302695
0.307241
0.310607
0.313527
0.316165
0.318613
0.320373
0.321867
0.322776
0.323249
0.323235
0.322739
0.321803
0.32027
0.318405
0.316016
0.313402
0.310422
0.307012
0.302437
0.299303
0.295927
0.2893
0.274803
0.271481
0.237787
0.244704
0.264127
0.273363
0.277585
0.282002
0.287335
0.291621
0.29525
0.298175
0.300598
0.302613
0.304198
0.305155
0.30563
0.305616
0.30512
0.304133
0.302522
0.300418
0.297981
0.295081
0.291425
0.287101
0.281734
0.277268
0.273083
0.264032
0.244731
0.237842
0.206371
0.217124
0.238839
0.249957
0.255176
0.260724
0.266607
0.271564
0.275883
0.27922
0.281909
0.284195
0.285881
0.286887
0.287367
0.287354
0.286852
0.285819
0.284111
0.281772
0.279021
0.275705
0.271358
0.266359
0.26046
0.254853
0.249634
0.2387
0.217091
0.206382
0.182272
0.191911
0.213386
0.22588
0.232194
0.238173
0.244468
0.249908
0.254936
0.258982
0.262181
0.264733
0.26653
0.267613
0.268118
0.268108
0.267585
0.266477
0.264668
0.262084
0.258819
0.254768
0.249689
0.244204
0.237905
0.231877
0.225588
0.213249
0.191866
0.182244
0.164011
0.170639
0.188584
0.200887
0.208446
0.214165