/*--------------------------------*- C++ -*----------------------------------*\
| =========                 |                                                 |
| \\      /  F ield         | OpenFOAM: The Open Source CFD Toolbox           |
|  \\    /   O peration     | Version:  v1606+                                |
|   \\  /    A nd           | Web:      www.OpenFOAM.com                      |
|    \\/     M anipulation  |                                                 |
\*---------------------------------------------------------------------------*/
FoamFile
{
    version     2.0;
    format      ascii;
    class       volVectorField;
    location    "0.32";
    object      Ur;
}
// * * * * * * * * * * * * * * * * * * * * * * * * * * * * * * * * * * * * * //

dimensions      [0 1 -1 0 0 0 0];

internalField   nonuniform List<vector> 
6000
(
(-0.00769634 -0.619724 0)
(-0.0347827 -0.663748 0)
(-0.0424392 -0.693138 0)
(-0.0425312 -0.697738 0)
(-0.0330437 -0.701414 0)
(-0.024112 -0.694423 0)
(-0.0235878 -0.694786 0)
(-0.0279555 -0.697124 0)
(-0.0315097 -0.702318 0)
(-0.0323663 -0.702802 0)
(-0.0321774 -0.700615 0)
(-0.0276925 -0.698631 0)
(-0.0188924 -0.699518 0)
(-0.0100728 -0.699834 0)
(-0.00420893 -0.700954 0)
(0.00112612 -0.699436 0)
(0.00900806 -0.698627 0)
(0.0184801 -0.698791 0)
(0.026704 -0.699749 0)
(0.0297592 -0.702391 0)
(0.0293111 -0.702753 0)
(0.0301566 -0.700117 0)
(0.0272695 -0.694408 0)
(0.0225078 -0.693696 0)
(0.0228973 -0.695419 0)
(0.0314622 -0.702332 0)
(0.0421679 -0.698717 0)
(0.0435245 -0.692223 0)
(0.0354363 -0.661832 0)
(0.00773759 -0.616804 0)
(-0.0419595 -0.920511 0)
(-0.0816496 -0.99138 0)
(-0.0600494 -1.04267 0)
(-0.0336988 -1.0445 0)
(-0.0170176 -1.05666 0)
(-0.0108895 -1.03693 0)
(-0.0181211 -1.03323 0)
(-0.0273964 -1.03469 0)
(-0.0331872 -1.04574 0)
(-0.0345798 -1.04901 0)
(-0.0342203 -1.04968 0)
(-0.0311314 -1.05278 0)
(-0.0242703 -1.05573 0)
(-0.0156095 -1.05409 0)
(-0.00587202 -1.05398 0)
(0.00392885 -1.05309 0)
(0.012764 -1.05383 0)
(0.0210786 -1.05514 0)
(0.0278841 -1.05347 0)
(0.0320522 -1.05159 0)
(0.0334622 -1.05 0)
(0.0318714 -1.04419 0)
(0.0246177 -1.03093 0)
(0.013991 -1.03222 0)
(0.00714649 -1.03807 0)
(0.0148507 -1.05926 0)
(0.0341683 -1.04943 0)
(0.0633552 -1.04323 0)
(0.0863224 -0.989149 0)
(0.0444289 -0.915075 0)
(-0.0377099 -0.756867 0)
(-0.0593928 -0.88724 0)
(-0.0140926 -0.957447 0)
(0.0243074 -0.945617 0)
(0.0384491 -0.94682 0)
(0.0301063 -0.915125 0)
(0.0110572 -0.90567 0)
(-0.00976511 -0.911085 0)
(-0.0288125 -0.92748 0)
(-0.0417195 -0.937826 0)
(-0.0448786 -0.947455 0)
(-0.0415502 -0.960489 0)
(-0.0343538 -0.966137 0)
(-0.0236274 -0.967331 0)
(-0.00945999 -0.966507 0)
(0.00542298 -0.967118 0)
(0.0188728 -0.968187 0)
(0.029414 -0.966751 0)
(0.0368064 -0.960711 0)
(0.0407255 -0.947987 0)
(0.0378214 -0.939164 0)
(0.0239222 -0.92778 0)
(0.00458133 -0.907782 0)
(-0.0168149 -0.904611 0)
(-0.0367995 -0.915369 0)
(-0.0442536 -0.950055 0)
(-0.0273711 -0.953186 0)
(0.0163144 -0.962864 0)
(0.066866 -0.887429 0)
(0.0421129 -0.748864 0)
(0.0126629 -0.793246 0)
(0.0569863 -0.95698 0)
(0.102194 -0.982166 0)
(0.124018 -0.92421 0)
(0.118706 -0.872155 0)
(0.0807424 -0.828288 0)
(0.0353758 -0.813335 0)
(-0.00444516 -0.822117 0)
(-0.035582 -0.844003 0)
(-0.0538963 -0.867154 0)
(-0.0556843 -0.885328 0)
(-0.0490374 -0.899131 0)
(-0.0393977 -0.907333 0)
(-0.0264517 -0.911837 0)
(-0.0107476 -0.912746 0)
(0.00580092 -0.913037 0)
(0.0213142 -0.912097 0)
(0.0342492 -0.907782 0)
(0.0441263 -0.899199 0)
(0.0509475 -0.885736 0)
(0.0487038 -0.867038 0)
(0.0294971 -0.843534 0)
(-0.000939113 -0.81998 0)
(-0.0419947 -0.810771 0)
(-0.0905157 -0.827824 0)
(-0.129583 -0.874819 0)
(-0.134276 -0.931199 0)
(-0.108565 -0.992542 0)
(-0.0558491 -0.962592 0)
(-0.0102133 -0.782901 0)
(0.054193 -0.853986 0)
(0.137645 -0.936487 0)
(0.180929 -0.906589 0)
(0.196715 -0.837364 0)
(0.171441 -0.752888 0)
(0.11352 -0.691998 0)
(0.0414278 -0.679058 0)
(-0.0291224 -0.703385 0)
(-0.075942 -0.743692 0)
(-0.0909674 -0.785713 0)
(-0.0831524 -0.818907 0)
(-0.0666019 -0.839645 0)
(-0.04898 -0.85116 0)
(-0.0306086 -0.855019 0)
(-0.0121873 -0.856287 0)
(0.0062477 -0.85644 0)
(0.0247913 -0.85566 0)
(0.0434604 -0.85186 0)
(0.0616055 -0.840477 0)
(0.0787539 -0.819321 0)
(0.0866551 -0.785511 0)
(0.0707926 -0.742394 0)
(0.0228249 -0.701482 0)
(-0.0503584 -0.672396 0)
(-0.124514 -0.690788 0)
(-0.182604 -0.754749 0)
(-0.209211 -0.846122 0)
(-0.193386 -0.919894 0)
(-0.146167 -0.952156 0)
(-0.0562869 -0.850073 0)
(0.0643427 -0.938167 0)
(0.154886 -0.947686 0)
(0.193023 -0.881693 0)
(0.186636 -0.763197 0)
(0.150826 -0.654263 0)
(0.110287 -0.589543 0)
(0.0567169 -0.564646 0)
(-0.0174621 -0.58801 0)
(-0.0840846 -0.651603 0)
(-0.113236 -0.724611 0)
(-0.108179 -0.774376 0)
(-0.0847919 -0.794197 0)
(-0.0579126 -0.802588 0)
(-0.0335631 -0.80453 0)
(-0.0129984 -0.803904 0)
(0.00600726 -0.804333 0)
(0.0269928 -0.80516 0)
(0.05209 -0.803846 0)
(0.0799386 -0.795338 0)
(0.103938 -0.775441 0)
(0.108402 -0.72352 0)
(0.0776638 -0.649228 0)
(0.00811509 -0.584438 0)
(-0.0664654 -0.559801 0)
(-0.117939 -0.590439 0)
(-0.157005 -0.657357 0)
(-0.193347 -0.769815 0)
(-0.202902 -0.894883 0)
(-0.164639 -0.966861 0)
(-0.0683735 -0.945688 0)
(0.0519885 -1.01117 0)
(0.100272 -0.92992 0)
(0.093596 -0.826525 0)
(0.0781871 -0.693386 0)
(0.0690494 -0.606271 0)
(0.0703878 -0.558412 0)
(0.0657047 -0.53557 0)
(0.0400189 -0.543103 0)
(-0.0051228 -0.587249 0)
(-0.0477617 -0.660676 0)
(-0.0685722 -0.723018 0)
(-0.0636974 -0.754262 0)
(-0.0449245 -0.762328 0)
(-0.0258803 -0.75977 0)
(-0.0102146 -0.755346 0)
(0.00390379 -0.756124 0)
(0.0199088 -0.761038 0)
(0.0395971 -0.764678 0)
(0.0591372 -0.756507 0)
(0.0639499 -0.724173 0)
(0.041983 -0.659866 0)
(-0.00170953 -0.586001 0)
(-0.0478114 -0.540899 0)
(-0.0718759 -0.533334 0)
(-0.0742179 -0.558663 0)
(-0.0733057 -0.607487 0)
(-0.0835046 -0.697156 0)
(-0.1008 -0.837201 0)
(-0.10722 -0.952482 0)
(-0.054299 -1.02514 0)
(0.0256403 -1.06242 0)
(0.00300814 -0.866239 0)
(-0.042231 -0.790932 0)
(-0.0312682 -0.685624 0)
(0.00776471 -0.618873 0)
(0.043278 -0.564431 0)
(0.0613066 -0.543002 0)
(0.067124 -0.556254 0)
(0.0559156 -0.603029 0)
(0.0321636 -0.668239 0)
(0.00729828 -0.719178 0)
(-0.00758918 -0.746663 0)
(-0.011091 -0.74978 0)
(-0.00897601 -0.742112 0)
(-0.00442561 -0.734837 0)
(0.000854421 -0.735624 0)
(0.00526718 -0.743631 0)
(0.00735087 -0.75244 0)
(0.00379591 -0.749441 0)
(-0.0114649 -0.720674 0)
(-0.0367898 -0.668088 0)
(-0.0607164 -0.601907 0)
(-0.0714682 -0.553004 0)
(-0.0643859 -0.53953 0)
(-0.0451951 -0.562381 0)
(-0.00970012 -0.61667 0)
(0.027015 -0.682929 0)
(0.0362407 -0.795703 0)
(-0.00751152 -0.88848 0)
(-0.0273456 -1.08026 0)
(-0.0279545 -1.06615 0)
(-0.0869164 -0.86827 0)
(-0.115584 -0.823975 0)
(-0.0685539 -0.747899 0)
(0.011661 -0.666675 0)
(0.0549465 -0.58098 0)
(0.056059 -0.551155 0)
(0.0470817 -0.565482 0)
(0.0424204 -0.632796 0)
(0.0476156 -0.717478 0)
(0.0474247 -0.765378 0)
(0.0320852 -0.785593 0)
(0.0148613 -0.78556 0)
(0.00440536 -0.775722 0)
(0.000209017 -0.76752 0)
(-0.00170845 -0.768047 0)
(-0.00641382 -0.776852 0)
(-0.0176296 -0.787533 0)
(-0.0357047 -0.787852 0)
(-0.0511474 -0.766766 0)
(-0.0501623 -0.717397 0)
(-0.0441573 -0.630097 0)
(-0.0489317 -0.560463 0)
(-0.0580838 -0.546383 0)
(-0.0568439 -0.577257 0)
(-0.010984 -0.66458 0)
(0.0700341 -0.74151 0)
(0.115409 -0.821018 0)
(0.0858859 -0.879965 0)
(0.0269809 -1.08019 0)
(-0.0636213 -1.0316 0)
(-0.133944 -0.905741 0)
(-0.131735 -0.879357 0)
(-0.0402204 -0.877058 0)
(0.0906791 -0.778853 0)
(0.119681 -0.652854 0)
(0.0700169 -0.597177 0)
(0.0115559 -0.599923 0)
(-0.0287452 -0.675953 0)
(-0.00448971 -0.766821 0)
(0.0356499 -0.794933 0)
(0.0346663 -0.81133 0)
(0.0220553 -0.819603 0)
(0.0117507 -0.816743 0)
(0.00349429 -0.812092 0)
(-0.00434979 -0.812174 0)
(-0.0131373 -0.816762 0)
(-0.024493 -0.820005 0)
(-0.0380339 -0.812355 0)
(-0.0388489 -0.796405 0)
(0.00399724 -0.768586 0)
(0.0298218 -0.672592 0)
(-0.0124765 -0.594006 0)
(-0.0725235 -0.592905 0)
(-0.123649 -0.649802 0)
(-0.0879419 -0.782075 0)
(0.0504751 -0.873064 0)
(0.139662 -0.873117 0)
(0.138161 -0.907754 0)
(0.064913 -1.03807 0)
(-0.0645764 -1.00118 0)
(-0.135632 -0.941716 0)
(-0.122494 -0.946427 0)
(-0.00861774 -1.04156 0)
(0.138076 -0.944732 0)
(0.179166 -0.770843 0)
(0.112059 -0.68648 0)
(-0.0211153 -0.678742 0)
(-0.0747053 -0.807998 0)
(-0.0288091 -0.895521 0)
(0.0074386 -0.887553 0)
(0.00976053 -0.892784 0)
(0.00673791 -0.905909 0)
(0.00543269 -0.909606 0)
(0.00221049 -0.908342 0)
(-0.00241311 -0.908113 0)
(-0.00619228 -0.908467 0)
(-0.00861957 -0.904493 0)
(-0.0124325 -0.892118 0)
(-0.00987408 -0.888307 0)
(0.0293816 -0.899551 0)
(0.0772256 -0.804768 0)
(0.0194775 -0.670801 0)
(-0.116905 -0.682746 0)
(-0.181335 -0.770069 0)
(-0.134056 -0.95178 0)
(0.0208423 -1.04513 0)
(0.135644 -0.944561 0)
(0.144121 -0.946746 0)
(0.0667386 -1.00795 0)
(-0.0319771 -0.975657 0)
(-0.0665525 -1.00778 0)
(-0.0189657 -1.18539 0)
(0.177964 -1.55306 0)
(0.405493 -1.42552 0)
(0.401839 -0.978988 0)
(0.222458 -0.772026 0)
(0.0169176 -0.761688 0)
(-0.100111 -1.09654 0)
(-0.100078 -1.26021 0)
(-0.0634768 -1.21969 0)
(-0.0351144 -1.18395 0)
(-0.0168311 -1.18079 0)
(-0.00631042 -1.17876 0)
(-0.00112216 -1.17422 0)
(0.00194203 -1.17387 0)
(0.00658731 -1.17687 0)
(0.0162495 -1.17913 0)
(0.0343093 -1.18529 0)
(0.06407 -1.22549 0)
(0.102083 -1.26815 0)
(0.101355 -1.09585 0)
(-0.0206106 -0.749355 0)
(-0.231652 -0.767247 0)
(-0.411402 -0.997922 0)
(-0.403348 -1.45079 0)
(-0.165874 -1.55971 0)
(0.0300244 -1.18295 0)
(0.0737467 -1.01213 0)
(0.0341111 -0.984228 0)
(0.0501633 -1.23068 0)
(0.180555 -1.39706 0)
(0.38412 -1.6173 0)
(0.567717 -1.72333 0)
(0.650608 -1.44259 0)
(0.563351 -0.978357 0)
(0.393557 -0.807042 0)
(0.167479 -0.799707 0)
(-0.0233868 -1.05084 0)
(-0.132578 -1.31209 0)
(-0.142367 -1.37744 0)
(-0.106254 -1.40111 0)
(-0.0635618 -1.41902 0)
(-0.0334269 -1.42643 0)
(-0.00944045 -1.42665 0)
(0.0131785 -1.42637 0)
(0.0372497 -1.42514 0)
(0.0676001 -1.41776 0)
(0.110556 -1.40134 0)
(0.146772 -1.37896 0)
(0.134398 -1.31187 0)
(0.0217966 -1.04165 0)
(-0.170175 -0.783416 0)
(-0.395342 -0.797953 0)
(-0.562607 -0.985449 0)
(-0.649006 -1.46008 0)
(-0.56683 -1.73354 0)
(-0.377751 -1.62294 0)
(-0.174436 -1.40049 0)
(-0.0470296 -1.23006 0)
(0.173746 -1.36857 0)
(0.397833 -1.44758 0)
(0.544048 -1.53972 0)
(0.592836 -1.52399 0)
(0.566665 -1.19888 0)
(0.476086 -0.732511 0)
(0.360792 -0.544606 0)
(0.20129 -0.55534 0)
(0.0659136 -0.782842 0)
(-0.0400244 -1.06223 0)
(-0.0865819 -1.16859 0)
(-0.0842696 -1.22039 0)
(-0.0588376 -1.23003 0)
(-0.0331214 -1.22685 0)
(-0.00925052 -1.22378 0)
(0.014825 -1.22351 0)
(0.0389255 -1.22604 0)
(0.0649534 -1.22912 0)
(0.0900473 -1.22065 0)
(0.0909463 -1.16958 0)
(0.04177 -1.06236 0)
(-0.0667192 -0.774335 0)
(-0.201338 -0.543043 0)
(-0.35853 -0.540547 0)
(-0.471977 -0.741015 0)
(-0.563658 -1.21477 0)
(-0.594549 -1.53216 0)
(-0.54704 -1.5463 0)
(-0.401715 -1.45489 0)
(-0.175409 -1.37438 0)
(0.161033 -1.51293 0)
(0.336665 -1.50824 0)
(0.433895 -1.52977 0)
(0.437724 -1.43197 0)
(0.409638 -1.09798 0)
(0.371539 -0.635773 0)
(0.292707 -0.416834 0)
(0.181796 -0.438453 0)
(0.0977109 -0.686644 0)
(0.0311129 -0.972361 0)
(-0.0185986 -1.10682 0)
(-0.0413541 -1.18099 0)
(-0.0412674 -1.20769 0)
(-0.024864 -1.20733 0)
(-0.00622272 -1.20468 0)
(0.0128402 -1.2044 0)
(0.0315939 -1.20654 0)
(0.0479765 -1.20663 0)
(0.0472828 -1.18025 0)
(0.0229265 -1.10605 0)
(-0.0288226 -0.969814 0)
(-0.0968861 -0.677969 0)
(-0.17997 -0.427695 0)
(-0.289298 -0.413955 0)
(-0.367038 -0.643676 0)
(-0.405913 -1.11137 0)
(-0.438637 -1.4392 0)
(-0.437248 -1.53466 0)
(-0.341641 -1.51366 0)
(-0.164429 -1.51822 0)
(0.133618 -1.69492 0)
(0.256119 -1.59037 0)
(0.309336 -1.5132 0)
(0.303403 -1.34834 0)
(0.283448 -1.02146 0)
(0.280032 -0.579268 0)
(0.226979 -0.332875 0)
(0.151201 -0.370086 0)
(0.100957 -0.631553 0)
(0.0635551 -0.902373 0)
(0.0211581 -1.04779 0)
(-0.00596794 -1.13469 0)
(-0.0202025 -1.18059 0)
(-0.0162658 -1.18647 0)
(-0.00338127 -1.18384 0)
(0.0108787 -1.18362 0)
(0.0235808 -1.18562 0)
(0.026892 -1.17874 0)
(0.0115368 -1.13244 0)
(-0.0169711 -1.04527 0)
(-0.0610862 -0.898308 0)
(-0.0994356 -0.623268 0)
(-0.148779 -0.36105 0)
(-0.223445 -0.332047 0)
(-0.274783 -0.588666 0)
(-0.278955 -1.03008 0)
(-0.303077 -1.35247 0)
(-0.311026 -1.51577 0)
(-0.2598 -1.59614 0)
(-0.136348 -1.70421 0)
(0.120084 -1.80325 0)
(0.201294 -1.61127 0)
(0.21911 -1.47191 0)
(0.213108 -1.27397 0)
(0.196681 -0.964725 0)
(0.207506 -0.548728 0)
(0.167551 -0.277701 0)
(0.114328 -0.326356 0)
(0.0921308 -0.59622 0)
(0.0794559 -0.840591 0)
(0.0420289 -0.987151 0)
(0.0199146 -1.07972 0)
(0.00372037 -1.13402 0)
(-0.00278525 -1.1558 0)
(0.000976377 -1.16037 0)
(0.006784 -1.16005 0)
(0.0100595 -1.15425 0)
(0.00264882 -1.1312 0)
(-0.0145046 -1.07642 0)
(-0.0375718 -0.983412 0)
(-0.0761238 -0.835444 0)
(-0.0897816 -0.587745 0)
(-0.111893 -0.317314 0)
(-0.16439 -0.277604 0)
(-0.20283 -0.557224 0)
(-0.19234 -0.971123 0)
(-0.212024 -1.27602 0)
(-0.218861 -1.47275 0)
(-0.202989 -1.61594 0)
(-0.122088 -1.81454 0)
(0.114002 -1.88711 0)
(0.163932 -1.59886 0)
(0.158064 -1.41751 0)
(0.154727 -1.20718 0)
(0.139913 -0.912082 0)
(0.14914 -0.526851 0)
(0.124228 -0.2459 0)
(0.0899196 -0.300402 0)
(0.0842294 -0.619859 0)
(0.0726229 -0.787431 0)
(0.0462642 -0.932634 0)
(0.0321703 -1.03028 0)
(0.021875 -1.08582 0)
(0.0128605 -1.11228 0)
(0.0063562 -1.12067 0)
(0.000946514 -1.12011 0)
(-0.00604984 -1.11005 0)
(-0.015732 -1.08223 0)
(-0.0266502 -1.02627 0)
(-0.0412055 -0.9281 0)
(-0.0679067 -0.781441 0)
(-0.0805561 -0.607928 0)
(-0.0874369 -0.291496 0)
(-0.121081 -0.246889 0)
(-0.144416 -0.53427 0)
(-0.136905 -0.915584 0)
(-0.153839 -1.20858 0)
(-0.157045 -1.4175 0)
(-0.163938 -1.60184 0)
(-0.115506 -1.89937 0)
(0.101722 -1.94548 0)
(0.12271 -1.55981 0)
(0.11128 -1.35673 0)
(0.11144 -1.14453 0)
(0.0899279 -0.858604 0)
(0.102575 -0.504083 0)
(0.0964616 -0.232001 0)
(0.0753529 -0.283843 0)
(0.0614301 -0.586318 0)
(0.045262 -0.740423 0)
(0.036008 -0.885947 0)
(0.0305762 -0.986416 0)
(0.0266933 -1.0413 0)
(0.0195113 -1.06546 0)
(0.00904804 -1.07136 0)
(-0.00249279 -1.07053 0)
(-0.0132394 -1.06285 0)
(-0.0207564 -1.03714 0)
(-0.0251305 -0.981754 0)
(-0.0308869 -0.881041 0)
(-0.0404444 -0.733844 0)
(-0.0579865 -0.573498 0)
(-0.0728897 -0.275307 0)
(-0.0931576 -0.234292 0)
(-0.0972259 -0.509413 0)
(-0.0869184 -0.859561 0)
(-0.111103 -1.14513 0)
(-0.110477 -1.35749 0)
(-0.121115 -1.56173 0)
(-0.101825 -1.95837 0)
(0.0609616 -1.97171 0)
(0.0658819 -1.51553 0)
(0.0711823 -1.30552 0)
(0.0805525 -1.08811 0)
(0.061521 -0.80565 0)
(0.0759384 -0.525883 0)
(0.071995 -0.226779 0)
(0.0599443 -0.269528 0)
(0.0380144 -0.548567 0)
(0.0214422 -0.706989 0)
(0.0246571 -0.848349 0)
(0.0238987 -0.94735 0)
(0.0230755 -0.999634 0)
(0.0179442 -1.02007 0)
(0.00837063 -1.02476 0)
(-0.00286615 -1.02386 0)
(-0.01244 -1.01754 0)
(-0.0176152 -0.995311 0)
(-0.0188239 -0.942334 0)
(-0.0198717 -0.843117 0)
(-0.0174274 -0.699822 0)
(-0.0353461 -0.534612 0)
(-0.0573598 -0.262039 0)
(-0.0681377 -0.229893 0)
(-0.069512 -0.529718 0)
(-0.0578177 -0.803159 0)
(-0.0801745 -1.08708 0)
(-0.0713194 -1.30783 0)
(-0.0641128 -1.51794 0)
(-0.0596441 -1.98257 0)
(0.0016078 -1.93147 0)
(0.00422052 -1.48679 0)
(0.0399861 -1.27753 0)
(0.0545866 -1.04048 0)
(0.0445385 -0.756668 0)
(0.0470008 -0.491923 0)
(0.0451629 -0.224705 0)
(0.0434027 -0.253774 0)
(0.0137167 -0.495897 0)
(0.00297656 -0.673479 0)
(0.0214131 -0.811394 0)
(0.0194207 -0.907752 0)
(0.01914 -0.957446 0)
(0.0151153 -0.974189 0)
(0.00695721 -0.976528 0)
(-0.0028222 -0.975623 0)
(-0.0105421 -0.971084 0)
(-0.0142222 -0.952806 0)
(-0.0148429 -0.902439 0)
(-0.0171725 -0.805714 0)
(-7.20813e-05 -0.665265 0)
(-0.012337 -0.481231 0)
(-0.0412712 -0.248047 0)
(-0.041255 -0.228687 0)
(-0.0406116 -0.494403 0)
(-0.0393488 -0.751586 0)
(-0.0527333 -1.03656 0)
(-0.0411895 -1.28067 0)
(-0.00408403 -1.49093 0)
(-0.00070016 -1.94083 0)
(-0.0328299 -1.83847 0)
(-0.0325181 -1.4839 0)
(0.0166012 -1.25978 0)
(0.0150255 -0.984654 0)
(0.0132628 -0.704937 0)
(0.02625 -0.458841 0)
(0.030169 -0.227524 0)
(0.0342852 -0.23442 0)
(0.00452393 -0.433761 0)
(-0.0131393 -0.694496 0)
(0.00788712 -0.780204 0)
(0.0138681 -0.868408 0)
(0.015799 -0.914609 0)
(0.0134063 -0.927267 0)
(0.00583683 -0.928067 0)
(-0.00337317 -0.927262 0)
(-0.00995179 -0.926337 0)
(-0.0115048 -0.91038 0)
(-0.0100865 -0.862901 0)
(-0.00460545 -0.774027 0)
(0.0148919 -0.683517 0)
(-0.00357977 -0.419564 0)
(-0.0322768 -0.22993 0)
(-0.0271823 -0.231939 0)
(-0.020952 -0.461779 0)
(-0.00712956 -0.699767 0)
(-0.010315 -0.977096 0)
(-0.0178395 -1.25853 0)
(0.0300904 -1.49026 0)
(0.0324485 -1.84797 0)
(-0.0300279 -1.74066 0)
(-0.0343653 -1.46592 0)
(0.00500288 -1.22354 0)
(-0.0141486 -0.91734 0)
(-0.0193526 -0.724613 0)
(0.00147728 -0.43003 0)
(0.0198163 -0.231355 0)
(0.0291052 -0.216975 0)
(0.00920087 -0.372103 0)
(-0.0253435 -0.640386 0)
(-0.0113633 -0.746858 0)
(0.0146483 -0.831659 0)
(0.0170919 -0.876721 0)
(0.0154255 -0.881632 0)
(0.00572542 -0.879775 0)
(-0.00552955 -0.879197 0)
(-0.0132473 -0.884022 0)
(-0.0130921 -0.872925 0)
(-0.0118986 -0.826136 0)
(0.0129936 -0.740142 0)
(0.0254304 -0.62884 0)
(-0.00813373 -0.360542 0)
(-0.0265709 -0.214131 0)
(-0.0167621 -0.23502 0)
(0.00233534 -0.432745 0)
(0.0249411 -0.720018 0)
(0.0213291 -0.907912 0)
(-0.00413753 -1.21576 0)
(0.0302482 -1.47357 0)
(0.0295128 -1.75309 0)
(-0.0227816 -1.65261 0)
(-0.0162041 -1.44059 0)
(-0.0122645 -1.16565 0)
(-0.0344055 -0.857172 0)
(-0.0391791 -0.671618 0)
(-0.0239872 -0.403486 0)
(0.00590697 -0.236009 0)
(0.0234721 -0.21036 0)
(0.0175616 -0.327355 0)
(-0.00995758 -0.580998 0)
(-0.0182152 -0.766629 0)
(0.00466899 -0.784097 0)
(0.0230581 -0.82485 0)
(0.0234241 -0.827069 0)
(0.0065253 -0.825553 0)
(-0.0112425 -0.82483 0)
(-0.022353 -0.828079 0)
(-0.0169396 -0.818968 0)
(-0.00267608 -0.777264 0)
(0.0183225 -0.757386 0)
(0.00935282 -0.569901 0)
(-0.0161261 -0.319323 0)
(-0.0203527 -0.209114 0)
(-0.00228395 -0.238627 0)
(0.0268464 -0.404855 0)
(0.0425295 -0.668671 0)
(0.0416784 -0.848015 0)
(0.0169978 -1.1524 0)
(0.0118681 -1.44673 0)
(0.0218271 -1.66632 0)
(-0.0167996 -1.56143 0)
(-0.0174283 -1.39872 0)
(-0.0539392 -1.09056 0)
(-0.0623113 -0.800367 0)
(-0.0487396 -0.616072 0)
(-0.0413129 -0.37831 0)
(-0.00953786 -0.242515 0)
(0.0175715 -0.217244 0)
(0.0311282 -0.306929 0)
(0.0304183 -0.522403 0)
(0.0122796 -0.701657 0)
(0.0102821 -0.787393 0)
(0.0175535 -0.825871 0)
(0.0121456 -0.759288 0)
(0.00497279 -0.754775 0)
(-0.00333783 -0.75457 0)
(-0.0115193 -0.78237 0)
(-0.0172613 -0.819021 0)
(-0.0107855 -0.777787 0)
(-0.0133958 -0.691637 0)
(-0.0306135 -0.513086 0)
(-0.0291475 -0.302107 0)
(-0.0140783 -0.217149 0)
(0.0133347 -0.244412 0)
(0.0442822 -0.378645 0)
(0.050987 -0.612723 0)
(0.0657578 -0.791555 0)
(0.0595964 -1.07519 0)
(0.0200734 -1.39948 0)
(0.015295 -1.57599 0)
(-0.00855694 -1.46774 0)
(-0.0393793 -1.30081 0)
(-0.0868366 -0.999783 0)
(-0.0928786 -0.815149 0)
(-0.0754329 -0.551341 0)
(-0.0657461 -0.357197 0)
(-0.0279791 -0.257016 0)
(0.0120961 -0.239736 0)
(0.0462293 -0.311803 0)
(0.0693355 -0.485869 0)
(0.0662751 -0.637067 0)
(0.0499963 -0.710445 0)
(0.0261547 -0.739151 0)
(0.00979006 -0.733429 0)
(0.00623584 -0.730989 0)
(0.001937 -0.729318 0)
(-0.00844063 -0.73343 0)
(-0.03119 -0.731781 0)
(-0.051874 -0.70156 0)
(-0.067273 -0.628113 0)
(-0.0687345 -0.478714 0)
(-0.0438733 -0.309316 0)
(-0.00849534 -0.240518 0)
(0.0318705 -0.258575 0)
(0.0692239 -0.356912 0)
(0.0780276 -0.546791 0)
(0.0952818 -0.805421 0)
(0.0920215 -0.986212 0)
(0.0427196 -1.29662 0)
(0.00730196 -1.48326 0)
(-0.0084866 -1.38139 0)
(-0.0555096 -1.20269 0)
(-0.0880879 -0.897597 0)
(-0.107518 -0.722049 0)
(-0.116879 -0.490971 0)
(-0.0953182 -0.348034 0)
(-0.0481146 -0.282313 0)
(0.00698276 -0.27588 0)
(0.0599422 -0.333738 0)
(0.097715 -0.463654 0)
(0.102098 -0.578365 0)
(0.0824719 -0.635934 0)
(0.0541271 -0.654547 0)
(0.0290617 -0.651143 0)
(0.010034 -0.64784 0)
(-0.00794568 -0.646844 0)
(-0.0292157 -0.650532 0)
(-0.056358 -0.64917 0)
(-0.0833638 -0.628674 0)
(-0.101835 -0.570834 0)
(-0.0960618 -0.458391 0)
(-0.0570725 -0.332521 0)
(-0.00331238 -0.276908 0)
(0.0518816 -0.283356 0)
(0.0986548 -0.34713 0)
(0.119389 -0.485716 0)
(0.109682 -0.711963 0)
(0.0917305 -0.885436 0)
(0.0594639 -1.1963 0)
(0.00954742 -1.39341 0)
(-0.0188968 -1.28475 0)
(-0.0596896 -1.06745 0)
(-0.103294 -0.86645 0)
(-0.136895 -0.618339 0)
(-0.149731 -0.442397 0)
(-0.120876 -0.35124 0)
(-0.0649153 -0.314043 0)
(0.00179739 -0.317212 0)
(0.0657081 -0.359537 0)
(0.107413 -0.443985 0)
(0.112419 -0.518525 0)
(0.0920065 -0.55803 0)
(0.0628686 -0.571762 0)
(0.0351479 -0.572665 0)
(0.0108734 -0.571248 0)
(-0.0119869 -0.570204 0)
(-0.0365851 -0.570295 0)
(-0.0644292 -0.567007 0)
(-0.0923773 -0.552021 0)
(-0.111217 -0.51264 0)
(-0.104846 -0.440102 0)
(-0.0623565 -0.35861 0)
(0.00164898 -0.317747 0)
(0.067856 -0.314223 0)
(0.123127 -0.349913 0)
(0.151599 -0.437518 0)
(0.13891 -0.609108 0)
(0.10748 -0.855008 0)
(0.0647425 -1.05835 0)
(0.0205748 -1.29278 0)
(0.00126793 -1.16749 0)
(-0.0556082 -0.994138 0)
(-0.134707 -0.725412 0)
(-0.171703 -0.530407 0)
(-0.169306 -0.413783 0)
(-0.132279 -0.362718 0)
(-0.07206 -0.343302 0)
(-0.00539755 -0.350172 0)
(0.0546652 -0.376146 0)
(0.0907354 -0.42238 0)
(0.0949627 -0.464266 0)
(0.0784052 -0.488039 0)
(0.0545818 -0.498721 0)
(0.0308083 -0.501697 0)
(0.0091752 -0.501705 0)
(-0.0112855 -0.50092 0)
(-0.0327765 -0.499658 0)
(-0.0558959 -0.494842 0)
(-0.0783986 -0.483451 0)
(-0.0934273 -0.459948 0)
(-0.087973 -0.419279 0)
(-0.0515384 -0.37489 0)
(0.00803511 -0.34974 0)
(0.073789 -0.342563 0)
(0.133249 -0.360964 0)
(0.170149 -0.409674 0)
(0.172966 -0.522807 0)
(0.137566 -0.715762 0)
(0.0610075 -0.985821 0)
(0.00192708 -1.17054 0)
(-0.0046424 -1.14374 0)
(-0.0901209 -0.812297 0)
(-0.171381 -0.616458 0)
(-0.184468 -0.480777 0)
(-0.168259 -0.40755 0)
(-0.125082 -0.377244 0)
(-0.0697907 -0.365926 0)
(-0.0166092 -0.371134 0)
(0.0276023 -0.385955 0)
(0.0547066 -0.411067 0)
(0.0610869 -0.436954 0)
(0.052768 -0.454342 0)
(0.0381648 -0.463647 0)
(0.0221997 -0.468095 0)
(0.00656778 -0.469807 0)
(-0.00870005 -0.469195 0)
(-0.0240063 -0.466291 0)
(-0.0392241 -0.460951 0)
(-0.0526848 -0.451083 0)
(-0.0597746 -0.433807 0)
(-0.0525399 -0.408711 0)
(-0.0254012 -0.384558 0)
(0.0181517 -0.370036 0)
(0.0704629 -0.364616 0)
(0.125027 -0.3753 0)
(0.168137 -0.404305 0)
(0.184882 -0.475065 0)
(0.172693 -0.608944 0)
(0.0932743 -0.805714 0)
(0.00718149 -1.14238 0)
(-0.0409152 -1.0011 0)
(-0.130026 -0.692608 0)
(-0.182231 -0.565155 0)
(-0.17879 -0.470193 0)
(-0.152831 -0.421509 0)
(-0.111285 -0.399052 0)
(-0.0689711 -0.391599 0)
(-0.0318285 -0.395155 0)
(-0.00191225 -0.405561 0)
(0.0192671 -0.422455 0)
(0.0296136 -0.441739 0)
(0.0301041 -0.45727 0)
(0.0242875 -0.467217 0)
(0.0151721 -0.472766 0)
(0.00452917 -0.475004 0)
(-0.0064835 -0.474581 0)
(-0.0167787 -0.471555 0)
(-0.0252323 -0.465358 0)
(-0.0301449 -0.455133 0)
(-0.0287839 -0.439764 0)
(-0.0179545 -0.421042 0)
(0.00316592 -0.404624 0)
(0.0326436 -0.394249 0)
(0.0691717 -0.390396 0)
(0.110847 -0.397375 0)
(0.152095 -0.419069 0)
(0.178429 -0.466329 0)
(0.182431 -0.559941 0)
(0.130735 -0.68825 0)
(0.0416152 -0.99811 0)
(-0.0518973 -0.899977 0)
(-0.137405 -0.638032 0)
(-0.175239 -0.554964 0)
(-0.164398 -0.486092 0)
(-0.138901 -0.448181 0)
(-0.106338 -0.429649 0)
(-0.0748338 -0.422962 0)
(-0.045959 -0.424158 0)
(-0.0212877 -0.430662 0)
(-0.00209144 -0.441825 0)
(0.0101571 -0.454775 0)
(0.0155555 -0.466438 0)
(0.0152584 -0.474301 0)
(0.0105126 -0.479135 0)
(0.00321382 -0.480902 0)
(-0.00488396 -0.480597 0)
(-0.0119354 -0.478286 0)
(-0.0162574 -0.473077 0)
(-0.0160238 -0.465192 0)
(-0.0100072 -0.45375 0)
(0.00268304 -0.441217 0)
(0.0219999 -0.43031 0)
(0.046545 -0.42377 0)
(0.0750409 -0.422138 0)
(0.106014 -0.428308 0)
(0.13806 -0.446282 0)
(0.163531 -0.483498 0)
(0.174742 -0.551789 0)
(0.137133 -0.635842 0)
(0.0517414 -0.898513 0)
(-0.0494687 -0.836983 0)
(-0.123801 -0.618725 0)
(-0.152517 -0.556055 0)
(-0.146401 -0.50575 0)
(-0.128224 -0.474353 0)
(-0.102858 -0.458008 0)
(-0.0755693 -0.450244 0)
(-0.0503909 -0.448669 0)
(-0.0290882 -0.450417 0)
(-0.0116107 -0.456359 0)
(0.00155308 -0.46211 0)
(0.00950026 -0.468425 0)
(0.011736 -0.470914 0)
(0.00873868 -0.472571 0)
(0.00275058 -0.472933 0)
(-0.00429021 -0.472772 0)
(-0.0101501 -0.47209 0)
(-0.0129475 -0.470257 0)
(-0.010512 -0.467875 0)
(-0.00227143 -0.46184 0)
(0.0115425 -0.456365 0)
(0.0296453 -0.450576 0)
(0.0511395 -0.448799 0)
(0.0761533 -0.449764 0)
(0.102953 -0.456755 0)
(0.127565 -0.47233 0)
(0.145136 -0.503359 0)
(0.151218 -0.553818 0)
(0.122752 -0.617674 0)
(0.0489615 -0.837132 0)
(-0.0370397 -0.789766 0)
(-0.0956935 -0.601637 0)
(-0.124773 -0.548012 0)
(-0.127644 -0.515115 0)
(-0.114802 -0.493019 0)
(-0.0934783 -0.479425 0)
(-0.0704158 -0.470358 0)
(-0.0483784 -0.466295 0)
(-0.0297212 -0.463428 0)
(-0.0127204 -0.467618 0)
(0.00166451 -0.466457 0)
(0.010424 -0.467967 0)
(0.0132022 -0.463908 0)
(0.00981421 -0.4617 0)
(0.00309275 -0.460368 0)
(-0.00476289 -0.460299 0)
(-0.0114087 -0.461485 0)
(-0.0147113 -0.463601 0)
(-0.0118693 -0.467788 0)
(-0.00302636 -0.466723 0)
(0.0120542 -0.468727 0)
(0.0299641 -0.464297 0)
(0.0492105 -0.467219 0)
(0.0715538 -0.470297 0)
(0.0944122 -0.478265 0)
(0.114898 -0.490397 0)
(0.126463 -0.5121 0)
(0.122822 -0.545644 0)
(0.0936233 -0.600457 0)
(0.0359891 -0.790828 0)
(-0.0278737 -0.736193 0)
(-0.077854 -0.572217 0)
(-0.107542 -0.532576 0)
(-0.111004 -0.51783 0)
(-0.0988413 -0.505291 0)
(-0.079488 -0.493219 0)
(-0.0597207 -0.481989 0)
(-0.0408014 -0.475961 0)
(-0.0246922 -0.468693 0)
(-0.00809091 -0.475958 0)
(0.00696437 -0.467193 0)
(0.0151949 -0.464917 0)
(0.017146 -0.454622 0)
(0.0121276 -0.448889 0)
(0.00366973 -0.445928 0)
(-0.00569362 -0.445954 0)
(-0.0140318 -0.448866 0)
(-0.01896 -0.454502 0)
(-0.0170888 -0.464799 0)
(-0.00887498 -0.467784 0)
(0.00708351 -0.478411 0)
(0.0245418 -0.470203 0)
(0.0415671 -0.478141 0)
(0.0614386 -0.482474 0)
(0.0815875 -0.492633 0)
(0.100244 -0.501795 0)
(0.11048 -0.513547 0)
(0.105816 -0.529415 0)
(0.0757733 -0.570258 0)
(0.0267886 -0.737275 0)
(-0.0289411 -0.672892 0)
(-0.0754129 -0.54297 0)
(-0.0975069 -0.519363 0)
(-0.0950826 -0.519175 0)
(-0.0775564 -0.512721 0)
(-0.0557208 -0.498253 0)
(-0.0387723 -0.484492 0)
(-0.026484 -0.476677 0)
(-0.0156813 -0.465821 0)
(-0.00419453 -0.47751 0)
(0.00796707 -0.465605 0)
(0.0167018 -0.45969 0)
(0.0180236 -0.444543 0)
(0.0121302 -0.436011 0)
(0.00333492 -0.432429 0)
(-0.00585021 -0.432612 0)
(-0.0144493 -0.436238 0)
(-0.0201371 -0.444577 0)
(-0.0191498 -0.45931 0)
(-0.0104945 -0.466513 0)
(0.0030878 -0.481135 0)
(0.0152666 -0.467152 0)
(0.0273825 -0.480245 0)
(0.0410317 -0.484711 0)
(0.0592617 -0.499036 0)
(0.0809978 -0.507676 0)
(0.0954237 -0.513109 0)
(0.0963672 -0.515308 0)
(0.0742904 -0.540376 0)
(0.0284257 -0.673781 0)
(-0.0304231 -0.60865 0)
(-0.0725011 -0.521638 0)
(-0.0864568 -0.510763 0)
(-0.0731467 -0.524284 0)
(-0.040683 -0.520017 0)
(-0.0114884 -0.504375 0)
(-2.30325e-05 -0.480622 0)
(-0.00639247 -0.465558 0)
(-0.0121843 -0.457778 0)
(-0.0120327 -0.47105 0)
(-0.003706 -0.469524 0)
(0.00924761 -0.456499 0)
(0.0121345 -0.435203 0)
(0.00766302 -0.424777 0)
(0.00154455 -0.421681 0)
(-0.00453113 -0.422006 0)
(-0.010378 -0.425369 0)
(-0.0145289 -0.435457 0)
(-0.0122377 -0.455411 0)
(0.000466809 -0.470578 0)
(0.00961487 -0.475322 0)
(0.0121206 -0.459636 0)
(0.0101353 -0.470525 0)
(0.00508912 -0.479031 0)
(0.0167087 -0.506822 0)
(0.0447343 -0.512533 0)
(0.073903 -0.516126 0)
(0.0851927 -0.506433 0)
(0.07202 -0.518982 0)
(0.030832 -0.609725 0)
(-0.0257708 -0.549537 0)
(-0.0622216 -0.50715 0)
(-0.0675979 -0.506203 0)
(-0.0350192 -0.540165 0)
(0.0119884 -0.530676 0)
(0.0474815 -0.521059 0)
(0.0511242 -0.472319 0)
(0.0114184 -0.435632 0)
(-0.0223531 -0.441497 0)
(-0.0299355 -0.466438 0)
(-0.0219874 -0.484278 0)
(-0.00603221 -0.458868 0)
(0.000463228 -0.428522 0)
(-0.000132581 -0.417587 0)
(-0.00127235 -0.41535 0)
(-0.00216132 -0.415817 0)
(-0.00290822 -0.418525 0)
(-0.00309034 -0.429079 0)
(0.00275707 -0.456769 0)
(0.0181856 -0.485441 0)
(0.0262298 -0.471065 0)
(0.0235188 -0.450355 0)
(-0.00182222 -0.439259 0)
(-0.0402621 -0.46815 0)
(-0.0439827 -0.521106 0)
(-0.0130108 -0.522037 0)
(0.0341414 -0.532383 0)
(0.0666662 -0.501021 0)
(0.0623461 -0.505267 0)
(0.0263125 -0.551032 0)
(-0.0218092 -0.501633 0)
(-0.0410472 -0.499576 0)
(-0.0177022 -0.512305 0)
(0.025691 -0.57714 0)
(0.0567071 -0.561741 0)
(0.0836093 -0.531611 0)
(0.0869908 -0.459502 0)
(0.0287398 -0.41727 0)
(-0.0391142 -0.439161 0)
(-0.0544524 -0.476238 0)
(-0.0377843 -0.501673 0)
(-0.0211435 -0.465289 0)
(-0.0128607 -0.426543 0)
(-0.00902201 -0.416098 0)
(-0.00440797 -0.414548 0)
(0.00072749 -0.415036 0)
(0.00565316 -0.417198 0)
(0.00995097 -0.427328 0)
(0.0179328 -0.462408 0)
(0.0333956 -0.502857 0)
(0.0496997 -0.481427 0)
(0.0455001 -0.450483 0)
(-0.0127026 -0.416885 0)
(-0.0781548 -0.454828 0)
(-0.0861261 -0.521783 0)
(-0.0620292 -0.553647 0)
(-0.0245783 -0.571236 0)
(0.0219941 -0.508167 0)
(0.0429059 -0.498355 0)
(0.0214656 -0.502823 0)
(-0.0132599 -0.469406 0)
(-0.00494163 -0.522023 0)
(0.0363416 -0.528137 0)
(0.0604553 -0.601851 0)
(0.0839072 -0.584609 0)
(0.100095 -0.518844 0)
(0.0778546 -0.442848 0)
(0.0285242 -0.43183 0)
(-0.0330986 -0.476828 0)
(-0.0597328 -0.504431 0)
(-0.0437848 -0.518123 0)
(-0.0310621 -0.46993 0)
(-0.0261131 -0.429831 0)
(-0.017855 -0.421177 0)
(-0.00712376 -0.420178 0)
(0.00391858 -0.420416 0)
(0.014445 -0.421757 0)
(0.0228031 -0.430221 0)
(0.0280797 -0.466848 0)
(0.0401134 -0.518004 0)
(0.0596465 -0.509645 0)
(0.0453612 -0.487979 0)
(-0.0180271 -0.432627 0)
(-0.0784817 -0.438988 0)
(-0.104785 -0.504255 0)
(-0.088471 -0.581554 0)
(-0.0634073 -0.600456 0)
(-0.0375692 -0.529243 0)
(0.00938201 -0.513339 0)
(0.0171255 -0.467621 0)
(0.00651605 -0.457151 0)
(0.0350829 -0.57198 0)
(0.0583931 -0.544451 0)
(0.076934 -0.596911 0)
(0.0955555 -0.560468 0)
(0.0686344 -0.476764 0)
(0.0258522 -0.435766 0)
(0.0144653 -0.463793 0)
(0.00387894 -0.527301 0)
(-0.0203746 -0.53558 0)
(-0.0330658 -0.526544 0)
(-0.0390303 -0.473592 0)