/*--------------------------------*- C++ -*----------------------------------*\
| =========                 |                                                 |
| \\      /  F ield         | OpenFOAM: The Open Source CFD Toolbox           |
|  \\    /   O peration     | Version:  v1606+                                |
|   \\  /    A nd           | Web:      www.OpenFOAM.com                      |
|    \\/     M anipulation  |                                                 |
\*---------------------------------------------------------------------------*/
FoamFile
{
    version     2.0;
    format      ascii;
    class       surfaceScalarField;
    location    "1.44";
    object      phi.particles;
}
// * * * * * * * * * * * * * * * * * * * * * * * * * * * * * * * * * * * * * //

dimensions      [0 3 -1 0 0 0 0];

internalField   nonuniform List<scalar> 
11770
(
9.06114e-07
-2.39247e-05
3.42522e-06
-2.32339e-05
6.02051e-06
-2.16792e-05
7.74251e-06
-2.08227e-05
8.07888e-06
-1.99673e-05
7.42563e-06
-1.94183e-05
6.52443e-06
-1.84212e-05
5.7059e-06
-1.71658e-05
4.8347e-06
-1.76674e-05
3.91456e-06
-1.82409e-05
2.52891e-06
-1.87608e-05
1.01181e-06
-1.75206e-05
-3.27547e-08
-1.66794e-05
-8.97587e-07
-1.70143e-05
-1.66009e-06
-1.81534e-05
-2.26619e-06
-1.80852e-05
-3.01196e-06
-1.83213e-05
-3.87746e-06
-1.92967e-05
-4.81904e-06
-1.91655e-05
-6.24817e-06
-1.82309e-05
-8.52e-06
-1.78226e-05
-1.13892e-05
-1.82998e-05
-1.34228e-05
-1.77042e-05
-1.35572e-05
-1.77073e-05
-1.19169e-05
-1.82565e-05
-9.38124e-06
-1.83834e-05
-6.59198e-06
-1.89503e-05
-3.93431e-06
-2.06448e-05
-1.59426e-06
-2.27037e-05
-2.36589e-05
4.59566e-06
-1.10117e-05
7.38365e-06
-1.04252e-05
1.06863e-05
-9.47179e-06
1.31165e-05
-8.0266e-06
1.47595e-05
-5.24614e-06
1.45055e-05
-1.46125e-06
1.20299e-05
4.30312e-06
9.18648e-06
7.63905e-06
7.02228e-06
7.89589e-06
4.54399e-06
7.31629e-06
1.73282e-06
6.07328e-06
-3.3272e-07
6.73901e-06
-1.35754e-06
6.99635e-06
-1.51764e-06
5.74253e-06
-1.38457e-06
4.75947e-06
-1.61771e-06
5.06533e-06
-2.79729e-06
5.62628e-06
-5.44014e-06
5.90817e-06
-9.44476e-06
7.80358e-06
-1.40271e-05
9.90571e-06
-1.77628e-05
7.7908e-06
-2.04551e-05
2.01584e-06
-2.11252e-05
-2.68671e-06
-1.93717e-05
-7.09129e-06
-1.64377e-05
-9.49861e-06
-1.28421e-05
-9.44695e-06
-9.26983e-06
-8.5646e-06
-5.93045e-06
-6.95613e-06
-3.89673e-06
-6.33822e-06
-7.05347e-06
3.30748e-06
-1.21433e-05
6.66586e-06
-1.2769e-05
1.03124e-05
-1.32055e-05
1.26751e-05
-1.23686e-05
1.46731e-05
-1.20927e-05
1.60905e-05
-1.07868e-05
1.5258e-05
-5.03986e-06
1.30753e-05
-2.2358e-07
1.06231e-05
1.26506e-06
7.06236e-06
6.32523e-07
2.07269e-06
9.31863e-07
-2.02469e-06
1.25582e-06
-3.43156e-06
9.72079e-08
-3.14365e-06
-1.48898e-06
-2.50371e-06
-2.5463e-06
-2.54088e-06
-2.30945e-06
-4.16816e-06
-7.98555e-07
-7.2518e-06
9.22691e-07
-1.07323e-05
3.12587e-06
-1.48856e-05
5.86329e-06
-1.99421e-05
3.62685e-06
-2.33614e-05
-2.30865e-06
-2.3034e-05
-8.78672e-06
-2.08376e-05
-1.28411e-05
-1.742e-05
-1.40483e-05
-1.28694e-05
-1.36485e-05
-8.78499e-06
-1.20326e-05
-5.21027e-06
-9.50814e-06
-3.02288e-06
-7.8114e-06
-7.06007e-06
3.0555e-06
-9.39135e-06
5.41766e-06
-1.08118e-05
8.36157e-06
-1.19392e-05
1.12551e-05
-1.17679e-05
1.43201e-05
-1.29942e-05
1.83298e-05
-1.29289e-05
2.02758e-05
-8.56838e-06
1.78321e-05
-2.92567e-06
1.28226e-05
-9.11697e-07
7.69732e-06
-2.48485e-06
3.37345e-06
-3.66557e-06
-7.04364e-07
-4.03105e-06
-3.17868e-06
-4.83075e-06
-3.57302e-06
-5.69571e-06
-3.41103e-06
-5.77477e-06
-4.33221e-06
-5.30035e-06
-6.42922e-06
-4.16846e-06
-8.95309e-06
-2.82332e-06
-1.18026e-05
-1.06028e-06
-1.58413e-05
1.74556e-06
-2.07083e-05
9.84156e-07
-2.28715e-05
-2.42958e-06
-2.1534e-05
-9.21298e-06
-1.8883e-05
-1.3537e-05
-1.51373e-05
-1.46633e-05
-1.06642e-05
-1.40011e-05
-6.72402e-06
-1.15054e-05
-3.88048e-06
-8.40839e-06
-2.59547e-06
-6.27912e-06
-4.75992e-06
-2.53839e-07
-6.72755e-06
2.13829e-06
-1.04199e-05
4.98562e-06
-1.27858e-05
8.7831e-06
-1.35794e-05
1.32278e-05
-1.49405e-05
1.79322e-05
-1.53403e-05
2.15553e-05
-1.2448e-05
2.12804e-05
-6.253e-06
1.64724e-05
-5.01075e-06
1.05049e-05
-6.74138e-06
6.76922e-06
-9.32443e-06
4.65124e-06
-1.09903e-05
2.90987e-06
-1.22386e-05
1.1027e-06
-1.24751e-05
-9.76432e-07
-1.11538e-05
-3.56174e-06
-9.53394e-06
-6.37578e-06
-8.53709e-06
-8.85405e-06
-7.81558e-06
-1.19462e-05
-6.454e-06
-1.59883e-05
-3.36355e-06
-1.93472e-05
-1.64043e-06
-1.97175e-05
-2.51208e-06
-1.78849e-05
-9.0043e-06
-1.54994e-05
-1.34819e-05
-1.22089e-05
-1.49903e-05
-7.98166e-06
-1.47071e-05
-3.74924e-06
-1.25433e-05
-9.90691e-07
-9.71057e-06
2.48889e-07
-6.55679e-06
-3.51209e-06
-1.65578e-06
-4.63778e-06
4.15864e-07
-1.02855e-05
3.41381e-06
-1.35841e-05
7.12171e-06
-1.50481e-05
1.13972e-05
-1.58383e-05
1.52254e-05
-1.61681e-05
1.83316e-05
-1.34887e-05
1.9323e-05
-6.74265e-06
1.64068e-05
-5.97103e-06
1.20022e-05
-7.47982e-06
9.59158e-06
-1.03028e-05
9.29614e-06
-1.25705e-05
8.84079e-06
-1.44521e-05
7.20929e-06
-1.51693e-05
4.1087e-06
-1.40003e-05
-9.00672e-08
-1.14744e-05
-4.17079e-06
-9.99843e-06
-7.38794e-06
-9.53423e-06
-1.04653e-05
-8.69307e-06
-1.34908e-05
-5.32351e-06
-1.50266e-05
-1.50941e-06
-1.38096e-05
-8.87086e-07
-1.17886e-05
-6.82294e-06
-1.11353e-05
-1.23826e-05
-9.55167e-06
-1.44323e-05
-6.23566e-06
-1.45535e-05
-3.30191e-06
-1.31328e-05
-1.43523e-06
-1.0311e-05
-2.11618e-07
-6.95896e-06
-2.89768e-06
-6.25406e-07
-4.42502e-06
6.41535e-07
-1.10632e-05
3.03975e-06
-1.47218e-05
6.10414e-06
-1.65019e-05
9.68656e-06
-1.69006e-05
1.23145e-05
-1.67362e-05
1.35704e-05
-1.31786e-05
1.44721e-05
-5.61876e-06
1.38052e-05
-3.71195e-06
1.15701e-05
-4.67192e-06
1.00694e-05
-6.76896e-06
1.00421e-05
-9.44294e-06
1.04234e-05
-1.17323e-05
9.99912e-06
-1.28648e-05
7.79626e-06
-1.22585e-05
3.87199e-06
-9.76898e-06
-9.8161e-07
-7.73567e-06
-5.38788e-06
-6.65127e-06
-8.41705e-06
-6.03318e-06
-1.00488e-05
-3.53941e-06
-1.01888e-05
2.51054e-07
-7.79394e-06
1.49159e-06
-5.57362e-06
-3.83688e-06
-6.79825e-06
-1.02724e-05
-7.51495e-06
-1.36439e-05
-5.94318e-06
-1.47289e-05
-4.03603e-06
-1.36987e-05
-2.34825e-06
-1.16516e-05
-8.80326e-07
-8.35796e-06
-3.03551e-06
4.13921e-07
-5.53142e-06
1.83099e-06
-1.27334e-05
3.96814e-06
-1.61453e-05
6.31668e-06
-1.76868e-05
8.86438e-06
-1.77318e-05
1.01159e-05
-1.67227e-05
9.51059e-06
-1.12207e-05
9.9906e-06
-2.02812e-06
1.06034e-05
1.19387e-06
9.41628e-06
4.19192e-07
7.96791e-06
-1.38056e-06
7.8241e-06
-5.03575e-06
8.9649e-06
-7.60956e-06
9.71308e-06
-8.62195e-06
9.06623e-06
-7.84734e-06
6.86603e-06
-5.55509e-06
3.13852e-06
-3.52991e-06
-1.62727e-06
-1.85783e-06
-5.47001e-06
-8.23706e-07
-6.95617e-06
4.72638e-07
-5.7816e-06
2.77933e-06
-2.0067e-06
4.26249e-06
5.63661e-07
-2.36776e-08
-2.04976e-06
-5.69653e-06
-5.72771e-06
-1.02951e-05
-6.18704e-06
-1.45769e-05
-4.95625e-06
-1.42115e-05
-3.4342e-06
-1.4069e-05
-1.92747e-06
-1.15645e-05
-6.15955e-06
1.49052e-06
-7.30636e-06
3.30137e-06
-1.49291e-05
5.34452e-06
-1.76808e-05
7.31194e-06
-1.84918e-05
9.12361e-06
-1.79397e-05
8.77443e-06
-1.56724e-05
5.65619e-06
-6.6834e-06
5.09582e-06
3.94381e-06
6.10949e-06
8.22014e-06
4.70132e-06
6.97516e-06
3.62325e-06
3.8252e-06
4.74281e-06
-5.8308e-07
6.96347e-06
-3.04221e-06
8.68068e-06
-3.74479e-06
9.17119e-06
-2.5337e-06
8.45283e-06
-3.1302e-07
6.30829e-06
1.65321e-06
2.69573e-06
3.44437e-06
-1.32984e-06
4.97047e-06
-3.47779e-06
5.90109e-06
-1.9258e-06
6.76682e-06
2.84021e-06
7.73558e-06
5.21971e-06
4.06707e-06
2.4025e-06
4.94013e-07
-3.03648e-06
-3.83684e-06
-6.22146e-06
-1.10362e-05
-5.57116e-06
-1.41178e-05
-4.60547e-06
-1.74841e-05
-3.65999e-06
-1.91989e-05
-1.81313e-05
3.62203e-06
-1.1413e-05
5.28098e-06
-1.76836e-05
6.73694e-06
-1.90878e-05
8.16787e-06
-1.87806e-05
9.07425e-06
-1.73583e-05
7.02067e-06
-1.33785e-05
1.64865e-06
5.52663e-07
-4.6355e-07
1.14543e-05
2.7394e-07
1.6159e-05
-3.09824e-07
1.39885e-05
2.91251e-08
8.7672e-06
2.33414e-06
4.25331e-06
5.11821e-06
1.90778e-06
7.36668e-06
1.53615e-06
8.69471e-06
3.0289e-06
8.97146e-06
5.40685e-06
8.07326e-06
7.69806e-06
5.75624e-06
9.5855e-06
2.59755e-06
1.12702e-05
8.50993e-07
1.23858e-05
2.48825e-06
1.2831e-05
6.92987e-06
1.29461e-05
9.29498e-06
9.66765e-06
6.28976e-06
7.55649e-06
-3.79523e-07
4.37942e-06
-5.2937e-06
-3.90787e-06
-5.84821e-06
-1.20798e-05
-5.7465e-06
-1.98767e-05
-3.78803e-06
-2.83505e-05
-2.76114e-05
6.38825e-06
-2.17634e-05
6.66869e-06
-2.21694e-05
7.35661e-06
-2.07247e-05
8.40204e-06
-1.85212e-05
8.4105e-06
-1.58008e-05
3.91548e-06
-8.88375e-06
-2.6511e-06
9.80662e-06
-5.36333e-06
2.08567e-05
-5.03068e-06
2.41364e-05
-4.23108e-06
2.04027e-05
-2.56972e-06
1.38247e-05
3.49785e-07
9.07067e-06
3.30902e-06
6.31807e-06
5.86941e-06
6.08349e-06
7.75304e-06
7.92289e-06
8.65969e-06
1.09972e-05
8.48504e-06
1.42817e-05
7.249e-06
1.67113e-05
5.5025e-06
1.83915e-05
4.90664e-06
1.98104e-05
7.2975e-06
2.02634e-05
1.13547e-05
1.91024e-05
1.28548e-05
1.64518e-05
9.91879e-06
1.49412e-05
3.57672e-06
1.15631e-05
-1.46051e-06
2.71395e-06
-3.39058e-06
-8.34984e-06
-5.13203e-06
-1.96058e-05
-4.07789e-06
-3.17777e-05
-2.98391e-05
3.33068e-06
-3.21863e-05
5.15443e-06
-2.68457e-05
5.85979e-06
-2.2514e-05
6.92797e-06
-1.78408e-05
6.04135e-06
-1.28448e-05
-5.67697e-07
3.76076e-06
-8.19005e-06
2.35948e-05
-1.07335e-05
3.13952e-05
-9.76534e-06
3.22828e-05
-7.41143e-06
2.618e-05
-4.61324e-06
1.82295e-05
-1.43244e-06
1.24378e-05
1.64841e-06
8.81187e-06
4.53624e-06
8.45793e-06
6.80477e-06
1.08864e-05
8.03753e-06
1.52641e-05
8.10727e-06
2.03436e-05
7.56914e-06
2.41298e-05
7.33791e-06
2.64025e-05
8.28685e-06
2.76823e-05
1.2105e-05
2.71084e-05
1.67232e-05
2.38198e-05
1.74414e-05
2.15035e-05
1.4749e-05
2.01752e-05
1.10506e-05
1.60139e-05
6.85608e-06
7.64183e-06
2.32437e-06
-4.52641e-06
-2.64305e-06
-1.90455e-05
-3.71496e-06
-3.29105e-05
-3.41168e-05
8.46767e-07
-4.11849e-05
1.82003e-06
-3.24977e-05
2.33075e-06
-2.36906e-05
2.37413e-06
-1.68013e-05
-4.97705e-06
-3.59784e-06
-1.45987e-05
2.27339e-05
-1.76718e-05
3.821e-05
-1.68078e-05
4.2196e-05
-1.34083e-05
4.12771e-05
-9.59775e-06
3.27597e-05
-6.21599e-06
2.10064e-05
-2.86095e-06
1.34133e-05
5.01426e-07
9.03822e-06
3.80344e-06
8.68428e-06
6.36082e-06
1.17112e-05
7.68957e-06
1.74835e-05
7.66765e-06
2.44899e-05
7.25013e-06
3.04361e-05
7.78516e-06
3.39001e-05
9.82926e-06
3.40328e-05
1.49057e-05
3.08006e-05
2.10884e-05
2.51797e-05
2.38004e-05
2.21749e-05
2.29351e-05
2.11685e-05
2.05332e-05
1.82374e-05
1.65444e-05
1.21533e-05
1.0185e-05
7.09567e-07
2.22977e-06
-2.11418e-05
-2.20048e-06
-3.91613e-05
-4.00444e-05
9.55139e-07
-4.99197e-05
-7.72e-07
-4.90963e-05
-2.29544e-06
-2.75562e-05
-1.21936e-05
-2.97068e-05
-2.42731e-05
1.07563e-06
-2.68612e-05
3.26626e-05
-2.36496e-05
4.50229e-05
-1.82599e-05
4.94305e-05
-1.26668e-05
4.83081e-05
-9.23691e-06
3.79742e-05
-7.04274e-06
2.24384e-05
-3.56709e-06
1.32439e-05
8.46756e-08
8.45922e-06
3.44138e-06
8.15304e-06
6.03408e-06
1.15546e-05
7.46232e-06
1.81198e-05
7.36308e-06
2.63316e-05
6.45246e-06
3.38727e-05
6.74455e-06
3.791e-05
9.52619e-06
3.59474e-05
1.55482e-05
2.92019e-05
2.24673e-05
2.22369e-05
2.64858e-05
1.95078e-05
2.793e-05
2.0022e-05
2.87119e-05
1.82852e-05
2.72705e-05
1.08622e-05
1.84458e-05
-6.92888e-06
4.78369e-06
-3.03919e-05
-2.00922e-06
-4.77708e-05
-4.49559e-05
3.64428e-06
-5.41673e-05
-1.94691e-06
-6.51861e-05
-6.47082e-06
-4.64703e-05
-1.2319e-05
-4.06278e-05
-2.54255e-05
-9.17433e-06
-2.93742e-05
2.51859e-05
-2.421e-05
4.19349e-05
-1.64934e-05
4.84514e-05
-9.36965e-06
4.84183e-05
-5.75889e-06
3.66001e-05
-4.70439e-06
2.2674e-05
-2.31281e-06
1.3178e-05
2.22807e-07
7.31219e-06
2.45607e-06
6.85286e-06
4.34298e-06
1.07467e-05
5.62748e-06
1.79905e-05
5.7943e-06
2.70443e-05
4.96095e-06
3.49884e-05
5.08369e-06
3.82019e-05
8.18008e-06
3.38831e-05
1.43334e-05
2.48625e-05
2.05258e-05
1.82568e-05
2.48925e-05
1.66365e-05
2.76342e-05
1.63919e-05
2.77039e-05
6.61232e-06
2.07723e-05
-9.43539e-06
1.14727e-05
-2.44142e-05
4.38425e-06
-3.77316e-05
8.18251e-08
-5.03444e-05
-4.70093e-05
1.07846e-06
-5.56838e-05
-3.52744e-06
-6.63841e-05
-9.24978e-06
-5.64256e-05
-1.23658e-05
-3.78974e-05
-1.89435e-05
-2.37215e-05
-2.49983e-05
4.87717e-07
-2.19504e-05
2.06198e-05
-1.45338e-05
2.91394e-05
-7.17925e-06
3.01929e-05
-2.00734e-06
1.57729e-05
-3.18137e-07
1.16192e-05
2.41793e-07
9.37706e-06
9.83616e-07
3.87875e-06
1.56394e-06
3.61958e-06
1.99371e-06
8.47865e-06
2.15305e-06
1.67278e-05
2.49278e-06
2.66117e-05
3.5064e-06
3.47039e-05
5.53774e-06
3.65763e-05
8.8823e-06
3.00528e-05
1.32613e-05
1.99922e-05
1.69835e-05
1.19465e-05
1.99116e-05
5.40314e-06
2.00722e-05
-6.40775e-06
1.30571e-05
-1.89619e-05
7.54069e-06
-2.91884e-05
9.00265e-06
-3.0725e-05
7.72641e-06
-3.73493e-05
2.89897e-06
-4.82826e-05
-4.58785e-05
-1.16455e-06
-5.4837e-05
-9.22393e-06
-6.27736e-05
-1.33657e-05
-5.03719e-05
-9.2608e-06
-3.70259e-05
-7.65065e-06
-3.17456e-05
-1.07907e-05
-2.35624e-05
-1.17498e-05
-1.13475e-05
-7.89175e-06
-5.18325e-06
-2.23307e-06
-5.12402e-06
2.07474e-06
-1.83228e-05
3.56485e-06
-1.9464e-05
3.48065e-06
-1.63272e-05
2.14909e-06
-8.94571e-06
6.85005e-07
-6.71447e-06
-6.11081e-07
1.24682e-08
-1.98109e-06
9.3528e-06
-1.78636e-06
1.48574e-05
1.11264e-06
2.07418e-05
4.97982e-06
2.11524e-05
8.03428e-06
1.2078e-05
1.01959e-05
-2.24731e-07
1.11047e-05
-1.16823e-05
6.70111e-06
-2.08408e-05
1.46433e-06
-3.10695e-05
8.02599e-07
-3.28812e-05
4.10948e-06
-3.18646e-05
8.96547e-06
-3.01007e-05
8.63465e-06
-3.66316e-05
4.04031e-06
-4.5339e-05
-4.27964e-05
-3.04944e-06
-5.19588e-05
-1.12389e-05
-5.82096e-05
-1.39058e-05
-4.76597e-05
-8.49039e-06
-3.64864e-05
-3.05363e-06
-3.29244e-05
-1.00883e-06
-3.08706e-05
-6.73484e-07
-2.85835e-05
1.73339e-06
-2.76932e-05
5.64967e-06
-2.96735e-05
9.1782e-06
-3.58936e-05
1.06296e-05
-3.9329e-05
9.16238e-06
-3.99684e-05
5.69732e-06
-3.09527e-05
2.48518e-06
-2.77622e-05
-4.4281e-07
-2.14481e-05
-2.45481e-06
-1.18986e-05
-3.36536e-06
-7.97759e-06
-3.38828e-06
-5.39534e-06
-1.78288e-06
-7.70822e-06
-1.6632e-07
-1.799e-05
-1.95072e-06
-2.69025e-05
-5.2812e-06
-3.3336e-05
-6.27528e-06
-3.57651e-05
-4.56004e-06
-3.40961e-05
-1.35426e-06
-3.20229e-05
3.04436e-06
-3.07993e-05
8.14477e-06
-2.95666e-05
8.22007e-06
-3.59177e-05
3.81961e-06
-4.22022e-05
-3.91766e-05
-3.14587e-06
-4.94355e-05
-1.14799e-05
-5.39459e-05
-1.28854e-05
-4.58329e-05
-7.47717e-06
-3.60572e-05
-2.07067e-06
-3.28601e-05
1.73701e-06
-3.0331e-05
4.22421e-06
-2.9954e-05
7.11052e-06
-3.11596e-05
1.00766e-05
-3.34735e-05
1.25657e-05
-3.58888e-05
1.37382e-05
-3.80599e-05
1.32955e-05
-3.95833e-05
1.10911e-05
-4.01153e-05
8.32191e-06
-3.90286e-05
4.8725e-06
-3.40086e-05
-2.61988e-07
-2.44908e-05
-4.68531e-06
-1.77537e-05
-6.76002e-06
-1.72784e-05
-6.63133e-06
-2.22727e-05
-6.46004e-06
-3.07754e-05
-8.33518e-06
-3.41459e-05
-9.47063e-06
-3.38912e-05
-8.38451e-06
-3.32801e-05
-5.61192e-06
-3.17645e-05
-1.57373e-06
-3.04137e-05
2.9343e-06
-2.94621e-05
7.55365e-06
-2.90926e-05
7.40455e-06
-3.38457e-05
2.87611e-06
-3.83541e-05
-3.50686e-05
-3.98643e-06
-4.80917e-05
-1.15404e-05
-5.0133e-05
-1.15732e-05
-4.36542e-05
-6.67187e-06
-3.51558e-05
-1.74735e-06
-3.22591e-05
2.65441e-06
-2.89999e-05
5.77635e-06
-2.7661e-05
8.94616e-06
-2.84762e-05
1.1696e-05
-3.04842e-05
1.36039e-05
-3.27075e-05
1.44676e-05
-3.46259e-05
1.38823e-05
-3.59017e-05
1.14123e-05
-3.62218e-05
8.11706e-06
-3.53469e-05
4.27283e-06
-2.98033e-05
-6.79956e-07
-1.9919e-05
-4.69903e-06
-1.37578e-05
-5.97935e-06
-1.42759e-05
-5.66094e-06
-2.14065e-05
-6.98798e-06
-2.8818e-05
-9.17121e-06
-3.08086e-05
-9.27331e-06
-3.05476e-05
-7.73983e-06
-2.99747e-05
-5.07777e-06
-2.94309e-05
-1.22372e-06
-2.85811e-05
3.20272e-06
-2.81655e-05
7.77404e-06
-2.83246e-05
7.93522e-06
-3.08404e-05
2.96061e-06
-3.48766e-05
-3.24218e-05
-5.75451e-06
-4.62244e-05
-1.07688e-05
-4.65198e-05
-1.08089e-05
-4.12999e-05
-6.58393e-06
-3.37869e-05
-1.76413e-06
-3.07006e-05
2.89835e-06
-2.70297e-05
6.86866e-06
-2.50954e-05
1.01568e-05
-2.56173e-05
1.26622e-05
-2.73106e-05
1.41303e-05
-2.90716e-05
1.44647e-05
-3.06848e-05
1.33738e-05
-3.17554e-05
1.05696e-05
-3.20366e-05
7.26213e-06
-3.09896e-05
3.55918e-06
-2.48845e-05
-1.02225e-06
-1.44425e-05
-4.50683e-06
-8.86721e-06
-4.92737e-06
-9.83483e-06
-4.38781e-06
-1.92459e-05
-6.26509e-06
-2.64515e-05
-8.69813e-06
-2.70578e-05
-9.36575e-06
-2.67096e-05
-8.35615e-06
-2.62667e-05
-5.64508e-06
-2.66603e-05
-1.89025e-06
-2.68521e-05
2.72253e-06
-2.7192e-05
7.29782e-06
-2.76272e-05
8.04872e-06
-2.87693e-05
3.30965e-06
-3.32279e-05
-3.30311e-05
-4.90048e-06
-4.24667e-05
-7.5267e-06
-4.2722e-05
-9.46982e-06
-3.88227e-05
-6.38818e-06
-3.27206e-05
-1.90641e-06
-2.87766e-05
2.62183e-06
-2.4615e-05
7.34367e-06
-2.25525e-05
1.07848e-05
-2.27528e-05
1.30299e-05
-2.38624e-05
1.41792e-05
-2.50964e-05
1.43313e-05
-2.65139e-05
1.30222e-05
-2.72772e-05
9.96165e-06
-2.77229e-05
6.4631e-06
-2.65717e-05
2.82828e-06
-1.97512e-05
-1.27288e-06
-8.93962e-06
-4.18524e-06
-4.09566e-06
-4.30148e-06
-5.7902e-06
-3.68167e-06
-1.64198e-05
-5.86398e-06
-2.27427e-05
-9.18624e-06
-2.2794e-05
-1.05534e-05
-2.25702e-05
-9.66819e-06
-2.25937e-05
-6.96866e-06
-2.37347e-05
-3.20641e-06
-2.49387e-05
8.33127e-07
-2.60593e-05
5.00184e-06
-2.70043e-05
7.74508e-06
-2.82164e-05
5.34226e-06
-3.09845e-05
-3.3432e-05
-2.641e-06
-3.84139e-05
-5.08189e-06
-3.81327e-05
-7.02651e-06
-3.47873e-05
-5.29732e-06
-3.05498e-05
-2.044e-06
-2.69714e-05
2.33073e-06
-2.20563e-05
7.46551e-06
-1.98006e-05
1.09838e-05
-1.96211e-05
1.30443e-05
-2.00055e-05
1.39386e-05
-2.08008e-05
1.38767e-05
-2.20476e-05
1.21721e-05
-2.26688e-05
8.74441e-06
-2.34126e-05
5.30408e-06
-2.21224e-05
2.08514e-06
-1.44343e-05
-1.45706e-06
-3.63855e-06
-3.67092e-06
4.3189e-07
-3.63355e-06
-2.19224e-06
-3.68001e-06
-1.30869e-05
-6.42e-06
-1.84102e-05
-1.03461e-05
-1.80625e-05
-1.22939e-05
-1.82682e-05
-1.15935e-05
-1.9e-05
-9.09754e-06
-2.08542e-05
-5.72525e-06
-2.27019e-05
-2.0586e-06
-2.45646e-05
1.4252e-06
-2.62572e-05
4.17221e-06
-2.77355e-05
4.80081e-06
-2.86202e-05
-2.95748e-05
-3.03626e-06
-3.42463e-05
-5.40998e-06
-3.31518e-05
-6.35447e-06
-3.04291e-05
-4.65879e-06
-2.62357e-05
-1.91671e-06
-2.31128e-05
1.63298e-06
-1.94682e-05
6.73657e-06
-1.67084e-05
1.04195e-05
-1.61335e-05
1.2491e-05
-1.58008e-05
1.32518e-05
-1.63187e-05
1.29465e-05
-1.7259e-05
1.06809e-05
-1.80764e-05
6.97305e-06
-1.91983e-05
3.8858e-06
-1.77409e-05
1.30065e-06
-8.87714e-06
-1.50898e-06
1.49923e-06
-2.97065e-06
4.74371e-06
-2.64656e-06
8.96526e-07
-3.81886e-06
-1.05073e-05
-7.50167e-06
-1.38926e-05
-1.13845e-05
-1.31768e-05
-1.35234e-05
-1.39506e-05
-1.30076e-05
-1.55536e-05
-1.08742e-05
-1.78725e-05
-8.23127e-06
-2.03417e-05
-5.34239e-06
-2.27527e-05
-2.41704e-06
-2.47784e-05
3.28502e-07
-2.60571e-05
1.6302e-06
-2.63786e-05
-2.47434e-05
-1.94776e-06
-2.94921e-05
-3.06864e-06
-2.8355e-05
-4.55298e-06
-2.58755e-05
-4.63845e-06
-2.17526e-05
-2.37074e-06
-1.80956e-05
1.46022e-06
-1.56394e-05
5.83291e-06
-1.31116e-05
9.37784e-06
-1.21266e-05
1.13261e-05
-1.14734e-05
1.20104e-05
-1.1639e-05
1.13061e-05
-1.22715e-05
8.46095e-06
-1.37875e-05
4.6764e-06
-1.51295e-05
2.2538e-06
-1.26518e-05
6.33282e-07
-3.30453e-06
-1.27728e-06
6.33633e-06
-2.12748e-06
9.03645e-06
-1.31354e-06
4.11115e-06
-3.6789e-06
-7.28947e-06
-8.36412e-06
-9.11516e-06
-1.18815e-05
-8.54328e-06
-1.43127e-05
-9.69953e-06
-1.41141e-05
-1.20124e-05
-1.24569e-05
-1.48416e-05
-1.04023e-05
-1.77843e-05
-7.97002e-06
-2.04497e-05
-5.32202e-06
-2.24452e-05
-2.50323e-06
-2.34703e-05
-9.27624e-08
-2.29431e-05
-2.06467e-05
-1.74983e-06
-2.47321e-05
-1.996e-06
-2.3608e-05
-2.20046e-06
-2.11687e-05
-2.16328e-06
-1.77473e-05
-9.07409e-07
-1.38767e-05
1.40982e-06
-1.07813e-05
4.43032e-06
-8.16394e-06
7.40331e-06
-6.22695e-06
9.49432e-06
-6.54567e-06
1.01232e-05
-6.63173e-06
8.72292e-06
-7.51033e-06
5.25313e-06
-1.00171e-05
2.05809e-06
-1.12102e-05
6.74286e-07
-7.54424e-06
-8.48472e-08
1.71531e-06
-1.03428e-06
1.06888e-05
-1.25445e-06
1.31434e-05
-7.26442e-07
7.89462e-06
-3.5354e-06
-2.53434e-06
-8.31656e-06
-4.38045e-06
-1.186e-05
-4.22645e-06
-1.43603e-05
-5.55778e-06
-1.46181e-05
-8.25086e-06
-1.35738e-05
-1.1614e-05
-1.20286e-05
-1.49416e-05
-9.94388e-06
-1.77584e-05
-7.36602e-06
-1.96424e-05
-4.42834e-06
-2.03479e-05
-1.68345e-06
-1.93382e-05
-1.63645e-05
-1.37385e-06
-1.97145e-05
-5.60958e-07
-1.93491e-05
7.2032e-07
-1.75048e-05
1.75471e-06
-1.41926e-05
3.56479e-06
-1.02001e-05
5.50374e-06
-6.4517e-06
5.06909e-06
-2.93213e-06
4.24816e-06
8.47554e-08
6.19951e-06
2.50507e-07
7.32502e-06
-1.40525e-06
4.92577e-06
-3.57919e-06
1.33584e-06
-6.65785e-06
-7.98496e-07
-7.38622e-06
-9.11715e-07
-3.22565e-06
-5.45363e-07
6.21361e-06
-5.58234e-07
1.48364e-05
3.90358e-07
1.70271e-05
8.22413e-07
1.17323e-05
-2.64472e-06
2.58524e-06
-7.525e-06
3.91462e-07
-1.12217e-05
-1.08e-07
-1.38235e-05
-1.51423e-06
-1.45752e-05
-4.43415e-06
-1.40188e-05
-8.24956e-06
-1.27822e-05
-1.19825e-05
-1.08657e-05
-1.49976e-05
-8.40412e-06
-1.68667e-05
-5.55654e-06
-1.74976e-05
-2.58127e-06
-1.61533e-05
-1.29855e-05
-1.00514e-06
-1.50652e-05
4.55477e-07
-1.5562e-05
3.00359e-06
-1.36817e-05
5.2891e-06
-1.04881e-05
7.01714e-06
-6.43502e-06
8.49066e-06
-2.07159e-06
9.41325e-06
2.08994e-06
7.81774e-06
5.7941e-06
3.67789e-06
8.21748e-06
1.75794e-06
4.72933e-06
9.21408e-08
-2.08466e-07
-2.95237e-06
-3.30076e-06
-3.7079e-06
-3.37489e-06
-2.32704e-06
1.08177e-06
-8.73543e-07
1.02993e-05
2.22733e-07
1.89217e-05
2.7553e-06
2.11544e-05
3.23638e-06
1.54027e-05
-9.52168e-07
7.66816e-06
-6.03785e-06
5.29008e-06
-1.00758e-05
4.16213e-06
-1.29433e-05
2.57851e-06
-1.41866e-05
-5.42676e-07
-1.40056e-05
-4.85579e-06
-1.28798e-05
-9.16588e-06
-1.09488e-05
-1.26184e-05
-8.46841e-06
-1.47556e-05
-5.74815e-06
-1.55036e-05
-2.79181e-06
-1.42341e-05
-1.08525e-05
-6.16945e-07
-1.112e-05
1.31397e-06
-1.2005e-05
4.0379e-06
-9.8346e-06
6.56165e-06
-6.71989e-06
8.47314e-06
-2.66933e-06
9.80828e-06
2.06058e-06
1.03356e-05
6.83512e-06
9.67969e-06
1.12649e-05
5.4611e-06
1.49168e-05
-1.93207e-06
1.31697e-05
-6.23544e-06
4.15571e-06
-7.17472e-06
7.95029e-07
-6.36765e-06
8.96297e-07
-3.63659e-06
5.40055e-06
-1.18098e-06
1.35807e-05
1.78415e-06
2.09991e-05
5.69214e-06
2.43148e-05
5.76068e-06
1.91336e-05
1.218e-06
1.2943e-05
-3.95552e-06
1.06555e-05
-8.50817e-06
8.97953e-06
-1.18456e-05
7.06683e-06
-1.35793e-05
3.58781e-06
-1.37194e-05
-1.36752e-06
-1.26088e-05
-6.53617e-06
-1.05547e-05
-1.07403e-05
-7.94866e-06
-1.35129e-05
-5.316e-06
-1.4637e-05
-2.52123e-06
-1.36668e-05
-1.02631e-05
-1.42528e-07
-8.11208e-06
1.96876e-06
-9.15783e-06
4.99888e-06
-7.15994e-06
7.90009e-06
-4.04693e-06
9.75319e-06
3.70388e-07
1.05837e-05
5.27645e-06
1.04815e-05
1.02873e-05
9.53644e-06
1.51241e-05
7.13585e-06
1.94704e-05
-1.46828e-06
2.14223e-05
-1.017e-05
1.23731e-05
-1.13145e-05
5.72492e-06
-8.63809e-06
5.1133e-06
-4.55273e-06
8.64201e-06
-4.37206e-07
1.51394e-05
4.6738e-06
2.22195e-05
9.26653e-06
2.55956e-05
8.74817e-06
2.34176e-05
4.08065e-06
1.9164e-05
-1.4496e-06
1.672e-05
-6.74106e-06
1.44951e-05
-1.06801e-05
1.19368e-05
-1.29295e-05
7.86632e-06
-1.34507e-05
2.29792e-06
-1.23967e-05
-3.89864e-06
-1.02067e-05
-9.16183e-06
-7.34421e-06
-1.28869e-05
-4.45341e-06
-1.46075e-05
-1.85962e-06
-1.42223e-05
-1.1061e-05
2.45439e-07
-6.18664e-06
2.79594e-06
-7.62764e-06
5.9089e-06
-5.57513e-06
8.03668e-06
-1.95296e-06
8.81298e-06
2.5341e-06
8.87122e-06
7.33378e-06
8.41632e-06
1.23816e-05
7.44773e-06
1.74522e-05
5.87312e-06
2.24393e-05
1.18332e-06
2.66441e-05
-9.67785e-06
2.39655e-05
-1.52778e-05
1.27105e-05
-1.09123e-05
9.9055e-06
-4.74061e-06
1.00045e-05
1.20188e-06
1.47378e-05
8.02943e-06
2.32827e-05
1.35129e-05
2.66769e-05
1.27134e-05
2.85278e-05
7.56144e-06
2.6215e-05
1.12246e-06
2.35034e-05
-4.98468e-06
2.07858e-05
-9.34136e-06
1.69631e-05
-1.19918e-05
1.17668e-05
-1.31321e-05
5.6175e-06
-1.2471e-05
-1.26925e-06
-1.03189e-05
-7.44989e-06
-7.21966e-06
-1.22064e-05
-3.96356e-06
-1.4883e-05
-1.38729e-06
-1.51979e-05
-1.2805e-05
5.47769e-07
-5.22621e-06
3.11639e-06
-6.80072e-06
5.21605e-06
-4.33187e-06
6.05089e-06
-5.02019e-07
6.18552e-06
3.82857e-06
5.87346e-06
8.63991e-06
5.06394e-06
1.38904e-05
3.68539e-06
1.93178e-05
1.93081e-06
2.48129e-05
-2.03896e-07
2.9821e-05
-9.0507e-06
3.22875e-05
-1.69303e-05
2.33534e-05
-1.32529e-05
1.47885e-05
-5.04188e-06
1.08589e-05
2.32976e-06
1.34403e-05
1.14457e-05
2.13332e-05
1.86449e-05
2.9113e-05
1.83456e-05
3.39413e-05
1.24711e-05
3.3812e-05
4.30136e-06
3.18185e-05
-2.66224e-06
2.78405e-05
-7.38305e-06
2.25399e-05
-1.00159e-05
1.54132e-05
-1.12176e-05
8.26651e-06
-1.10656e-05
8.92002e-07
-9.7127e-06
-5.6901e-06
-7.23291e-06
-1.10455e-05
-3.96844e-06
-1.47978e-05
-1.09167e-06
-1.59228e-05
-1.43345e-05
6.70041e-07
-4.85359e-06
2.64968e-06
-6.15821e-06
3.73321e-06
-3.59177e-06
3.83472e-06
2.27663e-07
3.41426e-06
4.65019e-06
2.62438e-06
9.68274e-06
1.23371e-06
1.54232e-05
-1.31528e-06
2.15469e-05
-4.18125e-06
2.74284e-05
-6.75329e-06
3.21567e-05
-1.13089e-05
3.47835e-05
-1.69302e-05
3.11099e-05
-1.47306e-05
1.80718e-05
-5.56947e-06
1.1164e-05
2.51363e-06
1.17638e-05
1.25622e-05
1.87272e-05
2.20609e-05
3.39062e-05
2.41231e-05
4.11465e-05
1.84428e-05
4.24069e-05
9.17364e-06
4.17268e-05
1.41136e-06
3.60503e-05
-3.60065e-06
2.87885e-05
-6.42457e-06
1.93872e-05
-7.53356e-06
1.05989e-05
-7.57391e-06
2.46287e-06
-7.02934e-06
-4.24025e-06
-5.84338e-06
-9.77992e-06
-3.69439e-06
-1.40843e-05
-1.04162e-06
-1.62062e-05
-1.51714e-05
7.98736e-07
-4.89502e-06
2.1489e-06
-6.04086e-06
2.67026e-06
-3.5789e-06
2.12254e-06
2.19321e-07
7.0629e-07
4.78385e-06
-1.0749e-06
1.04752e-05
-3.29755e-06
1.74289e-05
-6.98695e-06
2.50218e-05
-1.09217e-05
3.0868e-05
-1.3708e-05
3.42131e-05
-1.63725e-05
3.50704e-05
-1.88097e-05
3.14591e-05
-1.46796e-05
1.88959e-05
-5.20805e-06
1.0197e-05
3.53735e-06
1.08265e-05
1.17454e-05
1.91933e-05
2.18142e-05
4.12768e-05
2.77544e-05
5.22157e-05
2.51025e-05
5.28639e-05
1.67147e-05
5.08821e-05
8.15062e-06
4.46194e-05
2.94525e-06
3.48701e-05
-4.90925e-07
2.38401e-05
-2.0468e-06
1.2826e-05
-3.15007e-06
3.51124e-06
-3.92001e-06
-3.14095e-06
-3.83368e-06
-8.85359e-06
-2.68862e-06
-1.33121e-05
-8.24651e-07
-1.61265e-05
-1.57851e-05
1.09461e-06
-5.68661e-06
2.16824e-06
-6.72754e-06
2.17928e-06
-4.6598e-06
8.66022e-07
-8.41895e-07
-1.9319e-06
4.2002e-06
-6.14456e-06
1.10754e-05
-9.91522e-06
2.03183e-05
-1.36474e-05
2.8777e-05
-1.66082e-05
3.37744e-05
-1.74746e-05
3.57855e-05
-1.78887e-05
3.5171e-05
-1.77635e-05
2.98736e-05
-1.28341e-05
1.75715e-05
-4.44255e-06
9.22133e-06
2.57042e-06
1.0768e-05
6.5567e-06
2.10739e-05
1.55768e-05
4.4389e-05
2.61423e-05
6.21744e-05
2.85117e-05
6.20414e-05
2.4867e-05
5.65667e-05
1.83436e-05
4.98374e-05
1.29783e-05
3.96757e-05
8.87141e-06
2.82026e-05
5.44158e-06
1.54294e-05
1.17409e-06
3.92626e-06
-1.84477e-06
-2.80931e-06
-2.87886e-06
-8.70415e-06
-2.25548e-06
-1.32735e-05
-6.06493e-07
-1.6295e-05
-1.62446e-05
2.02491e-06
-8.23179e-06
2.80281e-06
-8.80307e-06
2.45202e-06
-7.27098e-06
1.66738e-06
-3.09906e-06
-3.88431e-06
-1.10299e-05
-1.46284e-05
-1.30517e-05
-2.03869e-05
4.58086e-06
-1.96699e-05
1.78202e-05
-1.80847e-05
2.8862e-05
-1.62439e-05
3.25502e-05
-1.4006e-05
3.2362e-05
-1.12003e-05
2.60839e-05
-7.36803e-06
1.36086e-05
-3.63782e-06
6.80496e-06
-1.56124e-06
8.22625e-06
-7.67772e-07
1.59578e-05
5.96761e-06
3.49278e-05
1.77246e-05
6.18493e-05
2.57967e-05
6.4025e-05
2.93769e-05
5.77407e-05
2.89697e-05
5.04357e-05
2.6615e-05
4.21229e-05
2.32242e-05
3.14528e-05
1.45534e-05
1.53103e-05
2.19113e-06
-1.10328e-05
-2.1533e-06
-2.13349e-06
-3.40479e-06
-9.73108e-06
-2.98383e-06
-1.45349e-05
-1.07262e-06
-1.73914e-05
-1.72359e-05
3.12848e-06
-1.2606e-05
3.79585e-06
-1.23103e-05
3.50833e-06
-1.10749e-05
3.29322e-06
-1.28073e-05
-8.86213e-07
-3.60158e-05
-8.57591e-06
-4.12971e-05
-1.40866e-05
-2.95506e-05
-1.68786e-05
-1.88949e-05
-1.63403e-05
-4.37636e-06
-1.31159e-05
2.05553e-06
-7.68076e-06
2.46008e-06
-2.26856e-06
-4.78706e-06
-4.30648e-07
-1.03944e-05
-1.06414e-06
-9.2963e-06
-3.18558e-06
-1.08127e-05
-5.55519e-06
-1.19422e-05
-1.20695e-06
5.2883e-06
9.97348e-06
3.75891e-05
2.13199e-05
4.79383e-05
2.85482e-05
4.7199e-05
3.22602e-05
4.22986e-05
3.55042e-05
3.44643e-05
3.48641e-05
1.6867e-05
2.19046e-05
-9.94813e-06
3.66663e-06
-3.45849e-05
-6.35652e-06
-2.14288e-05
-5.51808e-06
-1.14415e-05
-4.70655e-06
-1.70407e-05
-2.8643e-06
-1.95188e-05
-1.99847e-05
4.16613e-06
-1.77196e-05
6.4471e-06
-1.63106e-05
1.13446e-05
-1.43071e-05
4.16942e-06
-3.31403e-05
-3.69902e-06
-4.63743e-05
-2.0316e-06
-4.547e-05
-2.49912e-07
-4.51102e-05
-7.90067e-07
-4.33531e-05
-1.31504e-06
-3.84665e-05
-3.15437e-07
-3.54288e-05
2.17573e-06
-3.59241e-05
4.55208e-06
-4.093e-05
4.03803e-06
-4.19082e-05
1.27953e-06
-3.79665e-05
-1.59511e-06
-3.87303e-05
-3.96546e-06
-3.92986e-05
-2.86927e-06
-2.77809e-05
4.37729e-06
-4.89312e-06
1.42681e-05
7.84963e-06
2.23585e-05
1.13176e-05
2.77911e-05
8.91788e-06
2.7544e-05
-3.46354e-07
1.88305e-05
-2.00886e-05
1.06639e-05
-3.7601e-05
3.90274e-06
-4.36604e-05
-4.30433e-06
-4.1761e-05
-8.29018e-06
-2.7012e-05
-6.11606e-06
-2.0667e-05
-4.19203e-06
-2.26699e-05
-2.16051e-05
4.06634e-06
-2.3829e-05
7.80882e-06
-2.08109e-05
3.32142e-06
-2.66002e-05
-4.75315e-06
-4.71194e-05
-5.07948e-06
-4.47867e-05
-1.64952e-06
-4.27048e-05
9.1373e-07
-4.21656e-05
3.31628e-06
-4.23818e-05
5.04671e-06
-4.3185e-05
5.98242e-06
-4.41929e-05
6.58565e-06
-4.55685e-05
6.1982e-06
-4.78334e-05
3.40167e-06
-5.03579e-05
-7.00803e-07
-5.09796e-05
-3.29529e-06
-4.78702e-05
-3.4974e-06
-4.35969e-05
-1.94052e-06
-4.00817e-05
1.20286e-06
-3.35208e-05
5.2585e-06
-2.86951e-05
8.43726e-06
-2.74472e-05
9.29568e-06
-2.90464e-05
7.1909e-06
-3.4229e-05
5.64827e-06
-4.11517e-05
6.96055e-06
-4.23628e-05
9.28225e-06
-4.25641e-05
3.4567e-06
-4.37978e-05
-6.08319e-06
-4.26384e-05
-7.8335e-06
-2.77014e-05
-6.20995e-06
-2.69224e-05
-2.67115e-05
3.12752e-06
-2.64999e-05
6.3829e-06
-2.73409e-05
-1.54658e-06
-4.24609e-05
-7.62772e-06
-4.66829e-05
-4.74756e-06
-4.16614e-05
-1.41849e-06
-4.0255e-05
1.13785e-06
-3.93496e-05
3.35681e-06
-3.94462e-05
5.00064e-06
-3.96939e-05
5.92752e-06
-4.08637e-05
6.02462e-06
-4.25147e-05
4.44447e-06
-4.50605e-05
4.2413e-07
-4.76143e-05
-3.85728e-06
-4.77958e-05
-5.91224e-06
-4.46375e-05
-5.50776e-06
-4.12634e-05
-3.7537e-06
-3.95355e-05