/*--------------------------------*- C++ -*----------------------------------*\
| =========                 |                                                 |
| \\      /  F ield         | OpenFOAM: The Open Source CFD Toolbox           |
|  \\    /   O peration     | Version:  2.4.0                                 |
|   \\  /    A nd           | Web:      www.OpenFOAM.org                      |
|    \\/     M anipulation  |                                                 |
\*---------------------------------------------------------------------------*/
FoamFile
{
    version     2.0;
    format      ascii;
    class       volScalarField;
    location    "1.1";
    object      alpha.water;
}
// * * * * * * * * * * * * * * * * * * * * * * * * * * * * * * * * * * * * * //

dimensions      [0 0 0 0 0 0 0];

internalField   nonuniform List<scalar> 
3072
(
0.000438766
0.00288092
0.00484185
0.00484185
0.00484185
0.00433365
0.00043575
8.14233e-05
4.86248e-14
1.55013e-13
1.72182e-13
1.97077e-13
0.000438766
0.00121937
0.00484185
0.00287717
0.00154518
0.000273302
2.40972e-05
2.55369e-05
4.86248e-14
5.10222e-14
5.84308e-14
6.75582e-14
0.000581067
0.00271999
0.00149559
6.43393e-13
7.77922e-13
7.59052e-13
5.04641e-07
8.97858e-05
0.000133512
4.87169e-05
5.64297e-14
1.76395e-13
0.000566675
0.0028215
3.09376e-13
5.47057e-13
6.96985e-13
6.13312e-13
5.31473e-07
8.44628e-05
0.0001362
9.9386e-05
5.43401e-14
1.27441e-07
0.000569067
0.0039145
2.08879e-13
3.20416e-13
6.10117e-13
5.56997e-13
8.37292e-07
4.75625e-06
2.62253e-13
2.71994e-13
2.10636e-13
1.72891e-05
0.0004289
0.0132095
0.0137183
1.84546e-13
3.30688e-13
4.68108e-13
4.63513e-13
5.58461e-13
0.0160916
0.0181686
0.00257913
5.16922e-13
0.000308214
0.0112398
0.0249353
0.00537472
1.86794e-13
2.52642e-13
0.0042013
0.0485678
0.0530846
0.0531695
0.00897212
5.16802e-13
0.000299531
0.00508982
0.0252723
0.0192044
2.00593e-13
0.0033533
0.0416793
0.053253
0.0530843
0.0309069
5.67496e-13
6.24152e-13
9.08937e-05
0.00115699
0.0138295
0.00692293
2.54946e-13
0.0126447
0.053253
0.0531308
0.0209804
7.34034e-13
6.70257e-13
0.00287088
3.34624e-05
0.000536288
0.000680245
3.48777e-13
3.08979e-13
0.00534354
0.0252778
0.0206585
0.0302102
0.0640955
7.62433e-13
0.0604427
0.00029139
0.000248322
0.00201464
0.00485922
3.13803e-13
0.000114896
5.55369e-11
0.041437
0.386753
0.296541
7.88184e-13
0.148035
2.69789e-05
2.69789e-05
0.000968392
0.0226662
3.07748e-13
5.55193e-11
3.01433e-13
0.0673357
0.521872
0.211988
0.00213278
0.1688
6.6112e-05
0.000419891
0.000456508
0.000456508
0.000435201
1.35931e-05
1.53329e-05
3.69667e-06
7.00185e-05
0.000199225
6.76249e-05
0.000307738
6.76285e-14
1.74029e-13
6.44735e-05
0.000258787
0.000387214
0.00050199
0.00045291
0.000125596
2.71503e-05
2.71391e-05
0.000278451
0.000737571
1.9181e-08
1.08035e-07
5.58981e-13
5.52087e-13
4.62865e-05
0.000506929
0.000565066
0.000565834
0.000366873
0.000209249
0.000662801
0.000108529
9.64168e-08
1.74282e-06
2.75058e-06
1.15701e-06
3.97691e-13
4.09573e-13
0.000237287
0.000527005
0.000530549
0.000293754
0.000662675
0.000591423
5.03501e-07
1.36316e-06
2.74331e-06
2.20146e-06
3.0984e-13
3.10876e-13
3.0984e-13
3.33595e-13
3.31721e-05
0.000484128
0.000663662
0.000662555
5.16808e-13
5.95488e-13
6.77887e-13
4.82659e-08
3.12788e-13
3.35677e-13
4.28994e-13
4.23148e-13
0.000132506
0.000664774
0.000663691
0.000637184
6.89561e-13
4.71958e-05
0.000549173
3.10715e-13
3.32408e-13
3.79674e-13
4.66714e-13
8.68875e-06
0.000179945
0.000199815
0.000211957
3.07069e-05
7.07135e-13
0.0027155
0.00292575
3.16654e-13
4.01668e-13
4.68833e-13
9.2495e-07
6.86402e-05
8.17272e-05
3.03224e-13
3.03326e-13
3.60077e-13
0.0297405
0.00550954
0.00214517
3.34324e-13
3.96161e-13
4.7631e-13
5.37323e-13
3.63238e-05
1.11777e-05
3.11357e-13
1.08418e-07
2.43064e-05
0.168782
0.0167559
9.59971e-05
0.000103435
0.000137652
0.0012335
3.17833e-05
5.49937e-06
1.07738e-08
1.25607e-08
2.82518e-13
4.75984e-05
0.1688
0.109968
0.00152455
0.000259771
0.00191022
0.00253101
0.000844743
5.69396e-07
5.55451e-07
8.53755e-08
2.82468e-13
3.65814e-05
0.168782
0.132257
0.00509524
3.72076e-05
0.00249697
0.00253101
0.00213099
0.00011268
3.36318e-13
2.81918e-13
2.81916e-13
1.53008e-05
1.2029e-07
1.67425e-07
1.68907e-07
1.60445e-07
1.15087e-08
1.12851e-11
1.12218e-11
3.38801e-07
3.0411e-12
1.37524e-10
1.40031e-10
1.68281e-10
3.5757e-08
3.57569e-08
3.5757e-08
3.94793e-08
2.30263e-07
1.34131e-07
1.17132e-08
5.7644e-08
3.04421e-12
1.25186e-10
1.53891e-10
3.05973e-10
2.38258e-07
1.63923e-07
5.5675e-08
2.35059e-07
2.3483e-07
8.54023e-08
3.29088e-12
3.3084e-12
5.81307e-12
2.62011e-10
4.157e-10
6.43225e-10
7.05062e-07
5.9979e-07
2.77147e-08
9.38786e-08
1.48526e-07
2.44236e-11
1.00972e-10
2.88712e-09
2.11809e-09
8.23457e-10
2.68067e-09
3.49781e-09
8.77807e-07
1.35173e-06
1.40421e-12
1.52721e-12
5.01944e-09
2.39607e-09
9.73124e-09
1.44705e-08
1.28476e-08
1.16869e-09
1.8592e-09
4.0949e-09
6.86442e-07
1.47407e-06
6.03021e-07
1.31636e-12
8.4874e-10
1.08425e-08
1.63797e-08
7.58577e-09
1.61006e-10
1.76638e-10
4.54574e-09
3.38304e-09
2.92885e-07
1.18152e-06
9.87214e-07
1.30492e-12
1.71352e-09
1.37936e-08
1.59257e-08
1.16078e-08
1.5262e-07
4.86643e-07
5.03922e-07
1.15113e-07
2.89831e-07
2.91334e-07
5.63004e-07
1.31908e-12
1.21922e-09
4.87303e-09
1.57416e-12
3.40346e-07
8.352e-07
8.35196e-07
8.352e-07
4.31926e-07
9.52968e-07
5.0992e-07
2.96266e-09
1.58445e-09
1.25727e-10
2.13446e-10
1.44442e-12
1.04969e-07
6.87987e-07
8.02976e-07
8.0043e-08
2.35572e-11
8.1796e-07
8.446e-07
2.13708e-10
1.31505e-12
1.20632e-12
1.22271e-12
2.07112e-10
4.71315e-09
8.97918e-09
4.8848e-13
4.81008e-13
5.16331e-13
7.44416e-08
7.02959e-07
1.48883e-07
2.64398e-08
1.27839e-12
3.37099e-07
1.29608e-12
1.43512e-12
7.4223e-07
8.85743e-07
3.61955e-07
1.59056e-07
1.0359e-07
1.02164e-07
2.16136e-07
4.60929e-08
2.62555e-06
2.82828e-06
1.7754e-06
1.8584e-06
8.01475e-06
5.67453e-06
9.32466e-06
4.43075e-06
1.67615e-10
1.67729e-10
8.93052e-08
1.42182e-06
1.6602e-06
1.65948e-06
1.32292e-06
1.5044e-10
2.20614e-10
1.5053e-10
1.27035e-07
1.23795e-06
5.54052e-10
6.43097e-10
4.43713e-10
8.49136e-11
8.4162e-11
8.49135e-11
8.41798e-11
3.75554e-09
1.85385e-08
1.50537e-10
1.90432e-07
7.11079e-07
6.26574e-10
3.65202e-10
1.93569e-10
1.04897e-10
9.29437e-11
1.09437e-10
1.07697e-10
1.33384e-10
2.46707e-10
2.50516e-10
7.53562e-11
7.53551e-11
2.55196e-09
7.6665e-10
1.71313e-10
1.71443e-10
2.48724e-10
3.1487e-10
3.29723e-10
3.26226e-10
3.12161e-10
3.93392e-10
2.0454e-10
1.36504e-10
4.47977e-09
3.411e-09
2.42286e-10
1.26235e-10
1.47983e-10
1.99369e-10
2.02319e-10
1.87264e-10
3.07188e-10
3.61729e-10
9.61888e-11
7.68641e-11
3.99053e-09
3.55316e-09
1.08829e-09
1.4681e-10
1.88287e-10
1.8161e-10
1.71741e-10
1.10838e-10
4.51346e-10
7.91e-10
1.92768e-11
2.26705e-11
2.74143e-09
2.8031e-09
4.47814e-10
4.44445e-10
2.35275e-10
1.67251e-10
2.51332e-10
1.04887e-10
4.60884e-10
1.06742e-09
1.9307e-11
1.91463e-11
3.01712e-09
3.33842e-08
4.51498e-10
5.20915e-10
2.46928e-10
1.11902e-10
1.78025e-10
1.20788e-10
1.35618e-10
8.6135e-10
2.081e-08
9.21115e-09
8.20245e-08
4.87105e-08
5.83364e-09
1.41754e-09
2.37104e-10
1.02473e-10
9.8957e-11
1.53648e-10
9.8652e-11
1.72544e-12
1.17509e-07
2.32697e-07
1.88944e-09
5.2159e-10
1.03778e-08
2.68971e-09
3.96313e-10
1.07966e-10
9.12048e-11
1.41419e-10
9.43877e-11
1.78626e-12
9.98868e-08
3.07941e-07
1.81558e-09
6.28356e-13
6.29792e-13
6.65695e-10
5.23423e-10
1.39169e-10
9.10619e-11
9.9484e-11
5.83779e-11
8.36158e-12
1.78763e-12
2.44462e-07
9.38713e-10
7.92949e-13
8.75054e-13
8.73655e-13
2.1211e-11
3.79022e-11
7.26126e-11
1.46415e-10
3.16238e-12
1.86539e-12
1.80227e-12
8.48184e-08
3.22083e-09
3.29452e-09
3.29452e-09
2.3972e-09
2.89664e-12
2.77553e-12
1.67242e-12
1.67242e-12
1.67242e-12
1.67242e-12
1.67243e-12
1.67243e-12
1.34604e-09
2.81043e-09
1.97745e-09
5.49587e-09
2.13884e-08
2.90424e-12
0.000887709
0.00188255
0.00139961
1.67255e-12
1.7237e-12
0.00380922
5.50872e-10
5.28732e-10
8.49475e-10
1.74454e-08
4.63556e-09
7.98663e-06
0.00031218
0.000445549
0.000809061
0.280669
0.550448
0.39646
1.79655e-05
1.94404e-12
1.37852e-09
5.75422e-09
5.16347e-09
8.79326e-06
1.46083e-05
1.42728e-12
1.52612e-12
0.22305
0.56492
0.608846
9.40856e-05
6.16926e-12
1.72237e-10
1.27925e-10
5.32431e-07
1.85508e-06
1.41035e-12
1.52924e-12
0.000353309
0.00121427
7.67843e-13
7.73713e-13
0.000200453
0.000547304
1.27827e-10
1.13866e-08
9.80207e-08
1.40824e-12
1.53901e-12
1.06159e-06
8.08332e-06
1.43622e-09
1.16285e-09
7.07092e-13
6.47556e-05
0.00174017
0.00100084
1.35249e-12
1.41941e-12
1.42748e-12
7.56208e-08
1.76616e-06
2.25978e-06
6.71543e-13
6.10635e-13
4.29485e-11
0.000191481
0.00387692
0.00388735
1.2503e-12
1.2258e-12
1.0587e-08
1.36031e-06
2.4677e-06
2.46774e-06
5.21412e-07
6.39166e-13
2.88968e-11
8.14685e-05
0.00400908
0.00401522
0.000194653
1.22207e-12
1.14895e-07
2.33097e-06
2.46774e-06
1.75371e-06
6.60938e-13
1.52343e-12
1.54432e-12
6.09735e-06
0.00267771
0.00400908
0.000106387
1.22589e-12
5.72584e-08
1.0472e-06
1.3559e-06
1.18725e-07
6.13306e-13
7.33238e-13
1.23615e-08
5.16987e-12
0.000100073
0.0025606
2.71973e-05
1.22214e-12
2.04025e-09
3.09428e-12
2.59382e-09
7.27016e-12
2.88239e-09
4.40757e-07
9.5887e-07
5.13929e-12
5.19695e-12
1.43827e-05
7.80042e-07
1.37318e-08
3.07441e-12
2.57528e-12
3.07812e-12
7.20069e-12
2.66655e-10
1.36033e-06
1.36582e-06
8.097e-10
6.58064e-09
9.47163e-10
6.56106e-11
2.45151e-12
2.92881e-12
3.04888e-12
3.17754e-12
3.28872e-12
2.39948e-08
1.91752e-09
4.20838e-09
1.9256e-12
1.93567e-12
2.79762e-12
2.68874e-12
2.57938e-12
2.71236e-12
0.00167359
0.0194569
0.00924598
4.02089e-12
4.12284e-12
2.6487e-10
0.104737
0.108808
0.0750176
0.0635901
0.142158
0.286753
0.443913
0.653691
0.564473
0.293608
0.172667
5.58486e-12
0.613357
0.618043
0.621448
0.688941
0.859646
0.948629
0.968732
0.99729
0.997217
0.996076
0.840494
0.154893
0.0579932
0.353987
0.591603
0.831803
0.997557
0.997542
0.997557
0.996352
0.996925
1
1
0.682174
6.83936e-13
6.83936e-13
7.45767e-13
0.184874
0.73521
0.921209
0.990968
0.990512
0.993862
0.999447
1
0.882725
7.09919e-11
5.89251e-11
8.78796e-13
0.22056
0.541865
0.834838
0.988838
0.999928
1
1
1
0.878866
3.8714e-11
4.45318e-11
0.00221917
0.425176
0.932347
0.968643
0.999967
1
1
0.824323
0.9076
0.680715
1.41604e-11
1.51019e-09
6.82524e-13
0.369644
0.991415
1
1
1
0.908997
0.30302
0.346479
0.552638
2.31977e-08
2.27605e-09
6.82524e-13
0.405394
0.970538
1
1
0.976734
0.447661
0.00143118
0.0584986
0.570326
2.81627e-07
8.19232e-13
7.41798e-13
0.685339
1
1
1
0.886336
0.131361
1.07201e-12
9.89251e-13
0.599727
3.67679e-07
1.40422e-12
0.153973
0.886758
1
1
1
0.835321
0.105863
1.0496e-12
9.70321e-13
0.574602
0.999143
0.999669
0.999983
0.999999
0.999999
0.999999
0.999999
0.999999
0.999999
0.999999
0.999999
0.999999
0.998535
0.999683
0.99998
0.977948
0.996945
0.999999
0.999999
0.890731
0.507648
0.265735
0.233253
0.53452
0.998971
0.997218
0.756456
0.398675
0.645323
0.664207
0.166114
0.0548677
2.45037e-05
2.45037e-05
2.45037e-05
0.00341632
1
0.599533
0.0315688
0.000349739
0.0262185
0.0340869
0.0256653
0.0681997
0.298191
0.478442
0.630211
0.708956
1
0.607547
2.45037e-05
2.45037e-05
2.45037e-05
0.135032
0.471339
0.802189
0.959284
0.99089
0.991274
0.982886
1
0.787728
0.0202785
0.00387283
0.422724
0.913926
0.986102
1
1
1
0.954393
0.587103
1
0.739823
0.0270146
0.12075
0.89331
1
1
1
1
1
0.956918
0.63603
1
0.806462
0.0520629
0.269433
1
1
1
1
1
1
1
1
1
0.901142
0.185218
0.308031
1
1
1
1
0.969903
0.761172
0.721519
0.928697
1
0.870768
0.375572
0.477034
1
1
1
0.670964
0.0911189
0.018732
0.0603698
0.464279
1
0.801444
0.301628
0.611981
1
1
0.8806
0.113954
0.000694038
0.000694022
0.000694027
0.263862
1
0.871862
0.294804
0.353816
0.968561
0.999778
0.573493
0.000694123
0.000694032
0.000694114
0.000694022
0.647441
0.999999
0.999999
0.999999
0.999999
0.796208
0.0589778
2.39368e-05
0.000815109
0.00156756
0.22354
0.486568
0.988022
0.788307
0.83108
0.651703
0.261774
0.0225174
2.39368e-05
0.00055787
0.0025026
0.000590205
2.39378e-05
0.0162487
0.704461
0.0221417
0.0039604
2.39368e-05
2.39377e-05
2.39368e-05
2.39369e-05
0.000109247
0.000333053
2.39378e-05
2.39378e-05
2.39378e-05
2.39378e-05
0.713935
0.438709
0.242083
0.0912422
0.00335378
2.39368e-05
2.39369e-05
0.0164333
0.154496
0.224605
0.285756
0.0413029
0.960884
0.993795
0.993835
0.89326
0.257933
2.39369e-05
2.39368e-05
0.0743723
0.694343
0.943498
0.949983
0.722623
0.508204
0.705193
0.911403
0.940612
0.785222
0.133705
2.39377e-05
0.113007
0.749793
0.997807
0.997807
0.997807
0.514012
0.508204
0.514959
0.870892
0.863972
0.65133
0.192547
0.105297
0.276303
0.546379
0.846276
0.997807
1
0.891276
0.854438
0.678735
0.623985
0.526819
0.833462
0.5299
0.0410319
0.0112028
0.116628
0.969985
1
1
1
0.965957
0.588935
0.529877
0.987202
0.999997
0.481713
0.0228601
2.74817e-06
0.737272
0.99381
1
0.999974
0.999996
0.999996
0.95602
0.985998
0.999997
0.994636
0.234182
2.74817e-06
0.329217
0.9313
1
0.999954
0.999944
0.999987
0.999997
0.999997
0.999997
0.999997
0.344647
2.74817e-06
0.186774
0.973491
1
1
0.999961
0.999948
0.999983
0.999997
0.999997
0.824312
0.188851
2.74817e-06
0.226606
0.0309713
0.0637888
0.00677608
0.0221264
0.0209684
3.04035e-13
0.0465697
0.515267
0.193658
3.01581e-12
0.0188782
0.168764
0.00418033
0.0666826
0.00677176
0.00713711
0.194307
0.291128
0.579817
0.591496
0.236018
2.91877e-12
0.058396
0.161945
0.00470999
0.0120499
0.0451149
0.0140763
0.133843
0.523429
0.547597
0.48289
0.078953
0.071261
0.112021
0.0257697
0.750543
0.3389
0.0504933
0.00584431
0.0177897
0.233426
0.112653
0.0318938
0.00466025
0.154611
0.110886
0.0103322
0.144465
0.0196088
2.71137e-05
2.70796e-05
0.000417212
0.00211251
0.00227632
0.000466493
3.5932e-13
3.0681e-13
2.81916e-13
1.73811e-06
0.00905846
1.12241e-05
4.31598e-05
3.18083e-05
2.3324e-13
2.31401e-13
9.58076e-06
8.20691e-05
2.10944e-05
3.55091e-13
4.01988e-13
3.75921e-13
1.07695e-05
1.12896e-05
6.96991e-05
7.06336e-05
7.24659e-06
2.80641e-13
2.24423e-13
2.76042e-13
3.34406e-13
4.19506e-05
3.41411e-13
3.40729e-13
1.0431e-05
1.1537e-05
4.89666e-05
4.97851e-05
1.03506e-05
3.14892e-13
2.24423e-13
0.00427533
0.0191643
0.0348778
0.0256409
0.00746369
3.6749e-06
2.81939e-06
2.13516e-07
9.6367e-09
2.23617e-06
2.82829e-06
2.82828e-06
9.70138e-07
1.05918e-05
1.16594e-05
1.1708e-05
6.69377e-06
2.12894e-06
2.77933e-06
5.66926e-07
2.08357e-08
1.4543e-07
2.5924e-06
1.90737e-06
4.34645e-07
1.02721e-05
1.1708e-05
7.61663e-06
1.07875e-06
1.51264e-08
3.41434e-13
3.40752e-13
1.94963e-07
2.82916e-08
1.74257e-07
8.34111e-08
2.0559e-07
1.01457e-05
6.51591e-06
7.57985e-13
7.70425e-13
6.70568e-09
0.00185126
0.0010014
2.29075e-09
8.38327e-10
1.84807e-09
1.01644e-07
2.94251e-06
1.66607e-06
4.25088e-12
3.74581e-12
2.02997e-12
2.34707e-08
8.28544e-13
2.96226e-12
2.14907e-12
1.23823e-10
2.46006e-11
2.39773e-11
1.02631e-10
1.05631e-08
1.96278e-09
1.85082e-12
4.48093e-09
1.73607e-12
4.4372e-12
3.3689e-11
5.97794e-12
3.79878e-10
1.22414e-09
7.96333e-10
6.37578e-11
2.81308e-08
3.21639e-07
2.64962e-07
3.86412e-08
1.80798e-12
2.68279e-11
1.30776e-10
6.26393e-12
3.90815e-10
1.09688e-08
1.0553e-08
1.01943e-09
9.48948e-13
5.40306e-07
7.1584e-07
7.15841e-07
8.13425e-12
8.63754e-11
2.43522e-10
1.20625e-11
1.17613e-09
1.28902e-08
1.35943e-08
1.24529e-08
1.00379e-12
1.78468e-07
7.15841e-07
7.15841e-07
7.71908e-08
5.20304e-12
5.1785e-12
5.22386e-12
1.29459e-09
3.18634e-11
1.01158e-11
1.15559e-11
7.29927e-12
1.45975e-07
1.36582e-06
1.04092e-06
1.43261e-07
1.82009e-07
2.78165e-08
5.27007e-12
5.33192e-12
1.449e-11
1.17165e-11
3.59567e-12
3.39221e-08
5.94449e-07
6.1138e-07
1.07072e-08
5.70054e-07
2.32502e-07
2.73792e-08
5.31193e-12
5.31019e-12
5.34434e-12
7.59056e-12
3.59586e-12
5.49613e-07
6.05974e-07
1.02495e-08
1.10515e-08
4.62651e-07
7.89913e-08
1.47218e-08
5.35679e-12
5.96637e-10
5.81567e-10
3.59724e-12
3.59554e-12
3.01551e-07
1.90658e-07
4.51464e-13
0.0441723
1.45967e-12
0.000168849
0.643238
1
1
1
1
0.638582
0.0488598
1.05405e-12
9.70321e-13
0.279192
0.000818651
0.445777
0.9592
1
1
1
0.770624
0.185735
1.03559e-12
9.73975e-13
9.70321e-13
1.03541e-12
0.308961
0.926546
1
1
1
0.951466
0.3136
9.34176e-05
8.77446e-05
1.01047e-12
9.70321e-13
9.71624e-13
0.603695
1
1
1
0.918348
0.566634
0.0418704
9.82869e-05
0.000114785
0.000667503
0.000699682
0.00019068
0.940374
0.97384
0.290081
0.294804
0.925073
0.999515
0.570762
0.000694209
0.000694014
0.000694201
0.0955755
0.875895
0.511721
0.974475
0.752941
0.357811
0.892636
1
0.619049
0.00525507
0.000694358
0.000694256
0.54048
0.986499
0.0318561
0.899085
0.945404
0.911091
0.96782
1
0.74831
0.0568255
0.000694501
0.289419
0.909001
0.999876
2.0845e-12
0.253217
0.867327
1
1
1
0.757243
0.0497271
0.281579
0.874755
0.999974
0.999883
1
1
0.999998
1
0.999999
0.999999
0.998114
0.857125
0.328689
0.00185362
2.74817e-06
0.00664174
1
0.999972
0.999991
1
1
0.906626
0.535218
0.149205
0.0106596
0.0127359
0.00524242
0.00160537
0.999869
0.999919
0.999991
0.973891
0.748692
0.265059
0.0143501
0.0155089
0.166606
0.508384
0.544867
0.249767
0.999926
0.999922
0.853199
0.402263
0.025352
2.74813e-06
0.0132933
0.37108
0.844555
0.99999
0.999998
0.967263
0.566333
0.185986
0.0564731
0.00501932
0.00429497
2.69789e-05
2.69789e-05
6.68673e-05
0.156904
0.154187
0.000693638
2.40854e-13
0.540586
0.186752
0.567809
0.0709053
0.00737636
2.69789e-05
0.00200852
0.0173849
0.0183753
0.00150751
0.00147071
2.3984e-13
0.883085
0.519713
0.999163
0.59235
2.69789e-05
2.69789e-05
0.00595947
0.241768
0.000505167
0.00529975
0.00112193
2.66888e-13
1
0.989255
0.999901
0.67574
2.69789e-05
0.00444151
0.171641
0.364881
0.000490063
2.01024e-06
2.24848e-06
2.54762e-06
9.80452e-06
3.71101e-05
2.88038e-13
3.60219e-07
0.000190803
2.86813e-13
2.24423e-13
0.0291503
0.0598914
0.0598906
0.054428
0.0262264
2.86156e-13
7.00156e-07
3.56292e-13
9.81265e-05
0.000260783
7.69925e-05
2.71488e-13
0.00875945
0.0598906
0.0598912
0.0318365
0.00948253
5.57129e-05
1.66858e-05
4.03076e-13
0.000219311
0.000262052
0.000207496
3.18203e-13
0.00701454
0.0575401
0.0598904
0.0111499
1.31194e-08
0.000377333
0.000294973
8.90617e-05
0.000146292
5.68556e-05
3.3563e-05
0.000443665
0.0126197
0.0442285
0.059891
0.00941264
1.31699e-08
0.0195602
0.0024513
0.000227619
8.38354e-10
1.00401e-06
1.83586e-06
8.11391e-07
2.32078e-06
8.71721e-09
9.53684e-09
8.38171e-13
1.56292e-12
0.0120273
0.000872786
6.53076e-07
3.25472e-07
2.49462e-06
2.5387e-06
1.48884e-06
1.20054e-07
1.27225e-07
3.40346e-08
8.37843e-13
1.65272e-12
5.45845e-05
3.19547e-06
1.55502e-06
2.71739e-06
5.74509e-07
1.23001e-06
3.00008e-06
1.10261e-06
5.39736e-07
2.53701e-08
8.38284e-13
2.3015e-12
1.31193e-08
1.324e-08
1.00328e-06
2.73668e-06
3.05196e-07
9.8853e-07
3.11681e-06
5.52379e-06
1.82706e-07
9.14873e-13
5.07321e-12
3.46433e-12
1.7717e-11
1.64907e-10
3.02527e-10
3.26223e-10
2.0458e-09
1.22412e-08
1.07094e-09
3.10204e-08
2.68506e-10
6.30273e-10
1.2258e-07
7.07347e-08
4.10266e-12
7.08109e-11
2.47986e-10
8.27825e-10
3.90303e-09
3.58749e-08
1.10866e-09
2.68915e-09
8.08011e-11
8.81046e-08
6.46929e-07
8.28122e-07
1.46889e-12
1.25914e-11
1.5183e-11
2.95446e-09
6.64776e-08
9.84327e-08
2.63396e-08
1.00432e-08
1.16766e-10
2.86211e-07
1.67471e-06
1.6747e-06
1.17194e-12
3.47063e-12
8.05844e-13
6.31513e-09
9.84327e-08
9.84322e-08
9.7053e-08
1.48579e-08
5.4362e-09
6.03086e-08
1.2554e-06
1.67458e-06
1.10982e-08
1.02358e-08
3.39984e-08
6.72491e-09
1.2731e-09
8.021e-12
1.75231e-07
1.24734e-06
5.66226e-08
4.58332e-13
4.51952e-13
0.253345
2.7006e-07
1.10982e-08
3.31556e-08
1.83843e-08
1.14101e-09
3.7454e-11
6.2476e-09
1.70041e-06
4.87187e-13
7.47353e-13
3.91718e-13
1.11145e-13
1.67462e-06
9.53655e-07
5.44768e-12
8.88833e-09
5.5202e-12
3.93171e-07
2.09869e-06
8.33803e-13
1.84907e-12
1.09865e-12
4.09415e-13
1.11553e-13
1.67451e-06
1.23526e-06
5.42678e-12
2.61977e-10
5.51064e-12
1.09955e-06
4.68056e-06
8.33006e-13
5.76659e-12
1.62777e-12
5.54009e-13
9.18571e-12
0.604557
0.99495
0.996132
0.830744
0.138445
0.214276
0.00011449
0.00299902
0.00030627
0.000727273
0.000590367
7.33426e-05
1.08173e-13
0.431916
0.454238
0.100886
0.0036027
0.400054
0.000144764
0.00302952
0.000163788
0.000162904
3.54472e-05
1.38068e-12
1.27121e-13
5.5954e-14
5.58766e-14
5.59472e-14
0.00276419
0.363464
4.81272e-05
0.00144638
0.000376785
1.27818e-12
1.29229e-12
1.33983e-12
4.41467e-06
4.51491e-05
5.59472e-14
1.21516e-13
0.0036153
0.0413213
0.00128811
0.000129891
0.00100475
1.24805e-12
1.21535e-12
0.00279597
2.15924e-06
0.307956
0.973196
1
1
0.932224
0.471887
0.815865
1
1
0.999976
0.999948
0.026702
0.637556
1
1
0.985201
0.668161
0.475286
0.999954
0.999957
1
1
1
0.140943
0.999791
1
1
0.967841
0.636184
0.943911
0.999293
1
1
1
1
0.417654
1
1
1
0.758793
0.636772
1
1
1
1
1
1
1
0.966576
0.281949
2.74813e-06
2.74813e-06
2.74813e-06
0.151905
0.978965
0.99999
0.99999
1
0.952789
1
0.994828
0.522035
2.74813e-06
2.74813e-06
2.74813e-06
0.0135097
0.666524
0.999998
0.999992
1
0.951989
1
1
0.808133
0.0365803
2.74813e-06
0.00138221
0.182854
0.596862
1
1
1
0.991282
1
1
0.929913
0.243515
2.74813e-06
0.0655742
0.568362
0.716002
0.853221
0.885669
1
1
1
1
0.980083
0.288324
2.69789e-05
2.69789e-05
0.424671
0.196888
0.21376
0.0110392
0.0138792
3.90892e-14
1
0.990495
0.663266
1.77597e-12
0.0164489
0.286905
0.424831
0.330708
0.53109
0.315448
0.0474289
7.85351e-14
0.512366
0.325601
0.0486728
1.80576e-12
0.0249085
0.358673
0.276847
0.53109
0.534214
0.440262
0.0517784
1.05652e-13
0.00317265
1.08347e-12
1.0067e-12
1.04203e-12
0.162059
0.236129
0.221073
0.48561
0.256306
0.0098063
0.00893947
0.00194012
1.04751e-12
0.044587
0.241096
0.288137
0.312109
0.235544
0.243062
0.258738
0.0912623
0.10531
0.00364284
0.00357329
9.9521e-13
0.0312441
0.282275
0.329133
0.293547
0.4075
0.54873
0.286746
0.741451
0.776664
0.0684502
0.000543518
0.00644557
0.00507176
0.0147841
0.119198
0.260653
0.496058
0.566695
0.569616
0.894084
0.894106
0.475494
0.00852823
0.0986181
0.178589
0.178443
0.321235
0.322429
0.215949
0.335238
0.811206
0.894106
0.894084
0.753727
0.0367459
0.0881964
0.264721
0.266358
0.262427
0.28393
0.123588
0.12286
0.715125
0.894084
0.883941
0.482137
0.0165397
0.00839639
0.0807379
0.142912
0.0258519
0.0249327
0.0659193
0.278278
0.832678
0.585285
0.318633
0.107292
0.00145776
3.70879e-07
3.70879e-07
0.0604858
0.112982
0.254437
0.513638
0.883888
0.95521
0.38541
0.0223654
0.00805974
0.000182838
3.64695e-06
3.70879e-07
0.117141
0.30302
0.736083
0.953058
0.95521
0.95521
0.399513
0.00364425
1.93016e-14
2.51239e-15
0.000377333
0.000377333
0.000343384
1.13742e-05
1.63503e-13
2.07889e-13
0.00273092
0.0105092
0.0116741
0.0309045
0.00937938
1.31193e-08
0.000377333
0.000156854
0.000160096
1.06836e-13
1.48349e-13
6.19854e-05
0.00282937
0.00364199
0.0014724
0.000596836
0.00251583
0.000431247
0.000190436
1.05668e-13
1.05755e-13
1.10773e-13
1.41891e-13
1.98814e-07
0.000780885
0.00238265
0.00188659
4.22288e-13
0.000337829
0.00075286
7.0363e-14
1.07651e-13
1.26051e-13
1.55921e-13
2.60691e-06
1.00526e-05
0.0009803
0.00237977
0.00124186
4.06308e-13
6.83469e-05
0.000368738
1.1311e-13
6.89369e-08
1.60716e-13
2.92235e-05
0.000209045
0.000240117
0.000683484
0.00161605
0.00134459
4.03536e-13
4.51371e-13
4.94642e-13
1.5557e-07
7.82087e-07
1.94915e-13
8.15504e-05
0.000318157
0.000322466
0.000109143
0.000570561
0.00111795
4.4031e-05
4.49305e-13
1.22773e-07
6.24438e-07
1.18827e-06
1.36797e-06
1.85434e-05
0.000104826
7.84196e-05
2.04445e-06
0.000143611
0.000463171
0.000423507
2.42663e-05
8.62554e-13
3.42255e-07
1.92913e-08
2.65848e-06
6.79593e-06
3.37745e-13
3.36132e-13
1.51977e-06
2.64505e-05
9.6469e-05
0.000236145
0.000153155
8.60902e-13
6.20691e-14
5.27918e-09
6.46935e-07
5.06671e-07
2.67225e-07
8.28415e-07
5.43711e-05
0.000106678
6.78942e-05
5.01164e-05
4.9328e-05
1.06133e-05
3.33933e-11
1.14851e-08
1.37448e-08
6.60847e-14
3.95051e-06
0.000113852
0.000220401
0.000215269
0.000174035
6.73922e-05
7.24292e-06
7.13796e-06
1.67e-13
7.49342e-11
1.32159e-14
3.96085e-14
2.1213e-06
0.000284603
0.000446818
0.000103919
2.08991e-05
8.923e-05
9.20387e-05
4.638e-05
1.88883e-15
1.91481e-15
1.3251e-14
2.26874e-14
5.86156e-14
0.000174799
0.000446818
0.000193168
4.48278e-06
1.05187e-05
9.46756e-05
0.000129237
6.89476e-05
7.16605e-05
1.19794e-07
1.51902e-06
1.39766e-06
2.00308e-06
8.97888e-07
5.56814e-06
3.01906e-07
9.21265e-13
6.01167e-12
5.0235e-12
3.68397e-05
0.000123139
1.1288e-07
5.56069e-07
2.23215e-06
1.95185e-06
8.10042e-07
2.26242e-06
4.26787e-13
8.85203e-13
5.88864e-12
5.41539e-12
4.05057e-05
0.000120539
1.19794e-07
5.18791e-07
1.97369e-06
1.786e-06
6.64271e-06
1.18856e-08
4.2777e-13
5.42262e-13
3.38278e-12
3.97864e-12
1.94908e-06
1.82194e-05
2.63452e-06
1.0243e-06
9.55042e-07
6.06607e-06
1.81562e-05
1.58659e-06
4.50473e-13
4.1595e-13
1.36265e-12
1.44177e-12
6.85221e-07
2.99127e-07
4.1396e-06
5.61776e-07
7.29938e-06
1.8219e-05
1.82504e-05
2.0004e-06
4.17584e-13
3.65952e-13
3.964e-13
9.56066e-10
4.49593e-07
3.06716e-07
2.71246e-06
5.66458e-07
8.65366e-06
4.74819e-06
6.61301e-06
1.83585e-07
4.25476e-13
3.95063e-13
1.00769e-07
1.97422e-07
5.91801e-08
1.6894e-07
1.74014e-07
1.44203e-06
2.06505e-06
1.24765e-06
4.13049e-06
1.80256e-07
2.07555e-05
2.25339e-06
2.24754e-06
3.7171e-07
9.25705e-13
4.70272e-07
2.56795e-06
3.48782e-06
9.14335e-07
9.03333e-06
1.32975e-05
1.25912e-05
0.000191082
0.000113281
4.35067e-06
8.44757e-14
9.22741e-13
1.55361e-07
3.48782e-06
3.46001e-06
2.74915e-06
1.35839e-05
4.11382e-06
7.57356e-05
0.000224661
0.00019424
3.24537e-06
5.97938e-14
5.33291e-06
1.07339e-06
1.03396e-06
6.68401e-07
5.46332e-06
1.31134e-05
2.66906e-06
0.000107584
0.00022304
9.60091e-05
8.73062e-07
3.14958e-14
2.52454e-06
6.7174e-07
6.684e-07
6.7174e-07
1.92023e-06
4.18739e-06
2.66906e-06
0.000116287
0.000194089
3.6951e-05
3.86941e-14
4.18154e-15
0.000123196
7.19036e-05
5.56781e-05
6.60255e-05
9.13506e-05
3.88531e-05
2.66906e-06
0.000204003
6.84063e-05
4.35345e-14
7.60605e-15
4.43909e-16
6.93486e-13
1.54726e-12
7.5695e-13
6.35211e-10
2.30532e-08
9.84328e-08
9.84322e-08
5.36763e-09
3.99444e-10
4.14723e-11
1.98264e-07
1.49738e-06
3.85434e-13
6.08035e-13
7.03106e-13
7.09182e-13
7.48095e-13
2.74395e-08
4.91302e-08
4.14634e-11
4.14252e-11
4.14254e-11
4.14741e-11
1.13507e-07
6.35928e-14
1.88526e-13
6.53679e-13
2.13752e-12
1.48798e-12
8.21431e-13
7.25414e-13
7.68437e-09
4.14391e-11
1.39526e-10
1.0979e-10
4.16305e-11
4.54314e-14
2.18394e-13
1.59434e-12
5.00822e-11
1.68231e-10
1.06647e-10
1.66927e-09
7.72083e-09
4.14434e-11
6.63255e-11
4.9064e-11
4.15929e-11
3.18448e-14
1.82629e-13
2.27903e-12
2.24796e-10
1.78651e-09
2.73179e-09
1.88734e-09
6.54912e-10
1.38307e-10
8.14485e-09
5.13704e-08
4.15761e-11
1.55157e-14
9.42882e-14
1.43645e-12
3.46056e-10
3.9678e-09
7.64023e-09
6.14482e-09
1.70099e-09
2.43178e-10
1.1231e-10
1.13678e-10
2.8225e-06
4.15406e-14
1.93048e-13
8.64985e-13
1.88812e-10
4.00673e-09
8.23479e-09
8.18194e-09
4.39714e-09
4.27786e-10
1.13827e-10
9.34288e-11
2.47388e-06
6.83835e-14
2.90143e-13
4.80935e-12
3.2932e-10
2.51305e-09
5.46953e-09
6.26577e-09
2.13752e-09
6.92221e-10
5.51077e-10
9.40863e-11
1.02905e-07
5.12818e-15
7.37294e-14
7.78713e-13
6.46144e-11
7.4041e-10
2.08117e-09
2.79762e-09
1.6801e-09
4.75922e-10
4.07492e-10
3.36135e-10
1.882e-11
7.10656e-15
9.87232e-14
4.55457e-13
1.37927e-11
4.14959e-10
1.84698e-09
2.75515e-09
2.22558e-09
6.9501e-10
3.53986e-10
2.59164e-10
1.12723e-10
5.07726e-16
3.78731e-14
2.72043e-13
1.68637e-12
1.16876e-10
1.02146e-09
2.34433e-09
2.70268e-09
2.08619e-09
7.01627e-10
3.73127e-10
2.55789e-10
2.42186e-17
1.62075e-15
2.98117e-14
2.73029e-13
2.21861e-12
1.40211e-10
1.06045e-09
2.14763e-09
2.45086e-09
2.18303e-09
1.22799e-09
6.36427e-10
1.66774e-06
1.77869e-07
5.42688e-12
5.48502e-12
5.47825e-12
3.12432e-08
4.68091e-06
8.34158e-13
8.45235e-12
2.42075e-12
6.84949e-13
8.00408e-14
2.93984e-07
4.14806e-08
5.42676e-12
5.42745e-12
5.43957e-12
2.42506e-06
9.09363e-07
2.65e-12
2.42984e-11
5.26451e-12
9.10244e-13
1.30978e-13
4.16367e-11
4.22647e-08
3.96559e-08
5.44148e-12
3.82232e-06
9.62888e-06
1.57777e-08
9.98191e-13
5.88539e-11
1.76215e-11
1.5292e-12
1.93853e-13
1.93241e-10
4.77271e-09
3.49184e-09
4.79293e-06
9.62888e-06
9.64244e-06
6.73439e-07
9.51839e-13
1.03412e-10
3.43015e-11
2.44419e-12
3.20206e-13
4.15716e-11
4.15886e-11
2.47972e-06
8.61928e-06
8.77375e-06
5.04422e-06
1.78059e-07
9.91103e-13
1.73224e-10
7.69246e-11
6.27308e-12
7.00897e-13
5.93867e-06
6.81642e-06
8.70422e-06
8.2538e-06
6.78735e-07
1.89239e-11
1.26672e-10
2.48812e-10
2.74647e-10
1.1338e-10
5.81567e-12
3.46011e-13
8.704e-06
8.70422e-06
8.704e-06
1.24074e-06
2.72234e-11
2.57075e-11
3.62083e-11
3.34852e-10
3.79619e-10
1.81043e-10
1.75714e-11
5.28142e-13
2.69196e-06
6.70935e-06
5.94449e-06
6.62275e-11
1.23264e-10
1.46845e-10
1.83712e-10
4.34996e-10
4.79799e-10
2.67367e-10
2.52565e-11
2.55621e-13
1.87989e-11
1.85809e-07
1.02473e-07
6.61998e-11
1.56936e-10
1.73903e-10
2.36948e-10
4.91302e-10
5.41157e-10
2.95483e-10
2.96674e-11
5.16631e-13
3.26954e-11
1.87157e-11
1.86919e-11
6.86556e-11
1.33174e-10
1.53026e-10
2.26948e-10
5.32862e-10
5.57416e-10
2.58126e-10
1.50954e-11
4.64577e-13
1.49976e-10
8.71201e-11
5.90404e-11
9.31178e-11
1.28498e-10
1.4964e-10
2.48739e-10
5.87341e-10
5.547e-10
1.89954e-10
7.56241e-12
2.45079e-13
3.42851e-10
2.07817e-10
1.70086e-10
1.70109e-10
1.81105e-10
2.03551e-10
3.2101e-10
6.50395e-10
4.73167e-10
3.88052e-11
5.51389e-13
1.61789e-14
0.000432852
0.00242481
5.58766e-14
1.06588e-13
0.159541
0.446443
0.096582
1.18486e-12
0.000597926
1.1241e-12
1.16996e-12
0.108376
0.000874622
0.00318324
9.53678e-14
0.0796988
0.81257
0.862911
0.169034
1.18341e-12
0.000132843
1.12258e-12
1.17174e-12
0.301484
0.000677662
0.00263526
1.42657e-13
0.309878
0.89555
0.859764
0.148066
1.18577e-12
1.29288e-12
1.19103e-12
0.0195072
0.617407
4.39038e-05
1.13012e-11
0.00128091
0.454834
0.895245
0.780561
0.114457
0.00884704
1.19855e-12
1.22599e-12
0.284222
0.990371
1.86528e-13
3.59993e-11
1.88963e-13
0.273956
0.894971
0.756663
0.409943
0.436488
0.327895
0.260157
0.85494
0.999953
2.90075e-09
1.09563e-08
1.48017e-13
0.0910125
0.638536
0.899604
0.606149
0.708455
0.960962
0.896944
0.999998
0.999947
1.93501e-08
2.66858e-08
1.10339e-13
0.00153942
0.525205
0.974173
0.708782
0.641334
1
1
0.999997
0.999986
2.42594e-08
2.24413e-08
8.51523e-14
0.014564
0.586622
0.976063
0.778833
0.615183
0.842117
1
1
1
6.25902e-10
7.06661e-09
6.10996e-14
0.00642514