/*--------------------------------*- C++ -*----------------------------------*\
| =========                 |                                                 |
| \\      /  F ield         | OpenFOAM: The Open Source CFD Toolbox           |
|  \\    /   O peration     | Version:  2.4.0                                 |
|   \\  /    A nd           | Web:      www.OpenFOAM.org                      |
|    \\/     M anipulation  |                                                 |
\*---------------------------------------------------------------------------*/
FoamFile
{
    version     2.0;
    format      ascii;
    class       volScalarField;
    location    "1.1";
    object      p_rgh;
}
// * * * * * * * * * * * * * * * * * * * * * * * * * * * * * * * * * * * * * //

dimensions      [1 -1 -2 0 0 0 0];

internalField   nonuniform List<scalar> 
3072
(
0
-106.58
-64.7543
-126.15
-72.1654
40.0534
98.5112
169.473
183.834
30.3585
128.933
148.11
-101.708
-258.46
-198.077
-218.567
-72.7551
134.566
-44.3681
240.24
348.652
313.273
328.392
368.558
-60.7569
-155.193
-84.8127
-201.028
-283.668
-36.4643
-70.6197
136.887
273.203
337.199
390.327
419.962
-64.9548
-178.348
-60.4615
-25.6359
138.956
214.017
208.388
261.85
269.626
370.235
411.138
543.175
-12.3234
-53.1074
-73.5333
0.0606029
-4.76361
-79.9824
-11.3913
120.709
216.419
447.705
549.374
791.039
183.334
115.488
61.4778
29.9688
91.125
214.832
187.812
206.481
258.977
410.986
540.847
657.408
277.599
243.235
225.877
130.504
56.6051
-255.248
-385.101
-188.058
15.7169
417.67
770.974
1157.02
372.835
373.562
369.322
251.184
98.8685
-131.285
-403.892
-390.367
-228.308
219.478
615.923
1089.06
495.41
462.339
484.061
392.102
315.449
273.802
59.3428
-282.166
-350.103
-216.612
95.8232
517.383
560.178
541.929
622.478
524.084
431.355
217.091
-67.8038
-358.505
-485.232
-284.764
0.607877
363.456
669.352
622.36
746.378
589.001
458.971
221.669
-109.463
-522.639
-683.989
-299.241
6.7494
312.55
826.918
803.516
884.616
653.485
515.88
213.509
-106.238
-490.325
-367.116
-155.778
78.8157
310.987
347.028
519.233
693.939
653.16
649.607
593.993
649.766
629.785
641.519
659.147
666.903
662.18
381.436
398.969
426.178
552.882
611.175
628.584
687.197
679.733
677.382
714.024
696.704
698.177
539.875
677.747
776.642
843.077
742.679
720.901
720.959
744.274
735.924
749.432
757.887
746.547
585.209
677.604
645.384
700.18
733.835
775.779
786.635
805.931
805.679
819.969
818.133
799.268
833.974
924.411
870.205
936.61
875.995
881.099
883.982
891.834
881.227
888.123
883.3
862.191
761.842
879.286
933.047
1005.77
978.796
993.632
1004.31
985.957
976.895
962.266
970.866
931.445
1290.64
1172.92
1076.43
1089.16
1069.83
1087.06
1140.39
1074.18
1062.31
1038.03
1041.75
992.7
1306.88
1226.98
1139.74
1145.94
1123.53
1149.59
1234.32
1150.41
1128.95
1095.94
1115.3
1054.84
949.14
1134.58
1132.31
1173.48
1151.43
1179.03
1291.66
1189.05
1184.44
1155.92
1202.04
1142.56
785.339
1057.7
1100.74
1175.43
1161.88
1200.47
1319.37
1182.48
1243.97
1224.38
1296.86
1275.57
722.257
1009.13
1071.69
1163.3
1163.81
1218.36
1327.34
1177.83
1256.77
1284.55
1385.94
1440.65
714.27
972.707
1055.02
1140.37
1147.41
1228.59
1311.74
1212.3
1229.15
1311.12
1443.78
1520.1
375.927
233.106
228.725
166.156
183.674
336.25
465.5
743.368
1027.4
986.623
908.84
726.055
258.391
88.8173
95.8873
44.1332
153.405
266.66
-10.9839
386.192
681.272
792.776
926.13
941.622
311.663
146.285
117.36
-13.3824
76.3228
325.42
354.896
590.623
815.649
984.644
1063.51
1038.2
562.557
397.401
549.61
597.298
575.176
632.777
621.482
698.151
772.993
853.023
915.331
898.92
856.535
750.217
699.751
517.88
547.047
646.732
633.655
696.732
747.298
834.37
902.578
990.454
1069.28
1013.49
912.344
918.517
958.32
884.527
810.826
781.157
731.172
748.87
718.047
764.855
984.274
1036.04
1023.91
998.497
877.307
575.534
575.11
601.932
632.465
763.945
918.669
1136.1
988.75
1041.78
1053.03
984.424
1005.21
1044.25
841.001
624.595
560.74
499.338
553.688
745.878
1030.18
1087.88
1074.63
998.523
947.758
690.566
382.352
421.363
498.594
529.61
709.456
859.459
1110.27
1141.39
1101.62
1012.53
902.423
666.868
399.83
275.862
320.614
295.627
508.056
806.609
1170.13
1212.35
1134.99
1027.92
887.002
628.034
319.26
147.424
238.976
207.214
431.765
765.988
1229.1
1214.73
1150.45
1021.5
853.812
585.701
316.976
239.36
304.328
252.361
388.16
754.098
694.841
552.734
547.948
457.464
405.165
345.654
316.683
329.936
414.786
514.55
533.082
526.348
923.458
841.847
781.743
763.939
745.664
755.433
712.443
626.059
590.141
618.797
579.999
582.017
927.155
712.903
597.997
610.917
682.372
740.516
752.841
734.933
723.898
701.773
711.014
662.012
802.471
706.561
620.741
649.575
744.275
804.042
823.677
807.866
815.395
763.497
773.282
711.812
1014.67
1051.81
956.566
936.487
927.076
914.586
933.826
892.659
886.176
831.145
840.153
747.685
819.172
1001.05
1030.39
1039.11
1036.22
1018.31
1063.21
970.815
944.399
879.642
888.488
788.673
1109.56
1103.9
1105.24
1086.25
1105.61
1069.17
1127.26
1017.52
1002.54
943.121
953.64
854.494
962.022
1097.62
1152.64
1132.75
1129.99
1095.39
1159.76
1048.3
1064
1009.03
1039.55
960.269
970.229
1095.48
1164.86
1150.82
1157.67
1120.34
1152.72
1079
1125.47
1077.25
1135.89
1099.94
959.396
1092.23
1166
1152.88
1168.67
1127.47
1156.9
1059.53
1155.83
1139.56
1225.67
1274.14
939.145
1080.59
1154.96
1141.27
1162.51
1127.62
1173.02
1072.42
1144.07
1190.67
1312.51
1423.73
933.95
1065.86
1140.51
1131.36
1150.78
1121.72
1160.68
1113.75
1118.81
1207.4
1367.47
1487.27
269.122
128.51
150.861
70.1658
187.299
251.443
360.061
575.929
578.243
444.469
427.466
372.545
149.034
20.3722
73.351
87.2876
356.306
17.2834
220.466
594.797
593.601
562.212
513.837
515.452
131.068
32.8394
55.1359
-5.31674
438.325
599.327
682.233
946.784
837.119
785.233
573.572
455.638
211.415
41.6912
253.628
367.418
599.442
691.267
737.119
755.57
763.923
734.321
669.773
609.389
425.701
258.964
219.461
28.362
183.539
423.52
643.31
670.438
682.413
679.247
860.315
1173.43
724.317
627.403
435.34
180.27
205.889
310.049
471.656
510.16
557.572
670.951
937.439
1322.43
703.672
733.964
713.191
723.474
737.921
599.657
507.443
405.803
463.618
537.682
711.41
915.291
756.111
823.438
823.636
735.943
498.199
232.528
236.266
142.785
397.092
520.772
869.177
1158.64
825.353
903.341
866.907
767.957
634.095
419.421
264.937
31.6927
108.932
239.605
558.957
913.411
939.098
993.803
910.666
786.056
653.967
340.01
160.721
-62.1008
88.1847
156.474
400.17
769.477
1042.3
1110.15
975.723
806.227
640.067
286.029
100.999
-103.962
98.593
147.195
345.177
699.023
1135.26
1156.77
1024.9
821.438
626.175
274.665
119.193
-8.77641
129.391
196.502
316.172
697.13
438.785
535.888
632.482
761.977
764.548
800.266
741.338
804.742
893.529
1050.5
1030.93
1060.28
552.591
645.336
765.469
907.761
1006.93
1131
1167.66
1202.73
1129.65
1173.97
1108.53
1116.45
453.548
546.419
646.874
799.355
887.177
1050.79
1146.57
1211.81
1218.53
1225.78
1225.62
1196.43
636.623
813.572
960.82
1088.26
1117
1191.33
1253.3
1282.17
1328.61
1300.16
1291.32
1237.57
1502.96
1669.79
1493.6
1457.11
1379.68
1373.11
1411.2
1408.87
1429.73
1425.54
1435.22
1348.2
1650.23
1771.82
1612.63
1602.26
1552.32
1487.56
1517.58
1505.29
1558.84
1549.71
1583.35
1528.17
1167.36
1488.08
1517.96
1586.44
1615.89
1530.67
1590.82
1595.14
1639.51
1662.57
1719.45
1712.52
1249.86
1434.1
1450.65
1543.12
1619.12
1540.01
1612.03
1626.99
1680.93
1734.31
1788.99
1814.64
1130.06
1368.26
1395.91
1474.18
1561.56
1514.05
1591.04
1588.22
1657.74
1699.69
1753.28
1859.27
1023.9
1295.1
1340.28
1412.95
1484.07
1463.7
1552.08
1495.23
1593.32
1568.66
1683.94
1781.74
963.943
1239.51
1291.72
1362.26
1413.59
1376.37
1502.93
1434.54
1513.53
1533.43
1588.91
1657.94
944.85
1191.34
1244.57
1280.95
1331.31
1249.53
1420.39
1370.19
1459.36
1468.92
1538.21
1484.88
-301.732
-560.772
-806.103
-948.677
-1253.93
-1221.29
-1143.65
-1131.04
-739.319
-433.596
-752.701
-666.027
-273.688
-576.913
-763.163
-917.342
-1222.96
-1143.86
-1201.87
-1640.44
-829.15
-140.212
-47.8188
75.2837
65.3832
-245.145
-258.013
-552.971
-588.243
-377.684
-243.877
-531.308
-407.789
-157.318
-65.3658
-33.9488
754.006
509.895
435.596
247.667
-94.9114
-56.6272
4.34446
26.543
104.753
124.153
57.4936
-1.76571
835.806
788.097
556.681
221.774
93.3144
194.969
183.558
327.982
332.983
391.13
337.836
423.995
592.151
585.14
570.958
555.895
566.212
626.202
603.868
541.135
367.52
177.945
-45.1678
34.8292
441.915
511.731
573.268
643.256
571.419
660.731
734.479
672.015
406.79
149.333
14.2555
165.037
475.828
622.349
579.423
600.972
555.015
573.902
237.704
178.907
257.601
441.932
588.149
500.795
465.619
665.806
595.131
623.075
597.078
565.754
433.002
458.328
224.884
67.7958
183.151
414.507
546.775
680.478
691.871
663.236
594.343
529.65
348.527
192.714
33.3389
-39.7276
94.8305
359.397
671.912
822.054
771.221
697.915
591.945
491.067
181.68
51.5288
-104.629
-136.607
3.83544
333.586
743.723
859.712
801.161
733.095
645.532
522.93
86.0127
13.6359
-160.519
-181.776
-60.8164
351.642
-510.903
-348.956
-285.024
-199.429
-57.1091
34.724
261.65
430.766
693.225
642.301
651.013
509.744
102.865
146.859
157.084
191.434
129.363
88.4461
203.723
283.745
475.919
465.157
483.118
490.663
-53.801
-90.2136
-84.7025
-35.957
158.498
292.262
542.799
475.92
520.586
497.834
506.422
452.696
19.8492
53.0802
105.252
75.9435
120.055
112.235
249.641
330.923
426.485
456.265
471.804
432.083
262.306
206.13
237.869
183.197
248.399
246.632
319.734
376.337
454.147
458.472
472.924
349.33
200.282
310.768
389.919
381.157
408.608
330.029
413.15
478.582
520.21
523.058
526.943
366.61
333.927
458.008
549.762
517.659
528.743
449.064
527.76
582.079
590.971
623.326
634.81
475.208
551.724
622.52
694.908
658.464
714.116
578.452
630.079
676.441
685.782
719.57
731.382
656.192
675.161
773.826
820.134
776.77
828.774
668.243
738.041
776.394
754.714
813.157
852.578
823.545
699.496
877.139
902.678
867.158
902.754
764.045
802.418
826.399
816.821
911.104
991.634
1033.47
714.798
901.928
933.726
906.813
938.572
820.715
843.459
878.912
876.385
1012.01
1127.87
1187.62
735.658
883.874
934.469
917.999
921.323
849.011
842.032
901.235
881.463
1011.82
1251.17
1337.75
1077.17
1054.93
981.794
739.047
551.012
237.38
16.4412
-358.85
-385.91
-85.2392
123.033
328.349
879.979
836.628
916.434
741.17
648.905
303.192
204.24
-339.722
-144.559
12.7896
258.622
411.176
710.843
738.811
803.164
677.341
678.022
439.799
521.808
9.78633
217.339
139.264
396.117
544.951
447.569
576.459
664.564
589.411
638.707
649.474
881.337
565.686
554.859
506.68
606.546
807.866
711.404
951.435
1041.27
1108.93
1116.86
1185.32
1251.1
1153.04
1170.42
1222.25
1348.29
1372.7
718.983
930.109
1033.2
1092.44
1087.73
1092.6
1132.69
1006.61
1042.67
1018.45
1093.03
1149.76
731.717
895.732
1024.32
1088.7
1061.89
991.782
919.061
797.693
810.489
865.429
886.466
934.668
825.614
894.857
1015.99
1085.17
1044.99
913.82
760.953
599.15
488.338
468.028
574.671
653.456
1289.9
1312.22
1138.42
1001.21
853.787
620.107
365.475
275.484
264.371
305.019
365.552
773.527
1136.7
1220.19
1071.59
965.273
856.106
685.953
453.536
435.858
354.056
442.708
465.528
814.055
972.252
1009.28
957.112
914.261
861.902
788.662
662.949
611.911
528.228
578.386
606.503
851.269
766.508
822.385
830.899
834.988
855.187
920.606
978.356
836.645
798.319
844.744
791.108
910.867
951.215
1052.54
1120.91
1118.64
1133.7
1117.67
1139.28
1077.87
1084.49
1137.25
1266.98
1371.92
979.969
1047.39
1109.13
1102.83
1105.41
1077.95
1064.67
966.464
988.248
1008.97
1060.43
1151.02
1012.65
1046.61
1102.09
1087.98
1065.34
1013.75
850.602
798.223
767.315
849.3
834.175
929.625
1044.59
1057.11
1102.79
1081.31
1031.92
924.721
700.875
587.266
446.909
411.811
448.693
602.011
1198.71
1239.88
1047.92
823.931
654.281
367.224
211.907
103.406
159.254
245.324
269.31
722.508
1066.67
1138.77
1013.21
841.177
713.319
510.513
353.335
296.177
279.16
434.54
325.569
753.761
939.399
976.683
921.052
832.73
790.569
688.851
571.457
559.715
407.34
638.701
511.659
801.743
763.181
822.16
814.335
804.629
846.047
887.995
893.074
834.117
775.222
897.578
845.663
911.688
956.998
1156.43
1221.39
1207.7
1226.45
1089.08
1243.8
1255.23
1325.81
1298.99
1396.98
1252.76
974.852
1133.19
1235.97
1167.26
1155.91
916.008
980.53
1048.07
1106.98
1061.56
1140.06
1050.47
1000.82
1116.32
1261.13
1164.53
1098.52
745.722
636.063
720.862
795.721
774.949
862.33
854.719
1057.43
1117.44
1252.6
1166.47
1034.73
661.016
372.205
323.376
166.625
309.251
433.277
625.37
880.106
1020.1
813.655
779.329
646.485
550.582
88.504
67.7278
-130.176
-100.371
-26.3573
420.226
884.158
1060.8
822.272
789.662
682.84
622.077
214.945
222.849
-31.9855
16.2913
133.481
544.358
870.727
940.81
776.746
774.788
714.58
765.097
475.477
352.774
226.532
154.196
341.993
661.391
833.121
833.703
735.501
797.582
788.523
883.626
937.261
571.376
433.89
546.554
623.699
806.594
772.76
864.94
969.396
933.433
917.198
852.077
788.067
869.416
863.702
958.399
1092.24
1214.08
855.405
858.181
994.284
970.536
944.363
843.356
737.724
774.913
762.619
845.943
882.756
925.906
930.947
828.656
976.301
1004.7
982.586
848.126
705.86
606.544
575.062
626.797
689.276
705.887
1001.27
845.868
933.643
1026.71
990.851
882.466
691.579
473.242
289.185
198.422
88.2244
263.919
129.346
352.101
503.836
483.547
608.233
781.75
1037.83
949.849
783.405
816.099
842.941
927.14
235.106
326.254
451.253
469.601
616.519
829.388
1007.61
1015.4
823.183
821.693
829.385
922.022
309.47
387.338
473.635
499.546
643.136
799.702
857.67
991.772
825.638
891.794
908.097
979.161
318.761
432.063
501.782
535.028
675.508
814.513
729.411
869.869
837.851
898.263
893.427
971.23
903.232
942.189
1009.1
1067.01
1028.12
895.853
715.645
591.259
507.495
419.041
438.321
417.826
936.907
996.747
1049.26
1063.72
1020.61
884.919
712.595
598.479
526.115
530.355
531.144
492.58
999.765
1043.32
1076.8
1063.32
1032.65
898.468
732.2
609.476
538.556
503.608
523.88
562.443
1072.11
1096.92
1116.06
1098.92
1051.94
929.8
776.816
661.846
604.724
591.681
603.72
645.088
536.734
651.448
694.645
743.249
830.986
999.059
1144.57
1065.72
932.934
1001.04
918.017
964.565
551.494
616.283
642.294
707.749
812.272
947.788
1063.17
1025.26
909
912.104
977.957
1012.54
643.371
680.6
683.471
733.831
789.659
833.33
936.568
958.792
916.871
966.094
1024.15
1048.18
736.151
763.955
760.361
786.653
797.161
760.866
788.478
919.162
888.301
939.866
1024.94
1084.8
1063.34
1085.86
1098.65
1066.15
1016.98
883.436
653.136
549.838
404.636
297.446
311.294
345.665
1081.32
1110.14
1103.24
1070.79
1013.81
870.631
670.985
552.092
438.267
409.803
400.826
429.087
1097.99
1140.04
1127.38
1087.97
1028.04
884.545
693.716
579.691
481.775
424.832
467.82
526.427
1139.37
1173.87
1163.27
1119.4
1049.48
909.717
739.083
617.772
550.1
510.674
541.372
612.354
536.652
677.782
698.594
772.813
879.959
1005.01
1105.39
1078.98
964.139
1035.59
1013.36
1006.13
533.819
653.678
678.257
785.032
917.63
1018.32
1058.22
1107.61
964.62
953.606
1030.86
1079.45
624.445
715.861
743.221
833.843
930.058
967.444
996.673
1027.78
1005.24
1000.57
1104.81
1110.76
723.986
803.894
835.981
904.762
956.689
932.102
931.298
1016
1016.63
1003.8
1061.91
1141.78
1102.88
1157.57
1213.45
1122.67
1000.04
684.794
360.16
204.806
-24.5914
74.8474
133.791
390.332
1154.51
1241.1
1248.56
1130.39
1003.93
716.495
396.029
241.365
82.6208
109.842
200.346
354.906
1198.4
1290.06
1285.7
1172.69
1017.85
753.714
458.384
291.389
118.181
209.883
292.42
420.689
1290.92
1337.85
1326.32
1218.69
1048.73
790.608
530.38
362.373
250.253
317.566
400.189
528.907
744.139
747.705
670.645
744.006
847.086
989.615
1141.42
863.759
621.233
899.459
811.789
908.754
686.583
693.896
649.458
741.623
810.528
917.67
1214.8
932.924
710.736
695.288
881.9
948.103
676.233
675.72
679.642
768.506
800.705
729.285
996.472
950.247
857.632
891.706
951.274
930.758
737.115
734.159
762.157
833.713
783.374
697.669
808.937
975.69
847.324
875.196
993.585
1011.92
1033.91
955.555
954.493
1010.25
976.026
895.795
722.796
481.543
274.977
76.1102
-86.792
29.6374
1045.38
1031.08
1020.91
1027.21
987.128
880.876
731.188
536.212
384.556
203.935
140.599
171.138
1091.99
1101.47
1060.63
1040.21
1005.42
887.098
730.465
535.812
430.609
293.127
152.145
254.092
1168.58
1162.16
1116.03
1074.01
1021.52
900
747.437
610.452
514.025
382.004
259.168
287.72
370.211
479.484
564.969
606.267
727.84
813.144
709.923
815.528
842.857
877.938
912.635
978.349
472.182
566.738
656.159
687.489
767.211
801.191
611.609
684.951
798.714
887.753
923.62
991.726
586.325
658.097
726.084
756.057
814.263
826.802
549.85
641.518
783.921
885.37
927.427
999.714
690.953
776.997
825.756
849.919
849.259
846.765
565.05
602.593
777.534
883.891
945.634
1026.04
790.511
909.228
975.152
1000.9
907.314
878.775
606.824
558.893
756.778
871.729
989.734
1037.79
914.335
1056.57
1161.12
1167.53
1055.34
914.666
676.776
577.171
741.067
895.877
1008.85
1054.78
1013.71
1169.27
1309.48
1284.46
1192.69
918.983
697.272
647.486
766.891
938.869
1075.97
1118.46
1087.64
1246.75
1417.25
1352.93
1210.12
945.583
771.792
712.707
830.786
1015.11
1103.16
1134.37
1192.72
1368.8
1555.48
1483.56
1235.01
1054.19
848.04
624.524
907.892
1077.46
1147.92
1175.33
1298.17
1472.33
1663.13
1659.13
1325.47
1139.19
902.391
642.416
978.824
1135.37
1158.16
1168.02
1360.82
1538.5
1700.08
1755.93
1395.62
1189.15
998.058
727.875
1055.93
1174.55
1162.99
1174.55
1387.6
1569.78
1709.49
1783.16
1452.75
1251.05
1127.51
913.936
1178.23
1202.66
1173.26
1173.68
1136.2
1142.76
1157.41
1146.1
1086.18
967.211
815.453
716.906
666.456
665.186
684.576
742.713
1199.25
1191.38
1209.37
1176.83
1123.04
1012.94
876.386
767.435
735.255
738.105
771.238
843.887
1268.61
1242.74
1251.32
1215.2
1171.34
1062.67
937.827
855.047
812.809
807.017
849.995
926.277
1295.89
1293.2
1291.48
1255.72
1210.47
1114.49
994.863
924.757
895.312
895.436
935.68
1012.03
1355.42
1339.29
1333.03
1283.48
1235.25
1157.83
1063.13
994.61
963.181
982.117
1031.29
1118.03
1389.7
1380.84
1344.84
1304.77
1284.33
1199.95
1115.23
1064.52
1052.43
1060.34
1115.51
1213.53
1416.63
1387.05
1347.96
1350.11
1335.96
1253.45
1161.29
1117.37
1110.73
1124.1
1179.83
1282.29
1425.43
1396.77
1390.96
1392.58
1355.08
1286.5
1209.61
1161.18
1157.11
1181.47
1243.32
1350.35
1407.64
1407.94
1413.97
1402.82
1381.22
1328.06
1255.52
1199.96
1198.71
1226.24
1285.67
1409.75
1435.82
1428.41
1434.1
1421.47
1399.12
1361.68
1297.45
1246.17
1239.05
1272.39
1341.65
1462.22
1423.18
1427.99
1437.64
1423.62
1414.8
1386.43
1334.48
1281.92
1273.44
1301.51
1370.45
1501.9
1429.7
1432.66
1434.29
1426.93
1420.5
1405.08
1371.93
1323.73
1311.49
1340.44
1405.74
1531.71
824.326
844.924
845.959
839.955
810.363
765.434
731.16
864.435
905.085
962.328
1047.64
1087.97
917.864
935.687
947.159
922.003
831.819
757.657
702.584
847.779
914.353
972.721
1050.81
1111.89
998.392
1032.37
1040.96
979.598
810.996
717.015
654.962
776.147
900.103
1009.48
1066.49
1125.33
1087.72
1129.65
1142.13
1073.48
876.434
701.865
660.243
756.068
920.413
1029.32
1088.74
1168.21
1215.93
1264.74
1260.98
1158.72
1018.39
763.889
690.937
773.882
941.668
1078.86
1112.35
1183.45
1331.88
1420.32
1397.23
1209.1
1062.1
805.223
696.525
751.068
965.189
1105.47
1145.38
1210.37
1420.56
1556.32
1539.32
1295.11
1060.34
809.982
660.029
755.734
1002.22
1147.51
1199.4
1237.01
1510.12
1665
1682.27
1402.65
1101.08
809.063
639.394
781.087
1048.27
1184.09
1219.18
1232.6
1594.06
1767.48
1812.66
1504.35
1167
838.766
610.903
842.087
1122.18
1222.12
1249.63
1268.39
1658.03
1863.65
1925.52
1623.4
1256.55
906.71
685.54
927.198
1199.18
1272.26
1271.21
1261.94
1703.69
1931.31
2018.35
1748.64
1359.04
1004.89
783.901
1012.81
1268.38
1300.6
1283.54
1281.98
1730.82
1963.38
2070
1832.73
1450.81
1121.91
925.901
1171.69
1345.71
1315.94
1288.25
1276.36
1221.98
1223.81
1200.41
1148.63
1088.27
948.447
779.099
667.339
599.54
568.386
606.997
684.848
1295.19
1270.58
1249.12
1192.99
1121.05
994.695
828.198
727.398
667.578
639.833
677.862
751.424
1349.3
1322.45
1297.41
1232.69
1155.2
1037.41
891.092
796.134
743.446
716.24
753.421
826.01
1403.82
1375.82
1340.35
1269.82
1196.98
1079.54
947.955
869.028
825.175
816.328
842.48
913.952
1432.98
1405.02
1387.57
1321.67
1239.42
1129.21
1011.92
933.665
904.958
910.967
948.414
1031.9
1470.03
1438.93
1409.59
1359.16
1292.72
1183.16
1070.34
1001.88
987.928
997.435
1048.49
1148.23
1508.57
1459.85
1416.15
1398.47
1347.02
1241.79
1125.38
1057.06
1048.51
1071.14
1131.53
1238.46
1526.63
1472.93
1447.58
1433.7
1376.47
1288.42
1184.81
1110.15
1101.67
1135.77
1204.2
1317.71
1506.9
1482.57
1473.68
1458.87
1411.27
1337.65
1241.36
1165.13
1155.45
1192.91
1269.06
1393.17
1522.34
1498.57
1493.85
1474.32
1434.04
1376.9
1294.54
1224.62
1210.05
1250.14
1328.49
1462.34
1511.78
1500.87
1498.32
1478.85
1452.04
1404.52
1333.44
1268.86
1253.75
1292.98
1375.68
1509.23
1513.16
1504.56
1496.15
1481.87
1460.3
1429.53
1374.9
1311.54
1295.75
1333.95
1409.22
1533.09
806.154
881.398
925.599
982.696
990.645
921.939
851.53
944.819
1010.58
1053.41
1090.54
1136.29
874.029
946.701
1003.64
1064.82
1057.33
935.832
836.462
945.673
1027.67
1055.04
1103.07
1170.52
945.688
1023.82
1082.08
1141.62
1120.53
985.135
845.489
960.036
1031.17
1091.88
1129.67
1186.77
1033.28
1113.98
1175.39
1225.56
1174.69
1026.15
852.058
942.701
1052.09
1115.31
1134.69
1219.89
1148.07
1224.39
1278.2
1304.96
1247.6
1060.36
902.337
969.058
1079.07
1155.69
1180.24
1238.73
1268.42
1350.29
1388.21
1375.55
1262.07
1097.13
964.983
972.723
1100.21
1184.95
1201.55
1256.41
1373.62
1474.58
1496.72
1420.01
1235.62
1125.73
992.41
978.66
1129.62
1222.05
1253.85
1286.85
1463.2
1571.79
1605.31
1417.81
1219.79
1127.91
994.029
986.908
1160.79
1260.14
1281.74
1284.46
1551.68
1650.38
1708.54
1448.38
1223.59
1108.6
977.954
1020.91
1200.96
1284.8
1309.56
1321.89
1632.67
1725.8
1791.27
1552.77
1259.45
1112.42
1017.83
1079.77
1248.88
1315.92
1323.3
1314.76
1680.94
1778.3
1842.51
1653.26
1295.84
1141.31
1065.75
1156.21
1294.62
1331.71
1329.48
1332.2
1700.23
1803.44
1870.77
1728.98
1358.53
1211.33
1169.76
1270.9
1344.84
1336.69
1330.96
1325.49
1395.96
1414.67
1386.79
1270.88
1083.44
825.276
610.509
442.268
361.751
428.08
511.76
665.119
1493.68
1501.85
1462.36
1332.66
1134.03
873.824
673.978
570.836
520.655
556.758
639.31
829.23
1598.1
1575.94
1533.82
1419.55
1212.18
961.114
739.402
636.51
632.823
685.748
761.177
1005.82
1678.06
1649.57
1614.02
1531.79
1316.89
1049.05
823.165
709.801
711.491
785.094
905.754
1217.54
1747.79
1726.84
1693.41
1628.13
1423.06
1159.8
919.683
816.617
821.47
927.328
1123.5
1467.64
1834.57
1779.01
1723.08
1678.64
1535.42
1278.56
1051.25
969.489
1008.85
1149.35
1377.21
1709.98
1848.35
1821.04
1781.95
1765.95
1642.89
1396.46
1192.48
1128.36
1219.06
1397.9
1635.89
1941.02
1899.26
1866.51
1836.01
1818.29
1720.88
1509.44
1331.5
1288.21
1415.3
1628.09
1877.67
2144.26
1883.3
1877.41
1887.59
1878.49
1807.49
1628.31
1447.88
1422.42
1582.55
1831.58
2084.2
2308.52
1926.93
1919.19
1924.05
1918.19
1882.17
1734.71
1571.24
1551.46
1715.24
1995.69
2257.75
2452.03
1910.82
1923.04
1935.97
1944.2
1937.32
1819.83
1663.29
1651.37
1817.7
2113.9
2390.34
2560.51
1920.1
1927.23
1942.01
1964.95
1974.01
1911.59
1782.86
1765.54
1927.68
2195.31
2458.94
2623.75
836.349
821.301
849.446
887.324
820.83
716.127
752.544
957.595
926.008
954.934
1010.63
1021.25
947.739
903.858
917.309
885.135
770.063
729.255
708.985
971.534
973.793
995.369
1042.33
1085.06
1104.19
1025.32
953.165
912.218
672.679
777.606
715.688
960.798
1005.53
1054.18
1090.58
1123.83
1307.07
1197.05
1054.3
878.909
653.901
761.28
721.22
975.134
1051.26
1079.55
1125.54
1179.26
1567.65
1388.64
1175.45
807.161
594.575
632.634
691.551
987.746
1092.79
1143.43
1166.14
1202.5
1819.48
1531.03
1159.69
741.416
453.604
369.054
632.48
1004.46
1141.39
1179.94
1210.53
1243.53
2069.13
1686.4
1125.96
695.138
364.111
247.523
657.756
1047.2
1195.47
1249.26
1253.71
1275.93
2333.19
1904.15
1151.7
664.846
341.998
259.178
722.939
1114.61
1252.67
1283.05
1278.88
1284.55
2542.52
2139.35
1232.5
694.638
376.714
336.925
805.059
1188.13
1301.13
1324.73
1318.95
1317.16
2669.53
2390.61
1382.14
817.145
478.288
464.715
934.055
1279.28
1334.81
1338.96
1327.62
1319.48
2750
2634.46
1574.33
962.268
619.406
645.482
1079
1344.68
1356.53
1346.8
1337.31
1332.13
2794.59
2828.43
1756.03
1136.28
819.894
818.401
1218.16
1431.72
1392.44
1355.05
1338.35
1329.96
1218.61
1206.55
1163.93
1115.1
1038.88
938.747
797.9
645.099
591.951
472.622
345.369
340.789
1264.33
1245.03
1212.1
1147.14
1067.51
968.613
846.335
711.799
651.462
567.198
458.921
423.065
1295.18
1275.49
1247.98
1199.02
1110.62
1016.94
897.51
773.747
710.3
638.602
555.677
541.6
1333.58
1306.11
1260.57
1202.22
1132.13
1070.98
956.378
841.808
771.872
709.706
634.884
632.018
1363.88
1328.12
1287.01
1239.35
1206.12
1129.97
1007.79
895.573
831.196
781.277
726.008
726.971
1389.04
1333.94
1283.09
1264.49
1237.43
1174.03
1074.08
944.475
882.908
851.901
821.908
843.799
1375.05
1345.24
1282.11
1278.23
1278.46
1227.21
1127.26
1008.03
940.846
914.469
899.413
930.614
1384.78
1368.37
1315.55
1311.54
1311.53
1269.04
1176.58
1063.71
994.101
976.187
969.216
991.31
1381.91
1358.58
1336.03
1333.61
1324.85
1288.06
1210.89
1117.42
1059.92
1037.64
1032.73
1073.76
1380.21
1372.81
1351.64
1346.38
1335.79
1302.62
1231.36
1160.36
1115.13
1096.24
1085.19
1146.74
1377.54
1363.24
1354.1
1351.99
1341.83
1311.54
1244.51
1186.8
1153.7
1128.52
1112.45
1194.06
1376.31
1369.61
1357.02
1351.29
1342.22
1310.88
1254.91
1215.96
1188.51
1157.74
1147.97
1224.05
)
;

boundaryField
{
    rotor
    {
        type            zeroGradient;
    }
    stator
    {
        type            zeroGradient;
    }
    front
    {
        type            empty;
    }
    back
    {
        type            empty;
    }
}


// ************************************************************************* //
