/*--------------------------------*- C++ -*----------------------------------*\
| =========                 |                                                 |
| \\      /  F ield         | OpenFOAM: The Open Source CFD Toolbox           |
|  \\    /   O peration     | Version:  2.4.0                                 |
|   \\  /    A nd           | Web:      www.OpenFOAM.org                      |
|    \\/     M anipulation  |                                                 |
\*---------------------------------------------------------------------------*/
FoamFile
{
    version     2.0;
    format      ascii;
    class       surfaceScalarField;
    location    "1.1";
    object      phi;
}
// * * * * * * * * * * * * * * * * * * * * * * * * * * * * * * * * * * * * * //

dimensions      [0 3 -1 0 0 0 0];

internalField   nonuniform List<scalar> 
5952
(
-6.9387e-09
6.93881e-09
-3.34962e-08
2.65575e-08
-7.77254e-08
4.42292e-08
-1.41216e-07
6.34903e-08
-2.3086e-07
8.96446e-08
-3.56656e-07
1.25795e-07
-4.49655e-07
9.29992e-08
-4.86201e-07
3.65466e-08
-5.51005e-07
6.4803e-08
-6.07672e-07
5.66677e-08
-5.68132e-07
-3.95402e-08
1.77166e-10
-5.68309e-07
-1.83657e-08
2.53045e-08
-6.26103e-08
7.08021e-08
-1.24315e-07
1.05934e-07
-1.98087e-07
1.37263e-07
-2.91161e-07
1.82719e-07
-4.35378e-07
2.70012e-07
-7.3525e-07
3.92872e-07
-1.03892e-06
3.40221e-07
-1.07457e-06
1.00445e-07
-1.06898e-06
5.10858e-08
-1.10338e-06
-5.14586e-09
-2.1997e-08
-1.0812e-06
-3.59263e-08
6.12308e-08
-1.21544e-07
1.5642e-07
-2.36766e-07
2.21156e-07
-3.72553e-07
2.73049e-07
-5.30204e-07
3.4037e-07
-7.2362e-07
4.63428e-07
-8.39721e-07
5.08973e-07
-9.78366e-07
4.78866e-07
-1.10296e-06
2.2504e-07
-1.18387e-06
1.31999e-07
-1.25545e-06
6.6427e-08
2.76895e-09
-1.28021e-06
-4.95754e-08
1.10806e-07
-1.5901e-07
2.65854e-07
-2.93917e-07
3.56063e-07
-4.27495e-07
4.06627e-07
-5.35151e-07
4.48026e-07
-5.71556e-07
4.99833e-07
-6.79062e-07
6.16479e-07
-7.81606e-07
5.8141e-07
-9.74189e-07
4.17622e-07
-1.12218e-06
2.79994e-07
-1.23078e-06
1.75028e-07
5.97025e-08
-1.28772e-06
-6.22865e-08
1.73093e-07
-1.92489e-07
3.96057e-07
-3.46621e-07
5.10195e-07
-4.974e-07
5.57405e-07
-6.30158e-07
5.80784e-07
-7.3952e-07
6.09194e-07
-7.42702e-07
6.19661e-07
-8.27166e-07
6.65875e-07
-9.19942e-07
5.10398e-07
-1.01743e-06
3.77484e-07
-1.11037e-06
2.67966e-07
1.21103e-07
-1.17177e-06
-7.35631e-08
2.46656e-07
-2.1685e-07
5.39345e-07
-3.69469e-07
6.62814e-07
-4.93373e-07
6.81309e-07
-5.74992e-07
6.62404e-07
-6.45548e-07
6.7975e-07
-7.68003e-07
7.42115e-07
-8.11795e-07
7.09667e-07
-7.97195e-07
4.95798e-07
-8.33622e-07
4.13911e-07
-8.97227e-07
3.31571e-07
1.64472e-07
-9.40596e-07
-8.49748e-08
3.31631e-07
-2.38211e-07
6.92581e-07
-3.77148e-07
8.01751e-07
-4.46553e-07
7.50713e-07
-4.40422e-07
6.56273e-07
-3.95826e-07
6.35154e-07
-3.97342e-07
7.43632e-07
-2.94875e-07
6.07199e-07
-4.3914e-07
6.40063e-07
-5.36724e-07
5.11495e-07
-5.72493e-07
3.6734e-07
1.81622e-07
-5.89643e-07
-9.69444e-08
4.28575e-07
-2.62002e-07
8.57638e-07
-3.87353e-07
9.27102e-07
-3.85395e-07
7.48755e-07
-2.09864e-07
4.80742e-07
4.1274e-08
3.84016e-07
5.58004e-08
7.29105e-07
-1.2391e-07
7.86909e-07
-1.9153e-07
7.07684e-07
-1.89496e-07
5.09461e-07
-1.52253e-07
3.30097e-07
1.56072e-07
-1.26704e-07
-9.54978e-08
5.24073e-07
-2.61958e-07
1.0241e-06
-3.94813e-07
1.05996e-06
-3.98775e-07
7.52718e-07
-2.23478e-07
3.05446e-07
9.38917e-08
6.6646e-08
1.67617e-07
6.5538e-07
-3.94152e-08
9.93942e-07
1.40533e-07
5.27736e-07
3.41922e-07
3.08072e-07
4.78708e-07
1.93311e-07
9.87872e-08
5.35993e-07
-2.69269e-08
5.51e-07
-1.02524e-07
1.0997e-06
-1.88605e-07
1.14604e-06
-2.03585e-07
7.67697e-07
-1.46013e-07
2.47873e-07
9.06712e-09
-8.84337e-08
4.18284e-07
2.46164e-07
9.11628e-07
5.00597e-07
1.16359e-06
2.75777e-07
1.28309e-06
1.88566e-07
1.3783e-06
9.81065e-08
5.50559e-08
1.42203e-06
2.38479e-07
3.12521e-07
4.90704e-07
8.4747e-07
6.34429e-07
1.00231e-06
8.0448e-07
5.97646e-07
1.00575e-06
4.66028e-08
1.19671e-06
-2.79392e-07
1.6605e-06
-2.17626e-07
2.12426e-06
3.68407e-08
2.30371e-06
9.63198e-08
2.37633e-06
1.15952e-07
2.46635e-06
8.08012e-09
-7.60785e-09
2.52902e-06
1.05247e-06
-7.39948e-07
1.75739e-06
1.4255e-07
2.18211e-06
5.77595e-07
2.5116e-06
2.68154e-07
2.8452e-06
-2.86995e-07
2.94965e-06
-3.83846e-07
3.16811e-06
-4.3609e-07
3.41714e-06
-2.12186e-07
3.54531e-06
-3.18491e-08
3.60903e-06
5.22298e-08
3.65825e-06
-4.11422e-08
3.68373e-06
-3.30846e-08
-5.66874e-07
-1.43511e-09
-5.50557e-07
-1.63171e-08
-5.14128e-07
-3.64288e-08
-4.63573e-07
-5.05547e-08
-4.18584e-07
-4.49894e-08
-4.2756e-07
8.9759e-09
-3.03409e-07
-1.24151e-07
-1.49246e-07
-1.54162e-07
-1.55653e-07
6.40658e-09
-1.16286e-07
-3.93672e-08
-7.18783e-08
-4.44075e-08
-7.18784e-08
-1.02055e-06
-6.20893e-08
-9.14942e-07
-1.21925e-07
-7.60144e-07
-1.91227e-07
-5.47513e-07
-2.63186e-07
-3.17596e-07
-2.74906e-07
-1.158e-07
-1.9282e-07
-8.15278e-09
-2.31798e-07
1.3827e-07
-3.00585e-07
1.80619e-07
-3.59423e-08
1.08209e-07
3.30426e-08
3.95667e-09
5.98448e-08
-6.79217e-08
-1.25095e-06
-9.13534e-08
-1.17075e-06
-2.02123e-07
-1.04087e-06
-3.21107e-07
-8.7926e-07
-4.24798e-07
-6.77915e-07
-4.76251e-07
-3.96671e-07
-4.74064e-07
-1.52744e-07
-4.75725e-07
-2.39968e-08
-4.29332e-07
1.36458e-07
-1.96397e-07
2.19842e-07
-5.03413e-08
2.68096e-07
1.15913e-08
2.00174e-07
-1.29556e-06
-8.35134e-08
-1.24887e-06
-2.48812e-07
-1.14829e-06
-4.21683e-07
-9.93746e-07
-5.79345e-07
-7.77109e-07
-6.92887e-07
-5.08799e-07
-7.42375e-07
-2.67668e-07
-7.16856e-07
-1.34172e-07
-5.62828e-07
-8.15669e-08
-2.49003e-07
8.84678e-08
-2.20376e-07
9.10534e-08
9.00582e-09
2.91227e-07
-1.19266e-06
-6.26278e-08
-1.1646e-06
-2.76869e-07
-1.0825e-06
-5.03778e-07
-9.38896e-07
-7.22954e-07
-7.23324e-07
-9.08459e-07
-4.35267e-07
-1.03043e-06
-1.0742e-07
-1.0447e-06
2.07345e-07
-8.77593e-07
4.50188e-07
-4.91845e-07
2.83572e-07
-5.37601e-08
5.85151e-09
2.86726e-07
2.97079e-07
-9.60419e-07
-4.28051e-08
-9.45921e-07
-2.91367e-07
-8.9049e-07
-5.59208e-07
-7.85394e-07
-8.28049e-07
-6.18311e-07
-1.07554e-06
-3.74258e-07
-1.27449e-06
-5.29061e-08
-1.36605e-06
3.00435e-07
-1.23093e-06
5.21476e-07
-7.12886e-07
3.83682e-07
8.40346e-08
1.25821e-07
5.44587e-07
4.229e-07
-6.02372e-07
-3.00762e-08
-6.03052e-07
-2.90688e-07
-5.79043e-07
-5.83217e-07
-5.26739e-07
-8.80353e-07
-4.40653e-07
-1.16163e-06
-2.98277e-07
-1.41686e-06
-7.19921e-08
-1.59234e-06
2.27945e-07
-1.53087e-06
4.50516e-07
-9.35457e-07
3.57599e-07
1.76952e-07
1.30029e-07
7.72157e-07
5.52928e-07
-1.28359e-07
-2.84207e-08
-1.42312e-07
-2.76735e-07
-1.46307e-07
-5.79222e-07
-1.45577e-07
-8.81083e-07
-1.50213e-07
-1.15699e-06
-1.37421e-07
-1.42965e-06
-5.59993e-08
-1.67376e-06
1.4939e-07
-1.73626e-06
4.03066e-07
-1.18913e-06
4.21021e-07
1.58997e-07
1.77094e-07
1.01608e-06
7.30022e-07
5.15621e-07
-8.04862e-09
4.65542e-07
-2.26656e-07
4.28886e-07
-5.42566e-07
3.81176e-07
-8.33373e-07
2.85171e-07
-1.06099e-06
1.58431e-07
-1.30292e-06
6.91523e-08
-1.58448e-06
1.2517e-07
-1.79228e-06
3.61352e-07
-1.42531e-06
4.68324e-07
5.20252e-08
2.26549e-07
1.25786e-06
9.56572e-07
1.37567e-06
3.83083e-08
1.26624e-06
-1.17228e-07
1.18213e-06
-4.58449e-07
1.08574e-06
-7.36987e-07
8.97267e-07
-8.72513e-07
6.2321e-07
-1.02886e-06
3.4761e-07
-1.30888e-06
1.89684e-07
-1.63435e-06
2.88331e-07
-1.52396e-06
4.80102e-07
-1.39746e-07
2.91366e-07
1.44659e-06
1.24794e-06
2.46337e-06
1.03957e-07
2.2793e-06
6.68408e-08
2.14792e-06
-3.27069e-07
2.00768e-06
-5.96749e-07
1.73502e-06
-5.99851e-07
1.31447e-06
-6.08309e-07
8.38348e-07
-8.32759e-07
4.13796e-07
-1.2098e-06
1.84176e-07
-1.29434e-06
5.21517e-07
-4.77087e-07
5.02802e-07
1.46531e-06
1.75074e-06
3.64481e-06
1.42877e-07
3.40824e-06
3.03416e-07
3.2469e-06
-1.65737e-07
3.05557e-06
-4.05412e-07
2.75662e-06
-3.00905e-07
2.30372e-06
-1.55411e-07
1.70839e-06
-2.37424e-07
1.11579e-06
-6.172e-07
6.14949e-07
-7.93503e-07
7.11082e-07
-5.7322e-07
1.01045e-06
1.16594e-06
2.76119e-06
-1.10499e-09
1.10499e-09
-1.25045e-08
1.13995e-08
-2.95203e-08
1.70158e-08
-4.98977e-08
2.03774e-08
-7.32845e-08
2.33868e-08
-1.0017e-07
2.68855e-08
-1.31506e-07
3.13361e-08
-1.68449e-07
3.69426e-08
-2.11994e-07
4.35449e-08
-2.62464e-07
5.04705e-08
-3.18924e-07
5.64598e-08
5.97188e-08
-3.78643e-07
-1.94061e-08
2.05111e-08
-5.11555e-08
4.31488e-08
-9.15081e-08
5.73685e-08
-1.38685e-07
6.75544e-08
-1.92679e-07
7.73812e-08
-2.54859e-07
8.90652e-08
-3.27326e-07
1.03803e-07
-4.12172e-07
1.21789e-07
-5.10616e-07
1.41988e-07
-6.21901e-07
1.61756e-07
-7.42317e-07
1.76876e-07
1.82002e-07
-8.64601e-07
-2.48573e-08
4.53684e-08
-7.76838e-08
9.59754e-08
-1.43554e-07
1.23238e-07
-2.16325e-07
1.40325e-07
-2.95047e-07
1.56104e-07
-3.81158e-07
1.75175e-07
-4.77252e-07
1.99898e-07
-5.86139e-07
2.30675e-07
-7.09634e-07
2.65484e-07
-8.46857e-07
2.98979e-07
-9.93009e-07
3.23028e-07
3.28186e-07
-1.13919e-06
-4.12379e-08
8.66064e-08
-1.19538e-07
1.74275e-07
-2.11221e-07
2.14922e-07
-3.05532e-07
2.34637e-07
-3.99906e-07
2.50478e-07
-4.94826e-07
2.70095e-07
-5.928e-07
2.97872e-07
-6.9783e-07
3.35706e-07
-8.14148e-07
3.81802e-07
-9.43211e-07
4.28041e-07
-1.08181e-06
4.61628e-07
4.68933e-07
-1.22256e-06
-6.28311e-08
1.49437e-07
-1.73341e-07
2.84785e-07
-2.9292e-07
3.34501e-07
-4.05129e-07
3.46846e-07
-5.06254e-07
3.51603e-07
-5.94911e-07
3.58752e-07
-6.72475e-07
3.75435e-07
-7.44688e-07
4.07919e-07
-8.21059e-07
4.58173e-07
-9.086e-07
5.15582e-07
-1.00781e-06
5.60836e-07
5.75835e-07
-1.11471e-06
-9.23613e-08
2.41799e-07
-2.39613e-07
4.32037e-07
-3.84742e-07
4.79629e-07
-5.07183e-07
4.69287e-07
-6.05541e-07
4.49961e-07
-6.75585e-07
4.28796e-07
-7.14383e-07
4.14233e-07
-7.28734e-07
4.2227e-07
-7.37384e-07
4.66823e-07
-7.56681e-07
5.34879e-07
-7.91359e-07
5.95514e-07
6.24921e-07
-8.40445e-07
-1.30608e-07
3.72407e-07
-3.136e-07
6.15029e-07
-4.71935e-07
6.37964e-07
-5.88085e-07
5.85437e-07
-6.72666e-07
5.34543e-07
-7.18084e-07
4.74214e-07
-7.08867e-07
4.05016e-07
-6.48858e-07
3.62261e-07
-5.72466e-07
3.90431e-07
-5.10142e-07
4.72555e-07
-4.68873e-07
5.54245e-07
6.01845e-07
-4.45797e-07
-1.7793e-07
5.50337e-07
-3.84049e-07
8.21148e-07
-5.22956e-07
7.76871e-07
-5.97471e-07
6.59951e-07
-6.50567e-07
5.87639e-07
-6.73215e-07
4.96863e-07
-6.19427e-07
3.51228e-07
-4.7877e-07
2.21604e-07
-3.14184e-07
2.25845e-07
-1.76856e-07
3.35227e-07
-7.08405e-08
4.48229e-07
5.08017e-07
2.29883e-08
-2.35268e-07
7.85605e-07
-4.3218e-07
1.01806e-06
-4.8359e-07
8.28281e-07
-4.45508e-07
6.2187e-07
-4.29358e-07
5.71488e-07
-4.35775e-07
5.0328e-07
-3.55244e-07
2.70697e-07
-1.37733e-07
4.09249e-09
1.02011e-07
-1.38984e-08
2.84005e-07
1.53233e-07
4.13827e-07
3.18407e-07
3.63782e-07
5.58062e-07
-3.04507e-07
1.09011e-06
-4.31003e-07
1.14456e-06
-2.81865e-07
6.79144e-07
-2.11568e-09
3.4212e-07
1.81992e-07
3.8738e-07
1.98575e-07
4.86698e-07
2.76034e-07
1.93237e-07
5.37687e-07
-2.5756e-07
8.12669e-07
-2.88881e-07
9.78322e-07
-1.24201e-08
1.06258e-06
2.34151e-07
2.023e-07
1.22406e-06
-3.5331e-07
1.44342e-06
-3.0739e-07
1.09864e-06
1.25295e-07
2.46459e-07
7.53751e-07
-2.86336e-07
1.3919e-06
-2.50771e-07
1.56114e-06
3.17458e-07
1.58076e-06
1.73614e-07
1.80761e-06
-4.84407e-07
1.98073e-06
-4.62e-07
2.02387e-06
-5.55555e-08
1.98753e-06
2.70489e-07
5.15927e-08
2.13824e-06
-7.5995e-08
1.51942e-06
2.91666e-07
7.30974e-07
8.26573e-07
-2.88447e-07
1.52058e-06
-9.8034e-07
2.27379e-06
-1.00399e-06
3.12287e-06
-5.3162e-07
3.46711e-06
-1.70622e-07
3.41486e-06
-4.32159e-07
3.1983e-06
-2.45444e-07
3.08217e-06
6.05816e-08
3.14953e-06
2.03125e-07
3.33673e-06
-1.35609e-07
-4.36801e-07
5.81581e-08
-4.86736e-07
4.99356e-08
-5.21092e-07
3.43561e-08
-5.33981e-07
1.28885e-08
-5.15315e-07
-1.86657e-08
-4.58377e-07
-5.69385e-08
-3.7106e-07
-8.73169e-08
-2.64816e-07
-1.06244e-07
-1.56829e-07
-1.07987e-07
-6.72287e-08
-8.96005e-08
-1.28507e-08
-5.4378e-08
-1.28507e-08
-9.77896e-07
1.71453e-07
-1.0686e-06
1.4064e-07
-1.12198e-06
8.77362e-08
-1.1225e-06
1.34087e-08
-1.0668e-06
-7.43663e-08
-9.54978e-07
-1.6876e-07
-7.89389e-07
-2.52906e-07
-5.8552e-07
-3.10112e-07
-3.69876e-07
-3.23631e-07
-1.77633e-07
-2.81844e-07
-4.55894e-08
-1.86421e-07
-5.84401e-08
-1.27292e-06
3.05184e-07
-1.37938e-06
2.47101e-07
-1.44357e-06
1.51917e-07
-1.45369e-06
2.35311e-08
-1.39762e-06
-1.30434e-07
-1.2726e-06
-2.93779e-07
-1.07965e-06
-4.45855e-07
-8.29869e-07
-5.59896e-07
-5.48711e-07
-6.04789e-07
-2.79308e-07
-5.51247e-07
-7.84499e-08
-3.87279e-07
-1.3689e-07
-1.35463e-06
4.37262e-07
-1.46462e-06
3.57086e-07
-1.53904e-06
2.26333e-07
-1.56573e-06
5.02255e-08
-1.53457e-06
-1.61596e-07
-1.43599e-06
-3.92359e-07
-1.26304e-06
-6.18803e-07
-1.01547e-06
-8.07463e-07
-7.07855e-07
-9.12409e-07
-3.81916e-07
-8.77186e-07
-1.13719e-07
-6.55476e-07
-2.50609e-07
-1.22258e-06
5.45134e-07
-1.32015e-06
4.54651e-07
-1.39579e-06
3.01972e-07
-1.4403e-06
9.47351e-08
-1.44524e-06
-1.5665e-07
-1.39882e-06
-4.38777e-07
-1.28635e-06
-7.31276e-07
-1.09341e-06
-1.0004e-06
-8.14771e-07
-1.19105e-06
-4.75097e-07
-1.21686e-06
-1.55034e-07
-9.7554e-07
-4.05642e-07
-9.03368e-07
6.08056e-07
-9.6969e-07
5.20973e-07
-1.02832e-06
3.60607e-07
-1.0754e-06
1.41813e-07
-1.1088e-06
-1.23247e-07
-1.11975e-06
-4.27827e-07
-1.09078e-06
-7.60251e-07
-9.96617e-07
-1.09457e-06
-8.09355e-07
-1.37831e-06
-5.22013e-07
-1.5042e-06
-1.9172e-07
-1.30583e-06
-5.97362e-07
-4.51304e-07
6.13563e-07
-4.7293e-07
5.42599e-07
-4.94046e-07
3.81724e-07
-5.18934e-07
1.667e-07
-5.58269e-07
-8.39124e-08
-6.11859e-07
-3.74236e-07
-6.65046e-07
-7.07064e-07
-6.89543e-07
-1.07007e-06
-6.4126e-07
-1.42659e-06
-4.77995e-07
-1.66747e-06
-2.04971e-07
-1.57886e-06
-8.02333e-07
7.15636e-08
5.64987e-07
9.19186e-08
5.22244e-07
1.21955e-07
3.51687e-07
1.45523e-07
1.43132e-07
1.28873e-07
-6.7262e-08
5.81495e-08
-3.03513e-07
-5.62986e-08
-5.92616e-07
-1.89982e-07
-9.36386e-07
-2.95832e-07
-1.32074e-06
-3.09265e-07
-1.65403e-06
-1.71093e-07
-1.71703e-06
-9.73426e-07
6.37207e-07
4.85842e-07
6.68082e-07
4.91369e-07
7.45341e-07
2.74428e-07
8.37516e-07
5.09578e-08
8.7008e-07
-9.98263e-08
8.07378e-07
-2.40812e-07
6.59641e-07
-4.4488e-07
4.46722e-07
-7.23467e-07
2.06228e-07
-1.08025e-06
8.39901e-11
-1.44789e-06
-6.48892e-08
-1.65206e-06
-1.03832e-06
1.29849e-06
4.11412e-07
1.27267e-06
5.17188e-07
1.36104e-06
1.86062e-07
1.51898e-06
-1.06988e-07
1.61105e-06
-1.91897e-07
1.57011e-06
-1.99867e-07
1.4128e-06
-2.87574e-07
1.1587e-06
-4.69366e-07
8.29548e-07
-7.51095e-07
4.56398e-07
-1.07474e-06
1.45816e-07
-1.34147e-06
-8.925e-07
2.19708e-06
3.52569e-07
2.03117e-06
6.83097e-07
2.06342e-06
1.5381e-07
2.22828e-06
-2.71844e-07
2.33836e-06
-3.01978e-07
2.30452e-06
-1.66034e-07
2.15145e-06
-1.34495e-07
1.89638e-06
-2.14299e-07
1.54525e-06
-3.99969e-07
1.07745e-06
-6.06939e-07
5.23712e-07
-7.87733e-07
-3.68788e-07
3.40556e-06
2.83741e-07
3.08225e-06
1.00641e-06
2.98794e-06
2.48119e-07
3.01307e-06
-2.96975e-07
3.03459e-06
-3.23494e-07
2.97166e-06
-1.03109e-07
2.83383e-06
3.33319e-09
2.62193e-06
-2.39145e-09
2.33727e-06
-1.15315e-07
1.91359e-06
-1.83262e-07
1.25169e-06
-1.25829e-07
8.82903e-07
4.72505e-09
-4.72505e-09
6.05511e-09
-1.33006e-09
4.80548e-09
1.24963e-09
1.0696e-09
3.73588e-09
-6.20871e-09
7.27831e-09
-1.87811e-08
1.25724e-08
-3.74414e-08
1.86602e-08
-6.37628e-08
2.63214e-08
-9.93208e-08
3.5558e-08
-1.44852e-07
4.55307e-08
-1.99749e-07
5.48971e-08
6.17604e-08
-2.61509e-07
-7.87844e-09
3.15338e-09
-1.62166e-08
7.00809e-09
-2.78021e-08
1.28351e-08
-4.43119e-08
2.02457e-08
-6.81784e-08
3.11447e-08
-1.02456e-07
4.68497e-08
-1.51576e-07
6.77809e-08
-2.1892e-07
9.36652e-08
-3.0641e-07
1.23048e-07
-4.13861e-07
1.52981e-07
-5.37936e-07
1.78972e-07
1.9514e-07
-6.71316e-07
-1.01173e-08
1.32706e-08
-3.47476e-08
3.16385e-08
-6.60855e-08
4.4173e-08
-1.0198e-07
5.61405e-08
-1.441e-07
7.32648e-08
-1.96627e-07
9.93762e-08
-2.65089e-07
1.36243e-07
-3.5461e-07
1.83187e-07
-4.6839e-07
2.36828e-07
-6.06305e-07
2.90896e-07
-7.63721e-07
3.36388e-07
3.62347e-07
-9.30928e-07
-2.40892e-08
3.73599e-08
-7.10431e-08
7.85923e-08
-1.25551e-07
9.86812e-08
-1.79923e-07
1.10512e-07
-2.33713e-07
1.27055e-07
-2.91151e-07
1.56814e-07
-3.59241e-07
2.04333e-07
-4.4545e-07
2.69395e-07
-5.55429e-07
3.46808e-07
-6.90991e-07
4.26457e-07
-8.48737e-07
4.94134e-07
5.33319e-07
-1.01971e-06
-4.29705e-08
8.03304e-08
-1.20664e-07
1.56286e-07
-2.03028e-07
1.81045e-07
-2.74308e-07
1.81792e-07
-3.31188e-07
1.83935e-07
-3.77764e-07
2.0339e-07
-4.23086e-07
2.49655e-07
-4.78043e-07
3.24353e-07
-5.52413e-07
4.21177e-07
-6.52111e-07
5.26156e-07
-7.77433e-07
6.19455e-07
6.78533e-07
-9.22646e-07
-6.86798e-08
1.4901e-07
-1.81474e-07
2.6908e-07
-2.90984e-07
2.90556e-07
-3.72905e-07
2.63713e-07
-4.22013e-07
2.33044e-07
-4.42736e-07
2.24112e-07
-4.46347e-07
2.53266e-07
-4.47341e-07
3.25347e-07
-4.60352e-07
4.34187e-07
-4.9675e-07
5.62554e-07
-5.62199e-07
6.84905e-07
7.72073e-07
-6.55738e-07
-9.84921e-08
2.47502e-07
-2.41725e-07
4.12312e-07
-3.67021e-07
4.15852e-07
-4.45364e-07
3.42056e-07
-4.73519e-07
2.61198e-07
-4.57707e-07
2.08301e-07
-4.10697e-07
2.06256e-07
-3.48607e-07
2.63257e-07
-2.89096e-07
3.74676e-07
-2.48297e-07
5.21755e-07
-2.37621e-07
6.74229e-07
7.96298e-07
-2.61847e-07
-1.25595e-07
3.73098e-07
-2.76046e-07
5.62763e-07
-3.85599e-07
5.25405e-07
-4.3191e-07
3.88367e-07
-4.2109e-07
2.50378e-07
-3.63165e-07
1.50376e-07
-2.70764e-07
1.13855e-07
-1.57014e-07
1.49506e-07
-3.70764e-08
2.54738e-07
7.23405e-08
4.12339e-07
1.56433e-07
5.90136e-07
7.48041e-07
2.0469e-07
-1.36392e-07
5.0949e-07
-2.39369e-07
6.6574e-07
-2.71433e-07
5.5747e-07
-2.38448e-07
3.55381e-07
-1.63851e-07
1.75782e-07
-6.05566e-08
4.70817e-08
6.01427e-08
-6.84431e-09
1.93768e-07
1.58811e-08
3.34823e-07
1.13683e-07
4.74583e-07
2.72579e-07
6.01665e-07
4.63054e-07
6.46726e-07
7.0298e-07
-1.01969e-07
6.11459e-07
-5.42981e-08
6.18069e-07
8.23646e-08
4.20807e-07
2.50574e-07
1.87172e-07
4.13625e-07
1.27312e-08
5.64087e-07
-1.0338e-07
6.95855e-07
-1.38613e-07
8.09924e-07
-9.8187e-08
9.12724e-07
1.08827e-08
1.01797e-06
1.6733e-07
1.12729e-06
3.53732e-07
5.40988e-07
1.23303e-06
8.39211e-08
5.27538e-07
4.39636e-07
2.62354e-07
8.18865e-07
4.15778e-08
1.14316e-06
-1.37122e-07
1.40475e-06
-2.48862e-07
1.58979e-06
-2.88422e-07
1.70569e-06
-2.54514e-07
1.76318e-06
-1.55672e-07
1.78362e-06
-9.55626e-09
1.78836e-06
1.62589e-07
1.806e-06
3.36093e-07
5.01338e-07
1.84565e-06
9.00791e-07
-3.73253e-07
1.57009e-06
-4.0694e-07
2.10742e-06
-4.95758e-07
2.50311e-06
-5.32811e-07
2.78578e-06
-5.31527e-07
2.96227e-06
-4.64913e-07
3.04179e-06
-3.34034e-07
3.0342e-06
-1.48082e-07
2.95352e-06
7.11182e-08
2.82338e-06
2.92728e-07
2.69775e-06
4.61725e-07
2.60752e-06
5.91571e-07
-3.2532e-07
6.38107e-08
-3.84105e-07
5.87855e-08
-4.29411e-07
4.53061e-08
-4.53781e-07
2.437e-08
-4.49462e-07
-4.31953e-09
-4.06335e-07
-4.3127e-08
-3.30664e-07
-7.56712e-08
-2.34504e-07
-9.61594e-08
-1.35595e-07
-9.89091e-08
-5.45315e-08
-8.10636e-08
-7.87472e-09
-4.66568e-08
-7.87473e-09
-8.02447e-07
1.94943e-07
-9.16254e-07
1.72592e-07
-9.95882e-07
1.24934e-07
-1.02451e-06
5.29934e-08
-9.91292e-07
-3.75326e-08
-8.98441e-07
-1.35978e-07
-7.4808e-07
-2.26033e-07
-5.55696e-07
-2.88543e-07
-3.49089e-07
-3.05517e-07
-1.65048e-07
-2.65104e-07
-4.08959e-08
-1.70809e-07
-4.87707e-08
-1.09354e-06
3.57555e-07
-1.23401e-06
3.13064e-07
-1.33391e-06
2.2483e-07
-1.37651e-06
9.5592e-08
-1.34912e-06
-6.49199e-08
-1.24488e-06
-2.40218e-07
-1.06522e-06
-4.05693e-07
-8.22068e-07
-5.31693e-07
-5.42922e-07
-5.84663e-07
-2.73991e-07
-5.34035e-07
-7.51313e-08
-3.69669e-07
-1.23902e-07
-1.19018e-06
5.28029e-07
-1.34344e-06
4.66319e-07
-1.46186e-06
3.43249e-07
-1.5287e-06
1.62433e-07
-1.52953e-06
-6.40874e-08
-1.4524e-06
-3.17353e-07
-1.28984e-06
-5.68249e-07
-1.04261e-06
-7.78924e-07
-7.27663e-07
-8.99608e-07
-3.90896e-07
-8.70802e-07
-1.14502e-07
-6.46063e-07
-2.38404e-07
-1.07693e-06
6.82309e-07
-1.22622e-06
6.15617e-07
-1.35517e-06
4.72192e-07
-1.44834e-06
2.55609e-07
-1.49102e-06
-2.14138e-08
-1.46782e-06
-3.40555e-07
-1.36353e-06
-6.72536e-07
-1.165e-06
-9.77451e-07
-8.69409e-07
-1.1952e-06
-5.05817e-07
-1.23439e-06
-1.63422e-07
-9.88458e-07
-4.01826e-07
-7.70474e-07
7.97045e-07
-8.95649e-07
7.40791e-07
-1.01865e-06
5.95195e-07
-1.12656e-06
3.63517e-07
-1.20616e-06
5.81848e-08
-1.24403e-06
-3.02682e-07
-1.22201e-06
-6.94562e-07
-1.11733e-06
-1.08213e-06
-9.04836e-07
-1.4077e-06
-5.81051e-07
-1.55818e-06
-2.11877e-07
-1.35763e-06
-6.13702e-07
-3.18756e-07
8.53955e-07
-4.01229e-07
8.23264e-07
-4.99478e-07
6.93444e-07
-6.03333e-07
4.67373e-07
-7.03005e-07
1.57856e-07
-7.8947e-07
-2.16216e-07
-8.48661e-07
-6.35371e-07
-8.57983e-07
-1.0728e-06
-7.77839e-07
-1.48784e-06
-5.68697e-07
-1.76732e-06
-2.41001e-07
-1.68533e-06
-8.54704e-07
2.13602e-07
8.45043e-07
1.85365e-07
8.51502e-07
1.26215e-07
7.52594e-07
4.34866e-08
5.50101e-07
-5.61899e-08
2.57533e-07
-1.68834e-07
-1.03572e-07
-2.87578e-07
-5.16627e-07
-3.99769e-07
-9.60614e-07
-4.67035e-07
-1.42057e-06
-4.2821e-07
-1.80615e-06
-2.24507e-07
-1.88903e-06
-1.07921e-06
7.69245e-07
7.78777e-07
7.95537e-07
8.2521e-07
7.82216e-07
7.65915e-07
7.32436e-07
5.99881e-07
6.49684e-07
3.40284e-07
5.3415e-07
1.19629e-08
3.86383e-07
-3.68861e-07
2.05146e-07
-7.79377e-07
1.24273e-08
-1.22786e-06
-1.36958e-07
-1.65676e-06
-1.32757e-07
-1.89323e-06
-1.21197e-06
1.32407e-06
6.87735e-07
1.38757e-06
7.61714e-07
1.41507e-06
7.38411e-07
1.40253e-06
6.12422e-07
1.34873e-06
3.94093e-07
1.25133e-06
1.09363e-07
1.10555e-06
-2.23081e-07
8.99591e-07
-5.73422e-07
6.3155e-07
-9.59814e-07
3.18288e-07
-1.3435e-06
7.0879e-08
-1.64582e-06
-1.14109e-06
1.90441e-06
6.28968e-07
1.96547e-06
7.00655e-07
2.01122e-06
6.9267e-07
2.02806e-06
5.95582e-07
2.00741e-06
4.14735e-07
1.94277e-06
1.74005e-07
1.82778e-06
-1.08094e-07
1.64597e-06
-3.9161e-07
1.37438e-06
-6.88222e-07
9.68596e-07
-9.37715e-07
4.58991e-07
-1.13622e-06
-6.82098e-07
2.57089e-06
6.65596e-07
2.5759e-06
6.95644e-07
2.60076e-06
6.67813e-07
2.62357e-06
5.72767e-07
2.62765e-06
4.10656e-07
2.60228e-06
1.99378e-07
2.54174e-06
-4.75583e-08
2.4328e-06
-2.82666e-07
2.24742e-06
-5.02848e-07
1.88971e-06
-5.80004e-07
1.24164e-06
-4.88143e-07
5.59542e-07
-1.89443e-08
1.89443e-08
-7.39681e-08
5.50238e-08
-1.48618e-07
7.465e-08
-2.25419e-07
7.68012e-08
-2.89518e-07
6.40986e-08
-3.30289e-07
4.07712e-08
-3.4483e-07
1.45413e-08
-3.26767e-07
-1.80634e-08
-2.78675e-07
-4.80925e-08
-2.22498e-07
-5.61761e-08
-1.85697e-07
-3.68011e-08
-1.53397e-08
-1.70358e-07
-6.91521e-08
8.80964e-08
-2.12044e-07
1.97916e-07
-3.85823e-07
2.48429e-07
-5.5543e-07
2.46408e-07
-6.90479e-07
1.99147e-07
-7.68645e-07
1.18937e-07
-7.81325e-07
2.72214e-08
-7.32502e-07
-6.6886e-08
-6.3002e-07
-1.50575e-07
-5.04231e-07
-1.81965e-07
-4.13498e-07
-1.27533e-07
-4.76949e-08
-3.81143e-07
-1.00126e-07
1.88222e-07
-3.09053e-07
4.06843e-07
-5.59818e-07
4.99193e-07
-8.0294e-07
4.89531e-07
-9.94427e-07
3.90634e-07
-1.10155e-06
2.2606e-07
-1.12703e-06
5.27015e-08
-1.07307e-06
-1.20843e-07
-9.53387e-07
-2.7026e-07
-7.82911e-07
-3.52442e-07
-6.24451e-07
-2.85992e-07
-8.54166e-08
-5.8673e-07
-1.18407e-07
3.06629e-07
-3.62554e-07
6.5099e-07
-6.60785e-07
7.97424e-07
-9.57457e-07
7.86203e-07
-1.19141e-06
6.24588e-07
-1.30738e-06
3.42029e-07
-1.36009e-06
1.05416e-07
-1.36481e-06
-1.16129e-07
-1.29016e-06
-3.44906e-07
-1.19628e-06
-4.46325e-07
-1.01125e-06
-4.71026e-07
-2.19589e-07
-8.77074e-07
-1.04381e-07
4.1101e-07
-3.26755e-07
8.73364e-07
-6.08354e-07
1.07902e-06
-8.97349e-07
1.0752e-06
-1.11651e-06
8.43749e-07
-1.1755e-06
4.01024e-07
-1.21862e-06
1.48528e-07
-1.22064e-06
-1.14104e-07
-1.2144e-06
-3.51151e-07
-1.20435e-06
-4.56368e-07
-1.08559e-06
-5.89794e-07
-5.88736e-07
-7.16439e-07
-4.83497e-08
4.5936e-07
-1.63525e-07
9.88539e-07
-3.07137e-07
1.22264e-06
-4.38272e-07
1.20633e-06
-5.36289e-07
9.41766e-07
-5.46289e-07
4.11024e-07
-5.2218e-07
1.24419e-07
-5.27912e-07
-1.08372e-07
-5.69216e-07
-3.09848e-07
-5.40982e-07
-4.84602e-07
-5.00062e-07
-6.30713e-07
-6.38235e-07
-4.50563e-07
1.28395e-08
4.4652e-07
3.27282e-08
9.68651e-07
7.14166e-08
1.18395e-06
1.85507e-07
1.09224e-06
4.02271e-07
7.25002e-07
3.05846e-07
5.07449e-07
1.94794e-07
2.35471e-07
8.41337e-08
2.2885e-09
-2.63059e-08
-1.99408e-07
-1.36241e-07
-3.74667e-07
-2.80616e-07
-4.86338e-07
-5.21591e-07
-3.9726e-07
4.92488e-08
3.97271e-07
1.78577e-07
8.39322e-07
3.67286e-07
9.95238e-07
6.28765e-07
8.30764e-07
8.77898e-07
4.75869e-07
7.91159e-07
5.94187e-07
6.61258e-07
3.65373e-07
5.32847e-07
1.30699e-07
3.95581e-07
-6.21414e-08
2.63124e-07
-2.42211e-07
6.83693e-08
-2.91583e-07
-2.96726e-07
-1.56496e-07
4.87319e-08
3.48539e-07
2.30103e-07
6.57951e-07
4.69619e-07
7.55723e-07
7.18684e-07
5.81698e-07
8.7945e-07
3.15103e-07
8.93756e-07
5.79881e-07
8.99511e-07
3.59618e-07
8.62224e-07
1.67987e-07
7.61694e-07
3.83888e-08
6.99916e-07
-1.80433e-07
5.4765e-07
-1.39318e-07
-3.2183e-08
2.83107e-07
4.88413e-08
2.99698e-07
2.70672e-07
4.3612e-07
5.07032e-07
5.19363e-07
6.7816e-07
4.1057e-07
1.00123e-06
-7.96248e-09
1.10481e-06
4.76301e-07
1.14203e-06
3.22389e-07
1.18893e-06
1.2109e-07
1.08942e-06
1.37902e-07
1.13096e-06
-2.21976e-07
1.09423e-06
-1.0259e-07
1.61638e-07
9.00412e-07
1.45022e-07
1.54676e-07
4.76122e-07
1.05019e-07
7.39412e-07
2.56074e-07
7.85148e-07
3.64834e-07
9.76295e-07
-1.9911e-07
9.54397e-07
4.98199e-07
1.2995e-06
-2.271e-08
1.51922e-06
-9.86378e-08
1.32167e-06
3.35453e-07
1.417e-06
-3.17301e-07
1.49039e-06
-1.75986e-07
1.50863e-07
1.50117e-06
6.96597e-07
-5.41921e-07
1.19016e-06
-3.88546e-07
1.55908e-06
-1.12844e-07
1.67202e-06
2.51898e-07
1.48923e-06
-1.63245e-08
1.29115e-06
6.9628e-07
1.55859e-06
-2.90148e-07
1.63899e-06
-1.7904e-07
1.66337e-06
3.11076e-07
1.42108e-06
-7.50178e-08
1.34715e-06
-1.02047e-07
1.62474e-06
-1.2673e-07
-1.48125e-07
-2.22324e-08
-1.30692e-07
-1.74329e-08
-1.27362e-07
-3.33051e-09
-1.15412e-07
-1.19494e-08
-9.73298e-08
-1.80826e-08
-7.98986e-08
-1.74312e-08
-6.87474e-08
-1.11511e-08
-6.35916e-08
-5.15578e-09
-5.8172e-08
-5.41963e-09
-4.79178e-08
-1.02542e-08
-1.97595e-08
-2.81583e-08
-1.97595e-08
-3.78027e-07
-2.53487e-08
-3.84024e-07
-1.14364e-08
-3.74753e-07
-1.26007e-08
-3.10999e-07
-7.57033e-08
-2.52842e-07
-7.62395e-08
-2.02532e-07
-6.77413e-08
-1.61853e-07
-5.18309e-08
-1.4129e-07
-2.57183e-08
-1.23342e-07
-2.33682e-08
-1.0096e-07
-3.26359e-08
-4.19944e-08
-8.71237e-08
-6.17539e-08
-5.16459e-07
-9.56188e-08
-4.3698e-07
-9.09155e-08
-3.51189e-07
-9.8392e-08
-3.05308e-07
-1.21584e-07
-2.58452e-07
-1.23096e-07
-2.08383e-07
-1.17811e-07
-1.51915e-07
-1.08299e-07
-1.09335e-07
-6.82981e-08
-1.08624e-07
-2.40785e-08
-1.39564e-07
-1.69605e-09
-6.15004e-08
-1.65188e-07
-1.23254e-07
-6.64719e-07
-3.07973e-07
-5.74478e-07
-1.81157e-07
-4.24732e-07
-2.48138e-07
-3.18369e-07
-2.27948e-07
-2.66008e-07
-1.75456e-07
-2.33536e-07
-1.50283e-07
-2.01129e-07
-1.40706e-07
-1.3564e-07
-1.33787e-07
-4.46242e-08
-1.15094e-07
2.99356e-08
-7.62558e-08
4.5633e-08
-1.80885e-07
-7.76213e-08
-5.92609e-07
-4.31804e-07
-3.33555e-07
-4.4021e-07
-2.01962e-07
-3.79731e-07
-1.69727e-07
-2.60183e-07
-1.65245e-07
-1.79938e-07
-1.72307e-07
-1.43222e-07
-1.68522e-07
-1.44491e-07
-1.44856e-07
-1.57453e-07
-1.12033e-07
-1.47917e-07
-5.38594e-08
-1.3443e-07
-3.80869e-08
-1.96657e-07
-1.15708e-07
-3.57054e-07
-5.25313e-07
-2.30047e-07
-5.67217e-07
-7.88087e-08
-5.30969e-07
-3.63292e-08
-3.02662e-07
-4.40994e-08
-1.72168e-07
-8.11441e-08
-1.06177e-07
-1.10837e-07
-1.14798e-07
-1.17251e-07
-1.51039e-07
-1.00629e-07
-1.64539e-07
-6.76599e-08
-1.67398e-07
-5.08297e-08
-2.13488e-07
-1.66538e-07
-3.72506e-07
-5.50066e-07
-2.92805e-07
-6.46919e-07
-1.95999e-07
-6.27774e-07
-8.17382e-08
-4.16923e-07
-1.87027e-08
-2.35204e-07
-2.81092e-08
-9.67703e-08
-4.21924e-08
-1.00715e-07
-3.29749e-08
-1.60256e-07
-1.13735e-08
-1.8614e-07
2.35348e-08
-2.02307e-07
4.13922e-08
-2.31345e-07
-1.25146e-07
-3.40079e-07
-3.66483e-07
-4.43876e-07
-5.43122e-07
-4.34686e-07
-6.36965e-07
-2.89387e-07
-5.62222e-07
-1.29895e-07
-3.94695e-07
-6.04085e-08
-1.66257e-07
-1.95249e-09
-1.59171e-07
4.86135e-08
-2.10822e-07
5.56946e-08
-1.93221e-07
1.85321e-08
-1.65144e-07
-1.34302e-08
-1.99383e-07
-1.38576e-07
-1.8203e-08
-6.51731e-08
-2.60805e-07
-3.00519e-07
-3.98073e-07
-4.99697e-07
-4.23932e-07
-5.36363e-07
-2.87039e-07
-5.31588e-07
-1.55044e-07
-2.98252e-07
3.98703e-08
-3.54085e-07
1.41711e-07
-3.12663e-07
1.47467e-07
-1.98978e-07
1.98549e-08
-3.7532e-08
-3.12379e-08
-1.4829e-07
-1.69814e-07
6.03204e-07
2.32034e-07
3.38572e-07
-3.58877e-08
1.20013e-07
-2.81138e-07
-8.94221e-08
-3.26928e-07
-2.25425e-07
-3.95586e-07
1.03531e-08
-5.34029e-07
9.1652e-08
-4.35384e-07
2.42177e-07
-4.63187e-07
3.00714e-07
-2.57515e-07
7.04065e-08
1.92776e-07
-3.64248e-08
-4.14587e-08
-2.06239e-07
1.42424e-06
3.08959e-07
1.34299e-06
4.5368e-08
1.13764e-06
-7.57924e-08
7.96512e-07
1.42036e-08
4.50556e-07
-4.96305e-08
4.04903e-07
-4.88377e-07
2.36245e-07
-2.66726e-07
4.20923e-07
-6.47865e-07
5.37911e-07
-3.74503e-07
1.09885e-07
6.20802e-07
-1.45127e-08
8.2939e-08
-2.20751e-07
2.19598e-06
-2.62285e-07
2.63648e-06
-3.95127e-07
2.54537e-06
1.5312e-08
2.07537e-06
4.84205e-07
1.69662e-06
3.29123e-07
1.50727e-06
-2.99024e-07
9.86229e-07
2.54312e-07
7.59456e-07
-4.21093e-07
7.72315e-07
-3.87362e-07
8.77598e-07
5.15519e-07
6.63949e-07
2.96588e-07
4.43198e-07
2.87687e-06
-7.66397e-07
-2.85042e-06
3.31794e-06
-2.98522e-07
3.84583e-06
4.97117e-08
4.43093e-06
-3.16954e-07
4.73404e-06
-5.90098e-07
4.65073e-06
-3.0054e-07
4.55974e-06
-3.45095e-07
4.58123e-06
-2.33677e-07
4.65784e-06
-1.08457e-07
4.72325e-06
-1.31858e-08
4.6709e-06
1.12078e-08
1.65819e-07
4.472e-06
4.33323e-06
-5.17972e-07
-4.58165e-06
4.004e-06
3.07093e-08
4.22798e-06
-1.74273e-07
4.53782e-06
-6.26792e-07
4.87784e-06
-9.30118e-07
5.20358e-06
-6.26283e-07
5.35826e-06
-4.99772e-07
5.4578e-06
-3.33215e-07
5.50428e-06
-1.54937e-07
5.47697e-06
1.41155e-08
5.31662e-06
1.71562e-07
3.52627e-07
5.12981e-06
5.79656e-06
-4.99804e-07
-5.81473e-06
5.83706e-06
-9.78545e-09
5.86706e-06
-2.04277e-07
5.69176e-06
-4.51489e-07
5.5059e-06
-7.44261e-07
5.77049e-06
-8.90875e-07
6.04082e-06
-7.70102e-07
6.18968e-06
-4.82067e-07
6.21157e-06
-1.7683e-07
6.12653e-06
9.91552e-08
5.9026e-06
3.95486e-07
5.35514e-07
5.71972e-06
6.36738e-06
-6.31523e-06
-5.51955e-07
6.61675e-06
-2.59158e-07
6.88443e-06
-4.71961e-07
6.97515e-06
-5.42209e-07
6.93964e-06