/*--------------------------------*- C++ -*----------------------------------*\
| =========                 |                                                 |
| \\      /  F ield         | OpenFOAM: The Open Source CFD Toolbox           |
|  \\    /   O peration     | Version:  v1606+                                |
|   \\  /    A nd           | Web:      www.OpenFOAM.com                      |
|    \\/     M anipulation  |                                                 |
\*---------------------------------------------------------------------------*/
FoamFile
{
    version     2.0;
    format      ascii;
    class       volScalarField;
    location    "0.5";
    object      alpha.particles;
}
// * * * * * * * * * * * * * * * * * * * * * * * * * * * * * * * * * * * * * //

dimensions      [0 0 0 0 0 0 0];

internalField   nonuniform List<scalar> 
6000
(
0.382772
0.382772
0.382778
0.382782
0.382779
0.382772
0.382768
0.382751
0.382729
0.382724
0.382719
0.382714
0.382709
0.382703
0.382698
0.382693
0.382688
0.382682
0.382677
0.38267
0.38267
0.382676
0.382682
0.382688
0.382693
0.382699
0.382705
0.382698
0.382692
0.382685
0.369218
0.382778
0.382782
0.382789
0.378889
0.371537
0.367728
0.365466
0.365442
0.368278
0.37343
0.37903
0.381397
0.381196
0.380858
0.380484
0.380734
0.380898
0.378541
0.373197
0.368403
0.365741
0.365715
0.367604
0.371254
0.378818
0.382711
0.382705
0.382698
0.370982
0.318152
0.369606
0.379053
0.360066
0.335559
0.324644
0.320642
0.318807
0.319651
0.324569
0.333089
0.341917
0.343883
0.34113
0.338615
0.337659
0.340005
0.343318
0.341478
0.332839
0.3247
0.319957
0.318934
0.320487
0.324379
0.335612
0.360432
0.379314
0.370838
0.321849
0.313583
0.315381
0.324133
0.312707
0.307081
0.307072
0.307034
0.30697
0.307004
0.306968
0.307004
0.307024
0.307054
0.304864
0.303367
0.30337
0.304411
0.306541
0.306743
0.306734
0.306704
0.306734
0.306707
0.306767
0.30682
0.306827
0.31321
0.325144
0.31664
0.312814
0.313564
0.31358
0.313551
0.3134
0.310491
0.312666
0.314992
0.314438
0.312586
0.309263
0.306961
0.303731
0.303602
0.303483
0.303492
0.303487
0.303473
0.303588
0.303714
0.3073
0.309764
0.312963
0.314346
0.314527
0.312046
0.309766
0.312624
0.312776
0.312809
0.312792
0.313583
0.31643
0.348067
0.35281
0.347759
0.348049
0.351434
0.350085
0.344757
0.33392
0.32467
0.314777
0.305376
0.30357
0.3035
0.303497
0.303557
0.306214
0.316665
0.326669
0.336199
0.346288
0.350422
0.350775
0.346833
0.346072
0.349965
0.343887
0.313613
0.312813
0.32158
0.390911
0.440434
0.440308
0.424362
0.408936
0.405067
0.402848
0.395785
0.381177
0.368654
0.355681
0.325781
0.305728
0.303575
0.303563
0.306964
0.330122
0.360719
0.372266
0.38539
0.398499
0.403815
0.404767
0.408136
0.422773
0.437495
0.434636
0.383188
0.31609
0.405039
0.501052
0.52315
0.521401
0.507612
0.480047
0.456941
0.448917
0.443443
0.434482
0.428905
0.428443
0.384121
0.329713
0.312363
0.312966
0.334715
0.393623
0.433749
0.432267
0.438886
0.446533
0.45005
0.457509
0.480498
0.507524
0.520776
0.521403
0.497251
0.395341
0.522741
0.549451
0.554379
0.553263
0.548315
0.534249
0.506561
0.485074
0.479039
0.481326
0.488494
0.50107
0.469359
0.39032
0.353876
0.355841
0.399366
0.480317
0.503042
0.489412
0.483092
0.480711
0.486134
0.508457
0.5356
0.548924
0.553531
0.554477
0.548724
0.520098
0.560537
0.560978
0.56078
0.560314
0.559041
0.555171
0.541166
0.516426
0.507714
0.518523
0.531286
0.537764
0.52548
0.470844
0.432378
0.435116
0.478749
0.530987
0.538112
0.530782
0.517198
0.507302
0.517783
0.543152
0.555995
0.559374
0.560356
0.560939
0.561052
0.560459
0.561011
0.560995
0.561024
0.560993
0.561021
0.56096
0.556407
0.541704
0.533008
0.542032
0.548653
0.546052
0.535552
0.525063
0.50839
0.509765
0.527104
0.536999
0.54694
0.549347
0.540484
0.531748
0.543074
0.557427
0.561051
0.561106
0.561069
0.561106
0.561067
0.561087
0.561015
0.561022
0.560999
0.561029
0.561
0.561039
0.560965
0.556387
0.551231
0.551296
0.551115
0.515033
0.500277
0.525148
0.524778
0.524762
0.524335
0.498828
0.525245
0.550988
0.551065
0.551029
0.556949
0.56106
0.56116
0.561089
0.561124
0.561075
0.561106
0.561093
0.561003
0.560278
0.560994
0.560968
0.56104
0.561002
0.561039
0.560975
0.559287
0.545488
0.463714
0.362068
0.338165
0.402348
0.445672
0.442569
0.3969
0.338371
0.383515
0.491031
0.549675
0.56007
0.561071
0.561187
0.561098
0.561156
0.561049
0.560754
0.560748
0.561084
0.558914
0.526894
0.541198
0.547753
0.557515
0.561046
0.560992
0.561027
0.558357
0.51047
0.354548
0.262875
0.205251
0.198382
0.224849
0.222257
0.197347
0.213694
0.283243
0.390097
0.530651
0.561023
0.561186
0.561101
0.561185
0.558685
0.547268
0.538234
0.529104
0.559961
0.528375
0.418801
0.429228
0.49513
0.540883
0.55426
0.557849
0.560945
0.559267
0.476585
0.381475
0.32687
0.20205
0.128981
0.127612
0.127029
0.131568
0.216704
0.346853
0.399948
0.511236
0.561045
0.561099
0.561202
0.554016
0.542252
0.493267
0.428276
0.425634
0.533894
0.397075
0.258585
0.2545
0.367871
0.46614
0.506064
0.535053
0.553549
0.522459
0.467892
0.455096
0.445885
0.278391
0.136659
0.124045
0.124045
0.141191
0.297059
0.456086
0.462088
0.494681
0.548944
0.56108
0.546351
0.513353
0.465654
0.36103
0.254209
0.263662
0.41281
0.243643
0.182022
0.179204
0.229913
0.357663
0.464789
0.509666
0.520244
0.498943
0.489432
0.50057
0.50938
0.402122
0.194206
0.158768
0.159718
0.203639
0.415192
0.514416
0.504855
0.495769
0.520386
0.53815
0.521756
0.474178
0.353837
0.223765
0.178648
0.185139
0.254292
0.188686
0.179203
0.179204
0.19467
0.300446
0.436502
0.507763
0.52321
0.52124
0.526534
0.533451
0.537484
0.485374
0.33205
0.271212
0.27534
0.344358
0.492868
0.539502
0.535724
0.528459
0.526323
0.534086
0.511148
0.43822
0.296023
0.193846
0.178647
0.178719
0.19395
0.195454
0.197857
0.217106
0.228654
0.296864
0.479744
0.533491
0.533618
0.543491
0.54354
0.54354
0.54351
0.533781
0.470982
0.40307
0.409662
0.482737
0.536336
0.543329
0.543376
0.543349
0.541064
0.529877
0.529683
0.474186
0.298769
0.235925
0.225253
0.203061
0.200015
0.234386
0.247549
0.283253
0.292087
0.330839
0.410409
0.411889
0.355685
0.465843
0.541943
0.543449
0.503282
0.431477
0.448936
0.420483
0.424549
0.452393
0.430187
0.498888
0.543254
0.538617
0.435006
0.317021
0.378985
0.376157
0.326629
0.29888
0.295378
0.254692
0.237046
0.284718
0.28474
0.273644
0.251339
0.239321
0.171794
0.122459
0.112318
0.203629
0.360326
0.417054
0.322641
0.258131
0.287753
0.301799
0.301778
0.283335
0.259517
0.319646
0.400105
0.333019
0.178624
0.0953643
0.103664
0.139872
0.215325
0.232562
0.261323
0.283949
0.283938
0.249661
0.236254
0.158128
0.115038
0.0847363
0.0503265
0.0423774
0.0543513
0.114671
0.228348
0.289768
0.255265
0.201321
0.167244
0.165777
0.164843
0.168536
0.207604
0.258363
0.283598
0.216225
0.107805
0.0521122
0.0406481
0.0454436
0.0713969
0.0946689
0.131388
0.215655
0.236278
0.120741
0.0941018
0.055994
0.0427075
0.0364944
0.0345446
0.0368023
0.0503997
0.101694
0.199661
0.260685
0.258515
0.20559
0.151058
0.137389
0.137412
0.155072
0.214318
0.264216
0.258217
0.192497
0.0975154
0.0498783
0.0370278
0.0345883
0.0347332
0.0379196
0.0472693
0.0786601
0.10505
0.0439126
0.0373909
0.0322791
0.0312329
0.0318786
0.0340063
0.038161
0.0501095
0.0948199
0.196749
0.269653
0.268035
0.210378
0.153026
0.137725
0.138361
0.157486
0.22
0.274874
0.266491
0.188926
0.091359
0.0501847
0.0388246
0.0344178
0.0316561
0.0305474
0.030814
0.0342687
0.0395546
0.0307483
0.0306035
0.0303295
0.0307149
0.0323262
0.0354889
0.0410076
0.0513157
0.0875728
0.188926
0.277591
0.281409
0.216651
0.155253
0.140806
0.141693
0.160015
0.227007
0.289813
0.274941
0.180393
0.0853925
0.0522008
0.0419787
0.0360519
0.0323806
0.0303506
0.0296638
0.0296381
0.0293726
0.0294143
0.0302803
0.0303044
0.0311436
0.0337153
0.0381025
0.0442663
0.054144
0.0839461
0.180821
0.285119
0.295408
0.222152
0.156509
0.143809
0.144628
0.161472
0.233442
0.304736
0.28234
0.172302
0.0830867
0.0553523
0.0452339
0.0387423
0.0340481
0.0309952
0.0297443
0.0294214
0.0285045
0.029125
0.0303505
0.0307404
0.0323129
0.0357218
0.0406866
0.0473553
0.0578718
0.0826823
0.172919
0.294146
0.310645
0.228531
0.157793
0.146052
0.14691
0.162859
0.239502
0.318745
0.290229
0.165903
0.0830788
0.0592267
0.0482176
0.0412764
0.0361208
0.0323954
0.0303963
0.0296508
0.0284926
0.0291174
0.03073
0.0317006
0.0340149
0.0379491
0.0430679
0.0502958
0.0616548
0.084303
0.166236
0.303366
0.326864
0.235206
0.159335
0.148053
0.149027
0.164093
0.244327
0.332952
0.298652
0.16115
0.0858508
0.063143
0.0511081
0.0435497
0.0383092
0.0342138
0.0315669
0.0302071
0.0284885
0.0291041
0.0314494
0.0331395
0.036085
0.0402622
0.0455379
0.0532149
0.0658252
0.0888637
0.162183
0.309959
0.338297
0.239852
0.16108
0.14993
0.15104
0.165045
0.246099
0.342398
0.305599
0.159407
0.0909488
0.0673387
0.0540297
0.0459801
0.0405616
0.036298
0.0331053
0.0310059
0.0284793
0.0291023
0.032396
0.035015
0.0384751
0.0428265
0.0482623
0.0564684
0.0701528
0.0939367
0.161099
0.315775
0.348092
0.242698
0.162669
0.151536
0.152744
0.165772
0.24684
0.352155
0.312504
0.161727
0.0960104
0.0716636
0.0573161
0.0487161
0.0430856
0.0386484
0.035005
0.0319833
0.0284823
0.0291227
0.0335618
0.0373483
0.0412691
0.045759
0.051368
0.060144
0.074759
0.0996505
0.166679
0.319266
0.356291
0.245229
0.164587
0.152957
0.154132
0.167279
0.249411
0.36057
0.316825
0.166958
0.101695
0.0761625
0.0609735
0.0518388
0.0460085
0.041412
0.0373486
0.0331951
0.0284997
0.0291379
0.0350971
0.0402577
0.0446216
0.049173
0.05498
0.0642678
0.0798534
0.10645
0.173161
0.323388
0.361099
0.248656
0.167216
0.154317
0.155277
0.170221
0.256187
0.365495
0.321791
0.173246
0.108204
0.0812117
0.0651205
0.0554907
0.0494442
0.0447667
0.0402996
0.0348336
0.0285132
0.0291495
0.0372227
0.0439304
0.0486997
0.0532463
0.0591138
0.068916
0.0856428
0.113935
0.1816
0.329723
0.363134
0.253452
0.171272
0.156257
0.156857
0.174539
0.264078
0.368356
0.328456
0.181148
0.115303
0.086881
0.069827
0.0597362
0.0535747
0.0488614
0.0440314
0.0371163
0.0285229
0.0294309
0.0403166
0.0486445
0.0537126
0.0580129
0.0638067
0.074153
0.0920943
0.122427
0.19245
0.338072
0.363539
0.259392
0.17663
0.159628
0.159995
0.179602
0.269221
0.369348
0.336976
0.191758
0.123664
0.0932771
0.0751102
0.0645581
0.058443
0.0538893
0.0487465
0.0403297
0.0289445
0.0319032
0.0449431
0.0545672
0.0596486
0.0634326
0.0690194
0.0799037
0.0994235
0.132397
0.205354
0.347376
0.364993
0.265128
0.182697
0.164633
0.16515
0.184948
0.271494
0.370367
0.348158
0.205592
0.133788
0.100794
0.081059
0.0699156
0.0639744
0.0598482
0.0546235
0.0449618
0.0316532
0.0389615
0.0519117
0.0617131
0.0663319
0.0693269
0.0746357
0.0862136
0.107594
0.143474
0.2192
0.356795
0.368445
0.271103
0.189134
0.170738
0.171515
0.190541
0.274494
0.372373
0.360507
0.221785
0.145715
0.109543
0.0877441
0.0757244
0.0699972
0.0665837
0.0617472
0.0518408
0.0387649
0.051104
0.0619876
0.0700034
0.0734318
0.0754702
0.080527
0.0929611
0.116758
0.156411
0.235668
0.367551
0.373423
0.278
0.196481
0.177513
0.17811
0.196205
0.277508
0.376275
0.374015
0.241565
0.160123
0.119783
0.0951568
0.0818374
0.0762426
0.0737523
0.0700579
0.0617995
0.0506707
0.0661385
0.0743669
0.078991
0.0804961
0.0815333
0.0863478
0.100044
0.126948
0.171438
0.255557
0.380014
0.381276
0.28689
0.205979
0.18608
0.186148
0.204068
0.282083
0.382718
0.387506
0.265004
0.177443
0.131639
0.103223
0.0879912
0.082358
0.0808872
0.0791154
0.0741275
0.0654042
0.0803643
0.0869058
0.087802
0.0869587
0.0871165
0.0917479
0.107217
0.137816
0.188317
0.278653
0.393674
0.389591
0.296649
0.218777
0.197813
0.197824
0.21666
0.290024
0.388596
0.400765
0.291292
0.197285
0.144573
0.1116
0.0938251
0.0879488
0.0874184
0.0880334
0.0867734
0.0794692
0.0914982
0.0976678
0.0955767
0.0920309
0.0916381
0.0963683
0.113827
0.148139
0.205301
0.301808
0.406512
0.398879
0.311019
0.236214
0.213542
0.213564
0.233986
0.303717
0.39657
0.412352
0.316935
0.217735
0.157099
0.119485
0.0989383
0.0925629
0.0926217
0.0959552
0.0977285
0.0904061
0.100363
0.105987
0.101314
0.0951028
0.0944918
0.0997933
0.119116
0.156607
0.219826
0.321612
0.417672
0.409092
0.329213
0.257672
0.233804
0.233818
0.255361
0.321789
0.406044
0.422835
0.338876
0.235499
0.1676
0.126036
0.103
0.0957002
0.0958828
0.102049
0.106125
0.0987604
0.108713
0.112104
0.104457
0.0963103
0.0958285
0.102344
0.123618
0.16352
0.230157
0.333869
0.423556
0.419631
0.350311
0.282296
0.257602
0.257614
0.279944
0.342627
0.416031
0.42942
0.353172
0.248267
0.17631
0.131852
0.106455
0.0974691
0.0972249
0.10564
0.112285
0.106195
0.118464
0.115936
0.105532
0.0967668
0.0969797
0.10643
0.130244
0.171415
0.237401
0.337017
0.423636
0.426947
0.370794
0.308068
0.283381
0.283483
0.306049
0.363381
0.423796
0.429406
0.358063
0.257398
0.185991
0.140015
0.112025
0.0992793
0.0976514
0.106713
0.11633
0.114769
0.131059
0.118796
0.106227
0.100029
0.10345
0.117493
0.143518
0.184093
0.245568
0.333045
0.420431
0.427336
0.386598
0.332643
0.309835
0.310425
0.332482
0.38277
0.428762
0.428744
0.354903
0.266759
0.200128
0.154847
0.124854
0.106813
0.100644
0.106396
0.119626
0.12624
0.146089
0.123692
0.111041
0.110563
0.119526
0.137709
0.165235
0.205103
0.263108
0.341048
0.41631
0.427336
0.397665
0.357562
0.339283
0.340562
0.359854
0.397777
0.427521
0.426771
0.365229
0.287874
0.223887
0.178511
0.146323
0.123745
0.111198
0.110534
0.124522
0.140707
0.159381
0.133088
0.124437
0.129862
0.144101
0.166744
0.197782
0.2411
0.300241
0.368054
0.420012
0.426844
0.409542
0.385836
0.374456
0.376295
0.39025
0.413741
0.430519
0.43017
0.391662
0.327848
0.264463
0.214261
0.176995
0.149322
0.131464
0.124662
0.133749
0.154333
0.169706
0.149234
0.146046
0.156799
0.177625
0.208036
0.248069
0.299052
0.357769
0.409932
0.436643
0.438397
0.432144
0.422715
0.418197
0.420242
0.428161
0.43904
0.446487
0.447252
0.430049
0.385176
0.325889
0.268639
0.221366
0.185162
0.160288
0.147824
0.150533
0.165861
0.179853
0.173714
0.176381
0.195016
0.226399
0.268516
0.320076
0.375828
0.425874
0.45791
0.468114
0.469069
0.469183
0.468704
0.468829
0.470567
0.473558
0.476173
0.477518
0.477793
0.472116
0.447576
0.401793
0.344
0.286468
0.237977
0.201725
0.180266
0.176012
0.177695
0.196376
0.211793
0.222886
0.253667
0.298583
0.35293
0.408569
0.455439
0.486303
0.500976
0.505342
0.507532
0.509911
0.512053
0.513476
0.514442
0.514853
0.514299
0.513045
0.511544
0.508405
0.498015
0.473246
0.43014
0.374056
0.315802
0.265201
0.229437
0.21511
0.195874
0.230169
0.273478
0.298017
0.341527
0.396993
0.449409
0.487961
0.511337
0.523312
0.529099
0.532134
0.534254
0.535939
0.537218
0.53801
0.53836
0.538254
0.537617
0.536433
0.534638
0.531877
0.527201
0.517876
0.49846
0.464354
0.416382
0.358742
0.307867
0.277799
0.231554
0.295711
0.359737
0.402612
0.450944
0.49346
0.518413
0.530667
0.536642
0.540081
0.542435
0.544171
0.545407
0.546279
0.546892
0.547291
0.54748
0.547443
0.54714
0.546489
0.545365
0.543617
0.541137
0.537502
0.531576
0.521035
0.503144
0.466732
0.415715
0.365413
0.298683
0.3916
0.456233
0.498453
0.525841
0.539163
0.54312
0.545055
0.546244
0.547353
0.548431
0.549397
0.55018
0.550788
0.551252
0.551588
0.55179
0.551843
0.551723
0.551379
0.550742
0.549735
0.548304
0.546465
0.544364
0.542288
0.540435
0.53064
0.505728
0.460985
0.394954
0.479386
0.521218
0.532277
0.533606
0.542813
0.546389
0.549026
0.550203
0.551069
0.551866
0.552601
0.553247
0.553795
0.554246
0.5546
0.554852
0.554993
0.555006
0.554865
0.554527
0.553929
0.553003
0.55176
0.55038
0.548923
0.545561
0.535071
0.529156
0.520997
0.480688
0.525547
0.52537
0.524303
0.524505
0.541157
0.546246
0.550483
0.552497
0.553614
0.554449
0.555159
0.555778
0.556312
0.556765
0.557141
0.55744
0.557661
0.557798
0.557837
0.557746
0.557466
0.55692
0.556059
0.55482
0.552482
0.545879
0.532863
0.522131
0.523123
0.523256
0.532154
0.502071
0.506105
0.510853
0.538259
0.546114
0.551811
0.554551
0.55588
0.556745
0.557432
0.558015
0.558513
0.558939
0.559306
0.559623
0.559899
0.560142
0.560343
0.560489
0.560539
0.560439
0.560134
0.559457
0.557064
0.548902
0.53597
0.516982
0.507342
0.530294
0.528637
0.491514
0.494964
0.515344
0.53936
0.54816
0.554054
0.556881
0.558146
0.558907
0.559496
0.559986
0.560399
0.560752
0.56106
0.561344
0.561621
0.561913
0.562196
0.562496
0.562824
0.563176
0.563546
0.563796
0.562718
0.555962
0.542006
0.52891
0.494788
0.526908
0.515622
0.491504
0.500932
0.523807
0.544618
0.552687
0.55712
0.559325
0.560311
0.56088
0.561312
0.56166
0.561941
0.562169
0.562361
0.562542
0.562722
0.562906
0.563118
0.563405
0.563843
0.564488
0.565395
0.566497
0.567061
0.563837
0.553462
0.542636
0.494826
0.513931
0.51373
0.491513
0.521235
0.537496
0.551312
0.557036
0.55999
0.561515
0.562204
0.562572
0.562823
0.563001
0.563114
0.563174
0.563191
0.563187
0.56313
0.563024
0.563022
0.563158
0.563501
0.564178
0.565295
0.567071
0.568789
0.568904
0.564846
0.553842
0.511778
0.510641
0.514577
0.517053
0.543432
0.54834
0.555901
0.560128
0.562311
0.56337
0.563792
0.563955
0.564016
0.564009
0.563939
0.563807
0.563615
0.563367
0.563022
0.562691
0.562332
0.562015
0.561923
0.562361
0.563695
0.565994
0.568527
0.570278
0.570307
0.565576
0.544034
0.516863
0.527835
0.542269
0.551179
0.554375
0.559318
0.56265
0.564306
0.564958
0.565098
0.565044
0.564917
0.564735
0.564496
0.564195
0.563817
0.563336
0.562715
0.561906
0.560787
0.559471
0.558031
0.557042
0.557925
0.561365
0.566301
0.569896
0.570352
0.570331
0.563126
0.531288
0.536369
0.532626
0.550293
0.557918
0.562505
0.565036
0.566066
0.566267
0.566118
0.56586
0.565573
0.565265
0.564924
0.564533
0.564058
0.563434
0.562588
0.561201
0.55901
0.555786
0.550792
0.544925
0.5421
0.54609
0.557244
0.567099
0.570368
0.570355
0.569256
0.548122
0.526193
0.518285
0.551604
0.561766
0.565733
0.567182
0.567457
0.567226
0.566832
0.566429
0.566055
0.565702
0.565354
0.56499
0.564565
0.563985
0.563134
0.561721
0.559162
0.553676
0.543014
0.528516
0.514905
0.512907
0.528694
0.553237
0.569475
0.570401
0.570316
0.56131
0.516979
0.51828
0.556507
0.566223
0.568501
0.568683
0.568327
0.567792
0.567263
0.566807
0.566423
0.566095
0.565822
0.565598
0.565395
0.56512
0.564635
0.563705
0.561643
0.556721
0.544835
0.521023
0.493773
0.485932
0.487369
0.505082
0.554198
0.570272
0.57039
0.567741
0.518386
0.529836
0.563208
0.569905
0.570113
0.569386
0.568689
0.568048
0.56749
0.567026
0.566651
0.566356
0.566159
0.56608
0.566124
0.566241
0.566351
0.566321
0.565728
0.563263
0.554867
0.52862
0.498755
0.483665
0.469
0.466327
0.497005
0.559728
0.570279
0.570364
0.522764
0.552663
0.569398
0.571913
0.570756
0.569594
0.568808
0.568146
0.567573
0.567076
0.566649
0.566315
0.566087
0.566009
0.566117
0.566482
0.567072
0.567772
0.568417
0.568391
0.565641
0.551409
0.516084
0.491624
0.470921
0.46634
0.466349
0.512712
0.562511
0.5703
0.533958
0.565296
0.57222
0.57226
0.570877
0.569676
0.568847
0.568155
0.567545
0.566977
0.56643
0.565917
0.565509
0.565313
0.565418
0.565846
0.566572
0.567503
0.568614
0.570016
0.570688
0.567225
0.550532
0.517056
0.482072
0.468496
0.466359
0.468189
0.52826
0.563755
0.548482
0.569449
0.572287
0.572252
0.570801
0.569659
0.568825
0.568099
0.567377
0.566584
0.565686
0.564725
0.563859
0.56332
0.563281
0.563782
0.564767
0.566108
0.56768
0.569469
0.571169
0.571896
0.568618
0.553886
0.519566
0.482054
0.471451
0.483628
0.483913
0.542493
0.558714
0.570459
0.572265
0.57188
0.570572
0.569575
0.568742
0.567915
0.566925
0.565638
0.564004
0.562141
0.560404
0.559256
0.558934
0.559487
0.560831
0.562801
0.565127
0.567663
0.570163
0.571949
0.571983
0.569948
0.557467
0.526768
0.493131
0.503322
0.484069
0.518968
0.563009
0.570429
0.57231
0.571322
0.570237
0.569437
0.5686
0.567546
0.566005
0.563758
0.56076
0.557335
0.554349
0.552522
0.551931
0.552441
0.55401
0.556668
0.560092
0.563847
0.567617
0.570667
0.572019
0.572012
0.570939
0.560375
0.537531
0.52729
0.491812
0.502719
0.565259
0.570376
0.572132
0.570768
0.569969
0.569343
0.568426
0.566878
0.564256
0.560235
0.554937
0.549574
0.546076
0.544337
0.544
0.544171
0.545078
0.547384
0.551446
0.556854
0.56255
0.567609
0.571113
0.572034
0.572027
0.570873
0.562934
0.549286
0.524811
0.508985
0.566713
0.570283
0.571121
0.570413
0.569964
0.569378
0.568113
0.565442
0.560592
0.553237
0.54491
0.539768
0.538926
0.539092
0.53967
0.539182
0.538168
0.537452
0.538893
0.544536
0.552716
0.561313
0.567802
0.57131
0.572046
0.572038
0.570418
0.563851
0.549017
0.521446
0.567732
0.57029
0.57071
0.570468
0.570197
0.569383
0.566994
0.561536
0.551358
0.53835
0.530034
0.530366
0.534849
0.539096
0.540517
0.53978
0.536162
0.530391
0.525464
0.524939
0.53391
0.547581
0.560555
0.568176
0.571415
0.572057
0.572053
0.570245
0.561777
0.53212
0.568572
0.570456
0.570827
0.570801
0.57053
0.568626
0.562907
0.549675
0.527908
0.515066
0.51481
0.521531
0.531845
0.539551
0.542525
0.541933
0.537085
0.526362
0.516248
0.50284
0.509829
0.521048
0.543713
0.560755
0.568922
0.571673
0.572071
0.572061
0.56795
0.547483
0.569395
0.570788
0.571156
0.571269
0.57003
0.564691
0.549626
0.518081
0.497999
0.498079
0.503655
0.515622
0.529094
0.540149
0.544771
0.545041
0.53967
0.526951
0.510314
0.49259
0.494383
0.496557
0.513292
0.541398
0.56204
0.570114
0.572082
0.572068
0.570838
0.560191
0.570222
0.571159
0.571358
0.57127
0.566589
0.551447
0.515528
0.484471
0.48466
0.49333
0.495774
0.512164
0.526965
0.540512
0.546459
0.547755
0.543162
0.529342
0.505582
0.492589
0.493465
0.485031
0.483355
0.505583
0.540957
0.564208
0.57199
0.572099
0.57204
0.566744
0.570938
0.571375
0.571343
0.568283
0.553534
0.516743
0.479757
0.479716
0.486495
0.49495
0.494844
0.507984
0.525908
0.540765
0.547542
0.549663
0.546463
0.53306
0.503549
0.492589
0.495083
0.48326
0.470072
0.471875
0.495606
0.542742
0.566854
0.572033
0.57208
0.570184
0.571388
0.571368
0.569372
0.556638
0.514507
0.477763
0.470403
0.482555
0.499346
0.502795
0.494873
0.499503
0.524733
0.541012
0.548349
0.550975
0.5491
0.537193
0.502872
0.494485
0.497973
0.486989
0.470062
0.457215
0.450097
0.489218
0.546909
0.569053
0.572029
0.572057
0.57137
0.56945
0.559827
0.526761
0.472833
0.455266
0.466286
0.49011
0.518465
0.527432
0.506131
0.499425
0.52476
0.541898
0.549453
0.552163
0.551461
0.542385
0.509502
0.503836
0.504143
0.491967
0.472825
0.453537
0.446669
0.44667
0.498514
0.550917
0.569432
0.572035
0.569218
0.561325
0.541068
0.487438
0.44479
0.430649
0.462639
0.503159
0.539048
0.550085
0.52124
0.50054
0.528129
0.545512
0.551744
0.553884
0.553988
0.549349
0.529822
0.519749
0.510007
0.495107
0.476286
0.453867
0.446669
0.446669
0.463206
0.51796
0.548383
0.569893
0.561903
0.545583
0.512594
0.462953
0.430318
0.430173
0.462832
0.523722
0.553563
0.550266
0.520779
0.513998
0.540893
0.552477
0.55564
0.556712
0.557033
0.55572
0.548852
0.539325
0.524562
0.499826
0.478607
0.457596
0.446669
0.448574
0.476806
0.518405
0.518485
0.556366
0.549053
0.52274
0.488852
0.442888
0.430239
0.430309
0.482608
0.546408
0.554935
0.538944
0.52761
0.54163
0.555598
0.559539
0.560189
0.560363
0.560519
0.560546
0.559156
0.554867
0.545495
0.522507
0.489092
0.463725
0.451208
0.466587
0.513937
0.527502
0.518434
0.542709
0.535149
0.484621
0.479031
0.431411
0.430332
0.44335
0.527499
0.558092
0.555085
0.538929
0.549564
0.560415
0.563721
0.563837
0.563387
0.563159
0.563149
0.563429
0.563655
0.562953
0.559981
0.549747
0.523849
0.488063
0.464991
0.488818
0.53524
0.535413
0.518482
0.531857
0.518738
0.462799
0.456937
0.431531
0.442128
0.500241
0.554985
0.560125
0.554831
0.551612
0.563537
0.565316
0.565331
0.564433
0.563576
0.563242
0.563256
0.563671
0.564501
0.56541
0.565645
0.563518
0.554381
0.530386
0.502646
0.502681
0.520136
0.539945
0.524325
0.518832
0.493589
0.457838
0.450452
0.447316
0.49146
0.548296
0.562892
0.561792
0.559692
0.564173
0.565333
0.565342
0.564814
0.562775
0.561639
0.561114
0.561159
0.561806
0.563047
0.564654
0.566074
0.566238
0.565595
0.558433
0.541347
0.523734
0.520023
0.53994
0.536864
0.517416
0.479687
0.464957
0.462486
0.493393
0.543184
0.563228
0.565436
0.564368
0.565146
0.565337
0.565328
0.564112
0.5598
0.55653
0.554474
0.553304
0.553283
0.55442
0.556792
0.560226
0.564001
0.566217
0.566274
0.566206
0.561294
0.546572
0.52355
0.539948
0.542673
0.51774
0.485531
0.489357
0.499501
0.540767
0.56241
0.566914
0.566664
0.566211
0.565876
0.564885
0.561429
0.554112
0.546502
0.54148
0.537866
0.535472
0.534944
0.536122
0.539801
0.546231
0.555283
0.562996
0.566231
0.566298
0.566241
0.561398
0.543542
0.541534
0.544615
0.517699
0.502871
0.519797
0.539993
0.560733
0.567126
0.567699
0.566981
0.56562
0.562909
0.556743
0.545008
0.532391
0.524937
0.520551
0.51814
0.515382
0.513788
0.513229
0.51533
0.52012
0.532166
0.550222
0.562253
0.566252
0.566306
0.566257
0.560581
0.55121
0.547927
0.517747
0.514521
0.541625
0.558972
0.566541
0.568156
0.567714
0.565878
0.561719
0.552533
0.53525
0.518123
0.510012
0.508246
0.508613
0.50963
0.50798
0.505729
0.503501
0.501969
0.500047
0.503758
0.521118
0.548011
0.562729
0.566278
0.56631
0.566046
0.561476
0.55379
0.519667
0.520561
0.554886
0.565873
0.568173
0.568171
0.566648
0.561609
0.550078
0.527984
0.506979
0.500941
0.503081
0.50562
0.508422
0.507406
0.507176
0.50579
0.503683
0.500359
0.497804
0.494637
0.493257
0.517896
0.549739
0.564147
0.566299
0.566311
0.566088
0.560314
0.530755
0.533918
0.562774
0.568176
0.568182
0.567824
0.562811
0.549663
0.523512
0.499634
0.493199
0.498571
0.503452
0.506143
0.508626
0.506894
0.506877
0.506193
0.504608
0.500791
0.497855
0.491823
0.486418
0.488908
0.520289
0.553806
0.565694
0.566308
0.566303
0.564233
0.545723
0.549459
0.566524
0.568179
0.568195
0.565075
0.551889
0.520641
0.491752
0.484686
0.491198
0.499068
0.505142
0.507797
0.509652
0.508263
0.50766
0.50727
0.505706
0.502636
0.498608
0.491416
0.483313
0.475488
0.482704
0.528578
0.558831
0.56627
0.566308
0.565967
0.555627
0.559149
0.568105
0.568219
0.567747
0.556631
0.524608
0.482295
0.474656
0.479442
0.491777
0.501196
0.507792
0.510469
0.511708
0.511233
0.509607
0.508539
0.506934
0.504248
0.500253
0.492271
0.480747
0.467479
0.460684
0.490702
0.542903
0.563374
0.566293
0.566287
0.561337
0.564707
0.568181
0.568147
0.561731
0.53752
0.487154
0.470419
0.47043
0.480591
0.49377
0.504533
0.510422
0.513373
0.514138
0.513923
0.511715
0.509717
0.508062
0.505913
0.501797
0.493918
0.481646
0.465328
0.45682
0.470528
0.522016
0.551941
0.566182
0.566287
0.564759
0.567863
0.56813
0.565554
0.547255
0.513147
0.471769
0.470421
0.47309
0.485508
0.496905
0.508832
0.512873
0.515883
0.516556
0.516252
0.513789
0.510907
0.508781
0.507718
0.503822
0.495774
0.483541
0.466493
0.45682
0.469103
0.497588
0.537355
0.557322
0.566231
0.566278
0.567869
0.566543
0.553147
0.530908
0.496078
0.470422
0.470406
0.485093
0.496079
0.500661
0.511164
0.514986
0.517731
0.518616
0.518257
0.515839
0.512282
0.509153
0.508458
0.504992
0.496673
0.481784
0.468344
0.458019
0.459839
0.486049
0.529139
0.543611
0.560467
0.566244
0.567109
0.552562
0.53849
0.512717
0.487155
0.470419
0.471913
0.506529
0.515613
0.504381
0.511512
0.516079
0.518857
0.519869
0.519643
0.517648
0.513894
0.509756
0.508737
0.504714
0.49448
0.478204
0.4765
0.46715
0.458028
0.478777
0.513691
0.538692
0.5473
0.562518
0.548931
0.518392
0.520296
0.494133
0.476352
0.47043
0.4861
0.528394
0.528397
0.509603
0.51277
0.516968
0.519707
0.520503
0.520439
0.51909
0.515833
0.511772
0.51052
0.50633
0.491183
0.479287
0.500119
0.486328
0.458028
0.466768
0.495576
0.527322
0.526454
0.543306
0.489772
0.461824
0.487911
0.48029
0.476267
0.482367
0.51991
0.53506
0.524131
0.517306
0.516698
0.519261
0.521198
0.521277
0.521163
0.520457
0.518425
0.516321
0.515638
0.512688
0.4965
0.490539
0.521145
0.51284
0.469654
0.466713
0.480722
0.499497
0.478084
0.469055
0.450045
0.45
0.454765
0.470803
0.487966
0.51866
0.539239
0.535102
0.524118
0.526485
0.523442
0.523438
0.523682
0.522552
0.522129
0.521823
0.521286
0.521361
0.521432
0.521048
0.511643
0.511151
0.521307
0.528373
0.503006
0.474384
0.467224
0.459013
0.440001
0.43998
0.450049
0.450063
0.455359
0.486517
0.522136
0.541031
0.539522
0.531473
0.52607
0.527514
0.527519
0.525578
0.525042
0.523271
0.522652
0.522101
0.521959
0.521918
0.521916
0.521917
0.519973
0.521501
0.521305
0.528574
0.529564
0.503266
0.472785
0.444664
0.43998
0.439979
0.450089
0.459204
0.488203
0.524809
0.542318
0.541504
0.536002
0.527538
0.527516
0.527525
0.527506
0.521409
0.521968
0.520849
0.520611
0.519296
0.517969
0.516656
0.515315
0.51691
0.509545
0.521731
0.521753
0.526761
0.531646
0.530805
0.503604
0.465062
0.444056
0.43998
0.458939
0.50136
0.532168
0.543158
0.542726
0.538452
0.530681
0.528148
0.527131
0.514156
0.50891
0.504304
0.508987
0.511159
0.511994
0.509815
0.505653
0.497099
0.487827
0.482811
0.477041
0.508096
0.524266
0.52584
0.531634
0.534764
0.532725
0.511418
0.480072
0.442796
0.502155
0.539163
0.543372
0.543382
0.540339
0.533568
0.52838
0.525224
0.507553
0.478424
0.475897
0.483451
0.493131
0.498144
0.499556
0.497837
0.492713
0.479932
0.46458
0.459759
0.459661
0.474929
0.515943
0.526192
0.529644
0.534757
0.53733
0.537345
0.526689
0.483392
0.538744
0.543379
0.543387
0.542142
0.535668
0.527174
0.518613
0.502858
0.474936
0.469364
0.469372
0.476237
0.488029
0.493348
0.494661
0.49385
0.48986
0.477939
0.461764
0.459671
0.459671
0.459662
0.485438
0.51491
0.524474
0.531941
0.537279
0.539459
0.539461
0.530583
0.543382
0.543383
0.542916
0.536311
0.525162
0.509533
0.490738
0.472985
0.469364
0.469371
0.469384
0.480617
0.492012
0.497091
0.498451
0.498025
0.494759
0.48495
0.469882
0.46052
0.459671
0.459688
0.460584
0.484407
0.505754
0.521435
0.53125
0.537289
0.539463
0.539468
0.543371
0.536588
0.530492
0.515934
0.502006
0.483104
0.469584
0.469375
0.469376
0.471867
0.481702
0.496248
0.50542
0.509676
0.511135
0.511099
0.508842
0.502701
0.491302
0.475421
0.464389
0.459685
0.459705
0.462486
0.479566
0.499283
0.5103
0.519106
0.518073
0.539446
0.527627
0.47535
0.48889
0.482748
0.476538
0.469523
0.469386
0.469383
0.475846
0.488507
0.504681
0.515882
0.52176
0.524896
0.526257
0.526308
0.524767
0.521304
0.514532
0.501448
0.48451
0.469779
0.462474
0.46256
0.468602
0.476718
0.479111
0.473844
0.462601
0.488691
0.459771
0.44895
0.449211
0.454527
0.466263
0.470263
0.472452
0.479596
0.494629
0.510933
0.523018
0.529266
0.532842
0.534971
0.535964
0.535967
0.53492
0.532777
0.52895
0.521805
0.509007
0.492265
0.477778
0.471481
0.472371
0.471183
0.457571
0.455646
0.455646
0.455648
0.448959
0.448955
0.448958