/*--------------------------------*- C++ -*----------------------------------*\
| =========                 |                                                 |
| \\      /  F ield         | OpenFOAM: The Open Source CFD Toolbox           |
|  \\    /   O peration     | Version:  v1606+                                |
|   \\  /    A nd           | Web:      www.OpenFOAM.com                      |
|    \\/     M anipulation  |                                                 |
\*---------------------------------------------------------------------------*/
FoamFile
{
    version     2.0;
    format      ascii;
    class       volVectorField;
    location    "0.5";
    object      U.particles;
}
// * * * * * * * * * * * * * * * * * * * * * * * * * * * * * * * * * * * * * //

dimensions      [0 1 -1 0 0 0 0];

internalField   nonuniform List<vector> 
6000
(
(-0.0121298 -0.480568 0)
(-0.00456228 -0.545912 0)
(0.00432459 -0.522009 0)
(0.0194861 -0.513266 0)
(0.0335811 -0.520351 0)
(0.0457752 -0.522067 0)
(0.054813 -0.516821 0)
(0.0619249 -0.514195 0)
(0.065192 -0.519827 0)
(0.064372 -0.533275 0)
(0.0601457 -0.546326 0)
(0.0522233 -0.552458 0)
(0.0394302 -0.553357 0)
(0.0230811 -0.551933 0)
(0.00616447 -0.551963 0)
(-0.0107151 -0.551232 0)
(-0.0281535 -0.550796 0)
(-0.043883 -0.552662 0)
(-0.0556007 -0.55322 0)
(-0.0630403 -0.546446 0)
(-0.066788 -0.532345 0)
(-0.0666516 -0.519026 0)
(-0.0626726 -0.513028 0)
(-0.0548239 -0.516941 0)
(-0.0455177 -0.523213 0)
(-0.0335376 -0.519204 0)
(-0.019018 -0.510113 0)
(-0.00361996 -0.520542 0)
(0.00504066 -0.546693 0)
(0.0129626 -0.484466 0)
(0.0302542 -0.0397293 0)
(0.0127535 0.0198935 0)
(0.00570984 0.0059873 0)
(0.00866793 -0.0195522 0)
(0.0190401 -0.0360129 0)
(0.0336178 -0.0448371 0)
(0.053919 -0.0483078 0)
(0.0740864 -0.0432665 0)
(0.0922545 -0.033336 0)
(0.09992 -0.0210884 0)
(0.0961737 -0.0120873 0)
(0.084872 -0.0107441 0)
(0.0627214 -0.0158821 0)
(0.0374366 -0.0237403 0)
(0.0105592 -0.0255831 0)
(-0.0168117 -0.0272303 0)
(-0.0431838 -0.025136 0)
(-0.0675839 -0.0141753 0)
(-0.0889139 -0.00947294 0)
(-0.0996478 -0.0122283 0)
(-0.102257 -0.0228267 0)
(-0.0936188 -0.0354185 0)
(-0.075025 -0.045481 0)
(-0.0540284 -0.0492192 0)
(-0.0336316 -0.045309 0)
(-0.0191386 -0.036712 0)
(-0.00845702 -0.0207159 0)
(-0.0049389 0.00559496 0)
(-0.0118792 0.0210304 0)
(-0.0294538 -0.0433446 0)
(-0.00720496 -0.16174 0)
(-0.0023895 -0.130537 0)
(-0.00337054 -0.132619 0)
(-0.00119826 -0.141136 0)
(0.0116362 -0.148383 0)
(0.0323189 -0.150672 0)
(0.0586275 -0.1469 0)
(0.0834381 -0.140481 0)
(0.104324 -0.126515 0)
(0.114178 -0.107346 0)
(0.111285 -0.0892403 0)
(0.0961119 -0.0721824 0)
(0.0720243 -0.0595725 0)
(0.043878 -0.0542036 0)
(0.0128789 -0.053297 0)
(-0.0197126 -0.0539353 0)
(-0.0498111 -0.05602 0)
(-0.0771178 -0.0624573 0)
(-0.100198 -0.0742306 0)
(-0.113719 -0.091471 0)
(-0.11553 -0.109351 0)
(-0.104933 -0.128186 0)
(-0.0835931 -0.142802 0)
(-0.0581746 -0.149125 0)
(-0.0313948 -0.151895 0)
(-0.0104221 -0.149173 0)
(0.00231794 -0.141765 0)
(0.00453527 -0.133074 0)
(0.0039895 -0.130156 0)
(0.00788509 -0.160643 0)
(-0.00296883 -0.124009 0)
(-0.00270375 -0.115387 0)
(-0.00619144 -0.111318 0)
(-0.00159891 -0.102373 0)
(0.0114255 -0.104893 0)
(0.0354906 -0.109673 0)
(0.0643164 -0.108086 0)
(0.0928244 -0.0966914 0)
(0.117609 -0.0756171 0)
(0.132425 -0.0501318 0)
(0.125747 -0.0331315 0)
(0.103472 -0.0299095 0)
(0.0739806 -0.0285431 0)
(0.0442086 -0.0259353 0)
(0.0128017 -0.0231998 0)
(-0.0199594 -0.0235505 0)
(-0.0503234 -0.0273273 0)
(-0.079307 -0.0307905 0)
(-0.107732 -0.0319391 0)
(-0.127485 -0.0356492 0)
(-0.132263 -0.053205 0)
(-0.116328 -0.078663 0)
(-0.0909492 -0.0995821 0)
(-0.0624229 -0.110565 0)
(-0.0337014 -0.111691 0)
(-0.00919719 -0.106789 0)
(0.004138 -0.103509 0)
(0.00800191 -0.111529 0)
(0.00368599 -0.115303 0)
(0.00309872 -0.124631 0)
(-0.00742035 -0.102099 0)
(-0.00333729 -0.0885725 0)
(-0.000527913 -0.0713673 0)
(-0.00363706 -0.0798315 0)
(0.0171744 -0.08671 0)
(0.0373107 -0.0895856 0)
(0.0588885 -0.0855424 0)
(0.0834539 -0.0717652 0)
(0.108951 -0.0475413 0)
(0.129877 -0.0149208 0)
(0.13936 0.018837 0)
(0.117794 0.0376037 0)
(0.0801512 0.0413209 0)
(0.0434338 0.0403921 0)
(0.0116697 0.0407566 0)
(-0.0187946 0.0402757 0)
(-0.049844 0.0387743 0)
(-0.0855965 0.0390324 0)
(-0.121324 0.0346845 0)
(-0.14034 0.0145933 0)
(-0.128535 -0.0189617 0)
(-0.107055 -0.0510582 0)
(-0.0810434 -0.0746364 0)
(-0.0565514 -0.0877514 0)
(-0.0351957 -0.0916401 0)
(-0.0153585 -0.0890224 0)
(0.00541908 -0.08284 0)
(0.00300673 -0.0743632 0)
(0.00497953 -0.0889793 0)
(0.00816118 -0.102789 0)
(-0.00176614 -0.0447061 0)
(-0.00445617 -0.0270159 0)
(-0.0035945 -0.0265311 0)
(0.00249924 -0.0274546 0)
(0.0135619 -0.0315558 0)
(0.0262149 -0.0358315 0)
(0.0426557 -0.0349677 0)
(0.0636606 -0.025153 0)
(0.0906732 -0.00319793 0)
(0.113639 0.0306849 0)
(0.138044 0.0667594 0)
(0.127403 0.107385 0)
(0.0871495 0.118788 0)
(0.0444971 0.115261 0)
(0.0108643 0.11038 0)
(-0.0185404 0.109983 0)
(-0.0517689 0.113711 0)
(-0.0929749 0.116119 0)
(-0.130964 0.103888 0)
(-0.137518 0.0613536 0)
(-0.112378 0.0256245 0)
(-0.0887916 -0.00748864 0)
(-0.0617059 -0.0284108 0)
(-0.0408601 -0.0372939 0)
(-0.0245918 -0.0378013 0)
(-0.0124405 -0.033564 0)
(-0.00225157 -0.0298539 0)
(0.00447173 -0.0301009 0)
(0.00631381 -0.0301228 0)
(0.00294449 -0.046306 0)
(0.0303665 0.0361702 0)
(0.00665403 0.0270382 0)
(-0.00705863 -0.0010043 0)
(-0.0132539 0.0117895 0)
(-0.0176624 0.0159616 0)
(-0.00161905 0.0108217 0)
(0.0172815 0.00756166 0)
(0.0383998 0.0153002 0)
(0.064534 0.036762 0)
(0.0930622 0.0725795 0)
(0.122104 0.121481 0)
(0.125099 0.184031 0)
(0.0845436 0.208468 0)
(0.0417011 0.203699 0)
(0.00930305 0.19482 0)
(-0.0176422 0.194533 0)
(-0.0502532 0.202225 0)
(-0.0924872 0.2048 0)
(-0.129901 0.17404 0)
(-0.120759 0.113566 0)
(-0.0915501 0.0665688 0)
(-0.0625996 0.0322038 0)
(-0.0367791 0.0120934 0)
(-0.0158992 0.00536501 0)
(0.00284694 0.00929092 0)
(0.0190859 0.0144875 0)
(0.0153562 0.0102208 0)
(0.00857196 -0.00164468 0)
(-0.00707273 0.0288189 0)
(-0.0276803 0.0311311 0)
(0.0334716 0.0617175 0)
(0.0043243 0.00445114 0)
(-0.00270464 0.0198847 0)
(-0.00982545 0.0317501 0)
(-0.0196421 0.0398373 0)
(-0.0308123 0.0457589 0)
(-0.0182349 0.0428353 0)
(0.00708817 0.0453653 0)
(0.035344 0.0665458 0)
(0.0699976 0.10711 0)
(0.105094 0.163153 0)
(0.127468 0.238527 0)
(0.0842747 0.307035 0)
(0.0354685 0.306836 0)
(0.006423 0.294326 0)
(-0.0153086 0.294293 0)
(-0.0452933 0.305444 0)
(-0.0970605 0.298548 0)
(-0.133014 0.221783 0)
(-0.104372 0.15014 0)
(-0.0683241 0.0973624 0)
(-0.0332384 0.0600973 0)
(-0.00502469 0.0412505 0)
(0.0213037 0.0400256 0)
(0.0348595 0.041728 0)
(0.0249881 0.0363851 0)
(0.0151768 0.0300407 0)
(0.00701921 0.019269 0)
(-0.00203323 0.00427345 0)
(-0.0386538 0.0799228 0)
(0.00213283 0.0017936 0)
(-0.00915868 0.0174141 0)
(-0.0143989 0.0306778 0)
(-0.0194617 0.0419912 0)
(-0.0252107 0.0506537 0)
(-0.0319954 0.0570802 0)
(-0.0411271 0.0616734 0)
(-0.0297857 0.0595938 0)
(0.00705512 0.0749377 0)
(0.0518699 0.114721 0)
(0.091282 0.179201 0)
(0.114243 0.26977 0)
(0.0849525 0.375737 0)
(0.0265625 0.412263 0)
(0.00132651 0.400189 0)
(-0.00969642 0.40033 0)
(-0.0397299 0.408639 0)
(-0.0974767 0.357437 0)
(-0.119974 0.247682 0)
(-0.0919405 0.160494 0)
(-0.0493796 0.100806 0)
(-0.00395031 0.0652967 0)
(0.0340122 0.0536949 0)
(0.0454818 0.0554444 0)
(0.0370706 0.0520778 0)
(0.0301143 0.047166 0)
(0.023748 0.0401202 0)
(0.0179228 0.0301338 0)
(0.0114027 0.0178764 0)
(-0.00201095 0.00156663 0)
(-0.00184586 0.00658133 0)
(-0.0132454 0.0257251 0)
(-0.0241644 0.0409351 0)
(-0.0337802 0.0522616 0)
(-0.0416447 0.0596855 0)
(-0.0476958 0.0638511 0)
(-0.0534586 0.0657687 0)
(-0.0561578 0.062529 0)
(-0.0233304 0.0639114 0)
(0.0220563 0.110945 0)
(0.0467723 0.188203 0)
(0.0575903 0.283842 0)
(0.0498826 0.391496 0)
(0.0133537 0.47711 0)
(-0.00655392 0.480502 0)
(-0.000246619 0.480497 0)
(-0.0291362 0.46567 0)
(-0.0592212 0.367808 0)
(-0.0631853 0.261579 0)
(-0.051835 0.163724 0)
(-0.0205105 0.0916722 0)
(0.0283669 0.0512248 0)
(0.0602307 0.0551906 0)
(0.057503 0.0587758 0)
(0.0515468 0.0587113 0)
(0.0452921 0.056176 0)
(0.0366859 0.0503802 0)
(0.0262111 0.0403649 0)
(0.0144801 0.0259048 0)
(0.00214818 0.00652633 0)
(-0.00552236 0.0137557 0)
(-0.0217884 0.0351289 0)
(-0.0372666 0.0512797 0)
(-0.0505336 0.0618511 0)
(-0.0609866 0.0665814 0)
(-0.0676092 0.0675214 0)
(-0.0721414 0.0652865 0)
(-0.0742683 0.0589248 0)
(-0.0546647 0.0562704 0)
(-0.0241884 0.104867 0)
(-0.0107376 0.177678 0)
(-0.0130517 0.289978 0)
(-0.0179405 0.404746 0)
(-0.0209492 0.4899 0)
(-0.0119048 0.506763 0)
(0.00705231 0.505901 0)
(0.0139401 0.478168 0)
(0.0101733 0.380101 0)
(0.00716853 0.26442 0)
(0.00705964 0.157646 0)
(0.0235849 0.0830269 0)
(0.0591623 0.0401601 0)
(0.0774419 0.0497439 0)
(0.0747984 0.0582582 0)
(0.0701249 0.0624244 0)
(0.0630278 0.0631457 0)
(0.052023 0.0598826 0)
(0.0380765 0.0506314 0)
(0.0221058 0.0352126 0)
(0.00556149 0.013793 0)
(-0.00901656 0.0176709 0)
(-0.0310506 0.0429528 0)
(-0.0517944 0.0604326 0)
(-0.06789 0.0706108 0)
(-0.0799168 0.072264 0)
(-0.0875859 0.0691212 0)
(-0.0913271 0.0631397 0)
(-0.0920918 0.0540803 0)
(-0.0820995 0.0535592 0)
(-0.0637598 0.0955542 0)
(-0.0604552 0.155639 0)
(-0.0797829 0.245499 0)
(-0.023534 0.347248 0)
(-0.0236505 0.457464 0)
(-0.0104254 0.471683 0)
(0.00538066 0.471189 0)
(0.017826 0.448206 0)
(0.0194936 0.317959 0)
(0.0716322 0.230096 0)
(0.0583984 0.144577 0)
(0.0643674 0.0764167 0)
(0.0835578 0.0375855 0)
(0.0936569 0.0433252 0)
(0.0925913 0.0557091 0)
(0.088621 0.0641803 0)
(0.0807483 0.0687819 0)
(0.0681245 0.0683787 0)
(0.0511953 0.0596823 0)
(0.0302454 0.0429911 0)
(0.00872795 0.0176514 0)
(-0.0119246 0.0217631 0)
(-0.0404341 0.0512502 0)
(-0.0695548 0.068505 0)
(-0.0867966 0.0794513 0)
(-0.0995413 0.0766279 0)
(-0.10746 0.0693463 0)
(-0.109537 0.0604749 0)
(-0.109037 0.0489615 0)
(-0.103597 0.0454024 0)
(-0.0912743 0.0663939 0)
(-0.0979403 0.0131996 0)
(-0.0480362 -0.212331 0)
(-0.00865585 -0.0158638 0)
(0.00969037 0.160298 0)
(-0.00340225 0.207492 0)
(-0.00393564 0.205668 0)
(-0.0197364 0.145863 0)
(0.0121826 -0.0511282 0)
(0.0437621 -0.223115 0)
(0.0910712 0.0723211 0)
(0.0912813 0.0555987 0)
(0.103495 0.0307765 0)
(0.109365 0.0365366 0)
(0.109728 0.0517053 0)
(0.107222 0.0645957 0)
(0.0997806 0.0731046 0)
(0.086086 0.0767396 0)
(0.0670386 0.067903 0)
(0.0381955 0.0511068 0)
(0.0110979 0.0215155 0)
(-0.0133593 0.0293498 0)
(-0.0296772 0.067363 0)
(-0.104148 0.081344 0)
(-0.120514 0.0876232 0)
(-0.126682 0.0750947 0)
(-0.129274 0.0674452 0)
(-0.126343 0.0576158 0)
(-0.123968 0.0398362 0)
(-0.121071 0.0238573 0)
(-0.0964175 0.00439649 0)
(-0.148954 -0.320709 0)
(-0.0707808 -0.289008 0)
(-0.0583195 -0.158628 0)
(0.022561 -0.0955743 0)
(0.0016476 -0.0769165 0)
(-0.0100704 -0.0782509 0)
(-0.0258315 -0.096947 0)
(0.0591208 -0.180086 0)
(0.0693273 -0.300907 0)
(0.137703 -0.314273 0)
(0.107592 0.0164842 0)
(0.120105 0.0142213 0)
(0.12349 0.0253191 0)
(0.125449 0.0456364 0)
(0.126389 0.063738 0)
(0.125749 0.0727124 0)
(0.11919 0.0832541 0)
(0.0995739 0.0828567 0)
(0.0262936 0.065327 0)
(0.0113196 0.027644 0)
(-0.0663814 0.0518525 0)
(-0.177199 0.0353177 0)
(-0.233126 0.0237711 0)
(-0.199392 0.0805288 0)
(-0.161715 0.0595203 0)
(-0.156698 0.0641221 0)
(-0.141328 0.053757 0)
(-0.132958 0.0221723 0)
(-0.124276 -0.0202635 0)
(-0.171497 -0.177348 0)
(-0.164857 -0.316961 0)
(-0.0815832 -0.278584 0)
(-0.0898153 -0.141239 0)
(-0.0130484 -0.0682875 0)
(0.000409744 -0.0802756 0)
(-0.00720561 -0.080027 0)
(0.0210664 -0.0690458 0)
(0.0850735 -0.177209 0)
(0.0842365 -0.289426 0)
(0.159139 -0.323885 0)
(0.13157 -0.0790495 0)
(0.124616 -0.0132776 0)
(0.132855 0.00570938 0)
(0.135618 0.036827 0)
(0.147162 0.0616251 0)
(0.157571 0.0632362 0)
(0.190713 0.078707 0)
(0.227815 0.0312743 0)
(0.150025 0.0527107 0)
(0.0561007 0.0471541 0)
(-0.112487 0.0444587 0)
(-0.219101 -0.0506899 0)
(-0.232576 -0.136971 0)
(-0.285364 -0.152958 0)
(-0.329733 -0.109979 0)
(-0.226465 0.0242032 0)
(-0.159367 0.0363253 0)
(-0.145929 -0.00875986 0)
(-0.154327 -0.131466 0)
(-0.202973 -0.32796 0)
(-0.151674 -0.310721 0)
(-0.0851532 -0.268169 0)
(-0.0944117 -0.127842 0)
(-0.0618774 0.0280197 0)
(-3.79714e-05 0.0393113 0)
(-6.67774e-05 0.0427815 0)
(0.0711618 0.0170679 0)
(0.0903727 -0.148498 0)
(0.091657 -0.279067 0)
(0.152207 -0.323143 0)
(0.199582 -0.306557 0)
(0.129569 -0.0489838 0)
(0.141489 -0.0209235 0)
(0.141653 0.00993635 0)
(0.193572 0.0404511 0)
(0.307195 -0.0868966 0)
(0.275832 -0.150279 0)
(0.226622 -0.132723 0)
(0.212417 -0.0482188 0)
(0.112975 0.0439408 0)
(-0.0770355 0.0530182 0)
(-0.149156 0.0319841 0)
(-0.144592 -0.0787681 0)
(-0.135871 -0.113541 0)
(-0.214001 -0.14792 0)
(-0.264824 -0.166573 0)
(-0.27931 -0.199694 0)
(-0.21872 -0.204492 0)
(-0.230429 -0.310277 0)
(-0.194875 -0.333987 0)
(-0.145008 -0.317008 0)
(-0.0855375 -0.261933 0)
(-0.096228 -0.120488 0)
(-0.10926 0.128985 0)
(-0.0099092 0.193324 0)
(0.0160615 0.190485 0)
(0.12324 0.117776 0)
(0.101408 -0.13649 0)
(0.0929934 -0.273893 0)
(0.147037 -0.329143 0)
(0.197028 -0.344243 0)
(0.21215 -0.277328 0)
(0.177193 -0.107258 0)
(0.253716 -0.160876 0)
(0.261389 -0.164767 0)
(0.197833 -0.154001 0)
(0.119836 -0.0888953 0)
(0.135517 -0.0637975 0)
(0.144474 0.03369 0)
(0.0817329 0.0444836 0)
(-0.0174209 0.115194 0)
(-0.0494883 0.150465 0)
(-0.00881021 0.135194 0)
(0.0327537 0.0889801 0)
(-0.0881182 -0.0462502 0)
(-0.100911 -0.123579 0)
(-0.157568 -0.159879 0)
(-0.190551 -0.242269 0)
(-0.191063 -0.292974 0)
(-0.172349 -0.32288 0)
(-0.146007 -0.309516 0)
(-0.122108 -0.254465 0)
(-0.112912 -0.150322 0)
(-0.150726 0.223774 0)
(-0.020347 0.279728 0)
(0.035303 0.277139 0)
(0.154196 0.200715 0)
(0.119224 -0.169421 0)
(0.130133 -0.267702 0)
(0.151343 -0.321402 0)
(0.176785 -0.334058 0)
(0.192828 -0.298174 0)
(0.184848 -0.233664 0)
(0.140934 -0.159537 0)
(0.0931588 -0.110147 0)
(0.0500633 -0.016026 0)
(-0.0531533 0.104322 0)
(0.00407362 0.140134 0)
(0.0492495 0.144174 0)
(0.0236242 0.104057 0)
(-0.000503431 0.157823 0)
(0.00634748 0.179087 0)
(0.053731 0.1872 0)
(0.161115 0.184948 0)
(0.158135 0.139827 0)
(0.127127 0.0329984 0)
(0.00743802 -0.100842 0)
(-0.0994031 -0.223327 0)
(-0.142255 -0.281364 0)
(-0.147034 -0.323908 0)
(-0.148282 -0.318983 0)
(-0.153198 -0.259875 0)
(-0.159767 -0.148797 0)
(-0.151909 0.142206 0)
(-0.027853 0.205298 0)
(0.038922 0.207129 0)
(0.16494 0.120547 0)
(0.164821 -0.165652 0)
(0.158543 -0.272365 0)
(0.152781 -0.33237 0)
(0.151508 -0.338132 0)
(0.14468 -0.288555 0)
(0.0968508 -0.223331 0)
(-0.0306818 -0.080623 0)
(-0.171574 0.0244539 0)
(-0.16198 0.138317 0)
(-0.164018 0.174724 0)
(-0.0530998 0.163727 0)
(-0.00490561 0.165548 0)
(0.00312923 0.14586 0)
(0.0154966 0.180387 0)
(0.0415267 0.174802 0)
(0.0971312 0.065495 0)
(0.18094 0.0953086 0)
(0.263102 0.0602859 0)
(0.26519 -0.121027 0)
(0.195942 -0.203884 0)
(0.00760808 -0.402474 0)
(-0.0986408 -0.331254 0)
(-0.123254 -0.342423 0)
(-0.134366 -0.357387 0)
(-0.146402 -0.39267 0)
(-0.0910341 -0.44842 0)
(-0.0699131 -0.24762 0)
(-0.0189244 -0.194286 0)
(0.0272191 -0.195718 0)
(0.0729075 -0.266731 0)
(0.102453 -0.454922 0)
(0.147434 -0.411745 0)
(0.136734 -0.374259 0)
(0.123937 -0.373255 0)
(0.0907061 -0.366909 0)
(-0.0247358 -0.494285 0)
(-0.181486 -0.265132 0)
(-0.253772 -0.190497 0)
(-0.258788 -0.0103732 0)
(-0.176436 0.0126554 0)
(-0.10152 -0.00185615 0)
(-0.045009 0.158615 0)
(-0.0165191 0.169814 0)
(0.0355901 0.137445 0)
(0.0846374 0.0635677 0)
(0.121189 -0.270583 0)
(0.153447 -0.356722 0)
(0.162496 -0.421637 0)
(0.0960142 -0.552543 0)
(0.0624057 -0.639759 0)
(0.0602094 -0.762139 0)
(0.042303 -0.830711 0)
(-0.0523932 -0.561733 0)
(-0.0801074 -0.51596 0)
(-0.0377312 -0.82827 0)
(-0.0311462 -0.721164 0)
(-0.0220386 -0.592068 0)
(-0.00885456 -0.552821 0)
(0.0108803 -0.555547 0)
(0.0220059 -0.603543 0)
(0.0304218 -0.736645 0)
(0.0380339 -0.839125 0)
(0.0822942 -0.532362 0)
(0.0292959 -0.672812 0)
(-0.05676 -0.851425 0)
(-0.065596 -0.776378 0)
(-0.056284 -0.666218 0)
(-0.0726279 -0.593237 0)
(-0.129566 -0.483502 0)
(-0.129107 -0.426 0)
(-0.117883 -0.33091 0)
(-0.0902403 0.0208083 0)
(-0.0380497 0.111701 0)
(0.0341357 -0.212402 0)
(0.075198 -0.379162 0)
(0.0428374 -0.506654 0)
(0.0230204 -0.552652 0)
(0.0202078 -0.592071 0)
(0.0262298 -0.646543 0)
(0.0496288 -0.703185 0)
(0.0946042 -0.760207 0)
(0.0961038 -0.873772 0)
(0.044348 -0.928017 0)
(-0.0235862 -0.90631 0)
(-0.035005 -0.861246 0)
(-0.0282283 -0.761381 0)
(-0.0150828 -0.683958 0)
(-0.00475532 -0.658883 0)
(0.00438117 -0.661099 0)
(0.0145838 -0.690413 0)
(0.0253284 -0.775177 0)
(0.0320551 -0.868835 0)
(0.0142363 -0.913082 0)
(-0.0550093 -0.932739 0)
(-0.107603 -0.872444 0)
(-0.0962627 -0.760384 0)
(-0.0513908 -0.711002 0)
(-0.0238826 -0.655944 0)
(-0.0143769 -0.60413 0)
(-0.012688 -0.568123 0)
(-0.0284694 -0.528271 0)
(-0.0641277 -0.429492 0)
(-0.0322623 -0.26299 0)
(0.000480661 -0.460248 0)
(-0.00918344 -0.523046 0)
(-0.015394 -0.546658 0)
(-0.00743066 -0.571201 0)
(0.00703579 -0.601389 0)
(0.0363097 -0.635709 0)
(0.0709881 -0.682919 0)
(0.100382 -0.736112 0)
(0.132162 -0.826212 0)
(0.101663 -0.910968 0)
(0.0252575 -0.905872 0)
(-0.00803558 -0.861719 0)
(-0.0176552 -0.77152 0)
(-0.0139618 -0.694862 0)
(-0.00458519 -0.673761 0)
(0.0034389 -0.6754 0)
(0.0123253 -0.700391 0)
(0.0127465 -0.782572 0)
(0.00233412 -0.865616 0)
(-0.0367784 -0.909526 0)
(-0.108224 -0.908555 0)
(-0.132683 -0.824075 0)
(-0.102863 -0.745195 0)
(-0.0733002 -0.691064 0)
(-0.0391555 -0.641768 0)
(-0.00719832 -0.605696 0)
(0.00914875 -0.574793 0)
(0.0194244 -0.549923 0)
(0.01577 -0.529229 0)
(0.00031442 -0.46295 0)
(-0.0225793 -0.452682 0)
(-0.0398759 -0.509839 0)
(-0.0227178 -0.514197 0)
(-0.00111315 -0.539593 0)
(0.0254118 -0.57627 0)
(0.051317 -0.627025 0)
(0.0807636 -0.673653 0)
(0.124436 -0.728931 0)
(0.146277 -0.808606 0)
(0.112037 -0.874638 0)
(0.0429417 -0.884434 0)
(0.00365649 -0.844963 0)
(-0.00461672 -0.76362 0)
(-0.00675971 -0.693372 0)
(-0.00297525 -0.672929 0)
(0.000949044 -0.674343 0)
(0.00381614 -0.69827 0)
(0.000238229 -0.771706 0)
(-0.00876994 -0.848701 0)
(-0.0532731 -0.886188 0)
(-0.116004 -0.873151 0)
(-0.153581 -0.810499 0)
(-0.126316 -0.733669 0)
(-0.0833479 -0.68236 0)
(-0.053011 -0.635484 0)
(-0.0271528 -0.584493 0)
(3.19894e-05 -0.543514 0)
(0.0218584 -0.51358 0)
(0.0433599 -0.505842 0)
(0.0267258 -0.440579 0)
(-0.00781365 -0.397556 0)
(-0.0266358 -0.470614 0)
(-0.0106701 -0.497562 0)
(0.00943286 -0.528292 0)
(0.0375912 -0.567285 0)
(0.0681012 -0.613171 0)
(0.107073 -0.665979 0)
(0.132369 -0.714825 0)
(0.159221 -0.77165 0)
(0.145413 -0.851386 0)
(0.0774722 -0.858472 0)
(0.0268933 -0.821723 0)
(0.0107164 -0.751879 0)
(0.000678248 -0.686771 0)
(-0.000732185 -0.666721 0)
(-0.00131984 -0.667991 0)
(-0.00347872 -0.691016 0)
(-0.014788 -0.75799 0)
(-0.0317353 -0.82439 0)
(-0.0870768 -0.859795 0)
(-0.148657 -0.847273 0)
(-0.15824 -0.775314 0)
(-0.135756 -0.72419 0)
(-0.108219 -0.671849 0)
(-0.0717607 -0.622006 0)
(-0.040536 -0.573462 0)
(-0.010357 -0.532636 0)
(0.0116552 -0.498 0)
(0.025564 -0.470096 0)
(0.00538647 -0.39304 0)
(-0.00468974 -0.370201 0)
(-0.0245451 -0.443708 0)
(-0.00152494 -0.469353 0)
(0.0254831 -0.509064 0)
(0.0548425 -0.554281 0)
(0.0848328 -0.599934 0)
(0.117198 -0.653317 0)
(0.14701 -0.692134 0)
(0.179985 -0.758821 0)
(0.151239 -0.826517 0)
(0.095277 -0.836508 0)
(0.0380613 -0.801303 0)
(0.0187663 -0.734353 0)
(0.0071493 -0.673408 0)
(0.00144458 -0.655734 0)
(-0.00341571 -0.656852 0)
(-0.00965411 -0.677302 0)
(-0.0228372 -0.740512 0)
(-0.0450422 -0.803758 0)
(-0.10705 -0.837929 0)
(-0.159418 -0.828688 0)
(-0.18096 -0.761121 0)
(-0.147556 -0.69873 0)
(-0.120897 -0.661772 0)
(-0.0860708 -0.606872 0)
(-0.0575281 -0.560961 0)
(-0.0273731 -0.513897 0)
(0.000108421 -0.469976 0)
(0.021492 -0.438223 0)
(0.00323413 -0.360472 0)
(0.0028004 -0.334348 0)
(-0.0123251 -0.412278 0)
(0.00838366 -0.451346 0)
(0.037445 -0.495786 0)
(0.0683521 -0.538927 0)
(0.0999803 -0.589127 0)
(0.13062 -0.633022 0)
(0.163289 -0.683553 0)
(0.177813 -0.729353 0)
(0.165017 -0.788497 0)
(0.107525 -0.803951 0)
(0.0498949 -0.770879 0)
(0.0275401 -0.712909 0)
(0.0123538 -0.657183 0)
(0.00345192 -0.640112 0)
(-0.00470148 -0.641117 0)
(-0.0140154 -0.660608 0)
(-0.0308892 -0.718508 0)
(-0.0556545 -0.773128 0)
(-0.115161 -0.805208 0)
(-0.166823 -0.786435 0)
(-0.179447 -0.734859 0)
(-0.165405 -0.689995 0)
(-0.131346 -0.639114 0)
(-0.103288 -0.595425 0)
(-0.0708654 -0.545516 0)
(-0.0398496 -0.501159 0)
(-0.00960986 -0.453565 0)
(0.0114088 -0.408202 0)
(-0.00341315 -0.326498 0)
(0.0043887 -0.301628 0)
(-0.00775607 -0.38355 0)
(0.0193496 -0.433554 0)
(0.0505781 -0.480486 0)
(0.082964 -0.525298 0)
(0.112086 -0.570969 0)
(0.146203 -0.619405 0)
(0.167926 -0.660632 0)
(0.194237 -0.705713 0)
(0.180399 -0.76509 0)
(0.128314 -0.775797 0)
(0.062114 -0.744146 0)
(0.0330573 -0.689764 0)
(0.0155858 -0.636714 0)
(0.00465036 -0.6215 0)
(-0.00573718 -0.622614 0)
(-0.0170605 -0.640424 0)
(-0.0367635 -0.696044 0)
(-0.0693119 -0.746922 0)
(-0.138086 -0.777756 0)
(-0.184073 -0.766061 0)
(-0.192759 -0.709342 0)
(-0.168907 -0.667875 0)
(-0.149069 -0.626053 0)
(-0.113796 -0.577789 0)
(-0.0854616 -0.530372 0)
(-0.0530191 -0.484558 0)
(-0.0214505 -0.435778 0)
(0.00725634 -0.380721 0)
(-0.00525361 -0.293072 0)
(0.00803804 -0.268141 0)
(-0.00137476 -0.361061 0)
(0.0296261 -0.418119 0)
(0.0632134 -0.465507 0)
(0.0956464 -0.510899 0)
(0.126888 -0.554055 0)
(0.156558 -0.598414 0)
(0.180206 -0.640445 0)
(0.195458 -0.681826 0)
(0.18421 -0.733807 0)
(0.137825 -0.745589 0)
(0.071298 -0.715557 0)
(0.0375688 -0.666344 0)
(0.0177652 -0.614562 0)
(0.00545307 -0.599433 0)
(-0.00663336 -0.600559 0)
(-0.0195417 -0.618209 0)
(-0.0410066 -0.672313 0)
(-0.0766079 -0.717068 0)
(-0.142586 -0.746208 0)
(-0.18534 -0.734247 0)
(-0.196269 -0.687685 0)
(-0.182375 -0.644899 0)
(-0.15784 -0.603785 0)
(-0.129257 -0.559266 0)
(-0.097978 -0.515716 0)
(-0.0656275 -0.468612 0)
(-0.032239 -0.419921 0)
(-0.00048062 -0.358731 0)
(-0.00962798 -0.259173 0)
(0.0156119 -0.234694 0)
(0.00748135 -0.338986 0)
(0.0414222 -0.401219 0)
(0.0759528 -0.45144 0)
(0.109082 -0.49208 0)
(0.13878 -0.53534 0)
(0.166552 -0.576907 0)
(0.188413 -0.615412 0)
(0.201906 -0.658845 0)
(0.19101 -0.701309 0)
(0.146457 -0.710491 0)
(0.077813 -0.681647 0)
(0.0401442 -0.639482 0)
(0.0190124 -0.590504 0)
(0.00579002 -0.576161 0)
(-0.00738389 -0.57728 0)
(-0.0215978 -0.594023 0)
(-0.0436315 -0.644303 0)
(-0.0823547 -0.682876 0)
(-0.151039 -0.711465 0)
(-0.192268 -0.702758 0)
(-0.202121 -0.662336 0)
(-0.189508 -0.622316 0)
(-0.16862 -0.582651 0)
(-0.140508 -0.540304 0)
(-0.111148 -0.496439 0)
(-0.0783008 -0.454687 0)
(-0.0437854 -0.401454 0)
(-0.0105447 -0.335632 0)
(-0.0170459 -0.225265 0)
(0.0204111 -0.201705 0)
(0.0173271 -0.317977 0)
(0.0520496 -0.387546 0)
(0.088028 -0.435291 0)
(0.121175 -0.47632 0)
(0.149372 -0.513962 0)
(0.176609 -0.553665 0)
(0.194261 -0.593191 0)
(0.205433 -0.629161 0)
(0.195163 -0.670153 0)
(0.153763 -0.67876 0)
(0.0832912 -0.648222 0)
(0.0422893 -0.609818 0)
(0.0203508 -0.56314 0)
(0.00609786 -0.549166 0)
(-0.0081053 -0.550107 0)
(-0.0237296 -0.565867 0)
(-0.0458908 -0.6123 0)
(-0.0879865 -0.650192 0)
(-0.158563 -0.679308 0)
(-0.197098 -0.67116 0)
(-0.206593 -0.633118 0)
(-0.195806 -0.597982 0)
(-0.178145 -0.559659 0)
(-0.151175 -0.519427 0)
(-0.122926 -0.480167 0)
(-0.090147 -0.437886 0)
(-0.0541342 -0.388973 0)
(-0.0191955 -0.316059 0)
(-0.0207874 -0.193632 0)
(0.0272552 -0.168149 0)
(0.0290507 -0.297052 0)
(0.064648 -0.372202 0)
(0.100762 -0.420598 0)
(0.133276 -0.455703 0)
(0.161429 -0.490933 0)
(0.184325 -0.528919 0)
(0.199726 -0.563416 0)
(0.20858 -0.600219 0)
(0.197807 -0.636147 0)
(0.158552 -0.641832 0)
(0.0866851 -0.612947 0)
(0.042605 -0.577285 0)
(0.0205098 -0.534678 0)
(0.00603571 -0.521256 0)
(-0.00774272 -0.521975 0)
(-0.0235253 -0.53655 0)
(-0.0458228 -0.577206 0)
(-0.0912349 -0.615007 0)
(-0.163 -0.642265 0)
(-0.19951 -0.637888 0)
(-0.209913 -0.605066 0)
(-0.201951 -0.568728 0)
(-0.185894 -0.533287 0)
(-0.162436 -0.495692 0)
(-0.134829 -0.459671 0)
(-0.102458 -0.423467 0)
(-0.0670333 -0.373188 0)
(-0.0315701 -0.294772 0)
(-0.0287496 -0.160174 0)
(0.0372324 -0.13962 0)
(0.0414888 -0.283118 0)
(0.0785503 -0.361016 0)
(0.114347 -0.404429 0)
(0.145978 -0.435802 0)
(0.170556 -0.466516 0)
(0.191404 -0.499662 0)
(0.20428 -0.536932 0)
(0.209236 -0.572277 0)
(0.197871 -0.601945 0)
(0.161409 -0.603949 0)
(0.0895063 -0.577382 0)
(0.0429304 -0.540399 0)
(0.020492 -0.502283 0)
(0.00618668 -0.489448 0)
(-0.00633205 -0.48994 0)
(-0.0213533 -0.503611 0)
(-0.0453197 -0.54013 0)
(-0.0943652 -0.578813 0)
(-0.166339 -0.605015 0)
(-0.200769 -0.603614 0)
(-0.211314 -0.575648 0)
(-0.205725 -0.542667 0)
(-0.19229 -0.50617 0)
(-0.171449 -0.470697 0)
(-0.146554 -0.438779 0)
(-0.115154 -0.406513 0)
(-0.0796002 -0.362012 0)
(-0.0437859 -0.28243 0)
(-0.0387259 -0.133246 0)
(0.0488684 -0.121893 0)
(0.0598364 -0.268571 0)
(0.0933161 -0.345587 0)
(0.126626 -0.385243 0)
(0.155838 -0.411297 0)
(0.179431 -0.43714 0)
(0.195914 -0.471317 0)
(0.205179 -0.505248 0)
(0.208486 -0.537793 0)
(0.197695 -0.564414 0)
(0.161851 -0.565075 0)
(0.0903081 -0.540093 0)
(0.0426881 -0.503591 0)
(0.0201504 -0.469507 0)
(0.00678377 -0.456626 0)
(-0.00383739 -0.456982 0)
(-0.01751 -0.470783 0)
(-0.0434662 -0.505847 0)
(-0.0954687 -0.540722 0)
(-0.167166 -0.566665 0)
(-0.200559 -0.56662 0)
(-0.210405 -0.542583 0)
(-0.206964 -0.511134 0)
(-0.19628 -0.476924 0)
(-0.178866 -0.442723 0)
(-0.156086 -0.414603 0)
(-0.126692 -0.387684 0)
(-0.0935785 -0.347185 0)
(-0.0605625 -0.269212 0)
(-0.0498791 -0.11916 0)
(0.0658426 -0.125509 0)
(0.0810893 -0.261195 0)
(0.109116 -0.332239 0)
(0.138998 -0.366199 0)
(0.166231 -0.386689 0)
(0.186549 -0.408226 0)
(0.19915 -0.438058 0)
(0.205506 -0.473079 0)
(0.20608 -0.505203 0)
(0.195212 -0.526766 0)
(0.15911 -0.524655 0)
(0.0885204 -0.498192 0)
(0.041794 -0.466377 0)
(0.0201168 -0.435192 0)
(0.00821499 -0.422045 0)
(-0.00116357 -0.421929 0)
(-0.0139633 -0.435339 0)
(-0.0398135 -0.467617 0)
(-0.0915171 -0.498131 0)
(-0.163812 -0.525542 0)
(-0.198395 -0.528648 0)
(-0.208331 -0.509048 0)
(-0.20692 -0.479066 0)
(-0.198699 -0.444785 0)
(-0.185272 -0.412796 0)
(-0.165253 -0.389432 0)
(-0.138189 -0.367766 0)
(-0.107968 -0.33308 0)
(-0.0798375 -0.262227 0)
(-0.066045 -0.12534 0)
(0.0775573 -0.153604 0)
(0.0955592 -0.259098 0)
(0.122476 -0.316476 0)
(0.148446 -0.343321 0)
(0.173126 -0.357437 0)
(0.190999 -0.373589 0)
(0.199522 -0.403659 0)
(0.203738 -0.438876 0)
(0.203657 -0.468849 0)
(0.19379 -0.486533 0)
(0.15925 -0.483004 0)
(0.0886504 -0.460194 0)
(0.0404141 -0.430176 0)
(0.0193148 -0.400637 0)
(0.00951693 -0.38728 0)
(0.00127379 -0.386819 0)
(-0.0101811 -0.399182 0)
(-0.0349874 -0.425795 0)
(-0.0874862 -0.459066 0)
(-0.16082 -0.483068 0)
(-0.195417 -0.488372 0)
(-0.204702 -0.473343 0)
(-0.204359 -0.445668 0)
(-0.198228 -0.411004 0)
(-0.188418 -0.379145 0)
(-0.171342 -0.359991 0)
(-0.146959 -0.344647 0)
(-0.120528 -0.316775 0)
(-0.094144 -0.258374 0)
(-0.0768804 -0.151964 0)
(0.0757158 -0.185336 0)
(0.0986825 -0.259877 0)
(0.130091 -0.301678 0)
(0.154178 -0.320175 0)
(0.177597 -0.32684 0)
(0.192624 -0.338651 0)
(0.198188 -0.36761 0)
(0.201898 -0.403312 0)
(0.20137 -0.431562 0)
(0.192571 -0.444855 0)
(0.158204 -0.440372 0)
(0.0869913 -0.416553 0)
(0.036886 -0.387108 0)
(0.0154994 -0.364091 0)
(0.00829139 -0.352024 0)
(0.00275065 -0.351711 0)
(-0.00500745 -0.363236 0)
(-0.0273594 -0.385684 0)
(-0.0802887 -0.412879 0)
(-0.15519 -0.438621 0)
(-0.192557 -0.445514 0)
(-0.201311 -0.435179 0)
(-0.201518 -0.409934 0)
(-0.196132 -0.375618 0)
(-0.189258 -0.344063 0)
(-0.174952 -0.329083 0)
(-0.152279 -0.320683 0)
(-0.127722 -0.301019 0)
(-0.0974344 -0.257618 0)
(-0.0753465 -0.17976 0)
(0.0587314 -0.218615 0)
(0.0953916 -0.26448 0)
(0.131038 -0.287018 0)
(0.155253 -0.29552 0)
(0.177525 -0.293904 0)
(0.191179 -0.302635 0)
(0.196186 -0.330427 0)
(0.201073 -0.36719 0)
(0.20082 -0.392976 0)
(0.192669 -0.402119 0)
(0.156857 -0.395616 0)
(0.0842714 -0.372407 0)
(0.0331231 -0.345623 0)
(0.0116884 -0.325928 0)
(0.00598541 -0.314423 0)
(0.00304154 -0.314432 0)
(-0.000850613 -0.324045 0)
(-0.0211985 -0.341834 0)
(-0.0738926 -0.368029 0)
(-0.149357 -0.392006 0)
(-0.190226 -0.401521 0)
(-0.198704 -0.395977 0)
(-0.198984 -0.373894 0)
(-0.193247 -0.33933 0)
(-0.187292 -0.307381 0)
(-0.174835 -0.295578 0)
(-0.15337 -0.295265 0)
(-0.128678 -0.285386 0)
(-0.0945463 -0.260239 0)
(-0.0594543 -0.209696 0)
(0.0438269 -0.246398 0)
(0.0864456 -0.272577 0)
(0.125132 -0.272089 0)
(0.150954 -0.269439 0)
(0.172615 -0.260388 0)
(0.188122 -0.266994 0)
(0.19573 -0.294728 0)
(0.202105 -0.331296 0)
(0.201642 -0.353615 0)
(0.193323 -0.357656 0)
(0.15313 -0.348617 0)
(0.081106 -0.326051 0)
(0.0309898 -0.301127 0)
(0.0115676 -0.282461 0)
(0.00704626 -0.274949 0)
(0.00361953 -0.274553 0)
(-0.000781475 -0.280713 0)
(-0.0190996 -0.297924 0)
(-0.0684899 -0.321038 0)
(-0.141701 -0.343275 0)
(-0.188554 -0.355495 0)
(-0.197308 -0.355541 0)
(-0.197981 -0.337509 0)
(-0.191743 -0.303976 0)
(-0.184111 -0.271705 0)
(-0.1704 -0.261656 0)
(-0.149463 -0.268954 0)
(-0.123423 -0.26997 0)
(-0.0860079 -0.26639 0)
(-0.0440128 -0.235446 0)
(0.045148 -0.260216 0)
(0.0788988 -0.275927 0)
(0.112383 -0.256371 0)
(0.140196 -0.242979 0)
(0.164419 -0.228053 0)
(0.186204 -0.233059 0)
(0.198676 -0.263398 0)
(0.205898 -0.297454 0)
(0.204987 -0.313887 0)
(0.195971 -0.313088 0)
(0.151704 -0.30108 0)
(0.0819626 -0.279099 0)
(0.0320205 -0.255086 0)
(0.0112126 -0.237071 0)
(0.00629444 -0.229828 0)
(0.00412642 -0.229553 0)
(-7.5517e-05 -0.235476 0)
(-0.0193013 -0.251552 0)
(-0.0683033 -0.273712 0)
(-0.13811 -0.294643 0)
(-0.188145 -0.309255 0)
(-0.199292 -0.313238 0)
(-0.199956 -0.302364 0)
(-0.193712 -0.272089 0)
(-0.18256 -0.237835 0)
(-0.162887 -0.228362 0)
(-0.139305 -0.241735 0)
(-0.11209 -0.253697 0)
(-0.0793629 -0.269713 0)
(-0.0454916 -0.249752 0)
(0.0455341 -0.263342 0)
(0.0646917 -0.263213 0)
(0.0977842 -0.236882 0)
(0.127594 -0.219979 0)
(0.157469 -0.204882 0)
(0.188154 -0.208766 0)
(0.205573 -0.238983 0)
(0.21243 -0.264562 0)
(0.211481 -0.272708 0)
(0.200124 -0.267575 0)