/*--------------------------------*- C++ -*----------------------------------*\
| =========                 |                                                 |
| \\      /  F ield         | OpenFOAM: The Open Source CFD Toolbox           |
|  \\    /   O peration     | Version:  v1606+                                |
|   \\  /    A nd           | Web:      www.OpenFOAM.com                      |
|    \\/     M anipulation  |                                                 |
\*---------------------------------------------------------------------------*/
FoamFile
{
    version     2.0;
    format      ascii;
    class       volVectorField;
    location    "0.5";
    object      U.particlesMean;
}
// * * * * * * * * * * * * * * * * * * * * * * * * * * * * * * * * * * * * * //

dimensions      [0 1 -1 0 0 0 0];

internalField   nonuniform List<vector> 
6000
(
(-0.00747939 -0.322671 0)
(-0.00533738 -0.360069 0)
(-0.00312798 -0.357906 0)
(-0.00171381 -0.359006 0)
(0.000771501 -0.359745 0)
(0.00338718 -0.359189 0)
(0.00706194 -0.360769 0)
(0.00973163 -0.364531 0)
(0.0113699 -0.370462 0)
(0.0112117 -0.376143 0)
(0.0102353 -0.379116 0)
(0.00888362 -0.380182 0)
(0.00675158 -0.382879 0)
(0.0043435 -0.384541 0)
(0.00133299 -0.385495 0)
(-0.00187233 -0.384815 0)
(-0.00455079 -0.3836 0)
(-0.00687181 -0.381879 0)
(-0.00860026 -0.38075 0)
(-0.010447 -0.379813 0)
(-0.0116571 -0.375539 0)
(-0.0116128 -0.369387 0)
(-0.00983149 -0.363334 0)
(-0.00681274 -0.359819 0)
(-0.00316817 -0.359696 0)
(-0.000627296 -0.358828 0)
(0.00198046 -0.35776 0)
(0.00370534 -0.356739 0)
(0.00637774 -0.358962 0)
(0.00822093 -0.324429 0)
(0.0129459 0.0277472 0)
(-0.000114353 0.0558188 0)
(-0.00212573 0.0521394 0)
(-0.0075051 0.0509819 0)
(-0.00587999 0.0466165 0)
(-0.00245123 0.0430675 0)
(0.00259845 0.0395894 0)
(0.00705078 0.0383243 0)
(0.0109618 0.0386112 0)
(0.0124618 0.0397605 0)
(0.0123539 0.0401066 0)
(0.010803 0.0393675 0)
(0.00823945 0.0394362 0)
(0.00497278 0.0385003 0)
(0.00154152 0.0381941 0)
(-0.00192248 0.0379613 0)
(-0.00529937 0.0385837 0)
(-0.00830492 0.0387192 0)
(-0.0108521 0.0397138 0)
(-0.0123256 0.0403665 0)
(-0.0123897 0.0393278 0)
(-0.0109371 0.0385273 0)
(-0.00726249 0.0380044 0)
(-0.00259071 0.0395416 0)
(0.00263514 0.0433812 0)
(0.00617041 0.0459458 0)
(0.00814036 0.050191 0)
(0.00313455 0.0518018 0)
(0.000901247 0.0557226 0)
(-0.0125317 0.0270924 0)
(-0.00573655 -0.0210694 0)
(-0.00587333 -0.0256495 0)
(-0.00467463 -0.0250238 0)
(-0.00945606 -0.0290558 0)
(-0.00539297 -0.0347798 0)
(-0.00115229 -0.0359157 0)
(0.00429376 -0.0348612 0)
(0.00847946 -0.0343621 0)
(0.0118471 -0.0318517 0)
(0.0127728 -0.0294223 0)
(0.0123652 -0.0290726 0)
(0.0104725 -0.0282212 0)
(0.00778044 -0.0271503 0)
(0.0048089 -0.0268391 0)
(0.00162499 -0.0262552 0)
(-0.00180335 -0.0265702 0)
(-0.00496124 -0.0269827 0)
(-0.00787266 -0.027849 0)
(-0.010716 -0.0282246 0)
(-0.0122555 -0.0286194 0)
(-0.0125469 -0.0293481 0)
(-0.011663 -0.0316143 0)
(-0.00849815 -0.0343202 0)
(-0.00422713 -0.0354893 0)
(0.00163363 -0.035975 0)
(0.00618061 -0.0350208 0)
(0.0102812 -0.0297712 0)
(0.0056474 -0.0258099 0)
(0.00653986 -0.0251603 0)
(0.00583199 -0.0200957 0)
(-0.00237663 -0.0103402 0)
(-0.00760214 -0.0227619 0)
(-0.0107556 -0.0210501 0)
(-0.0135751 -0.0254389 0)
(-0.00970449 -0.0323826 0)
(-0.00258637 -0.0363754 0)
(0.00664199 -0.0352925 0)
(0.0139111 -0.0311048 0)
(0.0179353 -0.0241868 0)
(0.0176206 -0.017208 0)
(0.0143733 -0.0135064 0)
(0.0101806 -0.0121639 0)
(0.0064008 -0.0119667 0)
(0.0035482 -0.0120589 0)
(0.00119002 -0.0117627 0)
(-0.00120542 -0.0118126 0)
(-0.00353171 -0.0122438 0)
(-0.00637532 -0.0122585 0)
(-0.0102768 -0.0123463 0)
(-0.0142745 -0.0136255 0)
(-0.0173766 -0.0173881 0)
(-0.01757 -0.0242421 0)
(-0.0133942 -0.0313137 0)
(-0.00609437 -0.0361558 0)
(0.00344878 -0.0370542 0)
(0.0108834 -0.0330745 0)
(0.0147133 -0.0260732 0)
(0.0118359 -0.0214868 0)
(0.00824336 -0.0220172 0)
(0.00247411 -0.00950879 0)
(-0.00219327 -0.0095897 0)
(-0.0141735 -0.0229422 0)
(-0.0204806 -0.0235037 0)
(-0.0233434 -0.0400632 0)
(-0.0172507 -0.0551353 0)
(-0.00720812 -0.0637889 0)
(0.00492865 -0.0631566 0)
(0.0157128 -0.0571204 0)
(0.0232226 -0.0466762 0)
(0.0257468 -0.0353473 0)
(0.0233154 -0.027013 0)
(0.0166648 -0.0225132 0)
(0.00963744 -0.0220113 0)
(0.00465568 -0.0231273 0)
(0.00141772 -0.0236342 0)
(-0.00133111 -0.0237488 0)
(-0.00461052 -0.0233494 0)
(-0.009637 -0.0223003 0)
(-0.0166856 -0.0226947 0)
(-0.023172 -0.0271161 0)
(-0.0254173 -0.0355254 0)
(-0.0226762 -0.0466833 0)
(-0.0148111 -0.0571096 0)
(-0.00399115 -0.0637629 0)
(0.00826568 -0.0644257 0)
(0.0183348 -0.0557696 0)
(0.0244026 -0.0407673 0)
(0.0216112 -0.0240811 0)
(0.0151082 -0.0217572 0)
(0.00254709 -0.00814138 0)
(-0.00180726 -0.00114111 0)
(-0.023071 -0.0108295 0)
(-0.0328722 -0.0246689 0)
(-0.0336874 -0.0508902 0)
(-0.0262046 -0.0701302 0)
(-0.0132552 -0.0810342 0)
(0.00151972 -0.0801779 0)
(0.0149628 -0.0720752 0)
(0.0257204 -0.0586185 0)
(0.0327304 -0.0455177 0)
(0.0338811 -0.0339249 0)
(0.0273361 -0.0258038 0)
(0.0174319 -0.0240616 0)
(0.00904929 -0.0257556 0)
(0.00280685 -0.0272128 0)
(-0.00266302 -0.0272205 0)
(-0.00905512 -0.0258081 0)
(-0.0175699 -0.0242097 0)
(-0.0275205 -0.0260617 0)
(-0.0336576 -0.0341439 0)
(-0.0322434 -0.0456764 0)
(-0.0249486 -0.0586632 0)
(-0.0139261 -0.0721666 0)
(-0.000487762 -0.0809105 0)
(0.0143906 -0.081675 0)
(0.0272711 -0.0707702 0)
(0.0346451 -0.0514744 0)
(0.0335672 -0.0249804 0)
(0.0236457 -0.00910806 0)
(0.00178734 0.00106293 0)
(-0.00734376 0.0163069 0)
(-0.0332482 -0.00394115 0)
(-0.0420529 -0.0294549 0)
(-0.0408162 -0.0588548 0)
(-0.0337278 -0.081796 0)
(-0.0201471 -0.0957297 0)
(-0.00426941 -0.0973872 0)
(0.0129882 -0.0884215 0)
(0.0264575 -0.0709631 0)
(0.0365101 -0.053017 0)
(0.0403783 -0.0365735 0)
(0.0359696 -0.0239069 0)
(0.0254291 -0.0200197 0)
(0.0140334 -0.0217106 0)
(0.00443594 -0.0240437 0)
(-0.00428214 -0.0239818 0)
(-0.0140563 -0.0216655 0)
(-0.0257427 -0.0202119 0)
(-0.036284 -0.0246825 0)
(-0.0401718 -0.0372391 0)
(-0.0360489 -0.0536141 0)
(-0.0255749 -0.0715225 0)
(-0.0117574 -0.0890095 0)
(0.00552752 -0.0980207 0)
(0.0212422 -0.0961106 0)
(0.0345514 -0.0818133 0)
(0.0413014 -0.0583863 0)
(0.042204 -0.0287882 0)
(0.033041 -0.00127373 0)
(0.00710753 0.0187188 0)
(-0.00143878 0.0284966 0)
(-0.0332847 0.0064926 0)
(-0.0397802 -0.025223 0)
(-0.0384747 -0.058254 0)
(-0.0327951 -0.0866033 0)
(-0.0227166 -0.104853 0)
(-0.00949206 -0.110107 0)
(0.00690214 -0.102018 0)
(0.0204996 -0.0828422 0)
(0.0331583 -0.0624992 0)
(0.0393488 -0.0438103 0)
(0.0399612 -0.0283627 0)
(0.0307893 -0.0216988 0)
(0.0180248 -0.0215249 0)
(0.00576939 -0.0235185 0)
(-0.00553091 -0.0233947 0)
(-0.0179314 -0.021383 0)
(-0.0309475 -0.0219355 0)
(-0.0399345 -0.0291562 0)
(-0.0387884 -0.0445329 0)
(-0.0324807 -0.0632184 0)
(-0.0195379 -0.0836674 0)
(-0.00580527 -0.102712 0)
(0.0106248 -0.110594 0)
(0.0236768 -0.104989 0)
(0.0333762 -0.0863772 0)
(0.0388227 -0.0573761 0)
(0.0394266 -0.023874 0)
(0.0327029 0.00904561 0)
(0.00086312 0.0325563 0)
(-0.000589647 0.0319106 0)
(-0.0266431 0.0171928 0)
(-0.0323193 -0.0173134 0)
(-0.0320128 -0.0560716 0)
(-0.0307765 -0.0889531 0)
(-0.0221354 -0.111495 0)
(-0.0131123 -0.119021 0)
(0.00150458 -0.112043 0)
(0.0140804 -0.0921209 0)
(0.026033 -0.0681872 0)
(0.0305213 -0.0453295 0)
(0.0352309 -0.0271072 0)
(0.0296931 -0.0179469 0)
(0.0182141 -0.0162197 0)
(0.0058407 -0.017515 0)
(-0.00573955 -0.0174003 0)
(-0.0182881 -0.0161329 0)
(-0.0297585 -0.0182679 0)
(-0.0348778 -0.0278391 0)
(-0.0299067 -0.0458919 0)
(-0.0254575 -0.069084 0)
(-0.0132593 -0.0929111 0)
(-0.000613792 -0.112656 0)
(0.0139297 -0.11932 0)
(0.0227507 -0.111517 0)
(0.0310387 -0.0883492 0)
(0.0321032 -0.0548295 0)
(0.0317992 -0.0155383 0)
(0.0261059 0.0194799 0)
(0.00024783 0.0346818 0)
(0.000910176 0.042073 0)
(-0.0177129 0.0323923 0)
(-0.0220265 -0.00434281 0)
(-0.023603 -0.0489724 0)
(-0.0246313 -0.0864915 0)
(-0.0193907 -0.113157 0)
(-0.0135799 -0.122979 0)
(-0.0025373 -0.116394 0)
(0.00719486 -0.0949906 0)
(0.0171979 -0.0699907 0)
(0.0200234 -0.0461974 0)
(0.026187 -0.0255452 0)
(0.0257439 -0.0124377 0)
(0.0166146 -0.00943944 0)
(0.00527517 -0.00984339 0)
(-0.00531106 -0.00975685 0)
(-0.0167294 -0.00949903 0)
(-0.0257356 -0.0128633 0)
(-0.0254355 -0.0263234 0)
(-0.0195889 -0.0468009 0)
(-0.0166712 -0.0708019 0)
(-0.00657534 -0.0958394 0)
(0.00318605 -0.116977 0)
(0.0139608 -0.123131 0)
(0.0196012 -0.112971 0)
(0.024567 -0.0854553 0)
(0.0231112 -0.0475001 0)
(0.0211296 -0.00236163 0)
(0.0167764 0.0349209 0)
(-0.000880128 0.044828 0)
(0.00174639 0.0502303 0)
(-0.0116699 0.0409234 0)
(-0.0132194 0.0022235 0)
(-0.0134729 -0.0487518 0)
(-0.0170417 -0.0860645 0)
(-0.0139541 -0.113231 0)
(-0.0123237 -0.124895 0)
(-0.00497719 -0.119094 0)
(0.00149231 -0.0977904 0)
(0.0074347 -0.0719517 0)
(0.0105566 -0.0489871 0)
(0.0130345 -0.0235281 0)
(0.0188183 -0.00742427 0)
(0.0127201 -0.00376596 0)
(0.00398554 -0.00343382 0)
(-0.00415784 -0.00335797 0)
(-0.0129592 -0.00378085 0)
(-0.0187165 -0.00811485 0)
(-0.0123602 -0.0249928 0)
(-0.010438 -0.050055 0)
(-0.00689508 -0.0730638 0)
(-0.00104874 -0.0987834 0)
(0.00528656 -0.119643 0)
(0.0122092 -0.124849 0)
(0.0137741 -0.112623 0)
(0.0165134 -0.0852763 0)
(0.0125007 -0.0477689 0)
(0.0121168 0.00402239 0)
(0.0104739 0.043 0)
(-0.00170112 0.0526615 0)
(0.00190258 0.0541817 0)
(-0.00860462 0.0437924 0)
(-0.00440067 0.00619207 0)
(-0.0012306 -0.0478915 0)
(-0.00736789 -0.0878192 0)
(-0.00618826 -0.114566 0)
(-0.00885391 -0.124624 0)
(-0.0064642 -0.120619 0)
(-0.00364454 -0.102389 0)
(-0.00125427 -0.0795769 0)
(0.00144952 -0.0555006 0)
(0.00124592 -0.0284538 0)
(0.00784928 -0.00667025 0)
(0.00750288 -0.00100275 0)
(0.0020007 1.09346e-05 0)
(-0.00246681 4.48482e-05 0)
(-0.00799724 -0.00105861 0)
(-0.00737738 -0.00774489 0)
(-0.0013242 -0.0299853 0)
(-0.00163902 -0.0564355 0)
(0.00127446 -0.0807706 0)
(0.0036751 -0.10335 0)
(0.00642199 -0.121006 0)
(0.00843138 -0.124627 0)
(0.00572054 -0.114382 0)
(0.00638985 -0.0870187 0)
(5.68673e-05 -0.0468173 0)
(0.00362907 0.00811758 0)
(0.00812272 0.0454168 0)
(-0.00189605 0.0560363 0)
(0.00211906 0.0556863 0)
(-0.0056164 0.0427597 0)
(0.00483899 0.00721505 0)
(0.0111193 -0.0477511 0)
(0.00576474 -0.0893692 0)
(0.00273957 -0.115285 0)
(-0.00405643 -0.123903 0)
(-0.0075446 -0.11893 0)
(-0.00809954 -0.103929 0)
(-0.00859028 -0.0846681 0)
(-0.00646276 -0.0594152 0)
(-0.0086689 -0.0287919 0)
(-0.00704202 -0.00289257 0)
(0.00142219 0.00351362 0)
(-0.000296872 0.00438745 0)
(-0.000404507 0.00437604 0)
(-0.00209067 0.00339947 0)
(0.00787104 -0.00406736 0)
(0.00784135 -0.031674 0)
(0.00647587 -0.0607518 0)
(0.00825138 -0.0857496 0)
(0.00780479 -0.10466 0)
(0.00716192 -0.11895 0)
(0.00331551 -0.123578 0)
(-0.00316979 -0.114615 0)
(-0.00722178 -0.0885078 0)
(-0.012313 -0.0457951 0)
(-0.00562295 0.00852535 0)
(0.00530167 0.044196 0)
(-0.0019947 0.0571413 0)
(0.00329315 0.0570051 0)
(-0.00286465 0.040694 0)
(0.0155013 0.00703827 0)
(0.02388 -0.0459656 0)
(0.0195347 -0.0908717 0)
(0.0123064 -0.114685 0)
(0.00184319 -0.121194 0)
(-0.00732289 -0.116104 0)
(-0.0112179 -0.104084 0)
(-0.0131 -0.0873448 0)
(-0.013342 -0.0591631 0)
(-0.0139881 -0.0281189 0)
(-0.0195901 0.00187557 0)
(-0.00499909 0.0110243 0)
(-0.00236412 0.0115361 0)
(0.00154209 0.0114894 0)
(0.00459642 0.0110139 0)
(0.0199587 0.000124599 0)
(0.0132102 -0.0314066 0)
(0.0132679 -0.0617639 0)
(0.0123256 -0.0882902 0)
(0.0104146 -0.104522 0)
(0.00645314 -0.11608 0)
(-0.0028769 -0.120806 0)
(-0.0130719 -0.114006 0)
(-0.0211627 -0.0899086 0)
(-0.0258094 -0.0433235 0)
(-0.0161867 0.00827858 0)
(0.00257275 0.041801 0)
(-0.00299573 0.0579951 0)
(0.00686817 0.0580194 0)
(0.00135908 0.035687 0)
(0.0282106 0.00517843 0)
(0.0374326 -0.0457577 0)
(0.0312525 -0.0926787 0)
(0.0209299 -0.111452 0)
(0.00692991 -0.116564 0)
(-0.008018 -0.111067 0)
(-0.0151792 -0.102017 0)
(-0.018288 -0.0870715 0)
(-0.0204026 -0.0577191 0)
(-0.0182897 -0.0266853 0)
(-0.0279383 0.00530495 0)
(-0.0126444 0.019617 0)
(-0.00387509 0.0196125 0)
(0.00299602 0.0196652 0)
(0.0130352 0.0194292 0)
(0.0263934 0.00231959 0)
(0.0165081 -0.0299725 0)
(0.019244 -0.060432 0)
(0.0168995 -0.0885841 0)
(0.0138041 -0.102774 0)
(0.00682058 -0.110934 0)
(-0.00826605 -0.116023 0)
(-0.0221998 -0.110451 0)
(-0.0335912 -0.0916896 0)
(-0.0391291 -0.0438643 0)
(-0.0286968 0.00554796 0)
(-0.00132231 0.0359776 0)
(-0.00638338 0.0584186 0)
(0.0139053 0.0568625 0)
(0.0118916 0.032927 0)
(0.0435237 0.00570131 0)
(0.052143 -0.0425883 0)
(0.0454753 -0.0915436 0)
(0.0287443 -0.105816 0)
(0.00960603 -0.108469 0)
(-0.010344 -0.103943 0)
(-0.0196971 -0.100437 0)
(-0.021829 -0.0873683 0)
(-0.0236731 -0.060359 0)
(-0.0209366 -0.0308969 0)
(-0.027719 0.00206716 0)
(-0.0222303 0.0224997 0)
(-0.00486363 0.0261562 0)
(0.00406509 0.026548 0)
(0.0223964 0.0206266 0)
(0.0242019 -0.00291474 0)
(0.0198628 -0.0341679 0)
(0.0224128 -0.0632819 0)
(0.0208302 -0.0892978 0)
(0.0185551 -0.100861 0)
(0.00909053 -0.103713 0)
(-0.0111301 -0.10789 0)
(-0.0309491 -0.105507 0)
(-0.0476712 -0.0900855 0)
(-0.0544619 -0.0394021 0)
(-0.0438926 0.00546675 0)
(-0.0116706 0.0322315 0)
(-0.0134599 0.056457 0)
(0.021348 0.0532083 0)
(0.0243961 0.0293857 0)
(0.0585731 0.008446 0)
(0.0728874 -0.0263552 0)
(0.0623758 -0.080428 0)
(0.0419083 -0.0980849 0)
(0.0145279 -0.0979043 0)
(-0.0104123 -0.0952145 0)
(-0.0208964 -0.0953202 0)
(-0.0232122 -0.0855893 0)
(-0.0243402 -0.0640161 0)
(-0.0239984 -0.0356358 0)
(-0.023411 -0.00967519 0)
(-0.0262143 0.0209008 0)
(-0.00601512 0.027895 0)
(0.00573454 0.0275597 0)
(0.0263125 0.0187563 0)
(0.0220887 -0.0133092 0)
(0.0230928 -0.0389668 0)
(0.0229619 -0.0671739 0)
(0.022206 -0.087117 0)
(0.0200443 -0.0959174 0)
(0.00912571 -0.0946784 0)
(-0.0163613 -0.0979096 0)
(-0.0443883 -0.0986182 0)
(-0.0658162 -0.0790021 0)
(-0.075472 -0.0226276 0)
(-0.0587461 0.00802967 0)
(-0.0242203 0.0278615 0)
(-0.0210683 0.0522252 0)
(0.0262933 0.0453958 0)
(0.0343122 0.0182426 0)
(0.0668381 0.00459497 0)
(0.0878502 -0.0177392 0)
(0.0795177 -0.0672475 0)
(0.0586134 -0.0939856 0)
(0.0231242 -0.090146 0)
(-0.00656537 -0.0858744 0)
(-0.0192035 -0.0877726 0)
(-0.0222248 -0.0822756 0)
(-0.0231493 -0.0692536 0)
(-0.0251162 -0.0463498 0)
(-0.0240488 -0.0232295 0)
(-0.020604 -0.00251384 0)
(-0.00500447 0.000703314 0)
(0.00527446 -0.00020862 0)
(0.019718 -0.00554663 0)
(0.0233607 -0.0255444 0)
(0.0238359 -0.0496488 0)
(0.021753 -0.071722 0)
(0.021 -0.0837178 0)
(0.0180944 -0.0878669 0)
(0.00518459 -0.0862809 0)
(-0.0257232 -0.0926506 0)
(-0.0622107 -0.0933773 0)
(-0.0831544 -0.0650797 0)
(-0.089005 -0.0178064 0)
(-0.0660398 0.00246634 0)
(-0.0342201 0.0157246 0)
(-0.0261849 0.0443885 0)
(0.0296174 0.0334271 0)
(0.0409004 -0.00125691 0)
(0.0672301 -0.0142899 0)
(0.0909652 -0.0277155 0)
(0.0908889 -0.0631835 0)
(0.0793517 -0.0868903 0)
(0.040153 -0.101466 0)
(-8.16798e-05 -0.0847414 0)
(-0.0153793 -0.0792426 0)
(-0.0182561 -0.0808014 0)
(-0.0187086 -0.0735118 0)
(-0.0178002 -0.064722 0)
(-0.0178842 -0.047325 0)
(-0.009483 -0.0392604 0)
(-0.00337512 -0.0383949 0)
(0.00303857 -0.0387237 0)
(0.00895199 -0.0401664 0)
(0.0169924 -0.0500841 0)
(0.0164164 -0.0675128 0)
(0.0173672 -0.0753313 0)
(0.0170165 -0.0819069 0)
(0.0141607 -0.080222 0)
(-0.0018914 -0.0890183 0)
(-0.044739 -0.105771 0)
(-0.0820845 -0.0891905 0)
(-0.0909324 -0.0643848 0)
(-0.0904194 -0.0308425 0)
(-0.0662929 -0.0184371 0)
(-0.0407641 -0.00413653 0)
(-0.0298362 0.032316 0)
(0.0330977 0.0121782 0)
(0.0452246 -0.0257652 0)
(0.0660117 -0.0466235 0)
(0.0829937 -0.0541473 0)
(0.082924 -0.0758178 0)
(0.0720198 -0.098116 0)
(0.0505631 -0.113858 0)
(0.0200539 -0.121267 0)
(-0.0051094 -0.0874086 0)
(-0.0121525 -0.0821513 0)
(-0.0121972 -0.0821991 0)
(-0.00925132 -0.0787566 0)
(-0.00367416 -0.0742391 0)
(-0.00323709 -0.0628079 0)
(-0.00141211 -0.0600751 0)
(0.000710313 -0.0604407 0)
(0.0022858 -0.064153 0)
(0.00257677 -0.0760537 0)
(0.00828638 -0.0802803 0)
(0.0106392 -0.0840571 0)
(0.0106965 -0.0849806 0)
(0.0024852 -0.0931997 0)
(-0.0238158 -0.127575 0)
(-0.0516985 -0.11694 0)
(-0.0713246 -0.103089 0)
(-0.0819606 -0.0813359 0)
(-0.0816025 -0.0615568 0)
(-0.0655542 -0.0535136 0)
(-0.0452436 -0.0285033 0)
(-0.033466 0.0108739 0)
(0.034285 -0.0211538 0)
(0.0464399 -0.0557883 0)
(0.0610027 -0.0797948 0)
(0.0669843 -0.0852476 0)
(0.0650241 -0.0919415 0)
(0.057087 -0.0955638 0)
(0.0466435 -0.102006 0)
(0.0344974 -0.117746 0)
(0.016454 -0.121909 0)
(0.000991959 -0.102559 0)
(-0.00430402 -0.0894496 0)
(-0.00269046 -0.0804934 0)
(-0.00117062 -0.064546 0)
(-0.000265954 -0.0570607 0)
(-0.000253257 -0.0556246 0)
(-0.00050118 -0.0558557 0)
(-0.000592326 -0.0577428 0)
(0.000224396 -0.0657001 0)
(0.00158313 -0.0819525 0)
(0.00299986 -0.0912661 0)
(-0.00404183 -0.110287 0)
(-0.0200818 -0.123897 0)
(-0.0379647 -0.118678 0)
(-0.0483114 -0.103492 0)
(-0.0566866 -0.0972042 0)
(-0.063526 -0.0952648 0)
(-0.0651321 -0.0898862 0)
(-0.0601918 -0.0836393 0)
(-0.0464612 -0.0584497 0)
(-0.0342444 -0.0232194 0)
(0.0286461 -0.0616379 0)
(0.0427444 -0.0781828 0)
(0.0503956 -0.081271 0)
(0.0537374 -0.0796267 0)
(0.0517504 -0.0741499 0)
(0.0503541 -0.0709575 0)
(0.0516841 -0.0826114 0)
(0.0477673 -0.0964845 0)
(0.0322298 -0.105445 0)
(0.014239 -0.0988873 0)
(0.00461201 -0.0823317 0)
(0.00240534 -0.0629706 0)
(0.00209197 -0.0464856 0)
(0.0019131 -0.0393778 0)
(0.000605875 -0.037976 0)
(-0.00119942 -0.0381557 0)
(-0.00257247 -0.0399099 0)
(-0.00292849 -0.0475041 0)
(-0.00361594 -0.0641875 0)
(-0.00648383 -0.0834673 0)
(-0.0173507 -0.100081 0)
(-0.0358991 -0.105883 0)
(-0.0504816 -0.0975984 0)
(-0.0540168 -0.0849236 0)
(-0.0510708 -0.0727468 0)
(-0.0511569 -0.0751307 0)
(-0.0530736 -0.0807188 0)
(-0.0496016 -0.0821621 0)
(-0.0420569 -0.0793046 0)
(-0.0280762 -0.0635173 0)
(0.0236449 -0.0796499 0)
(0.0336851 -0.0739456 0)
(0.0440566 -0.0651708 0)
(0.0450628 -0.0562028 0)
(0.043717 -0.0494194 0)
(0.0541127 -0.0542842 0)
(0.0632568 -0.0695869 0)
(0.0603583 -0.0797669 0)
(0.0457883 -0.0845607 0)
(0.027472 -0.0786301 0)
(0.0140378 -0.0623838 0)
(0.00901743 -0.0429198 0)
(0.00645675 -0.0264668 0)
(0.00434234 -0.0188197 0)
(0.00149862 -0.0169996 0)
(-0.00188402 -0.0171368 0)
(-0.00481558 -0.0192616 0)
(-0.00717304 -0.0273504 0)
(-0.0100482 -0.0438856 0)
(-0.0158305 -0.0632445 0)
(-0.0299819 -0.0790165 0)
(-0.0485908 -0.0853482 0)
(-0.0630777 -0.0811149 0)
(-0.0654241 -0.071774 0)
(-0.0562608 -0.057395 0)
(-0.0442962 -0.0509761 0)
(-0.0444671 -0.0569204 0)
(-0.0439619 -0.0650177 0)
(-0.0330435 -0.0736714 0)
(-0.0229785 -0.0785574 0)
(0.0160414 -0.0758926 0)
(0.0273844 -0.0587524 0)
(0.0354578 -0.0424346 0)
(0.034869 -0.0312903 0)
(0.0453893 -0.0330705 0)
(0.065053 -0.048141 0)
(0.0751809 -0.0589242 0)
(0.0734824 -0.0637215 0)
(0.0593414 -0.0659161 0)
(0.0383447 -0.0575556 0)
(0.0224329 -0.0415397 0)
(0.0148107 -0.0222594 0)
(0.0103839 -0.00576768 0)
(0.00672646 0.0022055 0)
(0.00233756 0.00430487 0)
(-0.00257742 0.00416049 0)
(-0.00705786 0.00178826 0)
(-0.0109491 -0.00656579 0)
(-0.0157389 -0.0230599 0)
(-0.0241062 -0.0422475 0)
(-0.0407876 -0.058217 0)
(-0.0618769 -0.0662904 0)
(-0.0753545 -0.0649681 0)
(-0.0770706 -0.0612229 0)
(-0.0672947 -0.0515563 0)
(-0.0473357 -0.0355689 0)
(-0.0349688 -0.0325428 0)
(-0.0342616 -0.0426069 0)
(-0.0280529 -0.05777 0)
(-0.0152242 -0.0739122 0)
(0.00741273 -0.0641828 0)
(0.024867 -0.0428382 0)
(0.0221952 -0.018737 0)
(0.032115 -0.015399 0)
(0.0574171 -0.02893 0)
(0.0773299 -0.0438266 0)
(0.0848907 -0.0478643 0)
(0.0830006 -0.0481243 0)
(0.0689345 -0.0452734 0)
(0.0477857 -0.0359189 0)
(0.0296567 -0.0197917 0)
(0.0202728 -0.000489229 0)
(0.0142832 0.015815 0)
(0.00903154 0.0239893 0)
(0.00317125 0.0264275 0)
(-0.00320888 0.0263218 0)
(-0.00915968 0.0236478 0)
(-0.0146199 0.0151636 0)
(-0.0209131 -0.00112523 0)
(-0.0309909 -0.020279 0)
(-0.0495021 -0.0360752 0)
(-0.070804 -0.0458324 0)
(-0.0846914 -0.04916 0)
(-0.0861963 -0.049417 0)
(-0.0789328 -0.0462166 0)
(-0.0600497 -0.0326684 0)
(-0.0337957 -0.0174577 0)
(-0.0222159 -0.0192752 0)
(-0.0242896 -0.0418017 0)
(-0.00736602 -0.062052 0)
(0.00142003 -0.0469889 0)
(0.0125497 -0.0154863 0)
(0.0166189 -0.00166011 0)
(0.0444428 -0.0126747 0)
(0.0723413 -0.0309542 0)
(0.0854581 -0.0353865 0)
(0.0920156 -0.0348199 0)
(0.0898623 -0.0310443 0)
(0.0765446 -0.0256405 0)
(0.0546357 -0.014379 0)
(0.0353079 0.00234358 0)
(0.0242409 0.0214245 0)
(0.0169683 0.0376153 0)
(0.0106669 0.045948 0)
(0.0037541 0.0486179 0)
(-0.00365083 0.0485134 0)
(-0.0106499 0.0456517 0)
(-0.0171637 0.0370519 0)
(-0.024788 0.0209188 0)
(-0.0366213 0.00207319 0)
(-0.0563198 -0.0146559 0)
(-0.0779578 -0.0258608 0)
(-0.0908893 -0.032115 0)
(-0.0931282 -0.0363504 0)
(-0.0864848 -0.0373009 0)
(-0.0737858 -0.0334615 0)
(-0.0470698 -0.0162243 0)
(-0.0179468 -0.00347499 0)
(-0.0131145 -0.014384 0)
(-0.00148592 -0.0449979 0)
(-0.0085016 -0.026042 0)
(0.00909459 0.00644573 0)
(0.0293841 -0.00135183 0)
(0.0616358 -0.0197007 0)
(0.07898 -0.0247681 0)
(0.0906584 -0.0243208 0)
(0.0964817 -0.0205249 0)
(0.0938038 -0.0139391 0)
(0.0804068 -0.00510761 0)
(0.058878 0.00763082 0)
(0.0386375 0.0253523 0)
(0.0263734 0.0438459 0)
(0.0183561 0.0598788 0)
(0.0114025 0.0682597 0)
(0.00395864 0.0711149 0)
(-0.00390612 0.0710403 0)
(-0.0114147 0.068007 0)
(-0.0185481 0.0593822 0)
(-0.02686 0.0434105 0)
(-0.03979 0.0250534 0)
(-0.0601842 0.00756072 0)
(-0.0815201 -0.00550313 0)
(-0.0946782 -0.0145984 0)
(-0.0971376 -0.0216651 0)
(-0.0914402 -0.0259515 0)
(-0.0799352 -0.0266757 0)
(-0.0631722 -0.02213 0)
(-0.0319196 -0.00423756 0)
(-0.00989796 0.0063609 0)
(0.00907495 -0.0231468 0)
(-0.00878934 0.00357644 0)
(0.0156309 0.0109419 0)
(0.0458186 -0.00770703 0)
(0.067335 -0.0153907 0)
(0.0825158 -0.0154173 0)
(0.0934508 -0.0119617 0)
(0.0985409 -0.00484226 0)
(0.0955106 0.0045475 0)
(0.0827733 0.0152586 0)
(0.0617038 0.0298155 0)
(0.0405805 0.0480909 0)
(0.0269737 0.0663682 0)
(0.0183961 0.0820548 0)
(0.0112384 0.0901975 0)
(0.00387578 0.0929744 0)
(-0.00380294 0.0928801 0)
(-0.0111813 0.0899127 0)
(-0.018473 0.0815324 0)
(-0.0273286 0.0659481 0)
(-0.0415229 0.047813 0)
(-0.062647 0.0296699 0)
(-0.083256 0.015026 0)
(-0.0957823 0.00368449 0)
(-0.0988862 -0.00589841 0)
(-0.0937608 -0.0133019 0)
(-0.082999 -0.0169915 0)
(-0.0679735 -0.0172399 0)
(-0.0470752 -0.0099726 0)
(-0.0169981 0.00857234 0)
(0.00714317 0.00666534 0)
(0.0075693 0.0246854 0)
(0.0243941 0.00408271 0)
(0.0502171 -0.00550637 0)
(0.0692959 -0.00765782 0)
(0.083698 -0.00470228 0)
(0.0939788 0.00180601 0)
(0.0984921 0.0114569 0)
(0.0949429 0.0228604 0)
(0.082852 0.0362262 0)
(0.062399 0.052156 0)
(0.0407297 0.071296 0)
(0.0260462 0.0890016 0)
(0.0173439 0.103791 0)
(0.0105137 0.111265 0)
(0.00369337 0.113786 0)
(-0.00343128 0.113693 0)
(-0.0102726 0.110974 0)
(-0.0172303 0.103255 0)
(-0.0261873 0.0886523 0)
(-0.0413732 0.0710428 0)
(-0.0630426 0.052068 0)
(-0.0831157 0.035968 0)
(-0.0950494 0.0223901 0)
(-0.0985117 0.0105462 0)
(-0.0941134 0.000606175 0)
(-0.08399 -0.00591825 0)
(-0.0696905 -0.00890401 0)
(-0.0507412 -0.00681401 0)
(-0.0253297 0.00293857 0)
(-0.00993424 0.025705 0)
(0.0193915 0.0257981 0)
(0.0275077 0.00837029 0)
(0.0511159 0.000988148 0)
(0.0695863 0.00142802 0)
(0.0834683 0.00710549 0)
(0.0929342 0.0158938 0)
(0.0963428 0.0282127 0)
(0.0925575 0.042263 0)
(0.0808331 0.057431 0)
(0.0606456 0.0752434 0)
(0.0382176 0.0948617 0)
(0.0233874 0.111089 0)
(0.0155584 0.124012 0)
(0.00946854 0.130729 0)
(0.0033781 0.133044 0)
(-0.00301045 0.132929 0)
(-0.00913991 0.130402 0)
(-0.0153901 0.12341 0)
(-0.023509 0.110869 0)
(-0.0387543 0.0947219 0)
(-0.0611644 0.0751864 0)
(-0.0809951 0.0571657 0)
(-0.0925788 0.041599 0)
(-0.0963757 0.0274387 0)
(-0.0928946 0.0148522 0)
(-0.0835796 0.00594912 0)
(-0.0697998 0.000283448 0)
(-0.0515381 6.46337e-05 0)
(-0.0283456 0.00800618 0)
(-0.0210519 0.0261064 0)
(0.0239954 0.0289712 0)
(0.0287245 0.013159 0)
(0.0514457 0.00723252 0)
(0.0692103 0.0105596 0)
(0.0820405 0.0190105 0)
(0.0900772 0.0307011 0)
(0.092544 0.0455434 0)
(0.0878869 0.0618084 0)
(0.0758265 0.0799923 0)
(0.0553211 0.0998512 0)
(0.033215 0.118542 0)
(0.0201507 0.132347 0)
(0.0134183 0.142624 0)
(0.00818672 0.148829 0)
(0.00294052 0.151027 0)
(-0.00261083 0.150913 0)
(-0.00793848 0.148503 0)
(-0.0133648 0.141968 0)
(-0.02046 0.131924 0)
(-0.0338611 0.118339 0)
(-0.0556663 0.0999847 0)
(-0.0759407 0.0799315 0)
(-0.0878908 0.06138 0)
(-0.092537 0.044695 0)
(-0.0901108 0.0297113 0)
(-0.0821205 0.0180155 0)
(-0.0693513 0.00960908 0)
(-0.0516029 0.00653162 0)
(-0.0293236 0.0129291 0)
(-0.0247669 0.0292005 0)
(0.0258675 0.0319219 0)
(0.0300818 0.0184402 0)
(0.0514689 0.014326 0)
(0.0680955 0.0202677 0)
(0.0795846 0.0315542 0)
(0.0863076 0.0457103 0)
(0.0872197 0.0633701 0)
(0.0809633 0.0839829 0)
(0.0675915 0.106043 0)
(0.0474269 0.126456 0)
(0.0287358 0.139513 0)
(0.0172443 0.150428 0)
(0.0111435 0.159351 0)
(0.00680763 0.165412 0)
(0.00244407 0.167624 0)
(-0.00221244 0.167512 0)
(-0.00670132 0.1651 0)
(-0.0112172 0.158701 0)
(-0.0176878 0.149995 0)
(-0.0295485 0.139097 0)
(-0.047775 0.126419 0)
(-0.0674833 0.106134 0)
(-0.080737 0.083688 0)
(-0.0870821 0.0627408 0)
(-0.0861818 0.0446875 0)
(-0.0795975 0.0304879 0)
(-0.0682078 0.0192703 0)
(-0.0516927 0.0135427 0)
(-0.0304291 0.0181549 0)
(-0.0261896 0.0321735 0)
(0.0269201 0.0339781 0)
(0.0313027 0.0224928 0)
(0.0516221 0.0208733 0)
(0.0666964 0.0299472 0)
(0.0767093 0.043881 0)
(0.0816931 0.0615848 0)
(0.0803957 0.0850135 0)
(0.0717253 0.110949 0)
(0.0575984 0.133834 0)
(0.0402846 0.150824 0)
(0.0254545 0.157649 0)
(0.014813 0.167205 0)
(0.00917827 0.174885 0)
(0.0056317 0.180837 0)
(0.00203405 0.183106 0)
(-0.00180177 0.183032 0)
(-0.00557933 0.180606 0)
(-0.00924966 0.174349 0)
(-0.0151832 0.166701 0)
(-0.0261517 0.157171 0)
(-0.0406736 0.150325 0)
(-0.0573274 0.133909 0)
(-0.0713098 0.110963 0)
(-0.0799993 0.0845481 0)
(-0.0814231 0.0608355 0)
(-0.0765618 0.0428953 0)
(-0.0666852 0.0290398 0)
(-0.0517751 0.0201676 0)
(-0.0316355 0.022209 0)
(-0.0271634 0.0342188 0)
(0.0278433 0.034438 0)
(0.032796 0.0261386 0)
(0.0514088 0.027881 0)
(0.0646004 0.0400727 0)
(0.0732546 0.0572171 0)
(0.075992 0.081651 0)
(0.0708713 0.111691 0)
(0.0607432 0.139537 0)
(0.0484769 0.15871 0)
(0.0349546 0.169311 0)
(0.0229633 0.173291 0)
(0.0129777 0.181758 0)
(0.00771608 0.189401 0)
(0.00481463 0.195222 0)
(0.00182507 0.197635 0)
(-0.00129557 0.197612 0)
(-0.00444877 0.195125 0)
(-0.00763947 0.189544 0)
(-0.0132924 0.181416 0)
(-0.0234999 0.172768 0)
(-0.0351586 0.168541 0)
(-0.0481857 0.158348 0)
(-0.0601195 0.139313 0)
(-0.070299 0.111527 0)
(-0.0754169 0.0810924 0)
(-0.0729304 0.0564359 0)
(-0.0643979 0.0391863 0)
(-0.0513805 0.0272397 0)
(-0.033022 0.0257756 0)
(-0.0280568 0.0341935 0)
(0.0287734 0.0322289 0)
(0.0340643 0.0288895 0)
(0.0504996 0.0349566 0)
(0.0623355 0.0504828 0)
(0.0685178 0.0748115 0)
(0.0666789 0.107099 0)
(0.0590772 0.139705 0)
(0.0503839 0.163366 0)
(0.0410895 0.177076 0)
(0.0316387 0.183613 0)
(0.0212098 0.187066 0)
(0.0116469 0.195495 0)
(0.00644714 0.203324 0)
(0.00388067 0.208701 0)
(0.00159464 0.211218 0)
(-0.000760135 0.211207 0)
(-0.0032312 0.208586 0)
(-0.00603531 0.20291 0)
(-0.0115559 0.19517 0)
(-0.0213994 0.186547 0)
(-0.0316552 0.182799 0)
(-0.0407643 0.176452 0)
(-0.0498446 0.162857 0)
(-0.0583459 0.139362 0)
(-0.0659796 0.106866 0)
(-0.068035 0.0742659 0)
(-0.0620006 0.0497422 0)
(-0.0501908 0.0343282 0)
(-0.0339272 0.0285387 0)
(-0.0286624 0.0317273 0)
(0.0289827 0.0280363 0)
(0.0343979 0.0313241 0)
(0.0487329 0.0421572 0)
(0.0585719 0.0654885 0)
(0.0596245 0.0978945 0)
(0.054535 0.134882 0)
(0.0478059 0.163347 0)
(0.0415498 0.181352 0)
(0.036503 0.190298 0)
(0.0297171 0.195125 0)
(0.0199354 0.199413 0)
(0.0110753 0.207968 0)
(0.00609681 0.215988 0)
(0.00367737 0.221756 0)
(0.001667 0.224584 0)
(-9.17415e-05 0.224566 0)
(-0.00205315 0.221721 0)
(-0.00482527 0.216039 0)
(-0.0104856 0.207772 0)
(-0.0198824 0.199014 0)
(-0.029734 0.194363 0)
(-0.0364735 0.189324 0)
(-0.0412277 0.180444 0)
(-0.0473441 0.162499 0)
(-0.0537639 0.134423 0)
(-0.0589866 0.0977575 0)
(-0.0581843 0.0649133 0)
(-0.0484108 0.041603 0)
(-0.0339393 0.0309647 0)
(-0.0285415 0.0278843 0)
(0.0273957 0.023841 0)
(0.033577 0.0336217 0)
(0.0447803 0.054031 0)
(0.0501257 0.0854161 0)
(0.0474569 0.124994 0)
(0.0423464 0.15897 0)
(0.0377533 0.18115 0)
(0.0352658 0.194047 0)
(0.0334688 0.199538 0)
(0.0282362 0.205206 0)
(0.0193125 0.210592 0)
(0.0111874 0.219511 0)
(0.00652689 0.227945 0)
(0.00452592 0.233988 0)
(0.0028201 0.237259 0)
(0.000795108 0.23745 0)
(-0.00141322 0.234454 0)
(-0.00415795 0.228408 0)
(-0.00965997 0.219845 0)
(-0.0185089 0.210603 0)
(-0.0279689 0.204851 0)
(-0.0335593 0.198745 0)
(-0.0355468 0.192894 0)
(-0.0377548 0.179941 0)
(-0.0421182 0.15795 0)
(-0.0468287 0.124602 0)
(-0.0495529 0.0851446 0)
(-0.0444972 0.053664 0)
(-0.0333022 0.0334161 0)
(-0.0269541 0.0241527 0)
(0.0219488 0.0203645 0)
(0.0327084 0.0370099 0)
(0.0371355 0.0687758 0)
(0.0388336 0.109835 0)
(0.0350147 0.148562 0)
(0.0317206 0.176652 0)
(0.0302968 0.193261 0)
(0.0313993 0.202152 0)
(0.0317849 0.207271 0)
(0.0281157 0.214057 0)
(0.0201098 0.220897 0)
(0.0120127 0.230403 0)
(0.00680463 0.239295 0)
(0.00437813 0.245582 0)
(0.00287317 0.248773 0)
(0.00146458 0.248968 0)
(-0.000187349 0.246197 0)
(-0.00301355 0.240196 0)
(-0.00896901 0.231386 0)
(-0.0179124 0.221675 0)
(-0.0268006 0.214522 0)
(-0.0312271 0.207213 0)
(-0.0314985 0.20129 0)
(-0.030537 0.191883 0)
(-0.0318426 0.175312 0)
(-0.0349704 0.147698 0)
(-0.0384939 0.109438 0)
(-0.0367049 0.0686144 0)
(-0.0325489 0.0372101 0)
(-0.0217434 0.0209576 0)
(0.0122421 0.0185016 0)
(0.0278941 0.0445989 0)
(0.0275252 0.0862606 0)
(0.0254227 0.132802 0)
(0.0221016 0.168952 0)
(0.0235762 0.189904 0)
(0.0274756 0.199679 0)
(0.0324459 0.206028 0)
(0.0332754 0.212888 0)
(0.0299933 0.221553 0)
(0.0219473 0.230613 0)
(0.0132782 0.241027 0)
(0.00746665 0.250343 0)
(0.00466087 0.256814 0)
(0.00306609 0.260086 0)
(0.00169249 0.260319 0)
(2.80092e-05 0.25754 0)
(-0.0029328 0.251448 0)
(-0.00905681 0.242448 0)
(-0.0182436 0.232119 0)
(-0.0271604 0.222965 0)
(-0.0313098 0.213849 0)
(-0.0312792 0.20602 0)