/*--------------------------------*- C++ -*----------------------------------*\
| =========                 |                                                 |
| \\      /  F ield         | OpenFOAM: The Open Source CFD Toolbox           |
|  \\    /   O peration     | Version:  v1606+                                |
|   \\  /    A nd           | Web:      www.OpenFOAM.com                      |
|    \\/     M anipulation  |                                                 |
\*---------------------------------------------------------------------------*/
FoamFile
{
    version     2.0;
    format      ascii;
    class       volVectorField;
    location    "5.7";
    object      ddt0(rho,U);
}
// * * * * * * * * * * * * * * * * * * * * * * * * * * * * * * * * * * * * * //

dimensions      [1 -2 -2 0 0 0 0];

internalField   nonuniform List<vector> 
11640
(
(-3.94793699325 -1.7775799006 3.88810695158)
(-11.7529637601 -1.93983282081 3.93467942986)
(-19.0543828221 -2.2791338104 3.89396737008)
(-25.9656202251 -3.12819986681 3.68400224149)
(-31.9259382687 -3.63686541343 3.87058568601)
(-36.2676836503 -4.15944216733 3.98031229676)
(-38.9691269919 -4.80037021852 4.09475739808)
(-40.035699999 -5.58852112128 3.97142164026)
(-39.8377866157 -6.28366879772 3.89795739398)
(-38.5370764012 -6.81285890669 3.89254061799)
(-36.4877616014 -7.19728000318 3.94251958069)
(-34.0632471224 -7.45577437078 4.01353132023)
(-31.4395929184 -7.62018558288 4.06476593241)
(-28.6240327044 -7.80005878757 4.09517678893)
(-25.563894521 -8.007017035 4.14108019674)
(-22.066940189 -8.23249696695 4.14613007114)
(-18.0070512603 -8.46541448055 4.07384107504)
(-13.3791976237 -8.64237629007 3.97709318124)
(-8.23602696417 -8.69111318855 3.8743732755)
(-2.75556036601 -8.64802266654 3.80147312918)
(-4.11678315668 -5.24801634554 3.90376915773)
(-12.2590355571 -5.67311834902 4.00829122869)
(-20.2456070781 -6.59511953114 4.03722053234)
(-27.3481452345 -8.31553217357 4.30015132906)
(-32.9991969767 -9.80547371599 4.55159424925)
(-37.4693305013 -11.788232893 4.15972890998)
(-40.4442098563 -14.0207486297 3.93257715323)
(-41.6059771997 -16.361142432 3.71713826777)
(-41.1936397729 -18.3619991452 3.51660885459)
(-39.6205111478 -19.8100863724 3.39425713507)
(-37.3372549323 -20.7742187219 3.32566348028)
(-34.7626262223 -21.4084047341 3.27848708282)
(-32.1145667004 -21.8024865416 3.24212262115)
(-29.3276988473 -22.2526239018 3.21796342907)
(-26.2440452939 -22.8112255226 3.22084356576)
(-22.6810453284 -23.5377579891 3.21270013577)
(-18.4925505491 -24.3498500199 3.18689692821)
(-13.6297631629 -25.0281673506 3.15989396826)
(-8.20911189423 -25.3935819567 3.1842077101)
(-2.67897453698 -25.49246604 3.56409959809)
(-4.39718874369 -8.52362215253 3.98697789582)
(-13.1268352478 -9.1796784839 4.16897924284)
(-21.7188274839 -10.7650531308 4.29573259007)
(-29.1709811116 -12.5137866859 4.87333116274)
(-35.3273922468 -15.1769607732 4.52241340058)
(-40.3656504834 -18.6969526629 4.26176641565)
(-43.4488231117 -22.6837334754 3.91326311303)
(-44.405964179 -26.5579896859 3.49566952155)
(-43.4492644842 -29.7361702002 3.11705978685)
(-41.2561821315 -31.836065353 2.84086642328)
(-38.4866162325 -33.0982774669 2.64402491909)
(-35.6648976214 -33.8265531592 2.5398844821)
(-33.0032874634 -34.2843453688 2.50164761963)
(-30.3537528362 -34.925489485 2.49041520429)
(-27.4186822114 -35.8065438832 2.4998423684)
(-23.8860000977 -37.0690186093 2.48549598379)
(-19.531934328 -38.5136870534 2.48003387635)
(-14.349633592 -39.889624671 2.50410933295)
(-8.55543145298 -40.859974367 2.62620211205)
(-2.74894489418 -41.3383550887 3.11879117549)
(-4.80306015581 -11.5043631619 4.1652578753)
(-14.52252032 -12.3763061729 4.40489634778)
(-23.5620365361 -14.3954775504 5.10873586835)
(-31.5867500199 -16.6803077997 4.97621491813)
(-38.802057847 -20.532763996 4.81351678755)
(-44.4986104177 -25.3483686304 4.52927357984)
(-47.9142074487 -30.9637212342 3.94980443658)
(-48.4686081473 -36.4062995332 3.18901520034)
(-46.5210337754 -40.5203628722 2.56078410746)
(-43.2433511371 -42.6908132082 2.12033513405)
(-39.7478745782 -43.6068812853 1.80275439148)
(-36.658103901 -44.0452112588 1.6825820234)
(-34.1527547104 -44.5024875163 1.74141326319)
(-31.8515739961 -45.6009961645 1.80544475639)
(-29.1913771031 -46.9609650115 1.86213180784)
(-25.7386787673 -48.8324139555 1.83465000607)
(-21.1992339542 -50.9846285281 1.81499534752)
(-15.6509774865 -53.1746693096 1.81246305098)
(-9.35309532059 -54.888434759 1.94119817782)
(-3.00109684071 -55.8477995828 2.45233370383)
(-5.3017232392 -14.0623899862 4.34773526444)
(-16.0433724204 -15.0824156715 4.62899551623)
(-25.8907247826 -17.1449937479 5.57803649294)
(-34.7764416422 -20.3294092718 5.29985558208)
(-43.0529134943 -24.9984570617 5.18130104023)
(-49.8401647979 -30.8892764597 4.73595061609)
(-53.9378426897 -38.4232362969 3.76070130575)
(-53.7922756349 -46.0687776911 2.51902764606)
(-49.9881119903 -51.1903287568 1.69511977201)
(-44.8099237326 -53.4208361261 1.08963455628)
(-40.5778359831 -53.9356724175 0.677784095642)
(-37.5765339857 -53.7596140691 0.568610189134)
(-35.8202461504 -53.700527467 0.841027372503)
(-34.2295028619 -54.2468462833 1.03145444156)
(-31.8667010847 -56.0266942462 1.14370829918)
(-28.4614361125 -58.6648881167 1.10354804079)
(-23.6260602413 -61.68145821 1.08874556399)
(-17.5734410673 -64.7691984833 1.05975048685)
(-10.598986312 -67.2841796597 1.13985789675)
(-3.42513192933 -68.759765339 1.59125368453)
(-5.85329703251 -16.2258823315 4.57563859565)
(-17.5810649033 -17.3397426089 4.86151761144)
(-28.3584119002 -19.5534875185 5.81047211401)
(-38.2740033093 -22.9925716582 5.56972666141)
(-47.7177824465 -27.9087244176 5.21583992347)
(-56.5218973502 -34.0106823183 4.4254087874)
(-62.3494081403 -42.0458337755 2.62625818124)
(-61.211433657 -51.988277686 -0.0371572137844)
(-54.5347395639 -56.5142797548 -1.59156125708)
(-46.8723560988 -56.2247228859 -2.39551387508)
(-41.2661860273 -54.6823146345 -2.53594345474)
(-37.7832027199 -53.7725698261 -2.46225874352)
(-36.141289834 -54.2457242301 -1.55830318543)
(-35.8634258275 -57.3591718399 -0.431231839673)
(-35.2315434534 -61.4452616919 0.192184671389)
(-32.2498874917 -65.9614867115 0.287391780087)
(-26.9929516184 -70.3793463619 0.30766253617)
(-20.1797669418 -74.5474008031 0.241370526842)
(-12.2778214694 -77.8937223908 0.232147741646)
(-4.03207238752 -79.8924193117 0.59897351206)
(-6.43559284658 -18.1242444999 4.78055287263)
(-19.2299170492 -19.0887642267 5.11778481601)
(-30.6638469544 -20.969867391 6.40009637511)
(-41.3446118528 -24.536478712 5.71007927308)
(-51.990758957 -29.0753574184 5.13924520345)
(-62.5636035694 -34.3430432111 4.4362624912)
(-71.5246410999 -41.1541100629 2.19230294515)
(-68.7330669735 -57.9348806478 -0.68993419037)
(-55.0300842074 -57.5319499245 -3.12264005874)
(-44.053846289 -47.6946311625 -5.39164868961)
(-39.4685477293 -40.3760197337 -5.76783696613)
(-38.3483400393 -33.8444062483 -9.06364658199)
(-41.1442349012 -33.5107430814 -9.38378168437)
(-43.7516516588 -53.8442187711 -2.15388279399)
(-42.3467821274 -64.1864768343 -0.467459544386)
(-38.3797010011 -71.5522899603 -0.384240110303)
(-31.7979224569 -77.63398857 -0.433951588083)
(-23.6891222641 -82.7547206315 -0.617720310301)
(-14.4564841566 -86.7868214269 -0.71214020309)
(-4.79444770797 -89.2811677295 -0.486024721046)
(-6.82253423321 -19.7525821366 5.02975404856)
(-20.1098587282 -20.4623928813 5.12698035452)
(-32.5597985455 -21.7913127879 5.64813491964)
(-44.1652420993 -25.2848669372 5.61788982685)
(-55.2345451742 -28.714186712 4.85412641803)
(-67.1500136123 -32.0862249865 4.16499280807)
(-85.7242460774 -34.4520468661 1.80499739818)
(-78.7542031869 -53.0397497955 2.14282216824)
(-46.5195824592 -46.9803864806 5.78637964712)
(-32.398532082 -38.9586569035 -1.64871549892)
(-30.5539324799 -34.1766789439 1.25429136698)
(-33.2067725349 -28.9312146631 -1.10056935254)
(-55.7773136622 -32.2089089229 -5.79061963709)
(-66.620035954 -56.485430293 -1.54015431699)
(-53.9834143653 -69.1348609572 -0.611828999458)
(-46.3039595186 -77.1046405796 -0.839265592527)
(-37.5807396026 -83.917422977 -1.17018703406)
(-27.7557549117 -89.3219678102 -1.53668861563)
(-17.092614388 -93.7681951502 -1.72347783158)
(-5.77794479076 -97.1164416629 -1.60581677618)
(-7.13005343484 -21.0792916848 5.27321970858)
(-20.8638048177 -21.7324453989 5.2439476184)
(-34.0495471062 -22.9293363239 5.48224494738)
(-45.839729379 -25.3520536812 6.05683863063)
(-56.487138609 -28.10391438 4.87547673848)
(-67.0506248411 -29.6793779541 3.9515998953)
(-92.4635503803 -29.0192360765 0.31115754978)
(-82.3622256914 -38.8156747575 6.83136735895)
(-42.7426092811 -32.876224086 4.91417861037)
(-33.2589081231 -34.9727759071 1.69987143703)
(-31.2568442518 -37.7421909075 -0.437525312381)
(-38.9103224807 -40.8002744895 3.98018733738)
(-68.8899563199 -51.205648341 6.18051486967)
(-80.7881357887 -65.9007783237 -3.08514572408)
(-64.7120337851 -77.6597691789 -1.13319286443)
(-53.9539755838 -83.721037944 -0.976588143325)
(-43.4147593826 -89.7379860251 -1.87533528998)
(-31.9380025949 -94.7699299253 -2.7027499611)
(-20.4761437922 -98.9569443192 -2.87727039602)
(-7.35205680399 -102.212028697 -2.46097800648)
(-7.43550335603 -22.4835812624 5.45704186927)
(-21.49381823 -23.0507169702 5.32772554997)
(-34.5647276529 -24.1453779489 5.52647264914)
(-46.6825279987 -25.7880266152 5.3564891133)
(-57.2529979307 -28.1221524561 4.67027568225)
(-67.2852993338 -28.3771452815 2.88987551641)
(-94.6634202279 -29.6851581833 -0.576431319253)
(-84.2069018621 -20.7163064257 1.19531888165)
(-44.625208171 -26.8246563598 2.27268760445)
(-39.1117184965 -31.6719528796 -0.324578452984)
(-37.8723434817 -44.6631665721 1.03238117716)
(-47.006465233 -50.5297072341 4.62965048261)
(-81.5837840766 -63.8339595229 7.21516180054)
(-94.3924947001 -74.4886121411 -6.48217451124)
(-73.8299334079 -85.6788099088 -3.8294702605)
(-59.5254245746 -89.9412373765 -1.90898058613)
(-48.2295125565 -94.7310884259 -2.63907080503)
(-35.4332598001 -99.0077566934 -3.76692447118)
(-22.7859993845 -102.386028811 -3.74507760161)
(-8.23530237124 -104.381543235 -4.37204268709)
(-7.65516877998 -24.1284249969 5.62754801104)
(-22.0111960118 -24.7203970433 5.47274337207)
(-35.0521407861 -25.7310920668 5.58420215192)
(-46.9912971977 -27.4871660933 5.41568890332)
(-56.7388340849 -29.6531188737 4.43011192538)
(-68.0857435381 -31.2344024822 2.29804794742)
(-86.0024305203 -30.0289425828 6.93654067756)
(-80.4781953772 -8.16695445627 -6.87904391764)
(-55.4215836313 -16.4163090502 0.879272265755)
(-51.8298627412 -32.2499798411 -1.91897451537)
(-51.6964886631 -50.3786748017 5.10215837303)
(-58.5279467706 -69.2128557421 2.69933950399)
(-93.8624638937 -84.5790974438 3.80147825923)
(-104.314163327 -82.3450064772 -8.26718007937)
(-82.3500101059 -90.3541677993 -5.02699402669)
(-64.1567381526 -93.9672781832 -3.47299906114)
(-52.2511227476 -97.2447344319 -3.65437176969)
(-38.1814839171 -100.580595781 -4.5094257646)
(-24.1595413497 -103.2869843 -4.96419055801)
(-8.59358035214 -104.682380526 -5.48054256435)
(-7.98284385436 -25.4004929589 6.06192143877)
(-22.5371439332 -26.549568434 5.4612519182)
(-35.4904053813 -27.4692896866 5.53182187048)
(-47.7008179847 -29.2557017752 5.38568977978)
(-58.5868219074 -32.3006400051 5.3227683358)
(-66.7089067756 -35.4492451949 4.11430423141)
(-73.6771877844 -34.0866052421 8.08824244063)
(-72.7491267813 -24.8546268486 7.81785892986)
(-69.0672789264 -31.8095542043 10.2307274469)
(-72.4988803971 -51.1905370849 8.51729919774)
(-74.3578933064 -64.8755295745 7.02829087756)
(-81.3349985351 -87.8423874053 2.23899644383)
(-95.8983961745 -97.9055547427 -0.964189032853)
(-101.945588207 -90.9357191163 -3.64152452353)
(-87.3592149421 -90.24152979 -1.68473637567)
(-67.4861143318 -94.2441247265 -3.76605204357)
(-54.7326422671 -96.6229546108 -4.75006890049)
(-40.255780628 -99.2486633785 -5.57743898408)
(-25.3234445626 -101.441699211 -6.11305062191)
(-8.95300769941 -102.758207194 -6.63948536522)
(-8.7296166952 -26.3221114875 5.65276076538)
(-23.524796581 -26.8910062554 6.27832249043)
(-35.9612702473 -28.4610264761 5.56692273626)
(-48.9090024739 -31.1454034516 4.81292448718)
(-60.3704991044 -34.7641113984 4.69466061281)
(-68.853176619 -38.4194619555 4.27415484931)
(-75.2799432046 -42.5283815852 4.44875133501)
(-78.6272345718 -46.0518670868 3.65999511366)
(-80.9254783963 -56.2176024749 3.71978608964)
(-84.8720839918 -66.9873418528 3.22267932954)
(-88.9788548079 -76.9498814958 2.3827976901)
(-94.0846298346 -88.7634473121 0.814141153353)
(-98.8224937122 -94.2489674538 -0.76441172625)
(-97.9790455095 -92.2925502981 -2.88050939349)
(-87.3685907589 -87.8612176815 -3.66311186623)
(-71.8919729122 -91.1045672771 -5.00618631009)
(-57.3148466605 -93.2965965557 -5.94698833649)
(-41.9966663266 -95.34814214 -6.74279776529)
(-26.3341204797 -97.0185455526 -7.30443109211)
(-9.31900893635 -98.1634172337 -7.80776554571)
(-8.43171650401 -26.5794457311 5.44146299646)
(-24.1989679388 -26.5322092895 5.37376685936)
(-38.3190258815 -28.5037342183 5.09593100919)
(-51.5860656586 -31.8196590098 4.49578393427)
(-63.4891670759 -35.5826941095 3.91039656313)
(-73.4117714526 -40.1288091981 3.14867548442)
(-81.4615245232 -45.5074901612 2.47925122001)
(-87.0298166327 -51.4898278559 1.92581577533)
(-90.780839785 -59.6827880227 1.31301860095)
(-94.4009002829 -68.3637969947 0.261425700662)
(-97.5630088484 -76.1180059162 -0.86518299211)
(-99.9716819605 -82.8599601244 -2.07739349794)
(-100.334745238 -86.2526207465 -3.19217290767)
(-96.4731679991 -86.3691443658 -4.39261319114)
(-87.0342591683 -84.9253891043 -5.48244774183)
(-73.7118321378 -85.998135987 -6.4090646925)
(-59.005219942 -87.404210652 -7.23757084888)
(-43.2848822839 -88.8691629777 -7.83857505084)
(-27.174528473 -90.0986471814 -8.47678204474)
(-9.68257260379 -90.9774286558 -8.91004572571)
(-8.58733024487 -25.5795953939 5.21410002934)
(-25.095486842 -26.0589452991 4.90802922521)
(-40.3412589591 -27.6100037735 4.62457513344)
(-54.350264226 -30.2990102894 4.05340356699)
(-66.9239531905 -33.8149877584 3.3435409823)
(-77.6699209337 -38.0714044401 2.45667864233)
(-86.4476642082 -42.87894096 1.57611178519)
(-93.1960990368 -48.039654697 0.748091038547)
(-98.2853189024 -54.4153108184 -0.11763317534)
(-102.090925104 -61.1876692728 -1.17214791782)
(-104.362664352 -67.4064163019 -2.34023526522)
(-104.793925717 -72.4771176525 -3.53104017069)
(-102.664382544 -75.5229624449 -4.68985574734)
(-97.0380327171 -76.7543907852 -5.74487903846)
(-87.4944037645 -77.036839901 -6.73438102819)
(-74.8145589362 -77.7863976939 -7.60614195237)
(-60.1832948896 -78.8198267671 -8.32244684021)
(-44.2606911131 -79.8697455742 -8.92997237928)
(-27.8745645899 -80.7552838157 -9.44986101961)
(-9.9392181924 -81.3692652506 -9.85042522951)
(-8.87029000275 -23.3607397119 4.93223832195)
(-25.9849173709 -23.9424525641 4.56794102029)
(-42.0783600891 -25.2463294791 4.17907537864)
(-56.9263403784 -27.3916875029 3.6712975713)
(-70.2017841662 -30.3896229882 2.89581934597)
(-81.7035631359 -33.9734043805 1.93648584619)
(-91.2324917616 -38.1911157398 0.914671960775)
(-98.6951220523 -42.8547651075 -0.123958114781)
(-104.175950004 -47.9857340046 -1.18916166998)
(-107.757424373 -53.1181644405 -2.3182417873)
(-109.248494807 -57.7506677867 -3.47573313515)
(-108.36925658 -61.5058133167 -4.60711800346)
(-104.769045362 -64.0352359769 -5.69198190376)
(-98.1179364701 -65.4674369727 -6.71313599986)
(-88.2846372061 -66.2793113197 -7.62387276599)
(-75.6858105425 -67.0399608485 -8.45649743289)
(-61.0583071193 -67.8516671282 -9.21650941456)
(-45.0070521927 -68.6410667661 -9.79350391062)
(-28.3931347144 -69.2401256872 -10.2343915064)
(-10.1187001131 -69.6302494848 -10.6456348819)
(-9.14813317867 -19.848056932 4.73413198956)
(-26.8474415617 -20.3370336444 4.24271683231)
(-43.524975163 -21.3969912358 3.79606847056)
(-59.0742105256 -23.0421227591 3.25786641311)
(-72.951612684 -25.3318522958 2.66798818543)
(-84.9843530995 -28.1809570004 1.5845112728)
(-95.0845127869 -31.5154627719 0.517400880094)
(-102.948097048 -35.2013799568 -0.599958314607)
(-108.593212965 -39.1077121241 -1.7542192386)
(-111.954143055 -42.9446790136 -2.93786786382)
(-112.878734356 -46.3889152293 -4.13426079404)
(-111.203507116 -49.2113778793 -5.2920854832)
(-106.726159319 -51.2808199884 -6.39663407517)
(-99.3686083655 -52.668067844 -7.43107428425)
(-89.1765749473 -53.587295741 -8.35538612272)
(-76.4683571174 -54.3363686554 -9.22607754808)
(-61.7713138755 -55.0183779871 -9.93496785052)
(-45.596494252 -55.5874096769 -10.4392851552)
(-28.7195137777 -55.9530413498 -10.8234261577)
(-10.2059140877 -56.1042315821 -11.1986663204)
(-9.34664057649 -15.1163145385 4.45922512205)
(-27.5052517653 -15.5021876695 3.99388976226)
(-44.673178972 -16.2120194916 3.52680558832)
(-60.6325978336 -17.3920149694 2.94561358856)
(-75.0301439646 -19.0401264877 2.22310400415)
(-87.5358090661 -21.1497645442 1.29948312907)
(-97.945195195 -23.541036313 0.249714397927)
(-106.054484817 -26.1884166125 -0.879202234184)
(-111.763212062 -28.9476973929 -2.05683751601)
(-114.952472909 -31.6455301402 -3.28160904738)
(-115.5083846 -34.0927896208 -4.50586701014)
(-113.328057503 -36.118608577 -5.6976142738)
(-108.307423824 -37.6844806188 -6.83113516282)
(-100.499675128 -38.8254890426 -7.89798990401)
(-90.0152366018 -39.6415381588 -8.8243267167)
(-77.1496716878 -40.2817927689 -9.6676557261)
(-62.3350238473 -40.770666026 -10.3571432544)
(-45.9609236726 -41.1024350478 -10.8692743441)
(-28.831133356 -41.2852419768 -11.2561863703)
(-10.1773865953 -41.1175176095 -11.6079373629)
(-9.54556996007 -10.1599991479 4.34437816826)
(-27.9858473339 -10.1845730462 3.89260228846)
(-45.4410537539 -10.5858120661 3.32250480174)
(-61.8523240614 -11.2468295381 2.69697772923)
(-76.5897176461 -12.1139606173 2.00023472574)
(-89.3158815354 -13.3536357421 1.08378296039)
(-99.9475980865 -14.8316499734 0.0087795147061)
(-108.203179241 -16.4311961485 -1.14112944299)
(-113.93541552 -18.1408744532 -2.37015814032)
(-117.020507687 -19.8047779922 -3.62483117019)
(-117.332335225 -21.3156560068 -4.86574092068)
(-114.828372669 -22.5791951517 -6.0709613698)
(-109.483985286 -23.5871170896 -7.22405185984)
(-101.378144118 -24.3566245945 -8.28688982114)
(-90.6912331168 -24.8949114312 -9.24221650275)
(-77.6738800454 -25.2958830412 -10.0415446644)
(-62.6778510946 -25.5711060525 -10.7165210804)
(-46.1571669259 -25.6914839602 -11.2101493416)
(-28.698071294 -25.6468664908 -11.5733793991)
(-9.94951180913 -25.1619982614 -11.8958205982)
(-9.41735484648 -3.93114626486 4.18159737088)
(-28.0550903128 -3.76402343418 3.93886300687)
(-45.8637554884 -3.91022708 3.59952009678)
(-62.2830524844 -4.1030293105 2.96972997626)
(-77.2390898039 -4.2553499228 2.04108963394)
(-90.345186911 -4.66233701554 1.04694883354)
(-101.123279868 -5.18647324141 -0.084923181202)
(-109.476010704 -5.73576546177 -1.35835573281)
(-115.261099989 -6.35136328924 -2.62535018073)
(-118.262619276 -6.94858349605 -3.92736043245)
(-118.450283444 -7.48331071916 -5.21707696872)
(-115.775568435 -7.93428641134 -6.48545662002)
(-110.259766393 -8.29603051466 -7.67255628811)
(-101.97891171 -8.57877019017 -8.76574650694)
(-91.124142533 -8.77152288805 -9.72907272419)
(-77.9784482064 -8.89320970463 -10.5423535135)
(-62.8452512615 -8.9657783795 -11.1660313647)
(-46.11699558 -8.95958358255 -11.6122892454)
(-28.3108642694 -8.83230268957 -11.9098079504)
(-9.62220000782 -8.51091195046 -11.9988540243)
(-3.95349804358 -1.78014696897 11.4522853479)
(-11.7531698968 -1.99978327397 11.48245455)
(-19.2193735725 -2.28629257871 11.4144104517)
(-25.9690696662 -2.76787413944 11.1263071139)
(-31.7184719183 -3.16046377015 11.3442397319)
(-36.1294523081 -3.94791187705 11.380035164)
(-39.0121178163 -4.73518562774 11.598820081)
(-40.2161605582 -5.47280303366 11.569074406)
(-39.9358048243 -6.13996762832 11.5944220927)
(-38.5634621367 -6.64815047135 11.7228767739)
(-36.4886735893 -6.99503084228 11.950265211)
(-34.0538414413 -7.21769240263 12.1682937308)
(-31.4449906374 -7.36058137599 12.3904170505)
(-28.6544157465 -7.50237640934 12.5352288684)
(-25.6130932596 -7.68503780228 12.6233435553)
(-22.1788305033 -7.89601018056 12.612366132)
(-18.1704895912 -8.12764743362 12.4431711333)
(-13.5565814964 -8.33493040825 12.1941792404)
(-8.40835904737 -8.48106548465 11.9404760231)
(-2.89151751927 -8.68585952458 11.8006324811)
(-4.26085435218 -5.17895759594 11.57428636)
(-12.4129257258 -5.64336506662 11.7712284501)
(-20.1318421167 -6.46039138635 11.7834244662)
(-27.0516717188 -7.60831564191 12.0747264093)
(-33.1837805597 -9.40254465968 12.3581968213)
(-38.0510278444 -11.5231253379 11.8410309739)
(-40.9289621758 -13.9057707202 11.4969854522)
(-42.063417282 -16.2165565545 11.1729348426)
(-41.6015906688 -18.2470834037 10.9173542628)
(-39.962037329 -19.7077459036 10.7865830664)
(-37.626120027 -20.6861316178 10.7829883918)
(-35.0163684832 -21.2873324991 10.7979561688)
(-32.3426222214 -21.6761698583 10.8751013224)
(-29.5486710732 -22.09135568 10.9394437214)
(-26.4780916716 -22.6496684156 10.9650811252)
(-22.9485655039 -23.3896443076 10.8831074754)
(-18.7803241054 -24.1875849694 10.7443518912)
(-13.9678151841 -24.9047847974 10.5950479342)
(-8.66764311594 -25.3843186077 10.5533363108)
(-2.98408180101 -25.8411185603 11.0486992584)
(-4.52062750593 -8.3378772575 11.8466615812)
(-13.2197300416 -8.94243618707 12.1378566837)
(-21.3700379774 -10.0768357636 12.2990394614)
(-29.1968701757 -12.0967597407 12.7125825954)
(-36.0270047638 -14.9945096596 12.427542964)
(-41.0918243698 -18.2481911606 11.9243145232)
(-44.2021043336 -22.1978311938 11.2053667371)
(-45.1411949126 -26.1782698841 10.4282448125)
(-44.1206232392 -29.5609586594 9.72014001672)
(-41.7785326511 -31.8204055419 9.26743722767)
(-38.8840139779 -33.217243052 9.00300935625)
(-35.9001332976 -34.0175279839 8.91275879429)
(-33.1117712923 -34.4843239725 8.97513521197)
(-30.4011134049 -35.0996492433 9.08758674487)
(-27.4933243806 -36.0504735816 9.12425397104)
(-24.0456531254 -37.4173373566 9.05252034449)
(-19.7828982532 -38.8887463545 8.97341484763)
(-14.6782451227 -40.2813060672 8.88403963619)
(-9.08229959141 -41.3037984129 8.97984824145)
(-3.11739887416 -41.9958240059 9.67390239724)
(-4.88259224041 -11.2479595607 12.3286523615)
(-14.2261728789 -12.0873329191 12.7232226952)
(-23.4365149932 -13.5605165257 13.3195317964)
(-32.2002631739 -16.3924127293 13.3168119265)
(-39.5731770116 -19.7163325066 12.7428316856)
(-45.4407159006 -24.0101038726 11.956033358)
(-49.021367763 -29.497330492 10.6256730827)
(-49.6024081396 -35.3106012472 8.90875436602)
(-47.4847771417 -39.7503307991 7.53469745369)
(-43.9118707755 -42.3072422451 6.64137718825)
(-40.1208126003 -43.5914480876 6.18168384146)
(-36.6038965635 -44.2818553206 6.08031167365)
(-33.7425114445 -44.7494996148 6.42347106804)
(-31.3189358903 -45.8618165284 6.89530944476)
(-28.8003989497 -47.4581671028 7.06713886309)
(-25.5744391324 -49.5884043732 6.98099764189)
(-21.2778554714 -51.8300636848 6.92010088985)
(-15.930526044 -54.0063301961 6.83148712324)
(-9.85963002507 -55.6990397357 6.91855297287)
(-3.37845658416 -56.7837469177 7.64855327125)
(-5.3536384376 -13.7873590995 12.8790964381)
(-15.6141868893 -14.8084387348 13.3529918203)
(-25.8909288796 -16.6403001464 14.0731965434)
(-35.7215773883 -19.4462308214 13.6896347692)
(-44.0292138678 -23.2206994651 12.9453181429)
(-51.0913108105 -28.4474755068 11.8410476699)
(-55.496726428 -36.0470484373 9.58795972654)
(-55.3028985775 -44.5946183864 6.3215389115)
(-51.1191733507 -50.5190176883 4.21317605631)
(-45.6687220636 -53.3988519629 2.67256575677)
(-40.821236531 -54.3033467906 1.98228008548)
(-36.9942026546 -54.4279801748 2.29000648627)
(-34.6147521414 -54.2939920992 3.3723000393)
(-32.9150056059 -54.9019193483 4.3703568986)
(-30.8471610158 -56.8989470133 4.7388597263)
(-27.8486681078 -59.843428459 4.72680744716)
(-23.4726839362 -62.9951840163 4.59415287652)
(-17.7672867201 -66.022166801 4.41605819248)
(-11.0591852234 -68.4089426465 4.42855884241)
(-3.7760069241 -69.9212796856 5.03706713914)
(-5.91213363355 -15.9460099768 13.5692948104)
(-17.2148668321 -17.010425683 13.9445626325)
(-28.5180397577 -18.6840266013 14.4563775768)
(-39.4963118651 -21.3048884868 13.8753978452)
(-49.1841719315 -24.9714477183 12.648476646)
(-58.5956012638 -30.1480597311 10.7648181635)
(-65.3638481175 -38.3398247391 5.87427970412)
(-64.0459125722 -49.7187317547 -1.85713254707)
(-56.0971618391 -56.0332109649 -5.43542539443)
(-47.5818010415 -57.6121435065 -7.12751071064)
(-41.0408569952 -57.0125674619 -6.58102781356)
(-36.4145656881 -58.7148789203 -3.6899541805)
(-33.8480263579 -59.9737069274 -0.200179345771)
(-33.4652161453 -58.9000557269 0.789264793502)
(-33.240063917 -62.6838390639 1.82235076667)
(-31.0286828758 -67.4945790798 2.20669156711)
(-26.6023585793 -72.1001185043 2.12365667477)
(-20.3337660596 -76.1791348961 1.74342810203)
(-12.7038132045 -79.3006405886 1.58392376445)
(-4.33023345159 -81.2381259074 2.0094648477)
(-6.46778967708 -17.8135953556 14.246974413)
(-18.6271479059 -18.8327699229 14.5212418585)
(-30.9538919203 -20.3845858129 15.087727992)
(-43.0319204499 -22.2446257979 13.9312265727)
(-53.6494662581 -25.1240084444 12.6996859859)
(-64.9035030893 -29.1780678421 11.1281777464)
(-75.4366855868 -35.6449128544 2.12488853958)
(-73.1908966935 -49.672302768 -16.181213984)
(-59.7579882218 -47.3979737997 -23.7910485737)
(-47.2450876597 -44.5488350144 -24.855050034)
(-42.2123505159 -37.2923463904 -21.2541551975)
(-40.2743202604 -33.9248052725 -16.0093230785)
(-34.8279321556 -37.0427069999 -5.5078444842)
(-35.319532303 -54.7918144451 -2.27958794516)
(-39.0472292303 -65.3772739959 -0.467326631728)
(-36.809377567 -73.3216384821 0.0455512700065)
(-31.4307144364 -79.6538425942 -0.315108106358)
(-23.9444726996 -84.7043832284 -1.00439679055)
(-14.9085984684 -88.402023964 -1.46157817235)
(-5.08430610143 -90.747787552 -1.31825036547)
(-7.0007523767 -19.3904106002 15.1139906604)
(-20.1719865957 -20.2226424758 14.7215818764)
(-32.8694369725 -21.4860759167 14.8593205567)
(-45.4399039512 -22.3439392502 13.9097768502)
(-57.0493176176 -24.1890421392 12.7090103694)
(-69.3682151349 -26.4834307144 12.1271066103)
(-86.4883679867 -29.0992842736 -0.00806319581423)
(-76.1329090258 -40.6368262891 -58.5467332037)
(-51.171299926 -35.7265919802 -36.2224079211)
(-36.5916327894 -30.6498302682 -15.9239214116)
(-29.0454559355 -27.8726488725 10.5980432269)
(-34.7432235549 -19.8214325361 34.2212637267)
(-51.6293110401 -22.3712779602 56.5429358542)
(-59.938743979 -56.4954493733 3.54349677409)
(-50.8296447192 -70.0076651088 1.05346495986)
(-45.0247469704 -78.8606974978 -1.20055247974)
(-37.4840772461 -86.144638027 -2.60726154077)
(-28.2031817489 -91.6226604433 -3.91289475865)
(-17.5595435819 -95.6070268229 -4.73666300556)
(-6.02650272865 -98.461594643 -4.80784519733)
(-7.35774998513 -20.7416158726 15.8352801918)
(-21.1303311083 -21.4023727263 15.1850249314)
(-34.022685929 -21.9710705849 15.3290993007)
(-46.8840049301 -22.653524285 14.5615575974)
(-58.7406918496 -23.2932941908 13.1146259674)
(-70.3109777303 -24.6844425523 12.4537438379)
(-90.1948687287 -24.1621080226 -0.634216970685)
(-78.5404020319 -33.1462792987 -48.9557300357)
(-47.986240081 -30.7528922539 -36.8043886747)
(-37.4536343111 -30.584607201 -15.0553973304)
(-28.9118337109 -35.7413144709 10.1323777615)
(-32.4485313588 -36.021689722 24.2564737834)
(-68.4477437282 -41.8896083192 67.2936174589)
(-82.2462212819 -68.2454053668 -3.66164135255)
(-60.6380272601 -79.8578894642 1.06069809806)
(-52.8682338481 -85.6758317664 -0.62344371919)
(-44.054278448 -92.0803006927 -4.85145806164)
(-32.6979299552 -97.2342654955 -7.21002017565)
(-20.6436624874 -100.745139262 -8.29149799164)
(-7.29531866171 -104.108648706 -8.05826438649)
(-7.68791266239 -22.1930953078 16.4137659722)
(-21.7806346646 -22.7106017364 15.5558531661)
(-35.0263701448 -23.0083921866 15.867632932)
(-47.8643149179 -23.3240713683 14.5957204405)
(-59.7076359022 -23.4912424485 13.7861885267)
(-70.9712221782 -23.7749881396 10.6452314613)
(-95.441990851 -18.6634969703 -1.46753084549)
(-81.6760136999 -25.6187822699 -54.2626158424)
(-47.2011669201 -26.0421835691 -36.8401061679)
(-40.7612502445 -30.7906185696 -14.8024769177)
(-33.6106157079 -38.5512802768 10.7982228013)
(-40.4932996065 -49.4258969082 29.1182904554)
(-83.1598852761 -63.6854241791 72.1336075598)
(-97.8689558541 -77.1206199098 -6.71202630503)
(-68.2788306444 -88.4215453236 -6.21824669498)
(-57.3284808913 -92.7258506472 -4.05669659787)
(-49.0257231178 -97.3045978162 -7.40345737297)
(-36.2954671474 -101.239498225 -10.1773135201)
(-23.4043294293 -104.230216797 -11.5022567538)
(-8.75861096518 -106.410877961 -12.8999649471)
(-7.86048088178 -23.6686664198 16.6071453312)
(-22.2636259564 -24.4394205386 16.0273748656)
(-35.4790460504 -24.655732803 16.1512255246)
(-48.3849558668 -24.4751980238 15.4718647581)
(-59.6587586154 -24.1154674776 14.1113346818)
(-66.5828694802 -24.1189099677 7.40081189121)
(-92.5011832879 -17.0894770785 9.37423672744)
(-86.1371938571 -1.35138879523 -64.5959483512)
(-52.3172488294 -9.34409701759 -27.9890962326)
(-48.9771230629 -23.5796219544 -10.6994933167)
(-46.300435599 -42.7937901321 16.8213782151)
(-56.3877253971 -67.1805606334 32.2954026981)
(-95.7668167807 -86.9093537896 69.3006199145)
(-107.096183801 -80.0121406199 -9.2088211114)
(-76.4472353922 -89.8057361112 -7.95028533172)
(-61.9861256192 -96.5144143095 -8.54483635862)
(-52.673045795 -100.062397589 -10.6751488712)
(-39.2285409956 -102.853192885 -13.1814156062)
(-24.886795208 -105.320753877 -15.0786339617)
(-8.8989353143 -106.221394441 -16.4672513336)
(-8.41726171737 -25.311076387 16.7287118301)
(-22.9838781054 -25.7966016147 16.4928465419)
(-35.8015247826 -26.5037356107 16.2636140318)
(-48.235840155 -26.8764824588 15.7215249275)
(-59.8310789079 -27.1380359021 15.7474984103)
(-64.8790833761 -27.7001969908 14.387206534)
(-70.7242878124 -29.4428724393 17.2880765426)
(-70.2060161784 -9.53094327871 29.6226296597)
(-66.6034047589 -22.3227928932 34.8421806104)
(-72.5241746653 -40.1152291445 31.0134072861)
(-75.9931244375 -60.4471661507 25.9226468876)
(-83.7203649183 -85.2213547829 18.2668885995)