/*--------------------------------*- C++ -*----------------------------------*\
| =========                 |                                                 |
| \\      /  F ield         | OpenFOAM: The Open Source CFD Toolbox           |
|  \\    /   O peration     | Version:  v1606+                                |
|   \\  /    A nd           | Web:      www.OpenFOAM.com                      |
|    \\/     M anipulation  |                                                 |
\*---------------------------------------------------------------------------*/
FoamFile
{
    version     2.0;
    format      ascii;
    class       volScalarField;
    location    "5.7";
    object      k;
}
// * * * * * * * * * * * * * * * * * * * * * * * * * * * * * * * * * * * * * //

dimensions      [0 2 -2 0 0 0 0];

internalField   nonuniform List<scalar> 
11640
(
0.00028468540478
0.000342871579796
0.000380841993216
0.000402726993203
0.00041425421242
0.000418673076205
0.000418157141077
0.00041513451176
0.000411228921862
0.000407258449754
0.000403758558525
0.000401218352154
0.000400572547648
0.000401689038526
0.000402726118765
0.000400536700832
0.000391018591961
0.000369705721168
0.000332018526868
0.000275196223147
0.000345007090955
0.000568098531542
0.000691903789435
0.000763806037819
0.000806150784528
0.000826570768891
0.000828631507795
0.000818952438566
0.000806237000557
0.000794377651103
0.000784113754311
0.000779579270481
0.000781427855765
0.000785092632652
0.000784976279134
0.000774865755951
0.000747515738217
0.000685628548205
0.000562536890771
0.00033388712716
0.000383474597384
0.000692059371863
0.000871706309108
0.000989263453904
0.00106127595153
0.00108941072656
0.00108125829653
0.00105374938289
0.00102228303792
0.000991808556329
0.00096503894632
0.000960742245229
0.000966287566124
0.000975629185824
0.00098092251767
0.000970955085438
0.000932794663036
0.000849655121716
0.000686699726244
0.000371611944403
0.000404920665657
0.000766120990368
0.000994720417852
0.00114942561144
0.00123406211953
0.00125312308745
0.00122252130858
0.00116854270587
0.00111286426632
0.00106017176334
0.00101849442784
0.00101754885962
0.00102925806986
0.00104961083627
0.00106744210609
0.00106739636591
0.00103170009101
0.000937556593021
0.00075123145946
0.000393009109236
0.000417473706874
0.000815708570403
0.00108052550184
0.00125238361662
0.00133175422499
0.00132647158127
0.00126101042215
0.00117579249189
0.00109614399944
0.00102348671864
0.000974396283515
0.000978855317549
0.00100149183821
0.00104264756188
0.0010826961603
0.00110080981821
0.00107645128256
0.000984275416882
0.000785750905541
0.000404534826656
0.000425637671143
0.000845743087014
0.00112784766462
0.00129929114614
0.00135726721797
0.00131015904711
0.0011892547871
0.00106144974168
0.000961530886119
0.000878687496454
0.000833856623241
0.000844356171488
0.00088470285626
0.000965480084336
0.00104670884615
0.00109388894414
0.00108754632479
0.00100434396334
0.000804336628464
0.000411788991272
0.000428451695062
0.000855613240055
0.00113959667379
0.00129925099766
0.00132575916752
0.00122122475252
0.00101506803431
0.00082490055358
0.00071580303994
0.000641236789536
0.000619394225242
0.000632652462984
0.000691658085769
0.000830692693587
0.000976227268671
0.00106441006219
0.00108083646639
0.00100905366057
0.000812261009188
0.000416536910887
0.000426329309807
0.000850928870532
0.00112815194088
0.00127294042587
0.00127015184828
0.00111510512297
0.000828053110164
0.000607780356126
0.000509999912911
0.000462576741227
0.000445754283742
0.000461978326417
0.000532388169286
0.000700586452749
0.000907019083352
0.00103261050484
0.00106909381071
0.00100687607263
0.000813574984296
0.000418264862015
0.000422657630372
0.000844243589038
0.00111552064207
0.00125067913358
0.00123194190105
0.0010521041576
0.000735055123956
0.000506897462759
0.000407783882302
0.000369926309383
0.000361399274359
0.000384349215506
0.000463982568856
0.000638314185639
0.000870121950689
0.00101560226989
0.00106378976496
0.00100684308898
0.000814989338506
0.000419453717558
0.000420340154474
0.000844253737143
0.00111597870452
0.00125022944673
0.00122980891058
0.00104553016829
0.000719773301656
0.000480677251588
0.000378874065831
0.0003457109504
0.000342935799637
0.000369741798851
0.000455501237605
0.000636404326643
0.000875991156244
0.00102545887874
0.00107467255035
0.00101621951966
0.000821358554332
0.000421570077893
0.000420039531809
0.000852763721014
0.00113120456505
0.00127488496052
0.00126867325547
0.00110442255815
0.000796394576694
0.000548252994168
0.000445453728297
0.000406248811057
0.000399751778232
0.000427971790339
0.000515182355354
0.000700416511918
0.000929163868184
0.00106535432193
0.00110395857996
0.00103689170436
0.000834103750908
0.00042531641591
0.000420102041478
0.000864914068636
0.00115549940958
0.00131791547495
0.0013450051334
0.00123819317516
0.00101839970668
0.000815944678164
0.000717337786355
0.000663043381814
0.000614979517222
0.000637397664784
0.000717617168023
0.000877962555703
0.00104353919586
0.00113835571229
0.00115196319086
0.00106832012245
0.000852078559527
0.000429433117228
0.000417552154448
0.000869822095375
0.0011701793551
0.0013532767037
0.00141862518587
0.00137506370505
0.0012496083405
0.00111539648447
0.00102132170933
0.000945480248687
0.000912883340254
0.000940467171586
0.000998771250225
0.00109199451044
0.00118172666281
0.00122703149817
0.00120941173489
0.00110396250574
0.000870715905707
0.000432096073223
0.000412101516354
0.000861382017847
0.00116003908434
0.00135705134109
0.00145468134894
0.00146313901796
0.00140606823507
0.00132751917881
0.00125386727782
0.00118644929335
0.00116890651749
0.00118912432594
0.00122216003467
0.00126543427097
0.00130123079398
0.00130627369365
0.00125930749157
0.00113173502216
0.0008831548809
0.000432015641304
0.000406986785801
0.000843065499414
0.001123512573
0.00131960101453
0.00143639248388
0.00147980323843
0.00146608981134
0.00142409618272
0.00137662637194
0.00133376489348
0.00133020594885
0.00134282932473
0.00135865841429
0.00137369960763
0.00137828020861
0.00135522058313
0.00128469125458
0.00114059858154
0.000883967436738
0.000429480556116
0.000400637295982
0.00081834696812
0.00106882605026
0.00124318241557
0.00136005492098
0.00142132385802
0.00143578929605
0.00142319311176
0.00140219698269
0.00138694846621
0.00139180257732
0.00140014334989
0.00140612690798
0.00140661784416
0.00139361346548
0.00135367412665
0.00126992283304
0.00112015002615
0.000867754442497
0.000423721188264
0.000387762565168
0.000776792951817
0.00100049078788
0.00114204633765
0.00123837893685
0.00129795056147
0.00132553657086
0.00133278969155
0.00133414747048
0.00133967026608
0.00134783964234
0.00135419703852
0.00135648000226
0.00135117572332
0.00133121126433
0.00128597062308
0.00120201104051
0.00106049896853
0.000825625116725
0.000410436168404
0.000364262650493
0.000699262774611
0.000892312268036
0.00100896171811
0.00108131123571
0.00112633929772
0.00115346302338
0.00117088637357
0.0011823290046
0.0011913704904
0.00119855351578
0.00120337681036
0.00120453082063
0.00119871713635
0.00117980933666
0.00113984346026
0.00106767195317
0.000946348809905
0.000743332162398
0.000384539090636
0.000325915934902
0.000564584827431
0.000703887837248
0.000788605061575
0.000840423442524
0.000871645901088
0.000892334693678
0.000905446549543
0.000914180111122
0.000920630161347
0.000925593476916
0.000929134612862
0.000930288588193
0.000926468497849
0.000913541084912
0.000885529588655
0.0008337789224
0.000745832062427
0.000598104772266
0.000340598890296
0.000270694596346
0.000329025677748
0.000369159229226
0.000394398278379
0.000410040685176
0.000419405157388
0.000425128395238
0.000429686857915
0.000433078254153
0.000435809654753
0.000438200905368
0.000440114023265
0.000441329316708
0.000440953651213
0.000437796049968
0.000429763777309
0.000414169157102
0.000386973941376
0.000342136683671
0.000275301891159
0.000464433162239
0.000628059646298
0.000732926721009
0.00079125162506
0.000818670295862
0.000827328509263
0.000828103458015
0.000827136219818
0.000826492981153
0.000826527102186
0.000826573920856
0.000825047114304
0.000823530236955
0.000823403933082
0.00082315201307
0.000816077278165
0.00078979064659
0.000730750793071
0.000623265513258
0.000456246578607
0.000632386614842
0.0012120275493
0.00149586647698
0.00164911721914
0.00172750374836
0.00176206790981
0.00176854835097
0.00176061390393
0.00175088114357
0.00174444734393
0.00173923481578
0.00173121549788
0.00172429921321
0.0017204288343
0.00171478937927
0.00169471400748
0.00163372771042
0.00149007432462
0.00120820232101
0.000625250201054
0.000738280954091
0.00149752181728
0.00186910511652
0.00208089949606
0.00219068546597
0.00222768078486
0.00221933714992
0.00219338013689
0.00216891090942
0.00214955034775
0.00213006018502
0.00210254765538
0.00208403961099
0.00207886503729
0.00207964388365
0.00206698691932
0.00200718619778
0.00184321521276
0.00149193401822
0.000732007328433
0.00079476162076
0.00165090515256
0.00207912946542
0.00232264171472
0.00243532336152
0.00245119218084
0.00240750372597
0.00234818613767
0.00230041267479
0.00226404482162
0.00222641826477
0.0021815878962
0.00215744283402
0.00216257047163
0.00218364221412
0.00219499339112
0.00215518972818
0.00200239035171
0.00163537824496
0.000790289701598
0.000819193111731
0.00172424762067
0.00218206586748
0.00243198203099
0.00252425782524
0.00249246976914
0.00238421868313
0.00227194298462
0.00219442388116
0.00214176200706
0.00208925321248
0.00203565822254
0.00202110869752
0.00206441386401
0.00212976409774
0.00217935156543
0.0021716134141
0.00204375547389
0.00168877581206
0.000815850749686
0.000825540005974
0.00174635250453
0.00221076862414
0.00244686984468
0.00249540338872
0.00238218274776
0.00215929536108
0.00195897689006
0.00184798365229
0.00178736710384
0.00172704926672
0.00167338626901
0.00169070979517
0.00182565082269
0.00198197161879
0.00209287635385
0.00212510626859
0.0020267376645
0.00169255852407
0.000823042007264
0.000822575885986
0.00173919083867
0.00219463480438
0.0024036304073
0.00239266316006
0.00216700878216
0.00175118219127
0.00138958607465
0.00125405217189
0.00121580781166
0.00116343604091
0.00112103820415
0.00118858877992
0.00147842827877
0.00178575419726
0.00198542170385
0.00206562946953
0.00199577501502
0.0016802569604
0.000822980557655
0.000816726015168
0.00172261963214
0.00216304803148
0.00234405056261
0.0022796527567
0.00195347815913
0.00133328576853
0.000897343205203
0.000774738200976
0.000770077787
0.000757594825599
0.000739462859822
0.000830954383345
0.00115453889894
0.00161098400493
0.00189837385183
0.00202240983516
0.00197447820037
0.00166999240104
0.000821378161696
0.000812658026207
0.00171318546706
0.00214413912333
0.00230915892024
0.00221739435892
0.00184626830308
0.00116391809507
0.000722686054753
0.000587201906988
0.000583604427663
0.000579748455957
0.000572295909127
0.00067673143184
0.0010110348438
0.00152746055687
0.00185920582787
0.0020075998395
0.0019705913225
0.00166926974902
0.000821803446224
0.000813889185627
0.00172070624098
0.00215368064832
0.00232023685514
0.00223035664229
0.0018611498628
0.00117889480469
0.000725814322385
0.000584506638711
0.000582444173826
0.000580297526878
0.000569471957275
0.000674586587825
0.00101905523806
0.00154599023159
0.00188288614242
0.00203129367309
0.00199028689355
0.0016823586429
0.000825905539562
0.00082177995957
0.00174773309708
0.00219540524332
0.0023827532632
0.00232644635565
0.00201135633599
0.00140395567968
0.00094535286966
0.000805054015013
0.000803879941921
0.000797510939016
0.00076780616628
0.000851170236612
0.00119708392551
0.00167942479399
0.00197747526131
0.00209883397859
0.00203740598216
0.00171197623338
0.000835139467541
0.000835247581557
0.00179019608785
0.00226263907715
0.00248674116502
0.00249494029591
0.00229736534692
0.00191536881714
0.00152919549635
0.00138843308922
0.00136953417123
0.00135809572533
0.00132095881567
0.00138474025112
0.00165209236166
0.0019584542424
0.00215072472737
0.00221397960325
0.0021152304105
0.00175983552728
0.000849216182396
0.000850976289752
0.00183639266925
0.00233503306338
0.00259974219509
0.00267808783451
0.00260060759616
0.00241460114609
0.00222853891594
0.00213286198259
0.00209442711217
0.00205581786536
0.00202737572612
0.00205017066598
0.00215551623414
0.00228706106433
0.00237051688791
0.00236828629867
0.00222137542284
0.00182329515427
0.000866934150566
0.000863442745219
0.00187097462688
0.00238917320293
0.00268832177804
0.00282519857501
0.00283855410233
0.00277466111237
0.00269885169863
0.00264945996414
0.00262060694705
0.00258573168713
0.00255399101252
0.00254183577709
0.00255862327219
0.00258818023379
0.00259474031524
0.00253319891868
0.00233411341901
0.00188629298108
0.000882083193552
0.000866597225548
0.00187906215576
0.00240234450832
0.00272211312998
0.00289916075409
0.00297192232555
0.00297879117641
0.00296172093867
0.00294618748566
0.00293485360937
0.00291340994858
0.00288744993096
0.00286193609591
0.00284145127473
0.00282098064104
0.00277613799501
0.00266343204761
0.00241442983073
0.00192068057927
0.000886117743449
0.000853886702079
0.00184477173068
0.00235585187631
0.00267394786715
0.00286876576698
0.00297472153359
0.00302164546724
0.00303900800693
0.00304697951595
0.00305060134992
0.00304292013415
0.00302741498651
0.00300462758651
0.00297339113637
0.00292963719514
0.0028532494679
0.0027041792543
0.00241716784187
0.00190053977167
0.00087324011511
0.000816763327318
0.00174922945629
0.00223005115026
0.00252786613748
0.00271389492568
0.00282555144981
0.00288739817086
0.00292071461995
0.00294102110652
0.00295246785634
0.00295543099427
0.00295094205591
0.00293763322238
0.00291102723902
0.00286241198341
0.00277181178696
0.00260345170952
0.00230655880866
0.00180645006329
0.000834641440928
0.000746425838628
0.00156603806349
0.0019905925598
0.00225287709135
0.00241662879184
0.00251633455917
0.0025752106786
0.00260929503573
0.00263019255839
0.00264312417462
0.00265000563543
0.00265123861416
0.00264431406466
0.00262323316435
0.00257721868031
0.00248820423634
0.00232777644949
0.00205815923869
0.00161514454413
0.0007604794825
0.000629581554362
0.00125109475674
0.0015769405962
0.00177836586943
0.00190407044121
0.00198062062949
0.00202571682755
0.00205206582533
0.00206726437942
0.00207619033644
0.00208100886694
0.00208199159766
0.00207695674992
0.00206066084459
0.00202370417752
0.00195266979928
0.00182828914084
0.00162188647088
0.00128288173624
0.000637146510115
0.000455997459699
0.00063393405818
0.000754660655045
0.00083193577769
0.000881143819639
0.00091194806446
0.000930769656676
0.000941982264263
0.000947852903779
0.000950895297156
0.000951762453614
0.00095060239852
0.000946896908029
0.000938363123195
0.000922292626905
0.00089326900462
0.00084493755194
0.000766337244588
0.000640507548546
0.000451982748718
0.000538692034071
0.00077481306884
0.000925741731553
0.00101054810447
0.00105144926407
0.00106516359042
0.00106631353522
0.00106343283388
0.00106065463018
0.00105938739299
0.00105955388023
0.00106027690851
0.0010620760094
0.00106471108788
0.00106441525921
0.00105196789426
0.00101160544054
0.000925352795466
0.000770493562967
0.000527992574414
0.000780007177886
0.00155318380748
0.00192362985647
0.00212696625672
0.00223268659651
0.00227802772645
0.00228405192849
0.00227018917314
0.00225373133449
0.00224285189096
0.00223765679907
0.00223602153881
0.00223871876562
0.00224268849852
0.00223666894658
0.00220297837255
0.00211150010977
0.00191563241829
0.00154744309012
0.000772352265783
0.000932233630095
0.00192659396751
0.00239866571288
0.00266751561024
0.00280424502077
0.00284756242595
0.00283342538436
0.0027972180105
0.00276344865238
0.00273961131465
0.00272377405672
0.0027125211079
0.00271330147041
0.00272570113524
0.00273339284032
0.00270695060813
0.00260696340003
0.00237474602661
0.00192006927046
0.000926750182492
0.00101504980725
0.00213162093085
0.00266709721023
0.00296683267153
0.00310227466563
0.00311707936713
0.0030585975351
0.00298103198978
0.00291912115886
0.00287773087362
0.00284884695232
0.00282912147205
0.00283625041999
0.00287325829731
0.00291487993107
0.00292081312411
0.00283976018602
0.00260762277735
0.00211959844506
0.00101309938161
0.00105266657628
0.00223240647932
0.0027994499352
0.00310260691501
0.00320982893328
0.00316379321096
0.00302322879455
0.00287764116295
0.00277747876296
0.00271799969625
0.00267668228624
0.002654208179
0.00268370373662
0.00278079227227
0.00288941400965
0.00295023589167
0.00290891293018
0.00269845631691
0.00220983827212
0.00105417288087
0.00106375771675
0.00226589793045
0.00283905479388
0.00312335295457
0.00317570544352
0.00302707808329
0.00273521740394
0.00246523755091
0.00231456116961
0.00224339569082
0.00219067965565
0.00216578754454
0.0022419206021
0.00248257309972
0.00272215004427
0.0028704501349
0.00288425626923
0.00270786217724
0.0022345924169
0.00106899893447
0.00106108466555
0.0022610527282
0.00282364543698
0.0030749714146
0.00305472960494
0.00276242944723
0.00218665946035
0.00162112510627
0.00141274705528
0.00135479276901
0.00130357680421
0.00128366266388
0.00143527190118
0.00199585367013
0.00247016494985
0.00274497031345
0.00282478252681
0.00268508529689
0.0022310233259
0.00107202028189
0.00105443272703
0.00224393420542
0.00279041072682
0.00300932776144
0.00292495202125
0.00249865419122
0.0015571501044
0.00080853970307
0.000618912436398
0.000588774453071
0.000583004017422
0.000606430927874
0.000765177917188
0.00144268174889
0.00221967487996
0.00263231979967
0.00277424422161
0.00266435836065
0.00222375671282
0.00107141048855
0.00105072034035
0.00223606444015
0.00277329329609
0.00297514366332
0.00285978353908
0.00237930806455
0.00135395394917
0.000641026544022
0.000442014528133
0.000407566769352
0.000409973538923
0.000443018928421
0.000605498212793
0.00123788373274
0.00210591413209
0.00258319757169
0.00275855786684
0.00266318368196
0.00222640651477
0.00107347320544
0.00105464052654
0.00224974005962
0.00279148403243
0.00299790312636
0.00288858312356
0.00241741371492
0.00140246016659
0.000680566013074
0.000477211752011
0.000442463816121
0.000438457379446
0.00045954170836
0.000612770829878
0.00125692597353
0.00213729973466
0.00262033481743
0.00279435563548
0.00269283274846
0.00224698424904
0.00108106494738
0.00106798749557
0.00228813279352
0.00284952619091
0.00308376575028
0.00301993489163
0.00262777829193
0.00174782262791
0.000978896867713
0.00077146505238
0.00074345898282
0.000734460539032
0.000728914028538
0.000844449879885
0.00154287066873
0.0023377970951
0.00275637556198
0.00288910651651
0.00275850527219
0.00228908879829
0.00109590021909
0.00108931506234
0.00234507487985
0.00293753488167
0.0032186068753
0.00323612250369
0.00300057062948
0.00251799260873
0.00188377106255
0.00168356323851
0.00166251838848
0.00167749740603
0.00169804264556
0.00183219597296
0.00229388374976
0.00274115899939
0.00299260670228
0.00304146311036
0.00285949405645
0.00235157342147
0.00111746458915
0.00111305662173
0.00240477168117
0.00302991261201
0.00336256071342
0.00346825299059
0.0033854650332
0.00317271294142
0.00294891794223
0.0028276592619
0.00278387480164
0.00276109477119
0.00275972141432
0.00282400075523
0.00299158856859
0.00317341057755
0.00326968137112
0.00322793994117
0.00298374785647
0.00242668023337
0.00114231317282
0.00113074811991
0.00244711841282
0.00309676863965
0.00347261592485
0.00365094882305
0.00367929926078
0.00361399988555
0.00353022543986
0.00347446183791
0.00344793042782
0.00343074677265
0.003424521575
0.00344201039204
0.00348857123692
0.00353480950231
0.00352656575292
0.0034065842254
0.00310017411647
0.00249274405726
0.00116170446864
0.00113306839214
0.00245226506125
0.0031096184958
0.00351127855166
0.00373869605
0.00383894790941
0.00385855535819
0.00384641013109
0.00383333998224
0.0038272115393
0.00381984058151
0.00381264391669
0.00380753216401
0.00380119971461
0.00377880063381
0.00370355077307
0.00352279823145
0.00316642341037
0.00251959649126
0.00116456587137
0.00111205101845
0.00240023229406
0.00304389031018
0.00344654886552
0.00369596138424
0.00383581446044
0.00390252995983
0.00393098777412
0.00394548576162
0.00395485952552
0.00395693545875
0.00395264975395
0.00393992912849
0.00391187302662
0.00385510346207
0.0037408316605
0.00352391453385
0.00313804611735
0.00247873083524
0.00114258216364
0.00105675735554
0.00226857709241
0.00287560774691
0.00325605164679
0.00349760975962
0.00364507233742
0.00372916721007
0.00377591186263
0.00380408165768
0.00382141100476
0.00383017599865
0.00383062426949
0.00381915734237
0.00378724959484
0.00372020951184
0.00359236152656
0.00336374046077
0.00297842838902
0.00234573700804
0.00108431711716
0.000954261384582
0.00202552593531
0.00256588639622
0.00290465539307
0.00312048900694
0.00325453476994
0.00333497273331
0.00338277715357
0.0034121390471
0.00343046875599
0.0034408662098
0.00344342012995
0.00343416578136
0.00340430716951
0.00333935786316
0.00321669184684
0.00300339019433
0.00265445803857
0.00209071943042
0.000976575139959
0.000783937923947
0.00161442392255
0.00204048805824
0.00230751700409
0.00247740155056
0.00258308327876
0.00264689594588
0.00268504672407
0.0027077055814
0.00272107515119
0.00272816870251
0.00272907510426
0.00272055566191
0.00269535180192
0.00264167567935
0.00254231341414
0.00237314299936
0.00209902197883
0.00165672626037
0.000798145908961
0.000527591398329
0.000788360287049
0.000964008735629
0.00107684168448
0.00114962605552
0.00119591403429
0.00122478440138
0.00124177805406
0.00125174741064
0.00125694999478
0.00125890234308
0.00125763783321
0.00125174654006
0.00123886165896
0.00121372226965
0.00117022189597
0.00109825398591
0.000983481025725
0.000801707352144
0.000529805917566
0.000586036805671
0.00087611443413
0.00106230582056
0.00116819538062
0.00122039325847
0.00123828054463
0.00123881263355
0.00123294667899
0.00122695459389
0.00122347599375
0.0012232996907
0.0012260022208
0.0012312319307
0.0012371679402
0.0012376798809
0.00122106281963
0.00116918215851
0.00106161684453
0.000870772870425
0.000571742023812
0.000881940675072
0.00179187904606
0.00222801571622
0.00247097135873
0.00259868980957
0.00265206063158
0.00265604255269
0.00263493875332
0.00261060837832
0.00259432994481
0.00258842119474
0.00259181916833
0.0026030385267
0.00261482829759
0.00261042520414
0.0025676051725
0.00245270049931
0.00221653249214
0.00178354280949
0.00087251459727
0.00106959396905
0.00223186580602
0.00277882703671
0.00309132837584
0.00324935676886
0.00329722885038
0.00327677802411
0.00322968791924
0.0031858424868
0.00315668301467
0.00314290306384
0.00314294086292
0.00315898510481
0.00318549542718
0.00319921228588
0.00316352617977
0.00303506812889
0.00275395131264
0.00222355386827
0.00106333666493
0.00117373292564
0.00247805320756
0.00309327959833
0.0034362121247
0.0035899717877
0.00360382870839
0.00353216657686
0.00343744968727
0.0033614814674
0.00331455892247
0.00329149677432
0.00328983511185
0.00332097009235
0.00338089448842
0.00343791057445
0.00343926477384
0.00332846195509
0.00304090333866
0.00246706561937
0.00117236715023
0.0012230280177
0.00260318065968
0.00325249079772
0.00359732368119
0.00371771792244
0.00366175112757
0.00349569858375
0.00332226449998
0.00320230893915
0.00313841960522
0.003107978028
0.00310978106853
0.00317391918902
0.00330262083732
0.00344125248143
0.00350742545542
0.00343952783543
0.00317007909744
0.00258715414605
0.00122705045123
0.00123921167088
0.00264915671535
0.00330563798433
0.00362897759152
0.00368759595687
0.00351517772456
0.00317016428287
0.00283573335125
0.0026492996677
0.00257704258587
0.00254404523936
0.00255148470506
0.00267902529666
0.00297839203598
0.0032751316272
0.00344432323639
0.00343866330926
0.00320323861712
0.00263059919933
0.00124930295002
0.00123790293281
0.00264915485657
0.0032951544937
0.00358241939837
0.0035605134149
0.00322330529507
0.00250327209933
0.00171931169388
0.00143556282424
0.00136659518874
0.00134997430944
0.00137878513802
0.00160180092743
0.00239040088103
0.00300194638164
0.00331881351821
0.00338797192845
0.00319226546448
0.00263694123683
0.00125598593793
0.00123111690032
0.0026335123703
0.00326356100418
0.0035160663683
0.00342333561518
0.00292861034931
0.00163093986522
0.00157329481508
0.00272228276185
0.0032013770301
0.00333953417681
0.00317654423591
0.00263485639526
0.0012575268403
0.00122794053097
0.00262783196936
0.00324954100322
0.00348469899969
0.00335903244773
0.00280520420338
0.0014206228436
0.00136776333722
0.00260166864058
0.003153405712
0.0033280945061
0.00318070232472
0.00264233967418
0.00126179172741
0.0012343324867
0.00264705294403
0.00327532664673
0.00351707285909
0.00339996700626
0.00285853163412
0.00147839717716
0.00140785581759
0.00264834575485
0.00320362080253
0.00337522817133
0.00321997442769
0.00267038424076
0.00127303444161
0.00125203870295
0.00269465771769
0.00334580710449
0.00361993446518
0.0035556812591
0.00310722687097
0.00187659750189
0.00176208705227
0.00289110119564
0.00336764098712
0.00349012879588
0.00330041204906
0.00272304129074
0.00129301994428
0.00127897040561
0.00276223523455
0.00344846936935
0.00377601216563
0.00380446460304
0.00354121191547
0.00296027513362
0.00195548231885
0.00172123305845
0.0016726898466
0.00166744631896
0.00170672164371
0.00192175580073
0.00276246184941
0.00335217408132
0.00363894950758
0.00366679289483
0.00341806828057
0.00279717109375
0.001320643017
0.00130786333441
0.00283011192567
0.00355305458842
0.00393971450076
0.00406966242408
0.00398613986171
0.00375595462281
0.00348907593939
0.00334140744216
0.00329091450126
0.00327861682644
0.00329899749224
0.0034031766845
0.00363005850361
0.00384887207443
0.00394846037511
0.0038710916858
0.0035525665144
0.00287978580857
0.00135089099164
0.00132782506672
0.00287472498958
0.0036246922959
0.0040602634894
0.00427280526717
0.00431551614506
0.00425190533462
0.00416240604695
0.00409961820867
0.00407249023618
0.00406483938118
0.00407517427369
0.00411529716708
0.00418412981332
0.00424064184772
0.00421819008308
0.00405222530594
0.00366899493317
0.00294655807965
0.0013728168736
0.00132772272474
0.00287360160375
0.00363118471214
0.00409556445433
0.00436317517796
0.00448668871176
0.00451748352162
0.00450934236635
0.00449675402973
0.00449251968211
0.00449253065146
0.00449692215499
0.00450512656379
0.00450888215424
0.00448349533463
0.00438410230978
0.00415404117479
0.0037221772239
0.00296561186291
0.00137327137288
0.00129867700463
0.00280471718777
0.00354598195308
0.00401161978755
0.00430370237116
0.00447092503086
0.00455366093869
0.00459082207985
0.00460947100534
0.0046219239911
0.00462946591085
0.00463214866222
0.00462564370505
0.0045989796991
0.00453160872692
0.00438957828633
0.00412444713966
0.00366875214774
0.00290664903402
0.00134274749982
0.00122826836854
0.00264319303806
0.00334268642555
0.00378428862352
0.00406858366009
0.00424479682935
0.00434692140084
0.00440427806417
0.00443838417778
0.00445980553225
0.00447245558893
0.00447624401845
0.00446586354308
0.00442964898104
0.00434851667783
0.00419281282106
0.00391999409889
0.0034708695987
0.00274209610669
0.0012687320069
0.0011006281366
0.00235348208871
0.00297957221702
0.0033757013557
0.00363187933474
0.00379360198394
0.00389194346556
0.0039511548409
0.00398745527934
0.00401018384266
0.00402348832064
0.00402724755425
0.00401628883439
0.00397962853766
0.0038998566239
0.00375118588551
0.00349769480129
0.00308984020154
0.00243717507091
0.00113395800794
0.00088961224878
0.00186997220284
0.002371445497
0.00268903186729
0.00289398287363
0.00302358145142
0.00310310897335
0.00315141530481
0.00318052324089
0.00319792711123
0.00320729082954
0.00320855730849
0.00319758750798
0.00316551938143
0.00309852711743
0.00297658155856
0.00277226708809
0.00244604418252
0.00192556702661
0.000912389443426
0.000570811807897
0.000893952562372
0.00111119974127
0.00125150863654
0.00134287775999
0.00140159857719
0.00143842849032
0.00146101369422
0.00147435528421
0.00148208576286
0.00148532405394
0.00148462700106
0.00147779204185
0.00146146007152
0.00143012646423
0.00137481818083
0.00128453016209
0.00114149322404
0.000916002209425
0.000579126869585
0.000621724867795
0.000952442757183
0.00116622750402
0.00128912423046
0.0013505791998
0.00137162821082
0.00137079837246
0.00136161051358
0.0013523166233
0.00134655758138
0.00134588683376
0.00135021920789
0.00135857696604
0.00136787108704
0.00136972816581
0.0013500834006
0.00128910641492
0.00116438587333
0.000945456321828
0.000603640872028
0.000958858144535
0.00197254397461
0.00246245066947
0.00273893872124
0.00288503392274
0.00294432013954
0.00294499092602
0.00291601691125
0.00288349671235
0.00286167100326
0.00285481134966
0.00286245121893
0.00288121642764
0.00290055073526
0.00289879504288
0.00284931331678
0.00271567471927
0.00244655559771
0.00196106722422
0.000947262801914
0.00117424707053
0.00246706257604
0.00307654343364
0.00342622189263
0.00360242906731
0.0036535825772
0.00362639408791
0.00356817579064
0.00351414363957
0.00347939390713
0.00346671040576
0.00347525733233
0.00350380920616
0.00354199318826
0.00356112945142
0.00351889803756
0.00336845022324
0.00304822719879
0.00245609415546
0.00116669103481
0.00129556353821
0.00274814475797
0.00343084647838
0.00381120457877
0.00398085717992
0.00399349109327
0.00390938060597
0.00379770429743
0.00370770018646
0.00365447369818
0.00363517472109
0.00364765722059
0.00369807965822
0.00377595725002
0.00384528888227
0.00384328752677
0.0037099237186
0.00337910029016
0.00273618811842
0.00129407047243
0.00135458954132
0.00289501745746
0.00361488699886
0.00399626897822
0.00412853651193
0.00406447889764
0.0038766649817
0.00367609840782
0.00353569906589
0.00346427425073
0.00344109740544
0.0034628335361
0.00355572165872
0.00370977246398
0.00387253145373
0.00394272011831
0.00385435635607
0.00353953065041
0.00288137504521
0.00136017384032
0.00137529057601
0.00295298100804
0.00368171502642
0.00403984971769
0.00410508159801
0.00391471026741
0.0035290336235
0.00313792704445
0.00291484222588
0.00283130830199
0.00280983996938
0.0028458024473
0.00301999288253
0.00336420086752
0.00370953119884
0.0038945639259
0.0038738041807
0.00359300338565
0.00294120027451
0.00138874790599
0.00137529968539
0.00295832027084
0.00367719371175
0.00399697197309
0.00397578833784