/*--------------------------------*- C++ -*----------------------------------*\
| =========                 |                                                 |
| \\      /  F ield         | OpenFOAM: The Open Source CFD Toolbox           |
|  \\    /   O peration     | Version:  v1606+                                |
|   \\  /    A nd           | Web:      www.OpenFOAM.com                      |
|    \\/     M anipulation  |                                                 |
\*---------------------------------------------------------------------------*/
FoamFile
{
    version     2.0;
    format      ascii;
    class       volVectorField;
    location    "0.94";
    object      U.particlesMean;
}
// * * * * * * * * * * * * * * * * * * * * * * * * * * * * * * * * * * * * * //

dimensions      [0 1 -1 0 0 0 0];

internalField   nonuniform List<vector> 
6000
(
(-0.00668366 -0.347835 0)
(0.00102737 -0.37328 0)
(0.0113606 -0.371147 0)
(0.0194126 -0.375056 0)
(0.02301 -0.38635 0)
(0.0219431 -0.396443 0)
(0.0194963 -0.404055 0)
(0.016959 -0.410117 0)
(0.0149845 -0.41004 0)
(0.0131248 -0.418084 0)
(0.0104384 -0.430491 0)
(0.00867915 -0.438691 0)
(0.00696037 -0.442824 0)
(0.00520737 -0.448406 0)
(0.00349297 -0.45004 0)
(0.00141562 -0.450356 0)
(-0.000759906 -0.448801 0)
(-0.0033247 -0.443825 0)
(-0.00531827 -0.441278 0)
(-0.00827475 -0.431607 0)
(-0.0114926 -0.420675 0)
(-0.0135287 -0.410197 0)
(-0.0154175 -0.407122 0)
(-0.0172699 -0.402184 0)
(-0.0195357 -0.395289 0)
(-0.0206073 -0.384876 0)
(-0.0173637 -0.373851 0)
(-0.0096974 -0.371342 0)
(0.000400026 -0.373022 0)
(0.00766358 -0.34992 0)
(0.0169807 0.0284448 0)
(0.00912401 0.0467708 0)
(0.0183937 0.0428373 0)
(0.0275807 0.0441706 0)
(0.0375641 0.0486611 0)
(0.0421558 0.0503267 0)
(0.0406972 0.053057 0)
(0.0326077 0.0574907 0)
(0.0223036 0.0573753 0)
(0.0176832 0.0585195 0)
(0.012204 0.0628399 0)
(0.00732537 0.0621736 0)
(0.00480539 0.0564018 0)
(0.00362087 0.0537822 0)
(0.00407754 0.0508456 0)
(0.00438709 0.0510561 0)
(0.00290811 0.0542997 0)
(7.03909e-05 0.0577728 0)
(-0.00384873 0.0634378 0)
(-0.0103897 0.0634848 0)
(-0.0163472 0.0601848 0)
(-0.0212045 0.0576667 0)
(-0.0307489 0.0562956 0)
(-0.0381358 0.0538144 0)
(-0.0392553 0.0509836 0)
(-0.0350005 0.0487387 0)
(-0.0255599 0.0446745 0)
(-0.016846 0.0442534 0)
(-0.00815515 0.0476743 0)
(-0.0162892 0.0281763 0)
(0.000437362 -0.0464167 0)
(0.00460477 -0.0586178 0)
(0.0173132 -0.06296 0)
(0.0249502 -0.0629121 0)
(0.0360282 -0.0579719 0)
(0.0451792 -0.0457416 0)
(0.0471382 -0.0321821 0)
(0.0393285 -0.021792 0)
(0.0302686 -0.0209724 0)
(0.0217377 -0.0243589 0)
(0.0133207 -0.0294913 0)
(0.00862491 -0.0352948 0)
(0.00530987 -0.0405281 0)
(0.00378351 -0.043678 0)
(0.00535773 -0.0447168 0)
(0.00639 -0.0427682 0)
(0.00476588 -0.0397134 0)
(0.00063184 -0.0367369 0)
(-0.00447377 -0.030915 0)
(-0.0109048 -0.0268984 0)
(-0.0202868 -0.0242777 0)
(-0.0281627 -0.0210807 0)
(-0.0365629 -0.0220281 0)
(-0.0437333 -0.0315579 0)
(-0.0421472 -0.0451819 0)
(-0.0339529 -0.0577373 0)
(-0.0234346 -0.0630115 0)
(-0.0161457 -0.0629903 0)
(-0.00360728 -0.0581345 0)
(0.000155847 -0.0448293 0)
(0.00776577 -0.0448995 0)
(0.00629199 -0.0580375 0)
(0.00926176 -0.0607319 0)
(0.0131282 -0.0617675 0)
(0.0227466 -0.058652 0)
(0.0356289 -0.0492013 0)
(0.0473099 -0.0329525 0)
(0.0489636 -0.0203984 0)
(0.0432686 -0.0135176 0)
(0.0336366 -0.00936266 0)
(0.0223595 -0.00895071 0)
(0.0116927 -0.0111431 0)
(0.00311337 -0.0161128 0)
(0.00128247 -0.0252526 0)
(0.00508717 -0.0316908 0)
(0.00921443 -0.0283814 0)
(0.00991466 -0.0200184 0)
(0.00412324 -0.0129618 0)
(-0.00706225 -0.00803039 0)
(-0.0189914 -0.00723152 0)
(-0.0301928 -0.0090467 0)
(-0.0395261 -0.0135906 0)
(-0.0446758 -0.0201081 0)
(-0.043987 -0.0328929 0)
(-0.0333705 -0.0490069 0)
(-0.0212692 -0.0583592 0)
(-0.0121509 -0.0611538 0)
(-0.00855554 -0.0599706 0)
(-0.00587992 -0.0565434 0)
(-0.00808095 -0.0430594 0)
(0.00590511 -0.0580837 0)
(-0.00156546 -0.0700568 0)
(-0.00238127 -0.0747782 0)
(-0.00102765 -0.0840209 0)
(0.00968814 -0.0858219 0)
(0.0236537 -0.0771962 0)
(0.039626 -0.0580308 0)
(0.0476737 -0.0391709 0)
(0.0449295 -0.027595 0)
(0.0366202 -0.0204529 0)
(0.0255481 -0.0188402 0)
(0.0121916 -0.0200037 0)
(0.00178593 -0.0293362 0)
(-0.000658082 -0.0467546 0)
(0.00397506 -0.0567663 0)
(0.0100357 -0.0518152 0)
(0.0121449 -0.0365896 0)
(0.00624322 -0.0226738 0)
(-0.00722886 -0.0159338 0)
(-0.0212808 -0.0174991 0)
(-0.0314126 -0.0205079 0)
(-0.0398739 -0.0275754 0)
(-0.0431851 -0.039033 0)
(-0.0363304 -0.057611 0)
(-0.0216869 -0.076727 0)
(-0.0082458 -0.0851028 0)
(0.00215917 -0.0831287 0)
(0.00295753 -0.0737918 0)
(0.00141919 -0.0683739 0)
(-0.00673087 -0.0561299 0)
(0.00182538 -0.0564295 0)
(-0.0104301 -0.062603 0)
(-0.0160237 -0.0741717 0)
(-0.0140568 -0.0885807 0)
(-0.00456338 -0.0942294 0)
(0.0116603 -0.089142 0)
(0.0293519 -0.0709039 0)
(0.0439304 -0.0481003 0)
(0.0438822 -0.0299875 0)
(0.0370303 -0.0232486 0)
(0.0275502 -0.0226114 0)
(0.0151234 -0.0247536 0)
(0.00456764 -0.0371033 0)
(0.000348051 -0.0560559 0)
(0.00214512 -0.067482 0)
(0.00741366 -0.0626123 0)
(0.00905646 -0.0449379 0)
(0.00290397 -0.0282489 0)
(-0.00877448 -0.0196872 0)
(-0.0209859 -0.0214312 0)
(-0.0303215 -0.0234059 0)
(-0.0382718 -0.0305793 0)
(-0.0397079 -0.0474061 0)
(-0.0266736 -0.0701652 0)
(-0.00940408 -0.0881288 0)
(0.00610311 -0.0929027 0)
(0.0148668 -0.0869382 0)
(0.0153461 -0.0726354 0)
(0.00953395 -0.0607082 0)
(-0.00349504 -0.0551013 0)
(-0.00458006 -0.0427823 0)
(-0.0166608 -0.0578872 0)
(-0.0232697 -0.0737069 0)
(-0.0232277 -0.0899202 0)
(-0.0154078 -0.0992845 0)
(0.000716181 -0.0966462 0)
(0.018753 -0.0818456 0)
(0.0386798 -0.0575305 0)
(0.0431323 -0.0305364 0)
(0.0368013 -0.0195275 0)
(0.0301526 -0.0198664 0)
(0.0194391 -0.0229352 0)
(0.0100697 -0.0354262 0)
(0.00440165 -0.057232 0)
(0.00198729 -0.0701253 0)
(0.00401009 -0.0653439 0)
(0.00253232 -0.0461176 0)
(-0.00327704 -0.0268848 0)
(-0.0122907 -0.0173262 0)
(-0.021695 -0.0185602 0)
(-0.0302396 -0.0207325 0)
(-0.0361294 -0.0315959 0)
(-0.034562 -0.0564807 0)
(-0.016326 -0.0807715 0)
(0.00146603 -0.0958533 0)
(0.0167372 -0.0969556 0)
(0.02304 -0.0872854 0)
(0.0216492 -0.071479 0)
(0.0151366 -0.0558777 0)
(0.00290835 -0.042166 0)
(-0.00515817 -0.0314725 0)
(-0.0168067 -0.0469406 0)
(-0.0225398 -0.064757 0)
(-0.0223355 -0.0831126 0)
(-0.0180977 -0.0967976 0)
(-0.00646647 -0.0976006 0)
(0.00986057 -0.0857857 0)
(0.0277644 -0.0628934 0)
(0.0407119 -0.0306347 0)
(0.0386016 -0.00956727 0)
(0.0297265 -0.0106097 0)
(0.0240561 -0.0168857 0)
(0.0172588 -0.0300145 0)
(0.00973859 -0.0543245 0)
(0.0026117 -0.0682574 0)
(-0.00291675 -0.0639776 0)
(-0.00680816 -0.0462538 0)
(-0.0112321 -0.022932 0)
(-0.0164458 -0.0138221 0)
(-0.022945 -0.010798 0)
(-0.0291396 -0.0121753 0)
(-0.0314836 -0.0294808 0)
(-0.0227024 -0.0611382 0)
(-0.00645896 -0.0848913 0)
(0.00873429 -0.0961596 0)
(0.0192292 -0.0935602 0)
(0.0209254 -0.0801616 0)
(0.0205631 -0.0628828 0)
(0.0153326 -0.0457563 0)
(0.00351955 -0.0303114 0)
(-0.0059488 -0.0253476 0)
(-0.0120553 -0.0357096 0)
(-0.0164087 -0.0548468 0)
(-0.0173897 -0.0762413 0)
(-0.0174701 -0.0926569 0)
(-0.00904031 -0.0989722 0)
(0.0028436 -0.0893612 0)
(0.0190764 -0.0653833 0)
(0.0391624 -0.0314635 0)
(0.048284 -0.00435791 0)
(0.0331946 0.008358 0)
(0.0238765 0.000256446 0)
(0.0221478 -0.0193095 0)
(0.0141651 -0.0457859 0)
(0.00323763 -0.0601459 0)
(-0.00959912 -0.0568095 0)
(-0.0154882 -0.0395886 0)
(-0.0193912 -0.0125035 0)
(-0.0188716 -0.00309765 0)
(-0.0206387 0.00459207 0)
(-0.030008 0.00167506 0)
(-0.0285071 -0.0277721 0)
(-0.0110007 -0.0636803 0)
(0.00259284 -0.0887699 0)
(0.0118516 -0.0957981 0)
(0.0172775 -0.0880335 0)
(0.0159847 -0.072621 0)
(0.014698 -0.0530021 0)
(0.0107914 -0.034786 0)
(0.00546023 -0.0253932 0)
(-0.00243079 -0.0153743 0)
(-0.00558105 -0.0225766 0)
(-0.00762681 -0.0424106 0)
(-0.00956995 -0.0666875 0)
(-0.0121226 -0.0864878 0)
(-0.00712532 -0.0956623 0)
(0.000351237 -0.089112 0)
(0.0171961 -0.0696125 0)
(0.0365238 -0.0321301 0)
(0.0501633 0.000915825 0)
(0.0435233 0.0153762 0)
(0.036885 0.0151643 0)
(0.033208 -0.00283783 0)
(0.017205 -0.0286769 0)
(0.00351487 -0.0480453 0)
(-0.0135325 -0.0474867 0)
(-0.0206748 -0.0313365 0)
(-0.0254581 -0.00408166 0)
(-0.0149221 0.0101042 0)
(-0.0180782 0.0195082 0)
(-0.0299941 0.00745926 0)
(-0.0199712 -0.0254916 0)
(-0.00349156 -0.0658468 0)
(0.0085547 -0.0864043 0)
(0.0117095 -0.0896379 0)
(0.0130202 -0.0805019 0)
(0.00922182 -0.063312 0)
(0.00729911 -0.0404922 0)
(0.0050701 -0.0210652 0)
(0.00309585 -0.0144552 0)
(-0.00138434 -0.00856506 0)
(-0.00232624 -0.0163384 0)
(-0.00116207 -0.036379 0)
(-0.000277689 -0.0629265 0)
(-0.00483083 -0.0834847 0)
(-0.00408538 -0.0930807 0)
(-1.51193e-06 -0.0905755 0)
(0.015853 -0.073276 0)
(0.0279622 -0.036128 0)
(0.0425278 0.00633125 0)
(0.040704 0.0238574 0)
(0.0316149 0.0254143 0)
(0.0368241 0.0056533 0)
(0.0292277 -0.017988 0)
(0.0115016 -0.0327644 0)
(-0.0122299 -0.0365023 0)
(-0.0196194 -0.0249111 0)
(-0.0213497 -0.00213407 0)
(-0.00617031 0.0226827 0)
(-0.0174838 0.0235438 0)
(-0.0220592 0.0121711 0)
(-0.0103248 -0.0262623 0)
(0.00239908 -0.0636811 0)
(0.012628 -0.0824395 0)
(0.0103567 -0.0842199 0)
(0.0067125 -0.0754817 0)
(0.00116539 -0.0585354 0)
(0.000971813 -0.0328968 0)
(0.00112372 -0.013759 0)
(0.00126593 -0.00710107 0)
(0.000779506 -0.00487515 0)
(-0.00192015 -0.0145135 0)
(0.00180814 -0.0335324 0)
(0.00666988 -0.0616012 0)
(0.00461317 -0.0837942 0)
(0.00179123 -0.0962547 0)
(-0.000215816 -0.0951434 0)
(0.00810751 -0.0781593 0)
(0.0186409 -0.0438839 0)
(0.0318224 0.000821581 0)
(0.0366188 0.0239952 0)
(0.0261928 0.0270311 0)
(0.0308665 0.00806585 0)
(0.0282395 -0.0126566 0)
(0.017338 -0.0238726 0)
(-0.00280359 -0.0252925 0)
(-0.0114335 -0.0167101 0)
(-0.0100453 0.000988355 0)
(0.00365384 0.027572 0)
(-0.00880098 0.0293854 0)
(-0.0117653 0.0156246 0)
(-0.00229237 -0.023839 0)
(0.00706225 -0.0611767 0)
(0.0119532 -0.0769665 0)
(0.00606501 -0.0797287 0)
(-0.00106364 -0.0723235 0)
(-0.00640318 -0.0539967 0)
(-0.00336769 -0.0280216 0)
(-4.55186e-05 -0.0114324 0)
(-0.00111168 -0.00357509 0)
(0.00280912 -0.00403076 0)
(-0.000975242 -0.0143222 0)
(0.00463632 -0.0331767 0)
(0.00964126 -0.0619937 0)
(0.010274 -0.0845587 0)
(0.00532233 -0.0996171 0)
(0.00030924 -0.0970254 0)
(0.00221067 -0.079887 0)
(0.00709648 -0.0492929 0)
(0.0213789 -0.0024142 0)
(0.0273662 0.0251774 0)
(0.0196809 0.030547 0)
(0.0244981 0.0135852 0)
(0.0280266 -0.00594118 0)
(0.0177487 -0.0156218 0)
(0.00157298 -0.0188747 0)
(-5.64666e-06 -0.017354 0)
(0.0130092 -0.00353355 0)
(0.0225811 0.0308778 0)
(0.00786721 0.0383361 0)
(0.00285399 0.023641 0)
(0.0112639 -0.019288 0)
(0.0122588 -0.0543097 0)
(0.00939022 -0.0710807 0)
(0.00428079 -0.075295 0)
(-0.0071188 -0.0682736 0)
(-0.0117351 -0.0500009 0)
(-0.0072819 -0.0263505 0)
(-0.00110516 -0.0115294 0)
(-0.0025825 -0.00269318 0)
(0.00429275 -0.00365539 0)
(0.00130878 -0.0138723 0)
(0.00933687 -0.0315277 0)
(0.0131982 -0.0591384 0)
(0.0127741 -0.0844972 0)
(0.00727586 -0.0995562 0)
(-0.000172167 -0.0982004 0)
(-0.00152905 -0.0815096 0)
(-0.00132279 -0.052828 0)
(0.00843613 -0.00749594 0)
(0.0176883 0.0208304 0)
(0.0171499 0.0300234 0)
(0.0196058 0.00993902 0)
(0.0313876 -0.00371612 0)
(0.0230217 -0.011658 0)
(0.00644697 -0.0157645 0)
(0.00505006 -0.020197 0)
(0.0235267 -0.0130332 0)
(0.0341186 0.025919 0)
(0.0241754 0.040153 0)
(0.0159993 0.0277913 0)
(0.0182001 -0.0136289 0)
(0.0167032 -0.0494018 0)
(0.00977021 -0.065301 0)
(0.0025045 -0.0672924 0)
(-0.00955022 -0.0611981 0)
(-0.0149796 -0.0441837 0)
(-0.0106663 -0.0238647 0)
(-0.00180671 -0.0104737 0)
(-0.00358214 -0.00135899 0)
(0.0061502 -0.00343387 0)
(0.00401565 -0.0141269 0)
(0.0152269 -0.0290049 0)
(0.0191089 -0.0548271 0)
(0.0149686 -0.0805701 0)
(0.00690842 -0.0934013 0)
(-0.00396725 -0.0950939 0)
(-0.0098673 -0.080535 0)
(-0.0127699 -0.0527478 0)
(-0.00632741 -0.0123052 0)
(0.00542133 0.0138641 0)
(0.0183835 0.0242715 0)
(0.0236648 0.00406771 0)
(0.0371169 -0.00422705 0)
(0.0328157 -0.011368 0)
(0.0232755 -0.0174977 0)
(0.0180892 -0.0222212 0)
(0.0284355 -0.027225 0)
(0.0343056 0.0240071 0)
(0.0350409 0.0450657 0)
(0.0253466 0.0341497 0)
(0.0219299 -0.0065813 0)
(0.0172889 -0.0483075 0)
(0.00725671 -0.0636672 0)
(0.000988016 -0.0635544 0)
(-0.008505 -0.0556613 0)
(-0.0152692 -0.0392524 0)
(-0.0117821 -0.020415 0)
(-0.00167613 -0.0092328 0)
(-0.0044734 0.000148573 0)
(0.00815336 -0.00235092 0)
(0.00474625 -0.0136 0)
(0.0183818 -0.0277529 0)
(0.0235329 -0.0525992 0)
(0.0216859 -0.0776143 0)
(0.00858048 -0.0865942 0)
(-0.011155 -0.0885467 0)
(-0.024738 -0.0771762 0)
(-0.0256171 -0.0508733 0)
(-0.0178878 -0.0182484 0)
(-0.00469303 0.00197298 0)
(0.0117712 0.0087051 0)
(0.0211001 0.00265119 0)
(0.034837 -0.0157367 0)
(0.0491698 -0.0190615 0)
(0.0462854 -0.0250289 0)
(0.0469107 -0.0346753 0)
(0.0409505 -0.0380232 0)
(0.0372671 0.0164326 0)
(0.0427543 0.0467312 0)
(0.031653 0.0377609 0)
(0.0308469 0.00114485 0)
(0.0198292 -0.0438717 0)
(0.00251071 -0.0636882 0)
(-0.00478492 -0.0665889 0)
(-0.00871896 -0.0535297 0)
(-0.0136006 -0.0342426 0)
(-0.00981646 -0.0173045 0)
(1.53376e-05 -0.007219 0)
(-0.00480487 0.00242095 0)
(0.0101999 -0.00509115 0)
(0.00699813 -0.0129787 0)
(0.0186367 -0.0268783 0)
(0.02393 -0.0483966 0)
(0.0174082 -0.0762894 0)
(0.00677595 -0.084522 0)
(-0.0125667 -0.0871607 0)
(-0.0353287 -0.0768035 0)
(-0.0390743 -0.0452214 0)
(-0.0279231 -0.0191757 0)
(-0.0131865 -0.00536611 0)
(0.00459333 0.000227557 0)
(0.0235037 -0.00970402 0)
(0.0346639 -0.00971858 0)
(0.055601 -0.0183324 0)
(0.0611994 -0.0298147 0)
(0.0685235 -0.0399811 0)
(0.0486289 -0.0455316 0)
(0.0376826 0.0114884 0)
(0.0444549 0.0484563 0)
(0.0378007 0.0449689 0)
(0.0379238 0.00810168 0)
(0.0241524 -0.0369025 0)
(0.00654921 -0.0595749 0)
(-0.00723872 -0.0657514 0)
(-0.0159501 -0.0549581 0)
(-0.0230373 -0.0278722 0)
(-0.016255 -0.0150241 0)
(-0.00421345 -0.00608349 0)
(-0.00678213 0.00437316 0)
(0.0082005 -0.0176489 0)
(0.0110415 -0.02058 0)
(0.0258731 -0.0230894 0)
(0.0322281 -0.0399089 0)
(0.01896 -0.0730222 0)
(0.00233789 -0.0916356 0)
(-0.0211504 -0.091473 0)
(-0.0383659 -0.0794991 0)
(-0.0466403 -0.042752 0)
(-0.0362637 -0.019706 0)
(-0.0187581 -0.0155657 0)
(0.00226359 -0.0136381 0)
(0.024811 -0.0283765 0)
(0.0393064 -0.0209229 0)
(0.0621791 -0.0260182 0)
(0.0691724 -0.0317677 0)
(0.0778213 -0.0417792 0)
(0.0575032 -0.0445316 0)
(0.0348224 0.0165465 0)
(0.0447863 0.0499105 0)
(0.0420988 0.0501851 0)
(0.0433778 0.0160033 0)
(0.0334024 -0.0297141 0)
(0.0130688 -0.0562055 0)
(-0.00960441 -0.0631446 0)
(-0.027171 -0.0479336 0)
(-0.0404482 -0.0214332 0)
(-0.0305968 -0.0107856 0)
(-0.0128606 -0.0059149 0)
(-0.010853 0.00373526 0)
(0.00615793 -0.0187527 0)
(0.0129824 -0.039618 0)
(0.0246078 -0.0385431 0)
(0.0380646 -0.0410536 0)
(0.024125 -0.0683855 0)
(0.00482025 -0.0914305 0)
(-0.0215719 -0.102142 0)
(-0.0416693 -0.090779 0)
(-0.0479074 -0.054569 0)
(-0.0383128 -0.0378999 0)
(-0.0179628 -0.0371858 0)
(0.00780568 -0.0397404 0)
(0.0291033 -0.0566569 0)
(0.0478642 -0.0543634 0)
(0.0655546 -0.0477868 0)
(0.0722895 -0.0474569 0)
(0.076346 -0.0544293 0)
(0.0597736 -0.0407529 0)
(0.029269 0.0160768 0)
(0.0433365 0.0504392 0)
(0.0432783 0.0517772 0)
(0.0536135 0.0238126 0)
(0.0439886 -0.0272934 0)
(0.0120465 -0.0626466 0)
(-0.0209893 -0.0551578 0)
(-0.0370102 -0.038019 0)
(-0.048668 -0.0237698 0)
(-0.0375308 -0.0230737 0)
(-0.0220129 -0.0162158 0)
(-0.0152545 0.000371664 0)
(0.00341012 -0.00661026 0)
(0.0133005 -0.035064 0)
(0.0219936 -0.0645029 0)
(0.0250272 -0.0715984 0)
(0.0121999 -0.0818109 0)
(-0.0069449 -0.100617 0)
(-0.0253837 -0.111479 0)
(-0.0395787 -0.119471 0)
(-0.042578 -0.0934586 0)
(-0.0317768 -0.0774295 0)
(-0.0106996 -0.0807543 0)
(0.0112289 -0.0829197 0)
(0.0343608 -0.103638 0)
(0.0492331 -0.0952208 0)
(0.0643392 -0.079428 0)
(0.0718105 -0.0722461 0)
(0.0723748 -0.0610631 0)
(0.0556819 -0.0377606 0)
(0.0304844 0.0107431 0)
(0.0438304 0.0438293 0)
(0.0462572 0.0449896 0)
(0.0580799 0.0159563 0)
(0.0399565 -0.0380428 0)
(0.00901066 -0.0618144 0)
(-0.0147225 -0.0569585 0)
(-0.0334731 -0.0438659 0)
(-0.0419569 -0.0437126 0)
(-0.0387257 -0.0494877 0)
(-0.0289049 -0.0329416 0)
(-0.0200831 -0.0154662 0)
(0.00504153 -0.0109279 0)
(0.0123662 -0.0416924 0)
(0.0124816 -0.0777118 0)
(0.00333421 -0.090432 0)
(-0.00802241 -0.0946079 0)
(-0.0221159 -0.0966579 0)
(-0.0373877 -0.106189 0)
(-0.041451 -0.130829 0)
(-0.0356282 -0.131935 0)
(-0.0284246 -0.116816 0)
(-0.011633 -0.107816 0)
(0.0101831 -0.114403 0)
(0.029424 -0.131602 0)
(0.0413239 -0.128305 0)
(0.0553208 -0.111232 0)
(0.0615672 -0.0960082 0)
(0.0612249 -0.0595468 0)
(0.0483087 -0.0336623 0)
(0.0293336 -0.00474466 0)
(0.0387847 0.029216 0)
(0.0530636 0.0179189 0)
(0.042711 -0.0115651 0)
(0.0372786 -0.0321607 0)
(0.0155991 -0.0527995 0)
(-0.00552915 -0.0572065 0)
(-0.0215863 -0.0663328 0)
(-0.0300027 -0.075048 0)
(-0.0355218 -0.0799047 0)
(-0.0330567 -0.065005 0)
(-0.0199647 -0.0503964 0)
(0.0104802 -0.0579933 0)
(0.0126814 -0.0756308 0)
(-0.00184336 -0.0814946 0)
(-0.0112082 -0.0797471 0)
(-0.0209156 -0.0802563 0)
(-0.0274047 -0.0815018 0)
(-0.0309312 -0.101536 0)
(-0.0353783 -0.132032 0)
(-0.0391094 -0.143424 0)
(-0.0282016 -0.135776 0)
(-0.0155844 -0.123754 0)
(0.00330828 -0.123701 0)
(0.0244106 -0.141489 0)
(0.0362671 -0.142848 0)
(0.0503506 -0.126976 0)
(0.0532569 -0.108289 0)
(0.049068 -0.062513 0)
(0.0409502 -0.0281405 0)
(0.0325165 -0.00822364 0)
(0.039807 0.0092421 0)
(0.0420468 -0.000515634 0)
(0.0338974 -0.0145911 0)
(0.0303895 -0.0278714 0)
(0.0133115 -0.0506586 0)
(0.00177325 -0.062341 0)
(-0.00622248 -0.0723094 0)
(-0.0117128 -0.0849993 0)
(-0.016335 -0.0991126 0)
(-0.0208456 -0.110823 0)
(-0.0149216 -0.101992 0)
(0.00851709 -0.0788793 0)
(0.00376281 -0.0807074 0)
(-0.00223557 -0.0715806 0)
(-0.0112795 -0.068545 0)
(-0.0192601 -0.0716274 0)
(-0.0203956 -0.0787202 0)
(-0.0199693 -0.101266 0)
(-0.0209903 -0.128919 0)
(-0.0276327 -0.144397 0)
(-0.0348721 -0.142712 0)
(-0.0205758 -0.127981 0)
(-0.00230046 -0.126087 0)
(0.0192156 -0.143043 0)
(0.0314278 -0.141716 0)
(0.0448331 -0.128046 0)
(0.0478106 -0.1019 0)
(0.0402125 -0.0640849 0)
(0.0373168 -0.0241815 0)
(0.0385168 -0.0108152 0)
(0.0368524 -0.0121839 0)
(0.0335974 -0.0109726 0)
(0.0275038 -0.0187187 0)
(0.0231294 -0.0282037 0)
(0.011494 -0.0522377 0)
(0.00241054 -0.0694691 0)
(0.0018062 -0.0723873 0)
(-0.00194825 -0.0827448 0)
(-0.00508897 -0.0996564 0)
(-0.00548099 -0.119916 0)
(-0.00697972 -0.122015 0)
(0.00300391 -0.0746715 0)
(-0.00299874 -0.0736161 0)
(-0.00695847 -0.0626494 0)
(-0.0132588 -0.0590712 0)
(-0.0122565 -0.0673658 0)
(-0.00546398 -0.0839036 0)
(-0.00337986 -0.104142 0)
(-0.00483322 -0.12853 0)
(-0.0116747 -0.143265 0)
(-0.024777 -0.145889 0)
(-0.0283529 -0.133663 0)
(-0.00680676 -0.126631 0)
(0.0111061 -0.140166 0)
(0.0225425 -0.136042 0)
(0.034524 -0.124993 0)
(0.0364022 -0.0885893 0)
(0.0284864 -0.0574477 0)
(0.0360398 -0.0285782 0)
(0.0478513 -0.0151462 0)
(0.0412376 -0.0237479 0)
(0.0302708 -0.0194446 0)
(0.0213458 -0.0242924 0)
(0.0157318 -0.0301077 0)
(0.00749174 -0.0559649 0)
(-0.00343697 -0.0760277 0)
(0.00071427 -0.0714283 0)
(0.00346191 -0.0762036 0)
(0.00084202 -0.0925139 0)
(-7.7134e-05 -0.112925 0)
(-0.000916522 -0.118569 0)
(0.00278681 -0.0648662 0)
(-0.00027575 -0.0652389 0)
(-0.00862041 -0.054378 0)
(-0.00769658 -0.0566526 0)
(0.00204936 -0.07138 0)
(0.0100845 -0.09062 0)
(0.0126585 -0.108978 0)
(0.0101206 -0.131211 0)
(0.0021434 -0.14004 0)
(-0.010951 -0.141988 0)
(-0.0251138 -0.141031 0)
(-0.0201711 -0.135129 0)
(-0.00306097 -0.137083 0)
(0.00987805 -0.12917 0)
(0.0208283 -0.11326 0)
(0.0193343 -0.081559 0)
(0.0169153 -0.0491451 0)
(0.032956 -0.0293625 0)
(0.0497484 -0.0206598 0)
(0.0482093 -0.0272386 0)
(0.032213 -0.0257864 0)
(0.019187 -0.0266538 0)
(0.0130739 -0.0337422 0)
(0.00560039 -0.0527271 0)
(-0.0042275 -0.0745879 0)
(-0.00849113 -0.0766441 0)
(0.000930618 -0.073908 0)
(0.00443509 -0.0844739 0)
(-0.000573196 -0.105156 0)
(0.00191201 -0.110636 0)
(-0.000710631 -0.0591577 0)
(-0.00200924 -0.0523236 0)
(-0.00356052 -0.0484484 0)
(0.00932327 -0.0612477 0)
(0.0211201 -0.0807902 0)
(0.0244205 -0.0960651 0)
(0.0263644 -0.114058 0)
(0.0239076 -0.132999 0)
(0.0135136 -0.141472 0)
(-0.000828076 -0.140931 0)
(-0.0138902 -0.136516 0)
(-0.0224065 -0.133707 0)
(-0.0150015 -0.136165 0)
(-0.00060229 -0.125243 0)
(0.00523698 -0.100452 0)
(0.00437837 -0.0746032 0)
(0.0116659 -0.0460426 0)
(0.0302476 -0.0317034 0)
(0.0500936 -0.0270824 0)
(0.0541827 -0.031347 0)
(0.0415407 -0.0321305 0)
(0.0225532 -0.0319335 0)
(0.0169245 -0.0347039 0)
(0.00579682 -0.0449562 0)
(-0.00274735 -0.0613794 0)
(-0.0170191 -0.0795381 0)
(-0.010613 -0.0771206 0)
(0.00334083 -0.078423 0)
(0.00409866 -0.0899926 0)
(0.00550457 -0.0983784 0)
(-0.012968 -0.0508773 0)
(0.00275285 -0.0446995 0)
(0.0128699 -0.0555803 0)
(0.0314513 -0.0735446 0)
(0.0375407 -0.0873041 0)
(0.0379494 -0.100884 0)
(0.0370056 -0.118697 0)
(0.0337373 -0.134886 0)
(0.0223716 -0.140265 0)
(0.00799536 -0.14205 0)
(-0.00687866 -0.135746 0)
(-0.0159754 -0.129839 0)
(-0.0175978 -0.1306 0)
(-0.0117463 -0.121647 0)
(-0.00332367 -0.0989118 0)
(0.000752457 -0.0788255 0)
(0.0130439 -0.044888 0)
(0.0303375 -0.034849 0)
(0.0502542 -0.0332253 0)
(0.0551044 -0.0361984 0)
(0.050671 -0.0370639 0)
(0.0357512 -0.0311086 0)
(0.022701 -0.0319326 0)
(0.00105915 -0.0372047 0)
(-0.00067415 -0.0416874 0)
(-0.011631 -0.0671589 0)
(-0.0214627 -0.0840591 0)
(-0.00819718 -0.0828682 0)
(0.00169051 -0.0794907 0)
(0.00993162 -0.0831852 0)
(-0.013874 -0.0314935 0)
(0.00172666 -0.0450933 0)
(0.0219746 -0.0662982 0)
(0.0365354 -0.0759119 0)
(0.0410625 -0.0836785 0)
(0.0399154 -0.0966713 0)
(0.0411651 -0.115758 0)
(0.0383179 -0.134521 0)
(0.028874 -0.138247 0)
(0.0144494 -0.140222 0)
(-0.00185145 -0.134874 0)
(-0.0133635 -0.127704 0)
(-0.015428 -0.123966 0)
(-0.0170254 -0.122705 0)
(-0.00663421 -0.0999742 0)
(-0.00293464 -0.0846305 0)
(0.014208 -0.046436 0)
(0.031505 -0.0406097 0)
(0.0482125 -0.0420214 0)
(0.0548071 -0.0387296 0)
(0.0515278 -0.0363753 0)
(0.0479428 -0.0304807 0)
(0.0303559 -0.0275736 0)
(-0.00176733 -0.0275407 0)
(-0.00141795 -0.031074 0)
(-0.00749137 -0.0491162 0)
(-0.0195379 -0.0778866 0)
(-0.0171527 -0.0874876 0)
(-0.00417681 -0.080146 0)
(0.00872709 -0.0653302 0)
(0.000259263 -0.0196403 0)
(0.0108752 -0.053117 0)
(0.0243402 -0.0693316 0)
(0.0329543 -0.0755413 0)
(0.0349513 -0.0766132 0)
(0.0323368 -0.0894959 0)
(0.0342814 -0.110464 0)
(0.0366531 -0.129658 0)
(0.0295961 -0.139335 0)
(0.0187143 -0.140907 0)
(0.00190326 -0.132982 0)
(-0.0111434 -0.127011 0)
(-0.0139793 -0.119841 0)
(-0.0167943 -0.122292 0)
(-0.00968455 -0.0967643 0)
(0.000912316 -0.0864132 0)
(0.0150353 -0.0501366 0)
(0.0312462 -0.0495835 0)
(0.0438756 -0.0491433 0)
(0.0486841 -0.0420248 0)
(0.047065 -0.0348959 0)
(0.0457698 -0.0282246 0)
(0.0386045 -0.0252054 0)
(0.00495827 -0.021985 0)
(-0.00122737 -0.026634 0)
(-0.00563216 -0.0396169 0)
(-0.0175761 -0.0684898 0)
(-0.0176694 -0.0890058 0)
(-0.0110208 -0.0897341 0)
(-0.0042087 -0.0577883 0)
(0.00930127 -0.0264276 0)
(0.0152596 -0.0593978 0)
(0.0255885 -0.0685905 0)
(0.0314965 -0.0669935 0)
(0.0317807 -0.0670056 0)
(0.0303173 -0.0821174 0)
(0.0303831 -0.104432 0)
(0.030574 -0.123543 0)
(0.0274429 -0.138752 0)
(0.0188096 -0.144598 0)
(0.00398556 -0.134576 0)
(-0.00997337 -0.125738 0)
(-0.0149669 -0.119393 0)
(-0.0157632 -0.122182 0)
(-0.0124961 -0.102961 0)
(0.00387307 -0.0873923 0)
(0.0139021 -0.0586695 0)
(0.0282561 -0.0598191 0)
(0.036194 -0.0574179 0)
(0.0386817 -0.0472014 0)
(0.0408133 -0.0348774 0)
(0.0378411 -0.0266585 0)
(0.0398413 -0.0237547 0)
(0.00965641 -0.0222518 0)
(8.10849e-05 -0.0249195 0)
(-0.00489688 -0.0364644 0)
(-0.0150131 -0.0611181 0)
(-0.0193611 -0.0895556 0)
(-0.014694 -0.0980189 0)
(-0.0132957 -0.0744259 0)
(0.0142703 -0.0373509 0)
(0.0179396 -0.0696957 0)
(0.0253944 -0.0728895 0)
(0.031771 -0.0667815 0)
(0.0343836 -0.0654272 0)
(0.0344974 -0.0784404 0)
(0.0338503 -0.0959229 0)
(0.0277348 -0.120565 0)
(0.0233917 -0.138746 0)
(0.0178355 -0.148849 0)
(0.00520598 -0.147579 0)
(-0.0105212 -0.127945 0)
(-0.0162091 -0.119737 0)
(-0.0170767 -0.124263 0)
(-0.0163655 -0.114055 0)
(-0.00300236 -0.0882498 0)
(0.00866695 -0.0651755 0)
(0.0206346 -0.0703613 0)
(0.0269443 -0.0655721 0)
(0.0265947 -0.0557858 0)
(0.0271273 -0.0522849 0)
(0.0292908 -0.0314209 0)
(0.0316677 -0.0213036 0)
(0.0141882 -0.017988 0)
(0.000504759 -0.0249215 0)
(-0.00673233 -0.0370373 0)
(-0.0163764 -0.0626945 0)
(-0.0222243 -0.0927656 0)
(-0.0164337 -0.107788 0)
(-0.0156319 -0.0871467 0)
(0.0166732 -0.057251 0)
(0.0198514 -0.0829415 0)
(0.0271248 -0.0797658 0)
(0.034646 -0.0706097 0)
(0.0361979 -0.0673184 0)
(0.0380827 -0.0773431 0)
(0.0353716 -0.0965481 0)
(0.0290559 -0.118643 0)
(0.0223588 -0.139796 0)
(0.0153146 -0.151289 0)
(0.00790572 -0.157334 0)
(-0.00920417 -0.148874 0)
(-0.0194173 -0.123492 0)
(-0.0198226 -0.125397 0)
(-0.0204395 -0.118894 0)
(-0.0151727 -0.0970226 0)
(0.00136628 -0.0792999 0)
(0.0150762 -0.084227 0)
(0.02163 -0.0857444 0)
(0.0170731 -0.0890815 0)
(0.0135453 -0.0613776 0)
(0.0207069 -0.0322937 0)
(0.0258661 -0.0144557 0)
(0.0260199 -0.00932036 0)
(0.00700568 -0.0172366 0)
(-0.00589227 -0.035044 0)
(-0.0169113 -0.0628862 0)
(-0.0206536 -0.0953936 0)
(-0.0158995 -0.1146 0)
(-0.0162678 -0.101009 0)
(0.018091 -0.0756978 0)
(0.0221395 -0.0920957 0)
(0.0297576 -0.0857145 0)
(0.0372404 -0.0742726 0)
(0.0388603 -0.0711092 0)
(0.0417814 -0.078406 0)
(0.037551 -0.0934597 0)
(0.0301292 -0.117632 0)
(0.0203315 -0.138788 0)
(0.0147919 -0.151838 0)
(0.00882056 -0.158166 0)
(-0.00442002 -0.157004 0)
(-0.0204442 -0.143637 0)
(-0.0235069 -0.126287 0)
(-0.0228059 -0.118643 0)
(-0.0174983 -0.104063 0)
(-0.00664947 -0.0977416 0)
(0.0108294 -0.112714 0)
(0.0109341 -0.128878 0)
(0.00181343 -0.103158 0)
(0.00192476 -0.0623108 0)
(0.0118795 -0.0279539 0)
(0.0192309 -0.00534429 0)
(0.0272178 0.00157241 0)
(0.0253752 -0.00406991 0)
(0.00107815 -0.0251098 0)
(-0.0155131 -0.0608128 0)
(-0.0174651 -0.0964387 0)
(-0.0141959 -0.119336 0)
(-0.0154151 -0.112431 0)
(0.0197406 -0.0932069 0)
(0.0240571 -0.101561 0)
(0.0317309 -0.0923724 0)
(0.0379196 -0.0792602 0)
(0.0387248 -0.076376 0)
(0.0420663 -0.0802542 0)
(0.0417176 -0.0900697 0)
(0.0316155 -0.110974 0)
(0.0224181 -0.137411 0)
(0.0148597 -0.150697 0)
(0.00934361 -0.155717 0)
(-0.00226087 -0.152949 0)
(-0.0181429 -0.144 0)
(-0.0263711 -0.13019 0)
(-0.0248611 -0.119007 0)
(-0.0179916 -0.107347 0)
(-0.00689041 -0.1154 0)
(-0.0050973 -0.183887 0)
(-0.0123512 -0.160128 0)
(-0.0137283 -0.108778 0)
(-0.0121688 -0.0584696 0)
(0.00142934 -0.021508 0)
(0.0115796 0.00269775 0)
(0.0237784 0.0116306 0)
(0.0316618 0.00713355 0)
(0.0186346 -0.00970943 0)
(-0.00608017 -0.0537901 0)
(-0.0165247 -0.0998755 0)
(-0.0135973 -0.123303 0)
(-0.0144477 -0.121604 0)
(0.0211986 -0.112565 0)
(0.0244816 -0.112641 0)
(0.0333171 -0.100518 0)
(0.0401636 -0.0862917 0)
(0.0387542 -0.0819268 0)
(0.0407927 -0.088337 0)
(0.0438816 -0.0966805 0)
(0.0408656 -0.117299 0)
(0.0206524 -0.149667 0)
(0.0137192 -0.156837 0)
(0.00911454 -0.151288 0)
(-0.0019436 -0.147149 0)
(-0.0176627 -0.140039 0)
(-0.0265161 -0.129083 0)
(-0.0271603 -0.120608 0)
(-0.020343 -0.114257 0)
(-0.0114675 -0.146711 0)
(-0.0187991 -0.206823 0)
(-0.0355742 -0.17191 0)
(-0.0328181 -0.114216 0)
(-0.0265193 -0.0545973 0)
(-0.0115677 -0.0131857 0)
(0.000655407 0.0141762 0)
(0.0192923 0.0248221 0)
(0.0284986 0.0197486 0)
(0.0241307 -0.00167524 0)
(0.0145861 -0.040047 0)
(-0.0144859 -0.0939527 0)
(-0.0148322 -0.120126 0)
(-0.0136859 -0.129475 0)
(0.0192383 -0.130529 0)
(0.0234815 -0.123457 0)
(0.0327558 -0.10866 0)
(0.0400012 -0.0906422 0)
(0.0376955 -0.0857302 0)
(0.052939 -0.0943527 0)
(0.0566224 -0.127614 0)
(0.0486928 -0.176748 0)
(0.0194821 -0.206867 0)
(0.00763717 -0.192051 0)
(0.000585365 -0.163635 0)
(-0.00201262 -0.144007 0)
(-0.0167053 -0.136652 0)
(-0.0258194 -0.127224 0)
(-0.0279375 -0.120753 0)
(-0.0227769 -0.119248 0)
(-0.0144889 -0.16845 0)
(-0.0320315 -0.227006 0)
(-0.0529201 -0.17301 0)
(-0.0456663 -0.128323 0)
(-0.0384788 -0.0591944 0)
(-0.023592 -0.0128212 0)
(-0.00885691 0.0181512 0)
(0.0145863 0.037342 0)
(0.0290551 0.0364834 0)
(0.0215483 0.00677088 0)
(-0.000936491 -0.0501958 0)
(-0.0177065 -0.0924008 0)
(-0.014239 -0.11794 0)
(-0.0124155 -0.131929 0)
(0.0146159 -0.15242 0)
(0.0191347 -0.134281 0)
(0.0278441 -0.114762 0)
(0.0352192 -0.0971017 0)
(0.0422007 -0.0957362 0)
(0.0556405 -0.12405 0)
(0.0485973 -0.169612 0)
(0.0482954 -0.225421 0)
(0.0329477 -0.255773 0)
(0.00970534 -0.235507 0)
(-0.00252876 -0.184851 0)
(-0.000917015 -0.140332 0)
(-0.0145941 -0.132388 0)
(-0.0238702 -0.124812 0)
(-0.0267982 -0.120618 0)
(-0.0244379 -0.12402 0)
(-0.0169802 -0.179778 0)
(-0.0456758 -0.235313 0)
(-0.0636133 -0.164802 0)
(-0.055153 -0.123368 0)
(-0.0482326 -0.0589723 0)
(-0.0314039 -0.0112257 0)
(-0.0170018 0.0210492 0)
(0.0087064 0.0431945 0)
(0.0245307 0.0395584 0)
(0.0107388 -0.00401397 0)
(-0.0203684 -0.0607605 0)
(-0.0201454 -0.0913521 0)
(-0.0152434 -0.124146 0)
(-0.0128979 -0.140533 0)
(0.00949937 -0.166169 0)
(0.0138589 -0.147558 0)
(0.0205608 -0.125636 0)
(0.0250111 -0.132355 0)
(0.038568 -0.145116 0)
(0.0476201 -0.186135 0)
(0.0518092 -0.236165 0)
(0.0560087 -0.287812 0)
(0.0504419 -0.310842 0)
(0.0291421 -0.273459 0)
(0.00610461 -0.191524 0)
(0.00192004 -0.13596 0)
(-0.0107268 -0.127493 0)
(-0.0208081 -0.121671 0)
(-0.0239615 -0.119565 0)
(-0.0245236 -0.125099 0)
(-0.0177045 -0.190595 0)
(-0.054855 -0.233906 0)
(-0.0703543 -0.155652 0)
(-0.0668582 -0.117425 0)
(-0.0576558 -0.0637665 0)
(-0.0370178 -0.0110936 0)
(-0.0225043 0.0206276 0)
(0.00309878 0.0428747 0)
(0.0256458 0.046695 0)
(0.0199065 0.0108939 0)
(-0.013327 -0.0511845 0)
(-0.0167996 -0.0903218 0)
(-0.0130624 -0.130307 0)
(-0.0101355 -0.152629 0)
(0.00146134 -0.170389 0)
(0.00750512 -0.170227 0)
(0.00933428 -0.163138 0)
(0.0187411 -0.168918 0)
(0.0327829 -0.188594 0)
(0.0386293 -0.240575 0)
(0.0421322 -0.275835 0)
(0.0533926 -0.299897 0)
(0.0604748 -0.315617 0)
(0.057323 -0.313669 0)
(0.029312 -0.246668 0)
(0.00464882 -0.139302 0)
(-0.00487302 -0.123099 0)
(-0.0163854 -0.117763 0)