/*--------------------------------*- C++ -*----------------------------------*\
| =========                 |                                                 |
| \\      /  F ield         | OpenFOAM: The Open Source CFD Toolbox           |
|  \\    /   O peration     | Version:  2.4.0                                 |
|   \\  /    A nd           | Web:      www.OpenFOAM.org                      |
|    \\/     M anipulation  |                                                 |
\*---------------------------------------------------------------------------*/
FoamFile
{
    version     2.0;
    format      ascii;
    class       volScalarField;
    location    "1.375";
    object      p;
}
// * * * * * * * * * * * * * * * * * * * * * * * * * * * * * * * * * * * * * //

dimensions      [1 -1 -2 0 0 0 0];

internalField   nonuniform List<scalar> 
4608
(
0
-0.0307411
-0.03921
-0.0278569
-0.275932
-1.65923
1.93009
2.32406
-0.0590387
-0.0359005
-0.116616
-0.19432
1.92347
1.87959
1.81213
1.64091
2.97354
3.69849
5.15478
4.96664
3.18637
1.89951
1.77588
1.60396
3.83211
3.80251
3.79736
5.607
7.80018
7.75443
7.88059
7.63329
6.23093
3.46443
3.24295
2.97481
5.79795
5.80977
5.82611
6.80911
11.0845
12.2955
11.5173
10.1114
6.2431
5.51475
5.22648
4.87972
7.92719
7.95339
7.97323
7.88814
8.78538
9.06328
8.53737
8.2083
7.73816
7.67149
7.3969
7.01146
10.4046
10.4343
10.4857
10.5029
10.6108
10.746
10.6836
10.7607
10.6933
10.446
9.99064
9.41975
13.1249
13.183
13.2842
13.4295
13.5742
13.7133
13.8007
13.8588
13.7445
13.4101
12.8
11.9176
16.0099
16.1555
16.3151
16.5786
16.7928
16.966
17.0924
17.1666
17.0496
16.6985
15.9449
14.7084
19.0128
19.3412
19.5653
19.9612
20.2335
20.3926
20.5117
20.6342
20.5785
20.3264
19.7521
18.9614
22.0342
22.7103
22.9737
23.5296
23.8291
23.9123
23.9214
24.1293
24.1934
24.0808
24.0958
24.609
24.9116
26.2081
26.4955
27.1586
27.7469
27.5552
27.1548
27.4533
27.5051
27.64
28.5485
30.0822
26.5165
29.4059
29.4833
30.3351
30.9097
30.4306
29.5596
30.3486
30.3845
30.7477
31.332
32.794
-0.364622
-0.540507
-0.812478
-1.10369
1.55461
2.1056
-0.31271
-1.36917
-0.604737
1.75577
-2.97041
-2.82532
1.23574
1.36039
1.09353
0.723488
0.531536
0.178987
0.400805
0.0723151
3.04707
3.64746
3.8338
3.35946
2.64646
2.31654
2.04198
1.86107
1.66893
1.50468
1.58541
1.41525
1.69508
2.84223
6.36027
3.60381
4.50861
4.17467
3.88855
3.69836
3.55755
3.48835
3.59605
3.62143
3.8002
3.83929
3.99648
6.9651
6.56912
6.22881
5.94974
5.79231
5.70783
5.74404
5.8594
6.1212
6.38758
7.13045
6.39117
4.89269
8.83382
8.48896
8.18997
7.96377
7.80055
7.7232
7.75554
7.6898
6.70254
5.22452
5.32473
8.35949
11.1329
10.887
10.8772
10.9519
10.7034
10.1969
9.25795
9.22401
9.49002
9.99797
10.694
12.2599
14.359
15.9745
16.6531
16.7105
16.6098
16.4729
16.4745
15.9552
16.0473
16.3069
16.717
17.4592
20.7247
22.2564
22.5698
22.5874
22.6602
22.8632
22.1519
22.2332
22.2957
22.4623
22.842
24.0177
27.3893
28.3846
28.3864
27.9725
27.9379
28.0351
27.9037
27.9095
28.5651
28.571
29.0584
29.9427
32.9687
33.9839
33.7165
33.2868
33.0469
33.0494
35.1244
34.3188
34.1126
34.2782
34.8012
36.0888
37.3439
38.4205
37.7667
37.7384
37.5716
36.1816
37.7427
37.5569
38.1134
38.4406
39.2958
40.5965
-7.70739
-7.73014
-7.74817
-7.76196
-7.77635
-7.7921
-7.80609
-7.81454
-7.81265
-7.79448
-7.7529
-7.68292
-5.57563
-5.60722
-5.613
-5.60519
-5.57705
-5.52486
-5.44807
-5.34728
-5.22434
-5.08222
-4.92735
-4.66679
-3.96088
-3.94781
-3.89925
-3.80597
-3.66704
-3.48172
-3.25317
-2.98829
-2.69907
-2.37994
-1.9858
-1.70889
-1.966
-1.92369
-1.80714
-1.61755
-1.35703
-1.02727
-0.637678
-0.203881
0.250122
0.710163
1.27
1.6138
0.162573
0.26177
0.46548
0.771147
1.16711
1.64874
2.19721
2.78829
3.38561
3.95126
4.48695
4.9169
2.45277
2.62491
2.93276
3.36764
3.89922
4.52125
5.20361
5.91774
6.618
7.25827
7.80463
8.23226
4.89462
5.16532
5.60491
6.18586
6.84764
7.58478
8.35741
9.1409
9.89039
10.5508
11.0908
11.4905
7.46161
7.87738
8.50381
9.25757
10.0418
10.8538
11.6539
12.4324
13.1711
13.7915
14.2789
14.611
10.107
10.7412
11.6518
12.6183
13.5132
14.3432
15.0868
15.7641
16.4365
16.9587
17.3493
17.5822
12.7234
13.6963
15.022
16.2711
17.2521
18.0248
18.6022
19.0716
19.6447
20.0349
20.2895
20.4133
15.139
16.6877
18.4751
20.1414
21.168
21.7504
22.0214
22.2051
22.6896
22.9827
23.067
23.1165
16.0509
19.4029
21.5023
23.8174
25.008
24.9089
24.885
24.8296
25.3323
25.6922
25.599
25.6821
-7.5848
-7.45855
-7.28913
-7.12101
-6.9002
-6.71762
-6.58919
-6.52826
-6.53473
-6.59504
-6.68236
-6.76326
-4.48292
-4.44856
-4.26693
-4.1291
-4.07305
-4.06992
-4.13968
-4.26685
-4.46615
-4.69375
-4.91098
-5.07962
-1.57527
-1.40488
-1.28696
-1.22266
-1.24481
-1.37052
-1.59793
-1.91697
-2.33273
-2.77609
-3.16899
-3.4945
1.78184
1.98421
2.09266
2.089
2.04264
1.81224
1.41505
0.888401
0.243081
-0.412914
-1.04872
-1.57261
5.17892
5.38602
5.48386
5.47365
5.41075
5.10463
4.68519
4.17353
3.89096
2.74301
1.60122
0.887839
8.53497
8.72644
8.81656
8.80925
8.7065
8.51152
8.14054
7.70624
7.40958
6.46325
5.02657
4.1413
11.7557
11.9104
11.9835
11.9898
11.9341
11.8
11.5477
11.1337
10.6881
10.195
8.73615
7.52024
14.8019
14.8949
14.939
14.962
14.9679
14.9422
14.8482
14.6258
14.3789
13.7656
12.7985
11.4239
17.6578
17.6558
17.6514
17.6843
17.7596
17.8591
17.9501
17.9266
18.1191
18.0762
17.7295
17.1649
20.3214
20.1811
20.1006
20.13
20.276
20.4897
20.7686
20.8505
21.6118
22.4634
23.1019
23.118
22.7837
22.4525
22.2642
22.2683
22.4795
22.7668
23.1923
23.1465
24.5637
26.6049
28.481
28.6208
24.9923
24.4174
24.1036
24.0623
24.3139
24.6634
25.048
25.8905
27.4076
30.4507
32.9253
34.5151
-5.01794
-5.02844
-5.03881
-5.05529
-5.07244
-5.08656
-5.10165
-5.11402
-5.11991
-5.11543
-5.09659
-5.05969
-2.8947
-2.91734
-2.93437
-2.95824
-2.96192
-2.94762
-2.90938
-2.84834
-2.76705
-2.66932
-2.55976
-2.44338
-1.32589
-1.33272
-1.32794
-1.2839
-1.20951
-1.09494
-0.939093
-0.746763
-0.527289
-0.293407
-0.0596369
0.159406
0.736186
0.729607
0.760007
0.845106
0.991456
1.20495
1.48075
1.80745
2.1668
2.53595
2.89073
3.20878
2.91173
2.93754
3.01686
3.17366
3.41169
3.73621
4.13466
4.58904
5.07415
5.55895
6.01221
6.40723
5.28175
5.35098
5.48772
5.72594
6.05345
6.47785
6.9745
7.52009
8.0904
8.65066
9.16472
9.60487
7.82662
7.96883
8.17424
8.50469
8.91168
9.413
9.96606
10.5419
11.1366
11.7212
12.2493
12.6975
10.5247
10.7956
11.0827
11.5194
11.9914
12.5417
13.1013
13.6246
14.162
14.721
15.2107
15.6301
13.3424
13.8327
14.2007
14.7505
15.268
15.8462
16.3764
16.7533
17.1234
17.6317
18.0264
18.3811
16.2057
17.0554
17.4519
18.0895
18.6199
19.2248
19.7345
19.8886
19.9378
20.4337
20.6896
20.9386
19.019
20.4005
20.6845
21.3435
21.9083
22.5406
23.008
22.8917
22.4111
23.0411
23.177
23.2418
20.6306
23.4722
23.4911
24.0742
24.5826
25.2233
25.6966
25.3477
24.1622
25.2916
25.4259
25.0945
-5.00233
-4.92523
-4.83383
-4.72667
-4.5877
-4.47322
-4.39626
-4.36643
-4.38461
-4.43867
-4.50369
-4.54898
-2.32541
-2.2105
-2.0996
-2.01299
-1.99383
-2.0142
-2.08434
-2.20614
-2.36893
-2.54947
-2.71445
-2.83213
0.350323
0.501153
0.597937
0.640706
0.620781
0.515168
0.321191
0.0413224
-0.3036
-0.675873
-1.01064
-1.27579
3.47173
3.66589
3.78014
3.80112
3.725
3.53855
3.23237
2.80594
2.26789
1.65752
1.08325
0.618854
6.72434
6.95057
7.07811
7.09694
7.00055
6.77917
6.41855
5.91102
5.2439
4.40594
3.56701
2.84813
9.95258
10.1983
10.3374
10.3697
10.283
10.0753
9.73004
9.21309
8.50712
7.59714
6.49973
5.52006
13.0476
13.2959
13.4415
13.4887
13.4382
13.2883
13.03
12.6117
12.0054
11.0866
9.97875
8.69462
15.9547
16.1904
16.3361
16.3993
16.399
16.3327
16.2163
15.9851
15.6274
14.9402
13.9717
13.4855
18.653
18.8622
18.9996
19.0714
19.1178
19.1436
19.1936
19.2016
19.1994
18.9245
18.4168
18.2906
21.1445
21.3129
21.4354
21.4941
21.5625
21.6684
21.8715
22.1236
22.5206
22.7849
23.0115
22.6321
23.4305
23.535
23.6576
23.6667
23.717
23.8756
24.1778
24.6281
25.3788
26.197
27.3405
27.3205
25.4876
25.4606
25.6573
25.5666
25.5477
25.7438
26.0633
26.6242
27.5777
28.7476
30.8668
32.1124
-14.7392
-14.7825
-14.5797
-14.1396
-13.3981
-12.3453
-12.2319
-12.7026
-13.1702
-13.651
-14.5782
-14.7526
-11.7705
-11.684
-11.5
-11.2878
-11.122
-11.5779
-11.7731
-11.4048
-11.6286
-12.1657
-12.3303
-13.5852
-9.04434
-8.97181
-8.8604
-8.71445
-8.58342
-8.18283
-8.83986
-9.59146
-10.3052
-10.9674
-11.4076
-11.7948
-5.30089
-5.57398
-5.65786
-5.36054
-5.6019
-6.24921
-7.08414
-8.04502
-8.98832
-9.77677
-10.2855
-10.6244
-0.308579
-1.78463
-2.76521
-2.9238
-3.36419
-4.08584
-5.08312
-6.29682
-7.49924
-8.39578
-8.82638
-9.14168
4.19016
-0.12288
-0.370546
-0.440751
-0.78728
-1.52106
-2.70463
-4.29328
-5.91122
-6.79924
-6.76927
-7.42382
4.75159
2.33819
2.36015
2.43412
2.21118
1.51942
0.191754
-1.90511
-4.29275
-5.18711
-5.52423
-5.96891
7.17369
5.14554
5.29553
5.53812
5.5904
5.18046
4.10474
1.89072
0.000342366
0.500332
0.710131
0.939931
7.39661
8.0756
8.33358
8.77794
9.22643
9.4426
9.13727
7.65939
7.54385
8.13492
8.95903
9.43165
11.0817
11.1481
11.2902
11.773
12.7279
13.8921
14.5082
14.1879
17.1892
17.6269
18.1105
17.4753
11.5352
13.8327
15.4545
18.0477
17.107
17.4425
18.553
20.7474
25.5024
26.1178
25.4948
24.7493
24.7691
27.6979
22.887
19.5835
20.6911
24.4433
28.3759
28.3829
29.6895
30.5388
30.6197
30.601
-15.8753
-17.0779
-17.8419
-18.3449
-18.7008
-18.945
-19.1293
-19.2486
-19.2887
-19.2648
-19.1564
-18.9694
-15.9535
-16.6592
-16.6847
-16.5326
-16.4003
-16.2252
-16.112
-16.0012
-15.7933
-15.6558
-15.4628
-15.2061
-12.1174
-15.2522
-15.9789
-15.093
-14.657
-13.8484
-13.519
-13.2008
-12.4268
-11.7705
-10.9348
-11.0675
-10.7237
-13.9795
-14.7244
-12.6316
-11.9779
-10.141
-8.7697
-7.93119
-8.17019
-8.09144
-6.51894
-5.81618
-10.006
-11.7998
-12.3762
-9.6428
-8.26179
-6.73308
-7.27732
-6.97337
-6.09758
-5.71188
-5.90403
-6.6248
-8.90508
-8.06978
-8.05049
-5.79999
-4.34379
-3.35645
-2.12747
-1.30349
-0.737938
-0.55662
-0.900909
-1.46987
-4.69352
-3.62378
-2.24943
-0.338189
1.25359
2.35419
3.21506
4.39516
5.17987
5.43419
5.07671
4.47823
1.97103
3.2306
4.67405
6.03395
7.38152
8.24332
8.67637
11.5886
13.0385
12.7842
12.0995
12.5907
9.58959
10.2692
11.8322
12.7091
13.828
14.2376
15.1504
20.7086
20.4322
19.5109
18.5153
19.556
20.1673
20.1824
19.5062
19.1641
19.2923
19.8229
18.8136
21.3139
22.6996
22.7584
22.0081
20.2455
24.5219
25.0196
25.9925
25.5103
24.3044
25.4894
25.5603
21.8652
23.9871
25.77
25.5016
25.7823
29.8572
29.3081
30.1323
29.7273
28.6398
30.5025
32.4832
31.4143
29.5852
29.3128
29.0124
31.9004
29.7869
31.4437
31.1611
32.2232
33.0672
33.1894
35.8368
34.5923
32.2703
32.3244
33.0169
34.1563
30.4354
32.068
31.8379
33.0065
34.1017
34.9777
36.1124
36.7098
36.6199
33.2048
33.923
34.9247
31.1476
33.1447
33.1284
34.2115
34.1358
35.3049
36.3272
34.4305
34.7072
34.2974
34.6878
35.5897
31.7433
34.2458
34.1308
35.4257
34.8939
35.8609
38.4143
36.205
35.0053
34.6476
35.3922
36.204
32.5447
35.247
34.7613
36.2651
35.4669
36.3809
35.0388
36.6203
35.4433
35.2826
36.0184
36.7231
33.4397
36.2576
35.2839
37.0581
35.832
37.0856
35.4716
36.0168
35.6956
35.7892
36.5628
37.118
34.1837
37.2782
35.6963
37.8137
36.0258
37.5806
36.7541
36.2193
35.8775
36.2307
37.0426
37.3894
34.8275
38.3549
35.9955
38.5347
35.9595
38.1039
37.6456
36.7716
35.8589
36.6602
37.4681
37.5438
35.3975
39.5019
36.1963
39.2013
35.5358
38.596
38.315
38.3097
35.487
37.1444
37.8316
37.5779
35.6799
40.3997
36.2771
39.6838
34.8155
38.9365
39.0859
42.314
34.8795
37.8427
38.1198
37.4793
35.8824
41.0008
36.6038
40.7888
34.2531
38.6222
39.6019
40.9226
34.023
38.7697
38.3349
37.2569
38.3986
42.3496
36.7595
41.0492
38.0391
37.3959
42.6376
53.2823
32.3888
38.6088
37.9484
36.9867
36.8765
39.6891
39.4991
39.7167
38.5837
37.2415
38.3597
38.3558
38.9199
39.3715
40.1441
38.7703
36.585
39.4525
39.9205
39.8272
38.5108
37.7488
38.6287
38.7007
39.2622
39.5596
40.1559
36.3192
36.5032
37.6394
38.2954
38.1662
37.4053
38.0363
38.7564
38.8899
39.3833
39.5545
39.6659
36.3222
37.0973
37.8853
38.2377
38.2183
37.4731
38.0332
38.807
38.9404
39.3169
39.4054
39.0789
36.8
37.5901
38.3116
38.5722
38.5853
37.7642
38.2035
38.7591
38.8555
39.0997
39.1329
38.5151
36.9052
37.9522
38.6531
38.875
38.9178
37.913
38.2379
38.6049
38.6461
38.7571
38.7687
37.9783
36.8453
38.1797
38.9218
39.1587
39.236
37.9265
38.1544
38.3493
38.3252
38.3084
38.3408
37.4585
36.716
38.2771
39.1342
39.4389
39.5493
37.8013
37.9643
38.002
37.9056
37.7738
37.8689
36.9573
36.5756
38.2465
39.3196
39.7633
39.8604
37.5156
37.6679
37.5706
37.3979
37.1682
37.357
36.4728
36.4762
38.0887
39.5233
40.2116
40.168
37.009
37.2343
37.0107
36.7411
36.3408
36.6021
35.8168
36.323
37.799
39.8096
40.8991
40.4902
36.099
36.4176
36.002
35.7107
35.2417
35.5713
34.8277
35.8569
41.9634
41.1883
42.7587
41.6111
34.668
35.221
34.7792
34.2983
33.8331
34.4179
33.7804
35.5987
31.1804
20.6187
23.55
26.5331
28.6314
25.7886
27.6898
28.2957
27.6104
27.3645
27.2084
27.4915
37.1097
41.2407
33.8857
34.4311
32.9579
33.5709
31.2234
30.2043
29.216
28.4639
28.2037
28.6333
29.6094
32.8593
35.3639
37.6037
38.9431
34.9348
33.5504
31.5852
30.6981
30.2833
29.5556
29.6776
30.6813
31.6418
27.0084
27.373
26.3661
30.5508
31.4749
32.5016
31.98
31.8272
31.3925
30.6978
31.434
31.9921
27.6227
27.7294
28.0581
30.4825
31.7873
32.8982
32.9352
32.5843
33.5707
34.5028
32.0778
32.2637
28.2529
28.2668
28.9444
30.8423
32.2915
33.4608
33.8676
33.8412
34.5148
38.4113
32.6655
32.4962
28.6789
28.6176
29.4375
31.228
32.7327
33.8594
34.3355
34.3806
34.4919
31.2844
33.2064
32.7218
28.9008
28.7472
29.6392
31.5527
33.1354
34.2147
34.731
34.6049
33.8332
31.1208
33.7257
32.9455
28.8898
28.6461
29.6176
31.8071
33.5234
34.5673
35.1137
34.9957
34.312
31.8931
34.2701
33.1743
28.6015
28.3319
29.43
32.0228
33.9314
34.9422
35.5175
35.4626
34.9133
32.7941
34.6684
33.3443
27.7952
27.7138
29.1355
32.3057
34.4225
35.347
35.9507
36.0514
35.6557
33.8277
35.8584
34.5846
37.4777
43.8263
46.6299
50.2083
44.2501
35.921
36.367
36.6931
36.832
34.9524
26.4097
25.6033
25.199
25.1315
25.3977
25.9333
26.1152
28.1542
40.7688
37.1931
33.5649
32.4277
27.2675
26.284
25.8345
25.7488
26.0057
26.6383
26.7719
28.2666
38.0049
37.9456
34.0042
31.4212
28.0226
26.8458
26.3792
26.2783
26.5267
27.2123
27.539
28.5396
33.0843
37.1807
36.539
30.297
28.5477
27.2504
26.8269
26.7271
26.9729
27.7092
28.2684
29.3552
32.2149
34.5981
35.4078
28.8799
29.3043
27.4911
27.1289
27.0789
27.3347
28.1143
28.8632
30.0278
32.2956
33.3784
32.0958
35.1812
44.8963
33.5451
27.2746
27.3132
27.5847
28.388
29.2485
30.4578
32.3311
33.3321
32.4914
34.1192
32.2636
29.9973
27.4802
27.4683
27.7096
28.483
29.4113
30.6084
32.2459
33.1234
32.0999
31.5942
31.1813
28.0652
27.6969
27.5429
27.6993
28.408
29.3061
30.555
32.018
32.8928
33.0144
33.6597
31.4929
28.6445
27.909
27.5035
27.5438
28.1644
29.0383
30.4195
32.3984
32.5374
33.193
32.9741
31.8843
29.1287
28.0011
27.3207
27.2425
27.7464
28.5592
29.8907
31.3884
32.382
33.6264
32.2802
32.3955
29.6085
28.0112
27.0427
27.0003
27.2582
28.099
29.3282
31.0323
33.4513
39.2032
39.1348
33.2256
30.1998
28.0975
27.0515
26.6053
26.6952
27.599
28.6107
30.497
32.9805
39.9162
38.5313
25.2068
26.0349
25.1985
25.4755
25.9562
26.7285
27.2765
28.3432
30.3214
28.8322
26.9254
25.879
26.7712
26.8873
25.9774
26.1624
26.6773
27.5084
28.1106
28.0662
30.298
31.5053
33.0177
31.7634
28.0449
27.4886
26.5257
26.6471
27.2204
28.079
28.7025
28.5632
28.7789
27.9524
28.3195
29.6725
29.0925
27.8052
26.9217
26.9871
27.63
28.4587
29.0223
29.0597
29.417
28.4428
28.9272
29.6448
30.2517
27.8322
27.1771
27.194
27.9313
28.6972
29.0447
29.197
29.3282
28.8031
29.3208
29.7102
39.5267
40.917
28.5067
27.2546
28.1275
28.7747
29.0755
29.6975
29.0959
28.9766
29.5805
29.7735
28.4879
30.4936
30.0506
27.3518
28.2256
28.7589
28.6931
29.8016
29.8483
29.6361
29.8921
29.785
29.9406
30.0606
27.8336
27.5457
28.2639
28.5583
27.9755
29.84
30.4105
31.3527
31.2256
29.8646
31.1591
30.1103
28.1675
27.6255
28.2583
28.2055
26.9189
30.4258
34.0523
31.9183
31.7272
30.1512
30.7726
30.1001
28.376
27.7774
28.1094
27.3111
26.1133
41.2107
33.5348
32.2154
31.7393
29.8493
34.7487
30.2597
28.4649
28.0563
29.1065
27.1063
23.7104
23.1262
29.8365
32.0536
31.801
32.3808
38.3467
31.0855
28.3868
28.7883
32.2336
27.6173
22.1815
23.4566
28.3846
31.6316
31.756
34.3099
26.8579
26.5854
26.9479
26.7474
26.6277
26.8669
27.1483
27.717
28.6293
29.6493
30.7629
30.4294
27.9064
27.1806
27.7146
27.4411
27.2215
27.5146
27.7985
28.3131
29.1695
30.0385
30.6127
29.9123
31.3597
31.9346
29.8435
28.0183
27.6735
28.0594
28.2958
28.8077
29.6457
30.3699
30.4832
29.8368
27.8531
29.0594
30.3223
31.0526
29.536
28.5209
28.7504
29.1265
29.9447
30.5656
30.389
29.8486
28.3238
29.4676
29.7661
29.3828
28.8793
29.4468
29.1479
29.4019
30.2402
30.7725
30.3019
29.8676
28.7093
29.7684
30.276
29.6393
28.6068
29.1691
29.5359
29.5794
30.4603
30.9218
30.1944
29.8758
29.0102
30.0271
30.8005
29.6856
28.6074
29.3094
30.1296
29.8196
30.7336
31.0338
30.0268
29.8388
29.2237
30.3055
31.3756
29.4891
28.572
29.2098
30.9248
30.5812
32.6477
32.6426
30.0278
29.7732
28.6641
30.1952
32.1476
28.9135
28.5342
28.6167
31.5172
30.4641
33.3805
35.192
29.9915
29.4922
26.8686
29.3799
33.7691
36.0822
35.2955
37.5855
34.9952
34.5844
33.8322
35.3239
39.7786
36.2241
38.2914
40.0274
40.6128
37.434
36.0397
34.8469
36.7185
32.5021
33.0503
33.2646
32.2353
31.2467
41.7782
37.5936
28.0814
28.2393
28.5864
29.8902
27.1448
31.2529
32.5002
32.5999
31.6939
29.7844
22.6313
22.6364
19.9627
20.7993
22.9714
24.6565
26.5811
28.6158
30.6332
31.785
32.1723
33.4699
24.0197
23.5147
21.9557
21.9242
23.9381
25.8431
27.6692
29.4952
31.2925
32.631
33.2978
35.1407
24.9141
24.1993
22.4657
22.827
24.3261
26.0022
28.4725
29.9405
31.6617
33.1379
34.1273
35.7742
25.637
24.7939
23.0447
24.0117
25.3975
26.9672
29.0985
30.2876
31.8221
33.2778
34.2569
34.657
26.2546
25.4902
25.5418
26.8322
27.5978
28.5818
29.6463
30.3482
31.8197
33.2572
34.2316
34.4783
26.8706
26.2017
27.2056
28.0337
28.6623
29.8897
30.2195
30.1323
31.6324
33.1258
34.1492
34.5586
27.4492
27.0166
27.2317
28.5629
29.4924
30.76
33.4027
30.049
31.3871
32.9389
34.0319
34.6066
27.8915
26.5521
28.3211
29.3897
30.0663
31.3803
35.6618
30.0322
31.1189
32.7294
33.9306
34.7024
28.2982
38.2605
34.7422
30.2007
30.3429
31.4806
31.591
29.6522
30.8924
32.5349
33.8693
34.8413
28.1545
27.255
28.6337
29.4672
29.8012
30.2758
29.9367
29.4107
30.6202
32.3243
33.8471
35.0319
28.43
27.7136
28.0339
28.5959
28.9455
29.3913
29.3277
29.4727
30.2775
32.0773
33.8536
35.288
28.5432
28.1561
28.2846
28.6015
28.8246
29.1872
29.1256
29.1794
29.903
31.7999
33.8427
35.5428
32.655
32.1563
33.9179
33.4014
32.7214
34.3421
35.4755
38.0036
32.2209
29.7482
30.6241
31.3652
34.1034
33.4839
35.6277
35.2366
33.9081
38.8722
43.1195
43.3206
37.2346
31.833
31.5629
31.2473
34.6857
34.065
37.527
41.3928
37.2712
35.0724
32.4252
38.9956
37.0703
33.0275
32.4095
32.1125
33.46
32.2838
41.0842
42.6431
37.5444
37.0867
33.8112
38.4264
37.7957
32.8358
31.9119
32.128
33.9048
32.0867
41.8615
35.1737
36.1765
33.8291
32.9066
37.7766
37.5973
33.3853
32.1061
32.6857
34.1262
33.2477
30.9543
40.162
37.388
34.0737
33.7102
37.3012
37.5862
34.2918
32.9189
33.6023
34.3939
33.8132
32.1762
32.9533
37.0354
34.0902
34.467
37.5285
37.6883
35.0158
33.5743
34.3466
34.7
34.292
33.1994
33.433
34.877
33.6894
34.8297
37.934
37.848
35.5656
34.0633
34.9155
35.0218
34.7605
34.0225
34.3571
34.3601
33.0402
34.98
38.5367
38.0556
35.9576
34.4016
35.292
35.386
35.2125
34.8468
35.0017
34.6084
31.7283
34.9967
39.3649
38.2919
36.339
34.6656
35.3064
35.8211
35.6556
35.5678
35.7489
39.3039
30.0906
34.8512
40.5154
38.4904
36.4205
34.9654
35.5604
36.2644
36.1118
36.0118
36.3716
40.5389
45.8202
33.7639
41.6661
38.1626
35.2564
34.4013
35.0657
35.2333
39.6649
37.0656
34.8635
35.8055
36.5968
40.3888
47.4202
44.5963
44.3717
47.7298
45.6716
36.8703
37.8315
36.0518
37.7226
36.2699
36.2168
40.0463
44.0481
43.3949
47.0643
46.7627
39.4676
36.4924
33.5606
34.7491
31.1212
34.6264
36.0701
36.3198
36.5181
37.6916
33.7753
37.1088
36.9756
34.4878
33.8568
34.7373
32.0261
34.7858
35.8573
36.1858
35.9637
36.6058
34.4911
36.2795
36.2171
34.2601
33.8965
34.6625
32.6731
34.8364
35.6787
36.0038
35.8769
36.2927
34.9876
36.1079
36.2808
34.7334
33.955
34.5929
33.1641
34.8541
35.5575
35.9042
35.8363
36.1432
35.3088
36.029
36.2719
34.7568
34.0076
34.53
33.5444
34.8629
35.4785
35.8288
35.8095
36.0564
35.5068
35.9832
36.2432
34.5803
34.0384
34.4781
33.8342
34.8715
35.4274
35.771
35.789
35.9993
35.6256
35.9513
36.2072
34.1837
34.0374
34.438
34.0533
34.8819
35.3933
35.7246
35.7721
35.958
35.6962
35.9259
36.1657
34.3447
34.0354
34.4107
34.2197
34.8937
35.3691
35.6854
35.7568
35.9251
35.737
35.9028
36.1202
34.6769
34.0411
34.3968
34.3474
34.9063
35.3506
35.6508
35.7417
35.8966
35.7589
35.8799
36.0672
34.9611
34.0692
34.3946
34.4466
34.9192
35.3354
35.6195
35.7261
35.8707
35.7695
35.8555
35.9812
40.5024
42.7586
51.9911
54.1754
42.3115
37.0234
34.5222
33.8016
33.4801
33.9995
33.5584
35.4279
38.1187
37.2026
36.9824
35.2822
38.3396
36.9538
35.1342
34.5799
34.1389
34.4557
34.1305
35.386
37.7191
37.1963
36.9098
35.7595
36.7635
36.5985
35.6816
35.1814
34.8557
35.0796
34.7937
35.4742
37.326
37.1428
36.8688
36.0411
36.475
36.1981
35.7304
35.578
35.4985
35.6849
35.0565
35.1446
37.0726
37.074
36.846
36.2477
36.5077
36.1491
35.5161
35.2018
35.0115
35.0568
34.7258
35.0546
36.9032
37.0082
36.8287
36.3939
36.5392
36.2037
35.6797
35.3359
35.0351
34.9876
34.91
35.1644
36.7827
36.9509
36.8133
36.4929
36.5637
36.2606
35.8279
35.5203
35.2599
35.1965
35.1018
35.2548
36.6967
36.9026
36.799
36.5573
36.5796
36.3098
35.9482
35.6715
35.4376
35.3585
35.2498
35.3323
36.6384
36.863
36.7855
36.5972
36.5869
36.347
36.0401
35.79
35.576
35.4828
35.3626
35.3974
36.6034
36.8318
36.7729
36.6199
36.5871
36.3722
36.1066
35.8783
35.6796
35.5755
35.4482
35.4514
36.5945
36.8094
36.7611
36.6308
36.5818
36.3875
36.153
35.9424
35.7556
35.6441
35.514
35.4969
36.6386
36.7968
36.75
36.6338
36.573
36.3952
36.1844
35.9883
35.8113
35.6955
35.5661
35.5358
36.3421
36.5879
37.1189
38.9705
38.5401
37.5179
36.393
36.2045
36.7961
37.5349
37.388
35.6885
35.0489
32.2074
34.6576
35.0005
35.7462
36.5488
36.0942
36.0113
36.181
36.3039
36.2605
35.0402
34.9733
33.2604
34.7469
35.2045
35.8785
36.2851
35.9516
35.9142
35.9937
36.0621
35.8473
34.8187
35.0103
34.0383
35.0398
35.3965
35.9348
36.1171
35.8564
35.8394
35.8695
35.8805
35.5662
34.6598
35.021
34.4926
35.2202
35.5052
35.9323
36.0094
35.8151
35.7899
35.7735
35.7317
35.359
34.5436
35.0812
34.8181
35.3308
35.563
35.897
35.9316
35.7748
35.7287
35.6918
35.6083
35.1993
34.4566
35.1496
35.0463
35.4051
35.6034
35.8619
35.8713
35.7471
35.6868
35.6247
35.5097
35.0798
34.3959
35.2167
35.2051
35.4568
35.6283
35.8285
35.8251
35.7226
35.6519
35.5713
35.435
34.9976
34.3592
35.2793
35.3165
35.495
35.6441
35.8
35.7898
35.7019
35.624
35.531
35.3831
34.9505
34.3417
35.3371
35.3971
35.5253
35.6557
35.7767
35.7632
35.6855
35.6033
35.5032
35.3523
34.938
34.339
35.3895
35.4574
35.551
35.6649
35.7592
35.7438
35.6733
35.5892
35.4868
35.3402
34.9617
34.3651
35.4366
35.5042
35.5737
35.6729
35.7469
35.7304
35.6654
35.5813
35.48
35.3435
35.0207
34.4946
33.4586
30.7158
28.5057
26.9722
26.2531
26.5029
27.5534
29.7415
32.809
33.5873
35.0182
36.2574
33.3537
31.0395
29.0353
27.6343
26.9493
27.1331
28.0144
28.6318
30.0446
32.2466
34.1529
34.7569
33.2514
31.2857
29.4977
28.2291
27.5922
27.6995
28.3558
29.0007
30.2367
32.0241
33.525
33.7677
33.1677
31.4648
29.8569
28.7052
28.1079
28.1516
28.6516
29.2691
30.3473
31.8306
33.0178
33.0546
33.09
31.5903
30.1324
29.0845
28.5239
28.5197
28.9101
29.4759
30.4154
31.6512
32.571
32.5147
33.0066
31.6737
30.3443
29.3909
28.8662
28.8266
29.1356
29.6442
30.4595
31.4846
32.1955
32.0926
32.9121
31.7209
30.5047
29.6382
29.1486
29.0836
29.3297
29.7818
30.4861
31.334
31.8841
31.7573
32.7988
31.7373
30.6224
29.8364
29.3808
29.2984
29.495
29.8934
30.4996
31.2003
31.626
31.4878
32.66
31.7256
30.7045
29.9936
29.5713
29.4773
29.6347
29.9834
30.5039
31.0829
31.4118
31.2687
32.49
31.6871
30.7573
30.1174
29.7271
29.6262
29.7519
30.0557
30.5019
30.9804
31.2334
31.0888
32.2783
31.6217
30.7864
30.2141
29.8544
29.75
29.8499
30.1136
30.4956
30.8913
31.0844
30.94
31.9893
31.5312
30.7976
30.2893
29.9584
29.8526
29.9315
30.1598
30.4869
30.8142
30.9597
30.8163
31.6157
32.7998
35.8507
33.7253
28.1131
23.8479
23.012
23.795
28.5488
30.0839
30.902
33.5598
31.5728
29.5223
27.7272
26.5779
27.263
24.6702
24.0415
24.4957
27.8096
29.6383
30.7364
33.3048
31.4488
29.6382
28.0765
27.0889
27.1765
25.3753
24.9351
25.5098
27.9858
29.6148
30.8261
33.0802
31.3054
29.7191
28.3562
27.497
27.2747
25.96
25.6745
26.251
28.1781
29.6218
30.8358
32.7703
31.1527
29.7738
28.5823
27.8172
27.4354
26.444
26.2666
26.8096
28.3587
29.6383
30.8058
32.4545
31.0035
29.8099
28.7639
28.0669
27.616
26.8523
26.751
27.2504
28.523
29.6578
30.7546
32.1524
30.8661
29.8316
28.9081
28.2657
27.796
27.1964
27.1485
27.6037
28.6686
29.6758
30.6892
31.8685
30.7432
29.8426
29.0223
28.4277
27.9659
27.4866
27.4754
27.8893
28.7948
29.6893
30.6141
31.6053
30.635
29.8462
29.113
28.5614
28.1211
27.7317
27.7452
28.1219
28.9021
29.6972
30.5336
31.3628
30.5405
29.8445
29.1851
28.6727
28.2599
27.9389
27.9684
28.312
28.992
29.6992
30.4504
31.1392
30.4584
29.8393
29.2424
28.7657
28.3821
28.1137
28.1534
28.4677
29.0663
29.6958
30.3653
30.9246
30.3873
29.8318
29.2879
28.8435
28.4884
28.2608
28.3067
28.5955
29.127
29.688
30.2782
30.68
38.2759
35.9028
29.4627
28.377
28.8669
29.6594
28.1167
30.8515
32.1382
32.2996
31.5634
30.0015
36.8292
34.8494
30.2265
29.1218
29.296
29.6213
28.8799
30.7511
31.7733
31.9244
31.318
30.0549
35.5728
34.0079
30.7003
29.6742
29.6469
29.6972
29.4036
30.7027
31.5081
31.6311
31.1184
30.0835
34.6141
33.406
30.9885
30.0545
29.91
29.8304
29.7547
30.6827
31.3154
31.4089
30.9675
30.1006
33.8812
32.9635
31.1599
30.3266
30.1152
29.9783
29.999
30.6779
31.1685
31.2361
30.8499
30.1022
33.3103
32.6266
31.2621
30.5283
30.2806
30.1211
30.1768
30.6794
31.056
31.0983
30.7534
30.0911
32.8612
32.3669
31.3218
30.6796
30.4159
30.2503
30.3099
30.6836
30.9689
30.9868
30.6707
30.0814
32.5103
32.1658
31.3553
30.794
30.5272
30.3627
30.4116
30.6883
30.9005
30.8964
30.6008
30.0611
32.2378
32.0104
31.3731
30.8811
30.6189
30.4585
30.4905
30.6928
30.8463
30.8239
30.5508
30.2081
32.0292
31.8919
31.3818
30.9479
30.6945
30.5388
30.5523
30.6964
30.8032
30.7666
30.5252
30.3703
31.8832
31.8054
31.3858
30.9995
30.7567
30.6055
30.6011
30.6994
30.7687
30.7199
30.5231
30.5899
31.8382
31.7474
31.3871
31.0394
30.8078
30.6605
30.64
30.7016
30.741
30.6803
30.5193
30.6654
28.8514
28.4696
28.5317
28.7382
28.934
29.2396
29.2352
29.3147
29.8547
31.6997
33.6851
35.3597
29.0775
28.7068
28.7555
28.9575
29.1996
29.5145
29.6603
29.5514
30.1831
31.7652
33.4548
34.9187
29.2388
28.8935
28.957
29.1769
29.463
29.7846
30.0616
30.1415
31.1641
32.3039
33.4758
34.6114
29.3472
29.0343
29.1271
29.3671
29.6841
30.0164
30.2981
30.4078
31.6194
32.5046
33.4377
34.3991
29.4078
29.1346
29.2675
29.5192
29.8547
30.0813
29.8929
29.9034
31.721
32.5717
33.3883
34.2364
29.4342
29.2237
29.368
29.4513
29.4647
29.5233
29.6582
30.1453
31.8258
32.6059
33.3267
34.0927
29.6113
29.8396
29.7065
29.6176
29.5479
29.6888
29.9327
30.4477
31.8614
32.6155
33.2616
33.9571
29.986
30.626
29.9234
29.8141
29.7611
29.9033
30.1673
30.673
31.8701
32.6005
33.1949
33.8242
30.6111
30.7779
30.0846
29.9782
29.9371
30.0798
30.354
30.8454
31.8702
32.5683
33.1252
33.6897
31.0674
30.7829
30.2152
30.1126
30.0816
30.2253
30.5041
30.9785
31.8665
32.5263
33.0507
33.5495
31.3737
30.8269
30.3229
30.2244
30.2022
30.3465
30.6259
31.0818
31.8604
32.4791
32.9685
33.39
31.5885
30.8736
30.4168
30.3192
30.304
30.4481
30.7252
31.1623
31.853
32.4296
32.876
33.1583
36.2089
36.0728
35.7826
36.1816
38.1285
35.4958
46.3731
42.2303
37.7473
34.5669
34.2271
34.7912
35.7481
35.8161
35.7698
36.2669
37.4714
36.9536
41.3615
42.5651
38.0201
34.7798
34.2595
34.4616
35.4295
35.6555
35.768
36.2519
36.9703
36.7949
36.5015
34.1624
33.8231
33.8987
34.1746
34.1628
35.2257
35.5458
35.7527
36.2064
36.6756
36.5771
35.9074
34.0665
34.0445
34.0393
33.9092
35.1987
35.0893
35.4658
35.7338
36.1462
36.4812
36.4204
35.8321
34.4588
34.4475
34.546
33.8482
34.9869
34.9921
35.4036
35.7117
36.0817
36.3385
36.2946
35.796
34.7413
34.6758
34.8929
33.9952
36.1039
34.9253
35.3565
35.6888
36.0202
36.2284
36.1943
35.7816
34.9606
34.8682
35.05
34.4006
34.2249
34.8857
35.3245
35.668
35.965
36.1411
36.114
35.7779
35.1324
35.0341
35.1616
34.8706
34.0158
34.8705
35.3078
35.6511
35.9171
36.0699
36.0486
35.7776
35.2672
35.1727
35.2743
35.1359
34.6085
34.8771
35.3077
35.6393
35.8764
36.0108
35.9945
35.7769
35.3718
35.2853
35.3714
35.2985
35.3566
34.9164
35.3264
35.6328
35.8421
35.9612
35.949
35.7746
35.4519
35.3745
35.4484
35.4248
35.6611
35.051
35.365
35.6308
35.8136
35.9191
35.9106
35.7704
35.5117
35.4437
35.507
35.5126
35.7204
35.244
34.102
34.4045
34.5248
34.9318
35.3221
35.5909
35.7101
35.8469
35.7737
35.8335
35.8208
35.4362
34.1478
34.425
34.5877
34.9439
35.3101
35.5648
35.6944
35.8253
35.7753
35.8217
35.8046
35.4937
34.2145
34.4564
34.6395
34.9551
35.2993
35.5414
35.6796
35.8063
35.776
35.8159
35.8176
35.4547
34.2777
34.498
34.683
34.9653
35.2895
35.5207
35.6662
35.79
35.7767
35.8125
35.8257
35.3746
34.3481
34.5457
34.7199
34.974
35.2808
35.5029
35.6546
35.7767
35.7775
35.81
35.8286
35.2713
34.428
34.5938
34.7509
34.9811
35.2733
35.4882
35.6451
35.7662
35.7786
35.8083
35.8287
35.1932
34.5126
34.6377
34.7763
34.9862
35.2669
35.4764
35.638
35.7587
35.78
35.8068
35.8269
35.1387
34.5901
34.6739
34.7956
34.9896
35.2616
35.4674
35.6333
35.7539
35.7818
35.8053
35.8232
35.1093
34.6497
34.7002
34.8076
34.9925
35.2572
35.4611
35.631
35.7519
35.7841
35.8036
35.8175
35.1049
34.6947
34.7161
34.814
34.9928
35.2537
35.4574
35.6312
35.7529
35.7871
35.8018
35.8099
35.1058
34.7217
34.7217
34.8151
34.9905
35.2508
35.456
35.634
35.7571
35.7913
35.7998
35.8004
35.1891
34.753
34.7214
34.8124
34.9867
35.2489
35.4561
35.6381
35.763
35.7957
35.798
35.7903
36.7711
36.7925
36.7393
36.6317
36.5622
36.3976
36.2051
36.0212
35.8528
35.7351
35.6084
35.5697
36.8011
36.786
36.7283
36.6265
36.5506
36.3966
36.2184
36.0449
35.8841
35.7664
35.6436
35.5995
36.7918
36.7753
36.717
36.6195
36.5389
36.3934
36.2268
36.0622
35.9084
35.7917
35.6733
35.6254
36.7809
36.7634
36.7058
36.6116
36.5276
36.3892
36.2319
36.075
35.9274
35.8124