/*--------------------------------*- C++ -*----------------------------------*\
| =========                 |                                                 |
| \\      /  F ield         | OpenFOAM: The Open Source CFD Toolbox           |
|  \\    /   O peration     | Version:  v1606+                                |
|   \\  /    A nd           | Web:      www.OpenFOAM.com                      |
|    \\/     M anipulation  |                                                 |
\*---------------------------------------------------------------------------*/
FoamFile
{
    version     2.0;
    format      ascii;
    class       volScalarField;
    location    "0.14";
    object      k.air;
}
// * * * * * * * * * * * * * * * * * * * * * * * * * * * * * * * * * * * * * //

dimensions      [0 2 -2 0 0 0 0];

internalField   nonuniform List<scalar> 
6000
(
0.883905
0.948993
0.963872
0.968935
0.970944
0.97187
0.97264
0.973071
0.97344
0.973758
0.974271
0.97478
0.975208
0.975468
0.9756
0.975635
0.975507
0.975216
0.974786
0.974311
0.973851
0.973618
0.973227
0.972665
0.971971
0.970835
0.968752
0.963795
0.949096
0.883737
0.622056
0.879887
0.950459
0.975314
0.986923
0.994059
0.999795
1.00319
1.00577
1.00777
1.01001
1.01206
1.01376
1.0149
1.01542
1.01538
1.01482
1.01366
1.01196
1.00997
1.00792
1.00636
1.00383
0.999754
0.9943
0.986556
0.974566
0.949817
0.880136
0.622061
0.496787
0.791806
0.895068
0.937259
0.95795
0.969641
0.977036
0.981575
0.984469
0.986441
0.988154
0.989495
0.990494
0.991157
0.991466
0.991439
0.991096
0.990417
0.989456
0.988224
0.98669
0.984938
0.982082
0.977271
0.969845
0.957917
0.93704
0.89483
0.792577
0.498163
0.40508
0.705346
0.825105
0.881137
0.911658
0.930165
0.942035
0.949667
0.954868
0.958363
0.960858
0.962698
0.963988
0.964814
0.965209
0.965181
0.964734
0.963899
0.962652
0.9609
0.95854
0.955172
0.950044
0.942232
0.930401
0.911826
0.881278
0.82558
0.707261
0.407255
0.329915
0.618711
0.746425
0.812289
0.850438
0.87477
0.891017
0.901904
0.909648
0.915127
0.91916
0.922159
0.924271
0.925625
0.926286
0.926267
0.925568
0.924195
0.922098
0.919146
0.915203
0.909862
0.90224
0.891232
0.875133
0.850721
0.812595
0.747261
0.621006
0.331787
0.288794
0.556779
0.675312
0.741573
0.782914
0.810819
0.830448
0.844467
0.854811
0.862396
0.868028
0.872188
0.875118
0.876991
0.877901
0.877888
0.876947
0.875053
0.872123
0.86799
0.862427
0.854957
0.844714
0.830632
0.811043
0.783018
0.741756
0.676172
0.558753
0.290623
0.270161
0.510404
0.613543
0.6748
0.716619
0.746799
0.769261
0.786276
0.799362
0.809438
0.817158
0.822849
0.826832
0.829362
0.830587
0.830581
0.829334
0.826783
0.822792
0.817114
0.809438
0.799425
0.786382
0.769317
0.746799
0.716485
0.674726
0.614156
0.51193
0.271762
0.25861
0.467996
0.555908
0.611873
0.654011
0.686359
0.71135
0.730815
0.746224
0.758569
0.768396
0.775918
0.781295
0.784723
0.786384
0.786376
0.784697
0.781252
0.775862
0.768342
0.758532
0.746205
0.730792
0.711266
0.686181
0.653703
0.611546
0.556127
0.469068
0.259877
0.242204
0.422639
0.499212
0.55391
0.597377
0.631484
0.658324
0.679562
0.69653
0.710247
0.721368
0.730225
0.736836
0.741166
0.743291
0.743283
0.741141
0.736793
0.730167
0.721305
0.710184
0.696458
0.679464
0.65817
0.631249
0.59703
0.553466
0.498986
0.423195
0.242982
0.212844
0.370455
0.44518
0.503239
0.548909
0.584257
0.61185
0.633715
0.65132
0.6656
0.677165
0.686405
0.693434
0.698159
0.700519
0.70051
0.698132
0.69339
0.686346
0.677097
0.665523
0.651232
0.633606
0.611704
0.584048
0.548588
0.502732
0.44453
0.3701
0.213166
0.179761
0.310224
0.395628
0.459143
0.507278
0.543898
0.571991
0.593873
0.611286
0.625313
0.6366
0.645543
0.652324
0.656919
0.659236
0.659224
0.656888
0.652276
0.645483
0.636533
0.625245
0.611223
0.593806
0.571897
0.54374
0.50698
0.45856
0.3946
0.308862
0.179762
0.149394
0.259029
0.352986
0.420051
0.470079
0.508135
0.537106
0.559226
0.576341
0.589728
0.600229
0.608391
0.614518
0.618677
0.620785
0.620775
0.618647
0.614472
0.608339
0.600179
0.589692
0.576326
0.559218
0.53707
0.508017
0.469779
0.419393
0.351745
0.257222
0.149099
0.127321
0.226993
0.319895
0.386217
0.436691
0.475759
0.505687
0.528294
0.545287
0.558087
0.567761
0.575042
0.580374
0.583948
0.585757
0.585751
0.583933
0.580351
0.57502
0.567748
0.558092
0.545311
0.528314
0.505664
0.475631
0.436351
0.385503
0.318623
0.225152
0.126811
0.115305
0.211326
0.295986
0.358353
0.407692
0.446977
0.477618
0.500875
0.518115
0.530683
0.53974
0.5462
0.550705
0.553624
0.55508
0.555085
0.553635
0.550719
0.546216
0.539757
0.530702
0.518134
0.500876
0.477567
0.446811
0.407305
0.357614
0.294781
0.209653
0.114674
0.109593
0.201906
0.277601
0.335736
0.383431
0.422435
0.453491
0.477367
0.495141
0.50805
0.517234
0.523617
0.527896
0.530538
0.531809
0.531816
0.530557
0.527916
0.523632
0.517237
0.508039
0.495117
0.477325
0.453407
0.422249
0.383044
0.335031
0.276498
0.20042
0.108941
0.105123
0.191595
0.262075
0.317403
0.36368
0.402181
0.433209
0.45724
0.475231
0.488475
0.498095
0.504927
0.509568
0.512436
0.513801
0.513805
0.512444
0.509572
0.504916
0.498064
0.488419
0.47515
0.457141
0.433091
0.401996
0.363343
0.316801
0.261116
0.190253
0.104496
0.0994707
0.179458
0.248613
0.302713
0.348023
0.385927
0.416457
0.440019
0.457751
0.470998
0.480854
0.488017
0.492963
0.49604
0.497504
0.497502
0.496033
0.492943
0.487975
0.480777
0.470877
0.457587
0.439837
0.41628
0.385739
0.34775
0.302256
0.247863
0.178305
0.0988676
0.0927348
0.167755
0.237668
0.291374
0.33611
0.373364
0.403044
0.425568
0.44251
0.455426
0.465265
0.472542
0.477623
0.480804
0.48232
0.482314
0.480783
0.47758
0.472462
0.465132
0.455226
0.442238
0.425253
0.402757
0.373142
0.335881
0.291062
0.237178
0.166958
0.0921916
0.0866767
0.159859
0.229802
0.283368
0.327938
0.36451
0.39261
0.413337
0.429144
0.44156
0.451191
0.458429
0.463546
0.466778
0.468326
0.468318
0.466749
0.463484
0.458317
0.451006
0.441279
0.428758
0.41285
0.39212
0.36417
0.327708
0.283158
0.229551
0.159576
0.0863055
0.0828931
0.157052
0.225128
0.279114
0.323856
0.35896
0.384007
0.402626
0.417371
0.429164
0.438541
0.445733
0.450899
0.454198
0.455792
0.455784
0.454168
0.450832
0.445605
0.438319
0.428815
0.416872
0.401988
0.383262
0.358354
0.323531
0.278943
0.225082
0.157185
0.0827633
0.0814852
0.157776
0.225225
0.279495
0.322583
0.353797
0.375898
0.39295
0.406628
0.417991
0.427297
0.434581
0.439884
0.443301
0.444959
0.444953
0.443277
0.439825
0.434457
0.42707
0.417617
0.406062
0.392185
0.375017
0.352894
0.322123
0.279269
0.22521
0.158008
0.0815272
0.0817157
0.160878
0.229339
0.281313
0.319629
0.346972
0.367338
0.383049
0.396465
0.407971
0.417527
0.425064
0.430579
0.434142
0.435866
0.435861
0.434124
0.430535
0.424963
0.417332
0.407637
0.395948
0.38231
0.366412
0.346112
0.318991
0.280966
0.229288
0.161158
0.0817922
0.0828731
0.16977
0.235401
0.28158
0.314694
0.33951
0.357582
0.37333
0.387294
0.399302
0.409264
0.417105
0.422814
0.426499
0.428296
0.428295
0.426491
0.422785
0.417034
0.40912
0.399043
0.38689
0.372752
0.356787
0.338614
0.313995
0.281179
0.235329
0.170016
0.0829728
0.0864091
0.178811
0.239519
0.280198
0.30976
0.330989
0.348587
0.364969
0.379544
0.392053
0.402361
0.410469
0.416384
0.420199
0.422061
0.422063
0.420201
0.416376
0.410435
0.402269
0.391875
0.379255
0.364545
0.347981
0.330117
0.30899
0.279738
0.23931
0.178929
0.0865292
0.0941378
0.188127
0.240538
0.277181
0.3029
0.32284
0.341226
0.358238
0.373278
0.386128
0.396729
0.405036
0.411102
0.415029
0.416955
0.416961
0.415045
0.411119
0.40504
0.396694
0.38603
0.373089
0.357937
0.340771
0.322144
0.302016
0.276523
0.240142
0.188047
0.0942527
0.0975732
0.193311
0.239676
0.271787
0.295141
0.316067
0.335479
0.353046
0.36846
0.381585
0.392363
0.400779
0.406905
0.410879
0.412842
0.412852
0.410909
0.406947
0.400823
0.392388
0.381564
0.368365
0.352852
0.335151
0.315539
0.294366
0.270862
0.239044
0.192856
0.0973414
0.0979168
0.190868
0.234714
0.26373
0.288455
0.310913
0.331312
0.349474
0.365306
0.378691
0.389548
0.397886
0.403862
0.407733
0.40967
0.409686
0.407774
0.403924
0.397968
0.389637
0.378756
0.365312
0.349386
0.331099
0.310533
0.287837
0.262861
0.233736
0.190122
0.0975969
0.0978729
0.18375
0.225176
0.256521
0.283404
0.307466
0.328996
0.348067
0.364568
0.378223
0.388835
0.396551
0.401916
0.405462
0.407276
0.407296
0.40551
0.401977
0.396641
0.388981
0.378393
0.364702
0.348117
0.328926
0.307254
0.282982
0.255889
0.224302
0.182785
0.0975606
0.0964163
0.1739
0.217238
0.251171
0.280295
0.30619
0.32925
0.349444
0.366656
0.380236
0.389888
0.396198
0.400571
0.403528
0.404971
0.404984
0.403562
0.400614
0.396233
0.390009
0.380463
0.366904
0.349625
0.329313
0.30612
0.280056
0.250782
0.216671
0.173056
0.0960279
0.0919608
0.164056
0.211217
0.247718
0.279369
0.307452
0.332666
0.354834
0.37278
0.384835
0.391416
0.39586
0.399038
0.400729
0.40142
0.4014
0.400681
0.398995
0.395838
0.391348
0.384964
0.373164
0.355243
0.332967
0.307549
0.279313
0.247509
0.210902
0.163484
0.091475
0.084351
0.155244
0.20685
0.246547
0.281104
0.312734
0.341611
0.36567
0.380981
0.387531
0.391994
0.394869
0.395923
0.396123
0.396065
0.396008
0.395963
0.395704
0.394662
0.391838
0.387292
0.380961
0.36622
0.342266
0.313144
0.28125
0.246524
0.206707
0.155023
0.0840855
0.0799839
0.150995
0.205616
0.248374
0.287459
0.324175
0.354393
0.373726
0.382754
0.388327
0.391579
0.391976
0.391196
0.390531
0.390109
0.39003
0.390296
0.390808
0.391457
0.391174
0.388086
0.382446
0.373809
0.355148
0.324976
0.287974
0.248546
0.205709
0.15109
0.0799208
0.0785778
0.151391
0.207787
0.255642
0.300079
0.336291
0.359796
0.373096
0.382475
0.387931
0.388277
0.387243
0.386357
0.38564
0.385177
0.385095
0.385392
0.385931
0.386632
0.387505
0.38741
0.382318
0.372916
0.360024
0.337237
0.300948
0.256155
0.208021
0.151597
0.0786112
0.0785875
0.154122
0.215716
0.269367
0.312169
0.340404
0.358555
0.373032
0.381895
0.383042
0.382907
0.382857
0.382613
0.382214
0.381866
0.381788
0.381979
0.382215
0.382281
0.382154
0.382095
0.381313
0.37299
0.358605
0.340896
0.313079
0.270095
0.216179
0.154462
0.0786852
0.0793452
0.162096
0.230673
0.282391
0.317022
0.340486
0.359867
0.373172
0.375985
0.376715
0.37826
0.379514
0.380118
0.380168
0.380015
0.379943
0.379955
0.379768
0.379021
0.377597
0.375857
0.374827
0.372626
0.360016
0.340705
0.317509
0.283013
0.23129
0.16263
0.079497
0.0830898
0.17819
0.245631
0.288827
0.318243
0.342861
0.360946
0.36686
0.368534
0.371529
0.374664
0.377113
0.378526
0.379091
0.379192
0.379131
0.37891
0.378236
0.376708
0.374133
0.370805
0.367529
0.365566
0.360384
0.343081
0.318519
0.289169
0.246212
0.178986
0.0833854
0.0914207
0.19282
0.253142
0.290722
0.320754
0.343587
0.353738
0.357817
0.362397
0.367451
0.372099
0.375529
0.377664
0.378741
0.379133
0.379085
0.378598
0.377429
0.375207
0.371684
0.366922
0.361586
0.356684
0.352463
0.343239
0.321076
0.290994
0.253404
0.193659
0.0919794
0.101252
0.203132
0.254077
0.291416
0.319589
0.334994
0.343058
0.350369
0.357635
0.364588
0.370326
0.374582
0.377346
0.378881
0.379506
0.37947
0.378769
0.377164
0.374328
0.369998
0.364153
0.357092
0.349489
0.341919
0.333821
0.319419
0.291728
0.254357
0.203737
0.10185
0.106178
0.207878
0.253986
0.288573
0.309377
0.323049
0.334534
0.344894
0.35454
0.362786
0.369429
0.374298
0.377508
0.379409
0.38031
0.380292
0.379342
0.377374
0.374114
0.369209
0.362511
0.354159
0.344391
0.333681
0.321989
0.308235
0.288242
0.254021
0.207926
0.106279
0.106395
0.204872
0.249228
0.276921
0.296992
0.313967
0.328634
0.341845
0.353179
0.362509
0.369645
0.374733
0.378139
0.38029
0.38136
0.38137
0.380287
0.37808
0.374628
0.369553
0.362468
0.353105
0.341626
0.328248
0.313248
0.296011
0.275595
0.248401
0.204251
0.106415
0.105438
0.194923
0.235571
0.26417
0.287841
0.307976
0.325847
0.341339
0.35402
0.363863
0.371003
0.375785
0.379007
0.381129
0.382205
0.382262
0.381243
0.379097
0.375839
0.371113
0.364086
0.354306
0.341607
0.326039
0.307784
0.287206
0.263124
0.233898
0.193301
0.105166
0.101083
0.17827
0.222086
0.255015
0.281964
0.305546
0.326392
0.343712
0.357534
0.367146
0.372923
0.376681
0.379431
0.381166
0.382026
0.382117
0.381424
0.379772
0.376961
0.373143
0.367661
0.358431
0.344613
0.32714
0.306097
0.281854
0.254319
0.220857
0.176237
0.100093
0.0913537
0.162324
0.212509
0.24908
0.279821
0.307165
0.330778
0.350038
0.362832
0.369455
0.373717
0.376858
0.378879
0.380051
0.380578
0.380661
0.380285
0.379264
0.377403
0.374298
0.370006
0.36394
0.351827
0.332482
0.308406
0.280344
0.248841
0.211565
0.160394
0.0896118
0.0822902
0.152005
0.206531
0.247212
0.282073
0.313477
0.339815
0.356849
0.364593
0.369837
0.373512
0.375809
0.377051
0.377687
0.377962
0.377984
0.377799
0.377367
0.376448
0.374485
0.370858
0.365503
0.357806
0.341749
0.315674
0.283495
0.247531
0.206176
0.151117
0.0813618
0.0784934
0.149574
0.206121
0.250176
0.289693
0.322704
0.34528
0.356855
0.364268
0.369399
0.372005
0.373556
0.374686
0.375342
0.375609
0.375603
0.375373
0.374874
0.374045
0.372894
0.370777
0.365525
0.357358
0.34559
0.324699
0.292221
0.2514
0.206378
0.149631
0.078229
0.0779618
0.151352
0.210147
0.259128
0.299118
0.327197
0.343786
0.355695
0.363087
0.366541
0.369152
0.371364
0.372926
0.373789
0.374116
0.374116
0.373808
0.373023
0.371636
0.369698
0.367434
0.364512
0.356949
0.34421
0.32766
0.301273
0.261577
0.211316
0.151729
0.0779688
0.0784348
0.157175
0.221072
0.269469
0.304131
0.326355
0.343196
0.353885
0.358504
0.36277
0.366669
0.369745
0.371797
0.372902
0.373333
0.373341
0.372923
0.371842
0.369864
0.366938
0.363295
0.359487
0.355561
0.344693
0.327225
0.305058
0.271556
0.223258
0.158357
0.0785385
0.0809461
0.170261
0.233495
0.276229
0.304667
0.326854
0.341685
0.348285
0.35405
0.35984
0.36481
0.368599
0.371094
0.372487
0.373092
0.3731
0.372526
0.371168
0.368698
0.364964
0.360146
0.354673
0.349512
0.343605
0.32867
0.305923
0.277423
0.235574
0.172405
0.0815474
0.0876126
0.182667
0.241452
0.278356
0.3061
0.325349
0.335091
0.343037
0.350867
0.357958
0.363726
0.367953
0.370809
0.372557
0.373356
0.373347
0.372586
0.370943
0.368135
0.363895
0.358158
0.35124
0.343795
0.336471
0.327445
0.308076
0.279688
0.242844
0.185016
0.089084
0.0971494
0.194082
0.244045
0.279304
0.303407
0.317581
0.329076
0.33967
0.349375
0.357453
0.363579
0.36796
0.371024
0.373096
0.374149
0.374104
0.373078
0.37119
0.368243
0.363824
0.357591
0.349517
0.339987
0.329879
0.319019
0.305587
0.281056
0.245347
0.195813
0.0980895
0.100716
0.200637
0.2447
0.275127
0.294684
0.311235
0.325609
0.33889
0.349942
0.358379
0.364346
0.368519
0.371757
0.3741
0.375255
0.375198
0.374049
0.371947
0.368986
0.364729
0.358473
0.349828
0.338713
0.32579
0.311956
0.29602
0.276959
0.24574
0.201005
0.101027
0.102477
0.196943
0.238491
0.26555
0.288516
0.307999
0.325697
0.340897
0.352839
0.36104
0.365955
0.369605
0.372623
0.374581
0.375522
0.375557
0.374694
0.372867
0.37021
0.366768
0.361306
0.35248
0.340373
0.325184
0.307899
0.288896
0.266321
0.239472
0.197074
0.102271
0.100847
0.185108
0.227144
0.259128
0.285427
0.308778
0.329663
0.346826
0.358492
0.363992
0.367603
0.370625
0.372518
0.373711
0.374315
0.37446
0.374088
0.373048
0.371186
0.368557
0.365373
0.358416
0.34577
0.328466
0.307903
0.284741
0.258882
0.227201
0.185938
0.101083
0.0940828
0.171221
0.21949
0.255596
0.286444
0.314566
0.339161
0.355956
0.362544
0.366469
0.369373
0.370643
0.371354
0.371627
0.37177
0.371975
0.372188
0.372118
0.371433
0.370035
0.36748
0.364507
0.355672
0.3373
0.312272
0.284802
0.254271
0.218995
0.171761
0.0956887
0.0843108
0.161647
0.21524
0.256381
0.293198
0.326653
0.349984
0.359924
0.365691
0.368976
0.369341
0.369718
0.369887
0.369812
0.369627
0.369701
0.370137
0.370594
0.370839
0.370813
0.369774
0.366314
0.362236
0.349571
0.323246
0.289499
0.254033
0.213506
0.160681
0.0849478
0.0811203
0.15906
0.216262
0.263348
0.305418
0.336484
0.351915
0.361739
0.367232
0.367575
0.368106
0.368749
0.369169
0.369089
0.368709
0.368656
0.369162
0.369727
0.369887
0.369683
0.369467
0.368022
0.361848
0.353244
0.33516
0.301544
0.258812
0.213546
0.156565
0.0803336
0.0812329
0.161443
0.223409
0.275333
0.314951
0.336694
0.352248
0.361563
0.363131
0.364625
0.366527
0.3682
0.369171
0.369232
0.368825
0.368715
0.369166
0.369547
0.369181
0.36801
0.366469
0.365241
0.36221
0.35164
0.337729
0.313129
0.27167
0.218834
0.158329
0.0802818
0.0821105
0.169768
0.237806
0.286069
0.315426
0.336905
0.351397
0.355362
0.358061
0.361751
0.365242
0.367948
0.369486
0.369799
0.369435
0.36927
0.369563
0.369641
0.368639
0.366369
0.363222
0.35973
0.357836
0.351901
0.336349
0.316297
0.283069
0.232746
0.164939
0.0808671
0.0861173
0.184725
0.250236
0.288948
0.315728
0.336025
0.343939
0.348372
0.353887
0.359491
0.364332
0.367934
0.370005
0.370654
0.370509
0.370336
0.370323
0.369913
0.368315
0.365156
0.360552
0.355308
0.350554
0.347028
0.336658
0.315608
0.288124
0.245792
0.180133
0.0839281
0.0965054
0.198651
0.253237
0.288497
0.314423
0.327747
0.335316
0.34308
0.350918
0.358039
0.363865
0.368088
0.370601
0.371687
0.371941
0.371817
0.371387
0.370374
0.368211
0.364361
0.358876
0.352017
0.344852
0.338105
0.331486
0.315494
0.288531
0.252106
0.193306
0.0924064
0.103573
0.20553
0.25266
0.285883
0.305451
0.317728
0.328996
0.339698
0.349484
0.357716
0.364166
0.368739
0.371596
0.37321
0.374015
0.373983
0.373042
0.371297
0.368582
0.364385
0.358297
0.350395
0.34106
0.331234
0.320929
0.309499
0.287514
0.252748
0.203207
0.101711
0.104389
0.204327
0.248671
0.275884
0.294422
0.310681
0.325431
0.338741
0.349966
0.359038
0.365903
0.370573
0.373513
0.37562
0.376928
0.376962
0.375577
0.373122
0.369999
0.365695
0.359389
0.35079
0.33986
0.327009
0.313205
0.297782
0.280024
0.250729
0.206
0.104033
0.104553
0.196849
0.236797
0.263958
0.286896
0.307122
0.325209
0.340541
0.353398
0.363424
0.370238
0.373852
0.376277
0.378518
0.379771
0.37974
0.378362
0.375754
0.3726
0.369163
0.363325
0.354162
0.341791
0.326555
0.308954
0.289706
0.267434
0.240902
0.199954
0.104909
0.102488
0.182696
0.2241
0.256103
0.283302
0.307575
0.328644
0.34707
0.362051
0.372088
0.375689
0.376919
0.378777
0.379939
0.38034
0.380104
0.37925
0.377678
0.375271
0.3728
0.370363
0.362433
0.348606
0.330467
0.309377
0.285549
0.259075
0.227257
0.185961
0.10305
0.0959042
0.167814
0.215559
0.252134
0.284142
0.312781
0.338823
0.361096
0.376049
0.37943
0.378606
0.378937
0.378781
0.378555
0.378214
0.377854
0.377487
0.377026
0.376421
0.375384
0.37432
0.373058
0.362358
0.341872
0.315185
0.286434
0.254685
0.218333
0.170377
0.096404
0.0844711
0.155636
0.210396
0.252752
0.290437
0.326537
0.35853
0.38029
0.384006
0.3816
0.380643
0.378591
0.376638
0.37507
0.374026
0.373587
0.373719
0.374276
0.37515
0.376248
0.376571
0.376306
0.376142
0.361042
0.330097
0.293156
0.255496
0.213144
0.158456
0.0848539
0.0792018
0.152031
0.210961
0.258723
0.30575
0.350306
0.38214
0.387204
0.384765
0.383924
0.379738
0.375861
0.373143
0.371242
0.370002
0.369555
0.369877
0.37071
0.372012
0.374133
0.377146
0.377875
0.376832
0.374192
0.351034
0.309468
0.262304
0.214183
0.155044
0.0800258
0.078659
0.154183
0.216832
0.274319
0.32958
0.372257
0.38573
0.385979
0.386926
0.381549
0.375805
0.37218
0.369786
0.367986
0.366758
0.366317
0.366653
0.367457
0.368499
0.370058
0.372972
0.376891
0.376093
0.371089
0.361573
0.329304
0.278854
0.221347
0.157686
0.0799413
0.0794255
0.160791
0.232095
0.298106
0.350553
0.37257
0.380681
0.386038
0.3821
0.37525
0.371121
0.368665
0.366865
0.365356
0.364285
0.363867
0.3641
0.364717
0.365355
0.365978
0.367162
0.369886
0.373808
0.368817
0.357402
0.339667
0.29824
0.238428
0.165697
0.0809003
0.0818299
0.175118
0.255773
0.318471
0.352317
0.367516
0.379945
0.379571
0.3726
0.368852
0.366896
0.365596
0.364388
0.36327
0.362457
0.36208
0.362141
0.36248
0.362739
0.362597
0.362185
0.362327
0.364802
0.366851
0.35542
0.337244
0.31047
0.25852
0.182961
0.084203
0.0884545
0.198326
0.276905
0.323761
0.347979
0.36718
0.373972
0.367382
0.364445
0.363689
0.36341
0.362975
0.362319
0.361672
0.361163
0.36085
0.360722
0.360721
0.360633
0.360005
0.358545
0.356583
0.355405
0.357178
0.35378
0.335113
0.309718
0.272138
0.202149
0.0923057
0.100679
0.218675
0.2853
0.321534
0.347996
0.362389
0.359528
0.357711
0.358684
0.360026
0.360781
0.360891
0.360729
0.360561
0.360384
0.360153
0.35985
0.359504
0.359098
0.358247
0.356312
0.352991
0.348844
0.345551
0.34385
0.33306
0.307171
0.271881
0.216969
0.104476
0.112663
0.22944
0.283697
0.320423
0.343009
0.346381
0.348136
0.351773
0.355498
0.357971
0.359096
0.359491
0.359774
0.360079
0.36021
0.36008
0.359662
0.359004
0.3583
0.357416
0.35555
0.351717
0.345579
0.338016
0.330559
0.323131
0.304493
0.270047
0.221813
0.112419
0.118001
0.23103
0.280491
0.313443
0.325243
0.333361
0.341683
0.349697
0.355088
0.357709
0.358603
0.359067
0.359667
0.360243
0.360557
0.360509
0.360054
0.359301
0.358464
0.357661
0.356249
0.35271
0.345799
0.33521
0.322447
0.308735
0.293922
0.26598
0.219702
0.112954
0.11796
0.224617
0.270163
0.293371
0.310965
0.326314
0.34076
0.351507
0.357252
0.359077
0.359324
0.359662
0.360301
0.360958
0.361389
0.361449
0.361097
0.36045
0.359709
0.359231
0.358897
0.356685
0.349637
0.336945
0.319781
0.299885
0.27779
0.252233
0.210486
0.112243
0.114371
0.206899
0.247322
0.277913
0.30321
0.326384
0.345399
0.358455
0.363276
0.362818
0.361781
0.361589
0.361838
0.36215
0.362397
0.362497
0.362511
0.362478
0.362491
0.36283
0.364037
0.364827
0.359354
0.344339
0.32268
0.296953
0.267758
0.234294
0.191276
0.108314
0.104329
0.179748
0.230691
0.269512
0.303844
0.333812
0.358663
0.372064
0.372344
0.368571
0.366272
0.364733
0.363854
0.363429
0.363312
0.36344
0.363858
0.364654
0.366005
0.368088
0.370683
0.374471
0.375127
0.360394
0.333679
0.300555
0.264125
0.222624
0.169928
0.0982571
0.0878703
0.158891
0.221399
0.270427
0.313395
0.35295
0.380115
0.385094
0.380356
0.375766
0.37108
0.367835
0.365833
0.364704
0.364235
0.364357
0.365099
0.366579
0.369035
0.372833
0.378114
0.383094
0.387299
0.383735
0.355978
0.314083
0.267953
0.217958
0.154815
0.0848441
0.0798553
0.153578
0.223604
0.281794
0.336371
0.378699
0.39469
0.393053
0.388718
0.38097
0.374713
0.370503
0.367785
0.366158
0.365425
0.365527
0.366485
0.368402
0.371494
0.37617
0.383046
0.391638
0.395998
0.397037
0.382596
0.340133
0.283248
0.223033
0.153898
0.0794789
0.0797166
0.159279
0.23825
0.308684
0.362931
0.390511
0.398441
0.401135
0.392263
0.383442
0.377229
0.372833
0.369818
0.367934
0.367049
0.367126
0.368184
0.370294
0.373614
0.378427
0.385217
0.39474
0.404492
0.401483
0.392822
0.367444
0.313557
0.241347
0.161089
0.079815
0.0822487
0.178255
0.269995
0.337453
0.375925
0.394211
0.406536
0.400965
0.391337
0.384115
0.378771
0.37476
0.371882
0.370034
0.369149
0.369203
0.370212
0.372229
0.375353
0.379719
0.385565
0.393527
0.403948
0.410685
0.397823
0.379099
0.342832
0.275583
0.182301
0.0830248
0.0924923
0.215059
0.301726
0.352828
0.381566
0.403813
0.405883
0.395609
0.388492
0.38337
0.379324
0.376211
0.373957
0.372517
0.371831
0.371869
0.372642
0.374203
0.376639
0.380022
0.384512
0.390175
0.39795
0.409107
0.408147
0.385626
0.356635
0.307629
0.22032
0.0943004
0.114351
0.247061
0.318671
0.359526
0.390582
0.401314
0.394651
0.387668
0.383807
0.381278
0.379095
0.377358
0.376171
0.375466
0.375142
0.37517
0.375557
0.376348
0.377662
0.379599
0.382054
0.38496
0.389261
0.396702
0.403973
0.394135
0.363261
0.32243
0.251877
0.116981
0.133895
0.263554
0.319708
0.362587
0.382327
0.383436
0.380492
0.378523
0.378574
0.378661
0.37868
0.378662
0.378787
0.378956
0.379046
0.379068
0.379028
0.378924
0.378886
0.37902
0.37917
0.379318
0.379504
0.38158
0.384624
0.383909
0.364845
0.322198
0.265903
0.135394
0.137273
0.261428
0.314682
0.346732
0.358123
0.363497
0.366617
0.370384
0.374089
0.377
0.379224
0.380912
0.382215
0.383091
0.383475
0.383495
0.383155
0.382337
0.381105
0.379498
0.377339
0.374533
0.370954
0.367128
0.363798
0.358219
0.346878
0.315628
0.26255
0.138047
0.133358
0.245059
0.290791
0.316844
0.334383
0.346349
0.35632
0.365215
0.372401
0.377836
0.381793
0.384793
0.386545
0.387283
0.387554
0.387572
0.38734
0.386657
0.384973
0.382033
0.378118
0.372673
0.36549
0.356486
0.346248
0.333907
0.316142
0.28961
0.244524
0.133531
0.119164
0.207752
0.256812
0.290896
0.315658
0.335276
0.351621
0.364968
0.374729
0.382027
0.386917
0.389484
0.390279
0.390477
0.390606
0.390621
0.39053
0.390379
0.38964
0.38714
0.382294
0.374967
0.365099
0.351689
0.334999
0.315022
0.289862
0.255389
0.205727
0.118421
0.0947155
0.167334
0.228962
0.271861
0.305336
0.332541
0.353973
0.369931
0.381689
0.388785
0.391804
0.392612
0.392905
0.393083
0.393188
0.393203
0.393131
0.392987
0.392733
0.391982
0.389028
0.381954
0.370082
0.353999
0.332344
0.304741
0.270919
0.227666
0.165751
0.0941092
0.0782227
0.143854
0.213026
0.264652
0.305997
0.338927
0.363725
0.380661
0.389407
0.392787
0.394138
0.394804
0.395132
0.395161
0.395109
0.395128
0.395215
0.395215
0.394915
0.394275
0.392964
0.389633
0.380904
0.363861
0.338846
0.305604
0.263959
0.21215
0.14293
0.077981
0.0724208
0.14165
0.213573
0.270319
0.318116
0.354861
0.377484
0.387488
0.391724
0.394067
0.395635
0.396471
0.396595
0.396395
0.396236
0.396257
0.396455
0.396687
0.396585
0.395767
0.39422
0.391898
0.387695
0.377713
0.355082
0.318068
0.269911
0.212928
0.141041
0.0722673
0.0726789
0.149141
0.226584
0.290645
0.338828
0.369747
0.382272
0.387894
0.391825
0.394748
0.396436
0.39702
0.396955
0.396735
0.396599
0.396619
0.396795
0.397051
0.397144
0.396576
0.394903
0.391999
0.388077
0.382456
0.370044
0.339117
0.290645
0.2263
0.148692
0.072533
0.0773473
0.172016
0.256426
0.315008
0.353831
0.371861
0.38103
0.387147
0.391614
0.394601
0.396072
0.396501
0.396496
0.396399
0.396341
0.39636
0.396456
0.396589
0.396624
0.396219
0.394762
0.391789
0.387332
0.381217
0.372083
0.354111
0.315262
0.256501
0.1719
0.077263
0.0918504
0.207023
0.285585
0.332957
0.35651
0.37001
0.379202
0.385916
0.390615
0.393356
0.394577
0.395097
0.395345
0.395482
0.395552
0.395569
0.395532
0.395428
0.395213
0.394722
0.393522
0.390794
0.386102
0.37939
0.370197
0.356705
0.333168
0.285799
0.207111
0.0919152
0.112691
0.235446
0.306009
0.339321
0.356242
0.368361
0.377419
0.384091
0.388334
0.390751
0.392207
0.393151
0.393788
0.394203
0.394409
0.394423
0.394245
0.39386
0.393253
0.392338
0.390909
0.388512
0.384278
0.377606
0.368543
0.356422
0.339524
0.306233
0.235664
0.112845
0.125815
0.256017
0.310663
0.338879
0.354886
0.366569
0.375193
0.381084
0.384923
0.387622
0.38962
0.391116
0.392207
0.392932
0.393287
0.393301
0.392967
0.392267
0.391203
0.389735
0.387763
0.385088
0.381266
0.375381
0.366758
0.355074
0.33909
0.310901
0.25625
0.125976
0.136731
0.26747
0.309632
0.336465
0.352347
0.363988
0.371575
0.376887
0.381069
0.384469
0.387207
0.389355
0.390958
0.392027
0.392556
0.392562
0.392056
0.391008
0.389428
0.387304
0.384592
0.381215
0.377055
0.371756
0.364179
0.352546
0.336689
0.309878
0.267697
0.136882
0.143281
0.265803
0.306251
0.332799
0.348624
0.358984
0.365918
0.371939
0.377254
0.381733
0.385393
0.388288
0.390458
0.391899
0.392596
0.392606
0.391923
0.390499
0.388348
0.385474
0.381836
0.377379
0.372086
0.366083
0.359165
0.348823
0.333025
0.306497
0.266007
0.143428
0.142382
0.25811
0.300103
0.324556
0.339024
0.349174
0.358684
0.367204
0.37429
0.380078
0.384757
0.388385
0.391016
0.392763
0.393637
0.39364
0.392782
0.391051
0.388434
0.384822
0.380161
0.374395
0.367332
0.358836
0.349351
0.339231
0.324793
0.300322
0.258291
0.142513
0.136417
0.238949
0.282772
0.309852
0.327129
0.341857
0.35462
0.365083
0.373521
0.38032
0.385742
0.390011
0.39321
0.395355
0.396446
0.396455
0.39537
0.393236
0.39005
0.385795
0.380389
0.373605
0.365187
0.354744
0.341997
0.327277
0.310015
0.282961
0.239134
0.136542
0.117575
0.208484
0.264664
0.299222
0.322212
0.340344
0.354743
0.366063
0.375262
0.38289
0.389168
0.394201
0.397984
0.400513
0.401798
0.401796
0.400523
0.398002
0.394229
0.389208
0.382942
0.375329
0.366145
0.35484
0.340442
0.322305
0.299318
0.264789
0.208637
0.117699
0.0986792
0.188052
0.255199
0.297311
0.323824
0.343114
0.358216
0.370408
0.380549
0.389101
0.396172
0.401769
0.405949
0.408741
0.410172
0.410178
0.408748
0.405962
0.401789
0.396199
0.389136
0.380594
0.370465
0.358283
0.343188
0.323891
0.297358
0.25525
0.188084
0.098736
0.0960392
0.190882
0.259492
0.303087
0.330968
0.351134
0.366919
0.379827
0.390632
0.399711
0.407231
0.413221
0.417703
0.420692
0.42221
0.422209
0.420697
0.417712
0.413235
0.40725
0.399735
0.390662
0.379861
0.366957
0.351177
0.331006
0.303105
0.259504
0.190877
0.0960421
0.0995299
0.209179
0.278742
0.31881
0.345835
0.366039
0.381702
0.394716
0.405762
0.415127
0.422915
0.429144
0.433817
0.436934
0.438493
0.438494
0.436938
0.433824
0.429153
0.422927
0.415143
0.405782
0.394738
0.381726
0.366063
0.345851
0.3188
0.278699
0.209129
0.0995155
0.116689
0.252438
0.311939
0.346797
0.370152
0.388174
0.402926
0.415575
0.426503
0.43586
0.443686
0.449973
0.454705
0.457866
0.459444
0.459445
0.457869
0.45471
0.449981
0.443695
0.435872
0.426517
0.41559
0.402942
0.388188
0.37016
0.346791
0.311905
0.252354
0.116631
0.165927
0.306065
0.351308
0.383128
0.401809
0.417173
0.430611
0.442492
0.452944
0.462007
0.469651
0.475824
0.480485
0.483606
0.485167
0.485168
0.483608
0.48049
0.475831
0.46966
0.462018
0.452957
0.442506
0.430626
0.417187
0.401819
0.383129
0.351299
0.306021
0.165868
0.200798
0.338041
0.387536
0.420559
0.438946
0.452904
0.464802
0.475432
0.484976
0.49341
0.500621
0.506499
0.510964
0.513963
0.515468
0.515469
0.513966
0.510969
0.506506
0.50063
0.493421
0.484989
0.475447
0.464819
0.452924
0.438966
0.420578
0.387561
0.338071
0.200835
0.19774
0.335796
0.395446
0.43667
0.464413
0.482241
0.4957
0.50696
0.516733
0.525205
0.532367
0.538169
0.542565
0.545514
0.546993
0.546994
0.545518
0.542571
0.538179
0.532379
0.52522
0.516751
0.506983
0.495726
0.482272
0.464447
0.436708
0.395497
0.335854
0.197797
0.177196
0.31597
0.382316
0.430282
0.46426
0.487728
0.505717
0.5202
0.532119
0.542016
0.550123
0.556549
0.561348
0.564537
0.56613
0.566132
0.564542
0.561355
0.55656
0.550137
0.542034
0.532141
0.520226
0.505746
0.487761
0.464294
0.430319
0.382368
0.316051
0.177272
0.15002
0.279944
0.355091
0.407274
0.446812
0.47581
0.497782
0.514944
0.528744
0.539972
0.54902
0.556107
0.561356
0.564832
0.566566
0.566568
0.564837
0.561363
0.556118
0.549033
0.539988
0.528764
0.514967
0.497808
0.475837
0.446839
0.407302