/*--------------------------------*- C++ -*----------------------------------*\
| =========                 |                                                 |
| \\      /  F ield         | OpenFOAM: The Open Source CFD Toolbox           |
|  \\    /   O peration     | Version:  v1606+                                |
|   \\  /    A nd           | Web:      www.OpenFOAM.com                      |
|    \\/     M anipulation  |                                                 |
\*---------------------------------------------------------------------------*/
FoamFile
{
    version     2.0;
    format      ascii;
    class       volVectorField;
    location    "0.14";
    object      U.particles;
}
// * * * * * * * * * * * * * * * * * * * * * * * * * * * * * * * * * * * * * //

dimensions      [0 1 -1 0 0 0 0];

internalField   nonuniform List<vector> 
6000
(
(-0.0197783 -0.364171 0)
(-0.0180528 -0.370943 0)
(-0.00533957 -0.367926 0)
(0.00301587 -0.372101 0)
(0.011723 -0.376477 0)
(0.01848 -0.381507 0)
(0.0236176 -0.389068 0)
(0.0256308 -0.393422 0)
(0.0262185 -0.395528 0)
(0.0249845 -0.397331 0)
(0.0220933 -0.398128 0)
(0.0183592 -0.398957 0)
(0.0139049 -0.400082 0)
(0.00874216 -0.401094 0)
(0.00306198 -0.401271 0)
(-0.00280628 -0.400919 0)
(-0.00843043 -0.400883 0)
(-0.0134212 -0.400131 0)
(-0.0176549 -0.39909 0)
(-0.0213381 -0.398498 0)
(-0.0243633 -0.3979 0)
(-0.0263284 -0.397032 0)
(-0.0263023 -0.394824 0)
(-0.024002 -0.388831 0)
(-0.0188808 -0.381491 0)
(-0.0112667 -0.375398 0)
(-0.00209214 -0.371531 0)
(0.00687976 -0.367015 0)
(0.0205246 -0.371306 0)
(0.0213781 -0.366782 0)
(-0.000959278 -0.0866611 0)
(-0.0111508 -0.077338 0)
(0.00318216 -0.0710108 0)
(0.010109 -0.0651541 0)
(0.018004 -0.0621969 0)
(0.0244565 -0.0608136 0)
(0.0285114 -0.0594249 0)
(0.0304727 -0.0585785 0)
(0.0308033 -0.0596068 0)
(0.0293934 -0.0592931 0)
(0.0263223 -0.0592347 0)
(0.0220333 -0.0589671 0)
(0.0166831 -0.0584331 0)
(0.010404 -0.0584561 0)
(0.00349617 -0.0582575 0)
(-0.00352159 -0.0579794 0)
(-0.0103193 -0.0579237 0)
(-0.016503 -0.0584188 0)
(-0.02176 -0.0589818 0)
(-0.0260255 -0.0590326 0)
(-0.0290805 -0.059491 0)
(-0.0305658 -0.0594728 0)
(-0.0304619 -0.0592767 0)
(-0.0284596 -0.0605619 0)
(-0.0243188 -0.062106 0)
(-0.0178042 -0.0641358 0)
(-0.00949812 -0.066649 0)
(-0.00179876 -0.0731416 0)
(0.0125558 -0.078357 0)
(0.00190072 -0.0885016 0)
(0.0026142 -0.158261 0)
(-0.00321817 -0.1831 0)
(0.00847948 -0.182833 0)
(0.0176784 -0.177652 0)
(0.0265675 -0.170139 0)
(0.0327529 -0.16153 0)
(0.0353035 -0.153862 0)
(0.035514 -0.14795 0)
(0.0340627 -0.143676 0)
(0.0311603 -0.139959 0)
(0.0273646 -0.136748 0)
(0.0224937 -0.134146 0)
(0.0167526 -0.131981 0)
(0.0103533 -0.130603 0)
(0.00348315 -0.129861 0)
(-0.00352648 -0.129811 0)
(-0.0103597 -0.13053 0)
(-0.0167842 -0.132104 0)
(-0.0225902 -0.134407 0)
(-0.0274274 -0.137115 0)
(-0.0312281 -0.140421 0)
(-0.0339872 -0.144169 0)
(-0.0353861 -0.148725 0)
(-0.0350984 -0.154764 0)
(-0.0324373 -0.162536 0)
(-0.0263344 -0.171229 0)
(-0.0171545 -0.178892 0)
(-0.00773005 -0.184158 0)
(0.00362106 -0.184134 0)
(-0.00258151 -0.158472 0)
(0.0108569 -0.174823 0)
(0.00233118 -0.197388 0)
(0.0111436 -0.202566 0)
(0.0218936 -0.201018 0)
(0.030842 -0.196074 0)
(0.0382672 -0.189959 0)
(0.0423155 -0.183189 0)
(0.0430592 -0.177229 0)
(0.0406732 -0.172693 0)
(0.0359376 -0.169436 0)
(0.0303244 -0.166901 0)
(0.0241111 -0.164813 0)
(0.0174231 -0.163215 0)
(0.0105005 -0.162308 0)
(0.00352358 -0.161837 0)
(-0.00349885 -0.161823 0)
(-0.0105543 -0.162306 0)
(-0.0175762 -0.16334 0)
(-0.0243567 -0.16505 0)
(-0.0305898 -0.167153 0)
(-0.0361815 -0.169657 0)
(-0.0407145 -0.172914 0)
(-0.0428988 -0.177543 0)
(-0.0420977 -0.183749 0)
(-0.0380219 -0.190528 0)
(-0.0305421 -0.196946 0)
(-0.0216175 -0.202259 0)
(-0.0113125 -0.203851 0)
(-0.00291267 -0.198192 0)
(-0.0112308 -0.17571 0)
(0.00879919 -0.155338 0)
(-0.000149634 -0.177275 0)
(0.0115853 -0.185451 0)
(0.0232614 -0.18734 0)
(0.0330277 -0.186332 0)
(0.0407955 -0.18366 0)
(0.0461826 -0.180084 0)
(0.0481144 -0.176587 0)
(0.0473368 -0.173841 0)
(0.0434876 -0.171623 0)
(0.0369874 -0.169917 0)
(0.0290773 -0.168852 0)
(0.0205469 -0.168415 0)
(0.0120879 -0.168427 0)
(0.00394209 -0.168543 0)
(-0.00406104 -0.16861 0)
(-0.0122484 -0.168573 0)
(-0.0207776 -0.168568 0)
(-0.0293713 -0.169045 0)
(-0.0372796 -0.170076 0)
(-0.0437276 -0.171732 0)
(-0.0474258 -0.173934 0)
(-0.0480438 -0.176761 0)
(-0.0460887 -0.180518 0)
(-0.040804 -0.184148 0)
(-0.0331259 -0.187142 0)
(-0.023621 -0.188572 0)
(-0.0122318 -0.186832 0)
(-0.000563417 -0.178098 0)
(-0.00943071 -0.156067 0)
(0.00815918 -0.112627 0)
(-0.000489047 -0.136899 0)
(0.0131174 -0.146141 0)
(0.0245453 -0.147458 0)
(0.0338061 -0.145911 0)
(0.041026 -0.143868 0)
(0.0461174 -0.141851 0)
(0.0485149 -0.140085 0)
(0.0483662 -0.139343 0)
(0.0461116 -0.138748 0)
(0.0407614 -0.138211 0)
(0.0333887 -0.13794 0)
(0.0244981 -0.138011 0)
(0.0148289 -0.13827 0)
(0.00488746 -0.138476 0)
(-0.00509673 -0.138506 0)
(-0.0150417 -0.138331 0)
(-0.0247406 -0.138059 0)
(-0.0336441 -0.137999 0)
(-0.0409901 -0.13823 0)
(-0.0462735 -0.138727 0)
(-0.0484537 -0.139312 0)
(-0.0485453 -0.140114 0)
(-0.0461852 -0.142029 0)
(-0.0412439 -0.144169 0)
(-0.0342505 -0.146436 0)
(-0.0252821 -0.148368 0)
(-0.0140889 -0.147196 0)
(-0.000353449 -0.137297 0)
(-0.008898 -0.112974 0)
(0.0117329 -0.0606799 0)
(0.00437692 -0.0902819 0)
(0.0182552 -0.0993589 0)
(0.0277295 -0.0993073 0)
(0.03485 -0.0967366 0)
(0.0402899 -0.0943673 0)
(0.0443106 -0.0928774 0)
(0.0464065 -0.092307 0)
(0.046529 -0.0927672 0)
(0.0445869 -0.0935381 0)
(0.0400438 -0.0943164 0)
(0.0334569 -0.0951007 0)
(0.0250947 -0.0958834 0)
(0.01548 -0.0965629 0)
(0.00516121 -0.0969425 0)
(-0.00537437 -0.0969303 0)
(-0.0156809 -0.0965504 0)
(-0.0252869 -0.0958599 0)
(-0.0336361 -0.0950741 0)
(-0.0402005 -0.0942589 0)
(-0.0447094 -0.0934449 0)
(-0.0466196 -0.0926822 0)
(-0.0464985 -0.092277 0)
(-0.0444573 -0.0929411 0)
(-0.0405971 -0.094557 0)
(-0.0353874 -0.0970904 0)
(-0.0285292 -0.099977 0)
(-0.0194143 -0.100074 0)
(-0.00551051 -0.0905125 0)
(-0.012549 -0.0606777 0)
(0.0191638 -0.00371022 0)
(0.0140294 -0.0389469 0)
(0.027455 -0.0466795 0)
(0.0332343 -0.0446132 0)
(0.0367585 -0.0402595 0)
(0.0392119 -0.0375084 0)
(0.0413218 -0.0365915 0)
(0.0425421 -0.036972 0)
(0.042548 -0.0384022 0)
(0.0405526 -0.0405748 0)
(0.0366175 -0.0425962 0)
(0.030837 -0.0444531 0)
(0.0233864 -0.0460995 0)
(0.0145806 -0.0473612 0)
(0.00490232 -0.0480402 0)
(-0.00505897 -0.0480264 0)
(-0.0147159 -0.0473263 0)
(-0.0234987 -0.0460327 0)
(-0.0309371 -0.0443744 0)
(-0.0367165 -0.042488 0)
(-0.0406377 -0.0404444 0)
(-0.0426148 -0.0382786 0)
(-0.0426392 -0.0368965 0)
(-0.0414904 -0.036566 0)
(-0.0395401 -0.0375866 0)
(-0.0373133 -0.0404957 0)
(-0.0340878 -0.045217 0)
(-0.0288468 -0.0472207 0)
(-0.0153219 -0.0391641 0)
(-0.0200875 -0.00356769 0)
(0.0288564 0.0540486 0)
(0.0276627 0.0158444 0)
(0.0393839 0.00992214 0)
(0.0412289 0.013753 0)
(0.0408338 0.0209284 0)
(0.0399603 0.0252207 0)
(0.0395795 0.0267262 0)
(0.0392878 0.0260055 0)
(0.0384147 0.0237343 0)
(0.0361171 0.0205699 0)
(0.0323797 0.0174184 0)
(0.0272448 0.0146417 0)
(0.0207644 0.0122834 0)
(0.0130341 0.0104864 0)
(0.00440916 0.00953377 0)
(-0.00451677 0.00955317 0)
(-0.0131219 0.0105409 0)
(-0.0208248 0.0123796 0)
(-0.0272934 0.0147537 0)
(-0.0324316 0.017563 0)
(-0.0361597 0.0207344 0)
(-0.0384542 0.023888 0)
(-0.0393856 0.0261355 0)
(-0.039764 0.0268076 0)
(-0.0402932 0.0251977 0)
(-0.0413889 0.0207419 0)
(-0.042173 0.0132666 0)
(-0.0407559 0.0093291 0)
(-0.0291663 0.015592 0)
(-0.0298439 0.0541745 0)
(0.0373944 0.110265 0)
(0.0412274 0.0719486 0)
(0.0512915 0.066167 0)
(0.0503978 0.0715128 0)
(0.0472939 0.0811329 0)
(0.0440529 0.088251 0)
(0.0415037 0.0924498 0)
(0.0393813 0.093655 0)
(0.0370122 0.0923172 0)
(0.0337727 0.0893714 0)
(0.0295838 0.0857963 0)
(0.0245401 0.0823658 0)
(0.0186053 0.0794389 0)
(0.0116841 0.0772202 0)
(0.00396701 0.0760444 0)
(-0.00403046 0.0760716 0)
(-0.0117367 0.0772958 0)
(-0.0186391 0.079559 0)
(-0.0245644 0.0825014 0)
(-0.0296139 0.0859653 0)
(-0.0337986 0.089559 0)
(-0.0370568 0.0924945 0)
(-0.0395037 0.0937967 0)
(-0.0417286 0.0925324 0)
(-0.0444185 0.0882232 0)
(-0.0478738 0.0809371 0)
(-0.0513631 0.0710501 0)
(-0.0526557 0.0656206 0)
(-0.0426627 0.0717104 0)
(-0.038313 0.110325 0)
(0.0407653 0.163274 0)
(0.0491578 0.12541 0)
(0.0596168 0.117494 0)
(0.0586928 0.122613 0)
(0.0562361 0.133421 0)
(0.053038 0.14401 0)
(0.0495941 0.152871 0)
(0.0459462 0.158881 0)
(0.0417758 0.161731 0)
(0.0368411 0.161877 0)
(0.0312384 0.160199 0)
(0.0251765 0.157663 0)
(0.018681 0.155062 0)
(0.0115872 0.152956 0)
(0.00392522 0.151807 0)
(-0.00395299 0.15184 0)
(-0.0116196 0.15305 0)
(-0.018714 0.155204 0)
(-0.0252234 0.157826 0)
(-0.0313239 0.160388 0)
(-0.0369642 0.162071 0)
(-0.0419659 0.161892 0)
(-0.0462397 0.158972 0)
(-0.0499906 0.152868 0)
(-0.0535451 0.143884 0)
(-0.0569118 0.133139 0)
(-0.0596514 0.122168 0)
(-0.060888 0.117052 0)
(-0.0503234 0.125304 0)
(-0.0414883 0.163367 0)
(0.0372188 0.208181 0)
(0.0480977 0.16804 0)
(0.0628225 0.15501 0)
(0.0674939 0.158393 0)
(0.0703192 0.169411 0)
(0.0708715 0.18407 0)
(0.068785 0.199385 0)
(0.0642309 0.21303 0)
(0.0576355 0.223544 0)
(0.0496335 0.230414 0)
(0.0409085 0.234024 0)
(0.0319775 0.235252 0)
(0.0230297 0.235089 0)
(0.0139504 0.234422 0)
(0.00466015 0.233935 0)
(-0.00472851 0.233971 0)
(-0.0140385 0.234526 0)
(-0.0231394 0.235239 0)
(-0.0321164 0.23542 0)
(-0.041074 0.234198 0)
(-0.049787 0.230578 0)
(-0.0577653 0.223689 0)
(-0.0643661 0.213155 0)
(-0.0689912 0.199476 0)
(-0.0712416 0.184081 0)
(-0.0709345 0.169269 0)
(-0.0684002 0.158104 0)
(-0.063927 0.154695 0)
(-0.0489585 0.168027 0)
(-0.0377053 0.208408 0)
(0.0292278 0.235545 0)
(0.0416117 0.185572 0)
(0.0657345 0.168758 0)
(0.0791169 0.172208 0)
(0.0888217 0.185864 0)
(0.0937141 0.205503 0)
(0.0939635 0.227577 0)
(0.0898165 0.249331 0)
(0.0817828 0.268576 0)
(0.0708378 0.283833 0)
(0.0582026 0.29483 0)
(0.0449853 0.302086 0)
(0.0318665 0.306448 0)
(0.019004 0.308785 0)
(0.00631118 0.309786 0)
(-0.00631765 0.309803 0)
(-0.0189734 0.308829 0)
(-0.0317364 0.306509 0)
(-0.044685 0.302167 0)
(-0.0576685 0.294967 0)
(-0.0700566 0.284081 0)
(-0.0808527 0.268991 0)
(-0.0889244 0.249928 0)
(-0.0933174 0.22828 0)
(-0.0934649 0.206169 0)
(-0.0890441 0.186338 0)
(-0.0797776 0.17237 0)
(-0.0666401 0.168695 0)
(-0.0423269 0.185557 0)
(-0.0295807 0.235836 0)
(0.0240443 0.238618 0)
(0.0394768 0.17951 0)
(0.0701987 0.164126 0)
(0.0887761 0.172196 0)
(0.0982208 0.191903 0)
(0.101327 0.21667 0)
(0.0994303 0.242908 0)
(0.0939093 0.268201 0)
(0.085759 0.291097 0)
(0.075662 0.310869 0)
(0.063947 0.327256 0)
(0.0508441 0.340051 0)
(0.0367841 0.34915 0)
(0.0222434 0.354811 0)
(0.00753464 0.357493 0)
(-0.00717529 0.357491 0)
(-0.0217994 0.354807 0)
(-0.036174 0.349164 0)
(-0.0500176 0.340135 0)
(-0.062904 0.327484 0)
(-0.0744598 0.311312 0)
(-0.0845023 0.291793 0)
(-0.0927324 0.269138 0)
(-0.0984737 0.244011 0)
(-0.100737 0.217798 0)
(-0.0980609 0.192917 0)
(-0.0891211 0.172842 0)
(-0.0709352 0.164263 0)
(-0.04015 0.179419 0)
(-0.0244127 0.238854 0)
(0.0264029 0.21835 0)
(0.0471786 0.160304 0)
(0.0749846 0.152248 0)
(0.0900116 0.169287 0)
(0.095617 0.195178 0)
(0.0952765 0.223933 0)
(0.0907173 0.252811 0)
(0.0834841 0.27986 0)
(0.0744972 0.303953 0)
(0.0644747 0.324415 0)
(0.0539209 0.341027 0)
(0.0429109 0.353895 0)
(0.0313648 0.363259 0)
(0.0192448 0.369387 0)
(0.00665406 0.372439 0)
(-0.00610048 0.372448 0)
(-0.0186345 0.369421 0)
(-0.030652 0.363337 0)
(-0.0420742 0.354059 0)
(-0.0529598 0.341338 0)
(-0.0633989 0.324947 0)
(-0.0733593 0.304759 0)
(-0.0823869 0.280934 0)
(-0.0897608 0.254088 0)
(-0.0945488 0.225306 0)
(-0.0952315 0.196469 0)
(-0.0900415 0.170304 0)
(-0.0755127 0.152682 0)
(-0.0479461 0.160118 0)
(-0.0269279 0.218258 0)
(0.0345948 0.1773 0)
(0.0550428 0.139932 0)
(0.0751034 0.143833 0)
(0.0846822 0.167886 0)
(0.0870776 0.198219 0)
(0.0848368 0.230032 0)
(0.0791677 0.261189 0)
(0.0711417 0.289989 0)
(0.0619124 0.315136 0)
(0.0523361 0.336016 0)
(0.0429857 0.352699 0)
(0.0337941 0.365624 0)
(0.024504 0.375159 0)
(0.0149696 0.381496 0)
(0.00518394 0.384676 0)
(-0.00470039 0.384679 0)
(-0.0144595 0.38151 0)
(-0.0239374 0.375206 0)
(-0.0331465 0.365747 0)
(-0.0422353 0.352966 0)
(-0.0514488 0.336518 0)
(-0.0609088 0.315955 0)
(-0.0701231 0.291132 0)
(-0.07824 0.262577 0)
(-0.0840911 0.231531 0)
(-0.0865634 0.199681 0)
(-0.0844673 0.169145 0)
(-0.075314 0.14464 0)
(-0.0557586 0.139894 0)
(-0.0353688 0.176432 0)
(0.0397574 0.13551 0)
(0.0565404 0.123141 0)
(0.0694148 0.138806 0)
(0.0752769 0.167532 0)
(0.0760388 0.201048 0)
(0.0728861 0.235667 0)
(0.0666866 0.269314 0)
(0.0581593 0.299985 0)
(0.0491695 0.325706 0)
(0.0410203 0.346086 0)
(0.0337233 0.361968 0)
(0.0268094 0.374274 0)
(0.0197273 0.383521 0)
(0.0121927 0.389809 0)
(0.00422449 0.393017 0)
(-0.00391961 0.393014 0)
(-0.0118876 0.389801 0)
(-0.0194099 0.383517 0)
(-0.0264481 0.374307 0)
(-0.0332619 0.362111 0)
(-0.0404077 0.346456 0)
(-0.0483874 0.326435 0)
(-0.0572483 0.301143 0)
(-0.0657981 0.270801 0)
(-0.0721476 0.23728 0)
(-0.0754815 0.202622 0)
(-0.0749182 0.16894 0)
(-0.0693016 0.139917 0)
(-0.0569187 0.123472 0)
(-0.0404082 0.134163 0)
(0.0403296 0.0981384 0)
(0.0514547 0.110765 0)
(0.059133 0.135921 0)
(0.0633107 0.167788 0)
(0.0630853 0.204018 0)
(0.0590507 0.241733 0)
(0.052015 0.2785 0)
(0.043942 0.310563 0)
(0.0369061 0.335455 0)
(0.0317485 0.353935 0)
(0.0275228 0.368204 0)
(0.0230663 0.379644 0)
(0.0176911 0.388676 0)
(0.0112315 0.395091 0)
(0.00391802 0.398457 0)
(-0.00372756 0.398456 0)
(-0.0110728 0.39508 0)
(-0.0175811 0.388641 0)
(-0.0229935 0.379586 0)
(-0.0274441 0.368167 0)
(-0.0315833 0.354039 0)
(-0.0365268 0.335915 0)
(-0.0432867 0.311595 0)
(-0.0512332 0.280041 0)
(-0.0583165 0.243466 0)
(-0.0625102 0.205673 0)
(-0.0628704 0.169266 0)
(-0.0587945 0.137166 0)
(-0.0513883 0.111391 0)
(-0.0405398 0.0967777 0)
(0.0336034 0.0659397 0)
(0.0408195 0.101206 0)
(0.0456955 0.133769 0)
(0.0488329 0.168625 0)
(0.0476055 0.207568 0)
(0.0426729 0.249085 0)
(0.0354488 0.289685 0)
(0.0295722 0.321709 0)
(0.02742 0.342996 0)
(0.0271222 0.358165 0)
(0.026245 0.370683 0)
(0.0235432 0.381762 0)
(0.0187952 0.39119 0)
(0.0122128 0.398222 0)
(0.00431773 0.402022 0)
(-0.00407479 0.402039 0)
(-0.012031 0.398254 0)
(-0.0187215 0.391193 0)
(-0.0236038 0.381689 0)
(-0.0264441 0.370514 0)
(-0.0274272 0.357953 0)
(-0.0276748 0.342972 0)
(-0.0294921 0.322302 0)
(-0.0349345 0.291175 0)
(-0.0420382 0.250923 0)
(-0.0470523 0.209262 0)
(-0.0483419 0.170081 0)
(-0.0452674 0.134921 0)
(-0.0404178 0.101896 0)
(-0.0330812 0.0649187 0)
(0.0213392 0.0429823 0)
(0.0272003 0.0927497 0)
(0.0311067 0.130513 0)
(0.0320504 0.169627 0)
(0.0295321 0.21137 0)
(0.0227868 0.259641 0)
(0.0180263 0.304681 0)
(0.0209777 0.330357 0)
(0.0269133 0.344946 0)
(0.0305153 0.357263 0)
(0.0308713 0.369513 0)
(0.0281193 0.381529 0)
(0.0226115 0.392308 0)
(0.0147674 0.40058 0)
(0.00529193 0.405133 0)
(-0.00480345 0.405186 0)
(-0.014359 0.400708 0)
(-0.0223472 0.39244 0)
(-0.0280378 0.381575 0)
(-0.0310092 0.369389 0)
(-0.0309194 0.356921 0)
(-0.0276225 0.344439 0)
(-0.0218604 0.33003 0)
(-0.0183925 0.305538 0)
(-0.022531 0.261623 0)
(-0.0290309 0.213096 0)
(-0.0315446 0.17096 0)
(-0.0306284 0.131503 0)
(-0.0266927 0.0933307 0)
(-0.0207792 0.0425248 0)
(0.0116457 0.030527 0)
(0.0147597 0.0840105 0)
(0.0172385 0.125722 0)
(0.0157048 0.16829 0)
(0.00957689 0.214529 0)
(-0.00119743 0.282911 0)
(0.0131597 0.317122 0)
(0.0290755 0.328652 0)
(0.0376525 0.339416 0)
(0.0404324 0.352235 0)
(0.0392062 0.366415 0)
(0.0348213 0.380656 0)
(0.0276124 0.39354 0)
(0.0179522 0.403494 0)
(0.00650724 0.409017 0)
(-0.00564427 0.409116 0)
(-0.0171834 0.40375 0)
(-0.0269956 0.393857 0)
(-0.0343815 0.380922 0)
(-0.0389634 0.36652 0)
(-0.0404179 0.352088 0)
(-0.0380168 0.338896 0)
(-0.0301015 0.327722 0)
(-0.0150451 0.316176 0)
(-0.000338343 0.284514 0)
(-0.00910044 0.21657 0)
(-0.015096 0.169573 0)
(-0.0167384 0.126578 0)
(-0.0143447 0.0844235 0)
(-0.0113045 0.030566 0)
(0.00506612 0.025419 0)
(0.00602672 0.0749032 0)
(0.00574515 0.121113 0)
(0.00429776 0.161596 0)
(-0.0118352 0.248848 0)
(0.00724457 0.301825 0)
(0.0355276 0.307997 0)
(0.0477001 0.316615 0)
(0.0508327 0.330418 0)
(0.0502161 0.346663 0)
(0.0468518 0.36387 0)
(0.040841 0.380779 0)
(0.0320623 0.396013 0)
(0.0207502 0.407814 0)
(0.00758417 0.414389 0)
(-0.00632776 0.414535 0)
(-0.0196017 0.4082 0)
(-0.0310792 0.396518 0)
(-0.0400454 0.381268 0)
(-0.0462271 0.364239 0)
(-0.0497305 0.346838 0)
(-0.0504976 0.330309 0)
(-0.0476773 0.316078 0)
(-0.0366344 0.306635 0)
(-0.0100453 0.300221 0)
(0.0110008 0.251202 0)
(-0.00366677 0.162818 0)
(-0.00523107 0.121935 0)
(-0.00570694 0.0753381 0)
(-0.00483791 0.0256125 0)
(0.00066054 0.0237374 0)
(-0.000382325 0.0700798 0)
(-0.00294971 0.112448 0)
(-0.00693802 0.200796 0)
(0.0034377 0.269435 0)
(0.0413429 0.282443 0)
(0.0562728 0.289596 0)
(0.0588293 0.305301 0)
(0.0585129 0.323734 0)
(0.0562692 0.34332 0)
(0.0518228 0.363267 0)
(0.0448728 0.38265 0)
(0.0351011 0.400161 0)
(0.0226023 0.413848 0)
(0.00827278 0.421499 0)
(-0.00669245 0.421688 0)
(-0.0211222 0.414356 0)
(-0.0338154 0.400831 0)
(-0.0438195 0.383309 0)
(-0.0509493 0.363822 0)
(-0.0555433 0.343709 0)
(-0.057886 0.323931 0)
(-0.0582673 0.305275 0)
(-0.0559151 0.289196 0)
(-0.0427129 0.280753 0)
(-0.00600259 0.26948 0)
(0.00682144 0.201916 0)
(0.00334796 0.113329 0)
(0.000655198 0.0706335 0)
(-0.00050513 0.0239908 0)
(-0.00241073 0.0232858 0)
(-0.0072808 0.0646302 0)
(-0.00807293 0.145643 0)
(-0.001138 0.22261 0)
(0.0389717 0.255679 0)
(0.0599686 0.260079 0)
(0.0624273 0.277961 0)
(0.0625857 0.298756 0)
(0.061593 0.320354 0)
(0.0589151 0.342401 0)
(0.0540386 0.364615 0)
(0.0464109 0.386379 0)
(0.0360308 0.406134 0)
(0.0231425 0.421643 0)
(0.00852543 0.430378 0)
(-0.0067053 0.430609 0)
(-0.0214374 0.422258 0)
(-0.034539 0.406938 0)
(-0.0451553 0.387182 0)
(-0.0530101 0.365286 0)
(-0.0580819 0.342885 0)
(-0.0608881 0.320666 0)
(-0.0619659 0.29892 0)
(-0.0618268 0.277982 0)
(-0.0596294 0.259693 0)
(-0.0410875 0.253581 0)
(-0.000456845 0.223579 0)
(0.00779436 0.147614 0)
(0.00741569 0.0653281 0)
(0.00251256 0.0235198 0)
(-0.0163949 0.0305014 0)
(0.00278647 0.0714591 0)
(-0.00287562 0.166339 0)
(0.0290206 0.222026 0)
(0.0589244 0.229513 0)
(0.0621735 0.248353 0)
(0.0624219 0.271788 0)
(0.0626739 0.295495 0)
(0.0617044 0.319211 0)
(0.0588208 0.34328 0)
(0.0536469 0.367635 0)
(0.0457803 0.391655 0)
(0.0351621 0.413802 0)
(0.0223612 0.431385 0)
(0.00825447 0.44134 0)
(-0.00628314 0.44162 0)
(-0.0205004 0.432124 0)
(-0.0335095 0.414757 0)
(-0.044383 0.392584 0)
(-0.0525131 0.368392 0)
(-0.0578968 0.343828 0)
(-0.0609435 0.319562 0)
(-0.0620527 0.295699 0)
(-0.0618383 0.271896 0)
(-0.0615796 0.248307 0)
(-0.0588104 0.228917 0)
(-0.0317331 0.221679 0)
(0.00198645 0.167045 0)
(-0.00245901 0.0729471 0)
(0.0169565 0.0309646 0)
(-0.0360366 0.0471657 0)
(-0.00437708 0.112458 0)
(0.0177121 0.17559 0)
(0.0548683 0.196166 0)
(0.0595676 0.21621 0)
(0.0593878 0.241836 0)
(0.060366 0.26824 0)
(0.0608676 0.294141 0)
(0.0596532 0.319614 0)
(0.0565873 0.345453 0)
(0.0510663 0.371988 0)
(0.0428239 0.398608 0)
(0.0320363 0.423602 0)
(0.0197931 0.443531 0)
(0.00724706 0.454702 0)
(-0.00524144 0.455036 0)
(-0.0178408 0.444424 0)
(-0.0302367 0.424759 0)
(-0.0412767 0.399705 0)
(-0.0497966 0.372857 0)
(-0.0555511 0.346063 0)
(-0.0588013 0.319973 0)
(-0.0601412 0.294357 0)
(-0.0597372 0.268371 0)
(-0.0587355 0.241882 0)
(-0.0588161 0.216049 0)
(-0.0549418 0.195497 0)
(-0.0200938 0.175522 0)
(0.00373116 0.113845 0)
(0.0367092 0.048136 0)
(-0.00646868 0.0575321 0)
(0.0117507 0.127298 0)
(0.0475718 0.159248 0)
(0.0552125 0.181118 0)
(0.0545105 0.20858 0)
(0.0556115 0.237859 0)
(0.057265 0.266503 0)
(0.0574269 0.293947 0)
(0.0558207 0.320924 0)
(0.052187 0.348856 0)
(0.0458743 0.378005 0)
(0.0366519 0.408054 0)
(0.0254232 0.43649 0)
(0.0145104 0.458273 0)
(0.00517188 0.469821 0)
(-0.0033564 0.47018 0)
(-0.0126105 0.45929 0)
(-0.0234929 0.437911 0)
(-0.0349005 0.409423 0)
(-0.0444169 0.37904 0)
(-0.0510024 0.349552 0)
(-0.0548421 0.32134 0)
(-0.0565694 0.294158 0)
(-0.056544 0.266615 0)
(-0.054897 0.2379 0)
(-0.0536494 0.20862 0)
(-0.0543685 0.180872 0)
(-0.0479406 0.158419 0)
(-0.0135886 0.127739 0)
(0.00512726 0.057517 0)
(0.00672996 0.064109 0)
(0.0366224 0.124066 0)
(0.0480749 0.143964 0)
(0.0479824 0.172438 0)
(0.0490131 0.20409 0)
(0.0513331 0.23551 0)
(0.0527706 0.265704 0)
(0.0520712 0.294593 0)
(0.0497942 0.323504 0)
(0.0449483 0.353976 0)
(0.0367235 0.386889 0)
(0.0252417 0.421843 0)
(0.013787 0.452668 0)
(0.00613393 0.472974 0)
(0.00204084 0.482474 0)
(-0.000808507 0.482751 0)
(-0.00464469 0.473867 0)
(-0.0118985 0.454227 0)
(-0.0232062 0.423647 0)
(-0.034965 0.388241 0)
(-0.0435581 0.354796 0)
(-0.0486749 0.323963 0)
(-0.0511275 0.294798 0)
(-0.0519494 0.2658 0)
(-0.0505465 0.235634 0)
(-0.0481035 0.204221 0)
(-0.0469353 0.172524 0)
(-0.0471209 0.143817 0)
(-0.0370984 0.123381 0)
(-0.00736502 0.0644768 0)
(0.0181689 0.076752 0)
(0.0377906 0.106626 0)
(0.0396116 0.134369 0)
(0.0405543 0.167681 0)
(0.0432191 0.201269 0)
(0.0457006 0.234251 0)
(0.0460471 0.265836 0)
(0.0444404 0.296282 0)
(0.0407555 0.327799 0)
(0.0332489 0.362228 0)
(0.0204706 0.401967 0)
(0.00627526 0.441211 0)
(-0.00122551 0.467209 0)
(-0.00247074 0.480371 0)
(-0.0009256 0.485763 0)
(0.00120104 0.485845 0)
(0.00299696 0.480739 0)
(0.00238578 0.468261 0)
(-0.00419772 0.443224 0)
(-0.0181374 0.404058 0)
(-0.0315245 0.363357 0)
(-0.0394609 0.328319 0)
(-0.0433898 0.296473 0)
(-0.0451032 0.265903 0)
(-0.0448576 0.234347 0)
(-0.04241 0.201426 0)
(-0.0396221 0.167935 0)
(-0.0384947 0.134598 0)
(-0.0370296 0.106674 0)
(-0.0194066 0.0778559 0)
(0.0269744 0.0723324 0)
(0.0309309 0.0945957 0)
(0.0310598 0.128572 0)
(0.0335545 0.163999 0)
(0.036506 0.199392 0)
(0.0379927 0.233848 0)
(0.0366083 0.266959 0)
(0.0334762 0.299662 0)
(0.0266733 0.335695 0)
(0.0124942 0.379201 0)
(-0.00748942 0.428088 0)
(-0.01364 0.458256 0)
(-0.00970365 0.470294 0)
(-0.00505201 0.475954 0)
(-0.00170205 0.478693 0)
(0.00119316 0.478623 0)
(0.00456835 0.47581 0)
(0.00933052 0.470225 0)
(0.0141208 0.459082 0)
(0.010013 0.430772 0)
(-0.0100228 0.381521 0)
(-0.0250403 0.336551 0)
(-0.032316 0.299794 0)
(-0.0356478 0.266879 0)
(-0.037149 0.233776 0)
(-0.0357433 0.199445 0)
(-0.0328443 0.164265 0)
(-0.030288 0.129018 0)
(-0.0300087 0.094964 0)
(-0.0265351 0.0719342 0)
(0.0214542 0.0470116 0)
(0.0204657 0.0849952 0)
(0.0225609 0.123056 0)
(0.0260899 0.160586 0)
(0.0286552 0.197977 0)
(0.0281584 0.233933 0)
(0.0248005 0.267935 0)
(0.0161727 0.306689 0)
(-0.00112718 0.356559 0)
(-0.0283168 0.417385 0)
(-0.0260153 0.449729 0)
(-0.0120999 0.457198 0)
(-0.00360371 0.460693 0)
(-0.000253835 0.463555 0)
(-1.59265e-05 0.465535 0)
(-0.000774592 0.465413 0)
(-0.000691689 0.463136 0)
(0.00232553 0.459956 0)
(0.0106113 0.456515 0)
(0.0248763 0.450032 0)
(0.030647 0.42091 0)
(0.0043467 0.359197 0)
(-0.0146393 0.307239 0)
(-0.0238362 0.267688 0)
(-0.0273966 0.233681 0)
(-0.0279399 0.197877 0)
(-0.025471 0.160698 0)
(-0.0221213 0.123407 0)
(-0.0201064 0.0853981 0)
(-0.0211053 0.0462421 0)
(0.0111164 0.0280234 0)
(0.011615 0.0772079 0)
(0.0152022 0.117475 0)
(0.0183465 0.156854 0)
(0.0190142 0.196159 0)
(0.0162991 0.231447 0)
(0.00766798 0.272004 0)
(-0.0278821 0.336726 0)
(-0.0475993 0.412646 0)
(-0.0317349 0.440405 0)
(-0.00507513 0.441428 0)
(0.0103976 0.441502 0)
(0.0120674 0.446149 0)
(0.00877454 0.451511 0)
(0.00312684 0.454968 0)
(-0.00345357 0.454932 0)
(-0.00924628 0.451316 0)
(-0.0128397 0.445644 0)
(-0.0120505 0.440377 0)
(0.00135137 0.439445 0)
(0.0285643 0.439536 0)
(0.0471241 0.415408 0)
(0.0314595 0.341189 0)
(-0.00653026 0.272364 0)
(-0.0156426 0.230998 0)
(-0.0184162 0.195988 0)
(-0.0178325 0.156772 0)
(-0.0147603 0.117584 0)
(-0.0112418 0.0773602 0)
(-0.0107131 0.0278447 0)
(0.00414394 0.022385 0)
(0.00472187 0.0699908 0)
(0.00749678 0.111994 0)
(0.00849199 0.153186 0)
(0.006827 0.19124 0)
(0.0035335 0.231065 0)
(-0.0336122 0.32059 0)
(-0.0532899 0.396294 0)
(-0.0366667 0.424864 0)
(0.0130281 0.42023 0)
(0.0321566 0.418751 0)
(0.030668 0.427126 0)
(0.0250245 0.436885 0)
(0.0167164 0.445332 0)
(0.00609509 0.450365 0)
(-0.00557572 0.45044 0)
(-0.0163461 0.445464 0)
(-0.024861 0.436908 0)
(-0.030759 0.426816 0)
(-0.0329704 0.417736 0)
(-0.0180236 0.417121 0)
(0.0331006 0.423596 0)
(0.0512047 0.398332 0)
(0.0359636 0.324908 0)
(-0.00240567 0.230992 0)
(-0.00633784 0.190814 0)
(-0.00806958 0.153095 0)
(-0.00707483 0.111994 0)
(-0.00445609 0.0700036 0)
(-0.00395648 0.0224621 0)
(0.0005088 0.0215268 0)
(-3.55708e-05 0.0654966 0)
(6.41796e-05 0.107321 0)
(-0.00199875 0.147674 0)
(-0.00294979 0.185151 0)
(-0.0300822 0.282779 0)
(-0.0539002 0.370682 0)
(-0.0367158 0.406822 0)
(0.0305265 0.393036 0)
(0.0501425 0.393555 0)
(0.0470039 0.406485 0)
(0.0412261 0.420557 0)
(0.0331459 0.433755 0)
(0.0219469 0.44457 0)
(0.00813452 0.45088 0)
(-0.00673802 0.451046 0)
(-0.0207524 0.444971 0)
(-0.0322532 0.434183 0)
(-0.0405856 0.420829 0)
(-0.0464799 0.406496 0)
(-0.0501088 0.392932 0)
(-0.0361852 0.388864 0)
(0.0324823 0.404903 0)
(0.050855 0.372787 0)
(0.0331932 0.287761 0)
(0.00290339 0.184692 0)
(0.00253988 0.14752 0)
(0.000437187 0.107283 0)
(0.000348028 0.0654444 0)
(-0.000377562 0.0215732 0)
(-0.00136 0.0211313 0)
(-0.00433176 0.0622995 0)
(-0.00680877 0.102722 0)
(-0.00733305 0.139566 0)
(-0.0289822 0.23328 0)
(-0.052783 0.332617 0)
(-0.0356841 0.382694 0)
(0.0394292 0.365746 0)
(0.0617452 0.366596 0)
(0.0582211 0.383608 0)
(0.0533991 0.401828 0)
(0.0470952 0.419074 0)
(0.0376767 0.434875 0)
(0.0247564 0.447645 0)
(0.00925991 0.455003 0)
(-0.00716197 0.45524 0)
(-0.022882 0.448255 0)
(-0.0361961 0.435611 0)
(-0.0459864 0.419734 0)
(-0.0525586 0.402348 0)
(-0.0574543 0.383933 0)
(-0.0612101 0.36647 0)
(-0.0453465 0.360805 0)
(0.03124 0.380805 0)
(0.0503721 0.335535 0)
(0.030865 0.237326 0)
(0.00771239 0.139873 0)
(0.00764812 0.102553 0)
(0.00484115 0.0622116 0)
(0.00156188 0.021153 0)
(-0.00243894 0.0206254 0)
(-0.00826017 0.0587104 0)
(-0.0163438 0.0972839 0)
(-0.0297106 0.187108 0)
(-0.0508902 0.281799 0)
(-0.0353304 0.346081 0)
(0.04293 0.337235 0)
(0.0686613 0.337713 0)
(0.0649469 0.358101 0)
(0.0613838 0.379871 0)
(0.057289 0.400613 0)
(0.0502375 0.420472 0)
(0.0397404 0.438657 0)
(0.0258216 0.453285 0)
(0.00973259 0.461654 0)
(-0.00713148 0.461953 0)
(-0.0234372 0.454073 0)
(-0.0377354 0.439674 0)
(-0.0487276 0.421429 0)
(-0.0562601 0.401388 0)
(-0.0606415 0.380538 0)
(-0.0640929 0.358778 0)
(-0.0682673 0.33789 0)
(-0.0492272 0.33204 0)
(0.0313757 0.34551 0)
(0.0489004 0.285931 0)
(0.0310189 0.188169 0)
(0.0176859 0.0976977 0)
(0.00903661 0.0583977 0)
(0.00269725 0.0205877 0)
(-0.0075737 0.0240017 0)
(-0.00601912 0.056966 0)
(-0.0306314 0.145448 0)
(-0.0439559 0.228685 0)
(-0.0329223 0.297214 0)
(0.0457086 0.301254 0)
(0.0726404 0.305676 0)
(0.0684901 0.329331 0)
(0.0655858 0.354556 0)
(0.062978 0.378736 0)
(0.058367 0.401798 0)
(0.0510463 0.423675 0)
(0.0399763 0.444234 0)
(0.0257941 0.460884 0)
(0.00980127 0.470461 0)
(-0.00682716 0.470832 0)
(-0.023032 0.461867 0)
(-0.0376129 0.445526 0)
(-0.0492795 0.424927 0)
(-0.0571345 0.402885 0)
(-0.062082 0.379876 0)
(-0.0649289 0.355492 0)
(-0.067823 0.32993 0)
(-0.0727706 0.305575 0)
(-0.0527705 0.296341 0)
(0.0298782 0.297182 0)
(0.0438787 0.229734 0)
(0.0308391 0.14609 0)
(0.00572954 0.0572597 0)
(0.00832715 0.0241884 0)
(-0.0263542 0.0305877 0)
(0.00291612 0.0683529 0)
(-0.0335718 0.176021 0)
(-0.0259997 0.243344 0)
(0.0495609 0.257728 0)
(0.0744193 0.269375 0)
(0.069685 0.296873 0)
(0.0669388 0.325728 0)
(0.0651836 0.353448 0)
(0.0624142 0.379591 0)
(0.0574946 0.404244 0)
(0.0495618 0.428584 0)
(0.038148 0.451891 0)
(0.0242889 0.470962 0)
(0.00927091 0.482019 0)
(-0.00608337 0.482474 0)
(-0.0212721 0.472173 0)
(-0.0354846 0.4535 0)
(-0.0473668 0.43026 0)
(-0.0558558 0.405704 0)
(-0.0613286 0.381008 0)
(-0.0645549 0.354826 0)
(-0.0664486 0.32653 0)
(-0.0692376 0.296812 0)
(-0.074877 0.26842 0)
(-0.0572242 0.252377 0)
(0.0224916 0.243009 0)
(0.0334993 0.175775 0)
(-0.00103917 0.0708636 0)
(0.0278891 0.0311414 0)
(-0.0485516 0.048156 0)
(-0.0165291 0.114278 0)
(-0.0182589 0.18999 0)
(0.0523327 0.210657 0)
(0.0726919 0.229726 0)
(0.0679497 0.260958 0)
(0.065426 0.293358 0)
(0.0643294 0.324655 0)
(0.0629343 0.354086 0)
(0.059667 0.381475 0)
(0.0540737 0.408138 0)
(0.0451754 0.435712 0)
(0.0334345 0.462579 0)
(0.0204669 0.484633 0)
(0.00775136 0.497264 0)
(-0.00462808 0.497803 0)
(-0.0173773 0.486094 0)
(-0.0305517 0.464564 0)
(-0.0426546 0.437811 0)
(-0.0519607 0.410085 0)
(-0.0579796 0.383046 0)
(-0.0618818 0.355577 0)
(-0.0638473 0.325746 0)
(-0.065006 0.293475 0)
(-0.0674684 0.259787 0)
(-0.0730653 0.227499 0)
(-0.0598266 0.204736 0)
(0.0139657 0.189529 0)
(0.0166527 0.117291 0)
(0.0498609 0.0500908 0)
(-0.0195304 0.0656964 0)
(-0.0064003 0.135198 0)
(0.0498121 0.163148 0)
(0.0673076 0.188122 0)
(0.0630862 0.222147 0)
(0.0608974 0.257691 0)
(0.0601521 0.292373 0)
(0.059817 0.325239 0)
(0.0579107 0.355608 0)
(0.0539054 0.384322 0)
(0.0469478 0.414432 0)
(0.0363405 0.44666 0)
(0.0240235 0.478081 0)
(0.0131942 0.502358 0)
(0.00482307 0.51532 0)
(-0.00234984 0.515834 0)
(-0.0104737 0.503884 0)
(-0.0211128 0.48044 0)
(-0.0334521 0.449366 0)
(-0.0443342 0.416939 0)
(-0.0516979 0.386459 0)
(-0.0561219 0.357144 0)
(-0.058675 0.326386 0)
(-0.0595812 0.292657 0)
(-0.0601527 0.256711 0)
(-0.0620628 0.219662 0)
(-0.0668685 0.184585 0)
(-0.0559272 0.156967 0)
(0.00260988 0.13592 0)
(0.0164214 0.0661743 0)
(-0.00189447 0.0755715 0)
(0.0392076 0.122659 0)
(0.0580032 0.145844 0)
(0.0554046 0.181207 0)
(0.053708 0.219059 0)
(0.0531064 0.256541 0)
(0.053113 0.292522 0)
(0.0521991 0.326391 0)
(0.0494328 0.357508 0)
(0.0437953 0.389605 0)
(0.0338642 0.42561 0)
(0.0203768 0.464474 0)
(0.00893685 0.49783 0)
(0.00337445 0.519585 0)
(0.000972298 0.529962 0)
(-0.000245134 0.530132 0)
(-0.00215254 0.520362 0)
(-0.00690324 0.499765 0)
(-0.0170376 0.467675 0)
(-0.0303892 0.429015 0)
(-0.0409272 0.392567 0)