/*--------------------------------*- C++ -*----------------------------------*\
| =========                 |                                                 |
| \\      /  F ield         | OpenFOAM: The Open Source CFD Toolbox           |
|  \\    /   O peration     | Version:  v1606+                                |
|   \\  /    A nd           | Web:      www.OpenFOAM.com                      |
|    \\/     M anipulation  |                                                 |
\*---------------------------------------------------------------------------*/
FoamFile
{
    version     2.0;
    format      ascii;
    class       volVectorField;
    location    "0.14";
    object      Ur;
}
// * * * * * * * * * * * * * * * * * * * * * * * * * * * * * * * * * * * * * //

dimensions      [0 1 -1 0 0 0 0];

internalField   nonuniform List<vector> 
6000
(
(0.0162151 -0.700587 0)
(0.019216 -0.683955 0)
(0.0398033 -0.687327 0)
(0.0574127 -0.685508 0)
(0.0675604 -0.684679 0)
(0.0726898 -0.685139 0)
(0.0730816 -0.688919 0)
(0.0688332 -0.691001 0)
(0.0617953 -0.692816 0)
(0.0526817 -0.694116 0)
(0.0425984 -0.695668 0)
(0.0327697 -0.696832 0)
(0.0232603 -0.697966 0)
(0.0135656 -0.698793 0)
(0.00367398 -0.699208 0)
(-0.00588106 -0.699104 0)
(-0.0150361 -0.698749 0)
(-0.0241776 -0.697899 0)
(-0.0334696 -0.696829 0)
(-0.0430934 -0.695885 0)
(-0.0531642 -0.694724 0)
(-0.0624108 -0.694125 0)
(-0.0691955 -0.692389 0)
(-0.0730146 -0.689243 0)
(-0.0725797 -0.686172 0)
(-0.0671194 -0.684533 0)
(-0.0567328 -0.685268 0)
(-0.0389793 -0.687201 0)
(-0.0172984 -0.685183 0)
(-0.0148292 -0.703041 0)
(0.0339946 -1.13458 0)
(0.0474582 -1.06924 0)
(0.044208 -1.07757 0)
(0.0646753 -1.06716 0)
(0.0707885 -1.06202 0)
(0.0708212 -1.06011 0)
(0.0688479 -1.06427 0)
(0.0653895 -1.06586 0)
(0.0587118 -1.06937 0)
(0.0500086 -1.07117 0)
(0.040046 -1.07348 0)
(0.0306678 -1.07532 0)
(0.0216401 -1.07657 0)
(0.0128568 -1.0776 0)
(0.00402403 -1.07792 0)
(-0.00490693 -1.07791 0)
(-0.0137936 -1.07729 0)
(-0.0226128 -1.07614 0)
(-0.031735 -1.07502 0)
(-0.0413054 -1.07343 0)
(-0.0516637 -1.07181 0)
(-0.060049 -1.07101 0)
(-0.0648422 -1.06804 0)
(-0.0683678 -1.06425 0)
(-0.0701856 -1.06232 0)
(-0.0691796 -1.06211 0)
(-0.0641221 -1.06684 0)
(-0.0451156 -1.07802 0)
(-0.048241 -1.07251 0)
(-0.033832 -1.13896 0)
(0.0382685 -1.07379 0)
(0.0525189 -0.940435 0)
(0.0473356 -0.996329 0)
(0.0625002 -0.974498 0)
(0.0658909 -0.962228 0)
(0.0633616 -0.954574 0)
(0.0601386 -0.959532 0)
(0.0553796 -0.957065 0)
(0.0500385 -0.961622 0)
(0.0455381 -0.963499 0)
(0.0386605 -0.969937 0)
(0.0299316 -0.97487 0)
(0.0212503 -0.97878 0)
(0.0128463 -0.981142 0)
(0.00440747 -0.982409 0)
(-0.0041047 -0.982435 0)
(-0.0130743 -0.981051 0)
(-0.0221881 -0.97847 0)
(-0.0312067 -0.974576 0)
(-0.0403497 -0.969553 0)
(-0.0471886 -0.963303 0)
(-0.0510668 -0.963395 0)
(-0.0549887 -0.960415 0)
(-0.0597339 -0.957521 0)
(-0.0633124 -0.958959 0)
(-0.0653947 -0.961811 0)
(-0.0637213 -0.972855 0)
(-0.0499668 -0.994891 0)
(-0.0552164 -0.944664 0)
(-0.0394479 -1.07613 0)
(0.0017554 -1.12123 0)
(0.0225954 -0.949533 0)
(0.0454182 -1.01372 0)
(0.0466356 -0.990287 0)
(0.046611 -0.972807 0)
(0.0451533 -0.964574 0)
(0.0427892 -0.969271 0)
(0.0385595 -0.964416 0)
(0.0355913 -0.970037 0)
(0.0336194 -0.970414 0)
(0.0296808 -0.970229 0)
(0.023334 -0.972803 0)
(0.0168705 -0.976091 0)
(0.0103573 -0.978071 0)
(0.00374853 -0.979104 0)
(-0.0030771 -0.979267 0)
(-0.0102095 -0.977409 0)
(-0.0173335 -0.975485 0)
(-0.0241154 -0.972531 0)
(-0.0304934 -0.969923 0)
(-0.0339169 -0.971529 0)
(-0.0353963 -0.972402 0)
(-0.0389376 -0.9684 0)
(-0.0429374 -0.96649 0)
(-0.0462587 -0.96836 0)
(-0.0497618 -0.970566 0)
(-0.0514713 -0.98683 0)
(-0.0506061 -1.01231 0)
(-0.0273632 -0.953839 0)
(-0.00468716 -1.12744 0)
(-0.011248 -0.998297 0)
(0.0161004 -0.920938 0)
(0.048291 -0.924853 0)
(0.036595 -0.902521 0)
(0.0247786 -0.894729 0)
(0.0165226 -0.900721 0)
(0.00995629 -0.913591 0)
(0.00620139 -0.920726 0)
(0.00538851 -0.933746 0)
(0.00424261 -0.940221 0)
(0.00417816 -0.943532 0)
(0.00437528 -0.949669 0)
(0.00391398 -0.955445 0)
(0.00271511 -0.959059 0)
(0.00122341 -0.960968 0)
(-0.00067246 -0.960891 0)
(-0.00238751 -0.958555 0)
(-0.00349007 -0.954945 0)
(-0.00382782 -0.949416 0)
(-0.0032274 -0.943439 0)
(-0.00305456 -0.940751 0)
(-0.00460614 -0.934788 0)
(-0.00711288 -0.922141 0)
(-0.0111018 -0.911521 0)
(-0.01873 -0.900665 0)
(-0.0292656 -0.891113 0)
(-0.041883 -0.89836 0)
(-0.0543442 -0.925014 0)
(-0.0210998 -0.924473 0)
(0.00924442 -1.00662 0)
(0.0222067 -0.941606 0)
(0.0617851 -0.878242 0)
(0.074131 -0.829218 0)
(0.0499886 -0.788521 0)
(0.0202659 -0.78013 0)
(-0.00220695 -0.787361 0)
(-0.0164668 -0.803493 0)
(-0.0210199 -0.820005 0)
(-0.0207109 -0.837 0)
(-0.0203896 -0.850192 0)
(-0.0173761 -0.859416 0)
(-0.0126639 -0.86795 0)
(-0.0084505 -0.873521 0)
(-0.00477605 -0.876754 0)
(-0.00141088 -0.878099 0)
(0.00176029 -0.877816 0)
(0.00532948 -0.876381 0)
(0.00934377 -0.873274 0)
(0.0138158 -0.867874 0)
(0.0187153 -0.859505 0)
(0.0216426 -0.850399 0)
(0.0214906 -0.837362 0)
(0.0206359 -0.820343 0)
(0.0156876 -0.802157 0)
(0.00083292 -0.785936 0)
(-0.0226153 -0.776591 0)
(-0.0526251 -0.783432 0)
(-0.0783943 -0.827659 0)
(-0.066385 -0.884383 0)
(-0.0239087 -0.950928 0)
(0.0584109 -0.947222 0)
(0.118302 -0.846616 0)
(0.105522 -0.753689 0)
(0.0678197 -0.695167 0)
(0.0250668 -0.689642 0)
(-0.00910899 -0.707265 0)
(-0.0311035 -0.73407 0)
(-0.040424 -0.760151 0)
(-0.0409202 -0.776282 0)
(-0.0383765 -0.791194 0)
(-0.0325012 -0.804284 0)
(-0.0245672 -0.815318 0)
(-0.0171322 -0.822513 0)
(-0.0100538 -0.826612 0)
(-0.00322245 -0.828088 0)
(0.00360116 -0.828043 0)
(0.0107058 -0.82647 0)
(0.0180326 -0.822394 0)
(0.0256426 -0.815325 0)
(0.0336211 -0.804425 0)
(0.0394453 -0.791445 0)
(0.0418268 -0.776472 0)
(0.0407786 -0.759786 0)
(0.031187 -0.732822 0)
(0.00894572 -0.705234 0)
(-0.0255187 -0.685893 0)
(-0.0682701 -0.689395 0)
(-0.107015 -0.750432 0)
(-0.121639 -0.852004 0)
(-0.0604747 -0.958629 0)
(0.0871413 -0.980928 0)
(0.147208 -0.796793 0)
(0.110753 -0.656832 0)
(0.073308 -0.592167 0)
(0.0365063 -0.591343 0)
(0.00454389 -0.617932 0)
(-0.0214798 -0.656592 0)
(-0.0398665 -0.695993 0)
(-0.0490022 -0.723386 0)
(-0.0503983 -0.745436 0)
(-0.046095 -0.764486 0)
(-0.037088 -0.775912 0)
(-0.026333 -0.783835 0)
(-0.0154877 -0.788515 0)
(-0.00494259 -0.790313 0)
(0.00551342 -0.790297 0)
(0.0161458 -0.788457 0)
(0.0271367 -0.783814 0)
(0.0379967 -0.775975 0)
(0.0470311 -0.764572 0)
(0.051344 -0.74555 0)
(0.0498273 -0.72324 0)
(0.0403665 -0.69518 0)
(0.0218784 -0.65531 0)
(-0.0041739 -0.615823 0)
(-0.0360886 -0.58788 0)
(-0.0725305 -0.586617 0)
(-0.11004 -0.652185 0)
(-0.147967 -0.801239 0)
(-0.0883402 -0.993178 0)
(0.0850026 -1.03322 0)
(0.119581 -0.718468 0)
(0.0812458 -0.56549 0)
(0.0614047 -0.511145 0)
(0.0450341 -0.514393 0)
(0.0289093 -0.538352 0)
(0.0110788 -0.576958 0)
(-0.00799554 -0.618656 0)
(-0.02459 -0.654757 0)
(-0.0349907 -0.684654 0)
(-0.0394507 -0.71122 0)
(-0.0371503 -0.73035 0)
(-0.0289995 -0.741506 0)
(-0.0178309 -0.747424 0)
(-0.00581409 -0.749761 0)
(0.0063961 -0.749714 0)
(0.0184301 -0.747377 0)
(0.0296669 -0.74152 0)
(0.0378271 -0.730335 0)
(0.0401102 -0.711236 0)
(0.0356482 -0.684679 0)
(0.025126 -0.654404 0)
(0.00839997 -0.617942 0)
(-0.0106444 -0.575783 0)
(-0.0283378 -0.536533 0)
(-0.0442856 -0.511431 0)
(-0.0601683 -0.506514 0)
(-0.0791976 -0.560971 0)
(-0.117799 -0.72181 0)
(-0.0846515 -1.04449 0)
(0.0376805 -1.0412 0)
(0.0448791 -0.635945 0)
(0.0334725 -0.499629 0)
(0.0382988 -0.459783 0)
(0.0442028 -0.464582 0)
(0.0464417 -0.482916 0)
(0.0429364 -0.513233 0)
(0.0333063 -0.547822 0)
(0.0199615 -0.581857 0)
(0.00670601 -0.614569 0)
(-0.00441774 -0.645734 0)
(-0.011578 -0.672708 0)
(-0.0128992 -0.690392 0)
(-0.0093392 -0.699949 0)
(-0.00322534 -0.70383 0)
(0.00365627 -0.703793 0)
(0.00975656 -0.699907 0)
(0.0132945 -0.690413 0)
(0.0119244 -0.672652 0)
(0.00472304 -0.645762 0)
(-0.00642549 -0.614565 0)
(-0.0196949 -0.581476 0)
(-0.0329597 -0.547143 0)
(-0.0424153 -0.512332 0)
(-0.0456799 -0.481444 0)
(-0.0431302 -0.462095 0)
(-0.0366373 -0.45601 0)
(-0.0306704 -0.495937 0)
(-0.0414622 -0.638713 0)
(-0.0358646 -1.04949 0)
(-0.0158344 -0.96976 0)
(-0.0282387 -0.585064 0)
(-0.013125 -0.46938 0)
(0.0138382 -0.439002 0)
(0.0369447 -0.441828 0)
(0.0534261 -0.453412 0)
(0.0622547 -0.473436 0)
(0.0631077 -0.49753 0)
(0.0576474 -0.523276 0)
(0.0483879 -0.550585 0)
(0.0370953 -0.578729 0)
(0.0252315 -0.605279 0)
(0.0148097 -0.626363 0)
(0.0072888 -0.639177 0)
(0.00221205 -0.644774 0)
(-0.00201273 -0.644709 0)
(-0.00714754 -0.639058 0)
(-0.014748 -0.626309 0)
(-0.0252069 -0.605213 0)
(-0.0370685 -0.578784 0)
(-0.048352 -0.550641 0)
(-0.0575144 -0.523071 0)
(-0.0627497 -0.497115 0)
(-0.0616319 -0.472788 0)
(-0.0525083 -0.452248 0)
(-0.0356092 -0.439827 0)
(-0.011779 -0.436043 0)
(0.0163462 -0.466692 0)
(0.0318765 -0.587316 0)
(0.0177049 -0.974089 0)
(-0.0372155 -0.871378 0)
(-0.067194 -0.560919 0)
(-0.0440262 -0.47314 0)
(-0.00418001 -0.445955 0)
(0.0284503 -0.444247 0)
(0.0531394 -0.448976 0)
(0.0697507 -0.459351 0)
(0.0777842 -0.472423 0)
(0.0786457 -0.487389 0)
(0.0739971 -0.504782 0)
(0.0648685 -0.524348 0)
(0.0521775 -0.544279 0)
(0.0372665 -0.561538 0)
(0.0219241 -0.57339 0)
(0.00716982 -0.578996 0)
(-0.00726255 -0.578902 0)
(-0.0220518 -0.573234 0)
(-0.0374432 -0.56147 0)
(-0.052347 -0.544267 0)
(-0.0649775 -0.524452 0)
(-0.0740178 -0.504861 0)
(-0.0784739 -0.487227 0)
(-0.0773147 -0.47198 0)
(-0.0689863 -0.458563 0)
(-0.0520917 -0.447714 0)
(-0.0270001 -0.442398 0)
(0.00631773 -0.443573 0)
(0.0470876 -0.471189 0)
(0.0700248 -0.562064 0)
(0.0383253 -0.872939 0)
(-0.0358988 -0.798885 0)
(-0.0717911 -0.557762 0)
(-0.052711 -0.498119 0)
(-0.0122217 -0.4695 0)
(0.0211662 -0.461231 0)
(0.0476856 -0.461222 0)
(0.0672913 -0.465829 0)
(0.0794377 -0.472798 0)
(0.0843787 -0.48098 0)
(0.0828797 -0.490103 0)
(0.0757297 -0.500164 0)
(0.0637123 -0.510525 0)
(0.0477814 -0.519859 0)
(0.029322 -0.526685 0)
(0.00975495 -0.529984 0)
(-0.0100544 -0.529903 0)
(-0.0295854 -0.526549 0)
(-0.0480006 -0.519764 0)
(-0.0638457 -0.510452 0)
(-0.0757194 -0.500054 0)
(-0.0826736 -0.489817 0)
(-0.0839086 -0.480382 0)
(-0.0786879 -0.471882 0)
(-0.0663273 -0.464572 0)
(-0.0465453 -0.459615 0)
(-0.0197629 -0.459279 0)
(0.0140783 -0.467373 0)
(0.0550927 -0.49646 0)
(0.0737309 -0.557753 0)
(0.0365578 -0.798894 0)
(-0.0252774 -0.757136 0)
(-0.053766 -0.562799 0)
(-0.0424449 -0.523359 0)
(-0.0123188 -0.494565 0)
(0.014216 -0.482101 0)
(0.0365462 -0.480181 0)
(0.0547801 -0.483788 0)
(0.0685071 -0.490154 0)
(0.0771075 -0.497291 0)
(0.0798857 -0.504104 0)
(0.0762531 -0.510294 0)
(0.0662569 -0.515677 0)
(0.0508656 -0.519969 0)
(0.031731 -0.522905 0)
(0.0106659 -0.524177 0)
(-0.010892 -0.524057 0)
(-0.0318597 -0.522607 0)
(-0.0508527 -0.519536 0)
(-0.0660827 -0.515113 0)
(-0.0759145 -0.509559 0)
(-0.0793979 -0.503164 0)
(-0.0764675 -0.496156 0)
(-0.0677086 -0.488877 0)
(-0.053839 -0.482358 0)
(-0.0354529 -0.478573 0)
(-0.0129393 -0.480272 0)
(0.0137949 -0.492668 0)
(0.0441017 -0.521817 0)
(0.0551515 -0.562111 0)
(0.0258188 -0.756122 0)
(-0.0128975 -0.738104 0)
(-0.0300877 -0.565306 0)
(-0.0279694 -0.536733 0)
(-0.012179 -0.513361 0)
(0.00559931 -0.502505 0)
(0.0229862 -0.501451 0)
(0.0392277 -0.505539 0)
(0.053513 -0.51149 0)
(0.0642197 -0.517615 0)
(0.0697249 -0.523212 0)
(0.0689596 -0.528423 0)
(0.0616708 -0.533171 0)
(0.0485284 -0.536874 0)
(0.0309175 -0.539557 0)
(0.0106474 -0.540761 0)
(-0.0104273 -0.540577 0)
(-0.0306008 -0.539045 0)
(-0.04808 -0.53608 0)
(-0.061112 -0.532145 0)
(-0.0683424 -0.527199 0)
(-0.0691076 -0.521833 0)
(-0.0636309 -0.51619 0)
(-0.0529276 -0.510117 0)
(-0.0385658 -0.504225 0)
(-0.022156 -0.500141 0)
(-0.00457147 -0.501097 0)
(0.0133464 -0.511863 0)
(0.0291555 -0.535342 0)
(0.0311261 -0.564434 0)
(0.0133643 -0.736362 0)
(-0.00596416 -0.730744 0)
(-0.0181518 -0.562955 0)
(-0.0227673 -0.540484 0)
(-0.0156621 -0.526881 0)
(-0.00316365 -0.521209 0)
(0.012379 -0.522349 0)
(0.029326 -0.526462 0)
(0.0454259 -0.529717 0)
(0.0575261 -0.531433 0)
(0.0633867 -0.53234 0)
(0.0626259 -0.533673 0)
(0.0556622 -0.535884 0)
(0.0436145 -0.538541 0)
(0.027789 -0.540893 0)
(0.00977254 -0.542106 0)
(-0.00894574 -0.54192 0)
(-0.026903 -0.540353 0)
(-0.0426523 -0.537615 0)
(-0.0546757 -0.53474 0)
(-0.061706 -0.532273 0)
(-0.0625977 -0.530722 0)
(-0.0569351 -0.529774 0)
(-0.0450643 -0.528212 0)
(-0.0290602 -0.525216 0)
(-0.0120332 -0.521315 0)
(0.00370787 -0.520232 0)
(0.0164297 -0.525853 0)
(0.0236286 -0.539382 0)
(0.0189132 -0.562093 0)
(0.00630145 -0.728491 0)
(-0.00748601 -0.720077 0)
(-0.0214539 -0.558756 0)
(-0.0273027 -0.542041 0)
(-0.0217069 -0.538313 0)
(-0.00954994 -0.538804 0)
(0.00809659 -0.543068 0)
(0.0287986 -0.546847 0)
(0.0475934 -0.545573 0)
(0.0601737 -0.54026 0)
(0.0647702 -0.534632 0)
(0.0620117 -0.530783 0)
(0.0535164 -0.529083 0)
(0.041002 -0.529559 0)
(0.0257701 -0.530299 0)
(0.00916558 -0.53093 0)
(-0.00786847 -0.530784 0)
(-0.0244078 -0.529883 0)
(-0.0395664 -0.528886 0)
(-0.0520295 -0.527993 0)
(-0.0605976 -0.52922 0)
(-0.0635758 -0.532858 0)
(-0.059395 -0.538293 0)
(-0.0473329 -0.54372 0)
(-0.0289198 -0.545477 0)
(-0.00832657 -0.542162 0)
(0.00942186 -0.538111 0)
(0.021795 -0.537663 0)
(0.0276512 -0.541285 0)
(0.021944 -0.558023 0)
(0.0077357 -0.717251 0)
(-0.0148591 -0.698164 0)
(-0.0338534 -0.557857 0)
(-0.0356004 -0.5463 0)
(-0.0271203 -0.549872 0)
(-0.0121257 -0.55714 0)
(0.010456 -0.565641 0)
(0.0369597 -0.566798 0)
(0.058947 -0.557382 0)
(0.0700482 -0.543682 0)
(0.0705973 -0.531953 0)
(0.0638175 -0.524896 0)
(0.052682 -0.522028 0)
(0.0389803 -0.52154 0)
(0.0240249 -0.522284 0)
(0.00856913 -0.523004 0)
(-0.00700035 -0.522921 0)
(-0.0223573 -0.521989 0)
(-0.0371718 -0.521065 0)
(-0.0507032 -0.521179 0)
(-0.0618463 -0.523728 0)
(-0.0687564 -0.53019 0)
(-0.0687253 -0.541434 0)
(-0.0585016 -0.554987 0)
(-0.0374046 -0.56496 0)
(-0.0112407 -0.564696 0)
(0.0113612 -0.556598 0)
(0.0264134 -0.549428 0)
(0.0351088 -0.545825 0)
(0.0337473 -0.557353 0)
(0.0149105 -0.694763 0)
(-0.0212618 -0.667586 0)
(-0.043612 -0.561771 0)
(-0.0414893 -0.553629 0)
(-0.0309764 -0.5622 0)
(-0.0107566 -0.578506 0)
(0.0216596 -0.589903 0)
(0.0565387 -0.582574 0)
(0.0785709 -0.560323 0)
(0.082893 -0.538668 0)
(0.0760743 -0.524483 0)
(0.0640724 -0.517956 0)
(0.0500363 -0.516536 0)
(0.035597 -0.517653 0)
(0.0214684 -0.51988 0)
(0.00764523 -0.521346 0)
(-0.00601373 -0.521333 0)
(-0.0197045 -0.519793 0)
(-0.0335962 -0.517392 0)
(-0.0477297 -0.516115 0)
(-0.0615535 -0.517255 0)
(-0.0735034 -0.52312 0)
(-0.0806679 -0.536474 0)
(-0.077328 -0.557403 0)
(-0.0569404 -0.579829 0)
(-0.0230175 -0.58878 0)
(0.00942492 -0.578096 0)
(0.0297284 -0.561929 0)
(0.0401449 -0.5535 0)
(0.0424693 -0.561349 0)
(0.020828 -0.664102 0)
(-0.0215178 -0.634592 0)
(-0.043689 -0.566429 0)
(-0.0442752 -0.563733 0)
(-0.0332681 -0.576843 0)
(0.000315989 -0.605419 0)
(0.0490954 -0.609739 0)
(0.0878756 -0.584627 0)
(0.0993233 -0.5492 0)
(0.0905634 -0.524618 0)
(0.0750734 -0.514221 0)
(0.0584164 -0.512312 0)
(0.0431611 -0.51475 0)
(0.0297249 -0.519131 0)
(0.0176283 -0.5231 0)
(0.00629065 -0.525467 0)
(-0.00476259 -0.525519 0)
(-0.0159649 -0.523266 0)
(-0.0277987 -0.519326 0)
(-0.0408477 -0.514857 0)
(-0.0556359 -0.512092 0)
(-0.0718975 -0.513635 0)
(-0.0873411 -0.523185 0)
(-0.0967058 -0.546378 0)
(-0.0873219 -0.580861 0)
(-0.0507752 -0.607945 0)
(-0.00230765 -0.605325 0)
(0.0316196 -0.57688 0)
(0.0426264 -0.56376 0)
(0.0419148 -0.566184 0)
(0.0205662 -0.631676 0)
(-0.0167891 -0.603553 0)
(-0.039523 -0.570138 0)
(-0.0436066 -0.574517 0)
(-0.0167201 -0.603908 0)
(0.0360293 -0.633435 0)
(0.0889048 -0.611432 0)
(0.115445 -0.563661 0)
(0.105893 -0.524403 0)
(0.0839707 -0.508734 0)
(0.0627831 -0.507271 0)
(0.0457385 -0.512144 0)
(0.0326298 -0.519413 0)
(0.0221408 -0.526629 0)
(0.0131248 -0.532268 0)
(0.00476601 -0.53539 0)
(-0.00340035 -0.535488 0)
(-0.0116638 -0.532549 0)
(-0.0204723 -0.52704 0)
(-0.030626 -0.519915 0)
(-0.0432536 -0.512644 0)
(-0.0596421 -0.507569 0)
(-0.0802128 -0.508523 0)
(-0.102082 -0.522854 0)
(-0.113067 -0.559773 0)
(-0.0901474 -0.608036 0)
(-0.038522 -0.633079 0)
(0.0152331 -0.604352 0)
(0.0420607 -0.574771 0)
(0.0378797 -0.570215 0)
(0.0159265 -0.601618 0)
(-0.013592 -0.576017 0)
(-0.0361751 -0.57273 0)
(-0.0182991 -0.594056 0)
(0.0349173 -0.644329 0)
(0.0865283 -0.632981 0)
(0.12062 -0.588702 0)
(0.114884 -0.528983 0)
(0.0866272 -0.503363 0)
(0.0608409 -0.502012 0)
(0.0426239 -0.509345 0)
(0.0304132 -0.519178 0)
(0.0217745 -0.529203 0)
(0.0149842 -0.538072 0)
(0.00909319 -0.544704 0)
(0.00345565 -0.548355 0)
(-0.0021947 -0.548477 0)
(-0.00779702 -0.545054 0)
(-0.0135735 -0.538585 0)
(-0.0201645 -0.529851 0)
(-0.0285147 -0.519913 0)
(-0.0402611 -0.510135 0)
(-0.0577629 -0.502674 0)
(-0.0828285 -0.503294 0)
(-0.111238 -0.526531 0)
(-0.119808 -0.583865 0)
(-0.0880887 -0.631494 0)
(-0.0362446 -0.644556 0)
(0.017126 -0.594784 0)
(0.0350712 -0.57314 0)
(0.0130525 -0.57523 0)
(-0.016184 -0.551728 0)
(-0.0127924 -0.57691 0)
(0.0344169 -0.632602 0)
(0.0863056 -0.641582 0)
(0.123718 -0.606353 0)
(0.119055 -0.554032 0)
(0.0821147 -0.50627 0)
(0.0522978 -0.499035 0)
(0.0345214 -0.506619 0)
(0.0242662 -0.517719 0)
(0.0179888 -0.529474 0)
(0.0136344 -0.540733 0)
(0.00986677 -0.550615 0)
(0.0061221 -0.557885 0)
(0.00242556 -0.561731 0)
(-0.00121364 -0.561879 0)
(-0.00487294 -0.558297 0)
(-0.00857126 -0.55125 0)
(-0.0122947 -0.541486 0)
(-0.0165373 -0.530267 0)
(-0.0226441 -0.518576 0)
(-0.032606 -0.507457 0)
(-0.0497693 -0.499589 0)
(-0.0787973 -0.505136 0)
(-0.11584 -0.549154 0)
(-0.123536 -0.603979 0)
(-0.0877708 -0.640517 0)
(-0.0352966 -0.632973 0)
(0.0121875 -0.577734 0)
(0.0160129 -0.551901 0)
(0.00165284 -0.533706 0)
(0.0267712 -0.612965 0)
(0.0732741 -0.633533 0)
(0.116938 -0.61154 0)
(0.126251 -0.573999 0)
(0.0844988 -0.523693 0)
(0.0424951 -0.500913 0)
(0.0236528 -0.504461 0)
(0.0156291 -0.515112 0)
(0.0120348 -0.527264 0)
(0.00999821 -0.539779 0)
(0.00816888 -0.55144 0)
(0.00631452 -0.561481 0)
(0.00417676 -0.568711 0)
(0.00180414 -0.572382 0)
(-0.000615805 -0.572558 0)
(-0.00295812 -0.569212 0)
(-0.00506994 -0.562263 0)
(-0.00690179 -0.552334 0)
(-0.00872893 -0.540707 0)
(-0.0107991 -0.528167 0)
(-0.0143856 -0.515939 0)
(-0.0222332 -0.505068 0)
(-0.0402465 -0.500538 0)
(-0.0805452 -0.520234 0)
(-0.123963 -0.570466 0)
(-0.117419 -0.609417 0)
(-0.0738177 -0.632276 0)
(-0.0273443 -0.613699 0)
(-0.00190445 -0.534463 0)
(0.0184906 -0.532386 0)
(0.062349 -0.626779 0)
(0.104052 -0.608804 0)
(0.122619 -0.582177 0)
(0.089779 -0.537389 0)
(0.0374805 -0.505836 0)
(0.0122497 -0.502764 0)
(0.0052165 -0.511788 0)
(0.00416906 -0.523607 0)
(0.00475436 -0.536125 0)
(0.0054683 -0.548352 0)
(0.00581171 -0.55953 0)
(0.00553116 -0.568307 0)
(0.00431369 -0.573784 0)
(0.00200557 -0.576081 0)
(-0.000800615 -0.576259 0)
(-0.0031246 -0.574326 0)
(-0.00434317 -0.569185 0)
(-0.00460106 -0.560592 0)
(-0.0042798 -0.549457 0)
(-0.00364264 -0.537127 0)
(-0.00317472 -0.524497 0)
(-0.00429294 -0.51247 0)
(-0.0110271 -0.502909 0)
(-0.0346583 -0.50431 0)
(-0.0859167 -0.533565 0)
(-0.121304 -0.579402 0)
(-0.104575 -0.606529 0)
(-0.0627422 -0.625706 0)
(-0.018729 -0.533517 0)
(0.0168752 -0.556675 0)
(0.0709199 -0.596149 0)
(0.115466 -0.579303 0)
(0.0929813 -0.546765 0)
(0.0355672 -0.510929 0)
(0.00109337 -0.501193 0)
(-0.00670165 -0.508259 0)
(-0.00587739 -0.519722 0)
(-0.00239136 -0.531872 0)
(0.00170426 -0.544016 0)
(0.00563482 -0.555032 0)
(0.00890003 -0.564049 0)
(0.0103874 -0.568915 0)
(0.0087424 -0.569779 0)
(0.00385352 -0.569261 0)
(-0.00247291 -0.56936 0)
(-0.00750164 -0.570158 0)
(-0.00929394 -0.569686 0)
(-0.00784536 -0.56519 0)
(-0.0045602 -0.556277 0)
(-0.000663006 -0.545138 0)
(0.00331409 -0.53283 0)
(0.00664197 -0.520462 0)
(0.00744678 -0.508705 0)
(0.000258461 -0.500855 0)
(-0.0318889 -0.508596 0)
(-0.0893131 -0.543965 0)
(-0.115173 -0.576609 0)
(-0.0710819 -0.593822 0)
(-0.0165313 -0.558377 0)
(0.0231181 -0.584221 0)
(0.0749455 -0.570244 0)
(0.0859881 -0.545376 0)
(0.0343633 -0.516375 0)
(-0.00926399 -0.501098 0)
(-0.0200714 -0.504835 0)
(-0.0181662 -0.516113 0)
(-0.0123111 -0.528549 0)
(-0.00454133 -0.540899 0)
(0.00441135 -0.552065 0)
(0.0137289 -0.560803 0)
(0.0214898 -0.564367 0)
(0.0242322 -0.56077 0)
(0.01937 -0.553518 0)
(0.00794253 -0.548499 0)
(-0.00606769 -0.54844 0)
(-0.0178435 -0.553444 0)
(-0.0231918 -0.561025 0)
(-0.0207477 -0.565245 0)
(-0.0129706 -0.562106 0)
(-0.0035429 -0.553321 0)
(0.00540171 -0.541915 0)
(0.0130369 -0.529305 0)
(0.0187364 -0.516666 0)
(0.0207245 -0.505052 0)
(0.0112061 -0.500318 0)
(-0.0304576 -0.514772 0)
(-0.0829619 -0.542826 0)
(-0.0747828 -0.568335 0)
(-0.0235413 -0.585157 0)
(0.0342509 -0.594963 0)
(0.0658566 -0.557002 0)
(0.0299861 -0.519046 0)
(-0.0169771 -0.502661 0)
(-0.033361 -0.502034 0)
(-0.0326273 -0.51246 0)
(-0.0257587 -0.525667 0)
(-0.0151093 -0.539491 0)
(-0.000832228 -0.552492 0)
(0.0166292 -0.562377 0)
(0.0345979 -0.566134 0)
(0.0471406 -0.558699 0)
(0.0476601 -0.54261 0)
(0.0350343 -0.526316 0)
(0.0136241 -0.516822 0)
(-0.0109141 -0.516557 0)
(-0.0328574 -0.525609 0)
(-0.0463691 -0.541942 0)
(-0.0467361 -0.558677 0)
(-0.034509 -0.567173 0)
(-0.0162613 -0.56379 0)
(0.00146259 -0.553623 0)
(0.0157241 -0.540275 0)
(0.0261257 -0.526181 0)
(0.0329731 -0.512612 0)
(0.0341146 -0.501996 0)
(0.019095 -0.501988 0)
(-0.0264974 -0.517268 0)
(-0.0644569 -0.555009 0)
(-0.0347595 -0.594624 0)
(0.0310415 -0.593146 0)
(0.0285315 -0.535842 0)
(-0.0227533 -0.504044 0)
(-0.0449621 -0.499778 0)
(-0.0471493 -0.507372 0)
(-0.0418161 -0.52119 0)
(-0.0309684 -0.537553 0)
(-0.0127962 -0.554571 0)
(0.013331 -0.568668 0)
(0.0445399 -0.57594 0)
(0.0718691 -0.567751 0)
(0.0833668 -0.544252 0)
(0.074096 -0.516338 0)
(0.0497215 -0.49499 0)
(0.018491 -0.484108 0)
(-0.0148909 -0.483674 0)
(-0.0466012 -0.493728 0)
(-0.0719637 -0.514632 0)
(-0.0827303 -0.542736 0)
(-0.0725167 -0.567624 0)
(-0.04528 -0.57732 0)
(-0.0134157 -0.570055 0)
(0.0130821 -0.555427 0)
(0.0312883 -0.538081 0)
(0.0421058 -0.521335 0)
(0.0473849 -0.507422 0)
(0.0455856 -0.499481 0)
(0.0250177 -0.502875 0)
(-0.0257203 -0.533362 0)
(-0.0300267 -0.591452 0)
(0.00236658 -0.587609 0)
(-0.0219241 -0.516848 0)
(-0.0532792 -0.498685 0)
(-0.0594234 -0.503058 0)
(-0.0580656 -0.5135 0)
(-0.0500788 -0.53082 0)
(-0.0319033 -0.5532 0)
(0.00130915 -0.575268 0)
(0.0475144 -0.589725 0)
(0.0934048 -0.5859 0)
(0.119366 -0.557153 0)
(0.116832 -0.518369 0)
(0.0927113 -0.48585 0)
(0.0584747 -0.467801 0)
(0.0210454 -0.460094 0)
(-0.0167394 -0.459721 0)
(-0.0543829 -0.466566 0)
(-0.0894283 -0.483677 0)
(-0.114908 -0.515317 0)
(-0.11959 -0.554895 0)
(-0.0954852 -0.586118 0)
(-0.0492507 -0.59119 0)
(-0.00212862 -0.576319 0)
(0.0316867 -0.554219 0)
(0.050304 -0.531363 0)
(0.0582793 -0.513596 0)
(0.0595187 -0.503027 0)
(0.0538428 -0.49793 0)
(0.0244886 -0.515187 0)
(-0.000307373 -0.585604 0)
(-0.0240995 -0.57942 0)
(-0.0552773 -0.512185 0)
(-0.0653222 -0.502484 0)
(-0.0690054 -0.507638 0)
(-0.0672177 -0.519529 0)
(-0.0523176 -0.543053 0)
(-0.0160723 -0.575814 0)
(0.042275 -0.599839 0)
(0.108315 -0.605497 0)
(0.150835 -0.574987 0)
(0.156474 -0.526009 0)
(0.133238 -0.483427 0)
(0.0957744 -0.459935 0)
(0.0566863 -0.45209 0)
(0.019881 -0.450226 0)
(-0.0155553 -0.45012 0)
(-0.0521127 -0.451592 0)
(-0.0910912 -0.458394 0)
(-0.129354 -0.480171 0)
(-0.154578 -0.521974 0)
(-0.151639 -0.572395 0)
(-0.111791 -0.606464 0)
(-0.0462032 -0.601168 0)
(0.0140123 -0.578428 0)
(0.051987 -0.544322 0)
(0.0675505 -0.519908 0)
(0.069291 -0.507843 0)
(0.0651982 -0.50227 0)
(0.0554861 -0.51118 0)
(0.0244614 -0.57754 0)
(-0.0258791 -0.562041 0)
(-0.056516 -0.512234 0)
(-0.0664537 -0.506465 0)
(-0.0738271 -0.510809 0)
(-0.0656885 -0.527031 0)
(-0.0236082 -0.571231 0)
(0.0431961 -0.609513 0)
(0.110071 -0.620404 0)
(0.16446 -0.59261 0)
(0.184107 -0.534399 0)
(0.162484 -0.481009 0)
(0.121154 -0.454093 0)
(0.0800664 -0.448538 0)
(0.0453534 -0.451305 0)
(0.0157634 -0.454541 0)
(-0.0122233 -0.454697 0)
(-0.0412938 -0.451655 0)
(-0.0750117 -0.448483 0)
(-0.115572 -0.452764 0)
(-0.157887 -0.477697 0)
(-0.182482 -0.530268 0)
(-0.167133 -0.589171 0)
(-0.114353 -0.619929 0)
(-0.0467369 -0.613183 0)
(0.0217592 -0.574203 0)
(0.0657904 -0.527998 0)
(0.0743947 -0.511169 0)
(0.066443 -0.506452 0)
(0.0558399 -0.51163 0)
(0.0253423 -0.559652 0)
(-0.0194933 -0.532703 0)
(-0.0479812 -0.507276 0)
(-0.0660342 -0.506067 0)
(-0.066082 -0.513152 0)
(-0.0229396 -0.556758 0)
(0.0501138 -0.621493 0)
(0.114394 -0.625088 0)
(0.161948 -0.604514 0)
(0.185148 -0.552707 0)
(0.1707 -0.483427 0)
(0.129481 -0.448856 0)
(0.0866298 -0.445513 0)
(0.0556882 -0.453878 0)
(0.0324618 -0.462462 0)
(0.011581 -0.467635 0)
(-0.00900258 -0.46789 0)
(-0.0295968 -0.463202 0)
(-0.0520319 -0.4549 0)
(-0.0814535 -0.446329 0)
(-0.123553 -0.448043 0)
(-0.16653 -0.479983 0)
(-0.185397 -0.5463 0)
(-0.165897 -0.602971 0)
(-0.118576 -0.625537 0)
(-0.0537052 -0.625026 0)
(0.0216851 -0.559686 0)
(0.0665663 -0.513215 0)
(0.0665363 -0.505847 0)
(0.0477015 -0.506633 0)
(0.0191543 -0.530442 0)
(-0.0159995 -0.502798 0)
(-0.045643 -0.498723 0)
(-0.0571543 -0.502758 0)
(-0.0206797 -0.539637 0)
(0.0563245 -0.615066 0)
(0.119941 -0.630293 0)
(0.15657 -0.606548 0)
(0.179559 -0.571736 0)
(0.168552 -0.504776 0)
(0.120805 -0.4505 0)
(0.0772525 -0.443697 0)
(0.0524259 -0.45496 0)
(0.03648 -0.468403 0)
(0.0225512 -0.478845 0)
(0.00828942 -0.484319 0)
(-0.00637522 -0.484588 0)
(-0.0205854 -0.47965 0)
(-0.0342395 -0.469687 0)
(-0.0494122 -0.456493 0)
(-0.0724393 -0.444837 0)
(-0.114599 -0.448992 0)
(-0.16364 -0.497837 0)
(-0.180377 -0.568793 0)
(-0.160944 -0.604638 0)
(-0.123401 -0.629736 0)
(-0.0591922 -0.61987 0)
(0.0195642 -0.540167 0)
(0.0574739 -0.50231 0)
(0.0458643 -0.498075 0)
(0.01593 -0.50104 0)
(-0.0189616 -0.478288 0)
(-0.0410422 -0.487959 0)
(-0.015139 -0.516959 0)
(0.0567756 -0.597775 0)
(0.120451 -0.625671 0)
(0.154934 -0.607096 0)
(0.177848 -0.576788 0)
(0.166188 -0.525673 0)
(0.108289 -0.463251 0)
(0.0592926 -0.445414 0)
(0.0391146 -0.454074 0)
(0.0302395 -0.469511 0)
(0.0230937 -0.484473 0)
(0.0150328 -0.495712 0)
(0.0056872 -0.501694 0)
(-0.00415745 -0.501988 0)
(-0.0135768 -0.496588 0)
(-0.0217051 -0.485879 0)
(-0.0286441 -0.471228 0)
(-0.0367847 -0.455757 0)
(-0.0549504 -0.446151 0)
(-0.100608 -0.459125 0)
(-0.160417 -0.520123 0)
(-0.178774 -0.574585 0)
(-0.158074 -0.604641 0)
(-0.123002 -0.625879 0)
(-0.059112 -0.599386 0)
(0.0139419 -0.517182 0)
(0.0411722 -0.487614 0)
(0.0193022 -0.477009 0)
(-0.0152431 -0.450207 0)
(-0.00927901 -0.494409 0)
(0.0528471 -0.56031 0)
(0.116245 -0.608921 0)
(0.150881 -0.60006 0)
(0.174075 -0.574558 0)
(0.164559 -0.530863 0)
(0.0999469 -0.4771 0)
(0.0415174 -0.450589 0)
(0.0220491 -0.453629 0)
(0.018063 -0.468225 0)
(0.0158649 -0.48475 0)
(0.0130755 -0.500067 0)
(0.00871148 -0.51142 0)
(0.00341223 -0.517524 0)
(-0.00217318 -0.517842 0)
(-0.00758015 -0.512364 0)
(-0.0120769 -0.501578 0)
(-0.0148881 -0.486767 0)
(-0.0169194 -0.470431 0)
(-0.020185 -0.455305 0)
(-0.0365848 -0.449999 0)
(-0.0913824 -0.472276 0)
(-0.158753 -0.526452 0)
(-0.174592 -0.571847 0)
(-0.153546 -0.597503 0)
(-0.118493 -0.608346 0)
(-0.0551731 -0.561029 0)
(0.00824068 -0.49605 0)
(0.01535 -0.448908 0)
(0.00522559 -0.430382 0)
(0.0408593 -0.546272 0)
(0.0978724 -0.577639 0)
(0.137663 -0.584688 0)
(0.163923 -0.566808 0)
(0.15918 -0.528848 0)
(0.0935419 -0.482632 0)
(0.0278873 -0.456984 0)
(0.00526996 -0.454726 0)
(0.0032578 -0.466492 0)
(0.00445884 -0.481949 0)
(0.00603091 -0.498586 0)
(0.0057186 -0.513333 0)
(0.00402356 -0.523925 0)
(0.00174538 -0.52953 0)
(-0.000694979 -0.529828 0)
(-0.00313983 -0.52484 0)
(-0.00509965 -0.514888 0)
(-0.0057252 -0.500851 0)
(-0.00421199 -0.484494 0)
(-0.00202145 -0.468647 0)
(-0.00265426 -0.456247 0)
(-0.0215742 -0.455798 0)
(-0.0841639 -0.478637 0)
(-0.153829 -0.524358 0)
(-0.16461 -0.563518 0)
(-0.139751 -0.582697 0)
(-0.100147 -0.577151 0)
(-0.0428984 -0.549727 0)
(-0.00551566 -0.429285 0)
(0.0220458 -0.442277 0)
(0.078706 -0.581472 0)
(0.118138 -0.573631 0)
(0.142373 -0.559069 0)
(0.146355 -0.524234 0)
(0.0845648 -0.483281 0)
(0.0161825 -0.461753 0)
(-0.00908819 -0.457248 0)
(-0.0107636 -0.465902 0)
(-0.00759414 -0.478723 0)
(-0.00274275 -0.493578 0)
(0.000729609 -0.50901 0)
(0.0023851 -0.521402 0)
(0.00240677 -0.529394 0)
(0.00135164 -0.533027 0)
(-0.000220548 -0.533185 0)
(-0.00165287 -0.529974 0)
(-0.00218636 -0.522696 0)
(-0.000969302 -0.511131 0)
(0.00250864 -0.496402 0)
(0.00765704 -0.481827 0)
(0.012394 -0.468422 0)
(0.0129021 -0.459106 0)
(-0.00855002 -0.461626 0)
(-0.0746253 -0.480154 0)
(-0.14159 -0.519453 0)
(-0.143607 -0.555604 0)
(-0.119777 -0.572265 0)
(-0.0789316 -0.581973 0)
(-0.0220918 -0.442586 0)
(0.0254823 -0.487748 0)
(0.0869626 -0.570762 0)
(0.130608 -0.557995 0)
(0.128524 -0.522534 0)
(0.0710409 -0.482616 0)
(0.00402405 -0.464341 0)
(-0.0216343 -0.460381 0)
(-0.0232203 -0.466692 0)
(-0.0184757 -0.477091 0)
(-0.0107225 -0.489252 0)
(-0.00328925 -0.503083 0)
(0.00277083 -0.514616 0)
(0.00612174 -0.521149 0)
(0.00605709 -0.52331 0)
(0.00312453 -0.52333 0)
(-0.00128626 -0.523104 0)
(-0.00507063 -0.523006 0)
(-0.00632716 -0.521471 0)
(-0.00387983 -0.516078 0)
(0.00209139 -0.505978 0)
(0.010146 -0.493547 0)
(0.0187493 -0.481433 0)
(0.0254183 -0.470379 0)
(0.0262326 -0.463262 0)
(0.00443712 -0.465785 0)
(-0.0603878 -0.480276 0)
(-0.123369 -0.517459 0)
(-0.131472 -0.554338 0)
(-0.0880172 -0.56926 0)
(-0.0254848 -0.490011 0)
(0.0319824 -0.548524 0)
(0.0925789 -0.549162 0)
(0.108998 -0.521609 0)
(0.0538857 -0.483612 0)
(-0.00922131 -0.465835 0)
(-0.0337091 -0.462445 0)
(-0.035301 -0.468227 0)
(-0.029521 -0.477249 0)
(-0.0185464 -0.4879 0)
(-0.00580996 -0.500159 0)
(0.00667905 -0.509393 0)
(0.0161855 -0.512669 0)
(0.01964 -0.508592 0)
(0.0160772 -0.502329 0)
(0.00738075 -0.497576 0)
(-0.00379225 -0.496746 0)
(-0.0141459 -0.500423 0)
(-0.0201369 -0.506999 0)
(-0.0186452 -0.512543 0)
(-0.00981285 -0.511671 0)
(0.00345853 -0.504842 0)
(0.0176558 -0.494419 0)
(0.0303334 -0.48315 0)
(0.038241 -0.473205 0)
(0.0387103 -0.466479 0)
(0.0182927 -0.468315 0)
(-0.0421062 -0.482001 0)
(-0.10212 -0.517091 0)