/*--------------------------------*- C++ -*----------------------------------*\
| =========                 |                                                 |
| \\      /  F ield         | OpenFOAM: The Open Source CFD Toolbox           |
|  \\    /   O peration     | Version:  v1606+                                |
|   \\  /    A nd           | Web:      www.OpenFOAM.com                      |
|    \\/     M anipulation  |                                                 |
\*---------------------------------------------------------------------------*/
FoamFile
{
    version     2.0;
    format      ascii;
    class       volVectorField;
    location    "0.0003";
    object      U;
}
// * * * * * * * * * * * * * * * * * * * * * * * * * * * * * * * * * * * * * //

dimensions      [0 1 -1 0 0 0 0];

internalField   nonuniform List<vector> 
2450
(
(0.0926598 0.0925614 0)
(0.15672 0.048518 0)
(0.115044 0.0280681 0)
(0.0882265 0.0148411 0)
(0.067819 0.00878993 0)
(0.055338 0.00560766 0)
(0.0467439 0.00383333 0)
(0.0405425 0.0027771 0)
(0.0358788 0.00210634 0)
(0.0322512 0.00165477 0)
(0.0293517 0.0013357 0)
(0.0269823 0.0011014 0)
(0.0250106 0.000924036 0)
(0.0233444 0.000786477 0)
(0.0219175 0.000677673 0)
(0.0206811 0.000590206 0)
(0.0195982 0.000518931 0)
(0.0186404 0.000460179 0)
(0.0177852 0.000411269 0)
(0.0170147 0.000370201 0)
(0.0163146 0.000335455 0)
(0.015673 0.000305854 0)
(0.0150801 0.000280471 0)
(0.0145279 0.000258552 0)
(0.0140096 0.000239465 0)
(0.0135192 0.000222796 0)
(0.0130525 0.000208479 0)
(0.0126058 0.00019584 0)
(0.0121757 0.00018461 0)
(0.01176 0.000174756 0)
(0.0113571 0.00016587 0)
(0.0109657 0.000157868 0)
(0.010585 0.0001506 0)
(0.0102148 0.000143985 0)
(0.00985482 0.000137844 0)
(0.00950537 0.000132286 0)
(0.00916673 0.000127063 0)
(0.00883916 0.000122145 0)
(0.00852262 0.000117232 0)
(0.00821694 0.000112626 0)
(0.00792264 0.000108329 0)
(0.00763873 0.000103348 0)
(0.00736404 9.86648e-05 0)
(0.00709885 9.42035e-05 0)
(0.00684152 8.89e-05 0)
(0.00659028 8.37589e-05 0)
(0.006345 7.87481e-05 0)
(0.00610377 7.28431e-05 0)
(0.00586481 6.70403e-05 0)
(0.0056275 6.10628e-05 0)
(0.00539029 5.4756e-05 0)
(0.00515217 4.84269e-05 0)
(0.00491212 4.17503e-05 0)
(0.00466894 3.49972e-05 0)
(0.00442227 2.83767e-05 0)
(0.00417152 2.15479e-05 0)
(0.0039157 1.45544e-05 0)
(0.00365448 7.74771e-06 0)
(0.0033878 1.15919e-06 0)
(0.0031154 -5.12428e-06 0)
(0.00283726 -1.10827e-05 0)
(0.00255344 -1.66389e-05 0)
(0.00226413 -2.17664e-05 0)
(0.00196967 -2.64064e-05 0)
(0.00167055 -3.05217e-05 0)
(0.00136747 -3.40946e-05 0)
(0.00106142 -3.71455e-05 0)
(0.000753846 -3.97889e-05 0)
(0.000446878 -4.27359e-05 0)
(0.000147259 -4.46405e-05 0)
(0.0486173 0.156401 0)
(0.0919499 0.0916337 0)
(0.0797048 0.0560065 0)
(0.0686877 0.0334583 0)
(0.0584424 0.0215989 0)
(0.0503183 0.0147172 0)
(0.0438866 0.0105318 0)
(0.038804 0.00785778 0)
(0.0347512 0.00606854 0)
(0.031478 0.00482048 0)
(0.028797 0.00391813 0)
(0.0265699 0.00324566 0)
(0.0246952 0.00273168 0)
(0.0230978 0.00233042 0)
(0.0217211 0.00201156 0)
(0.0205224 0.00175434 0)
(0.0194683 0.00154418 0)
(0.0185328 0.00137056 0)
(0.0176953 0.00122575 0)
(0.016939 0.00110397 0)
(0.0162504 0.0010008 0)
(0.0156181 0.000912807 0)
(0.0150329 0.00083731 0)
(0.014487 0.000772154 0)
(0.0139739 0.00071559 0)
(0.0134883 0.000666266 0)
(0.0130257 0.000623306 0)
(0.012582 0.000585482 0)
(0.0121547 0.000552 0)
(0.0117413 0.000522304 0)
(0.0113403 0.000495695 0)
(0.0109505 0.000471739 0)
(0.0105712 0.00045002 0)
(0.0102021 0.000430201 0)
(0.00984318 0.000411915 0)
(0.00949464 0.000395018 0)
(0.00915664 0.000379129 0)
(0.00882937 0.000364045 0)
(0.00851314 0.000349401 0)
(0.00820807 0.000335232 0)
(0.00791339 0.000321373 0)
(0.00762909 0.000307048 0)
(0.00735492 0.000292764 0)
(0.00708911 0.000278366 0)
(0.00683109 0.000263045 0)
(0.00658015 0.000247384 0)
(0.00633409 0.000231333 0)
(0.00609207 0.000214141 0)
(0.00585303 0.000196433 0)
(0.00561522 0.000178129 0)
(0.00537766 0.000159063 0)
(0.00513916 0.000139575 0)
(0.00489868 0.000119438 0)
(0.00465556 9.9019e-05 0)
(0.00440881 7.85007e-05 0)
(0.00415768 5.77729e-05 0)
(0.00390189 3.69859e-05 0)
(0.00364107 1.6719e-05 0)
(0.00337491 -3.03289e-06 0)
(0.00310314 -2.20159e-05 0)
(0.00282573 -4.00415e-05 0)
(0.00254274 -5.69128e-05 0)
(0.00225435 -7.24607e-05 0)
(0.00196089 -8.65212e-05 0)
(0.00166282 -9.89569e-05 0)
(0.00136076 -0.000109672 0)
(0.00105553 -0.000118638 0)
(0.000747804 -0.000125986 0)
(0.000440822 -0.000132479 0)
(0.000145136 -0.00013789 0)
(0.028168 0.114506 0)
(0.0563246 0.0791683 0)
(0.0558911 0.0553528 0)
(0.0536874 0.0387891 0)
(0.0490528 0.0278252 0)
(0.0442646 0.0204504 0)
(0.0398826 0.0154215 0)
(0.0360786 0.0119217 0)
(0.0328412 0.00942968 0)
(0.0301006 0.007613 0)
(0.0277767 0.00625818 0)
(0.0257957 0.00522613 0)
(0.0240951 0.00442474 0)
(0.022624 0.00379178 0)
(0.0213412 0.00328431 0)
(0.0202135 0.00287211 0)
(0.0192142 0.00253343 0)
(0.0183218 0.00225236 0)
(0.0175184 0.00201706 0)
(0.0167896 0.00181853 0)
(0.0161233 0.00164987 0)
(0.0155094 0.00150571 0)
(0.0149394 0.00138179 0)
(0.0144061 0.00127472 0)
(0.0139036 0.00118179 0)
(0.0134269 0.00110075 0)
(0.0129717 0.00102955 0)
(0.0125344 0.00096689 0)
(0.0121125 0.000911491 0)
(0.0117036 0.000862035 0)
(0.0113065 0.000817833 0)
(0.01092 0.000778022 0)
(0.0105434 0.000741953 0)
(0.0101766 0.000708982 0)
(0.00981961 0.000678644 0)
(0.00947256 0.000650336 0)
(0.00913574 0.000623712 0)
(0.00880942 0.000598353 0)
(0.0084938 0.000573992 0)
(0.0081889 0.000550122 0)
(0.00789445 0.000526381 0)
(0.00761011 0.000502852 0)
(0.00733534 0.000478846 0)
(0.00706912 0.000454129 0)
(0.00681053 0.000428927 0)
(0.00655856 0.000402632 0)
(0.00631175 0.000375113 0)
(0.00606886 0.000346726 0)
(0.00582879 0.000317004 0)
(0.00559012 0.000286131 0)
(0.00535174 0.00025421 0)
(0.00511254 0.000221276 0)
(0.00487156 0.000187599 0)
(0.00462801 0.000153337 0)
(0.00438103 0.000118634 0)
(0.00413001 8.39172e-05 0)
(0.00387466 4.94952e-05 0)
(0.00361448 1.56746e-05 0)
(0.00334907 -1.72762e-05 0)
(0.0030784 -4.90099e-05 0)
(0.00280237 -7.91578e-05 0)
(0.00252103 -0.000107399 0)
(0.00223453 -0.000133405 0)
(0.00194317 -0.000156893 0)
(0.00164738 -0.000177604 0)
(0.00134774 -0.000195319 0)
(0.00104499 -0.000209869 0)
(0.000739787 -0.000221171 0)
(0.000434659 -0.000229099 0)
(0.00014237 -0.000234222 0)
(0.0149419 0.087475 0)
(0.0337746 0.0679397 0)
(0.0393253 0.0529371 0)
(0.0411613 0.0404113 0)
(0.0401035 0.0309359 0)
(0.0379145 0.023916 0)
(0.0353579 0.0187504 0)
(0.0328121 0.0149315 0)
(0.0304424 0.0120785 0)
(0.0283065 0.00991812 0)
(0.0264101 0.00825824 0)
(0.0247364 0.00696414 0)
(0.0232609 0.00594095 0)
(0.0219573 0.00512131 0)
(0.0208014 0.00445682 0)
(0.0197714 0.00391223 0)
(0.0188485 0.00346154 0)
(0.0180164 0.00308531 0)
(0.0172614 0.00276877 0)
(0.0165718 0.0025006 0)
(0.0159375 0.00227197 0)
(0.01535 0.00207593 0)
(0.0148019 0.00190697 0)
(0.014287 0.00176063 0)
(0.0137999 0.00163329 0)
(0.0133361 0.00152199 0)
(0.0128918 0.00142417 0)
(0.0124639 0.00133787 0)
(0.0120498 0.00126138 0)
(0.0116477 0.00119324 0)
(0.0112563 0.00113219 0)
(0.0108746 0.00107712 0)
(0.0105021 0.00102724 0)
(0.0101388 0.000981555 0)
(0.00978453 0.000939533 0)
(0.00943971 0.000900319 0)
(0.00910466 0.000863427 0)
(0.00877966 0.000828295 0)
(0.00846491 0.000794425 0)
(0.00816047 0.000761303 0)
(0.00786613 0.000728472 0)
(0.00758156 0.000695576 0)
(0.0073062 0.000662175 0)
(0.00703919 0.000627921 0)
(0.0067796 0.000592628 0)
(0.00652634 0.000555967 0)
(0.00627819 0.000517746 0)
(0.00603396 0.00047798 0)
(0.00579244 0.000436551 0)
(0.00555243 0.000393459 0)
(0.0053128 0.000348887 0)
(0.00507255 0.000302927 0)
(0.00483074 0.000255895 0)
(0.0045866 0.000208011 0)
(0.00433939 0.000159649 0)
(0.00408855 0.000111235 0)
(0.00383364 6.32173e-05 0)
(0.0035743 1.59097e-05 0)
(0.00331023 -3.00962e-05 0)
(0.00304126 -7.43478e-05 0)
(0.00276734 -0.000116376 0)
(0.00248849 -0.000155714 0)
(0.00220485 -0.000191923 0)
(0.00191669 -0.000224592 0)
(0.00162439 -0.000253349 0)
(0.00132849 -0.000277862 0)
(0.00102967 -0.000297857 0)
(0.00072857 -0.000313132 0)
(0.000427784 -0.000323488 0)
(0.000140052 -0.000328701 0)
(0.00889403 0.0668488 0)
(0.0219182 0.0574766 0)
(0.0283614 0.0480862 0)
(0.0316862 0.0391374 0)
(0.0325569 0.0315909 0)
(0.0320788 0.025505 0)
(0.0308979 0.0207045 0)
(0.0294067 0.0169494 0)
(0.0278278 0.0140131 0)
(0.0262804 0.0117062 0)
(0.0248227 0.00988032 0)
(0.0234784 0.00842226 0)
(0.0222523 0.0072469 0)
(0.0211399 0.00629049 0)
(0.0201321 0.00550517 0)
(0.0192182 0.0048548 0)
(0.0183873 0.00431192 0)
(0.017629 0.00385545 0)
(0.0169337 0.00346909 0)
(0.0162928 0.00314008 0)
(0.0156986 0.00285834 0)
(0.0151444 0.00261584 0)
(0.0146241 0.00240612 0)
(0.0141324 0.00222392 0)
(0.013665 0.00206494 0)
(0.0132178 0.0019256 0)
(0.0127876 0.00180299 0)
(0.0123717 0.00169455 0)
(0.0119678 0.00159816 0)
(0.0115744 0.00151244 0)
(0.0111904 0.0014355 0)
(0.010815 0.0013661 0)
(0.0104479 0.00130293 0)
(0.0100889 0.00124516 0)
(0.00973838 0.00119174 0)
(0.00939645 0.00114196 0)
(0.00906372 0.00109517 0)
(0.00874042 0.00105059 0)
(0.0084268 0.00100756 0)
(0.00812295 0.00096547 0)
(0.00782872 0.000923742 0)
(0.00754382 0.000881869 0)
(0.00726769 0.000839353 0)
(0.00699957 0.000795762 0)
(0.00673858 0.00075075 0)
(0.00648368 0.000703998 0)
(0.00623376 0.000655331 0)
(0.00598766 0.000604602 0)
(0.00574427 0.000551758 0)
(0.00550246 0.000496844 0)
(0.00526121 0.000440006 0)
(0.00501955 0.000381451 0)
(0.00477665 0.000321498 0)
(0.00453176 0.000260501 0)
(0.00428425 0.000198931 0)
(0.00403358 0.000137277 0)
(0.00377933 7.60895e-05 0)
(0.00352116 1.59201e-05 0)
(0.00325882 -4.2614e-05 0)
(0.00299212 -9.89037e-05 0)
(0.00272101 -0.000152346 0)
(0.00244548 -0.000202352 0)
(0.00216565 -0.000248357 0)
(0.00188174 -0.000289835 0)
(0.00159411 -0.000326307 0)
(0.00130323 -0.000357343 0)
(0.00100972 -0.000382573 0)
(0.000714156 -0.00040171 0)
(0.00041911 -0.000414513 0)
(0.00013716 -0.000420843 0)
(0.00571266 0.0541552 0)
(0.015037 0.0491374 0)
(0.0209864 0.043083 0)
(0.0246666 0.0367333 0)
(0.0264711 0.0308975 0)
(0.0270281 0.0258468 0)
(0.0268022 0.0216193 0)
(0.0261206 0.0181435 0)
(0.0251992 0.0153097 0)
(0.0241738 0.0130048 0)
(0.0231261 0.0111271 0)
(0.022103 0.00959139 0)
(0.0211291 0.00832872 0)
(0.0202156 0.00728423 0)
(0.0193657 0.00641474 0)
(0.0185782 0.00568637 0)
(0.0178491 0.00507249 0)
(0.0171736 0.00455211 0)
(0.0165461 0.00410858 0)
(0.0159611 0.00372861 0)
(0.0154133 0.00340156 0)
(0.0148978 0.00311878 0)
(0.01441 0.00287326 0)
(0.0139458 0.0026592 0)
(0.0135016 0.00247183 0)
(0.0130742 0.00230715 0)
(0.0126607 0.00216185 0)
(0.0122591 0.00203308 0)
(0.0118677 0.00191848 0)
(0.011485 0.00181614 0)
(0.0111099 0.0017242 0)
(0.010742 0.00164111 0)
(0.0103812 0.00156543 0)
(0.0100276 0.00149614 0)
(0.00968133 0.00143198 0)
(0.00934314 0.00137224 0)
(0.00901328 0.00131604 0)
(0.00869205 0.00126242 0)
(0.00837979 0.00121062 0)
(0.00807664 0.00115992 0)
(0.00778252 0.00110963 0)
(0.00749717 0.00105912 0)
(0.00722009 0.00100782 0)
(0.00695059 0.000955212 0)
(0.00668784 0.000900871 0)
(0.00643092 0.00084445 0)
(0.00617879 0.000785668 0)
(0.00593039 0.000724406 0)
(0.00568468 0.000660611 0)
(0.00544067 0.000594339 0)
(0.00519741 0.000525759 0)
(0.00495404 0.000455138 0)
(0.00470979 0.000382849 0)
(0.00446403 0.000309348 0)
(0.00421617 0.00023514 0)
(0.00396571 0.000160862 0)
(0.00371229 8.71632e-05 0)
(0.0034556 1.47313e-05 0)
(0.0031954 -5.57127e-05 0)
(0.00293153 -0.000123438 0)
(0.00266389 -0.000187715 0)
(0.00239248 -0.000247838 0)
(0.00211737 -0.000303126 0)
(0.00183874 -0.000352945 0)
(0.00155688 -0.000396717 0)
(0.00127222 -0.000433923 0)
(0.000985306 -0.000464117 0)
(0.00069663 -0.000486943 0)
(0.000408674 -0.00050212 0)
(0.000133713 -0.000509536 0)
(0.00393923 0.045346 0)
(0.0108524 0.0424904 0)
(0.0159574 0.0384861 0)
(0.019501 0.0339616 0)
(0.0216705 0.0295016 0)
(0.0228005 0.0254058 0)
(0.0231946 0.0217981 0)
(0.0230971 0.018699 0)
(0.022689 0.0160754 0)
(0.0220977 0.0138718 0)
(0.0214093 0.0120268 0)
(0.02068 0.0104825 0)
(0.0199451 0.00918758 0)
(0.0192259 0.00809842 0)
(0.0185342 0.00717886 0)
(0.017876 0.00639922 0)
(0.0172531 0.00573536 0)
(0.0166651 0.00516762 0)
(0.0161102 0.00468004 0)
(0.0155858 0.00425957 0)
(0.0150888 0.00389556 0)
(0.0146161 0.00357924 0)
(0.0141645 0.00330335 0)
(0.013731 0.00306186 0)
(0.0133129 0.00284973 0)
(0.0129078 0.00266264 0)
(0.0125135 0.00249709 0)
(0.0121283 0.00235006 0)
(0.0117509 0.00221893 0)
(0.0113802 0.00210136 0)
(0.0110154 0.00199551 0)
(0.0106562 0.00189961 0)
(0.0103029 0.00181238 0)
(0.00995547 0.00173229 0)
(0.00961447 0.00165831 0)
(0.00928051 0.00158938 0)
(0.0089539 0.00152415 0)
(0.008635 0.00146194 0)
(0.0083243 0.00140181 0)
(0.00802195 0.00134292 0)
(0.00772792 0.00128449 0)
(0.00744201 0.00122578 0)
(0.00716378 0.00116608 0)
(0.00689263 0.00110487 0)
(0.00662781 0.00104163 0)
(0.00636848 0.000975976 0)
(0.00611371 0.000907579 0)
(0.00586261 0.000836308 0)
(0.0056142 0.00076211 0)
(0.00536761 0.000685058 0)
(0.005122 0.00060535 0)
(0.00487664 0.000523304 0)
(0.00463086 0.00043935 0)
(0.00438406 0.000354024 0)
(0.00413577 0.000267913 0)
(0.0038856 0.000181751 0)
(0.0036332 9.62918e-05 0)
(0.00337829 1.23282e-05 0)
(0.00312065 -6.92999e-05 0)
(0.00286012 -0.000147752 0)
(0.00259661 -0.000222186 0)
(0.00233007 -0.000291779 0)
(0.00206054 -0.00035575 0)
(0.00178815 -0.000413366 0)
(0.00151313 -0.000463956 0)
(0.00123583 -0.000506924 0)
(0.000956698 -0.000541756 0)
(0.000676153 -0.000568041 0)
(0.000396542 -0.00058546 0)
(0.000129723 -0.000593926 0)
(0.00288365 0.0389301 0)
(0.00817896 0.0371926 0)
(0.0124576 0.0344671 0)
(0.0156822 0.0312007 0)
(0.0179153 0.0277951 0)
(0.0193246 0.0245088 0)
(0.0200954 0.021485 0)
(0.020398 0.0187858 0)
(0.020372 0.0164226 0)
(0.0201252 0.0143784 0)
(0.0197369 0.0126228 0)
(0.0192638 0.0111205 0)
(0.018745 0.00983649 0)
(0.0182069 0.00873867 0)
(0.0176665 0.00779857 0)
(0.0171347 0.0069917 0)
(0.0166175 0.00629733 0)
(0.0161183 0.00569801 0)
(0.015638 0.00517915 0)
(0.0151766 0.00472856 0)
(0.0147329 0.00433603 0)
(0.0143056 0.00399304 0)
(0.0138926 0.00369242 0)
(0.0134922 0.00342814 0)
(0.0131024 0.00319512 0)
(0.0127215 0.00298875 0)
(0.0123482 0.0028056 0)
(0.0119809 0.00264245 0)
(0.011619 0.00249652 0)
(0.0112616 0.00236537 0)
(0.0109082 0.00224705 0)
(0.0105589 0.00213973 0)
(0.0102139 0.00204189 0)
(0.00987349 0.00195195 0)
(0.00953841 0.00186875 0)
(0.00920897 0.00179104 0)
(0.00888584 0.00171752 0)
(0.00856972 0.00164728 0)
(0.00826078 0.00157936 0)
(0.00795932 0.00151279 0)
(0.00766538 0.00144669 0)
(0.00737877 0.00138023 0)
(0.00709918 0.00131265 0)
(0.00682613 0.00124333 0)
(0.00655894 0.0011717 0)
(0.00629686 0.00109733 0)
(0.00603912 0.0010199 0)
(0.00578492 0.00093923 0)
(0.00553343 0.000855266 0)
(0.00528391 0.000768107 0)
(0.00503566 0.000677982 0)
(0.00478804 0.000585254 0)
(0.00454051 0.000490409 0)
(0.0042926 0.000394043 0)
(0.0040439 0.000296878 0)
(0.00379408 0.000199681 0)
(0.00354287 0.000103309 0)
(0.00329001 8.66412e-06 0)
(0.00303532 -8.3315e-05 0)
(0.00277865 -0.000171681 0)
(0.00251987 -0.00025549 0)
(0.00225891 -0.000333821 0)
(0.00199578 -0.000405797 0)
(0.00173053 -0.000470594 0)
(0.00146332 -0.000527462 0)
(0.00119442 -0.000575731 0)
(0.000924188 -0.000614833 0)
(0.000652925 -0.000644312 0)
(0.000382819 -0.000663808 0)
(0.000125218 -0.000673259 0)
(0.00221328 0.0340514 0)
(0.00639015 0.0329245 0)
(0.00996548 0.0310144 0)
(0.012829 0.0286155 0)
(0.0149787 0.0260005 0)
(0.0164905 0.0233715 0)
(0.0174716 0.0208609 0)
(0.0180346 0.0185435 0)
(0.0182816 0.0164529 0)
(0.018298 0.014596 0)
(0.0181514 0.0129632 0)
(0.0178937 0.0115368 0)
(0.0175633 0.0102954 0)
(0.017188 0.00921687 0)
(0.0167873 0.00828035 0)
(0.0163747 0.0074667 0)
(0.0159594 0.00675895 0)
(0.0155469 0.00614232 0)
(0.0151408 0.00560403 0)
(0.0147427 0.00513311 0)
(0.0143533 0.0047202 0)
(0.0139725 0.00435728 0)
(0.0135996 0.00403751 0)
(0.0132337 0.00375502 0)
(0.0128735 0.00350477 0)
(0.0125183 0.00328259 0)
(0.0121672 0.00308462 0)
(0.0118192 0.0029077 0)
(0.0114738 0.00274888 0)
(0.0111307 0.00260583 0)
(0.0107897 0.00247642 0)
(0.0104511 0.00235894 0)
(0.0101151 0.00225149 0)
(0.00978233 0.00215272 0)
(0.00945356 0.00206111 0)
(0.00912928 0.00197529 0)
(0.00881014 0.00189429 0)
(0.00849684 0.00181673 0)
(0.0081898 0.00174163 0)
(0.00788927 0.00166796 0)
(0.00759536 0.00159474 0)
(0.00730797 0.00152107 0)
(0.00702688 0.00144616 0)
(0.00675168 0.00136931 0)
(0.00648181 0.00128989 0)
(0.00621667 0.00120742 0)
(0.00595562 0.00112159 0)
(0.00569797 0.00103219 0)
(0.00544308 0.000939177 0)
(0.00519032 0.00084267 0)
(0.00493915 0.000742929 0)
(0.00468907 0.00064036 0)
(0.00443965 0.000535504 0)
(0.00419052 0.000429027 0)
(0.00394141 0.000321714 0)
(0.00369204 0.000214413 0)
(0.00344218 0.000108073 0)
(0.00319166 3.69176e-06 0)
(0.0029403 -9.77091e-05 0)
(0.00268795 -0.000195086 0)
(0.00243447 -0.000287406 0)
(0.00217976 -0.000373661 0)
(0.00192377 -0.000452888 0)
(0.00166649 -0.000524186 0)
(0.00140799 -0.000586732 0)
(0.00114846 -0.000639796 0)
(0.000888118 -0.000682758 0)
(0.000627178 -0.000715125 0)
(0.000367628 -0.000736511 0)
(0.000120238 -0.00074686 0)
(0.00176191 0.0302081 0)
(0.00514232 0.0294353 0)
(0.00814864 0.0280578 0)
(0.0106683 0.0262633 0)
(0.0126714 0.0242366 0)
(0.014185 0.0221293 0)
(0.0152674 0.0200526 0)
(0.0159901 0.0180793 0)
(0.0164245 0.0162517 0)
(0.0166354 0.0145889 0)
(0.0166777 0.0130953 0)
(0.016596 0.011765 0)
(0.0164251 0.0105873 0)
(0.0161919 0.00954852 0)
(0.0159164 0.00863421 0)
(0.0156133 0.00783029 0)
(0.0152932 0.00712354 0)
(0.0149633 0.00650195 0)
(0.0146288 0.00595474 0)
(0.0142928 0.00547243 0)
(0.0139571 0.00504667 0)
(0.0136229 0.00467018 0)
(0.0132903 0.00433663 0)
(0.0129595 0.00404046 0)
(0.01263 0.00377681 0)
(0.0123014 0.00354204 0)
(0.0119733 0.00333195 0)
(0.0116452 0.0031434 0)
(0.0113171 0.0029739 0)
(0.0109891 0.00282078 0)
(0.0106613 0.00268191 0)
(0.0103339 0.00255547 0)
(0.0100076 0.00243961 0)
(0.00968311 0.00233293 0)
(0.00936099 0.00223382 0)
(0.00904215 0.00214091 0)
(0.00872728 0.00205299 0)
(0.00841706 0.00196882 0)
(0.008112 0.00188719 0)
(0.00781242 0.00180704 0)
(0.00751848 0.00172733 0)
(0.00723019 0.00164711 0)
(0.00694743 0.00156551 0)
(0.00666986 0.00148171 0)
(0.00639705 0.00139512 0)
(0.00612856 0.00130524 0)
(0.00586389 0.00121171 0)
(0.00560251 0.00111434 0)
(0.00534391 0.00101308 0)
(0.00508766 0.000908062 0)
(0.00483335 0.000799584 0)
(0.00458062 0.000688096 0)
(0.00432918 0.000574188 0)
(0.00407881 0.000458586 0)
(0.00382928 0.000342135 0)
(0.00358044 0.000225764 0)
(0.00333214 0.000110495 0)
(0.00308423 -2.59887e-06 0)
(0.00283654 -0.000112412 0)
(0.00258895 -0.000217822 0)
(0.00234129 -0.000317717 0)
(0.00209343 -0.000411012 0)
(0.00184526 -0.000496675 0)
(0.00159669 -0.000573735 0)
(0.00134771 -0.000641311 0)
(0.0010984 -0.000698619 0)
(0.00084886 -0.000744997 0)
(0.000599173 -0.000779921 0)
(0.000351122 -0.00080298 0)
(0.00011483 -0.000814126 0)
(0.0014429 0.0270917 0)
(0.00424 0.0265371 0)
(0.00679348 0.0255166 0)
(0.00900788 0.0241494 0)
(0.0108447 0.0225612 0)
(0.0123065 0.0208637 0)
(0.0134216 0.0191459 0)
(0.0142337 0.0174724 0)
(0.0147912 0.0158861 0)
(0.0151416 0.0144118 0)
(0.0153275 0.0130614 0)
(0.0153858 0.0118373 0)
(0.0153468 0.0107361 0)
(0.0152349 0.00975066 0)
(0.015069 0.00887208 0)
(0.0148641 0.00809058 0)
(0.014631 0.00739637 0)
(0.0143781 0.00678007 0)
(0.0141112 0.00623296 0)
(0.0138346 0.00574707 0)
(0.0135511 0.00531523 0)
(0.0132624 0.004931 0)
(0.0129698 0.00458867 0)
(0.0126739 0.00428321 0)
(0.0123751 0.00401017 0)
(0.0120734 0.00376561 0)
(0.0117686 0.00354601 0)
(0.0114612 0.00334826 0)
(0.0111512 0.00316999 0)
(0.0108387 0.00300852 0)
(0.0105244 0.00286175 0)
(0.0102088 0.00272768 0)
(0.00989256 0.0026047 0)
(0.00957654 0.00249108 0)
(0.00926153 0.00238541 0)
(0.00894844 0.00228626 0)
(0.00863805 0.00219228 0)
(0.00833104 0.00210222 0)
(0.00802803 0.0020148 0)
(0.00772941 0.00192887 0)
(0.00743542 0.00184334 0)
(0.00714615 0.00175721 0)
(0.00686148 0.00166957 0)
(0.00658129 0.00157954 0)
(0.00630534 0.00148652 0)
(0.00603326 0.00138997 0)
(0.00576471 0.00128953 0)
(0.00549933 0.001185 0)
(0.0052368 0.00107635 0)
(0.00497683 0.000963735 0)
(0.00471919 0.000847476 0)
(0.00446367 0.000728064 0)
(0.00421014 0.000606137 0)
(0.00395847 0.000482472 0)
(0.00370858 0.000357968 0)
(0.0034604 0.000233632 0)
(0.00321382 0.000110538 0)
(0.00296876 -1.01719e-05 0)
(0.00272508 -0.000127321 0)
(0.00248264 -0.000239721 0)
(0.00224128 -0.000346193 0)
(0.0020008 -0.000445592 0)
(0.00176105 -0.000536822 0)
(0.00152185 -0.000618861 0)
(0.00128311 -0.000690777 0)
(0.00104477 -0.000751744 0)
(0.000806816 -0.000801065 0)
(0.000569195 -0.000838191 0)
(0.000333466 -0.000862691 0)
(0.000109048 -0.00087452 0)
(0.00120859 0.0245038 0)
(0.00356741 0.0240914 0)
(0.00576091 0.0233167 0)
(0.00771298 0.0222567 0)
(0.00938566 0.0209976 0)
(0.0107696 0.019621 0)
(0.0118762 0.0181966 0)
(0.0127303 0.0167789 0)
(0.0133639 0.0154076 0)
(0.0138107 0.0141087 0)
(0.0141032 0.0128979 0)
(0.0142706 0.0117824 0)
(0.0143385 0.010764 0)
(0.0143279 0.00984033 0)
(0.0142563 0.00900662 0)
(0.0141376 0.00825675 0)
(0.0139826 0.00758389 0)
(0.0137999 0.00698108 0)
(0.0135958 0.00644149 0)
(0.013375 0.00595867 0)
(0.013141 0.00552661 0)
(0.0128963 0.00513978 0)
(0.0126426 0.00479319 0)
(0.012381 0.00448232 0)
(0.0121124 0.00420314 0)
(0.0118372 0.00395186 0)
(0.0115559 0.00372539 0)
(0.0112692 0.00352096 0)
(0.0109774 0.00333575 0)
(0.0106809 0.00316758 0)
(0.0103805 0.00301434 0)
(0.0100769 0.00287409 0)
(0.00977104 0.00274513 0)
(0.00946382 0.00262581 0)
(0.00915617 0.00251464 0)
(0.00884902 0.00241017 0)
(0.00854324 0.00231102 0)
(0.00823957 0.00221586 0)
(0.00793865 0.00212342 0)
(0.00764096 0.00203246 0)
(0.00734683 0.00194186 0)
(0.00705641 0.00185053 0)
(0.00676975 0.00175753 0)
(0.00648681 0.00166206 0)
(0.00620748 0.00156339 0)
(0.00593158 0.00146098 0)
(0.00565891 0.00135447 0)
(0.00538932 0.00124366 0)
(0.00512265 0.00112854 0)
(0.00485879 0.0010093 0)
(0.00459768 0.000886279 0)
(0.00433928 0.000760003 0)
(0.00408359 0.000631152 0)
(0.00383064 0.00050055 0)
(0.00358044 0.000369148 0)
(0.00333301 0.000237999 0)
(0.00308834 0.000108239 0)
(0.00284637 -1.89348e-05 0)
(0.002607 -0.000142292 0)
(0.00237008 -0.000260589 0)
(0.00213542 -0.000372596 0)
(0.0019028 -0.000477116 0)
(0.00167199 -0.000573008 0)
(0.00144273 -0.000659208 0)
(0.00121483 -0.000734744 0)
(0.000988111 -0.000798759 0)
(0.000762414 -0.000850528 0)
(0.000537548 -0.000889483 0)
(0.000314838 -0.000915178 0)
(0.000102952 -0.000927575 0)
(0.00103115 0.0223115 0)
(0.00305317 0.0219961 0)
(0.00495881 0.0213954 0)
(0.00668874 0.0205601 0)
(0.00820899 0.0195502 0)
(0.00950544 0.0184254 0)
(0.0105796 0.0172396 0)
(0.0114447 0.0160376 0)
(0.012121 0.0148542 0)
(0.0126318 0.0137143 0)
(0.0130012 0.0126347 0)
(0.013252 0.0116255 0)
(0.0134047 0.0106915 0)
(0.0134775 0.00983359 0)
(0.0134855 0.00905029 0)
(0.0134413 0.00833827 0)
(0.0133554 0.00769317 0)
(0.0132357 0.00711009 0)
(0.0130888 0.00658393 0)
(0.0129197 0.00610963 0)
(0.0127322 0.00568229 0)
(0.012529 0.00529732 0)
(0.0123124 0.00495041 0)
(0.0120838 0.00463761 0)
(0.0118447 0.00435525 0)
(0.0115957 0.00410002 0)
(0.0113377 0.00386926 0)
(0.0110715 0.00366015 0)
(0.0107978 0.00347008 0)
(0.0105173 0.00329696 0)
(0.0102309 0.00313879 0)
(0.00993957 0.00299373 0)
(0.00964428 0.00286007 0)
(0.00934605 0.00273618 0)
(0.0090459 0.00262056 0)
(0.00874482 0.00251175 0)
(0.00844373 0.00240834 0)
(0.00814344 0.00230897 0)
(0.00784463 0.00221231 0)
(0.00754784 0.00211712 0)
(0.00725348 0.0020222 0)
(0.00696182 0.00192647 0)
(0.00667301 0.00182894 0)
(0.00638715 0.00172879 0)
(0.00610426 0.00162526 0)
(0.00582434 0.00151784 0)
(0.00554739 0.00140614 0)
(0.00527341 0.00128999 0)
(0.00500244 0.00116939 0)
(0.00473457 0.00104454 0)
(0.00446989 0.000915822 0)
(0.00420854 0.000783788 0)
(0.00395068 0.000649157 0)
(0.00369647 0.000512792 0)
(0.00344603 0.000375686 0)
(0.00319949 0.00023893 0)
(0.00295689 0.000103709 0)
(0.00271823 -2.87374e-05 0)
(0.00248343 -0.000157136 0)
(0.00225234 -0.000280204 0)
(0.00202475 -0.00039667 0)
(0.00180039 -0.000505302 0)
(0.00157896 -0.000604924 0)
(0.00136012 -0.000694442 0)
(0.00114356 -0.00077286 0)
(0.000928986 -0.000839294 0)
(0.000716093 -0.000893002 0)
(0.000504545 -0.000933403 0)
(0.000295423 -0.00096004 0)
(9.66005e-05 -0.000972881 0)
(0.000893477 0.0204222 0)
(0.00265153 0.0201755 0)
(0.00432494 0.019701 0)
(0.00586778 0.019033 0)
(0.00725094 0.0182139 0)
(0.00845905 0.0172876 0)
(0.00948841 0.0162957 0)
(0.0103449 0.0152744 0)
(0.0110405 0.0142531 0)
(0.0115913 0.0132548 0)
(0.0120144 0.0122959 0)
(0.0123274 0.0113875 0)
(0.0125465 0.0105361 0)
(0.0126867 0.00974496 0)
(0.012761 0.00901479 0)
(0.0127804 0.0083444 0)
(0.0127545 0.00773138 0)
(0.0126907 0.00717256 0)
(0.0125953 0.00666433 0)
(0.0124734 0.00620286 0)
(0.0123287 0.00578431 0)
(0.0121644 0.00540494 0)
(0.0119828 0.00506114 0)
(0.0117858 0.00474956 0)
(0.0115748 0.00446692 0)
(0.0113512 0.00421038 0)
(0.011116 0.00397747 0)
(0.01087 0.00376557 0)
(0.0106142 0.00357242 0)
(0.0103496 0.00339599 0)
(0.0100772 0.00323442 0)
(0.00979816 0.00308591 0)
(0.00951349 0.00294881 0)
(0.00922431 0.00282152 0)
(0.00893174 0.00270254 0)
(0.0086368 0.00259038 0)
(0.00834045 0.00248365 0)
(0.00804353 0.00238095 0)
(0.0077468 0.00228093 0)
(0.00745086 0.00218233 0)
(0.00715618 0.00208393 0)
(0.00686316 0.00198461 0)
(0.00657207 0.00188338 0)
(0.00628313 0.00177936 0)
(0.00599653 0.00167185 0)
(0.00571245 0.00156031 0)
(0.00543106 0.00144436 0)
(0.00515257 0.00132384 0)
(0.0048772 0.00119878 0)
(0.00460523 0.00106939 0)
(0.00433693 0.00093608 0)
(0.00407261 0.000799436 0)
(0.0038126 0.000660206 0)
(0.00355717 0.000519286 0)
(0.00330658 0.000377699 0)
(0.00306104 0.000236576 0)
(0.00282067 9.71277e-05 0)
(0.00258552 -3.93736e-05 0)
(0.00235553 -0.000171625 0)
(0.00213054 -0.000298315 0)
(0.00191032 -0.000418147 0)
(0.00169455 -0.000529865 0)
(0.00148285 -0.000632273 0)
(0.0012748 -0.000724259 0)
(0.00106998 -0.000804805 0)
(0.000867969 -0.00087302 0)
(0.000668304 -0.000928151 0)
(0.00047051 -0.00096961 0)
(0.000275412 -0.000996934 0)
(9.00564e-05 -0.0010101 0)
(0.000784521 0.0187692 0)
(0.00233217 0.0185726 0)
(0.00381637 0.0181917 0)
(0.00520169 0.0176505 0)
(0.00646364 0.0169792 0)
(0.00758727 0.0162105 0)
(0.00856633 0.0153764 0)
(0.00940215 0.0145058 0)
(0.0101015 0.0136237 0)
(0.0106746 0.01275 0)
(0.0111338 0.0119001 0)
(0.0114921 0.0110852 0)
(0.0117622 0.0103127 0)
(0.0119562 0.00958715 0)
(0.0120849 0.00891072 0)
(0.0121579 0.0082838 0)
(0.0121835 0.00770549 0)
(0.0121687 0.007174 0)
(0.0121191 0.00668696 0)
(0.0120397 0.00624163 0)
(0.0119342 0.00583509 0)
(0.0118058 0.00546437 0)
(0.011657 0.00512656 0)
(0.0114896 0.00481887 0)
(0.0113055 0.00453842 0)
(0.0111062 0.00428293 0)
(0.0108928 0.00404984 0)
(0.0106665 0.00383706 0)
(0.0104282 0.00364256 0)
(0.0101793 0.00346442 0)
(0.00992082 0.00330091 0)
(0.00965395 0.00315029 0)
(0.00937988 0.00301098 0)
(0.00909977 0.00288144 0)
(0.00881476 0.00276017 0)
(0.00852593 0.0026457 0)
(0.0082343 0.0025366 0)
(0.00794073 0.00243149 0)
(0.00764602 0.00232901 0)
(0.00735084 0.00222786 0)
(0.00705576 0.00212682 0)
(0.00676126 0.00202476 0)
(0.00646776 0.00192067 0)
(0.00617563 0.00181368 0)
(0.0058852 0.00170308 0)
(0.00559684 0.00158834 0)
(0.00531092 0.00146911 0)
(0.00502783 0.00134524 0)
(0.00474799 0.00121677 0)
(0.00447187 0.00108393 0)
(0.00419994 0.000947173 0)
(0.00393267 0.000807095 0)
(0.00367054 0.000664473 0)
(0.00341396 0.000520228 0)
(0.00316332 0.000375408 0)
(0.00291892 0.000231169 0)
(0.00268094 8.87412e-05 0)
(0.00244947 -5.05856e-05 0)
(0.00222448 -0.000185491 0)
(0.00200582 -0.000314648 0)
(0.0017932 -0.000436748 0)
(0.00158627 -0.000550523 0)
(0.00138456 -0.000654769 0)
(0.00118758 -0.000748367 0)
(0.000994795 -0.000830293 0)
(0.000805639 -0.000899653 0)
(0.000619503 -0.000955692 0)
(0.000435764 -0.00099782 0)
(0.000254993 -0.00102557 0)
(8.33809e-05 -0.00103893 0)
(0.00069687 0.0173029 0)
(0.00207434 0.0171439 0)
(0.00340287 0.016834 0)
(0.00465525 0.0163902 0)
(0.00581097 0.0158348 0)
(0.00685621 0.015192 0)
(0.00778373 0.0144868 0)
(0.00859217 0.0137422 0)
(0.00928471 0.0129788 0)
(0.00986772 0.012214 0)
(0.0103496 0.0114616 0)
(0.01074 0.0107323 0)
(0.0110485 0.0100337 0)
(0.0112847 0.00937102 0)
(0.0114576 0.00874742 0)
(0.0115752 0.00816434 0)
(0.0116447 0.00762203 0)
(0.0116722 0.00711975 0)
(0.011663 0.00665613 0)
(0.0116215 0.00622934 0)
(0.0115515 0.00583727 0)
(0.0114559 0.00547765 0)
(0.0113373 0.00514814 0)
(0.0111976 0.00484635 0)
(0.0110388 0.00457043 0)
(0.0108626 0.00431789 0)
(0.0106702 0.00408664 0)
(0.0104627 0.00387483 0)
(0.0102416 0.00368064 0)
(0.0100079 0.00350233 0)
(0.00976308 0.00333825 0)
(0.00950823 0.00318683 0)
(0.00924464 0.00304655 0)
(0.0089735 0.00291589 0)
(0.008696 0.00279339 0)
(0.00841323 0.00267762 0)
(0.00812623 0.00256714 0)
(0.00783594 0.00246055 0)
(0.00754317 0.0023565 0)
(0.00724866 0.00225369 0)
(0.00695308 0.00215088 0)
(0.006657 0.00204694 0)
(0.00636099 0.00194087 0)
(0.00606554 0.00183181 0)
(0.0057712 0.00171906 0)
(0.00547848 0.00160209 0)
(0.00518796 0.00148057 0)
(0.00490022 0.00135437 0)
(0.0046159 0.00122357 0)
(0.00433563 0.00108841 0)
(0.00406009 0.000949353 0)
(0.00378991 0.000807032 0)
(0.00352573 0.000662239 0)
(0.0032681 0.000515912 0)
(0.00301752 0.000369114 0)
(0.00277437 0.000223014 0)
(0.00253892 7.88527e-05 0)
(0.00231129 -6.20719e-05 0)
(0.00209147 -0.000198438 0)
(0.00187929 -0.000328914 0)
(0.00167445 -0.000452191 0)
(0.00147653 -0.000567002 0)
(0.001285 -0.000672147 0)
(0.00109927 -0.00076651 0)
(0.000918692 -0.000849077 0)
(0.00074257 -0.000918954 0)
(0.000570138 -0.000975391 0)
(0.000400629 -0.00101781 0)
(0.000234357 -0.00104573 0)
(7.66365e-05 -0.00105917 0)
(0.000625384 0.0159859 0)
(0.00186347 0.0158555 0)
(0.00306272 0.0156004 0)
(0.00420247 0.0152327 0)
(0.00526546 0.014769 0)
(0.00623926 0.0142278 0)
(0.00711646 0.0136283 0)
(0.0078942 0.0129891 0)