/*--------------------------------*- C++ -*----------------------------------*\
| =========                 |                                                 |
| \\      /  F ield         | OpenFOAM: The Open Source CFD Toolbox           |
|  \\    /   O peration     | Version:  v1606+                                |
|   \\  /    A nd           | Web:      www.OpenFOAM.com                      |
|    \\/     M anipulation  |                                                 |
\*---------------------------------------------------------------------------*/
FoamFile
{
    version     2.0;
    format      ascii;
    class       volVectorField;
    location    "5.9";
    object      ddt0(U);
}
// * * * * * * * * * * * * * * * * * * * * * * * * * * * * * * * * * * * * * //

dimensions      [0 1 -2 0 0 0 0];

internalField   nonuniform List<vector> 
11640
(
(0.000855948319286 -0.0013112546852 0.000406518578041)
(0.00251563104586 -0.00134211611119 0.000451109059021)
(0.00420370632336 -0.00153121570302 0.000533291611455)
(0.00611171162248 -0.00189656117573 0.000673649156211)
(0.00836797121146 -0.00242028401038 0.000870100901164)
(0.0110534399753 -0.00307754785824 0.00113190597841)
(0.0142244420106 -0.00385712929649 0.00147285049705)
(0.0178095842417 -0.00470364047297 0.00191040956992)
(0.0215797644792 -0.00546338559433 0.00242111976694)
(0.0250961655899 -0.00612258059042 0.00301485575274)
(0.027942875455 -0.00672082722063 0.00368916957985)
(0.0297555457326 -0.00727218366726 0.00443677718056)
(0.0303002896764 -0.00783454235796 0.00523622179277)
(0.0295966964306 -0.00844031484323 0.00609912386882)
(0.027564865044 -0.00880757320991 0.00679598546158)
(0.024258054616 -0.00911973575127 0.00748964525146)
(0.0199859956522 -0.00944397204476 0.00810601107765)
(0.0149169369457 -0.00974742326905 0.00862820483031)
(0.00923500440495 -0.00997853226081 0.00898364054957)
(0.00309407163175 -0.010213988552 0.00933485737249)
(0.000815513517775 -0.0038925655409 0.000363018104728)
(0.00227942178011 -0.00408859035691 0.000663809475747)
(0.00364523939573 -0.00469638235631 0.000809975012434)
(0.00521191418107 -0.0057618070537 0.000932989253844)
(0.007135817891 -0.00728673174307 0.00111199753737)
(0.00953309304106 -0.00927317786561 0.0013631044479)
(0.0125306499515 -0.0116524186504 0.00162707032913)
(0.0161421645752 -0.0142693196066 0.00204947411187)
(0.0200986936521 -0.0164792159666 0.00248885218532)
(0.0237754796241 -0.0183515964424 0.00303582670627)
(0.0267414650118 -0.0200459490699 0.00367236200467)
(0.0285949546168 -0.02156598859 0.00446559616417)
(0.0291051483076 -0.0229349976414 0.00551358610467)
(0.02862026464 -0.0241823574415 0.00686412150543)
(0.0268944388057 -0.0254709463748 0.00738311727449)
(0.0236280108911 -0.0266998732141 0.00772984616701)
(0.0193497724484 -0.0278304316946 0.00809534685336)
(0.014363351275 -0.0287674143785 0.00847896468807)
(0.00874160807864 -0.0294322698804 0.00877055604132)
(0.00284822968696 -0.0297765653318 0.00928872533883)
(0.000634810832887 -0.00612544705808 0.000324869496441)
(0.00166936241799 -0.00657703251815 0.00069472825472)
(0.0024991240618 -0.00764681369884 0.000839608503485)
(0.00346884004904 -0.00943589502722 0.00096163485662)
(0.0047643049127 -0.0119709410449 0.00115923957179)
(0.00665431239903 -0.0154054311743 0.00129477606599)
(0.0092311311641 -0.019346738594 0.00160442181382)
(0.0129180790568 -0.0234984287735 0.00228633482638)
(0.0174292621286 -0.027302898089 0.00252323898518)
(0.0214872550912 -0.0302980990712 0.00290230818672)
(0.0247112861546 -0.0329497855973 0.00343062170178)
(0.0268674259332 -0.0353664185137 0.00417129348643)
(0.02771502883 -0.0374894197132 0.00504043336099)
(0.0271303245449 -0.0392703722064 0.00587008639561)
(0.0251496181809 -0.041367925777 0.00650221584872)
(0.0220156441448 -0.0434631380675 0.00702667795032)
(0.0180107272096 -0.0453231874707 0.00748749661281)
(0.0133783118464 -0.0468559532228 0.00783636732609)
(0.00823977894783 -0.047916911361 0.00810924319438)
(0.00273763085403 -0.0482716640092 0.00831929033999)
(0.000321791805274 -0.00776967017641 0.000308287522762)
(0.000727667034332 -0.0084248586375 0.000697826299032)
(0.000770413191494 -0.00992064854155 0.000826652288096)
(0.00088946554858 -0.0123648661494 0.000986165485211)
(0.00122838923301 -0.015595789982 0.00116291299483)
(0.00235738537644 -0.0202056901378 0.00159599139159)
(0.0046673409119 -0.0255549904336 0.00195931589261)
(0.00842603535276 -0.0316109098036 0.00206846777365)
(0.0134665531378 -0.0365661440252 0.00209969456408)
(0.0183025045059 -0.0406958347576 0.00231120269871)
(0.0218166811925 -0.0441483539708 0.00268919784028)
(0.0241984441342 -0.0476723276577 0.00332972103736)
(0.0253761461237 -0.0509281917144 0.00418152218376)
(0.024966987416 -0.0535205056145 0.00492243216297)
(0.0229277642168 -0.0561770995875 0.00555558149162)
(0.0198658521761 -0.0588538475602 0.0061028215937)
(0.0161201865278 -0.061280850868 0.00654726324558)
(0.0119150781484 -0.0633568796938 0.00687410936402)
(0.00743279589776 -0.0648369223804 0.00714793987586)
(0.00249397595228 -0.0654803468866 0.0072587881338)
(-8.78311126769e-05 -0.00865907010549 0.000304679523481)
(-0.00050806901742 -0.00948117329153 0.000715003536835)
(-0.00142155222984 -0.0113216974325 0.000858597471784)
(-0.00205393736459 -0.0144247208077 0.00103559494319)
(-0.00290352690157 -0.019068147586 0.00101302869078)
(-0.00295728803411 -0.0241317653439 0.00177127290714)
(-0.00163033489689 -0.0304803639339 0.00201894047183)
(0.00266473684745 -0.0394274981907 0.00114264917077)
(0.00892500463634 -0.0451836855648 0.00048214421786)
(0.0143247004962 -0.0491718837084 0.000443416036354)
(0.0180302352309 -0.0511595369753 0.000638061969651)
(0.0203244024177 -0.0541287116979 0.0015254966167)
(0.0220993706089 -0.0607344333996 0.00269113425364)
(0.0221540697963 -0.0655155440842 0.00402497328727)
(0.0199792707555 -0.0688348314026 0.00464829880317)
(0.0169438882122 -0.0722192140146 0.00502184769505)
(0.0135369404526 -0.0751961157846 0.00541318662623)
(0.00991925152793 -0.0777315817082 0.00569306367149)
(0.00620439649259 -0.0796034289348 0.00595822999687)
(0.00211604197249 -0.0805134653425 0.0061071862021)
(-0.000548989683142 -0.00877800316604 0.000339937697759)
(-0.00195070475037 -0.00968859467626 0.000779223946396)
(-0.00401477287451 -0.0116702197565 0.000915699893205)
(-0.00628349213849 -0.0150272820266 0.00113539127909)
(-0.00770258950267 -0.0200388014557 0.00166343486178)
(-0.00819487369343 -0.0257055027846 0.00190750410462)
(-0.00933370057321 -0.0325668521328 0.0015253040755)
(-0.00496578391066 -0.0438858019407 -0.000368998457246)
(0.00409851555438 -0.0518993394195 -0.000893910664811)
(0.0126815706938 -0.0598965253536 -0.00188661200979)
(0.0170904835517 -0.0686611542298 -0.004362042481)
(0.0145830856273 -0.0740364795601 -0.00452544785676)
(0.0139533706264 -0.0750646692129 0.000975850592983)
(0.0170387977074 -0.0783468260888 0.0037241483499)
(0.0162026268431 -0.079134555041 0.00359001480225)
(0.0131180309201 -0.0830516833126 0.00379978818688)
(0.0102217779897 -0.086658971204 0.00410616311861)
(0.00739592958313 -0.089649693877 0.00434645038759)
(0.00464031431746 -0.0918838910642 0.00460530065581)
(0.00158954004437 -0.0929926425062 0.00484576588961)
(-0.00102273062057 -0.00821497701583 0.000433949127189)
(-0.00339953446576 -0.00913469446994 0.000895195968236)
(-0.00641815401526 -0.0110885183913 0.000965226084811)
(-0.0095002050549 -0.0142101653281 0.00100740322157)
(-0.0123028685326 -0.0181886429819 0.00100835641227)
(-0.0139773214168 -0.0236722268292 0.00117349434901)
(-0.0182216910535 -0.02866006242 -0.000646303260745)
(-0.0150913468206 -0.0400782571633 -0.00682086914219)
(-0.00637612483106 -0.0421755987499 -0.00826906599097)
(-0.00201974114868 -0.0453531598814 -0.00764897499997)
(0.00361470344696 -0.0483842842732 -0.00418490969601)
(0.0138826896469 -0.0518623295883 -0.00269668886428)
(0.0177499353123 -0.0506633761116 -0.00436207649012)
(0.0176929139091 -0.0686891347117 0.00518261911356)
(0.0148493149442 -0.0825551445525 0.0017209819584)
(0.00844105741339 -0.0904473750079 0.00221022160243)
(0.00590614837989 -0.0954845111434 0.00264492411824)
(0.00417123506347 -0.0990198468019 0.00290205464156)
(0.00271717889546 -0.101541352558 0.00318473164254)
(0.000948632134472 -0.102793327041 0.00348681208414)
(-0.00148987800891 -0.00716067282259 0.00060485745)
(-0.00479605412676 -0.00806192983464 0.00107438412264)
(-0.00868654962645 -0.00995672687408 0.0010960356495)
(-0.0124858597095 -0.0128715602823 0.00107386026945)
(-0.016026702487 -0.0166315371871 0.00113453172339)
(-0.0176384727393 -0.0211325584297 0.00303177465447)
(-0.0241351075563 -0.0241383364794 0.00442109284268)
(-0.0170308392538 -0.0326830221894 -0.00360617774978)
(-0.00110307705122 -0.0338079337414 -5.88860530518e-05)
(0.00631149765588 -0.0366344919273 0.00272907424436)
(0.00981403346234 -0.039017778389 0.0067958791991)
(0.0103898107712 -0.045970594586 0.00809042906564)
(-0.00108463517626 -0.0569754349192 0.00981403606555)
(-0.0110068548183 -0.0735687191955 -0.00469290713782)
(-0.0052651531657 -0.0884134867854 0.00020480569367)
(-0.000718530545381 -0.096927552251 0.00102392465755)
(0.00015351403141 -0.102318079425 0.00126063490997)
(0.000383663756463 -0.105977011828 0.00143364032862)
(0.000551315737438 -0.108581144578 0.00169872906719)
(0.000234211361235 -0.109877827731 0.00205365334316)
(-0.0019510217077 -0.00583505499599 0.00085437008503)
(-0.00621100642703 -0.00671872130586 0.00120920432459)
(-0.0108486938143 -0.0086108969305 0.00129048784514)
(-0.015268691449 -0.0114559175644 0.00115835951626)
(-0.0192178714807 -0.015149337886 0.00113655956993)
(-0.0211613299491 -0.0193238455856 0.00271138377527)
(-0.0290559723814 -0.0236253146712 0.00482662902807)
(-0.0224485432498 -0.0289265829067 -0.00138482456688)
(-0.00872182506641 -0.0353824153724 -0.000108732819263)
(-0.00659243287742 -0.045109247317 -0.000632909998678)
(-0.00518096586279 -0.0568588829616 -0.00329994843019)
(-0.00412329659831 -0.0704460129122 -0.00406555167116)
(-0.00978528519249 -0.0855692220263 -0.00271027202676)
(-0.0128302359111 -0.094088606149 -0.00454387259905)
(-0.00813476569732 -0.0966594818766 -0.00136481956977)
(-0.00701383620837 -0.102394041677 -0.000463659600883)
(-0.0052120743856 -0.1070426809 -0.000265030611116)
(-0.0034476894231 -0.110434302912 -8.65865116459e-05)
(-0.001656478911 -0.11292458239 0.000198687564213)
(-0.00047366002683 -0.114174614534 0.000591444615148)
(-0.00243297655589 -0.00442851193364 0.00117441247)
(-0.00764931788749 -0.00533139851647 0.0014419790395)
(-0.0130811610433 -0.00726915651557 0.00156605484108)
(-0.018154454357 -0.0101359232039 0.00134268717012)
(-0.0225317715459 -0.0138278856049 0.00113846157607)
(-0.0256744884583 -0.0181218234057 0.00234479863688)
(-0.0339023433571 -0.0232100462334 0.00564045503226)
(-0.0281689429248 -0.0287568870879 0.000266348333485)
(-0.0169657479004 -0.0379373416568 0.00224603260827)
(-0.0155625317714 -0.0467978379102 0.0024176457794)
(-0.0149247330179 -0.0543001285898 0.000229289199974)
(-0.0173427910818 -0.0645108783366 2.54191073495e-05)
(-0.0222526333271 -0.0760701855506 0.00384233009274)
(-0.0210158195546 -0.0903752565824 -0.00375451622618)
(-0.0144911937205 -0.0986035924949 -0.00246871840769)
(-0.0132834080523 -0.10470782216 -0.00197417848898)
(-0.0103295707676 -0.109086374905 -0.00182364956959)
(-0.00711271536338 -0.112146506635 -0.00162593711397)
(-0.00379657981165 -0.114462516686 -0.00131947697139)
(-0.00116045742802 -0.11562509151 -0.000867548816363)
(-0.00294647995123 -0.00310634121143 0.00156559263756)
(-0.00913700040231 -0.00408738638252 0.00178524963257)
(-0.0153669457596 -0.00615082280379 0.00188046001119)
(-0.0210184021883 -0.00914635541258 0.00153020615515)
(-0.025886003951 -0.0128609763315 0.00111666436941)
(-0.0298025403374 -0.0162658071051 0.00165607780544)
(-0.0393834475748 -0.0184311857263 0.00219388815674)
(-0.0364117523706 -0.010796077581 -0.00398391440705)
(-0.0254500487777 -0.0182663562937 -0.00449550747365)
(-0.0216714233409 -0.0295212015963 -0.00490746889693)
(-0.0210789452889 -0.0479134691924 -0.000865456341044)
(-0.0239179096113 -0.0658586917236 -0.000591384119967)
(-0.0347072295384 -0.0793962203632 -0.0011019467598)
(-0.0365470179968 -0.0888702805403 -0.00487501181713)
(-0.0240046735777 -0.0984771736833 -0.00361318732999)
(-0.0199344735011 -0.104382054343 -0.00332505134306)
(-0.0153627773283 -0.108345068448 -0.00329046339379)
(-0.0106625859017 -0.111113920398 -0.00313723547148)
(-0.00586992058958 -0.113172843108 -0.00278223903635)
(-0.00182102893446 -0.114217436703 -0.00224590927922)
(-0.00351681881937 -0.00197408225961 0.00201331116524)
(-0.010778437265 -0.00308672568821 0.00221115510797)
(-0.0178794539596 -0.00541557149258 0.00225845042254)
(-0.024043211188 -0.00884073580944 0.00181955627014)
(-0.0284208880197 -0.0134797786565 0.0016106976424)
(-0.0305447194096 -0.0186494872122 0.00261612986421)
(-0.0290504182865 -0.0244853003264 0.00512586777004)
(-0.0298492518574 -0.0257533548898 0.0112690924591)
(-0.0356281395879 -0.0355979942522 0.00963411037167)
(-0.042503795846 -0.0474153957559 0.00791248986412)
(-0.0473551264526 -0.0640195473663 0.00358623700171)
(-0.0458115167097 -0.0776396154437 0.00358011956912)
(-0.0442254962907 -0.090872263335 0.00066127055334)
(-0.0408246194257 -0.0912935428173 -0.00290360859213)
(-0.0319327061914 -0.0974897343664 -0.00409608807539)
(-0.0258947365916 -0.101928957709 -0.00449582908276)
(-0.0199799412998 -0.105053869732 -0.00465781603881)
(-0.013931883598 -0.10737551869 -0.00455108227971)
(-0.00777618535367 -0.109162970173 -0.00415804634287)
(-0.0024074748687 -0.110089397384 -0.00357815359638)
(-0.0041473294764 -0.00101173991618 0.00249652482043)
(-0.0126437811588 -0.0022675193929 0.00269842597352)
(-0.0209454155249 -0.00486836481198 0.00261664908125)
(-0.0283843011781 -0.00887998558437 0.00194728997091)
(-0.034498755356 -0.0143230281607 0.00128924042051)
(-0.039674575259 -0.0217494915096 0.000992368872332)
(-0.0446895973479 -0.0312559484788 -0.000171795050535)
(-0.0469782286318 -0.0438674937769 -0.00170154319006)
(-0.0471842695408 -0.0567486386221 0.000906243292234)
(-0.0492304192097 -0.0669346150642 0.00127963057674)
(-0.0493846436569 -0.0742407440262 0.000463083023532)
(-0.0486516067054 -0.0787976489626 -0.00218392751152)
(-0.0488619426376 -0.0853707785014 -0.00418863683721)
(-0.0448003033645 -0.0887114532336 -0.00471538356886)
(-0.0374696737147 -0.0930428844014 -0.00541145261013)
(-0.0307406570676 -0.0964251068711 -0.00578742430018)
(-0.0238623974613 -0.0989879580093 -0.0059270056219)
(-0.0167405945631 -0.100953225289 -0.00583912229073)
(-0.00946411030342 -0.102529797977 -0.00544225101368)
(-0.00291878234986 -0.103363459768 -0.00477972368781)
(-0.00481906144056 -0.000175744453153 0.00299911332257)
(-0.0146679061063 -0.00148895364767 0.00324700266998)
(-0.0244456983385 -0.00410009114712 0.00295907951044)
(-0.0330831586493 -0.00818097911291 0.00245383552554)
(-0.0403817662264 -0.0135467515109 0.0015191187871)
(-0.0463272812878 -0.0200399573788 0.000536374079616)
(-0.0506647733239 -0.0274260311015 0.000372255485198)
(-0.0546644795973 -0.0343776973469 0.00158979518686)
(-0.0577151759077 -0.0437649222804 0.000319560234019)
(-0.0590719592291 -0.053399266341 -0.000535614624485)
(-0.0584930214747 -0.0619742223381 -0.00168958498134)
(-0.0565087901267 -0.0706594893073 -0.00368052163712)
(-0.0543771661972 -0.0769728434737 -0.00526483398509)
(-0.0495404262525 -0.0809922034294 -0.00575920241286)
(-0.0422529628536 -0.0848083344062 -0.00650541834581)
(-0.0349031573453 -0.0878302462833 -0.006913270338)
(-0.0272446141326 -0.0901515334003 -0.00704280427252)
(-0.0191454369473 -0.0919970228444 -0.00687144945942)
(-0.0109134192567 -0.0934884980449 -0.00656042140398)
(-0.00338623771073 -0.0942766615521 -0.00583814644028)
(-0.00545700212822 0.000514495331352 0.00349113650025)
(-0.0166014706041 -0.00073944800801 0.0037729934624)
(-0.02761534584 -0.00318272758536 0.00342822257358)
(-0.0375343355029 -0.00688670532405 0.00287912712379)
(-0.0456930977059 -0.0120181405908 0.0018918858733)
(-0.0526446340817 -0.0185112255425 0.000468084206527)
(-0.0583975316225 -0.0254845983446 -0.000402793527254)
(-0.062912895809 -0.0330866510164 -0.00106806849586)
(-0.0659176008846 -0.0401287804012 -0.00177540414657)
(-0.0669818099446 -0.0472590508326 -0.00277819766188)
(-0.0662340635052 -0.0540930387606 -0.00388162336014)
(-0.063694636207 -0.0606973097531 -0.00546639407628)
(-0.0596599509751 -0.0665017819086 -0.005731325536)
(-0.0537433952645 -0.0704163605394 -0.00660992271236)
(-0.0465026734161 -0.0739608355359 -0.00729250163994)
(-0.0385664936881 -0.0768666941124 -0.00768088994439)
(-0.0300846336903 -0.0791166096138 -0.00780327885198)
(-0.0212015927456 -0.0809626993323 -0.00773898153109)
(-0.0121484765588 -0.0823791467925 -0.00750116851481)
(-0.00380018613451 -0.0831269712048 -0.00675037026176)
(-0.0060527051078 0.00101210069146 0.00397065542879)
(-0.0183531396045 -0.00012064495154 0.00424125185221)
(-0.0305615588757 -0.00228538873502 0.00390957355484)
(-0.0417688139173 -0.00550594682675 0.00316280776799)
(-0.0516803917091 -0.00981490475012 0.00220918478437)
(-0.0594059840637 -0.0153858074359 0.00144352078393)
(-0.0650644514183 -0.0212725431682 0.000285887440182)
(-0.0692519589255 -0.0275960926977 -0.000804128777276)
(-0.0720646061223 -0.0335658093652 -0.00223500334519)
(-0.0732145998371 -0.0394662584269 -0.00348359216355)
(-0.0720596033989 -0.0447069560487 -0.00488532081849)
(-0.0691465466628 -0.0501212566174 -0.00584201648307)
(-0.0643682734946 -0.0546709695426 -0.0063086764709)
(-0.0577937798869 -0.0584298107785 -0.00709966210898)
(-0.0501241260672 -0.0616406299269 -0.00772359136761)
(-0.0416026790188 -0.0642988138353 -0.00812483696911)
(-0.032496405197 -0.0664963148762 -0.00836916575974)
(-0.0229141749051 -0.0682352104529 -0.00842869215012)
(-0.0131876293979 -0.0695109071503 -0.00826784760495)
(-0.00417815824111 -0.070220459282 -0.00752556149784)
(-0.00657207019341 0.00126391026763 0.00441140319773)
(-0.0198595413025 0.000300180685366 0.0046192310513)
(-0.033011301569 -0.0014978813591 0.00427928704307)
(-0.0451222791295 -0.00407042075861 0.00357680574547)
(-0.0556104722862 -0.00736241788687 0.00262633672455)
(-0.0641390767632 -0.0110786798511 0.00153868372508)
(-0.0706387490972 -0.0157018844039 0.000326424913895)
(-0.0751801278538 -0.0206642836076 -0.00094246234089)
(-0.0777816883302 -0.0258423667873 -0.0023145529788)
(-0.0781735408723 -0.0305008205784 -0.00374850352007)
(-0.0770507455055 -0.0349843716676 -0.0055994782868)
(-0.0738633094205 -0.0390588694826 -0.00577163741918)
(-0.068181349376 -0.0425206638345 -0.00655250669783)
(-0.0612116692898 -0.0456380307722 -0.00738029385877)
(-0.0531346307104 -0.048327250998 -0.00803028490911)
(-0.0441827666751 -0.0506167726753 -0.00851581067622)
(-0.0345046133178 -0.0525464737081 -0.00881561589528)
(-0.0243299393877 -0.0540547007111 -0.00896711872977)
(-0.0140902457056 -0.0552013003609 -0.00887328639801)
(-0.00451746627186 -0.0558855357919 -0.00816567599684)
(-0.00700615916696 0.00123051341759 0.004795019885)
(-0.0210889395884 0.000455268615783 0.00492551022404)
(-0.0349274250163 -0.00090292276609 0.00454182986606)
(-0.0476474909299 -0.00277432043608 0.00381499608901)
(-0.0587258060135 -0.00514626780388 0.00286229720942)
(-0.0678115304189 -0.0079444621223 0.00173441387194)
(-0.074744230995 -0.011156926964 0.000456914390894)
(-0.0794899970448 -0.0146308035502 -0.000903542687669)
(-0.0820063754133 -0.0181591848542 -0.00232478224343)
(-0.0824914994579 -0.0216278461172 -0.00384167047572)
(-0.0807764730587 -0.0250193189794 -0.00474498284359)
(-0.0768660887596 -0.0275512987278 -0.0057258093397)
(-0.0711399187459 -0.0300951782706 -0.00670065911792)
(-0.0639349713998 -0.0323925555231 -0.0075304174345)
(-0.0555042030431 -0.0344282169056 -0.00820186884317)
(-0.0461554201688 -0.036165002561 -0.00873461608546)
(-0.0360941727532 -0.0376408746896 -0.00911419835226)
(-0.0255520697812 -0.0388668500147 -0.00935638005313)
(-0.0149094377856 -0.0398636061413 -0.0093073483027)
(-0.00482250969657 -0.0405100795122 -0.00865790082117)
(-0.00734706110808 0.000926469364291 0.00510287257094)
(-0.0220014005548 0.000360759065809 0.0051277417398)
(-0.0362664588028 -0.000502536270431 0.00469568682748)
(-0.0493758390986 -0.00162685582115 0.00394447222567)
(-0.0608115498735 -0.00303131160585 0.00297511358224)
(-0.0702133067864 -0.00468206323086 0.00183840890735)
(-0.077403906735 -0.00655803376543 0.000552516231954)
(-0.0822653608366 -0.008560416525 -0.000812169147863)
(-0.0848535519822 -0.0106166732519 -0.0022721572975)
(-0.0851443515743 -0.0126622890132 -0.00341952642784)
(-0.0830775873122 -0.0143836540371 -0.00456143562367)
(-0.0790589948623 -0.016058942388 -0.00566952719028)
(-0.0731589411259 -0.0176041020534 -0.00666248950951)
(-0.0657507579157 -0.0190022363417 -0.00750617111391)
(-0.0571220613452 -0.020227779762 -0.00820124236461)
(-0.0475568409838 -0.0213171344293 -0.00875391228135)
(-0.0372873769812 -0.022262020883 -0.00916081448349)
(-0.026544736062 -0.0231050710787 -0.00942700634539)
(-0.0156480755931 -0.0238561013944 -0.00946387190944)
(-0.00510577853697 -0.0244739862762 -0.00899580444451)
(-0.00756141429393 0.000304192558398 0.00530822290745)
(-0.0225009995536 7.96442629449e-05 0.00508846791442)
(-0.0369146458845 -0.000228813951299 0.00458568114514)
(-0.0501538855669 -0.00061344661826 0.00384660476505)
(-0.0617216417744 -0.00106428390804 0.00290017968844)
(-0.0712598964389 -0.00159163623346 0.00181613107208)
(-0.0785398461487 -0.00219357901556 0.000623519299769)
(-0.0834551445158 -0.00282540358574 -0.000639661361939)
(-0.0860025955804 -0.00348470592808 -0.00190829656696)
(-0.0861802574715 -0.00404833378982 -0.0031109542054)
(-0.0841105186707 -0.00461224433365 -0.00420569477793)
(-0.0800127294481 -0.00514769389314 -0.00525531742946)
(-0.0740726672825 -0.00564377820381 -0.00616466175181)
(-0.0665917095767 -0.0061138982603 -0.00695025720248)
(-0.0578770836736 -0.00653401650882 -0.00760803449559)
(-0.0482534486595 -0.00691894749719 -0.00814583597659)
(-0.0379459229331 -0.00725614126598 -0.00857653135739)
(-0.0271817377124 -0.00756894733258 -0.00888718790863)
(-0.016254945528 -0.00785991355912 -0.00908762761037)
(-0.00537954474235 -0.0081446328174 -0.00918502540664)
(0.000817383473094 -0.00138423795155 0.000975766485833)
(0.00255189086603 -0.00149593049379 0.00113613777724)
(0.00429530225726 -0.00172455754412 0.00139567462499)
(0.00627008706747 -0.00211244751903 0.00182288952294)
(0.00859554719343 -0.00264759135801 0.00244941414096)
(0.011370557079 -0.00332184901246 0.0033034659945)
(0.0146417871849 -0.00410683893741 0.0043964890758)
(0.0183384391779 -0.00494175784619 0.00573215504505)
(0.0222246484015 -0.00573512849416 0.00731833383568)
(0.025855879432 -0.00642489963937 0.00913092254382)
(0.0288044631938 -0.00703254322824 0.0111717553653)
(0.0307050340914 -0.00751993697873 0.0133697399976)
(0.0313376426451 -0.00788743643246 0.0156816252279)
(0.0305554901764 -0.00815336139218 0.0180451238381)
(0.028403227439 -0.008644582879 0.0201503500663)
(0.0250586208754 -0.00921726714117 0.0221187134365)
(0.0206898582573 -0.00975384131997 0.0238275822003)
(0.0154667079273 -0.010161490448 0.0253225153549)
(0.00967943042316 -0.0103784610551 0.0262125393092)
(0.00329881757525 -0.0102949255021 0.0271292729244)
(0.0006139177252 -0.00398277251001 0.000894980809888)
(0.00206460559533 -0.0043115291989 0.00145608759664)
(0.00354548491985 -0.00500958828643 0.00178017397166)
(0.00517372291722 -0.00616350737147 0.00216095407601)
(0.00718810664747 -0.00774778188496 0.00272967374119)
(0.00971205417642 -0.00970739837215 0.00354747695904)
(0.012838422042 -0.0119811746899 0.00461906353342)
(0.016530859575 -0.0143595601885 0.0058922366507)
(0.0205497991267 -0.0167363296931 0.00735398619616)
(0.0243491915376 -0.0187167444643 0.00906507551227)
(0.0275059631577 -0.0204674421425 0.0110245773038)
(0.029653560482 -0.0219113796464 0.0132530532259)
(0.0305136485736 -0.0231749590138 0.0157202871299)
(0.0296574169886 -0.0244302637527 0.0184212424685)
(0.0272644578244 -0.0257962819033 0.0204148694554)
(0.0239175050163 -0.0272221700288 0.0221284616142)
(0.0196939737726 -0.0285534852761 0.0234829188428)
(0.0146797402797 -0.0296762148624 0.0246636306941)
(0.00913966069496 -0.0303496192827 0.025542124398)
(0.00308325170386 -0.0304759511592 0.0262172761225)
(0.00036269246993 -0.00620035913631 0.000800610540194)
(0.00132167911921 -0.00676226466295 0.00143938712168)
(0.00226148283859 -0.00794212800075 0.00175213012536)
(0.00331523733962 -0.00980455079803 0.00204892701078)
(0.00481914561491 -0.0122606172289 0.00250490497181)
(0.00688626639432 -0.0152585158345 0.00337723260211)
(0.00975536715731 -0.0190527662088 0.00427370621808)
(0.0133974606549 -0.0233105093349 0.00548816578074)
(0.01767988066 -0.0273360839477 0.00670598668781)
(0.0219265235736 -0.0304824333602 0.00818562077746)
(0.0253942581828 -0.0332151784624 0.00997217519019)
(0.0277669897647 -0.035683227952 0.0121304609357)
(0.0286394699348 -0.0379362256946 0.0145042952901)
(0.0278599889138 -0.0401420268938 0.0170127854393)
(0.0256747229114 -0.0422606435497 0.018846637105)
(0.0224712711431 -0.0443465445708 0.0204341207584)
(0.0183739368788 -0.0463071866108 0.0218219603635)
(0.0136128895019 -0.0480195698724 0.0229286195891)
(0.00833963633322 -0.0491657758043 0.0237462738437)
(0.00271028137022 -0.0496452979445 0.0241475505217)
(4.88407657856e-07 -0.00782279765339 0.000755044443443)
(0.000219085735829 -0.00860860503628 0.0013629279873)
(0.000370270323098 -0.0101937127005 0.00151762157724)
(0.000678948343404 -0.0125486028575 0.00161950459881)
(0.00155459472895 -0.0156008698911 0.00197141568599)
(0.00287729039247 -0.0196979345251 0.00287963066783)
(0.00495624366188 -0.0247173191415 0.00354471515301)
(0.0085037623119 -0.0316114901532 0.00360675831047)
(0.0136128714224 -0.0369828262278 0.00478808632231)
(0.0186515547348 -0.0414070888746 0.00643176214963)
(0.0224357877409 -0.0451761277591 0.00781837828625)
(0.0250527247009 -0.0486871355961 0.00996288174452)
(0.0262186744283 -0.0517856124396 0.012463628368)
(0.0255999396857 -0.0539880397317 0.0146958336611)
(0.023466579197 -0.0567499960784 0.0163674337828)
(0.0203863598324 -0.0596825394932 0.0178702390918)
(0.0165267262424 -0.0624065027868 0.0191994578822)
(0.0121556749322 -0.0647507114193 0.0202586067264)
(0.00740494296743 -0.0663722714694 0.0210509788686)
(0.00234377533693 -0.0669694696321 0.0214303683718)
(-0.000454587494897 -0.00869627083737 0.000771754885855)
(-0.00117862134674 -0.00963535210494 0.00127256897759)
(-0.00198652799163 -0.0114276669321 0.00124239565487)
(-0.00260687083809 -0.0139151530367 0.00107327329935)
(-0.00267306719344 -0.017159872499 0.00074041515158)
(-0.00207938523489 -0.021688990289 0.00143254630291)
(-0.00164926567131 -0.0279448750976 0.00113981035206)
(0.00172543313454 -0.0371637555063 -2.68653371052e-05)
(0.00840783767385 -0.0439127441856 0.000213486114611)
(0.0142250497995 -0.0495563012483 0.00130778746968)
(0.0185579098372 -0.0537459372141 0.00272734768585)
(0.0215427621459 -0.0574155315506 0.00532382126428)
(0.0237209493092 -0.0613259697023 0.00905871732102)
(0.0233983970781 -0.0649136674282 0.0120749937172)
(0.0205653378099 -0.0689746961031 0.0134129282568)
(0.0174361229577 -0.0728602610267 0.0148344528244)
(0.0139436468931 -0.0763519590737 0.015975854698)
(0.0101825348115 -0.0792828447516 0.0169246745645)
(0.00619179964467 -0.0813541707817 0.0177115867672)
(0.0019321272103 -0.0821301387876 0.0181599892156)
(-0.000977228728296 -0.00875807921438 0.00089308226995)
(-0.0027795487469 -0.00972931979263 0.00123781811999)
(-0.00471104810694 -0.0114218803215 0.000955055223121)
(-0.00644153677002 -0.0135893634239 0.000627897550737)
(-0.00738680932953 -0.0166290779111 0.000827419539543)
(-0.00780067440519 -0.0212007126005 0.000829192733211)
(-0.00966634406644 -0.0286535556307 5.41627084037e-05)
(-0.00584231898662 -0.0434281862265 -0.0032047688572)
(0.0031018759987 -0.0532128637365 -0.00316224548751)
(0.0102194127886 -0.0617956271598 -0.00335122096325)
(0.015312332794 -0.0688563628 -0.00485817363558)
(0.0179050077947 -0.0740506238188 -0.00258986609458)
(0.0193584770668 -0.077276600351 0.00731038731415)
(0.0187739661995 -0.0754568189479 0.0112705029184)
(0.0161716120977 -0.0797162259297 0.0104856245872)
(0.0134750915941 -0.083803561166 0.0114059096589)
(0.0105627959945 -0.0878376934689 0.0123372407251)
(0.00766276022213 -0.0913001303243 0.0131274445675)
(0.00467356430073 -0.0937950410935 0.0138884417378)
(0.00142406661646 -0.0947548869025 0.0144473333535)
(-0.00151798770954 -0.00808869383629 0.00119768570776)
(-0.00437615708787 -0.00897770729319 0.00137438785789)
(-0.00736644372005 -0.0103150722154 0.000801003789083)
(-0.010190278126 -0.0117981533183 0.000112908759277)
(-0.0125667691628 -0.013766287245 -0.000542168052692)
(-0.0145764167082 -0.0166595940299 -0.00129824108017)
(-0.0212491205194 -0.0209155101597 -0.00412905493142)
(-0.0188997616359 -0.0343497324934 -0.0195359766715)
(-0.00678684715715 -0.0368575891596 -0.0200694202164)
(0.0010803971027 -0.040997727993 -0.0174675801808)
(0.00780982544276 -0.0408202625472 -0.0118684748368)
(0.0142081190244 -0.0447069154601 -0.0070016710966)
(0.0231486316521 -0.0462409691791 -0.0091202311276)
(0.0219107922287 -0.0721221239797 0.0116567333675)
(0.0129126613786 -0.0832993242184 0.00558608215792)
(0.00937428684467 -0.0910035344154 0.00735931490609)
(0.00641911427597 -0.0965104101671 0.00828960551952)
(0.00447255701673 -0.10066882252 0.00904275007504)
(0.00276265117927 -0.103550949277 0.00978916562091)
(0.000774235461516 -0.104679156369 0.0104120759827)
(-0.0020209201632 -0.00690972150076 0.00174608973566)
(-0.00580651640557 -0.00770788527208 0.00181927351967)
(-0.00966604132576 -0.00877402189204 0.00108552625117)
(-0.0131271893896 -0.00977461503566 0.000384570718576)
(-0.01527140492 -0.0111125116266 -0.000331788446577)
(-0.0165363637055 -0.0130803823394 0.000744663007719)
(-0.0244019144467 -0.0151429945179 -0.000193033609556)