/*--------------------------------*- C++ -*----------------------------------*\
| =========                 |                                                 |
| \\      /  F ield         | OpenFOAM: The Open Source CFD Toolbox           |
|  \\    /   O peration     | Version:  v1606+                                |
|   \\  /    A nd           | Web:      www.OpenFOAM.com                      |
|    \\/     M anipulation  |                                                 |
\*---------------------------------------------------------------------------*/
FoamFile
{
    version     2.0;
    format      ascii;
    class       volScalarField;
    location    "5.9";
    object      k_0;
}
// * * * * * * * * * * * * * * * * * * * * * * * * * * * * * * * * * * * * * //

dimensions      [0 2 -2 0 0 0 0];

internalField   nonuniform List<scalar> 
11640
(
0.000268373838631
0.000323429604878
0.000359406696765
0.00038013650957
0.00039093227242
0.000394907819417
0.000394342905366
0.000391598621814
0.000388202150929
0.000384881558907
0.000382162848027
0.000380384985742
0.000380397304337
0.000381863556402
0.000382796293178
0.000380346292827
0.000371064113037
0.000350691897412
0.000314704963331
0.000260490217243
0.000325823168291
0.00053720547087
0.000654295587569
0.00072129168222
0.000759490295655
0.000777488702521
0.000779416374311
0.000771287723321
0.000760829508334
0.000751839349982
0.000746440670404
0.000746407759911
0.000751192737333
0.000756720116486
0.000756330075875
0.000743798104008
0.000713462697889
0.000651639159106
0.000533802303441
0.00031629216342
0.000362486074817
0.000654832507712
0.000823179981134
0.000929722370887
0.000992770017341
0.00101635858271
0.00100891188596
0.00098584482194
0.000960274227341
0.000936755427121
0.000924041035648
0.000928840978931
0.000941346808329
0.000956327773818
0.000962778528864
0.000948290401418
0.000901953940014
0.000812607730274
0.000652302678407
0.000352205444437
0.000383025611162
0.000724079003654
0.000934562517549
0.00107148448153
0.00114346197253
0.00115783802768
0.00113048569114
0.00108488300151
0.00103932649586
0.000997949968694
0.000979455170771
0.000992125984882
0.00101556842742
0.00104645504659
0.00106862235032
0.00106377763202
0.00101500050648
0.000906845152714
0.000716487115406
0.000372581040866
0.000395128071524
0.000768659571298
0.00100880685875
0.00115869064453
0.00122461563202
0.00121677279173
0.00115815865557
0.00108475713719
0.0010184699632
0.000960518658923
0.000939508645396
0.000960591114702
0.000997693055311
0.00105337120975
0.00110161944068
0.00111702741198
0.0010771511106
0.00096429117572
0.000754305948642
0.000383856895748
0.00040302928012
0.00079449470787
0.00104806906064
0.00119624364905
0.00124252102159
0.00119692545837
0.00108851391049
0.000977135427494
0.0008922990873
0.000825091749118
0.000806173620912
0.000831857886269
0.00088537102154
0.000982523975845
0.00107584065029
0.00112375112596
0.00110176477237
0.000993933828429
0.000776815025909
0.000391369340145
0.000405857575451
0.000802424334761
0.00105663002153
0.00119366396818
0.00121127467211
0.00111357905295
0.000929003842004
0.000763800942021
0.000669385378025
0.00060700144359
0.000599922292308
0.0006230234813
0.000690046674244
0.00084558300071
0.0010061363892
0.00109891122376
0.00110090450274
0.00100332661205
0.00078681219069
0.000396173329809
0.000403992817465
0.000797966122696
0.00104590193035
0.00116941420323
0.00116004128827
0.0010154371403
0.000759178663044
0.00056790675724
0.000481811935532
0.0004399552771
0.000430740487866
0.000450872035246
0.000526215829814
0.000709667885221
0.000934333894278
0.00106647451925
0.00108960416554
0.00100157203991
0.00078813891156
0.000397791235917
0.00040068116647
0.000792136749581
0.00103480452779
0.00114962497075
0.00112535385437
0.00095744547044
0.00067340585418
0.000473410624304
0.000385763190685
0.00035185265127
0.000346402223042
0.000371533304828
0.000455194154514
0.000643805849087
0.000895438644118
0.00104795201481
0.00108322181665
0.00100067238314
0.000788787905116
0.000398711315546
0.000398630530114
0.000792641765026
0.00103580725175
0.00114980721202
0.00112372340827
0.00095110763484
0.00065792442439
0.00044748756448
0.000357037708325
0.000327507590611
0.000327140521585
0.000356728895309
0.000446981997199
0.000642650426289
0.000902299801491
0.0010583509659
0.00109417779114
0.00100956436537
0.000794534251974
0.000400564759707
0.000398590213735
0.00080118954067
0.00105069017412
0.00117322802808
0.00116003265703
0.00100527113778
0.000726164685492
0.000507136377256
0.000415948661331
0.000382665211815
0.000380938419448
0.000414697353102
0.000508205785159
0.00071152859467
0.000959841115119
0.00110084583559
0.00112476512404
0.00103018665771
0.000806761600351
0.000403964258016
0.000398921758121
0.000813587111764
0.00107461100948
0.00121439407426
0.00123169094166
0.0011286910969
0.000927119731905
0.000744589121999
0.000658270325217
0.000614529875265
0.000587532552195
0.00062656801459
0.000721054279213
0.000899696023589
0.00108069965847
0.00117657169229
0.00117238911152
0.00106014966413
0.00082331166802
0.000407643024969
0.000396747609175
0.000820254067089
0.00109140845034
0.0012506135502
0.00130348590267
0.00125971859831
0.00114507373439
0.00102660305426
0.000947742870571
0.000889399892739
0.000871864564463
0.00092208056578
0.00100146708534
0.00111444564631
0.00121674871703
0.0012594562702
0.00122220386342
0.00108854983677
0.00083784459175
0.000409755414255
0.00039168995765
0.000815334058486
0.00108755436416
0.00126093440175
0.00134414816491
0.00134894089917
0.00129806681294
0.00123119377555
0.00117212177843
0.00112194317623
0.00111536028461
0.00115932326756
0.00121412216169
0.00127625234394
0.00132167432178
0.00132116772394
0.00125453790115
0.001103365677
0.000844219990257
0.000409291713974
0.000386634787425
0.000800683033365
0.00106032186852
0.00123565155981
0.00133767281406
0.00137519809642
0.00136458395458
0.00133163811461
0.00129564902352
0.00126467061993
0.00126522605975
0.00129686215674
0.00133105233046
0.00136144845906
0.00137221078934
0.00134274526706
0.00125627763933
0.00109691043556
0.000840079938561
0.000406970276929
0.000380309727745
0.000778126154193
0.00101440148541
0.00117400703498
0.00127873085156
0.00133354887522
0.00134841721533
0.00134098602977
0.00132692456783
0.001316666674
0.00132191346513
0.00134055635585
0.00135797412498
0.00136779923713
0.00135790345972
0.00131270745291
0.00122008443926
0.00106635248849
0.000822994132204
0.000401790198177
0.00036790681928
0.000738431508088
0.000951235086594
0.00108477910659
0.0011738462683
0.00122863823512
0.00125510964535
0.00126393295816
0.00126709176053
0.00127196576508
0.00127886840073
0.00128793781958
0.00129441972087
0.0012929884952
0.00127419767477
0.001227456752
0.00114301292163
0.00100637180225
0.000783424440554
0.000389286502967
0.000345375718667
0.000664375813362
0.000848102470029
0.000959084812311
0.0010279770325
0.00107084757122
0.00109663893457
0.00111273599883
0.00112309595501
0.00113082475959
0.00113701948774
0.0011416934725
0.00114331137887
0.00113836388881
0.00112053580309
0.00108219447441
0.00101333753351
0.00089825394982
0.000705540503846
0.000364637274893
0.000308673270311
0.000535856734003
0.000668363956799
0.000748824410682
0.000798131331425
0.000828010914137
0.00084741567854
0.000859583402461
0.000867507323597
0.000873306074071
0.000877941304788
0.000881290325917
0.000882542647498
0.000879254560256
0.000867180621093
0.00084090812453
0.000791815486822
0.000708182228631
0.000567450856294
0.000322676967093
0.000255741169104
0.000311132297523
0.000349305771586
0.000373333994626
0.000388212793535
0.000397144423274
0.000402627477851
0.000407065183138
0.000410456519754
0.000413224002906
0.000415621721902
0.000417561112424
0.000418778038235
0.000418465205051
0.000415485415328
0.000407838017598
0.00039293228228
0.000366956413699
0.000324110027143
0.000260414561254
0.000438687122011
0.000593703098163
0.000692915235377
0.000747926485276
0.000773525189983
0.00078149052546
0.000782791844666
0.000782498117951
0.000782511321976
0.000783177954064
0.000783810679792
0.000782939880973
0.000782117595467
0.000782425473135
0.000782179724164
0.000775096540323
0.000749751957549
0.00069340009221
0.000591068095905
0.000432327392466
0.000598998092521
0.00114915116647
0.00141749673204
0.00156016093698
0.00163041366032
0.00165993439021
0.00166583550902
0.0016613701615
0.00165636438061
0.00165427046438
0.00165221330755
0.00164808293318
0.00164562375688
0.00164550032404
0.00164093946376
0.00161886999013
0.00155636234796
0.00141659055381
0.00114718900502
0.00059289837816
0.000699742544034
0.00141989640328
0.00176694235829
0.00195534166808
0.00204586914816
0.0020745378301
0.00206981187294
0.00205458376112
0.00204255197889
0.00203527862469
0.00202491223737
0.00200993980331
0.0020035471396
0.00200814122569
0.00201238549711
0.00199546689567
0.00192609074492
0.00175772665741
0.00141780346432
0.000694597928885
0.000753343680012
0.0015623055501
0.00195169408446
0.00215739347535
0.0022444952566
0.00225422846565
0.00222251423499
0.00218409579326
0.00215855775507
0.00214353542203
0.00212327193471
0.00209979391972
0.00209578479331
0.00211741578479
0.00214528485915
0.00215026528134
0.00209334995732
0.00192341879935
0.00155759425669
0.000750050851374
0.0007762495251
0.00162479395602
0.00202977533797
0.00223236200488
0.0022978064491
0.00226658096255
0.00218202932679
0.00210131726012
0.0020542838698
0.00202961481848
0.0020006110149
0.00197391719926
0.00198463793284
0.00204869603443
0.00212426418501
0.00216823275511
0.00213794404096
0.00198214390271
0.0016155408905
0.00077461924088
0.000781655798575
0.00163809700407
0.00204046364618
0.0022251784002
0.00225023415377
0.00214852635858
0.00196580986476
0.00180848757778
0.00173178395208
0.00169959816193
0.00166283572417
0.00163568123135
0.00167759643824
0.00183305130942
0.00200055598329
0.00210781112533
0.00211584875757
0.00198270463477
0.00162694464735
0.000782052124474
0.000778556126834
0.00162672709682
0.00201651252648
0.00217396732547
0.00214458315964
0.0019415451417
0.00158820998597
0.00128863092925
0.00118398827732
0.00116353068664
0.00112384623576
0.00109766879804
0.0011840756799
0.00149710744934
0.00181594168872
0.00201340761348
0.002069380561
0.00196202704155
0.00161996114475
0.000782371618947
0.000773085220289
0.00160999529273
0.00198479283826
0.00211598168517
0.00203672722383
0.00173848778945
0.00120470332223
0.000836955592405
0.000735961405344
0.000738126073171
0.000725357906745
0.000712915645209
0.000812420533177
0.00116324387769
0.00164255792289
0.00192929667269
0.00202962539765
0.00194369148676
0.00161146318245
0.000780871696598
0.000769464905982
0.00160129193608
0.0019671484101
0.00208304556209
0.00197766917402
0.00163650275255
0.00104437166999
0.000666793563135
0.000553147025827
0.000554080995017
0.000551556905904
0.000548005015908
0.000659560180608
0.00101652580817
0.0015582570632
0.00188963861189
0.00201478090564
0.00193988125429
0.00161083218855
0.000781122962379
0.000771156332459
0.00160868613388
0.00197595001175
0.00209238349394
0.00198751419837
0.00164632710036
0.00105033294487
0.000662048096527
0.000542895668354
0.000545810646699
0.000546660993151
0.000540462527916
0.00065348633604
0.00102097719231
0.00157517431777
0.00191253281092
0.00203821740769
0.00195930339474
0.00162371809489
0.000785004541303
0.000779215156889
0.00163466878949
0.00201470089816
0.00214912804481
0.0020736426328
0.00178037963691
0.0012448356786
0.000851418056347
0.000736506485803
0.000744589345763
0.00074589274681
0.000724657616664
0.000819641677272
0.00119570524895
0.00170736934984
0.00200671105624
0.00210550625592
0.00200598459623
0.00165283304903
0.000793816221996
0.000792756733418
0.00167665895544
0.00208001698347
0.00224770222972
0.00223047169293
0.0020451511069
0.00170565041664
0.00137368439445
0.00126634945676
0.00127155490945
0.00127803446253
0.0012680696615
0.00135725757879
0.00165326931817
0.00198279195659
0.00217700746322
0.00221709470487
0.00208031573072
0.00169820603743
0.000807283129962
0.00080865789361
0.00172594043024
0.0021575597025
0.00236422039527
0.0024110842605
0.00233572408728
0.00217808009493
0.00203039421733
0.0019708902133
0.00196533426237
0.001960592324
0.00196148373137
0.00201392828945
0.00214903903891
0.00230052665261
0.00238355928763
0.00235713897983
0.00217457211102
0.0017551180182
0.000823875389464
0.000821244636276
0.00176781083845
0.00222700286146
0.00247087143095
0.00257276226203
0.0025792071582
0.00253266199929
0.00248630600803
0.0024691106843
0.0024731487147
0.00247361990578
0.00247186177801
0.00248943238578
0.0025333142411
0.00257849801862
0.00258052524996
0.0024952532121
0.00226658613562
0.00180793910092
0.000838013559731
0.000824294892955
0.00178387774844
0.00226184755013
0.00253487077638
0.00267768498844
0.00273758540377
0.00275256638954
0.00275630406849
0.00276550979897
0.00278008641491
0.00278746468388
0.00278463071332
0.00278319168923
0.00278360902359
0.00277304023469
0.00272210071288
0.00259034941186
0.00232329405809
0.00183351196824
0.000842176541329
0.000811728307468
0.00175539300905
0.00223473767446
0.00252116586474
0.00268863654873
0.00278010439627
0.0028278002315
0.00285634867174
0.00287878965897
0.00289796831217
0.00290820615038
0.00290677491116
0.00289851965085
0.00288013883299
0.00284144094445
0.0027596403114
0.00259979589725
0.00230998119913
0.00181018239158
0.000830496384272
0.000776121741189
0.00166488334796
0.00212180444805
0.00240090003669
0.00257096435817
0.0026722329726
0.00273145146702
0.0027679074712
0.00279319435215
0.00281089163043
0.00282126205889
0.00282279924753
0.00281533387552
0.00279364922548
0.00274653931115
0.00265409938796
0.00248575909289
0.00219747799664
0.0017192488823
0.000794103035264
0.000708893165821
0.00148987532377
0.00189404501467
0.00214366684406
0.0022985497589
0.00239227625792
0.00244819121929
0.00248206750715
0.00250358781992
0.00251759155111
0.00252611321564
0.00252888699162
0.0025235380156
0.0025039463343
0.00245924196965
0.00237217072934
0.00221738481263
0.00195944318198
0.00153679164561
0.00072345277167
0.000597437874038
0.00118932799703
0.00149958433481
0.00169137096288
0.00181115735545
0.00188425078788
0.00192762936207
0.00195314551508
0.00196818682403
0.00197729035435
0.00198242192635
0.00198377732109
0.00197921075861
0.0019637110622
0.00192834631408
0.00186027199585
0.00174112709635
0.00154379040613
0.00122036820836
0.000605408071125
0.000431456801786
0.000600514561053
0.000715409492103
0.000788834535972
0.000835562852474
0.00086487511369
0.00088287496112
0.000893611137278
0.000899511195198
0.000902733958944
0.000903926343128
0.000903230713495
0.000900056336159
0.000892300897163
0.000877156336231
0.000849642929553
0.000803496930382
0.000728329844435
0.000608121238888
0.000428673903454
0.000509326904797
0.000733067265395
0.000875894548162
0.00095588937299
0.000994303182143
0.00100757142228
0.00100929661996
0.00100711727445
0.00100498651808
0.00100430909792
0.00100498573599
0.00100618829415
0.00100842060895
0.00101118452489
0.00101068236087
0.000998431622946
0.000959734075937
0.000877509940886
0.000730252855398
0.000500211630002
0.000739641891971
0.00147417575847
0.00182498369293
0.00201622032269
0.0021137569663
0.00215359420885
0.00215850671521
0.00214732085796
0.00213477970201
0.00212725628953
0.00212462419847
0.00212556334482
0.00213101055743
0.00213755041758
0.00213300215721
0.00209919902086
0.00200879995728
0.00181984301805
0.00146833874738
0.0007322034271
0.00088447785794
0.00182884158225
0.00227317654298
0.00251982706882
0.00263975330948
0.00267611983978
0.00266482077691
0.00263682427266
0.00261220247436
0.00259662567916
0.00258729152193
0.0025840187201
0.00259268328967
0.00261127246772
0.00262116038162
0.00259313964239
0.00248957080621
0.00226013862216
0.00182313605162
0.000879214773889
0.000963030710033
0.00202160102007
0.00251852453234
0.00278581143039
0.00290056962421
0.00291108369793
0.00286297681922
0.00280225059923
0.00275708478196
0.00273025579765
0.00271316649257
0.00270776466113
0.00272825416628
0.00277527305185
0.00281996199063
0.00282060147067
0.00272959761958
0.0024914157924
0.00201541127253
0.000961352938593
0.000998362077568
0.0021124812788
0.00263081719211
0.00289462039274
0.00298075050943
0.00293704448677
0.00281811307193
0.00269916701781
0.00262334968947
0.00258389393087
0.00255977579619
0.00255670216631
0.00260354147961
0.0027108217075
0.00282253661265
0.00287597890536
0.00281789420175
0.00259209802796
0.00210637200168
0.00100065123124
0.00100845427475
0.00213875803123
0.00265631808066
0.00289794327897
0.00293211474977
0.00279585594079
0.00254243054787
0.00231113053239
0.00219098521117
0.00214157872213
0.00211003935394
0.00210920676345
0.00220382235163
0.00244353177785
0.0026824601325
0.00282159670623
0.00281410421794
0.00261457356451
0.0021359429183
0.00101516354138
0.00100573646891
0.00213065334886
0.00263459648288
0.00284279805493
0.00280806283994
0.00253633779933
0.00202534315964
0.00152352883893
0.00135037073416
0.00130939245736
0.00126982435779
0.00126506000035
0.00143143561111
0.00198440416136
0.0024511046024
0.00271267316365
0.00276831710531
0.00260106710254
0.00213653613835
0.0010181900199
0.000999701855147
0.00211359352493
0.00260115574027
0.00277767771413
0.00267991690683
0.0022712651274
0.00142241426728
0.000751869954164
0.000592248053554
0.00057111522582
0.000572431542992
0.000601317883405
0.000777126362936
0.0014351049509
0.0022167461935
0.00260809556796
0.00272308999562
0.00258379937651
0.00213103865433
0.00101757574889
0.000996582331779
0.00210627767721
0.0025847345885
0.00274433824534
0.00261586022323
0.00215315560958
0.00122492903818
0.000592748391366
0.000419058625809
0.00038684570397
0.000387474898557
0.000420100274995
0.000597045138285
0.00123226597363
0.00210790292041
0.00256130245442
0.00270854762194
0.0025831729913
0.00213397407273
0.00101935755513
0.00100083468126
0.00211965065263
0.0026018222299
0.00276475810798
0.00264074414171
0.00218533836853
0.00126235477523
0.000621401392969
0.000444023069251
0.000411705309918
0.00040668469586
0.00042860535659
0.000597981663419
0.00124734465523
0.00213754536015
0.00259716707109
0.00274364688389
0.00261241508188
0.00215432321254
0.00102657634814
0.00101429909135
0.00215669298122
0.00265672201467
0.00284485923475
0.00276293228345
0.00238286066106
0.0015726425213
0.000872117222743
0.000695242755366
0.000672488577984
0.000667294209897
0.000670568329685
0.000812635688992
0.00151817543143
0.00232868561384
0.00272871762369
0.00283623817463
0.00267674546009
0.00219553231388
0.00104083607492
0.00103548790734
0.00221258247716
0.00274239788629
0.00297436009373
0.00296912386194
0.00274278188522
0.00229292201156
0.00170596923746
0.00153607712593
0.00154011699707
0.00157208990861
0.00160576006349
0.00175858917096
0.00224526714489
0.00270693180084
0.00295442312386
0.0029822563352
0.00277333362989
0.00225539326887
0.00106159887295
0.00105872091811
0.00227385720541
0.00283809554232
0.00312060077766
0.00319873376932
0.00311693536282
0.0029254985396
0.00272241114254
0.00263211918814
0.00261748987398
0.00262441051765
0.00265100580702
0.00273924299996
0.00292445669148
0.00311995835391
0.00321418818149
0.00315313107306
0.00288599709581
0.00232437485358
0.00108531320267
0.0010761832393
0.00232105466356
0.0029161079353
0.00324470306618
0.00339303072109
0.00341465806862
0.00336249547827
0.00329989741688
0.00326863577628
0.00326593086563
0.00327332752579
0.00328967227419
0.00332998557357
0.00339702510211
0.00345446677518
0.00344282317778
0.00330667146935
0.00298492801585
0.00238219950565
0.00110384706052
0.00107838801301
0.00233209587116
0.0029443654701
0.00330582107149
0.00350443653128
0.00359321860169
0.00361790329568
0.00362049436164
0.00362499172507
0.0036362287937
0.00364801060089
0.00365759937205
0.00366969707944
0.00367917520544
0.00366434989642
0.00358572114371
0.0033948663739
0.00303304071421
0.0024023347857
0.00110712389855
0.00105785977997
0.00228544810015
0.0028934454921
0.00326630120766
0.00349224952968
0.00361921728854
0.00368494988425
0.00372036046869
0.00374422984648
0.00376354782105
0.0037772767363
0.00378321192466
0.0037808540474
0.00376237930054
0.00371014394838
0.00359423787864
0.00337416051919
0.00299412826075
0.00235998139316
0.00108685641803
0.00100467379423
0.00216010678436
0.00273740837616
0.00309693349489
0.0033227262254
0.00346041533417
0.00354117162833
0.00358906821706
0.00361994609528
0.00364098013618
0.00365452274778
0.0036593002584
0.0036522309139
0.00362434079546
0.0035594654516
0.00343250073869
0.00320804724405
0.00283648115287
0.00223211557149
0.00103182491882
0.000906861187266
0.00192777731952
0.00244222431159
0.00276486010349
0.00296983746675
0.00309701987941
0.00317398340137
0.00322065430436
0.00324994441589
0.00326892856083
0.00328035156795
0.00328398834025
0.00327604088765
0.00324775425078
0.00318478393156
0.00306563603265
0.00286028646425
0.00252659494572
0.00198883214147
0.000929066455098
0.000744494901488
0.00153545295575
0.00194108378563
0.00219550455277
0.0023575354421
0.00245853332681
0.00251984340683
0.00255671167525
0.00257887095985
0.00259230406561
0.00259964773235
0.00260097392333
0.00259306584154
0.00256888370578
0.0025172915119
0.00242191835635
0.00225983054056
0.00199772254406
0.00157574024311
0.0007583747745
0.000499650186918
0.00074739592752
0.000914486851864
0.00102161314808
0.00109063443284
0.0011346062207
0.00116215600408
0.00117856559761
0.0011882907732
0.00119362817859
0.00119589955311
0.0011950946307
0.00118993183312
0.00117799328082
0.00115430731198
0.00111291049147
0.00104420819994
0.00093447277513
0.00076091770104
0.000502242862121
0.000554290898067
0.000829285189892
0.00100558015946
0.00110557649481
0.00115480720144
0.00117206454568
0.00117318242554
0.0011680658607
0.00116278292527
0.00115994915874
0.00116028151503
0.00116338331771
0.00116887200441
0.00117470118544
0.00117482641665
0.00115854851578
0.00110889614232
0.00100639173575
0.000825042724801
0.000541731022383
0.00083683252331
0.00170199598829
0.00211532251265
0.00234468435169
0.00246352718267
0.00251108981487
0.00251364201763
0.00249514703514
0.00247470315016
0.00246170203498
0.00245817871007
0.00246343787264
0.0024763599116
0.00248983000275
0.00248679469958
0.00244468340955
0.00233251180916
0.00210538227567
0.00169211913468
0.000827104672596
0.00101550618425
0.00212020068559
0.00263638261545
0.00292596369821
0.00306771397453
0.00310910225466
0.00309117153743
0.00305136751283
0.0030155908771
0.00299347521365
0.0029851670794
0.00299100764747
0.00301247772387
0.00304296874855
0.00305814432273
0.00302243562658
0.00289368538027
0.00261942213823
0.00211088152938
0.00100876321943
0.00111432939079
0.00235259641714
0.00292734699993
0.00323913117313
0.00337412296783
0.00338460291526
0.00332249144484
0.0032426807978
0.00318135376407
0.00314660847011
0.00313302274296
0.00314196752064
0.0031821743815
0.00324830166639
0.00330595101709
0.00330325692014
0.00318731215944
0.00290015792854
0.00234462676187
0.00111248010088
0.00116075330583
0.00246743664826
0.00306782647548
0.0033763830249
0.00347871160682
0.00342620997296
0.00328056557808
0.00313069885717
0.00303171308227
0.00298384108726
0.00296632391547
0.00298281994851
0.00305830662362
0.00319386957267
0.00333133048679
0.00339023194512
0.00331084730668
0.00303460666028
0.00246315310998
0.00116477388198
0.00117549531264
0.00250644297815
0.00310855241921
0.0033935475718
0.00343755267062
0.00327848971811
0.00297124460759
0.0026731451794
0.00251456163269
0.00245877048543
0.0024398958275
0.00246451489943
0.00260314710841
0.00289955468804
0.00318916799207
0.00334800715267
0.0033261967694
0.0030774257013
0.00250969568467
0.00118636290309
0.00117400590988
0.00250347231995
0.00309280664854
0.00334192968902
0.0033094286238
0.00299299966171
0.00234116701832
0.0016031549571
0.00135748089546
0.00129914860193
0.00128833830587
0.00132249400736
0.00154530161935
0.00234444800137
0.00293590947017
0.00323771010431
0.0032874738911
0.00307396344641
0.00251926330249
0.00119285103791
0.00116773466584
0.00248802669411
0.00306129955661
0.00327647822444
0.00317527477737
0.00270678669203
0.00154451519395
0.0015385281002
0.00267226500901
0.00312826151178
0.00324429010121
0.00306147335522
0.00251868199095
0.00119425840421
0.00116526371894
0.00248292346149
0.00304792137179
0.00324599353377
0.00311253056329
0.00258549984641
0.00133362142388
0.00131983780056
0.00255696923371
0.00308307031034
0.00323418990514
0.00306616010528
0.00252636860031
0.00119815180259
0.00117202436471
0.00250175505695
0.00307251785969
0.0032760212688
0.00314960717639
0.00263325979401
0.00137855871593
0.00134873502259
0.00260040337155
0.00313174240372
0.00328036518723
0.00310472013688
0.00255390313324
0.00120886601727
0.00118957308763
0.00254765643715
0.00313961013895
0.0033730506802
0.00329592129458
0.00286658766942
0.00172877468236
0.00166858155528
0.00282992152315
0.00328981193934
0.00339205421573
0.00318320453873
0.00260524168391
0.0012281154795
0.00121609479096
0.00261367793209
0.00323933097567
0.00352311833695
0.00353327777417
0.00328248548562
0.00273809186206
0.00182924105279
0.00161167869611
0.00157105203477
0.0015689712473
0.0016129058976
0.00184068358134
0.00268043545079
0.00326978115581
0.00354975152505
0.0035613357672
0.00329589160324
0.00267659647617
0.00125479177382
0.00124444138169
0.0026822707697
0.00334566293034
0.00368702459104
0.00379330974852
0.00371152046275
0.00349841291711
0.00325460308175
0.0031374012832
0.00310690194626
0.00311352329627
0.0031513174964
0.00326968573334
0.0035159582379
0.00374347865194
0.00384156250471
0.00375081685118
0.00341990466922
0.00275334586356
0.00128375273301
0.00126401676615
0.00273088915705
0.00342598116312
0.00381795464575
0.00400376084873
0.00404032165417
0.00398708969833
0.00391503598697
0.00387282227042
0.00386411628719
0.00387574625289
0.00390349258609
0.00396069078003
0.00404543378313
0.00411045922092
0.00408608009953
0.00391054535927
0.00352103073226
0.00281278899496
0.0013048000602
0.00126389331239
0.0027350548357
0.00344539455672
0.00387131435874
0.00411239398279
0.00422492272217
0.00425905746576
0.00426223083729
0.00426366211304
0.00427305798449
0.00428812189525
0.00430576600183
0.00432734693538
0.00434324858736
0.00432420113818
0.00422380425583
0.00398930336192
0.0035596223112
0.00282640328241
0.00130584358711
0.00123585991197
0.00267185537474
0.00337363647991
0.00380888692283
0.00407825198022
0.00423290145445
0.00431361413248
0.00435544371203
0.00438123750491
0.00440148089714
0.0044180991544
0.00442890716598
0.00443067739971
0.00441176775419
0.00434893806726
0.0042074860752
0.00394352689474
0.00349884121346
0.00276735349985
0.00127749706565
0.00116816153708
0.00251775509352
0.00318319666516
0.00360169686282
0.00386931807886
0.00403522394541
0.00413330753115
0.00419081725325
0.00422663325771
0.00425088367438
0.00426717155014
0.00427439654306
0.0042676675958
0.00423502470463
0.00415654725616
0.00400340296944
0.00373741835073
0.00330545182817
0.00260948503904
0.00120733967814
0.00104637228931
0.00224078548824
0.0028368410028
0.00321424266198
0.00345795379348
0.00361177524415
0.00370601356581
0.00376346136019
0.00379928401204
0.00382248894967
0.0038364851238
0.00384111877432
0.00383137647823
0.00379640105461
0.0037190724151
0.00357503371345
0.00333120700997
0.00294120236653
0.00231855482633
0.00107883661929
0.000845294935894
0.00177926229175
0.00225672726382
0.00255939564175
0.00275482002286
0.00287862840133
0.00295497297013
0.00300163418209
0.00303007554308
0.00304744154537
0.00305699407836
0.00305863180193
0.00304830493568
0.00301747685188
0.00295305061318
0.00283593877177
0.00264009692075
0.00232817190879
0.00183148410925
0.000867032772658
0.000540940273018
0.000847993607586
0.00105467026222
0.00118784900363
0.00127443149835
0.00133011414425
0.00136519617114
0.00138686810641
0.00139988221832
0.00140761082921
0.00141115769968
0.00141089863061
0.00140484780858
0.00138967462348
0.00135998660402
0.00130736603162
0.00122110797891
0.00108438340725
0.000869270152085
0.000549107640388
0.000588104181085
0.000901800712304
0.00110438169014
0.00122061154896
0.00127875237057
0.00129881209878
0.00129858418936
0.00129018110524
0.00128162304298
0.00127660027695
0.00127649158157
0.00128118348427
0.00128966241294
0.00129865094299
0.00129998516162
0.00128079750956
0.00122242035088
0.00110358703069
0.000895657271147
0.000572069517401
0.000910307057521
0.00187497153854
0.00233959411037
0.0026011188104
0.00273763265231
0.00279102349129
0.00279034750672
0.0027640130153
0.00273551278765
0.0027170917172
0.00271253225192
0.00272158957886
0.00274119999497
0.00276139033687
0.00276061219315
0.00271225384838
0.00258247780516
0.00232392975036
0.00186052069521
0.000897911488906
0.00111555610229
0.00234536985908
0.00292139303145
0.00324704586665
0.00340700439263
0.00345194155417
0.00342728172043
0.00337600226915
0.00332958179939
0.00330121686732
0.00329344922339
0.00330636659013
0.00333861115265
0.00337933376536
0.00339953169862
0.00335824932985
0.00320954441544
0.00289881514507
0.00233161396589
0.00110678387347
0.00123081620923
0.00261127525039
0.00325118756045
0.00360033813627
0.00375210349296
0.00376205924559
0.00368740009986
0.00358992742944
0.00351354714719
0.0034712458947
0.00345994893624
0.00348034048416
0.00353678893889
0.0036183860109
0.00368697212203
0.00368215160509
0.00354677651226
0.00322046852724
0.00260003728017
0.00122799947848
0.00128648230623
0.00274715425353
0.00341654471645
0.00376273391233
0.0038787900489
0.00381942843499
0.00365154589934
0.00347355863044
0.00335261029122
0.00329535516984
0.00328247249605
0.00331504783219
0.00341444737642
0.00357258072086
0.00373136983338
0.0037951736389
0.00369946099671
0.00338331495395
0.00274215487441
0.00129121975732
0.00130529545492
0.00279793939295
0.00347155701957
0.00379346315574
0.00384689289194
0.00367148055261
0.00332305840007
0.00296862917052
0.00277201985805
0.00270381247312
0.00269300139774
0.00274042169097
0.00291853686156
0.00325632587674
0.00358890510534
0.00376421806288
0.00373179814404
0.00344424871036
0.00280401648449
0.00131893269685
0.00130474190629
0.00280026817237
0.00346235631933
0.00374697603913
0.00371908112604
0.00337212365589