/*--------------------------------*- C++ -*----------------------------------*\
| =========                 |                                                 |
| \\      /  F ield         | OpenFOAM: The Open Source CFD Toolbox           |
|  \\    /   O peration     | Version:  v1606+                                |
|   \\  /    A nd           | Web:      www.OpenFOAM.com                      |
|    \\/     M anipulation  |                                                 |
\*---------------------------------------------------------------------------*/
FoamFile
{
    version     2.0;
    format      ascii;
    class       pointVectorField;
    location    "5.9";
    object      pointDisplacement;
}
// * * * * * * * * * * * * * * * * * * * * * * * * * * * * * * * * * * * * * //

dimensions      [0 1 0 0 0 0 0];

internalField   nonuniform List<vector> 
13461
(
(0 0 0)
(0 0 0)
(0 0 0)
(0 0 0)
(0 0 0)
(0 0 0)
(0 0 0)
(0 0 0)
(0 0 0)
(0 0 0)
(0 0 0)
(0 0 0)
(0 0 0)
(0 0 0)
(0 0 0)
(0 0 0)
(0 0 0)
(0 0 0)
(0 0 0)
(0 0 0)
(0 0 0)
(0 0 0)
(0 0 0)
(0 0 0)
(0 0 0)
(0 0 0)
(0 0 0)
(0 0 0)
(0 0 0)
(0 0 0)
(0 0 0)
(0 0 0)
(0 0 0)
(0 0 0)
(0 0 0)
(0 0 0)
(0 0 0)
(0 0 0)
(0 0 0)
(0 0 0)
(0 0 0)
(0 0 0)
(0 0 0)
(0 0 0)
(0 0 0)
(0 0 0)
(0 0 0)
(0 0 0)
(0 0 0)
(0 0 0)
(0 0 0)
(0 0 0)
(0 0 0)
(0 0 0)
(0 0 0)
(0 0 0)
(0 0 0)
(0 0 0)
(0 0 0)
(0 0 0)
(0 0 0)
(0 0 0)
(0 0 0)
(0 0 0)
(0 0 0)
(0 0 0)
(0 0 0)
(0 0 0)
(0 0 0)
(0 0 0)
(0 0 0)
(0 0 0)
(0 0 0)
(0 0 0)
(0 0 0)
(0 0 0)
(0 0 0)
(0 0 0)
(0 0 0)
(0 0 0)
(0 0 0)
(0 0 0)
(0 0 0)
(0 0 0)
(0 0 0)
(0 0 0)
(0 0 0)
(0 0 0)
(0 0 0)
(0 0 0)
(0 0 0)
(0 0 0)
(0 0 0)
(0 0 0)
(0 0 0)
(0 0 0)
(0 0 0)
(0 0 0)
(0 0 0)
(0 0 0)
(0 0 0)
(0 0 0)
(0 0 0)
(0 0 0)
(0 0 0)
(0 0 0)
(0 0 0)
(0 0 0)
(0 0 0)
(0 0 0)
(0 0 0)
(0 0 0)
(0 0 0)
(0 0 0)
(0 0 0)
(0 0 0)
(0 0 0)
(0 0 0)
(0 0 0)
(0 0 0)
(0 0 0)
(0 0 0)
(0 0 0)
(0 0 0)
(0 0 0)
(0 0 0)
(0 0 0)
(0 0 0)
(0 0 0)
(0 0 0)
(0 0 0)
(0 0 0)
(0 0 0)
(0 0 0)
(0 0 0)
(0 0 0)
(0 0 0)
(0 0 0)
(0 0 0)
(0 0 0)
(0 0 0)
(0 0 0)
(0 0 0)
(0 0 0)
(0 0 0)
(0 0 0)
(0 0 0)
(0 0 0)
(0 0 0)
(0 0 0)
(0 0 0)
(0 0 0)
(0 0 0)
(0 0 0)
(0 0 0)
(0 0 0)
(0 0 0)
(0 0 0)
(0 0 0)
(0 0 0)
(0 0 0)
(0 0 0)
(0 0 0)
(0 0 0)
(0 0 0)
(0 0 0)
(0 0 0)
(0 0 0)
(0 0 0)
(0 0 0)
(0 0 0)
(0 0 0)
(0 0 0)
(0 0 0)
(0 0 0)
(0 0 0)
(0 0 0)
(0 0 0)
(0 0 0)
(0 0 0)
(0 0 0)
(0 0 0)
(0 0 0)
(0 0 0)
(0 0 0)
(0 0 0)
(0 0 0)
(0 0 0)
(0 0 0)
(0 0 0)
(0 0 0)
(0 0 0)
(0 0 0)
(0 0 0)
(0 0 0)
(0 0 0)
(0 0 0)
(0 0 0)
(0 0 0)
(0 0 0)
(0 0 0)
(0 0 0)
(0 0 0)
(0 0 0)
(0 0 0)
(0 0 0)
(0 0 0)
(0 0 0)
(0 0 0)
(0 0 0)
(0 0 0)
(0 0 0)
(0 0 0)
(0 0 0)
(0 0 0)
(0 0 0)
(0 0 0)
(0 0 0)
(0 0 0)
(0 0 0)
(0 0 0)
(0 0 0)
(0 0 0)
(0 0 0)
(0 0 0)
(0 0 0)
(0 0 0)
(0 0 0)
(0 0 0)
(0 0 0)
(0 0 0)
(0 0 0)
(0 0 0)
(0 0 0)
(0 0 0)
(0 0 0)
(0 0 0)
(0 0 0)
(0 0 0)
(0 0 0)
(0 0 0)
(0 0 0)
(0 0 0)
(0 0 0)
(0 0 0)
(0 0 0)
(0 0 0)
(0 0 0)
(0 0 0)
(0 0 0)
(0 0 0)
(0 0 0)
(0 0 0)
(0 0 0)
(0 0 0)
(0 0 0)
(0 0 0)
(0 0 0)
(0 0 0)
(0 0 0)
(0 0 0)
(0 0 0)
(0 0 0)
(0 0 0)
(0 0 0)
(0 0 0)
(0 0 0)
(0 0 0)
(0 0 0)
(0 0 0)
(0 0 0)
(0 0 0)
(0 0 0)
(0 0 0)
(0 0 0)
(0 0 0)
(0 0 0)
(0 0 0)
(0 0 0)
(0 0 0)
(0 0 0)
(0 0 0)
(0 0 0)
(0 0 0)
(0 0 0)
(0 0 0)
(0 0 0)
(0 0 0)
(0 0 0)
(0 0 0)
(0 0 0)
(0 0 0)
(0 0 0)
(0 0 0)
(0 0 0)
(0 0 0)
(0 0 0)
(0 0 0)
(0 0 0)
(0 0 0)
(0 0 0)
(0 0 0)
(0 0 0)
(0 0 0)
(0 0 0)
(0 0 0)
(0 0 0)
(0 0 0)
(0 0 0)
(0 0 0)
(0 0 0)
(0 0 0)
(0 0 0)
(0 0 0)
(0 0 0)
(0 0 0)
(0 0 0)
(0 0 0)
(0 0 0)
(0 0 0)
(0 0 0)
(0 0 0)
(0 0 0)
(0 0 0)
(0 0 0)
(0 0 0)
(0 0 0)
(0 0 0)
(0 0 0)
(0 0 0)
(0 0 0)
(0 0 0)
(0 0 0)
(0 0 0)
(0 0 0)
(0 0 0)
(0 0 0)
(0 0 0)
(0 0 0)
(0 0 0)
(0 0 0)
(0 0 0)
(0 0 0)
(0 0 0)
(0 0 0)
(0 0 0)
(0 0 0)
(0 0 0)
(0 0 0)
(0 0 0)
(0 0 0)
(0 0 0)
(0 0 0)
(0 0 0)
(0 0 0)
(0 0 0)
(0 0 0)
(0 0 0)
(0 0 0)
(0 0 0)
(0 0 0)
(0 0 0)
(0 0 0)
(0 0 0)
(0 0 0)
(0 0 0)
(0 0 0)
(0 0 0)
(0 0 0)
(0 0 0)
(0 0 0)
(0 0 0)
(0 0 0)
(0 0 0)
(0 0 0)
(0 0 0)
(0 0 0)
(0 0 0)
(0 0 0)
(0 0 0)
(0 0 0)
(0 0 0)
(0 0 0)
(0 0 0)
(0 0 0)
(0 0 0)
(0 0 0)
(0 0 0)
(0 0 0)
(0 0 0)
(0 0 0)
(0 0 0)
(0 0 0)
(0 0 0)
(0 0 0)
(0 0 0)
(0 0 0)
(0 0 0)
(0 0 0)
(0 0 0)
(0 0 0)
(0 0 0)
(0 0 0)
(0 0 0)
(0 0 0)
(0 0 0)
(0 0 0)
(0 0 0)
(0 0 0)
(0 0 0)
(0 0 0)
(0 0 0)
(0 0 0)
(0 0 0)
(0 0 0)
(0 0 0)
(0 0 0)
(0 0 0)
(0 0 0)
(0 0 0)
(0 0 0)
(0 0 0)
(0 0 0)
(0 0 0)
(0 0 0)
(0 0 0)
(0 0 0)
(0 0 0)
(0 0 0)
(0 0 0)
(0 0 0)
(0 0 0)
(0 0 0)
(0 0 0)
(0 0 0)
(0 0 0)
(0 0 0)
(0 0 0)
(0 0 0)
(0 0 0)
(0 0 0)
(0 0 0)
(0 0 0)
(0 0 0)
(0 0 0)
(0 0 0)
(0 0 0)
(0 0 0)
(0 0 0)
(0 0 0)
(0 0 0)
(0 0 0)
(0 0 0)
(0 0 0)
(0 0 0)
(0 0 0)
(0 0 0)
(0 0 0)
(0 0 0)
(0 0 0)
(0 0 0)
(0 0 0)
(0 0 0)
(0 0 0)
(0 0 0)
(0 0 0)
(-1.20224752484e-06 -1.10099522246e-05 5.20939360253e-06)
(-1.33249167565e-05 -0.000122142453304 4.8146929102e-05)
(-2.74348522652e-05 -0.000251724002378 7.93494841728e-05)
(-3.33634999784e-05 -0.000306201184244 7.23386651712e-05)
(-3.33693500432e-05 -0.000306201184244 4.81517584846e-05)
(-3.33752001082e-05 -0.000306201184244 2.39648517981e-05)
(-3.3381050173e-05 -0.000306201184244 -2.22054888484e-07)
(-3.33869002379e-05 -0.000306201184244 -2.4408961575e-05)
(-3.33927503029e-05 -0.000306201184244 -4.85958682616e-05)
(-3.33986003677e-05 -0.000306201184244 -7.27827749481e-05)
(-2.74664813188e-05 -0.000251724002378 -7.97204436145e-05)
(-1.33342252679e-05 -0.000122142453304 -4.83336976695e-05)
(-1.20233828571e-06 -1.10099522246e-05 -5.22675274127e-06)
(0 0 0)
(0 0 0)
(0 0 0)
(0 0 0)
(0 0 0)
(0 0 0)
(0 0 0)
(-9.79723294786e-06 -8.97903776907e-05 4.95786785159e-05)
(-4.70846281171e-05 -0.000432859447118 0.000204847841928)
(-9.30665867712e-05 -0.000858509383745 0.000338547825414)
(-0.000129053479885 -0.00119310088238 0.000376333424483)
(-0.000142570997135 -0.00131840068786 0.000311750393994)
(-0.000142679450154 -0.00131840068786 0.000207609671353)
(-0.000142787903172 -0.00131840068786 0.000103468948712)
(-0.000142896356191 -0.00131840068786 -6.71773928367e-07)
(-0.00014300480921 -0.00131840068786 -0.000104812496569)
(-0.000143113262229 -0.00131840068786 -0.00020895321921)
(-0.000143221715247 -0.00131840068786 -0.000313093941851)
(-0.000129764024172 -0.00119310088238 -0.000377612810422)
(-9.3526458791e-05 -0.000858509383745 -0.000339590662169)
(-4.72249165907e-05 -0.000432859447118 -0.000205452229537)
(-9.80427557329e-06 -8.97903776907e-05 -4.9717220586e-05)
(0 0 0)
(0 0 0)
(0 0 0)
(0 0 0)
(0 0 0)
(-9.7967299032e-06 -8.97903776907e-05 5.66712427375e-05)
(-6.34112740695e-05 -0.000583958471057 0.000322500280565)
(-0.000142245638079 -0.00131840068786 0.000624172561917)
(-0.000220042256203 -0.00205091632188 0.000809283874596)
(-0.000275498737321 -0.00257572997539 0.000813200694287)
(-0.000295722884977 -0.00276461701579 0.00065456799408)
(-0.000296199772789 -0.00276461701579 0.000436190903316)
(-0.000296676660601 -0.00276461701579 0.000217813812551)
(-0.000297153548413 -0.00276461701579 -5.63278213468e-07)
(-0.000297630436225 -0.00276461701579 -0.000218940368978)
(-0.000298107324037 -0.00276461701579 -0.000437317459743)
(-0.000298584211849 -0.00276461701579 -0.000655694550507)
(-0.000278810330749 -0.00257572997539 -0.000814455220209)
(-0.00022266673134 -0.00205091632188 -0.000810737189801)
(-0.000143547074304 -0.00131840068786 -0.000625516109773)
(-6.37091523858e-05 -0.000583958471057 -0.000323277974105)
(-9.80477861801e-06 -8.97903776907e-05 -5.68097848075e-05)
(0 0 0)
(0 0 0)
(0 0 0)
(-1.2022248346e-06 -1.10099522246e-05 7.81843018848e-06)
(-4.70612467049e-05 -0.000432859447118 0.000273231187172)
(-0.00014213718506 -0.00131840068786 0.000728313284558)
(-0.000255699897246 -0.00239375313475 0.00113382142668)
(-0.000357510255278 -0.00337100156616 0.00133111759551)
(-0.000425987148458 -0.00403058220577 0.00127374675104)
(-0.00045050709839 -0.00425994812766 0.00100994210348)
(-0.000451639378667 -0.00425994812766 0.000673450282384)
(-0.000452771658945 -0.00425994812766 0.000336958461291)
(-0.000453903939222 -0.00425994812766 4.66640197046e-07)
(-0.000455036219499 -0.00425994812766 -0.000336025180897)
(-0.000456168499776 -0.00425994812766 -0.00067251700199)
(-0.000457300780054 -0.00425994812766 -0.00100900882308)
(-0.000434096218397 -0.00403058220577 -0.00127324955713)
(-0.000364600542724 -0.00337100156616 -0.00133163233151)
(-0.000259990184871 -0.00239375313475 -0.00113517102428)
(-0.000143655527323 -0.00131840068786 -0.000729656832414)
(-4.7248298003e-05 -0.000432859447118 -0.000273835574781)
(-1.202360976e-06 -1.10099522246e-05 -7.83578932723e-06)
(0 0 0)
(0 0 0)
(-1.33211933519e-05 -0.000122142453304 8.67391798106e-05)
(-9.29286251652e-05 -0.000858509383745 0.000541989371689)
(-0.000219517361176 -0.00205091632188 0.00113328808748)
(-0.000356801226533 -0.00337100156616 0.00159739258821)
(-0.000471759605917 -0.00449275274624 0.00177511346818)
(-0.000544118590807 -0.00519851550697 0.00164409354061)
(-0.000569020096221 -0.00542931828243 0.00128848759278)
(-0.00057085932139 -0.00542931828243 0.000859629651068)
(-0.000572698546559 -0.00542931828243 0.000430771709354)
(-0.000574537771728 -0.00542931828243 1.91376764012e-06)
(-0.000576376996897 -0.00542931828243 -0.000426944174074)
(-0.000578216222066 -0.00542931828243 -0.000855802115788)
(-0.000580055447236 -0.00542931828243 -0.0012846600575)
(-0.000557608008221 -0.00519851550697 -0.00164092578459)
(-0.000484353793962 -0.00449275274624 -0.00177369329337)
(-0.000365309571469 -0.00337100156616 -0.00159790732422)
(-0.000223191626367 -0.00205091632188 -0.00113474140268)
(-9.36644203969e-05 -0.000858509383745 -0.000543032208444)
(-1.33379486725e-05 -0.000122142453304 -8.69259483781e-05)
(0 0 0)
(0 0 0)
(-2.74150841066e-05 -0.000251724002378 0.00017876818904)
(-0.000128698207741 -0.00119310088238 0.000753306541935)
(-0.000274256889785 -0.00257572997539 0.00142357166222)
(-0.000423959880973 -0.00403058220577 0.00191049582808)
(-0.00054243241363 -0.00519851550697 0.00205472095626)
(-0.000610083177901 -0.00586118267249 0.00185446785393)
(-0.000630624472947 -0.00604600158356 0.00143560509907)
(-0.000632905236013 -0.00604600158356 0.000958037193238)
(-0.000635185999078 -0.00604600158356 0.000480469287407)
(-0.000637466762144 -0.00604600158356 2.90138157494e-06)
(-0.00063974752521 -0.00604600158356 -0.000474666524257)
(-0.000642028288275 -0.00604600158356 -0.000952234430089)
(-0.000644309051341 -0.00604600158356 -0.00142980233592)
(-0.000627230817932 -0.00586118267249 -0.00184928942531)
(-0.000559294185398 -0.00519851550697 -0.00205155320024)
(-0.000436123485881 -0.00403058220577 -0.00190999863418)
(-0.000280052178285 -0.00257572997539 -0.00142482618815)
(-0.000130119296316 -0.00119310088238 -0.000754585927874)
(-2.74862494775e-05 -0.000251724002378 -0.000179139148482)
(0 0 0)
(0 0 0)
(-3.3328399589e-05 -0.000306201184244 0.00021746010529)
(-0.000142028732041 -0.00131840068786 0.000832454007198)
(-0.00029381533373 -0.00276461701579 0.00152807635714)
(-0.000447110257559 -0.00425994812766 0.00201941756676)
(-0.000565341645882 -0.00542931828243 0.00214620347621)
(-0.000628343709882 -0.00604600158356 0.0019131730049)
(-0.000644585651502 -0.00618662497819 0.00146917394812)
(-0.00064697374367 -0.00618662497819 0.000980498683966)
(-0.000649361835837 -0.00618662497819 0.000491823419814)
(-0.000651749928005 -0.00618662497819 3.14815566241e-06)
(-0.000654138020173 -0.00618662497819 -0.000485527108489)
(-0.000656526112341 -0.00618662497819 -0.000974202372641)
(-0.000658914204508 -0.00618662497819 -0.00146287763679)
(-0.000646589814406 -0.00604600158356 -0.00190737024175)
(-0.000583733897574 -0.00542931828243 -0.00214237594093)
(-0.000460697620885 -0.00425994812766 -0.00201848428637)
(-0.000300491763096 -0.00276461701579 -0.00152920291357)
(-0.000143763980341 -0.00131840068786 -0.000833797555055)
(-3.34337007571e-05 -0.000306201184244 -0.000217904215067)
(0 0 0)
(0 0 0)
(-3.3328399589e-05 -0.000306201184244 0.00021746010529)
(-0.000142028732041 -0.00131840068786 0.000832454007198)
(-0.00029381533373 -0.00276461701579 0.00152807635714)
(-0.000447110257559 -0.00425994812766 0.00201941756676)
(-0.000565341645882 -0.00542931828243 0.00214620347621)
(-0.000628343709882 -0.00604600158356 0.0019131730049)
(-0.000644585651502 -0.00618662497819 0.00146917394812)
(-0.00064697374367 -0.00618662497819 0.000980498683966)
(-0.000649361835837 -0.00618662497819 0.000491823419814)
(-0.000651749928005 -0.00618662497819 3.14815566241e-06)
(-0.000654138020173 -0.00618662497819 -0.000485527108489)
(-0.000656526112341 -0.00618662497819 -0.000974202372641)
(-0.000658914204508 -0.00618662497819 -0.00146287763679)
(-0.000646589814406 -0.00604600158356 -0.00190737024175)
(-0.000583733897574 -0.00542931828243 -0.00214237594093)
(-0.000460697620885 -0.00425994812766 -0.00201848428637)
(-0.000300491763096 -0.00276461701579 -0.00152920291357)
(-0.000143763980341 -0.00131840068786 -0.000833797555055)
(-3.34337007571e-05 -0.000306201184244 -0.000217904215067)
(0 0 0)
(0 0 0)
(-3.3328399589e-05 -0.000306201184244 0.00021746010529)
(-0.000142028732041 -0.00131840068786 0.000832454007198)
(-0.00029381533373 -0.00276461701579 0.00152807635714)
(-0.000447110257559 -0.00425994812766 0.00201941756676)
(-0.000565341645882 -0.00542931828243 0.00214620347621)
(-0.000628343709882 -0.00604600158356 0.0019131730049)
(-0.000644585651502 -0.00618662497819 0.00146917394812)
(-0.00064697374367 -0.00618662497819 0.000980498683966)
(-0.000649361835837 -0.00618662497819 0.000491823419814)
(-0.000651749928005 -0.00618662497819 3.14815566241e-06)
(-0.000654138020173 -0.00618662497819 -0.000485527108489)
(-0.000656526112341 -0.00618662497819 -0.000974202372641)
(-0.000658914204508 -0.00618662497819 -0.00146287763679)
(-0.000646589814406 -0.00604600158356 -0.00190737024175)
(-0.000583733897574 -0.00542931828243 -0.00214237594093)
(-0.000460697620885 -0.00425994812766 -0.00201848428637)
(-0.000300491763096 -0.00276461701579 -0.00152920291357)
(-0.000143763980341 -0.00131840068786 -0.000833797555055)
(-3.34337007571e-05 -0.000306201184244 -0.000217904215067)
(0 0 0)
(0 0 0)
(-3.3328399589e-05 -0.000306201184244 0.00021746010529)
(-0.000142028732041 -0.00131840068786 0.000832454007198)
(-0.00029381533373 -0.00276461701579 0.00152807635714)
(-0.000447110257559 -0.00425994812766 0.00201941756676)
(-0.000565341645882 -0.00542931828243 0.00214620347621)
(-0.000628343709882 -0.00604600158356 0.0019131730049)
(-0.000644585651502 -0.00618662497819 0.00146917394812)
(-0.00064697374367 -0.00618662497819 0.000980498683966)
(-0.000649361835837 -0.00618662497819 0.000491823419814)
(-0.000651749928005 -0.00618662497819 3.14815566241e-06)
(-0.000654138020173 -0.00618662497819 -0.000485527108489)
(-0.000656526112341 -0.00618662497819 -0.000974202372641)
(-0.000658914204508 -0.00618662497819 -0.00146287763679)
(-0.000646589814406 -0.00604600158356 -0.00190737024175)
(-0.000583733897574 -0.00542931828243 -0.00214237594093)
(-0.000460697620885 -0.00425994812766 -0.00201848428637)
(-0.000300491763096 -0.00276461701579 -0.00152920291357)
(-0.000143763980341 -0.00131840068786 -0.000833797555055)
(-3.34337007571e-05 -0.000306201184244 -0.000217904215067)
(0 0 0)
(0 0 0)
(-3.3328399589e-05 -0.000306201184244 0.00021746010529)
(-0.000142028732041 -0.00131840068786 0.000832454007198)
(-0.00029381533373 -0.00276461701579 0.00152807635714)
(-0.000447110257559 -0.00425994812766 0.00201941756676)
(-0.000565341645882 -0.00542931828243 0.00214620347621)
(-0.000628343709882 -0.00604600158356 0.0019131730049)
(-0.000644585651502 -0.00618662497819 0.00146917394812)
(-0.00064697374367 -0.00618662497819 0.000980498683966)
(-0.000649361835837 -0.00618662497819 0.000491823419814)
(-0.000651749928005 -0.00618662497819 3.14815566241e-06)
(-0.000654138020173 -0.00618662497819 -0.000485527108489)
(-0.000656526112341 -0.00618662497819 -0.000974202372641)
(-0.000658914204508 -0.00618662497819 -0.00146287763679)
(-0.000646589814406 -0.00604600158356 -0.00190737024175)
(-0.000583733897574 -0.00542931828243 -0.00214237594093)
(-0.000460697620885 -0.00425994812766 -0.00201848428637)
(-0.000300491763096 -0.00276461701579 -0.00152920291357)
(-0.000143763980341 -0.00131840068786 -0.000833797555055)
(-3.34337007571e-05 -0.000306201184244 -0.000217904215067)
(0 0 0)
(0 0 0)
(-2.74150841066e-05 -0.000251724002378 0.00017876818904)
(-0.000128698207741 -0.00119310088238 0.000753306541935)
(-0.000274256889785 -0.00257572997539 0.00142357166222)
(-0.000423959880973 -0.00403058220577 0.00191049582808)
(-0.00054243241363 -0.00519851550697 0.00205472095626)
(-0.000610083177901 -0.00586118267249 0.00185446785393)
(-0.000630624472947 -0.00604600158356 0.00143560509907)
(-0.000632905236013 -0.00604600158356 0.000958037193238)
(-0.000635185999078 -0.00604600158356 0.000480469287407)
(-0.000637466762144 -0.00604600158356 2.90138157494e-06)
(-0.00063974752521 -0.00604600158356 -0.000474666524257)
(-0.000642028288275 -0.00604600158356 -0.000952234430089)
(-0.000644309051341 -0.00604600158356 -0.00142980233592)
(-0.000627230817932 -0.00586118267249 -0.00184928942531)
(-0.000559294185398 -0.00519851550697 -0.00205155320024)
(-0.000436123485881 -0.00403058220577 -0.00190999863418)
(-0.000280052178285 -0.00257572997539 -0.00142482618815)
(-0.000130119296316 -0.00119310088238 -0.000754585927874)
(-2.74862494775e-05 -0.000251724002378 -0.000179139148482)
(0 0 0)
(0 0 0)
(-1.33211933519e-05 -0.000122142453304 8.67391798106e-05)
(-9.29286251652e-05 -0.000858509383745 0.000541989371689)
(-0.000219517361176 -0.00205091632188 0.00113328808748)
(-0.000356801226533 -0.00337100156616 0.00159739258821)
(-0.000471759605917 -0.00449275274624 0.00177511346818)
(-0.000544118590807 -0.00519851550697 0.00164409354061)
(-0.000569020096221 -0.00542931828243 0.00128848759278)
(-0.00057085932139 -0.00542931828243 0.000859629651068)
(-0.000572698546559 -0.00542931828243 0.000430771709354)
(-0.000574537771728 -0.00542931828243 1.91376764012e-06)
(-0.000576376996897 -0.00542931828243 -0.000426944174074)
(-0.000578216222066 -0.00542931828243 -0.000855802115788)
(-0.000580055447236 -0.00542931828243 -0.0012846600575)
(-0.000557608008221 -0.00519851550697 -0.00164092578459)
(-0.000484353793962 -0.00449275274624 -0.00177369329337)
(-0.000365309571469 -0.00337100156616 -0.00159790732422)
(-0.000223191626367 -0.00205091632188 -0.00113474140268)
(-9.36644203969e-05 -0.000858509383745 -0.000543032208444)
(-1.33379486725e-05 -0.000122142453304 -8.69259483781e-05)
(0 0 0)
(0 0 0)
(-1.2022248346e-06 -1.10099522245e-05 7.81843018848e-06)
(-4.70612467049e-05 -0.000432859447118 0.000273231187172)
(-0.00014213718506 -0.00131840068786 0.000728313284558)
(-0.000255699897246 -0.00239375313475 0.00113382142668)
(-0.000357510255278 -0.00337100156616 0.00133111759551)
(-0.000425987148458 -0.00403058220577 0.00127374675104)
(-0.00045050709839 -0.00425994812766 0.00100994210348)
(-0.000451639378667 -0.00425994812766 0.000673450282384)
(-0.000452771658945 -0.00425994812766 0.000336958461291)
(-0.000453903939222 -0.00425994812766 4.66640197053e-07)
(-0.000455036219499 -0.00425994812766 -0.000336025180897)
(-0.000456168499776 -0.00425994812766 -0.00067251700199)
(-0.000457300780054 -0.00425994812766 -0.00100900882308)
(-0.000434096218397 -0.00403058220577 -0.00127324955713)
(-0.000364600542724 -0.00337100156616 -0.00133163233151)
(-0.000259990184871 -0.00239375313475 -0.00113517102428)
(-0.000143655527323 -0.00131840068786 -0.000729656832414)
(-4.7248298003e-05 -0.000432859447118 -0.000273835574781)
(-1.202360976e-06 -1.10099522245e-05 -7.83578932723e-06)
(0 0 0)
(0 0 0)
(0 0 0)
(-9.7967299032e-06 -8.97903776905e-05 5.66712427375e-05)
(-6.34112740695e-05 -0.000583958471057 0.000322500280565)
(-0.000142245638079 -0.00131840068786 0.000624172561917)
(-0.000220042256203 -0.00205091632188 0.000809283874596)
(-0.000275498737321 -0.00257572997539 0.000813200694287)
(-0.000295722884977 -0.00276461701579 0.00065456799408)
(-0.000296199772789 -0.00276461701579 0.000436190903316)
(-0.000296676660601 -0.00276461701579 0.000217813812551)
(-0.000297153548413 -0.00276461701579 -5.63278213468e-07)
(-0.000297630436225 -0.00276461701579 -0.000218940368978)
(-0.000298107324037 -0.00276461701579 -0.000437317459743)
(-0.000298584211849 -0.00276461701579 -0.000655694550507)
(-0.000278810330749 -0.00257572997539 -0.000814455220209)
(-0.00022266673134 -0.00205091632188 -0.000810737189801)
(-0.000143547074304 -0.00131840068786 -0.000625516109773)
(-6.37091523858e-05 -0.000583958471057 -0.000323277974105)
(-9.80477861801e-06 -8.97903776905e-05 -5.68097848075e-05)
(0 0 0)
(0 0 0)
(0 0 0)
(0 0 0)
(0 0 0)
(-9.79723294786e-06 -8.97903776905e-05 4.95786785159e-05)
(-4.70846281171e-05 -0.000432859447118 0.000204847841928)
(-9.30665867712e-05 -0.000858509383745 0.000338547825414)
(-0.000129053479885 -0.00119310088238 0.000376333424483)
(-0.000142570997135 -0.00131840068786 0.000311750393994)
(-0.000142679450154 -0.00131840068786 0.000207609671353)
(-0.000142787903172 -0.00131840068786 0.000103468948712)
(-0.000142896356191 -0.00131840068786 -6.71773928367e-07)
(-0.00014300480921 -0.00131840068786 -0.000104812496569)
(-0.000143113262229 -0.00131840068786 -0.00020895321921)
(-0.000143221715247 -0.00131840068786 -0.000313093941851)
(-0.000129764024172 -0.00119310088238 -0.000377612810422)
(-9.3526458791e-05 -0.000858509383745 -0.000339590662169)
(-4.72249165907e-05 -0.000432859447118 -0.000205452229537)
(-9.80427557329e-06 -8.97903776905e-05 -4.9717220586e-05)
(0 0 0)
(0 0 0)
(0 0 0)
(0 0 0)
(0 0 0)
(0 0 0)
(0 0 0)
(-1.20224752484e-06 -1.10099522246e-05 5.20939360253e-06)
(-1.33249167565e-05 -0.000122142453304 4.8146929102e-05)
(-2.74348522652e-05 -0.000251724002378 7.93494841728e-05)
(-3.33634999784e-05 -0.000306201184244 7.23386651712e-05)
(-3.33693500432e-05 -0.000306201184244 4.81517584846e-05)
(-3.33752001082e-05 -0.000306201184244 2.39648517981e-05)
(-3.3381050173e-05 -0.000306201184244 -2.22054888484e-07)
(-3.33869002379e-05 -0.000306201184244 -2.4408961575e-05)
(-3.33927503029e-05 -0.000306201184244 -4.85958682616e-05)
(-3.33986003677e-05 -0.000306201184244 -7.27827749481e-05)
(-2.74664813188e-05 -0.000251724002378 -7.97204436145e-05)
(-1.33342252679e-05 -0.000122142453304 -4.83336976695e-05)
(-1.20233828571e-06 -1.10099522246e-05 -5.22675274127e-06)
(0 0 0)
(0 0 0)
(0 0 0)
(0 0 0)
(0 0 0)
(0 0 0)
(0 0 0)
(0 0 0)
(0 0 0)
(0 0 0)
(0 0 0)
(0 0 0)
(0 0 0)
(0 0 0)
(0 0 0)
(0 0 0)
(0 0 0)
(0 0 0)
(0 0 0)
(0 0 0)
(0 0 0)
(0 0 0)
(0 0 0)
(0 0 0)
(0 0 0)
(0 0 0)
(0 0 0)
(0 0 0)
(0 0 0)
(0 0 0)
(0 0 0)
(0 0 0)
(0 0 0)
(0 0 0)
(0 0 0)
(0 0 0)
(0 0 0)
(0 0 0)
(0 0 0)
(0 0 0)
(0 0 0)
(0 0 0)
(0 0 0)
(0 0 0)
(0 0 0)
(0 0 0)
(0 0 0)
(0 0 0)
(0 0 0)
(0 0 0)
(0 0 0)
(0 0 0)
(0 0 0)
(0 0 0)
(0 0 0)
(0 0 0)
(0 0 0)
(0 0 0)
(0 0 0)
(0 0 0)
(0 0 0)
(0 0 0)
(0 0 0)
(0 0 0)
(0 0 0)
(0 0 0)
(0 0 0)
(0 0 0)
(0 0 0)
(0 0 0)
(0 0 0)
(0 0 0)
(0 0 0)
(0 0 0)
(0 0 0)
(0 0 0)
(0 0 0)
(0 0 0)
(0 0 0)
(0 0 0)
(0 0 0)
(0 0 0)
(0 0 0)
(0 0 0)
(0 0 0)
(0 0 0)
(0 0 0)
(0 0 0)
(0 0 0)
(0 0 0)
(0 0 0)
(0 0 0)
(-1.61433388338e-06 -2.85627936072e-05 1.35146492354e-05)
(-9.78820173356e-06 -0.000173595886133 6.84298442332e-05)
(-1.83224311701e-05 -0.000325655874296 0.000102655328482)
(-2.18169051514e-05 -0.000387973273276 9.16574720633e-05)
(-2.18262969888e-05 -0.000387973273276 6.10113687205e-05)
(-2.18356888261e-05 -0.000387973273276 3.03652653777e-05)
(-2.18450806635e-05 -0.000387973273276 -2.80837965147e-07)
(-2.18544725008e-05 -0.000387973273276 -3.09269413079e-05)
(-2.18638643382e-05 -0.000387973273276 -6.15730446508e-05)
(-2.18732561756e-05 -0.000387973273276 -9.22191479936e-05)
(-1.83753676148e-05 -0.000325655874296 -0.00010313376989)
(-9.8070046759e-06 -0.000173595886133 -6.86939758644e-05)
(-1.61494472628e-06 -2.85627936072e-05 -1.35595367289e-05)
(0 0 0)
(0 0 0)
(0 0 0)
(0 0 0)
(0 0 0)
(0 0 0)
(0 0 0)
(-7.56420062303e-06 -0.000134104751316 7.40478379197e-05)
(-2.97352300867e-05 -0.000530816163544 0.000251204574188)
(-5.55932222757e-05 -0.000999648915013 0.000394193748284)
(-7.5383752703e-05 -0.00136172143881 0.000429492075912)
(-8.28020669535e-05 -0.00149637765331 0.00035379833089)
(-8.29417774982e-05 -0.00149637765331 0.000235599198319)
(-8.30814880428e-05 -0.00149637765331 0.000117400065748)
(-8.32211985873e-05 -0.00149637765331 -7.99066823029e-07)
(-8.3360909132e-05 -0.00149637765331 -0.000118998199394)
(-8.35006196764e-05 -0.00149637765331 -0.000237197331965)
(-8.36403302211e-05 -0.00149637765331 -0.000355396464536)
(-7.63093313555e-05 -0.00136172143881 -0.00043100897892)
(-5.62167300426e-05 -0.000999648915013 -0.000395431085437)
(-2.99461980249e-05 -0.000530816163544 -0.000251946974738)
(-7.57991015765e-06 -0.000134104751316 -7.42537077838e-05)
(0 0 0)
(0 0 0)
(0 0 0)
(0 0 0)
(0 0 0)
(-7.56307851339e-06 -0.000134104751316 8.464080547e-05)
(-3.89947644014e-05 -0.000698744776916 0.000385889602943)
(-8.23829353198e-05 -0.00149637765331 0.000708395728603)
(-0.000123875067802 -0.00227632782406 0.000898122914195)
(-0.000152992265618 -0.00282909082708 0.000893008419023)
(-0.000163741048569 -0.00302695355528 0.000716465865642)
(-0.000164312734687 -0.00302695355528 0.000477366963426)
(-0.000164884420806 -0.00302695355528 0.00023826806121)
(-0.000165456106925 -0.00302695355528 -8.30841006369e-07)
(-0.000166027793043 -0.00302695355528 -0.000239929743223)
(-0.000166599479162 -0.00302695355528 -0.000479028645439)
(-0.000167171165281 -0.00302695355528 -0.000718127547655)
(-0.000156987387243 -0.00282909082708 -0.000894750328366)
(-0.000127108145232 -0.00227632782406 -0.000899950214812)
(-8.40594618549e-05 -0.00149637765331 -0.000709993862249)
(-3.94212575912e-05 -0.000698744776916 -0.000386826569911)
(-7.5810322675e-06 -0.000134104751316 -8.48466753341e-05)
(0 0 0)
(0 0 0)
(0 0 0)
(-1.61418117266e-06 -2.85627936071e-05 2.02831957264e-05)
(-2.97000687637e-05 -0.000530816163544 0.000335063165675)
(-8.22432247752e-05 -0.00149637765331 0.000826594861174)
(-0.000142226594457 -0.00263793086913 0.00124932397597)
(-0.000194347762973 -0.00365824907755 0.00144420615717)
(-0.000228836199403 -0.00433721768019 0.00137014337238)
(-0.000241537474705 -0.00457093101471 0.00108309526194)
(-0.000242841104886 -0.00457093101471 0.000722039423206)
(-0.000244144735068 -0.00457093101471 0.000360983584468)
(-0.000245448365249 -0.00457093101471 -7.22542706499e-08)
(-0.00024675199543 -0.00457093101471 -0.000361128093009)
(-0.000248055625612 -0.00457093101471 -0.000722183931747)
(-0.000249359255793 -0.00457093101471 -0.00108323977049)
(-0.000238226028478 -0.00433721768019 -0.00137061839968)
(-0.000202697874858 -0.00365824907755 -0.00144543779338)
(-0.000147436794494 -0.00263793086913 -0.00125111856439)
(-8.41991723994e-05 -0.00149637765331 -0.00082819299482)
(-2.9981359348e-05 -0.000530816163544 -0.000335805566226)
(-1.61509743701e-06 -2.85627936071e-05 -2.032808322e-05)
(0 0 0)
(0 0 0)
(-9.78068055661e-06 -0.000173595886133 0.000123279372272)
(-5.54061699457e-05 -0.000999648915013 0.0006310811984)
(-0.000123228452316 -0.00227632782406 0.00125773754)
(-0.000193512751784 -0.00365824907755 0.00173317055222)
(-0.000250183634591 -0.00480649520789 0.00189842540139)
(-0.000284820179173 -0.00550474203248 0.00174002765984)
(-0.00029710352924 -0.00572381734702 0.00135736216556)
(-0.000299147692291 -0.00572381734702 0.000905242572513)
(-0.000301191855341 -0.00572381734702 0.000453122979464)
(-0.000303236018391 -0.00572381734702 1.00338641537e-06)
(-0.000305280181441 -0.00572381734702 -0.000451116206633)
(-0.000307324344491 -0.00572381734702 -0.000903235799682)
(-0.000309368507542 -0.00572381734702 -0.00135535539273)
(-0.000299945623906 -0.00550474203248 -0.00173849602225)
(-0.000264598211531 -0.00480649520789 -0.00189820062182)
(-0.000203532886047 -0.00365824907755 -0.00173440218843)
(-0.000127754760718 -0.00227632782406 -0.00125956484061)
(-5.64037823726e-05 -0.000999648915013 -0.000632318535553)
(-9.81452585291e-06 -0.000173595886133 -0.000123543503903)
(0 0 0)
(0 0 0)
(-1.82893458921e-05 -0.000325655874296 0.000231273514964)
(-7.49209633766e-05 -0.00136172143881 0.000859742603328)
(-0.000151494095008 -0.00282909082708 0.00156341794929)
(-0.000226488742134 -0.00433721768019 0.00205533381539)
(-0.000282929498582 -0.00550474203248 0.0021748431201)
(-0.000312413504627 -0.00609930168773 0.00192855814185)
(-0.000320194892546 -0.00621658672833 0.00147471975732)
(-0.000322606171542 -0.00621658672833 0.000983677920662)
(-0.000325017450538 -0.00621658672833 0.000492636084008)
(-0.000327428729535 -0.00621658672833 1.59424735301e-06)
(-0.000329840008531 -0.00621658672833 -0.000489447589302)
(-0.000332251287527 -0.00621658672833 -0.000980489425956)
(-0.000334662566523 -0.00621658672833 -0.00147153126261)
(-0.000330982731285 -0.00609930168773 -0.00192566506261)
(-0.000301836304497 -0.00550474203248 -0.00217331148251)
(-0.000240573485746 -0.00433721768019 -0.0020558088427)
(-0.000158485557852 -0.00282909082708 -0.00156515985864)
(-7.67721206818e-05 -0.00136172143881 -0.000861259506336)
(-1.84084528927e-05 -0.000325655874296 -0.000231751956372)
(0 0 0)
(0 0 0)
(-2.17605541271e-05 -0.000387973273276 0.00027553409212)
(-8.21035142306e-05 -0.00149637765331 0.000944793993744)
(-0.000161454304094 -0.00302695355528 0.00167286147451)
(-0.000237626584161 -0.00457093101471 0.00216626277816)
(-0.00029301520314 -0.00572381734702 0.00226160135166)
(-0.00031778361355 -0.00621658672833 0.00196576159397)
(-0.000321002692926 -0.00623397905294 0.00147886330942)
(-0.000323427482897 -0.00623397905294 0.000986447715164)
(-0.000325852272868 -0.00623397905294 0.000494032120906)
(-0.000328277062839 -0.00623397905294 1.61652664718e-06)
(-0.000330701852809 -0.00623397905294 -0.000490799067611)
(-0.00033312664278 -0.00623397905294 -0.00098321466187)
(-0.000335551432751 -0.00623397905294 -0.00147563025613)
(-0.000337073845519 -0.00621658672833 -0.00196257309927)
(-0.000313456833642 -0.00572381734702 -0.00225959457883)
(-0.000253270146337 -0.00457093101471 -0.0021664072867)
(-0.000169457909755 -0.00302695355528 -0.00167452315652)
(-8.4338882944e-05 -0.00149637765331 -0.000946392127391)
(-2.19296071999e-05 -0.000387973273276 -0.00027609576805)
(0 0 0)
(0 0 0)
(-2.17605541271e-05 -0.000387973273276 0.00027553409212)