/*--------------------------------*- C++ -*----------------------------------*\
| =========                 |                                                 |
| \\      /  F ield         | OpenFOAM: The Open Source CFD Toolbox           |
|  \\    /   O peration     | Version:  v1606+                                |
|   \\  /    A nd           | Web:      www.OpenFOAM.com                      |
|    \\/     M anipulation  |                                                 |
\*---------------------------------------------------------------------------*/
FoamFile
{
    version     2.0;
    format      ascii;
    class       volVectorField;
    location    "5.9";
    object      U_0;
}
// * * * * * * * * * * * * * * * * * * * * * * * * * * * * * * * * * * * * * //

dimensions      [0 1 -1 0 0 0 0];

internalField   nonuniform List<vector> 
11640
(
(-0.000802078351363 -0.000424418012284 0.000773584009153)
(-0.00240631151864 -0.000461837139679 0.000806620249625)
(-0.00393590241498 -0.000544979684347 0.000831540138183)
(-0.00529823702576 -0.000621339236999 0.000803709544671)
(-0.00639753014945 -0.000681621639851 0.000753246304804)
(-0.00721825774082 -0.000742071653019 0.000678418264505)
(-0.00779512544758 -0.000755582555824 0.000607600369081)
(-0.00817992779739 -0.000739403083393 0.000537924288765)
(-0.00838169866255 -0.000773528846713 0.000515737925262)
(-0.0084057794568 -0.000795834034442 0.000486391399624)
(-0.00827366101401 -0.000783997560851 0.000415134502467)
(-0.00796667026148 -0.000780742015251 0.000390861725023)
(-0.00751407762773 -0.000787739037387 0.000348440539991)
(-0.00695537866328 -0.000816725710768 0.000284448848696)
(-0.00623958576768 -0.000868067228723 0.000240250883403)
(-0.00534473612296 -0.000947349180065 0.000223115883798)
(-0.00427857797013 -0.00101097341235 0.000222904160907)
(-0.00306999002355 -0.00103986628849 0.000225534592581)
(-0.00181333959886 -0.00101384209368 0.000214164727109)
(-0.000540750483458 -0.000908608065043 0.000185348145635)
(-0.000944062585178 -0.000996511001283 0.000780238212188)
(-0.00266760291951 -0.001084593039 0.000744778759532)
(-0.0042188338886 -0.00125515150994 0.000707369116356)
(-0.00555170520279 -0.0014336640585 0.000598083174057)
(-0.00660561690043 -0.00153037169052 0.000438446452043)
(-0.00740330493805 -0.00155995819901 0.000280727623751)
(-0.00796448328366 -0.00157516635828 0.000159690265088)
(-0.00835569381384 -0.00160575390561 0.000100267362385)
(-0.00857629463268 -0.00176023301674 9.92492999239e-05)
(-0.00858125988482 -0.00188234246583 9.05332555902e-05)
(-0.00843507836971 -0.00196082726624 8.8119119133e-05)
(-0.0081187597686 -0.0020138455409 8.17291393018e-05)
(-0.00765920361188 -0.00204284979218 7.05839542861e-05)
(-0.00706141450699 -0.00208165544359 3.28001348622e-05)
(-0.00630241808058 -0.00216092201186 -1.10508618308e-05)
(-0.00540859233461 -0.00233099983095 -5.09758133692e-05)
(-0.00436398447854 -0.00254169058973 -6.3798087654e-05)
(-0.00316091341896 -0.00268867269739 -4.79428048058e-05)
(-0.00185426914315 -0.00272664711678 -3.46759839574e-08)
(-0.000547740764597 -0.00260755274162 0.000133593533687)
(-0.00104149128114 -0.00140034350088 0.000826606674469)
(-0.00289026474328 -0.00151999301845 0.000751111101479)
(-0.00448251916125 -0.00169706219424 0.00061426516585)
(-0.0057912923226 -0.00179060308323 0.000392831880609)
(-0.0068154358708 -0.00172567916314 0.000147605894545)
(-0.00761971066419 -0.00160093348536 -9.24442308604e-05)
(-0.00818514115008 -0.00153338739803 -0.000214723332871)
(-0.00861528510745 -0.00152500400885 -0.000261263119883)
(-0.00890698209277 -0.00177226809179 -0.000271317390808)
(-0.00890526637786 -0.00203672190466 -0.00023511012553)
(-0.00872734193409 -0.00230604052702 -0.000174644340721)
(-0.00836263469431 -0.00252672428934 -0.000116906114147)
(-0.00784687932879 -0.00266003274841 -9.01368938118e-05)
(-0.00720234967133 -0.00278239621951 -0.000129105779981)
(-0.00642830876784 -0.00294800059372 -0.000151092216988)
(-0.0055340075331 -0.003247747367 -0.000163221460669)
(-0.00446683961374 -0.00360867895368 -0.000144291842953)
(-0.00325989692518 -0.00393747376534 -0.000134264772485)
(-0.00193382134532 -0.00414754622136 -9.96001372027e-05)
(-0.000585680222149 -0.00415708900648 9.1728622157e-05)
(-0.00111986384566 -0.00179764524626 0.000879127455507)
(-0.0031603390694 -0.00192200409378 0.000747486293318)
(-0.00476542797206 -0.00201014905332 0.000518280189814)
(-0.00608134404705 -0.0018831396241 0.000188580759022)
(-0.00719277377065 -0.00149415499443 -0.000130899332992)
(-0.00806999371255 -0.00109587167838 -0.000393957624687)
(-0.00859866061744 -0.000954307608453 -0.000553747490292)
(-0.00909397772526 -0.000887159346921 -0.000614465547933)
(-0.00945043069785 -0.00133201816291 -0.000661139639869)
(-0.00945485158157 -0.00187062104415 -0.000611238637781)
(-0.00924849887873 -0.00242403035068 -0.000479727443249)
(-0.00878043808611 -0.00287249049438 -0.000348695825207)
(-0.00817031010397 -0.00317870224853 -0.000274903001565)
(-0.00747648327714 -0.00345691737344 -0.000303867072373)
(-0.00666286380637 -0.00372360417675 -0.000301370922143)
(-0.00573126219434 -0.0041135786382 -0.000268553828333)
(-0.00461365470592 -0.00461955462804 -0.00021656054116)
(-0.00336928537256 -0.00509575288534 -0.00016706660092)
(-0.00202109300946 -0.00546979147583 -0.000129180667518)
(-0.000641088532272 -0.00565712605533 3.00225454502e-05)
(-0.00124152394289 -0.00216266354902 0.000949214711293)
(-0.00346244591769 -0.00218116329726 0.000726438010896)
(-0.00514003090555 -0.0020776771756 0.000408286497841)
(-0.00659505011076 -0.00157477945444 3.49481147179e-05)
(-0.00787379211014 -0.000764258328983 -0.000286349196218)
(-0.00891809851929 -0.000124805404203 -0.000549237544736)
(-0.00935794500393 0.000114772919378 -0.000742501503307)
(-0.00992660058348 0.000413558424841 -0.000848312345629)
(-0.0103677088502 -0.000104039362956 -0.00101189681276)
(-0.0102520443909 -0.000788979229627 -0.00104117276571)
(-0.00989089907073 -0.00169802723934 -0.000985607545141)
(-0.00925361940621 -0.00253829050101 -0.000861825686471)
(-0.00856053275821 -0.00315018348309 -0.000648062139938)
(-0.00783325330938 -0.0036981462071 -0.000542243079196)
(-0.00689850553053 -0.00416788217477 -0.000417791880263)
(-0.0059190962857 -0.00476002927096 -0.000396024792616)
(-0.00476725091745 -0.00546721786594 -0.000309924945074)
(-0.00346095329767 -0.0061374472831 -0.000225113789366)
(-0.00206084119774 -0.00664845847759 -0.000161403556729)
(-0.000686165896856 -0.00699458767475 -2.35029017006e-05)
(-0.00142287273128 -0.00244194723219 0.0010083935631)
(-0.00379974393621 -0.00231085415592 0.000721792505941)
(-0.00566574378981 -0.00192245857383 0.000385039967102)
(-0.00735329460296 -0.000931073166425 1.07528171174e-05)
(-0.00888757087409 0.000279870254803 -0.000311386307854)
(-0.0101594051633 0.00111677877144 -0.000646609502106)
(-0.0103606303528 0.00144759937961 -0.000895636862207)
(-0.0108438846123 0.00232728442164 -0.0011385690361)
(-0.0112418442752 0.00191118053904 -0.00135178255979)
(-0.0109989981866 0.00123660196868 -0.0012883016212)
(-0.0104803101521 -0.000125131423226 -0.00108396241434)
(-0.00963784656252 -0.00142302388394 -0.000980453393052)
(-0.00892832970381 -0.00240739114293 -0.000734715655501)
(-0.00829459184813 -0.00349991195706 -0.000753666796826)
(-0.00731457896403 -0.00420512938161 -0.000597371824209)
(-0.00624700524493 -0.00513581294068 -0.00052818371828)
(-0.0050044918907 -0.00614034253006 -0.000419640062446)
(-0.00362654712676 -0.00706147528049 -0.00030513071293)
(-0.00213995103428 -0.00772264055149 -0.000216007616333)
(-0.000701149375492 -0.00818690558391 -0.00010375910978)
(-0.00156367257699 -0.00261896081357 0.00106046825411)
(-0.0041053628569 -0.00235482217712 0.000781472049783)
(-0.00623499496555 -0.00162082148212 0.000477054232991)
(-0.00818974826937 -0.000189989546435 0.000146673405305)
(-0.0100214138557 0.00141191360675 -0.000129987855918)
(-0.0117096216776 0.00240732139642 -0.000531641817179)
(-0.0115434001153 0.00301911043314 -0.000757919766196)
(-0.0121368877643 0.00431178926034 -0.000587286966017)
(-0.0125512153448 0.00467908845953 -0.00126495577019)
(-0.0118286295234 0.00430076322345 -0.0018114008237)
(-0.0107288211705 0.00294351632981 -0.00207287663845)
(-0.0096788300466 0.00215289990333 -0.00191831377553)
(-0.00913119717784 0.00081700789416 -0.00114952448278)
(-0.00902168255466 -0.00184378966807 -0.000945114787137)
(-0.00783915367615 -0.00358242174561 -0.000683316744658)
(-0.00677129711869 -0.00512721705475 -0.000635173020672)
(-0.00536740434932 -0.00661224647633 -0.000505458432183)
(-0.00382899450611 -0.00781645611009 -0.000385476722859)
(-0.00225384815072 -0.00863960945352 -0.000282888043187)
(-0.000720102788809 -0.00915432654332 -0.000193364514847)
(-0.0016150760993 -0.00276334280795 0.00110333647442)
(-0.00434165667902 -0.00238279287692 0.000894030789895)
(-0.0067473398602 -0.00129021272208 0.000650774715492)
(-0.00900461925128 0.000601129075975 0.000361681761883)
(-0.0112233978305 0.0026589173645 7.0876589225e-05)
(-0.0133946766559 0.0039370704558 -0.000517119682692)
(-0.0131331082496 0.00506349244036 -0.000222599682013)
(-0.0127269942114 0.00646441513356 -0.00035942673649)
(-0.0110529955436 0.00748605647921 -0.000722816800216)
(-0.00893346784612 0.00753251661508 -0.00150237756313)
(-0.00752575925683 0.00671575202759 -0.00132322196189)
(-0.00851105628243 0.00604202358003 2.05500974092e-05)
(-0.0126653142719 0.00371204532633 0.00128273170711)
(-0.0142392065895 -0.00043464164869 -0.000720145912964)
(-0.0105819755006 -0.00329848975838 -0.000935291376176)
(-0.00816090454766 -0.00524679603551 -0.000753297367428)
(-0.00613170906462 -0.00706711444308 -0.000611818855286)
(-0.00421249830891 -0.00847440871643 -0.000462642604485)
(-0.00246956174942 -0.00940798306203 -0.00036177597857)
(-0.000799324509618 -0.00992442773247 -0.00029294916983)
(-0.00159423204342 -0.00294190848754 0.00112262584561)
(-0.00442853437708 -0.00244068842846 0.00099964463998)
(-0.00703670223107 -0.00104724192322 0.000844446775484)
(-0.00949273880023 0.00132147577105 0.000633921739247)
(-0.0118392260204 0.00387965065346 0.000394117398082)
(-0.0142569196205 0.00552429703798 -0.000119746217379)
(-0.0141316300402 0.00699895121527 0.000311025265179)
(-0.0131425931326 0.00807893519572 0.000339175160231)
(-0.0105028770555 0.00816162584097 0.000284956553187)
(-0.00806934200126 0.00686411766401 -0.000649109572145)
(-0.00701793367483 0.00508761809468 -0.000508913290641)
(-0.00909318115458 0.00330727164042 0.000785039718025)
(-0.0147230740545 0.000852334339388 0.00196706208066)
(-0.016719425144 -0.00165354166759 -0.000528329092596)
(-0.0120953562793 -0.00409797140261 -0.00101655515672)
(-0.00905187703237 -0.0058403650682 -0.00077876583045)
(-0.00669359096782 -0.00765029422448 -0.000651929117415)
(-0.00449766954742 -0.00911109568865 -0.000521083180014)
(-0.00263354744156 -0.0100544809504 -0.000424501069534)
(-0.000859619631444 -0.0105331159544 -0.000382194063447)
(-0.00155116566361 -0.00317425079064 0.00111606894567)
(-0.00446245364211 -0.00258695136394 0.00107343267853)
(-0.00720262621314 -0.0010146169092 0.000999180235924)
(-0.00972211748123 0.0016858266529 0.000863333798718)
(-0.0120328530178 0.00456649572803 0.000680740631814)
(-0.0142842729784 0.00645029500734 0.000316661816395)
(-0.0144617765612 0.00796592043762 0.000850618905451)
(-0.0134669573364 0.00868072885392 0.00108109751015)
(-0.0102101434198 0.00814340633006 0.00121557879705)
(-0.00792075822594 0.00661652030831 0.000178159631635)
(-0.00745547661071 0.00455488603393 0.000127835130099)
(-0.010346073716 0.00188252466769 0.0010209797713)
(-0.0162363062334 -0.000782866062823 0.00183480170225)
(-0.0179264760648 -0.00258365417434 -0.000664367846943)
(-0.0131782291198 -0.00475283629581 -0.0010572745639)
(-0.0098168775486 -0.00639173391135 -0.000845581316778)
(-0.00722079203931 -0.00815002864523 -0.000738160252748)
(-0.00479122170241 -0.00963850384418 -0.000592219755426)
(-0.00277674885675 -0.010534359594 -0.000494134642811)
(-0.000905389313152 -0.0109343120089 -0.000477548316352)
(-0.00151829367087 -0.00334116363233 0.00106074367388)
(-0.00449670871518 -0.00275937321056 0.00111853019435)
(-0.00731610169491 -0.00115832702495 0.00114175447931)
(-0.00981316215699 0.00161649413156 0.00109970283729)
(-0.0119539293467 0.0045973158769 0.00101060958207)
(-0.0138769663965 0.00653783656095 0.000579269011002)
(-0.0140582610555 0.00801293242963 0.00096387858203)
(-0.0134159477397 0.00686404667643 0.000595140574138)
(-0.0112064047746 0.00527535416279 0.000477633304784)
(-0.0096672881061 0.00331222540155 -0.000156746191716)
(-0.00940605764186 0.00163092752761 0.000201727950046)
(-0.0120855026701 -0.00114053832723 0.00110097843347)
(-0.0167995184946 -0.00330691561494 0.00159720039824)
(-0.0181750300288 -0.0038838697789 -0.000527998941143)
(-0.0139538770801 -0.00534343063307 -0.000985690961038)
(-0.0104457794288 -0.00695973367197 -0.000814790725845)
(-0.00765293912169 -0.00862648308072 -0.000814938941373)
(-0.00502555667159 -0.010015115799 -0.000646181906192)
(-0.00285506047897 -0.0108338008221 -0.000583237979342)
(-0.000905182284029 -0.0111064265821 -0.000577124314056)
(-0.00149501179175 -0.00336215246462 0.000992304170902)
(-0.00455967816744 -0.00288563759103 0.00114176257799)
(-0.00746326450001 -0.00143236419324 0.00124774788756)
(-0.00990073027987 0.00115781375769 0.00130696257451)
(-0.0119408712953 0.00396142909372 0.00128124210561)
(-0.0133158582732 0.0058610892721 0.000925149429671)
(-0.0142078126956 0.00690332485999 0.00120730942351)
(-0.0137565495961 0.00596346688069 0.000732513246272)
(-0.012094504944 0.00469332545054 0.000767729894232)
(-0.0119170134247 0.00274936852506 0.000704285091821)
(-0.0125038971155 0.000819588178379 0.000810492088958)
(-0.0146123726462 -0.0024644243421 0.000756637386446)
(-0.0165537522567 -0.00453676200684 0.000472327480916)
(-0.0167695099567 -0.00492174406646 -0.000356504923641)
(-0.0140667054598 -0.00598335999575 -0.000756482826202)
(-0.0109063776897 -0.00752198723492 -0.000806292923444)
(-0.00794823506097 -0.00901072898803 -0.000807404082191)
(-0.00520344557301 -0.0102460201828 -0.000729527855831)
(-0.00295542107188 -0.0109094621867 -0.000683943650093)
(-0.000899191492904 -0.0110016780473 -0.00067066028841)
(-0.00145551945923 -0.00322174753583 0.000929601891882)
(-0.00455247618341 -0.00294402815126 0.00114883644357)
(-0.00746824654405 -0.00181930253473 0.00130873599541)
(-0.00986222882108 0.00029404609378 0.00145319922771)
(-0.0116748738769 0.00267480103645 0.00154866856325)
(-0.0127660379608 0.00440557545558 0.00137807300859)
(-0.0132754657511 0.00499736621692 0.00127404454797)
(-0.0134849319959 0.00473638240266 0.000818220418177)
(-0.0136274189203 0.00318012168063 0.00075760675293)
(-0.0140865794664 0.00128155986095 0.000965826951365)
(-0.0147471551391 -0.00101213600542 0.00117954585379)
(-0.0156948238263 -0.003552095494 0.00102002797181)
(-0.016301374572 -0.00504815887864 0.000521226152169)
(-0.0157689843072 -0.00590328535241 -0.000125890272071)
(-0.0136616950961 -0.00674402155845 -0.000592763522956)
(-0.0109237325192 -0.00802121861888 -0.000752397801757)
(-0.00808654075977 -0.00923813909831 -0.000837098257588)
(-0.00536361607347 -0.0102643210093 -0.000790151856938)
(-0.00304878986245 -0.010722093279 -0.00079585942584)
(-0.000914394012847 -0.0105923964103 -0.000766717382477)
(-0.00137108532331 -0.00296911682551 0.000849284543916)
(-0.00439989649587 -0.00288488348914 0.00106153928193)
(-0.00729066037299 -0.00218487688697 0.00121244143736)
(-0.00968972536736 -0.000752431761081 0.00139917341737)
(-0.0114716398118 0.000988394776248 0.00154062477944)
(-0.012587134361 0.00225873684191 0.00154346927438)
(-0.0133470632109 0.00249781746693 0.00152162660241)
(-0.0138695375197 0.00171999450624 0.00133946148077)
(-0.0142094103443 0.000473693632693 0.00129770244808)
(-0.0147325404649 -0.000984062465348 0.00126348460288)
(-0.0152549252959 -0.00267081948304 0.00110781988502)
(-0.0157253589043 -0.00437032498566 0.000788383363516)
(-0.0157966037783 -0.00550360660832 0.000366248465528)
(-0.0150622534549 -0.00627501188187 -0.000157644098437)
(-0.0133161496366 -0.00712445220519 -0.000532036555851)
(-0.0108652091004 -0.00817269888743 -0.00073429740658)
(-0.00818811857754 -0.00919562002691 -0.000879837362436)
(-0.00557626976586 -0.00996806261666 -0.000961427343305)
(-0.00324009949628 -0.0102318736131 -0.000957181039275)
(-0.000957757644406 -0.00989848443861 -0.000885816647621)
(-0.00128572786069 -0.00263980829743 0.000768199564377)
(-0.00411601590044 -0.00269638789105 0.000922505054641)
(-0.00688935221219 -0.00235506213974 0.00102425046467)
(-0.00926151777594 -0.00154257613334 0.00118298653976)
(-0.0110764646782 -0.0004721752801 0.00135114175292)
(-0.0123075527096 0.00033772667983 0.00144534441473)
(-0.0131836446772 0.000437319612 0.00147158360808)
(-0.0138743737821 -0.000106745794213 0.00140482845685)
(-0.0144923621885 -0.00115203764143 0.00131326696835)
(-0.0151008674259 -0.00235155624265 0.00116553506207)
(-0.0155587355955 -0.00365300778369 0.000912989355939)
(-0.0157835945354 -0.00482112379346 0.00054464197225)
(-0.0155923129884 -0.00567373953468 0.00014053293278)
(-0.0147748693013 -0.00636904396237 -0.000235024996513)
(-0.0131711211443 -0.00705702289186 -0.000556096828493)
(-0.0109735836679 -0.00787328059565 -0.000809672141072)
(-0.0085063319381 -0.0086846615902 -0.0010068010355)
(-0.00593543862968 -0.00922628896618 -0.00110801868438)
(-0.00351193342315 -0.00935045348421 -0.00116919586215)
(-0.000982189377169 -0.00889414318849 -0.00103487579839)
(-0.00122773525496 -0.00228517038662 0.000700799684946)
(-0.00388119697842 -0.00240840689513 0.000780543097625)
(-0.00645274331318 -0.00229885119892 0.000828744160522)
(-0.00877087688668 -0.00194384640465 0.00092184867091)
(-0.0106613393727 -0.0014291890848 0.00102042333019)
(-0.0120689445182 -0.00105852260264 0.00109460665302)
(-0.0131395878783 -0.00109144344554 0.00110992430082)
(-0.0140285225422 -0.00155265848675 0.00103666875702)
(-0.0147807601892 -0.0023125263972 0.000920349153748)
(-0.0154268250002 -0.00316003487177 0.000743394552732)
(-0.0158873049258 -0.00399823426657 0.000496581641554)
(-0.0160483932425 -0.00475482641426 0.000186831122792)
(-0.0157518553489 -0.00538941112151 -0.000145533348982)
(-0.014844537713 -0.0059552269401 -0.000459847984828)
(-0.0133235233806 -0.00651555625961 -0.000780708889495)
(-0.011307923731 -0.00713079665167 -0.00102354704515)
(-0.00893267833984 -0.00768559949754 -0.00119481189115)
(-0.00639300735106 -0.00805930999308 -0.00133337203162)
(-0.00382400938507 -0.00810215030606 -0.00143201572826)
(-0.00098274994213 -0.00755798575581 -0.00121606678142)
(-0.00122324986634 -0.00190372398758 0.000667546014559)
(-0.00378663446993 -0.00203922822377 0.000697271246165)
(-0.00619407661992 -0.00204779245785 0.000690138192794)
(-0.0084186766223 -0.00195036175554 0.000708903553729)
(-0.0103607281562 -0.0017861510903 0.000747755684223)
(-0.0119306124846 -0.00168440053515 0.000774532649465)
(-0.0131996558556 -0.00179737979027 0.000757966859986)
(-0.0142701573623 -0.00213229564055 0.000688086475741)
(-0.0151421919771 -0.0026291843661 0.000569120633512)
(-0.0158031754556 -0.00320353303297 0.000399399465662)
(-0.0162173377447 -0.00375386400674 0.000159127544998)
(-0.0163110111409 -0.00426197827219 -9.31827873757e-05)
(-0.0159526230266 -0.00470042714992 -0.000398498068948)
(-0.0150596337028 -0.00510823931816 -0.000659157783705)
(-0.0135838508542 -0.00553249691599 -0.000915135180178)
(-0.0116192860028 -0.00596336425971 -0.00115615505568)
(-0.0093360139927 -0.00633957130332 -0.00137422639837)
(-0.00678434426359 -0.00656233075257 -0.00154068649513)
(-0.00402777486887 -0.00648798987858 -0.00164523008953)
(-0.00101287689186 -0.00592372692159 -0.00132974668888)
(-0.00124904654868 -0.00144919895322 0.000666643422293)
(-0.00378590237586 -0.00158082669619 0.000660603852735)
(-0.00613499072112 -0.00165247160754 0.000621367099559)
(-0.00832583078857 -0.00168121884399 0.000608136301601)
(-0.0102702898965 -0.00166866981363 0.000594662543649)
(-0.0119366871158 -0.00169412906485 0.00057743201679)
(-0.0133313648632 -0.00184589531679 0.000548403674838)
(-0.0144856244216 -0.00208617700502 0.000456509384795)
(-0.0154041167562 -0.00240863748951 0.000338075052603)
(-0.0160682502819 -0.00274824155244 0.000183889838933)
(-0.016445176248 -0.00308914818362 -2.1374155666e-05)
(-0.0164666563379 -0.00340578364444 -0.000233844328357)
(-0.0160501965843 -0.00367557238511 -0.00047487892513)
(-0.0151309495446 -0.00393217544033 -0.000755408876107)
(-0.0137108040013 -0.00417978160841 -0.00104022939221)
(-0.0118220959981 -0.0044467158709 -0.00128708449954)
(-0.00953796727843 -0.00464195178574 -0.00151879729182)
(-0.00692683930397 -0.0047005857316 -0.00165760192201)
(-0.00409851277558 -0.00455134129107 -0.00172755936053)
(-0.00106650294218 -0.00406450752842 -0.00137420280261)
(-0.00125743250047 -0.000974551910928 0.000656044735004)
(-0.00379920740596 -0.00107811771038 0.000621273112075)
(-0.0061552948992 -0.00118178947166 0.000566718172841)
(-0.00834914218845 -0.00128095380663 0.000524338291413)
(-0.0103139996432 -0.00135293628476 0.000478255205541)
(-0.0120307861021 -0.00145194656981 0.000418233302189)
(-0.013464291209 -0.00159050604947 0.000360559605011)
(-0.014640250724 -0.00177934100959 0.000265969639923)
(-0.0155462366437 -0.00198207785335 0.000137875425557)
(-0.0161621320359 -0.00217215011988 -9.58730712349e-06)
(-0.0164843295363 -0.00233555222615 -0.00018411121843)
(-0.0164345423764 -0.00245762018052 -0.00038441389235)
(-0.0159738491535 -0.00253681846744 -0.00061580444371)
(-0.0150438526863 -0.00258525626772 -0.000875243938796)
(-0.0136205326123 -0.00266753863198 -0.00115077321128)
(-0.0117314092957 -0.00271873373724 -0.00139264117717)
(-0.00944212922001 -0.00274929847726 -0.00159978271227)
(-0.00682049025187 -0.00271686980756 -0.00168898251258)
(-0.00399637874894 -0.00258321312506 -0.00164046841225)
(-0.00111391457733 -0.00223798241206 -0.00128489934315)
(-0.00125208336239 -0.000333819690966 0.000598578663372)
(-0.00378258939212 -0.000416147959919 0.000531121718231)
(-0.00616973903118 -0.000500958885041 0.000444857382314)
(-0.00841879128953 -0.000583303345108 0.000329431897986)
(-0.0104287956829 -0.000659244161043 0.000214524057155)
(-0.0121650579117 -0.000738236909422 6.67407845674e-05)
(-0.0135961341192 -0.000815435808666 -7.94503254615e-05)
(-0.0147366436744 -0.000906936775952 -0.000223902044395)
(-0.0155761286549 -0.000971980381042 -0.000369328481039)
(-0.0161063105289 -0.00102235871158 -0.000508038857562)
(-0.016292760198 -0.00103100477586 -0.00063118267422)
(-0.0161184545806 -0.000999368903843 -0.000750577271606)
(-0.0155426622195 -0.000934953380023 -0.000864939633622)
(-0.0145623898934 -0.000815704115528 -0.00097648918224)
(-0.0131155788779 -0.000727102903411 -0.00107525532048)
(-0.0111950910577 -0.00064405458945 -0.00116552539557)
(-0.00890411372797 -0.000605980577725 -0.00125075483373)
(-0.00633863049209 -0.000593508112731 -0.00131925695696)
(-0.00361881483592 -0.00063096300032 -0.00127278661219)
(-0.00105160142219 -0.000591146466699 -0.00105063088154)
(-0.000809201221351 -0.000371822584692 0.00232596688408)
(-0.00243267512457 -0.000337377658346 0.00233538060629)
(-0.00393684160134 -0.000355469997517 0.00232663007036)
(-0.00527733859366 -0.000377584024329 0.00222060145098)
(-0.00638608903555 -0.00037903935447 0.00203561278932)
(-0.00725998393641 -0.000370870475995 0.00180999679606)
(-0.00789702863549 -0.00037823207355 0.00160271188218)
(-0.00833234260184 -0.000399557609965 0.00143005639205)
(-0.00856182991221 -0.000463206601313 0.00132165144773)
(-0.00858402479539 -0.000519774664852 0.00122637234144)
(-0.00843060706788 -0.000557417187511 0.00109693227885)
(-0.00810169092551 -0.000604345538687 0.00102335304689)
(-0.00764001788377 -0.000626267632756 0.000927812030378)
(-0.00705860071939 -0.000646809542252 0.000809983542937)
(-0.00633275772135 -0.000684163276156 0.000729039277641)
(-0.00545610456125 -0.00074575707761 0.000672220087986)
(-0.00441108962329 -0.000803606772139 0.000639101317767)
(-0.00322656265532 -0.000851734245061 0.0006191410589)
(-0.00196646774014 -0.00088612419801 0.000599255830635)
(-0.000631302060964 -0.00091342560958 0.000585595094084)
(-0.000929608685895 -0.000910201687683 0.00231149778277)
(-0.00259644362638 -0.000892171899121 0.00218270298644)
(-0.00409401732138 -0.00095342480612 0.00204529607623)
(-0.00542887255149 -0.00102955622168 0.00181545753457)
(-0.0065540641833 -0.00108026585055 0.00151882268937)
(-0.00745696820309 -0.00113994556646 0.00121714946134)
(-0.00811236496754 -0.00124171853466 0.000976578227101)
(-0.00854346576428 -0.00136231335132 0.000794982095085)
(-0.00875680343849 -0.00153846411451 0.000687123088297)
(-0.00874553978746 -0.00169178582036 0.00061897806319)
(-0.00857553578128 -0.00179851408981 0.000566296122725)
(-0.00823012256621 -0.00188253361894 0.000527883795219)
(-0.00773685022488 -0.00192741243959 0.000474680309449)
(-0.00712718589889 -0.00198430363471 0.000386815522337)
(-0.00638839177082 -0.00206185722998 0.000312041432176)
(-0.00552337915235 -0.00219529104597 0.000238379814172)
(-0.004495825543 -0.00235039630545 0.000189716048694)
(-0.00331161619851 -0.00248623077549 0.000177524171196)
(-0.0020222284664 -0.00259251983389 0.000212947495624)
(-0.000669250326704 -0.0026724423842 0.000423721436631)
(-0.000988310838389 -0.0012960808952 0.00238115885964)
(-0.00271303634365 -0.00132140418615 0.00215826725279)
(-0.00423984508387 -0.00140263930525 0.00188719091821)
(-0.00560344691959 -0.00148195090031 0.00152143094577)
(-0.0067772275994 -0.00154394165596 0.00113133199422)
(-0.00774411925694 -0.00165482235125 0.000775106142439)
(-0.00841775625648 -0.00184967037692 0.000480258761739)
(-0.00884793324638 -0.00201648443135 0.000259477531538)
(-0.00905450978187 -0.00227953798332 0.000128452927032)
(-0.0089968302784 -0.00250287182508 9.36795444442e-05)
(-0.00876494449422 -0.00269966605727 0.000116095843564)
(-0.00835972306641 -0.00283492491516 0.000139332908571)
(-0.00783315936279 -0.00290846147896 0.000156215719741)
(-0.00719960025901 -0.00302891701172 0.000101276431939)
(-0.00645773380394 -0.00316219326437 6.87818100954e-05)
(-0.00561551524928 -0.00339322941991 1.79099055556e-05)
(-0.00459841048378 -0.0036568523439 -1.0512102337e-05)
(-0.0034222431229 -0.00390546330526 -2.86403671191e-05)
(-0.00211653902816 -0.00410417294574 1.17498148022e-05)
(-0.000721883772992 -0.0042560044424 0.000270602506292)
(-0.00101186384994 -0.00167056318935 0.00247999289373)
(-0.00282784148915 -0.00172048728087 0.00214758133004)
(-0.0044098357303 -0.00180362086381 0.00177103411766)
(-0.00585593018126 -0.00185916503163 0.00130882644838)
(-0.00714637132601 -0.00188255620254 0.000839667028383)
(-0.00821679631843 -0.00201985875813 0.000408104811398)
(-0.00888362240182 -0.00230518882027 2.19147109849e-06)
(-0.00929670558982 -0.0024578841846 -0.000291636297682)
(-0.00946847062951 -0.0028478863607 -0.00049012275875)
(-0.00932666930369 -0.00315182099334 -0.000543217492888)
(-0.00901705258296 -0.00340892992186 -0.000484740884585)
(-0.00851225954164 -0.00358531965497 -0.000404655168532)
(-0.00793841977198 -0.00367164185122 -0.000269936126702)
(-0.00729641386746 -0.00388954256848 -0.000244454503618)
(-0.00656729268874 -0.00410076209549 -0.000178654377847)
(-0.00575663241643 -0.00444859934134 -0.000174150558029)
(-0.00473763401758 -0.00483273844292 -0.00017288563403)
(-0.00354803558013 -0.00519856317667 -0.000175310970702)
(-0.00222222496586 -0.00550505737318 -0.000136125296749)
(-0.000787103485672 -0.00576514471867 7.46617955142e-05)
(-0.00104159751218 -0.00200567402758 0.00260562077634)
(-0.00298195797459 -0.00205407628876 0.00216561993458)
(-0.00467861800195 -0.00211391345577 0.00170098923196)
(-0.00626909762823 -0.00211184542319 0.00118932991911)
(-0.00774239813775 -0.00207121297438 0.000667673589959)
(-0.00899030719266 -0.00220907572747 0.000174735894797)
(-0.00958461586628 -0.00262599081476 -0.000290298272413)
(-0.00994630230251 -0.00280077418353 -0.000687847505821)
(-0.0100487880361 -0.00325413648029 -0.00111615830768)
(-0.00968393743599 -0.00346341347567 -0.00133848581889)
(-0.00922635227548 -0.00364277810535 -0.00142434152417)
(-0.0086081741373 -0.00382855614013 -0.00139928999182)
(-0.00803626505996 -0.00397447379124 -0.00106206152636)
(-0.00744092224643 -0.00446424868659 -0.000737959429772)
(-0.00671568878647 -0.00482524553386 -0.000461904532331)
(-0.0059320771584 -0.00531500182037 -0.0004399321578)
(-0.00489586976295 -0.00582966609613 -0.000375442158445)
(-0.00368217346763 -0.00633651505033 -0.000352805003388)
(-0.00231313810642 -0.00675512818788 -0.00031002480422)
(-0.000826821746498 -0.00712183830644 -0.000131544413079)
(-0.00111125639462 -0.00232687152766 0.00275292708591)
(-0.00320864960924 -0.00233482829864 0.00225182967978)
(-0.00509679501347 -0.00231322477073 0.00176169033562)
(-0.00694329009389 -0.0021506612588 0.00121564573604)
(-0.00869881796804 -0.00195977778984 0.000609245916466)
(-0.0102190588954 -0.00205416202575 -0.000116765870729)
(-0.0107206598507 -0.00262617825676 -0.000787794491011)
(-0.0108957710758 -0.0026013731033 -0.00168912386491)
(-0.0105401528733 -0.00326923749116 -0.00210475600273)
(-0.00967329322022 -0.00367474455338 -0.00210620631167)
(-0.00903859838116 -0.00416641993977 -0.00217450781616)
(-0.00845782015711 -0.00456076892863 -0.00221859220748)
(-0.00813531929618 -0.00459668476809 -0.00158052004751)
(-0.00775145052949 -0.00492431393948 -0.00136507940942)
(-0.0069370952316 -0.00515316559747 -0.000928229001034)
(-0.006152469463 -0.00587768853748 -0.000804087230493)
(-0.00510330743107 -0.00662366219702 -0.000659030666396)
(-0.00386722869656 -0.00731539306764 -0.000588970800729)
(-0.00242865869428 -0.00784697678094 -0.000533485564026)
(-0.00086518239072 -0.00831276932611 -0.000390238906158)
(-0.00118387302633 -0.0026152331709 0.0029213057356)
(-0.00346811795803 -0.00255733588998 0.00242684305817)
(-0.00558878562703 -0.00239147660127 0.00195852204267)
(-0.00769183430317 -0.00198701867664 0.0013917575463)