/*--------------------------------*- C++ -*----------------------------------*\
| =========                 |                                                 |
| \\      /  F ield         | OpenFOAM: The Open Source CFD Toolbox           |
|  \\    /   O peration     | Version:  v1606+                                |
|   \\  /    A nd           | Web:      www.OpenFOAM.com                      |
|    \\/     M anipulation  |                                                 |
\*---------------------------------------------------------------------------*/
FoamFile
{
    version     2.0;
    format      ascii;
    class       volScalarField;
    location    "1.45";
    object      dgdt;
}
// * * * * * * * * * * * * * * * * * * * * * * * * * * * * * * * * * * * * * //

dimensions      [0 0 -1 0 0 0 0];

internalField   nonuniform List<scalar> 
6000
(
-18.8531
-18.7581
-18.9213
-18.9151
-18.8896
-18.7674
-18.5896
-18.3054
-17.7585
-18.0278
-18.1896
-18.3479
-18.3504
-17.7121
-17.512
-17.9589
-18.1108
-18.2977
-18.3727
-18.6992
-18.9823
-19.2173
-19.4018
-19.4454
-19.4263
-19.4279
-19.367
-19.2671
-18.5839
-15.9746
-2.16365
-2.01544
-2.05654
-2.1181
-2.22069
-2.33469
-2.43576
-2.34812
-2.29852
-2.2188
-2.24704
-2.32685
-2.35439
-2.42169
-2.40541
-2.26724
-2.14693
-2.07955
-2.15349
-2.40977
-2.45334
-2.40016
-2.30524
-2.19751
-2.06339
-1.94923
-1.82404
-1.7662
-1.83738
-2.44181
-0.148605
-0.131171
-0.12842
-0.13408
-0.154341
-0.194773
-0.322822
-0.544077
-0.477338
-0.446755
-0.457957
-0.475819
-0.477431
-0.50235
-0.493845
-0.467618
-0.440808
-0.453104
-0.466468
-0.453716
-0.316586
-0.247391
-0.174571
-0.13922
-0.126528
-0.122533
-0.11551
-0.110163
-0.112668
-0.131174
-0.0140123
-0.00947245
-0.00971812
-0.0143207
-0.0212026
-0.0299815
-0.0691533
-0.286513
-0.278021
-0.182803
-0.0969263
-0.0920268
-0.129486
-0.182078
-0.174769
-0.171099
-0.205128
-0.245519
-0.233728
-0.139838
-0.0688398
-0.0439762
-0.0326967
-0.0259548
-0.0197989
-0.0146547
-0.00959758
-0.00507769
-0.00398704
-0.00913116
-0.0012577
-0.00214788
-0.00331949
-0.00718701
-0.0124619
-0.0178422
-0.0248945
-0.0947207
-0.230732
-0.122758
-0.0201155
0.0320077
0.00706265
-0.0576726
-0.0781656
-0.0878433
-0.140997
-0.180851
-0.15773
-0.0655651
-0.00877456
-0.0140238
-0.0214212
-0.0195552
-0.0125522
-0.00627568
-0.00169204
0.00167622
0.00272068
0.00110739
-0.00218535
-0.00237391
-0.00276164
-0.00505212
-0.00938283
-0.0150879
-0.01794
-0.0121728
-0.101157
-0.0854865
-0.0543157
0.00784512
0.0195485
-0.00458226
-0.0286081
-0.0411067
-0.0786774
-0.121639
-0.112871
-0.0433017
0.0294839
0.00502024
-0.0127511
-0.0143318
-0.00808311
-0.00198941
0.00166025
0.00364255
0.00384776
0.00215609
-0.00558758
-0.00283077
-0.00268673
-0.003075
-0.00539114
-0.0098303
-0.0133422
-0.001152
-0.0161748
-0.0469125
-0.0592411
-0.0431771
-0.0202667
-0.0100772
-0.00933702
-0.0145587
-0.0289782
-0.0553237
-0.0633095
-0.0400511
0.0219434
0.0141875
-0.0036798
-0.00574664
-0.001768
0.00196352
0.00400512
0.00506518
0.00508261
0.0032422
-0.00685248
-0.00325821
-0.00247795
-0.0019281
-0.00199992
-0.00314177
-0.00603817
7.73733e-05
0.00166576
-0.0366165
-0.0565181
-0.055147
-0.0364552
-0.0160675
-0.00601049
-0.00542961
-0.0101969
-0.022816
-0.0354903
-0.0348446
-0.00491547
0.0108755
0.00191085
0.00093887
0.00326653
0.00467031
0.00518313
0.00578572
0.00622593
0.00459903
-0.00604875
-0.00325627
-0.00168099
-0.000577674
0.000638597
0.00150428
-0.00172631
-0.00253107
-0.0033708
-0.0385482
-0.0511015
-0.0432193
-0.0230436
-0.00947589
-0.00318525
-0.00237086
-0.00436992
-0.01044
-0.0195898
-0.0237073
-0.0151996
0.00263524
0.0027891
0.00375876
0.00591855
0.00647784
0.00581496
0.00576257
0.00657429
0.00588238
-0.0043486
-0.00214646
9.79341e-05
0.00187631
0.00317853
0.00338003
-0.0036147
-0.00920895
-0.0168428
-0.0427408
-0.0403547
-0.0213557
-0.00919769
-0.00332679
-0.000645643
-0.000253791
-0.00130402
-0.00458956
-0.0100196
-0.0141976
-0.0152879
-0.002312
0.00113661
0.00413943
0.00678249
0.00749283
0.00666735
0.00564845
0.00666893
0.00638366
-0.0022016
0.000297491
0.00403792
0.0062902
0.0062996
0.00290257
-0.00874181
-0.0153648
-0.0301209
-0.038283
-0.0246223
-0.00976728
-0.00398574
-0.000586163
0.001117
0.00147821
0.000836427
-0.00118091
-0.00463246
-0.00750958
-0.00877836
-0.00451329
0.000401155
0.00395202
0.00680978
0.00800856
0.00818022
0.00719565
0.0064312
0.00502508
0.0014253
0.00521074
0.00987846
0.0122736
0.00967315
0.00204057
-0.0110195
-0.0193121
-0.0313818
-0.0291131
-0.0139693
-0.00572483
-0.0013073
0.00134633
0.00259622
0.00286677
0.00236024
0.000877862
-0.00148367
-0.00352132
-0.00512019
-0.00330973
-8.70183e-05
0.00334387
0.00623238
0.00829028
0.00955677
0.00972305
0.00878239
0.00701039
0.0057521
0.0114538
0.0161393
0.0185663
0.0116693
0.000616108
-0.0104481
-0.0195831
-0.0245418
-0.0194116
-0.00813913
-0.00272859
0.00110349
0.00296128
0.0036628
0.00366072
0.00323013
0.0020931
0.000329188
-0.00108834
-0.00153832
-0.00163274
-0.000596093
0.00127991
0.00401
0.00691962
0.0100204
0.0141938
0.0162615
0.0123303
0.00859551
0.0145326
0.0215573
0.0169989
0.00419855
-0.00400275
-0.0109785
-0.0177989
-0.0185053
-0.0115564
-0.00389935
0.000515655
0.00349242
0.0045589
0.0045506
0.00376296
0.00283106
0.00200456
0.000863716
-4.6911e-05
-0.000434239
-0.00155653
-0.00315118
-0.00400256
-0.00115669
0.00166992
0.00697244
0.019712
0.0275267
0.0156718
0.00609371
0.0184465
0.0226799
0.00709627
-0.0126251
-0.0167288
-0.0171971
-0.0205721
-0.0208613
-0.0116745
-0.00228546
0.00297888
0.00571961
0.00635501
0.00564525
0.00372554
0.000857589
-0.00134939
-0.00162256
-0.00153996
-0.00200014
-0.00442063
-0.00833412
-0.00912358
-0.00643806
-0.00297541
0.00479769
0.0134879
0.0273083
0.0393678
0.0269594
0.0249406
0.0142159
0.00614256
-0.0131655
-0.0269427
-0.0269758
-0.0292616
-0.0301781
-0.0198775
-0.00311637
0.00450763
0.00773115
0.00848082
0.00698969
0.00364477
-0.00193717
-0.00804781
-0.00923698
-0.00731696
-0.0056819
-0.00666671
-0.00987269
-0.00893461
-0.00110854
0.00487773
0.00791627
0.00910804
0.0194173
0.0369499
0.0366086
0.0257118
0.0089055
0.00372611
0.00167815
-0.0132429
-0.0232431
-0.0299905
-0.0307013
-0.0133397
0.000166606
0.00787234
0.00993646
0.0114697
0.00891431
0.00306952
-0.00481095
-0.0129604
-0.0165121
-0.0126558
-0.00565774
-0.00497419
-0.0038447
0.00144829
0.00841099
0.00915022
0.00547624
0.00756808
0.0183762
0.0262982
0.0330343
0.0224999
0.00794132
0.00317532
0.00306447
0.00418741
-0.00113319
-0.00681445
-0.0074113
0.00191229
0.00719188
0.0116527
0.0167057
0.0183505
0.0147052
0.00755899
-0.00231517
-0.0087676
-0.0151411
-0.00427548
0.00493078
0.00520194
0.00819133
0.00991469
0.00801677
0.00604015
0.00636879
0.00820441
0.0182345
0.0232549
0.0255345
0.0202682
0.00914261
0.00377297
0.00296834
0.00365406
0.00474503
0.00526533
0.00562586
0.00552879
0.00721707
0.0110253
0.0159952
0.0170829
0.0147202
0.010532
0.005115
0.000839479
-0.00839819
0.0030885
0.0117592
0.0127161
0.0103283
0.00785253
0.00666101
0.00673775
0.00616948
0.00891171
0.017303
0.0216305
0.0224039
0.0182458
0.0112659
0.00538792
0.00358401
0.00309735
0.00328834
0.00360736
0.00410409
0.00485632
0.0065679
0.00878157
0.0105793
0.0112394
0.0103252
0.00806105
0.00633605
0.00678817
0.0052719
0.0052099
0.00907404
0.0104929
0.00926182
0.00802453
0.00721916
0.00685623
0.0071367
0.00933847
0.0159613
0.0204276
0.0199496
0.0167759
0.0127648
0.00768557
0.0046884
0.00349587
0.00334897
0.00348956
0.00403957
0.00520753
0.00714414
0.0092756
0.00997374
0.00978986
0.0083657
0.00569005
0.00455805
0.00511936
0.00817061
0.00871273
0.0105157
0.0116067
0.0103398
0.008982
0.00836559
0.00814693
0.00835033
0.00951461
0.0141929
0.0191262
0.018188
0.0158547
0.0132203
0.0095989
0.00641535
0.00439084
0.00363909
0.00380698
0.00443519
0.00579787
0.00771899
0.00932246
0.00992158
0.00950584
0.00760556
0.0046648
0.00357695
0.00439522
0.00759779
0.0111348
0.0131724
0.0132678
0.0115001
0.0102353
0.00980234
0.00965906
0.00963081
0.0100025
0.0126258
0.0166727
0.0174483
0.0152989
0.0131406
0.0106506
0.00805446
0.00576597
0.00445984
0.00454582
0.00511627
0.00637012
0.00803028
0.00912943
0.00965985
0.00883682
0.00643871
0.00362675
0.00272861
0.00383008
0.00796552
0.0129478
0.0150569
0.0144712
0.0124834
0.0113987
0.0111925
0.0110555
0.0108595
0.0109473
0.0121886
0.0140918
0.0170509
0.0148696
0.0131854
0.0114137
0.00937086
0.00736776
0.00575796
0.00557153
0.00588312
0.00686535
0.0083363
0.00915016
0.0090744
0.00789019
0.00508696
0.00275505
0.00241944
0.00338103
0.00862504
0.0144163
0.0161655
0.0152992
0.0134178
0.0125556
0.0124895
0.0123229
0.0120006
0.0118104
0.0124357
0.0133201
0.0167363
0.0145778
0.0133254
0.0122548
0.0107226
0.00909159
0.00754339
0.00684708
0.00677332
0.00736538
0.00840694
0.00874894
0.00819967
0.00677409
0.00395392
0.00199233
0.00126288
0.00298317
0.00917991
0.0155036
0.0168451
0.0159548
0.0143185
0.013672
0.0136604
0.0134563
0.0130957
0.012686
0.0126991
0.0133321
0.0170885
0.0145843
0.0133651
0.0128419
0.011997
0.0109206
0.00976222
0.00861487
0.00803008
0.00817629
0.00841098
0.0080591
0.00736802
0.00584233
0.00320731
0.00200544
0.00248216
0.0026732
0.00952547
0.0161162
0.0172011
0.0164773
0.015147
0.0146251
0.0145818
0.0143624
0.0140789
0.0137822
0.0135666
0.0138232
0.0175753
0.014957
0.0136068
0.0133643
0.0130941
0.0125922
0.0120164
0.01087
0.00976579
0.00924065
0.00830987
0.00740262
0.00692476
0.00517982
0.00283418
0.00148619
0.000833641
0.00263489
0.00974608
0.0164094
0.0173747
0.0169153
0.0158816
0.0153896
0.0152627
0.0150387
0.0148919
0.0149
0.0149159
0.0150366
0.0182653
0.0155769
0.0140716
0.0140705
0.0142807
0.014078
0.0136343
0.0128084
0.0117951
0.0106569
0.00876709
0.00754275
0.00673886
0.00469484
0.00268049
0.00115506
0.0011626
0.00251479
0.0094147
0.0163601
0.0174376
0.0172661
0.0165104
0.0160219
0.0158127
0.0155813
0.0154877
0.0156729
0.0160349
0.0163761
0.0189656
0.0163106
0.0149547
0.0151417
0.0155884
0.0154497
0.014916
0.0140976
0.0132223
0.0124811
0.0105452
0.00842496
0.00657303
0.00453755
0.00273852
0.00155978
0.000888237
0.00236199
0.00851653
0.0158906
0.0173706
0.0175077
0.017054
0.016618
0.0163709
0.0161389
0.0160068
0.0161512
0.0166928
0.0173711
0.0196066
0.0171102
0.0161139
0.0164273
0.0168626
0.0166243
0.0159327
0.0150342
0.0142466
0.0140916
0.0128862
0.009376
0.00659442
0.00472968
0.00302015
0.00169536
0.00100639
0.00195124
0.00712212
0.0148839
0.0171008
0.0175606
0.0174868
0.0172306
0.0170314
0.0168587
0.0167276
0.0167753
0.0173534
0.0183079
0.0202216
0.0180258
0.0174666
0.0178134
0.0180013
0.0174859
0.0166343
0.0157432
0.015099
0.0150379
0.0144524
0.0102864
0.00687702
0.00518253
0.0035178
0.00181145
0.000759919
0.00114115
0.00526104
0.0131519
0.0165292
0.0172866
0.0176307
0.0177644
0.0178123
0.0178389
0.0178077
0.0178313
0.0183077
0.0194435
0.0210296
0.0194413
0.0193067
0.0194863
0.0192084
0.0182675
0.0172026
0.0162537
0.0155656
0.015255
0.0149636
0.011225
0.00767209
0.00616726
0.00449948
0.00194098
-6.4702e-05
-0.000382355
0.00256688
0.010189
0.0153797
0.0166607
0.0174436
0.0180237
0.018525
0.0189937
0.0192955
0.0193662
0.0195915
0.0205315
0.0223037
0.0217566
0.022046
0.021944
0.0207463
0.0187913
0.0172183
0.0159156
0.0148044
0.0137429
0.0136251
0.0118714
0.0090743
0.00766917
0.0059396
0.0020777
-0.00149235
-0.00283324
-0.000804998
0.00633421
0.0134827
0.0156641
0.01686
0.018047
0.0191365
0.0198238
0.0206156
0.0211769
0.0212901
0.021694
0.024208
0.0250505
0.0255945
0.0248025
0.0220785
0.0182336
0.0162196
0.0145247
0.0125453
0.0101934
0.00940614
0.00997912
0.00938774
0.00875698
0.00734043
0.0023376
-0.00329961
-0.00557295
-0.00381166
0.00254564
0.010563
0.0138486
0.0156879
0.0178424
0.0193697
0.0197378
0.0209676
0.0224566
0.0231477
0.0230935
0.0266207
0.0284645
0.0288966
0.0274616
0.0232632
0.015811
0.0137155
0.0120001
0.0099067
0.00543079
0.00233522
0.00376941
0.00720634
0.00858037
0.00834606
0.00326406
-0.00506308
-0.00767656
-0.00578496
-0.00107011
0.00623032
0.0107507
0.0135974
0.0168838
0.0186388
0.018064
0.0203296
0.0226991
0.0244744
0.0245512
0.0283704
0.0304511
0.031238
0.029972
0.0265857
0.0146421
0.0126605
0.0102205
0.00790924
0.00397876
-0.00133727
-0.00162915
0.00335458
0.00592999
0.00513326
-0.000862279
-0.0108535
-0.0117024
-0.00992181
-0.00705189
-0.000892835
0.00494356
0.00913087
0.0140115
0.0178241
0.0152982
0.0201894
0.0226808
0.0249293
0.0255344
0.0283829
0.0302602
0.0313897
0.0305882
0.0227385
0.0174481
0.0143944
0.0138789
0.0107162
0.00701382
0.00160323
-0.00127485
-8.69021e-05
-0.00184515
-0.0073161
-0.020122
-0.0374416
-0.0325563
-0.0244053
-0.0187677
-0.0115018
-0.00259364
0.00218505
0.00647997
0.0124916
0.0159874
0.0224245
0.0240158
0.0252922
0.0258273
0.0270746
0.0280227
0.0284859
0.0237909
0.0166586
0.00992126
0.0145352
0.018077
0.0181131
0.0161239
0.0129801
0.0117762
0.0100087
0.00532753
0.00195016
-0.0186777
-0.0475151
-0.0673357
-0.0518311
-0.0370427
-0.0200271
-0.00520593
0.000339968
-0.00181761
0.0121896
0.0182443
0.0233076
0.0251462
0.0256681
0.0257101
0.0256662
0.0253794
0.0237975
0.0219071
0.00918349
0.00628912
0.00692252
0.00862767
0.0116737
0.0136392
0.0148978
0.0164792
0.0183501
0.0202376
0.0124564
0.00432635
-0.0112534
-0.0343056
-0.0322284
-0.0192463
-0.00124544
0.00903139
0.0133526
0.0123058
0.00763657
0.0093375
0.0220765
0.026791
0.0263401
0.0252618
0.0271459
0.0273561
0.0254368
0.0161457
0.00753632
0.00625628
0.00619387
0.00630602
0.00688058
0.0079025
0.00966576
0.0124709
0.0141462
0.0131435
0.00944511
0.00668616
0.00686471
0.0061231
0.00714996
0.0106452
0.0128126
0.0136833
0.0107267
0.00747916
0.00616131
0.00617071
0.0135238
0.0257589
0.0234123
0.0216112
0.028427
0.0271112
0.0255234
0.0131383
0.00805726
0.00698828
0.00670052
0.00673789
0.00727513
0.00844234
0.0108451
0.0135588
0.0139764
0.011682
0.00831208
0.00639727
0.0060192
0.00683161
0.00727962
0.00762355
0.00731538
0.00673605
0.00635302
0.00636681
0.00616782
0.00617
0.00821838
0.0224939
0.0220029
0.0194549
0.0281812
0.0275723
0.0235292
0.0126224
0.00903983
0.00795457
0.00755505
0.00758612
0.00825203
0.00996042
0.0127515
0.0145896
0.013851
0.0109715
0.00792876
0.00648907
0.00600203
0.00595815
0.00595957
0.00600404
0.00609714
0.00616941
0.00619554
0.00629726
0.00638664
0.00630442
0.00694284
0.0151685
0.0272084
0.0279904
0.0270104
0.0279521
0.0223421
0.0132195
0.00998881
0.00878535
0.00831927
0.00843824
0.00941217
0.0117344
0.0142266
0.0149844
0.0135208
0.0101666
0.00779347
0.0066518
0.00622349
0.00609011
0.00600981
0.00602854
0.00609119
0.00621441
0.00636755
0.00666139
0.00696157
0.00689941
0.00733874
0.012433
0.0262819
0.0327854
0.0266175
0.0269151
0.0219188
0.0139897
0.0108473
0.00954599
0.00903292
0.009236
0.0106133
0.0133601
0.0150632
0.0150751
0.0126924
0.0095365
0.00781877
0.00689532
0.00656895
0.00639525
0.00628395
0.00630114
0.00636946
0.00656109
0.00682979
0.00722161
0.00764053
0.00772426
0.00811725
0.0124223
0.0246693
0.0289114
0.0260369
0.0262695
0.0217442
0.0148296
0.01171
0.0103122
0.00981234
0.0101328
0.0118691
0.0145935
0.0153266
0.0147918
0.0117938
0.00921574
0.00785254
0.00719822
0.00693195
0.00674272
0.00663722
0.00665036
0.0067343
0.00696906
0.00732022
0.0077857
0.00832411
0.00856744
0.00908335
0.0131028
0.0243877
0.0274764
0.025251
0.0260227
0.0217582
0.0158403
0.0126475
0.0111536
0.0107285
0.0112662
0.0131527
0.01519
0.015369
0.0139431
0.0111356
0.00915335
0.00802322
0.00755366
0.00730231
0.00709121
0.00699055
0.00699272
0.00709323
0.00736764
0.0077999
0.00836839
0.00906549
0.00943849
0.0102031
0.0146618
0.0249788
0.0270474
0.0245719
0.0257899
0.0221208
0.0169483
0.0135353
0.0119933
0.0117553
0.0127025
0.0142311
0.0151105
0.0149152
0.0129741
0.0107849
0.00921671
0.00834819
0.00796607
0.00771548
0.00749012
0.00738534
0.00737282
0.00748247
0.0078002
0.0083229
0.00902536
0.00991069
0.0104096
0.0115064
0.0167892
0.025641
0.0269699
0.0266374
0.0258995
0.0230132
0.018074
0.014285
0.0127336
0.0127105
0.0142314
0.0149795
0.0149233
0.0141084
0.0122556
0.010663
0.00944773
0.00878856
0.00842848
0.00817163
0.00795305
0.00784086
0.00781874
0.00794041
0.00831128
0.0089364
0.00978816
0.0108529
0.0115285
0.0129582
0.018805
0.0260046
0.0269976
0.0271312
0.0261329
0.0241403
0.0189245
0.0147501
0.0132158
0.0133301
0.0161651
0.0155719
0.0150564
0.0138429
0.011992
0.0106609
0.00981325
0.00930098
0.00891644
0.00865254
0.00846318
0.00834919
0.00833219
0.00848428
0.008922
0.00966116
0.0106689
0.011879
0.0127954
0.0145248
0.0203717
0.0262638
0.0270811
0.0262656
0.0261194
0.0249119
0.0193244
0.014867
0.0132878
0.0129851
0.0140108
0.0152444
0.0154027
0.0146051
0.0125887
0.0108963
0.0102018
0.00982796
0.00941406
0.00913935
0.00898992
0.00889826
0.00891216
0.00912321
0.00964652
0.0105145
0.0116827
0.0130342
0.0142283
0.0162515
0.0217378
0.0265397
0.0271949
0.0257387
0.026093
0.0253101
0.0196964
0.0152346
0.0137573
0.013184
0.0122918
0.0149146
0.016227
0.0163042
0.014346
0.0118736
0.010654
0.0102491
0.00990606
0.00962287
0.00950778
0.00948184
0.00957324
0.00988755
0.0105229
0.0115511
0.0129094
0.0144758
0.0160036
0.0182225
0.0230599
0.0268084
0.0273032
0.0246009
0.024318
0.0254953
0.0203858
0.015843
0.0147667
0.0145802
0.014899
0.0165091
0.0177324
0.0182315
0.0167105
0.0138195
0.0115848
0.0106358
0.0103204
0.0101282
0.0100506
0.0101336
0.0103794
0.0108676
0.011659
0.0129346
0.0146016
0.0164867
0.0182758
0.0203955
0.0240586
0.0269403
0.0273696
0.0224798
0.0214799
0.0218771
0.0188788
0.0159188
0.0158785
0.0163496
0.0171328
0.0183974
0.0193502
0.0197789
0.0186227
0.0160866
0.0133652
0.0115488
0.0108125
0.0107031
0.0107489
0.0109789
0.0114574
0.0122247
0.0132976
0.0149091
0.0169425
0.0190173
0.0207993
0.0223301
0.0243183
0.0263727
0.0275905
0.02109
0.018941
0.0158353
0.0135719
0.0142994
0.0160865
0.0172284
0.0181101
0.0191177
0.0199688
0.0204589
0.0197625
0.0179137
0.015521
0.0133075
0.0119991
0.0117135
0.0118479
0.0123078
0.0130455
0.0141178
0.0155564
0.0174638
0.0195168
0.0212978
0.0224664
0.0230375
0.0238109
0.0252601
0.0268774
0.0219018
0.0188086
0.0134049
0.00990509
0.0110808
0.012874
0.0138353
0.0148867
0.0163483
0.017786
0.0189317
0.0192286
0.0185618
0.01711
0.015289
0.0138226
0.0133367
0.0134467
0.0141761
0.0152077
0.0165323
0.0180773
0.0198301
0.0212124
0.0219035
0.0220078
0.022149
0.0228652
0.024092
0.0255653
0.0236156
0.0207053
0.0156575
0.0109417
0.00837671
0.00773942
0.00823124
0.00949441
0.0113133
0.0129367
0.0140791
0.0149403
0.016233
0.01666
0.0160234
0.0150983
0.014867
0.0150474
0.0158898
0.0171639
0.0184958
0.0195774
0.0202528
0.0202639
0.02005
0.0200882
0.0206806
0.0217899
0.0230326
0.0243005
0.0231417
0.0219138
0.0179623
0.0129743
0.00770308
0.00531309
0.00534689
0.00643742
0.00745616
0.00798826
0.00813119
0.00833017
0.00930145
0.0115802
0.0132971
0.0138234
0.0143832
0.0148744
0.0158196
0.0168926
0.0174623
0.0173465
0.0169982
0.0168903
0.0173317
0.0182558
0.0194065
0.0206806
0.0221146
0.0231117
0.0247615
0.0225664
0.0185261
0.014445
0.00985879
0.00731709
0.00754514
0.00806247
0.00764128
0.00635181
0.00454687
0.00228834
0.00174361
0.00326088
0.0056505
0.00787206
0.00948602
0.010474
0.0114597
0.0120928
0.0121596
0.0120813
0.0125475
0.0138
0.0154426
0.0170879
0.0184838
0.0196656
0.0208709
0.0222949
0.0253163
0.0235773
0.0203624
0.0169422
0.0149233
0.0135679
0.0132005
0.0124919
0.0107748
0.00836324
0.00528283
0.00221308
-0.000381461
-0.00134022
-0.00085253
0.000374676
0.00194252
0.00326149
0.00467445
0.005844
0.00693267
0.00836364
0.0102263
0.012361
0.0144195
0.01621
0.0176743
0.0187688
0.0197741
0.0212134
0.0268641
0.0254265
0.0232423
0.0212217
0.0205999
0.0186428
0.0164928
0.0146198
0.0129573
0.0110052
0.00884042
0.00595603
0.00312931
0.0005825
-0.00118021
-0.00208316
-0.00179307
-0.000780641
0.000942497
0.00298092
0.00520528
0.00755315
0.00979006
0.0118437
0.0137414
0.0154324
0.0168443
0.0178422
0.018566
0.0195602
0.0292259
0.0275108
0.026395
0.0246479
0.0228828
0.0206866
0.0177559
0.0149358
0.0137901
0.0128707
0.0119207
0.0102229
0.00780754
0.00500528
0.00240736
0.000407511
-0.000442862
-3.81844e-05
0.00146591
0.00359572
0.00583606
0.00794907
0.00988284
0.0116666
0.0133351
0.014854
0.0161422
0.0170606
0.0175772
0.0181035
0.0315073
0.028783
0.0255834
0.02247
0.0232508
0.0239982
0.0196713
0.0140674
0.0143876
0.0139585
0.0138612
0.0129806
0.0108902
0.00824852
0.0057655
0.00383197
0.00275617
0.00275773
0.00369543
0.00518848
0.00690167
0.00861985
0.010249
0.0117811
0.0132302
0.0145652
0.0157154
0.0165633
0.0169765
0.0170365
0.0315485
0.0270679
0.0224235
0.0196161
0.0203809
0.0235719
0.0199862
0.0156213
0.01486
0.0147736
0.0148877
0.014082
0.0121603
0.00986758
0.0077778
0.00619039
0.00528516
0.00514254
0.00570187
0.00674819
0.00806548
0.00946971
0.0108517
0.0121737
0.0134302
0.0145909
0.0155935
0.0163246
0.0166074
0.0160981
0.0287784
0.0235235
0.020681
0.0177652
0.0152598
0.0144789
0.0130202
0.0141691
0.0136837
0.0143685
0.0144272
0.0135518
0.0120095
0.0103195
0.00880391
0.00766275
0.00702492
0.00693838
0.00736974
0.00819858
0.00927805
0.010468
0.011669
0.0128308
0.0139333
0.0149455
0.0158063
0.0163912
0.0164831
0.0155271
0.0233089
0.0210045
0.0167323
0.0128769
0.00879049
0.00608305
0.0036477
0.00584035
0.0105279
0.0120428
0.0124025
0.0119642
0.0111188
0.0101524
0.00926367
0.00860697
0.00829095
0.00836578
0.0088161
0.0095719
0.0105334
0.0115985
0.0126846
0.0137393
0.0147338
0.0156362
0.0163883
0.0168613
0.0168135
0.0156838
0.018115
0.0151722
0.00831785
0.00410464
0.0017467
-6.56423e-06
-0.00277088
-0.00020606
0.0061639
0.00858847
0.009673
0.0100311
0.00998647
0.00974037
0.00945848
0.00927875
0.00930336
0.00958836
0.010138
0.0109103
0.0118403
0.0128548
0.013887
0.014887
0.0158208
0.0166564
0.017341
0.0177532
0.0176522
0.0166144
0.00908463
0.00567236
-0.00170769
-0.00680448
-0.00863918
-0.00900183
-0.00792362
-0.00513974
0.00194966
0.00512353
0.00702733
0.00820032
0.00890538
0.0093185
0.00959078
0.00985159
0.0102044
0.0107156
0.0114048
0.0122505
0.0132112
0.0142352
0.0152679
0.0162624
0.0171821
0.0179938
0.0186501
0.0190419
0.0189526
0.018118
0.0010371
-0.00388437
-0.011875
-0.0175576
-0.0152964
-0.0145886
-0.0131975
-0.00917035
-0.00193878
0.00202556
0.00471661
0.00663984
0.00802571
0.00902945
0.00978982
0.0104368
0.0110852
0.0118156
0.012662
0.0136168
0.0146542
0.0157378
0.0168211
0.0178581
0.0188094
0.0196409
0.0203073
0.0207143
0.0206795
0.0200583
-0.00178834
-0.0080893
-0.0176706
-0.0201154
-0.014944
-0.0136086
-0.0146504
-0.0114374
-0.00523711
-0.000689367
0.00275583
0.00540574
0.00742934
0.00895998
0.0101346
0.0111015
0.0120025
0.0129314
0.013935
0.01502
0.0161713
0.0173609
0.0185441
0.0196727
0.0207023
0.0215979
0.0223173
0.0227798
0.0228387
0.0224171
0.000406708
-0.00611221
-0.0118362
-0.0131744
-0.00942267
-0.0109497
-0.0145192
-0.0129755
-0.00797463
-0.00301407
0.00118282
0.00455947
0.00718562
0.00917438
0.0106769
0.0118885
0.0129823
0.0140768
0.0152279
0.0164574
0.0177577
0.0191021
0.02044
0.0217175
0.0228763
0.0238813
0.0247014
0.0252708
0.0254741
0.0252568
0.00670796
0.00100239
-0.00442984
-0.00568655
-0.00879539
-0.0146006
-0.0177262
-0.0156438
-0.0105221
-0.00489689
0.000113599
0.00420606
0.00737796
0.00973215
0.0114457
0.0127859
0.0139954
0.015196
0.0164895
0.0178973
0.0193965
0.0209573
0.0225163
0.0240132
0.0253775
0.0265526
0.0275244
0.0282469
0.0286387
0.0286497
0.0114592
0.00559769
-0.00056903
-0.00998182
-0.0170745
-0.0243744
-0.0239208
-0.0192961
-0.0127187
-0.00609238
-0.000247731
0.00448347
0.0080948
0.0106799
0.012385
0.0136418
0.0148976
0.0161535
0.0175968
0.0192624
0.0210549
0.0229289
0.0248002
0.0265764
0.0281985
0.0296144
0.0308008
0.0317367
0.0323815
0.0326764
0.00705218
0.00271309
-0.0101103
-0.0218786
-0.0275558
-0.0347101
-0.0297988
-0.0223091
-0.0138297
-0.00617346
0.000319881
0.00549935
0.00938842
0.0120213
0.0133267
0.0143893
0.0155153
0.0167757
0.0184294
0.0204733
0.0227105
0.0250386
0.0273371
0.0294721
0.0313772
0.0330669
0.0345354
0.0357914
0.0368149
0.0374797
0.00139545
-0.0095425
-0.0185071
-0.0287804
-0.0341627
-0.0357348
-0.030176
-0.0218351
-0.0128279
-0.00479676
0.00190975
0.00723391
0.0112135
0.0137082
0.0143054
0.0149049
0.0157672
0.0170341
0.0189932
0.0215579
0.0244181
0.0273754
0.03025
0.032849
0.0350324
0.0369406
0.0387298
0.0404731
0.0420672
0.0432337
-0.00208384
-0.0103844
-0.0218623
-0.0267471
-0.0272791
-0.0253091
-0.0218491
-0.0164496
-0.00924662
-0.00200502
0.00432902
0.00943713
0.0133578
0.0157359
0.0135185
0.015371
0.0159334
0.017223
0.019521
0.0227035
0.0263515
0.0301489
0.0337958
0.0369968
0.0394742
0.0414424
0.0433687
0.0458554
0.0481928
0.0498282
0.000517238
-0.011191
-0.0158308
-0.0200244
-0.0176471
-0.0158644
-0.0119759
-0.00887408
-0.00438166
0.00149917
0.00702758
0.0115408
0.0152501
0.0183914
0.0284103
0.0170424
0.0164006
0.017565
0.0202412
0.0241443
0.0287377
0.0336007
0.0383504
0.0425479
0.0458194
0.0482163
0.0500668
0.0531681
0.055954
0.0578908
0.0038712
-0.00363049
-0.00639357
-0.0107683
-0.0111306
-0.00845903
-0.00596434
-0.00418531
-0.000380887
0.00474229
0.00933857
0.0128079
0.0156332
0.0184228
0.0284729
0.0176451
0.0164214
0.0178059
0.021109
0.0258788
0.0315722
0.0377723
0.0442152
0.0506105
0.0561471
0.0597163
0.0612639
0.0643935
0.0664855
0.068394
0.00940749
-0.000421391
-0.00402228
-0.00824531
-0.00478849
-0.0022752
-0.00358199
-0.00269777
0.00187492
0.00723172
0.0107944
0.0128085
0.0142185
0.0153097
0.0044903
0.0128298
0.014381
0.0173329
0.0217271
0.027476
0.034266
0.0422063
0.050872
0.0602214
0.0690936
0.0708615
0.0768937
0.0783971
0.078418
0.0794396
0.019269
0.00216906
-0.00336383
-0.00584246
0.000469279
0.00202234
-0.00201239
-0.00252232
0.00332207
0.00904965
0.0111872
0.0114566
0.0113779
0.0107545
0.010001
0.00749994
0.0116086
0.016285
0.0217888
0.0282806
0.0360505
0.0454394
0.0546732
0.0644642
0.073316
0.0836279
0.0834592
0.0857524
0.0868776
0.0878536
0.0153884
-0.000564116
-0.0030608
-0.00227506
0.00481281
0.00450477
-0.00191094
-0.00202142
0.00425581
0.010045
0.0102417
0.00876237
0.00729187
0.00506723
0.00355338
0.00240912
0.00843908
0.0146566
0.0208394
0.0276328
0.0355673
0.0442632
0.052188
0.0561783
0.0609761
0.0711048
0.081011
0.0875691
0.0874931
0.0900928
0.011364
-0.00427081
-0.00394712
0.000673172
0.00705053
0.00478345
-0.00299233
-0.00388077
0.0038111
0.00937145
0.00776326
0.0051381
0.00258318
-0.00187562
-0.00192996
-0.00241977
0.00516729
0.0123204
0.018637
0.0249169
0.0310009
0.0360296
0.0388445
0.0391919
0.0390755
0.0435525
0.056916
0.0765379
0.0876339
0.0834105
0.00752873
-0.00795406
-0.00573674
0.00170293
0.00700503
0.00356851
-0.0048982
-0.0053618
0.00196467
0.00635466
0.0043432
0.00124995
-0.00203868
-0.0067575
-0.0102145
-0.00563879
0.0024709
0.00982049
0.0157894
0.0202334
0.0230969
0.0231086
0.0214539
0.0219029
0.0212686
0.0211862
0.0253721
0.0403511
0.0734262
0.0903933
0.00429394
-0.010047
-0.00709188
0.00125094
0.00515123
0.00204924
-0.00550842
-0.00635671
0.000208223
0.00291797
0.00133256
-0.00189419
-0.0056847
-0.00942871
-0.0127753
-0.00731669
0.00069733
0.00758454
0.0124478
0.0153182
0.0155194
0.0124051
0.00870418
0.00649565
0.00482376
0.00580468
0.00619758
0.0114422
0.0360202
0.0598931
0.00174246
-0.010376
-0.00802509
-0.000489974
0.00234185
0.000554923
-0.010458
-0.0107038
-0.00221699
0.00133124
0.000285988
-0.00344326
-0.00898628
-0.0152177
-0.0134974
-0.00770948
1.57914e-05
0.00622035
0.0102147
0.0118948
0.010796
0.00658859
0.00131163
-0.00170591
-0.00401794
-0.00348085
-0.00702467
-0.00867522
-0.0116047
0.00458766
-0.00288577
-0.0117008
-0.0116665
-0.00570223
0.00242579
-0.00161109
-0.0117134
-0.0124656
-0.00166697
0.00263344
0.00242984
-0.00275541
-0.0098926
-0.0135962
-0.0114045
-0.00581168
0.000942478
0.00617189
0.00935993
0.0105262
0.00927483
0.00616503
0.00297978
0.00999108
0.011226
0.00848399
-0.00282189
-0.0107058
-0.0231183
-0.0417236
-0.0119093
-0.0210387
-0.0230855
-0.0148967
-0.00589783
-0.00251095
-0.00985329
-0.00714666
0.00520685
0.00846699
0.00710624
0.000437161
-0.00697488
-0.00850729
-0.00586198
-0.001641
0.00316294
0.00700532
0.00942342
0.0104327
0.010498
0.010718
0.0149142
0.019882
0.02137
0.0420768
0.0451909
0.0171493
-0.00253702
-0.0187589
-0.0246821
-0.0386032
-0.0374359
-0.0239784
-0.005197
-0.000230516
-0.00630611
-0.000320162
0.0134591
0.0158426
0.0131375
0.00542828
0.00019903
-0.000423473
0.000836821
0.0030083
0.0055268
0.00779117
0.00945119
0.0107241
0.0122238
-0.0159972
0.0106782
0.0083171
0.0297344
0.062829
0.0780852
0.0494938
0.0293302
0.015913
-0.0340571
-0.0494046
-0.0431678
-0.0298303
-0.0136882
0.00215275
-0.00294775
0.00507876
0.0194456
0.0231511
0.0190125
0.010277
0.00578894
0.00511109
0.00576785
0.00609102
0.00678633
0.00769883
0.00877936
0.010599
0.0123263
0.0301625
0.00526473
0.016419
0.0187958
0.0295671
0.0588483
0.0728655
0.053305
0.0418545
-0.0269774
-0.043225
-0.037053
-0.0295667
-0.0210156
-0.000608758
-0.00436181
0.00513377
0.0189457
0.0274456
0.0228876
0.0111224
0.0048413
0.00590201
0.00705238
0.00662465
0.00625701
0.0063917
0.0073886
0.0100299
0.0115627
0.0402216
0.0087271
0.0139987
0.00509387
-0.0071988
0.00883433
0.0529776
0.0590579
0.0568103
-0.00909822
-0.0154619
-0.0250448
-0.0136857
-0.0167196
-0.0245301
-0.0102049
-0.00184361
0.00772946
0.0242261
0.0124754
0.00323477
-0.000351597
0.00296018
0.00577241
0.0050179
0.00441316
0.00324916
0.00440643
0.00756338
0.00870854
0.00911744
0.00889255
0.0132832
0.00314543
-0.00277226
-0.00212636
0.028373
0.0458038
0.05742
0.00701801
0.00329362
0.00723737
0.00251839
0.00457492
-0.00605172
-0.00201886
-0.00359529
-0.00951072
0.000978868
-0.00900424
-0.00398438
-0.00442173
0.00100991
0.00361733
0.00235
0.000479546
-0.000356431
0.000885328
0.00623285
0.00959024
0.00767
0.00153149
-0.00414272
-0.0113237
-0.0210313
-0.0419278
-0.0161391
0.0168091
0.0437871
0.00623518
0.00391937
0.004972
0.00470137
0.00558203
0.00813457
0.00752313
0.00242789
-0.0155147
-0.0298462
0.0036774
-0.0010338
-0.00116681
0.00102294
0.00151606
-0.00122966
-0.00258763
-0.0034843
-0.00043944
0.00634993
0.00969351
0.0105537
0.000387711
-0.0169822
-0.0323467
-0.0658391
-0.077056
-0.0681866
-0.0228848
0.0150002
0.00637741
0.00494533
0.00469233
0.00472851
0.00517259
0.00623496
0.0071038
0.00995166
0.00955223
0.0148335
0.0113679
0.00448768
0.00202837
0.00132898
-0.00165911
-0.00475933