/*--------------------------------*- C++ -*----------------------------------*\
| =========                 |                                                 |
| \\      /  F ield         | OpenFOAM: The Open Source CFD Toolbox           |
|  \\    /   O peration     | Version:  v1606+                                |
|   \\  /    A nd           | Web:      www.OpenFOAM.com                      |
|    \\/     M anipulation  |                                                 |
\*---------------------------------------------------------------------------*/
FoamFile
{
    version     2.0;
    format      ascii;
    class       volVectorField;
    location    "1.45";
    object      U.airMean;
}
// * * * * * * * * * * * * * * * * * * * * * * * * * * * * * * * * * * * * * //

dimensions      [0 1 -1 0 0 0 0];

internalField   nonuniform List<vector> 
6000
(
(-0.0177462 0.267335 0)
(0.000785991 0.229588 0)
(0.0188874 0.237388 0)
(0.026869 0.23305 0)
(0.0275447 0.226697 0)
(0.0218135 0.218483 0)
(0.0176691 0.214546 0)
(0.0130941 0.214498 0)
(0.00762045 0.216336 0)
(0.00284361 0.21553 0)
(-0.00207785 0.213616 0)
(-0.00555996 0.211667 0)
(-0.00830825 0.212607 0)
(-0.0104665 0.213041 0)
(-0.0118342 0.21545 0)
(-0.0125151 0.215461 0)
(-0.0130705 0.214783 0)
(-0.0140014 0.212753 0)
(-0.0154514 0.20713 0)
(-0.0176797 0.205889 0)
(-0.020855 0.211036 0)
(-0.0256071 0.21587 0)
(-0.033037 0.217898 0)
(-0.0414984 0.222705 0)
(-0.0468973 0.23029 0)
(-0.048156 0.237813 0)
(-0.0411409 0.243923 0)
(-0.0268053 0.245241 0)
(-0.00444415 0.233829 0)
(0.0161635 0.267147 0)
(0.0191506 0.982369 0)
(0.0299779 0.966027 0)
(0.0601957 0.981823 0)
(0.0749695 0.9987 0)
(0.0757322 1.01867 0)
(0.0635527 1.02685 0)
(0.0424998 1.02624 0)
(0.0199097 1.02868 0)
(0.00438346 1.02474 0)
(-0.0026105 1.02399 0)
(-0.00803842 1.02436 0)
(-0.012456 1.02403 0)
(-0.0162802 1.02221 0)
(-0.0193256 1.01937 0)
(-0.0190243 1.01581 0)
(-0.0166184 1.01494 0)
(-0.0150955 1.01655 0)
(-0.0149491 1.01857 0)
(-0.017199 1.02396 0)
(-0.0231529 1.02684 0)
(-0.0321336 1.02575 0)
(-0.0446332 1.02736 0)
(-0.066043 1.03226 0)
(-0.0890207 1.02802 0)
(-0.103439 1.01535 0)
(-0.103675 0.999329 0)
(-0.0869797 0.977107 0)
(-0.0613869 0.965637 0)
(-0.0269374 0.958175 0)
(-0.0173904 0.980935 0)
(0.00590425 0.786334 0)
(0.0245317 0.728765 0)
(0.0582973 0.746668 0)
(0.0754054 0.769075 0)
(0.0819031 0.799091 0)
(0.0786602 0.815727 0)
(0.0640592 0.827275 0)
(0.0408759 0.827716 0)
(0.0221766 0.813606 0)
(0.00946236 0.805017 0)
(0.00105573 0.799979 0)
(-0.00605022 0.796716 0)
(-0.0134062 0.796836 0)
(-0.0182135 0.793704 0)
(-0.0179987 0.790451 0)
(-0.0175261 0.789764 0)
(-0.0193893 0.791019 0)
(-0.0243903 0.79312 0)
(-0.030457 0.795476 0)
(-0.0362381 0.800763 0)
(-0.0473329 0.810887 0)
(-0.0643908 0.822468 0)
(-0.0842367 0.828812 0)
(-0.102297 0.822305 0)
(-0.111433 0.800806 0)
(-0.103462 0.772881 0)
(-0.0833019 0.747417 0)
(-0.0591913 0.734956 0)
(-0.0234185 0.726989 0)
(-0.00715594 0.78802 0)
(0.0186078 0.805934 0)
(0.031916 0.757164 0)
(0.0525697 0.777807 0)
(0.07204 0.807692 0)
(0.088995 0.846231 0)
(0.0916535 0.867924 0)
(0.0861386 0.888755 0)
(0.0688763 0.894454 0)
(0.0455254 0.883661 0)
(0.0247261 0.871676 0)
(0.0118908 0.866247 0)
(-0.000864574 0.865344 0)
(-0.0134031 0.860805 0)
(-0.017608 0.848611 0)
(-0.014769 0.840094 0)
(-0.0120541 0.841632 0)
(-0.0138948 0.84897 0)
(-0.0220736 0.856664 0)
(-0.0347965 0.861925 0)
(-0.0477151 0.867651 0)
(-0.0624994 0.878273 0)
(-0.0821265 0.889311 0)
(-0.101538 0.893044 0)
(-0.115734 0.880459 0)
(-0.114522 0.844757 0)
(-0.0977818 0.807376 0)
(-0.0759183 0.777453 0)
(-0.0535558 0.762922 0)
(-0.0343202 0.755676 0)
(-0.0180361 0.808274 0)
(0.0133526 0.767666 0)
(0.0218382 0.728198 0)
(0.0376025 0.736375 0)
(0.0630384 0.762156 0)
(0.091428 0.810834 0)
(0.104346 0.848886 0)
(0.103435 0.879897 0)
(0.0928229 0.897147 0)
(0.0694046 0.890476 0)
(0.0423145 0.871335 0)
(0.0242488 0.860648 0)
(0.00850125 0.860057 0)
(-0.00552425 0.850142 0)
(-0.0109873 0.829108 0)
(-0.0073208 0.817515 0)
(-0.00171057 0.821316 0)
(-0.000958915 0.834887 0)
(-0.00995248 0.850506 0)
(-0.0280692 0.86127 0)
(-0.0476014 0.865714 0)
(-0.0686451 0.879946 0)
(-0.0924011 0.891599 0)
(-0.112399 0.888893 0)
(-0.123525 0.865068 0)
(-0.117475 0.809809 0)
(-0.095891 0.763831 0)
(-0.0669753 0.73152 0)
(-0.0412331 0.722377 0)
(-0.0253049 0.725492 0)
(-0.0136972 0.767593 0)
(0.00634271 0.747233 0)
(0.010086 0.7169 0)
(0.0226753 0.710726 0)
(0.0487091 0.728216 0)
(0.0808782 0.779091 0)
(0.109089 0.832061 0)
(0.114129 0.873552 0)
(0.109625 0.899721 0)
(0.0911246 0.907296 0)
(0.0632178 0.890346 0)
(0.0378536 0.874603 0)
(0.0144978 0.873135 0)
(-0.00477276 0.857099 0)
(-0.0119178 0.826433 0)
(-0.00449723 0.807269 0)
(0.00959826 0.812544 0)
(0.0172962 0.834698 0)
(0.00899489 0.863201 0)
(-0.0131099 0.879766 0)
(-0.0418795 0.886509 0)
(-0.0733358 0.903726 0)
(-0.101082 0.908105 0)
(-0.11977 0.894465 0)
(-0.128161 0.859305 0)
(-0.118005 0.785795 0)
(-0.0894286 0.729526 0)
(-0.0557233 0.695613 0)
(-0.0263622 0.693304 0)
(-0.0121587 0.710699 0)
(-0.00610924 0.74454 0)
(0.000440396 0.739313 0)
(0.00275775 0.703876 0)
(0.00916543 0.68624 0)
(0.0283276 0.694528 0)
(0.0627046 0.734303 0)
(0.102157 0.800936 0)
(0.116584 0.86425 0)
(0.113983 0.898162 0)
(0.0981044 0.916836 0)
(0.0741593 0.905255 0)
(0.0449162 0.88857 0)
(0.0132753 0.886115 0)
(-0.0114407 0.862591 0)
(-0.0196404 0.814121 0)
(-0.00729357 0.782243 0)
(0.0154622 0.787552 0)
(0.0288257 0.822655 0)
(0.0220436 0.870201 0)
(-0.00242565 0.898193 0)
(-0.0361624 0.910342 0)
(-0.0715719 0.926676 0)
(-0.0991438 0.921115 0)
(-0.118725 0.897197 0)
(-0.125193 0.847608 0)
(-0.112062 0.752522 0)
(-0.0757216 0.685297 0)
(-0.0352888 0.655538 0)
(-0.0108089 0.665956 0)
(-0.00303657 0.696217 0)
(-0.000287866 0.735183 0)
(0.00197013 0.734248 0)
(0.000592124 0.702133 0)
(-0.00352886 0.673696 0)
(0.0120365 0.666003 0)
(0.0455014 0.69245 0)
(0.0847879 0.766684 0)
(0.103929 0.853015 0)
(0.0997526 0.903105 0)
(0.0839805 0.929661 0)
(0.0623996 0.923833 0)
(0.0339174 0.91264 0)
(0.00257005 0.900952 0)
(-0.0203756 0.865238 0)
(-0.0257039 0.8008 0)
(-0.0100734 0.75288 0)
(0.0144815 0.759037 0)
(0.0306968 0.807967 0)
(0.0262221 0.871981 0)
(0.00482354 0.913574 0)
(-0.0262572 0.935071 0)
(-0.0595139 0.951296 0)
(-0.0874301 0.94006 0)
(-0.106013 0.905398 0)
(-0.110845 0.840044 0)
(-0.0966599 0.723786 0)
(-0.0596749 0.639226 0)
(-0.0203874 0.623319 0)
(-0.000384662 0.651911 0)
(-0.00242467 0.695018 0)
(-0.00254441 0.730337 0)
(-0.000104659 0.731388 0)
(-0.00260248 0.706554 0)
(-0.0118465 0.662843 0)
(0.00161113 0.636479 0)
(0.0308061 0.653291 0)
(0.0611553 0.73571 0)
(0.0755515 0.841318 0)
(0.0759345 0.91054 0)
(0.0650922 0.941281 0)
(0.0428248 0.941333 0)
(0.0118026 0.934192 0)
(-0.0120831 0.916611 0)
(-0.0263401 0.864223 0)
(-0.0251947 0.786244 0)
(-0.00968728 0.726037 0)
(0.00886315 0.733054 0)
(0.0249427 0.792186 0)
(0.0232309 0.871885 0)
(0.00591275 0.927735 0)
(-0.0168265 0.954872 0)
(-0.043593 0.971898 0)
(-0.0692975 0.955793 0)
(-0.0790815 0.908546 0)
(-0.0761746 0.825134 0)
(-0.0674421 0.699203 0)
(-0.043836 0.597985 0)
(-0.0136539 0.59241 0)
(0.000947482 0.640791 0)
(-0.00377424 0.697243 0)
(-0.00168906 0.724375 0)
(-0.00140662 0.731419 0)
(-0.00367346 0.709978 0)
(-0.0100023 0.65742 0)
(-0.00150117 0.611887 0)
(0.0183537 0.625379 0)
(0.0338099 0.71926 0)
(0.0429689 0.82982 0)
(0.0538228 0.908768 0)
(0.0503546 0.951688 0)
(0.0273749 0.968654 0)
(-0.00751174 0.951826 0)
(-0.0214457 0.926253 0)
(-0.0240532 0.856345 0)
(-0.0213712 0.771064 0)
(-0.00835079 0.704812 0)
(0.00363708 0.712035 0)
(0.0184894 0.773839 0)
(0.0206209 0.866487 0)
(0.0126853 0.936971 0)
(-0.00387353 0.966408 0)
(-0.0297013 0.989989 0)
(-0.0450978 0.961904 0)
(-0.0431061 0.899934 0)
(-0.0309913 0.808157 0)
(-0.0272426 0.688981 0)
(-0.0229235 0.574596 0)
(-0.0128083 0.571405 0)
(-0.00487239 0.633768 0)
(-0.00590429 0.695209 0)
(-0.000102573 0.721416 0)
(-0.00135595 0.729022 0)
(-0.0001621 0.707355 0)
(-0.00189902 0.652272 0)
(0.00249266 0.596137 0)
(0.00446432 0.612377 0)
(0.00559558 0.709707 0)
(0.0138175 0.815913 0)
(0.0341554 0.900514 0)
(0.0347368 0.95773 0)
(0.0158588 0.996685 0)
(-0.0189721 0.974406 0)
(-0.0279744 0.926318 0)
(-0.0221527 0.848821 0)
(-0.016886 0.760896 0)
(-0.00836454 0.69423 0)
(-0.000629306 0.698126 0)
(0.0144479 0.756342 0)
(0.0216654 0.856095 0)
(0.0267912 0.940877 0)
(0.0113695 0.97725 0)
(-0.011191 1.0054 0)
(-0.0194548 0.95671 0)
(-0.00834112 0.879988 0)
(0.0144141 0.790435 0)
(0.018715 0.678518 0)
(0.00532852 0.571 0)
(-0.00934815 0.562331 0)
(-0.0115598 0.629477 0)
(-0.0105437 0.68686 0)
(-0.00128755 0.715062 0)
(0.00148591 0.726135 0)
(0.00616341 0.701426 0)
(0.00650927 0.649616 0)
(0.00652503 0.590743 0)
(-0.00512592 0.612972 0)
(-0.0183242 0.702144 0)
(-0.0101348 0.791783 0)
(0.0119219 0.886185 0)
(0.0211607 0.957341 0)
(0.00955718 1.01399 0)
(-0.0168922 0.992192 0)
(-0.0276911 0.921604 0)
(-0.0226092 0.843287 0)
(-0.0188716 0.752865 0)
(-0.00916967 0.688113 0)
(-0.00211397 0.689237 0)
(0.0103634 0.745067 0)
(0.019873 0.842202 0)
(0.0370493 0.93861 0)
(0.0255468 0.989607 0)
(0.00653317 1.01485 0)
(0.000865985 0.949156 0)
(0.0180306 0.852075 0)
(0.0437662 0.764572 0)
(0.0520884 0.671038 0)
(0.0307472 0.583474 0)
(-0.000449793 0.566443 0)
(-0.013814 0.627957 0)
(-0.0134258 0.677896 0)
(-0.00390149 0.706579 0)
(0.00383509 0.718631 0)
(0.0107677 0.692347 0)
(0.0124024 0.643929 0)
(0.00691285 0.586155 0)
(-0.013618 0.621812 0)
(-0.0348637 0.698786 0)
(-0.0273986 0.772937 0)
(-0.00185952 0.866706 0)
(0.0150595 0.951617 0)
(0.0131926 1.02464 0)
(-0.00635523 1.00835 0)
(-0.0232981 0.919155 0)
(-0.0224281 0.83883 0)
(-0.0152159 0.743576 0)
(-0.0069506 0.681873 0)
(-0.00282647 0.681835 0)
(0.00349091 0.736894 0)
(0.0173916 0.825083 0)
(0.0384248 0.930968 0)
(0.0320213 1.00024 0)
(0.0206385 1.02177 0)
(0.0210802 0.942078 0)
(0.0397165 0.826391 0)
(0.0617093 0.740879 0)
(0.0694712 0.664197 0)
(0.0475112 0.596351 0)
(0.0110435 0.578428 0)
(-0.011033 0.626124 0)
(-0.0143376 0.668199 0)
(-0.00534843 0.695502 0)
(0.00523497 0.708544 0)
(0.0124968 0.682114 0)
(0.0114157 0.637563 0)
(-0.00149372 0.58483 0)
(-0.0248448 0.630104 0)
(-0.0428921 0.690342 0)
(-0.0266115 0.747439 0)
(0.00140681 0.838464 0)
(0.0204512 0.93651 0)
(0.0258477 1.02015 0)
(0.0160227 1.01875 0)
(-0.0052497 0.919647 0)
(-0.00692406 0.824964 0)
(0.00530332 0.732848 0)
(0.00578407 0.677811 0)
(-0.000345981 0.68166 0)
(-0.00689169 0.736566 0)
(0.00639278 0.807883 0)
(0.0293115 0.924708 0)
(0.032204 1.00888 0)
(0.0255185 1.0216 0)
(0.0310921 0.930832 0)
(0.050115 0.802635 0)
(0.0662058 0.723602 0)
(0.0735617 0.662409 0)
(0.056457 0.607793 0)
(0.0210395 0.597795 0)
(-0.00581156 0.626555 0)
(-0.012894 0.658229 0)
(-0.00471487 0.683732 0)
(0.00504163 0.694665 0)
(0.0113848 0.673301 0)
(0.0089166 0.63309 0)
(-0.0117979 0.590611 0)
(-0.0408388 0.631043 0)
(-0.0469255 0.671028 0)
(-0.0203295 0.717603 0)
(0.0084767 0.809928 0)
(0.0271401 0.922317 0)
(0.0374491 1.00813 0)
(0.0408961 1.02136 0)
(0.0271704 0.922281 0)
(0.0261567 0.806547 0)
(0.0413589 0.72781 0)
(0.0302609 0.684527 0)
(0.0117174 0.694965 0)
(-0.00859822 0.745413 0)
(-0.00167135 0.790804 0)
(0.0144738 0.91802 0)
(0.0250795 1.01882 0)
(0.0235527 1.02572 0)
(0.0291986 0.924849 0)
(0.0438704 0.785745 0)
(0.053595 0.711136 0)
(0.068474 0.656511 0)
(0.0599185 0.614659 0)
(0.0300683 0.617024 0)
(0.00135594 0.630648 0)
(-0.00553214 0.648766 0)
(-0.00163979 0.67253 0)
(0.00199491 0.683898 0)
(0.00630727 0.66324 0)
(0.00895379 0.629316 0)
(-0.0104346 0.606753 0)
(-0.0396604 0.633507 0)
(-0.0437273 0.649582 0)
(-0.022525 0.686598 0)
(0.00334134 0.781632 0)
(0.0235024 0.903456 0)
(0.0429414 0.983768 0)
(0.0645882 1.00538 0)
(0.0680335 0.918807 0)
(0.0632629 0.789445 0)
(0.0750853 0.72279 0)
(0.0649066 0.703673 0)
(0.0368347 0.717997 0)
(0.00837333 0.762765 0)
(-0.0038264 0.78888 0)
(-0.00422227 0.911654 0)
(0.00683902 1.02048 0)
(0.014479 1.0264 0)
(0.0250191 0.926066 0)
(0.0305766 0.781327 0)
(0.0354876 0.701491 0)
(0.0572676 0.64371 0)
(0.0586792 0.619181 0)
(0.0388757 0.640195 0)
(0.0119154 0.636511 0)
(0.00639259 0.644269 0)
(0.00449809 0.672219 0)
(-0.00237704 0.682049 0)
(-0.00168074 0.656443 0)
(0.00277577 0.624293 0)
(-0.0104356 0.624403 0)
(-0.0336677 0.636279 0)
(-0.0358248 0.637451 0)
(-0.0290166 0.663244 0)
(-0.0182565 0.756546 0)
(0.00447126 0.876541 0)
(0.0377416 0.94925 0)
(0.0776577 0.975846 0)
(0.0986773 0.910421 0)
(0.102531 0.782166 0)
(0.0958312 0.724899 0)
(0.0930763 0.724487 0)
(0.0674198 0.754337 0)
(0.0358714 0.798544 0)
(-0.00336114 0.81212 0)
(-0.0271829 0.915981 0)
(-0.0222008 1.01742 0)
(0.0029095 1.01565 0)
(0.0268899 0.926655 0)
(0.0267749 0.786062 0)
(0.0295013 0.694498 0)
(0.0468383 0.626306 0)
(0.0493283 0.621625 0)
(0.0360213 0.65686 0)
(0.0192636 0.648905 0)
(0.0140247 0.644796 0)
(0.00799897 0.683194 0)
(-0.00453672 0.684223 0)
(-0.0043585 0.65209 0)
(0.00126511 0.62808 0)
(-0.0100056 0.640409 0)
(-0.0287773 0.639831 0)
(-0.0369135 0.636272 0)
(-0.049014 0.659928 0)
(-0.0500847 0.741924 0)
(-0.0277472 0.847545 0)
(0.0165011 0.908993 0)
(0.0705208 0.937928 0)
(0.107586 0.893747 0)
(0.118759 0.785963 0)
(0.11147 0.737781 0)
(0.110055 0.739521 0)
(0.0909903 0.781898 0)
(0.0614976 0.840371 0)
(0.00312947 0.861958 0)
(-0.0467074 0.934208 0)
(-0.0394162 1.00071 0)
(0.00180501 0.986043 0)
(0.0405626 0.91643 0)
(0.0440401 0.797167 0)
(0.0428855 0.694625 0)
(0.0428569 0.625386 0)
(0.0331499 0.635906 0)
(0.0216239 0.673068 0)
(0.0179884 0.662386 0)
(0.0170285 0.650967 0)
(0.00784671 0.698061 0)
(-0.00254731 0.689409 0)
(0.00317694 0.647669 0)
(0.00202699 0.636606 0)
(-0.00672719 0.659666 0)
(-0.0265097 0.655564 0)
(-0.0434069 0.650208 0)
(-0.0702768 0.665274 0)
(-0.0800983 0.735179 0)
(-0.0556128 0.818938 0)
(-0.0064013 0.868347 0)
(0.053023 0.896865 0)
(0.0989262 0.872335 0)
(0.115734 0.785457 0)
(0.119161 0.741202 0)
(0.118475 0.761082 0)
(0.101422 0.808675 0)
(0.0707283 0.882998 0)
(0.00632976 0.926435 0)
(-0.0495613 0.954029 0)
(-0.028998 0.972692 0)
(0.0203776 0.944514 0)
(0.0694054 0.889804 0)
(0.0778967 0.804456 0)
(0.0630114 0.699746 0)
(0.0371227 0.641083 0)
(0.0136139 0.656704 0)
(0.00340924 0.684235 0)
(0.00804826 0.671014 0)
(0.00979216 0.660656 0)
(0.00310347 0.716744 0)
(0.00396211 0.686212 0)
(0.0199254 0.648708 0)
(0.0122945 0.651049 0)
(-0.00962183 0.675886 0)
(-0.0357376 0.672151 0)
(-0.0653307 0.665904 0)
(-0.0986824 0.678069 0)
(-0.103853 0.726256 0)
(-0.0622122 0.781051 0)
(-0.00644296 0.828152 0)
(0.0507664 0.857476 0)
(0.0966249 0.84819 0)
(0.119399 0.779099 0)
(0.119619 0.737627 0)
(0.114623 0.772746 0)
(0.100335 0.832861 0)
(0.0671008 0.926886 0)
(0.0107452 0.983957 0)
(-0.0231712 0.9657 0)
(0.00955473 0.937849 0)
(0.060563 0.899139 0)
(0.110882 0.854483 0)
(0.119622 0.808426 0)
(0.0870201 0.72237 0)
(0.0448169 0.669216 0)
(0.012701 0.671786 0)
(0.000462903 0.685096 0)
(-0.00421784 0.674951 0)
(-0.00886173 0.668175 0)
(-0.00858933 0.721726 0)
(0.00903267 0.681672 0)
(0.0182931 0.649531 0)
(0.00104267 0.668049 0)
(-0.0285481 0.694403 0)
(-0.0569719 0.696119 0)
(-0.0891445 0.696561 0)
(-0.118088 0.68929 0)
(-0.113634 0.698493 0)
(-0.066106 0.736583 0)
(-0.00584154 0.785008 0)
(0.0493293 0.821978 0)
(0.0958078 0.820635 0)
(0.123021 0.771179 0)
(0.120389 0.742098 0)
(0.108192 0.781132 0)
(0.0904968 0.852692 0)
(0.0589541 0.961812 0)
(0.0240129 1.01718 0)
(0.0149228 0.963071 0)
(0.0542886 0.904823 0)
(0.109489 0.855125 0)
(0.145891 0.825545 0)
(0.148721 0.818935 0)
(0.108721 0.757069 0)
(0.0627307 0.704047 0)
(0.0283659 0.692012 0)
(0.00766197 0.694352 0)
(-0.00975685 0.68441 0)
(-0.0206661 0.668517 0)
(-0.0150293 0.708526 0)
(0.0077436 0.66695 0)
(-0.0101578 0.655443 0)
(-0.0452959 0.695669 0)
(-0.0738977 0.722443 0)
(-0.0936704 0.719348 0)
(-0.108508 0.717373 0)
(-0.118531 0.695484 0)
(-0.116737 0.671662 0)
(-0.0829793 0.682042 0)
(-0.0239487 0.736944 0)
(0.0383286 0.783472 0)
(0.0903409 0.793371 0)
(0.125227 0.760971 0)
(0.133433 0.749183 0)
(0.124681 0.788832 0)
(0.0986901 0.872058 0)
(0.0690573 0.98398 0)
(0.0522737 1.03199 0)
(0.0542882 0.958053 0)
(0.0899848 0.869078 0)
(0.136402 0.820533 0)
(0.157096 0.811346 0)
(0.154364 0.825339 0)
(0.11985 0.787231 0)
(0.0833753 0.730862 0)
(0.0549145 0.714437 0)
(0.0316234 0.710959 0)
(0.0126151 0.699021 0)
(-0.00158623 0.666343 0)
(-0.0117794 0.686746 0)
(-0.00527271 0.680002 0)
(-0.040563 0.70141 0)
(-0.0823576 0.727144 0)
(-0.101903 0.73409 0)
(-0.109494 0.726464 0)
(-0.106058 0.721083 0)
(-0.104242 0.702618 0)
(-0.113044 0.674026 0)
(-0.109997 0.657876 0)
(-0.0679973 0.688094 0)
(0.00226373 0.733278 0)
(0.0679665 0.75313 0)
(0.115665 0.735502 0)
(0.141442 0.737042 0)
(0.143637 0.795336 0)
(0.118889 0.897135 0)
(0.0953912 0.995916 0)
(0.0908273 1.03869 0)
(0.0992469 0.954294 0)
(0.121682 0.842271 0)
(0.14768 0.799777 0)
(0.1571 0.807109 0)
(0.14915 0.834926 0)
(0.122668 0.813463 0)
(0.0919575 0.753207 0)
(0.0691763 0.727732 0)
(0.0517356 0.715299 0)
(0.0416856 0.703721 0)
(0.0250872 0.685159 0)
(-0.000375246 0.688849 0)
(-0.0160415 0.701514 0)
(-0.0566096 0.730659 0)
(-0.0898057 0.748048 0)
(-0.107888 0.74903 0)
(-0.110147 0.7347 0)
(-0.100802 0.72266 0)
(-0.0914999 0.712 0)
(-0.10318 0.694068 0)
(-0.118002 0.658763 0)
(-0.0992846 0.655211 0)
(-0.0413217 0.686318 0)
(0.032906 0.708876 0)
(0.0883469 0.705258 0)
(0.1258 0.717783 0)
(0.141849 0.79631 0)
(0.137295 0.913891 0)
(0.127306 1.00535 0)
(0.135794 1.03775 0)
(0.154105 0.951433 0)
(0.160008 0.839446 0)
(0.160335 0.796005 0)
(0.154773 0.811012 0)
(0.140664 0.845483 0)
(0.121106 0.833866 0)
(0.0885395 0.777215 0)
(0.0658375 0.740648 0)
(0.0545535 0.721002 0)
(0.0476536 0.704277 0)
(0.0348979 0.697877 0)
(0.0101294 0.699602 0)
(-0.0156172 0.733331 0)
(-0.0510208 0.766834 0)
(-0.0830156 0.774177 0)
(-0.0983707 0.764138 0)
(-0.0980304 0.740752 0)
(-0.0896472 0.72077 0)
(-0.0798733 0.716293 0)
(-0.0901857 0.717782 0)
(-0.111646 0.675833 0)
(-0.107502 0.646029 0)
(-0.0715144 0.64637 0)
(-0.0111844 0.660816 0)
(0.0489368 0.674092 0)
(0.0924133 0.693267 0)
(0.120402 0.786122 0)
(0.135747 0.911856 0)
(0.146779 1.00364 0)
(0.173337 1.02276 0)
(0.205173 0.948524 0)
(0.206481 0.856267 0)
(0.184232 0.809499 0)
(0.159132 0.823067 0)
(0.136394 0.855068 0)
(0.119667 0.849095 0)
(0.0872117 0.804092 0)
(0.0557804 0.748037 0)
(0.0464644 0.723817 0)
(0.0414084 0.708762 0)
(0.0278894 0.71432 0)
(0.0118686 0.71861 0)
(-0.0139447 0.760059 0)
(-0.0427099 0.800158 0)
(-0.0671781 0.794288 0)
(-0.0741761 0.772569 0)
(-0.0745512 0.741858 0)
(-0.0749262 0.721768 0)
(-0.0719966 0.718979 0)
(-0.0759753 0.733148 0)
(-0.0960458 0.693951 0)
(-0.104829 0.649668 0)
(-0.0859376 0.63363 0)
(-0.0458873 0.628572 0)
(0.00769773 0.637912 0)
(0.0555745 0.662799 0)
(0.0877921 0.764741 0)
(0.11721 0.895001 0)
(0.15017 0.983247 0)
(0.197886 0.992469 0)
(0.243996 0.936232 0)
(0.25179 0.876068 0)
(0.22056 0.841329 0)
(0.172293 0.848014 0)
(0.134363 0.867092 0)
(0.114766 0.85933 0)
(0.0874602 0.830215 0)
(0.0494445 0.762293 0)
(0.0333169 0.72474 0)
(0.0323229 0.711949 0)
(0.021486 0.727744 0)
(0.00969254 0.734198 0)
(-0.0203826 0.782665 0)
(-0.0320373 0.817298 0)
(-0.0424064 0.800254 0)
(-0.0413894 0.773826 0)
(-0.0475626 0.746725 0)
(-0.0564125 0.725745 0)
(-0.0654483 0.721594 0)
(-0.0664179 0.738436 0)
(-0.0825052 0.712622 0)
(-0.100907 0.655824 0)
(-0.0965605 0.622002 0)
(-0.0671131 0.602833 0)
(-0.0234546 0.603306 0)
(0.0219899 0.633944 0)
(0.0563107 0.736505 0)
(0.0910566 0.862864 0)
(0.140699 0.942533 0)
(0.207441 0.947211 0)
(0.267788 0.914095 0)
(0.286204 0.88972 0)
(0.256528 0.883677 0)
(0.190273 0.892756 0)
(0.133622 0.892453 0)
(0.10235 0.870697 0)
(0.0806318 0.852277 0)
(0.0472383 0.788329 0)
(0.0203938 0.727238 0)
(0.0200969 0.710162 0)
(0.016793 0.734427 0)
(0.0131362 0.747117 0)
(-0.0239656 0.806459 0)
(-0.0240618 0.815924 0)
(-0.0191307 0.79433 0)
(-0.0193965 0.776193 0)
(-0.0279733 0.753763 0)
(-0.0411639 0.736826 0)
(-0.0563598 0.729336 0)
(-0.0579384 0.737387 0)
(-0.0691815 0.73044 0)
(-0.0970091 0.670446 0)
(-0.103319 0.614526 0)
(-0.0830935 0.582989 0)
(-0.0470522 0.575027 0)
(-0.00677281 0.606056 0)
(0.0311958 0.708111 0)
(0.0668891 0.827119 0)
(0.125949 0.88906 0)
(0.203336 0.890839 0)
(0.271647 0.880684 0)
(0.300456 0.893832 0)
(0.274932 0.925351 0)
(0.203554 0.951527 0)
(0.133601 0.934977 0)
(0.0851341 0.896803 0)
(0.061891 0.872231 0)
(0.0363561 0.814563 0)
(0.0114391 0.743488 0)
(0.00529091 0.710132 0)
(0.0107347 0.732215 0)
(0.0154497 0.763398 0)
(-0.0152551 0.831902 0)
(-0.00982063 0.803277 0)
(-3.81007e-05 0.790461 0)
(-0.00168528 0.778154 0)
(-0.0133299 0.759723 0)
(-0.0293721 0.749143 0)
(-0.0462024 0.739581 0)
(-0.053463 0.734467 0)
(-0.0617824 0.744593 0)
(-0.0933265 0.692306 0)
(-0.11034 0.613009 0)
(-0.0972618 0.56755 0)
(-0.0686056 0.552394 0)
(-0.0327565 0.579735 0)
(0.00891672 0.677678 0)
(0.0550987 0.789959 0)
(0.116603 0.832927 0)
(0.193445 0.832994 0)
(0.259088 0.839807 0)
(0.291883 0.886284 0)
(0.273664 0.960131 0)
(0.207412 1.01289 0)
(0.13295 0.98989 0)
(0.0692663 0.937746 0)
(0.0357596 0.896769 0)
(0.0143054 0.833836 0)
(-0.00432069 0.759368 0)
(-0.00797065 0.712679 0)
(0.00111433 0.724555 0)
(0.0085229 0.779554 0)
(-0.00331905 0.841911 0)
(0.00402494 0.794608 0)
(0.0159371 0.786833 0)
(0.0149353 0.784967 0)
(0.00177571 0.772047 0)
(-0.0167948 0.764917 0)
(-0.0364343 0.753169 0)
(-0.0535368 0.740465 0)
(-0.0646352 0.755828 0)
(-0.0927155 0.716869 0)
(-0.116777 0.617968 0)
(-0.109935 0.555899 0)
(-0.0855484 0.535128 0)
(-0.0515333 0.556503 0)
(-0.00837636 0.641205 0)
(0.0481712 0.74644 0)
(0.110378 0.780708 0)
(0.181192 0.778432 0)
(0.238121 0.797748 0)
(0.267065 0.870694 0)
(0.255807 0.984687 0)
(0.201969 1.06508 0)
(0.131257 1.05088 0)
(0.0564573 0.987007 0)
(0.011466 0.925705 0)
(-0.0110996 0.85132 0)
(-0.0231344 0.771991 0)
(-0.0219825 0.711993 0)
(-0.0106131 0.718931 0)
(-0.000914463 0.784329 0)
(0.00484741 0.846183 0)
(0.0152918 0.78595 0)
(0.0276062 0.781786 0)
(0.0300453 0.78918 0)
(0.0198558 0.785626 0)
(-0.00242055 0.783735 0)
(-0.0279695 0.773408 0)
(-0.0571609 0.756152 0)
(-0.0771336 0.762156 0)
(-0.100546 0.736333 0)
(-0.12464 0.624381 0)
(-0.120435 0.542358 0)
(-0.0972405 0.519057 0)
(-0.0642947 0.534964 0)
(-0.0214888 0.604661 0)
(0.035777 0.70275 0)
(0.10011 0.731845 0)
(0.165474 0.72627 0)
(0.215512 0.758376 0)
(0.238203 0.853083 0)
(0.225527 0.993021 0)
(0.183823 1.09821 0)
(0.125004 1.10394 0)
(0.049334 1.04122 0)
(-0.00773955 0.954981 0)
(-0.035385 0.86493 0)
(-0.0438822 0.77596 0)
(-0.0396665 0.708049 0)
(-0.0242964 0.708828 0)
(-0.00982255 0.781264 0)
(0.0105287 0.83813 0)
(0.0242003 0.775424 0)
(0.0380032 0.77415 0)
(0.0446472 0.789351 0)
(0.0353755 0.799107 0)
(0.00867734 0.805591 0)
(-0.0267003 0.795022 0)
(-0.0648796 0.779095 0)
(-0.0961633 0.771217 0)
(-0.117242 0.746246 0)
(-0.134254 0.628147 0)
(-0.133557 0.52752 0)
(-0.108563 0.499893 0)
(-0.0739032 0.511597 0)
(-0.0319872 0.571622 0)
(0.0212221 0.655318 0)
(0.0860678 0.680404 0)
(0.146518 0.67433 0)
(0.191967 0.718513 0)
(0.203059 0.835432 0)
(0.182398 0.997295 0)
(0.156572 1.1163 0)
(0.115678 1.14333 0)
(0.0501603 1.09182 0)
(-0.018226 0.988504 0)
(-0.0559363 0.877103 0)
(-0.0650356 0.774762 0)
(-0.0578087 0.699522 0)
(-0.0373811 0.694176 0)
(-0.0157144 0.763947 0)
(0.0138715 0.822461 0)
(0.0314116 0.762509 0)
(0.0470695 0.764083 0)
(0.0527247 0.788111 0)
(0.0399204 0.812177 0)
(0.00721643 0.83012 0)
(-0.0384908 0.822168 0)
(-0.0824704 0.804371 0)
(-0.116927 0.782442 0)
(-0.133571 0.747417 0)
(-0.140518 0.623509 0)
(-0.139001 0.513502 0)
(-0.117642 0.471592 0)
(-0.0812274 0.481899 0)
(-0.0377173 0.537776 0)
(0.0138811 0.610232 0)
(0.0709312 0.629539 0)
(0.12667 0.625926 0)
(0.160859 0.686716 0)
(0.15236 0.828626 0)
(0.134421 0.994467 0)
(0.122928 1.11805 0)
(0.101498 1.16761 0)
(0.0515643 1.13532 0)
(-0.015439 1.03036 0)
(-0.0671723 0.893032 0)
(-0.0804854 0.7692 0)
(-0.0680293 0.684052 0)
(-0.0441801 0.673822 0)
(-0.0188373 0.740389 0)
(0.0190705 0.801856 0)
(0.0404397 0.749584 0)
(0.0527904 0.755596 0)
(0.0476829 0.791577 0)
(0.0244241 0.828227 0)
(-0.0137509 0.858141 0)
(-0.0617619 0.851491 0)
(-0.104823 0.826555 0)
(-0.131911 0.788542 0)
(-0.138019 0.738102 0)
(-0.134276 0.613894 0)
(-0.131882 0.496328 0)
(-0.114239 0.447408 0)
(-0.0804375 0.446385 0)
(-0.0387125 0.499016 0)
(0.00969038 0.566239 0)
(0.0607098 0.582438 0)
(0.103405 0.5793 0)
(0.113349 0.668684 0)
(0.0971312 0.820708 0)
(0.0874585 0.987247 0)
(0.0858109 1.112 0)
(0.0793754 1.17836 0)
(0.0512081 1.16793 0)
(-0.00413168 1.07088 0)
(-0.0569616 0.915606 0)
(-0.0768561 0.762729 0)
(-0.0661301 0.662366 0)
(-0.0453681 0.652921 0)
(-0.0211332 0.712858 0)
(0.0280176 0.772925 0)
(0.0497196 0.738515 0)
(0.0506422 0.757031 0)
(0.030665 0.808715 0)
(-0.00734932 0.849625 0)
(-0.0467982 0.881044 0)
(-0.0881987 0.876473 0)
(-0.122905 0.843944 0)
(-0.144425 0.789995 0)
(-0.13483 0.720158 0)
(-0.119137 0.604155 0)
(-0.116576 0.481558 0)
(-0.104348 0.423232 0)
(-0.075497 0.415685 0)
(-0.0396407 0.460545 0)
(0.00369636 0.520977 0)
(0.044896 0.531571 0)
(0.0771325 0.55379 0)
(0.0739579 0.664126 0)
(0.0562363 0.815012 0)
(0.0490334 0.981647 0)
(0.0510554 1.10181 0)
(0.0565422 1.17847 0)
(0.0469247 1.18537 0)
(0.00902003 1.1047 0)
(-0.038996 0.939458 0)
(-0.0543148 0.762485 0)
(-0.0526272 0.650602 0)
(-0.042778 0.639257 0)
(-0.0220719 0.682161 0)
(0.0332033 0.735723 0)
(0.0507862 0.733053 0)
(0.0374691 0.768614 0)
(0.00181723 0.83292 0)
(-0.0462654 0.874126 0)
(-0.0806132 0.898876 0)
(-0.111072 0.897767 0)
(-0.140579 0.859625 0)
(-0.156472 0.787178 0)
(-0.135912 0.68994 0)
(-0.108074 0.586577 0)
(-0.0993903 0.470122 0)
(-0.0929139 0.40388 0)
(-0.0701271 0.390667 0)
(-0.0408578 0.426201 0)
(-0.00387571 0.482229 0)
(0.030633 0.493925 0)
(0.0532552 0.530489 0)
(0.0510812 0.661437 0)
(0.0367215 0.810776 0)
(0.0282713 0.975772 0)
(0.0318521 1.09096 0)
(0.0428325 1.16989 0)
(0.0461987 1.19284 0)
(0.0241693 1.12743 0)
(-0.0133051 0.961493 0)
(-0.0314161 0.76056 0)
(-0.0413811 0.65304 0)
(-0.0394024 0.632025 0)
(-0.0226993 0.652371 0)
(0.0267309 0.68655 0)
(0.0392766 0.729949 0)
(0.010059 0.780702 0)
(-0.0346699 0.854505 0)
(-0.0838546 0.894588 0)
(-0.117517 0.911165 0)
(-0.142951 0.910788 0)
(-0.152396 0.865126 0)
(-0.149374 0.771004 0)
(-0.126473 0.656343 0)
(-0.0960415 0.560045 0)
(-0.0817207 0.457628 0)
(-0.0795946 0.388116 0)
(-0.0631981 0.371896 0)
(-0.0419859 0.398657 0)
(-0.013406 0.44773 0)
(0.0185809 0.463569 0)
(0.038171 0.512971 0)
(0.0418256 0.657036 0)
(0.0344188 0.811952 0)
(0.0268076 0.970817 0)
(0.0326096 1.07999 0)
(0.043573 1.1583 0)
(0.0547429 1.18944 0)
(0.0485821 1.13802 0)
(0.0206233 0.980556 0)
(-0.0113559 0.771898 0)
(-0.0300682 0.662679 0)
(-0.0353584 0.627039 0)
(-0.0224217 0.62219 0)
(0.0125638 0.647863 0)
(0.0106597 0.730385 0)
(-0.0322282 0.79609 0)
(-0.0799988 0.878278 0)
(-0.128493 0.910815 0)
(-0.160551 0.918232 0)
(-0.171042 0.90153 0)
(-0.160835 0.850897 0)
(-0.137662 0.743148 0)
(-0.112903 0.622982 0)
(-0.0800274 0.533032 0)
(-0.0614381 0.447809 0)
(-0.0620359 0.377891 0)
(-0.0525641 0.358186 0)
(-0.0392448 0.379868 0)
(-0.0205613 0.419659 0)
(0.00962818 0.438963 0)
(0.0267389 0.499211 0)
(0.0351294 0.647787 0)
(0.038011 0.811209 0)
(0.0359144 0.962157 0)
(0.0434906 1.07028 0)
(0.0578247 1.14407 0)
(0.0754301 1.17806 0)
(0.0816286 1.14096 0)
(0.0621544 1.00587 0)
(0.0184879 0.802312 0)
(-0.0123692 0.675527 0)
(-0.023871 0.627035 0)
(-0.0165432 0.598859 0)
(-0.00713863 0.6294 0)
(-0.0250778 0.755302 0)
(-0.086045 0.825069 0)
(-0.121222 0.900167 0)
(-0.162202 0.927383 0)
(-0.191055 0.925125 0)
(-0.196146 0.889578 0)
(-0.167484 0.817943 0)
(-0.12216 0.705302 0)
(-0.0912998 0.590846 0)
(-0.0715478 0.5032 0)
(-0.0509006 0.441749 0)
(-0.04639 0.373645 0)
(-0.0427448 0.351339 0)
(-0.03587 0.370799 0)
(-0.0213244 0.402497 0)
(0.00368079 0.421357 0)
(0.0139686 0.488258 0)
(0.024576 0.631886 0)
(0.0372532 0.804547 0)
(0.0433787 0.951341 0)
(0.0583717 1.05535 0)
(0.0787707 1.12347 0)
(0.101853 1.1595 0)
(0.114448 1.13785 0)
(0.101302 1.02796 0)
(0.0510626 0.841214 0)
(0.00928689 0.697055 0)
(-0.0115136 0.631405 0)
(-0.00989126 0.584692 0)
(-0.0303003 0.644011 0)
(-0.0622477 0.792425 0)
(-0.119563 0.8527 0)
(-0.14783 0.921592 0)
(-0.174097 0.943977 0)
(-0.191742 0.923666 0)
(-0.184149 0.859819 0)
(-0.147134 0.773811 0)
(-0.0999442 0.664278 0)
(-0.0681598 0.561452 0)
(-0.0582533 0.486968 0)
(-0.0512375 0.427514 0)
(-0.0401254 0.371278 0)
(-0.0365808 0.347032 0)
(-0.0320208 0.364868 0)
(-0.0135032 0.388439 0)
(0.00293739 0.410247 0)
(0.00458164 0.480597 0)
(0.0110968 0.615375 0)
(0.0287906 0.79015 0)
(0.048296 0.931299 0)
(0.0736286 1.03159 0)
(0.100144 1.0986 0)
(0.125791 1.13774 0)
(0.141658 1.13218 0)
(0.133317 1.05024 0)
(0.0837476 0.887493 0)
(0.0320072 0.730978 0)
(-0.000671624 0.644359 0)
(-0.00414749 0.576786 0)
(-0.0410501 0.692999 0)
(-0.082199 0.836867 0)
(-0.122797 0.881477 0)
(-0.137468 0.937612 0)
(-0.153202 0.957351 0)
(-0.159662 0.922995 0)
(-0.14818 0.837399 0)
(-0.118465 0.738771 0)
(-0.0813067 0.636346 0)
(-0.058141 0.547566 0)
(-0.0486891 0.478282 0)
(-0.0486978 0.423715 0)
(-0.0420709 0.363141 0)
(-0.0366914 0.343661 0)
(-0.0276205 0.35707 0)
(-0.00930097 0.375096 0)
(-0.000444342 0.402605 0)
(-0.000694035 0.479263 0)
(-0.0007216 0.60265 0)
(0.0212991 0.764644 0)
(0.0561912 0.901869 0)
(0.0890201 1.00167 0)
(0.118637 1.07096 0)
(0.143909 1.1161 0)
(0.159813 1.12678 0)
(0.153087 1.07241 0)
(0.108227 0.938302 0)
(0.0518735 0.776093 0)
(0.0128403 0.664642 0)
(0.000777316 0.577987 0)
(-0.0440243 0.757802 0)
(-0.0745968 0.868862 0)
(-0.0996829 0.905989 0)
(-0.112947 0.960831 0)
(-0.124107 0.973919 0)
(-0.123644 0.922879 0)
(-0.11439 0.823361 0)
(-0.094027 0.713701 0)
(-0.0700373 0.617322 0)
(-0.0553002 0.54081 0)
(-0.0483987 0.475889 0)
(-0.0468809 0.421721 0)
(-0.0443362 0.360334 0)
(-0.0396014 0.336775 0)
(-0.0267096 0.345632 0)
(-0.012922 0.364459 0)
(-0.00351242 0.397671 0)
(-0.00257796 0.479543 0)
(-0.00736393 0.591439 0)
(0.016285 0.727532 0)
(0.0606965 0.864237 0)
(0.100203 0.968355 0)
(0.131479 1.04386 0)
(0.155356 1.09624 0)
(0.16974 1.12108 0)
(0.163735 1.09223 0)