/*--------------------------------*- C++ -*----------------------------------*\
| =========                 |                                                 |
| \\      /  F ield         | OpenFOAM: The Open Source CFD Toolbox           |
|  \\    /   O peration     | Version:  v1606+                                |
|   \\  /    A nd           | Web:      www.OpenFOAM.com                      |
|    \\/     M anipulation  |                                                 |
\*---------------------------------------------------------------------------*/
FoamFile
{
    version     2.0;
    format      ascii;
    class       volVectorField;
    location    "1.45";
    object      U.particlesMean;
}
// * * * * * * * * * * * * * * * * * * * * * * * * * * * * * * * * * * * * * //

dimensions      [0 1 -1 0 0 0 0];

internalField   nonuniform List<vector> 
6000
(
(-0.00706255 -0.337605 0)
(0.000859716 -0.370005 0)
(0.0122765 -0.374351 0)
(0.0180026 -0.385459 0)
(0.0193767 -0.400082 0)
(0.0169675 -0.414924 0)
(0.0139825 -0.427412 0)
(0.00949419 -0.434282 0)
(0.00524189 -0.434311 0)
(0.00185942 -0.439389 0)
(-0.00158134 -0.442193 0)
(-0.00365295 -0.445859 0)
(-0.00518345 -0.448553 0)
(-0.00662826 -0.451851 0)
(-0.00806822 -0.452341 0)
(-0.00954431 -0.45203 0)
(-0.0108539 -0.451348 0)
(-0.0122484 -0.451855 0)
(-0.014143 -0.457925 0)
(-0.0168578 -0.455911 0)
(-0.0208063 -0.447399 0)
(-0.0254492 -0.432597 0)
(-0.0296514 -0.421274 0)
(-0.0329747 -0.410336 0)
(-0.0346026 -0.395658 0)
(-0.0337387 -0.380224 0)
(-0.0278058 -0.364136 0)
(-0.0173611 -0.356084 0)
(-0.00308181 -0.356868 0)
(0.0059105 -0.331736 0)
(0.0181311 0.0294559 0)
(0.0138885 0.0491578 0)
(0.027411 0.0501494 0)
(0.0388766 0.0566351 0)
(0.0450142 0.0646248 0)
(0.0420826 0.069567 0)
(0.0288673 0.0678891 0)
(0.0139187 0.0664496 0)
(0.00357396 0.0655177 0)
(-0.000490013 0.064006 0)
(-0.00413492 0.0643527 0)
(-0.00729685 0.0648113 0)
(-0.00969209 0.0606914 0)
(-0.0121306 0.057057 0)
(-0.0131819 0.0531219 0)
(-0.0129132 0.0526177 0)
(-0.0128924 0.0540694 0)
(-0.0134357 0.055577 0)
(-0.0157001 0.0627415 0)
(-0.0214518 0.067878 0)
(-0.0292374 0.0661058 0)
(-0.0374221 0.0673809 0)
(-0.0503893 0.0699446 0)
(-0.0603938 0.0660253 0)
(-0.0618795 0.0589123 0)
(-0.0553889 0.0534846 0)
(-0.041015 0.0465799 0)
(-0.0259019 0.0450968 0)
(-0.0121807 0.0493411 0)
(-0.017597 0.032638 0)
(0.00431953 -0.04688 0)
(0.00679394 -0.0609633 0)
(0.0207199 -0.0654156 0)
(0.0309691 -0.0593069 0)
(0.0401917 -0.0444134 0)
(0.0431307 -0.0252569 0)
(0.03606 -0.0154288 0)
(0.0225766 -0.0168615 0)
(0.0126549 -0.0275268 0)
(0.00570013 -0.0340685 0)
(-0.000347136 -0.0389012 0)
(-0.00503885 -0.0414772 0)
(-0.00926495 -0.0409121 0)
(-0.0130661 -0.0408808 0)
(-0.0140626 -0.0427015 0)
(-0.0144515 -0.0440317 0)
(-0.0158282 -0.04473 0)
(-0.0191176 -0.0439201 0)
(-0.0235968 -0.0393611 0)
(-0.0287749 -0.0339389 0)
(-0.0368769 -0.0264928 0)
(-0.0449795 -0.0198679 0)
(-0.0527521 -0.0181778 0)
(-0.0587208 -0.0276682 0)
(-0.057486 -0.0445788 0)
(-0.0462355 -0.0600779 0)
(-0.0321251 -0.0677428 0)
(-0.0210045 -0.0680745 0)
(-0.00751031 -0.0598167 0)
(-0.0065341 -0.0472082 0)
(0.0102609 -0.0540363 0)
(0.00833995 -0.0617701 0)
(0.0129368 -0.0603089 0)
(0.0163925 -0.0524928 0)
(0.0286276 -0.0389753 0)
(0.0363796 -0.0222913 0)
(0.0397599 -0.00956842 0)
(0.0346888 -0.00777966 0)
(0.0269091 -0.01051 0)
(0.0170638 -0.0118065 0)
(0.00784144 -0.0132326 0)
(-0.00179362 -0.0130622 0)
(-0.0105481 -0.0149035 0)
(-0.0138647 -0.0223396 0)
(-0.0124555 -0.0296628 0)
(-0.0105258 -0.0299318 0)
(-0.011004 -0.0245475 0)
(-0.0167424 -0.0177334 0)
(-0.0269683 -0.0127444 0)
(-0.0374512 -0.0104214 0)
(-0.0456535 -0.00853725 0)
(-0.0513345 -0.00673991 0)
(-0.0539687 -0.00780483 0)
(-0.0541687 -0.0209224 0)
(-0.0454248 -0.042529 0)
(-0.0308479 -0.057932 0)
(-0.0201018 -0.0653042 0)
(-0.0152261 -0.0659847 0)
(-0.0110361 -0.0634595 0)
(-0.00940465 -0.0554857 0)
(0.00530486 -0.0711587 0)
(0.00364887 -0.0784895 0)
(0.00583193 -0.0784927 0)
(0.00649437 -0.075446 0)
(0.0159319 -0.0629912 0)
(0.0272064 -0.0453483 0)
(0.0355204 -0.0264147 0)
(0.0385809 -0.0190042 0)
(0.0345074 -0.0191159 0)
(0.0256764 -0.0200827 0)
(0.0159405 -0.0207628 0)
(0.00380133 -0.0204007 0)
(-0.00577857 -0.0266149 0)
(-0.00916913 -0.0416945 0)
(-0.00649089 -0.0521581 0)
(-0.00278315 -0.0513593 0)
(-0.00221862 -0.0411556 0)
(-0.00763147 -0.027713 0)
(-0.0200246 -0.0183428 0)
(-0.0329214 -0.0180579 0)
(-0.0412088 -0.0188582 0)
(-0.0453644 -0.0181557 0)
(-0.0478914 -0.023017 0)
(-0.0453772 -0.0421334 0)
(-0.0358945 -0.070005 0)
(-0.0224627 -0.0855125 0)
(-0.0111998 -0.0896467 0)
(-0.00825232 -0.0850214 0)
(-0.00554269 -0.0811631 0)
(-0.00495624 -0.072828 0)
(0.00260321 -0.0736518 0)
(-0.00104675 -0.0777298 0)
(-0.00138572 -0.0816565 0)
(0.00296669 -0.0839979 0)
(0.00961942 -0.0741872 0)
(0.0212154 -0.0563385 0)
(0.0295661 -0.0370021 0)
(0.0374445 -0.024757 0)
(0.0355896 -0.0184592 0)
(0.027773 -0.018424 0)
(0.0171428 -0.0216022 0)
(0.00429058 -0.0263712 0)
(-0.00359721 -0.0382228 0)
(-0.00480229 -0.0537254 0)
(-0.00158892 -0.06452 0)
(0.00422055 -0.0631015 0)
(0.00677913 -0.0506004 0)
(0.00317478 -0.0356915 0)
(-0.0048682 -0.0244402 0)
(-0.0165977 -0.0189205 0)
(-0.0284836 -0.0161803 0)
(-0.03862 -0.0173372 0)
(-0.043005 -0.0270108 0)
(-0.0383667 -0.050856 0)
(-0.0281418 -0.0791307 0)
(-0.0155283 -0.0943303 0)
(-0.00669013 -0.0962101 0)
(-0.00108004 -0.0882007 0)
(-0.000939768 -0.0803314 0)
(-0.0024438 -0.0747968 0)
(-0.00194203 -0.0658028 0)
(-0.00429909 -0.0772609 0)
(-0.00400499 -0.0858809 0)
(0.000525022 -0.0903015 0)
(0.00979603 -0.0866713 0)
(0.0207331 -0.064815 0)
(0.0269285 -0.0426928 0)
(0.0363418 -0.0295271 0)
(0.0359939 -0.016687 0)
(0.0258592 -0.0152288 0)
(0.0155407 -0.0200855 0)
(0.00514761 -0.0258248 0)
(0.00023236 -0.0389327 0)
(-0.000257969 -0.0578101 0)
(0.0025552 -0.0706243 0)
(0.00817522 -0.0694905 0)
(0.0112317 -0.0555205 0)
(0.00915919 -0.0372768 0)
(0.00306355 -0.0237016 0)
(-0.00577352 -0.0178269 0)
(-0.0167538 -0.0125331 0)
(-0.028084 -0.0137751 0)
(-0.0347201 -0.028316 0)
(-0.0294527 -0.0551528 0)
(-0.022362 -0.0852648 0)
(-0.0129766 -0.0997098 0)
(-0.00473928 -0.101542 0)
(0.000825611 -0.0924964 0)
(0.00187731 -0.0810971 0)
(0.00125385 -0.0684306 0)
(-0.00168675 -0.0572389 0)
(-0.00329979 -0.0702646 0)
(-0.0030296 -0.0812269 0)
(0.00360732 -0.090426 0)
(0.0119172 -0.0889133 0)
(0.0194342 -0.0702439 0)
(0.0225477 -0.0435118 0)
(0.0272866 -0.029472 0)
(0.0292538 -0.0128877 0)
(0.0218648 -0.00610443 0)
(0.0102703 -0.0116179 0)
(0.00491361 -0.0210183 0)
(0.00518458 -0.0363534 0)
(0.00593668 -0.057562 0)
(0.00692592 -0.0710016 0)
(0.00923086 -0.070252 0)
(0.0123532 -0.0577944 0)
(0.0130298 -0.0372722 0)
(0.0117456 -0.0226787 0)
(0.00557744 -0.0105183 0)
(-0.0057584 -0.00343577 0)
(-0.0159592 -0.00802665 0)
(-0.0209365 -0.025988 0)
(-0.0193598 -0.0530569 0)
(-0.0163936 -0.0839686 0)
(-0.0129497 -0.0996135 0)
(-0.0100512 -0.10009 0)
(-0.00228665 -0.0900581 0)
(0.000164239 -0.076247 0)
(0.000693094 -0.0611743 0)
(-0.00177544 -0.052419 0)
(0.000770426 -0.0621667 0)
(0.00216412 -0.075745 0)
(0.00777408 -0.0881485 0)
(0.0113984 -0.0873176 0)
(0.0155169 -0.0718373 0)
(0.0139456 -0.0409191 0)
(0.0155187 -0.0224008 0)
(0.0206624 -0.00776516 0)
(0.0200138 0.00261071 0)
(0.00705297 0.00405131 0)
(0.00294905 -0.0104478 0)
(0.00844644 -0.0323678 0)
(0.0116385 -0.0543242 0)
(0.0116147 -0.0673672 0)
(0.0102724 -0.0669468 0)
(0.0123005 -0.0548078 0)
(0.0128908 -0.0307213 0)
(0.0147717 -0.0148679 0)
(0.0132075 0.00349467 0)
(0.00374921 0.0124305 0)
(-0.00677957 -1.69117e-05 0)
(-0.00617138 -0.022888 0)
(-0.00444853 -0.050927 0)
(-0.00672093 -0.0799129 0)
(-0.0125672 -0.096723 0)
(-0.0146497 -0.0976256 0)
(-0.0090211 -0.0867055 0)
(-0.00399293 -0.0717524 0)
(0.000911084 -0.0603289 0)
(0.00208476 -0.0488981 0)
(0.00824229 -0.0557426 0)
(0.0118578 -0.0679525 0)
(0.0137064 -0.082504 0)
(0.0116478 -0.0828541 0)
(0.0102304 -0.0649022 0)
(0.00613514 -0.0339164 0)
(0.0082627 -0.0169421 0)
(0.0131354 -0.00112087 0)
(0.0182631 0.01298 0)
(0.0118481 0.0122966 0)
(0.0118685 -0.00149839 0)
(0.0146732 -0.0257897 0)
(0.0142826 -0.0495431 0)
(0.0137208 -0.0656039 0)
(0.0101416 -0.0652248 0)
(0.0108158 -0.0505508 0)
(0.0101514 -0.0245186 0)
(0.0181574 -0.00379694 0)
(0.0169199 0.0163353 0)
(0.00872188 0.0210881 0)
(0.00756579 0.00781701 0)
(0.00824198 -0.020267 0)
(0.0112685 -0.0462927 0)
(0.00658134 -0.0707775 0)
(-0.00740761 -0.0890811 0)
(-0.0169631 -0.0919247 0)
(-0.0148345 -0.0807599 0)
(-0.00921653 -0.0664976 0)
(-0.00105588 -0.0567055 0)
(0.00352087 -0.0495882 0)
(0.0116427 -0.0560384 0)
(0.0188132 -0.0678574 0)
(0.0222243 -0.080315 0)
(0.0104652 -0.0799178 0)
(0.00393466 -0.0567032 0)
(0.00117363 -0.0283113 0)
(0.00535438 -0.012392 0)
(0.00679531 0.00381048 0)
(0.0147845 0.0233798 0)
(0.0127759 0.0229539 0)
(0.0106633 0.00628844 0)
(0.0168022 -0.0245981 0)
(0.0225154 -0.0483601 0)
(0.0178509 -0.0611469 0)
(0.00932724 -0.0615079 0)
(0.00906343 -0.0465161 0)
(0.0103028 -0.0215705 0)
(0.0214403 0.00582828 0)
(0.0161671 0.0199626 0)
(0.0160812 0.0245301 0)
(0.0223699 0.00953356 0)
(0.0208032 -0.0138177 0)
(0.0244417 -0.0377957 0)
(0.0190035 -0.0601069 0)
(0.00178316 -0.0814639 0)
(-0.015622 -0.0889099 0)
(-0.0169951 -0.0782431 0)
(-0.0119951 -0.0658026 0)
(-0.00285733 -0.0545268 0)
(0.00481769 -0.0525624 0)
(0.011926 -0.0603524 0)
(0.0195557 -0.0706522 0)
(0.0240197 -0.0807515 0)
(0.0108041 -0.0776373 0)
(-0.00326295 -0.0579509 0)
(-0.00329477 -0.0322376 0)
(-0.000895628 -0.0112826 0)
(0.0039164 0.00552379 0)
(0.0112395 0.0248819 0)
(0.0145067 0.0251752 0)
(0.00972926 0.00708774 0)
(0.0145102 -0.0252533 0)
(0.0210846 -0.0479008 0)
(0.0192995 -0.0578733 0)
(0.0113278 -0.0546089 0)
(0.00836028 -0.0396986 0)
(0.010519 -0.0185547 0)
(0.0224118 0.00844474 0)
(0.0177996 0.0239816 0)
(0.017897 0.027088 0)
(0.0259769 0.0100557 0)
(0.0272497 -0.013645 0)
(0.0274274 -0.0355947 0)
(0.0247528 -0.0549198 0)
(0.00989128 -0.0753005 0)
(-0.00956834 -0.0860612 0)
(-0.013653 -0.0784504 0)
(-0.0102774 -0.0688585 0)
(-0.00392825 -0.0570111 0)
(0.00447646 -0.0565075 0)
(0.00912964 -0.0659479 0)
(0.0160419 -0.0757534 0)
(0.0182352 -0.084153 0)
(0.00505405 -0.0732319 0)
(-0.00874741 -0.0553742 0)
(-0.00937598 -0.0287468 0)
(-0.00312199 -0.00643959 0)
(0.000727098 0.0104699 0)
(0.00742533 0.0313189 0)
(0.0100326 0.0314523 0)
(0.00728396 0.00827774 0)
(0.0110019 -0.0223199 0)
(0.0190319 -0.0448269 0)
(0.017119 -0.0530516 0)
(0.00983366 -0.0507595 0)
(0.0089562 -0.0401694 0)
(0.0175575 -0.0217186 0)
(0.0247752 0.0118099 0)
(0.0184111 0.0308368 0)
(0.0202628 0.0318177 0)
(0.0320223 0.0116893 0)
(0.033669 -0.0120759 0)
(0.0316991 -0.0358115 0)
(0.0311495 -0.0546316 0)
(0.0139955 -0.0702757 0)
(-0.0022726 -0.0818233 0)
(-0.00843417 -0.0805494 0)
(-0.00649723 -0.0735395 0)
(-0.00329751 -0.0606569 0)
(0.00345266 -0.0589429 0)
(0.00613296 -0.0697255 0)
(0.0108879 -0.0779562 0)
(0.0090111 -0.0829923 0)
(-0.0034358 -0.0676464 0)
(-0.0121978 -0.051177 0)
(-0.00811343 -0.0307071 0)
(-0.00343901 -0.00807233 0)
(-0.00188847 0.00792385 0)
(0.00479927 0.0291398 0)
(0.0134104 0.0302032 0)
(0.0133977 0.00732125 0)
(0.013543 -0.0243403 0)
(0.0224413 -0.043305 0)
(0.0182125 -0.0503094 0)
(0.00753803 -0.0478434 0)
(0.00401164 -0.0405747 0)
(0.0131733 -0.0261525 0)
(0.0175585 0.0120357 0)
(0.0169041 0.035259 0)
(0.0209698 0.0338328 0)
(0.0311746 0.0128197 0)
(0.0358086 -0.0124413 0)
(0.0341159 -0.0331795 0)
(0.0337773 -0.0508427 0)
(0.0179583 -0.0668635 0)
(0.00363107 -0.0751248 0)
(-0.00252286 -0.0791218 0)
(-0.0027628 -0.0754631 0)
(-0.00143489 -0.0609269 0)
(0.002817 -0.0587436 0)
(0.00421272 -0.0711686 0)
(0.00652916 -0.0758515 0)
(0.00206594 -0.0812627 0)
(-0.0109287 -0.0627934 0)
(-0.0132901 -0.049594 0)
(-0.00820616 -0.0311388 0)
(-0.0073596 -0.0101646 0)
(-0.00538567 0.00756891 0)
(0.00223521 0.0275181 0)
(0.0145123 0.0278032 0)
(0.0207353 0.00248466 0)
(0.0221176 -0.0270406 0)
(0.0287862 -0.0406659 0)
(0.0238249 -0.0481046 0)
(0.0133961 -0.0467704 0)
(0.00443233 -0.0415833 0)
(0.00745251 -0.0328718 0)
(0.00782962 0.0138011 0)
(0.0129462 0.0400623 0)
(0.0164546 0.0399218 0)
(0.0225746 0.0176353 0)
(0.0284381 -0.0114808 0)
(0.0273423 -0.0310402 0)
(0.0313591 -0.0492062 0)
(0.0195557 -0.0646858 0)
(0.00961189 -0.0725828 0)
(0.00374284 -0.0744019 0)
(0.00133813 -0.0734821 0)
(-5.13031e-05 -0.0583883 0)
(0.00153325 -0.0562209 0)
(0.00173238 -0.069937 0)
(0.00497023 -0.0734738 0)
(0.00279981 -0.0762499 0)
(-0.00766765 -0.0612782 0)
(-0.0093454 -0.0495825 0)
(-0.0138 -0.0314517 0)
(-0.0133651 -0.0120551 0)
(-0.00821128 0.00698002 0)
(0.00097751 0.0222181 0)
(0.0170585 0.0225143 0)
(0.0284115 -0.00348421 0)
(0.0251923 -0.0329124 0)
(0.0297241 -0.0457193 0)
(0.0334825 -0.0489544 0)
(0.0243816 -0.0484117 0)
(0.0170428 -0.0453291 0)
(0.00890366 -0.0381858 0)
(0.00387665 0.00702296 0)
(0.0112689 0.0383777 0)
(0.0112745 0.0427304 0)
(0.0158685 0.0219341 0)
(0.0161101 -0.00803238 0)
(0.0151343 -0.029265 0)
(0.0241073 -0.0495994 0)
(0.018775 -0.0621406 0)
(0.0146135 -0.0628838 0)
(0.00750412 -0.0682501 0)
(0.00473633 -0.0663672 0)
(0.00143558 -0.0518157 0)
(0.000283691 -0.0523073 0)
(-0.000193198 -0.0652878 0)
(0.00215449 -0.0697399 0)
(0.000821002 -0.0716348 0)
(-0.00764658 -0.0612019 0)
(-0.00466833 -0.0539951 0)
(-0.0106898 -0.0390808 0)
(-0.019429 -0.0158509 0)
(-0.0115659 0.00715139 0)
(0.000458356 0.0197288 0)
(0.0175581 0.0206028 0)
(0.0328346 0.00120056 0)
(0.0437102 -0.0351976 0)
(0.0320616 -0.0417356 0)
(0.0375461 -0.0439037 0)
(0.0331272 -0.0478515 0)
(0.0322689 -0.0461839 0)
(0.0156082 -0.0428784 0)
(0.0058739 0.000103734 0)
(0.0081127 0.0403795 0)
(0.0113208 0.0448134 0)
(0.0172494 0.0212112 0)
(0.013219 -0.00729875 0)
(0.0140654 -0.0305882 0)
(0.0149033 -0.0563527 0)
(0.0103441 -0.0616839 0)
(0.00785243 -0.0536971 0)
(0.00511298 -0.0558192 0)
(0.00188127 -0.0591951 0)
(-2.43908e-05 -0.0433747 0)
(0.000919019 -0.0527123 0)
(0.00272745 -0.0657305 0)
(0.00597947 -0.0650352 0)
(0.00192449 -0.0620677 0)
(-0.00984518 -0.0598759 0)
(-0.00922386 -0.0614937 0)
(-0.0157676 -0.0454745 0)
(-0.0193882 -0.022765 0)
(-0.012868 0.0065745 0)
(-0.00136016 0.0178367 0)
(0.0178758 0.0145551 0)
(0.0360056 -0.00138395 0)
(0.0514006 -0.0304203 0)
(0.0462792 -0.0448606 0)
(0.045985 -0.0495245 0)
(0.0424613 -0.0473021 0)
(0.0444101 -0.0466417 0)
(0.0262734 -0.0455504 0)
(0.00573201 -0.000123586 0)
(0.00978036 0.0321418 0)
(0.0148854 0.0372638 0)
(0.0212724 0.0168626 0)
(0.0202946 -0.00923692 0)
(0.0180602 -0.0336628 0)
(0.00930529 -0.0545663 0)
(0.00132587 -0.0524744 0)
(-0.00454637 -0.0423007 0)
(-0.00328818 -0.0449335 0)
(-0.00333364 -0.0537423 0)
(-0.00401235 -0.0381369 0)
(0.00171317 -0.0482038 0)
(0.00525264 -0.0750195 0)
(0.0032321 -0.06853 0)
(0.00271214 -0.0547926 0)
(-0.00934501 -0.0562392 0)
(-0.0106891 -0.0643125 0)
(-0.0194755 -0.0579769 0)
(-0.0225868 -0.0318057 0)
(-0.0151256 -0.00375673 0)
(-0.00397113 0.00660719 0)
(0.0169129 0.00220311 0)
(0.0374771 -0.0147573 0)
(0.0515135 -0.0431081 0)
(0.0577652 -0.0587034 0)
(0.0576384 -0.0639914 0)
(0.0502157 -0.0536992 0)
(0.0478412 -0.0520379 0)
(0.0328293 -0.039443 0)
(0.00825949 -0.00375392 0)
(0.0174403 0.0192628 0)
(0.0221258 0.0204487 0)
(0.0313072 0.00744206 0)
(0.0283797 -0.0210216 0)
(0.0173769 -0.0466156 0)
(0.00048835 -0.0545602 0)
(-0.00870031 -0.044197 0)
(-0.0147169 -0.0398157 0)
(-0.00954121 -0.0479896 0)
(-0.00864803 -0.0516871 0)
(-0.0085461 -0.035801 0)
(0.00212829 -0.0388958 0)
(0.00791169 -0.0684588 0)
(0.00112194 -0.07874 0)
(-0.00505374 -0.0680729 0)
(-0.0160743 -0.0675611 0)
(-0.0228936 -0.0773827 0)
(-0.0321286 -0.0743913 0)
(-0.0303912 -0.0533993 0)
(-0.0163821 -0.0294872 0)
(-0.00187542 -0.0225116 0)
(0.0185134 -0.0290321 0)
(0.0352171 -0.0447961 0)
(0.0519175 -0.0747737 0)
(0.0571473 -0.0847483 0)
(0.0589292 -0.0792448 0)
(0.0535949 -0.0637587 0)
(0.0461935 -0.0504654 0)
(0.0335229 -0.0337075 0)
(0.0174817 -0.00520413 0)
(0.0280483 0.0135033 0)
(0.0298154 0.0138795 0)
(0.0374908 -0.00253095 0)
(0.0292883 -0.0416467 0)
(0.0154647 -0.0609666 0)
(0.00222307 -0.0620928 0)
(-0.00840607 -0.0538502 0)
(-0.014489 -0.0541285 0)
(-0.0136284 -0.0633978 0)
(-0.0154068 -0.059573 0)
(-0.0145417 -0.0439192 0)
(0.00644048 -0.0409653 0)
(0.00673103 -0.0719708 0)
(-0.00545781 -0.0902065 0)
(-0.0147038 -0.0870337 0)
(-0.0220003 -0.0850684 0)
(-0.0273958 -0.0815391 0)
(-0.0354379 -0.0826727 0)
(-0.0344282 -0.0843296 0)
(-0.0186727 -0.0665616 0)
(-0.0019309 -0.0558178 0)
(0.0161193 -0.0574422 0)
(0.032987 -0.0749576 0)
(0.0427351 -0.10027 0)
(0.044897 -0.107461 0)
(0.0483284 -0.092745 0)
(0.0456092 -0.0746104 0)
(0.0380273 -0.0468464 0)
(0.0295859 -0.0281501 0)
(0.0199227 -0.0113233 0)
(0.0268118 0.00701518 0)
(0.0345637 -0.000874318 0)
(0.0280084 -0.0199001 0)
(0.0265999 -0.0379198 0)
(0.0147294 -0.0558653 0)
(0.00361303 -0.061801 0)
(-0.00413056 -0.0708071 0)
(-0.00637591 -0.0803849 0)
(-0.0097445 -0.086306 0)
(-0.0169922 -0.0803395 0)
(-0.0152157 -0.0658956 0)
(0.010574 -0.0819705 0)
(0.00206688 -0.102321 0)
(-0.0163755 -0.0948082 0)
(-0.0242684 -0.0752718 0)
(-0.0263501 -0.0693457 0)
(-0.0279382 -0.0635362 0)
(-0.0282444 -0.075704 0)
(-0.0292436 -0.0952853 0)
(-0.0266806 -0.0969203 0)
(-0.0108276 -0.0787222 0)
(0.0073945 -0.0706458 0)
(0.0227987 -0.0831113 0)
(0.0319301 -0.108662 0)
(0.0373433 -0.113881 0)
(0.0443351 -0.0984578 0)
(0.03971 -0.0792307 0)
(0.0301487 -0.042323 0)
(0.0247385 -0.0189625 0)
(0.0212528 -0.00841183 0)
(0.0254799 -0.000249417 0)
(0.0250876 -0.00764147 0)
(0.0195004 -0.0184896 0)
(0.01808 -0.0315616 0)
(0.00878354 -0.0511058 0)
(0.00464932 -0.062152 0)
(0.00360858 -0.0719219 0)
(0.00343781 -0.0838056 0)
(0.001401 -0.0969365 0)
(-0.00496314 -0.10886 0)
(-0.0113317 -0.0999251 0)
(0.00274472 -0.100645 0)
(-0.00582347 -0.104028 0)
(-0.0134877 -0.0863178 0)
(-0.0173061 -0.0681575 0)
(-0.0199437 -0.0598293 0)
(-0.0187952 -0.0570178 0)
(-0.0169933 -0.0691526 0)
(-0.0196307 -0.0866415 0)
(-0.0247362 -0.0957604 0)
(-0.0248786 -0.0940791 0)
(-0.00383557 -0.0835554 0)
(0.013994 -0.0877481 0)
(0.0257435 -0.107454 0)
(0.0324151 -0.10746 0)
(0.0366678 -0.0928006 0)
(0.0304537 -0.0679043 0)
(0.0224353 -0.0396165 0)
(0.0215016 -0.0129565 0)
(0.0237609 -0.006854 0)
(0.0228117 -0.00937821 0)
(0.0191764 -0.00919811 0)
(0.0143592 -0.0161966 0)
(0.0120646 -0.0262543 0)
(0.00694102 -0.0466378 0)
(0.00438937 -0.0632319 0)
(0.00644337 -0.0703688 0)
(0.00655354 -0.081037 0)
(0.00616466 -0.0945548 0)
(0.00457598 -0.109501 0)
(-0.00408201 -0.113242 0)
(-0.00154046 -0.0961764 0)
(-0.0095607 -0.09416 0)
(-0.0125364 -0.0776704 0)
(-0.0157576 -0.0609357 0)
(-0.0132492 -0.0557199 0)
(-0.00944097 -0.0558091 0)
(-0.00655815 -0.0639364 0)
(-0.00783212 -0.0781054 0)
(-0.0137833 -0.0876798 0)
(-0.0197573 -0.0889221 0)
(-0.0129137 -0.083542 0)
(0.00659042 -0.0860068 0)
(0.0162562 -0.100892 0)
(0.0211746 -0.100001 0)
(0.0253436 -0.0846003 0)
(0.022316 -0.0540629 0)
(0.0147224 -0.0306213 0)
(0.0202582 -0.0114592 0)
(0.0286159 -0.00514201 0)
(0.0230564 -0.011823 0)
(0.0145523 -0.00978267 0)
(0.0085029 -0.0157982 0)
(0.00581627 -0.0242286 0)
(0.00275218 -0.0466903 0)
(-0.001803 -0.0648571 0)
(0.0039885 -0.0666119 0)
(0.00870206 -0.0740377 0)
(0.0078984 -0.0880013 0)
(0.00611028 -0.100187 0)
(0.000898077 -0.106069 0)
(-0.000650489 -0.0839095 0)
(-0.006869 -0.0828532 0)
(-0.0126045 -0.06847 0)
(-0.0112526 -0.0559122 0)
(-0.00328762 -0.0543341 0)
(0.00228142 -0.0574306 0)
(0.0047345 -0.0613505 0)
(0.000352265 -0.0722535 0)
(-0.00615895 -0.0801208 0)
(-0.0102401 -0.0838519 0)
(-0.0151588 -0.0876249 0)
(-0.0101359 -0.0897086 0)
(0.00173449 -0.0946909 0)
(0.00977725 -0.0900643 0)
(0.0140063 -0.0717511 0)
(0.00886953 -0.0458242 0)
(0.00643217 -0.0227561 0)
(0.0176054 -0.00883944 0)
(0.0294646 -0.00550751 0)
(0.0261123 -0.00959659 0)
(0.0152739 -0.00951747 0)
(0.00683384 -0.0131509 0)
(0.00397542 -0.0224782 0)
(0.00165439 -0.0406373 0)
(-0.00178987 -0.0609344 0)
(-0.00190373 -0.0674843 0)
(0.00609166 -0.0698604 0)
(0.00871555 -0.0798433 0)
(0.00313233 -0.0915496 0)
(0.00225569 -0.0950793 0)
(-0.00267782 -0.0765654 0)
(-0.00800995 -0.0689198 0)
(-0.00953238 -0.059194 0)
(-0.000484599 -0.0559161 0)
(0.0086452 -0.0577609 0)
(0.0112169 -0.0578787 0)
(0.0134004 -0.0606484 0)
(0.0115764 -0.0639108 0)
(0.00179075 -0.0747067 0)
(-0.00532536 -0.0776235 0)
(-0.0110767 -0.0789049 0)
(-0.0151383 -0.0832667 0)
(-0.0100893 -0.0896022 0)
(-0.000256489 -0.0833713 0)
(0.00116936 -0.0587485 0)
(-0.00235217 -0.0393512 0)
(0.00220319 -0.0178738 0)
(0.0154674 -0.00733728 0)
(0.0281557 -0.005615 0)
(0.0289925 -0.00839796 0)
(0.0209662 -0.0102816 0)
(0.00917132 -0.0134951 0)
(0.00702935 -0.0204918 0)
(0.00216309 -0.0336951 0)
(-0.000855352 -0.0503793 0)
(-0.00744472 -0.0663685 0)
(-0.00140883 -0.0678908 0)
(0.00748442 -0.0722789 0)
(0.00442291 -0.0783929 0)
(0.00283371 -0.0832968 0)
(-0.010106 -0.0662794 0)
(-0.00340416 -0.0588952 0)
(0.000441683 -0.0590088 0)
(0.0145911 -0.0610501 0)
(0.0202991 -0.0594097 0)
(0.0211281 -0.0581288 0)
(0.0196442 -0.0604227 0)
(0.0189348 -0.05375 0)
(0.00745185 -0.0675907 0)
(-0.000543477 -0.0747784 0)
(-0.00972329 -0.0742708 0)
(-0.0154513 -0.0774651 0)
(-0.0162871 -0.0828311 0)
(-0.01127 -0.0768976 0)
(-0.00773684 -0.0558044 0)
(-0.00702343 -0.0405608 0)
(0.0020137 -0.0154875 0)
(0.0152652 -0.00663239 0)
(0.0274312 -0.00623182 0)
(0.0297628 -0.00822895 0)
(0.0273243 -0.0104816 0)
(0.0184629 -0.0101184 0)
(0.0116419 -0.0160062 0)
(6.22191e-06 -0.0261081 0)
(0.0016513 -0.0350958 0)
(-0.00310947 -0.0557135 0)
(-0.0084163 -0.0693118 0)
(0.000200977 -0.0716017 0)
(0.00182007 -0.0682541 0)
(0.00601685 -0.0705868 0)
(-0.0132524 -0.0498655 0)
(-0.0051758 -0.0504222 0)
(0.00515697 -0.0614583 0)
(0.0177964 -0.0607272 0)
(0.0224692 -0.0557152 0)
(0.0223558 -0.0535451 0)
(0.0213881 -0.0567255 0)
(0.0227948 -0.0492829 0)
(0.0134168 -0.0556847 0)
(0.000242407 -0.0686528 0)
(-0.0103129 -0.0698632 0)
(-0.0178497 -0.0723324 0)
(-0.0187982 -0.0747472 0)
(-0.0181452 -0.0748279 0)
(-0.0125921 -0.0560254 0)
(-0.0115275 -0.0438735 0)
(0.00186258 -0.0146364 0)
(0.0154048 -0.00813567 0)
(0.0255908 -0.00881436 0)
(0.0297241 -0.00712044 0)
(0.0282498 -0.00757821 0)
(0.0268663 -0.00746628 0)
(0.0170785 -0.0112411 0)
(-0.00161623 -0.0181273 0)
(0.000993698 -0.0258593 0)
(-0.00052308 -0.0405692 0)
(-0.00651624 -0.060203 0)
(-0.00542675 -0.0711273 0)
(-0.00225199 -0.0649962 0)
(0.00591798 -0.0568192 0)
(-0.00471518 -0.0317794 0)
(-9.31723e-05 -0.0474904 0)
(0.00585395 -0.0569642 0)
(0.0141678 -0.058478 0)
(0.0170803 -0.0499985 0)
(0.0158936 -0.0471172 0)
(0.0157535 -0.0521479 0)
(0.0160907 -0.0512518 0)
(0.0132584 -0.049776 0)
(0.00171688 -0.0639595 0)
(-0.0123657 -0.0660711 0)
(-0.0207313 -0.0696071 0)
(-0.0221501 -0.069594 0)
(-0.021978 -0.0717462 0)
(-0.0181853 -0.0539578 0)
(-0.0109021 -0.0447821 0)
(0.00178287 -0.0158013 0)
(0.0147247 -0.0120686 0)
(0.0229703 -0.0111693 0)
(0.0264191 -0.00673403 0)
(0.0260015 -0.00411647 0)
(0.0258981 -0.00352716 0)
(0.0223266 -0.00748211 0)
(0.00213736 -0.0125663 0)
(0.00030174 -0.0211186 0)
(-0.000494208 -0.0329208 0)
(-0.00633049 -0.0539822 0)
(-0.00617539 -0.069201 0)
(-0.00663467 -0.0692176 0)
(-0.00194011 -0.0498932 0)
(0.00328956 -0.0314166 0)
(0.00387768 -0.0464892 0)
(0.00697537 -0.051979 0)
(0.0107689 -0.051101 0)
(0.0122025 -0.0434983 0)
(0.0118561 -0.0418327 0)
(0.010661 -0.0467014 0)
(0.00719006 -0.0492969 0)
(0.00467145 -0.0449223 0)
(-0.00269964 -0.0590914 0)
(-0.0146676 -0.0633031 0)
(-0.0242665 -0.0660971 0)
(-0.0262241 -0.0672036 0)
(-0.0241937 -0.0708404 0)
(-0.0222778 -0.0586543 0)
(-0.0106136 -0.0457402 0)
(0.000457431 -0.0206675 0)
(0.0125011 -0.0171506 0)
(0.0183483 -0.0142307 0)
(0.0205645 -0.00779376 0)
(0.0225648 -0.00190157 0)
(0.0207397 -0.000314784 0)
(0.0225917 -0.00430519 0)
(0.00421314 -0.01176 0)
(-1.97876e-05 -0.0189404 0)
(-0.00122649 -0.0295909 0)
(-0.00565232 -0.0483169 0)
(-0.00827537 -0.0690055 0)
(-0.00894615 -0.0738827 0)
(-0.00747009 -0.0594066 0)
(0.00807029 -0.0362084 0)
(0.00721416 -0.0505232 0)
(0.0066207 -0.0527392 0)
(0.00848342 -0.0480401 0)
(0.0109044 -0.0411848 0)
(0.0109278 -0.0391346 0)
(0.00873299 -0.040032 0)
(-0.000179405 -0.0474314 0)
(-0.00594311 -0.0472478 0)
(-0.0102308 -0.0596063 0)
(-0.0166021 -0.0691653 0)
(-0.0285135 -0.0661481 0)
(-0.0306472 -0.0670274 0)
(-0.0286936 -0.0729894 0)
(-0.0275539 -0.0674267 0)
(-0.0165093 -0.0463049 0)
(-0.0036444 -0.0248091 0)
(0.00774434 -0.0228779 0)
(0.0132948 -0.0177919 0)
(0.0137718 -0.0115391 0)
(0.0148786 -0.0111661 0)
(0.0152184 -0.000551116 0)
(0.0162293 -0.000560711 0)
(0.0062178 -0.0071786 0)
(-0.00035814 -0.0177098 0)
(-0.00309548 -0.0286259 0)
(-0.00754145 -0.0484062 0)
(-0.0121657 -0.0705405 0)
(-0.0103424 -0.0799 0)
(-0.0101429 -0.0668499 0)
(0.0102197 -0.0479133 0)
(0.00924021 -0.0569242 0)
(0.00735625 -0.0537666 0)
(0.00838855 -0.0465958 0)
(0.00847085 -0.0401606 0)
(0.00846196 -0.0381004 0)
(0.00383906 -0.0394149 0)
(-0.00490516 -0.0448093 0)
(-0.0136925 -0.050492 0)
(-0.0181958 -0.0602797 0)
(-0.0191877 -0.0749518 0)
(-0.0299299 -0.0784153 0)
(-0.0353806 -0.0699509 0)
(-0.0325624 -0.0755412 0)
(-0.0322077 -0.0731623 0)
(-0.0264054 -0.053828 0)
(-0.00941676 -0.0339552 0)
(0.00416556 -0.0313003 0)
(0.010809 -0.0299013 0)
(0.0087682 -0.0321783 0)
(0.00748651 -0.0128426 0)
(0.0113171 0.00499122 0)
(0.0122423 0.00651267 0)
(0.0132951 -0.000673867 0)
(0.00331484 -0.0122544 0)
(-0.00308126 -0.0266062 0)
(-0.00857259 -0.0475208 0)
(-0.0131015 -0.0713723 0)
(-0.0112651 -0.0843524 0)
(-0.0112621 -0.076275 0)
(0.0102806 -0.0578607 0)
(0.00949223 -0.0592149 0)
(0.00721859 -0.0520674 0)
(0.00640774 -0.0446018 0)
(0.00525457 -0.0397391 0)
(0.00542048 -0.0358975 0)
(-0.00140531 -0.0338823 0)
(-0.0120108 -0.0395047 0)
(-0.0225206 -0.0493074 0)
(-0.0255595 -0.0616189 0)
(-0.0236353 -0.0778893 0)
(-0.0296754 -0.0845738 0)
(-0.0385345 -0.0845202 0)
(-0.0375777 -0.0786939 0)
(-0.0359731 -0.0757767 0)
(-0.0292643 -0.0619061 0)
(-0.0165826 -0.0470714 0)
(0.00104151 -0.0500434 0)
(0.00437467 -0.0582375 0)
(0.00103102 -0.0403451 0)
(0.00388448 -0.0099885 0)
(0.00873518 0.0138898 0)
(0.0106852 0.018986 0)
(0.0148616 0.00889324 0)
(0.0153525 -0.00361274 0)
(0.00172608 -0.0199084 0)
(-0.00786207 -0.0458055 0)
(-0.0114798 -0.0717058 0)
(-0.0111039 -0.0884264 0)
(-0.0117581 -0.0842455 0)
(0.010765 -0.0649969 0)
(0.00988347 -0.060782 0)
(0.00733673 -0.0532497 0)
(0.00431187 -0.0437829 0)
(-3.23373e-05 -0.0391729 0)
(-0.00273745 -0.0306813 0)
(-0.00905049 -0.0244767 0)
(-0.0190258 -0.0308321 0)
(-0.0274244 -0.0463328 0)
(-0.0309079 -0.0596193 0)
(-0.0264836 -0.0799951 0)
(-0.0303309 -0.0852838 0)
(-0.0380207 -0.0876982 0)
(-0.0402265 -0.0848103 0)
(-0.0383242 -0.0791381 0)
(-0.0309412 -0.0671021 0)
(-0.0190428 -0.0608248 0)
(-0.0105242 -0.0973916 0)
(-0.0105142 -0.0799125 0)
(-0.00645087 -0.0443095 0)
(-0.00185325 -0.00889981 0)
(0.00619283 0.0204957 0)
(0.00815887 0.0285333 0)
(0.0154136 0.0202844 0)
(0.020989 0.00411203 0)
(0.0142929 -0.0105893 0)
(-0.00142879 -0.0412095 0)
(-0.0107745 -0.0737973 0)
(-0.0109007 -0.0915815 0)
(-0.0109964 -0.0915085 0)
(0.0133573 -0.0741221 0)
(0.00986709 -0.0659995 0)
(0.00834034 -0.0548584 0)
(0.00570268 -0.0420312 0)
(-0.00623155 -0.0364173 0)
(-0.0141275 -0.028379 0)
(-0.0177706 -0.0230602 0)
(-0.0217071 -0.0319744 0)
(-0.034601 -0.0524132 0)
(-0.0357316 -0.0617095 0)
(-0.0283218 -0.0826661 0)
(-0.0308267 -0.0870412 0)
(-0.0372839 -0.0895332 0)
(-0.040505 -0.0872355 0)
(-0.0403848 -0.0825379 0)
(-0.0334393 -0.0739279 0)
(-0.0241125 -0.0845805 0)
(-0.0215057 -0.11511 0)
(-0.0247638 -0.0920203 0)
(-0.0169194 -0.052612 0)
(-0.0107491 -0.0102755 0)
(-0.000710532 0.0230676 0)
(0.00467786 0.0354954 0)
(0.0162135 0.028875 0)
(0.0226231 0.0157428 0)
(0.0195421 -0.00583082 0)
(0.0127498 -0.032761 0)
(-0.00967673 -0.0697532 0)
(-0.0119345 -0.0898655 0)
(-0.0106283 -0.0975849 0)
(0.0131499 -0.0856272 0)
(0.00863457 -0.0715784 0)
(0.00810242 -0.054407 0)
(0.00278303 -0.0346479 0)
(-0.0145665 -0.0283774 0)
(-0.0174757 -0.0248022 0)
(-0.0183539 -0.0393909 0)
(-0.0215649 -0.0698549 0)
(-0.0360888 -0.0934288 0)
(-0.0395932 -0.0894357 0)
(-0.0341765 -0.0916366 0)
(-0.0293333 -0.0886462 0)
(-0.034696 -0.090481 0)
(-0.0393032 -0.0886857 0)
(-0.0409364 -0.0846933 0)
(-0.0360942 -0.0795117 0)
(-0.0272502 -0.103037 0)
(-0.0320909 -0.133281 0)
(-0.0370753 -0.0973133 0)
(-0.02675 -0.0656196 0)
(-0.0197787 -0.0161496 0)
(-0.00821985 0.0194372 0)
(0.00230736 0.0334758 0)
(0.0182061 0.0365648 0)
(0.0250506 0.0277303 0)
(0.0199018 0.000681755 0)
(0.00413156 -0.0398794 0)
(-0.0115817 -0.0686985 0)
(-0.0117977 -0.0887347 0)
(-0.0103363 -0.100047 0)
(0.00724298 -0.101878 0)
(0.00751633 -0.0762918 0)
(0.00319101 -0.0516736 0)
(-0.00365654 -0.0267041 0)
(-0.0136048 -0.02536 0)
(-0.0119712 -0.0427063 0)
(-0.023564 -0.067149 0)
(-0.0185386 -0.108098 0)
(-0.0216901 -0.132767 0)
(-0.0320507 -0.125745 0)
(-0.031963 -0.106269 0)
(-0.0249919 -0.0924507 0)
(-0.0302642 -0.0919656 0)
(-0.0364063 -0.0889514 0)
(-0.0399821 -0.0858414 0)
(-0.03754 -0.0847989 0)
(-0.0295572 -0.114493 0)
(-0.0404877 -0.146388 0)
(-0.0446121 -0.0989436 0)
(-0.0341141 -0.069397 0)
(-0.0270345 -0.020053 0)
(-0.0123203 0.0144134 0)
(-0.00163225 0.030386 0)
(0.0161203 0.036446 0)
(0.0245728 0.028019 0)
(0.0144759 -0.00342817 0)
(-0.00656451 -0.0468401 0)
(-0.0114174 -0.068118 0)
(-0.0119776 -0.0931204 0)
(-0.0107949 -0.107364 0)
(2.53898e-05 -0.110643 0)
(0.00106031 -0.0800247 0)
(-0.00909415 -0.0446462 0)
(-0.0199074 -0.0333164 0)
(-0.0200917 -0.0514592 0)
(-0.0148412 -0.081992 0)
(-0.0121487 -0.122538 0)
(-0.0064094 -0.159511 0)
(-0.00231177 -0.178595 0)
(-0.0120186 -0.158694 0)
(-0.0212028 -0.113405 0)
(-0.0174159 -0.0932046 0)
(-0.0226863 -0.0918816 0)
(-0.0305934 -0.0894349 0)
(-0.0357118 -0.0875122 0)
(-0.0361483 -0.0883336 0)
(-0.0270915 -0.126854 0)
(-0.0452867 -0.158684 0)
(-0.0536581 -0.106705 0)
(-0.0456424 -0.0763343 0)
(-0.0336409 -0.0310175 0)
(-0.0182983 0.0104043 0)
(-0.00632078 0.0274401 0)
(0.01253 0.0328194 0)
(0.0269665 0.0285214 0)
(0.0220776 0.00263503 0)
(-0.000442876 -0.0403157 0)
(-0.00738587 -0.0675216 0)