# vtk DataFile Version 2.0
mixerVessel2D
ASCII
DATASET UNSTRUCTURED_GRID
POINTS 6528 float
0.1 0 0 0.0997859 -0.00654031 0 0.0991445 -0.0130526 0 0.0980785 -0.019509
0 0.0965926 -0.0258819 0 0.094693 -0.0321439 0 0.092388 -0.0382683 0
0.0896873 -0.0442289 0 0.0866025 -0.05 0 0.083147 -0.055557 0 0.0793353
-0.0608761 0 0.075184 -0.0659346 0 0.0707107 -0.0707107 0 0.1125 0
0 0.112259 -0.00735785 0 0.111538 -0.0146842 0 0.110338 -0.0219477 0
0.108667 -0.0291171 0 0.10653 -0.0361619 0 0.103936 -0.0430519 0 0.100898
-0.0497575 0 0.0974279 -0.05625 0 0.0935403 -0.0625017 0 0.0892522 -0.0684857
0 0.084582 -0.0741764 0 0.0795495 -0.0795495 0 0.125 0 0
0.124732 -0.00817539 0 0.123931 -0.0163158 0 0.122598 -0.0243863 0 0.120741
-0.0323524 0 0.118366 -0.0401799 0 0.115485 -0.0478354 0 0.112109 -0.0552861
0 0.108253 -0.0625 0 0.103934 -0.0694463 0 0.0991692 -0.0760952 0
0.09398 -0.0824182 0 0.0883883 -0.0883883 0 0.1375 0 0 0.137206
-0.00899293 0 0.136324 -0.0179474 0 0.134858 -0.0268249 0 0.132815 -0.0355876
0 0.130203 -0.0441979 0 0.127033 -0.052619 0 0.12332 -0.0608147 0
0.119078 -0.06875 0 0.114327 -0.0763909 0 0.109086 -0.0837047 0 0.103378
-0.0906601 0 0.0972272 -0.0972272 0 0.15 0 0 0.149679 -0.00981047
0 0.148717 -0.0195789 0 0.147118 -0.0292635 0 0.144889 -0.0388229 0
0.14204 -0.0482159 0 0.138582 -0.0574025 0 0.134531 -0.0663433 0 0.129904
-0.075 0 0.12472 -0.0833355 0 0.119003 -0.0913142 0 0.112776 -0.0989019
0 0.106066 -0.106066 0 0.1625 0 0 0.162152 -0.010628 0
0.16111 -0.0212105 0 0.159378 -0.0317022 0 0.156963 -0.0420581 0 0.153876
-0.0522339 0 0.15013 -0.0621861 0 0.145742 -0.0718719 0 0.140729 -0.08125
0 0.135114 -0.0902802 0 0.12892 -0.0989237 0 0.122174 -0.107144 0
0.114905 -0.114905 0 0.175 0 0 0.174625 -0.0114455 0 0.173503
-0.0228421 0 0.171637 -0.0341408 0 0.169037 -0.0452933 0 0.165713 -0.0562519
0 0.161679 -0.0669696 0 0.156953 -0.0774005 0 0.151554 -0.0875 0
0.145507 -0.0972248 0 0.138837 -0.106533 0 0.131572 -0.115386 0 0.123744
-0.123744 0 0.1875 0 0 0.187099 -0.0122631 0 0.185896 -0.0244737
0 0.183897 -0.0365794 0 0.181111 -0.0485286 0 0.177549 -0.0602699 0
0.173227 -0.0717531 0 0.168164 -0.0829291 0 0.16238 -0.09375 0 0.155901
-0.104169 0 0.148754 -0.114143 0 0.14097 -0.123627 0 0.132583 -0.132583
0 0.2 0 0 0.199572 -0.0130806 0 0.198289 -0.0261052 0
0.196157 -0.0390181 0 0.193185 -0.0517638 0 0.189386 -0.0642879 0 0.184776
-0.0765367 0 0.179375 -0.0884577 0 0.173205 -0.1 0 0.166294 -0.111114
0 0.158671 -0.121752 0 0.150368 -0.131869 0 0.141421 -0.141421 0
0.2125 0 0 0.212045 -0.0138982 0 0.210682 -0.0277368 0 0.208417
-0.0414567 0 0.205259 -0.054999 0 0.201223 -0.0683059 0 0.196324 -0.0813202
0 0.190585 -0.0939863 0 0.18403 -0.10625 0 0.176687 -0.118059 0
0.168588 -0.129362 0 0.159766 -0.140111 0 0.15026 -0.15026 0 0.225
0 0 0.224518 -0.0147157 0 0.223075 -0.0293684 0 0.220677 -0.0438953
0 0.217333 -0.0582343 0 0.213059 -0.0723239 0 0.207873 -0.0861038 0
0.201796 -0.099515 0 0.194856 -0.1125 0 0.187081 -0.125003 0 0.178504
-0.136971 0 0.169164 -0.148353 0 0.159099 -0.159099 0 0.2375 0
0 0.236991 -0.0155332 0 0.235468 -0.031 0 0.232937 -0.046334 0
0.229407 -0.0614695 0 0.224896 -0.0763419 0 0.219421 -0.0908873 0 0.213007
-0.105044 0 0.205681 -0.11875 0 0.197474 -0.131948 0 0.188421 -0.144581
0 0.178562 -0.156595 0 0.167938 -0.167938 0 0.25 0 0
0.249465 -0.0163508 0 0.247861 -0.0326315 0 0.245196 -0.0487726 0 0.241481
-0.0647048 0 0.236733 -0.0803599 0 0.23097 -0.0956709 0 0.224218 -0.110572
0 0.216506 -0.125 0 0.207867 -0.138893 0 0.198338 -0.15219 0
0.18796 -0.164836 0 0.176777 -0.176777 0 0.1 0 0.05 0.0997859
-0.00654031 0.05 0.0991445 -0.0130526 0.05 0.0980785 -0.019509 0.05 0.0965926 -0.0258819
0.05 0.094693 -0.0321439 0.05 0.092388 -0.0382683 0.05 0.0896873 -0.0442289 0.05
0.0866025 -0.05 0.05 0.083147 -0.055557 0.05 0.0793353 -0.0608761 0.05 0.075184
-0.0659346 0.05 0.0707107 -0.0707107 0.05 0.1125 0 0.05 0.112259 -0.00735785
0.05 0.111538 -0.0146842 0.05 0.110338 -0.0219477 0.05 0.108667 -0.0291171 0.05
0.10653 -0.0361619 0.05 0.103936 -0.0430519 0.05 0.100898 -0.0497575 0.05 0.0974279
-0.05625 0.05 0.0935403 -0.0625017 0.05 0.0892522 -0.0684857 0.05 0.084582 -0.0741764
0.05 0.0795495 -0.0795495 0.05 0.125 0 0.05 0.124732 -0.00817539 0.05
0.123931 -0.0163158 0.05 0.122598 -0.0243863 0.05 0.120741 -0.0323524 0.05 0.118366
-0.0401799 0.05 0.115485 -0.0478354 0.05 0.112109 -0.0552861 0.05 0.108253 -0.0625
0.05 0.103934 -0.0694463 0.05 0.0991692 -0.0760952 0.05 0.09398 -0.0824182 0.05
0.0883883 -0.0883883 0.05 0.1375 0 0.05 0.137206 -0.00899293 0.05 0.136324
-0.0179474 0.05 0.134858 -0.0268249 0.05 0.132815 -0.0355876 0.05 0.130203 -0.0441979
0.05 0.127033 -0.052619 0.05 0.12332 -0.0608147 0.05 0.119078 -0.06875 0.05
0.114327 -0.0763909 0.05 0.109086 -0.0837047 0.05 0.103378 -0.0906601 0.05 0.0972272
-0.0972272 0.05 0.15 0 0.05 0.149679 -0.00981047 0.05 0.148717 -0.0195789
0.05 0.147118 -0.0292635 0.05 0.144889 -0.0388229 0.05 0.14204 -0.0482159 0.05
0.138582 -0.0574025 0.05 0.134531 -0.0663433 0.05 0.129904 -0.075 0.05 0.12472
-0.0833355 0.05 0.119003 -0.0913142 0.05 0.112776 -0.0989019 0.05 0.106066 -0.106066
0.05 0.1625 0 0.05 0.162152 -0.010628 0.05 0.16111 -0.0212105 0.05
0.159378 -0.0317022 0.05 0.156963 -0.0420581 0.05 0.153876 -0.0522339 0.05 0.15013
-0.0621861 0.05 0.145742 -0.0718719 0.05 0.140729 -0.08125 0.05 0.135114 -0.0902802
0.05 0.12892 -0.0989237 0.05 0.122174 -0.107144 0.05 0.114905 -0.114905 0.05
0.175 0 0.05 0.174625 -0.0114455 0.05 0.173503 -0.0228421 0.05 0.171637
-0.0341408 0.05 0.169037 -0.0452933 0.05 0.165713 -0.0562519 0.05 0.161679 -0.0669696
0.05 0.156953 -0.0774005 0.05 0.151554 -0.0875 0.05 0.145507 -0.0972248 0.05
0.138837 -0.106533 0.05 0.131572 -0.115386 0.05 0.123744 -0.123744 0.05 0.1875
0 0.05 0.187099 -0.0122631 0.05 0.185896 -0.0244737 0.05 0.183897 -0.0365794
0.05 0.181111 -0.0485286 0.05 0.177549 -0.0602699 0.05 0.173227 -0.0717531 0.05
0.168164 -0.0829291 0.05 0.16238 -0.09375 0.05 0.155901 -0.104169 0.05 0.148754
-0.114143 0.05 0.14097 -0.123627 0.05 0.132583 -0.132583 0.05 0.2 0
0.05 0.199572 -0.0130806 0.05 0.198289 -0.0261052 0.05 0.196157 -0.0390181 0.05
0.193185 -0.0517638 0.05 0.189386 -0.0642879 0.05 0.184776 -0.0765367 0.05 0.179375
-0.0884577 0.05 0.173205 -0.1 0.05 0.166294 -0.111114 0.05 0.158671 -0.121752
0.05 0.150368 -0.131869 0.05 0.141421 -0.141421 0.05 0.2125 0 0.05
0.212045 -0.0138982 0.05 0.210682 -0.0277368 0.05 0.208417 -0.0414567 0.05 0.205259
-0.054999 0.05 0.201223 -0.0683059 0.05 0.196324 -0.0813202 0.05 0.190585 -0.0939863
0.05 0.18403 -0.10625 0.05 0.176687 -0.118059 0.05 0.168588 -0.129362 0.05
0.159766 -0.140111 0.05 0.15026 -0.15026 0.05 0.225 0 0.05 0.224518
-0.0147157 0.05 0.223075 -0.0293684 0.05 0.220677 -0.0438953 0.05 0.217333 -0.0582343
0.05 0.213059 -0.0723239 0.05 0.207873 -0.0861038 0.05 0.201796 -0.099515 0.05
0.194856 -0.1125 0.05 0.187081 -0.125003 0.05 0.178504 -0.136971 0.05 0.169164
-0.148353 0.05 0.159099 -0.159099 0.05 0.2375 0 0.05 0.236991 -0.0155332
0.05 0.235468 -0.031 0.05 0.232937 -0.046334 0.05 0.229407 -0.0614695 0.05
0.224896 -0.0763419 0.05 0.219421 -0.0908873 0.05 0.213007 -0.105044 0.05 0.205681
-0.11875 0.05 0.197474 -0.131948 0.05 0.188421 -0.144581 0.05 0.178562 -0.156595
0.05 0.167938 -0.167938 0.05 0.25 0 0.05 0.249465 -0.0163508 0.05
0.247861 -0.0326315 0.05 0.245196 -0.0487726 0.05 0.241481 -0.0647048 0.05 0.236733
-0.0803599 0.05 0.23097 -0.0956709 0.05 0.224218 -0.110572 0.05 0.216506 -0.125
0.05 0.207867 -0.138893 0.05 0.198338 -0.15219 0.05 0.18796 -0.164836 0.05
0.176777 -0.176777 0.05 0.0659346 -0.075184 0 0.0608761 -0.0793353 0 0.055557
-0.083147 0 0.05 -0.0866025 0 0.0442289 -0.0896873 0 0.0382683 -0.092388
0 0.0321439 -0.094693 0 0.0258819 -0.0965926 0 0.019509 -0.0980785 0
0.0130526 -0.0991445 0 0.00654031 -0.0997859 0 1.7949e-10 -0.1 0 0.0741764
-0.084582 0 0.0684857 -0.0892522 0 0.0625017 -0.0935403 0 0.05625 -0.0974279
0 0.0497575 -0.100898 0 0.0430519 -0.103936 0 0.0361619 -0.10653 0
0.0291171 -0.108667 0 0.0219477 -0.110338 0 0.0146842 -0.111538 0 0.00735785
-0.112259 0 2.01926e-10 -0.1125 0 0.0824182 -0.09398 0 0.0760952 -0.0991692
0 0.0694463 -0.103934 0 0.0625 -0.108253 0 0.0552861 -0.112109 0
0.0478354 -0.115485 0 0.0401799 -0.118366 0 0.0323524 -0.120741 0 0.0243863
-0.122598 0 0.0163158 -0.123931 0 0.00817539 -0.124732 0 2.24362e-10 -0.125
0 0.0906601 -0.103378 0 0.0837047 -0.109086 0 0.0763909 -0.114327 0
0.06875 -0.119078 0 0.0608147 -0.12332 0 0.052619 -0.127033 0 0.0441979
-0.130203 0 0.0355876 -0.132815 0 0.0268249 -0.134858 0 0.0179474 -0.136324
0 0.00899293 -0.137206 0 2.46798e-10 -0.1375 0 0.0989019 -0.112776 0
0.0913142 -0.119003 0 0.0833355 -0.12472 0 0.075 -0.129904 0 0.0663433
-0.134531 0 0.0574025 -0.138582 0 0.0482159 -0.14204 0 0.0388229 -0.144889
0 0.0292635 -0.147118 0 0.0195789 -0.148717 0 0.00981047 -0.149679 0
2.69234e-10 -0.15 0 0.107144 -0.122174 0 0.0989237 -0.12892 0 0.0902802
-0.135114 0 0.08125 -0.140729 0 0.0718719 -0.145742 0 0.0621861 -0.15013
0 0.0522339 -0.153876 0 0.0420581 -0.156963 0 0.0317022 -0.159378 0
0.0212105 -0.16111 0 0.010628 -0.162152 0 2.91671e-10 -0.1625 0 0.115386
-0.131572 0 0.106533 -0.138837 0 0.0972248 -0.145507 0 0.0875 -0.151554
0 0.0774005 -0.156953 0 0.0669696 -0.161679 0 0.0562519 -0.165713 0
0.0452933 -0.169037 0 0.0341408 -0.171637 0 0.0228421 -0.173503 0 0.0114455
-0.174625 0 3.14107e-10 -0.175 0 0.123627 -0.14097 0 0.114143 -0.148754
0 0.104169 -0.155901 0 0.09375 -0.16238 0 0.0829291 -0.168164 0
0.0717531 -0.173227 0 0.0602699 -0.177549 0 0.0485286 -0.181111 0 0.0365794
-0.183897 0 0.0244737 -0.185896 0 0.0122631 -0.187099 0 3.36543e-10 -0.1875
0 0.131869 -0.150368 0 0.121752 -0.158671 0 0.111114 -0.166294 0
0.1 -0.173205 0 0.0884577 -0.179375 0 0.0765367 -0.184776 0 0.0642879
-0.189386 0 0.0517638 -0.193185 0 0.0390181 -0.196157 0 0.0261052 -0.198289
0 0.0130806 -0.199572 0 3.58979e-10 -0.2 0 0.140111 -0.159766 0
0.129362 -0.168588 0 0.118059 -0.176687 0 0.10625 -0.18403 0 0.0939863
[...]
CELL_DATA 3072
FIELD attributes 5
cellID 1 3072 int
0 1 2 3 4 5 6 7 8 9 10
11 12 13 14 15 16 17 18 19 20
21 22 23 24 25 26 27 28 29 30
31 32 33 34 35 36 37 38 39 40
41 42 43 44 45 46 47 48 49 50
51 52 53 54 55 56 57 58 59 60
61 62 63 64 65 66 67 68 69 70
71 72 73 74 75 76 77 78 79 80
81 82 83 84 85 86 87 88 89 90
91 92 93 94 95 96 97 98 99 100
101 102 103 104 105 106 107 108 109 110
111 112 113 114 115 116 117 118 119 120
121 122 123 124 125 126 127 128 129 130
131 132 133 134 135 136 137 138 139 140
141 142 143 144 145 146 147 148 149 150
151 152 153 154 155 156 157 158 159 160
161 162 163 164 165 166 167 168 169 170
171 172 173 174 175 176 177 178 179 180
181 182 183 184 185 186 187 188 189 190
191 192 193 194 195 196 197 198 199 200
201 202 203 204 205 206 207 208 209 210
211 212 213 214 215 216 217 218 219 220
221 222 223 224 225 226 227 228 229 230
231 232 233 234 235 236 237 238 239 240
241 242 243 244 245 246 247 248 249 250
251 252 253 254 255 256 257 258 259 260
261 262 263 264 265 266 267 268 269 270
271 272 273 274 275 276 277 278 279 280
281 282 283 284 285 286 287 288 289 290
291 292 293 294 295 296 297 298 299 300
301 302 303 304 305 306 307 308 309 310
311 312 313 314 315 316 317 318 319 320
321 322 323 324 325 326 327 328 329 330
331 332 333 334 335 336 337 338 339 340
341 342 343 344 345 346 347 348 349 350
351 352 353 354 355 356 357 358 359 360
361 362 363 364 365 366 367 368 369 370
371 372 373 374 375 376 377 378 379 380
381 382 383 384 385 386 387 388 389 390
391 392 393 394 395 396 397 398 399 400
401 402 403 404 405 406 407 408 409 410
411 412 413 414 415 416 417 418 419 420
421 422 423 424 425 426 427 428 429 430
431 432 433 434 435 436 437 438 439 440
441 442 443 444 445 446 447 448 449 450
451 452 453 454 455 456 457 458 459 460
461 462 463 464 465 466 467 468 469 470
471 472 473 474 475 476 477 478 479 480
481 482 483 484 485 486 487 488 489 490
491 492 493 494 495 496 497 498 499 500
501 502 503 504 505 506 507 508 509 510
511 512 513 514 515 516 517 518 519 520
521 522 523 524 525 526 527 528 529 530
531 532 533 534 535 536 537 538 539 540
541 542 543 544 545 546 547 548 549 550
551 552 553 554 555 556 557 558 559 560
561 562 563 564 565 566 567 568 569 570
571 572 573 574 575 576 577 578 579 580
581 582 583 584 585 586 587 588 589 590
591 592 593 594 595 596 597 598 599 600
601 602 603 604 605 606 607 608 609 610
611 612 613 614 615 616 617 618 619 620
621 622 623 624 625 626 627 628 629 630
631 632 633 634 635 636 637 638 639 640
641 642 643 644 645 646 647 648 649 650
651 652 653 654 655 656 657 658 659 660
661 662 663 664 665 666 667 668 669 670
671 672 673 674 675 676 677 678 679 680
681 682 683 684 685 686 687 688 689 690
691 692 693 694 695 696 697 698 699 700
701 702 703 704 705 706 707 708 709 710
711 712 713 714 715 716 717 718 719 720
721 722 723 724 725 726 727 728 729 730
731 732 733 734 735 736 737 738 739 740
741 742 743 744 745 746 747 748 749 750
751 752 753 754 755 756 757 758 759 760
761 762 763 764 765 766 767 768 769 770
771 772 773 774 775 776 777 778 779 780
781 782 783 784 785 786 787 788 789 790
791 792 793 794 795 796 797 798 799 800
801 802 803 804 805 806 807 808 809 810
811 812 813 814 815 816 817 818 819 820
821 822 823 824 825 826 827 828 829 830
831 832 833 834 835 836 837 838 839 840
841 842 843 844 845 846 847 848 849 850
851 852 853 854 855 856 857 858 859 860
861 862 863 864 865 866 867 868 869 870
871 872 873 874 875 876 877 878 879 880
881 882 883 884 885 886 887 888 889 890
891 892 893 894 895 896 897 898 899 900
901 902 903 904 905 906 907 908 909 910
911 912 913 914 915 916 917 918 919 920
921 922 923 924 925 926 927 928 929 930
931 932 933 934 935 936 937 938 939 940
941 942 943 944 945 946 947 948 949 950
951 952 953 954 955 956 957 958 959 960
961 962 963 964 965 966 967 968 969 970
971 972 973 974 975 976 977 978 979 980
981 982 983 984 985 986 987 988 989 990
991 992 993 994 995 996 997 998 999 1000
1001 1002 1003 1004 1005 1006 1007 1008 1009 1010
1011 1012 1013 1014 1015 1016 1017 1018 1019 1020
1021 1022 1023 1024 1025 1026 1027 1028 1029 1030
1031 1032 1033 1034 1035 1036 1037 1038 1039 1040
1041 1042 1043 1044 1045 1046 1047 1048 1049 1050
1051 1052 1053 1054 1055 1056 1057 1058 1059 1060
1061 1062 1063 1064 1065 1066 1067 1068 1069 1070
1071 1072 1073 1074 1075 1076 1077 1078 1079 1080
1081 1082 1083 1084 1085 1086 1087 1088 1089 1090
1091 1092 1093 1094 1095 1096 1097 1098 1099 1100
1101 1102 1103 1104 1105 1106 1107 1108 1109 1110
1111 1112 1113 1114 1115 1116 1117 1118 1119 1120
1121 1122 1123 1124 1125 1126 1127 1128 1129 1130
1131 1132 1133 1134 1135 1136 1137 1138 1139 1140
1141 1142 1143 1144 1145 1146 1147 1148 1149 1150
1151 1152 1153 1154 1155 1156 1157 1158 1159 1160
1161 1162 1163 1164 1165 1166 1167 1168 1169 1170
1171 1172 1173 1174 1175 1176 1177 1178 1179 1180
1181 1182 1183 1184 1185 1186 1187 1188 1189 1190
1191 1192 1193 1194 1195 1196 1197 1198 1199 1200
1201 1202 1203 1204 1205 1206 1207 1208 1209 1210
1211 1212 1213 1214 1215 1216 1217 1218 1219 1220
1221 1222 1223 1224 1225 1226 1227 1228 1229 1230
1231 1232 1233 1234 1235 1236 1237 1238 1239 1240
1241 1242 1243 1244 1245 1246 1247 1248 1249 1250
1251 1252 1253 1254 1255 1256 1257 1258 1259 1260
1261 1262 1263 1264 1265 1266 1267 1268 1269 1270
1271 1272 1273 1274 1275 1276 1277 1278 1279 1280
1281 1282 1283 1284 1285 1286 1287 1288 1289 1290
1291 1292 1293 1294 1295 1296 1297 1298 1299 1300
1301 1302 1303 1304 1305 1306 1307 1308 1309 1310
1311 1312 1313 1314 1315 1316 1317 1318 1319 1320
1321 1322 1323 1324 1325 1326 1327 1328 1329 1330
1331 1332 1333 1334 1335 1336 1337 1338 1339 1340
1341 1342 1343 1344 1345 1346 1347 1348 1349 1350
1351 1352 1353 1354 1355 1356 1357 1358 1359 1360
1361 1362 1363 1364 1365 1366 1367 1368 1369 1370
1371 1372 1373 1374 1375 1376 1377 1378 1379 1380
1381 1382 1383 1384 1385 1386 1387 1388 1389 1390
1391 1392 1393 1394 1395 1396 1397 1398 1399 1400
1401 1402 1403 1404 1405 1406 1407 1408 1409 1410
1411 1412 1413 1414 1415 1416 1417 1418 1419 1420
1421 1422 1423 1424 1425 1426 1427 1428 1429 1430
1431 1432 1433 1434 1435 1436 1437 1438 1439 1440
1441 1442 1443 1444 1445 1446 1447 1448 1449 1450
1451 1452 1453 1454 1455 1456 1457 1458 1459 1460
1461 1462 1463 1464 1465 1466 1467 1468 1469 1470
1471 1472 1473 1474 1475 1476 1477 1478 1479 1480
1481 1482 1483 1484 1485 1486 1487 1488 1489 1490
1491 1492 1493 1494 1495 1496 1497 1498 1499 1500
1501 1502 1503 1504 1505 1506 1507 1508 1509 1510
1511 1512 1513 1514 1515 1516 1517 1518 1519 1520
1521 1522 1523 1524 1525 1526 1527 1528 1529 1530
1531 1532 1533 1534 1535 1536 1537 1538 1539 1540
1541 1542 1543 1544 1545 1546 1547 1548 1549 1550
1551 1552 1553 1554 1555 1556 1557 1558 1559 1560
1561 1562 1563 1564 1565 1566 1567 1568 1569 1570
1571 1572 1573 1574 1575 1576 1577 1578 1579 1580
1581 1582 1583 1584 1585 1586 1587 1588 1589 1590
1591 1592 1593 1594 1595 1596 1597 1598 1599 1600
1601 1602 1603 1604 1605 1606 1607 1608 1609 1610
1611 1612 1613 1614 1615 1616 1617 1618 1619 1620
1621 1622 1623 1624 1625 1626 1627 1628 1629 1630
1631 1632 1633 1634 1635 1636 1637 1638 1639 1640
1641 1642 1643 1644 1645 1646 1647 1648 1649 1650
1651 1652 1653 1654 1655 1656 1657 1658 1659 1660
1661 1662 1663 1664 1665 1666 1667 1668 1669 1670
1671 1672 1673 1674 1675 1676 1677 1678 1679 1680
1681 1682 1683 1684 1685 1686 1687 1688 1689 1690
1691 1692 1693 1694 1695 1696 1697 1698 1699 1700
1701 1702 1703 1704 1705 1706 1707 1708 1709 1710
1711 1712 1713 1714 1715 1716 1717 1718 1719 1720
1721 1722 1723 1724 1725 1726 1727 1728 1729 1730
1731 1732 1733 1734 1735 1736 1737 1738 1739 1740
1741 1742 1743 1744 1745 1746 1747 1748 1749 1750
1751 1752 1753 1754 1755 1756 1757 1758 1759 1760
1761 1762 1763 1764 1765 1766 1767 1768 1769 1770
1771 1772 1773 1774 1775 1776 1777 1778 1779 1780
1781 1782 1783 1784 1785 1786 1787 1788 1789 1790
1791 1792 1793 1794 1795 1796 1797 1798 1799 1800
1801 1802 1803 1804 1805 1806 1807 1808 1809 1810
1811 1812 1813 1814 1815 1816 1817 1818 1819 1820
1821 1822 1823 1824 1825 1826 1827 1828 1829 1830
1831 1832 1833 1834 1835 1836 1837 1838 1839 1840
1841 1842 1843 1844 1845 1846 1847 1848 1849 1850
1851 1852 1853 1854 1855 1856 1857 1858 1859 1860
1861 1862 1863 1864 1865 1866 1867 1868 1869 1870
1871 1872 1873 1874 1875 1876 1877 1878 1879 1880
1881 1882 1883 1884 1885 1886 1887 1888 1889 1890
1891 1892 1893 1894 1895 1896 1897 1898 1899 1900
1901 1902 1903 1904 1905 1906 1907 1908 1909 1910
1911 1912 1913 1914 1915 1916 1917 1918 1919 1920
1921 1922 1923 1924 1925 1926 1927 1928 1929 1930
1931 1932 1933 1934 1935 1936 1937 1938 1939 1940
1941 1942 1943 1944 1945 1946 1947 1948 1949 1950
1951 1952 1953 1954 1955 1956 1957 1958 1959 1960
1961 1962 1963 1964 1965 1966 1967 1968 1969 1970
1971 1972 1973 1974 1975 1976 1977 1978 1979 1980
1981 1982 1983 1984 1985 1986 1987 1988 1989 1990
1991 1992 1993 1994 1995 1996 1997 1998 1999 2000
2001 2002 2003 2004 2005 2006 2007 2008 2009 2010
2011 2012 2013 2014 2015 2016 2017 2018 2019 2020
2021 2022 2023 2024 2025 2026 2027 2028 2029 2030
2031 2032 2033 2034 2035 2036 2037 2038 2039 2040
2041 2042 2043 2044 2045 2046 2047 2048 2049 2050
2051 2052 2053 2054 2055 2056 2057 2058 2059 2060
2061 2062 2063 2064 2065 2066 2067 2068 2069 2070
2071 2072 2073 2074 2075 2076 2077 2078 2079 2080
2081 2082 2083 2084 2085 2086 2087 2088 2089 2090
2091 2092 2093 2094 2095 2096 2097 2098 2099 2100
2101 2102 2103 2104 2105 2106 2107 2108 2109 2110
2111 2112 2113 2114 2115 2116 2117 2118 2119 2120
2121 2122 2123 2124 2125 2126 2127 2128 2129 2130
2131 2132 2133 2134 2135 2136 2137 2138 2139 2140
2141 2142 2143 2144 2145 2146 2147 2148 2149 2150
2151 2152 2153 2154 2155 2156 2157 2158 2159 2160
2161 2162 2163 2164 2165 2166 2167 2168 2169 2170
2171 2172 2173 2174 2175 2176 2177 2178 2179 2180
2181 2182 2183 2184 2185 2186 2187 2188 2189 2190
2191 2192 2193 2194 2195 2196 2197 2198 2199 2200
2201 2202 2203 2204 2205 2206 2207 2208 2209 2210
2211 2212 2213 2214 2215 2216 2217 2218 2219 2220
2221 2222 2223 2224 2225 2226 2227 2228 2229 2230
2231 2232 2233 2234 2235 2236 2237 2238 2239 2240
2241 2242 2243 2244 2245 2246 2247 2248 2249 2250
2251 2252 2253 2254 2255 2256 2257 2258 2259 2260
2261 2262 2263 2264 2265 2266 2267 2268 2269 2270
2271 2272 2273 2274 2275 2276 2277 2278 2279 2280
2281 2282 2283 2284 2285 2286 2287 2288 2289 2290
2291 2292 2293 2294 2295 2296 2297 2298 2299 2300
2301 2302 2303 2304 2305 2306 2307 2308 2309 2310
2311 2312 2313 2314 2315 2316 2317 2318 2319 2320
2321 2322 2323 2324 2325 2326 2327 2328 2329 2330
2331 2332 2333 2334 2335 2336 2337 2338 2339 2340
2341 2342 2343 2344 2345 2346 2347 2348 2349 2350
2351 2352 2353 2354 2355 2356 2357 2358 2359 2360
2361 2362 2363 2364 2365 2366 2367 2368 2369 2370
2371 2372 2373 2374 2375 2376 2377 2378 2379 2380
2381 2382 2383 2384 2385 2386 2387 2388 2389 2390
2391 2392 2393 2394 2395 2396 2397 2398 2399 2400
2401 2402 2403 2404 2405 2406 2407 2408 2409 2410
2411 2412 2413 2414 2415 2416 2417 2418 2419 2420
2421 2422 2423 2424 2425 2426 2427 2428 2429 2430
2431 2432 2433 2434 2435 2436 2437 2438 2439 2440
2441 2442 2443 2444 2445 2446 2447 2448 2449 2450
2451 2452 2453 2454 2455 2456 2457 2458 2459 2460
2461 2462 2463 2464 2465 2466 2467 2468 2469 2470
2471 2472 2473 2474 2475 2476 2477 2478 2479 2480
2481 2482 2483 2484 2485 2486 2487 2488 2489 2490
2491 2492 2493 2494 2495 2496 2497 2498 2499 2500
2501 2502 2503 2504 2505 2506 2507 2508 2509 2510
2511 2512 2513 2514 2515 2516 2517 2518 2519 2520
2521 2522 2523 2524 2525 2526 2527 2528 2529 2530
2531 2532 2533 2534 2535 2536 2537 2538 2539 2540
2541 2542 2543 2544 2545 2546 2547 2548 2549 2550
2551 2552 2553 2554 2555 2556 2557 2558 2559 2560
2561 2562 2563 2564 2565 2566 2567 2568 2569 2570
2571 2572 2573 2574 2575 2576 2577 2578 2579 2580
2581 2582 2583 2584 2585 2586 2587 2588 2589 2590
2591 2592 2593 2594 2595 2596 2597 2598 2599 2600
2601 2602 2603 2604 2605 2606 2607 2608 2609 2610
2611 2612 2613 2614 2615 2616 2617 2618 2619 2620
2621 2622 2623 2624 2625 2626 2627 2628 2629 2630
2631 2632 2633 2634 2635 2636 2637 2638 2639 2640
2641 2642 2643 2644 2645 2646 2647 2648 2649 2650
2651 2652 2653 2654 2655 2656 2657 2658 2659 2660
2661 2662 2663 2664 2665 2666 2667 2668 2669 2670
2671 2672 2673 2674 2675 2676 2677 2678 2679 2680
2681 2682 2683 2684 2685 2686 2687 2688 2689 2690
2691 2692 2693 2694 2695 2696 2697 2698 2699 2700
2701 2702 2703 2704 2705 2706 2707 2708 2709 2710
2711 2712 2713 2714 2715 2716 2717 2718 2719 2720
2721 2722 2723 2724 2725 2726 2727 2728 2729 2730
2731 2732 2733 2734 2735 2736 2737 2738 2739 2740
2741 2742 2743 2744 2745 2746 2747 2748 2749 2750
2751 2752 2753 2754 2755 2756 2757 2758 2759 2760
2761 2762 2763 2764 2765 2766 2767 2768 2769 2770
2771 2772 2773 2774 2775 2776 2777 2778 2779 2780
2781 2782 2783 2784 2785 2786 2787 2788 2789 2790
2791 2792 2793 2794 2795 2796 2797 2798 2799 2800
2801 2802 2803 2804 2805 2806 2807 2808 2809 2810
2811 2812 2813 2814 2815 2816 2817 2818 2819 2820
2821 2822 2823 2824 2825 2826 2827 2828 2829 2830
2831 2832 2833 2834 2835 2836 2837 2838 2839 2840
2841 2842 2843 2844 2845 2846 2847 2848 2849 2850
2851 2852 2853 2854 2855 2856 2857 2858 2859 2860
2861 2862 2863 2864 2865 2866 2867 2868 2869 2870
2871 2872 2873 2874 2875 2876 2877 2878 2879 2880
2881 2882 2883 2884 2885 2886 2887 2888 2889 2890
2891 2892 2893 2894 2895 2896 2897 2898 2899 2900
2901 2902 2903 2904 2905 2906 2907 2908 2909 2910
2911 2912 2913 2914 2915 2916 2917 2918 2919 2920
2921 2922 2923 2924 2925 2926 2927 2928 2929 2930
2931 2932 2933 2934 2935 2936 2937 2938 2939 2940
2941 2942 2943 2944 2945 2946 2947 2948 2949 2950
2951 2952 2953 2954 2955 2956 2957 2958 2959 2960
2961 2962 2963 2964 2965 2966 2967 2968 2969 2970
2971 2972 2973 2974 2975 2976 2977 2978 2979 2980
2981 2982 2983 2984 2985 2986 2987 2988 2989 2990
2991 2992 2993 2994 2995 2996 2997 2998 2999 3000
3001 3002 3003 3004 3005 3006 3007 3008 3009 3010
3011 3012 3013 3014 3015 3016 3017 3018 3019 3020
3021 3022 3023 3024 3025 3026 3027 3028 3029 3030
3031 3032 3033 3034 3035 3036 3037 3038 3039 3040
3041 3042 3043 3044 3045 3046 3047 3048 3049 3050
3051 3052 3053 3054 3055 3056 3057 3058 3059 3060
3061 3062 3063 3064 3065 3066 3067 3068 3069 3070
3071 
p 1 3072 float
0 -245.306 -200.448 -251.147 -110.255 242.321 434.991 455.491 81.8014 -25.4245 -153.127
-145.731 -261.974 -558.081 -420.635 -269.057 -234.258 -581.24 329.327 420.808 319.738
358.848 266.355 456.019 -244.883 -438.578 -477.991 -294.524 9.82913 -286.94 123.649
235.088 304.539 372.991 278.215 375.2 -78.9555 -88.0929 -9.81564 -71.421 94.0658
-78.602 56.4625 232.505 399.993 631.19 758.606 865.038 404.069 184.263 123.268
187.85 220.175 148.234 55.0589 130.704 212.042 340.851 467.678 728.481 581.7
629.796 720.458 504.287 316.044 247.077 167.562 285.907 353.568 471.949 487.547
454.673 454.59 528.351 216.573 20.5685 -19.1013 87.3295 353.131 469.379 508.623
701.785 737.334 596.238 409.483 477.71 296.474 80.6931 -79.797 -36.4396 111.873
295.657 386.827 578.347 748.029 695.235 350.661 428.243 273.538 83.9816 -149.235
-376.84 -640.728 -125.678 221.528 845.595 849.372 747.209 376.754 433.014 226.78
45.286 -159.896 -255.369 -361.829 -260.016 -254.777 139.149 510.947 642.384 468.448
498.057 220.762 35.3026 -194.912 -245.894 -555.249 -500.781 -446.78 -200.533 231.403
476.79 626.382 559.582 234.135 52.7657 -204.539 -281.218 -591.376 -400.001 -469.734
-329.449 84.2255 306.746 -23.4661 135.314 427.166 519.44 871.282 910.607 1262.12
1294.74 1509.92 1491.48 1505.42 1479.78 474.549 697.064 931.296 1116.97 1345.58
1152.14 1129.22 1213.22 1344.51 1444.25 1463.36 1462.54 407.322 582.376 881.639
1149.71 1534.86 1562.8 1485.75 1464.02 1419.25 1505.61 1471.49 1464.86 783.414
810.028 966.704 935.739 1030.2 1275.94 1403.77 1527.21 1467.68 1530.38 1506.55
1488.32 970.249 1297.21 1282.92 1061.95 1173.07 1329 1422.98 1546.27 1534.74
1575.39 1552.94 1527.71 396.546 543.228 1027.16 1075.59 1190.07 1347.96 1438.54
1559.9 1546.8 1581.82 1595.67 1611.37 526.387 698.887 1042.33 1107.61 1170.84
1333.25 1410.69 1520.17 1558.7 1626.27 1646.99 1666.84 598.36 727.483 1021.33
1089.92 1117.25 1260.02 1352.41 1449.73 1511.32 1566.08 1614.18 1681.99 642.814
709.686 955.472 1009.31 1037.85 1162.66 1243.17 1329.27 1409.55 1538.25 1579.62
1658.35 592.014 655.729 850.184 899.426 948.003 1030.9 1131.9 1199.07 1299.73
1407.65 1519.8 1580.63 472.345 536.968 723.682 756.247 815.248 915.478 961.748
1018.67 1149.72 1212.08 1381.13 1431.97 378.477 405.755 551.49 533.652 586.823
642.41 687.696 783.915 870.93 953.93 1124.33 1140.96 -263.604 -480.545 -547.741
-401.677 -259.409 36.9583 125.336 -100.103 -418.748 -640.171 -857.5 -735.442 -584.012
-849.807 -762.272 -467.455 -991.989 -248.834 221.149 -25.8907 34.7251 -229.626 -18.4821
46.5188 -10.7053 -441.831 -467.725 -95.1868 -328.126 -367.196 -93.7008 -193.306 -44.8272
-179.793 -184.294 -177.157 514.316 615.808 569.014 242.11 16.1305 -56.1918 112.05
124.714 256.664 186.148 188.728 173.579 619.031 201.166 180.387 214.673 87.498
13.5358 13.5086 163.349 353.572 519.378 634.267 863.688 585.161 476.108 485.246
759.396 647.324 363.761 100.723 190.181 301.578 469.444 381.697 422.692 259.913
336.892 208.69 -90.4804 -246.54 -31.7314 -63.9427 91.6163 248.626 665.518 762.983
871.936 -13.6129 179.364 119.872 253.258 232.25 110.515 -138.469 -65.0225 -124.148
73.1282 222.452 610.521 -188.633 69.8904 -97.4558 -205.556 -525.35 -484.616 -438.258
-192.293 -235.186 298.828 600.954 583.945 -190.664 10.7827 -164.768 -205.916 -425.855
-517.088 -703.601 -525.996 -429.223 -127.414 279.244 406.63 -84.5302 3.76786 -200.703
-262.724 -535.379 -673.353 -870.534 -618.039 -673.543 -396.552 15.8878 219.833 81.9447
42.0993 -224.997 -336.871 -650.802 -757.026 -849.745 -685.734 -746.064 -525.32 -152.024
69.3788 -616.089 -275.702 139.301 384.925 990.319 1093.62 1555.54 1601.31 1746.01
1709.34 1776.31 1761.79 440.269 616.652 1162.57 1197.22 1571.55 1268.34 1451.59
1591.01 1745.36 1790.05 1792.55 1782.32 81.2807 369.388 1086.2 1503.69 2178.87
2010.59 1871.26 1889.59 1839.43 1884.97 1835.26 1828.94 288.2 291.024 640.112
1046.35 1497.1 1762.91 1842.49 1934.3 1873.41 1925.22 1887.53 1856.2 919.951
759.593 911.432 1050.15 1347.25 1605.8 1678.84 1833.57 1827.58 1906.62 1902.97
1942.94 686.767 798.26 950.021 1069.63 1208.79 1420.12 1529.05 1641.98 1677.98
1724.11 1814.88 1880.56 849.386 872.802 961.396 1041.04 1157.33 1293.28 1352.49
1476.32 1500.94 1591.01 1618.5 1769.56 824.265 882.021 960.874 1016.76 1090.17
1173.22 1255.11 1348.13 1388.68 1456.06 1500.24 1661.44 771.572 826.766 914.255
971.448 1032.91 1097.55 1170.04 1239.8 1288.25 1327.4 1389.68 1567.78 669.051
730.702 829.431 885.544 961.103 975.797 1046.68 1116.71 1156.39 1232.72 1255.36
1402.53 520.013 560.255 642.332 695.341 782.34 802.431 915.395 961.013 1060.87
1079.44 1097.45 1170.02 340.772 349.66 403.179 406.233 515.765 553.834 651.917
741.328 838.925 883.951 902.369 854.347 -942.203 -1139.74 -1101.96 -1171.17 -1085.37
-968.767 -471.209 -222.333 -463.381 -436.266 -609.309 -468.654 -996 -1154.71 -945.442
-961.625 -1262.65 -1508.44 -664.001 -500.553 -262.943 -243.149 -102.98 126.62 -1022.87
-1229.09 -1030.59 -1103.73 -866.227 -1083.13 -755.742 -746.246 -458.019 -384.82 -81.0798
104.121 -1407.36 -1316.57 -948.26 -709.69 -593.724 -762.819 -578.574 -433.077 -123.031
112.926 440.662 693.855 -919.178 -1331.05 -1645.86 -1521.95 -1146.17 -896.567 -455.568
43.4 522.432 958.144 1470.61 1695.78 -830.971 -987.667 -1345.55 -1508.82 -1330.09
-880.979 -314.335 113.688 675.717 1148.43 1776.43 1947.93 -805.237 -838.717 -914.664
-1006.17 -1004.07 -565.118 -51.9227 304.694 643.114 920.387 1394.64 1375.8 -726.161
-666.237 -731.767 -704.372 -521.836 -447.485 -446.119 154.965 666.986 1325.27 1212.87
1160.07 -662.873 -532.383 -573.262 -481.921 -215.25 219.161 206.956 39.5914 179.035
373.509 642.238 922.442 -577.471 -410.693 -477.54 -437.694 -345.967 -509.362 -277.276