/*--------------------------------*- C++ -*----------------------------------*\
| =========                 |                                                 |
| \\      /  F ield         | OpenFOAM: The Open Source CFD Toolbox           |
|  \\    /   O peration     | Version:  v1606+                                |
|   \\  /    A nd           | Web:      www.OpenFOAM.com                      |
|    \\/     M anipulation  |                                                 |
\*---------------------------------------------------------------------------*/
FoamFile
{
    version     2.0;
    format      ascii;
    class       volScalarField;
    location    "0.0021";
    object      k;
}
// * * * * * * * * * * * * * * * * * * * * * * * * * * * * * * * * * * * * * //

dimensions      [0 2 -2 0 0 0 0];

internalField   nonuniform List<scalar> 
2450
(
1.01767
0.956002
0.970748
0.990752
0.993033
0.991973
0.989567
0.986257
0.983913
0.982347
0.981433
0.980887
0.980547
0.980325
0.980176
0.980075
0.980003
0.97995
0.979913
0.979884
0.979862
0.979845
0.979831
0.97982
0.979811
0.979803
0.979796
0.979789
0.979784
0.979778
0.979773
0.979768
0.979764
0.97976
0.979755
0.979751
0.979747
0.979744
0.97974
0.979736
0.979732
0.979727
0.979723
0.979719
0.979714
0.97971
0.979705
0.9797
0.979695
0.97969
0.979685
0.979681
0.979676
0.979671
0.979666
0.979662
0.979657
0.979653
0.97965
0.979646
0.979643
0.97964
0.979638
0.979636
0.979633
0.979631
0.979628
0.979625
0.97962
0.979617
0.955702
0.884799
0.952673
0.989022
0.99258
0.991811
0.98913
0.985815
0.983644
0.982207
0.981363
0.98085
0.980526
0.980313
0.980169
0.980069
0.979998
0.979947
0.979909
0.97988
0.979859
0.979842
0.979828
0.979818
0.979809
0.979801
0.979794
0.979789
0.979784
0.979779
0.979774
0.97977
0.979766
0.979762
0.979758
0.979755
0.979751
0.979747
0.979744
0.97974
0.979736
0.979732
0.979728
0.979723
0.979719
0.979714
0.97971
0.979705
0.9797
0.979695
0.97969
0.979685
0.97968
0.979676
0.979671
0.979666
0.979662
0.979658
0.979655
0.979651
0.979648
0.979645
0.979643
0.979641
0.979638
0.979636
0.979633
0.979629
0.979623
0.979618
0.97163
0.954879
0.989149
0.993205
0.993419
0.991432
0.987916
0.98515
0.983158
0.981956
0.981234
0.980781
0.980487
0.980289
0.980154
0.980059
0.979991
0.979941
0.979905
0.979877
0.979856
0.979839
0.979827
0.979817
0.979808
0.979801
0.979795
0.97979
0.979786
0.979781
0.979777
0.979774
0.97977
0.979767
0.979763
0.97976
0.979756
0.979753
0.979749
0.979745
0.979741
0.979737
0.979733
0.979729
0.979724
0.97972
0.979715
0.97971
0.979705
0.9797
0.979695
0.97969
0.979686
0.979681
0.979676
0.979672
0.979667
0.979663
0.97966
0.979656
0.979653
0.97965
0.979648
0.979645
0.979643
0.979641
0.979637
0.979632
0.979626
0.97962
0.991537
0.989074
0.993559
0.993235
0.992572
0.989544
0.986527
0.984129
0.9826
0.981661
0.981072
0.980688
0.980431
0.980256
0.980133
0.980046
0.979982
0.979936
0.979901
0.979875
0.979855
0.979839
0.979827
0.979818
0.97981
0.979803
0.979797
0.979792
0.979788
0.979784
0.97978
0.979777
0.979773
0.97977
0.979766
0.979763
0.97976
0.979756
0.979753
0.979749
0.979745
0.979741
0.979737
0.979733
0.979728
0.979724
0.979719
0.979714
0.979709
0.979704
0.979699
0.979694
0.979689
0.979685
0.97968
0.979675
0.979671
0.979667
0.979663
0.97966
0.979657
0.979654
0.979651
0.979649
0.979647
0.979644
0.97964
0.979635
0.979628
0.979621
0.994015
0.993437
0.993811
0.992739
0.990234
0.987169
0.984889
0.983173
0.982072
0.981366
0.980899
0.980584
0.980367
0.980216
0.980107
0.980029
0.979971
0.979929
0.979896
0.979872
0.979853
0.979839
0.979827
0.979818
0.97981
0.979804
0.979798
0.979794
0.979789
0.979785
0.979782
0.979778
0.979775
0.979772
0.979768
0.979765
0.979762
0.979758
0.979755
0.979751
0.979747
0.979744
0.979739
0.979735
0.979731
0.979726
0.979721
0.979717
0.979712
0.979707
0.979702
0.979697
0.979692
0.979687
0.979683
0.979678
0.979674
0.97967
0.979666
0.979662
0.979659
0.979656
0.979654
0.979652
0.979649
0.979647
0.979643
0.979637
0.979629
0.979623
0.992734
0.992409
0.991817
0.989757
0.98725
0.985216
0.983538
0.982387
0.981616
0.981094
0.980732
0.980479
0.9803
0.980172
0.980078
0.98001
0.979958
0.979919
0.97989
0.979867
0.97985
0.979836
0.979826
0.979817
0.97981
0.979804
0.979799
0.979794
0.97979
0.979786
0.979783
0.97978
0.979776
0.979773
0.97977
0.979767
0.979764
0.97976
0.979757
0.979753
0.979749
0.979745
0.979741
0.979737
0.979733
0.979728
0.979724
0.979719
0.979714
0.979709
0.979704
0.979699
0.979694
0.97969
0.979685
0.97968
0.979676
0.979672
0.979668
0.979665
0.979662
0.979659
0.979656
0.979654
0.979651
0.979649
0.979645
0.979639
0.979631
0.979625
0.990109
0.98958
0.988252
0.986742
0.985006
0.983584
0.982527
0.981774
0.981239
0.980857
0.98058
0.980381
0.980235
0.980128
0.980048
0.979988
0.979943
0.979909
0.979883
0.979862
0.979846
0.979834
0.979824
0.979816
0.979809
0.979804
0.979799
0.979794
0.979791
0.979787
0.979784
0.979781
0.979777
0.979774
0.979771
0.979768
0.979765
0.979762
0.979758
0.979755
0.979751
0.979747
0.979743
0.979739
0.979735
0.97973
0.979726
0.979721
0.979716
0.979712
0.979707
0.979702
0.979697
0.979692
0.979687
0.979683
0.979679
0.979675
0.979671
0.979667
0.979664
0.979661
0.979658
0.979656
0.979654
0.979651
0.979647
0.979641
0.979633
0.979627
0.986672
0.98618
0.985434
0.984329
0.983301
0.982457
0.981804
0.981307
0.980934
0.980657
0.980448
0.980292
0.980175
0.980086
0.980019
0.979967
0.979928
0.979898
0.979875
0.979856
0.979842
0.979831
0.979822
0.979814
0.979808
0.979803
0.979799
0.979795
0.979791
0.979788
0.979785
0.979782
0.979779
0.979776
0.979773
0.97977
0.979767
0.979764
0.97976
0.979757
0.979753
0.97975
0.979746
0.979742
0.979737
0.979733
0.979728
0.979724
0.979719
0.979714
0.979709
0.979704
0.9797
0.979695
0.97969
0.979686
0.979681
0.979677
0.979673
0.97967
0.979667
0.979664
0.979661
0.979659
0.979656
0.979653
0.979649
0.979643
0.979636
0.979629
0.984231
0.983933
0.983396
0.982779
0.9822
0.9817
0.981287
0.980955
0.980695
0.980492
0.980334
0.980213
0.98012
0.980047
0.979991
0.979947
0.979913
0.979887
0.979867
0.979851
0.979838
0.979828
0.97982
0.979813
0.979807
0.979803
0.979798
0.979795
0.979791
0.979788
0.979786
0.979783
0.97978
0.979777
0.979774
0.979772
0.979769
0.979766
0.979763
0.979759
0.979756
0.979752
0.979748
0.979744
0.97974
0.979736
0.979731
0.979727
0.979722
0.979717
0.979712
0.979707
0.979703
0.979698
0.979693
0.979689
0.979684
0.97968
0.979676
0.979673
0.97967
0.979667
0.979664
0.979661
0.979659
0.979656
0.979652
0.979646
0.979638
0.979632
0.982598
0.982439
0.982155
0.981822
0.981487
0.98118
0.980914
0.980691
0.980508
0.980358
0.980239
0.980146
0.980071
0.980011
0.979965
0.979928
0.9799
0.979877
0.979859
0.979845
0.979834
0.979825
0.979818
0.979812
0.979807
0.979802
0.979799
0.979795
0.979792
0.979789
0.979787
0.979784
0.979781
0.979779
0.979776
0.979774
0.979771
0.979768
0.979765
0.979762
0.979758
0.979755
0.979751
0.979747
0.979743
0.979739
0.979734
0.97973
0.979725
0.97972
0.979715
0.979711
0.979706
0.979701
0.979697
0.979692
0.979688
0.979684
0.97968
0.979676
0.979673
0.97967
0.979667
0.979665
0.979662
0.979659
0.979655
0.979649
0.979641
0.979635
0.981636
0.981554
0.981404
0.981214
0.981013
0.98082
0.980645
0.980492
0.98036
0.98025
0.980161
0.980087
0.980028
0.97998
0.979941
0.979911
0.979887
0.979868
0.979852
0.97984
0.97983
0.979822
0.979816
0.979811
0.979806
0.979802
0.979799
0.979796
0.979793
0.97979
0.979788
0.979785
0.979783
0.979781
0.979778
0.979776
0.979773
0.97977
0.979767
0.979764
0.979761
0.979758
0.979754
0.97975
0.979746
0.979742
0.979737
0.979733
0.979728
0.979724
0.979719
0.979714
0.979709
0.979705
0.9797
0.979696
0.979691
0.979687
0.979683
0.97968
0.979676
0.979673
0.979671
0.979668
0.979665
0.979662
0.979658
0.979652
0.979645
0.979638
0.981061
0.981016
0.980931
0.980818
0.980692
0.980566
0.980447
0.98034
0.980246
0.980165
0.980095
0.980038
0.979991
0.979952
0.979921
0.979896
0.979876
0.979859
0.979846
0.979835
0.979827
0.97982
0.979814
0.97981
0.979806
0.979802
0.979799
0.979796
0.979794
0.979792
0.979789
0.979787
0.979785
0.979783
0.97978
0.979778
0.979776
0.979773
0.97977
0.979767
0.979764
0.979761
0.979757
0.979753
0.979749
0.979745
0.979741
0.979736
0.979732
0.979727
0.979722
0.979718
0.979713
0.979708
0.979704
0.979699
0.979695
0.979691
0.979687
0.979683
0.97968
0.979677
0.979674
0.979672
0.979669
0.979666
0.979662
0.979656
0.979648
0.979641
0.980697
0.980671
0.980619
0.980549
0.980469
0.980383
0.980301
0.980225
0.980156
0.980094
0.980042
0.979997
0.97996
0.979929
0.979903
0.979882
0.979865
0.979852
0.97984
0.979831
0.979824
0.979818
0.979813
0.979809
0.979805
0.979802
0.979799
0.979797
0.979795
0.979793
0.979791
0.979789
0.979787
0.979785
0.979783
0.979781
0.979778
0.979776
0.979773
0.97977
0.979767
0.979764
0.97976
0.979757
0.979753
0.979749
0.979744
0.97974
0.979735
0.979731
0.979726
0.979722
0.979717
0.979712
0.979708
0.979703
0.979699
0.979695
0.979691
0.979687
0.979684
0.979681
0.979678
0.979675
0.979673
0.97967
0.979665
0.979659
0.979652
0.979645
0.980454
0.980439
0.980406
0.980361
0.980308
0.98025
0.980192
0.980136
0.980084
0.980039
0.979999
0.979964
0.979934
0.979909
0.979888
0.979871
0.979857
0.979845
0.979835
0.979828
0.979821
0.979816
0.979812
0.979808
0.979805
0.979802
0.9798
0.979798
0.979796
0.979794
0.979793
0.979791
0.979789
0.979787
0.979785
0.979783
0.979781
0.979779
0.979776
0.979773
0.97977
0.979767
0.979764
0.97976
0.979756
0.979752
0.979748
0.979744
0.979739
0.979735
0.97973
0.979725
0.979721
0.979716
0.979712
0.979707
0.979703
0.979699
0.979695
0.979691
0.979688
0.979685
0.979682
0.979679
0.979677
0.979674
0.979669
0.979663
0.979656
0.979649
0.98029
0.98028
0.980258
0.980228
0.980191
0.980151
0.980108
0.980067
0.980029
0.979995
0.979963
0.979936
0.979912
0.979892
0.979875
0.979861
0.979849
0.979839
0.979831
0.979825
0.979819
0.979815
0.979811
0.979808
0.979805
0.979803
0.979801
0.979799
0.979797
0.979796
0.979794
0.979793
0.979791
0.979789
0.979788
0.979786
0.979784
0.979781
0.979779
0.979776
0.979773
0.97977
0.979767
0.979763
0.97976
0.979756
0.979752
0.979747
0.979743
0.979739
0.979734
0.979729
0.979725
0.97972
0.979716
0.979711
0.979707
0.979703
0.979699
0.979696
0.979692
0.979689
0.979686
0.979684
0.979681
0.979678
0.979674
0.979667
0.97966
0.979653
0.980175
0.980167
0.980152
0.980131
0.980105
0.980076
0.980045
0.980015
0.979986
0.979959
0.979935
0.979913
0.979894
0.979878
0.979864
0.979852
0.979842
0.979834
0.979828
0.979822
0.979817
0.979814
0.97981
0.979808
0.979805
0.979804
0.979802
0.9798
0.979799
0.979798
0.979796
0.979795
0.979793
0.979792
0.97979
0.979789
0.979787
0.979784
0.979782
0.97978
0.979777
0.979774
0.979771
0.979767
0.979763
0.97976
0.979755
0.979751
0.979747
0.979743
0.979738
0.979734
0.979729
0.979724
0.97972
0.979716
0.979711
0.979707
0.979704
0.9797
0.979697
0.979693
0.979691
0.979688
0.979685
0.979682
0.979678
0.979672
0.979664
0.979657
0.980091
0.980085
0.980074
0.980059
0.980041
0.98002
0.979997
0.979974
0.979952
0.979931
0.979912
0.979895
0.979879
0.979866
0.979855
0.979845
0.979837
0.97983
0.979824
0.97982
0.979816
0.979813
0.97981
0.979808
0.979806
0.979804
0.979803
0.979802
0.9798
0.979799
0.979798
0.979797
0.979796
0.979794
0.979793
0.979791
0.97979
0.979787
0.979785
0.979783
0.97978
0.979777
0.979774
0.979771
0.979767
0.979763
0.979759
0.979755
0.979751
0.979747
0.979742
0.979738
0.979733
0.979729
0.979724
0.97972
0.979716
0.979712
0.979708
0.979704
0.979701
0.979698
0.979695
0.979692
0.97969
0.979686
0.979682
0.979676
0.979668
0.979662
0.98003
0.980024
0.980016
0.980006
0.979993
0.979977
0.97996
0.979942
0.979925
0.979909
0.979893
0.97988
0.979867
0.979857
0.979847
0.979839
0.979832
0.979827
0.979822
0.979818
0.979815
0.979812
0.97981
0.979808
0.979806
0.979805
0.979804
0.979803
0.979802
0.979801
0.9798
0.979799
0.979798
0.979797
0.979796
0.979794
0.979792
0.979791
0.979788
0.979786
0.979783
0.979781
0.979778
0.979774
0.979771
0.979767
0.979763
0.979759
0.979755
0.97975
0.979746
0.979742
0.979737
0.979733
0.979728
0.979724
0.97972
0.979716
0.979712
0.979709
0.979705
0.979702
0.979699
0.979697
0.979694
0.979691
0.979687
0.97968
0.979673
0.979666
0.979984
0.979979
0.979973
0.979965
0.979956
0.979944
0.979931
0.979917
0.979904
0.979891
0.979879
0.979868
0.979857
0.979849
0.979841
0.979834
0.979829
0.979824
0.97982
0.979817
0.979814
0.979812
0.97981
0.979808
0.979807
0.979806
0.979805
0.979804
0.979804
0.979803
0.979802
0.979801
0.979801
0.979799
0.979798
0.979797
0.979795
0.979794
0.979792
0.979789
0.979787
0.979784
0.979781
0.979778
0.979774
0.979771
0.979767
0.979763
0.979759
0.979754
0.97975
0.979746
0.979741
0.979737
0.979733
0.979728
0.979724
0.97972
0.979716
0.979713
0.97971
0.979707
0.979704
0.979701
0.979699
0.979695
0.979691
0.979685
0.979677
0.979671
0.979949
0.979945
0.97994
0.979935
0.979927
0.979918
0.979908
0.979897
0.979887
0.979876
0.979867
0.979858
0.979849
0.979842
0.979836
0.97983
0.979826
0.979822
0.979818
0.979816
0.979813
0.979812
0.97981
0.979809
0.979808
0.979807
0.979807
0.979806
0.979805
0.979805
0.979804
0.979804
0.979803
0.979802
0.979801
0.9798
0.979798
0.979796
0.979795
0.979792
0.97979
0.979787
0.979784
0.979781
0.979778
0.979774
0.97977
0.979767
0.979762
0.979758
0.979754
0.97975
0.979745
0.979741
0.979737
0.979732
0.979728
0.979724
0.979721
0.979717
0.979714
0.979711
0.979708
0.979706
0.979703
0.9797
0.979696
0.979689
0.979682
0.979675
0.979922
0.979918
0.979914
0.979911
0.979905
0.979898
0.97989
0.979882
0.979873
0.979865
0.979857
0.979849
0.979843
0.979837
0.979831
0.979827
0.979823
0.97982
0.979817
0.979815
0.979813
0.979812
0.97981
0.97981
0.979809
0.979808
0.979808
0.979808
0.979807
0.979807
0.979806
0.979806
0.979805
0.979804
0.979803
0.979802
0.979801
0.979799
0.979798
0.979795
0.979793
0.97979
0.979788
0.979785
0.979781
0.979778
0.979774
0.97977
0.979766
0.979762
0.979758
0.979753
0.979749
0.979745
0.979741
0.979736
0.979732
0.979729
0.979725
0.979721
0.979718
0.979715
0.979713
0.97971
0.979707
0.979704
0.9797
0.979694
0.979686
0.97968
0.979901
0.979897
0.979894
0.979892
0.979888
0.979882
0.979876
0.979869
0.979862
0.979855
0.979849
0.979843
0.979837
0.979832
0.979828
0.979824
0.979821
0.979818
0.979816
0.979814
0.979813
0.979812
0.979811
0.97981
0.97981
0.979809
0.979809
0.979809
0.979809
0.979809
0.979808
0.979808
0.979807
0.979807
0.979806
0.979805
0.979804
0.979802
0.9798
0.979798
0.979796
0.979794
0.979791
0.979788
0.979785
0.979781
0.979777
0.979774
0.97977
0.979765
0.979761
0.979757
0.979753
0.979749
0.979744
0.97974
0.979736
0.979732
0.979729
0.979725
0.979722
0.979719
0.979717
0.979714
0.979712
0.979709
0.979705
0.979698
0.979691
0.979684
0.979884
0.979881
0.979879
0.979877
0.979874
0.97987
0.979865
0.979859
0.979853
0.979848
0.979842
0.979837
0.979833
0.979829
0.979825
0.979822
0.979819
0.979817
0.979815
0.979814
0.979813
0.979812
0.979811
0.979811
0.979811
0.979811
0.979811
0.979811
0.979811
0.97981
0.97981
0.97981
0.97981
0.979809
0.979808
0.979807
0.979806
0.979805
0.979803
0.979801
0.979799
0.979796
0.979794
0.979791
0.979788
0.979784
0.979781
0.979777
0.979773
0.979769
0.979765
0.979761
0.979756
0.979752
0.979748
0.979744
0.97974
0.979736
0.979733
0.979729
0.979726
0.979724
0.979721
0.979718
0.979716
0.979713
0.979709
0.979703
0.979695
0.979689
0.979871
0.979868
0.979867
0.979866
0.979864
0.97986
0.979856
0.979851
0.979846
0.979842
0.979837
0.979833
0.979829
0.979826
0.979823
0.97982
0.979818
0.979816
0.979815
0.979814
0.979813
0.979812
0.979812
0.979812
0.979812
0.979812
0.979812
0.979812
0.979812
0.979812
0.979812
0.979812
0.979812
0.979811
0.979811
0.97981
0.979809
0.979807
0.979806
0.979804
0.979802
0.979799
0.979797
0.979794
0.979791
0.979787
0.979784
0.97978
0.979776
0.979772
0.979768
0.979764
0.97976
0.979755
0.979751
0.979747
0.979744
0.97974
0.979736
0.979733
0.97973
0.979727
0.979725
0.979723
0.97972
0.979717
0.979713
0.979707
0.979699
0.979693
0.979861
0.979858
0.979857
0.979857
0.979855
0.979852
0.979849
0.979845
0.979841
0.979837
0.979833
0.97983
0.979826
0.979823
0.979821
0.979819
0.979817
0.979815
0.979814
0.979813
0.979813
0.979813
0.979812
0.979812
0.979813
0.979813
0.979813
0.979813
0.979814
0.979814
0.979814
0.979814
0.979814
0.979813
0.979813
0.979812
0.979811
0.97981
0.979808
0.979806
0.979804
0.979802
0.979799
0.979796
0.979793
0.97979
0.979786
0.979783
0.979779
0.979775
0.979771
0.979767
0.979763
0.979759
0.979755
0.979751
0.979747
0.979743
0.97974
0.979737
0.979734
0.979731
0.979729
0.979726
0.979724
0.979721
0.979717
0.979711
0.979703
0.979697
0.979852
0.97985
0.97985
0.97985
0.979849
0.979847
0.979844
0.97984
0.979837
0.979833
0.97983
0.979827
0.979824
0.979822
0.97982
0.979818
0.979816
0.979815
0.979814
0.979814
0.979813
0.979813
0.979813
0.979813
0.979814
0.979814
0.979814
0.979815
0.979815
0.979815
0.979815
0.979815
0.979815
0.979815
0.979815
0.979814
0.979813
0.979812
0.97981
0.979808
0.979806
0.979804
0.979802
0.979799
0.979796
0.979793
0.979789
0.979785
0.979782
0.979778
0.979774
0.97977
0.979766
0.979762
0.979758
0.979754
0.97975
0.979746
0.979743
0.97974
0.979737
0.979735
0.979732
0.97973
0.979728
0.979725
0.979721
0.979715
0.979707
0.979701
0.979846
0.979844
0.979844
0.979845
0.979844
0.979842
0.97984
0.979837
0.979834
0.979831
0.979828
0.979825
0.979823
0.979821
0.979819
0.979817
0.979816
0.979815
0.979814
0.979814
0.979813
0.979813
0.979814
0.979814
0.979814
0.979815
0.979815
0.979816
0.979816
0.979817
0.979817
0.979817
0.979817
0.979817
0.979816
0.979816
0.979815
0.979814
0.979812
0.97981
0.979808
0.979806
0.979804
0.979801
0.979798
0.979795
0.979791
0.979788
0.979784
0.97978
0.979776
0.979772
0.979768
0.979764
0.97976
0.979757
0.979753
0.979749
0.979746
0.979743
0.97974
0.979738
0.979735
0.979733
0.979731
0.979728
0.979724
0.979718
0.97971
0.979704
0.979841
0.97984
0.979841
0.979842
0.979841
0.97984
0.979837
0.979835
0.979832
0.979829
0.979827
0.979824
0.979822
0.97982
0.979818
0.979817
0.979815
0.979815
0.979814
0.979814
0.979814
0.979814
0.979814
0.979814
0.979815
0.979815
0.979816
0.979817
0.979817
0.979818
0.979818
0.979818
0.979818
0.979818
0.979818
0.979817
0.979816
0.979815
0.979814
0.979812
0.97981
0.979808
0.979806
0.979803
0.9798
0.979797
0.979794
0.97979
0.979786
0.979782
0.979779
0.979775
0.979771
0.979767
0.979763
0.979759
0.979755
0.979752
0.979749
0.979746
0.979743
0.979741
0.979738
0.979736
0.979734
0.979731
0.979727
0.979721
0.979714
0.979708
0.979838
0.979838
0.979839
0.97984
0.97984
0.979838
0.979836
0.979833
0.979831
0.979828
0.979826
0.979823
0.979821
0.979819
0.979818
0.979816
0.979815
0.979814
0.979814
0.979814
0.979814
0.979814
0.979814
0.979815
0.979815
0.979816
0.979817
0.979817
0.979818
0.979818
0.979819
0.979819
0.979819
0.979819
0.979819
0.979818
0.979817
0.979816
0.979815
0.979813
0.979812
0.979809
0.979807
0.979804
0.979802
0.979798
0.979795
0.979792
0.979788
0.979784
0.97978
0.979776
0.979772
0.979769
0.979765
0.979761
0.979757
0.979754
0.979751
0.979748
0.979745
0.979743
0.979741
0.979739
0.979737
0.979734
0.97973
0.979724
0.979716
0.97971
0.979836
0.979836
0.979838
0.979839
0.979838
0.979837
0.979835
0.979832
0.97983
0.979827
0.979825
0.979822
0.97982
0.979818
0.979817
0.979816
0.979815
0.979814
0.979813
0.979813
0.979813
0.979814
0.979814
0.979815
0.979815
0.979816
0.979817
0.979817
0.979818
0.979819
0.979819
0.979819
0.97982
0.97982
0.979819
0.979819
0.979818
0.979817
0.979816
0.979814
0.979812
0.97981
0.979808
0.979805
0.979803
0.979799
0.979796
0.979793
0.979789
0.979785
0.979782
0.979778
0.979774
0.97977
0.979766
0.979762
0.979759
0.979756
0.979752
0.97975
0.979747
0.979745
0.979743
0.979741
0.979738
0.979736
0.979732
0.979726
0.979718
0.979712
0.979834
0.979834
0.979836
0.979838
0.979837
0.979836
0.979833
0.979831
0.979828
0.979826
0.979823
0.979821
0.979819
0.979817
0.979816
0.979814
0.979813
0.979813
0.979812
0.979812
0.979812
0.979812
0.979813
0.979813
0.979814
0.979815
0.979816
0.979816
0.979817
0.979818
0.979818
0.979819
0.979819
0.979819
0.979819
0.979818
0.979818
0.979817
0.979815
0.979814
0.979812
0.97981
0.979808
0.979805
0.979802
0.979799
0.979796
0.979793
0.979789
0.979785
0.979782
0.979778
0.979774
0.97977
0.979766
0.979763
0.979759
0.979756
0.979753
0.97975
0.979747
0.979745
0.979743
0.979741
0.979739
0.979737
0.979733
0.979727
0.979719
0.979713
0.979833
0.979833
0.979834
0.979835
0.979835
0.979833
0.979831
0.979828
0.979826
0.979823
0.97982
0.979818
0.979816
0.979814
0.979812
0.979811
0.97981
0.979809
0.979809
0.979809
0.979809
0.979809
0.97981
0.97981
0.979811
0.979812
0.979813
0.979814
0.979814
0.979815
0.979816
0.979816
0.979816
0.979816
0.979816
0.979816
0.979815
0.979814
0.979813
0.979812
0.97981
0.979808
0.979806
0.979803
0.9798
0.979797
0.979794
0.979791
0.979787
0.979783
0.97978
0.979776
0.979772
0.979768
0.979764
0.979761
0.979757
0.979754
0.979751
0.979748
0.979746
0.979744
0.979742
0.97974
0.979738
0.979735
0.979731
0.979725
0.979718
0.979712
0.979831
0.97983
0.979831
0.979831
0.97983
0.979828
0.979826
0.979823
0.979821
0.979818
0.979815
0.979813
0.97981
0.979808
0.979807
0.979805
0.979804
0.979803
0.979803
0.979803
0.979803
0.979803
0.979803
0.979804
0.979805
0.979806
0.979807
0.979807
0.979808
0.979809
0.97981
0.97981
0.97981
0.97981
0.97981
0.97981
0.979809
0.979809
0.979807
0.979806
0.979804
0.979802
0.9798
0.979798
0.979795
0.979792
0.979789
0.979786
0.979782
0.979778
0.979775
0.979771
0.979767
0.979763
0.97976
0.979756
0.979753
0.97975
0.979747
0.979744
0.979742
0.979739
0.979737
0.979736
0.979734
0.979731
0.979727
0.979721
0.979714
0.979708
0.979829
0.979828
0.979827
0.979826
0.979825
0.979823
0.97982
0.979818
0.979815
0.979812
0.979809
0.979806
0.979804
0.979801
0.979799
0.979798
0.979796
0.979795
0.979795
0.979794
0.979794
0.979794
0.979795
0.979795
0.979796
0.979797
0.979798
0.979798
0.979799
0.9798
0.979801
0.979801
0.979802
0.979802
0.979802
0.979801
0.979801
0.9798
0.979799
0.979798
0.979796
0.979794
0.979792
0.97979
0.979787
0.979784
0.979781
0.979778
0.979775
0.979771
0.979767
0.979764
0.97976
0.979756
0.979753
0.979749
0.979746
0.979743
0.97974
0.979737
0.979735
0.979733
0.979731
0.979729
0.979727
0.979725
0.979721
0.979715
0.979707
0.979702
0.979828
0.979827
0.979826
0.979824
0.979823
0.97982
0.979818
0.979815
0.979812
0.979809
0.979805
0.979802
0.9798
0.979797
0.979795
0.979793
0.979792
0.97979
0.979789
0.979789
0.979789
0.979789
0.979789
0.97979
0.97979
0.979791
0.979792
0.979793
0.979793
0.979794
0.979795
0.979796
0.979796
0.979796
0.979796
0.979796
0.979795
0.979795
0.979794
0.979793
0.979791
0.979789
0.979787
0.979785
0.979782
0.979779
0.979776
0.979773
0.979769
0.979766
0.979762
0.979759
0.979755
0.979751
0.979748
0.979744
0.979741
0.979738
0.979735
0.979732
0.97973
0.979728
0.979726
0.979724
0.979722
0.97972
0.979716
0.97971
0.979702
0.979697
)
;

boundaryField
{
    left
    {
        type            symmetryPlane;
    }
    right
    {
        type            symmetryPlane;
    }
    top
    {
        type            symmetryPlane;
    }
    bottom
    {
        type            symmetryPlane;
    }
    frontAndBack
    {
        type            empty;
    }
}


// ************************************************************************* //
